ITEM: TIMESTEP
0
ITEM: NUMBER OF ATOMS
9088
ITEM: BOX BOUNDS xy xz yz pp pp pp
6.0484377050374363e+00 5.5882500087011650e+01 -5.7175350933329163e-15
6.0484377050374416e+00 5.5882500087011650e+01 0.0000000000000000e+00
6.0484377050374416e+00 5.5882500087011650e+01 0.0000000000000000e+00
ITEM: ATOMS id type x y z
1 2 36.6705 33.4064 41.6593
2 2 8.14831 21.4891 7.14785
3 2 44.2293 42.7431 48.4124
4 2 13.328 25.6476 55.8727
5 2 15.6067 17.3149 55.7387
6 2 36.9922 11.012 29.6604
7 2 18.5758 21.6845 47.3798
8 2 29.0693 42.696 42.8814
9 2 8.30896 8.21738 55.5329
10 2 53.6612 51.9764 7.51062
11 2 31.4356 43.0209 52.3219
12 2 7.85277 7.81577 22.9935
13 2 15.0614 31.8879 27.7754
14 2 50.7623 13.2701 7.53976
15 2 45.1525 42.0129 22.6184
16 2 39.5995 49.7001 29.4565
17 2 18.4034 21.0209 33.6893
18 2 36.1685 7.19096 7.55263
19 2 19.0435 15.4155 51.8578
20 2 20.5892 16.5731 42.4934
21 2 24.98 52.3484 20.5544
22 2 30.6687 6.35551 38.3491
23 2 26.8431 19.8835 32.9095
24 2 9.38177 24.1065 45.5779
25 2 43.2378 27.2524 24.6917
26 2 45.0787 41.4991 31.4965
27 2 33.7738 34.7623 17.5426
28 2 52.0195 26.7511 54.2681
29 2 22.082 49.48 34.2557
30 2 16.4768 43.4638 23.3759
31 2 40.7122 31.19 12.0146
32 2 11.7268 26.5888 48.9325
33 2 11.0402 44.2787 39.3004
34 2 39.4994 18.5022 35.5914
35 2 33.2204 20.2337 14.7063
36 2 41.5596 36.4847 6.59202
37 2 39.1356 31.4683 44.5092
38 2 24.8726 39.2928 22.8251
39 2 34.1959 43.6335 54.7064
40 2 28.2681 22.0302 21.0437
41 2 52.4342 31.5133 38.8582
42 2 22.9471 37.8853 41.8721
43 2 19.4266 29.1144 44.6791
44 2 30.3841 15.8006 23.2411
45 2 25.6026 7.30895 12.0939
46 2 46.2312 44.8583 55.7039
47 2 16.9266 35.1748 35.5621
48 2 31.8512 7.55854 26.0164
49 2 30.3376 27.4182 54.9148
50 2 51.8544 53.8518 20.9518
51 2 26.273 14.0932 6.19918
52 2 26.6042 12.4905 15.962
53 2 21.3276 18.9515 10.094
54 2 45.2964 37.6966 22.7159
55 2 17.1589 55.6182 53.2506
56 2 49.5409 26.8431 11.1913
57 2 52.7262 14.1866 45.756
58 2 53.8219 20.0009 53.0266
59 2 16.5201 28.7197 51.0911
60 2 52.8989 11.64 15.5945
61 2 34.3566 14.6307 30.0903
62 2 27.0151 22.2109 40.5987
63 2 55.0064 22.5993 12.713
64 2 20.7931 19.9918 50.8883
65 2 43.5239 12.197 47.9611
66 2 43.2596 45.394 26.0275
67 2 11.2212 30.6552 17.3373
68 2 52.3586 53.1921 51.5347
69 2 29.6496 25.774 27.4953
70 2 10.1725 22.6065 55.354
71 2 19.8291 22.4814 31.609
72 2 36.1668 20.5966 49.5694
73 2 54.4858 22.4015 17.0079
74 2 27.8752 31.0345 21.0366
75 2 54.3728 46.2366 28.9153
76 2 55.2093 25.0267 17.1754
77 2 31.3896 45.7419 26.6104
78 2 44.1985 7.17778 52.2648
79 2 50.4198 42.3478 27.6464
80 2 39.284 37.4237 8.02542
81 2 36.5758 24.7787 23.5847
82 2 21.7969 41.5078 48.1215
83 2 22.2013 19.9353 24.1505
84 2 44.7195 20.2149 10.6112
85 2 36.3727 25.441 41.4267
86 2 34.8888 22.0595 29.5149
87 2 26.595 18.4292 7.91947
88 2 15.1323 52.9772 12.7098
89 2 6.8458 32.1199 38.4616
90 2 28.3044 55.0251 19.8442
91 2 37.4648 43.2409 39.0091
92 2 22.1847 47.9848 25.391
93 2 6.48657 39.2947 29.7356
94 2 47.5607 28.6701 54.5171
95 2 43.7123 44.472 45.5708
96 2 7.4835 31.6674 26.4029
97 2 41.6547 21.8093 7.30261
98 2 22.1225 7.98902 48.1291
99 2 25.4298 44.5414 26.7765
100 2 7.81499 54.4347 23.3707
101 2 30.7553 13.7725 7.19387
102 2 49.1038 36.392 14.0226
103 2 9.2978 10.7291 50.1874
104 2 22.4779 20.7628 40.6184
105 2 14.0542 11.6069 19.5828
106 2 52.4581 29.2061 26.8149
107 2 42.3642 38.9466 15.8828
108 2 34.2791 33.5776 46.4156
109 2 16.1633 47.6602 50.8629
110 2 23.4802 14.169 7.02835
111 2 18.1666 52.0332 55.7284
112 2 33.5398 10.9813 7.77161
113 2 42.7724 30.8611 52.1039
114 2 34.1358 39.7944 26.3791
115 2 39.4277 38.0201 24.6632
116 2 38.0978 43.4299 47.5607
117 2 27.2686 9.23774 42.307
118 2 28.8352 25.4583 13.5982
119 2 11.5117 46.2895 51.8396
120 2 20.664 21.0673 21.8138
121 2 11.2517 7.70625 43.6158
122 2 26.8217 40.1836 7.91973
123 2 40.5427 44.9041 22.6201
124 2 29.5771 22.7374 55.3122
125 2 8.77507 8.51359 12.1936
126 2 36.5691 39.5199 49.1383
127 2 13.1471 55.2768 39.686
128 2 49.0472 27.6352 33.7358
129 2 29.5438 18.0767 14.1013
130 2 44.8517 13.9435 46.1214
131 2 54.349 52.1443 16.5048
132 2 28.2959 42.8168 6.57768
133 2 34.1726 27.0021 13.6377
134 2 22.809 25.5577 42.3712
135 2 29.2282 38.5247 44.9666
136 2 55.7595 43.0378 19.3916
137 2 18.9427 29.701 27.636
138 2 45.509 6.47387 31.6332
139 2 54.4727 53.4302 36.9784
140 2 16.2408 19.885 20.7917
141 2 42.8347 20.4652 27.6895
142 2 25.636 44.2165 46.4591
143 2 46.7306 8.13243 47.4642
144 2 15.8145 51.5779 34.2613
145 2 38.6547 7.85157 22.6973
146 2 23.2805 46.685 47.2312
147 2 32.4964 31.1595 32.2794
148 2 20.9727 11.6585 51.1326
149 2 29.6299 55.5855 54.6771
150 2 19.4908 26.5784 39.8923
151 2 15.3999 29.8503 11.688
152 2 17.0382 46.9199 28.4893
153 2 18.3156 33.541 8.44112
154 2 37.0005 10.0497 39.2267
155 2 34.6065 47.1182 18.7391
156 2 32.5577 34.703 11.0407
157 2 30.2385 42.7932 25.9184
158 2 48.1343 26.4444 26.2866
159 2 20.7053 46.418 34.3178
160 2 26.8481 55.4751 9.29166
161 2 27.9642 22.1569 50.989
162 2 40.7683 55.2673 18.8049
163 2 42.6634 7.50406 37.9336
164 2 33.4242 42.5358 40.6495
165 2 29.5173 16.8348 34.9219
166 2 28.3171 25.2911 53.9105
167 2 23.1485 35.1158 54.1811
168 2 7.6919 47.684 48.3718
169 2 34.8122 24.6697 20.863
170 2 13.408 23.274 21.6622
171 2 20.2315 44.9026 51.9232
172 2 15.8979 16.6876 48.6593
173 2 10.6097 13.529 36.0382
174 2 13.3909 55.4047 50.5475
175 2 14.8098 22.8628 18.11
176 2 44.8746 10.0838 43.3745
177 2 47.89 38.2947 52.2277
178 2 30.7043 29.2647 35.1704
179 2 18.5739 34.8406 40.7067
180 2 11.5703 35.5905 28.8257
181 2 7.93219 13.4626 38.27
182 2 38.8637 23.5102 22.6824
183 2 47.2439 32.7351 22.6508
184 2 6.79351 19.9793 19.6898
185 2 34.7279 13.485 45.5254
186 2 51.3785 55.8017 54.3315
187 2 34.6408 33.7457 36.0762
188 2 48.467 30.3425 40.8687
189 2 53.2778 37.7351 27.52
190 2 32.5987 19.1384 51.4299
191 2 22.758 41.1746 15.9948
192 2 35.8604 49.6549 9.86217
193 2 53.2809 24.8548 38.2428
194 2 39.9114 47.6845 24.6193
195 2 52.6848 15.0315 28.8619
196 2 29.8462 51.1129 21.9677
197 2 14.6649 51.1974 54.3766
198 2 39.2182 12.449 17.917
199 2 39.364 22.3633 13.2536
200 2 6.79239 35.2625 28.9717
201 2 10.1741 24.4479 13.0376
202 2 26.0443 15.5145 34.784
203 2 21.7648 26.3778 20.5006
204 2 36.162 43.7818 21.1281
205 2 19.5998 53.8582 42.6379
206 2 43.0504 9.52162 12.1775
207 2 7.3886 41.4239 40.9903
208 2 16.8705 40.9346 20.1424
209 2 54.2123 36.0175 49.2456
210 2 12.6772 9.43975 12.314
211 2 45.5204 19.7442 49.3136
212 2 40.6727 36.9881 27.3901
213 2 10.8119 44.7296 42.1915
214 2 10.7515 12.4755 53.6077
215 2 8.97723 27.8697 14.5051
216 2 47.1778 23.9023 11.7214
217 2 53.6067 6.69184 32.7175
218 2 22.0595 21.3874 11.6996
219 2 55.7649 17.5629 17.7112
220 2 20.4065 18.7068 18.8011
221 2 19.8155 27.5423 18.1071
222 2 44.9375 52.7666 10.3374
223 2 30.2378 52.0474 7.48756
224 2 14.956 29.4974 46.9095
225 2 20.8494 33.7737 37.5275
226 2 43.0344 46.0527 9.31365
227 2 49.1571 49.0126 15.9774
228 2 29.1836 42.6305 38.0231
229 2 29.7882 8.83495 28.9614
230 2 28.0025 17.3114 21.2219
231 2 45.7492 22.8357 7.20083
232 2 31.9234 31.15 6.84583
233 2 46.0338 39.4136 9.5615
234 2 15.502 43.4301 30.761
235 2 50.8675 41.4959 35.1704
236 2 32.1108 45.6633 10.8386
237 2 21.7513 31.8496 28.4067
238 2 42.7381 38.3369 52.6508
239 2 19.8185 24.7733 42.5875
240 2 7.66457 52.11 29.5303
241 2 28.9697 38.0151 35.5741
242 2 28.904 47.5221 7.37304
243 2 22.2518 55.5236 43.5675
244 2 19.3032 30.4618 51.379
245 2 46.5991 28.4311 23.5733
246 2 17.8261 20.3489 27.2898
247 2 52.4242 13.9784 12.3028
248 2 54.2314 28.1028 34.6989
249 2 46.7555 33.9888 15.5448
250 2 53.9084 7.71855 43.3342
251 2 27.7097 16.882 12.2975
252 2 7.13921 10.7221 29.8058
253 2 15.4939 36.6093 49.3667
254 2 14.2174 17.5294 29.6902
255 2 30.3601 35.8202 7.95591
256 2 14.0488 22.595 46.0006
257 2 18.5962 7.75194 30.7164
258 2 20.7709 31.906 31.2222
259 2 52.9888 24.0887 53.0478
260 2 35.3298 38.483 40.1288
261 2 8.45858 34.7272 15.0858
262 2 49.7092 55.0721 44.1754
263 2 21.9777 35.7743 46.0618
264 2 6.44999 10.9574 54.609
265 2 31.6805 32.3341 48.8613
266 2 7.63346 8.23979 33.7438
267 2 55.7789 45.4373 41.3218
268 2 8.88725 33.589 44.7526
269 2 25.5053 8.20546 9.08751
270 2 37.229 50.6024 37.4968
271 2 14.041 52.2093 36.3194
272 2 9.19535 17.6179 21.8915
273 2 27.804 39.6282 38.2056
274 2 37.0295 37.2947 16.492
275 2 51.7013 53.8248 37.0221
276 2 14.6388 25.3627 23.7605
277 2 47.3849 36.6804 16.6894
278 2 15.8902 21.1735 8.89494
279 2 49.1708 40.3777 42.3087
280 2 34.5709 16.9926 15.2864
281 2 32.0733 16.2013 13.2823
282 2 32.0305 18.6532 23.4262
283 2 35.7669 23.4041 50.9001
284 2 16.4843 50.8356 30.3382
285 2 48.3025 45.6849 25.2744
286 2 24.1057 13.8461 14.4985
287 2 7.35242 21.5796 49.1253
288 2 6.62256 24.4 53.8154
289 2 26.5262 9.99122 39.5146
290 2 7.16293 21.9438 45.9856
291 2 19.6279 51.5873 20.1064
292 2 9.81663 49.3104 54.7149
293 2 26.4703 9.57866 14.423
294 2 13.6546 25.2545 14.9775
295 2 36.1053 18.7501 41.6063
296 2 21.9304 50.8586 11.4733
297 2 35.1428 46.8988 11.1583
298 2 7.00915 13.6381 14.1905
299 2 36.9306 42.6182 24.2196
300 2 45.5543 55.3837 40.7594
301 2 41.396 42.1413 44.3491
302 2 51.5842 54.3837 31.8838
303 2 27.7977 11.766 35.1431
304 2 35.6896 13.3422 27.8375
305 2 32.8141 50.1048 18.4545
306 2 50.2007 31.5949 36.7285
307 2 29.6144 13.5629 29.0765
308 2 23.1276 44.522 28.6491
309 2 42.2491 49.003 25.6132
310 2 12.0629 9.35327 48.4367
311 2 18.4301 22.366 13.6391
312 2 47.4688 9.24025 20.6986
313 2 28.8807 41.6518 11.6256
314 2 44.8392 50.2887 48.6714
315 2 10.156 35.3263 19.8162
316 2 54.386 47.977 15.0041
317 2 47.9466 9.3365 14.2307
318 2 19.9835 52.0949 24.929
319 2 10.3103 41.4359 31.2008
320 2 6.77865 21.8235 27.6844
321 2 50.8433 7.85286 52.2322
322 2 16.6618 24.3145 43.807
323 2 51.5466 17.7602 51.8503
324 2 50.5167 46.9616 20.1958
325 2 29.633 39.4565 29.1891
326 2 24.6381 43.5014 21.917
327 2 39.5635 48.6574 33.6457
328 2 23.8262 38.4849 17.595
329 2 47.2148 54.9247 24.5546
330 2 40.0049 41.1372 16.2916
331 2 55.1187 11.6857 17.8467
332 2 49.585 8.80915 9.60265
333 2 18.55 28.6955 33.1782
334 2 21.3484 14.6922 34.2293
335 2 49.2146 53.2323 30.654
336 2 32.8909 47.9576 28.3115
337 2 28.1166 24.8757 42.7968
338 2 11.9211 17.0018 49.9397
339 2 39.6189 16.2078 17.4299
340 2 12.4339 30.913 28.8487
341 2 17.1882 6.43841 43.6349
342 2 48.4715 47.8804 31.9533
343 2 48.7706 19.829 10.9394
344 2 13.4161 50.1607 31.1937
345 2 19.5185 6.58458 55.1438
346 2 12.4413 54.3473 47.9445
347 2 13.5363 26.1808 43.3718
348 2 47.8647 34.8461 43.5183
349 2 28.2921 43.4703 48.3548
350 2 40.4348 8.73677 42.9337
351 2 6.60736 45.7403 50.1079
352 2 32.7376 48.9974 33.1828
353 2 33.4072 28.5619 54.6063
354 2 49.7103 11.5314 47.8393
355 2 25.0362 32.3825 22.2661
356 2 46.5785 28.7124 45.2718
357 2 31.7792 38.4823 41.4375
358 2 55.4316 21.6763 43.4624
359 2 18.8146 20.5292 36.5432
360 2 20.371 32.2745 55.7039
361 2 50.438 50.5498 37.5873
362 2 28.3419 48.4702 54.6639
363 2 46.461 9.17718 16.6492
364 2 24.9216 32.1417 17.5168
365 2 25.3588 8.30998 29.7247
366 2 19.7902 41.1939 35.977
367 2 53.238 30.8641 53.4615
368 2 23.4063 25.5126 29.8861
369 2 28.4559 29.7454 30.8292
370 2 13.1017 12.2897 11.8041
371 2 18.5661 29.3504 10.9561
372 2 14.0935 45.9779 17.6014
373 2 25.1123 34.2787 27.1718
374 2 42.7971 30.5896 35.9718
375 2 33.0822 16.2895 53.3251
376 2 33.9904 54.1954 20.3372
377 2 16.9397 44.6225 55.261
378 2 27.7071 33.6214 36.6708
379 2 23.7786 19.9554 31.9031
380 2 9.74177 35.4831 26.5072
381 2 16.4219 43.6143 13.1414
382 2 21.4693 21.1058 48.2652
383 2 12.1351 54.8914 15.7266
384 2 23.7187 28.5034 32.8707
385 2 14.5603 21.1495 54.7327
386 2 47.8013 33.2564 39.622
387 2 49.9059 27.9951 39.9244
388 2 15.1934 9.22404 15.8776
389 2 16.8216 24.0528 8.73211
390 2 16.7797 34.404 44.9766
391 2 18.1521 27.7343 15.6484
392 2 7.18051 25.2018 39.8941
393 2 45.8375 41.2579 19.9481
394 2 22.9506 29.6822 9.48136
395 2 35.1941 49.6358 15.1844
396 2 43.0763 54.3836 8.4403
397 2 15.9034 53.2941 16.4711
398 2 32.9378 30.4599 39.3664
399 2 39.2847 23.0774 34.002
400 2 20.7358 37.4699 16.3538
401 2 16.0227 11.9375 48.0318
402 2 52.5017 51.7765 39.3451
403 2 11.8583 26.4254 17.9382
404 2 28.3824 47.5667 13.5142
405 2 24.2932 43.949 54.3032
406 2 33.5514 24.9914 54.7215
407 2 36.7917 33.9396 24.4842
408 2 38.1857 45.8456 10.3094
409 2 52.4392 30.6544 13.9414
410 2 7.80437 8.67057 38.7168
411 2 23.9524 41.1771 29.3216
412 2 31.4999 16.8961 18.15
413 2 13.2242 30.8206 24.5268
414 2 50.5219 21.5212 36.4432
415 2 9.45094 10.8311 36.727
416 2 50.22 10.8042 53.9948
417 2 18.7242 55.4328 46.298
418 2 20.2624 40.1694 7.66103
419 2 41.2968 13.0995 32.3057
420 2 23.0782 48.9322 51.5278
421 2 28.1322 32.789 41.5732
422 2 42.6865 29.8547 26.6309
423 2 47.6974 54.2776 21.5275
424 2 54.9298 32.8639 26.4437
425 2 14.6483 18.7769 12.4212
426 2 26.5709 52.8603 49.8329
427 2 32.918 48.6931 42.9412
428 2 16.475 49.6485 42.2768
429 2 26.3875 47.6548 19.662
430 2 49.5383 22.9121 40.8154
431 2 28.0479 38.3242 14.8709
432 2 26.1494 16.2063 43.1028
433 2 25.6165 44.1494 51.6498
434 2 14.0485 14.2406 7.03858
435 2 31.3501 11.1265 29.2699
436 2 11.2351 37.2044 47.6916
437 2 25.022 38.4525 28.3849
438 2 43.4759 26.301 39.0375
439 2 22.9049 16.5419 53.0859
440 2 9.68036 7.5969 52.8078
441 2 37.7331 10.8698 16.0475
442 2 46.2725 47.3646 19.3687
443 2 6.74665 6.79783 30.9592
444 2 31.1348 22.8739 50.0264
445 2 51.7177 36.211 40.8189
446 2 9.60483 37.9336 8.40153
447 2 29.8734 54.3946 23.4406
448 2 19.8698 42.2369 19.6426
449 2 32.578 8.12725 42.0103
450 2 25.997 29.0106 29.2187
451 2 8.27106 25.6249 42.5649
452 2 47.8179 14.2924 34.2831
453 2 23.3994 6.52944 28.5288
454 2 43.2156 46.0171 52.1308
455 2 50.6157 36.9563 51.8489
456 2 29.8569 8.52609 9.82818
457 2 25.331 36.0813 16.1483
458 2 45.3691 8.58077 50.0546
459 2 53.8265 44.2716 7.69128
460 2 10.0015 6.66447 39.7908
461 2 33.6043 9.60547 12.885
462 2 24.5942 24.1043 22.8228
463 2 53.7092 55.5772 49.713
464 2 33.0666 9.59193 53.9223
465 2 6.50609 36.4876 38.9454
466 2 36.8626 28.5965 11.6812
467 2 20.9016 54.1326 20.9524
468 2 42.7323 39.9628 50.2042
469 2 6.70263 41.5768 51.8773
470 2 46.9888 37.5727 11.8685
471 2 41.7253 40.7724 8.97101
472 2 39.823 10.4655 13.6514
473 2 51.9904 51.3208 33.5905
474 2 19.6404 11.1725 21.5976
475 2 41.1376 15.8737 48.3288
476 2 17.1236 11.7346 19.9441
477 2 36.5231 22.5995 19.2978
478 2 25.8855 21.4198 22.6045
479 2 39.4986 42.8568 25.8869
480 2 23.9762 51.3217 33.1212
481 2 22.3687 17.8775 33.6734
482 2 31.4162 54.9528 19.5786
483 2 9.49954 11.2322 18.4758
484 2 48.8389 52.5568 6.13135
485 2 19.9113 47.8022 8.49178
486 2 48.1263 24.9572 50.6809
487 2 33.3731 41.3314 45.869
488 2 10.7778 48.339 24.7094
489 2 6.97239 19.842 53.8643
490 2 38.62 27.5098 13.8587
491 2 38.0895 18.3322 6.49077
492 2 37.9506 7.3822 38.6602
493 2 43.8047 12.9921 43.1648
494 2 53.5183 44.8916 54.0051
495 2 15.5243 43.0958 41.1745
496 2 48.7879 45.5844 22.6355
497 2 6.58218 10.6179 51.3766
498 2 20.9888 37.2089 10.869
499 2 55.5417 34.4008 41.9765
500 2 10.3692 51.9807 33.3365
501 2 18.3403 14.1854 21.2757
502 2 35.2907 29.2929 28.6882
503 2 25.0785 39.7201 45.97
504 2 28.6263 8.82418 12.7202
505 2 24.8715 11.3249 7.26581
506 2 18.9005 49.093 37.4197
507 2 23.599 49.6609 19.0217
508 2 54.0397 25.092 47.2578
509 2 15.9651 25.8795 50.1928
510 2 45.9307 53.0606 42.8966
511 2 30.1967 28.6613 28.2667
512 2 50.5407 45.598 13.598
513 2 34.1 46.3437 44.2329
514 2 52.563 9.0847 54.8314
515 2 38.1596 20.8457 26.6956
516 2 44.957 11.3526 23.7773
517 2 33.539 14.2327 18.6258
518 2 31.925 22.0154 18.5936
519 2 37.0143 39.6256 28.9308
520 2 47.354 9.64959 34.415
521 2 14.2171 29.1745 43.8057
522 2 34.9805 37.6253 34.6177
523 2 28.2565 39.057 10.5919
524 2 43.4886 43.3148 6.71985
525 2 48.9784 40.9333 13.748
526 2 34.2254 55.1871 44.561
527 2 50.9596 17.9399 6.35085
528 2 18.1985 16.207 18.3267
529 2 41.2806 25.4025 26.6029
530 2 46.9461 32.4096 25.961
531 2 18.811 10.5166 55.7702
532 2 37.0179 52.6026 41.3427
533 2 27.9195 38.2497 49.4127
534 2 25.1591 22.4884 7.37175
535 2 11.1277 30.5068 10.3471
536 2 54.456 13.5123 33.3926
537 2 14.5619 44.9041 32.757
538 2 26.111 39.7284 32.5756
539 2 11.8508 41.0507 35.4611
540 2 44.0616 21.6823 39.2692
541 2 7.17519 44.7237 25.7694
542 2 29.3943 24.6671 23.0112
543 2 38.914 24.911 6.47543
544 2 32.6748 44.8785 45.9413
545 2 23.0758 36.3459 28.4085
546 2 30.207 15.8604 15.6111
547 2 18.5044 20.669 17.5768
548 2 6.19761 15.2948 9.71442
549 2 55.1585 54.2379 7.29456
550 2 47.6816 43.2162 12.3445
551 2 13.2976 44.2937 49.7203
552 2 44.2194 43.2147 33.5537
553 2 21.9612 27.994 11.6377
554 2 15.3167 25.5654 41.1519
555 2 38.7322 23.4368 53.2763
556 2 29.2236 17.574 54.5354
557 2 16.0018 35.2562 55.7873
558 2 11.2548 40.9103 51.3442
559 2 41.6793 23.2398 36.3423
560 2 28.3737 52.7984 41.4234
561 2 11.0212 31.4578 13.3242
562 2 16.2523 31.3018 54.7505
563 2 31.5194 11.3769 32.5726
564 2 33.8549 37.8072 45.6452
565 2 54.3444 15.7038 50.4233
566 2 47.8152 51.8225 39.1408
567 2 21.3456 11.6354 10.7398
568 2 40.5032 18.3652 10.9999
569 2 52.1688 43.6812 36.7334
570 2 45.6842 39.726 6.19016
571 2 12.0029 31.6805 51.0173
572 2 55.3047 17.5002 44.0634
573 2 38.7499 28.6971 34.7005
574 2 36.5603 18.0114 35.5875
575 2 31.8813 35.4221 42.6079
576 2 31.5369 18.6547 6.63164
577 2 33.1922 31.1027 21.7836
578 2 20.0394 25.932 27.7088
579 2 25.6651 48.4401 36.3287
580 2 20.0725 23.1669 7.04069
581 2 22.1069 33.8963 49.2052
582 2 44.4935 16.5324 42.5601
583 2 16.0524 30.1313 31.6787
584 2 51.3715 46.0945 10.8057
585 2 46.6085 29.819 48.4226
586 2 17.5837 55.629 32.1487
587 2 53.9437 14.5004 40.1587
588 2 33.817 14.7982 49.9395
589 2 38.8158 8.0654 45.6222
590 2 42.2697 49.7188 6.73199
591 2 46.9222 21.7042 14.3168
592 2 6.82451 44.4173 15.2034
593 2 24.2937 13.7844 36.7989
594 2 38.4884 35.4461 41.1745
595 2 47.712 33.1261 9.41706
596 2 43.1754 49.2357 22.8192
597 2 40.1044 21.0511 36.3712
598 2 37.1865 43.5758 55.3175
599 2 40.097 36.9577 34.3792
600 2 17.7721 23.7281 49.3235
601 2 43.0281 13.3568 26.2109
602 2 47.469 40.3013 45.2496
603 2 32.489 27.5127 24.1896
604 2 48.6956 33.9057 45.7336
605 2 11.2303 9.15912 19.1292
606 2 25.0624 8.77987 18.6955
607 2 39.7558 13.3745 28.8424
608 2 9.34256 49.4169 39.3354
609 2 47.0166 39.0001 24.9946
610 2 30.2155 32.4803 22.7116
611 2 52.4234 53.8133 8.98714
612 2 22.4187 29.307 37.2617
613 2 19.5335 16.9616 30.9936
614 2 52.2458 39.9507 49.8602
615 2 20.8002 55.2011 28.5376
616 2 12.6761 42.3906 40.5262
617 2 19.3175 47.6811 48.0013
618 2 15.0552 41.7756 45.9365
619 2 31.2994 46.0511 22.1074
620 2 35.7003 24.3139 36.5223
621 2 29.4752 34.5324 26.4071
622 2 47.2909 55.8347 29.6373
623 2 29.2707 53.9329 36.8928
624 2 34.2321 34.9095 24.0939
625 2 55.4698 14.4465 21.9341
626 2 26.8758 17.7873 24.0431
627 2 6.79746 36.1801 10.5819
628 2 10.3824 40.2333 39.7465
629 2 20.5264 36.8528 50.4804
630 2 23.0187 17.9512 17.7968
631 2 54.3236 51.4377 25.9851
632 2 31.0727 7.17271 15.8175
633 2 12.8582 36.9441 20.9235
634 2 52.8088 21.098 9.10596
635 2 31.3448 37.3484 47.0689
636 2 52.1971 17.8256 42.9572
637 2 37.1145 34.5386 55.4388
638 2 40.2404 18.4604 15.7632
639 2 18.6915 17.251 13.9205
640 2 35.2328 46.8212 52.9133
641 2 27.7091 9.4992 48.7742
642 2 38.2336 17.2348 39.5374
643 2 45.231 45.8937 14.7287
644 2 33.5832 42.7849 7.73795
645 2 40.1858 30.1637 54.5411
646 2 26.6055 52.9231 34.1756
647 2 22.8283 8.93137 51.3854
648 2 26.2491 29.1213 47.1711
649 2 11.8477 48.7093 33.3546
650 2 49.6836 29.0409 14.8818
651 2 13.2852 37.3404 31.5373
652 2 14.8222 36.6656 44.3404
653 2 47.6625 20.9099 51.2795
654 2 54.7861 43.4626 28.1066
655 2 11.536 30.1517 55.1582
656 2 47.4068 31.6669 19.9955
657 2 48.6876 34.9458 23.2865
658 2 52.3983 17.5239 24.6215
659 2 34.5523 29.2312 49.5919
660 2 15.2131 20.1789 16.1374
661 2 42.0392 12.2728 17.3109
662 2 22.4916 32.3538 10.1271
663 2 7.58986 21.3495 16.7404
664 2 33.9653 40.1219 14.5681
665 2 15.5587 55.3488 20.2728
666 2 20.2038 44.4357 41.8435
667 2 39.102 37.6136 13.6786
668 2 7.05189 27.2222 50.5985
669 2 48.3914 14.7247 29.1181
670 2 44.3365 39.2218 26.9389
671 2 22.8926 32.6887 52.3028
672 2 15.0062 8.13146 10.34
673 2 26.886 13.6771 13.1716
674 2 9.45975 42.3771 53.381
675 2 39.4714 55.8168 33.7699
676 2 37.9246 11.7854 34.739
677 2 48.7381 39.8964 20.7729
678 2 48.6536 13.9457 25.9361
679 2 12.8067 13.9157 20.4526
680 2 26.5985 20.0649 38.4481
681 2 14.909 9.95477 52.3324
682 2 46.8466 39.4552 32.5467
683 2 25.583 33.2927 52.5747
684 2 20.6356 9.32353 34.2094
685 2 33.1771 22.7528 47.4599
686 2 54.1672 35.5023 19.0307
687 2 43.8011 30.197 23.674
688 2 16.9753 16.3017 44.9823
689 2 50.7909 41.2899 39.7201
690 2 42.7858 55.4801 30.3251
691 2 26.968 44.2189 33.848
692 2 27.8028 35.9537 9.83672
693 2 51.378 17.2958 19.7638
694 2 7.6954 13.7956 54.1397
695 2 24.4356 23.9623 40.2732
696 2 37.714 42.1712 12.2953
697 2 52.9453 22.7966 21.2377
698 2 48.075 46.6113 48.1875
699 2 47.519 51.8718 48.9538
700 2 51.2658 33.9592 33.2188
701 2 9.10475 43.334 50.1839
702 2 19.0203 14.6797 36.429
703 2 50.505 48.4835 13.3029
704 2 28.8595 18.3586 47.7671
705 2 55.0763 37.0296 44.2216
706 2 25.5463 41.2176 50.8834
707 2 14.3803 17.3781 16.7118
708 2 17.235 31.9097 17.3714
709 2 27.1427 55.3736 40.9297
710 2 53.7872 28.6471 47.74
711 2 19.6974 37.4482 20.8379
712 2 28.2656 19.5367 40.8392
713 2 31.4514 36.999 53.7567
714 2 14.9362 18.3314 8.57245
715 2 11.0696 21.7378 13.3178
716 2 36.3407 44.6269 43.0849
717 2 24.0591 13.1669 24.3151
718 2 12.7499 30.8121 36.0311
719 2 22.2599 46.2438 37.9952
720 2 39.7485 28.7572 26.9781
721 2 55.5466 47.6881 21.8967
722 2 11.5602 45.9567 6.79505
723 2 15.9242 33.8325 49.2227
724 2 34.7315 8.81184 20.1319
725 2 11.9155 36.3619 12.1523
726 2 50.9119 41.6533 31.6431
727 2 20.2493 44.5563 22.5529
728 2 47.3754 8.07405 44.0614
729 2 43.4745 35.7022 15.0492
730 2 52.327 21.3139 41.7807
731 2 30.8323 26.1532 20.8759
732 2 40.1128 39.8727 46.0682
733 2 34.2677 44.0868 19.1541
734 2 35.9952 27.1315 21.2388
735 2 13.1042 12.2654 42.5876
736 2 10.219 7.22822 35.4044
737 2 24.8635 33.9921 32.0647
738 2 9.21041 45.3811 55.2397
739 2 40.5567 34.3448 38.8632
740 2 28.4064 42.1413 52.7694
741 2 24.1926 8.15852 43.1264
742 2 10.0205 22.4082 27.4425
743 2 28.9878 55.3465 29.2951
744 2 28.1983 34.538 23.7964
745 2 52.7439 49.4349 8.5242
746 2 16.6823 14.7284 10.8044
747 2 49.4489 8.12142 30.6843
748 2 12.9898 23.9407 33.1839
749 2 9.98135 19.5092 29.5796
750 2 33.1447 32.0125 26.2192
751 2 14.6672 43.1688 27.0851
752 2 13.784 44.6388 13.4668
753 2 50.0673 47.8762 44.6378
754 2 42.3861 43.5095 17.1323
755 2 15.2202 6.31467 15.7617
756 2 52.2503 40.9363 6.34925
757 2 12.3528 43.5099 24.6548
758 2 28.3881 18.5496 28.6968
759 2 6.44927 32.9015 46.0381
760 2 37.8715 13.2785 25.3853
761 2 30.033 30.3163 38.2015
762 2 23.0807 37.2274 12.798
763 2 17.8787 7.97536 17.3172
764 2 9.94843 11.0335 41.7614
765 2 7.51814 28.8215 48.1749
766 2 17.4713 24.6023 53.936
767 2 45.1393 35.1441 49.4831
768 2 26.9781 31.564 15.2045
769 2 44.343 43.4017 53.3884
770 2 14.7368 17.3653 38.7318
771 2 14.1676 23.0489 13.1638
772 2 42.4823 43.946 11.6688
773 2 21.1829 7.28924 32.2065
774 2 17.0943 20.4159 30.7777
775 2 55.724 17.6753 30.8985
776 2 22.7918 50.8526 24.7245
777 2 27.1196 10.0767 45.6372
778 2 11.2124 19.9042 38.1735
779 2 55.7534 11.7578 21.6388
780 2 51.3375 38.2735 25.1589
781 2 55.2997 30.5575 17.0523
782 2 29.4958 35.5498 12.5067
783 2 51.9637 29.3956 32.5486
784 2 10.2498 35.8873 54.1819
785 2 9.76019 54.7784 44.0599
786 2 28.0287 40.5905 22.5654
787 2 10.0639 9.29979 45.8504
788 2 18.2303 18.0712 52.66
789 2 33.2851 18.8575 32.5762
790 2 48.5865 48.3209 23.9422
791 2 51.7518 11.3145 12.617
792 2 53.6787 6.74912 24.1637
793 2 54.7776 10.4984 34.3991
794 2 45.2981 55.3 47.4428
795 2 10.1224 9.18371 29.307
796 2 54.1651 42.859 10.8457
797 2 50.8891 38.6503 14.8041
798 2 19.8275 7.31726 41.9046
799 2 45.4299 52.3981 24.707
800 2 38.8364 46.695 13.1419
801 2 9.63108 45.863 21.9233
802 2 49.0997 44.3288 16.8879
803 2 45.3925 31.9142 51.7982
804 2 15.3567 19.0725 42.0287
805 2 20.5101 44.1491 11.7282
806 2 32.7251 53.1295 15.2194
807 2 55.1011 51.3168 12.2015
808 2 9.29826 41.928 14.9664
809 2 37.2819 16.558 24.856
810 2 36.8458 29.8569 24.3576
811 2 39.1623 21.1735 43.233
812 2 12.4282 16.7772 10.7787
813 2 34.645 36.5011 10.823
814 2 35.6254 26.7978 54.0591
815 2 38.1223 8.20495 53.0947
816 2 48.8099 55.0788 38.9766
817 2 31.4967 36.0594 32.038
818 2 18.7407 28.9761 48.8373
819 2 13.6436 31.6694 6.97821
820 2 32.426 55.0227 52.9396
821 2 48.952 25.9952 46.3192
822 2 21.6164 40.8648 33.9427
823 2 37.9126 11.3094 8.88405
824 2 51.5432 23.881 8.67856
825 2 11.7027 26.5665 29.7326
826 2 10.2427 50.2588 8.02755
827 2 30.1843 11.0499 13.9376
828 2 46.5771 31.5212 36.7744
829 2 22.8866 29.8624 53.6723
830 2 23.0779 54.07 45.6709
831 2 16.2973 31.4513 14.2846
832 2 47.0733 16.6519 31.313
833 2 36.7264 51.1015 20.126
834 2 12.9578 53.6861 33.6442
835 2 18.9001 10.9877 47.219
836 2 43.4319 32.929 21.9064
837 2 10.596 24.6494 25.8098
838 2 21.3483 30.9907 49.2623
839 2 28.2274 13.6549 26.6929
840 2 7.62498 13.5756 19.3782
841 2 42.8331 48.0894 33.5198
842 2 20.0388 48.8973 32.1043
843 2 19.0064 39.998 40.1728
844 2 16.8326 27.4111 12.6168
845 2 32.1996 7.45003 30.5928
846 2 38.5656 24.1799 43.4681
847 2 14.0242 14.3564 9.89252
848 2 38.5832 15.8789 34.7565
849 2 31.5485 50.938 45.1575
850 2 25.6894 49.7438 14.2061
851 2 6.05818 44.8386 11.7526
852 2 30.7101 28.3732 43.7687
853 2 8.49363 15.2724 30.5461
854 2 26.8616 9.4895 21.6071
855 2 49.0581 11.4396 16.1135
856 2 26.4474 47.1699 27.567
857 2 27.7459 40.6972 44.1979
858 2 40.7435 9.02567 36.676
859 2 27.806 55.5021 26.9774
860 2 45.7001 7.11029 26.6484
861 2 10.0495 20.8846 53.1224
862 2 30.4585 30.7557 10.7926
863 2 31.1528 33.0264 17.9253
864 2 42.9627 9.08755 40.9764
865 2 32.2695 49.0207 47.268
866 2 28.3178 24.8636 30.0875
867 2 26.4675 51.0994 55.0374
868 2 51.3202 6.97509 7.19308
869 2 49.37 50.0213 10.651
870 2 26.9379 36.3802 35.1501
871 2 22.5321 27.055 26.4892
872 2 11.4289 53.2402 18.3981
873 2 35.9941 40.9725 31.4994
874 2 17.5493 44.2436 26.2761
875 2 49.5807 6.80396 48.0104
876 2 11.3259 47.5831 30.6745
877 2 44.776 15.8159 9.63342
878 2 44.8274 29.3117 38.153
879 2 36.5569 21.3379 24.1005
880 2 34.7865 47.1691 21.8377
881 2 26.2237 54.3111 37.3057
882 2 41.3993 53.901 41.737
883 2 24.3563 18.8558 42.3927
884 2 46.6569 16.3099 36.0845
885 2 37.992 17.3984 27.3225
886 2 33.7222 35.2438 27.1707
887 2 13.4418 18.6573 51.6348
888 2 8.63244 45.5257 45.7566
889 2 7.01596 51.3285 54.1143
890 2 10.6074 21.4254 16.3353
891 2 14.6805 27.0854 19.6809
892 2 13.3667 13.2164 28.7482
893 2 10.8518 54.7547 32.3006
894 2 14.9215 47.1306 9.80536
895 2 54.6371 8.79033 22.0497
896 2 51.5602 53.3076 15.9196
897 2 40.0315 50.9821 50.3562
898 2 29.9875 9.66803 42.4858
899 2 20.2934 9.8678 29.0893
900 2 13.0162 22.5226 28.5458
901 2 20.7312 15.7308 22.249
902 2 23.7178 29.6825 27.1809
903 2 10.9017 17.2941 43.0184
904 2 42.7202 49.5762 13.4426
905 2 18.8929 47.2679 13.4801
906 2 34.6643 29.2762 37.0039
907 2 39.0984 14.2612 21.4696
908 2 8.10606 38.6068 44.1714
909 2 20.7673 36.7065 53.7781
910 2 49.5718 31.6581 30.3411
911 2 47.3764 46.0842 43.8928
912 2 22.2287 26.5459 15.5849
913 2 43.0345 48.2878 19.8815
914 2 49.9996 51.8926 52.6187
915 2 30.9793 16.0761 43.1647
916 2 32.1585 42.6803 30.3011
917 2 50.6492 34.2601 54.0715
918 2 30.4196 25.6717 36.2083
919 2 35.9011 51.1332 31.836
920 2 14.4037 28.4054 25.0374
921 2 43.1098 10.6824 19.4324
922 2 25.6727 23.676 29.1595
923 2 10.7474 24.8189 7.73504
924 2 9.51845 33.6407 38.709
925 2 21.7844 43.4 37.2878
926 2 8.93819 17.0888 50.8609
927 2 44.6032 20.528 20.1891
928 2 46.3469 12.3076 17.5987
929 2 42.5375 32.747 8.7218
930 2 43.7272 21.1291 53.4284
931 2 41.6017 13.062 14.3742
932 2 33.8944 23.8719 42.8749
933 2 54.3774 53.7419 32.8066
934 2 43.2094 27.6203 30.1814
935 2 42.6635 41.3045 24.4401
936 2 27.3718 6.42902 22.5393
937 2 42.6081 27.5109 42.7498
938 2 27.8083 32.1976 44.4121
939 2 22.5167 22.2213 17.2446
940 2 36.1109 35.7322 32.3382
941 2 38.5169 24.6807 29.4215
942 2 20.0471 55.6912 49.0227
943 2 41.7407 45.8098 38.0159
944 2 17.4476 33.9508 28.6598
945 2 47.0597 42.5455 50.2376
946 2 52.531 38.0463 18.065
947 2 48.9296 14.798 19.0378
948 2 44.0531 8.15258 21.036
949 2 36.7489 29.2585 19.2739
950 2 14.7488 48.3899 22.0793
951 2 44.5347 8.31035 55.1516
952 2 51.0148 43.0281 12.2313
953 2 26.2334 7.88881 51.237
954 2 39.7395 52.2582 10.2763
955 2 23.9798 17.456 25.5945
956 2 12.4308 27.81 13.9624
957 2 47.9018 9.6029 24.0419
958 2 50.5522 6.62975 21.6996
959 2 40.9571 54.9187 44.6028
960 2 49.9466 49.4667 29.4972
961 2 13.395 44.4169 20.7467
962 2 50.6368 45.0543 28.862
963 2 42.0232 12.0068 35.2112
964 2 47.0019 55.0602 18.6381
965 2 44.9821 38.1291 16.2812
966 2 27.1111 38.5509 20.9566
967 2 52.1642 31.8584 21.2048
968 2 53.7097 45.2688 15.7064
969 2 36.9415 47.2343 49.0798
970 2 50.62 31.8544 46.4638
971 2 19.5698 35.2495 14.6147
972 2 55.223 41.3753 38.7934
973 2 15.8742 39.8589 37.452
974 2 47.2524 25.3016 53.8525
975 2 29.6403 50.1301 14.584
976 2 36.5703 32.1705 20.569
977 2 36.7803 32.7667 47.5124
978 2 43.0393 45.2006 35.3534
979 2 37.4009 46.6471 6.72773
980 2 39.0369 20.6596 55.4762
981 2 9.07438 37.793 33.0429
982 2 34.5803 37.1115 53.2804
983 2 17.6963 16.8163 9.85397
984 2 34.09 26.5579 18.9209
985 2 43.1705 36.1727 31.9818
986 2 54.3719 28.2472 14.4789
987 2 29.4903 27.5306 23.2565
988 2 30.2278 20.6268 32.4047
989 2 49.9536 20.6647 15.4354
990 2 36.5531 42.1465 34.2663
991 2 8.77233 26.7339 54.4929
992 2 51.7047 15.6368 31.7252
993 2 10.7277 31.1898 26.1998
994 2 7.82659 25.9578 26.3451
995 2 25.0159 39.0261 11.7474
996 2 24.0552 34.5507 43.8977
997 2 45.8344 23.4056 51.7897
998 2 50.3145 34.2219 10.4355
999 2 50.289 17.8598 32.6654
1000 2 13.172 21.0228 7.97257
1001 2 13.3186 7.33591 19.4025
1002 2 6.23253 53.8133 47.4711
1003 2 46.0607 49.9119 32.1598