ITEM: TIMESTEP
0
ITEM: NUMBER OF ATOMS
9088
ITEM: BOX BOUNDS xy xz yz pp pp pp
6.0484097478479599e+00 5.5882528044279717e+01 -5.7175415084708025e-15
6.0484097478479653e+00 5.5882528044279717e+01 0.0000000000000000e+00
6.0484097478479653e+00 5.5882528044279717e+01 0.0000000000000000e+00
ITEM: ATOMS id type x y z
1 2 18.8806 25.183 12.6314
2 2 37.1999 11.7209 31.1059
3 2 26.6876 31.2579 22.5459
4 2 44.4012 13.0895 30.2195
5 2 44.0536 53.9887 30.0536
6 2 17.5437 51.6731 53.5315
7 2 53.4796 15.5325 21.4119
8 2 11.9447 31.0823 17.9743
9 2 39.778 44.2088 31.2964
10 2 36.2812 38.6142 33.545
11 2 13.1522 30.817 26.8469
12 2 37.4346 50.2568 48.4137
13 2 48.6631 18.9767 50.828
14 2 32.1581 50.9713 32.2287
15 2 25.5389 27.7678 45.2981
16 2 21.0649 38.7818 54.0268
17 2 49.87 8.27155 55.4433
18 2 17.3113 43.5665 29.7163
19 2 50.4757 53.9376 26.3901
20 2 52.8531 54.4481 15.9509
21 2 7.08549 40.7884 44.3861
22 2 12.6397 45.1906 13.6053
23 2 55.6944 54.4978 12.5031
24 2 41.8238 10.7972 20.8882
25 2 21.3054 15.7718 48.0747
26 2 24.7699 31.5007 6.44573
27 2 17.5705 18.6392 43.5812
28 2 33.9107 18.2284 34.6454
29 2 53.8223 38.3923 8.64514
30 2 49.1603 36.0318 50.1354
31 2 22.5828 19.9173 39.8131
32 2 45.337 11.3565 20.4878
33 2 43.2012 32.3018 14.9119
34 2 22.5166 55.6189 16.6672
35 2 18.7525 11.0394 42.4017
36 2 23.8679 29.1061 33.4774
37 2 22.8057 21.2121 20.3115
38 2 55.2622 27.9361 47.2241
39 2 15.4013 32.8755 28.2237
40 2 11.0629 55.8281 45.0852
41 2 27.4081 16.4048 13.995
42 2 54.1974 26.4567 15.9058
43 2 48.9659 16.9558 18.9542
44 2 11.3704 54.0777 42.9691
45 2 7.10564 45.4131 36.0565
46 2 28.0374 32.0203 29.7627
47 2 50.0342 24.8282 7.86794
48 2 13.6451 46.1072 50.0962
49 2 11.8424 16.1923 28.9296
50 2 29.1181 44.4372 45.1289
51 2 8.96343 54.0776 29.3465
52 2 9.5163 49.3539 38.3838
53 2 53.1804 54.9532 33.2378
54 2 27.2381 24.5629 45.6612
55 2 48.0033 44.153 27.661
56 2 31.0056 15.9521 33.0557
57 2 33.7448 54.1224 21.6931
58 2 34.8011 9.01151 25.3551
59 2 48.5383 15.9027 25.8574
60 2 32.4549 46.7096 41.3567
61 2 16.1604 53.2947 6.07172
62 2 12.3492 11.8797 55.5551
63 2 35.5034 11.7742 36.6137
64 2 51.9039 6.10066 24.4226
65 2 22.1635 49.2284 24.64
66 2 24.7569 34.0466 50.49
67 2 41.4735 21.7127 43.0597
68 2 34.5854 41.9463 26.4688
69 2 11.055 12.511 49.0656
70 2 41.5761 10.708 25.8718
71 2 52.7281 9.89612 55.8368
72 2 17.2779 50.9643 27.7528
73 2 35.6081 15.6296 40.3193
74 2 9.07044 19.3756 45.8006
75 2 42.6773 29.36 52.5643
76 2 38.833 12.2372 40.3971
77 2 13.0206 34.9095 50.6808
78 2 25.3291 43.6519 26.6766
79 2 32.8637 30.4269 52.0167
80 2 20.0308 23.285 33.2878
81 2 18.8267 54.2588 48.1667
82 2 52.409 30.6245 21.6319
83 2 54.8633 7.85219 48.2589
84 2 25.0321 7.86035 35.3572
85 2 19.0862 11.3438 20.5842
86 2 14.7656 10.3756 48.0789
87 2 6.73555 55.6816 33.2582
88 2 46.5258 41.6223 36.1042
89 2 37.433 21.9296 12.9495
90 2 9.94165 43.1483 43.9265
91 2 18.9844 31.8904 13.6174
92 2 54.1279 36.0578 49.5589
93 2 38.3036 27.4933 55.1237
94 2 29.6941 15.044 30.2905
95 2 22.9084 32.3644 19.4039
96 2 41.2858 22.3257 50.756
97 2 20.9437 10.6114 30.4883
98 2 54.4904 47.9534 23.0025
99 2 9.55051 31.1707 53.9017
100 2 39.4088 41.3559 48.8516
101 2 9.6337 55.1345 26.6635
102 2 27.6279 26.6866 39.3549
103 2 39.6762 49.7389 26.2118
104 2 53.6969 13.362 14.7262
105 2 45.4425 49.3585 43.2732
106 2 33.751 17.6296 50.9703
107 2 23.8549 27.7515 40.5877
108 2 13.9661 21.3267 22.9429
109 2 47.4182 36.3214 24.9879
110 2 53.3099 52.0462 31.5888
111 2 49.5607 40.2275 30.2738
112 2 11.3049 50.4259 30.8373
113 2 24.1997 19.406 27.0941
114 2 15.4096 28.1986 50.6366
115 2 21.0308 25.3049 47.578
116 2 19.2107 31.5121 21.5162
117 2 7.7662 46.6917 18.168
118 2 10.229 14.9798 34.6747
119 2 36.5293 30.6518 27.6814
120 2 54.9129 7.63944 43.7504
121 2 44.2951 46.7681 14.6015
122 2 7.83871 28.7396 31.4606
123 2 22.5189 31.0415 47.8793
124 2 8.43739 10.4549 34.4988
125 2 43.0124 50.1622 36.1809
126 2 17.6848 27.1393 24.2918
127 2 43.8102 40.2839 15.1007
128 2 31.197 16.3983 8.72623
129 2 13.5028 8.32949 41.0323
130 2 26.3776 53.1276 18.5385
131 2 40.0549 39.0058 51.2396
132 2 12.2559 30.1816 33.521
133 2 15.7396 15.7913 39.5748
134 2 6.41805 11.3516 17.2608
135 2 10.3924 26.4412 18.9045
136 2 34.9321 31.5299 45.7048
137 2 52.4681 14.3515 54.8086
138 2 28.3841 39.9495 53.4319
139 2 36.0038 43.6336 8.68076
140 2 47.7438 9.34488 44.7924
141 2 24.9301 7.58775 54.6577
142 2 55.631 33.5463 21.9653
143 2 28.5748 46.6934 22.281
144 2 48 40.4866 6.81413
145 2 20.2995 47.3518 47.3481
146 2 53.3405 35.0408 23.4624
147 2 14.0397 20.1281 55.7025
148 2 52.0774 47.3121 26.6093
149 2 9.20158 46.7692 29.693
150 2 49.3683 15.8228 14.3275
151 2 45.1336 20.6187 35.6481
152 2 46.5604 36.5283 53.8819
153 2 49.6429 21.5135 32.3703
154 2 21.7475 46.5261 10.4765
155 2 16.1218 35.6484 43.2415
156 2 11.6211 27.3598 36.1987
157 2 11.7615 32.1502 50.4292
158 2 29.645 13.3973 55.1857
159 2 52.5192 35.3334 8.90447
160 2 8.42834 43.9224 33.3133
161 2 12.0199 8.04242 23.972
162 2 22.1908 40.2545 43.4435
163 2 21.7697 42.6108 9.76981
164 2 14.0985 30.6851 14.2191
165 2 10.1668 10.2197 54.145
166 2 9.65141 13.6391 27.7366
167 2 55.0549 23.5364 28.6093
168 2 34.9538 37.6916 22.2891
169 2 17.0252 9.71725 46.2635
170 2 39.1119 12.5236 46.0064
171 2 52.647 31.8669 24.9664
172 2 47.3637 54.5601 23.2066
173 2 34.7737 55.686 7.68623
174 2 44.9406 43.6987 24.3533
175 2 45.6274 13.925 40.1911
176 2 24.5884 46.5534 18.9885
177 2 28.2719 22.1452 26.6448
178 2 55.728 17.662 54.1868
179 2 46.969 26.9134 10.2382
180 2 42.7334 23.9427 52.9012
181 2 37.3897 55.6614 14.3117
182 2 21.2481 15.9473 44.7011
183 2 27.6905 25.8545 51.2356
184 2 37.8918 10.2565 43.9547
185 2 15.1175 48.3824 18.9751
186 2 30.8104 42.4141 30.2568
187 2 9.38789 26.1079 7.33309
188 2 30.4659 13.5107 13.2955
189 2 34.9939 26.746 52.0467
190 2 12.3778 54.7824 29.856
191 2 54.0553 30.1315 39.9754
192 2 17.3109 37.8685 34.1045
193 2 35.7971 13.1406 12.4449
194 2 21.1329 36.3232 49.1007
195 2 33.0981 53.8595 54.6723
196 2 11.6866 39.9632 46.1613
197 2 45.7487 39.6637 28.9661
198 2 24.3583 51.0644 37.5587
199 2 21.1663 9.83468 40.8963
200 2 39.2854 23.9069 52.8284
201 2 40.127 12.1551 35.4661
202 2 7.33176 54.2046 9.50639
203 2 55.3193 10.9244 44.7995
204 2 17.896 31.7975 45.9025
205 2 49.972 43.0993 16.6403
206 2 28.2275 48.8024 30.8405
207 2 43.4708 28.1185 13.4096
208 2 46.9841 29.8298 42.204
209 2 36.7161 20.9529 20.922
210 2 43.0627 47.0747 33.6382
211 2 26.7184 7.31399 23.5023
212 2 26.8938 24.6744 54.0008
213 2 45.6187 29.9526 13.915
214 2 42.178 50.4843 27.425
215 2 41.5978 16.3808 38.1639
216 2 29.542 10.9131 33.699
217 2 36.1851 42.4783 11.917
218 2 53.0217 9.17029 35.4428
219 2 36.6832 6.33231 42.6014
220 2 52.1558 10.4826 38.1117
221 2 49.427 11.9064 42.3118
222 2 25.0557 42.86 33.1162
223 2 12.5357 40.5939 31.4223
224 2 49.9186 17.4644 23.9997
225 2 54.0508 28.9982 12.6529
226 2 23.5037 35.7441 35.0406
227 2 28.4262 36.5098 40.9099
228 2 10.4911 30.4729 12.5699
229 2 11.4417 47.578 53.1008
230 2 8.35473 7.94492 44.9622
231 2 27.1642 10.2653 31.6357
232 2 13.7915 13.7551 35.3501
233 2 27.3192 27.8866 33.7845
234 2 48.8196 32.5581 52.6034
235 2 32.9917 30.0469 9.23997
236 2 13.5443 34.7327 34.7149
237 2 53.5154 19.8382 53.6367
238 2 24.0598 26.6839 27.4144
239 2 48.6895 12.9561 17.3222
240 2 33.9698 41.131 52.1939
241 2 12.0512 27.1202 8.66937
242 2 10.8078 36.338 31.524
243 2 55.2319 44.4507 18.3346
244 2 51.456 17.299 27.0932
245 2 28.6054 15.7867 45.0592
246 2 50.5842 8.13831 48.9771
247 2 34.5127 51.0498 35.9407
248 2 36.4348 16.2954 9.07077
249 2 26.7494 23.3084 39.7501
250 2 37.4058 46.6925 9.70391
251 2 11.334 55.3994 34.9011
252 2 38.4504 48.4345 54.7155
253 2 48.1101 26.4486 25.3138
254 2 44.814 54.7842 53.5632
255 2 12.7015 23.489 34.1682
256 2 40.6919 6.6342 23.2919
257 2 49.8049 46.2792 54.6223
258 2 49.6299 21.6158 7.68276
259 2 28.3726 13.9666 34.1399
260 2 15.5691 26.4864 13.1349
261 2 38.8419 22.0218 34.3445
262 2 30.1301 44.0409 18.4586
263 2 53.181 24.3378 19.9623
264 2 38.2447 48.6863 29.9223
265 2 10.454 25.0291 23.2261
266 2 40.4451 45.638 7.53773
267 2 35.3683 34.9131 17.4519
268 2 40.0072 22.2374 20.8118
269 2 55.7472 46.4873 30.48
270 2 18.6836 38.8971 12.126
271 2 48.259 36.503 8.75256
272 2 40.1696 55.0398 46.6136
273 2 11.796 28.0921 13.586
274 2 18.6667 25.7541 41.2112
275 2 31.8207 42.2194 10.6764
276 2 41.4273 13.6737 47.0883
277 2 29.0953 26.0017 42.1715
278 2 46.4576 9.14988 33.1853
279 2 33.6042 25.1074 13.1532
280 2 15.2604 52.6483 35.3884
281 2 16.5824 9.148 40.971
282 2 8.79774 54.8199 49.0937
283 2 17.3415 11.6791 25.8813
284 2 51.4598 36.4605 51.0007
285 2 28.8954 30.3726 50.843
286 2 53.5837 51.9897 39.3858
287 2 40.2212 13.3989 27.3699
288 2 41.583 10.6827 32.7108
289 2 8.07621 52.3904 14.0231
290 2 37.3667 10.6972 22.2735
291 2 51.315 40.3662 43.5718
292 2 44.0724 38.0005 35.9702
293 2 7.09329 47.2662 38.7467
294 2 41.588 12.8862 39.4457
295 2 16.4112 54.2277 18.068
296 2 53.5874 39.0438 35.3155
297 2 16.7913 35.1825 34.9542
298 2 38.9564 51.7262 37.7267
299 2 18.0721 31.4154 48.6376
300 2 27.9673 44.2661 16.504
301 2 25.5038 30.4308 19.5916
302 2 35.2134 38.4392 9.61953
303 2 12.0788 50.4516 11.9363
304 2 21.6903 52.1424 52.5664
305 2 14.4517 39.8656 41.9543
306 2 31.6046 20.8952 13.7855
307 2 6.72972 6.96639 55.2206
308 2 55.8249 33.8197 53.0064
309 2 23.7189 37.8764 50.2073
310 2 43.4956 47.7336 22.6402
311 2 47.4461 13.2038 38.2111
312 2 30.0477 46.9141 43.4406
313 2 16.5037 29.0978 33.757
314 2 26.7834 37.8936 21.738
315 2 40.3383 18.9866 42.4098
316 2 31.3429 37.2921 39.0199
317 2 29.7381 47.2495 38.0692
318 2 54.8646 45.015 52.6762
319 2 33.203 20.4971 53.9317
320 2 37.4256 9.74378 52.4402
321 2 29.788 46.0106 25.1789
322 2 47.0886 17.6043 13.4189
323 2 32.4633 55.4696 26.6253
324 2 29.8577 37.0758 44.1184
325 2 13.7784 30.5462 51.7384
326 2 6.09742 32.2623 46.2424
327 2 21.3504 37.5383 8.1692
328 2 55.1045 27.2902 41.4187
329 2 26.8166 41.0825 49.081
330 2 21.2089 28.8387 40.326
331 2 37.1454 52.0042 40.938
332 2 30.7216 45.8195 33.5076
333 2 48.6865 19.6175 54.5977
334 2 45.1107 50.7981 55.6809
335 2 30.2144 41.942 55.0166
336 2 14.2745 37.2128 54.683
337 2 9.7184 16.0012 16.489
338 2 39.5686 7.92932 25.742
339 2 21.6153 51.367 41.7147
340 2 40.8272 20.0537 52.5006
341 2 49.3532 47.26 18.128
342 2 31.031 36.6011 6.94219
343 2 29.3108 7.80666 34.9054
344 2 48.3865 39.7599 53.9372
345 2 51.1324 44.9837 29.7313
346 2 42.7044 44.7915 22.9501
347 2 39.3319 22.8977 16.6713
348 2 30.0954 23.2189 14.7587
349 2 8.57576 31.6881 22.0138
350 2 24.0057 49.539 18.4021
351 2 39.6975 33.0547 24.2901
352 2 14.285 37.6584 7.65806
353 2 12.8197 19.8719 25.6662
354 2 27.483 50.3919 24.7117
355 2 6.92953 21.1098 46.8538
356 2 24.6054 16.054 24.2718
357 2 15.4999 25.7632 17.2161
358 2 36.9865 11.5373 19.3477
359 2 52.8777 7.60675 15.7851
360 2 51.8382 20.5218 30.3483
361 2 27.5517 40.0862 12.4579
362 2 10.3732 36.8042 29.0582
363 2 27.7138 46.1494 40.9555
364 2 6.18426 20.448 41.9448
365 2 6.77042 47.2505 53.5085
366 2 51.9277 30.6719 10.8761
367 2 30.779 12.9527 27.3532
368 2 55.7613 12.7283 53.0033
369 2 10.8894 20.1752 55.428
370 2 43.8996 49.4608 33.5116
371 2 49.9674 17.8009 35.2484
372 2 45.1694 31.9778 43.0608
373 2 9.33517 22.3063 50.4937
374 2 25.5172 14.9029 54.8982
375 2 15.393 53.674 22.6099
376 2 15.953 42.8595 44.6445
377 2 51.1545 32.7946 27.0472
378 2 12.7749 19.1478 16.1055
379 2 53.9396 7.79082 53.4611
380 2 40.7262 23.851 46.6502
381 2 45.5713 28.7015 37.2576
382 2 50.4059 9.11536 26.9863
383 2 42.9489 41.7223 36.5868
384 2 50.2504 10.5582 7.71846
385 2 46.7467 12.3772 27.8958
386 2 27.7043 18.6478 19.2828
387 2 31.9211 18.9178 16.385
388 2 46.1805 47.0967 39.5842
389 2 47.6209 12.2479 33.6379
390 2 48.3609 22.5462 19.5282
391 2 50.0146 16.26 39.8549
392 2 40.2729 14.3461 14.4052
393 2 28.6738 28.526 44.1526
394 2 54.4228 17.694 34.2029
395 2 17.993 35.772 40.3267
396 2 28.2202 40.3123 29.1058
397 2 47.3725 41.7412 40.5163
398 2 10.7925 26.0325 11.5383
399 2 18.041 10.0352 12.1304
400 2 52.3675 26.239 40.8539
401 2 47.4706 50.1668 22.5887
402 2 34.4714 40.791 13.6415
403 2 39.198 14.198 37.7408
404 2 10.6392 34.0766 38.6813
405 2 6.43708 32.3029 27.7198
406 2 14.8117 12.6585 30.0169
407 2 16.5857 23.7075 49.8071
408 2 21.0594 34.773 32.2186
409 2 37.2299 21.2031 41.1413
410 2 37.6595 44.2513 15.604
411 2 52.442 26.598 50.4134
412 2 14.3794 54.5608 39.1296
413 2 46.2551 21.2709 46.6817
414 2 32.4842 11.1197 12.5903
415 2 41.2859 50.3913 9.66836
416 2 31.0742 48.5277 28.0347
417 2 49.6643 43.0505 23.3445
418 2 51.4912 28.2261 31.892
419 2 23.6023 52.238 6.42321
420 2 54.1005 39.1631 25.791
421 2 12.3872 23.8081 14.7677
422 2 24.4637 16.2832 48.0852
423 2 27.0558 35.9139 46.0717
424 2 34.9964 15.7337 47.4203
425 2 48.2346 7.8754 36.4272
426 2 10.7242 39.4678 24.3715
427 2 14.5672 35.2079 15.809
428 2 46.7756 37.2387 17.8928
429 2 8.36038 36.0028 43.4858
430 2 27.1995 10.8607 13.2849
431 2 9.45146 26.4438 39.3791
432 2 8.67386 8.08587 20.5177
433 2 8.26993 34.3055 23.9735
434 2 45.4542 48.1459 29.6356
435 2 13.3931 49.8789 52.64
436 2 45.4134 22.9707 25.0914
437 2 55.0038 30.006 53.8469
438 2 24.5296 11.6164 13.0647
439 2 55.0323 54.2217 24.4003
440 2 40.2243 45.4899 27.2557
441 2 16.6069 49.9767 36.9319
442 2 26.4093 32.2312 43.7011
443 2 37.8332 45.3821 55.6087
444 2 14.2051 14.0685 22.2177
445 2 36.7091 24.2027 19.0475
446 2 40.4914 26.6633 33.7578
447 2 11.7867 42.7133 47.7378
448 2 51.5456 30.9175 43.9587
449 2 18.8712 49.9029 18.0206
450 2 53.1338 18.8517 49.6334
451 2 41.515 12.1723 18.1937
452 2 24.187 47.4237 9.15811
453 2 52.221 43.1456 52.1179
454 2 25.0838 34.0775 26.3829
455 2 32.6172 24.774 25.7794
456 2 9.3347 46.5069 33.8044
457 2 7.04839 24.732 41.4384
458 2 27.1408 46.2605 24.9236
459 2 36.1946 32.6543 31.5066
460 2 37.9549 40.1894 10.6266
461 2 17.2099 47.3829 35.565
462 2 52.0771 12.6396 48.4976
463 2 35.9986 44.7768 23.3302
464 2 15.7994 53.0391 27.1824
465 2 44.0933 21.1557 13.3389
466 2 20.4758 19.4055 35.992
467 2 52.2946 42.5927 44.5133
468 2 24.5502 27.8783 24.4289
469 2 38.5541 39.9728 20.7426
470 2 25.1762 24.9597 35.9767
471 2 22.551 27.2342 31.7005
472 2 21.4517 48.0459 37.2147
473 2 31.497 32.283 8.62333
474 2 50.7685 49.2465 45.5094
475 2 21.7984 53.841 23.2173
476 2 48.6484 49.4237 43.6522
477 2 12.8113 10.2937 42.8553
478 2 51.0053 8.199 40.4556
479 2 20.9799 31.7409 50.2677
480 2 55.8182 40.0715 8.09403
481 2 52.8951 55.8265 7.68574
482 2 13.0675 43.5625 43.2489
483 2 39.8483 50.5932 42.5759
484 2 29.6825 41.5761 34.0389
485 2 52.0989 36.1682 32.5025
486 2 30.6373 13.3491 22.5795
487 2 12.373 32.4679 20.5819
488 2 35.2043 44.2935 51.0167
489 2 41.8422 55.7147 32.8906
490 2 12.89 14.6445 37.8709
491 2 15.7975 50.6768 32.7737
492 2 20.2813 43.0516 12.3046
493 2 22.1138 50.646 20.2698
494 2 37.8004 35.2303 25.5404
495 2 47.7598 31.1112 17.7042
496 2 30.7464 32.886 45.0906
497 2 40.2728 49.3507 21.979
498 2 52.7776 25.7493 35.1369
499 2 32.854 24.3095 16.3789
500 2 46.1298 38.4914 8.25127
501 2 49.6256 52.3873 44.9076
502 2 14.3084 20.254 52.7453
503 2 6.21978 28.2205 19.5357
504 2 9.66276 47.1154 36.8065
505 2 53.4549 45.8261 35.655
506 2 50.4652 38.4868 11.9004
507 2 55.2437 38.4243 42.8599
508 2 34.5013 15.5534 22.0756
509 2 50.2345 15.8109 21.5528
510 2 27.2029 41.5021 17.5617
511 2 11.6045 20.2417 48.8099
512 2 30.9266 30.0542 39.852
513 2 12.1207 34.4867 18.4679
514 2 32.5441 44.1924 28.0788
515 2 19.1456 13.2714 53.3857
516 2 24.1741 49.0167 50.5622
517 2 17.1409 51.2415 39.6211
518 2 11.5866 14.4525 41.9012
519 2 17.9262 30.4506 51.1654
520 2 28.5115 45.2565 11.4252
521 2 48.9323 19.9377 17.9715
522 2 15.0468 22.4676 10.6709
523 2 8.34728 25.0132 34.8716
524 2 23.2756 30.5587 29.3801
525 2 31.7241 27.4429 41.763
526 2 17.7165 44.2074 18.8712
527 2 31.3751 54.8304 30.8203
528 2 48.6368 6.44866 40.7788
529 2 19.247 13.3556 48.4883
530 2 29.9718 24.7281 50.0015
531 2 53.765 48.958 30.4382
532 2 19.0901 40.796 16.1525
533 2 9.83592 29.7159 23.6468
534 2 6.83449 11.3515 31.5589
535 2 40.9884 18.52 33.2781
536 2 30.5293 51.1451 54.8734
537 2 48.59 32.9138 7.40755
538 2 7.82293 28.4019 7.16917
539 2 40.0515 27.2985 12.0517
540 2 29.0949 11.6956 15.4284
541 2 40.7921 33.7255 51.7174
542 2 10.7915 9.24591 49.0136
543 2 20.5023 13.0254 34.2504
544 2 12.8778 34.6221 22.4555
545 2 6.12563 24.8062 53.376
546 2 11.0852 54.4039 38.9323
547 2 48.026 9.3215 39.756
548 2 36.2366 52.6639 34.1399
549 2 36.2094 42.0013 31.1377
550 2 28.8746 28.7002 36.0278
551 2 48.1537 35.0255 21.312
552 2 26.5572 29.5693 7.79038
553 2 53.2968 16.0295 36.1606
554 2 47.86 12.9391 14.0652
555 2 19.8137 11.6545 27.5954
556 2 8.69333 50.9939 25.2408
557 2 48.2233 23.095 30.2715
558 2 42.136 28.3479 21.7515
559 2 23.2909 7.91236 7.79859
560 2 12.3966 42.6617 16.3606
561 2 42.5347 20.4168 36.3858
562 2 47.9745 19.0953 28.8404
563 2 11.5037 48.9396 7.54749
564 2 14.5995 26.7027 20.8032
565 2 35.9596 52.0523 28.3756
566 2 28.3763 42.6486 14.4302
567 2 53.8397 52.3519 36.5725
568 2 21.0395 8.80114 38.1031
569 2 40.8098 24.2288 13.9715
570 2 26.644 27.6786 30.9884
571 2 43.4538 17.838 21.1381
572 2 30.5976 54.389 24.4142
573 2 18.2918 19.226 7.66844
574 2 16.9727 11.1296 9.32394
575 2 13.8691 21.78 18.2779
576 2 10.1041 10.9523 29.9306
577 2 12.924 15.9124 47.4224
578 2 53.9809 15.4511 52.3691
579 2 7.72567 36.9 10.7011
580 2 51.0727 11.4218 31.6304
581 2 53.8587 22.3496 23.6088
582 2 27.4352 7.34378 14.3848
583 2 46.7526 17.2806 53.8826
584 2 37.6672 30.7986 36.2236
585 2 28.0209 17.4773 26.4389
586 2 49.5584 45.0367 7.03528
587 2 36.8964 6.76703 19.4261
588 2 13.4068 53.5816 18.4974
589 2 18.1465 47.3859 18.0866
590 2 25.0755 38.6504 33.1621
591 2 30.6721 11.0425 37.6608
592 2 38.0293 36.815 39.3008
593 2 52.9153 53.4506 9.25785
594 2 18.9024 26.2571 19.8238
595 2 29.1878 20.5832 32.7358
596 2 24.5379 37.9623 46.3525
597 2 22.4782 9.64283 10.4531
598 2 18.5079 32.3396 29.4699
599 2 21.3411 25.7466 8.86632
600 2 50.0784 12.8757 24.9504
601 2 30.0621 49.3298 12.8863
602 2 30.6564 29.9816 19.9513
603 2 11.7952 17.2387 49.641
604 2 33.8675 17.602 20.026
605 2 39.6983 47.2237 45.2082
606 2 6.1209 45.2932 42.987
607 2 20.6594 51.4468 10.4453
608 2 42.0472 37.4689 12.3436
609 2 28.0269 27.138 48.6985
610 2 10.6639 20.7242 43.6485
611 2 34.0349 40.3214 35.0366
612 2 53.2943 18.6814 6.49617
613 2 49.9894 55.1878 54.5556
614 2 33.3714 28.2736 24.3283
615 2 52.5043 41.4622 54.5605
616 2 42.4867 25.7456 17.9826
617 2 43.1616 35.5476 23.0562
618 2 47.5749 30.4374 20.5822
619 2 12.6739 34.5836 46.1225
620 2 21.7363 14.4755 10.8429
621 2 10.1097 22.6088 53.3922
622 2 30.3739 43.8508 51.6807
623 2 10.9397 42.4145 11.5652
624 2 12.172 22.7242 47.3397
625 2 34.9665 54.4903 47.9905
626 2 6.98514 6.27987 47.2787
627 2 39.2579 24.042 36.1595
628 2 38.5971 29.6776 12.5559
629 2 52.2639 25.0223 24.6988
630 2 51.0982 55.3916 49.1262
631 2 36.0307 40.3766 50.1813
632 2 12.5971 45.8275 40.0255
633 2 40.7303 26.0052 44.3144
634 2 33.7213 9.27089 32.6211
635 2 12.1052 24.8759 20.6418
636 2 27.8212 54.0381 20.9974
637 2 17.5738 23.6194 31.0803
638 2 21.3394 7.34051 42.2744
639 2 47.4187 53.1996 40.9772
640 2 18.1791 35.6243 26.5957
641 2 53.9904 44.378 24.8622
642 2 20.0768 7.89492 10.3179
643 2 30.7287 34.5714 40.7058
644 2 15.0659 31.1768 31.7595
645 2 18.5711 17.2101 32.4465
646 2 8.56032 41.9258 8.69184
647 2 55.2302 51.8369 22.4111
648 2 7.98528 18.1145 21.7551
649 2 45.5935 34.3808 52.3673
650 2 28.9677 18.2609 40.0911
651 2 42.376 22.5179 7.23657
652 2 45.973 24.6793 19.124
653 2 28.6607 8.2975 25.3445
654 2 36.459 30.4025 54.3611
655 2 42.8064 18.7409 28.2682
656 2 26.9973 20.4535 43.9035
657 2 34.5024 24.0631 51.2078
658 2 31.3792 6.53138 49.4037
659 2 16.5133 17.8137 24.8577
660 2 45.1729 10.4519 41.4923
661 2 25.5378 51.6825 41.3504
662 2 53.6492 20.6084 34.3453
663 2 41.8252 11.1269 41.6759
664 2 16.1502 27.6863 38.4585
665 2 46.6088 43.6403 43.8225
666 2 48.9455 35.6252 16.2489
667 2 20.5579 25.944 37.3388
668 2 36.064 15.1622 24.8715
669 2 28.6905 53.0729 52.9586
670 2 24.8449 27.1875 50.0404
671 2 54.7102 20.9596 27.0197
672 2 43.6632 46.0895 37.8697
673 2 8.54006 54.9769 35.4829
674 2 39.7524 32.1667 31.0157
675 2 17.3136 44.3259 7.60987
676 2 23.1099 49.4723 7.32704
677 2 31.7501 26.3998 45.9103
678 2 28.8851 52.081 48.6682
679 2 43.8852 52.3001 44.6853
680 2 10.9758 9.10328 17.8938
681 2 46.1906 48.3461 26.707
682 2 29.3665 28.6344 55.7528
683 2 8.18606 20.1852 26.5115
684 2 52.0443 50.4623 10.1236
685 2 17.2826 6.95179 25.7315
686 2 35.2025 27.8215 43.0478
687 2 29.3073 22.6336 47.8206
688 2 45.4108 50.2373 19.8436
689 2 28.003 29.1747 15.2542
690 2 25.2008 43.3989 54.2261
691 2 8.32218 32.6409 8.29015
692 2 9.01189 20.141 33.7
693 2 36.5204 9.00278 42.1543
694 2 41.7053 55.542 26.4208
695 2 8.24594 18.5185 6.30747
696 2 19.2204 31.0831 36.3761
697 2 33.9089 11.3465 46.0876
698 2 32.2126 35.4478 24.8327
699 2 29.0915 40.1986 22.3707
700 2 30.3533 21.8651 6.51747
701 2 40.4823 31.4402 21.7716
702 2 48.4824 51.0867 12.1449
703 2 32.1332 39.6391 43.7252
704 2 54.8627 55.7049 19.283
705 2 38.0092 25.04 23.5652
706 2 8.01872 30.8459 25.9605
707 2 44.8408 7.02738 42.2635
708 2 48.8066 21.0295 41.4075
709 2 9.37491 42.9477 15.8367
710 2 37.9436 17.9502 22.0371
711 2 51.5668 26.3708 45.2568
712 2 7.37485 12.342 14.6444
713 2 9.82078 26.7028 32.4036
714 2 45.8361 6.34302 31.8849
715 2 40.2024 9.10049 36.9212
716 2 16.8795 32.428 17.5324
717 2 55.726 51.6003 48.0472
718 2 43.633 18.4902 9.21321
719 2 54.1183 35.1536 12.0363
720 2 18.3339 18.0358 50.5216
721 2 37.1073 38.4314 45.9087
722 2 45.7213 32.5119 30.6197
723 2 42.7625 22.4026 25.2241
724 2 15.3662 47.8419 45.9819
725 2 43.3929 27.0014 35.489
726 2 36.5255 30.4791 9.25215
727 2 48.7913 32.9449 47.9914
728 2 28.7181 46.8797 19.3957
729 2 25.0836 21.0539 41.0808
730 2 35.3846 12.483 15.4144
731 2 11.5849 11.4423 45.4124
732 2 22.8055 29.2392 20.5714
733 2 15.9107 32.3659 43.3765
734 2 16.9288 14.8078 46.9062
735 2 40.2592 48.6951 11.8203
736 2 36.6135 48.4008 13.8684
737 2 10.5433 22.9131 8.11188
738 2 34.0765 34.8032 31.3921
739 2 22.7431 23.8237 12.6001
740 2 7.40527 27.6464 27.0791
741 2 51.3885 46.2469 20.4198
742 2 40.7555 10.4446 52.0442
743 2 10.8277 44.0568 53.5508
744 2 10.0466 24.2374 47.8486
745 2 39.0015 33.7197 34.9119
746 2 47.6708 52.1825 35.5108
747 2 31.0898 46.3974 9.49905
748 2 42.8059 10.0817 6.71281
749 2 40.1737 9.07292 54.5051
750 2 17.4792 21.0422 50.2725
751 2 44.7791 34.4748 47.4739
752 2 41.3467 31.1185 33.5454
753 2 32.9145 33.7406 22.2284
754 2 27.489 34.3196 37.27
755 2 47.2141 44.4243 39.2508
756 2 31.8478 27.3009 32.5038
757 2 45.692 27.6174 49.2842
758 2 9.14475 8.2885 6.34808
759 2 36.5164 26.549 15.6061
760 2 15.5645 55.1888 47.7542
761 2 15.329 21.9314 14.3229
762 2 54.8405 26.1956 37.0083
763 2 49.5419 45.8081 40.7079
764 2 43.0531 48.5121 16.1182
765 2 39.2919 14.547 23.2415
766 2 49.5118 12.4103 29.3955
767 2 28.4428 23.9586 23.321
768 2 8.39396 19.7202 39.4957
769 2 26.1475 31.0042 27.7878
770 2 46.0345 55.3656 12.5423
771 2 43.7967 12.8779 37.7996
772 2 23.5082 32.1385 37.7593
773 2 52.9586 46.1141 6.34041
774 2 46.937 8.48907 53.8108
775 2 37.4125 55.3012 55.8661
776 2 53.3954 41.1295 49.1512
777 2 6.14456 48.6231 19.8906
778 2 42.0149 7.90012 12.7204
779 2 34.7875 48.5807 49.5253
780 2 32.1555 27.4577 51.0239
781 2 35.4393 14.5193 42.8735
782 2 11.0011 23.0891 36.2823
783 2 32.5241 19.7559 7.2845
784 2 39.4996 25.1058 31.1053
785 2 41.1527 42.8477 16.089
786 2 8.60798 30.9202 46.6425
787 2 39.1989 46.8761 18.1776
788 2 47.2367 55.5224 27.3648
789 2 14.3177 8.23627 53.8571
790 2 30.8507 36.5936 47.6237
791 2 32.4812 48.7918 36.9184
792 2 38.8917 44.1845 47.2412
793 2 36.8818 49.0086 7.88469
794 2 26.6511 43.6547 21.8839
795 2 41.2985 47.2531 52.8651
796 2 35.3693 35.7321 35.4445
797 2 33.329 30.9957 41.4248
798 2 51.3556 46.2091 15.2942
799 2 27.361 38.9829 45.058
800 2 19.977 34.1367 36.4108
801 2 42.5859 38.2517 47.1017
802 2 36.5739 30.2506 41.8497
803 2 26.6102 13.2515 30.3183
804 2 48.8448 55.7098 14.0889
805 2 51.9916 32.655 35.8559
806 2 15.0136 41.982 39.8218
807 2 40.6357 39.3357 42.4505
808 2 42.7638 32.7995 39.6234
809 2 16.6456 50.6871 50.095
810 2 21.732 19.7631 47.7726
811 2 21.6395 7.22266 12.4622
812 2 43.3527 52.616 34.4556
813 2 15.3842 20.4134 37.8406
814 2 16.8446 15.0249 28.4338
815 2 18.4787 46.7509 24.8959
816 2 30.6976 43.9215 12.8956
817 2 10.6161 19.4406 52.6774
818 2 52.8972 19.7868 22.8882
819 2 44.3588 21.7351 29.2002
820 2 7.99735 44.9197 22.1055
821 2 26.5038 14.3401 16.2866
822 2 54.1426 31.1003 8.76419
823 2 18.4559 49.3926 34.1893
824 2 30.2457 9.95553 30.7381
825 2 43.2975 14.0602 53.7668
826 2 41.9475 34.7558 37.6838
827 2 12.909 48.6753 35.5487
828 2 29.7124 18.6186 12.7279
829 2 54.411 17.5824 28.1583
830 2 54.0361 39.9999 18.7217
831 2 47.029 18.8517 39.7473
832 2 27.3747 54.8593 9.30341
833 2 18.6325 39.6573 43.9983
834 2 39.6158 38.4829 8.96583
835 2 49.8525 48.1672 22.3019
836 2 29.7942 19.5454 50.872
837 2 41.5956 13.0412 50.1323
838 2 53.5702 18.1297 25.6343
839 2 9.10187 51.0119 51.0149
840 2 39.7617 53.4035 43.9652
841 2 24.916 36.6824 7.91132
842 2 52.0081 37.2635 6.65828
843 2 50.1757 27.6126 14.0778
844 2 48.2076 16.0115 36.9955
845 2 14.0227 45.9553 54.4787
846 2 12.3113 16.0647 15.7357
847 2 43.7261 50.7121 30.4352
848 2 20.7881 53.3783 8.27909
849 2 13.6008 38.7807 16.6599
850 2 7.55147 38.0007 37.9669
851 2 39.5422 37.7805 35.9852
852 2 12.4724 17.9291 20.24
853 2 39.843 53.9631 55.0558
854 2 8.49587 48.127 45.2717
855 2 29.9239 49.7844 39.8986
856 2 8.17214 36.9995 51.0763
857 2 10.0934 27.9691 16.141
858 2 24.1545 44.6539 13.5479
859 2 9.39985 44.0375 51.2512
860 2 26.5326 44.0374 49.4065
861 2 40.1077 9.26278 30.2749
862 2 11.3152 19.0804 35.3686
863 2 13.7182 21.5332 42.6592
864 2 26.2604 48.3646 11.4392
865 2 15.4896 37.1755 20.3535
866 2 6.46145 14.2356 50.6333
867 2 8.60481 39.9502 29.3776
868 2 33.5834 42.1424 32.4933
869 2 32.4979 36.5988 35.0091
870 2 11.8052 17.4329 9.62965
871 2 53.7479 14.7398 46.7476
872 2 40.1677 41.7717 40.4067
873 2 12.4331 25.7209 49.9664
874 2 47.726 25.9849 55.7059
875 2 31.1966 45.8656 20.916
876 2 39.7018 31.1608 50.4991
877 2 24.6378 53.4817 34.5984
878 2 22.185 19.8923 16.705
879 2 16.0124 7.39758 50.1371
880 2 16.6052 35.9616 46.1904
881 2 8.30913 43.5936 11.7754
882 2 23.0823 43.1157 15.7233
883 2 55.4611 8.06973 21.2544
884 2 26.9695 55.4253 12.0889
885 2 17.457 55.1744 52.468
886 2 19.0534 25.1128 52.362
887 2 40.9113 6.36715 29.874
888 2 39.3189 36.9672 21.2294
889 2 38.7958 39.1419 28.5104
890 2 43.0793 54.424 37.41
891 2 44.2138 14.844 46.2722
892 2 45.1582 50.3785 52.8155
893 2 42.8689 44.2928 13.3911
894 2 47.131 35.3091 33.6496
895 2 35.4407 49.7201 44.5111
896 2 35.6236 45.8591 38.6921
897 2 25.4109 38.6253 25.983
898 2 13.6183 50.6796 20.6956
899 2 51.3632 48.2282 52.6827
900 2 44.3815 9.95155 52.7551
901 2 51.8914 54.4939 46.2917
902 2 51.3172 18.9279 51.5886
903 2 43.985 8.58594 17.6502
904 2 28.0931 31.8167 36.2892
905 2 50.55 35.5134 37.5469
906 2 13.6206 23.4775 8.33279
907 2 19.5814 49.6476 44.5145
908 2 40.3921 17.5964 20.2416
909 2 52.7293 25.1453 27.8752
910 2 30.9766 17.3132 51.3297
911 2 28.906 34.1778 18.1934
912 2 52.5605 14.9324 41.3315
913 2 23.4514 36.0427 44.0021
914 2 35.0932 35.1767 24.0047
915 2 9.85914 6.5435 16.0387
916 2 14.4136 29.7644 54.5131
917 2 30.167 17.9219 31.0037
918 2 10.7286 15.1389 53.2191
919 2 17.4463 39.7197 6.20595
920 2 45.5867 14.5931 49.7677
921 2 23.7997 48.5768 44.0463
922 2 53.9835 8.88958 8.87755
923 2 43.8669 9.64537 31.7466
924 2 40.7024 20.2661 12.2954
925 2 53.8513 32.2002 11.7497
926 2 36.5451 53.6639 25.7191
927 2 27.6332 55.2248 45.9099
928 2 28.4445 49.0663 44.0714
929 2 25.6199 19.7945 30.3733
930 2 24.7491 9.04404 27.8634
931 2 23.2339 54.3187 32.1856
932 2 21.9836 10.626 20.1984
933 2 37.483 39.8752 53.3163
934 2 25.6713 20.7267 49.8183
935 2 25.444 31.481 48.504
936 2 9.5689 45.2401 46.7548
937 2 28.18 16.2545 17.3115
938 2 10.9683 21.9847 16.6552
939 2 52.0123 10.1971 41.9352
940 2 20.7332 22.2246 6.81018
941 2 15.4163 12.686 53.7577
942 2 6.45648 41.7 25.6668
943 2 23.6905 34.5807 12.0201
944 2 45.4376 20.3702 53.7545
945 2 28.4939 30.664 24.6169
946 2 36.1284 32.9351 41.2327
947 2 29.5844 8.25742 42.046
948 2 26.415 44.8304 44.9905
949 2 17.7239 12.3495 45.4688
950 2 48.8363 29.6477 45.0881
951 2 30.3652 48.7157 34.9187
952 2 34.4371 32.8829 38.6322
953 2 15.4449 48.3742 30.8718
954 2 21.3183 40.4758 34.1287
955 2 54.5158 53.1942 51.9713
956 2 44.6989 17.0766 38.1242
957 2 27.3566 46.9041 48.6164
958 2 33.297 45.5685 45.8199
959 2 21.6526 43.5947 18.7967
960 2 35.8683 38.63 55.1654
961 2 41.1449 36.2697 50.4618
962 2 32.6453 33.7 53.0821
963 2 24.1795 44.4107 9.53394
964 2 29.8669 45.7379 47.5676
965 2 26.7921 27.6527 41.8487
966 2 8.28935 28.3264 45.1046
967 2 37.2407 23.6638 43.0464
968 2 30.7271 35.4407 36.8367
969 2 18.0491 35.696 22.3999
970 2 38.4675 19.6338 18.1107
971 2 51.3148 24.4401 39.0593
972 2 35.011 29.5162 14.7344
973 2 47.5569 29.4724 11.5103
974 2 33.2586 13.5793 24.7895
975 2 11.4895 38.5087 38.2099
976 2 14.9601 18.379 46.3258
977 2 18.0634 18.9722 22.9747
978 2 26.6682 34.6353 8.94557
979 2 18.8346 35.0034 30.4961
980 2 19.0623 8.24007 31.0856
981 2 46.3116 22.5377 8.57205
982 2 16.2986 24.9883 28.5164
983 2 46.2183 54.2489 34.1178
984 2 16.4275 16.8972 48.6061
985 2 26.5689 16.3389 6.88124
986 2 36.4874 17.1134 38.1541
987 2 8.97555 14.1169 47.1063
988 2 13.2283 13.4167 8.6004
989 2 29.6188 10.8047 40.8364
990 2 17.3034 29.0732 9.46061
991 2 39.3434 16.8331 30.4553
992 2 31.4533 53.5658 7.02713
993 2 43.6192 18.9352 51.5745
994 2 39.1621 14.8603 51.2715
995 2 6.88417 27.8015 35.4349
996 2 54.6355 22.4781 12.2615
997 2 27.2141 11.3448 26.2058
998 2 31.3109 21.6023 37.2389
999 2 34.6235 53.091 9.80988
1000 2 43.3381 8.86054 29.415
1001 2 44.2767 45.1702 42.9749
1002 2 38.1717 44.6238 19.8688
1003 2 28.136 38.1699 7.20583