ITEM: TIMESTEP
0
ITEM: NUMBER OF ATOMS
9088
ITEM: BOX BOUNDS xy xz yz pp pp pp
6.0684122255481618e+00 5.5862525566532135e+01 -5.7129516812416643e-15
6.0684122255481672e+00 5.5862525566532135e+01 0.0000000000000000e+00
6.0684122255481672e+00 5.5862525566532135e+01 0.0000000000000000e+00
ITEM: ATOMS id type x y z
1 2 52.9408 34.9142 9.3869
2 2 25.5349 23.8445 26.4978
3 2 11.696 45.4589 17.5533
4 2 30.0416 28.3267 25.4594
5 2 32.4408 20.0254 25.1749
6 2 53.9795 13.7574 48.8155
7 2 35.8464 24.8706 16.2822
8 2 46.2365 45.2242 11.962
9 2 25.3572 9.20484 23.9935
10 2 21.123 54.7255 26.4791
11 2 48.1556 45.7919 21.9161
12 2 24.7918 10.4615 41.875
13 2 32.7285 34.0367 46.0873
14 2 18.2336 16.0924 26.8853
15 2 12.3373 44.8854 41.9419
16 2 7.15179 52.6411 48.7136
17 2 35.9495 23.4893 52.8997
18 2 53.1926 9.66408 26.6863
19 2 36.6209 18.2005 20.9487
20 2 37.654 19.3661 11.8644
21 2 42.5052 55.6825 39.5223
22 2 47.6184 9.0369 8.38775
23 2 43.9701 22.4479 52.0131
24 2 26.4135 26.7306 14.8361
25 2 10.8032 29.9659 43.6658
26 2 11.9316 44.4084 50.2389
27 2 51.1811 37.6366 36.7514
28 2 17.8889 29.4831 25.2254
29 2 39.3225 52.3904 53.0293
30 2 33.4249 46.6982 41.9285
31 2 8.35757 33.8437 31.1513
32 2 28.8216 29.4664 18.4292
33 2 28.6177 47.2752 8.91713
34 2 7.131 21.3375 54.9899
35 2 50.5548 22.8257 33.5581
36 2 9.72241 39.3031 25.6566
37 2 7.20672 34.5374 13.5238
38 2 42.2054 42.3521 42.0179
39 2 50.5074 47.2191 22.7619
40 2 45.5915 25.3121 39.909
41 2 19.9157 34.2709 7.93965
42 2 39.815 40.6176 11.1147
43 2 36.8233 31.852 14.017
44 2 47.5251 18.7044 42.1272
45 2 42.6896 10.4288 30.9118
46 2 13.7156 47.8482 25.4506
47 2 34.0777 38.1114 54.3466
48 2 49.1856 10.6131 45.0376
49 2 47.4167 30.7366 23.8293
50 2 19.5211 6.86081 40.121
51 2 44.9627 16.7026 23.3186
52 2 44.1889 15.9164 34.581
53 2 36.2719 23.772 26.4128
54 2 13.8415 39.4527 40.8149
55 2 34.5631 8.73957 22.2747
56 2 17.035 29.6892 29.6621
57 2 20.1226 17.2756 15.1975
58 2 21.381 22.3842 22.5234
59 2 33.5924 31.9127 22.5308
60 2 19.9752 14.3806 34.8434
61 2 51.7145 17.2948 49.2375
62 2 43.677 25.3373 10.1262
63 2 22.255 25.91 31.6211
64 2 37.3593 22.7475 20.405
65 2 10.9043 14.8597 17.8045
66 2 10.6349 48.4333 45.0402
67 2 28.5236 34.6604 36.2286
68 2 19.6549 55.7495 20.6701
69 2 46.7706 28.9156 45.9232
70 2 27.1628 25.384 24.2681
71 2 37.0449 25.1734 50.4239
72 2 51.7969 23.818 17.3518
73 2 21.7132 25.3171 36.2048
74 2 44.9882 33.8987 39.7933
75 2 21.5296 48.9596 47.9813
76 2 23.7057 27.7209 36.2153
77 2 48.1447 48.798 45.8902
78 2 11.3383 9.71122 21.7924
79 2 17.5928 45.1694 46.5264
80 2 7.22482 39.8232 27.3711
81 2 53.7876 27.5922 42.4339
82 2 39.1592 44.5569 17.4707
83 2 37.4775 23.7524 42.7523
84 2 12.3121 22.6377 29.6947
85 2 53.8338 28.2908 10.6181
86 2 51.8546 24.9568 48.3649
87 2 46.2013 20.76 26.5171
88 2 32.1308 6.23855 31.6198
89 2 24.1284 34.7129 7.4405
90 2 45.9322 7.94996 38.6549
91 2 54.4286 46.2981 9.01196
92 2 39.243 50.8565 44.6482
93 2 22.6257 41.7662 48.9445
94 2 14.0291 31.2611 22.7863
95 2 11.4387 47.5013 14.4688
96 2 23.3884 32.4056 45.3127
97 2 8.79846 24.6291 26.6681
98 2 39.6249 10.7076 17.2509
99 2 43.0062 47.6285 45.912
100 2 25.0366 7.62443 42.4819
101 2 48.0964 16.8175 26.3274
102 2 14.5496 39.5307 33.6202
103 2 26.6554 13.2886 19.2926
104 2 39.3555 23.8021 10.0759
105 2 31.466 14.4429 38.3545
106 2 19.7166 32.5018 46.1838
107 2 9.91938 41.7832 35.0931
108 2 51.0545 36.5691 15.7319
109 2 33.0904 50.1767 20.8152
110 2 40.5935 17.2613 25.8272
111 2 35.2762 55.1497 25.0155
112 2 50.2956 13.7623 27.0627
113 2 9.61046 33.4613 21.4741
114 2 50.9744 42.991 45.5686
115 2 6.82756 40.9234 43.4515
116 2 53.6245 45.3884 17.2062
117 2 44.6544 12.213 11.0998
118 2 46.6166 28.6626 32.3709
119 2 28.5326 48.6133 21.279
120 2 37.4919 25.6903 38.8193
121 2 28.7026 10.483 12.6905
122 2 43.877 42.9792 26.7865
123 2 8.19931 48.0699 41.4803
124 2 45.5087 25.7015 26.0841
125 2 27.7121 12.8942 30.6268
126 2 54.6098 42.7514 17.8402
127 2 31.1249 8.25209 9.40208
128 2 16.9381 29.9751 52.4753
129 2 46.6225 20.6789 33.2667
130 2 12.3046 16.8906 15.6215
131 2 22.5734 55.692 34.4514
132 2 45.5213 45.4674 25.6131
133 2 51.5971 29.7492 32.8019
134 2 40.7029 28.1768 11.7326
135 2 46.8276 41.3123 14.1274
136 2 23.1345 44.7403 36.9953
137 2 35.4153 32.8024 46.2825
138 2 12.63 9.38854 51.1304
139 2 22.0395 6.19518 55.8153
140 2 32.7232 23.1967 40.0236
141 2 10.3836 23.2286 47.0126
142 2 42.8634 47.6048 15.955
143 2 14.2685 10.948 16.6433
144 2 32.6656 54.7974 53.4479
145 2 55.8594 11.0527 41.9604
146 2 40.6983 49.7011 16.601
147 2 49.5398 34.1876 51.462
148 2 38.3301 14.7618 20.2362
149 2 47.2583 8.42397 23.7366
150 2 36.6426 29.4675 8.80906
151 2 32.1727 33.1186 30.6374
152 2 34.4321 50.1384 47.1615
153 2 35.6023 36.6097 27.3506
154 2 53.8408 13.2731 8.85746
155 2 51.7662 50.3571 37.8306
156 2 47.9765 37.4404 29.1562
157 2 47.6286 45.4986 45.5374
158 2 15.8143 29.5304 45.4656
159 2 37.7562 49.9791 53.8462
160 2 43.8078 8.63033 28.2738
161 2 45.0327 24.865 19.9348
162 2 8.07854 8.53782 38.0046
163 2 10.3853 10.5494 7.5615
164 2 49.5425 45.0973 8.79909
165 2 46.8828 19.7731 53.8322
166 2 44.8311 28.1318 23.1483
167 2 40.9379 38.2326 23.0626
168 2 24.3515 50.0556 17.4487
169 2 52.0158 27.4864 40.2461
170 2 30.1818 26.2771 40.3953
171 2 37.5362 47.3375 21.5716
172 2 33.1568 19.3771 18.0076
173 2 27.9009 15.8162 55.2997
174 2 31.0528 7.2552 19.4093
175 2 33.2081 26.9554 37.1951
176 2 12.4227 13.3383 12.8595
177 2 15.1968 40.7165 21.4957
178 2 49.631 32.2915 53.5604
179 2 35.6158 37.3135 10.0718
180 2 26.432 38.6291 48.5575
181 2 25.4221 16.154 7.7419
182 2 6.43122 26.5223 41.6903
183 2 13.6506 34.9536 41.6269
184 2 23.7966 23.1087 38.5383
185 2 52.0406 16.5079 15.0341
186 2 18.7212 8.81214 23.6063
187 2 51.8739 36.1849 55.4296
188 2 16.0903 33.4135 9.73677
189 2 21.0004 40.1779 46.0734
190 2 49.6876 21.5794 20.6016
191 2 40.2061 44.0532 35.023
192 2 53.0028 52.4302 29.1023
193 2 20.9993 27.4719 7.22822
194 2 7.09076 50.554 43.667
195 2 20.0854 17.7819 48.185
196 2 46.9699 54.1782 40.5879
197 2 34.392 54.2708 21.9244
198 2 7.09856 14.9715 37.5102
199 2 7.19206 25.5561 32.3984
200 2 24.9394 35.8945 47.1954
201 2 27.1379 27.975 31.8966
202 2 43.0593 18.4247 53.4652
203 2 38.6524 29.8877 40.2571
204 2 53.5278 46.6241 40.5209
205 2 38.4345 6.2917 12.284
206 2 10.3843 12.3724 31.2071
207 2 24.4691 44.3859 10.2858
208 2 34.5547 43.7099 39.6847
209 2 21.6009 38.4085 18.5743
210 2 30.224 12.2885 31.8293
211 2 13.237 22.0958 18.6944
212 2 8.13869 39.7276 45.7091
213 2 28.4262 47.6863 11.7014
214 2 29.4686 12.2721 23.132
215 2 25.5115 30.6958 33.3696
216 2 15.2588 26.9097 30.9436
217 2 20.746 9.47837 51.4442
218 2 39.9802 24.0881 30.184
219 2 23.1415 20.3872 36.7377
220 2 39.0389 22.8009 38.7924
221 2 38.1723 32.048 38.0336
222 2 12.4287 55.7568 29.5592
223 2 47.5186 55.5571 26.1335
224 2 32.3776 31.9615 15.6796
225 2 38.028 36.198 6.26713
226 2 10.5817 48.4873 28.618
227 2 16.7101 51.3921 34.9461
228 2 46.9941 45.0194 6.84828
229 2 47.2187 11.7962 47.8015
230 2 45.6336 20.4515 40.1456
231 2 13.1654 25.4007 26.7311
232 2 49.5238 34.2522 26.0549
233 2 13.6854 42.0592 28.8241
234 2 32.4008 46.9757 49.4396
235 2 17.9802 44.1378 54.1448
236 2 49.6192 48.6965 29.316
237 2 38.9552 35.16 47.1194
238 2 10.3257 41.258 21.5896
239 2 37.1097 27.5813 11.4476
240 2 24.9842 54.8111 48.4914
241 2 45.3753 41.4162 53.2172
242 2 46.2291 50.6013 25.9807
243 2 39.6638 8.7939 12.6689
244 2 39.976 34.0291 21.3391
245 2 14.11 30.3946 42.7315
246 2 35.15 22.824 46.4733
247 2 19.9869 16.6043 31.4908
248 2 21.8539 30.9207 53.5547
249 2 14.6525 36.4125 34.6376
250 2 21.2628 10.6118 12.7095
251 2 43.6428 18.2463 29.0558
252 2 24.5117 13.297 49.1093
253 2 32.4252 39.7087 18.6518
254 2 31.3497 20.0181 48.3384
255 2 49.0315 37.4572 26.3267
256 2 31.2808 25.0725 15.4929
257 2 35.5682 10.6502 49.5093
258 2 37.9387 34.5519 49.644
259 2 21.0085 28.6714 25.2768
260 2 52.5191 41.4402 9.32313
261 2 25.7415 37.888 33.6541
262 2 16.5247 8.3616 13.7092
263 2 38.9214 38.6033 15.2481
264 2 24.0069 13.5793 23.7347
265 2 49.4367 34.9621 18.2751
266 2 24.3309 11.0128 52.9868
267 2 23.1577 48.2636 10.6397
268 2 26.8746 36.3206 13.8076
269 2 43.0034 11.1584 27.8814
270 2 54.096 53.7289 6.52081
271 2 31.7577 54.8778 6.61268
272 2 26.5838 20.5021 40.8341
273 2 42.5625 40.7376 6.55159
274 2 54.6888 40.2024 35.7135
275 2 18.8947 7.12101 6.15909
276 2 31.3893 28.9842 43.0035
277 2 14.5961 37.7999 37.8019
278 2 33.475 23.7703 27.4878
279 2 19.6089 45.1644 11.2947
280 2 51.9127 19.7512 34.343
281 2 49.3017 19.3988 32.2796
282 2 49.205 21.3408 42.6292
283 2 53.0831 26.3579 20.243
284 2 33.47 54.1453 49.462
285 2 15.816 48.3949 44.2965
286 2 41.5711 17.0381 33.3712
287 2 24.697 24.1817 18.6542
288 2 23.4517 27.1846 22.5705
289 2 43.5798 12.7346 8.11698
290 2 24.4386 24.7524 15.3211
291 2 37.0195 54.7631 38.9841
292 2 26.273 52.4242 23.6804
293 2 43.7214 12.8235 33.0085
294 2 30.4638 29.2642 34.5843
295 2 53.9714 21.6355 11.304
296 2 39.3338 53.9048 30.3912
297 2 52.2636 49.7781 31.1521
298 2 24.2719 16.5357 32.5153
299 2 53.9091 45.2775 43.4305
300 2 13.2949 8.71255 10.2491
301 2 9.10804 45.0627 14.0607
302 2 18.9766 7.20375 50.7194
303 2 44.9677 14.8066 54.0377
304 2 52.6429 16.2552 46.721
305 2 50.1729 53.1715 37.4615
306 2 17.6101 34.674 55.4294
307 2 46.9743 16.9032 48.2978
308 2 40.6561 47.4103 48.1959
309 2 9.69736 51.619 44.9529
310 2 29.4193 12.0475 17.4152
311 2 34.6371 23.8097 34.9035
312 2 14.6923 11.7552 40.0838
313 2 46.919 43.2817 32.5531
314 2 14.7778 54.4154 18.2448
315 2 24.4884 38.4666 36.3855
316 2 21.806 50.8316 34.2186
317 2 14.8941 12.3006 33.1758
318 2 37.682 54.9429 43.7216
319 2 27.1141 43.4765 49.8091
320 2 24.0905 24.6444 46.6664
321 2 18.5244 10.8634 21.6398
322 2 33.9563 27.1258 12.6109
323 2 19.2049 20.558 21.4544
324 2 16.6486 50.2994 38.7831
325 2 47.2107 41.8018 48.4608
326 2 41.9387 46.2928 40.7063
327 2 7.06372 51.5436 52.7202
328 2 41.3618 42.0041 36.4685
329 2 14.2046 8.05672 43.7117
330 2 7.46843 43.9905 35.4524
331 2 22.3449 14.4461 36.7713
332 2 17.0118 11.1455 28.5514
333 2 35.2902 31.8199 51.8862
334 2 38.5006 17.3926 53.0655
335 2 15.7797 6.08882 50.2994
336 2 50.1668 50.9123 47.1853
337 2 44.7578 27.9324 12.2796
338 2 28.9499 19.6007 19.438
339 2 7.39931 19.1056 36.1558
340 2 28.9435 34.6489 47.6255
341 2 34.7528 9.59078 12.8985
342 2 15.9058 50.4258 50.6678
343 2 16.6126 22.7324 29.9694
344 2 30.6958 53.3196 49.9656
345 2 36.8585 9.7534 24.6526
346 2 28.1291 6.83807 15.3525
347 2 30.8016 28.3874 12.3913
348 2 15.4869 38.2801 12.5366
349 2 45.4201 46.3644 17.33
350 2 7.5646 11.5551 12.1863
351 2 23.4738 46.6451 17.7414
352 2 49.8605 51.9361 52.3575
353 2 50.364 31.7494 24.2528
354 2 17.3458 14.3172 17.2822
355 2 42.4253 35.3667 41.0496
356 2 14.2154 31.4594 14.1466
357 2 49.4018 41.2975 10.9119
358 2 22.8313 24.6013 12.627
359 2 35.9726 23.7395 55.6529
360 2 37.4319 35.1061 24.8305
361 2 17.0391 53.5823 6.85941
362 2 45.2274 51.4075 23.4924
363 2 13.3677 11.8028 36.1384
364 2 42.2945 35.3242 35.7506
365 2 42.5867 11.251 48.5689
366 2 37.0777 44.3096 55.0287
367 2 20.4134 33.638 23.417
368 2 40.4947 28.6381 48.6996
369 2 44.7211 35.4874 50.6304
370 2 29.9344 15.1406 30.8329
371 2 36.124 32.6605 29.5863
372 2 30.9935 49.2661 36.7593
373 2 42.3609 37.4992 45.6403
374 2 10.1691 33.3345 55.0166
375 2 50.4125 19.3942 22.886
376 2 51.4019 7.41564 39.666
377 2 34.5472 47.965 24.6605
378 2 44.7103 38.2966 6.37094
379 2 40.9933 23.0675 50.6942
380 2 26.9174 38.3513 43.8539
381 2 34.1603 46.4379 32.8336
382 2 38.3315 24.145 17.4949
383 2 29.3978 8.12672 35.4531
384 2 40.7879 31.7425 51.9615
385 2 31.4994 24.3773 24.4752
386 2 15.1346 35.9629 8.5771
387 2 17.5986 30.8235 8.59304
388 2 32.4837 12.1368 34.9955
389 2 33.8159 26.9758 28.053
390 2 35.4876 35.0388 14.747
391 2 35.7392 30.9827 34.0111
392 2 24.5486 28.5974 9.26954
393 2 9.54387 46.2473 35.9623
394 2 40.289 32.479 27.6625
395 2 52.0195 52.8708 34.3369
396 2 10.1821 7.62777 27.8422
397 2 33.4441 6.35012 35.4476
398 2 50.0759 32.7635 8.57419
399 2 55.7692 25.8138 53.9945
400 2 38.2764 40.3728 35.5272
401 2 33.4152 14.7248 17.713
402 2 19.4469 55.1121 8.29285
403 2 30.8433 28.2466 38.4482
404 2 45.8091 50.6132 32.289
405 2 41.2103 46.897 23.6714
406 2 50.9452 27.308 23.7977
407 2 53.811 37.1181 43.2932
408 2 55.8015 48.5602 30.0713
409 2 19.4992 34.7643 32.8704
410 2 24.6769 11.3236 7.88167
411 2 40.8198 44.0915 48.6951
412 2 48.9765 19.5528 37.2308
413 2 29.3963 33.9139 43.0599
414 2 18.132 24.3128 55.459
415 2 26.4829 13.381 6.39742
416 2 18.4008 13.4895 23.1937
417 2 36.1769 8.62023 15.2763
418 2 37.5031 43.1345 26.7741
419 2 8.83616 16.0707 51.4289
420 2 40.8295 51.0996 20.0699
421 2 46.585 35.0732 10.1522
422 2 9.77918 32.297 45.5479
423 2 14.6668 7.63731 40.8705
424 2 20.6912 35.5414 45.0473
425 2 32.3044 21.9276 31.5659
426 2 43.9436 55.5384 18.6728
427 2 50.0434 50.9989 12.3337
428 2 33.5929 52.3773 11.6196
429 2 43.8205 50.5464 38.6768
430 2 16.8125 25.9178 10.1504
431 2 45.3728 41.1043 33.7067
432 2 43.3687 19.2342 12.5156
433 2 42.6321 46.5814 21.2096
434 2 31.0901 17.0626 26.1769
435 2 48.6895 14.4505 48.3822
436 2 28.2661 39.7924 16.7891
437 2 42.0265 41.4817 47.5983
438 2 11.2695 29.5032 7.93887
439 2 40.1279 19.9088 22.5056
440 2 27.733 9.93875 22.0966
441 2 54.9205 14.0142 35.0173
442 2 12.8368 49.9892 36.776
443 2 23.8284 10.2729 49.7416
444 2 47.9644 25.5945 18.9472
445 2 19.5447 39.3078 9.42885
446 2 27.2159 40.2742 27.0942
447 2 46.9051 7.30892 42.5147
448 2 37.3599 45.3108 38.8526
449 2 49.6808 11.3545 11.0398
450 2 43.2461 31.8874 48.4255
451 2 25.9842 28.2847 12.0742
452 2 14.9179 17.2486 53.2154
453 2 40.6693 9.79831 47.4403
454 2 10.4516 47.4463 19.317
455 2 17.8863 39.3563 21.2868
456 2 45.3053 13.8342 27.2883
457 2 42.8615 39.2779 35.4588
458 2 12.7566 11.3283 19.3663
459 2 21.4714 47.1362 26.7258
460 2 26.9833 9.28431 9.21131
461 2 50.6853 11.8852 31.4662
462 2 41.8346 27.1642 41.7056
463 2 21.3323 9.0424 18.1897
464 2 50.4644 12.5889 22.9455
465 2 23.7661 39.6042 8.10651
466 2 53.9512 31.8434 30.3032
467 2 38.1722 7.53143 39.8027
468 2 10.2018 43.1985 19.1527
469 2 21.7024 43.9546 17.9687
470 2 14.7514 40.7302 30.9493
471 2 9.46567 43.6866 27.8952
472 2 7.27564 13.3593 32.5446
473 2 19.229 54.1454 52.7421
474 2 37.2864 13.9944 40.5409
475 2 8.62376 18.9465 17.8026
476 2 34.7047 14.8516 38.7646
477 2 53.8482 25.5259 38.494
478 2 43.0713 24.3938 41.6936
479 2 7.04331 45.7331 44.757
480 2 41.0756 54.1784 52.1469
481 2 39.4732 20.6464 52.5124
482 2 48.7927 8.39159 38.146
483 2 26.5659 14.3296 37.5198
484 2 15.8097 55.4577 25.5103
485 2 37.4134 51.1451 27.2997
486 2 15.3484 27.4209 20.0499
487 2 50.4652 44.3964 15.1988
488 2 28.1539 51.1882 43.7618
489 2 24.5611 22.9962 23.4974
490 2 6.25566 30.07 32.642
491 2 55.443 21.2784 25.6963
492 2 55.258 10.5263 8.10175
493 2 11.6514 16.1094 12.4449
494 2 20.725 47.4486 23.0673
495 2 32.6632 45.7081 10.0591
496 2 16.3408 48.2416 41.1956
497 2 23.6463 12.9964 20.4766
498 2 38.1618 40.4072 29.7117
499 2 23.0352 37.1677 11.2289
500 2 27.76 54.8274 52.4481
501 2 35.6617 16.9702 40.2369
502 2 52.6172 31.5904 47.4633
503 2 42.347 42.2867 14.9243
504 2 46.0378 11.9296 31.2174
505 2 42.1815 14.3754 25.7848
506 2 35.5074 52.2969 6.64609
507 2 40.5917 52.9323 38.4144
508 2 21.4344 28.0746 16.4247
509 2 33.8777 28.9976 18.8294
510 2 12.9459 6.30441 12.1376
511 2 47.5933 31.6209 47.1894
512 2 17.4325 48.6006 33.5159
513 2 55.3264 51.2687 13.3274
514 2 20.3226 11.8809 24.2104
515 2 55.6911 23.5914 45.8482
516 2 12.3531 14.2837 43.0643
517 2 50.7874 16.9818 37.6401
518 2 49.5304 25.1124 37.7604
519 2 54.5374 42.6507 47.4575
520 2 14.5153 12.6053 53.543
521 2 31.6351 31.9971 12.8986
522 2 52.1264 40.6462 53.7038
523 2 45.7722 41.7652 29.7377
524 2 11.1827 45.7095 26.4949
525 2 16.6011 43.7577 33.241
526 2 51.4683 7.91698 13.5161
527 2 18.4637 20.4121 25.4152
528 2 35.1637 19.9065 37.0747
529 2 9.18511 28.0002 45.5518
530 2 13.7304 34.6132 44.9105
531 2 36.255 13.1925 25.3426
532 2 54.123 6.23558 10.3098
533 2 45.1551 41.3609 18.3444
534 2 41.0335 25.8771 26.307
535 2 27.3857 34.2956 29.997
536 2 21.7982 16.227 52.4915
537 2 31.6865 47.8559 51.9587
538 2 42.7784 40.0184 51.8767
539 2 28.5479 44.3136 52.438
540 2 11.7812 24.5927 8.19106
541 2 24.8001 47.4348 44.748
542 2 46.4258 27.7571 41.947
543 2 6.71344 28.5869 25.6447
544 2 49.8597 47.5066 14.8444
545 2 39.7069 37.3014 49.2575
546 2 47.4718 18.4699 34.8452
547 2 36.1026 23.212 37.3621
548 2 23.6545 17.4814 28.8496
549 2 22.6439 7.29482 26.5604
550 2 15.3112 45.8496 31.8311
551 2 30.3603 47.4525 18.986
552 2 11.6542 46.1562 52.7119
553 2 38.8382 30.6173 30.2781
554 2 32.9459 28.0118 10.262
555 2 6.16892 26.2597 22.5433
556 2 46.4288 20.9877 23.7348
557 2 33.3046 38.0093 25.2777
558 2 28.3034 43.6984 19.9945
559 2 9.10993 26.5225 55.3688
560 2 45.7214 55.4833 10.4344
561 2 28.2377 34.6623 32.5567
562 2 33.2944 34.2061 24.5912
563 2 49.3933 14.3397 51.3341
564 2 51.0727 41.3054 14.4564
565 2 21.5502 18.6243 19.7034
566 2 14.898 54.6472 8.10752
567 2 38.5449 15.0702 29.4499
568 2 7.90737 21.3315 29.8355
569 2 19.605 46.5415 55.7146
570 2 13.1638 42.981 25.3776
571 2 26.792 33.498 17.0753
572 2 22.8802 20.2882 13.1362
573 2 7.35873 33.1175 6.19581
574 2 53.7194 21.643 54.8344
575 2 49.1477 38.0721 11.5281
576 2 48.5343 22.0997 25.7561
577 2 50.3205 32.5415 40.3933
578 2 36.9359 28.6272 46.7109
579 2 42.9186 51.3552 55.3995
580 2 36.657 26.5008 25.9002
581 2 39.0242 37.2114 18.3295
582 2 12.2015 19.4659 11.9175
583 2 33.0917 33.2849 50.1773
584 2 18.854 49.0811 29.9669
585 2 14.1209 33.589 17.9946
586 2 34.66 8.26799 50.7598
587 2 21.4194 17.3999 9.41929
588 2 50.9767 17.7922 19.0814
589 2 6.32117 10.5517 15.1281
590 2 9.94787 52.4614 26.294
591 2 14.609 24.6967 33.4095
592 2 24.3169 47.4801 34.0665
593 2 41.4089 16.9741 6.21987
594 2 53.8223 38.4893 9.77999
595 2 15.063 36.0913 27.9833
596 2 10.3989 51.8041 41.8798
597 2 7.69408 24.022 6.10376
598 2 53.7874 46.3506 24.1131
599 2 7.27849 39.8625 53.0947
600 2 34.7327 26.4353 18.4546
601 2 10.4188 16.1242 45.3165
602 2 15.218 43.7744 14.7943
603 2 49.6672 30.3336 42.8684
604 2 16.0765 37.1452 15.3914
605 2 28.2497 11.9079 38.3732
606 2 42.513 11.4778 37.2621
607 2 6.60746 16.291 47.7586
608 2 26.032 53.1906 8.66216
609 2 14.122 41.4942 43.9062
610 2 47.2152 35.7541 41.5115
611 2 19.6319 6.78824 28.0699
612 2 39.6037 31.8668 6.17332
613 2 36.7829 19.6658 49.9336
614 2 19.2942 43.1883 19.2102
615 2 37.8616 8.25099 47.2588
616 2 29.5629 44.9196 10.0507
617 2 36.6069 49.9942 17.348
618 2 32.4162 44.7512 15.3317
619 2 48.4428 48.9248 40.7028
620 2 54.4131 28.0112 55.8365
621 2 46.5922 37.7653 45.317
622 2 14.4908 8.74467 48.8057
623 2 46.6829 7.40905 55.6953
624 2 51.1895 38.0559 43.3945
625 2 22.735 17.3032 40.9096
626 2 43.9076 20.8798 42.9732
627 2 24.5353 39.4452 29.0482
628 2 27.2189 43.2861 8.86816
629 2 37.554 39.7997 19.5336
630 2 39.7927 20.6403 36.8727
631 2 21.7437 54.4395 45.2388
632 2 48.4215 9.82808 34.9305
633 2 29.2377 40.275 40.3752
634 2 20.5843 24.4628 27.8289
635 2 48.5465 40.1646 15.9725
636 2 19.5422 21.0323 12.3134
637 2 54.3415 37.5985 24.5175
638 2 7.65382 21.3639 34.4602
639 2 35.7454 20.8211 32.5475
640 2 53.7087 49.0452 22.4565
641 2 44.8531 12.2396 17.8726
642 2 55.487 20.1236 8.73709
643 2 12.6566 48.7846 34.1507
644 2 50.196 46.3992 26.7468
645 2 7.88085 32.9138 24.2417
646 2 43.8964 55.583 53.0475
647 2 40.3382 12.0309 20.1363
648 2 44.1606 31.7086 16.3139
649 2 29.0966 51.8625 52.4283
650 2 16.1622 32.6825 33.6666
651 2 30.6219 40.48 50.4744
652 2 32.2338 39.5806 13.2517
653 2 14.9913 23.6096 20.2496
654 2 21.575 45.6467 48.0173
655 2 27.7195 37.0154 17.7071
656 2 15.4579 34.6428 38.9086
657 2 15.6366 37.3644 42.3982
658 2 19.6966 20.64 43.7213
659 2 51.6299 32.5883 18.9556
660 2 31.9052 23.264 35.3689
661 2 9.3985 15.3111 36.0261
662 2 39.607 35.2732 28.7268
663 2 24.5555 24.2885 35.8335
664 2 51.5753 43.0484 33.4179
665 2 32.847 8.7398 39.3924
666 2 37.3587 47.2152 11.3231
667 2 6.41707 40.3468 32.8107
668 2 24.2282 30.2674 19.2909
669 2 15.5956 17.8519 48.4589
670 2 11.5869 41.8539 45.9591
671 2 39.5577 36.9885 21.3456
672 2 32.283 9.29543 28.9085
673 2 44.2559 17.0837 31.8007
674 2 25.8038 45.0303 21.6709
675 2 6.71797 8.73955 52.9889
676 2 55.4022 14.869 54.2179
677 2 13.0198 44.0252 39.2988
678 2 15.9567 16.8832 45.5266
679 2 29.9724 17.1904 39.7031
680 2 43.9667 22.9889 7.5485
681 2 28.0718 14.9502 22.9316
682 2 14.1239 42.2929 51.5698
683 2 42.402 36.0157 22.0748
684 2 38.1139 12.1189 53.2558
685 2 49.6042 27.731 17.7338
686 2 21.3319 35.7748 37.9042
687 2 11.0612 32.9169 42.7569
688 2 34.2927 18.9657 14.538
689 2 17.9049 44.0818 8.77081
690 2 10.1332 8.93991 49.629
691 2 44.3107 46.7944 52.9267
692 2 44.8642 38.6742 28.9613
693 2 18.7461 20.5569 38.4929
694 2 25.2187 16.1401 23.4031
695 2 41.6366 24.8839 7.98036
696 2 55.2533 45.1903 31.174
697 2 20.0781 25.396 39.9632
698 2 15.1692 49.7922 17.6767
699 2 16.3481 53.4027 15.4485
700 2 18.6011 36.8503 51.7423
701 2 26.2832 45.9388 19.0341
702 2 36.4332 17.6627 55.4864
703 2 18.4076 51.197 32.2601
704 2 46.1898 20.963 16.905
705 2 23.0223 39.4915 12.8361
706 2 42.6178 44.0851 19.8716
707 2 31.8351 20.5261 35.9478
708 2 34.8317 35.2005 36.0405
709 2 44.8642 8.42866 9.84835
710 2 21.3025 31.4137 16.7911
711 2 37.6811 40.6626 39.5618
712 2 45.6429 22.613 10.1758
713 2 48.898 40.0322 22.4742
714 2 32.361 21.3983 27.9687
715 2 28.2743 24.5117 32.8566
716 2 52.6259 45.4398 10.8903
717 2 41.7393 16.3979 43.4242
718 2 29.9956 33.4759 54.8037
719 2 38.8682 49.2661 7.68676
720 2 6.8475 31.4537 46.1708
721 2 22.9983 50.6869 41.0941
722 2 29.853 50.4744 25.368
723 2 32.7192 37.1634 18.0887
724 2 51.5164 11.9279 38.944
725 2 29.038 39.3609 31.0402
726 2 18.2544 43.764 50.8568
727 2 37.4973 47.5977 41.4343
728 2 14.5295 11.3167 13.2426
729 2 10.998 38.7753 34.5487
730 2 19.9143 24.2129 11.161
731 2 48.2526 29.5481 40.2111
732 2 7.56607 43.0416 15.4439
733 2 51.6595 47.0599 38.2261
734 2 53.6575 29.8545 40.2476
735 2 30.6499 15.1565 11.7643
736 2 27.5756 9.25381 55.2719
737 2 41.9926 34.4139 51.8505
738 2 27.0033 48.7261 24.0328
739 2 7.82993 37.0828 8.44709
740 2 45.4214 44.896 22.0244
741 2 41.8508 10.9748 11.9215
742 2 27.0457 25.0687 46.587
743 2 46.0855 8.56715 48.3644
744 2 45.5114 37.6168 42.736
745 2 20.2682 52.2632 27.5786
746 2 33.828 17.3587 30.1358
747 2 16.6397 10.9128 49.8329
748 2 30.8004 27.2251 51.5507
749 2 27.1854 22.0858 48.449
750 2 50.1823 35.0516 45.0573
751 2 31.9225 46.2676 46.2264
752 2 31.1747 47.6832 32.6277
753 2 17.5453 51.1151 14.1314
754 2 6.40314 46.6417 35.788
755 2 32.8144 9.39201 34.6867
756 2 19.5017 43.8398 25.6183
757 2 29.6685 46.2567 43.472
758 2 45.3538 21.644 47.6982
759 2 23.8349 35.8671 14.9667
760 2 54.5079 16.4683 44.4615
761 2 47.3304 37.0762 7.24771
762 2 40.2477 40.784 31.7725
763 2 35.1314 10.7377 36.1888
764 2 27.2261 13.9531 10.9689
765 2 24.5348 32.1392 16.4864
766 2 34.9053 27.7099 23.1794
767 2 12.4252 37.9618 18.8051
768 2 44.603 34.4168 33.7271
769 2 10.9847 46.4573 22.1807
770 2 31.9583 20.1819 7.66553
771 2 31.1261 26.4766 33.048
772 2 10.0474 46.7577 31.1136
773 2 38.4337 10.216 51.135
774 2 34.3342 23.4561 49.5849
775 2 23.3807 20.4295 50.1103
776 2 38.8151 52.4356 42.2534
777 2 44.3902 13.4506 14.7645
778 2 28.7642 22.5354 7.70741
779 2 23.1313 14.6241 40.6433
780 2 19.2018 40.7718 43.9205
781 2 22.3417 34.413 35.1547
782 2 46.7566 38.5957 31.5392
783 2 19.0107 31.8718 51.5436
784 2 27.2055 39.0933 22.5985
785 2 28.1223 7.51959 12.4422
786 2 45.5427 43.8315 41.4688
787 2 27.3906 11.9697 15.1613
788 2 35.2936 20.5689 21.9866
789 2 50.475 21.9035 51.7621
790 2 16.5692 50.9799 43.1638
791 2 18.912 14.197 31.981
792 2 20.7543 9.49701 43.576
793 2 22.0007 13.3597 53.5559
794 2 12.4123 8.19866 16.956
795 2 27.1021 12.593 48.1413
796 2 21.9317 45.4698 29.7212
797 2 18.9501 41.3407 33.5963
798 2 37.2209 10.4102 11.2782
799 2 12.6744 55.2819 43.8215
800 2 55.622 50.4719 34.3932
801 2 26.8057 49.0006 40.9043
802 2 16.5267 47.0574 35.7844
803 2 13.0422 35.3581 20.9006
804 2 32.5856 21.4913 11.3206
805 2 37.8119 47.3922 30.6489
806 2 49.0693 54.8377 35.0614
807 2 22.3823 54.0762 31.4716
808 2 26.5918 45.1309 34.0627
809 2 54.6454 19.3825 43.9937
810 2 53.412 32.9568 43.3977
811 2 6.80016 24.4652 12.4845
812 2 30.0532 20.452 30.7705
813 2 52.4268 38.4764 30.1545
814 2 53.0735 29.7678 23.3043
815 2 55.2655 13.366 22.3239
816 2 16.2168 8.56042 8.46072
817 2 48.0946 39.2499 52.0097
818 2 36.3796 32.0981 18.3021
819 2 29.6573 33.494 24.5153
820 2 49.814 8.11319 22.4522
821 2 16.3761 29.2729 15.5805
822 2 39.059 44.5448 52.6026
823 2 54.9797 14.3255 27.9018
824 2 17.0609 26.248 26.7429
825 2 29.4074 30.0252 48.9202
826 2 27.5442 52.3308 27.3125
827 2 47.8928 13.8753 32.9387
828 2 14.0351 34.4297 55.6093
829 2 39.0452 30.9369 21.1328
830 2 40.6583 7.43283 15.1735
831 2 33.698 34.8722 33.2891
832 2 14.2686 19.757 50.5097
833 2 54.0388 53.9424 39.4424
834 2 30.2263 7.12663 52.7867
835 2 36.2607 13.0772 16.6697
836 2 10.8473 36.0491 41.0887
837 2 27.0697 27.4889 44.7596
838 2 38.3291 34.5754 18.2466
839 2 45.7307 16.7872 45.53
840 2 24.8333 16.4677 38.4978
841 2 10.2031 51.0405 52.1344
842 2 37.9362 52.247 49.5399
843 2 36.0759 42.8505 9.36182
844 2 33.1658 30.7143 31.4275
845 2 49.4919 10.3104 49.462
846 2 6.42105 27.4122 12.412
847 2 30.5076 17.5243 28.9266
848 2 6.2959 18.9727 53.7261
849 2 49.3096 53.7139 13.5235
850 2 42.9966 52.7068 32.9313
851 2 23.7817 47.518 30.5961
852 2 47.9735 31.0338 12.9024
853 2 25.7114 18.0381 49.6086
854 2 44.6215 12.8941 40.557
855 2 15.8921 14.4477 35.1671
856 2 43.7194 50.1284 46.5962
857 2 44.7805 43.34 13.5646
858 2 8.00546 11.9596 6.51522
859 2 44.9497 8.44369 45.8257
860 2 13.0803 10.0178 45.8698
861 2 27.9677 22.046 20.944
862 2 47.5245 34.2037 29.4705
863 2 48.4347 35.8749 36.6727
864 2 10.301 12.1515 10.5141
865 2 51.0994 51.9757 15.1858
866 2 45.5691 28.3495 48.9324
867 2 43.7943 54.1733 24.1508
868 2 18.8502 9.61729 26.2827
869 2 16.7196 52.6318 29.5994
870 2 50.3732 40.6819 7.32235
871 2 39.8566 29.5811 45.7683
872 2 28.0467 6.67396 37.5963
873 2 53.3605 43.5042 50.3597
874 2 34.5136 47.3564 45.0282
875 2 16.6495 9.46649 17.4074
876 2 28.3644 50.3092 50.2544
877 2 11.6983 18.401 29.2439
878 2 12.2886 32.1534 7.2249
879 2 53.9065 23.8794 42.9439
880 2 51.9154 50.0996 40.7979
881 2 43.7329 7.67065 6.43311
882 2 9.06941 7.08171 11.0204
883 2 41.4618 21.9768 11.7885
884 2 14.1129 19.4775 55.1881
885 2 55.3552 20.3112 46.5427
886 2 50.4571 36.8279 47.8442
887 2 30.7684 21.4015 20.929
888 2 28.299 49.5805 14.4926
889 2 24.3103 54.0524 23.5561
890 2 27.6192 24.5164 35.7507
891 2 31.8033 30.6719 40.8948
892 2 31.0028 16.0717 47.3631
893 2 28.1542 8.18795 50.8605
894 2 32.4294 50.3131 29.2264
895 2 21.8589 11.5464 41.1016
896 2 18.8403 55.6791 35.5044
897 2 9.74184 53.5228 19.5593
898 2 47.2393 13.3638 10.906
899 2 37.8153 12.9062 47.7937
900 2 30.152 25.3751 47.539
901 2 37.9334 19.2645 41.1667
902 2 41.3931 31.9051 44.5085
903 2 28.2769 20.2299 12.1538
904 2 10.7352 52.463 32.4827
905 2 36.4688 50.2587 32.501
906 2 52.2667 31.7761 6.44352
907 2 6.53026 17.1673 40.4264
908 2 25.4138 41.2743 12.6774
909 2 38.3419 39.3157 22.7783
910 2 16.1966 34.3118 49.2192
911 2 15.1269 49.2511 13.2211
912 2 39.2367 29.2794 34.6987
913 2 10.5994 51.2087 39.1803
914 2 17.1168 54.7445 21.8736
915 2 47.8193 19.3876 12.5534
916 2 49.4088 45.4629 49.39
917 2 20.1849 36.3675 22.1959
918 2 45.0214 33.7696 54.6696
919 2 52.8826 54.2624 50.57
920 2 31.3084 31.7993 43.7368
921 2 10.0129 13.4973 38.3581
922 2 42.5755 26.7519 48.276
923 2 27.6082 27.6807 26.7423
924 2 26.6648 36.6005 8.06402
925 2 38.7664 46.4723 6.79174
926 2 26.4216 19.6297 20.3962
927 2 11.7994 23.1225 39.199
928 2 13.4116 14.8127 36.3164
929 2 10.2721 35.7829 27.7985
930 2 11.2439 23.7285 22.6883
931 2 9.15812 16.2778 33.1501
932 2 51.1397 26.6256 11.8972
933 2 21.7827 6.64736 51.4002
934 2 10.3632 29.8247 49.1981
935 2 10.2277 44.3991 43.3946
936 2 44.8767 9.32063 41.5582
937 2 10.2856 30.7273 11.6686
938 2 47.2277 33.9608 14.2584
939 2 39.6487 24.9135 34.913
940 2 53.1556 38.796 50.6492
941 2 55.8522 27.2246 48.4146
942 2 37.7636 8.32381 18.2015
943 2 8.94823 48.6206 6.85904
944 2 33.8032 36.582 47.163
945 2 14.2262 45.1995 19.7527
946 2 19.6456 40.9675 37.3129
947 2 16.1014 17.698 38.5322
948 2 11.563 11.2728 40.0051
949 2 54.2226 32.178 38.2281
950 2 32.266 51.5493 40.9327
951 2 11.8163 11.1102 24.5019
952 2 18.5496 46.0953 31.566
953 2 43.7073 10.9359 20.3265
954 2 7.11478 55.0363 29.0561
955 2 40.9429 18.4022 44.7577
956 2 28.6636 31.6174 33.1797
957 2 15.4495 12.4892 43.4808
958 2 18.1765 9.6448 40.8463
959 2 8.21353 8.06948 13.8331
960 2 17.2192 52.0525 48.3699
961 2 31.1555 47.6968 39.6727
962 2 18.0561 47.6338 48.4388
963 2 9.15673 14.6244 54.3517
964 2 14.2843 7.76825 37.9293
965 2 12.6639 40.8596 35.4568
966 2 44.4393 41.7619 39.7123
967 2 19.1773 35.6792 40.2171
968 2 21.4218 48.0771 34.6862
969 2 54.1184 50.0942 17.833
970 2 17.6695 34.5972 15.3907
971 2 36.7174 38.2081 33.6081
972 2 22.2393 44.4671 8.04291
973 2 32.8112 42.6892 7.16977
974 2 14.6312 28.0102 22.8819
975 2 47.1248 53.4056 33.4048
976 2 54.1101 34.7267 39.6118
977 2 54.1174 35.7893 16.5333
978 2 10.1484 48.1775 54.1946
979 2 54.6419 48.9225 25.6575
980 2 6.33269 23.8477 25.0381
981 2 28.2755 41.2398 53.8031
982 2 52.1308 39.9011 22.405
983 2 34.7574 19.8333 28.8635
984 2 51.1587 28.7678 37.7974
985 2 10.3368 39.1506 50.6306
986 2 21.9981 30.784 30.8929
987 2 46.25 30.7552 42.7477
988 2 47.3631 23.5305 51.4512
989 2 17.5133 23.6255 34.6244
990 2 53.7584 44.8662 53.4336
991 2 25.8192 29.3875 23.3892
992 2 18.9929 18.6759 51.0966
993 2 28.7872 37.0647 46.4777
994 2 25.2793 29.4418 45.8018
995 2 42.6837 42.0998 30.5551
996 2 40.7389 36.5458 13.0665
997 2 13.2326 25.9246 21.0848
998 2 18.1849 37.2551 29.454
999 2 17.9419 21.4456 51.875
1000 2 30.5302 24.1402 27.2088
1001 2 30.5244 10.0308 38.4297
1002 2 23.0098 6.50988 16.6417
1003 2 13.1576 52.2632 51.1117