ITEM: TIMESTEP
0
ITEM: NUMBER OF ATOMS
9088
ITEM: BOX BOUNDS xy xz yz pp pp pp
6.0916685043692445e+00 5.5839269287913623e+01 -5.7076152272589729e-15
6.0916685043692498e+00 5.5839269287913623e+01 0.0000000000000000e+00
6.0916685043692498e+00 5.5839269287913623e+01 0.0000000000000000e+00
ITEM: ATOMS id type x y z
1 2 33.3753 7.31899 52.6997
2 2 54.626 47.1349 23.0661
3 2 42.4153 17.918 10.8617
4 2 16.7296 53.0788 16.1078
5 2 13.1447 42.2817 18.8786
6 2 34.5722 36.1837 41.8638
7 2 15.8656 46.6676 9.55454
8 2 26.538 17.6666 55.1423
9 2 8.06449 30.19 17.9327
10 2 54.0828 24.4794 18.9303
11 2 26.9586 18.144 14.496
12 2 54.5711 32.2069 35.6407
13 2 12.9436 6.13116 39.8383
14 2 48.197 37.9407 20.1395
15 2 42.809 16.819 35.3225
16 2 37.0359 24.9011 42.3585
17 2 16.3024 44.9326 46.2895
18 2 33.6532 32.1141 20.0671
19 2 16.7292 39.9958 14.3383
20 2 18.1589 40.9607 54.9193
21 2 22.6797 27.6492 32.9409
22 2 28.2563 31.2163 51.9178
23 2 24.3766 45.0099 45.1838
24 2 6.95375 49.061 8.27552
25 2 40.1237 52.3564 39.212
26 2 42.4581 16.0243 44.001
27 2 31.4688 9.74659 30.2338
28 2 46.9063 52.9848 17.0266
29 2 19.7021 24.4448 46.7244
30 2 14.0854 18.6472 35.5169
31 2 38.752 6.69738 24.8942
32 2 8.89221 51.9356 12.0579
33 2 8.69954 19.0022 51.8817
34 2 36.9112 43.5516 48.3878
35 2 31.0072 45.2006 27.2408
36 2 39.2684 11.5904 18.4502
37 2 36.8175 6.64073 7.11642
38 2 22.6848 14.4459 35.0947
39 2 30.909 17.9646 14.6008
40 2 25.7857 47.3799 33.5399
41 2 49.7476 8.46719 51.8482
42 2 20.1205 12.7295 54.3805
43 2 17.1274 53.6561 7.3684
44 2 27.8927 40.6634 35.6158
45 2 23.1142 32.4944 24.3774
46 2 43.829 19.9122 18.7712
47 2 14.3259 10.3356 48.1685
48 2 29.3017 32.435 38.5708
49 2 30.4883 49.121 16.6234
50 2 49.1041 29.061 33.4567
51 2 25.135 38.5153 20.2374
52 2 24.3883 38.0617 28.0368
53 2 16.1075 44.6837 22.046
54 2 42.9802 12.3884 35.2663
55 2 14.3123 31.2407 15.7899
56 2 47.4041 51.6904 23.6419
57 2 49.9796 39.0855 8.52376
58 2 50.9997 44.5082 15.8609
59 2 15.2576 6.57102 11.4668
60 2 50.4033 36.3364 28.3535
61 2 31.5635 39.6871 42.467
62 2 23.9606 47.0687 52.7552
63 2 51.449 48.2458 23.1479
64 2 17.8052 44.8249 13.6019
65 2 41.1127 37.0945 11.006
66 2 40.9301 20.7656 38.6769
67 2 8.76297 6.974 30.0578
68 2 49.7283 28.147 14.385
69 2 27.4298 50.9771 39.5385
70 2 55.5546 47.6514 20.3301
71 2 17.2053 46.9709 43.8958
72 2 33.2787 47.0986 11.7485
73 2 51.6445 47.0616 29.708
74 2 24.9738 6.11035 33.0976
75 2 51.9794 21.3097 41.1195
76 2 53.4749 49.2355 29.9395
77 2 28.3613 21.0934 39.0638
78 2 41.4078 32.0528 15.2342
79 2 48.052 17.8527 40.3627
80 2 37.2647 12.3581 20.8583
81 2 33.6895 49.6345 35.7908
82 2 19.4022 16.8971 11.0601
83 2 19.6901 44.9079 36.7534
84 2 42.0447 44.8499 22.6632
85 2 34.1004 50.3291 53.7646
86 2 32.0141 46.9095 41.5649
87 2 24.1382 41.0333 16.6799
88 2 13.2551 28.2678 24.8044
89 2 54.3957 7.04299 50.8379
90 2 25.8502 30.2071 31.8676
91 2 34.5191 18.482 52.4293
92 2 19.825 22.6213 38.0891
93 2 54.5376 11.6406 42.6641
94 2 44.115 53.6573 16.2108
95 2 40.8192 19.4625 8.5823
96 2 53.5244 6.09326 38.2792
97 2 38.5682 46.9202 20.5257
98 2 19.8635 32.6692 10.6511
99 2 23.2881 19.6867 39.4233
100 2 54.9998 29.1398 35.8334
101 2 28.9326 38.3339 19.6575
102 2 44.0397 11.6337 27.3848
103 2 6.93757 35.3381 13.0008
104 2 19.8645 45.78 53.3909
105 2 11.482 36.469 32.0607
106 2 50.4386 53.7141 38.7954
107 2 39.8511 13.9478 28.6085
108 2 31.2389 8.95398 9.39786
109 2 13.4252 22.8168 13.8156
110 2 20.8487 39.357 19.9297
111 2 14.7712 28.7365 17.7009
112 2 30.9354 36.0187 19.5446
113 2 37.5973 6.36945 14.6806
114 2 31.4549 14.9241 38.7687
115 2 36.9419 13.2464 37.132
116 2 35.8717 17.1334 10.7581
117 2 24.7761 34.4136 54.4214
118 2 26.4723 50.5027 25.9481
119 2 8.80981 20.6822 14.7971
120 2 17.2983 48.0635 33.1224
121 2 8.59798 31.1021 6.1075
122 2 24.2618 15.0734 20.4327
123 2 38.3196 20.6522 35.0371
124 2 23.8883 49.8545 19.7489
125 2 7.5266 34.7367 24.5096
126 2 34.0421 14.7559 11.6658
127 2 11.1354 29.9422 52.4741
128 2 46.5015 52.3027 46.2426
129 2 26.9525 43.0281 26.3167
130 2 42.2821 38.976 8.82682
131 2 52.8388 27.8501 27.4901
132 2 25.9374 17.4838 19.2288
133 2 34.8573 49.3968 24.3705
134 2 20.6778 50.0366 54.9164
135 2 28.1002 14.5987 8.53338
136 2 53.6619 15.8747 30.1249
137 2 15.409 7.80231 38.4158
138 2 42.0613 31.8809 44.566
139 2 52.4503 29.9011 48.5278
140 2 10.961 48.8557 38.7384
141 2 40.427 45.2681 40.5491
142 2 23.1429 19.6371 9.45684
143 2 44.2546 32.9221 10.3034
144 2 13.3212 27.0044 46.7537
145 2 35.9032 32.6747 34.9506
146 2 20.9926 22.282 10.2089
147 2 30.222 6.16626 44.0044
148 2 18.387 36.6096 14.033
149 2 27.3828 30.2127 17.5884
150 2 16.7417 50.75 52.131
151 2 11.0284 54.4203 24.1643
152 2 14.9331 21.9921 40.7112
153 2 15.5232 8.54347 20.6138
154 2 34.3608 35.3935 51.8383
155 2 32.1105 22.6032 31.4709
156 2 29.6283 9.56328 23.4188
157 2 27.7678 17.6879 38.8212
158 2 44.0651 52.1696 36.7193
159 2 18.0684 21.6968 46.9829
160 2 24.5753 30.9683 21.6718
161 2 25.6208 49.7793 16.9499
162 2 38.1333 30.1093 31.4006
163 2 40.0023 31.2137 49.8599
164 2 29.7207 17.2638 52.3969
165 2 27.0893 41.7538 47.3485
166 2 23.1652 47.1872 14.8433
167 2 20.6238 10.1754 16.805
168 2 54.4719 22.275 11.4108
169 2 31.8045 49.6938 33.3133
170 2 10.4806 48.223 33.8413
171 2 17.4877 20.0037 14.6397
172 2 13.5748 41.3306 11.242
173 2 7.96535 37.9364 48.9147
174 2 12.6314 29.8419 13.5925
175 2 13.8933 49.0348 30.7319
176 2 42.4573 34.8851 6.20019
177 2 45.2493 13.2125 15.0511
178 2 29.789 55.6996 49.1063
179 2 15.7386 9.53028 53.1013
180 2 54.3524 13.1224 40.2226
181 2 55.2911 38.0557 50.9995
182 2 36.1747 48.2876 34.954
183 2 44.0108 6.89766 36.0919
184 2 53.7583 44.4844 32.1116
185 2 32.0378 38.28 8.72274
186 2 48.9458 30.5475 16.8632
187 2 29.5639 7.81916 46.9186
188 2 45.7925 55.3926 53.3388
189 2 51.0669 10.3229 40.2265
190 2 28.966 45.3013 14.1583
191 2 20.7559 16.5257 28.4591
192 2 33.5713 24.7215 22.5782
193 2 50.9478 49.4682 50.626
194 2 37.0814 23.1118 37.5903
195 2 49.9942 39.9391 41.4957
196 2 27.1211 26.2051 34.5128
197 2 14.0054 25.8486 18.22
198 2 36.8681 37.2601 30.1922
199 2 37.2486 47.2218 25.8788
200 2 52.9936 8.60753 42.6805
201 2 6.20287 53.0687 23.4993
202 2 23.5005 40.5497 47.2171
203 2 20.6639 50.848 33.5652
204 2 34.0601 19.0052 34.3396
205 2 20.0083 27.0146 6.87417
206 2 40.8121 34.4469 24.3169
207 2 54.5832 16.4908 53.5084
208 2 14.5725 16.2594 32.5556
209 2 51.6181 10.1006 12.1889
210 2 12.0584 33.6017 25.8751
211 2 42.841 44.2079 12.0395
212 2 38.1853 12.1215 39.4735
213 2 8.68873 19.4976 54.8772
214 2 9.03377 34.5813 17.7825
215 2 6.7938 52.6637 26.6375
216 2 45.492 49.279 24.0167
217 2 50.7232 31.9095 44.9382
218 2 21.3814 46.8998 23.0939
219 2 50.8429 44.351 30.086
220 2 19.0435 44.0196 32.5307
221 2 17.8699 51.2579 33.0264
222 2 42.5609 27.955 22.9685
223 2 27.9309 27.2747 19.6115
224 2 11.7134 53.9251 9.15697
225 2 18.1734 10.7489 51.0483
226 2 40.5286 21.0053 22.0358
227 2 46.634 23.4592 28.4115
228 2 26.5329 17.588 49.9188
229 2 27.1993 34.1845 41.0944
230 2 25.673 42.4414 33.5891
231 2 43.5227 47.5986 19.8771
232 2 29.5661 6.70464 19.1335
233 2 43.3715 14.6088 21.5888
234 2 12.8753 18.8558 42.8332
235 2 48.254 17.0327 47.5934
236 2 30.9563 17.9737 22.9573
237 2 19.2883 7.23553 40.4681
238 2 38.1945 15.9609 13.1553
239 2 17.4067 49.5236 54.716
240 2 54.317 26.2326 45.0846
241 2 25.826 13.1188 46.5437
242 2 26.6486 22.6723 20.1947
243 2 19.8232 30.5003 6.30503
244 2 20.8845 55.5058 15.7057
245 2 41.6286 49.5241 33.5018
246 2 14.5455 44.9181 40.0172
247 2 49.9671 38.6856 25.1289
248 2 51.6768 52.8544 46.9981
249 2 44.6641 9.02511 28.6224
250 2 51.3002 32.4363 6.14974
251 2 21.8012 41.8775 18.8607
252 2 53.8968 35.0027 42.488
253 2 12.6951 12.0379 12.0058
254 2 11.5674 41.5519 42.1716
255 2 28.2159 10.8095 20.8418
256 2 11.618 47.4194 9.14252
257 2 16.1317 32.2872 42.7513
258 2 17.3199 54.2514 40.9011
259 2 52.5687 51.6118 20.5949
260 2 33.6943 14.717 54.3974
261 2 6.10045 9.81791 27.0497
262 2 46.6557 30.1094 6.72909
263 2 19.2462 10.6799 8.77063
264 2 53.8664 35.5781 17.3015
265 2 29.5298 7.00767 11.7285
266 2 7.53394 32.7915 45.8714
267 2 53.6232 20.5747 54.2124
268 2 6.97973 8.1695 7.61308
269 2 23.2272 33.2219 21.0611
270 2 34.6433 25.6926 49.9487
271 2 12.9943 26.5318 49.9441
272 2 6.58523 42.0747 34.3558
273 2 22.5632 12.9263 49.9854
274 2 34.9389 12.5239 28.9764
275 2 49.36 29.3818 49.3214
276 2 11.9753 50.413 36.548
277 2 45.2204 7.89849 31.6855
278 2 13.1657 49.3828 19.8315
279 2 49.8452 17.766 54.4605
280 2 32.1545 42.0649 27.7514
281 2 29.7108 41.3318 26.0605
282 2 29.4351 43.3136 36.0648
283 2 32.3354 48.7102 14.122
284 2 14.3905 25.8551 42.8473
285 2 45.8662 20.4187 37.8136
286 2 22.1579 39.5447 26.8072
287 2 54.8775 46.275 12.1999
288 2 53.5179 49.1905 16.4569
289 2 23.9177 34.678 51.6134
290 2 54.6846 46.6847 8.85492
291 2 17.5092 26.8182 32.2167
292 2 7.20802 24.3295 16.944
293 2 24.0982 34.7279 26.353
294 2 11.2642 50.8629 27.4585
295 2 33.3716 44.1255 54.3448
296 2 19.6926 25.7882 23.7482
297 2 32.3719 22.091 24.3348
298 2 54.5087 38.2085 26.5379
299 2 34.5281 17.8562 37.0792
300 2 41.4425 29.0499 51.7602
301 2 37.8894 18.867 9.08438
302 2 48.1081 25.2043 47.7538
303 2 25.3626 36.6778 47.7694
304 2 33.0515 38.1777 40.3707
305 2 30.1329 25.3145 31.0129
306 2 48.4127 6.76596 49.7241
307 2 27.4622 38.669 41.7741
308 2 21.0282 19.3282 41.3485
309 2 39.9202 23.9551 38.8658
310 2 10.158 33.8648 11.0907
311 2 15.0471 45.8676 28.2412
312 2 44.7657 34.1325 33.2793
313 2 27.2004 15.4196 25.825
314 2 44.96 26.835 11.4502
315 2 54.6936 10.4562 30.2087
316 2 51.926 23.0894 27.5424
317 2 45.1723 34.1103 26.6185
318 2 18.0295 27.096 37.0623
319 2 9.29412 12.808 42.1489
320 2 53.9823 46.587 40.34
321 2 48.1903 32.7821 14.7078
322 2 14.2731 48.5629 55.7155
323 2 48.8563 42.8998 15.0262
324 2 46.6049 22.3842 31.9136
325 2 27.8326 14.5247 41.6995
326 2 22.0007 18.4705 34.1822
327 2 37.2403 23.9745 46.3341
328 2 21.3954 14.128 30.2366
329 2 44.241 30.0693 37.366
330 2 37.7092 16.3232 29.0933
331 2 52.5484 36.3145 30.4701
332 2 47.3404 33.1172 22.3408
333 2 19.6091 6.50385 45.2732
334 2 18.7298 39.5921 46.5665
335 2 48.1813 28.9976 43.0856
336 2 30.5499 22.8894 40.5125
337 2 25.3298 49.7879 55.4606
338 2 9.22748 41.849 12.6713
339 2 37.2897 40.7648 29.2612
340 2 9.60403 6.88444 41.2196
341 2 14.6716 31.2496 6.59563
342 2 46.1228 22.4585 44.3738
343 2 46.6274 44.636 22.4701
344 2 9.4781 25.0058 44.0501
345 2 16.6875 31.9545 18.3815
346 2 8.00574 28.8082 7.9315
347 2 10.6418 50.7388 55.3414
348 2 45.7725 10.1317 6.41505
349 2 27.7496 18.3719 11.2654
350 2 37.8695 33.5398 55.1032
351 2 53.0565 18.8162 11.4531
352 2 30.1386 24.1775 45.6924
353 2 30.6607 53.8298 17.84
354 2 47.0508 36.3414 10.5661
355 2 22.7396 7.58308 34.764
356 2 44.331 53.6589 8.30364
357 2 28.8874 13.5077 54.0117
358 2 52.8814 46.3578 6.41211
359 2 16.081 45.26 48.8909
360 2 17.6129 7.32123 18.2685
361 2 45.2373 27.0192 51.3347
362 2 23.2562 23.5656 14.9079
363 2 43.9055 33.949 29.0144
364 2 22.3795 7.57223 29.9999
365 2 22.8962 33.2443 42.1297
366 2 17.2452 16.5652 48.1741
367 2 50.4511 6.24477 16.6485
368 2 21.6042 52.2829 43.3833
369 2 25.571 55.6738 45.0104
370 2 9.91453 36.7868 23.4502
371 2 12.9166 52.0952 20.1798
372 2 11.3698 21.4345 29.8062
373 2 22.6405 9.85059 39.4817
374 2 40.2327 55.5992 48.4338
375 2 30.9443 41.3615 15.9906
376 2 31.3925 29.2039 32.8341
377 2 14.3791 20.133 17.6929
378 2 24.532 10.2653 50.2333
379 2 21.2749 44.6888 44.1908
380 2 6.65001 10.5779 37.5928
381 2 14.4478 18.6868 25.8735
382 2 18.6654 46.1791 10.9101
383 2 10.1715 29.6623 28.2791
384 2 18.6968 53.6233 47.0246
385 2 11.7958 46.2028 17.4933
386 2 44.3239 6.57723 51.2367
387 2 47.8442 52.9795 52.4045
388 2 12.8877 34.1335 28.6297
389 2 18.548 48.1336 23.2962
390 2 15.586 7.149 7.84337
391 2 16.035 52.6276 28.0407
392 2 54.6508 50.291 52.593
393 2 39.9136 18.9383 29.9807
394 2 23.5978 53.8778 18.3157
395 2 32.6256 25.1504 29.9695
396 2 40.2477 30.1943 21.055
397 2 13.6414 28.4315 28.8948
398 2 31.3968 52.9846 51.7403
399 2 36.37 48.0638 47.4076
400 2 18.4085 12.2877 28.959
401 2 13.5041 36.8215 10.9752
402 2 49.7541 26.813 51.7182
403 2 10.9044 49.9578 31.6638
404 2 26.0509 22.8164 25.684
405 2 21.6285 18.7298 17.2256
406 2 29.4855 49.3191 19.7659
407 2 34.2787 9.75258 36.8344
408 2 38.7629 23.5492 27.4868
409 2 50.1426 55.665 26.8595
410 2 54.8372 33.4076 50.9555
411 2 21.3695 16.017 42.0192
412 2 29.4276 41.8985 30.3572
413 2 8.99816 6.44703 36.789
414 2 48.0391 46.3143 49.0292
415 2 6.74631 35.3778 50.0647
416 2 47.9078 35.5603 16.4953
417 2 15.9589 30.2495 9.09427
418 2 17.4593 15.2449 19.9629
419 2 38.7557 38.0345 44.6596
420 2 19.6835 23.7526 12.595
421 2 26.8377 7.08676 53.362
422 2 38.6498 6.22289 38.9289
423 2 44.5374 29.5063 34.2388
424 2 47.9621 8.53143 36.2239
425 2 12.3745 44.2681 24.9595
426 2 24.0457 27.0117 14.4333
427 2 30.7849 23.4128 55.2797
428 2 14.3837 24.5965 54.6118
429 2 23.8947 22.9644 32.2298
430 2 47.1106 47.7235 53.5869
431 2 25.8029 13.0605 27.4379
432 2 23.6779 41.1941 55.6651
433 2 22.8074 18.6994 14.8859
434 2 11.4812 39.5681 19.2968
435 2 29.0868 36.1577 41.4226
436 2 8.52207 11.7889 10.1529
437 2 22.9626 13.7684 41.3261
438 2 41.0259 51.7029 51.4203
439 2 20.0829 41.5428 15.5559
440 2 8.10767 32.0891 15.2681
441 2 35.289 35.7998 28.1915
442 2 42.6113 22.4859 29.9139
443 2 53.3069 31.1784 43.5919
444 2 31.4526 44.2154 12.402
445 2 49.4698 11.1564 53.1948
446 2 7.1941 12.4209 20.6965
447 2 27.3354 29.3006 35.9417
448 2 17.5233 17.4774 32.0034
449 2 30.0329 33.3297 54.3998
450 2 23.9754 54.0897 41.9805
451 2 55.6186 50.4789 55.3281
452 2 44.7512 39.2523 46.6997
453 2 20.8403 31.6599 40.9492
454 2 40.036 18.9625 13.1908
455 2 47.8517 11.7681 14.5411
456 2 25.7088 35.72 20.6345
457 2 22.6972 11.611 28.7352
458 2 42.5892 33.8891 13.176
459 2 51.563 19.4819 20.0709
460 2 6.97246 31.3701 51.9021
461 2 30.8164 34.6033 25.4888
462 2 22.2826 48.9312 34.8884
463 2 51.2318 31.1739 11.6592
464 2 30.9707 34.856 16.8453
465 2 53.8389 11.4403 51.7369
466 2 33.0948 53.7589 25.1013
467 2 18.5866 29.6911 33.1572
468 2 40.4245 16.1677 11.5231
469 2 51.7346 15.7612 11.3622
470 2 44.0058 12.0312 23.9242
471 2 39.1145 15.9758 21.2542
472 2 37.3103 35.2812 25.6118
473 2 49.0136 26.7377 45.477
474 2 17.43 35.9734 33.8649
475 2 38.3325 41.3303 11.2909
476 2 14.8 36.6693 32.7495
477 2 34.0916 47.4216 31.9696
478 2 23.3576 46.0647 34.7376
479 2 37.1355 18.1556 38.3671
480 2 21.9035 26.3243 45.7502
481 2 20.1154 42.6469 46.0243
482 2 29.9153 31.8799 32.4009
483 2 7.02468 36.1974 31.0253
484 2 46.0991 27.6763 19.1628
485 2 17.5765 22.7605 20.9969
486 2 45.3286 49.9461 13.5365
487 2 30.7284 16.0397 8.82664
488 2 8.59757 23.1294 36.9476
489 2 54.3176 44.879 16.7666
490 2 36.0706 52.1602 26.3952
491 2 35.5518 43.2412 19.164
492 2 35.6059 32.5321 51.0355
493 2 41.9352 37.8788 55.5759
494 2 50.9887 19.9721 16.5829
495 2 13.1437 18.0463 53.554
496 2 46.5527 20.3805 34.7049
497 2 53.9413 35.0058 14.0996
498 2 18.3792 12.3545 23.2578
499 2 53.1328 9.20809 54.4929
500 2 8.29503 27.1491 46.2141
501 2 16.0142 38.947 33.7465
502 2 32.9478 52.0868 42.4309
503 2 22.756 14.8101 8.55646
504 2 26.302 34.0366 24.7881
505 2 22.1874 36.7494 19.2818
506 2 16.6297 24.4002 49.8512
507 2 21.2118 24.829 31.8191
508 2 51.3376 49.8786 10.131
509 2 14.6913 54.5291 9.17451
510 2 42.7149 28.2304 55.4228
511 2 28.2639 53.7099 40.0452
512 2 48.1247 20.4857 26.8447
513 2 32.7885 23.2712 9.13393
514 2 49.9848 33.7459 17.506
515 2 35.7286 45.7557 38.8888
516 2 42.3248 36.3204 36.2442
517 2 31.0589 38.808 31.0551
518 2 29.6331 46.903 31.4732
519 2 35.0684 14.7637 41.0968
520 2 44.4117 34.5111 47.0869
521 2 11.9098 53.8595 6.36043
522 2 30.2376 11.9788 47.3227
523 2 25.7103 14.0856 23.3305
524 2 40.8146 18.6885 19.8608
525 2 46.5363 15.1808 26.2416
526 2 31.81 30.4986 6.50337
527 2 48.3327 42.2283 18.7769
528 2 14.8666 41.753 31.1184
529 2 38.6232 49.5614 40.2828
530 2 45.7266 54.0786 39.1025
531 2 16.4914 35.0424 18.6404
532 2 34.5509 28.0203 53.6143
533 2 25.1086 12.969 12.1956
534 2 23.1566 51.5132 15.8043
535 2 8.64923 6.39097 23.3782
536 2 51.5885 38.3894 45.8878
537 2 12.0132 20.0324 45.2877
538 2 22.7611 12.479 45.7871
539 2 8.62641 16.3893 45.7522
540 2 41.7152 46.8384 51.5854
541 2 54.6463 19.5089 37.9608
542 2 26.7628 49.6357 35.277
543 2 36.4889 50.2811 19.494
544 2 30.0643 19.7156 8.31945
545 2 20.3815 9.95536 42.9396
546 2 27.7554 40.6797 28.2428
547 2 16.3761 44.9567 31.0247
548 2 53.738 39.6219 22.3821
549 2 52.5226 29.1484 19.4605
550 2 45.7586 17.5831 25.0023
551 2 10.5657 19.5917 12.2154
552 2 42.0246 18.5584 46.2159
553 2 18.8973 52.2303 24.0031
554 2 12.6492 49.6926 53.377
555 2 36.1187 48.469 16.0957
556 2 26.6594 42.7982 16.9243
557 2 13.3933 10.1988 18.6884
558 2 8.61409 15.7808 13.5861
559 2 39.1098 48.6537 48.9362
560 2 25.7565 27.5887 53.9756
561 2 9.28133 6.88216 25.9799
562 2 13.553 55.7307 17.5439
563 2 28.9284 36.4039 44.9228
564 2 31.0466 13.1961 8.074
565 2 51.7084 40.8286 12.985
566 2 47.1221 28.2933 53.6037
567 2 18.818 37.3285 22.9403
568 2 38.0447 43.3885 23.5799
569 2 49.3703 18.5384 49.9249
570 2 42.399 14.7865 18.4724
571 2 6.60333 55.3695 11.1449
572 2 52.7053 42.3557 6.4152
573 2 37.0477 6.29273 49.2714
574 2 33.8037 43.2177 47.8628
575 2 29.4804 10.2002 54.9579
576 2 28.7 44.3082 18.9875
577 2 30.3835 54.904 33.7243
578 2 18.1493 50.5242 41.1773
579 2 23.4036 23.6412 48.9878
580 2 18.5043 47.3627 19.4269
581 2 19.3469 9.60543 12.1177
582 2 41.8793 41.8816 54.7881
583 2 13.5634 54.8963 44.1525
584 2 48.8281 21.1929 23.4818
585 2 43.7065 54.7511 11.2683
586 2 15.2969 30.05 44.0972
587 2 50.8287 38.873 52.7235
588 2 31.8274 41.416 13.1908
589 2 36.2765 33.1157 8.57018
590 2 40.0354 24.7743 19.7015
591 2 44.3751 46.5262 27.0066
592 2 54.07 19.2859 27.3977
593 2 21.7081 38.619 49.3914
594 2 33.0892 10.8599 52.6119
595 2 46.2782 10.5822 23.1423
596 2 40.5235 24.3327 35.2621
597 2 37.8294 45.935 49.2779
598 2 34.9227 18.7431 18.2757
599 2 37.3402 13.1701 48.8775
600 2 15.1601 48.6354 11.9231
601 2 40.545 37.9457 38.3099
602 2 44.5245 14.5519 8.3573
603 2 29.9561 52.6343 36.4902
604 2 46.1155 9.29108 9.21483
605 2 8.51304 33.6094 32.1497
606 2 22.0156 33.506 30.5237
607 2 37.2787 38.2383 41.3101
608 2 6.48363 23.5013 51.4784
609 2 44.4707 13.9183 37.8291
610 2 27.7804 8.25442 35.0968
611 2 49.8008 28.9246 21.569
612 2 20.4271 54.1716 49.8991
613 2 16.6299 41.4695 43.7593
614 2 48.9099 15.3705 12.605
615 2 18.2026 30.0976 40.8268
616 2 10.3598 17.2113 53.0952
617 2 17.0589 22.6889 10.5924
618 2 12.5435 17.1661 8.84088
619 2 29.0397 21.2491 34.4913
620 2 34.4616 50.0465 48.8005
621 2 27.0911 9.92085 39.072
622 2 44.481 30.8418 42.2236
623 2 27.0804 28.9497 49.4318
624 2 31.2577 9.87495 36.4831
625 2 52.8481 39.1948 34.637
626 2 24.1168 42.9156 36.4064
627 2 54.6792 11.5 23.2946
628 2 7.62744 15.5606 51.8205
629 2 17.7613 12.0869 13.0726
630 2 19.9163 42.5158 30.2378
631 2 52.0714 26.2414 38.5949
632 2 28.4047 32.0587 28.2583
633 2 9.46278 12.4931 33.9035
634 2 49.7985 45.7282 21.7431
635 2 28.3479 11.76 8.98955
636 2 49.2251 42.8348 55.7818
637 2 34.679 9.78078 18.0536
638 2 38.13 43.3266 28.3123
639 2 15.9139 43.3491 25.9893
640 2 33.8513 20.6731 16.3868
641 2 25.1857 34.2704 11.6216
642 2 35.4987 42.6413 51.8596
643 2 43.0238 20.6679 27.195
644 2 33.4279 17.9195 21.066
645 2 37.383 52.9601 18.1462
646 2 24.4319 27.8272 46.5956
647 2 20.3361 33.7749 13.5756
648 2 24.3969 53.8087 9.58971
649 2 10.954 23.1054 46.2096
650 2 46.291 53.0735 27.1616
651 2 11.1618 12.5281 43.8975
652 2 12.4879 11.7684 6.92349
653 2 44.7306 45.6968 14.0141
654 2 50.7421 16.3731 41.0069
655 2 8.24234 7.15817 12.4965
656 2 44.6518 54.6102 31.1999
657 2 43.6255 7.24514 39.296
658 2 50.0187 42.9469 36.9271
659 2 31.5758 54.3195 12.4461
660 2 10.8784 46.8783 28.1941
661 2 39.6842 37.123 29.2405
662 2 19.6483 6.89416 22.3816
663 2 7.02702 49.2248 29.2345
664 2 31.4792 15.178 27.1572
665 2 12.9334 30.3503 32.743
666 2 17.9731 19.3277 54.3667
667 2 36.7547 12.8639 26.1263
668 2 54.4484 53.0112 14.4443
669 2 45.4617 39.6804 41.6029
670 2 41.779 14.5666 39.2347
671 2 19.3674 8.23471 14.5337
672 2 13.8222 31.156 24.9538
673 2 24.6451 39.54 25.115
674 2 6.09303 17.1295 15.2551
675 2 38.0271 29.2983 48.326
676 2 35.2334 37.0085 47.7646
677 2 40.3356 16.7568 32.6829
678 2 48.3033 38.3855 38.3573
679 2 9.8901 38.7779 33.4738
680 2 24.3867 44.9098 51.0723
681 2 8.22709 37.4611 16.4745
682 2 44.7185 14.4532 45.0959
683 2 23.4604 10.9151 15.2312
684 2 18.0505 34.9936 48.4729
685 2 28.6393 47.8286 11.8453
686 2 51.8537 8.87225 30.0522
687 2 40.1375 53.6458 34.923
688 2 14.5471 41.0667 7.65289
689 2 46.7955 15.3042 51.8785
690 2 40.3951 30.3729 42.7048
691 2 24.4385 19.2667 46.402
692 2 24.9291 11.1713 22.4297
693 2 48.6969 42.8019 32.1217
694 2 55.0851 38.5233 16.9403
695 2 22.2493 48.8821 50.8833
696 2 35.3686 17.353 25.1578
697 2 49.7688 47.176 33.7598
698 2 45.6806 21.6674 11.5014
699 2 46.5592 25.4463 9.00227
700 2 49.0132 9.0344 43.284
701 2 6.40774 17.8855 12.5109
702 2 16.6187 39.4181 48.8941
703 2 48.1035 23.2156 25.6431
704 2 26.4635 43.0252 10.1435
705 2 52.936 11.8249 6.61373
706 2 22.8862 16.1092 13.5837
707 2 11.8434 42.9211 29.1861
708 2 15.1129 6.99749 29.9821
709 2 25.2114 30.2035 53.3112
710 2 51.051 52.9066 10.5552
711 2 17.6501 12.8569 33.2912
712 2 25.9084 44.5727 53.5119
713 2 33.0666 11.715 15.7065
714 2 13.0479 44.1649 21.6169
715 2 6.5558 45.1397 27.6982
716 2 32.5139 17.4423 54.1331
717 2 21.7787 38.2934 36.738
718 2 10.3528 55.5134 48.3118
719 2 19.6469 21.4999 50.516
720 2 37.0539 53.4992 39.906
721 2 52.9153 22.1317 34.1554
722 2 9.88922 23.0969 18.7104
723 2 12.9535 9.08863 11.8437
724 2 32.1556 33.952 32.5007
725 2 9.55138 11.9437 24.7225
726 2 48.7422 16.994 44.5873
727 2 17.8428 19.7456 34.5668
728 2 44.7672 32.7917 7.09125
729 2 40.8789 11.0201 27.5324
730 2 49.5283 46.0694 54.5545
731 2 28.1946 51.4477 33.5959
732 2 37.616 14.7596 8.587
733 2 32.1187 19.4213 31.6971
734 2 33.5011 51.7818 33.6468
735 2 10.8866 37.1633 54.9416
736 2 7.57028 31.2527 48.4661
737 2 22.1199 6.9614 46.3017
738 2 7.31347 21.0595 17.7052
739 2 38.0474 9.96894 51.7894
740 2 24.9571 16.825 16.1549
741 2 21.8946 32.9642 55.5555
742 2 7.08762 47.0913 39.9756
743 2 26.3142 30.5517 41.4749
744 2 25.7778 9.72972 36.4613
745 2 50.3555 24.5487 20.8578
746 2 14.2392 39.3378 23.2954
747 2 46.726 32.6751 43.2137
748 2 9.42195 47.059 44.3358
749 2 7.17276 43.7391 41.9081
750 2 30.3238 7.52784 38.1754
751 2 12.1352 18.296 39.3548
752 2 11.6003 19.6401 25.9207
753 2 47.5512 23.0718 7.65246
754 2 36.5316 19.1872 29.6106
755 2 13.2419 31.1714 28.0796
756 2 49.9474 16.2166 18.8029
757 2 9.70116 18.4307 37.1371
758 2 25.5328 43.4924 41.3146
759 2 53.8414 7.93432 8.64525
760 2 35.2338 38.2992 37.799
761 2 30.4941 8.59269 49.6293
762 2 20.4643 12.8199 25.5045
763 2 15.42 32.6541 29.5744
764 2 7.66505 35.055 54.9112
765 2 53.8703 53.8845 10.4596
766 2 15.8262 48.0069 19.494
767 2 41.9013 10.5842 11.7676
768 2 24.4746 6.56575 27.7269
769 2 43.7675 18.1364 15.9787
770 2 12.2366 41.5559 50.9618
771 2 10.4647 46.6713 24.9863
772 2 39.7382 19.294 24.5189
773 2 18.8118 32.1081 44.525
774 2 14.6013 44.9767 43.4498
775 2 53.0197 42.1007 43.6257
776 2 19.3594 24.5293 35.8683
777 2 24.6751 35.3036 8.48163
778 2 8.76573 44.2858 50.6138
779 2 53.3571 36.1779 33.9775
780 2 47.5623 13.7195 38.4614
781 2 52.9135 6.4873 28.2553
782 2 26.758 10.5383 25.2032
783 2 49.1859 54.2181 45.5126
784 2 7.55141 11.7779 17.1568
785 2 6.11489 29.5767 54.4452
786 2 25.882 15.9844 34.9507
787 2 8.32657 34.4648 8.70785
788 2 15.7473 42.604 15.1633
789 2 30.8053 44.1658 44.9579
790 2 46.4411 23.0642 36.5563
791 2 49.2544 35.9095 25.417
792 2 50.5308 31.2749 36.8462
793 2 52.0741 35.2969 46.5781
794 2 42.969 30.2671 10.2929
795 2 7.21071 33.9715 41.8272
796 2 51.9357 17.9534 23.2589
797 2 48.7947 13.1718 26.1978
798 2 17.5319 32.0282 54.3546
799 2 42.6339 27.5704 37.1637
800 2 33.8263 23.1356 27.0435
801 2 7.19867 21.2746 34.1918
802 2 44.9042 21.3613 29.4361
803 2 39.0704 7.5377 16.9404
804 2 12.8677 43.7964 54.3629
805 2 18.1868 19.7311 24.2705
806 2 29.9454 28.8256 28.2002
807 2 52.7404 26.1489 24.6122
808 2 6.97368 17.0948 27.8694
809 2 34.8858 41.4888 37.1983
810 2 33.8998 54.9621 36.5769
811 2 36.6753 46.6243 55.4974
812 2 10.618 41.9678 24.3505
813 2 32.2407 11.3551 23.4486
814 2 32.7474 51.3544 16.2878
815 2 32.2854 38.6198 14.7348
816 2 45.879 29.2648 48.9426
817 2 27.3127 10.8397 45.6363
818 2 15.5923 53.3928 11.3564
819 2 10.8958 6.41942 19.0673
820 2 29.9721 30.0653 15.9098
821 2 46.5324 51.1471 8.99395
822 2 19.1758 16.4956 45.8981
823 2 35.2973 36.4149 21.2399
824 2 48.256 49.3206 19.3545
825 2 9.45483 51.7476 42.1931
826 2 8.29778 25.0524 20.7269
827 2 27.7964 36.0133 26.2183
828 2 43.5045 6.84598 48.1894
829 2 16.9405 49.9432 15.9989
830 2 21.097 29.3662 8.45814
831 2 14.1918 6.40832 26.769
832 2 44.4912 41.8452 43.8514
833 2 34.1772 26.6488 32.8672
834 2 10.832 28.8773 46.097
835 2 16.5099 35.354 10.0551
836 2 42.8534 8.13151 33.5646
837 2 7.31153 49.8568 38.2519
838 2 22.7048 6.39376 11.1855
839 2 25.7615 38.8613 39.0591
840 2 54.7071 38.3112 31.7503
841 2 40.24 23.1989 45.7159
842 2 17.8314 24.0513 44.8476
843 2 16.1764 15.0187 52.7207
844 2 13.692 52.6262 24.4428
845 2 29.6339 32.5516 42.8897
846 2 36.3714 49.8598 6.12951
847 2 10.8306 39.8671 22.1712
848 2 36.2606 41.0931 47.1085
849 2 29.5222 26.0679 7.26894
850 2 23.438 24.5891 26.2005
851 2 53.6453 19.7079 24.324
852 2 27.9352 53.1662 6.38912
853 2 55.6773 40.0515 43.2659
854 2 24.5853 34.637 33.8447
855 2 46.3964 36.4521 28.6181
856 2 24.2295 22.4905 40.1772
857 2 25.3375 15.706 6.96566
858 2 38.5678 34.5769 46.8951
859 2 24.9472 30.9114 38.9431
860 2 43.0861 31.9708 39.5592
861 2 7.92524 44.0768 14.6214
862 2 27.1623 55.7814 23.3954
863 2 28.7327 8.23541 30.0802
864 2 40.8699 32.7697 53.6305
865 2 29.3057 25.8866 9.90489
866 2 25.9049 50.0909 42.6096
867 2 24.1437 26.0794 17.9182
868 2 48.6889 31.3648 19.8856
869 2 46.9404 24.8415 22.8749
870 2 30.821 12.0625 51.2961
871 2 20.5064 51.3787 39.9512
872 2 8.37926 28.1413 31.487
873 2 33.8325 15.7593 43.5114
874 2 14.9193 19.3341 38.4294
875 2 46.8365 31.8553 10.7799
876 2 8.25221 22.0051 43.5103
877 2 41.6584 40.5591 22.5157
878 2 42.0327 54.474 50.5859
879 2 33.771 45.8254 36.5308
880 2 32.4419 22.5909 34.5897
881 2 23.9702 29.6807 49.5128
882 2 39.4481 28.8147 54.4554
883 2 21.797 43.7077 55.0613
884 2 43.9149 41.5256 48.6321
885 2 35.573 42.4306 40.0567
886 2 31.138 8.85444 40.6514
887 2 10.9525 43.5223 14.4998
888 2 6.3123 19.7437 8.50037
889 2 54.3315 26.4662 16.6539
890 2 9.08055 48.7292 26.9404
891 2 11.6376 52.0808 34.3123
892 2 11.0012 37.4622 41.0143
893 2 8.37243 30.0079 45.3862
894 2 12.6933 22.419 22.2744
895 2 51.9459 33.553 34.7564
896 2 49.0061 27.9356 28.9364
897 2 39.8496 25.6459 13.2707
898 2 27.3829 35.2144 54.721
899 2 17.743 34.8092 41.3119
900 2 11.2371 44.5577 40.5155
901 2 17.7485 41.3988 34.6496
902 2 21.4586 54.031 38.2222
903 2 8.38283 42.2986 55.2365
904 2 40.6981 24.8227 25.7635
905 2 16.651 22.254 25.9108
906 2 32.2191 54.1819 49.0088
907 2 36.8357 39.3431 33.7099
908 2 55.2457 13.5091 6.37009
909 2 17.9267 11.8257 16.3194
910 2 46.2868 6.72244 43.593
911 2 44.9385 21.3276 7.1401
912 2 19.2958 51.5308 28.2383
913 2 40.8891 23.69 32.5422
914 2 47.2371 26.9146 15.4281
915 2 28.0439 41.1847 55.7036
916 2 30.0519 17.6612 42.7322
917 2 50.8665 9.31019 16.2852
918 2 24.182 55.834 50.1338
919 2 33.2797 26.4912 44.239
920 2 11.7001 53.4657 37.4166
921 2 40.3115 35.3585 31.5203
922 2 23.0606 48.5378 42.0908
923 2 8.28179 49.5101 20.174
924 2 7.13201 8.55048 51.2894
925 2 19.3045 18.3575 49.4969
926 2 6.23246 41.7638 13.8743
927 2 41.9992 45.0041 32.8692
928 2 43.8646 37.0385 29.7813
929 2 40.2102 8.13088 21.4277
930 2 40.9586 46.3384 16.1514
931 2 39.0106 37.9014 26.2143
932 2 31.3555 49.0972 55.5703
933 2 51.9102 28.531 45.1401
934 2 37.6074 6.21288 42.3926
935 2 40.7357 16.3249 37.0306
936 2 24.9075 31.3074 34.49
937 2 40.106 52.9842 55.159
938 2 27.4399 55.7751 7.73035
939 2 19.8791 48.1478 25.7239
940 2 35.6562 11.0027 42.7934
941 2 35.7174 49.1443 41.6833
942 2 17.548 30.4737 11.5167
943 2 39.2108 20.8419 50.4424
944 2 14.5402 8.49833 40.9926
945 2 44.0925 17.6659 13.1565
946 2 50.2195 12.667 30.7516
947 2 46.5024 39.387 31.8554
948 2 41.4606 33.2232 33.3809
949 2 34.502 54.1562 31.886
950 2 12.5486 23.3391 34.2666
951 2 41.8329 33.1377 17.7988
952 2 48.7261 18.144 24.9187
953 2 23.8951 32.7617 13.9728
954 2 36.8963 27.7131 22.7792
955 2 21.4731 42.686 38.2447
956 2 9.68259 53.5538 26.6449
957 2 45.3066 34.352 36.7774
958 2 47.7164 31.5901 34.0237
959 2 38.3299 29.7499 7.70026
960 2 47.4677 24.2832 42.0725
961 2 11.0418 19.9358 32.908
962 2 48.8299 20.4327 41.4558
963 2 37.604 36.1131 48.937
964 2 44.2037 29.9538 31.4075
965 2 43.3593 16.2379 32.517
966 2 24.6495 13.8077 33.1794
967 2 49.0092 10.6173 33.5082
968 2 51.2614 20.249 27.7821
969 2 33.3593 19.1975 10.8442
970 2 47.6564 6.57989 9.27467
971 2 16.9818 10.2415 26.9047
972 2 52.9756 16.8797 51.3441
973 2 13.203 14.9852 49.9731
974 2 44.2086 50.4624 16.3053
975 2 27.3485 25.4001 27.12
976 2 34.3258 7.37814 33.1939
977 2 33.8902 7.87499 10.1991
978 2 40.4367 20.1766 47.9975
979 2 34.9482 21.828 19.1366
980 2 36.273 45.8431 18.2491
981 2 7.85144 14.148 47.1832
982 2 30.202 11.746 16.7973
983 2 15.1131 42.1686 21.8199
984 2 30.7977 51.4802 31.3368
985 2 40.507 11.5125 44.5477
986 2 52.7894 52.299 24.7269
987 2 26.4853 52.6995 35.8968
988 2 27.7391 45.5301 44.7319
989 2 47.139 45.263 27.7846
990 2 34.2174 17.2219 47.0761
991 2 6.27202 51.6412 16.8083
992 2 49.158 40.6354 44.5637
993 2 7.70664 8.97085 39.6328
994 2 54.8885 51.2411 39.0127
995 2 22.6166 14.2355 24.1956
996 2 20.9364 8.58501 7.39936
997 2 42.8342 48.4292 14.6233
998 2 48.7639 9.15003 23.7284
999 2 47.4273 43.116 45.2738
1000 2 10.7157 45.9624 20.5352
1001 2 10.7532 31.7957 31.9669
1002 2 52.927 28.7574 10.2775
1003 2 42.9262 23.5089 44.2699
1004 2 24.5405 37.7625 23.0547