ITEM: TIMESTEP
0
ITEM: NUMBER OF ATOMS
9088
ITEM: BOX BOUNDS xy xz yz pp pp pp
6.0562150501370660e+00 5.5874722741910944e+01 -5.7157504809048492e-15
6.0562150501370713e+00 5.5874722741910944e+01 0.0000000000000000e+00
6.0562150501370713e+00 5.5874722741910944e+01 0.0000000000000000e+00
ITEM: ATOMS id type x y z
1 2 14.664 30.6078 14.1775
2 2 34.6088 17.4242 32.4096
3 2 20.8909 38.4298 22.8752
4 2 39.4653 21.6159 30.2676
5 2 41.2661 14.2742 29.6073
6 2 15.3147 7.18353 53.1201
7 2 45.269 17.9273 20.8783
8 2 6.9775 38.7583 17.914
9 2 35.0006 54.2036 29.9104
10 2 29.8689 45.7749 32.7699
11 2 8.81058 38.1774 26.5688
12 2 33.7409 7.5991 49.1428
13 2 41.3964 27.122 51.6387
14 2 27.5769 9.04257 32.2981
15 2 22.2097 38.5098 46.7238
16 2 16.7286 46.1197 53.8498
17 2 45.5841 16.3576 8.23023
18 2 11.5963 52.5374 33.4534
19 2 45.9633 11.7768 25.8848
20 2 47.1965 12.4112 17.1674
21 2 51.8326 48.246 44.9598
22 2 7.61742 52.2748 13.6459
23 2 53.5615 15.9408 7.19311
24 2 35.9748 20.4173 20.1957
25 2 20.2865 23.2387 48.9787
26 2 21.4235 37.9948 55.6814
27 2 10.893 30.4933 42.308
28 2 28.8398 24.2706 29.7818
29 2 48.9179 45.3643 8.81177
30 2 43.1507 40.5273 46.4499
31 2 17.286 27.3467 36.9677
32 2 39.9903 21.0568 21.9587
33 2 38.8714 41.1011 13.9552
34 2 16.9519 14.3194 10.766
35 2 9.97493 16.2149 39.2591
36 2 18.7848 32.1508 30.8912
37 2 16.3764 27.971 18.6807
38 2 51.2372 35.0889 46.9959
39 2 10.5461 39.765 28.194
40 2 54.4985 18.562 45.7074
41 2 28.4321 27.2835 13.2363
42 2 49.0244 34.9086 16.0173
43 2 46.2747 23.7284 19.5992
44 2 7.27814 12.0116 47.2293
45 2 52.2919 52.9471 36.0133
46 2 22.8448 40.6502 30.2011
47 2 45.9943 31.6466 8.18659
48 2 8.79481 53.6876 50.5778
49 2 6.67963 23.7753 29.5943
50 2 28.5399 50.8601 44.9421
51 2 55.4231 11.379 31.9138
52 2 53.4005 8.57905 39.4282
53 2 50.1941 14.7986 32.2616
54 2 21.998 33.912 46.2085
55 2 44.0905 51.5945 27.3897
56 2 26.7425 23.3396 35.2403
57 2 29.4511 10.1902 20.4164
58 2 30.1253 15.5612 27.6318
59 2 44.0465 24.6238 25.7188
60 2 29.7294 7.55559 40.0031
61 2 11.4647 11.0378 54.5412
62 2 53.328 18.3267 15.3992
63 2 31.6657 19.0249 36.9601
64 2 46.3641 16.0811 25.0976
65 2 20.4142 8.56483 22.7134
66 2 19.8625 41.5022 50.4976
67 2 37.9435 26.7819 41.9705
68 2 28.9672 49.0316 26.1807
69 2 6.35299 21.7366 51.62
70 2 35.47 19.989 29.9979
71 2 46.287 17.6225 55.8137
72 2 13.4883 15.8966 24.0062
73 2 31.3045 19.3433 41.4143
74 2 54.7513 27.1154 45.8022
75 2 31.7137 42.0755 52.9795
76 2 31.8763 21.9092 41.0791
77 2 8.15355 42.3562 50.862
78 2 20.8764 53.6601 26.6377
79 2 26.9913 38.5012 51.9803
80 2 14.6935 32.7724 32.6024
81 2 13.1912 20.8655 48.0258
82 2 47.838 38.2314 21.6678
83 2 49.4226 15.8002 48.3423
84 2 21.4549 15.9982 35.0465
85 2 13.846 20.4879 14.3273
86 2 11.4 18.3311 53.8731
87 2 53.4361 14.6542 32.2617
88 2 42.2857 49.472 36.5346
89 2 32.9396 27.6032 12.7835
90 2 55.2127 51.4794 44.0611
91 2 14.0568 39.4366 14.1028
92 2 48.7778 44.1218 49.9904
93 2 32.13 35.4738 54.2577
94 2 24.2221 24.5519 29.233
95 2 18.8275 41.0384 19.2986
96 2 35.5192 29.4647 52.9742
97 2 18.3624 17.8363 31.8796
98 2 49.4029 53.6149 22.7244
99 2 51.9897 39.0893 50.5816
100 2 34.6414 50.4908 47.3149
101 2 8.17023 10.6331 31.3603
102 2 25.6465 33.2801 38.5072
103 2 36.3377 6.83207 24.3714
104 2 49.406 16.6073 15.0031
105 2 40.9413 7.95165 43.9181
106 2 29.3696 25.111 50.5683
107 2 19.3884 34.4548 40.5393
108 2 8.37998 28.922 23.0322
109 2 42.3702 44.0325 24.9699
110 2 50.5338 10.2838 31.5843
111 2 44.969 48.5928 30.2368
112 2 9.57901 6.38954 33.4639
113 2 19.6203 26.59 27.2118
114 2 10.6135 36.4409 50.8509
115 2 15.9687 34.3588 48.7927
116 2 14.4517 39.2687 21.6819
117 2 53.7838 54.9006 16.1754
118 2 6.07424 22.5404 36.5567
119 2 36.3224 39.4067 25.6179
120 2 47.8312 17.4604 45.8244
121 2 37.7361 52.2483 17.476
122 2 53.3477 36.0818 31.326
123 2 17.1825 41.5299 47.1512
124 2 54.7985 19.6841 32.4388
125 2 37.611 55.8406 37.9174
126 2 13.0074 35.4133 24.3299
127 2 40.5391 51.2795 14.438
128 2 25.7904 23.5697 7.72976
129 2 6.12432 13.979 38.2162
130 2 21.8789 10.2272 20.4013
131 2 32.5432 49.0942 39.1298
132 2 55.0325 38.2443 30.9697
133 2 11.0952 25.4604 37.4036
134 2 49.8412 21.3271 16.6506
135 2 55.7676 33.8506 19.2051
136 2 27.4344 40.7525 42.6984
137 2 45.3834 24.7726 52.3011
138 2 22.7559 50.4457 54.7772
139 2 31.5798 49.4771 11.1959
140 2 42.6412 16.0821 44.9065
141 2 19.6394 16.8388 52.4019
142 2 51.1222 41.5232 22.0828
143 2 23.901 54.1275 21.8749
144 2 42.4253 47.6849 8.61612
145 2 15.3607 54.6884 47.3619
146 2 48.6397 42.7405 23.5131
147 2 10.0393 24.8089 9.08263
148 2 47.8836 8.19432 25.84
149 2 55.718 53.2137 29.4075
150 2 46.3069 22.2334 14.0276
151 2 42.2156 26.6964 35.8215
152 2 43.7399 42.325 53.1824
153 2 45.0285 29.9301 32.6944
154 2 13.719 6.43823 14.0029
155 2 11.3956 44.0317 43.4848
156 2 6.74301 35.5 36.4229
157 2 6.97633 39.1743 50.6068
158 2 25.3969 22.6938 50.6706
159 2 47.4748 42.5599 8.87909
160 2 53.7579 51.6836 33.5846
161 2 54.9082 15.5445 24.6955
162 2 17.238 50.95 40.7073
163 2 19.5917 54.02 12.9853
164 2 10.3411 37.4241 15.2603
165 2 6.11998 12.7471 9.14249
166 2 54.3611 21.5157 28.2898
167 2 50.0537 31.2263 28.6203
168 2 33.7598 43.8827 22.7941
169 2 11.3399 20.7646 45.6317
170 2 39.7656 19.2428 45.6672
171 2 47.8098 39.6784 24.8209
172 2 42.82 12.722 23.0002
173 2 38.0566 8.70629 10.2609
174 2 40.3948 51.0822 24.5577
175 2 41.2877 19.3745 42.5692
176 2 22.1146 6.08903 17.4217
177 2 24.3537 34.1578 27.5559
178 2 55.4091 26.282 8.23324
179 2 44.1964 36.1969 10.7154
180 2 39.5049 31.4763 52.787
181 2 34.6837 9.99007 13.2141
182 2 15.977 19.4771 47.2127
183 2 24.1559 29.1356 46.7613
184 2 33.3961 16.5782 44.177
185 2 11.3979 9.92808 20.2229
186 2 28.2704 51.4845 28.4471
187 2 12.3277 28.2607 10.4332
188 2 25.9899 27.087 15.6062
189 2 29.7873 33.6875 51.5248
190 2 9.88102 14.9278 25.6246
191 2 49.6923 37.5714 40.2963
192 2 12.6124 45.5399 34.151
193 2 30.065 21.1666 12.4293
194 2 16.5213 43.9526 49.295
195 2 29.5127 11.2121 53.5766
196 2 6.50033 47.3792 46.1208
197 2 41.1117 47.483 28.979
198 2 19.2863 8.06403 37.7285
199 2 16.4972 18.2961 37.8754
200 2 32.6606 31.0443 53.7688
201 2 36.4115 20.8213 37.0788
202 2 52.5113 10.7553 8.90694
203 2 48.467 22.4511 44.2668
204 2 12.7273 40.3056 45.5959
205 2 47.0042 49.3604 17.306
206 2 19.921 54.7756 34.5008
207 2 33.9262 37.4736 14.4802
208 2 44.0444 36.5663 44.8591
209 2 33.615 29.349 24.7766
210 2 38.1995 54.7478 33.6756
211 2 22.1524 15.4421 23.6927
212 2 16.9764 33.1283 51.3598
213 2 36.9155 40.8619 16.1768
214 2 37.4728 8.8646 27.2629
215 2 35.7703 24.1933 38.7745
216 2 24.5498 20.0925 36.0317
217 2 30.949 53.1083 7.3079
218 2 47.6948 17.1962 35.7655
219 2 32.1936 14.0028 42.3948
220 2 49.0368 15.585 43.2833
221 2 46.2974 23.9864 42.0515
222 2 21.7259 48.7834 34.6455
223 2 7.70965 48.9294 31.4809
224 2 43.7561 25.9765 21.6747
225 2 48.8311 32.6254 12.9776
226 2 19.67 41.543 33.4056
227 2 24.5298 43.3158 40.796
228 2 55.5921 38.0104 12.4993
229 2 6.44036 54.7389 53.3834
230 2 55.1727 13.6622 45.791
231 2 23.2953 18.4804 32.1511
232 2 9.61096 23.0596 33.3184
233 2 22.5099 35.2983 33.8344
234 2 42.4779 39.6275 54.549
235 2 27.5495 37.3195 9.49616
236 2 8.88722 42.1604 34.9647
237 2 48.4694 28.412 52.6431
238 2 19.2927 34.212 27.0616
239 2 46.8024 20.4652 16.4997
240 2 34.6645 47.4012 53.6233
241 2 6.79877 34.0753 11.7587
242 2 55.7791 43.9501 31.7862
243 2 49.2271 51.4968 18.303
244 2 46.1149 25.5144 27.2981
245 2 23.3478 23.9389 47.8926
246 2 46.1942 13.65 49.6213
247 2 29.4376 10.1289 36.5475
248 2 31.1215 24.1931 9.00243
249 2 23.0413 30.4365 40.4082
250 2 30.9326 53.9876 17.8322
251 2 54.0892 13.2006 36.1145
252 2 33.3586 6.53108 54.3655
253 2 41.506 32.7635 24.1102
254 2 40.6097 12.9796 53.2412
255 2 8.41628 33.0228 36.7096
256 2 41.2492 16.5645 22.0621
257 2 45.1893 53.2584 54.5853
258 2 45.7101 29.1816 6.28245
259 2 30.0467 20.1293 29.6234
260 2 12.9815 33.94 14.7465
261 2 35.0723 31.2587 38.2456
262 2 26.118 51.0094 18.7572
263 2 48.3052 32.0769 20.4008
264 2 33.2833 6.89444 28.9594
265 2 55.1928 32.8262 23.2987
266 2 36.3141 51.986 55.0074
267 2 32.6479 41.3907 15.4365
268 2 37.5673 28.0899 20.6629
269 2 52.5785 54.0007 33.3828
270 2 13.7585 46.6614 11.9987
271 2 40.942 48.4192 10.8306
272 2 35.644 13.7506 45.9275
273 2 7.87607 36.1283 13.7075
274 2 13.7481 33.6103 40.5751
275 2 29.0739 50.0064 12.0804
276 2 41.3425 21.5342 47.6606
277 2 23.8266 33.12 40.9496
278 2 41.6616 17.3402 33.0548
279 2 29.4244 38.0521 16.1206
280 2 12.6563 11.3955 39.925
281 2 9.10532 12.4896 37.7387
282 2 8.45101 14.6126 47.7925
283 2 12.8787 19.7582 25.8178
284 2 43.1235 46.9856 54.094
285 2 24.9042 41.8352 49.9472
286 2 50.8079 10.0367 38.3393
287 2 33.9488 17.5748 24.1595
288 2 31.9196 21.0031 26.9541
289 2 51.5678 7.76196 13.0989
290 2 34.0134 18.337 20.948
291 2 46.3407 47.9319 44.1025
292 2 36.2089 43.6212 28.1923
293 2 52.9821 55.4796 38.42
294 2 40.3638 21.4323 39.3647
295 2 16.2351 12.5851 17.5418
296 2 48.618 47.2453 35.7526
297 2 11.8835 42.7343 35.4569
298 2 33.7355 9.60166 38.1178
299 2 13.4211 38.7053 48.7723
300 2 23.1238 51.8358 15.6583
301 2 20.5012 38.0177 19.5632
302 2 28.9952 49.9606 54.7933
303 2 54.2897 7.89175 9.33002
304 2 12.334 8.88222 52.8753
305 2 9.89595 46.9655 42.6721
306 2 25.9969 28.7704 13.0701
307 2 6.92888 9.94847 53.455
308 2 50.9024 40.5509 53.1989
309 2 19.0189 45.0029 50.2976
310 2 39.1426 55.1843 22.7775
311 2 45.1387 19.431 38.6936
312 2 26.7477 55.0453 43.7456
313 2 9.59805 38.7207 34.8231
314 2 21.5743 46.3381 22.4918
315 2 34.7603 29.9693 43.5712
316 2 29.8405 43.2823 39.5106
317 2 24.2208 55.1857 38.1697
318 2 47.2348 48.2341 48.9822
319 2 36.0363 33.4704 6.15405
320 2 33.245 17.8087 52.234
321 2 27.8367 53.9868 26.6415
322 2 43.4935 25.2406 13.0675
323 2 28.45 13.5194 26.7799
324 2 24.2002 44.588 44.2271
325 2 7.34037 36.231 53.4139
326 2 50.9103 39.597 46.1257
327 2 16.5119 44.8653 8.30825
328 2 50.6094 34.7688 41.9478
329 2 22.284 49.1395 49.1341
330 2 17.1764 36.7873 41.2901
331 2 32.8113 8.82666 42.8121
332 2 26.7717 53.9328 34.0479
333 2 44.5121 27.2214 54.08
334 2 47.9972 10.2469 8.32845
335 2 26.0788 48.6733 54.6665
336 2 10.3701 44.1657 52.2464
337 2 54.2767 20.663 17.0679
338 2 37.8818 13.9306 23.8053
339 2 17.0561 9.11709 42.0492
340 2 37.8635 29.3725 54.8554
341 2 44.0716 52.3727 18.1466
342 2 25.6874 43.77 6.3629
343 2 25.7921 16.1198 34.582
344 2 40.2178 46.0512 54.9931
345 2 46.571 52.6973 29.7583
346 2 38.4035 52.3131 22.6547
347 2 38.8079 21.158 16.4717
348 2 24.6038 32.0008 15.987
349 2 53.8231 39.4201 21.8784
350 2 17.2168 54.7052 17.3279
351 2 32.8898 42.3005 24.7802
352 2 9.6074 45.448 8.02187
353 2 7.32162 26.8161 25.4486
354 2 26.6366 7.54157 22.3355
355 2 52.0557 28.2587 46.8292
356 2 23.3233 24.4586 20.108
357 2 11.0363 33.3827 18.0646
358 2 32.5665 18.4897 18.4524
359 2 45.1595 16.0361 10.9859
360 2 46.8176 28.9594 30.3658
361 2 27.1701 48.5196 10.1437
362 2 55.0213 44.3478 29.2638
363 2 22.8415 54.4226 40.8588
364 2 51.2982 28.2208 41.5931
365 2 52.1333 54.3176 53.6626
366 2 46.6098 36.8293 9.11421
367 2 30.0714 26.72 28.1598
368 2 50.2358 22.7271 53.9481
369 2 55.6674 25.372 55.3237
370 2 39.7306 7.3471 34.4808
371 2 45.0135 25.7476 35.2811
372 2 40.8381 42.5546 42.2709
373 2 52.7263 30.9694 51.5074
374 2 19.7098 27.0696 10.4119
375 2 10.5999 13.1978 28.3357
376 2 10.835 50.6569 44.6102
377 2 46.2127 41.1701 27.1897
378 2 7.27981 24.2375 11.6434
379 2 50.61 15.5581 55.8152
380 2 36.087 30.1567 50.0298
381 2 43.4844 39.9889 38.0773
382 2 48.2909 17.4229 22.7151
383 2 38.5465 51.7378 36.3627
384 2 51.1963 25.2597 7.52466
385 2 40.7112 19.6447 28.8164
386 2 22.1184 29.8682 14.3395
387 2 26.76 24.3771 14.653
388 2 42.3306 55.1311 40.0265
389 2 42.8231 19.8379 32.978
390 2 43.1705 30.4482 18.9129
391 2 44.5411 24.0082 39.5874
392 2 34.1003 21.6744 14.5489
393 2 26.47 36.5781 44.1422
394 2 49.8044 25.9335 33.6304
395 2 13.2535 44.2035 40.8855
396 2 21.2877 49.8775 31.6516
397 2 42.3586 49.4059 39.9626
398 2 10.5466 25.888 14.2778
399 2 15.5916 19.3291 10.0338
400 2 47.688 33.6152 40.8697
401 2 43.154 7.76112 22.7634
402 2 29.0046 47.8504 13.524
403 2 38.1711 22.474 42.4723
404 2 54.8791 43.8735 37.9796
405 2 51.2796 39.807 28.0335
406 2 10.0598 20.5936 29.5922
407 2 13.6615 30.5484 48.8598
408 2 14.4921 41.8495 34.5946
409 2 28.9172 26.993 38.4034
410 2 34.1142 54.5529 13.5111
411 2 49.6087 34.395 51.8015
412 2 8.75432 13.1818 42.3716
413 2 40.1956 27.3961 48.7306
414 2 27.5194 17.6531 10.8833
415 2 36.2207 6.24442 11.1884
416 2 27.3273 6.71371 28.5184
417 2 45.3915 51.484 20.6563
418 2 46.5462 36.3237 32.1098
419 2 18.7233 9.2656 6.67096
420 2 49.1054 46.9215 26.0685
421 2 55.7576 31.1062 12.6832
422 2 19.2957 25.6485 50.3582
423 2 22.0077 43.8922 46.4738
424 2 31.6416 28.9364 50.8061
425 2 41.3554 14.8138 36.2437
426 2 51.0776 48.0366 23.9752
427 2 9.96292 42.9091 15.6943
428 2 43.1532 45.3758 17.3033
429 2 53.2929 43.4831 43.988
430 2 25.3562 19.3702 14.5891
431 2 54.6504 33.9815 39.4487
432 2 52.8889 11.9763 17.8323
433 2 53.4192 42.029 24.4203
434 2 41.4708 11.5609 30.8353
435 2 8.20911 7.09217 53.5929
436 2 39.3702 32.1038 21.2074
437 2 53.1701 36.7326 51.642
438 2 20.6787 22.3292 14.1674
439 2 45.808 14.6642 29.9183
440 2 36.3886 53.1044 27.2038
441 2 12.0349 55.7807 39.2983
442 2 23.5149 39.5379 43.9812
443 2 33.2952 53.2622 55.291
444 2 8.34938 19.4203 23.84
445 2 28.7293 32.4806 15.0391
446 2 35.8001 32.7 31.8871
447 2 6.56988 50.4049 47.7753
448 2 46.5188 38.3118 43.932
449 2 9.42564 54.5143 16.6254
450 2 52.6421 24.9241 54.1155
451 2 35.7074 21.8217 17.4466
452 2 24.4921 10.2683 8.65099
453 2 50.0351 52.4098 52.911
454 2 19.9918 41.7956 26.6367
455 2 27.6677 32.8447 26.5525
456 2 54.8671 54.3403 34.3942
457 2 51.9244 32.2486 41.7836
458 2 22.2801 54.5293 24.5253
459 2 30.553 40.1423 32.0753
460 2 36.5086 52.7641 14.3589
461 2 12.3236 54.8293 36.4151
462 2 50.1389 22.4467 46.9118
463 2 30.8016 52.251 22.9939
464 2 10.3503 6.34901 28.5488
465 2 32.4653 33.0339 12.4153
466 2 13.642 24.7039 36.3715
467 2 47.7435 50.4612 44.8658
468 2 19.1928 36.038 24.2598
469 2 33.5207 39.2473 24.6461
470 2 23.4602 33.8259 36.2228
471 2 18.3949 36.7957 32.9136
472 2 16.8401 6.61736 37.3973
473 2 29.058 47.7232 7.49062
474 2 46.5771 7.61328 45.4757
475 2 17.8755 12.1721 22.7047
476 2 43.8723 8.17797 44.0572
477 2 13.1669 18.8504 43.9322
478 2 52.3921 17.5784 46.8754
479 2 16.1464 38.7998 50.0666
480 2 50.9152 47.3083 7.68264
481 2 48.6655 13.2046 7.62237
482 2 8.00196 51.1883 43.6036
483 2 35.9103 8.24625 42.7904
484 2 25.6898 48.252 30.7202
485 2 46.992 43.8811 32.4294
486 2 24.7721 20.6516 25.0305
487 2 9.78702 39.4359 19.5063
488 2 36.997 44.1039 51.8099
489 2 38.1702 15.2199 32.7397
490 2 13.1068 22.839 38.761
491 2 15.1533 14.604 31.5178
492 2 15.133 53.3856 12.9463
493 2 21.3208 9.30805 17.3735
494 2 30.0284 40.9183 28.3091
495 2 43.3844 38.8009 17.289
496 2 25.7431 42.0426 46.606
497 2 33.4725 6.19024 25.8992
498 2 47.8673 33.471 35.4685
499 2 32.9466 30.0228 15.1931
500 2 38.1901 46.7974 10.2911
501 2 45.289 10.416 45.3945
502 2 12.2212 25.2301 52.6515
503 2 51.429 35.8783 19.7262
504 2 55.4986 54.9517 37.1861
505 2 53.571 6.8765 33.0476
506 2 45.549 45.2264 11.8201
507 2 49.8943 45.7381 43.8005
508 2 30.8164 21.2274 22.4751
509 2 46.7113 21.9947 23.5452
510 2 22.5633 49.3179 17.0866
511 2 7.25987 24.8056 52.2004
512 2 26.7003 42.917 38.6749
513 2 6.99011 42.4876 18.9073
514 2 29.5334 54.8327 29.2046
515 2 14.5335 17.044 50.9273
516 2 21.5817 7.56703 47.1852
517 2 10.1375 9.47573 41.0453
518 2 8.64737 18.3886 43.1094
519 2 13.8201 36.1252 52.9899
520 2 25.051 55.0377 8.13853
521 2 38.8822 25.4881 18.6348
522 2 12.3846 33.3567 9.89477
523 2 53.4772 33.1463 35.1747
524 2 20.2871 38.9008 30.7354
525 2 26.8969 36.5463 41.4171
526 2 10.3279 50.0666 17.8525
527 2 27.7873 13.3751 30.9382
528 2 43.8993 13.0533 42.5884
529 2 18.4562 21.2598 50.7234
530 2 23.8897 28.4364 49.8601
531 2 45.6571 6.34422 30.3701
532 2 14.0006 48.9295 15.7927
533 2 55.4054 37.0339 23.3785
534 2 52.0184 18.9361 31.86
535 2 37.7869 26.9485 34.5206
536 2 31.3589 9.58976 7.91076
537 2 41.3532 40.916 7.38514
538 2 53.7027 35.6617 8.01705
539 2 39.2673 36.836 10.1098
540 2 22.4799 18.1044 15.2327
541 2 34.2166 40.2555 50.0758
542 2 55.745 20.8141 47.3009
543 2 15.9251 21.3572 31.1815
544 2 8.1581 41.4488 21.9135
545 2 52.4031 29.6613 55.6304
546 2 7.14478 11.9483 40.0889
547 2 45.1596 16.6977 41.8713
548 2 33.1316 11.0821 33.9786
549 2 31.8756 50.3375 31.7419
550 2 24.5234 39.2724 36.2561
551 2 43.6244 42.7625 21.0327
552 2 20.973 39.1642 8.4386
553 2 48.2373 24.0554 35.7746
554 2 43.1139 21.4223 14.9538
555 2 15.3456 19.6488 27.6355
556 2 52.9377 9.71554 29.7639
557 2 43.0371 31.3256 30.1884
558 2 38.8375 34.3149 25.0243
559 2 18.6702 19.5487 11.3811
560 2 54.7618 48.2444 15.9691
561 2 37.6487 27.9553 37.2843
562 2 42.911 27.2485 29.3331
563 2 8.65731 7.6055 6.9522
564 2 10.2043 34.1254 20.9956
565 2 30.7297 12.0894 24.8078
566 2 24.3914 47.9186 13.2784
567 2 48.2142 8.45878 34.7274
568 2 17.43 14.4159 35.9725
569 2 28.8373 39.656 11.1178
570 2 21.9535 35.5576 30.6366
571 2 38.4442 26.7979 23.4946
572 2 32.6061 13.7686 18.2147
573 2 14.6435 25.2577 9.45107
574 2 12.7138 14.871 9.97538
575 2 8.74624 31.6835 17.0419
576 2 7.01551 16.4757 28.7676
577 2 9.83105 25.8365 45.8034
578 2 46.7452 21.4624 52.473
579 2 52.7098 44.0792 10.9819
580 2 46.3084 19.0295 31.5387
581 2 48.5537 30.5616 23.9429
582 2 22.2245 12.5951 16.6407
583 2 40.291 26.1479 54.0499
584 2 28.4746 42.097 35.2477
585 2 23.0861 25.8412 23.0997
586 2 44.4118 50.9611 6.20808
587 2 30.853 10.8235 14.9294
588 2 11.3872 12.4065 25.3652
589 2 15.7933 53.818 20.2583
590 2 19.5038 45.6777 31.3946
591 2 24.1225 17.8689 38.592
592 2 33.7747 40.6042 39.5069
593 2 50.6957 10.0289 11.0073
594 2 13.5596 34.3958 19.8752
595 2 24.3281 29.0114 33.8382
596 2 19.6326 45.0346 47.4833
597 2 16.6275 16.9915 11.0593
598 2 14.0469 39.4148 29.9062
599 2 16.7776 33.0207 8.70427
600 2 44.4075 20.0962 23.2708
601 2 19.7591 9.75528 53.673
602 2 24.5795 36.8334 20.6964
603 2 9.49539 23.7406 48.4645
604 2 27.1849 27.6065 21.5547
605 2 38.0528 55.6649 43.6227
606 2 52.233 54.2277 42.6799
607 2 17.0725 9.67497 52.6245
608 2 35.7518 44.6294 13.6907
609 2 23.7134 35.353 49.3635
610 2 7.20878 28.9529 47.6237
611 2 29.2682 49.3171 33.1901
612 2 47.0317 25.0634 8.318
613 2 46.1361 12.7249 55.022
614 2 28.2393 35.9563 24.0363
615 2 47.3062 51.1417 52.6024
616 2 39.0155 37.9809 14.311
617 2 38.7501 42.9826 23.0654
618 2 42.9891 38.0522 20.5007
619 2 8.00709 42.5042 46.2257
620 2 12.8974 21.1556 10.2915
621 2 7.88562 31.0927 50.6849
622 2 25.5351 51.505 51.2163
623 2 6.35812 50.2912 11.4072
624 2 10.472 31.5091 48.9376
625 2 32.1011 10.8764 46.1754
626 2 53.1341 13.7087 48.6321
627 2 33.8074 32.1276 34.9961
628 2 37.6298 35.3697 12.4732
629 2 47.5343 33.1029 24.5451
630 2 46.8292 14.2137 42.1636
631 2 31.1594 47.7069 50.7437
632 2 8.22527 53 40.1709
633 2 37.5047 33.0915 45.9621
634 2 29.8212 17.3423 33.4574
635 2 7.38805 32.6357 21.1557
636 2 29.0432 14.2724 18.1496
637 2 13.5958 30.735 30.0868
638 2 17.0895 14.3897 40.6871
639 2 43.2633 12.516 39.6345
640 2 13.2083 42.7999 27.015
641 2 54.3253 54.4153 22.396
642 2 14.9698 13.0748 13.2186
643 2 24.4332 41.2983 38.5917
644 2 10.3065 38.8395 31.6363
645 2 17.3533 25.7065 29.0693
646 2 53.5224 48.9432 8.67467
647 2 50.1162 54.7335 25.2727
648 2 53.1275 25.2692 20.4741
649 2 39.3414 44.6437 8.03257
650 2 26.2745 25.3099 39.466
651 2 39.0719 33.1456 6.60014
652 2 41.3409 32.6643 19.2093
653 2 24.222 16.7628 25.7899
654 2 31.0909 38.9218 53.144
655 2 37.9557 26.2725 29.0188
656 2 23.5592 28.7729 44.1957
657 2 27.5613 30.8698 48.831
658 2 29.1755 13.594 49.0655
659 2 10.9258 25.9517 24.4811
660 2 41.6248 17.058 40.5097
661 2 21.4246 9.66153 40.737
662 2 48.923 28.6891 34.4119
663 2 34.3237 18.3493 40.8581
664 2 11.1945 35.9202 39.1698
665 2 42.1197 51.4285 44.2137
666 2 44.9762 43.232 15.968
667 2 15.869 33.9404 37.9608
668 2 30.5742 23.8048 27.0373
669 2 25.0816 10.556 53.2916
670 2 20.8282 35.2895 50.909
671 2 49.6833 28.6699 26.9116
672 2 39.9759 53.658 38.2245
673 2 53.6407 10.4691 37.3218
674 2 36.1882 39.0232 28.5172
675 2 15.983 51.6826 8.50187
676 2 15.0589 7.78637 9.65638
677 2 27.9789 35.1448 46.0096
678 2 24.0315 9.92494 48.964
679 2 39.4792 10.474 44.925
680 2 53.6563 15.9396 12.3342
681 2 41.8361 55.7149 26.5184
682 2 23.5539 35.3756 6.63236
683 2 53.4293 27.9794 27.1073
684 2 47.3822 54.9004 8.33805
685 2 11.5774 18.3469 23.242
686 2 30.301 34.0572 43.9606
687 2 20.4966 26.1391 47.4902
688 2 43.7356 12.052 19.9512
689 2 27.3271 37.774 13.9411
690 2 17.3163 51.0794 55.4944
691 2 54.1922 39.7545 8.55304
692 2 53.4471 27.7019 33.8386
693 2 28.9558 14.172 43.9465
694 2 34.8318 9.72748 28.5187
695 2 53.5454 23.0518 10.6994
696 2 14.7666 38.1416 36.9347
697 2 29.4567 19.3046 45.3235
698 2 25.026 42.7897 22.9299
699 2 23.9768 47.8886 23.2346
700 2 28.2623 29.9154 7.64613
701 2 38.2717 38.3057 23.8
702 2 45.6034 10.2213 10.5764
703 2 27.4268 45.1232 43.8105
704 2 55.6154 14.2859 21.6911
705 2 32.9332 34.6474 16.3719
706 2 53.4101 38.1448 26.5569
707 2 40.8481 13.7115 41.2169
708 2 44.1785 28.1159 41.6789
709 2 54.1676 51.051 15.1366
710 2 30.213 23.917 22.5719
711 2 47.1087 33.2452 45.3254
712 2 51.4396 17.6244 13.2342
713 2 55.0939 34.3755 32.4693
714 2 42.1495 14.1346 32.3751
715 2 37.1973 18.0003 37.3195
716 2 11.6992 40.5036 17.1283
717 2 53.0946 9.74649 49.1024
718 2 38.7262 26.8284 12.1601
719 2 48.7432 42.8478 12.4683
720 2 16.6444 25.0247 51.1126
721 2 33.2215 45.8039 45.914
722 2 38.064 41.9685 30.5446
723 2 42.6359 28.4057 23.1552
724 2 11.1819 54.8821 44.0781
725 2 38.7035 32.607 36.3204
726 2 27.5779 37.5598 6.37853
727 2 46.717 40.7039 45.8212
728 2 24.4234 53.604 18.917
729 2 20.3667 31.8523 39.4667
730 2 29.1799 17.6416 16.4564
731 2 7.59687 22.4472 45.7773
732 2 17.4226 36.5511 20.171
733 2 11.2856 40.8636 43.1159
734 2 13.2639 22.8866 45.7208
735 2 39.6652 6.26887 16.0359
736 2 37.3483 53.6836 9.57648
737 2 6.46725 29.486 54.3388
738 2 33.8027 42.8384 30.2525
739 2 17.6111 30.6303 12.8944
740 2 52.3338 35.1252 27.0024
741 2 51.0791 53.8098 16.9799
742 2 36.2874 18.3865 51.635
743 2 55.6166 51.6028 53.3554
744 2 54.8944 30.9446 48.974
745 2 31.2859 44.3698 31.0613
746 2 43.4864 10.5707 35.1683
747 2 24.4206 53.1022 54.8876
748 2 38.5778 18.0304 6.28155
749 2 35.9995 17.0251 54.6822
750 2 10.1365 28.712 50.8059
751 2 41.4337 39.8315 51.0069
752 2 40.6186 41.1004 37.9778
753 2 27.0946 43.5195 18.5717
754 2 19.8295 38.6539 42.2391
755 2 42.3426 52.2411 39.4936
756 2 29.4837 36.5633 30.9952
757 2 39.1617 40.5616 48.5336
758 2 54.7721 14.5528 53.3735
759 2 31.3644 31.6004 18.6815
760 2 13.2809 11.0357 50.0753
761 2 55.2844 26.7587 13.5058
762 2 49.8754 33.964 37.5303
763 2 44.7452 53.4551 41.1937
764 2 37.9195 7.8283 14.9135
765 2 33.8926 26.8988 22.8006
766 2 43.7989 20.7244 28.4694
767 2 21.5447 31.1142 24.0125
768 2 53.942 27.6819 39.4821
769 2 21.2779 38.8438 27.7435
770 2 41.5257 12.8879 12.949
771 2 40.2961 19.296 37.0475
772 2 19.2656 40.0735 36.0372
773 2 47.7357 52.8041 6.64037
774 2 43.735 16.408 54.7997
775 2 32.4534 13.6184 55.4111
776 2 50.1194 46.8145 48.6988
777 2 53.6718 6.24836 19.9456
778 2 37.756 15.8305 12.8054
779 2 30.4261 6.85335 48.6653
780 2 28.2706 34.4959 49.3164
781 2 31.8224 27.0037 41.2126
782 2 55.2959 30.2194 38.4575
783 2 28.5576 25.4165 6.83481
784 2 36.6581 32.998 28.9217
785 2 36.2484 50.2499 18.8964
786 2 53.9051 38.6341 46.5353
787 2 36.6501 6.73698 17.1562
788 2 43.2508 13.6821 27.2293
789 2 9.88436 15.5168 6.96094
790 2 25.7248 44.3961 48.7556
791 2 28.6513 7.22583 37.0333
792 2 30.5541 52.5131 49.0943
793 2 31.771 6.96946 8.80803
794 2 22.2728 51.4565 22.1232
795 2 36.2191 55.3072 53.3625
796 2 31.1334 38.5909 35.0314
797 2 25.7988 37.0764 38.4013
798 2 46.7762 53.2836 16.2255
799 2 21.6234 48.6272 46.5429
800 2 15.5584 42.3611 37.3314
801 2 35.9615 41.592 45.7557
802 2 30.2446 39.4108 39.067
803 2 22.3172 27.7885 26.3557
804 2 43.246 14.5053 17.9021
805 2 47.1863 40.8117 36.1477
806 2 10.1779 49.3099 39.9637
807 2 32.1227 47.0281 36.7643
808 2 35.9758 38.5157 39.4687
809 2 15.5905 9.90656 49.0606
810 2 13.1415 26.1163 48.6816
811 2 17.4164 17.2654 15.8751
812 2 39.3248 12.7567 34.8716
813 2 10.621 31.5718 35.3862
814 2 12.3209 22.7934 28.7807
815 2 15.4478 54.1328 25.6001
816 2 25.5472 51.3863 13.5823
817 2 9.06219 31.2033 54.0713
818 2 47.9261 27.9505 23.1165
819 2 40.1564 27.7674 31.198
820 2 9.01807 50.8127 27.2576
821 2 25.3965 22.211 20.5659
822 2 48.6863 38.0062 7.77821
823 2 13.546 7.51724 34.8063
824 2 25.9354 19.7516 31.5774
825 2 38.8456 22.5702 54.3295
826 2 36.9785 45.973 32.3381
827 2 7.40113 7.25885 37.7613
828 2 24.1895 27.5621 10.9781
829 2 49.4077 26.1252 27.7185
830 2 49.2656 48.1035 18.9698
831 2 42.8772 28.1244 38.8107
832 2 23.8671 13.2549 6.07253
833 2 13.686 47.4644 44.7078
834 2 40.0206 49.3192 8.13491
835 2 45.8353 6.58278 22.1233
836 2 21.2159 31.0779 47.0475
837 2 37.0956 20.8776 50.3138
838 2 48.1022 26.0931 25.2032
839 2 55.1214 9.54527 51.0779
840 2 35.0336 9.74098 44.9859
841 2 19.7823 44.3832 7.63765
842 2 47.6004 44.8954 54.5024
843 2 45.2589 34.6262 14.3938
844 2 43.2125 23.6656 36.6764
845 2 9.0425 53.4728 54.8045
846 2 15.3813 20.1815 17.4398
847 2 40.7843 10.64 33.4594
848 2 15.3912 11.9303 8.84757
849 2 9.07502 45.8119 16.5963
850 2 52.4415 46.0024 38.353
851 2 32.9362 41.2156 35.9003
852 2 7.66382 25.5081 20.3821
853 2 34.9976 11.8787 54.8811
854 2 53.7536 55.5583 45.4914
855 2 25.4383 7.92138 39.8218
856 2 53.2079 43.6902 51.908
857 2 55.2673 35.4865 16.2025
858 2 17.7229 54.7053 11.1556
859 2 54.1676 51.5239 50.9621
860 2 22.2111 53.0904 50.5549
861 2 36.7389 16.8525 28.3082
862 2 7.60052 26.7723 35.4367
863 2 8.19305 29.1325 42.403
864 2 20.6524 53.0885 15.5744
865 2 8.30555 46.0931 22.1873
866 2 55.1189 21.3065 54.365
867 2 53.3123 47.6958 29.4251
868 2 28.1376 52.3286 31.6369
869 2 26.2595 45.3091 34.6985
870 2 6.15492 30.8694 7.97712
871 2 49.1465 22.5452 51.0292
872 2 35.6671 48.7517 40.3323
873 2 13.0585 37.2077 55.7248
874 2 44.0167 40.8502 49.522
875 2 26.2088 52.5807 22.6132
876 2 38.2109 43.4228 55.1354
877 2 21.515 11.9507 34.4956
878 2 21.4864 25.1287 13.3391
879 2 12.8937 17.315 48.8384
880 2 11.8962 43.9394 46.6441
881 2 53.0764 50.562 11.7153
882 2 18.365 50.1442 16.4673
883 2 50.9109 14.4369 17.0545
884 2 23.3784 12.5465 10.1176
885 2 14.9204 13.7286 52.0539
886 2 11.5646 32.2486 53.2519
887 2 36.9377 13.7833 28.3882
888 2 35.7953 41.8016 21.8488
889 2 33.536 47.5317 28.5819
890 2 37.5546 18.128 40.575
891 2 41.2785 23.4825 43.8446
892 2 39.5263 11.0845 54.7825
893 2 37.4311 48.1259 7.82669
894 2 41.975 43.2358 33.9178
895 2 31.0559 7.0213 44.2195
896 2 28.4052 48.9769 40.3395
897 2 17.0473 46.9972 24.9736
898 2 7.02843 6.1046 16.406
899 2 47.1894 55.3846 53.0717
900 2 39.8405 17.9528 52.0171
901 2 47.6193 12.4928 46.473
902 2 48.3429 25.6062 51.3347
903 2 38.0599 16.122 15.2589
904 2 19.7958 44.9493 37.1039
905 2 45.6049 43.7161 37.6842
906 2 12.5045 25.4009 11.4915
907 2 13.5976 9.53786 44.9545
908 2 35.7235 31.132 23.1869
909 2 47.5087 33.0243 27.8257
910 2 25.9832 27.3777 54.1507
911 2 24.3987 42.1732 18.2208
912 2 48.5918 22.8896 39.949
913 2 18.9444 44.6129 44.2083
914 2 26.65 47.6797 27.0729
915 2 6.90457 11.8516 17.5146
916 2 9.41416 38.7143 54.3732
917 2 27.578 30.2103 28.3706
918 2 55.824 21.3293 9.49592
919 2 13.0473 47.4052 55.7937
920 2 41.089 24.0667 49.0923
921 2 19.9169 7.2178 44.491
922 2 48.584 19.1988 55.5689
923 2 38.2727 20.0365 32.5335
924 2 35.5286 28.7642 11.843
925 2 48.3791 39.3269 11.2598
926 2 35.6758 13.1646 25.5972
927 2 21.4503 16.4374 44.7429
928 2 24.1153 6.7429 45.0144
929 2 19.383 28.9679 33.4065
930 2 20.4528 17.0897 27.7225
931 2 17.892 9.0037 33.3377
932 2 10.549 19.4529 17.4987
933 2 31.4207 49.8557 7.13343
934 2 19.7206 24.2405 54.1279
935 2 19.909 37.4582 48.74
936 2 54.2344 52.6643 46.9771
937 2 19.7431 23.6698 17.1489
938 2 6.20165 30.1073 17.0211
939 2 48.6656 18.7114 41.5491
940 2 13.1899 31.7744 6.7669
941 2 15.3464 20.3134 54.0081
942 2 46.9463 51.5334 23.3954
943 2 18.319 42.1868 12.4255
944 2 44.548 29.2698 51.4037
945 2 23.4178 38.4914 25.0972
946 2 30.8647 38.0827 42.2031
947 2 26.0273 13.0458 42.4617
948 2 22.1007 53.1418 45.2378
949 2 14.0577 25.2753 43.6703
950 2 40.2202 44.3639 47.2909
951 2 21.3587 53.8456 29.6333
952 2 28.3428 38.6404 36.4461
953 2 53.5566 53.6535 25.322
954 2 16.2674 48.2731 34.2776
955 2 50.1499 11.4724 49.7401
956 2 39.3662 23.8194 37.7903
957 2 24.9281 53.0275 47.461
958 2 27.7376 53.4358 45.9793
959 2 17.7518 51.2449 19.3541
960 2 27.3956 44.9928 53.9951
961 2 40.0212 40.5374 44.4608
962 2 27.5943 40.9133 53.5127
963 2 18.4489 7.58617 9.30934
964 2 26.3903 52.0643 43.6106
965 2 20.3602 34.2372 42.9086
966 2 53.9433 35.031 45.5153
967 2 29.6899 29.082 45.3279
968 2 26.9587 39.8117 38.5842
969 2 13.0721 43.9463 22.1979
970 2 29.1301 27.4988 19.5581
971 2 46.2342 31.6909 38.7704
972 2 31.8374 37.2553 12.9557
973 2 42.3326 35.6253 12.6882
974 2 23.7284 21.2642 28.371
975 2 6.87119 46.303 38.6138
976 2 13.7088 28.2642 44.9617
977 2 13.7714 28.4356 21.9576
978 2 19.9151 41.335 10.016
979 2 14.3161 42.5155 30.7892
980 2 15.7123 16.7649 30.3081
981 2 41.7276 29.8068 8.07033
982 2 11.9454 32.4411 28.39
983 2 44.115 13.4889 34.7421
984 2 10.4379 22.3099 43.5532
985 2 19.9766 32.2482 55.8484
986 2 31.2692 24.4766 38.8946
987 2 55.6157 23.9703 48.1032
988 2 7.04689 16.6994 6.62411
989 2 27.0259 16.6588 39.5981
990 2 13.7617 38.1069 9.20154
991 2 34.8134 21.7286 27.3482
992 2 28.4926 12.0194 6.62163
993 2 38.6613 26.9223 51.3244
994 2 34.8917 22.5089 51.058
995 2 51.7528 35.39 35.7037
996 2 49.5358 32.1483 15.8376
997 2 22.4371 19.3054 26.2112
998 2 26.8634 30.9151 35.149
999 2 27.0532 14.3542 7.39025
1000 2 38.8167 17.124 30.0484
1001 2 39.822 53.0895 43.6896
1002 2 32.2693 49.7403 21.7796
1003 2 23.2623 45.9247 6.78937
1004 2 53.531 8.74181 35.0623