ITEM: TIMESTEP
0
ITEM: NUMBER OF ATOMS
9088
ITEM: BOX BOUNDS xy xz yz pp pp pp
6.0543397823609446e+00 5.5876598009694639e+01 -5.7161807853531624e-15
6.0543397823609499e+00 5.5876598009694639e+01 0.0000000000000000e+00
6.0543397823609499e+00 5.5876598009694639e+01 0.0000000000000000e+00
ITEM: ATOMS id type x y z
1 2 30.9218 32.0787 35.3372
2 2 51.9067 19.9929 50.5603
3 2 38.3258 41.7362 42.0767
4 2 7.39669 24.6212 49.4046
5 2 9.58047 16.301 49.6973
6 2 31.4377 10.1652 23.4748
7 2 12.6967 20.7385 40.5594
8 2 23.8609 41.8514 36.3208
9 2 52.0448 6.92303 49.4159
10 2 47.9492 50.7151 51.4222
11 2 25.5622 41.8512 46.8958
12 2 51.8522 6.84294 16.2096
13 2 8.98801 30.7694 21.3344
14 2 44.9702 11.813 51.5098
15 2 39.473 41.0909 16.3342
16 2 33.822 48.8029 23.2093
17 2 12.9574 19.8211 27.1279
18 2 30.2076 6.29398 51.0653
19 2 13.1696 14.2851 45.4967
20 2 14.5769 15.3144 36.5129
21 2 19.4555 51.392 14.3157
22 2 25.4692 55.2063 33.2385
23 2 21.1367 18.8137 26.5111
24 2 53.8808 22.1408 38.466
25 2 37.9394 26.1786 18.0992
26 2 38.9779 40.8892 24.9034
27 2 28.2003 33.4907 11.6038
28 2 45.6884 25.6223 48.358
29 2 16.7367 48.467 27.713
30 2 10.3962 42.6756 16.6825
31 2 34.9765 30.2526 55.0236
32 2 55.2704 25.4295 42.3965
33 2 8.14849 43.5182 32.7806
34 2 33.6782 17.632 29.443
35 2 27.4532 19.0507 8.30514
36 2 36.1418 35.1561 50.0947
37 2 33.7467 30.546 38.173
38 2 18.9745 38.4781 16.0541
39 2 27.9772 42.1414 48.716
40 2 23.0132 21.1776 14.6821
41 2 46.5285 30.638 32.8324
42 2 16.9845 37.4233 35.4172
43 2 13.3707 28.186 37.7621
44 2 24.824 14.8857 16.6319
45 2 20.0754 6.47883 55.5823
46 2 40.4797 43.928 49.4631
47 2 11.3178 34.3373 28.5936
48 2 26.2862 6.68761 19.8827
49 2 24.3706 26.2633 48.7744
50 2 46.1215 52.7088 14.5466
51 2 20.6975 12.6423 48.9757
52 2 21.2184 12.0847 8.97959
53 2 14.7831 18.0073 53.996
54 2 38.9552 36.8965 15.6338
55 2 11.0102 54.7598 46.8899
56 2 43.4916 25.6012 54.422
57 2 46.8186 12.7862 39.5926
58 2 47.8148 18.5427 46.9941
59 2 11.3134 27.1344 44.5709
60 2 46.956 10.3629 9.30117
61 2 28.7129 13.5987 23.6584
62 2 20.98 21.2212 34.3926
63 2 49.1489 21.7335 6.31761
64 2 14.1899 18.7822 44.4599
65 2 37.8883 11.5436 41.8165
66 2 37.6255 44.6825 19.7828
67 2 55.6161 28.6684 10.6171
68 2 46.1966 51.9224 45.4502
69 2 24.2094 24.7492 20.817
70 2 53.9884 21.5102 49.0919
71 2 14.413 21.3842 24.9066
72 2 29.3115 19.9722 43.3176
73 2 48.9208 21.5132 10.5257
74 2 22.2142 30.1776 14.6055
75 2 48.9648 45.294 22.1226
76 2 49.4028 24.2956 10.0085
77 2 25.4212 45.0215 20.4006
78 2 38.3415 6.8115 45.8816
79 2 44.5828 41.3818 21.2001
80 2 33.5084 36.1834 51.8662
81 2 30.8865 23.9834 17.2545
82 2 15.9932 41.2137 41.7315
83 2 16.8465 18.5629 17.4398
84 2 38.6471 18.7673 53.8041
85 2 30.7041 24.2725 34.9248
86 2 29.1198 20.6951 23.0091
87 2 20.7098 17.4117 50.8096
88 2 9.86252 51.9654 6.41301
89 2 50.6082 30.6086 34.9962
90 2 23.132 54.0495 13.6741
91 2 31.6675 42.2888 32.7922
92 2 16.1253 47.1531 19.2027
93 2 49.3878 38.2817 23.6541
94 2 41.3097 27.4865 47.6463
95 2 38.0663 43.522 39.21
96 2 51.3717 30.312 19.9731
97 2 35.929 20.6426 51.0388
98 2 16.8277 7.02563 41.6232
99 2 19.9132 43.5414 20.1107
100 2 52.0858 53.2622 16.7883
101 2 25.2701 13.2544 50.8475
102 2 42.9825 36.2285 7.62846
103 2 53.4848 9.43826 43.4727
104 2 16.3117 19.4876 34.2778
105 2 8.33499 10.4885 13.2934
106 2 46.9425 27.9604 19.8452
107 2 36.654 37.6907 9.76141
108 2 28.1551 32.8369 39.9672
109 2 10.5252 46.8021 44.4678
110 2 18.0058 13.2613 50.4692
111 2 12.4368 51.0096 49.6671
112 2 27.8959 10.0844 50.3589
113 2 36.7373 29.8274 46.1374
114 2 27.8573 38.795 20.2462
115 2 33.4659 37.2521 18.3513
116 2 32.6111 42.1854 40.9432
117 2 21.6009 8.38047 36.0042
118 2 23.3546 24.3131 6.91494
119 2 53.3136 44.1878 45.5462
120 2 15.5713 20.2914 14.8486
121 2 55.3598 6.41337 37.2522
122 2 20.5786 39.6011 51.0819
123 2 34.7672 44.2501 16.5374
124 2 23.2154 22.1581 48.7085
125 2 53.6567 7.42022 55.3692
126 2 30.5977 38.1603 42.5585
127 2 7.27528 54.1364 33.5622
128 2 43.624 26.5955 27.2062
129 2 23.7999 16.865 7.75318
130 2 38.9729 13.1144 39.6185
131 2 48.3462 51.0383 10.236
132 2 23.1499 41.407 50.6726
133 2 28.3885 25.8616 7.37873
134 2 17.473 24.6827 36.1814
135 2 23.5957 37.5195 38.6517
136 2 44.5033 43.0068 11.9877
137 2 13.2822 28.4517 21.7802
138 2 39.9836 55.3394 25.4783
139 2 48.7264 52.2671 30.6195
140 2 10.4677 18.7634 14.4613
141 2 37.3415 19.3221 21.5791
142 2 19.3198 44.2868 41.0274
143 2 41.3241 7.25315 40.6729
144 2 10.0303 50.6456 27.5574
145 2 33.1684 6.92785 16.1838
146 2 16.5172 45.947 42.2934
147 2 27.3085 29.6828 26.0988
148 2 15.3384 10.8813 44.6374
149 2 24.2146 54.5484 48.1906
150 2 11.4226 25.9274 33.6004
151 2 9.86443 29.3375 55.0531
152 2 10.9998 46.1682 21.8117
153 2 12.3675 32.5059 51.5651
154 2 31.0729 9.30133 33.0652
155 2 28.9153 46.9705 12.9603
156 2 26.1664 33.7201 54.7488
157 2 24.3523 42.0197 20.0356
158 2 42.6285 25.6037 19.9384
159 2 15.4747 46.0318 28.6358
160 2 20.7899 54.8134 52.8228
161 2 21.9887 21.0803 44.5443
162 2 35.2115 54.3553 12.2344
163 2 37.6232 7.17019 31.8572
164 2 27.372 41.2999 33.9008
165 2 23.6045 15.6833 28.5774
166 2 22.0104 24.8005 47.0559
167 2 17.3337 34.3913 47.6205
168 2 51.2725 46.6326 41.5637
169 2 28.9532 23.4609 14.8245
170 2 7.67312 22.0649 15.3486
171 2 14.0661 43.4921 45.7525
172 2 10.0083 15.1677 42.3245
173 2 54.6889 12.0199 30.0969
174 2 7.44446 54.4226 44.0657
175 2 8.94497 22.1401 11.9595
176 2 39.3053 9.43979 36.4032
177 2 41.6108 37.2749 45.7854
178 2 24.9466 28.1552 28.7858
179 2 12.7524 34.1522 34.2025
180 2 6.10021 34.6325 22.7822
181 2 52.3224 12.3449 32.4646
182 2 33.2946 22.6736 16.3413
183 2 40.645 31.9944 16.1361
184 2 52.0418 18.7278 12.3761
185 2 28.7289 12.5627 39.7692
186 2 45.6344 54.1293 48.412
187 2 28.9613 32.4921 29.7966
188 2 42.8196 29.486 34.5432
189 2 47.3832 36.2558 20.976
190 2 26.395 18.708 44.7208
191 2 17.0902 39.7767 9.36774
192 2 30.0304 48.7021 53.6966
193 2 47.6799 23.7988 31.7394
194 2 33.8549 46.8175 18.4235
195 2 47.1213 13.8161 22.5384
196 2 24.0988 50.4223 15.6891
197 2 9.02138 50.7313 48.4819
198 2 34.4049 12.8968 10.0832
199 2 34.0297 21.4728 7.31478
200 2 50.6167 33.847 22.3743
201 2 54.0764 23.2698 6.38793
202 2 20.1782 14.5747 28.4719
203 2 15.8437 25.1508 14.0268
204 2 30.507 43.143 15.1931
205 2 13.7162 53.0674 36.3595
206 2 37.6829 8.35665 55.5282
207 2 51.0256 40.4366 33.8623
208 2 11.7664 39.6075 14.2824
209 2 50.9811 32.6752 43.5532
210 2 6.91666 8.05519 6.37878
211 2 39.3216 18.5477 43.0889
212 2 34.8724 36.0488 20.6802
213 2 54.3363 44.264 35.2411
214 2 54.7943 11.5406 47.0325
215 2 53.0875 26.6814 8.02894
216 2 41.4859 23.1701 54.9472
217 2 48.0299 55.5133 26.3652
218 2 15.8948 20.2189 54.8892
219 2 49.851 16.5585 11.2668
220 2 14.9098 17.8019 12.3591
221 2 13.9422 26.7769 11.5306
222 2 39.0753 51.444 54.0046
223 2 24.611 51.8334 50.6419
224 2 11.1225 28.9463 40.0868
225 2 15.4197 34.8291 30.7654
226 2 37.011 44.8409 52.7908
227 2 43.2153 47.4776 9.47894
228 2 23.6235 41.426 31.2373
229 2 23.9702 7.9311 22.7257
230 2 22.9867 16.5046 14.9717
231 2 40.0189 21.5228 50.9081
232 2 25.0475 28.1347 50.8366
233 2 39.9416 38.332 52.8408
234 2 9.64639 42.5873 24.2794
235 2 45.0738 40.2903 28.5656
236 2 26.0915 45.0562 54.3094
237 2 16.3465 31.4535 21.691
238 2 36.9778 37.3234 45.9593
239 2 13.7349 24.2233 35.9959
240 2 51.6425 51.1616 23.1934
241 2 22.522 36.8478 29.4965
242 2 22.9998 46.7666 51.673
243 2 16.6527 54.5532 37.9841
244 2 13.4083 29.157 44.9222
245 2 40.7956 26.9975 17.2598
246 2 11.9345 18.9699 21.282
247 2 46.8263 12.7369 6.34917
248 2 48.2545 26.8596 28.0883
249 2 40.8 33.1507 9.16209
250 2 47.9668 6.77534 36.7686
251 2 21.7817 16.1288 55.3009
252 2 51.3008 9.20365 23.7274
253 2 8.64297 35.5675 43.2648
254 2 8.45563 16.206 23.0271
255 2 27.9824 32.3883 50.043
256 2 8.14643 21.058 40.3788
257 2 12.9403 6.65866 23.975
258 2 15.005 31.6072 24.668
259 2 46.4778 22.7952 46.7926
260 2 29.5509 37.3292 34.0593
261 2 52.1221 34.2852 8.70846
262 2 43.5276 54.2991 38.0315
263 2 16.1808 35.1093 39.4035
264 2 50.584 9.97992 48.4221
265 2 26.2875 31.1145 42.8242
266 2 52.1616 6.83289 27.3765
267 2 50.0212 44.5325 34.644
268 2 53.206 32.986 39.4545
269 2 19.5085 7.38661 52.544
270 2 31.7509 49.2262 31.2468
271 2 8.18496 51.054 29.6035
272 2 53.4588 16.4142 15.6277
273 2 24.4104 38.9769 33.2807
274 2 31.2714 36.5089 10.3404
275 2 45.9758 52.8681 30.5568
276 2 9.07627 24.2124 17.5389
277 2 41.3473 36.1685 9.78436
278 2 9.93138 20.163 52.3869
279 2 44.4791 40.0507 35.6712
280 2 29.2969 16.2571 9.17966
281 2 26.6777 15.5093 7.2496
282 2 26.4111 17.368 17.2597
283 2 29.647 22.7929 44.8791
284 2 10.651 49.9414 23.9512
285 2 42.6483 44.5295 18.7787
286 2 18.6171 13.2523 7.67295
287 2 51.3114 19.811 42.9928
288 2 49.4464 21.601 46.9246
289 2 20.457 8.84548 32.9573
290 2 51.4651 20.7224 39.9468
291 2 14.2163 50.786 13.3483
292 2 54.6746 47.8452 47.9347
293 2 20.8547 8.72886 8.17761
294 2 7.75199 24.3633 8.98541
295 2 30.4292 18.0182 35.5669
296 2 16.4006 49.8505 54.9986
297 2 29.1442 45.7938 54.7876
298 2 51.2093 12.3729 7.84718
299 2 30.9379 41.6651 18.0894
300 2 40.1395 54.518 34.5284
301 2 36.1643 41.3124 37.989
302 2 46.1726 53.37 25.5742
303 2 21.9664 10.6328 28.9312
304 2 29.806 12.1012 21.3554
305 2 27.0523 50.1619 11.7062
306 2 45.0814 30.6167 30.1125
307 2 24.1292 12.5231 22.7205
308 2 17.7058 43.3629 22.3916
309 2 36.185 48.0518 19.7933
310 2 6.40779 8.0238 41.9123
311 2 12.8783 21.5673 7.34977
312 2 41.7676 8.46613 14.6757
313 2 26.5062 39.3879 53.4669
314 2 39.1791 48.9652 41.9295
315 2 55.0415 33.8354 12.7893
316 2 48.8611 46.6363 8.81433
317 2 41.8503 8.55828 7.77062
318 2 14.8883 51.119 18.469
319 2 54.0718 39.3848 24.11
320 2 50.9079 20.7728 21.3864
321 2 44.9951 6.87458 46.0817
322 2 12.4955 22.8229 38.3805
323 2 45.715 16.8113 46.0607
324 2 43.1043 46.9597 13.3037
325 2 24.2212 38.1945 23.1185
326 2 18.9169 42.6443 15.2086
327 2 33.9635 47.937 27.524
328 2 18.1188 37.748 11.0486
329 2 41.4845 54.1813 18.2558
330 2 34.2779 39.6069 10.164
331 2 49.3211 10.1604 10.7612
332 2 44.3219 7.13544 53.2931
333 2 10.9914 27.3937 28.7737
334 2 15.7187 13.6781 27.7578
335 2 43.6044 52.1383 24.2563
336 2 27.3715 46.9299 21.9739
337 2 21.8317 24.2708 36.1772
338 2 55.5204 15.8142 42.9927
339 2 35.7324 12.2375 12.8527
340 2 53.9594 32.4124 24.0434
341 2 11.5614 55.1056 37.0601
342 2 42.7159 47.0622 25.4019
343 2 42.9955 18.8296 54.3586
344 2 7.60324 48.7623 23.9279
345 2 13.6362 55.2499 48.9423
346 2 6.84752 52.89 41.9204
347 2 8.48158 25.0218 37.0565
348 2 42.4087 34.3772 36.7897
349 2 22.1121 42.5615 41.3755
350 2 34.8807 8.01022 36.5236
351 2 50.4583 44.6802 43.9587
352 2 27.006 48.1427 27.0175
353 2 27.2891 27.9224 48.4136
354 2 43.8356 10.4839 41.5242
355 2 19.3687 31.3131 15.7632
356 2 40.9197 28.0475 38.9974
357 2 26.2149 37.1761 35.302
358 2 49.8867 20.9375 37.5346
359 2 12.8577 19.4432 30.204
360 2 14.4816 31.6447 49.3358
361 2 44.5422 49.5605 31.0677
362 2 22.4752 47.8591 48.5899
363 2 40.7415 8.21671 10.4782
364 2 18.8263 30.8939 10.7734
365 2 19.802 7.27128 23.3804
366 2 13.6181 41.657 30.208
367 2 47.5675 29.9215 46.5418
368 2 17.7988 25.1706 23.8166
369 2 23.0345 28.6815 24.4977
370 2 6.99547 11.1186 55.2829
371 2 12.7036 28.7585 54.2647
372 2 8.23392 44.8138 11.2677
373 2 19.6107 33.3481 18.3884
374 2 37.1115 29.7578 29.9084
375 2 27.6417 15.5284 47.0628
376 2 28.3942 53.5115 13.989
377 2 12.8659 44.083 48.1981
378 2 21.6961 32.2897 29.9025
379 2 18.1871 18.9149 25.3457
380 2 53.1403 34.4801 20.0413
381 2 11.3366 42.1904 7.30651
382 2 15.3695 20.1159 41.7885
383 2 6.75469 54.22 9.41966
384 2 17.9816 27.9578 26.5651
385 2 8.52546 20.5041 48.4943
386 2 42.2372 32.1342 33.0793
387 2 43.0583 26.6408 34.5604
388 2 9.71011 8.19677 9.44232
389 2 10.4661 23.0103 52.3289
390 2 11.0992 33.2392 38.2374
391 2 12.4446 26.8868 9.22209
392 2 51.1925 25.1237 33.7288
393 2 40.9433 42.7254 14.8349
394 2 17.2071 28.2707 52.8704
395 2 30.2526 47.0745 10.1452
396 2 38.4302 52.5323 50.8076
397 2 10.4616 52.3104 10.247
398 2 27.3814 29.4992 32.9807
399 2 33.4078 22.3596 27.1019
400 2 15.1216 36.4515 10.5032
401 2 10.1621 10.545 41.9923
402 2 46.9204 50.9103 32.8659
403 2 6.18552 25.6243 11.47
404 2 22.6005 46.7005 7.12222
405 2 18.2201 43.4616 47.9758
406 2 27.5638 23.9365 48.8096
407 2 30.8574 33.6253 18.2312
408 2 31.9807 45.061 54.1773
409 2 46.3472 29.5289 7.04591
410 2 51.9026 7.52932 32.3333
411 2 17.7393 38.2314 20.3272
412 2 26.4389 15.897 11.8261
413 2 7.61694 30.075 18.3031
414 2 44.9599 20.3833 30.1442
415 2 53.3442 9.48611 30.8972
416 2 44.2946 9.75731 47.9473
417 2 13.0571 54.194 40.0294
418 2 14.1337 39.4206 51.2986
419 2 35.6817 12.0806 26.1473
420 2 17.1787 50.1692 45.2257
421 2 23.8666 32.6735 34.4709
422 2 36.8616 28.6133 20.0313
423 2 41.6438 53.6417 15.2712
424 2 48.6311 31.6093 19.6055
425 2 8.52703 17.0731 6.15521
426 2 18.3616 51.6327 42.7156
427 2 27.7034 47.5566 36.8573
428 2 10.942 49.0872 35.9336
429 2 21.0513 47.225 13.2417
430 2 44.0285 21.7881 34.6144
431 2 22.4216 37.018 8.42044
432 2 20.4359 15.3448 36.8751
433 2 21.3576 44.8985 43.6284
434 2 8.11678 13.2787 50.6184
435 2 25.8363 10.4096 23.0332
436 2 7.28287 34.8649 40.2878
437 2 18.9155 39.1549 23.1266
438 2 37.6577 26.0057 32.5928
439 2 16.8751 15.8413 46.7932
440 2 53.586 6.36624 46.6121
441 2 32.1943 10.1282 9.60884
442 2 39.4377 47.0213 12.9431
443 2 50.9137 55.7322 24.3063
444 2 24.9636 21.6263 43.5906
445 2 46.3068 35.2364 34.1473
446 2 53.5394 35.4493 51.3575
447 2 24.2332 53.2605 17.2272
448 2 14.1767 41.3922 13.3546
449 2 27.0663 7.25581 35.6143
450 2 20.891 27.8464 22.9677
451 2 52.5227 24.1073 36.5266
452 2 41.9466 13.7512 27.7844
453 2 17.8108 55.4375 22.2821
454 2 37.3375 44.8348 45.7784
455 2 44.8664 35.9884 45.344
456 2 24.5314 8.48953 52.6588
457 2 19.5942 35.2107 9.90742
458 2 39.446 7.64839 43.4459
459 2 48.1219 42.9731 51.2861
460 2 54.0973 55.3013 34.0015
461 2 27.5005 8.6806 6.44024
462 2 18.9782 22.7874 16.7786
463 2 47.8849 54.9642 43.2502
464 2 27.5793 8.79276 47.6853
465 2 49.722 35.5632 31.5998
466 2 30.8853 28.0553 55.372
467 2 15.3099 53.3049 14.5709
468 2 36.6782 39.0802 43.4065
469 2 51.6252 42.0587 43.414
470 2 41.1465 36.4271 54.9608
471 2 35.6323 39.7352 52.3826
472 2 33.9596 9.61242 6.66888
473 2 46.4131 50.3949 27.1678
474 2 14.0217 10.192 15.33
475 2 35.222 15.1592 42.1354
476 2 11.6784 10.4881 13.6052
477 2 31.1064 22.0563 13.5142
478 2 20.4011 20.4874 16.3996
479 2 33.776 41.9366 19.4327
480 2 18.5492 50.0963 26.7247
481 2 16.81 16.711 27.1977
482 2 25.5995 54.4262 13.1676
483 2 53.7712 10.3615 11.9463
484 2 42.5847 51.5407 50.104
485 2 14.0088 47.052 51.8023
486 2 41.9237 23.4586 44.1638
487 2 27.5702 40.3629 39.6496
488 2 54.0904 48.9244 17.8847
489 2 51.1248 18.9133 47.2422
490 2 32.8773 26.4601 7.55301
491 2 32.2306 17.1623 50.2566
492 2 32.4504 6.65299 32.1423
493 2 38.1296 12.0515 37.0101
494 2 47.4567 43.9427 47.3682
495 2 10.8102 42.7321 33.8144
496 2 43.0272 44.6463 15.8127
497 2 50.636 9.5828 44.8929
498 2 15.2903 36.4539 54.4884
499 2 50.1254 33.0301 35.7126
500 2 54.6437 50.9914 27.1505
501 2 12.567 13.1921 15.0079
502 2 29.7216 28.1158 21.9775
503 2 19.4898 38.9946 39.5717
504 2 22.8654 8.15641 6.23847
505 2 22.199 10.0381 51.5682
506 2 13.049 48.2394 30.6468
507 2 18.0405 48.7328 12.8881
508 2 48.1785 24.0931 41.1507
509 2 14.1404 25.1055 42.337
510 2 39.8738 52.1223 36.4592
511 2 24.8688 27.7297 22.0758
512 2 43.8642 44.493 9.11256
513 2 26.6464 44.6744 37.0203
514 2 46.9213 7.84265 48.7473
515 2 32.7761 19.8643 20.2642
516 2 39.2214 10.4661 17.5623
517 2 28.3053 13.5487 11.9029
518 2 26.7166 21.1476 12.2867
519 2 31.5707 39.1048 22.3018
520 2 41.432 9.06098 28.0763
521 2 8.46423 28.2826 36.5401
522 2 29.0397 36.8492 28.4593
523 2 20.1431 35.8516 54.6101
524 2 37.8463 42.0884 49.9425
525 2 42.8342 39.7036 7.46668
526 2 28.1757 54.4259 37.4312
527 2 44.823 15.9604 50.0568
528 2 12.5196 15.5319 11.9258
529 2 35.9081 24.5545 20.1429
530 2 40.8723 31.0981 19.4545
531 2 12.9979 9.45646 49.8867
532 2 31.4188 51.6664 34.9634
533 2 21.9165 37.6126 43.0838
534 2 19.5277 21.397 50.3978
535 2 55.1968 29.5289 54.0737
536 2 48.7565 12.4712 26.9258
537 2 8.96091 44.1436 26.6
538 2 21.2674 39.2353 27.5221
539 2 55.78 40.3307 29.0208
540 2 38.4727 20.7654 32.8866
541 2 51.5157 43.3142 19.2022
542 2 23.6039 23.7391 17.0934
543 2 32.995 23.7428 50.1738
544 2 26.7538 43.6852 39.8064
545 2 16.6655 33.9289 23.3962
546 2 24.6434 14.707 9.21352
547 2 12.6841 19.6708 11.3566
548 2 50.5422 13.9702 53.3778
549 2 49.373 53.1099 51.1587
550 2 42.2538 41.5466 55.5179
551 2 12.3644 44.6237 42.722
552 2 38.3922 42.5175 27.0827
553 2 16.3923 26.6157 54.9693
554 2 9.23234 23.6529 34.4725
555 2 32.2184 23.0379 46.8561
556 2 21.1508 15.5699 48.2917
557 2 10.154 33.942 49.2945
558 2 55.4225 38.7649 43.3847
559 2 36.2542 22.6932 29.9376
560 2 22.9994 51.6349 35.5412
561 2 55.4733 30.7056 7.08792
562 2 10.4501 30.1969 48.435
563 2 26.0359 10.1467 26.3044
564 2 27.9253 36.9732 39.1045
565 2 48.4745 15.0325 43.964
566 2 42.0469 50.909 32.47
567 2 15.682 11.1005 53.8824
568 2 34.7068 17.7066 54.5741
569 2 46.4501 42.2471 30.1931
570 2 39.6553 38.9225 49.474
571 2 6.81791 27.9647 43.1177
572 2 49.5841 16.3341 37.5529
573 2 32.6655 28.0572 28.0842
574 2 30.7839 17.284 28.8587
575 2 26.4691 34.5091 35.8764
576 2 23.3 18.8421 49.6214
577 2 27.1945 29.3983 15.0236
578 2 13.9051 25.1005 21.729
579 2 20.059 47.9609 30.203
580 2 14.2841 21.6768 50.6774
581 2 16.2555 33.3622 42.4981
582 2 38.796 15.9177 35.9861
583 2 7.86357 29.3585 23.1123
584 2 45.6543 44.7062 54.5902
585 2 39.9524 28.8935 42.4835
586 2 12.1736 54.2705 25.2838
587 2 48.4761 13.8228 33.7011
588 2 28.4981 14.8445 43.9867
589 2 33.176 7.00447 39.3327
590 2 36.311 48.586 50.4262
591 2 41.1407 20.725 8.06749
592 2 51.7415 43.2749 8.85775
593 2 18.5297 13.0175 30.4663
594 2 32.5774 34.788 34.6571
595 2 41.909 31.9598 52.8295
596 2 37.2299 48.1103 16.8119
597 2 34.3956 20.3679 29.8942
598 2 31.0033 42.3558 49.5706
599 2 34.5046 35.8889 27.652
600 2 11.5326 23.0183 42.8099
601 2 37.3661 12.0018 19.8738
602 2 41.8877 40.2953 39.2849
603 2 27.0113 26.6291 17.7846
604 2 42.4325 33.8743 39.7341
605 2 55.2004 7.73245 12.4764
606 2 19.4316 7.74181 12.3739
607 2 34.0758 12.4381 22.4643
608 2 53.0085 47.9785 32.2062
609 2 41.2299 37.933 18.6538
610 2 24.781 31.7035 16.3385
611 2 46.5919 52.8336 52.7489
612 2 16.5061 28.4186 30.6947
613 2 13.857 15.8214 24.8279
614 2 46.1566 38.9227 43.2243
615 2 14.8168 54.1763 22.0771
616 2 55.6814 41.5063 33.295
617 2 9.44668 48.538 41.9505
618 2 8.98657 40.2605 39.524
619 2 25.4587 45.2337 15.8447
620 2 32.1915 22.2149 29.7078
621 2 24.1021 33.7974 20.407
622 2 42.0583 54.8956 23.3643
623 2 23.9328 52.9761 30.7443
624 2 27.895 33.9789 18.3812
625 2 49.9924 13.5029 15.8252
626 2 20.8347 16.7892 17.6009
627 2 51.0152 34.7574 54.3518
628 2 54.77 38.3361 32.6004
629 2 14.7657 36.0767 43.9929
630 2 17.3755 16.9515 11.2833
631 2 48.386 50.007 20.0768
632 2 25.4192 6.49437 9.60874
633 2 7.80502 35.5971 15.1229
634 2 47.0133 20.0358 52.4666
635 2 25.4321 36.2902 40.6297
636 2 46.4727 17.0382 36.863
637 2 31.1361 33.1435 49.1754
638 2 34.5323 17.4554 9.99935
639 2 12.937 16.5274 7.85796
640 2 29.6667 45.3795 46.9632
641 2 21.967 8.37707 42.4346
642 2 32.1467 16.5859 33.3482
643 2 40.5323 44.351 8.76298
644 2 27.6164 41.2193 51.5407
645 2 34.6115 28.9346 48.3748
646 2 20.9237 52.0393 27.8867
647 2 17.1523 8.10517 44.7401
648 2 20.669 28.067 40.7332
649 2 6.42523 47.8476 26.9216
650 2 43.8837 27.8237 8.09811
651 2 7.42792 36.314 25.2978
652 2 9.50596 35.7317 37.558
653 2 41.8135 20.0513 44.929
654 2 48.4306 42.1815 22.113
655 2 54.8 28.8625 48.9077
656 2 41.5681 31.0499 13.4728
657 2 44.7485 33.5367 18.6035
658 2 47.0818 16.9754 18.0424
659 2 28.4288 28.9229 43.5194
660 2 9.50387 19.4216 9.9734
661 2 38.3834 12.3139 10.4967
662 2 16.6007 31.2751 53.616
663 2 52.3199 20.6219 10.1074
664 2 27.8519 38.6486 8.18615
665 2 9.81435 54.5538 13.9054
666 2 13.1242 46.6215 35.0809
667 2 33.1963 36.837 7.36951
668 2 50.0219 25.8666 46.3191
669 2 42.9437 13.6281 22.6925
670 2 38.4954 38.3675 19.9763
671 2 17.1111 32.3648 45.5624
672 2 8.62777 7.51911 53.6321
673 2 21.4292 13.4847 6.64992
674 2 53.5978 41.5814 47.4745
675 2 33.5852 54.734 27.3109
676 2 32.2742 10.9292 28.6845
677 2 43.1159 38.4391 14.4393
678 2 43.231 13.1861 19.6757
679 2 6.99236 12.9679 14.1088
680 2 21.0194 19.1123 31.8935
681 2 8.84989 9.02485 46.386
682 2 41.0613 38.5703 26.0359
683 2 19.8051 32.0892 46.663
684 2 15.1604 8.04297 28.1808
685 2 27.119 21.7227 41.3482
686 2 48.5663 34.9371 11.9712
687 2 37.5557 29.5148 16.9335
688 2 11.2932 15.2793 38.791
689 2 45.3052 40.3564 32.9316
690 2 37.4255 54.6711 23.8473
691 2 21.5695 43.6858 27.8239
692 2 22.0071 34.186 53.1663
693 2 45.8009 16.5563 13.5382
694 2 51.8512 12.8406 47.641
695 2 18.4977 22.6819 33.7782
696 2 32.0704 41.3715 6.69798
697 2 46.9315 21.9394 14.9265
698 2 42.2627 45.6829 42.1026
699 2 41.366 50.5845 42.4874
700 2 45.7674 32.9078 26.5259
701 2 54.2206 41.819 44.4871
702 2 13.3661 13.6014 30.2304
703 2 44.97 47.2964 7.01613
704 2 22.6239 17.5212 41.3091
705 2 48.9925 35.5261 35.7642
706 2 19.5407 40.2051 44.046
707 2 8.35361 15.9156 10.451
708 2 11.9176 31.0231 11.1144
709 2 22.3153 54.3949 34.3994
710 2 47.6706 27.5331 41.6594
711 2 14.6787 36.2269 14.8117
712 2 22.6094 18.4382 34.6837
713 2 26.0329 36.703 51.5563
714 2 8.85532 17.102 52.376
715 2 54.5981 20.7353 7.22906
716 2 29.9937 43.2267 36.5845
717 2 18.5215 12.2723 17.9504
718 2 6.85428 29.6283 29.9842
719 2 16.678 45.7553 31.9396
720 2 34.208 27.6806 20.6868
721 2 50.3154 48.4135 14.862
722 2 55.7636 44.452 50.0224
723 2 10.2303 31.4298 41.8638
724 2 29.5589 8.10193 13.8523
725 2 55.7464 35.3366 55.4698
726 2 45.0196 40.6633 25.4659
727 2 14.5917 44.0403 16.3469
728 2 41.8703 7.0496 37.8325
729 2 37.4824 34.4311 8.66057
730 2 46.8581 20.2133 35.6992
731 2 25.1927 25.3498 15.2665
732 2 34.6514 39.0729 39.8663
733 2 28.4606 43.7173 12.7023
734 2 30.2637 25.899 14.8833
735 2 7.69074 11.1946 36.3282
736 2 54.3485 55.2093 29.2337
737 2 24.2961 32.8597 23.28
738 2 53.3697 45.1054 48.5018
739 2 34.9776 33.5354 32.4932
740 2 20.8072 41.4785 46.8806
741 2 18.5493 7.14963 36.6542
742 2 53.8898 21.2857 20.7696
743 2 23.1782 54.3691 23.0759
744 2 22.7698 33.6497 17.642
745 2 48.1308 47.3606 50.5523
746 2 11.005 13.5677 54.6297
747 2 44.0959 7.22743 24.2172
748 2 7.10204 20.7329 25.1921
749 2 54.1014 18.2354 23.2473
750 2 27.243 31.0763 19.5868
751 2 8.47477 42.0533 20.7715
752 2 8.28565 43.656 7.16472
753 2 44.4876 46.9212 38.2999
754 2 37.3392 42.2159 11.4774
755 2 10.3408 55.0586 9.45596
756 2 46.4401 39.7615 49.9548
757 2 6.18477 42.8838 18.4127
758 2 22.425 17.5951 22.2421
759 2 47.3541 34.3708 39.7056
760 2 31.8954 12.5725 18.9064
761 2 23.8571 29.436 31.7919
762 2 17.5748 36.8167 6.31587
763 2 12.4073 6.88105 10.7053
764 2 53.7625 9.9225 35.6265
765 2 50.2772 28.9787 40.9187
766 2 11.643 23.2871 47.9771
767 2 38.7941 33.9507 43.19
768 2 21.0357 30.2713 9.10151
769 2 38.3509 42.2364 47.0155
770 2 9.03529 15.9113 32.107
771 2 8.28764 22.0253 6.96657
772 2 35.9514 43.7269 55.4686
773 2 15.4391 55.8698 25.9082
774 2 11.507 19.532 24.2397
775 2 50.2011 16.4786 24.5314
776 2 17.4822 49.8676 18.2949
777 2 21.4359 9.25526 39.2156
778 2 55.2742 18.5551 31.5619
779 2 50.4395 10.7974 14.9868
780 2 45.6409 37.0899 18.6014
781 2 49.5796 29.5071 10.0967
782 2 22.3316 32.3672 7.35928
783 2 45.8958 28.377 26.6291
784 2 53.9561 35.6496 47.6244
785 2 53.7981 53.5632 37.9157
786 2 22.0175 39.923 15.8624
787 2 54.8418 7.927 39.5455
788 2 12.4343 16.9848 46.305
789 2 27.1176 17.6728 26.2935
790 2 43.1551 47.3369 17.569
791 2 45.7021 10.1513 6.62198
792 2 47.6732 55.308 18.0167
793 2 49.1877 9.58111 28.4954
794 2 39.457 54.1938 41.2621
795 2 54.1791 8.34267 22.7457
796 2 48.5766 41.2477 54.2782
797 2 47.0829 37.4637 7.55053
798 2 14.1433 6.13708 35.5292
799 2 39.3934 51.5084 18.5599
800 2 32.9872 45.9116 7.34285
801 2 53.8328 44.5858 15.3626
802 2 46.6768 42.9774 7.83879
803 2 39.5814 30.6558 45.137
804 2 9.42353 18.0435 35.5827
805 2 14.8459 43.4902 54.8814
806 2 27.2796 52.8338 9.31683
807 2 49.2989 49.8875 6.30076
808 2 53.209 40.6994 8.81719
809 2 32.1875 15.6925 18.3868
810 2 30.8007 29.2762 18.2802
811 2 33.4518 20.7308 37.2214
812 2 6.66489 15.8458 54.3747
813 2 28.7901 35.1785 54.6522
814 2 29.3965 26.0351 47.9876
815 2 32.7297 6.92401 44.4009
816 2 42.7821 54.1702 32.8914
817 2 26.5322 34.2178 23.517
818 2 12.9162 30.3244 42.0971
819 2 7.35751 30.7716 50.3302
820 2 26.5824 54.0153 46.4029
821 2 43.1731 25.3173 40.1583
822 2 16.2723 39.1973 27.7945
823 2 31.9627 10.2674 51.9685
824 2 45.8779 23.0585 52.2049
825 2 55.7249 25.5631 23.6628
826 2 54.5777 48.8642 51.5931
827 2 24.819 10.3562 7.3149
828 2 40.3287 30.7217 30.1518
829 2 17.0588 29.2973 47.1887
830 2 16.529 51.2135 38.0384
831 2 10.6744 31.2565 8.22974
832 2 41.2443 15.4983 25.0732
833 2 30.7944 50.6299 13.9974
834 2 7.45914 52.6363 26.8978
835 2 13.3252 9.22491 41.4346
836 2 37.535 32.6417 16.1105
837 2 54.3614 23.6242 19.5688
838 2 16.0834 29.5958 44.5428
839 2 22.7963 12.7317 20.2544
840 2 51.8799 12.6282 13.0498
841 2 36.9092 47.2335 26.8015
842 2 14.6807 47.6453 25.7183
843 2 13.0164 39.5168 33.7917
844 2 11.2021 26.436 6.27339
845 2 26.661 6.87384 24.0418
846 2 32.7859 23.4736 37.0094
847 2 7.96925 13.7322 53.2478
848 2 33.1283 15.1999 28.1316
849 2 25.9253 50.0613 38.941
850 2 20.0079 48.8911 8.07897
851 2 50.423 43.2066 55.3986
852 2 24.3286 27.5707 37.4013
853 2 52.6734 14.1079 24.3415
854 2 21.261 8.57498 14.9602
855 2 43.0768 10.5383 9.69555
856 2 20.9879 46.2173 21.4559
857 2 21.9366 39.6897 37.554
858 2 35.0722 8.00364 30.365
859 2 21.9852 54.5341 20.4795
860 2 40.2745 6.13659 20.4765
861 2 54.2272 19.9636 46.6305
862 2 24.0372 29.9204 54.0812
863 2 25.6243 31.8581 11.5156
864 2 37.8445 6.10365 34.5989
865 2 26.647 47.8022 40.9997
866 2 22.6719 24.0345 23.5581
867 2 20.8536 50.5307 48.8125
868 2 45.5797 55.1113 51.3277
869 2 43.765 48.803 53.9112
870 2 22.2526 34.9232 26.735
871 2 16.5291 26.1667 20.4704
872 2 55.3993 52.8094 12.0684
873 2 30.2017 40.1085 24.9785
874 2 11.5028 43.4426 19.8113
875 2 43.5404 55.6439 42.0411
876 2 55.5161 46.1017 24.4418
877 2 38.8312 14.7287 53.661
878 2 38.8196 28.3768 31.7354
879 2 30.8779 20.0735 17.8772
880 2 29.2904 46.5903 15.8002
881 2 20.7922 53.8206 30.8029
882 2 35.8189 53.2019 35.2619
883 2 18.6054 17.7446 36.1945
884 2 41.0583 15.5971 29.6068
885 2 32.5847 16.5072 21.2028
886 2 28.8979 35.0911 22.1735
887 2 7.61025 17.5731 45.3858
888 2 52.9709 44.2491 39.6956
889 2 50.8135 50.0882 47.9946
890 2 55.1505 20.5499 10.0342
891 2 8.85154 26.3512 13.6552
892 2 7.80025 11.9024 22.2228
893 2 55.1116 53.5712 25.2211
894 2 9.59469 45.8332 53.2307
895 2 48.8804 8.04676 15.3259
896 2 45.8575 52.1262 9.94152
897 2 34.5235 49.896 44.0707
898 2 24.3417 9.32843 35.9678
899 2 14.3545 9.21431 22.6731
900 2 7.19082 21.4507 21.944
901 2 15.369 15.3363 15.6413
902 2 18.0654 29.3339 21.4442
903 2 54.9402 16.1271 36.5848
904 2 37.0034 48.3017 7.04026
905 2 13.2176 46.1467 7.0122
906 2 28.7964 28.0003 30.6637
907 2 33.8979 13.7972 15.1091
908 2 53.2432 34.4546 42.1717
909 2 14.9916 35.9719 47.2619
910 2 43.3885 30.2828 24.0136
911 2 42.0154 45.2215 37.4353
912 2 16.5399 25.6085 9.22006
913 2 36.8077 47.3499 14.0251
914 2 43.6249 50.2432 46.2329
915 2 25.2138 15.217 36.9984
916 2 26.2914 41.7838 23.9002
917 2 44.3217 33.347 47.6018
918 2 23.2992 23.114 29.1373
919 2 30.1794 50.3604 25.8464
920 2 8.77703 27.2501 18.6495
921 2 37.0374 9.7378 13.0163
922 2 20.6634 21.6665 25.0172
923 2 54.373 24.0653 51.0065
924 2 53.4608 32.9945 31.919
925 2 16.3894 42.3758 30.7169
926 2 53.099 16.2461 44.4911
927 2 38.9175 19.4694 13.8869
928 2 41.0299 11.2309 11.2437
929 2 36.5799 31.8899 52.5589
930 2 37.5782 20.2852 46.9272
931 2 36.2867 12.5403 8.15932
932 2 27.5949 23.2552 36.7647
933 2 48.921 52.4915 26.3426
934 2 36.9694 26.5617 23.9541
935 2 37.1647 40.5781 18.1799
936 2 22.0238 55.4424 16.1607
937 2 36.8994 26.7979 36.2177
938 2 21.5814 30.9374 37.9818
939 2 16.6537 20.9957 10.5535
940 2 30.2669 35.0205 26.248
941 2 32.9732 23.2805 23.3474
942 2 14.4791 54.5463 43.0526
943 2 35.8172 44.7082 31.9243
944 2 13.0485 31.4431 22.3031
945 2 41.0393 41.5944 43.9545
946 2 46.5324 36.6596 11.4443
947 2 43.3189 13.8666 12.8593
948 2 38.6618 7.45608 14.6201
949 2 31.103 28.2121 12.9988
950 2 9.24682 47.0415 15.6492
951 2 39.0602 7.29422 48.7955
952 2 45.5219 41.6101 55.5731
953 2 20.839 6.89751 45.0231
954 2 33.7316 51.2452 53.6366
955 2 18.4745 16.4701 19.1895
956 2 7.45362 26.6736 7.43162
957 2 42.602 8.66812 17.8593
958 2 44.8537 55.6512 15.028
959 2 35.3752 54.1324 38.2843
960 2 44.6368 48.0735 23.1123
961 2 8.00147 43.5558 14.1032
962 2 44.9359 43.7138 22.6693
963 2 36.063 11.145 28.8282
964 2 41.2592 53.8815 12.5336
965 2 37.66 38.1012 12.8231
966 2 21.2092 37.8274 14.0755
967 2 45.8864 31.9699 13.8324
968 2 49.1312 43.3638 9.96955
969 2 31.0765 45.7693 42.8514
970 2 44.6366 30.4544 40.6413
971 2 13.9468 34.2384 8.30493
972 2 48.1937 39.1191 33.5682
973 2 9.96282 38.8193 31.1558
974 2 41.0044 24.3435 47.5766
975 2 24.1154 49.7777 8.31498
976 2 30.977 31.2626 14.2254
977 2 30.828 31.6713 41.034
978 2 37.1403 44.3277 28.8353
979 2 31.0466 45.5086 50.0946
980 2 33.0577 19.7126 49.6303
981 2 55.1664 36.1355 27.5438
982 2 28.9149 35.7533 47.2177
983 2 11.9367 16.283 53.2683
984 2 28.0354 25.3289 12.4896
985 2 37.2924 35.5577 25.6148
986 2 48.5059 27.829 7.57967
987 2 23.3368 26.7612 17.375
988 2 24.2983 19.6079 25.815
989 2 44.4119 19.5863 8.97801
990 2 30.8184 41.258 28.0982
991 2 52.7572 25.3672 48.3202
992 2 46.2608 14.7904 25.7295
993 2 55.5539 30.2828 20.8335
994 2 52.1356 25.3339 20.2533
995 2 19.9062 38.4618 54.4814
996 2 18.3567 32.2175 34.6338
997 2 39.7884 22.2764 45.4795
998 2 44.7151 33.5424 53.6241
999 2 44.6918 17.2157 26.6796
1000 2 7.3028 20.1365 51.1163
1001 2 7.5734 6.17345 13.1725
1002 2 49.9959 52.7543 41.3351
1003 2 40.3609 48.8471 25.7162