ITEM: TIMESTEP
0
ITEM: NUMBER OF ATOMS
9088
ITEM: BOX BOUNDS xy xz yz pp pp pp
6.0762109183286945e+00 5.5854726873828319e+01 -5.7111621702994917e-15
6.0762109183286999e+00 5.5854726873828319e+01 0.0000000000000000e+00
6.0762109183286999e+00 5.5854726873828319e+01 0.0000000000000000e+00
ITEM: ATOMS id type x y z
1 2 31.6952 48.469 46.165
2 2 53.1113 38.4675 16.5687
3 2 41.0857 8.85942 53.9328
4 2 15.1315 44.37 9.09044
5 2 11.7852 33.6398 12.3296
6 2 33.0545 27.3086 35.368
7 2 14.3243 37.9398 52.5827
8 2 24.7649 9.19764 48.2877
9 2 6.52326 21.1276 10.9452
10 2 49.7372 18.3061 13.37
11 2 25.3307 9.61644 7.8465
12 2 53.1394 23.7308 28.8659
13 2 11.1805 47.2499 32.9307
14 2 46.9795 29.349 13.3594
15 2 40.9377 8.33412 28.4018
16 2 35.4546 16.1858 35.6793
17 2 14.7638 36.3579 39.5413
18 2 32.112 23.379 13.2699
19 2 15.1044 31.5167 7.52188
20 2 16.2593 32.6742 48.1124
21 2 21.1834 18.8962 26.2553
22 2 26.7228 22.438 45.296
23 2 22.7437 36.4447 38.5741
24 2 55.0713 40.2868 51.4957
25 2 38.3225 44.173 32.5625
26 2 40.6505 7.37147 37.1442
27 2 29.8548 51.0663 23.2818
28 2 45.3716 44.0444 10.288
29 2 17.9527 15.7271 39.6991
30 2 12.0828 9.77016 28.5809
31 2 36.867 48.0644 17.8591
32 2 7.32438 43.3151 55.2604
33 2 7.00545 10.5066 45.0671
34 2 35.2282 34.6299 41.7865
35 2 29.5486 36.3027 20.3332
36 2 37.5877 52.6899 11.8551
37 2 35.3797 47.4968 50.1105
38 2 20.8996 55.3059 28.2438
39 2 29.5785 8.89369 7.44209
40 2 23.9836 38.2198 26.6807
41 2 48.0553 49.3691 45.1735
42 2 18.3101 54.0043 47.6635
43 2 15.4341 45.008 50.2931
44 2 26.67 32.2796 28.8508
45 2 21.7237 23.8196 17.541
46 2 42.1469 11.3546 11.7079
47 2 13.0434 51.4935 41.5106
48 2 28.178 23.9464 31.9446
49 2 29.434 40.61 10.9029
50 2 47.8946 20.1888 26.6146
51 2 23.1675 29.7482 13.5907
52 2 22.7618 29.1217 21.2791
53 2 14.8181 36.1322 15.4217
54 2 41.2793 53.6485 28.483
55 2 12.8176 22.5691 9.26741
56 2 45.7654 42.9838 16.6003
57 2 48.5672 30.1691 51.2708
58 2 49.3936 35.7498 9.25487
59 2 13.6347 47.8092 54.6942
60 2 48.9032 27.9025 21.5601
61 2 30.3129 31.0657 35.9572
62 2 22.4418 38.4528 46.6369
63 2 50.1597 39.6736 16.0392
64 2 16.1529 36.0199 6.79792
65 2 39.847 28.1473 53.5943
66 2 39.4984 11.7102 32.0917
67 2 7.14809 47.9294 22.5842
68 2 48.5818 19.1676 7.50309
69 2 25.6972 42.2406 32.7436
70 2 54.1816 38.9816 13.4597
71 2 15.6879 38.4511 36.9882
72 2 31.8799 38.4408 55.0377
73 2 49.9238 38.619 22.6895
74 2 24.2913 47.4321 26.6955
75 2 50.2402 12.4566 34.4897
76 2 51.5072 41.1459 22.1951
77 2 26.9484 12.2869 32.1441
78 2 39.9943 23.0616 8.24378
79 2 46.8669 8.94648 33.5502
80 2 35.0238 53.5428 14.0027
81 2 32.5346 40.9987 29.1211
82 2 17.8683 8.01909 53.8021
83 2 18.3288 35.8459 30.07
84 2 40.7657 36.2286 15.8211
85 2 33.0773 41.558 47.0682
86 2 30.7013 38.261 34.9819
87 2 22.8622 32.5032 9.94954
88 2 11.181 19.5745 18.3948
89 2 52.8841 47.8656 44.0777
90 2 24.761 21.5902 25.263
91 2 33.0829 9.29786 45.3189
92 2 17.4352 14.0322 31.2274
93 2 52.5513 52.276 36.1737
94 2 42.6669 45.1687 9.32004
95 2 39.1015 11.073 51.6121
96 2 51.6994 47.4385 31.3965
97 2 37.5929 38.4257 13.3357
98 2 18.2796 24.1998 53.5245
99 2 21.5049 11.0516 32.4578
100 2 53.4005 20.5681 29.0724
101 2 27.4002 29.5778 13.0517
102 2 42.2399 53.009 20.453
103 2 55.1385 26.7552 55.7629
104 2 18.2677 37.2733 46.8174
105 2 10.091 27.7781 25.2499
106 2 48.769 45.0453 32.271
107 2 38.236 55.4418 21.5377
108 2 29.679 49.7609 52.5824
109 2 11.9312 14.2266 6.88287
110 2 19.5429 30.4435 13.0995
111 2 12.8755 20.2217 10.931
112 2 29.4238 26.7114 13.1295
113 2 36.1654 47.3739 7.81607
114 2 29.79 6.41908 31.8773
115 2 35.1416 54.4077 30.0662
116 2 34.2465 8.42725 53.9465
117 2 22.9626 25.6359 47.9453
118 2 25.1783 41.8234 18.9398
119 2 7.52109 12.1008 7.85216
120 2 15.9799 39.1165 26.495
121 2 7.00826 22.0747 49.2234
122 2 22.6179 6.23099 13.5464
123 2 36.877 11.524 28.2435
124 2 22.7118 41.0267 12.934
125 2 6.30706 26.0312 17.4829
126 2 32.1318 55.8175 54.3434
127 2 9.83886 21.2669 46.0648
128 2 44.8974 43.8949 39.5459
129 2 25.7664 34.085 19.1685
130 2 40.6822 30.0141 51.7066
131 2 51.2752 19.1892 20.3314
132 2 24.256 9.37444 12.3648
133 2 31.2505 40.9242 19.1688
134 2 19.2085 41.4428 48.3435
135 2 26.4039 55.4694 51.2634
136 2 52.4354 7.36007 23.1379
137 2 13.8007 48.9411 31.4268
138 2 40.6912 22.807 37.4776
139 2 51.0669 21.2171 41.8693
140 2 9.07173 40.0608 32.1484
141 2 38.9136 36.7139 33.8928
142 2 21.7204 10.8268 52.5715
143 2 43.374 24.0511 53.103
144 2 11.8763 18.1807 39.6988
145 2 34.7249 24.1494 28.2474
146 2 19.4207 13.4313 52.9025
147 2 28.6057 47.3596 37.2624
148 2 17.0738 28.2621 6.84892
149 2 25.7193 21.7477 10.5308
150 2 15.4249 42.7298 45.372
151 2 9.55601 45.9953 17.8174
152 2 13.0515 13.6303 34.2673
153 2 14.2802 49.5075 14.1309
154 2 32.7409 26.4113 45.0453
155 2 30.3031 13.6541 24.624
156 2 27.872 50.8843 16.5392
157 2 26.0507 9.14302 31.9924
158 2 42.426 43.3865 30.2771
159 2 16.779 13.0381 40.0186
160 2 22.4774 22.0248 14.8909
161 2 24.3697 41.044 9.72265
162 2 36.5674 21.6403 24.4677
163 2 38.4038 22.2741 43.0741
164 2 28.0549 8.21461 45.5977
165 2 25.4795 33.1938 40.4615
166 2 21.9784 38.1644 8.5193
167 2 19.1108 51.3542 10.0192
168 2 53.0718 13.7907 54.3758
169 2 30.7328 41.0542 26.8676
170 2 9.15449 39.0712 27.2679
171 2 16.0465 11.3257 7.82881
172 2 11.6314 32.6986 54.5745
173 2 6.36084 29.3821 42.3934
174 2 11.037 21.1817 7.00744
175 2 12.4338 40.1067 24.0533
176 2 41.1168 26.2482 49.0742
177 2 43.3927 54.824 8.35802
178 2 28.3955 46.8435 42.5274
179 2 14.1934 50.3708 46.2165
180 2 52.4851 54.3601 33.5342
181 2 53.8191 29.3 44.1942
182 2 35.1868 39.6235 28.3487
183 2 42.7576 48.0556 29.3286
184 2 51.992 35.867 25.5049
185 2 30.7532 29.676 51.7365
186 2 47.514 22.0468 10.2532
187 2 27.9619 48.7515 40.174
188 2 44.288 46.655 46.6866
189 2 49.0946 51.4105 33.6084
190 2 27.8943 36.4483 7.31218
191 2 18.8291 7.57037 21.6529
192 2 31.7503 16.2914 15.7235
193 2 49.2582 40.914 43.622
194 2 35.3604 13.848 30.3813
195 2 48.4974 30.7815 34.8958
196 2 25.8719 17.3221 27.645
197 2 14.3169 17.9606 12.2073
198 2 35.5773 28.822 23.5228
199 2 35.9293 38.6416 19.1895
200 2 51.4654 49.8285 35.8935
201 2 54.3499 44.7629 16.599
202 2 22.3412 31.8875 40.7229
203 2 20.1159 41.2482 25.3491
204 2 32.1081 10.3811 27.019
205 2 18.5069 18.5554 49.5064
206 2 39.3496 25.7479 17.6865
207 2 53.0677 7.91326 46.7995
208 2 12.8901 7.34156 26.2807
209 2 50.4631 51.0434 55.5923
210 2 10.2356 24.7969 19.2901
211 2 41.5593 35.8676 55.1841
212 2 36.5353 53.4268 32.7842
213 2 6.89852 10.8049 47.9311
214 2 6.92859 26.0985 11.14
215 2 54.8146 44.074 20.2112
216 2 43.6345 40.4991 17.5169
217 2 49.1212 22.9541 38.3397
218 2 20.3028 38.1863 16.0463
219 2 49.4656 35.5185 23.0392
220 2 17.6445 35.5468 25.8879
221 2 17.3431 43.6194 26.3227
222 2 40.9318 19.3616 16.1204
223 2 25.888 18.5056 12.6993
224 2 9.74598 45.2147 51.8865
225 2 16.5389 51.4506 44.1836
226 2 39.4632 12.4735 15.342
227 2 45.1158 15.2474 21.6664
228 2 25.4305 8.66588 42.9733
229 2 25.8613 25.3406 34.7668
230 2 24.4163 33.602 26.8487
231 2 42.0735 39.0554 13.1342
232 2 27.8208 47.7278 12.6566
233 2 42.0058 55.5794 14.6924
234 2 11.5712 9.88111 36.179
235 2 46.5562 8.10765 40.7931
236 2 29.0969 9.27499 16.199
237 2 17.9232 48.1059 33.4828
238 2 36.1822 7.14988 6.51044
239 2 16.0659 41.2597 48.1539
240 2 52.8485 17.5238 38.4298
241 2 24.2224 54.3473 39.7365
242 2 24.6904 13.9843 13.0736
243 2 18.432 22.1638 49.0328
244 2 19.6164 46.5434 8.92629
245 2 40.1065 41.017 26.7728
246 2 13.2722 36.466 33.0678
247 2 48.2746 30.242 18.4406
248 2 50.3364 44.2134 40.1232
249 2 42.9076 49.961 21.6787
250 2 49.8949 23.5789 49.1389
251 2 20.4298 32.8726 11.9109
252 2 52.71 26.4017 35.663
253 2 11.3821 53.4764 54.7827
254 2 9.87053 33.2244 35.1284
255 2 26.6489 51.9658 14.2902
256 2 9.91051 38.6887 52.2323
257 2 14.7299 23.9606 36.3852
258 2 15.9489 45.8432 34.2289
259 2 51.1001 42.9926 14.0859
260 2 32.1088 55.7086 47.9632
261 2 54.1617 50.8981 20.2329
262 2 45.3553 21.4909 50.2229
263 2 17.4612 51.9196 51.631
264 2 52.4493 26.9938 10.5143
265 2 27.8918 47.9768 54.8336
266 2 55.0877 23.7842 39.4399
267 2 51.8689 11.6586 47.3314
268 2 55.1334 49.1761 50.7357
269 2 21.7803 24.4497 14.4678
270 2 33.0352 16.9 43.3284
271 2 11.9234 17.5911 43.0618
272 2 54.9442 33.3389 27.514
273 2 21.1334 54.099 43.1622
274 2 33.4177 53.9705 22.0302
275 2 47.3921 20.4348 42.546
276 2 10.2034 41.4354 29.7401
277 2 43.6782 49.3824 25.0708
278 2 11.6483 41.3204 13.0935
279 2 48.1589 9.04213 47.7039
280 2 30.3787 33.1575 21.0214
281 2 28.2243 32.3114 18.9593
282 2 27.9403 34.7862 29.0956
283 2 31.4058 40.184 7.47577
284 2 12.2399 17.4299 36.0257
285 2 44.7417 11.564 30.873
286 2 20.7936 30.7511 19.8937
287 2 53.1301 37.4576 55.1865
288 2 52.096 40.0716 9.49657
289 2 22.1925 26.2132 44.8728
290 2 53.0046 37.9594 52.098
291 2 15.8742 18.2266 25.6262
292 2 55.521 15.5782 10.0646
293 2 22.3377 26.031 19.9795
294 2 9.44672 41.7442 21.1754
295 2 32.1802 35.2659 47.4217
296 2 17.8725 17.4064 17.2954
297 2 30.6932 13.9792 17.661
298 2 52.9489 29.3998 19.7827
299 2 32.6422 9.08757 30.2266
300 2 39.7349 20.3442 44.9782
301 2 36.4688 10.0674 52.2371
302 2 46.4351 16.4374 41.1539
303 2 23.4676 28.3237 41.1371
304 2 31.4254 29.6728 33.869
305 2 28.6793 17.1479 23.941
306 2 46.6332 48.0213 42.7977
307 2 25.7389 29.7769 34.8219
308 2 18.9842 10.791 34.6129
309 2 38.0441 15.2766 31.8184
310 2 8.19255 25.5619 53.8848
311 2 13.2305 36.9281 21.4483
312 2 43.375 25.3502 26.4568
313 2 25.503 6.8812 18.8689
314 2 43.488 18.0317 54.5929
315 2 53.0203 51.5886 23.2342
316 2 50.1217 14.2108 20.7529
317 2 43.7852 25.6438 19.6635
318 2 16.4977 18.4491 30.2927
319 2 7.41249 53.5359 35.1349
320 2 52.4332 37.8025 33.5141
321 2 46.9668 23.8633 8.09126
322 2 12.5725 40.244 49.0446
323 2 47.5865 33.8385 7.99115
324 2 44.8137 13.9758 25.099
325 2 25.8696 55.659 35.0497
326 2 20.4514 9.83026 27.1362
327 2 35.4276 15.2369 39.3277
328 2 19.6241 54.8757 23.0975
329 2 43.0338 21.3268 30.4776
330 2 36.0506 7.89135 21.7582
331 2 51.0046 27.6632 23.3417
332 2 45.9054 24.5967 15.4116
333 2 17.774 47.5006 37.717
334 2 16.0052 31.3572 39.2927
335 2 46.5059 20.0001 36.2016
336 2 29.1391 14.4166 33.8518
337 2 23.4695 40.843 48.7958
338 2 7.62124 33.1017 55.6677
339 2 35.7596 32.125 22.7418
340 2 7.94665 47.6431 34.249
341 2 13.6664 22.6735 49.7263
342 2 44.7199 13.635 37.4029
343 2 45.1951 36.1837 15.8167
344 2 7.90872 16.3199 37.3884
345 2 15.4343 23.0841 11.4991
346 2 6.52181 20.0113 50.9824
347 2 9.13736 41.7297 48.681
348 2 44.2562 51.3167 49.313
349 2 25.7971 9.65869 54.4075
350 2 36.188 24.6942 48.3497
351 2 51.6299 9.73169 54.5617
352 2 28.7385 15.5974 39.0528
353 2 28.668 45.365 11.0638
354 2 45.5907 27.5961 53.5264
355 2 21.135 48.6848 28.0519
356 2 42.8342 45.4499 51.3049
357 2 27.3736 54.7461 47.0188
358 2 51.3297 38.0042 49.196
359 2 14.7211 36.8178 42.4673
360 2 16.3167 48.3053 11.6961
361 2 43.3761 18.3027 44.935
362 2 21.847 15.2091 6.80726
363 2 42.4083 25.4912 22.316
364 2 20.8409 48.2503 22.6537
365 2 21.331 24.4076 35.273
366 2 15.389 8.02824 41.5262
367 2 48.786 46.7479 9.57098
368 2 19.8667 43.774 36.3517
369 2 23.9861 46.5561 38.5389
370 2 8.22324 28.4362 16.6985
371 2 10.4626 43.4977 14.779
372 2 9.67846 12.3967 23.1881
373 2 21.4344 51.1769 32.5307
374 2 38.7296 46.8625 41.3328
375 2 29.3867 32.3983 9.31235
376 2 29.9804 20.7838 26.3366
377 2 12.9112 11.5044 10.895
378 2 22.7115 51.2404 43.4682
379 2 19.6984 36.1769 37.56
380 2 54.8465 51.583 30.7352
381 2 13.0089 9.93555 19.449
382 2 17.1647 37.4533 54.1078
383 2 8.23994 21.1276 22.1951
384 2 16.2721 45.1329 40.209
385 2 10.2186 37.4919 10.83
386 2 42.5019 47.5343 44.4343
387 2 46.1555 44.2825 45.5597
388 2 11.4628 25.4147 21.7098
389 2 17.5092 39.5098 17.1263
390 2 13.9011 48.5063 50.6215
391 2 14.5026 43.9303 21.2621
392 2 53.1701 41.5693 45.8452
393 2 38.2502 9.85182 22.639
394 2 21.7688 44.978 11.1512
395 2 31.2861 16.5958 23.0259
396 2 38.7647 21.5731 14.3919
397 2 12.219 19.4908 22.1763
398 2 29.5688 44.5406 44.9872
399 2 34.7305 39.2359 40.4557
400 2 17.0065 53.5272 22.237
401 2 12.0253 28.2245 54.0471
402 2 48.1012 18.272 45.0811
403 2 9.9493 41.2207 25.2102
404 2 24.0686 14.4034 19.1084
405 2 20.0528 10.0782 10.4228
406 2 26.5864 42.2368 14.3222
407 2 32.842 50.6154 29.9105
408 2 37.1004 14.5481 20.95
409 2 48.232 47.067 19.8255
410 2 53.3946 24.6417 44.6171
411 2 19.7829 7.57729 35.0366
412 2 27.598 33.2251 23.6141
413 2 7.71423 47.3669 29.5475
414 2 46.5281 37.8121 41.946
415 2 55.0971 26.6594 42.8552
416 2 46.4488 27.0193 9.72427
417 2 14.8751 21.5863 52.2041
418 2 15.8402 6.61069 13.5516
419 2 37.4084 29.3819 38.0067
420 2 17.9431 15.4015 6.22405
421 2 25.4318 47.8788 46.6297
422 2 37.2781 47.1365 32.408
423 2 43.1778 20.806 27.4025
424 2 46.6474 49.4177 29.4525
425 2 11.0112 35.827 18.0224
426 2 22.5495 18.1131 7.85605
427 2 29.2482 14.3833 48.4555
428 2 12.4544 15.4493 47.7609
429 2 22.3383 14.1041 25.0445
430 2 45.4698 39.052 46.8795
431 2 24.0799 54.3602 20.6027
432 2 22.2004 32.5344 48.9483
433 2 20.9795 9.8897 7.90692
434 2 10.0946 30.8773 12.6806
435 2 27.6027 27.6372 34.7673
436 2 7.05232 52.9632 53.317
437 2 21.0203 54.6306 34.547
438 2 39.3468 42.694 44.7579
439 2 18.6797 32.8912 9.07246
440 2 6.54388 23.5792 8.71367
441 2 34.0192 27.1228 21.5642
442 2 40.7861 13.8215 23.3585
443 2 51.8542 22.6292 36.8923
444 2 30.4422 35.3566 55.3187
445 2 48.048 52.5029 46.2157
446 2 55.1905 53.1576 13.6541
447 2 25.7405 20.2277 29.0527
448 2 15.6605 8.41421 25.4113
449 2 28.3344 24.4895 47.9961
450 2 22.3556 45.2722 34.6936
451 2 54.2211 41.5429 48.5202
452 2 43.1438 30.4991 39.6326
453 2 19.6016 22.6707 34.1037
454 2 38.2497 10.5186 6.44679
455 2 46.4491 52.8999 7.96394
456 2 24.0742 26.8788 13.9529
457 2 21.1263 52.2722 21.9858
458 2 41.3866 24.5697 55.5759
459 2 50.0067 10.4221 13.4083
460 2 55.4008 22.5074 45.2246
461 2 29.4349 25.2976 18.3834
462 2 20.8368 40.1713 28.4114
463 2 49.9638 21.952 54.8538
464 2 29.3292 26.2271 9.83475
465 2 52.4152 52.2743 44.9965
466 2 31.3264 45.149 18.5308
467 2 17.0238 20.4359 26.5337
468 2 38.5441 7.67975 54.8895
469 2 50.0784 7.06314 54.4363
470 2 42.4777 53.5648 17.0224
471 2 37.3931 7.32759 14.4801
472 2 36.237 26.7739 19.0158
473 2 47.3187 17.9589 38.5869
474 2 15.8262 27.146 27.4518
475 2 37.3923 32.4021 54.2442
476 2 13.1903 27.9641 25.7393
477 2 32.3378 38.9362 25.1142
478 2 21.9577 37.4979 28.305
479 2 35.1364 9.3622 31.4377
480 2 20.3391 17.5847 38.6444
481 2 18.3549 34.0255 39.3478
482 2 28.7629 23.1928 25.6408
483 2 55.3524 27.4575 24.2818
484 2 44.6242 18.6698 12.3934
485 2 16.2577 14.2936 14.1389
486 2 43.7256 41.2104 6.4277
487 2 28.8334 7.63793 51.1096
488 2 6.99097 14.7991 30.3708
489 2 52.6125 35.8868 9.76856
490 2 34.699 43.6239 19.7732
491 2 33.947 34.6598 12.309
492 2 33.8967 23.5604 44.5564
493 2 39.952 29.4361 48.96
494 2 49.6828 10.9876 9.60968
495 2 11.1138 9.27886 46.3672
496 2 45.0628 11.6715 27.9342
497 2 52.3967 26.431 7.17043
498 2 16.8672 53.4564 16.214
499 2 51.69 50.2386 47.4765
500 2 6.37476 18.4909 39.4173
501 2 14.5063 30.0932 27.2689
502 2 31.2337 43.5852 36.027
503 2 21.1487 55.5703 51.6824
504 2 24.4812 25.1717 18.2968
505 2 20.7892 27.8549 12.8119
506 2 14.7966 15.7058 42.7104
507 2 19.5829 16.2235 24.6816
508 2 49.8374 41.3421 53.0257
509 2 12.7143 46.3699 52.1103
510 2 41.32 19.3509 48.7158
511 2 26.4433 44.7291 33.5596
512 2 46.512 11.5843 19.4306
513 2 31.2348 14.5522 52.205
514 2 48.6092 25.0216 10.7953
515 2 34.0553 37.1899 32.3555
516 2 40.7198 27.5497 29.5046
517 2 29.4872 30.561 24.2918
518 2 28.1269 38.3259 24.3615
519 2 33.1417 55.7021 34.519
520 2 42.8046 25.6756 40.2209
521 2 10.24 44.7868 49.2236
522 2 28.6952 52.8144 41.0746
523 2 23.9396 55.0931 16.3614
524 2 39.2185 10.1094 12.8388
525 2 44.9975 6.4944 19.2767
526 2 29.7109 21.8092 49.474
527 2 46.774 33.6953 12.3681
528 2 13.5121 33.0075 24.0494
529 2 37.4802 41.6157 32.0314
530 2 44.197 45.5869 32.0753
531 2 14.8959 26.6642 11.7931
532 2 32.7793 19.0759 47.4098
533 2 23.2385 53.8748 55.1367
534 2 21.5358 42.5628 9.13749
535 2 6.3905 47.103 16.3748
536 2 49.9696 29.3282 39.1269
537 2 10.4095 11.0876 38.7396
538 2 21.2638 53.1544 38.4601
539 2 6.99635 7.64761 38.9083
540 2 40.1037 37.8584 44.705
541 2 52.9519 11.0711 31.3268
542 2 25.1614 40.7717 28.4006
543 2 34.8571 41.2958 12.991
544 2 28.6394 10.8068 51.1531
545 2 19.0911 51.1522 36.147
546 2 26.2535 31.7556 21.2269
547 2 15.0223 35.935 24.2437
548 2 52.2956 31.0507 15.5412
549 2 51.0983 20.6899 13.476
550 2 44.1393 8.89482 17.967
551 2 9.08109 10.8647 55.038
552 2 40.3433 9.85916 39.3821
553 2 17.4155 43.8919 16.9747
554 2 11.3782 41.4223 46.8744
555 2 34.7059 40.0405 9.52572
556 2 25.2303 33.9785 10.0385
557 2 11.824 51.2539 11.9847
558 2 7.05199 7.1717 7.42425
559 2 37.3949 39.8774 42.5157
560 2 24.1738 18.795 46.9191
561 2 7.4923 47.8764 19.1166
562 2 12.2596 47.4108 10.8544
563 2 27.7492 27.7174 38.5736
564 2 29.1244 54.137 51.1576
565 2 50.0362 31.647 6.24707
566 2 45.743 19.7507 47.0181
567 2 17.1407 28.6457 16.6507
568 2 36.7982 34.9627 16.8956
569 2 47.9229 10.0212 42.9831
570 2 40.8876 55.7004 11.851
571 2 55.0678 46.6905 54.5455
572 2 51.1892 33.5385 49.3412
573 2 35.7274 47.0584 42.547
574 2 32.1148 34.6622 41.0294
575 2 27.8277 51.2814 48.3245
576 2 27.3849 35.741 12.1315
577 2 29.3036 46.0997 26.8428
578 2 16.5997 41.6064 34.4334
579 2 21.7189 14.7821 42.0526
580 2 17.379 38.6939 12.8786
581 2 17.6888 50.6952 55.0917
582 2 40.2609 32.7582 48.1603
583 2 12.1327 46.215 37.1894
584 2 47.4442 12.5665 16.7275
585 2 42.5097 46.1794 54.0634
586 2 13.5885 21.378 37.5982
587 2 49.1979 30.4482 45.9639
588 2 30.7295 32.2615 6.34419
589 2 34.8533 24.1659 51.6289
590 2 38.3542 16.2799 12.8816
591 2 43.3164 38.1008 19.915
592 2 52.827 10.7605 20.5678
593 2 19.7907 30.2878 42.8494
594 2 31.8559 51.8055 45.9571
595 2 44.5637 51.8624 16.4964
596 2 39.2352 15.3242 28.6665
597 2 35.8827 37.337 42.3583
598 2 33.0354 9.92371 11.7955
599 2 36.0944 54.1252 42.2314
600 2 13.7476 40.0492 55.1066
601 2 39.0581 29.2841 31.4438
602 2 43.0553 55.7062 51.6741
603 2 28.5459 43.814 29.7373
604 2 44.6832 50.3572 52.1434
605 2 6.9877 24.8892 25.3318
606 2 21.3081 25.2045 24.2693
607 2 35.5538 29.7049 34.4028
608 2 54.475 15.0535 44.9157
609 2 42.8183 54.9213 30.6557
610 2 26.3844 49.3772 28.2534
611 2 48.2859 20.2071 14.803
612 2 18.5837 45.5165 42.9663
613 2 15.4692 32.5628 36.6464
614 2 47.6545 6.54012 55.6677
615 2 16.5564 21.5319 33.9311
616 2 8.29614 8.22877 46.2759
617 2 15.3667 14.3104 53.7486
618 2 10.8665 8.38394 51.6764
619 2 27.1956 12.4597 27.5725
620 2 32.6813 40.8727 42.2535
621 2 26.1272 51.0148 32.2767
622 2 43.2953 22.0868 35.6644
623 2 25.2759 20.4716 42.7805
624 2 29.9604 50.8714 29.7542
625 2 51.3431 30.3321 27.9486
626 2 22.5171 34.0513 29.6118
627 2 53.0301 52.5032 15.9611
628 2 55.5404 6.81826 45.5259
629 2 16.0976 53.1033 6.44534
630 2 18.5913 33.7045 23.9205
631 2 50.3065 17.54 32.1031
632 2 26.9962 23.3485 21.5191
633 2 7.89497 53.3441 27.0604
634 2 48.4339 37.1917 14.9751
635 2 26.4953 52.7497 52.3216
636 2 48.0865 34.3145 48.9787
637 2 32.945 50.793 11.3331
638 2 36.2627 34.7859 21.297
639 2 14.4248 35.0005 19.3835
640 2 32.1149 11.8481 10.0317
641 2 23.7843 25.748 54.61
642 2 33.8407 33.8657 44.906
643 2 41.6295 12.4004 20.7731
644 2 31.3775 9.40117 14.0976
645 2 36.0133 44.0783 11.3011
646 2 22.6704 19.3012 39.9406
647 2 18.9535 25.1836 6.73816
648 2 22.7822 45.0799 52.7521
649 2 9.43852 14.5044 39.4053
650 2 44.1129 44.3077 20.4496
651 2 9.17797 53.542 37.2799
652 2 10.8603 52.8155 49.7745
653 2 43.7229 36.911 7.07281
654 2 49.5475 7.86621 34.1592
655 2 6.84652 48.6125 55.3469
656 2 43.2056 46.175 24.5271
657 2 42.4707 48.5223 32.3807
658 2 48.173 33.8636 30.2862
659 2 30.2129 45.4785 55.5339
660 2 9.0875 38.3606 21.649
661 2 38.1073 28.62 22.5405
662 2 18.5065 47.9267 15.5377
663 2 55.33 40.1345 22.9058
664 2 30.009 6.31628 20.1686
665 2 11.5339 21.7575 26.0813
666 2 16.0835 10.861 47.8233
667 2 34.9954 54.2074 19.3443
668 2 52.7882 44.0465 7.54721
669 2 43.8541 31.2192 34.5197
670 2 40.3282 55.7201 32.3165
671 2 17.8263 49.0932 7.81169
672 2 11.8146 22.6134 18.5122
673 2 23.4404 30.7622 18.4287
674 2 54.5138 8.62623 8.7155
675 2 36.2785 20.6087 41.953
676 2 33.9229 27.8549 40.9743
677 2 38.6865 8.01649 25.8848
678 2 47.2194 29.6642 31.5924
679 2 8.51707 29.8495 26.4183
680 2 22.6963 36.203 44.0332
681 2 6.94491 28.9678 9.49474
682 2 42.766 55.2707 38.1233
683 2 21.8595 51.9987 8.48557
684 2 16.5131 27.0191 41.7722
685 2 27.5546 39.0139 55.171
686 2 50.1796 49.7747 23.0805
687 2 39.1228 45.0221 28.0785
688 2 12.9823 32.766 51.0108
689 2 45.3209 6.63511 44.8224
690 2 38.6504 21.295 35.8774
691 2 22.9613 10.6602 39.4691
692 2 23.1216 52.0299 16.0086
693 2 47.1611 33.9966 25.3393
694 2 53.4433 29.8422 10.0873
695 2 20.7451 40.0279 44.337
696 2 33.6288 8.89262 18.0867
697 2 48.5843 38.6902 26.7376
698 2 44.0057 13.0959 54.2029
699 2 44.996 16.6299 51.687
700 2 47.5601 50.1616 36.5264
701 2 54.9451 9.37646 55.5395
702 2 14.8457 31.0494 41.8603
703 2 46.4791 14.8961 18.9336
704 2 24.7288 34.519 53.2184
705 2 51.4743 52.7528 49.8152
706 2 21.4223 7.0396 6.5901
707 2 10.2536 34.0264 22.2991
708 2 13.8208 48.1572 23.1279
709 2 23.3656 21.8328 46.2703
710 2 49.6615 44.4674 53.4545
711 2 16.2059 53.4976 26.5526
712 2 24.1361 35.8353 46.5413
713 2 30.8678 53.259 8.8121
714 2 11.4974 35.469 14.9826
715 2 54.7166 36.6377 21.1267
716 2 31.1732 8.56412 47.2298
717 2 20.253 29.3504 30.304
718 2 8.93646 46.8087 41.5796
719 2 17.842 12.7022 44.047
720 2 35.2401 44.9889 33.4148
721 2 51.48 13.8361 27.4985
722 2 8.66793 14.154 12.0057
723 2 11.5995 50.3259 55.0197
724 2 30.6804 25.4419 25.7309
725 2 7.55823 52.4319 17.9658
726 2 47.0634 7.99985 37.7426
727 2 16.3283 11.0232 28.054
728 2 43.8521 24.1168 50.0779
729 2 39.0352 52.3374 20.8467
730 2 48.2393 37.4336 47.3876
731 2 26.8038 42.4973 26.7186
732 2 36.0267 6.14958 51.4979
733 2 30.0358 10.5859 24.8576
734 2 32.3405 43.2681 26.7425
735 2 9.46304 28.3929 48.5621
736 2 6.09559 22.6663 42.0842
737 2 20.2333 48.0843 39.3889
738 2 55.2803 12.0976 10.792
739 2 36.6242 50.7264 44.9208
740 2 23.391 8.22543 9.03786
741 2 20.3437 24.6552 48.5283
742 2 54.9763 38.4163 33.1594
743 2 25.0779 22.0767 35.2967
744 2 24.1478 50.9433 29.6404
745 2 49.1179 15.6455 14.3532
746 2 12.6108 30.7928 16.6481
747 2 45.1469 24.1401 36.5055
748 2 7.71917 39.2009 37.9486
749 2 55.4558 35.3812 35.0959
750 2 28.8889 48.3205 31.2847
751 2 10.5772 9.38038 33.0623
752 2 10.1771 10.967 19.2669
753 2 45.9706 14.3747 50.585
754 2 34.971 10.7135 22.3826
755 2 11.8522 22.4571 21.3891
756 2 48.3616 7.57563 12.3788
757 2 8.1011 9.88211 30.3598
758 2 23.9538 34.9389 34.5204
759 2 52.3989 48.5399 51.4514
760 2 33.6137 29.7662 30.8992
761 2 28.8881 49.7525 42.9215
762 2 19.0018 53.5417 18.3688
763 2 14.2381 24.0098 22.6927
764 2 6.20114 26.0854 48.2538
765 2 52.7105 45.2859 53.4171
766 2 14.2381 39.6569 13.0863
767 2 40.0967 51.8926 55.0064
768 2 22.7968 47.4281 20.9115
769 2 42.2018 9.41081 8.95784
770 2 10.4497 32.9485 44.2567
771 2 9.05055 38.1474 18.4538
772 2 38.0972 10.4609 17.9343
773 2 17.3505 23.598 37.9357
774 2 13.2008 36.3625 36.3802
775 2 51.133 33.5497 36.7405
776 2 17.7912 15.7303 28.9152
777 2 23.2341 26.6831 51.3235
778 2 7.28443 36.0705 43.8734
779 2 52.0156 27.9017 27.103
780 2 46.0188 54.3012 31.6379
781 2 51.1114 47.2564 21.7128
782 2 24.9835 51.7148 18.4675
783 2 47.4545 45.5493 38.7404
784 2 55.4916 52.68 9.07391
785 2 53.9601 20.5553 47.851
786 2 23.7507 7.40937 28.3334
787 2 6.54158 25.2512 51.6843
788 2 14.2305 33.8858 8.52959
789 2 29.2888 35.1831 38.2949
790 2 45.0018 14.2168 29.8995
791 2 47.93 27.364 18.5745
792 2 48.95 22.6819 30.3257
793 2 50.4095 26.4152 39.817
794 2 41.3212 21.3532 53.3171
795 2 55.2794 24.874 34.9732
796 2 50.8226 9.12042 16.6945
797 2 46.9577 54.0995 19.3809
798 2 16.2604 23.7409 47.7156
799 2 41.4532 18.6707 30.1905
800 2 32.0249 14.3105 20.753
801 2 55.4407 12.6469 27.6176
802 2 45.429 12.289 22.2603
803 2 37.4351 48.8219 9.88902
804 2 11.4767 35.4444 47.578
805 2 16.8393 10.5539 17.6253
806 2 28.6242 20.6192 21.2445
807 2 51.0011 17.571 18.2736
808 2 55.0755 8.35743 20.8698
809 2 33.2104 32.8763 30.3872
810 2 32.6386 46.17 29.7583
811 2 35.0119 37.9403 48.7454
812 2 9.01616 33.5702 17.1886
813 2 30.8484 52.4157 16.6036
814 2 31.0841 43.2159 10.9132
815 2 34.2466 26.6751 9.12487
816 2 44.3791 20.7017 42.2057
817 2 26.0554 52.4393 38.8305
818 2 14.0133 44.9723 54.2815
819 2 9.42957 47.4661 11.9392
820 2 28.2279 21.3099 8.94274
821 2 45.1126 42.2057 51.9765
822 2 17.4861 7.78283 39.3597
823 2 34.043 27.7592 14.1606
824 2 46.9933 40.4164 12.6797
825 2 8.14329 43.2388 35.9497
826 2 6.90313 15.9362 14.1863
827 2 26.7008 27.1741 19.285
828 2 41.7465 48.0847 41.31
829 2 15.2915 41.2277 9.37115
830 2 19.0665 20.9707 51.5754
831 2 12.5909 47.9472 19.7339
832 2 42.9285 33.1012 37.1024
833 2 32.5402 18.0733 26.0546
834 2 9.24304 20.1477 39.6471
835 2 14.9649 27.0372 53.0176
836 2 41.3141 49.4891 26.9801
837 2 55.8003 41.043 31.5698
838 2 21.5414 47.3169 54.1922
839 2 24.2344 29.9465 32.0062
840 2 53.3137 29.9224 25.1659
841 2 38.726 14.681 39.0424
842 2 16.2011 15.2995 37.6061
843 2 14.436 6.18264 45.6437
844 2 11.9914 43.7483 18.1041
845 2 28.1407 23.7129 36.1342
846 2 34.909 40.884 49.1453
847 2 9.73199 31.3002 15.5345
848 2 34.515 32.2544 40.3309
849 2 28.2012 17.1512 49.9402
850 2 21.6262 16.1074 19.9084
851 2 52.3473 11.1172 17.2275
852 2 26.3562 44.2081 49.4373
853 2 54.1901 31.505 36.374
854 2 23.1376 26.0148 27.4709
855 2 44.9236 27.7232 21.6904
856 2 22.4979 14.1059 33.3387
857 2 23.6329 6.87805 49.8091
858 2 36.7426 25.0438 42.5342
859 2 23.8006 21.7338 32.5325
860 2 41.6824 23.4824 32.6766
861 2 6.55937 35.6482 7.93701
862 2 25.7376 47.1248 16.8033
863 2 27.4029 49.1182 23.3952
864 2 39.7302 23.8158 46.5503
865 2 27.3875 17.4003 53.0727
866 2 24.5442 41.4711 35.8822
867 2 22.5861 17.5441 10.7781
868 2 47.3064 22.8173 13.052
869 2 45.4016 16.0431 16.06
870 2 29.1908 52.7534 44.7411
871 2 18.8085 42.8454 32.7033
872 2 6.73596 19.8619 24.0119
873 2 31.9988 7.24548 36.9459
874 2 13.3956 10.6853 31.7923
875 2 45.5214 22.6013 53.9478
876 2 6.72381 13.2121 36.7252
877 2 40.4355 31.7702 15.4682
878 2 40.3052 45.3711 43.8237
879 2 32.1633 37.3698 29.9774
880 2 31.3175 14.2248 27.2174
881 2 22.2407 20.752 42.7664
882 2 38.144 20.1438 47.5447
883 2 20.1755 35.2384 48.4451
884 2 42.4013 32.7718 41.7265
885 2 33.9523 33.6944 33.3167
886 2 29.7061 49.952 33.8538
887 2 9.43387 35.1769 7.553
888 2 54.44 11.1271 51.5012
889 2 52.8768 17.6346 10.3694
890 2 7.28525 40.0445 20.2537
891 2 10.6166 43.5084 27.8241
892 2 9.21905 28.9118 34.0536
893 2 7.2898 21.3284 38.3577
894 2 11.1384 13.4324 15.514
895 2 50.5286 24.8898 27.9608
896 2 47.4012 19.2521 21.6657
897 2 38.4883 17.0099 6.2313
898 2 26.0014 26.8538 48.0266
899 2 16.5658 26.4073 34.9474
900 2 9.87981 35.8359 33.643
901 2 16.5613 32.2387 28.0641
902 2 19.9043 45.1819 30.7967
903 2 6.66797 33.7775 48.718
904 2 39.1266 15.8962 18.8657
905 2 15.0543 13.5209 18.9857
906 2 33.0479 45.9265 42.3316
907 2 35.4944 30.6572 26.9214
908 2 53.8834 54.1978 49.6906
909 2 16.6143 52.755 9.75577
910 2 44.9055 48.1377 36.7866
911 2 43.1464 12.4156 49.7396
912 2 17.7351 42.7192 21.261
913 2 39.0558 14.7782 25.8518
914 2 45.8934 17.9462 8.48472
915 2 26.6816 32.6722 49.1593
916 2 28.2007 8.94875 35.8469
917 2 48.4888 50.2885 9.40746
918 2 22.5944 47.3134 43.3646
919 2 31.8031 17.9996 37.5285
920 2 9.91297 44.7646 30.5523
921 2 39.0358 26.5196 25.06
922 2 21.3313 40.398 35.3664
923 2 6.78413 40.9338 13.489
924 2 55.4611 49.8519 44.4002
925 2 17.6372 9.99494 42.8916
926 2 54.5034 33.38 7.19659
927 2 40.5334 36.426 25.7569
928 2 42.5487 28.3619 23.0839
929 2 38.6431 49.1958 14.9224
930 2 39.65 37.7524 9.20934
931 2 37.6588 29.4869 19.3542
932 2 30.1801 40.5365 48.69
933 2 50.0532 19.3857 38.3178
934 2 35.8354 47.6305 35.4105
935 2 38.958 7.877 30.2846
936 2 23.6378 22.6523 28.0981
937 2 38.6983 44.3531 48.2407
938 2 25.7696 46.9453 50.7096
939 2 16.4016 40.2034 23.1762
940 2 34.0432 52.1153 35.6499
941 2 34.3025 40.6331 35.0783
942 2 16.5093 22.1873 54.3242
943 2 37.3708 12.0496 43.5494
944 2 12.7869 49.7144 34.0467
945 2 42.7468 8.73141 6.26533
946 2 48.5092 53.7466 23.8297
947 2 44.5813 30.9636 24.5772
948 2 39.8507 24.3538 26.5037
949 2 32.9952 45.6837 25.0071
950 2 11.1746 14.7981 27.6899
951 2 40.4851 24.3284 11.2121
952 2 47.2191 9.21166 17.8888
953 2 22.4149 24.1997 7.01848
954 2 35.6709 18.9513 16.135
955 2 20.0835 33.9325 31.4642
956 2 7.60977 44.7303 21.5587
957 2 43.9038 25.5821 29.7573
958 2 46.3331 22.6005 26.7689
959 2 36.8354 20.9663 50.1515
960 2 45.8753 15.2859 35.124
961 2 9.91298 10.9189 25.9628
962 2 47.2558 11.6151 34.7688
963 2 37.407 27.78 40.8437
964 2 42.8337 21.3293 24.5356
965 2 41.5738 7.65975 25.4787
966 2 23.16 55.0497 26.5338
967 2 47.669 51.7865 26.4891
968 2 49.6096 11.5193 21.0652
969 2 31.8859 10.5041 54.0899
970 2 46.0089 47.7479 52.0535
971 2 15.5075 51.1388 20.2525
972 2 51.2917 8.08529 44.5817
973 2 11.5575 6.24076 43.0194
974 2 42.9466 42.0632 9.48997
975 2 25.8228 17.1359 20.1114
976 2 32.8843 48.5188 26.0175
977 2 32.271 48.9029 53.3576
978 2 38.7969 11.5134 41.4631
979 2 33.3893 13.388 12.6332
980 2 35.1266 37.2542 11.5375
981 2 6.33253 54.8089 40.4113
982 2 28.1953 52.7137 10.2505
983 2 13.5594 33.3082 15.3189
984 2 29.6326 42.6026 24.7192
985 2 38.9649 52.4708 37.5656
986 2 51.0683 43.4759 18.112
987 2 24.9788 43.9961 29.1032
988 2 25.815 36.7601 37.8852
989 2 45.7978 36.6004 20.9912
990 2 32.8052 8.39058 40.0846
991 2 54.5892 42.9648 9.53088
992 2 47.5543 31.8425 37.7492
993 2 6.09285 49.5959 32.8914
994 2 52.8389 42.6583 31.9956
995 2 20.9298 55.306 17.448
996 2 19.2961 49.6556 50.0969
997 2 41.8167 39.641 7.68331
998 2 47.0827 50.0048 16.4201
999 2 46.0458 34.4672 38.394
1000 2 9.42818 37.4733 13.9019
1001 2 9.11501 23.2539 25.0587
1002 2 51.8286 19.6449 53.3514
1003 2 41.2345 14.5189 37.5474
1004 2 23.0555 28.8882 16.4364
1005 2 13.0827 52.715 19.4551