ITEM: TIMESTEP
0
ITEM: NUMBER OF ATOMS
9088
ITEM: BOX BOUNDS xy xz yz pp pp pp
6.1099706705617125e+00 5.5820967121752041e+01 -5.7034155584877117e-15
6.1099706705617178e+00 5.5820967121752041e+01 0.0000000000000000e+00
6.1099706705617178e+00 5.5820967121752041e+01 0.0000000000000000e+00
ITEM: ATOMS id type x y z
1 2 46.8022 18.2544 23.371
2 2 18.5027 8.40433 43.385
3 2 6.71041 28.6607 31.2842
4 2 30.1804 14.1473 36.4717
5 2 26.8432 53.0661 39.2148
6 2 48.1892 47.0472 12.8487
7 2 29.6828 7.64634 29.9804
8 2 40.1114 28.0961 25.6232
9 2 21.7953 40.7407 38.3543
10 2 18.3443 34.9214 39.016
11 2 41.2302 29.1258 34.6053
12 2 18.8762 43.181 55.8075
13 2 26.8627 16.9372 10.3732
14 2 12.3322 48.9543 40.6443
15 2 6.91353 27.8156 55.436
16 2 50.9214 35.7445 12.7894
17 2 30.2474 6.15828 16.9217
18 2 47.8088 42.9157 40.4481
19 2 30.703 50.932 34.8198
20 2 31.6609 51.9493 25.7281
21 2 36.613 38.2556 53.3904
22 2 42.1732 41.6668 22.4285
23 2 37.9133 55.5037 16.0722
24 2 20.4511 10.0857 28.5786
25 2 53.849 13.5895 9.88792
26 2 6.50695 27.0276 14.363
27 2 45.4308 20.7426 50.6054
28 2 10.7661 13.7713 37.4017
29 2 33.5505 35.3603 17.2165
30 2 27.9542 29.3009 6.12729
31 2 52.4987 17.2387 45.1272
32 2 22.5862 12.8021 32.4883
33 2 22.2263 29.7277 22.4333
34 2 50.7455 54.115 18.7278
35 2 44.9088 55.6416 47.2411
36 2 53.2871 21.9944 38.9997
37 2 50.5693 17.5484 27.5324
38 2 36.5865 25.1046 55.4701
39 2 44.8575 28.9271 34.6568
40 2 39.7041 8.49444 53.9516
41 2 13.6451 18.9944 22.5949
42 2 33.9677 23.8761 25.126
43 2 30.8527 14.6519 27.4605
44 2 41.7511 51.6314 6.27192
45 2 36.9761 43.4403 44.6184
46 2 7.93187 30.8955 38.9112
47 2 28.1524 21.1412 18.4643
48 2 43.2466 43.291 9.08052
49 2 44.3949 9.81418 36.997
50 2 13.3841 39.8277 53.5015
51 2 38.8485 49.4817 40.7561
52 2 38.1301 48.5781 48.556
53 2 30.1783 55.4211 42.4823
54 2 7.01572 23.3007 55.6566
55 2 28.3257 41.6982 35.9888
56 2 11.2651 12.622 43.6963
57 2 14.1137 49.4213 28.8157
58 2 14.9654 55.0545 36.3566
59 2 29.1365 17.5128 31.8983
60 2 14.3372 47.5035 48.1816
61 2 45.359 50.297 13.1854
62 2 37.4874 8.11925 23.9459
63 2 15.6919 9.30409 43.5393
64 2 31.2821 55.3677 33.8253
65 2 55.0541 47.6791 31.2933
66 2 54.7723 31.2708 9.32503
67 2 22.7472 17.7664 50.1315
68 2 13.871 38.6888 34.686
69 2 40.9484 11.9639 10.4627
70 2 19.6291 8.80463 40.7136
71 2 31.277 8.01997 14.6285
72 2 47.1348 8.2093 32.1096
73 2 15.7788 8.1599 50.055
74 2 39.1566 17.1228 53.8506
75 2 16.082 31.8854 11.9173
76 2 17.694 10.3205 50.0152
77 2 42.4511 32.0157 9.80262
78 2 55.0673 42.8379 35.3215
79 2 12.0379 28.5989 10.701
80 2 51.0677 22.9358 41.0848
81 2 47.7337 10.5312 6.21779
82 2 33.1627 27.6493 31.2707
83 2 33.3992 55.7588 7.4296
84 2 55.8095 55.5135 43.1813
85 2 47.6259 11.228 24.2371
86 2 45.768 8.07374 12.1245
87 2 37.978 51.788 37.0325
88 2 27.4006 38.8693 45.1677
89 2 18.5073 17.7433 21.354
90 2 39.8859 41.111 52.3541
91 2 48.5433 29.177 22.7937
92 2 33.2111 33.7727 9.04126
93 2 18.7494 22.1377 12.4856
94 2 8.21668 14.5834 36.5838
95 2 54.6944 30.2468 28.945
96 2 17.3658 16.9755 8.88859
97 2 52.7073 7.83192 40.6058
98 2 33.7756 43.5557 30.7119
99 2 37.2178 30.9173 10.1226
100 2 18.9381 40.427 6.6056
101 2 42.9065 49.1359 39.788
102 2 8.19097 22.3397 47.3502
103 2 20.7197 46.1617 33.5752
104 2 33.5296 6.83527 23.8776
105 2 25.3382 47.1846 52.507
106 2 14.3979 14.8714 9.46342
107 2 53.8501 24.9867 48.5996
108 2 44.867 19.4556 29.7589
109 2 27.5009 33.4559 34.1897
110 2 34.6569 50.0848 40.3132
111 2 28.5528 39.6499 37.7883
112 2 44.8277 46.7662 40.0366
113 2 51.2299 17.2003 35.3924
114 2 45.4078 25.7898 9.52958
115 2 50.8989 24.0656 7.77041
116 2 49.7921 27.7179 30.9661
117 2 38.432 45.2037 25.0997
118 2 40.1971 11.7111 45.9884
119 2 22.8089 31.7478 35.1761
120 2 31.2037 9.30247 53.5511
121 2 22.4046 41.7603 26.4864
122 2 38.0909 25.7545 40.6981
123 2 51.911 31.2305 55.6298
124 2 37.6441 10.9315 40.1114
125 2 20.9839 45.9207 44.7028
126 2 47.7593 25.4842 31.8289
127 2 24.9814 40.7815 23.1553
128 2 10.6741 13.2432 16.9507
129 2 41.1513 53.664 46.4721
130 2 6.26066 49.744 29.3582
131 2 16.7734 38.7537 47.6889
132 2 39.6672 28.5464 39.775
133 2 48.6096 10.8551 44.1152
134 2 34.2826 11.0071 25.7346
135 2 42.0678 25.2864 28.7433
136 2 18.6483 26.7298 50.2274
137 2 29.3366 18.2811 9.0071
138 2 55.6887 42.3964 14.6889
139 2 16.7884 40.6702 19.1355
140 2 24.5167 9.98265 9.3254
141 2 54.0978 6.31776 11.0438
142 2 36.9225 30.4911 29.8132
143 2 8.50744 43.5796 30.5231
144 2 26.571 37.7682 17.5208
145 2 50.0162 43.819 55.6348
146 2 34.8913 32.6396 30.7852
147 2 43.8758 17.0085 14.5646
148 2 32.354 47.8188 34.3186
149 2 41.0665 40.8804 37.5652
150 2 30.6193 12.0171 22.5268
151 2 24.6518 15.6922 44.3946
152 2 28.6308 32.8992 11.6309
153 2 29.3878 19.6858 41.272
154 2 48.159 46.0604 22.5603
155 2 45.9425 33.4546 51.7392
156 2 43.2991 20.476 43.6634
157 2 41.659 28.8154 9.29971
158 2 8.16394 13.1932 7.33045
159 2 31.9579 32.3817 17.7049
160 2 38.21 41.7599 42.0126
161 2 39.6303 10.8014 37.3157
162 2 51.9986 41.2543 51.8983
163 2 53.8038 41.8443 20.3462
164 2 43.6645 27.7583 22.8827
165 2 40.794 52.2878 18.204
166 2 36.899 8.26375 35.3424
167 2 34.5957 20.9609 37.0586
168 2 18.6455 33.0411 31.6962
169 2 45.6595 10.6245 53.6475
170 2 24.5165 8.99006 54.4642
171 2 31.3846 30.7524 34.7387
172 2 27.1839 52.1119 31.8746
173 2 21.8149 48.8011 19.3595
174 2 26.4209 40.608 33.7398
175 2 27.7678 10.1874 51.1226
176 2 6.81129 46.1978 26.2829
177 2 9.32675 24.3097 35.701
178 2 43.1051 16.7231 19.7398
179 2 29.5185 20.7225 23.5591
180 2 18.5289 24.0208 10.4402
181 2 19.1752 48.9306 21.5307
182 2 50.1216 9.66406 55.0364
183 2 8.16611 17.8842 6.73814
184 2 17.6332 55.4102 52.388
185 2 45.918 48.9856 28.8571
186 2 13.0505 41.1922 37.1759
187 2 43.1465 18.1227 17.0758
188 2 9.96258 16.2302 24.0332
189 2 14.9134 21.0675 11.0438
190 2 42.7977 6.23614 34.2005
191 2 34.3931 27.2585 48.6515
192 2 47.2745 35.3677 42.9215
193 2 14.9202 10.452 21.1246
194 2 50.9245 33.6724 8.10094
195 2 13.9686 50.3724 11.8765
196 2 41.226 36.9737 54.6818
197 2 28.0042 36.5459 38.4284
198 2 50.6887 48.3265 50.6029
199 2 51.0468 8.23666 46.1363
200 2 17.0235 19.7669 13.1217
201 2 20.2951 14.284 43.79
202 2 37.2602 50.9526 17.9848
203 2 34.5789 11.6244 53.4175
204 2 47.6302 29.7819 54.6542
205 2 33.8674 38.0244 27.1241
206 2 54.4475 45.1356 44.6886
207 2 18.5974 27.3333 24.1125
208 2 28.4153 27.0341 53.2314
209 2 15.6735 21.1749 32.2861
210 2 25.7196 44.2086 46.3124
211 2 7.01068 55.2606 32.4488
212 2 52.0591 22.8844 10.1937
213 2 22.2045 30.3876 25.1376
214 2 22.5534 45.4811 38.2632
215 2 20.73 13.8427 46.9605
216 2 9.42289 10.137 44.4856
217 2 14.6214 42.3662 15.5861
218 2 35.071 7.95692 43.4243
219 2 14.9649 55.0603 50.3633
220 2 32.6213 54.9436 53.2189
221 2 31.8065 12.4921 53.3038
222 2 6.5707 38.747 43.1549
223 2 41.6239 38.129 39.6969
224 2 25.2321 14.8949 29.7417
225 2 31.9573 21.5461 21.7116
226 2 54.7308 31.6951 42.5558
227 2 10.64 34.4063 48.6886
228 2 40.5189 28.1925 20.6027
229 2 41.0024 44.4146 11.9661
230 2 39.6389 53.1272 53.8001
231 2 7.45902 8.65781 40.1095
232 2 42.88 17.0055 39.9572
233 2 7.65144 25.1757 42.1326
234 2 26.8541 29.5666 13.4443
235 2 12.2875 27.6759 18.0417
236 2 44.6828 28.4372 43.0633
237 2 32.9746 17.8474 11.0418
238 2 51.9789 26.1223 33.5983
239 2 31.2311 10.5525 25.3533
240 2 18.4835 37.2443 15.7099
241 2 39.6329 23.8911 17.2295
242 2 40.4762 33.2884 40.6935
243 2 33.551 41.3889 26.568
244 2 34.5686 16.5768 35.9407
245 2 55.5541 10.5394 53.4741
246 2 28.59 55.6181 10.6246
247 2 14.041 49.3512 45.5456
248 2 15.7733 13.8769 17.5916
249 2 8.76921 19.4574 49.0501
250 2 15.4597 42.9327 26.3116
251 2 35.6228 52.6366 38.938
252 2 18.3257 46.087 13.1085
253 2 26.5168 22.9192 32.3743
254 2 25.2277 52.2667 12.7284
255 2 42.3248 21.2829 40.9974
256 2 25.3268 8.33232 29.3417
257 2 29.9901 43.142 13.2368
258 2 31.2911 15.2591 11.5502
259 2 16.8676 12.9595 41.1831
260 2 47.7483 25.3041 25.1156
261 2 19.8659 20.651 47.3665
262 2 10.7669 40.7193 27.2405
263 2 33.1148 22.018 28.9686
264 2 17.9314 46.3818 37.4077
265 2 43.4462 17.9833 31.7608
266 2 20.9349 43.1297 16.7816
267 2 17.785 31.0397 24.718
268 2 20.6702 18.9274 28.1328
269 2 36.9281 44.0995 41.3413
270 2 48.3626 36.6522 20.5746
271 2 26.5329 37.543 20.7107
272 2 20.4371 53.2835 54.7478
273 2 36.8928 23.7347 20.7808
274 2 48.7505 23.39 49.3318
275 2 13.2015 39.8753 19.9142
276 2 25.6229 11.4448 7.1644
277 2 9.32058 18.8885 52.1765
278 2 26.8578 10.5225 40.3614
279 2 13.8026 28.3514 25.1136
280 2 46.0317 52.4891 47.9778
281 2 43.7333 52.3334 46.1529
282 2 43.53 54.1694 6.74876
283 2 46.0883 9.5815 34.6498
284 2 27.9754 36.5422 13.4536
285 2 10.0328 31.4269 8.26446
286 2 36.1455 50.1757 47.0289
287 2 18.4715 7.16355 32.4362
288 2 17.3945 9.86023 36.8103
289 2 37.6716 45.3494 21.9481
290 2 18.4541 7.78996 29.1978
291 2 31.0761 37.4885 52.793
292 2 20.9522 35.0704 37.0949
293 2 37.8181 45.5059 46.917
294 2 24.9718 11.9046 47.9031
295 2 47.4543 54.7337 25.0482
296 2 33.5905 36.9888 44.0494
297 2 46.0483 32.8413 44.7358
298 2 18.4109 49.0225 46.8425
299 2 48.1111 28.6776 7.80127
300 2 55.1829 39.4973 22.1874
301 2 51.9319 29.6576 29.5878
302 2 12.2464 35.6615 18.1803
303 2 38.9948 47.4337 18.0599
304 2 46.6664 48.9883 10.8782
305 2 44.1499 36.3321 51.0813
306 2 12.0625 17.4181 20.3055
307 2 41.2071 49.2792 12.149
308 2 34.8728 30.2274 12.0868
309 2 53.6075 35.0125 9.12753
310 2 23.9026 44.8103 31.2737
311 2 28.9708 7.10362 48.8497
312 2 8.86948 44.9199 53.4765
313 2 41.264 26.438 46.2009
314 2 8.98083 37.5237 31.8725
315 2 18.6334 21.4079 50.4682
316 2 15.9582 33.7394 48.0907
317 2 9.34982 44.8043 46.8941
318 2 31.7313 37.8986 7.92277
319 2 23.0676 23.8185 12.7895
320 2 18.2079 7.69054 10.7391
321 2 12.4929 43.2687 35.2239
322 2 27.8954 9.81867 26.2684
323 2 13.1629 53.0638 35.2635
324 2 10.6614 33.3246 52.1542
325 2 41.5339 25.5289 12.3655
326 2 35.8587 29.3258 54.5703
327 2 50.9422 34.7109 16.8279
328 2 35.1052 24.828 50.3521
329 2 8.46574 40.6792 7.71737
330 2 51.4902 26.9527 49.3325
331 2 16.4948 47.328 50.5562
332 2 11.4204 43.8555 42.4769
333 2 33.3197 17.3171 15.6908
334 2 32.3462 50.1154 17.2927
335 2 12.1679 39.669 13.6839
336 2 44.6522 33.9565 11.12
337 2 38.8135 10.9068 26.2239
338 2 22.7327 52.7551 32.7891
339 2 51.1031 51.8401 50.1023
340 2 23.5403 17.5038 11.8668
341 2 28.5653 42.0955 27.1696
342 2 10.2061 33.2822 14.6894
343 2 10.7555 55.6591 42.9828
344 2 23.2436 35.8206 14.842
345 2 30.8179 42.5306 38.4959
346 2 21.7343 39.3837 28.5264
347 2 24.7443 11.5141 25.73
348 2 9.65551 20.885 26.6197
349 2 41.5868 29.1388 31.4315
350 2 51.8498 44.3005 25.8169
351 2 17.5481 29.1508 32.0852
352 2 43.8207 34.904 16.1843
353 2 43.917 14.9395 38.2333
354 2 10.9727 46.7519 30.9673
355 2 36.5395 18.5576 55.067
356 2 8.21256 14.9161 28.5674
357 2 42.8452 24.3301 24.5266
358 2 16.9368 7.67167 26.5118
359 2 29.9027 6.44786 19.5919
360 2 31.4292 18.0616 38.7709
361 2 8.84901 37.9648 21.8959
362 2 37.1252 34.207 35.2617
363 2 7.63431 44.8156 49.473
364 2 36.1835 17.9485 50.1517
365 2 36.7922 43.9974 12.9555
366 2 30.9049 27.1742 18.8598
367 2 14.5349 16.8537 36.7346
368 2 35.2739 13.7419 14.213
369 2 39.2122 16.4108 15.5289
370 2 23.5741 47.3828 44.1487
371 2 26.4082 13.2763 40.7866
372 2 25.4331 32.2753 50.1754
373 2 36.8651 20.8485 10.0218
374 2 53.9441 16.5641 18.9421
375 2 44.8464 52.0144 36.0028
376 2 45.2284 40.1259 52.9422
377 2 28.69 31.1925 38.2854
378 2 38.2372 21.0693 20.5013
379 2 35.0972 55.6798 14.8972
380 2 20.6971 21.449 8.10087
381 2 28.1853 29.6506 46.4353
382 2 32.4423 7.10125 31.2408
383 2 24.2545 40.3297 48.4416
384 2 32.3056 14.8543 17.5291
385 2 25.6167 7.40205 37.7487
386 2 8.2393 17.2427 21.7439
387 2 11.8936 13.9471 23.0419
388 2 26.7416 44.9489 48.9743
389 2 32.1274 9.50953 43.4492
390 2 29.4083 18.4206 27.9048
391 2 30.0036 13.8428 48.4114
392 2 18.7673 11.2823 23.0159
393 2 53.6191 29.3952 50.0072
394 2 37.2096 14.9423 38.5319
395 2 46.5897 35.9006 50.2023
396 2 54.0394 40.6866 41.6371
397 2 27.1171 39.0975 49.2128
398 2 44.8105 14.2887 22.5364
399 2 50.233 8.7011 18.002
400 2 32.3822 23.3521 49.3962
401 2 27.3723 47.4916 31.3756
402 2 13.503 37.6665 22.208
403 2 24.7994 10.9419 52.1822
404 2 39.5352 33.8764 46.2649
405 2 35.6512 29.8359 37.4776
406 2 43.4134 9.99097 39.8714
407 2 48.1246 20.2184 7.40197
408 2 52.4981 34.1626 47.8665
409 2 14.6059 16.8227 47.1737
410 2 19.1417 44.2754 22.1109
411 2 35.4403 27.1042 12.3691
412 2 43.1146 52.898 50.7451
413 2 22.7919 17.133 7.2008
414 2 12.0177 7.33532 19.5678
415 2 20.643 45.9732 20.2901
416 2 11.9894 46.1726 36.9511
417 2 30.0148 41.1707 29.5185
418 2 31.3976 26.01 40.5615
419 2 52.5488 48.7557 15.3191
420 2 33.3536 34.3161 32.7807
421 2 40.3938 17.9246 23.764
422 2 52.6691 16.9376 9.87949
423 2 8.65727 40.3951 54.4952
424 2 12.2447 19.3343 6.99766
425 2 26.2217 55.0891 45.4095
426 2 37.9468 37.3746 34.915
427 2 44.4839 34.1309 25.9535
428 2 27.7953 35.1572 25.1748
429 2 37.8808 33.767 52.5225
430 2 11.0967 8.87101 23.8786
431 2 39.8061 23.9376 47.6352
432 2 37.3528 51.8599 26.2359
433 2 36.9397 29.6229 35.0838
434 2 25.2459 50.1072 39.8505
435 2 42.5135 46.854 12.0708
436 2 22.4971 22.7878 30.484
437 2 36.3824 24.636 11.9245
438 2 54.8194 12.4627 21.8348
439 2 33.6922 52.344 36.0554
440 2 21.8313 42.7959 35.6609
441 2 49.1784 46.9003 48.593
442 2 6.74677 32.9978 50.4241
443 2 17.5142 41.8194 13.7538
444 2 45.4269 54.7799 32.6398
445 2 13.3448 21.9933 23.6079
446 2 21.017 23.3214 41.0801
447 2 41.3179 40.0644 6.59064
448 2 31.366 28.3476 52.4614
449 2 43.8424 44.1649 25.0742
450 2 37.7335 15.1464 12.7513
451 2 19.8606 11.4781 25.7704
452 2 8.95132 50.0522 17.2722
453 2 34.8427 42.2607 11.5523
454 2 53.7693 29.6678 33.6545
455 2 12.0111 22.6454 34.9175
456 2 39.3877 46.586 40.8927
457 2 36.5186 22.2308 49.0089
458 2 6.8013 44.2955 33.2977
459 2 15.4589 30.0649 40.3704
460 2 20.9246 42.0223 22.8942
461 2 44.5763 45.4937 45.5942
462 2 36.2993 10.047 55.1129
463 2 15.3163 41.7616 31.958
464 2 44.7591 45.4211 37.4874
465 2 17.8443 22.2792 22.0347
466 2 46.9584 15.0292 45.4436
467 2 32.3823 40.2917 53.5071
468 2 54.1877 26.8234 31.8096
469 2 16.0909 26.8508 31.79
470 2 8.03885 23.0054 44.1413
471 2 53.1585 26.7589 41.6745
472 2 51.1874 45.942 46.1232
473 2 12.9904 37.4241 16.1616
474 2 31.2582 47.0389 54.399
475 2 52.2833 51.7485 31.6559
476 2 28.5765 47.4395 52.6897
477 2 47.8353 8.76024 52.0522
478 2 37.089 7.37769 55.2139
479 2 50.8703 29.041 9.09686
480 2 35.5764 37.0009 16.1069
481 2 33.7344 53.4068 16.9124
482 2 43.8718 43.0141 52.8867
483 2 20.81 46.9382 51.3032
484 2 10.3037 38.3689 39.3274
485 2 31.5589 33.7151 41.3935
486 2 9.37905 10.5551 33.6992
487 2 44.6223 27.095 28.7556
488 2 22.5706 34.0603 7.60275
489 2 18.3057 55.3269 37.0558
490 2 49.8633 13.0856 46.7068
491 2 49.2538 54.0311 39.4676
492 2 49.1249 42.9922 21.8711
493 2 55.7221 49.0522 26.1587
494 2 15.1177 30.6969 36.6915
495 2 26.8671 28.7229 23.9451
496 2 10.4077 31.3281 54.801
497 2 17.7405 45.8288 34.327
498 2 32.3341 23.3638 43.6054
499 2 17.0096 19.9443 24.9142
500 2 21.7957 38.1912 17.0603
501 2 29.8246 49.698 53.754
502 2 46.6845 13.094 13.1665
503 2 36.417 25.6844 28.9706
504 2 39.9067 44.7627 45.2096
505 2 36.1015 47.3664 39.9876
506 2 30.2073 35.2381 20.0226
507 2 35.1116 35.7693 51.8539
508 2 15.4029 10.8847 30.4588
509 2 28.2001 16.2122 29.3578
510 2 6.7206 38.9652 26.1336
511 2 42.0423 14.555 11.0386
512 2 12.3849 31.0818 46.9069
513 2 46.7929 33.9171 29.6609
514 2 14.1806 44.1889 37.9021
515 2 49.554 6.78722 9.24984
516 2 6.47866 47.2041 6.70135
517 2 44.8807 49.8789 50.997
518 2 43.5107 8.26228 51.1328
519 2 48.8225 25.6988 11.7739
520 2 8.43106 45.1121 17.6569
521 2 25.7009 14.4091 26.4062
522 2 43.8563 22.8925 18.3297
523 2 39.5752 24.7965 43.4083
524 2 54.8222 29.5314 40.1284
525 2 10.766 26.1647 46.581
526 2 45.2187 41.3191 26.3814
527 2 12.5734 53.0214 39.6577
528 2 28.8514 52.5615 51.072
529 2 53.2569 10.8282 9.27908
530 2 9.79464 15.0248 9.38357
531 2 30.3204 45.9396 38.8325
532 2 48.4674 38.7533 24.3465
533 2 38.8761 24.2377 32.3935
534 2 37.0498 12.5677 36.3171
535 2 22.1794 16.8366 43.5871
536 2 15.6292 49.1091 16.3089
537 2 25.7636 30.7653 16.1865
538 2 36.9748 23.1201 15.8964
539 2 22.5387 27.0741 16.4301
540 2 55.3969 7.84522 21.7597
541 2 18.6687 30.4544 8.3933
542 2 40.7308 10.865 55.5678
543 2 50.2355 11.1334 39.6855
544 2 43.8734 30.4057 28.4366
545 2 34.5866 20.8615 13.6336
546 2 41.557 51.4493 48.3574
547 2 30.1614 55.7226 51.2336
548 2 17.9285 50.4088 42.5517
549 2 16.5988 39.8028 40.1384
550 2 9.6106 28.6735 45.3072
551 2 24.4333 30.295 32.504
552 2 55.8144 29.1264 16.7102
553 2 32.7738 13.3411 44.2334
554 2 26.867 10.766 23.7546
555 2 49.7097 9.42949 36.4585
556 2 40.3397 53.5261 37.0365
557 2 27.3983 20.9072 38.9878
558 2 22.7002 26.654 34.1655
559 2 53.0917 9.42977 19.692
560 2 39.6166 38.1202 24.4673
561 2 22.8419 17.6531 46.4022
562 2 27.4813 17.3004 37.8665
563 2 42.6945 47.2213 15.7816
564 2 44.7553 23.912 28.3753
565 2 15.4807 51.3104 33.3099
566 2 11.0672 39.0223 24.1658
567 2 32.5075 48.1013 43.489
568 2 51.5237 54.1634 44.049
569 2 13.534 29.3276 20.3084
570 2 6.49988 25.4824 38.9578
571 2 20.5742 16.3649 31.5763
572 2 16.6188 53.1448 26.8982
573 2 50.7438 16.64 19.8851
574 2 47.3662 53.9596 18.5779
575 2 42.9879 20.8193 25.8449
576 2 42.5018 55.0609 39.0945
577 2 44.4066 16.1333 54.2709
578 2 32.1929 11.6199 11.7943
579 2 37.0899 34.3547 19.3633
580 2 32.2966 8.47348 40.1191
581 2 32.9656 20.4485 32.3911
582 2 6.22305 52.6017 25.4287
583 2 27.4088 16.2495 14.6633
584 2 13.1367 31.7493 43.9743
585 2 7.85961 15.9909 31.545
586 2 28.4811 41.2031 14.8326
587 2 14.944 49.7189 23.5199
588 2 45.9696 51.6732 33.3886
589 2 50.3024 43.6808 28.7882
590 2 53.9693 35.8471 39.8681
591 2 8.61655 7.84303 46.9994
592 2 18.3985 30.3459 47.8403
593 2 35.4524 49.3488 20.0871
594 2 46.8519 21.5964 23.5201
595 2 10.4789 21.1307 43.3685
596 2 54.2666 34.9724 55.6764
597 2 51.4412 6.94048 19.7949
598 2 48.4558 29.0296 38.8738
599 2 52.6441 22.9275 20.9323
600 2 28.8483 9.77287 32.3208
601 2 54.302 48.9958 8.83332
602 2 8.6764 25.2487 28.7473
603 2 43.898 13.6049 6.92696
604 2 10.1543 20.1505 29.7119
605 2 22.437 44.5329 52.2859
606 2 36.246 44.6961 51.0733
607 2 50.9696 49.1231 11.9987
608 2 20.3198 34.1849 22.1983
609 2 8.66842 24.7378 8.35485
610 2 41.807 18.886 55.5888
611 2 13.8123 39.3321 41.7831
612 2 33.7277 15.2705 20.372
613 2 30.752 52.2497 14.1019
614 2 13.4147 26.3515 32.8213
615 2 31.985 40.9286 11.418
616 2 23.8654 27.8407 23.7231
617 2 30.9004 33.5039 30.9163
618 2 26.3298 27.7367 29.173
619 2 42.6942 32.1026 54.7968
620 2 48.183 10.646 19.4414
621 2 41.3188 20.7984 9.56972
622 2 8.68153 41.6114 12.8468
623 2 40.7811 39.9514 19.7515
624 2 45.2493 20.7878 7.23536
625 2 16.8365 49.8611 55.0957
626 2 38.0706 53.8575 6.9725
627 2 18.6506 22.2812 43.5254
628 2 21.4312 26.2069 22.4993
629 2 31.6108 22.9827 33.3838
630 2 33.9601 53.2817 50.6928
631 2 16.0428 37.1597 9.2464
632 2 42.3727 42.8775 48.7427
633 2 23.3791 23.352 54.4502
634 2 13.872 6.85725 42.2559
635 2 42.1182 22.6565 29.8567
636 2 13.3213 53.5316 26.2813
637 2 48.5771 20.2716 38.4373
638 2 51.59 54.0769 48.5969
639 2 29.7127 54.367 46.545
640 2 47.6097 31.4522 37.0479
641 2 39.0815 45.074 31.6698
642 2 49.2972 53.0675 22.2399
643 2 7.19203 31.8106 47.5653
644 2 47.1979 28.5371 41.4727
645 2 50.9818 13.9289 38.2126
646 2 38.1343 38.865 17.2348
647 2 34.2375 44.7929 33.8378
648 2 38.1879 14.762 29.9671
649 2 24.9824 34.1061 17.023
650 2 10.3814 14.123 47.5207
651 2 24.9024 23.1787 14.7751
652 2 26.1154 22.482 27.0493
653 2 9.00537 6.66877 34.2799
654 2 14.9847 27.1747 11.5917
655 2 22.0371 18.1303 32.8755
656 2 8.96503 15.7027 51.4865
657 2 7.96866 17.8566 10.1448
658 2 13.911 53.5919 7.37977
659 2 45.4848 15.155 32.6179
660 2 24.4624 8.172 48.5635
661 2 53.4609 48.1234 49.6685
662 2 33.6943 17.8911 42.8093
663 2 20.8126 10.3374 49.7066
664 2 45.7116 25.7836 47.6104
665 2 26.911 41.0429 53.0961
666 2 31.5416 30.2765 24.973
667 2 50.4242 23.5707 46.3868
668 2 18.6589 13.9387 34.9959
669 2 9.52902 50.1632 12.2058
670 2 55.805 25.2539 10.0305
671 2 32.8066 19.0656 35.0942
672 2 27.3475 41.7914 45.4079
673 2 38.6591 50.6193 45.3198
674 2 20.3729 27.8061 36.041
675 2 51.8838 39.9176 18.8625
676 2 49.0456 47.5237 18.2889
677 2 54.1672 27.4582 53.3048
678 2 12.5231 49.1634 8.72837
679 2 23.81 49.4119 53.5109
680 2 38.0539 55.6133 21.4013
681 2 22.1265 48.4429 37.105
682 2 8.37639 24.918 15.5771
683 2 37.2137 21.6735 35.3343
684 2 31.5928 45.6621 19.0372
685 2 42.8303 8.99088 32.5235
686 2 15.9974 19.3853 50.2942
687 2 54.1184 14.7098 55.3012
688 2 28.2054 51.9806 28.312
689 2 10.9096 26.2905 22.2888
690 2 53.9341 41.1545 13.156
691 2 38.5175 30.1503 16.9798
692 2 38.6368 21.78 42.98
693 2 12.8531 53.4139 52.473
694 2 18.6637 49.2485 37.3055
695 2 35.9602 10.0932 21.7434
696 2 49.3044 28.0324 45.25
697 2 14.155 8.51154 54.1388
698 2 9.615 32.4915 31.7273
699 2 10.4488 36.1464 29.1341
700 2 13.016 19.694 13.9942
701 2 20.497 28.7733 32.8421
702 2 30.2954 50.0657 19.5073
703 2 12.2831 34.0694 46.1086
704 2 40.2818 53.7614 30.4635
705 2 17.1805 22.4734 27.2482
706 2 36.845 26.9079 33.8694
707 2 25.6588 53.5217 49.4454
708 2 29 17.9583 50.2151
709 2 39.1198 41.0221 23.6002
710 2 15.2303 14.3031 30.7079
711 2 31.8084 23.7079 53.7027
712 2 39.3457 55.2424 24.0972
713 2 46.0135 22.7474 36.0923
714 2 26.934 54.6548 42.0943
715 2 20.2658 6.42466 48.214
716 2 46.4867 28.4156 24.628
717 2 35.8015 49.0892 7.60999
718 2 24.4189 16.6691 18.8691
719 2 33.3948 32.0601 21.2769
720 2 50.9442 14.6008 10.7122
721 2 17.029 33.4117 54.7573
722 2 24.0323 33.6085 39.3366
723 2 26.9874 20.0174 32.1661
724 2 46.256 44.9079 52.8763
725 2 23.2708 22.3709 44.9308
726 2 12.6768 27.4922 15.1564
727 2 31.8155 30.5369 55.2071
728 2 9.00036 43.347 27.2555
729 2 54.7247 21.8729 47.8116
730 2 13.7192 7.23296 24.9941
731 2 42.2448 12.779 53.7582
732 2 51.2315 25.4229 29.006
733 2 45.9971 30.37 52.0831
734 2 47.5455 12.8823 53.9079
735 2 24.6748 48.0695 25.2653
736 2 21.35 41.9498 19.6899
737 2 35.8176 17.7949 17.0552
738 2 21.2893 31.4985 38.1252
739 2 51.6585 20.4206 22.1078
740 2 39.1491 27.8177 36.2705
741 2 35.7927 43.7832 25.6596
742 2 21.0822 8.14152 10.3896
743 2 40.3619 41.267 12.2067
744 2 39.7913 20.8921 6.95756
745 2 14.627 35.2563 41.3105
746 2 28.0343 50.0161 43.8737
747 2 10.6641 43.7631 13.7508
748 2 23.5354 8.65781 14.9576
749 2 21.1383 54.5986 12.5779
750 2 44.4561 18.1299 8.48614
751 2 26.3219 29.058 10.1375
752 2 25.4184 30.7886 46.1519
753 2 11.3662 33.865 27.8263
754 2 50.4017 29.7075 49.634
755 2 26.9548 41.819 48.3359
756 2 14.1692 26.9477 39.2083
757 2 23.8781 29.2493 7.48914
758 2 39.364 54.4897 11.838
759 2 17.8013 18.5928 29.1951
760 2 48.6955 49.3953 8.45201
761 2 44.2759 19.2912 20.3893
762 2 34.5393 23.4836 45.5818
763 2 29.4214 43.3261 49.7996
764 2 21.5583 46.036 25.7579
765 2 18.3133 14.5671 30.932
766 2 29.4175 9.1097 39.9746
767 2 55.5389 21.6274 32.3789
768 2 38.0635 17.271 48.1641
769 2 7.89306 28.8373 36.2188
770 2 25.9877 52.3634 21.5561
771 2 24.1654 7.96188 45.3421
772 2 53.5418 30.1076 44.8421
773 2 32.4306 42.8266 15.0225
774 2 28.3706 6.15647 13.9866
775 2 17.0132 52.9227 14.0912
776 2 33.2772 35.2005 6.51074
777 2 38.3811 45.9946 28.4138
778 2 22.7986 55.2441 21.393
779 2 17.5016 47.2372 54.1408
780 2 11.9745 24.425 9.0317
781 2 17.0246 17.3663 48.6617
782 2 40.6143 21.4576 45.4216
783 2 13.2826 14.976 16.1999
784 2 21.2733 22.2671 37.4716
785 2 19.6483 40.0097 25.1019
786 2 39.5345 26.663 54.8641
787 2 22.0116 45.1501 28.8984
788 2 29.3044 53.4263 35.4539
789 2 44.3512 54.9256 15.7606
790 2 10.5825 33.9099 7.0816
791 2 13.1215 46.7316 45.4693
792 2 14.6442 42.0982 7.0812
793 2 15.9255 45.9547 17.2703
794 2 6.86751 40.9729 30.6571
795 2 20.605 44.7108 12.4023
796 2 15.9826 28.6271 43.4921
797 2 12.8355 23.9066 46.6112
798 2 31.3343 42.825 24.9954
799 2 6.64991 38.2588 7.73314
800 2 47.5523 33.9296 47.4346
801 2 21.2152 32.1263 54.589
802 2 9.24644 32.2738 49.6188
803 2 51.9206 19.3046 38.0428
804 2 26.6199 54.7734 24.7994
805 2 32.2995 30.4278 44.5014
806 2 43.8112 39.8955 48.5437
807 2 16.7503 37.0523 45.1856
808 2 20.9993 27.9947 47.9033
809 2 48.5904 52.4684 7.7954
810 2 47.9915 16.1232 7.31954
811 2 50.4005 7.41419 25.7819
812 2 24.58 52.7836 44.2447
813 2 46.2752 21.8625 43.7255
814 2 46.3046 12.3096 36.8978
815 2 46.3369 49.3793 35.0814
816 2 9.68817 40.3292 19.4816
817 2 41.6175 21.998 16.1801
818 2 29.5309 14.729 31.6283
819 2 24.8518 17.1401 39.3463
820 2 43.5874 40.8412 36.138
821 2 10.3097 12.0675 29.3105
822 2 33.1149 27.1727 16.8009
823 2 49.3197 47.1737 41.5993
824 2 12.6138 10.1224 39.7706
825 2 23.2556 12.7101 12.9284
826 2 22.1544 35.678 41.21
827 2 41.7024 47.0473 46.4309
828 2 7.45001 17.5783 18.9544
829 2 30.5994 10.8384 36.6003
830 2 34.5218 40.2048 28.8676
831 2 27.8485 17.3318 47.0971
832 2 8.72786 52.4866 14.4052
833 2 48.1035 37.1595 53.1722
834 2 24.2094 39.6127 16.8339
835 2 30.1112 46.2604 30.513
836 2 6.7127 18.5868 53.9542
837 2 21.3933 10.6604 9.03025
838 2 36.7682 17.0582 31.4763
839 2 39.6758 49.1651 9.6106
840 2 18.7443 49.2736 52.1345
841 2 54.2165 33.9412 16.4625
842 2 31.6812 34.6747 15.1848
843 2 30.3155 26.0319 23.118
844 2 27.3798 13.8026 44.8635
845 2 43.3279 43.2303 13.4983
846 2 50.0373 10.4593 26.5222
847 2 25.0391 50.5965 42.6348
848 2 50.0205 51.8828 17.4599
849 2 43.3702 36.5892 27.4652
850 2 37.1757 35.9346 46.9419
851 2 17.673 30.5618 44.6606
852 2 41.3993 14.1655 26.6896
853 2 19.5969 50.7851 13.6593
854 2 38.3614 45.5013 54.2294
855 2 10.218 47.2098 48.7048
856 2 37.8846 33.4783 10.7832
857 2 39.1027 26.3291 27.4266
858 2 52.3296 44.8676 17.5307
859 2 38.814 41.0509 9.90199
860 2 7.4097 42.5882 10.1419
861 2 21.6914 55.3449 34.7749
862 2 40.8433 16.9029 43.9257
863 2 42.7718 19.1956 50.536
864 2 54.5592 43.4772 24.1386
865 2 43.014 36.4843 30.5496
866 2 39.5359 11.3189 13.1632
867 2 38.0103 37.0382 38.2993
868 2 12.5284 42.2678 40.2234
869 2 11.1102 35.5879 43.3287
870 2 44.3951 22.5796 21.6208
871 2 34.484 12.5694 10.3126
872 2 22.2146 39.0678 51.8115
873 2 47.7946 26.2566 14.2023
874 2 29.1204 30.098 9.11261
875 2 10.8387 42.4083 31.0518
876 2 22.3408 32.5905 14.0061
877 2 55.5989 51.3572 42.7391
878 2 55.5339 15.1976 21.0579
879 2 47.8615 7.41301 6.62534
880 2 46.4255 33.3696 54.6509
881 2 38.1031 40.5054 20.3565
882 2 53.4895 39.624 24.821
883 2 35.264 54.4986 25.8165
884 2 7.81588 51.9599 18.9813
885 2 49.2152 53.1768 10.458
886 2 45.0573 19.5961 11.3543
887 2 24.8354 54.6275 34.705
888 2 20.0037 30.9605 28.9335
889 2 18.5145 36.8705 37.079
890 2 23.0243 9.93452 47.3137
891 2 25.4226 13.4911 54.7262
892 2 24.5256 48.2565 11.3554
893 2 22.52 40.9243 15.1902
894 2 26.3724 33.4487 42.691
895 2 16.1032 44.2326 54.8042
896 2 13.0511 38.7765 49.0673
897 2 53.8271 36.2613 33.5737
898 2 41.3673 45.9351 24.9109
899 2 31.7489 45.7 11.9762
900 2 24.9848 55.361 11.1136
901 2 31.8939 52.1072 55.0174
902 2 35.4305 15.0609 8.85706
903 2 22.4685 53.0112 25.8824
904 2 54.6246 35.4967 46.0193
905 2 30.3669 33.2741 46.2172
906 2 45.7437 15.4487 19.8477
907 2 50.3549 50.1483 54.1119
908 2 19.4291 24.0619 26.7718
909 2 32.0393 22.8551 36.6534
910 2 10.519 17.3658 14.2641
911 2 8.87986 32.0786 27.1146
912 2 33.0812 12.4956 48.7847
913 2 54.5986 34.0833 52.937
914 2 11.4609 37.5308 35.5884
915 2 42.1004 52.2094 26.3457
916 2 43.8506 28.4107 13.3919
917 2 14.501 20.2143 36.5312
918 2 37.955 16.8582 20.7061
919 2 47.2092 37.1834 15.1012
920 2 25.5247 14.6418 8.23988
921 2 54.0984 46.291 51.833
922 2 36.57 9.88631 12.5939
923 2 21.9106 10.5601 40.5373
924 2 21.0821 19.5918 21.6222
925 2 33.167 29.3229 20.0262
926 2 20.2096 52.4595 34.393
927 2 55.7575 6.20074 53.0494
928 2 7.89902 47.8871 49.8392
929 2 54.1672 18.7916 41.9444
930 2 54.8291 7.25168 36.2403
931 2 52.6874 48.7763 46.3779
932 2 45.215 10.0673 26.1243
933 2 15.72 39.2701 15.7601
934 2 51.438 16.9425 13.0184
935 2 54.5442 27.2433 7.61875
936 2 38.7828 42.2686 55.1391
937 2 53.83 13.8076 25.6813
938 2 40.9755 17.0478 27.9402
939 2 33.5135 9.12395 45.8243
940 2 49.1429 21.6805 13.3264
941 2 49.8767 10.0736 12.2813
942 2 31.616 41.5502 31.8416
943 2 52.6574 31.4875 20.8121
944 2 28.2769 19.54 11.3641
945 2 8.32556 28.1364 33.426
946 2 14.0473 23.5057 51.0321
947 2 10.4508 50.6813 51.9716
948 2 55.0913 44.1183 53.5944
949 2 48.3691 15.1733 52.275
950 2 26.4896 33.9753 54.7537
951 2 55.7464 43.7226 38.2939
952 2 12.8014 28.6311 45.0183
953 2 37.6422 43.6349 34.3724
954 2 50.8777 38.2656 43.0406
955 2 35.6016 53.6324 8.71151
956 2 23.581 14.5485 47.1048
957 2 9.37439 44.9507 7.14764
958 2 11.9499 42.3996 53.9994
959 2 52.1274 40.5409 27.6138
960 2 11.643 35.2689 12.5753
961 2 24.8929 30.6494 52.9731
962 2 12.8859 30.9778 12.0664
963 2 51.4015 46.4871 19.8681
964 2 8.42777 40.7371 51.2997
965 2 7.54309 27.2225 52.6285
966 2 38.6136 24.6692 53.3418
967 2 13.2658 21.5145 53.693
968 2 15.3319 31.0385 48.3645
969 2 47.5734 30.1053 31.4587
970 2 11.8638 17.5357 29.8186
971 2 30.8678 21.2524 47.2872
972 2 16.7776 27.5942 21.9731
973 2 27.2104 25.7372 20.723
974 2 8.53255 11.5339 36.6794
975 2 41.1039 36.4835 47.393
976 2 48.2266 18.1926 53.2903
977 2 47.6442 18.9463 30.6206
978 2 54.0317 31.1189 18.5103
979 2 48.4094 32.3948 39.6718
980 2 50.1745 6.91226 38.5078
981 2 21.7285 24.8369 17.6942
982 2 43.5772 22.2656 37.2692
983 2 29.0919 52.6377 42.4767
984 2 44.9879 12.3466 51.6022
985 2 53.9957 22.0451 15.2209
986 2 16.6606 13.3792 44.8941
987 2 40.568 13.9112 6.77617
988 2 41.2549 6.61891 15.4537
989 2 11.47 6.46833 48.0876
990 2 48.4008 28.0201 18.0023
991 2 20.3533 12.5408 36.8489
992 2 13.1687 51.249 14.9641
993 2 21.6918 19.7818 10.3108
994 2 19.0309 12.4238 9.62904
995 2 36.5621 25.1001 44.5485
996 2 34.7802 19.5197 27.7005
997 2 7.23414 9.32181 34.9795
998 2 13.1138 20.2846 43.8614
999 2 11.8376 53.7713 15.6599
1000 2 24.8205 7.06009 41.0536
1001 2 24.6749 42.4877 52.3016
1002 2 16.9031 39.246 30.5583
1003 2 7.32905 34.1425 14.7409
1004 2 38.476 48.3387 43.3669