ITEM: TIMESTEP
0
ITEM: NUMBER OF ATOMS
9088
ITEM: BOX BOUNDS xy xz yz pp pp pp
6.0616542682899146e+00 5.5869283523812122e+01 -5.7145023819402393e-15
6.0616542682899199e+00 5.5869283523812122e+01 0.0000000000000000e+00
6.0616542682899199e+00 5.5869283523812122e+01 0.0000000000000000e+00
ITEM: ATOMS id type x y z
1 2 23.8237 38.4847 32.1104
2 2 45.6257 27.6347 48.7996
3 2 32.8912 49.2215 40.441
4 2 6.54591 33.5171 47.129
5 2 52.9678 23.6801 47.6262
6 2 25.0309 17.3312 21.6157
7 2 6.59962 27.9648 38.7984
8 2 16.8535 48.9987 34.7945
9 2 46.3081 12.6793 46.3509
10 2 41.968 8.44525 49.2559
11 2 19.2722 49.3284 44.4701
12 2 45.1488 13.9743 15.0374
13 2 53.0949 37.5275 19.1542
14 2 38.6 19.8628 49.0863
15 2 33.1764 48.3717 14.7607
16 2 27.7448 6.39449 21.6966
17 2 6.61579 26.7226 25.2794
18 2 23.9127 13.6274 49.1855
19 2 7.08775 21.6666 43.6186
20 2 8.61988 22.7731 34.4257
21 2 13.3309 8.70561 12.3216
22 2 18.6589 12.6051 31.3268
23 2 14.8588 26.6598 24.7995
24 2 47.1746 30.4282 37.1375
25 2 30.9645 34.3109 16.7169
26 2 33.0236 48.0845 23.2585
27 2 21.9446 41.001 9.53779
28 2 37.3466 33.6565 46.7294
29 2 9.85797 55.571 25.8526
30 2 54.0182 49.9351 15.022
31 2 29.1496 37.598 53.949
32 2 49.1174 33.1951 41.096
33 2 49.1784 50.9459 31.0584
34 2 27.5198 24.6917 27.9054
35 2 20.9702 26.3005 6.82681
36 2 29.7653 42.6753 48.0887
37 2 27.5185 38.0365 36.4376
38 2 13.1012 45.5686 14.5701
39 2 21.5311 50.804 44.9379
40 2 16.1067 28.5419 13.0962
41 2 40.4427 37.637 30.4329
42 2 10.4685 44.2141 33.7567
43 2 7.61643 35.2127 36.4802
44 2 18.5209 22.0258 15.086
45 2 13.7359 13.9602 53.6574
46 2 34.3959 51.0859 47.6997
47 2 54.5801 41.7732 27.7688
48 2 20.1319 14.2321 18.0551
49 2 18.0534 32.4523 44.4699
50 2 39.807 10.5158 12.8092
51 2 15.8542 20.4063 46.1165
52 2 14.8591 19.088 7.50257
53 2 6.67316 26.3302 49.9217
54 2 33.5259 43.8903 14.7039
55 2 54.5746 12.9848 44.5236
56 2 37.6407 32.957 52.6457
57 2 40.5122 20.3473 37.674
58 2 41.7026 26.0458 45.3101
59 2 55.4177 37.8881 41.1012
60 2 40.7475 17.9534 7.45331
61 2 22.3903 21.1379 22.0011
62 2 14.0747 28.7649 32.2366
63 2 42.8445 29.1471 54.4702
64 2 8.40001 26.3462 42.9617
65 2 31.5562 18.6096 40.071
66 2 31.2704 51.7964 18.306
67 2 49.0231 38.4088 9.32526
68 2 40.1735 9.22587 43.5192
69 2 17.9689 32.2316 18.8073
70 2 47.8963 29.1338 47.3036
71 2 8.05965 28.3143 23.3249
72 2 24.2542 27.4198 41.5672
73 2 42.3146 28.8335 8.58117
74 2 15.8334 37.5165 12.383
75 2 42.3867 52.6599 20.5437
76 2 43.5838 31.4529 8.87319
77 2 19.2097 52.3835 18.556
78 2 31.7738 13.5355 44.5309
79 2 38.6945 49.1231 19.5343
80 2 27.5262 43.0164 50.0437
81 2 24.5743 30.8992 15.4721
82 2 9.82266 48.0809 39.9538
83 2 10.2058 26.3814 15.8549
84 2 32.6987 26.1682 52.4473
85 2 24.526 31.431 33.1787
86 2 22.6493 28.4669 21.2793
87 2 16.6292 24.2661 48.9089
88 2 53.1482 9.76998 54.3429
89 2 44.7306 38.4346 30.0817
90 2 16.6757 11.4064 11.2146
91 2 25.0976 49.5541 31.3594
92 2 10.0471 54.1693 17.173
93 2 45.079 42.5113 22.0001
94 2 34.9439 34.8205 45.4797
95 2 31.6501 50.5319 37.3478
96 2 44.0415 37.4616 17.4393
97 2 29.8586 28.3754 49.0755
98 2 10.3995 14.4062 39.6036
99 2 14.0003 51.4648 18.743
100 2 45.4657 10.9348 15.4453
101 2 19.1347 20.2525 49.0704
102 2 34.4316 43.2566 6.56605
103 2 46.9437 16.8072 41.7514
104 2 10.3078 27.5572 32.5925
105 2 52.0464 17.8268 11.5538
106 2 40.9509 35.3222 17.9735
107 2 30.498 45.3068 7.58835
108 2 21.7976 40.2078 38.914
109 2 53.6672 53.8859 42.9959
110 2 11.4062 20.8448 48.9611
111 2 54.7301 10.3557 46.7971
112 2 21.1238 17.4984 49.4849
113 2 29.658 39.2851 44.9533
114 2 21.8121 46.5472 18.4808
115 2 27.5171 44.2323 16.5339
116 2 26.3028 47.8623 40.0263
117 2 15.3564 15.6819 33.9565
118 2 16.6893 31.9713 55.2213
119 2 49.1958 52.0651 43.8453
120 2 8.00807 28.6931 11.6887
121 2 48.8551 12.7416 34.9535
122 2 14.7282 46.5848 49.7571
123 2 28.5678 51.5918 14.4869
124 2 15.9735 28.5984 48.1545
125 2 48.0328 16.225 53.1619
126 2 23.7641 45.9461 40.5601
127 2 51.9504 11.8097 31.9014
128 2 37.2383 33.9318 25.5097
129 2 17.078 24.1988 6.13517
130 2 32.5174 20.3169 37.6886
131 2 43.3887 9.34369 7.05073
132 2 16.2957 49.0813 48.7717
133 2 23.1295 30.7666 55.0408
134 2 11.2667 31.5581 34.3556
135 2 17.14 44.5459 36.9863
136 2 44.1652 47.2961 9.35235
137 2 6.62717 36.6341 19.199
138 2 33.4531 12.7972 24.1862
139 2 42.3282 9.39355 28.608
140 2 51.8366 29.4797 15.3855
141 2 31.0959 26.8132 19.9795
142 2 13.7508 50.6311 38.5951
143 2 34.7433 14.6176 39.1887
144 2 53.5902 8.32071 26.0046
145 2 26.5453 14.1021 14.6294
146 2 11.5081 53.41 39.6019
147 2 20.1551 37.6473 23.5802
148 2 8.88816 18.2146 43.0409
149 2 18.0646 11.8579 46.2644
150 2 7.62605 32.4503 31.3873
151 2 51.9186 36.7099 53.1642
152 2 54.9254 53.5404 19.9681
153 2 6.20399 40.3001 50.3749
154 2 24.9528 16.6863 31.3466
155 2 22.694 53.9861 10.8575
156 2 20.2404 41.0154 52.6226
157 2 18.0331 48.9366 18.0982
158 2 34.4934 33.6786 16.4629
159 2 8.27714 52.9016 26.0619
160 2 14.8717 12.204 50.8123
161 2 16.2303 28.377 43.2721
162 2 28.7956 12.1012 10.8564
163 2 32.1643 12.7507 31.4133
164 2 20.2599 48.2819 31.7048
165 2 17.2879 23.5011 26.6308
166 2 14.786 32.5013 49.054
167 2 11.3306 41.5538 46.0272
168 2 44.9891 53.2283 40.2157
169 2 22.604 31.3098 12.9112
170 2 50.6386 29.716 12.7711
171 2 8.1497 51.3698 43.7037
172 2 53.7689 22.9743 40.7335
173 2 48.4084 19.5963 28.0693
174 2 52.7991 11.3907 42.4613
175 2 53.7637 30.7512 9.8402
176 2 33.5728 16.6412 34.2423
177 2 36.089 44.7236 44.6673
178 2 20.8217 36.7558 28.8992
179 2 6.46384 41.1413 32.4899
180 2 44.978 44.2543 19.6924
181 2 46.0074 19.8038 30.2073
182 2 27.0055 29.9966 14.7819
183 2 34.1787 38.4198 15.354
184 2 44.3191 26.7373 11.5098
185 2 22.2929 20.1456 37.6636
186 2 39.5041 12.123 46.0695
187 2 22.0801 39.5298 27.8584
188 2 36.5567 37.0254 32.5976
189 2 41.3224 41.6913 19.8251
190 2 20.46 25.6403 43.5118
191 2 11.1103 48.1763 8.40644
192 2 24.0598 6.10126 51.7102
193 2 41.3866 31.0727 30.0142
194 2 27.3496 53.7675 16.4796
195 2 40.5325 21.1078 20.7555
196 2 18.3254 7.56233 13.6784
197 2 6.51636 8.39858 48.3226
198 2 27.7482 18.6726 10.4209
199 2 27.5012 28.9611 54.8864
200 2 43.937 39.0412 19.8918
201 2 47.7421 31.1491 54.1381
202 2 13.7425 21.9412 26.638
203 2 9.81588 32.7418 13.2544
204 2 24.2398 50.2241 13.3029
205 2 8.99184 9.73455 34.8216
206 2 31.1254 16.4585 53.468
207 2 45.3223 48.0069 33.1568
208 2 55.1149 47.1765 12.5446
209 2 41.9573 41.7434 41.2269
210 2 51.9579 15.2202 55.1056
211 2 33.3912 25.8224 41.1448
212 2 28.7403 43.2122 19.0096
213 2 48.8875 51.0159 33.8633
214 2 48.9145 16.1779 47.0726
215 2 46.4839 34.4654 55.7545
216 2 35.4867 30.7287 53.7743
217 2 41.2521 13.1736 24.7833
218 2 10.4024 27.4136 53.071
219 2 43.6536 23.9916 9.8213
220 2 9.24466 26.0529 11.5174
221 2 8.64417 35.367 11.7683
222 2 32.9545 9.37775 52.1116
223 2 18.1468 8.96239 48.8214
224 2 51.6218 35.262 38.6917
225 2 8.97559 39.7573 28.7921
226 2 30.904 52.4705 51.3942
227 2 37.1017 54.936 7.7013
228 2 17.4104 48.6393 29.4141
229 2 18.009 15.4573 20.8702
230 2 16.4604 23.8372 13.2216
231 2 34.0634 28.67 49.7294
232 2 19.4983 37.3227 49.5966
233 2 34.2906 45.8722 50.824
234 2 53.3628 50.2069 22.0589
235 2 38.9763 47.9552 27.1363
236 2 22.1025 51.0799 51.6602
237 2 9.37111 38.4406 20.086
238 2 28.2894 46.8082 42.4969
239 2 8.02669 31.1735 33.9943
240 2 45.5943 8.655 21.3923
241 2 16.0501 44.2673 26.4459
242 2 17.1995 53.7631 48.7689
243 2 10.3759 12.7245 35.4209
244 2 11.5963 36.8531 44.6907
245 2 32.2648 30.7796 13.069
246 2 6.63675 26.8855 18.6738
247 2 40.5487 20.4129 54.2149
248 2 42.3103 34.5989 26.4175
249 2 35.121 40.1544 8.00491
250 2 41.9898 13.9082 35.2181
251 2 15.5144 23.2914 51.4793
252 2 45.0604 16.5685 21.9059
253 2 53.1194 43.8707 41.3586
254 2 51.9384 23.2867 21.4261
255 2 19.0402 42.0585 50.1825
256 2 52.1232 28.7424 37.997
257 2 6.63177 14.0536 22.3461
258 2 8.92012 38.1021 22.9071
259 2 41.4661 31.7474 48.2763
260 2 24.1578 45.7629 33.9404
261 2 46.5067 41.0305 6.37319
262 2 37.5257 11.4425 36.1767
263 2 9.89791 42.153 37.7184
264 2 44.3749 17.6087 46.4467
265 2 19.9678 38.5049 40.7533
266 2 47.5485 14.0729 25.4116
267 2 43.962 51.9154 33.384
268 2 47.3865 39.8872 36.4855
269 2 13.5307 14.6301 50.4756
270 2 25.0585 6.7071 29.4897
271 2 53.4035 8.02161 29.3838
272 2 46.8641 23.8611 13.607
273 2 13.4175 44.1062 29.187
274 2 25.3614 43.9101 8.38602
275 2 39.4462 10.7986 29.0836
276 2 52.8178 32.1431 15.8979
277 2 35.6864 39.2151 11.2925
278 2 54.7011 30.2967 50.758
279 2 40.497 48.9947 33.7482
280 2 22.4058 23.5373 7.0241
281 2 20.0558 22.6753 55.0501
282 2 19.9173 24.7449 15.5896
283 2 23.7517 30.2262 43.2631
284 2 54.2874 7.58865 22.3605
285 2 36.4975 51.8969 16.8823
286 2 12.6199 20.6536 6.3152
287 2 45.0671 27.7155 41.2173
288 2 44.1245 30.8646 45.3429
289 2 14.1199 16.4266 30.7899
290 2 45.1879 28.1686 38.1985
291 2 7.7444 8.38026 11.7929
292 2 47.7819 6.09285 45.7992
293 2 14.4142 16.3216 6.19117
294 2 51.3311 32.7934 7.15672
295 2 24.3809 25.0676 33.7826
296 2 10.0825 7.40459 53.1462
297 2 22.6639 53.5721 53.4867
298 2 44.7231 19.8304 55.3914
299 2 24.5529 48.9583 16.3844
300 2 34.0135 12.4007 33.9864
301 2 29.6546 48.3216 36.4054
302 2 39.331 11.0357 24.2594
303 2 15.8584 18.2654 26.7751
304 2 23.4757 19.5535 19.8005
305 2 20.9136 7.15481 9.85562
306 2 38.1382 38.4429 28.9524
307 2 17.9222 20.3731 21.121
308 2 11.2186 50.8371 20.9941
309 2 29.6288 55.3733 17.3574
310 2 50.2404 15.2922 40.0004
311 2 55.1853 26.9761 7.72145
312 2 35.4164 15.4294 12.894
313 2 17.7051 46.7298 55.0748
314 2 35.4987 8.11737 40.7837
315 2 44.8295 41.8526 9.43932
316 2 42.1512 54.111 6.90022
317 2 35.7018 15.8446 55.6137
318 2 8.06802 8.73762 16.54
319 2 49.5675 44.4941 21.4687
320 2 44.7937 28.197 19.7833
321 2 38.668 14.4982 44.3219
322 2 54.5611 30.4654 35.0459
323 2 39.6668 24.2103 44.1083
324 2 36.833 53.558 11.3024
325 2 18.0731 45.5464 21.2429
326 2 12.5667 49.7629 13.4992
327 2 27.7474 54.8629 25.9469
328 2 11.7877 45.3707 9.51129
329 2 34.9606 11.3984 16.4849
330 2 28.188 47.7789 7.85814
331 2 42.9566 17.8948 9.88445
332 2 37.6823 14.8184 51.3053
333 2 6.49854 34.3699 26.9606
334 2 9.17142 21.3096 25.8796
335 2 37.0519 9.79059 22.6261
336 2 21.2125 54.4034 20.5771
337 2 15.7679 31.1059 34.869
338 2 49.6688 23.4156 41.7857
339 2 27.8152 22.3871 8.88625
340 2 50.0338 38.1024 20.7697
341 2 55.1186 13.0753 35.6376
342 2 36.5119 54.4118 23.5063
343 2 35.5663 26.0867 51.7272
344 2 50.3447 6.56887 23.4723
345 2 7.51272 13.1501 47.2763
346 2 45.8323 9.5947 35.5387
347 2 51.2888 32.1047 34.66
348 2 36.1645 41.5136 35.4756
349 2 16.2422 49.8648 39.9608
350 2 28.0039 14.5951 35.0516
351 2 44.104 50.1262 40.4901
352 2 20.439 55.377 25.3145
353 2 20.9842 35.4183 47.4641
354 2 37.5132 17.8659 39.681
355 2 12.9949 39.0344 13.994
356 2 34.9171 34.9043 37.0769
357 2 19.7366 44.7926 33.2724
358 2 43.2156 27.5334 35.4421
359 2 6.98216 27.1254 28.3454
360 2 8.59665 38.2141 47.6478
361 2 38.0473 7.58319 29.2264
362 2 15.9918 54.8352 46.4182
363 2 34.3192 15.5377 8.31973
364 2 12.9085 38.2751 8.8152
365 2 13.3558 14.5987 21.3587
366 2 7.55807 47.793 27.7651
367 2 40.7148 36.7343 45.7969
368 2 11.429 31.9348 21.4258
369 2 15.0301 39.3772 23.5642
370 2 49.9039 18.4331 52.654
371 2 52.1975 34.554 49.3169
372 2 51.3959 52.6704 9.34206
373 2 13.4012 40.9888 18.4312
374 2 30.872 37.3044 27.6518
375 2 20.8579 23.1968 45.3112
376 2 21.9139 10.837 12.1101
377 2 55.1906 51.5183 47.2399
378 2 15.6668 41.5332 29.511
379 2 11.9055 26.3037 23.6426
380 2 47.3324 42.1307 17.0826
381 2 54.6897 49.9501 55.3649
382 2 9.39157 27.5963 39.8835
383 2 50.2019 11.5334 8.4851
384 2 11.5687 34.9691 24.6049
385 2 52.2388 27.9749 46.645
386 2 36.22 39.6587 31.4145
387 2 38.1763 34.2902 31.7574
388 2 53.0809 15.5252 7.82437
389 2 7.77702 30.8438 50.8484
390 2 6.294 38.8214 36.8369
391 2 6.68264 34.3739 7.18437
392 2 44.8052 31.9729 31.684
393 2 30.1869 50.039 8.85525
394 2 12.4584 36.106 48.9189
395 2 22.8115 6.67014 6.99379
396 2 30.701 11.0159 50.2181
397 2 53.8688 9.85057 8.61448
398 2 21.7135 34.4174 30.8155
399 2 26.9412 29.3041 26.686
400 2 9.09069 43.6354 8.41664
401 2 53.934 18.331 40.2178
402 2 40.1285 8.44867 31.3131
403 2 51.4985 34.1341 11.1313
404 2 16.3554 54.226 55.0961
405 2 12.4923 50.1551 46.8124
406 2 21.6614 31.0262 46.7465
407 2 24.8966 40.9152 16.0614
408 2 25.4011 55.6154 54.4544
409 2 40.5795 37.4915 55.6128
410 2 45.849 14.9923 31.2307
411 2 12.2491 47.471 21.2851
412 2 19.6853 23.1146 9.90855
413 2 49.3624 37.7955 16.0282
414 2 38.604 27.6333 28.4375
415 2 47.1372 16.8223 29.1369
416 2 38.4622 17.4721 45.6496
417 2 6.56559 11.8276 38.1283
418 2 8.07824 46.6611 49.4325
419 2 29.3594 19.4513 24.3082
420 2 10.3524 55.2105 42.285
421 2 16.9872 37.5572 33.0277
422 2 29.3799 37.5533 19.2476
423 2 35.2125 10.9032 13.4251
424 2 38.7686 40.515 15.2683
425 2 52.9231 25.612 53.9994
426 2 14.8833 9.03765 41.4533
427 2 21.2959 54.588 34.9653
428 2 54.0237 55.7933 33.921
429 2 14.5312 54.1878 11.6333
430 2 37.7729 28.8712 33.0087
431 2 16.4355 44.4328 6.59805
432 2 13.9827 22.831 35.0353
433 2 13.6905 50.0262 43.8115
434 2 51.6966 20.6993 48.3666
435 2 19.6014 17.7157 21.2997
436 2 49.1269 43.2465 39.2041
437 2 12.9918 45.0152 20.6248
438 2 31.7109 32.9275 30.9289
439 2 10.3854 23.0043 45.1858
440 2 48.4371 13.623 44.6618
441 2 26.002 17.5264 7.89923
442 2 33.0394 53.8232 9.47368
443 2 44.1065 12.7722 22.3902
444 2 20.1366 26.867 41.1543
445 2 39.9313 42.5248 32.5632
446 2 47.9541 43.7269 49.5538
447 2 18.3193 11.0834 15.4494
448 2 7.66532 48.9768 11.5501
449 2 20.3308 14.8824 33.3761
450 2 14.194 35.5954 20.9786
451 2 46.558 31.767 34.2382
452 2 35.5392 20.6531 26.3783
453 2 11.494 12.9853 20.2816
454 2 30.2521 50.3899 42.4576
455 2 38.4207 43.2432 43.9352
456 2 15.857 17.0141 49.9729
457 2 13.4815 42.4752 8.16932
458 2 33.5425 14.8794 42.1384
459 2 41.8149 50.4734 49.3967
460 2 47.5462 12.6995 31.5054
461 2 21.4062 15.6532 54.2023
462 2 12.8511 30.4402 14.76
463 2 41.6975 12.5501 40.921
464 2 21.1068 16.1777 45.897
465 2 44.1187 43.3128 30.4871
466 2 23.6759 35.112 54.4972
467 2 9.02011 10.8338 12.8081
468 2 30.7227 47.4057 40.7909
469 2 42.8758 47.3821 40.7104
470 2 34.643 43.3224 53.1433
471 2 29.6735 47.0795 50.4661
472 2 27.9427 16.9708 55.3202
473 2 39.8553 8.01933 25.6777
474 2 7.63723 17.4718 13.4269
475 2 28.7879 22.6335 39.9562
476 2 55.1067 18.3521 11.9931
477 2 24.5762 29.1333 11.3693
478 2 13.7514 27.5023 14.455
479 2 27.331 49.6116 17.7906
480 2 12.1339 7.8316 24.7413
481 2 10.5119 24.1254 25.5102
482 2 19.6776 12.1462 11.3428
483 2 47.374 17.9192 10.0889
484 2 36.8423 9.07948 48.2577
485 2 8.27921 54.3354 50.2483
486 2 36.1155 31.508 42.8026
487 2 21.0721 47.2771 37.9194
488 2 48.5656 54.658 16.4841
489 2 45.0855 26.5001 46.0843
490 2 26.6159 33.9639 55.5971
491 2 26.0016 24.8961 48.2646
492 2 25.717 13.7426 30.7328
493 2 32.1905 19.1471 35.0952
494 2 41.4218 51.2495 45.721
495 2 53.2044 49.1361 32.718
496 2 37.1078 52.0933 13.965
497 2 44.249 16.5582 43.2131
498 2 8.95849 43.833 52.8158
499 2 43.5727 40.6061 33.6597
500 2 48.4099 8.50613 25.1473
501 2 6.57455 20.6299 13.0992
502 2 22.3449 35.6039 21.9603
503 2 13.2368 46.2556 37.7882
504 2 16.6603 15.2708 54.2486
505 2 12.8782 18.0259 48.7498
506 2 7.28226 6.18905 28.9164
507 2 11.7575 6.52005 11.2299
508 2 42.1111 31.6073 38.9769
509 2 54.1249 36.5141 38.0157
510 2 33.6608 9.49236 35.1748
511 2 18.5804 34.938 19.7435
512 2 38.4897 51.5913 55.7001
513 2 26.1524 54.6586 36.0236
514 2 40.7268 15.5846 46.5099
515 2 26.1466 27.2688 18.6335
516 2 33.0526 17.5647 15.8791
517 2 21.7157 20.8409 10.1845
518 2 20.4081 28.4493 10.3438
519 2 25.3506 46.392 20.6909
520 2 35.3079 16.1349 26.1373
521 2 52.391 35.0446 35.4568
522 2 22.6795 43.6395 26.3706
523 2 16.1054 45.7521 52.879
524 2 31.9642 49.3708 48.3329
525 2 37.0853 46.6337 55.1747
526 2 22.2058 11.4004 36.1273
527 2 38.9302 24.0142 48.0847
528 2 55.2406 23.2375 10.4484
529 2 30.2515 31.786 18.4892
530 2 36.1502 35.5505 18.3534
531 2 7.13875 16.5615 47.8853
532 2 25.0696 9.19733 33.2917
533 2 15.3017 44.7522 41.2942
534 2 11.9283 31.4464 50.609
535 2 47.8776 37.7244 52.2091
536 2 42.6061 19.725 25.1771
537 2 52.1917 51.4255 24.6024
538 2 13.5228 43.3279 24.6863
539 2 49.4474 47.8426 25.095
540 2 32.1895 28.2579 31.009
541 2 44.9085 50.8464 17.4792
542 2 17.195 31.1635 14.5978
543 2 26.9356 31.3421 48.5077
544 2 20.5554 51.3414 37.3439
545 2 10.6663 41.1497 22.1303
546 2 18.1541 21.8164 7.55663
547 2 6.80324 26.5808 10.0957
548 2 44.2408 21.46 51.2942
549 2 43.1468 11.159 49.1907
550 2 36.0683 48.7792 54.1546
551 2 50.8144 50.9656 41.4836
552 2 32.542 49.7868 25.576
553 2 8.90603 34.3377 53.1912
554 2 53.3302 31.4542 32.5008
555 2 26.5448 30.2907 45.47
556 2 16.6548 23.7579 46.2061
557 2 54.0445 41.4754 47.7972
558 2 49.0831 47.1871 42.7412
559 2 29.5483 29.9113 28.3078
560 2 16.4577 8.95478 33.4232
561 2 49.5082 38.3651 54.9974
562 2 54.2031 37.8083 47.1006
563 2 19.7337 17.9027 24.4461
564 2 21.4749 44.3787 37.2467
565 2 42.0616 22.4002 42.144
566 2 35.2955 8.60797 31.0017
567 2 9.28748 19.0111 52.6447
568 2 28.6873 25.1449 52.4435
569 2 39.769 50.2546 28.9186
570 2 33.0907 45.6979 47.8638
571 2 47.4916 37.1092 40.7101
572 2 43.6173 23.8 35.4866
573 2 27.9553 37.1344 28.7834
574 2 24.0267 24.8772 27.2344
575 2 19.7097 41.1742 34.5826
576 2 19.3221 25.5976 48.4535
577 2 21.3761 36.0777 13.1591
578 2 8.42791 31.8912 20.865
579 2 13.5952 54.6256 27.851
580 2 8.66342 28.6341 48.6823
581 2 10.4836 38.6338 40.903
582 2 32.688 23.3662 34.3288
583 2 54.012 36.5675 23.3499
584 2 39.428 52.4314 52.8409
585 2 34.5157 36.5786 40.4498
586 2 55.4608 11.8131 23.6214
587 2 42.0861 20.7954 32.0476
588 2 21.707 21.4191 41.3977
589 2 26.464 14.3425 38.0146
590 2 30.571 6.22657 48.5457
591 2 35.075 28.6517 6.50081
592 2 44.629 50.7734 6.79
593 2 12.5015 20.2825 28.6016
594 2 23.9473 42.7508 33.7046
595 2 37.1186 42.036 52.6562
596 2 31.0038 55.4853 14.698
597 2 28.203 27.3964 28.4543
598 2 25.0976 49.5094 47.83
599 2 27.5831 43.1163 26.0423
600 2 55.4997 30.0409 40.9996
601 2 31.0155 19.2117 18.0654
602 2 35.5433 47.6564 37.4192
603 2 20.5745 33.8116 15.5295
604 2 36.1738 40.4949 38.2692
605 2 48.4851 15.3216 11.6
606 2 12.8814 15.0936 10.1457
607 2 27.7817 19.8462 20.3882
608 2 46.7281 55.1934 31.479
609 2 35.1614 45.1743 17.0836
610 2 18.2819 39.3061 14.6493
611 2 40.3882 10.279 50.6954
612 2 11.1411 35.72 29.0324
613 2 7.53944 23.1733 22.9606
614 2 39.7277 46.7472 41.8045
615 2 8.87633 11.6439 20.1039
616 2 50.1695 48.498 32.5371
617 2 7.24999 54.2078 39.696
618 2 52.781 48.2113 37.7805
619 2 19.3321 52.7252 13.937
620 2 25.0956 30.8736 28.5932
621 2 17.69 41.2329 18.4082
622 2 35.1274 12.3001 21.9835
623 2 17.4158 10.2627 28.7097
624 2 22.1932 42.0154 16.0716
625 2 43.3242 20.5995 13.7199
626 2 14.9037 24.3021 15.982
627 2 44.9253 42.6261 52.1435
628 2 47.9125 46.731 31.3096
629 2 8.53185 43.2288 42.0903
630 2 10.4848 24.1132 9.77958
631 2 41.9349 7.81605 18.5551
632 2 19.2296 13.3059 7.77811
633 2 49.6114 43.812 13.3985
634 2 40.522 27.873 50.741
635 2 18.8367 43.1798 38.5914
636 2 39.729 24.1103 35.0234
637 2 25.2163 40.4671 47.2504
638 2 28.1906 24.8034 7.49739
639 2 6.3131 24.965 54.7785
640 2 24.0077 51.766 46.0321
641 2 15.5343 16.0627 40.6364
642 2 26.0778 23.868 31.478
643 2 33.7247 52.4365 6.59537
644 2 22.2274 48.5194 49.5761
645 2 27.9708 34.1579 47.1224
646 2 14.7618 9.54739 25.9302
647 2 11.1039 15.2906 42.6074
648 2 14.6524 35.122 39.1093
649 2 51.4888 54.6799 25.8445
650 2 36.6744 34.9306 6.5139
651 2 51.2986 43.8097 23.7484
652 2 53.0462 43.0535 35.966
653 2 35.6631 27.1132 43.1381
654 2 41.5589 48.1179 20.5431
655 2 48.7806 40.1864 40.8158
656 2 35.107 36.3659 10.637
657 2 33.794 38.3432 18.9601
658 2 40.4859 23.9253 16.5834
659 2 22.6352 35.7889 42.0538
660 2 50.788 28.3105 7.39074
661 2 30.2347 18.6695 8.70015
662 2 10.3149 38.8505 51.7393
663 2 46.4009 30.1347 8.89132
664 2 22.0335 46.4313 6.24845
665 2 53.3285 11.995 12.3696
666 2 7.92621 50.8431 33.9976
667 2 27.1174 44.1565 55.401
668 2 44.8604 34.7372 43.3273
669 2 36.3428 21.3024 21.2192
670 2 32.142 45.667 18.7846
671 2 9.7134 39.5391 44.0105
672 2 53.5591 12.5132 54.36
673 2 15.2139 20.4298 54.6995
674 2 46.7263 48.5121 44.4841
675 2 27.4239 12.3797 25.9395
676 2 25.9985 18.3571 27.0743
677 2 30.6766 48.0694 12.0223
678 2 36.7294 20.353 17.9692
679 2 50.1604 20.311 12.6457
680 2 14.5831 26.2889 30.3479
681 2 48.2366 18.7497 45.3625
682 2 34.7261 45.7184 24.2889
683 2 15.0051 38.7319 45.117
684 2 8.7454 15.7281 25.9957
685 2 19.1605 29.315 41.4528
686 2 42.369 40.3366 9.13122
687 2 33.3576 35.5838 14.8661
688 2 54.6799 22.7839 37.4616
689 2 37.5094 46.4172 31.0852
690 2 30.9818 11.93 22.5306
691 2 15.0236 50.2066 25.6139
692 2 15.4862 42.2526 51.726
693 2 39.4434 24.0146 11.646
694 2 45.5106 19.9304 45.9603
695 2 13.0066 30.8073 30.2093
696 2 25.5008 48.6313 53.908
697 2 40.7515 29.1599 12.8159
698 2 36.098 52.8281 40.5909
699 2 36.9361 6.73755 37.8866
700 2 39.6426 40.4296 22.7096
701 2 46.6383 49.3122 41.5984
702 2 7.3923 20.8374 28.2455
703 2 38.5183 54.4552 55.1142
704 2 16.6738 24.5454 39.2948
705 2 43.6783 43.2237 35.7569
706 2 13.6779 47.3058 42.9298
707 2 51.902 24.2557 8.25761
708 2 55.3574 38.2531 9.42506
709 2 15.736 11.6306 32.419
710 2 41.5004 34.9966 39.6511
711 2 8.07675 44.3644 12.6637
712 2 16.3146 26.4064 32.9802
713 2 20.4232 42.9954 45.8303
714 2 52.7501 24.9074 50.7573
715 2 46.4145 26.983 6.9547
716 2 22.9943 48.8075 33.7185
717 2 12.4806 19.5773 15.9747
718 2 50.8326 37.3104 27.7891
719 2 9.73006 52.5077 29.9929
720 2 27.7039 35.1094 19.2681
721 2 43.722 54.1016 13.6358
722 2 50.3142 54.1491 48.0263
723 2 53.399 40.4545 41.2458
724 2 22.5189 15.4635 12.018
725 2 49.5562 43.151 53.9821
726 2 39.2075 47.8734 24.0339
727 2 8.17254 51.3172 13.7177
728 2 35.2905 14.1103 36.3438
729 2 31.3504 42.4744 7.0719
730 2 40.5548 27.3095 33.8395
731 2 19.0058 32.746 12.9882
732 2 28.1294 46.0828 37.6474
733 2 22.0968 50.9113 11.0378
734 2 24.813 33.4557 13.4777
735 2 51.3506 18.8393 34.6184
736 2 48.0578 12.58 28.1333
737 2 12.303 37.9269 24.301
738 2 47.5722 52.1533 46.5981
739 2 28.7386 40.7243 30.9818
740 2 16.4161 48.3359 44.5678
741 2 12.7467 14.677 34.6638
742 2 47.6174 28.4905 19.3428
743 2 17.3909 12.147 21.0716
744 2 16.2232 41.331 15.7137
745 2 40.9206 6.07735 50.645
746 2 54.5114 20.7545 52.6957
747 2 37.3361 14.5596 22.7682
748 2 50.0888 29.6735 24.2857
749 2 47.8192 25.6581 20.8533
750 2 21.2559 38.5007 17.779
751 2 52.2853 49.6738 18.898
752 2 51.7263 51.026 55.1228
753 2 38.2608 54.2993 36.673
754 2 26.7044 50.4243 8.71754
755 2 53.5509 12.5583 7.54004
756 2 40.6614 47.2986 47.8756
757 2 50.3339 49.7058 16.5451
758 2 16.1333 25.3511 20.7232
759 2 44.41 39.4956 37.5126
760 2 25.7043 20.0799 17.1519
761 2 20.6848 40.6853 31.5633
762 2 11.0713 44.2682 54.6678
763 2 55.7053 14.1798 9.15337
764 2 47.7829 16.7774 34.093
765 2 44.7641 35.5434 39.7823
766 2 54.8998 30.7514 47.587
767 2 32.4762 41.6241 41.037
768 2 15.3731 37.8164 6.97313
769 2 32.0907 49.8628 45.2298
770 2 52.6295 23.5187 30.3048
771 2 51.2093 28.3223 54.1745
772 2 29.8554 50.6014 53.7023
773 2 9.25213 13.6599 24.1098
774 2 54.9271 27.0478 22.6777
775 2 43.7083 24.1825 22.9876
776 2 9.72669 6.1707 15.0664
777 2 15.3583 17.0282 37.2178
778 2 49.0869 26.1575 30.1034
779 2 43.7115 18.0559 13.1938
780 2 38.2812 44.8256 18.1515
781 2 43.4292 37.6395 8.15294
782 2 17.3057 41.782 54.5143
783 2 39.6562 35.7397 24.9488
784 2 47.996 42.6132 45.1954
785 2 46.3723 11.1928 33.5271
786 2 16.1521 46.9932 14.7397
787 2 48.2521 15.7669 37.732
788 2 6.15392 24.3045 44.3754
789 2 21.2108 25.5286 24.7586
790 2 37.3106 54.4163 15.839
791 2 39.7786 17.5699 54.4473
792 2 41.1121 12.943 16.0527
793 2 42.8002 17.1184 26.231
794 2 33.3015 11.7609 39.7792
795 2 47.6716 15.7632 20.7616
796 2 42.3934 49.0452 52.4084
797 2 39.3722 44.4512 55.4485
798 2 7.82899 13.9293 33.8268
799 2 32.843 8.76381 16.7046
800 2 26.758 54.192 7.07634
801 2 46.9865 52.2787 13.4506
802 2 37.3893 52.048 8.58807
803 2 28.5623 37.0109 46.3596
804 2 53.0283 25.3723 34.0938
805 2 8.89251 50.5871 53.5264
806 2 20.9254 10.4198 7.55734
807 2 43.0689 8.20082 54.2335
808 2 47.1335 48.4415 7.2953
809 2 25.0528 23.1242 16.5994
810 2 24.7108 36.5119 15.9199
811 2 27.291 28.1571 35.1962
812 2 50.814 23.5391 53.0444
813 2 22.9236 42.3827 52.7881
814 2 23.2625 33.4845 46.7513
815 2 25.8521 16.9645 44.7327
816 2 36.4085 11.6078 31.4695
817 2 18.68 42.7999 25.3392
818 2 55.8564 35.1695 40.4178
819 2 51.5027 37.4965 48.2136
820 2 20.6077 11.4185 45.1041
821 2 36.8561 32.7576 37.8778
822 2 9.68426 47.8132 25.2706
823 2 25.846 18.0276 50.4249
824 2 39.4097 30.3364 50.1422
825 2 49.7175 33.5008 21.7688
826 2 48.6245 6.46868 50.1466
827 2 18.5443 17.1811 55.5657
828 2 33.7559 38.0601 27.7861
829 2 7.41242 31.515 45.1395
830 2 11.2023 11.1073 38.042
831 2 54.1444 38.0368 6.67238
832 2 35.0516 23.4759 23.3062
833 2 24.4707 7.5676 12.1492
834 2 51.0122 10.1202 25.6136
835 2 7.11509 16.8927 39.3486
836 2 32.9487 39.5549 13.2005
837 2 47.8834 31.1963 17.7472
838 2 13.2427 37.3466 40.312
839 2 16.4553 19.8885 18.5343
840 2 45.2198 19.9986 11.3775
841 2 30.9974 54.4245 25.2628
842 2 8.17567 55.2781 23.9153
843 2 6.60842 46.3061 32.0797
844 2 53.9593 34.1771 53.264
845 2 20.1231 13.9903 22.6045
846 2 26.9542 31.244 35.3287
847 2 51.5185 21.2548 51.4293
848 2 26.5744 22.37 26.6943
849 2 20.0963 7.09815 36.5376
850 2 13.8881 6.41001 55.8195
851 2 44.0953 51.169 53.3458
852 2 17.9395 33.6705 34.057
853 2 46.3447 21.899 22.2369
854 2 14.9634 16.2119 13.4737
855 2 36.6646 17.985 7.76321
856 2 14.4704 54.0902 19.3445
857 2 15.5241 46.9364 36.0375
858 2 28.6388 14.8755 29.2996
859 2 15.9807 12.0174 18.3526
860 2 33.6308 13.4675 19.2501
861 2 48.4783 25.8798 43.6702
862 2 17.7918 37.5319 52.4103
863 2 19.2517 39.3688 9.48589
864 2 30.8031 15.4593 33.5266
865 2 21.9932 53.9557 39.5325
866 2 16.4944 31.5135 21.6382
867 2 14.7092 7.66662 46.6611
868 2 39.1076 13.1979 49.3644
869 2 37.5196 6.14668 52.4259
870 2 22.0994 44.4132 29.19
871 2 10.3929 32.9079 18.4654
872 2 48.7883 10.173 10.6358
873 2 24.3049 47.0048 23.3651
874 2 55.2075 50.8666 17.9306
875 2 37.2575 13.3782 40.0971
876 2 48.7785 53.902 22.6459
877 2 32.3935 21.8509 51.7436
878 2 32.5465 35.8111 30.0951
879 2 24.8629 27.4495 15.6979
880 2 22.8432 53.9989 13.7366
881 2 14.3822 11.2231 29.0541
882 2 29.8756 10.1166 33.7687
883 2 12.2572 25.5714 34.444
884 2 34.4793 22.8487 27.9033
885 2 25.9685 24.0635 19.3936
886 2 21.5565 40.2444 20.4325
887 2 51.3204 25.2381 43.6241
888 2 47.9388 53.1221 36.5992
889 2 44.909 7.76345 46.1942
890 2 49.0406 30.8077 7.47691
891 2 52.3877 34.171 13.7973
892 2 51.1972 18.875 20.4232
893 2 49.2802 11.3514 23.9601
894 2 52.9061 53.6825 51.7735
895 2 42.2355 15.2859 13.9327
896 2 39.4269 9.36482 7.89337
897 2 30.385 7.11387 42.1199
898 2 17.9127 17.0343 33.4029
899 2 8.56042 16.4029 20.5344
900 2 52.0436 26.0418 19.2802
901 2 8.67617 22.526 13.9334
902 2 12.1397 35.5626 17.3114
903 2 48.8491 23.5029 34.7604
904 2 31.221 6.12019 54.9222
905 2 6.88574 53.8916 55.1633
906 2 24.9164 36.0361 28.1338
907 2 27.1918 20.6643 12.9056
908 2 45.94 44.5147 35.429
909 2 8.79587 43.4104 45.4645
910 2 36.6499 37.9449 22.793
911 2 35.5891 52.3159 35.9781
912 2 10.1393 32.9787 7.67328
913 2 31.1797 54.6639 11.8113
914 2 37.7756 7.86151 44.5951
915 2 18.5777 23.1153 35.0518
916 2 20.4347 48.9839 21.9435
917 2 40.7999 40.0833 45.3032
918 2 17.2276 39.0837 28.8591
919 2 24.1192 7.68445 23.7121
920 2 51.7914 35.5487 16.9127
921 2 30.79 16.9826 11.1046
922 2 13.7003 30.127 21.0146
923 2 48.2711 31.033 49.4235
924 2 47.22 40.0346 30.4111
925 2 9.68981 49.9223 29.278
926 2 46.6721 23.2261 43.035
927 2 32.3175 26.6965 11.9103
928 2 34.2657 18.4454 8.94211
929 2 30.853 39.082 50.783
930 2 31.4492 27.5448 45.2735
931 2 29.8494 20.0961 55.7461
932 2 22.0922 30.4069 35.1556
933 2 42.6952 10.4059 24.5926
934 2 30.5919 34.0339 21.8367
935 2 31.086 48.0402 16.5202
936 2 15.8389 12.932 14.1622
937 2 30.6735 34.4989 34.4803
938 2 17.8535 37.0743 36.9897
939 2 9.86679 28.2913 7.50277
940 2 23.8992 41.9032 23.4226
941 2 26.7864 30.8177 21.4749
942 2 8.2951 11.9083 40.3219
943 2 29.7342 52.1132 29.9975
944 2 54.8955 40.1127 20.3569
945 2 34.6566 48.9821 42.5559
946 2 40.5808 43.9671 10.1103
947 2 36.9811 21.0467 11.226
948 2 32.0111 14.4007 12.86
949 2 25.3166 35.8474 11.4513
950 2 52.5175 54.4595 13.757
951 2 32.3349 14.4891 47.0331
952 2 39.0985 49.4125 53.9354
953 2 14.5944 14.4621 42.8948
954 2 28.0015 9.04743 51.7192
955 2 11.5074 21.5104 17.6867
956 2 49.7941 35.558 55.4871
957 2 36.1054 15.7893 16.2274
958 2 38.1286 13.3306 13.2983
959 2 28.8007 11.0065 36.4834
960 2 37.6101 55.7801 21.2129
961 2 51.2485 51.1526 12.2749
962 2 38.6385 51.4492 20.7582
963 2 29.8294 18.4643 27.2153
964 2 34.7588 11.1948 10.6201
965 2 33.6988 47.7645 11.977
966 2 15.1508 45.1002 12.6421
967 2 39.7622 42.1486 12.7575
968 2 41.709 51.2595 6.94289
969 2 24.4943 53.923 38.0656
970 2 38.355 38.3366 38.7673
971 2 7.30649 41.5017 6.57736
972 2 43.353 48.032 30.8527
973 2 53.3465 46.4631 29.2237
974 2 35.1169 31.8989 45.8565
975 2 18.2127 7.21819 6.23147
976 2 24.8357 38.8541 12.4538
977 2 24.6237 39.4819 39.4897
978 2 31.1206 51.3392 27.5448
979 2 25.3451 52.479 48.5561
980 2 26.9818 27.4404 47.4911
981 2 48.5655 45.0847 26.3694
982 2 23.693 43.0973 45.1057
983 2 55.4517 23.4963 50.8232
984 2 21.8798 32.9033 10.7621
985 2 30.9711 42.4806 23.9011
986 2 43.2805 33.8347 53.7074
987 2 17.2589 34.1484 15.2275
988 2 17.9024 27.415 24.3133
989 2 38.0947 27.2603 7.84165
990 2 24.6618 48.1366 26.3958
991 2 46.4562 33.1683 46.0027
992 2 39.9948 22.1025 23.8995
993 2 48.1826 40.213 18.9526
994 2 45.3432 32.7971 18.3605
995 2 13.1372 45.7067 53.5567
996 2 11.5998 39.7514 36.5936
997 2 34.043 29.6692 43.6898
998 2 39.0786 40.2717 52.4898
999 2 38.4779 24.5129 24.4951
1000 2 51.0763 27.4639 49.69
1001 2 50.9045 13.223 11.4372
1002 2 43.6109 10.1772 39.596
1003 2 34.213 6.64489 23.8479
1004 2 15.1144 18.8899 52.565
1005 2 54.6438 42.6398 55.5735