ITEM: TIMESTEP
0
ITEM: NUMBER OF ATOMS
9088
ITEM: BOX BOUNDS xy xz yz pp pp pp
6.0665285511035227e+00 5.5864409241027644e+01 -5.7133839146967026e-15
6.0665285511035281e+00 5.5864409241027644e+01 0.0000000000000000e+00
6.0665285511035281e+00 5.5864409241027644e+01 0.0000000000000000e+00
ITEM: ATOMS id type x y z
1 2 15.8049 45.8943 28.5818
2 2 36.8939 35.7995 48.6823
3 2 25.054 6.68296 36.2009
4 2 47.6247 40.0663 43.5762
5 2 45.1071 30.7281 44.6554
6 2 16.9715 24.6943 17.8573
7 2 48.165 35.0024 35.141
8 2 8.74587 55.8048 30.7775
9 2 39.8213 18.4993 43.2616
10 2 33.8531 15.5129 45.5135
11 2 9.69299 6.92649 39.5514
12 2 37.303 21.111 11.2564
13 2 45.215 44.3792 15.2949
14 2 30.9373 26.5556 45.7754
15 2 25.6435 55.3086 10.8377
16 2 19.6973 13.5933 17.686
17 2 48.54 33.1392 21.7869
18 2 16.2985 20.5898 45.3812
19 2 48.7868 28.7998 39.8048
20 2 50.3414 29.8218 30.8593
21 2 55.1637 16.1868 8.57556
22 2 10.5121 19.7487 27.3363
23 2 6.62665 33.3895 20.9328
24 2 39.2346 37.6087 33.7775
25 2 22.7264 41.2927 15.0576
26 2 24.5145 54.529 19.535
27 2 14.2063 48.0202 55.5477
28 2 29.4788 41.3501 42.189
29 2 51.7153 13.2782 22.1658
30 2 46.2435 7.14404 11.2192
31 2 21.3674 44.7612 50.1688
32 2 41.2193 40.6984 37.6847
33 2 40.9625 7.60815 27.6656
34 2 19.6936 31.8262 24.233
35 2 13.5651 33.3926 52.2106
36 2 21.7294 50.098 44.1221
37 2 19.5854 44.9217 32.7486
38 2 54.5528 52.7143 10.7443
39 2 13.6524 6.48842 39.412
40 2 8.37397 36.5195 9.46524
41 2 32.0799 46.4451 27.4572
42 2 52.5019 51.4153 30.0271
43 2 49.6171 42.2265 32.3335
44 2 10.4902 29.3022 11.2768
45 2 55.4064 21.0408 49.7491
46 2 26.3948 8.72369 43.9997
47 2 47.1195 48.8025 23.5993
48 2 12.014 21.1667 14.1148
49 2 13.3504 38.022 42.7767
50 2 31.5102 17.6358 9.0669
51 2 7.60307 27.2632 45.9696
52 2 6.88912 26.4192 53.3167
53 2 48.5636 33.2408 47.3362
54 2 25.3692 50.9898 11.1704
55 2 46.8876 19.5899 41.3814
56 2 29.8141 40.0899 49.0212
57 2 32.7348 27.3781 33.733
58 2 33.8378 33.0185 41.7727
59 2 47.5129 44.9904 37.1039
60 2 32.8172 25.1378 53.8059
61 2 14.2974 28.1894 18.4274
62 2 6.27924 35.5197 28.9231
63 2 34.1933 36.764 48.794
64 2 50.0976 33.1723 39.3214
65 2 24.0013 25.6656 36.4237
66 2 23.2232 9.33519 14.2935
67 2 41.2557 45.5799 55.323
68 2 32.4778 16.4592 39.7755
69 2 10.0696 39.303 15.7319
70 2 38.2904 36.4096 45.9703
71 2 49.5233 35.7037 19.3666
72 2 15.7802 35.3584 37.6346
73 2 34.3853 35.6948 55.3168
74 2 7.79002 44.6184 8.87861
75 2 34.5149 9.93782 16.8533
76 2 35.8669 38.1258 55.0391
77 2 10.7829 9.97467 14.6995
78 2 24.1425 20.5841 40.6214
79 2 30.4647 6.47038 15.9324
80 2 19.7744 50.6054 46.5634
81 2 16.4083 38.2203 11.3425
82 2 51.7414 55.2629 36.322
83 2 52.6359 33.36 12.5853
84 2 24.807 33.4146 48.3223
85 2 16.8549 38.9109 29.4886
86 2 14.7094 35.3699 16.9663
87 2 6.83508 29.9178 42.2817
88 2 45.1991 16.797 50.6475
89 2 36.8972 45.299 26.5135
90 2 8.7264 18.5647 7.32926
91 2 17.1551 6.89765 28.2261
92 2 51.3081 11.44 13.7977
93 2 36.6642 49.5896 18.4027
94 2 26.7583 42.3272 41.7365
95 2 23.2074 8.30397 33.796
96 2 36.2097 44.4449 13.9228
97 2 21.6197 35.7634 45.5794
98 2 52.3204 21.3133 36.3539
99 2 55.2578 8.50252 14.9597
100 2 37.5411 17.9433 11.362
101 2 11.4571 27.3655 44.6696
102 2 26.6459 50.104 52.9177
103 2 39.2728 23.9877 38.368
104 2 52.0288 34.1565 28.9063
105 2 43.7635 25.1154 7.57673
106 2 32.9195 42.6 14.3296
107 2 22.3164 52.5783 54.0515
108 2 13.9163 47.1107 34.7791
109 2 45.8225 11.3143 39.3338
110 2 53.7083 27.9812 45.4845
111 2 47.1389 17.4049 43.2879
112 2 14.2433 23.9053 44.6882
113 2 20.3005 44.9742 40.3303
114 2 13.5691 53.5436 14.4318
115 2 19.3458 51.974 12.5991
116 2 18.3463 55.3675 36.0531
117 2 7.32346 22.6804 30.4719
118 2 8.71761 38.949 51.4636
119 2 41.1796 9.48985 40.0578
120 2 50.133 35.79 8.20961
121 2 40.9426 19.8405 31.6183
122 2 6.19227 53.6785 45.7208
123 2 20.7086 8.84352 10.686
124 2 6.5045 38.3455 45.3004
125 2 40.1119 23.3739 49.7417
126 2 15.9874 52.7625 36.7952
127 2 43.7629 18.7879 28.6019
128 2 29.0951 40.804 21.9912
129 2 9.89201 31.4674 51.7591
130 2 24.8074 27.6987 34.3022
131 2 35.2091 16.5233 52.6284
132 2 8.35914 6.2759 44.4185
133 2 15.2533 38.347 51.4227
134 2 53.2868 38.8876 30.6959
135 2 10.6044 52.7768 34.0944
136 2 36.4783 54.1291 55.5003
137 2 47.7449 46.0216 14.0322
138 2 24.6313 20.145 19.817
139 2 35.585 17.9734 23.6973
140 2 42.9685 37.424 14.1937
141 2 23.2051 34.3395 16.0601
142 2 55.1571 8.01459 34.9563
143 2 26.8041 21.3648 35.9536
144 2 45.3362 15.6037 22.0415
145 2 18.7066 21.507 10.7753
146 2 53.1248 10.8335 35.5151
147 2 12.6263 44.5538 19.6863
148 2 51.0348 25.3151 39.1857
149 2 9.6706 18.9331 42.8604
150 2 49.2699 39.4562 27.7318
151 2 43.4509 43.3322 49.4317
152 2 46.9657 10.7929 16.4106
153 2 47.6525 46.8821 46.3935
154 2 16.9932 23.3086 27.6257
155 2 14.4621 11.0625 7.09382
156 2 12.2129 47.9063 49.0132
157 2 10.1229 6.62835 14.6676
158 2 26.6969 40.9587 12.7564
159 2 50.3824 10.3875 22.716
160 2 6.87472 19.5493 47.1478
161 2 8.29943 38.4706 42.4745
162 2 21.0768 19.0536 7.14967
163 2 22.628 19.309 25.3392
164 2 12.2398 55.2632 27.852
165 2 9.80477 30.0934 23.0681
166 2 55.5685 35.7372 40.5659
167 2 52.9066 48.4841 42.2076
168 2 36.882 11.1264 36.5187
169 2 14.3898 38.1204 9.11871
170 2 42.8854 36.5834 9.62418
171 2 49.8109 8.4428 40.1457
172 2 45.8274 29.8712 36.6189
173 2 40.1319 26.4772 24.5896
174 2 45.0008 18.3176 38.982
175 2 45.9296 37.8069 6.3711
176 2 25.1037 23.9266 31.5926
177 2 27.9828 51.9881 40.5693
178 2 12.4601 44.2378 24.724
179 2 48.3209 48.166 28.8151
180 2 36.757 51.6607 16.0982
181 2 37.7958 26.7125 26.5654
182 2 18.8087 36.9972 10.5924
183 2 26.3388 45.5061 11.6198
184 2 36.0365 33.4551 7.84652
185 2 14.9093 27.1105 34.1502
186 2 31.5029 19.5726 42.5503
187 2 11.9906 46.3036 22.388
188 2 28.2334 43.8719 29.1596
189 2 33.1626 48.7644 15.928
190 2 12.055 33.8139 39.838
191 2 52.6648 54.8478 53.6093
192 2 15.8118 13.2918 48.1879
193 2 33.3761 38.2009 26.2919
194 2 19.3937 11.4453 13.097
195 2 32.4948 28.2818 17.1427
196 2 9.6326 14.8567 10.0449
197 2 48.2716 15.2478 44.3279
198 2 19.3908 26.0426 6.11365
199 2 20.055 35.9549 51.5163
200 2 35.3991 46.8283 18.6734
201 2 38.3755 42.3493 48.6517
202 2 6.24081 29.1128 22.6877
203 2 52.1826 39.6292 9.75071
204 2 15.8875 7.82479 9.48958
205 2 52.2837 15.9318 32.2694
206 2 23.4801 23.3301 49.9052
207 2 37.0453 55.1918 29.1673
208 2 47.0623 54.1897 8.78647
209 2 34.0159 48.7775 37.5809
210 2 44.0492 22.0627 51.5064
211 2 25.763 33.3295 37.619
212 2 20.98 50.5217 15.1178
213 2 40.5664 8.26528 30.3003
214 2 40.9229 23.2798 43.6824
215 2 39.546 41.2516 52.3526
216 2 27.8364 37.818 49.9582
217 2 33.1336 20.1342 20.7246
218 2 53.6741 35.5243 48.5112
219 2 33.349 32.7768 55.425
220 2 51.7952 32.8931 7.92629
221 2 50.8734 42.489 7.70063
222 2 25.086 16.5887 48.2261
223 2 10.1354 15.7782 44.8347
224 2 43.4983 42.5265 34.4993
225 2 50.5102 48.8395 26.5845
226 2 23.707 9.60697 47.4684
227 2 29.2734 12.4376 54.0657
228 2 9.13943 55.5221 25.8245
229 2 9.78765 22.4395 17.2529
230 2 8.60082 31.1318 9.55783
231 2 26.2503 36.2914 45.3688
232 2 12.0574 44.0787 46.2618
233 2 26.1786 52.8372 47.1852
234 2 45.1208 7.4141 18.4686
235 2 30.7898 55.4245 23.283
236 2 13.992 8.45526 48.028
237 2 51.4472 45.5163 16.3436
238 2 20.1007 53.8384 38.6712
239 2 50.1089 38.2088 30.4149
240 2 37.1735 14.9841 20.6287
241 2 8.20929 51.4202 22.2048
242 2 8.98155 11.0531 45.3841
243 2 52.0941 19.3915 32.0806
244 2 53.0496 44.0855 40.8896
245 2 24.0905 38.2904 9.24897
246 2 46.866 33.2204 15.4535
247 2 32.6819 27.0726 50.3424
248 2 34.4061 41.5374 22.6356
249 2 27.0618 47.3382 54.0366
250 2 34.2866 20.9864 31.5588
251 2 54.1659 30.2278 44.2428
252 2 36.5903 23.9411 18.0675
253 2 45.0706 50.7307 37.246
254 2 43.7584 30.1988 17.6443
255 2 11.0075 48.7586 46.5001
256 2 43.8168 35.8299 34.4605
257 2 48.0549 21.3393 18.6163
258 2 49.3762 42.9477 16.5586
259 2 35.2024 40.4639 46.033
260 2 16.3577 52.9937 30.1892
261 2 38.4908 48.0981 52.4308
262 2 29.2448 18.5884 32.3252
263 2 51.6852 49.2925 33.9499
264 2 36.3446 24.5556 42.865
265 2 12.2716 45.7033 37.2346
266 2 39.6365 21.5675 21.8595
267 2 35.9822 9.27823 29.5512
268 2 39.2569 46.3729 32.8273
269 2 55.2967 21.7169 46.6939
270 2 17.1888 14.0191 25.5698
271 2 45.6069 14.9825 25.6215
272 2 38.8335 30.9081 9.86277
273 2 54.9387 51.0033 25.51
274 2 17.4096 51.0065 54.5033
275 2 31.7048 17.4923 24.9705
276 2 44.1345 39.0152 12.2391
277 2 27.7847 46.6703 7.42373
278 2 45.4865 38.1497 45.3014
279 2 32.1777 6.10486 30.1284
280 2 14.5798 30.5101 53.2221
281 2 12.2925 29.8114 51.3258
282 2 11.9996 32.0733 11.7981
283 2 16.0442 37.6698 39.483
284 2 46.1449 14.6932 18.4333
285 2 28.3908 9.11851 13.3648
286 2 54.6994 27.9975 52.2009
287 2 37.1421 34.946 37.6365
288 2 35.8665 37.7959 41.9301
289 2 6.41166 23.1782 27.4175
290 2 37.2513 35.1669 34.3802
291 2 49.6967 15.5478 8.18921
292 2 39.7814 13.2688 42.0211
293 2 6.45617 23.111 52.2956
294 2 43.336 39.7523 52.7501
295 2 16.2458 32.449 29.9036
296 2 51.848 14.5362 49.2444
297 2 14.6943 11.1235 50.0443
298 2 36.9967 26.8243 51.7669
299 2 16.4954 6.52216 12.3566
300 2 23.9657 17.3465 27.4518
301 2 20.3996 7.69708 34.761
302 2 30.962 13.3405 23.213
303 2 7.67216 25.3723 23.5186
304 2 15.5933 26.7969 15.9955
305 2 12.6962 14.1973 6.75186
306 2 30.4726 44.9106 25.2007
307 2 10.185 26.9509 17.3299
308 2 53.2356 8.16574 17.1781
309 2 22.3466 12.6496 14.2094
310 2 42.5048 22.5579 36.6919
311 2 47.4977 34.6861 53.9427
312 2 27.4076 22.6967 8.9434
313 2 10.0358 53.7383 51.4198
314 2 27.6757 15.4179 36.9684
315 2 37.0428 49.1811 55.2682
316 2 34.2027 11.8688 53.0866
317 2 27.7323 22.8809 51.9301
318 2 50.3423 15.8818 12.8054
319 2 41.4702 51.2792 17.6158
320 2 36.3936 35.161 16.1067
321 2 30.9746 21.4102 40.3884
322 2 46.3973 37.1659 31.4711
323 2 31.8056 31.1336 40.5224
324 2 28.9159 11.0525 7.87494
325 2 10.0173 53.008 17.4388
326 2 54.4472 7.23602 9.7752
327 2 19.2718 12.3519 21.975
328 2 53.5229 52.2435 55.4583
329 2 27.096 18.6133 12.7453
330 2 20.042 54.7704 54.24
331 2 35.0113 24.9785 55.8561
332 2 29.9504 21.7987 47.6791
333 2 52.0068 44.5516 20.9577
334 2 51.0045 28.4326 22.3227
335 2 30.8138 17.1785 18.7387
336 2 13.0415 11.9309 16.2331
337 2 7.42838 38.5368 31.0689
338 2 41.3844 30.4623 38.2315
339 2 20.0512 29.6072 55.1102
340 2 41.9759 45.1292 16.5599
341 2 47.0592 19.9501 32.0686
342 2 28.4482 10.9104 19.9528
343 2 29.4335 33.3258 48.4735
344 2 41.96 13.5399 19.6083
345 2 49.1759 20.3784 44.0261
346 2 40.4658 17.5765 33.3255
347 2 43.3009 39.0405 31.2602
348 2 28.1004 48.2561 31.9631
349 2 9.84038 7.04384 36.4985
350 2 20.2521 21.8227 30.852
351 2 35.6123 7.25614 36.73
352 2 12.423 12.8955 21.4493
353 2 12.7578 42.4009 43.2545
354 2 30.1303 24.8592 35.8804
355 2 55.1403 45.8942 10.2646
356 2 26.9746 42.2012 33.8276
357 2 11.5391 51.7248 29.5142
358 2 35.7173 35.0497 31.4871
359 2 48.621 33.5865 24.7618
360 2 50.0794 45.4435 43.8091
361 2 27.877 14.7248 26.6463
362 2 55.6771 12.4172 40.0198
363 2 26.2013 22.5793 54.7639
364 2 54.407 45.5049 55.1637
365 2 55.524 21.9283 17.9142
366 2 49.1172 55.3619 23.8532
367 2 33.0338 44.4046 41.8018
368 2 54.2737 41.2012 19.4954
369 2 7.95526 43.9368 20.5836
370 2 42.3156 25.3576 48.8382
371 2 44.6171 40.9886 45.7293
372 2 43.874 10.1187 55.3474
373 2 55.464 48.3018 15.1951
374 2 22.8656 43.9117 24.1763
375 2 13.4574 30.2442 41.6078
376 2 14.1136 17.833 8.23025
377 2 46.9568 8.7225 43.4642
378 2 7.00471 48.3189 25.7758
379 2 53.606 33.5575 19.8704
380 2 39.0936 49.1592 13.3914
381 2 46.8263 7.54293 51.6528
382 2 50.9869 34.6648 36.371
383 2 42.0599 18.6474 54.6703
384 2 50.9125 42.1219 22.5302
385 2 44.0172 34.668 42.8646
386 2 26.602 44.6312 26.893
387 2 30.2018 41.7448 27.8557
388 2 45.1832 22.8004 53.963
389 2 50.8833 36.6296 48.9295
390 2 47.9575 45.8312 33.3837
391 2 48.2481 41.416 53.4408
392 2 37.093 38.889 28.1911
393 2 22.2743 7.15166 55.1501
394 2 55.3864 42.3311 43.76
395 2 15.4893 13.7958 55.3745
396 2 22.7134 18.9048 46.6883
397 2 45.8281 16.7163 54.4909
398 2 13.9609 41.6926 27.3938
399 2 19.0189 36.5045 23.2732
400 2 50.7042 50.8041 54.6334
401 2 45.8096 25.4289 36.6272
402 2 32.2279 15.4371 27.5172
403 2 43.5144 41.2126 7.40953
404 2 8.26107 11.1013 51.5292
405 2 53.8766 7.5999 42.5254
406 2 11.3977 38.5729 45.195
407 2 16.9853 47.9899 12.6792
408 2 21.0965 11.939 53.1394
409 2 32.716 44.4894 52.1061
410 2 37.3417 22.0464 26.9008
411 2 53.8898 54.7462 17.6653
412 2 11.7689 30.6474 6.14331
413 2 41.5804 44.4915 12.0798
414 2 30.7814 34.9846 24.4376
415 2 38.9423 24.0882 25.307
416 2 30.7962 24.0276 42.2157
417 2 48.712 18.9637 34.7264
418 2 49.8878 53.4658 45.6955
419 2 21.3214 26.5287 20.2244
420 2 51.6496 12.4015 37.7856
421 2 9.51882 45.2624 28.7544
422 2 21.4515 44.5954 14.8373
423 2 26.9543 18.1298 9.73541
424 2 30.6114 46.877 11.8821
425 2 44.9552 33.2319 50.6617
426 2 6.7796 15.2678 40.16
427 2 13.1121 11.956 31.1225
428 2 46.3408 13.1378 30.1335
429 2 6.65768 11.296 7.95331
430 2 29.5969 36.5731 29.183
431 2 8.37406 51.5158 52.7413
432 2 6.43919 29.8545 31.6065
433 2 54.9285 7.43487 40.119
434 2 44.0681 27.9043 44.7805
435 2 11.3511 24.6013 17.2132
436 2 40.9321 50.7719 35.3677
437 2 54.9105 52.1128 16.762
438 2 23.8048 40.0514 27.0908
439 2 52.4477 29.9066 41.2541
440 2 40.3299 20.8408 41.0487
441 2 17.907 24.6041 53.8857
442 2 25.1266 10.8218 55.5795
443 2 35.7959 19.5901 19.0282
444 2 14.2144 32.8796 37.8982
445 2 31.6282 49.399 28.7853
446 2 39.4521 50.7611 45.9978
447 2 9.89361 17.937 11.5565
448 2 49.6986 55.8488 7.63376
449 2 12.5564 21.758 30.264
450 2 6.8592 42.861 17.8289
451 2 38.1836 38.6718 30.7099
452 2 27.0755 27.8681 22.3819
453 2 53.3332 20.2653 16.689
454 2 22.258 7.76392 38.5267
455 2 30.4809 50.106 40.1181
456 2 8.11885 24.4872 45.9013
457 2 55.0201 49.8973 54.2744
458 2 25.3676 22.3381 38.3078
459 2 34.0156 7.82516 45.6744
460 2 39.6324 19.9699 27.7059
461 2 13.4887 22.8117 50.6616
462 2 54.9723 37.1168 12.1577
463 2 34.0407 19.7498 37.1294
464 2 13.1762 23.1298 42.0114
465 2 36.3868 49.7461 26.9799
466 2 15.463 42.2966 50.5129
467 2 51.0368 18.0568 8.81
468 2 22.9995 54.5882 37.1987
469 2 34.3797 54.3416 36.8339
470 2 26.4738 50.6592 49.4982
471 2 22.0135 54.3679 46.8033
472 2 19.7414 24.1687 51.0515
473 2 31.3537 15.2486 21.0972
474 2 49.6643 24.5965 9.8228
475 2 21.0964 29.7111 36.646
476 2 46.8157 25.2754 8.24176
477 2 16.6693 36.2934 7.63287
478 2 55.8506 35.0766 10.1955
479 2 19.4903 6.93235 13.813
480 2 53.8756 14.8033 21.2338
481 2 52.7055 31.1938 21.7467
482 2 12.677 20.8364 7.82527
483 2 39.261 25.0007 6.43831
484 2 28.5924 16.3484 44.362
485 2 50.0563 11.6231 46.3464
486 2 27.9636 38.5379 38.5421
487 2 12.9395 54.7536 33.7771
488 2 40.7537 11.7928 12.6029
489 2 36.9541 33.3987 42.2842
490 2 19.0513 40.9916 51.9399
491 2 18.0503 32.0673 44.5551
492 2 18.2103 20.7509 26.8328
493 2 24.2916 26.6911 31.0666
494 2 33.6655 8.51441 42.0227
495 2 45.1718 6.42402 29.0194
496 2 28.9674 9.13847 10.4238
497 2 36.3389 23.6058 39.6186
498 2 50.913 50.8821 48.9095
499 2 35.4138 47.6755 30.1839
500 2 40.3441 15.6711 21.964
501 2 48.2261 27.6446 9.63734
502 2 15.2068 40.9454 18.3826
503 2 55.0915 53.2866 34.5395
504 2 8.60526 22.5241 50.4066
505 2 54.923 25.2132 45.117
506 2 48.639 13.428 24.9683
507 2 53.5432 13.401 7.36595
508 2 33.9842 38.7092 35.8016
509 2 46.4575 43.7463 34.3868
510 2 25.6121 17.1175 30.8852
511 2 10.8475 42.2137 16.277
512 2 30.6254 9.02658 51.6716
513 2 15.3958 11.8196 34.4579
514 2 32.7228 22.2709 42.8817
515 2 18.3309 34.3968 14.8161
516 2 24.7092 24.8405 12.1462
517 2 13.5192 27.8771 7.0551
518 2 12.5269 35.7403 6.65951
519 2 17.2339 53.3883 16.6019
520 2 26.9612 22.8432 22.7952
521 2 44.2461 41.9192 31.6254
522 2 12.6182 50.37 23.3735
523 2 8.02659 52.1703 48.533
524 2 23.4476 7.16374 44.8597
525 2 29.2621 53.9421 51.5882
526 2 13.8735 18.9489 31.7098
527 2 31.0434 30.8052 44.2972
528 2 47.3594 30.5493 6.46838
529 2 21.4755 38.6169 14.8233
530 2 28.133 42.6919 14.613
531 2 48.8343 23.8838 43.919
532 2 17.2704 16.2107 29.6139
533 2 7.64734 51.1039 37.7147
534 2 55.3602 40.1075 41.3281
535 2 40.48 44.527 48.355
536 2 34.0356 26.9172 21.3089
537 2 44.0011 8.82199 21.1153
538 2 55.1612 50.5241 21.0685
539 2 40.8466 54.7414 21.3774
540 2 24.2059 35.3343 27.3029
541 2 37.1454 8.28874 13.6174
542 2 9.74642 38.42 11.0246
543 2 19.2523 38.9228 44.9954
544 2 12.4969 8.17497 33.5687
545 2 52.9819 48.2012 18.5288
546 2 10.2227 29.3597 53.826
547 2 48.7264 33.7076 6.78381
548 2 36.388 28.1685 47.683
549 2 35.286 18.0599 45.2536
550 2 28.2624 6.38922 50.3041
551 2 43.1016 8.10343 37.94
552 2 24.524 6.88568 22.1679
553 2 50.8771 41.0173 49.1461
554 2 45.2689 38.4743 28.9352
555 2 18.5383 37.2443 41.5439
556 2 9.62021 31.4263 42.3008
557 2 45.5694 48.5046 43.8425
558 2 40.8309 54.2213 38.9863
559 2 21.8094 37.0043 24.7681
560 2 8.64657 16.1959 29.6293
561 2 41.3428 45.1839 51.415
562 2 45.9221 44.62 42.8824
563 2 11.6137 25.0881 20.631
564 2 13.5506 51.5262 33.352
565 2 33.9762 29.2996 38.1942
566 2 28.6911 17.6221 27.6893
567 2 51.1323 26.0864 48.7294
568 2 20.6206 32.1008 49.1864
569 2 31.969 7.29444 25.4652
570 2 25.062 53.1764 44.0292
571 2 38.9091 44.1799 36.8114
572 2 35.562 30.8446 31.7871
573 2 19.9466 44.189 25.0687
574 2 16.4915 31.7123 23.5076
575 2 11.867 48.5724 30.9424
576 2 11.5918 32.8088 44.5754
577 2 13.0114 43.8752 9.62328
578 2 50.3895 39.0884 16.9107
579 2 55.5294 12.1331 24.4315
580 2 50.8438 36.0487 44.7982
581 2 51.597 48.0633 37.6217
582 2 24.504 30.6977 30.5262
583 2 45.8939 43.392 19.7302
584 2 31.3157 9.64753 48.9606
585 2 26.3898 43.588 36.6737
586 2 47.0849 19.1226 19.9758
587 2 33.1088 27.3605 28.6749
588 2 14.4232 28.8387 38.4329
589 2 19.0523 21.4854 33.8839
590 2 22.5441 13.5621 45.1388
591 2 27.1702 35.4683 52.2134
592 2 36.9103 8.02859 52.9274
593 2 54.0419 27.4424 25.1275
594 2 15.7504 49.4441 28.0669
595 2 28.9354 48.9293 48.9067
596 2 22.9092 12.8701 11.0384
597 2 20.4703 34.4054 24.7465
598 2 17.1781 6.85306 44.0878
599 2 19.2476 49.9205 22.4909
600 2 47.4115 37.2904 37.5182
601 2 22.953 26.4061 14.0741
602 2 27.2036 53.0176 33.9596
603 2 12.7044 41.1716 12.1354
604 2 28.9523 47.5838 34.9473
605 2 40.741 22.1365 7.97631
606 2 55.0033 22.2279 6.13226
607 2 19.6948 26.9333 16.8746
608 2 38.6143 12.1988 27.4169
609 2 26.8586 52.467 13.4045
610 2 10.4883 46.3674 10.8345
611 2 32.3266 17.5446 47.0631
612 2 52.6112 42.4267 25.5493
613 2 49.0864 30.1569 18.9658
614 2 31.8466 54.2862 38.3593
615 2 50.3788 19.0426 16.8064
616 2 42.269 55.1838 28.576
617 2 49.4171 11.2929 36.0632
618 2 44.7133 55.8183 34.174
619 2 11.154 9.83502 10.1829
620 2 17.1434 38.364 25.0936
621 2 10.0616 48.4835 14.4557
622 2 26.9451 19.1885 17.9616
623 2 9.47887 17.626 24.9601
624 2 14.2364 48.4236 12.1013
625 2 35.1846 27.9573 10.1952
626 2 6.85329 31.4135 12.0174
627 2 37.0205 49.672 48.1485
628 2 39.788 53.9826 27.6791
629 2 50.3577 50.5013 38.5403
630 2 52.6096 30.925 55.6811
631 2 34.342 15.1273 14.5983
632 2 11.1725 20.6181 53.6324
633 2 41.6925 50.9443 9.6264
634 2 32.6531 34.2979 47.4223
635 2 10.7425 50.0137 34.4306
636 2 32.0437 31.3741 31.2248
637 2 17.3889 47.7694 44.036
638 2 20.3071 31.8669 53.3241
639 2 48.3891 32.1292 51.5119
640 2 16.2457 9.1823 42.2818
641 2 8.072 22.9155 37.1772
642 2 17.965 31.0569 27.455
643 2 25.8163 9.74429 52.8184
644 2 15.3623 6.52664 46.3332
645 2 19.9591 41.6403 43.4825
646 2 6.58327 16.4952 22.3048
647 2 53.0414 22.5118 38.9545
648 2 6.91896 42.352 35.3139
649 2 43.2669 12.0912 21.8956
650 2 28.5197 41.9083 52.5854
651 2 43.4452 50.8672 19.9596
652 2 44.4864 50.2133 32.2078
653 2 27.8168 34.3913 39.4791
654 2 33.4825 54.833 16.3822
655 2 40.5834 46.1122 37.618
656 2 27.1497 43.4785 6.89581
657 2 26.3797 45.7228 14.6789
658 2 31.6682 31.5435 12.4593
659 2 14.3289 43.1314 37.9325
660 2 42.9162 35.5666 53.6244
661 2 22.2929 26.0653 54.6233
662 2 52.3113 45.3209 47.8181
663 2 39.0038 37.3773 54.9265
664 2 14.1873 54.0365 52.6336
665 2 45.3112 18.9759 8.44506
666 2 50.2009 8.16345 30.2343
667 2 19.0472 51.4582 51.4096
668 2 36.8972 40.5306 38.7982
669 2 27.7451 28.2438 17.1379
670 2 24.325 53.0102 14.9842
671 2 51.483 46.4949 40.1251
672 2 45.8261 19.7014 50.943
673 2 7.13422 28.1817 50.5588
674 2 38.4431 55.8559 40.6259
675 2 20.3719 17.7661 24.2579
676 2 18.239 25.1255 23.3386
677 2 22.9262 55.1826 8.22988
678 2 30.9589 27.3457 13.6322
679 2 42.2244 27.4209 8.68282
680 2 6.99173 33.4779 26.6039
681 2 40.5088 26.202 41.6405
682 2 26.8472 52.5987 20.8389
683 2 6.08713 49.053 40.6007
684 2 50.0616 23.7171 24.2465
685 2 11.4136 36.5878 37.4774
686 2 34.27 47.5017 55.4785
687 2 22.8257 42.3665 10.7319
688 2 46.9689 29.7508 33.294
689 2 29.3999 53.4106 27.5709
690 2 22.3815 18.5238 18.3752
691 2 6.89328 7.73497 21.8435
692 2 7.35276 49.4538 47.987
693 2 31.3454 31.207 8.08522
694 2 37.5623 27.1852 42.1768
695 2 54.8656 37.3896 26.6221
696 2 17.9459 6.07486 50.1091
697 2 32.5596 35.8615 9.49065
698 2 28.1188 10.4166 36.504
699 2 29.083 13.9407 33.9698
700 2 31.4245 47.5201 19.0157
701 2 38.7375 6.68632 37.7443
702 2 48.1344 27.5149 22.3813
703 2 30.6694 12.0322 50.9007
704 2 9.18405 31.7164 35.7025
705 2 35.6699 50.0999 32.0729
706 2 55.2755 54.5116 39.0035
707 2 44.1016 31.3113 54.8815
708 2 47.1304 45.4508 55.4396
709 2 7.82832 18.9116 28.954
710 2 33.848 41.6708 36.0516
711 2 50.0795 51.2012 9.15
712 2 8.41716 33.2627 29.1399
713 2 15.1025 50.2458 41.1261
714 2 45.4582 32.666 47.3456
715 2 38.7372 34.1182 53.5
716 2 15.022 55.749 29.6139
717 2 54.2768 26.9227 12.5571
718 2 42.9522 44.2596 24.1122
719 2 51.7722 9.96578 26.4024
720 2 19.774 42.429 15.6515
721 2 35.5483 11.2359 9.96121
722 2 42.7166 11.5338 44.3383
723 2 45.3834 47.6793 37.2528
724 2 14.8336 22.5714 8.13233
725 2 41.6296 49.8725 50.2509
726 2 31.1628 55.3688 20.3359
727 2 50.0766 8.53807 10.2546
728 2 27.4925 21.1979 32.739
729 2 23.4418 49.4136 52.7194
730 2 32.2194 34.9507 29.946
731 2 10.9172 39.9779 9.14153
732 2 20.3713 53.2252 33.9062
733 2 14.2701 7.92659 7.50201
734 2 16.3206 40.4275 9.14546
735 2 43.3706 25.9539 30.843
736 2 40.1015 20.1065 24.5926
737 2 54.5843 44.966 22.0195
738 2 39.5788 9.65747 43.1034
739 2 20.1643 48.0352 27.3079
740 2 7.70709 55.0387 41.1196
741 2 54.264 21.5664 31.0129
742 2 39.332 35.4342 15.5832
743 2 8.75163 19.212 17.3627
744 2 8.36214 48.2834 12.1771
745 2 33.211 13.1089 46.716
746 2 46.5476 27.8771 48.8087
747 2 28.7953 21.5167 18.8258
748 2 41.9844 36.1505 20.4081
749 2 39.7592 32.6012 17.4217
750 2 12.8807 45.9971 13.6516
751 2 44.2859 7.03288 15.3811
752 2 43.7223 8.22254 51.2603
753 2 30.0079 11.3215 32.9025
754 2 18.9891 7.49135 54.8897
755 2 45.4515 19.6712 53.8116
756 2 32.4899 54.5921 44.1332
757 2 42.2053 6.95924 12.5203
758 2 8.01019 32.0835 16.8942
759 2 36.6316 46.3016 34.0665
760 2 17.9754 27.1037 13.4516
761 2 13.1497 46.8929 25.3807
762 2 52.8385 50.8056 50.6477
763 2 47.599 21.3892 55.2677
764 2 39.968 23.8325 30.7487
765 2 36.7134 42.5711 36.0063
766 2 48.0617 36.6744 45.3038
767 2 24.5657 49.0715 37.4239
768 2 6.87741 45.0162 52.9952
769 2 26.3345 6.89355 41.1689
770 2 44.7284 30.2232 26.5345
771 2 42.687 35.5097 50.6554
772 2 21.8767 7.93775 50.2926
773 2 50.8514 20.7583 20.6099
774 2 46.8158 33.7495 19.1512
775 2 35.625 30.9763 19.1778
776 2 51.5466 13.1907 11.483
777 2 7.18385 23.9818 33.7548
778 2 41.0121 33.1434 26.6362
779 2 35.8803 25.0726 9.74512
780 2 30.047 51.8965 13.8362
781 2 35.304 44.6262 53.6681
782 2 9.20397 48.8391 50.7067
783 2 31.7167 42.7657 20.9807
784 2 39.5379 49.7352 41.1691
785 2 38.7015 18.0445 30.1187
786 2 7.99572 54.4099 10.7631
787 2 40.7946 23.0034 34.2807
788 2 48.0631 31.2521 40.6058
789 2 13.583 32.5047 20.8716
790 2 29.2237 11.7226 12.401
791 2 31.8283 24.4787 50.9352
792 2 33.0568 19.9324 12.5267
793 2 34.5339 24.0711 22.1652
794 2 25.4467 18.7476 35.9094
795 2 39.1114 22.4272 17.311
796 2 34.5056 6.62144 48.6339
797 2 31.2177 51.6128 51.6726
798 2 49.8218 20.8346 30.1563
799 2 25.2461 16.0839 12.85
800 2 16.2748 11.8845 52.8309
801 2 39.6033 9.80615 9.71514
802 2 29.5611 9.35856 54.5598
803 2 21.6287 46.2512 42.6768
804 2 45.4765 32.5196 30.1669
805 2 50.2328 7.80729 49.662
806 2 13.0377 17.7289 53.3677
807 2 35.2251 14.863 50.3419
808 2 39.103 55.702 53.2118
809 2 17.5622 30.275 12.5662
810 2 16.8706 43.6395 12.4045
811 2 19.1708 35.1664 31.3362
812 2 43.2513 30.688 49.5534
813 2 14.806 49.4863 48.9109
814 2 15.2336 40.2439 43.0469
815 2 18.3558 24.3881 40.9748
816 2 28.38 17.4209 24.5761
817 2 10.2393 49.4872 21.3276
818 2 47.7681 42.1614 36.8179
819 2 43.3382 44.7714 44.1286
820 2 12.3777 18.6413 41.5152
821 2 28.99 39.7202 34.5796
822 2 51.5092 54.7242 21.7929
823 2 18.0237 25.2339 46.4384
824 2 30.9885 37.8362 44.9856
825 2 41.5383 40.2755 18.1463
826 2 40.9355 13.3951 46.3766
827 2 10.3597 24.4724 51.6939
828 2 25.7859 45.1245 23.8322
829 2 49.2085 38.5543 41.433
830 2 53.3681 18.0342 34.1059
831 2 46.1987 45.0925 52.0685
832 2 26.5088 30.1119 19.7135
833 2 16.8251 15.2891 8.36481
834 2 42.7507 17.5104 21.9239
835 2 49.31 23.8611 35.6422
836 2 25.3519 46.8173 9.306
837 2 39.9273 38.0254 14.0767
838 2 55.1563 44.5706 36.749
839 2 8.59774 27.1151 14.8002
840 2 37.202 27.2307 7.36303
841 2 22.6298 11.8361 21.437
842 2 49.9414 12.9238 20.0554
843 2 48.3799 53.5264 28.5506
844 2 45.83 41.2361 50.0244
845 2 12.1895 20.9864 18.4904
846 2 19.2273 38.1914 31.924
847 2 43.3164 28.263 47.727
848 2 19.1019 29.3137 22.9624
849 2 11.9175 14.5283 32.6819
850 2 55.8369 13.2217 52.0106
851 2 36.2452 8.31391 49.6037
852 2 10.4417 41.8615 31.9175
853 2 37.9966 28.7807 18.7466
854 2 7.17818 23.3443 9.62663
855 2 28.7049 25.263 54.0367
856 2 6.44698 11.2315 16.0427
857 2 7.54897 53.9179 32.6202
858 2 20.8609 21.9205 25.2637
859 2 7.39004 18.6775 14.7239
860 2 25.7673 20.3657 14.9844
861 2 40.3927 33.2288 40.0506
862 2 9.48943 44.3318 48.5532
863 2 11.2726 46.322 55.432
864 2 23.4904 21.5693 29.1751
865 2 11.4022 14.1037 35.7351
866 2 8.26526 38.9689 18.5194
867 2 6.2043 15.2257 43.2823
868 2 31.2921 20.1252 45.4354
869 2 29.3836 13.4886 48.5108
870 2 13.4171 50.5579 27.0452
871 2 52.8587 40.417 15.3427
872 2 40.6093 16.9864 6.72983
873 2 16.1411 54.1326 19.2096
874 2 47.317 8.18328 14.3248
875 2 29.4189 20.3825 36.1263
876 2 40.7953 10.794 18.844
877 2 24.4478 29.2224 47.9636
878 2 24.4596 42.7566 26.2445
879 2 16.6187 34.7554 12.0364
880 2 14.7519 11.3287 9.83664
881 2 6.62049 18.1898 25.1692
882 2 22.286 17.5153 30.0655
883 2 54.0419 32.2097 30.7827
884 2 26.5717 29.9152 24.2581
885 2 18.1093 31.1634 15.4796
886 2 13.9133 47.0999 16.3634
887 2 43.3768 32.3018 39.9787
888 2 38.4421 9.10179 34.3887
889 2 37.1425 14.9967 42.2707
890 2 41.4024 37.4093 52.3787
891 2 44.0437 40.8854 10.1262
892 2 43.1118 26.0851 16.6349
893 2 40.5798 18.467 20.7117
894 2 44.941 11.0054 47.9099
895 2 34.4946 22.1116 10.2515
896 2 31.323 16.7297 54.2217
897 2 22.4228 14.0419 38.5791
898 2 10.2722 23.9517 30.1948
899 2 50.5819 23.3722 16.8558
900 2 43.4632 33.3278 16.3144
901 2 50.6067 29.6769 10.3637
902 2 54.1067 42.8124 13.8575
903 2 40.8084 30.7139 31.1124
904 2 23.1728 13.1036 51.1013
905 2 48.8986 11.2772 51.287
906 2 17.2607 43.006 24.7649
907 2 19.5546 27.9148 9.43252
908 2 37.7927 51.6503 31.8873
909 2 50.5712 50.4299 41.5954
910 2 28.721 45.3808 19.1534
911 2 27.2583 9.99247 32.0002
912 2 51.6211 40.4662 53.9436
913 2 23.5661 11.9518 8.1711
914 2 29.8418 15.1152 40.9145
915 2 10.7706 30.0844 31.6663
916 2 12.4443 6.25266 18.3138
917 2 33.3811 47.585 42.05
918 2 7.33557 44.1166 25.7794
919 2 15.868 14.9258 20.2448
920 2 43.7806 42.0851 13.0145
921 2 22.7956 24.1634 7.37602
922 2 55.1955 37.3653 17.7734
923 2 40.2961 38.3035 46.01
924 2 39.366 47.1616 26.8797
925 2 51.2534 7.23429 25.5425
926 2 38.5389 30.39 39.6478
927 2 24.7893 33.7123 7.93246
928 2 26.5151 25.8485 55.3208
929 2 22.7771 46.478 46.9985
930 2 23.9417 35.0038 41.7919
931 2 21.3208 26.893 51.6038
932 2 14.1808 38.1352 31.2295
933 2 34.3939 17.23 20.8918
934 2 19.905 44.4815 18.0052
935 2 22.9669 54.9658 12.5143
936 2 7.62446 19.9584 10.4362
937 2 22.759 41.5639 31.0295
938 2 10.0128 44.5095 33.4331
939 2 50.2594 37.8789 55.5947
940 2 17.9883 49.1644 18.4881
941 2 18.2789 37.6555 17.8827
942 2 50.3844 19.195 37.1818
943 2 21.2327 9.36481 26.0042
944 2 46.8243 46.9778 16.6662
945 2 26.6459 6.15092 38.561
946 2 32.5949 51.0392 6.50728
947 2 28.8098 28.2082 7.63577
948 2 23.9822 21.8137 9.18525
949 2 17.1089 42.9523 7.67617
950 2 45.0271 11.9746 10.0653
951 2 24.756 21.534 43.4527
952 2 31.012 6.59617 50.2969
953 2 6.70767 21.6007 39.3728
954 2 19.775 16.2239 48.0191
955 2 53.9986 31.2306 13.7145
956 2 42.0726 42.3459 51.8472
957 2 28.0534 23.0043 12.4892
958 2 30.4206 20.1327 9.19867
959 2 20.9854 18.2146 33.017
960 2 30.1201 12.7818 17.6245
961 2 43.4658 8.33119 8.41808
962 2 31.1796 8.83097 17.2635
963 2 21.6741 25.3461 23.3629
964 2 26.988 18.7416 6.72087
965 2 25.9663 55.0033 7.98757
966 2 7.11151 52.4212 8.93059
967 2 31.5944 48.9396 9.11127
968 2 33.812 8.85258 53.3161
969 2 16.2596 7.78235 36.1114
970 2 30.3407 45.2169 34.7931
971 2 49.034 48.7558 52.6691
972 2 35.1633 54.9647 27.1266
973 2 45.4739 53.3738 25.6932
974 2 26.93 39.2284 41.7986
975 2 10.1911 14.4757 52.3321
976 2 16.9394 45.6353 8.9288
977 2 16.562 46.3609 35.6941
978 2 22.9305 9.2538 23.5664
979 2 17.4214 10.1237 44.9048
980 2 19.4831 34.4677 43.6832
981 2 40.0917 52.2345 22.8105
982 2 12.2915 50.2495 42.4522
983 2 47.5984 30.6757 47.4829
984 2 13.8189 40.0563 7.06934
985 2 22.9649 49.5321 20.3665
986 2 35.3656 40.6658 50.3875
987 2 9.52651 41.4355 11.5359
988 2 10.3863 33.9991 20.4881
989 2 29.9865 34.1335 53.5801
990 2 16.7999 55.6519 23.2697
991 2 38.5826 40.3992 41.8202
992 2 31.4338 29.1072 20.1836
993 2 40.0333 47.2498 15.1967
994 2 37.4602 39.7768 14.7426
995 2 54.8605 52.6541 49.6715
996 2 53.4257 46.8545 32.9338
997 2 25.8526 37.2614 39.9966
998 2 31.6774 47.6493 49.0289
999 2 30.0763 31.7907 20.8646
1000 2 43.2369 34.6452 46.2969
1001 2 42.8694 20.3621 7.2913
1002 2 35.6929 17.4921 35.4741
1003 2 25.4471 12.0054 19.7449
1004 2 7.24583 26.2357 48.6956