ITEM: TIMESTEP
0
ITEM: NUMBER OF ATOMS
9088
ITEM: BOX BOUNDS xy xz yz pp pp pp
6.0159428866829261e+00 5.5914994905382983e+01 -5.7249914497101217e-15
6.0159428866829314e+00 5.5914994905382983e+01 0.0000000000000000e+00
6.0159428866829314e+00 5.5914994905382983e+01 0.0000000000000000e+00
ITEM: ATOMS id type x y z
1 2 53.7662 50.9052 45.9683
2 2 41.1389 28.0852 13.0682
3 2 11.8466 11.5675 16.1632
4 2 38.8961 34.5791 52.3913
5 2 43.5215 34.7363 18.5724
6 2 13.2613 38.9079 52.7389
7 2 52.2364 53.4059 52.8668
8 2 22.2101 19.2568 16.6079
9 2 53.4521 39.7123 19.3807
10 2 47.1665 17.8744 17.8799
11 2 7.51213 10.9898 20.0023
12 2 41.5806 25.2853 46.7382
13 2 47.3014 45.1172 47.8453
14 2 51.0705 27.9954 13.4824
15 2 30.1721 12.3619 36.5897
16 2 31.5541 24.4221 47.6727
17 2 51.3649 48.2379 45.037
18 2 13.2237 31.072 23.1452
19 2 48.5717 25.0812 27.3356
20 2 48.1239 42.9808 55.0042
21 2 6.18418 24.239 26.1874
22 2 7.49151 23.0518 47.4409
23 2 6.04332 25.6936 45.9147
24 2 41.9564 49.5414 12.1419
25 2 50.8479 48.2947 40.8405
26 2 6.86218 8.89496 30.6927
27 2 20.9337 51.413 16.9548
28 2 36.2375 49.6895 25.5688
29 2 46.602 34.5005 53.9461
30 2 48.8431 12.4508 44.6858
31 2 18.5483 45.0419 17.7204
32 2 31.4998 35.6318 53.2908
33 2 51.0023 19.6158 50.6945
34 2 15.9517 14.0377 34.0349
35 2 15.4122 49.8217 21.9759
36 2 29.2424 14.3156 25.3835
37 2 8.5827 53.8721 8.46371
38 2 51.0077 20.778 39.0821
39 2 16.7723 6.63811 18.8194
40 2 9.55049 27.5904 18.3964
41 2 19.4118 7.82922 52.3579
42 2 40.3235 14.9085 44.856
43 2 46.1751 37.8949 50.8808
44 2 15.2838 34.2381 23.4107
45 2 6.66019 34.0692 21.3335
46 2 24.9896 21.3027 8.83755
47 2 36.0479 7.82989 6.75316
48 2 8.13822 32.4754 29.3339
49 2 11.0773 49.6276 13.6118
50 2 33.4348 35.4681 21.9092
51 2 50.7364 37.6103 31.3321
52 2 18.8478 35.3446 22.9077
53 2 11.7359 27.158 33.029
54 2 20.723 11.3799 14.8118
55 2 42.118 34.1476 52.6316
56 2 27.7541 11.8384 25.7211
57 2 37.3576 48.5539 10.678
58 2 15.6558 54.0874 20.7108
59 2 42.342 8.05276 38.8642
60 2 35.6272 34.3344 29.0284
61 2 31.7922 41.5866 55.3649
62 2 24.0372 46.3674 47.3037
63 2 39.4818 36.664 28.823
64 2 40.6647 45.8441 53.3539
65 2 21.7827 30.7537 24.6413
66 2 55.8154 14.4634 47.9553
67 2 39.8463 13.2099 35.0989
68 2 32.4397 34.3993 14.0943
69 2 9.52566 36.5939 39.6318
70 2 30.9564 37.2988 49.5279
71 2 6.58646 35.0996 46.5044
72 2 11.5061 12.2454 53.7871
73 2 28.5177 44.5544 31.9638
74 2 54.8311 10.1848 26.4278
75 2 44.9583 19.7922 47.9362
76 2 46.9056 52.7764 29.1357
77 2 45.9026 27.1585 33.6666
78 2 19.4398 32.0605 50.8165
79 2 11.4695 6.24336 33.356
80 2 14.7948 42.8476 26.4662
81 2 37.121 33.8405 43.1079
82 2 54.252 33.0864 10.5488
83 2 43.2785 22.0743 31.2264
84 2 28.6456 30.5891 22.363
85 2 9.97485 31.4382 47.9962
86 2 14.5705 43.7508 47.5631
87 2 6.48722 42.2909 29.2272
88 2 40.1617 42.8081 25.3806
89 2 35.4224 9.89783 52.5834
90 2 14.2238 7.66031 30.1553
91 2 27.1845 52.5502 14.9645
92 2 45.7979 21.9536 46.0039
93 2 30.8196 55.1231 29.1894
94 2 22.4686 37.2885 31.118
95 2 28.4649 18.5868 15.7502
96 2 28.3956 6.75509 36.9575
97 2 53.9774 48.0529 15.244
98 2 49.3442 16.1714 21.1712
99 2 54.4082 13.4519 32.1193
100 2 28.3014 32.7844 30.03
101 2 46.6364 22.6056 26.6993
102 2 26.0606 21.0463 30.5818
103 2 29.5564 16.873 19.1759
104 2 37.1267 55.8783 46.939
105 2 40.4724 20.2239 31.9498
106 2 21.4411 50.8174 39.6733
107 2 26.0774 17.707 30.4867
108 2 53.2179 6.63522 8.52459
109 2 47.9592 16.5872 53.2811
110 2 55.0806 17.8245 15.1102
111 2 40.3685 36.7841 24.0509
112 2 48.3623 31.8112 14.4282
113 2 21.9411 19.9257 24.5031
114 2 6.66854 24.1936 29.2137
115 2 22.1093 10.8905 30.5595
116 2 22.9011 9.88968 16.3103
117 2 24.9867 35.293 14.6012
118 2 9.79417 53.0288 23.2572
119 2 32.4616 19.2712 30.1805
120 2 13.8192 21.6425 27.4761
121 2 45.7499 40.846 54.5615
122 2 17.2266 12.5293 14.829
123 2 16.959 23.7812 29.3724
124 2 53.8793 40.5292 33.7676
125 2 18.8387 25.9214 11.2776
126 2 43.6459 31.7943 15.1253
127 2 50.8179 11.0122 6.70218
128 2 21.1835 49.3459 50.9956
129 2 46.2434 29.3871 29.9164
130 2 13.9749 31.6527 13.448
131 2 33.1526 20.9114 43.466
132 2 6.31851 18.0328 22.7436
133 2 20.1883 36.196 37.9975
134 2 6.09432 54.435 43.4164
135 2 53.0303 14.8762 17.8368
136 2 26.9664 15.0708 29.2261
137 2 38.5103 47.4281 47.0783
138 2 12.0598 27.9745 47.9788
139 2 38.2439 26.2247 35.3425
140 2 36.1156 38.9303 25.8143
141 2 15.0245 27.8316 39.5209
142 2 22.4642 23.1393 55.628
143 2 36.9273 49.8945 7.67221
144 2 20.8279 52.6721 48.2526
145 2 11.6448 17.5259 44.8485
146 2 55.7692 30.0467 45.2298
147 2 7.02981 11.3014 40.4988
148 2 10.3016 12.7437 19.4316
149 2 7.2004 17.0691 30.2773
150 2 48.3674 41.171 50.8434
151 2 44.1669 8.42052 30.4411
152 2 49.4624 25.2838 51.6938
153 2 6.70803 12.1104 22.9712
154 2 33.0453 32.4695 8.32177
155 2 53.3052 26.6584 28.8256
156 2 9.7757 10.2419 27.7081
157 2 46.5792 22.0336 29.4032
158 2 17.149 45.3691 37.0572
159 2 49.6393 18.985 12.1862
160 2 23.6662 19.197 50.1154
161 2 50.8864 40.202 23.0778
162 2 6.14438 12.9121 27.3159
163 2 22.1967 42.071 40.5212
164 2 19.9833 22.9934 49.3211
165 2 40.9101 55.106 25.1085
166 2 53.738 42.8999 8.43838
167 2 13.6898 18.5618 29.325
168 2 45.167 49.8906 11.2024
169 2 18.649 48.772 33.5748
170 2 33.1446 10.0684 23.0853
171 2 53.7965 17.4723 12.4204
172 2 50.9555 36.7987 53.8333
173 2 30.5673 42.8969 52.4764
174 2 55.4712 39.2366 14.3422
175 2 40.6485 42.7481 28.216
176 2 23.4951 21.9808 50.2557
177 2 27.8617 14.2207 13.9272
178 2 49.6549 8.43732 35.0158
179 2 30.5059 28.8832 9.74967
180 2 43.4121 55.7225 27.0276
181 2 43.0273 42.6155 50.1154
182 2 15.8487 48.2371 33.7437
183 2 23.741 53.1809 26.9053
184 2 38.3704 41.4913 51.3633
185 2 11.8165 29.8114 28.5423
186 2 20.6422 22.3434 13.6202
187 2 27.8646 22.5238 49.6422
188 2 36.403 50.9675 12.4149
189 2 15.2395 10.7877 44.1564
190 2 6.49293 28.6826 18.4362
191 2 7.24191 30.5733 26.8994
192 2 6.09634 35.0727 27.9881
193 2 35.2933 44.0244 53.3669
194 2 15.7776 27.1838 35.0914
195 2 39.2727 43.2813 6.93659
196 2 7.55694 25.8199 31.3871
197 2 35.9096 26.4271 17.7096
198 2 22.0406 40.2202 25.4912
199 2 6.56236 53.7638 24.7433
200 2 33.4899 53.1116 47.0778
201 2 33.5788 40.8744 34.7165
202 2 53.8575 49.9726 41.3879
203 2 8.64856 49.214 32.8279
204 2 26.3031 48.9291 51.1377
205 2 50.8317 23.7544 17.581
206 2 38.7324 19.2286 21.2897
207 2 47.2411 53.2051 8.91014
208 2 44.8531 24.3412 15.7253
209 2 43.9747 48.0736 7.2262
210 2 46.5585 34.9576 39.4239
211 2 38.9777 37.7914 18.4095
212 2 32.5444 18.4807 41.5316
213 2 32.9952 17.5354 45.8844
214 2 31.2059 45.4898 53.915
215 2 33.8488 51.2587 26.9815
216 2 26.6224 47.2185 7.83186
217 2 26.0395 16.9508 6.99567
218 2 50.7759 20.953 18.872
219 2 27.1373 20.1294 36.4462
220 2 9.8203 41.396 25.0886
221 2 41.015 9.69117 41.4291
222 2 16.4252 29.8141 18.2149
223 2 15.6872 28.2797 27.9716
224 2 27.1979 33.5435 15.1918
225 2 6.36713 8.52808 37.7315
226 2 24.0601 30.5467 19.884
227 2 39.5534 16.4166 21.6662
228 2 49.697 24.9054 37.5661
229 2 52.6082 19.282 43.42
230 2 53.8511 52.8668 17.4161
231 2 36.6963 39.4237 22.9276
232 2 13.8375 36.543 12.8656
233 2 21.2695 11.2357 22.3853
234 2 36.4995 8.16311 32.9972
235 2 30.7654 11.7309 43.512
236 2 50.8206 18.4198 34.0467
237 2 53.5203 41.0297 39.6323
238 2 19.4795 55.5171 18.5338
239 2 14.4699 40.5007 16.6057
240 2 34.2453 23.7753 25.4549
241 2 54.3858 10.316 42.7261
242 2 12.023 23.4739 30.5505
243 2 48.7728 27.5989 25.9516
244 2 8.76988 8.15304 13.5608
245 2 18.0963 39.8752 32.9478
246 2 36.7627 34.7413 36.0592
247 2 28.7744 15.6796 22.2625
248 2 28.3327 15.2352 46.3896
249 2 38.5623 11.0664 27.1984
250 2 30.8091 19.7664 50.6197
251 2 23.1687 29.9147 27.4767
252 2 22.461 38.2967 27.8905
253 2 47.9731 9.19856 14.503
254 2 34.0253 30.627 38.5526
255 2 17.2127 11.4351 18.9853
256 2 35.7558 34.779 17.5033
257 2 38.8827 29.0483 36.2009
258 2 50.792 6.71437 32.6311
259 2 31.3806 28.628 21.7184
260 2 15.5374 53.931 8.04432
261 2 31.4494 51.362 15.0408
262 2 39.691 29.1888 23.2561
263 2 52.0876 24.5338 51.0257
264 2 27.3862 22.5547 21.3912
265 2 52.8136 8.7738 16.3755
266 2 44.7422 21.2668 39.837
267 2 40.083 12.0484 10.1043
268 2 52.4386 9.55347 9.69416
269 2 40.589 32.8361 30.0293
270 2 14.962 13.217 46.48
271 2 35.144 14.1347 48.8367
272 2 48.933 32.9829 37.2077
273 2 54.0031 18.6783 52.3619
274 2 23.8601 17.6597 23.0394
275 2 20.0368 28.3769 40.9461
276 2 34.6793 49.0551 30.7661
277 2 31.2857 51.7625 7.47385
278 2 54.0873 20.3539 7.91858
279 2 24.287 55.3855 11.3626
280 2 31.0705 17.511 35.9257
281 2 53.1302 33.464 29.0376
282 2 11.9304 42.6052 34.261
283 2 50.8074 49.9359 15.9148
284 2 48.0127 22.1497 35.725
285 2 19.844 13.4833 39.5886
286 2 15.1511 38.9898 27.684
287 2 42.1553 33.4005 23.3077
288 2 33.8337 45.54 26.312
289 2 9.0318 24.1633 39.6921
290 2 41.0772 29.1987 55.1134
291 2 34.0098 18.2539 14.3314
292 2 35.6645 34.2332 25.9963
293 2 53.8099 40.2225 22.4527
294 2 41.5175 12.4634 26.117
295 2 6.05502 40.9336 51.3601
296 2 51.5763 34.0752 13.0572
297 2 14.616 24.719 11.2782
298 2 26.7733 54.314 22.82
299 2 18.8867 39.6458 47.8626
300 2 18.8557 30.022 12.8577
301 2 12.5663 11.4672 9.05208
302 2 34.897 24.9633 35.0324
303 2 54.0399 31.4777 40.8978
304 2 27.2358 33.7551 44.8074
305 2 28.8493 23.5194 32.5467
306 2 33.97 6.57473 55.1462
307 2 7.11418 41.3388 40.3811
308 2 46.3798 17.2504 46.381
309 2 20.0958 29.8679 27.5109
310 2 37.3235 25.2334 6.12097
311 2 54.468 31.4153 32.9241
312 2 38.9903 29.1805 31.5905
313 2 15.8097 45.8261 18.3504
314 2 47.8442 27.1571 13.0189
315 2 37.1745 52.3922 38.6516
316 2 33.1369 51.9513 30.7304
317 2 20.1357 41.8133 11.6056
318 2 37.9201 31.4108 39.0622
319 2 7.78831 6.73502 55.2114
320 2 48.2991 43.1247 36.1919
321 2 38.2868 30.1894 11.1597
322 2 46.396 46.8602 29.5152
323 2 31.2157 34.7711 18.6805
324 2 29.2452 9.05308 48.8114
325 2 7.04709 13.4847 38.331
326 2 16.5483 25.2055 43.8633
327 2 51.5489 23.9303 27.5593
328 2 11.8393 22.48 38.4825
329 2 31.8634 28.6397 38.3504
330 2 54.956 17.5975 35.4107
331 2 29.4333 30.2101 39.0529
332 2 15.6518 37.156 16.0157
333 2 38.3686 46.4896 23.1285
334 2 52.5601 35.9734 35.7767
335 2 23.2763 28.1007 33.4696
336 2 47.6866 19.7663 47.5966
337 2 16.9233 55.7758 50.7695
338 2 32.8972 34.0951 55.5826
339 2 8.60502 50.8518 25.7366
340 2 51.029 17.754 41.0861
341 2 34.6217 43.3199 6.28091
342 2 24.66 8.06709 42.6574
343 2 44.964 37.9678 18.7506
344 2 45.0557 16.6096 21.7449
345 2 10.3873 28.9689 39.0483
346 2 47.173 19.3473 52.6204
347 2 32.495 54.3642 49.4142
348 2 13.1056 13.7619 49.0281
349 2 18.3874 15.4724 12.5162
350 2 24.6871 26.8952 17.6109
351 2 29.6369 8.16927 15.1165
352 2 24.9942 10.5792 36.7553
353 2 8.00875 54.8561 13.1355
354 2 39.5918 40.5775 18.6822
355 2 14.4919 45.8851 15.6014
356 2 20.1991 43.8569 54.325
357 2 28.8254 19.4447 43.4168
358 2 40.8921 52.3625 12.8892
359 2 9.63232 39.0811 54.2481
360 2 53.7505 50.2804 25.6239
361 2 20.2189 17.6974 29.3874
362 2 50.0235 8.54864 16.8524
363 2 12.6275 34.9347 42.4316
364 2 45.5385 54.832 21.505
365 2 42.5354 15.458 37.8736
366 2 9.11359 16.7986 50.2983
367 2 39.8583 42.9754 13.3756
368 2 48.6691 46.2569 7.70598
369 2 11.4531 45.5661 30.588
370 2 8.03995 44.7125 31.6017
371 2 49.8748 55.5674 18.3413
372 2 43.543 20.2817 21.18
373 2 11.6936 51.131 32.422
374 2 16.3317 54.1633 48.4621
375 2 22.589 32.716 55.2425
376 2 20.2873 18.6119 40.1351
377 2 50.2397 16.473 8.47756
378 2 6.48744 39.467 8.61662
379 2 7.90781 53.8875 45.704
380 2 28.576 55.6552 39.8946
381 2 38.4039 15.1488 8.44526
382 2 46.7526 50.6507 47.2655
383 2 45.806 29.5723 23.4812
384 2 36.2489 43.1095 16.0143
385 2 43.3493 38.0004 24.7721
386 2 35.6465 42.6983 49.6393
387 2 43.9189 25.9891 44.6065
388 2 38.6466 32.0484 36.5012
389 2 40.3847 49.0776 26.0976
390 2 43.6505 53.7325 52.6624
391 2 44.9034 40.741 18.6945
392 2 38.3226 52.5589 11.0059
393 2 35.1084 14.0043 29.7735
394 2 47.0067 49.523 28.1758
395 2 29.9492 20.3187 35.716
396 2 24.1629 10.6159 26.489
397 2 44.8999 28.9417 14.6287
398 2 15.0609 13.3607 17.4341
399 2 24.1541 47.22 7.63997
400 2 7.97938 55.6974 26.9298
401 2 12.3464 30.199 55.4272
402 2 37.5572 14.527 54.0233
403 2 44.8306 43.3473 27.3666
404 2 6.42742 11.1642 12.1799
405 2 10.7422 14.9999 52.4407
406 2 26.9181 37.4075 11.4454
407 2 7.64622 11.9203 55.2541
408 2 21.3355 36.0492 47.0448
409 2 20.6959 46.0366 29.1366
410 2 47.644 30.2155 11.5099
411 2 14.4985 10.7194 36.7361
412 2 29.9934 49.6429 9.73041
413 2 33.9331 42.1377 43.3655
414 2 30.6792 48.5017 55.226
415 2 40.4614 25.1308 41.9245
416 2 29.9534 37.5183 7.28359
417 2 51.9201 37.9942 44.7779
418 2 39.8727 13.8486 23.2694
419 2 11.6382 15.3965 39.5682
420 2 50.9281 21.1902 13.9639
421 2 6.4449 54.3054 10.5761
422 2 15.3599 40.31 44.0141
423 2 24.3594 27.4839 24.0131
424 2 22.7093 15.2972 29.0534
425 2 50.9599 23.772 10.5942
426 2 27.3832 33.6982 25.1947
427 2 9.74463 27.7307 15.4469
428 2 55.3819 24.7238 8.40363
429 2 8.84759 19.6941 31.153
430 2 26.5905 45.9463 39.7047
431 2 6.08232 47.8513 22.5628
432 2 9.08325 37.9138 9.17434
433 2 53.793 21.4094 13.9249
434 2 49.4586 38.5852 17.3047
435 2 20.7797 37.0759 16.1898
436 2 36.7093 54.402 15.458
437 2 54.4677 20.3439 31.4851
438 2 16.0947 40.2855 9.34623
439 2 55.0572 23.2331 51.2144
440 2 46.7691 29.9773 26.2443
441 2 17.6926 26.53 51.8522
442 2 33.0098 23.0552 34.4299
443 2 39.1549 38.4485 44.8122
444 2 19.5009 37.3232 9.05012
445 2 36.5717 44.5942 46.7502
446 2 39.1973 10.3315 14.4606
447 2 52.4018 28.4002 45.1057
448 2 49.9704 10.8871 26.0079
449 2 19.4781 53.5448 51.7339
450 2 32.7151 48.2509 26.6217
451 2 23.9305 41.3183 11.6181
452 2 37.0133 29.567 50.1118
453 2 36.3603 55.324 42.1419
454 2 15.1664 14.1422 50.9723
455 2 27.5657 53.4992 9.59231
456 2 16.7495 9.06719 27.5527
457 2 41.7371 8.8543 32.4462
458 2 37.6972 31.1323 15.5905
459 2 39.317 47.8252 17.7784
460 2 40.309 21.6385 55.3262
461 2 15.4133 35.0598 28.3627
462 2 49.2967 49.1302 48.3866
463 2 29.7926 31.5883 11.729
464 2 9.21655 29.5471 55.7189
465 2 33.9823 8.334 48.565
466 2 12.931 55.1967 31.1736
467 2 7.41362 12.4257 33.1318
468 2 23.3202 53.3741 22.2143
469 2 48.6406 25.7499 10.3
470 2 23.9565 19.2355 36.868
471 2 15.5406 9.2783 53.9207
472 2 16.827 40.7739 14.2374
473 2 16.316 33.637 47.8058
474 2 30.5574 23.1984 21.8165
475 2 41.9953 7.55308 55.7394
476 2 46.8675 43.4714 31.2921
477 2 10.5638 36.8831 50.0359
478 2 39.9468 50.5979 23.8157
479 2 39.7088 14.5458 41.412
480 2 53.7836 20.0546 39.8446
481 2 34.7727 37.5013 38.3619
482 2 53.2086 30.3887 36.1214
483 2 29.4958 35.3088 14.191
484 2 26.1235 33.7455 52.7678
485 2 30.198 20.1106 19.9725
486 2 20.7396 48.521 9.75117
487 2 51.7932 32.1818 50.2539
488 2 47.7742 24.917 30.0128
489 2 35.5232 20.0783 18.7263
490 2 7.34251 43.0386 42.838
491 2 12.328 35.9645 22.1927
492 2 31.3689 47.4003 45.0647
493 2 10.8992 25.2688 46.1625
494 2 38.0169 14.4908 11.553
495 2 34.7219 55.0832 45.2502
496 2 37.6291 12.7035 14.3945
497 2 26.6441 37.946 8.41274
498 2 33.498 13.8255 14.1024
499 2 35.2667 51.3867 55.519
500 2 35.5602 9.92815 36.79
501 2 9.00588 26.3557 23.7092
502 2 54.5514 43.9685 47.3439
503 2 40.4503 50.5691 44.5176
504 2 12.6175 29.526 12.0604
505 2 6.6163 35.1705 11.8864
506 2 55.6527 27.1499 39.2481
507 2 16.4747 38.6655 22.9365
508 2 24.908 26.7985 52.5741
509 2 6.88097 39.2134 22.3739
510 2 12.7975 22.4128 7.20712
511 2 8.74114 51.9983 40.938
512 2 28.5384 10.8344 28.1257
513 2 13.8308 8.69379 10.6496
514 2 26.0243 30.1367 9.29705
515 2 16.6731 41.8067 47.0437
516 2 25.0644 21.1151 34.4084
517 2 24.165 36.9032 45.9784
518 2 6.46548 50.2296 21.2824
519 2 31.7988 11.0989 40.7505
520 2 18.3497 27.8456 16.5161
521 2 36.3083 38.0653 48.5885
522 2 20.716 8.91903 40.0086
523 2 22.6287 48.3778 14.7019
524 2 17.8441 13.2086 47.973
525 2 34.9299 13.8054 24.0434
526 2 20.5861 6.53966 43.9002
527 2 18.5656 42.8511 15.0496
528 2 29.2884 32.3653 27.117
529 2 8.22196 8.13882 23.9507
530 2 19.9525 53.5283 28.2196
531 2 47.8644 50.4054 19.79
532 2 15.6931 22.1034 14.2041
533 2 52.7212 21.4412 25.2599
534 2 6.71667 43.567 12.1479
535 2 51.3806 46.7062 29.9487
536 2 19.2045 30.732 32.9423
537 2 45.2754 15.4801 50.4893
538 2 8.78628 18.6212 52.7768
539 2 31.2218 20.6802 12.168
540 2 13.0647 45.6752 54.8731
541 2 39.4496 25.0001 44.4644
542 2 43.4593 29.5612 31.3537
543 2 24.8202 40.7171 26.033
544 2 7.33924 15.4961 10.7423
545 2 55.1638 27.8296 43.5183
546 2 21.1713 26.9299 14.7259
547 2 47.5611 40.0613 10.3524
548 2 34.9281 36.8424 19.3622
549 2 45.2347 21.226 24.0215
550 2 17.7326 40.0799 11.735
551 2 35.0767 28.1746 19.9671
552 2 21.947 19.9063 11.4912
553 2 50.9231 37.3521 24.4259
554 2 48.8468 37.9997 6.76439
555 2 53.975 45.2391 16.1982
556 2 21.861 8.56192 10.7639
557 2 35.0256 42.1011 19.7912
558 2 43.5243 52.8659 45.5121
559 2 13.9516 52.6131 36.4472
560 2 16.0621 29.0023 50.6206
561 2 36.3484 13.9315 51.4287
562 2 37.8252 7.72253 14.5903
563 2 55.0432 25.3774 55.2295
564 2 22.591 8.75632 18.7009
565 2 31.0573 30.7988 14.8887
566 2 17.6341 18.2248 52.3456
567 2 55.3534 28.1395 12.4271
568 2 19.0014 34.353 15.2664
569 2 45.748 42.8491 14.2463
570 2 28.5679 18.8257 7.95332
571 2 33.0551 40.9978 48.2734
572 2 34.5274 48.0267 6.02418
573 2 53.261 50.3203 53.8618
574 2 11.2543 44.6326 40.5291
575 2 12.4143 53.0607 42.1494
576 2 46.3265 43.7468 8.98611
577 2 47.4803 46.0042 32.3528
578 2 20.2973 6.31172 48.2417
579 2 52.7555 25.998 46.7918
580 2 48.0875 6.98077 21.9599
581 2 54.1046 7.25502 13.5781
582 2 30.155 7.53355 53.0788
583 2 55.683 55.3948 47.3254
584 2 47.0789 8.95113 46.5647
585 2 18.0445 51.3293 29.5704
586 2 48.8627 21.4002 42.7524
587 2 20.9264 51.6258 55.381
588 2 7.65376 45.7511 51.3031
589 2 18.8341 29.598 6.1822
590 2 21.395 27.3635 27.4359
591 2 36.5805 49.4836 20.6527
592 2 38.9656 10.9321 33.3437
593 2 28.6668 33.3134 50.1518
594 2 32.9727 26.7145 8.4377
595 2 17.5975 51.5285 17.88
596 2 37.2809 10.5018 40.1099
597 2 27.8519 30.0613 18.0586
598 2 23.8496 11.5415 18.5623
599 2 32.8696 11.0295 32.6969
600 2 41.4616 40.382 21.5787
601 2 32.9789 40.0573 8.75309
602 2 33.0297 15.968 42.8119
603 2 55.6442 40.6076 55.0062
604 2 12.1171 48.7185 9.13293
605 2 17.8694 18.7285 22.4829
606 2 11.4019 32.0925 17.845
607 2 44.1965 38.4127 48.6546
608 2 43.5324 25.6223 39.9142
609 2 43.9953 7.15236 8.53307
610 2 7.75021 51.83 19.1671
611 2 38.6028 18.4785 28.4659
612 2 41.8827 49.5953 55.0635
613 2 32.0391 29.8 41.1998
614 2 27.6167 28.0691 51.5163
615 2 43.2281 37.8373 45.6033
616 2 35.852 9.75206 27.7679
617 2 45.8417 13.0932 53.0354
618 2 47.4363 14.1353 55.5147
619 2 23.817 14.7946 34.5855
620 2 44.4036 44.8906 7.25535
621 2 46.691 52.6246 39.2679
622 2 20.9541 12.5391 7.89201
623 2 6.13021 33.0149 55.1132
624 2 15.1893 50.3066 18.6223
625 2 28.3664 30.8146 25.0648
626 2 6.387 37.6258 29.5749
627 2 33.8422 47.0741 8.81184
628 2 44.529 6.34113 51.4277
629 2 7.67534 50.6151 14.1876
630 2 33.3734 27.6183 34.0712
631 2 28.8541 34.4975 37.6123
632 2 24.3526 32.2899 26.193
633 2 39.4699 48.6884 32.1129
634 2 27.0085 52.3906 28.6267
635 2 10.9129 36.107 13.8681
636 2 16.6651 35.2767 52.5522
637 2 47.1286 7.83973 26.5371
638 2 10.9482 45.889 38.0831
639 2 48.3619 36.4814 24.1116
640 2 21.2871 24.567 23.0806
641 2 11.974 15.8054 42.3334
642 2 26.7166 41.2383 17.2291
643 2 30.6686 21.4711 33.3301
644 2 14.741 18.0387 33.3359
645 2 11.8076 34.3271 20
646 2 47.6822 9.86819 41.1055
647 2 13.8709 6.55 50.0692
648 2 48.878 48.1539 44.0472
649 2 47.2831 17.262 37.4452
650 2 31.5754 44.0793 27.3256
651 2 41.0902 15.9413 52.0061
652 2 50.4328 54.8695 46.1913
653 2 25.8616 51.1701 12.4877
654 2 42.0597 22.0315 35.3578
655 2 42.1369 9.09779 13.0043
656 2 21.9583 50.1498 37.11
657 2 32.0949 36.683 40.1542
658 2 41.0899 33.8356 9.44975
659 2 6.41925 45.1033 18.8623
660 2 28.9016 50.4737 33.6763
661 2 21.5947 51.5983 20.4783
662 2 50.2225 47.0066 22.6855
663 2 32.9795 41.5234 17.397
664 2 26.37 20.9114 17.5683
665 2 50.0626 27.8087 40.8896
666 2 9.99823 26.3452 48.9582
667 2 25.247 16.6429 33.0661
668 2 38.3534 32.0531 19.5104
669 2 11.452 43.0246 55.066
670 2 39.0338 11.6889 30.3459
671 2 16.4469 48.1854 7.93638
672 2 47.6088 43.0462 24.3656
673 2 13.1282 48.8151 24.3607
674 2 19.2085 25.8733 8.44051
675 2 49.8967 36.415 48.4547
676 2 22.8992 26.1636 47.5256
677 2 24.449 49.5658 42.642
678 2 45.6529 30.5287 18.9864
679 2 43.2884 43.121 34.5804
680 2 30.0203 47.6179 19.1326
681 2 53.9321 30.2283 10.6831
682 2 32.1856 13.6363 33.9482
683 2 19.2903 51.3057 35.5305
684 2 9.50544 34.2087 46.371
685 2 24.2543 24.6988 12.2332
686 2 36.9272 13.9932 45.7632
687 2 15.3844 49.327 28.9309
688 2 46.9187 18.4473 55.467
689 2 33.6115 22.0834 8.42425
690 2 32.3739 32.0282 31.7392
691 2 11.3117 27.7571 51.1758
692 2 54.9143 52.657 28.3082
693 2 19.4548 41.0417 40.7291
694 2 33.4806 38.4741 21.5914
695 2 8.58937 23.1438 31.6126
696 2 19.1046 9.79953 10.7859
697 2 40.1164 29.5854 46.8456
698 2 40.8946 53.5171 52.6746
699 2 19.648 39.9156 16.3444
700 2 35.0229 14.6809 11.0775
701 2 9.58446 8.93938 16.3103
702 2 21.7204 18.7391 54.7469
703 2 39.603 19.5661 38.7385
704 2 17.3787 51.2124 11.5916
705 2 26.5148 54.1035 52.8107
706 2 54.9226 16.9814 8.88401
707 2 43.607 27.9794 22.9505
708 2 39.4379 33.4257 34.2341
709 2 10.3751 19.2489 55.647
710 2 23.6637 40.3527 49.4023
711 2 36.8135 55.5757 37.1169
712 2 19.0958 46.556 11.7908
713 2 18.2735 10.0385 36.3824
714 2 38.1044 45.3678 16.8423
715 2 31.3172 47.7087 23.9359
716 2 12.879 16.7126 53.8646
717 2 31.7727 31.3645 27.4724
718 2 27.607 46.3311 51.2261
719 2 48.3407 13.2075 47.3679
720 2 14.1388 52.8586 24.6813
721 2 42.7093 31.2498 26.147
722 2 42.1318 39.2819 17.8393
723 2 36.5776 7.04699 25.5198
724 2 55.2993 38.7613 32.2938
725 2 35.0553 13.4415 43.8269
726 2 33.7377 53.9151 9.5105
727 2 30.2289 13.4497 40.7245
728 2 25.9732 20.2696 14.6544
729 2 12.6939 40.3685 32.1947
730 2 14.5357 36.985 50.6204
731 2 49.4641 9.61766 38.4999
732 2 10.3968 51.6114 9.21806
733 2 12.4212 14.5996 46.1817
734 2 6.17783 34.0694 33.0554
735 2 43.1897 12.2012 14.6245
736 2 27.8631 24.5822 51.3598
737 2 20.5565 6.28052 40.7995
738 2 33.4236 18.3919 25.7417
739 2 12.9242 12.0539 44.8198
740 2 10.5811 15.1358 55.7375
741 2 44.7476 19.327 37.5748
742 2 43.1454 55.9028 36.9998
743 2 8.27676 23.4491 44.835
744 2 47.5328 55.369 37.3353
745 2 42.5692 17.8371 22.8751
746 2 39.2282 44.4536 34.9747
747 2 37.3275 18.3775 40.9679
748 2 38.5043 38.9402 37.275
749 2 51.8196 36.4338 28.3965
750 2 13.9293 6.91357 37.5456
751 2 37.6686 21.0687 42.9558
752 2 41.7224 6.99939 16.0128
753 2 35.9568 16.9096 54.731
754 2 7.30553 14.5615 41.3062
755 2 46.8021 19.209 12.1308
756 2 48.6003 15.6225 28.1119
757 2 10.2224 10.3352 38.679
758 2 14.0371 41.7307 52.3949
759 2 32.1836 50.41 52.9817
760 2 20.9765 43.7202 34.5404
761 2 11.975 54.8314 46.9429
762 2 10.9744 12.7163 11.8805
763 2 54.7153 20.5293 23.055
764 2 44.5226 38.4398 53.3413
765 2 25.0209 51.1279 24.056
766 2 36.1717 43.9762 26.0172
767 2 43.8428 18.7692 8.98548
768 2 54.6787 54.0126 32.9995
769 2 27.7689 14.1508 10.5309
770 2 54.5488 39.575 44.4775
771 2 36.3521 49.935 34.6652
772 2 17.1454 13.8722 19.8825
773 2 50.9882 39.8074 40.6471
774 2 45.9519 52.4079 49.1639
775 2 50.8969 22.751 48.8799
776 2 16.0334 29.7967 44.6888
777 2 50.9544 42.6201 54.0566
778 2 26.4688 50.9386 40.4701
779 2 23.2843 17.6701 31.0155
780 2 34.6154 11.8999 40.9613
781 2 18.5542 52.2778 38.5843
782 2 11.4013 6.83744 15.9398
783 2 43.8762 7.61956 46.1138
784 2 32.1666 13.6577 25.6248
785 2 8.22445 25.4525 14.8399
786 2 15.6219 22.5472 32.6549
787 2 43.7668 25.3256 53.4745
788 2 42.6184 40.9553 10.1105
789 2 11.4615 7.64425 45.1533
790 2 11.8018 9.67131 42.7172
791 2 29.7399 29.8239 29.0798
792 2 45.2494 7.88249 40.0888
793 2 36.248 35.3493 40.4327
794 2 22.3933 40.1234 32.0618
795 2 40.8973 30.0023 52.0578
796 2 39.4486 14.6359 15.7811
797 2 29.9618 12.5096 29.5028
798 2 48.3492 23.0447 46.8588
799 2 39.3656 15.6935 33.3955
800 2 19.6817 16.4036 21.6484
801 2 7.15094 28.9728 32.2845
802 2 43.8636 43.9134 20.9784
803 2 27.4542 8.73539 24.9088
804 2 55.6554 54.0155 52.283
805 2 17.5762 8.07789 33.7803
806 2 10.4789 17.283 30.961
807 2 44.1763 33.9907 9.47673
808 2 55.2005 24.9233 21.3975
809 2 15.6284 41.8513 41.1069
810 2 54.5406 9.4969 55.3678
811 2 27.1155 7.53258 7.8608
812 2 46.2725 35.9526 20.2464
813 2 10.9097 19.5847 10.3077
814 2 10.5213 14.0423 16.994
815 2 14.8328 24.278 48.8976
816 2 37.8455 31.06 8.53419
817 2 53.3436 45.1303 31.1462
818 2 39.2573 48.7754 42.054
819 2 48.1412 54.948 30.828
820 2 47.306 33.203 21.2439
821 2 36.4187 53.6815 53.2044
822 2 51.3674 7.47686 43.1206
823 2 24.2704 18.3825 26.4392
824 2 18.4005 38.2936 18.0102
825 2 48.9806 50.7406 32.5651
826 2 44.6284 54.7644 10.7008
827 2 8.88574 32.644 24.9014
828 2 32.4094 54.2993 52.8653
829 2 49.0999 39.3293 20.9015
830 2 9.57625 21.0869 48.3402
831 2 34.416 44.633 28.929
832 2 24.6982 39.0037 38.9537
833 2 9.06815 42.3335 34.2826
834 2 9.80076 55.2714 52.2396
835 2 49.574 33.9972 10.0902
836 2 33.183 49.4805 39.7361
837 2 40.0104 32.8607 42.6467
838 2 49.9376 9.23853 45.4081
839 2 50.0621 23.9165 34.6007
840 2 38.7432 45.3155 27.714
841 2 7.70979 10.431 53.0053
842 2 49.6709 13.6998 50.6782
843 2 9.98293 22.3439 50.745
844 2 47.4512 36.504 26.8885
845 2 25.2551 30.0864 48.4864
846 2 21.1301 47.0846 48.3086
847 2 41.0125 31.931 12.0301
848 2 10.0062 24.6819 27.0046
849 2 11.6922 23.5653 48.7424
850 2 51.1293 14.5363 26.224
851 2 43.2923 48.098 22.7968
852 2 55.5098 8.46658 10.2675
853 2 27.7884 53.6998 36.1649
854 2 45.5178 41.7297 38.0176
855 2 23.2657 34.5102 17.0115
856 2 11.3932 29.2678 19.4475
857 2 50.4747 6.44147 7.50702
858 2 23.9368 18.8234 6.98482
859 2 47.5276 32.2276 46.8534
860 2 26.9651 32.2789 38.2983
861 2 21.9761 31.6349 21.3906
862 2 19.8216 54.6496 32.6675
863 2 11.0427 15.1387 24.1582
864 2 34.4672 30.0475 48.9937
865 2 26.3767 43.682 18.7835
866 2 42.9678 47.7494 32.4431
867 2 9.97557 33.8747 6.14586
868 2 36.8965 21.0286 27.0368
869 2 25.1425 15.8938 17.0466
870 2 10.47 53.3903 49.5904
871 2 40.7677 49.539 36.6714
872 2 42.1821 22.4018 18.9069
873 2 48.6133 28.6278 32.1485
874 2 31.2509 14.6057 52.5661
875 2 16.4999 26.7307 18.8043
876 2 28.1891 19.6094 25.4666
877 2 17.89 47.1626 26.0094
878 2 17.1535 50.4357 44.9714
879 2 11.1228 39.4273 41.0683
880 2 49.7586 10.0411 19.4324
881 2 51.9863 54.352 42.7342
882 2 8.78841 34.1452 53.3085
883 2 44.8382 42.5815 11.5919
884 2 15.1158 33.7721 44.8303
885 2 47.6571 41.0669 26.6527
886 2 8.7499 43.7002 49.1278
887 2 28.774 40.0134 23.7698
888 2 39.3849 6.40136 9.15059
889 2 42.5244 15.3147 34.3275
890 2 36.0585 26.1573 26.6256
891 2 39.2772 41.1582 23.3323
892 2 30.0262 46.0177 42.2155
893 2 48.6077 27.8367 48.3308
894 2 52.3348 16.8574 19.5921
895 2 29.2223 46.6343 47.5192
896 2 10.0423 21.7678 23.5478
897 2 30.3487 18.4112 22.954
898 2 45.9059 35.9463 8.79724
899 2 45.3959 35.5578 44.4208
900 2 11.1569 9.99315 31.5921
901 2 50.2098 29.6109 34.1652
902 2 16.3434 11.1206 33.0492
903 2 6.96228 48.7237 10.4321
904 2 37.8887 8.88448 37.7603
905 2 46.1418 12.8795 27.1015
906 2 12.803 17.7335 37.7752
907 2 20.2504 34.3806 33.2931
908 2 40.1036 34.5088 12.6095
909 2 9.32572 50.8014 11.7325
910 2 24.6219 44.8743 26.082
911 2 30.8114 16.6596 16.4646
912 2 45.4572 46.605 34.3399
913 2 26.0657 37.1998 54.8286
914 2 29.4841 10.4386 54.5804
915 2 55.4901 50.7323 16.6074
916 2 51.5059 10.3027 40.95
917 2 28.6923 47.1796 29.5608
918 2 14.4582 10.1491 30.0551
919 2 44.3048 16.2142 40.2644
920 2 32.1798 46.062 32.9998
921 2 13.1501 38.0649 43.4508
922 2 49.476 38.5214 28.149
923 2 53.2926 34.0086 24.6813
924 2 33.7938 18.5776 49.8793
925 2 52.2605 27.2828 52.1775
926 2 33.2546 36.8528 14.4307
927 2 20.939 20.0886 37.5086
928 2 26.1465 30.6457 51.5435
929 2 29.3554 54.9825 23.774
930 2 33.1676 47.4705 11.8038
931 2 23.8567 23.8916 21.5595
932 2 15.4894 52.0391 43.048
933 2 37.5681 22.3682 7.2017
934 2 29.0112 52.2041 18.5514
935 2 30.7445 51.7071 37.6532
936 2 7.47624 36.7519 35.2088
937 2 31.7319 49.6028 50.006
938 2 53.3981 12.068 49.3671
939 2 27.0388 46.5094 34.5638
940 2 29.7089 49.3054 30.9311
941 2 6.52014 46.101 35.6159
942 2 13.5964 26.3477 15.2444
943 2 55.0869 7.29419 51.3661
944 2 25.9787 10.5013 30.2239
945 2 30.2638 16.3494 10.7081
946 2 43.9565 52.4173 36.7196
947 2 15.3735 43.1894 38.9419
948 2 38.2193 22.1019 38.0696
949 2 27.9772 53.9996 25.9209
950 2 35.3201 21.5183 11.1121
951 2 35.8654 16.0653 15.2428
952 2 42.4466 55.5915 44.0964
953 2 22.4437 14.1116 37.2342
954 2 18.5359 16.391 31.2693
955 2 53.4251 36.2548 41.4577
956 2 54.7646 45.578 23.5902
957 2 18.1231 21.7189 18.3215
958 2 35.7147 24.0998 37.7253
959 2 8.65474 14.7749 26.0621
960 2 32.7354 31.9035 47.2698
961 2 33.8128 28.6767 29.6877
962 2 27.8561 18.3922 47.6567
963 2 16.9899 27.9514 55.0614
964 2 29.8025 39.8037 51.8663
965 2 21.5553 27.4185 31.338
966 2 54.8936 22.7155 38.151
967 2 20.3025 39.0502 37.3971
968 2 25.1838 7.73802 17.4402
969 2 15.9898 27.2984 22.3824
970 2 34.4434 11.0437 48.1415
971 2 44.0172 9.7936 16.4246
972 2 16.0696 19.5306 9.69658
973 2 54.467 25.4825 37.0118
974 2 40.745 53.1085 46.1605
975 2 17.2012 18.1519 15.9573
976 2 37.9365 7.42632 30.7724
977 2 23.5377 44.0752 7.28796
978 2 18.0772 36.2243 44.1549
979 2 50.8098 28.6351 27.8291
980 2 24.9307 38.742 23.6057
981 2 50.2238 43.3961 49.7395
982 2 17.4372 49.8831 25.0367
983 2 41.4525 30.6315 16.6352
984 2 13.4681 34.0808 38.25
985 2 19.6101 41.3867 6.46648
986 2 31.33 53.2464 17.3798
987 2 11.0507 42.7444 38.2795
988 2 53.0133 51.818 34.5319
989 2 24.122 44.2976 38.3184
990 2 10.3271 19.3051 36.1536
991 2 38.775 46.2022 10.1624
992 2 27.9861 37.8121 43.9569
993 2 41.8581 54.3281 41.2806
994 2 39.4243 12.6984 47.0688
995 2 50.997 9.73931 23.4192
996 2 10.7057 49.4793 44.0382
997 2 22.343 37.7741 12.458
998 2 36.9783 22.2512 24.6446
999 2 44.3916 45.4089 10.374
1000 2 41.2788 38.433 50.3325
1001 2 40.2595 24.5976 28.548
1002 2 38.8531 31.08 53.555
1003 2 23.0929 18.1481 47.3203
1004 2 50.7014 19.4051 9.25726
1005 2 50.9601 13.1334 35.1545