ITEM: TIMESTEP
0
ITEM: NUMBER OF ATOMS
9088
ITEM: BOX BOUNDS xy xz yz pp pp pp
6.0782387965341531e+00 5.5852698995600953e+01 -5.7106968474220618e-15
6.0782387965341584e+00 5.5852698995600953e+01 0.0000000000000000e+00
6.0782387965341584e+00 5.5852698995600953e+01 0.0000000000000000e+00
ITEM: ATOMS id type x y z
1 2 48.0847 42.6737 9.0858
2 2 19.3235 32.9298 29.291
3 2 7.52007 53.3033 16.9167
4 2 30.7415 37.8255 24.0167
5 2 27.6956 27.8451 25.2217
6 2 49.4462 21.6459 48.2168
7 2 30.7781 32.3907 15.8036
8 2 40.9907 52.9104 11.5512
9 2 22.8515 15.722 24.0726
10 2 16.5424 12.2997 26.2709
11 2 43.3617 53.5058 21.2576
12 2 19.7309 17.7911 41.8607
13 2 27.7268 41.3201 46.0056
14 2 13.3596 23.7806 26.3675
15 2 7.89526 52.5428 41.2316
16 2 51.8099 10.1846 48.4656
17 2 31.1453 30.1485 52.6395
18 2 48.3458 17.6263 26.0503
19 2 31.4365 25.8375 20.7527
20 2 32.9822 26.863 11.4987
21 2 37.7678 13.4552 39.7371
22 2 42.8272 17.0382 8.55578
23 2 39.1797 30.3678 51.6182
24 2 21.9534 34.5849 14.6517
25 2 55.7955 38.456 43.7403
26 2 7.28325 51.378 50.4805
27 2 46.2652 45.3945 36.3817
28 2 11.7845 38.4576 23.2353
29 2 34.0063 10.235 52.7669
30 2 28.7526 54.2554 41.6772
31 2 53.4909 41.8235 31.0097
32 2 23.3073 37.7277 18.4765
33 2 23.5259 54.525 8.39228
34 2 51.7325 29.114 54.28
35 2 45.7945 30.667 33.2766
36 2 54.3153 46.7881 25.1095
37 2 51.6575 41.9049 13.5459
38 2 37.2324 49.6596 41.4461
39 2 45.6369 54.9058 21.5851
40 2 40.7589 32.9977 39.757
41 2 14.7734 43.7824 8.25066
42 2 34.9357 48.1733 10.8573
43 2 31.7789 39.008 13.564
44 2 42.7587 26.2971 41.7813
45 2 38.0244 18.092 30.814
46 2 8.96066 55.1947 24.9392
47 2 29.4634 45.8351 54.2849
48 2 44.2478 18.3813 44.9691
49 2 42.1716 36.7638 21.2295
50 2 14.5517 14.7196 39.4532
51 2 38.3988 24.4533 24.5498
52 2 39.0912 23.4327 34.2301
53 2 30.7624 30.063 28.4202
54 2 8.11158 48.0686 41.4585
55 2 29.1647 16.5149 21.9366
56 2 12.4995 37.3724 29.8465
57 2 14.9019 24.3265 14.2735
58 2 16.0982 29.9818 22.1822
59 2 29.8864 42.0665 18.1539
60 2 15.2254 21.9563 34.3623
61 2 46.2373 25.7133 48.7957
62 2 38.8086 32.7833 9.57413
63 2 16.5801 34.0806 29.3505
64 2 32.5845 30.3237 19.788
65 2 6.11985 22.8086 17.1023
66 2 55.7707 55.8112 44.8552
67 2 23.8472 42.4195 35.9324
68 2 15.119 13.8374 20.4729
69 2 42.0293 36.4031 45.7247
70 2 22.3485 33.0424 24.2706
71 2 32.121 32.6642 50.2513
72 2 48.6384 31.6062 18.4864
73 2 16.7315 32.7384 35.5894
74 2 40.3715 41.5538 39.5626
75 2 16.9291 6.68596 47.7961
76 2 18.4696 35.1876 35.7249
77 2 43.3289 6.64547 45.2382
78 2 6.31458 17.8283 21.2907
79 2 13.044 53.2192 46.5006
80 2 52.115 47.6996 26.7034
81 2 48.7592 35.2868 41.6352
82 2 34.4793 52.3531 17.1343
83 2 34.728 30.4784 42.8763
84 2 7.0933 30.5995 29.2367
85 2 48.7157 35.848 10.2249
86 2 47.0494 32.5459 47.6547
87 2 39.3171 31.352 25.922
88 2 27.7612 13.6001 31.3322
89 2 19.5769 42.1731 7.07083
90 2 41.0249 15.902 38.2295
91 2 49.2933 53.9199 8.47121
92 2 34.2657 8.54909 44.3711
93 2 19.4731 46.5866 48.1117
94 2 9.19963 39.0948 22.7342
95 2 55.7552 55.1836 14.488
96 2 18.5534 41.5669 44.5691
97 2 54.1803 32.4677 26.2114
98 2 34.5729 18.5902 16.6602
99 2 37.7792 55.3746 45.4928
100 2 20.4064 14.6865 41.911
101 2 43.3679 24.6269 26.0414
102 2 9.07136 47.2241 33.6846
103 2 21.4181 20.9887 19.118
104 2 34.8252 31.4433 9.64976
105 2 26.4765 22.0624 38.2195
106 2 15.5797 39.2254 45.0494
107 2 54.8691 49.8299 34.4574
108 2 46.0523 44.1526 15.6176
109 2 28.2596 8.2503 20.1736
110 2 35.9417 24.8247 26.0622
111 2 29.5391 14.1239 23.8164
112 2 45.1729 21.6392 26.6166
113 2 53.4113 43.5825 18.7437
114 2 46.1315 50.621 44.87
115 2 51.6289 48.6188 43.1097
116 2 50.6434 52.521 16.94
117 2 39.4531 20.0203 11.0823
118 2 41.1155 36.5558 32.2478
119 2 23.8552 6.45636 21.0152
120 2 33.1451 32.3655 38.3388
121 2 23.0321 16.6771 12.629
122 2 38.8762 50.9679 26.6193
123 2 52.8818 55.6964 41.2458
124 2 38.5168 35.6485 26.0382
125 2 22.1447 20.1279 30.5438
126 2 48.5963 50.4445 17.1077
127 2 26.0593 15.7654 9.2603
128 2 11.7436 37.783 52.503
129 2 41.7048 28.4765 32.8379
130 2 6.994 24.9463 14.9226
131 2 17.9618 13.43 33.6498
132 2 40.7352 53.2878 25.2582
133 2 47.4969 35.2091 31.8101
134 2 35.5209 35.939 11.2363
135 2 41.926 48.8456 13.6944
136 2 19.189 51.4264 36.1457
137 2 30.2303 42.9909 44.8139
138 2 6.71456 17.2297 50.3242
139 2 18.2261 15.0181 54.3485
140 2 26.4417 34.3496 45.1096
141 2 55.3842 31.0773 46.5765
142 2 37.9822 54.987 15.4259
143 2 9.57482 19.0373 16.3051
144 2 27.8972 12.5011 52.7504
145 2 50.8525 18.5926 41.3676
146 2 35.7384 7.68668 16.5286
147 2 44.4816 41.4586 49.9988
148 2 33.3303 22.3112 20.1681
149 2 41.8828 15.879 23.618
150 2 32.1017 36.8323 8.55812
151 2 26.0137 40.453 30.3102
152 2 29.2204 7.98572 46.9448
153 2 30.5536 44.1428 26.8332
154 2 48.9577 20.6897 8.31095
155 2 47.075 8.18426 37.6505
156 2 44.3583 45.219 29.7474
157 2 42.3964 53.6624 44.9094
158 2 9.01387 37.9662 43.1114
159 2 32.8099 7.41677 53.0707
160 2 39.0078 16.4704 28.0226
161 2 40.7082 32.9882 21.0487
162 2 53.1516 15.869 37.5454
163 2 54.7904 16.6725 55.8385
164 2 44.7378 52.4468 8.62411
165 2 41.9727 27.156 53.5843
166 2 37.5768 32.9578 24.2885
167 2 35.8395 45.8443 22.9988
168 2 19.1905 7.77349 17.3556
169 2 46.8134 35.2962 39.6428
170 2 25.3952 33.4449 39.9355
171 2 32.5523 55.0786 20.7902
172 2 28.1365 27.0397 17.8019
173 2 22.5163 23.6289 55.1868
174 2 27.3626 15.4027 19.9532
175 2 28.307 34.6251 36.7122
176 2 7.44739 21.5676 12.2051
177 2 10.4656 49.3674 21.6976
178 2 44.8879 40.8433 55.2215
179 2 30.5035 45.2599 9.43177
180 2 19.0484 48.5437 46.2358
181 2 20.8634 25.7798 8.29786
182 2 51.1821 34.0954 41.035
183 2 8.83988 42.2331 42.4789
184 2 18.9474 30.5969 38.7215
185 2 46.8858 24.4802 14.782
186 2 13.8777 16.3307 23.0767
187 2 43.9622 43.0216 52.537
188 2 10.9868 40.7654 9.87981
189 2 15.5783 45.5289 46.2428
190 2 43.8075 29.7563 20.5852
191 2 35.2642 51.9245 34.7968
192 2 48.253 10.5215 28.2884
193 2 15.9034 34.9362 7.04358
194 2 51.9477 8.05355 43.2926
195 2 14.9801 25.5905 47.4022
196 2 42.3783 12.0146 40.294
197 2 31.1916 12.1329 24.9897
198 2 51.8241 22.9455 36.4948
199 2 52.3056 33.3277 32.2366
200 2 18.1235 43.5446 46.6396
201 2 21.2022 39.0284 29.6733
202 2 38.0548 26.0827 53.4211
203 2 34.3141 36.7056 39.9623
204 2 48.3543 54.1504 39.9279
205 2 34.6063 12.9636 13.1313
206 2 55.694 20.0548 30.5519
207 2 19.7254 51.9892 9.98782
208 2 29.6074 51.8941 38.8885
209 2 16.5236 45.796 17.855
210 2 26.6566 19.1061 32.1657
211 2 7.71996 30.0384 18.3418
212 2 53.1769 47.7422 45.5142
213 2 23.2113 54.8957 11.175
214 2 23.322 20.3686 24.6019
215 2 21.6695 38.4001 33.075
216 2 10.5025 34.6967 30.8475
217 2 15.3808 17.0124 51.3839
218 2 35.2295 31.6575 29.953
219 2 15.9468 30.0095 36.1685
220 2 34.0074 29.3142 38.9623
221 2 33.4447 39.3884 38.2694
222 2 7.45668 13.609 28.9325
223 2 42.4389 13.186 25.7168
224 2 26.5836 39.5088 15.4616
225 2 33.1499 46.0727 7.4112
226 2 55.5756 6.64708 28.2969
227 2 11.7053 9.27368 34.5012
228 2 41.6521 52.699 6.5421
229 2 42.0612 19.5682 47.8221
230 2 40.7786 28.1851 39.59
231 2 8.59668 33.1386 26.1092
232 2 44.1396 41.4289 25.8372
233 2 8.59518 49.9697 27.8659
234 2 27.6146 54.2018 49.1004
235 2 13.3689 52.3743 53.6719
236 2 46.4642 55.5606 28.4765
237 2 33.9484 42.4704 46.7691
238 2 53.0296 51.0598 18.9798
239 2 32.4746 35.4383 11.3291
240 2 19.6281 11.7644 51.3752
241 2 40.593 48.7675 52.6058
242 2 41.7403 8.42226 25.4763
243 2 34.4349 16.465 12.7163
244 2 35.8431 41.1043 21.4739
245 2 6.57717 35.43 39.8311
246 2 29.6641 30.6583 46.6265
247 2 15.0385 24.1966 31.178
248 2 16.9648 38.3367 53.3851
249 2 9.32752 44.307 34.6479
250 2 16.6029 17.6255 12.7698
251 2 37.1927 27.5571 25.1581
252 2 18.9105 21.0373 48.2801
253 2 27.6537 47.2306 18.4604
254 2 26.0888 27.1377 48.101
255 2 43.5903 45.7307 26.5834
256 2 26.5144 32.7432 14.9699
257 2 30.9362 18.1916 49.0197
258 2 31.785 39.9821 47.0153
259 2 17.7668 37.7484 26.9804
260 2 48.8741 49.8415 10.5957
261 2 20.8958 45.3027 33.2829
262 2 11.7055 15.8692 13.2039
263 2 33.6207 46.1562 14.4585
264 2 19.1061 21.253 23.2345
265 2 44.2131 42.5702 17.3735
266 2 21.9648 18.4131 52.5212
267 2 18.3833 6.30531 10.3379
268 2 21.8662 43.5204 13.5777
269 2 37.8849 18.9423 27.4225
270 2 49.3104 11.1162 6.57503
271 2 28.3031 11.4749 6.43601
272 2 21.5778 27.7888 40.615
273 2 37.8986 48.3731 6.4845
274 2 49.3794 48.0886 35.128
275 2 14.7004 14.6474 55.5366
276 2 27.4117 35.7988 42.5065
277 2 10.5169 43.5735 37.9782
278 2 27.7169 35.163 26.3348
279 2 14.9977 53.3206 11.0702
280 2 47.0275 27.6748 33.529
281 2 44.3011 26.9698 31.9698
282 2 44.3595 28.8684 41.8904
283 2 48.2199 34.6542 19.9593
284 2 28.6514 11.746 49.4484
285 2 11.0491 6.15689 44.0828
286 2 36.9951 24.8305 32.9976
287 2 19.7893 31.5639 18.3159
288 2 18.8399 34.6628 22.57
289 2 38.5155 20.3808 8.00384
290 2 19.5544 32.405 15.1621
291 2 32.283 12.4893 38.7499
292 2 22.1594 10.1234 22.7968
293 2 38.9566 20.3096 33.0188
294 2 26.1072 36.5422 33.6248
295 2 48.4025 29.5587 10.9485
296 2 34.4034 11.5544 30.195
297 2 47.1717 8.24257 30.3145
298 2 19.2002 23.6636 32.8863
299 2 48.9879 53.2015 43.0809
300 2 6.50056 14.6691 8.12657
301 2 52.9187 54.421 15.4235
302 2 13.3412 10.5388 53.8323
303 2 39.8664 22.38 53.7328
304 2 47.6795 23.8685 46.6203
305 2 45.5605 11.1907 36.4844
306 2 13.2432 42.0737 55.8178
307 2 42.1991 24.3941 47.8153
308 2 35.6079 54.9282 47.6815
309 2 54.292 9.69288 44.8366
310 2 24.7263 19.6788 17.2172
311 2 30.2059 31.222 35.0562
312 2 9.82562 19.7306 39.6337
313 2 42.2375 51.2253 31.9191
314 2 10.0168 12.571 17.8777
315 2 20.0184 45.9488 36.3487
316 2 16.7134 8.69248 33.9738
317 2 10.1226 19.8654 32.6118
318 2 33.0111 12.9622 43.5447
319 2 23.9838 48.1707 47.9465
320 2 19.3528 32.0025 46.4864
321 2 13.2249 18.3752 21.0484
322 2 29.4665 34.2731 12.3622
323 2 13.8989 28.431 21.3326
324 2 11.3576 8.08087 38.3741
325 2 42.5697 50.5238 48.068
326 2 37.0297 54.0608 40.3445
327 2 51.635 9.21667 52.5459
328 2 36.4834 49.1713 36.1448
329 2 9.53228 15.7184 43.443
330 2 52.415 51.9599 34.9142
331 2 17.6189 21.9001 36.5237
332 2 12.4161 18.704 28.2026
333 2 34.1594 41.6645 51.3033
334 2 33.2271 25.7571 53.2165
335 2 13.4049 14.953 49.4115
336 2 45.4069 8.71157 47.012
337 2 39.8758 35.3005 11.7814
338 2 23.796 27.6196 18.6108
339 2 52.3734 26.6917 35.3225
340 2 24.3338 42.2071 47.1539
341 2 29.5125 16.962 12.8784
342 2 11.0477 8.04774 50.4555
343 2 11.6775 30.6661 29.1753
344 2 24.5578 10.5662 50.5545
345 2 31.6866 16.9509 24.6494
346 2 22.4222 14.0011 14.2528
347 2 25.654 36.6011 11.8313
348 2 10.805 45.1664 11.8761
349 2 40.2052 53.5252 16.7671
350 2 52.5961 19.2657 12.0745
351 2 18.3702 53.9338 17.7056
352 2 44.9615 9.80746 51.8582
353 2 44.7414 39.4623 23.6452
354 2 11.8898 22.1073 16.8237
355 2 37.3059 42.967 40.8949
356 2 9.59855 39.399 14.2263
357 2 44.1899 48.7742 10.1034
358 2 17.9228 32.1136 12.5572
359 2 31.4079 30.9953 55.4079
360 2 32.7973 42.5006 24.3646
361 2 10.5338 11.8946 7.48085
362 2 40.247 9.45818 23.1925
363 2 8.57653 19.6435 35.4232
364 2 37.1924 42.7162 35.402
365 2 37.7239 18.6447 48.4849
366 2 31.8323 52.2288 54.4671
367 2 15.5404 41.0463 22.4772
368 2 36.3456 38.2785 49.4844
369 2 40.3467 41.137 51.1554
370 2 24.5728 22.455 29.736
371 2 26.81 38.496 26.3523
372 2 26.272 7.0713 36.0861
373 2 37.2911 45.6454 45.8823
374 2 55.4553 41.0032 54.4687
375 2 44.9058 27.2831 22.3504
376 2 46.4389 15.1447 39.0232
377 2 29.9177 55.5433 24.2504
378 2 39.2593 45.4272 6.62439
379 2 36.3461 30.4424 50.5406
380 2 21.7681 45.7847 43.382
381 2 29.2226 54.0543 32.6541
382 2 33.4104 31.5118 17.1378
383 2 24.6818 15.6309 35.235
384 2 33.404 39.432 53.2692
385 2 26.5656 31.778 23.6481
386 2 9.44179 42.0847 7.41033
387 2 12.8689 38.6061 8.66213
388 2 27.8346 19.8014 34.7242
389 2 30.8724 35.1712 27.9004
390 2 30.3604 42.8844 13.8666
391 2 30.974 38.6382 33.9927
392 2 19.5028 35.9971 8.63458
393 2 54.6563 53.9043 35.885
394 2 37.3299 39.9173 25.2922
395 2 47.4034 11.2154 33.7928
396 2 54.8931 16.0456 27.1277
397 2 28.3666 13.8676 35.5149
398 2 46.0889 38.6814 8.17867
399 2 51.2051 33.2148 53.2492
400 2 33.3517 48.1348 35.8448
401 2 28.4842 22.5415 17.3592
402 2 14.9884 12.4479 8.12035
403 2 26.2183 38.4333 37.7485
404 2 40.831 8.91539 31.919
405 2 36.752 54.3565 23.3956
406 2 43.2855 36.0898 26.3218
407 2 49.0728 45.1923 42.6485
408 2 53.3704 9.28638 33.8733
409 2 15.2231 41.5456 32.9844
410 2 19.6906 19.1395 7.69574
411 2 36.1709 51.7993 48.2628
412 2 44.6246 27.6949 36.6831
413 2 23.8998 41.3595 42.5696
414 2 13.2734 31.9382 55.261
415 2 21.2511 21.1681 6.51311
416 2 13.0162 21.3825 22.8706
417 2 30.5895 15.9618 15.1941
418 2 32.6182 50.8467 26.5376
419 2 53.7897 23.5126 50.9907
420 2 34.2643 9.43219 18.9891
421 2 41.4691 42.3589 9.50324
422 2 53.8959 41.35 45.5621
423 2 9.69 15.1905 40.4974
424 2 13.0469 44.0783 41.8834
425 2 27.1376 29.5429 31.1584
426 2 37.0521 13.5551 20.6047
427 2 45.5685 8.70798 11.8188
428 2 28.7951 10.2048 11.1637
429 2 38.7198 8.43883 37.8856
430 2 12.1402 33.3846 9.87013
431 2 40.472 48.8113 33.5941
432 2 38.4334 26.7271 12.0041
433 2 37.7305 54.2066 20.725
434 2 26.2417 24.8132 25.7366
435 2 43.5276 21.9191 47.8974
436 2 24.0126 47.905 16.5585
437 2 37.1751 49.5345 47.2686
438 2 55.7977 36.585 8.05133
439 2 34.5553 26.9324 21.8653
440 2 22.9339 17.7866 21.6259
441 2 50.1529 21.5983 34.4455
442 2 7.56705 7.83257 36.0717
443 2 18.3421 16.9953 49.8728
444 2 44.8621 31.0324 17.8096
445 2 14.7096 46.6023 9.52008
446 2 22.4113 47.73 26.4778
447 2 42.1183 14.9647 41.756
448 2 32.2339 53.2607 38.6015
449 2 44.5468 18.9519 10.9754
450 2 38.6874 39.7083 48.1217
451 2 20.8511 35.8419 11.4539
452 2 10.0182 24.6605 53.0197
453 2 35.8216 17.0694 47.1426
454 2 54.5606 54.4019 19.2254
455 2 12.6348 47.3312 20.838
456 2 40.1832 21.1254 26.9652
457 2 37.8067 46.4272 35.5239
458 2 7.72272 19.4786 18.9478
459 2 16.5304 54.7287 26.5448
460 2 21.911 16.8519 8.81464
461 2 45.7602 19.8819 30.9668
462 2 37.6431 34.6922 42.7086
463 2 16.0588 16.8273 17.9563
464 2 45.7074 20.015 22.6942
465 2 19.0247 46.631 7.69176
466 2 48.0275 39.5518 30.9833
467 2 33.3984 15.0845 39.6684
468 2 55.2611 51.449 17.3674
469 2 16.7599 51.6416 17.6717
470 2 9.55666 48.1426 30.3205
471 2 54.1921 51.444 27.4692
472 2 52.2322 21.004 32.0101
473 2 13.9978 12.3135 51.4158
474 2 32.4768 21.8864 40.1269
475 2 53.0942 26.9419 17.2858
476 2 29.3705 22.4718 38.7524
477 2 48.9333 33.2109 37.9886
478 2 38.1879 32.015 41.3349
479 2 51.8053 53.34 44.4358
480 2 36.4339 11.7689 51.7276
481 2 35.1538 28.366 52.2873
482 2 44.8419 17.7995 38.7136
483 2 21.7502 21.7508 37.3437
484 2 11.2568 13.3149 25.2926
485 2 32.3546 8.53923 27.28
486 2 10.5954 35.4507 19.1931
487 2 45.48 51.6001 14.5582
488 2 23.4173 8.94925 43.2162
489 2 19.5203 30.4057 22.8297
490 2 51.0966 37.9893 32.6226
491 2 50.2331 28.7338 25.4362
492 2 50.1314 17.9571 7.78376
493 2 6.48581 24.2311 11.5945
494 2 16.015 55.2194 22.5482
495 2 27.7923 53.4 9.72879
496 2 11.6781 6.39513 41.0279
497 2 18.8861 20.7361 20.2509
498 2 33.4922 47.7751 29.5941
499 2 18.2049 44.628 10.531
500 2 22.5175 12.6839 52.3761
501 2 30.8165 24.7346 40.0223
502 2 46.8777 40.3525 48.8092
503 2 37.6389 49.7722 14.9307
504 2 40.9446 19.448 31.3469
505 2 37.1827 21.8587 25.6652
506 2 30.9421 10.2364 6.19835
507 2 36.3489 10.4661 37.8312
508 2 16.7356 35.2794 16.5684
509 2 29.3443 40.5361 15.437
510 2 7.67879 14.3243 11.6971
511 2 42.8107 39.15 46.6298
512 2 13.4357 55.6681 32.4697
513 2 50.5235 9.22532 13.3517
514 2 15.2013 19.6246 23.8112
515 2 50.6275 31.1286 45.0459
516 2 7.25749 22.0036 42.4553
517 2 46.1807 24.7564 37.2822
518 2 44.6138 32.6069 37.2237
519 2 49.6744 50.2826 47.5074
520 2 9.11185 19.9885 53.3731
521 2 26.8635 39.0625 12.4984
522 2 45.2096 47.0797 53.9787
523 2 40.3838 49.3102 29.6841
524 2 6.08606 54.0805 25.6928
525 2 11.7603 50.6806 32.3471
526 2 46.3995 15.7012 12.9394
527 2 13.4624 28.1046 25.2022
528 2 30.0506 27.5292 37.0488
529 2 54.0646 35.8283 45.3401
530 2 10.7151 39.7352 45.1874
531 2 31.4096 20.7405 24.6887
532 2 49.6968 13.3281 10.2761
533 2 40.4766 48.5904 18.0321
534 2 36.0773 35.3881 27.4155
535 2 22.8753 41.7712 29.3131
536 2 16.5819 24.0678 52.2532
537 2 26.7035 55.7212 51.282
538 2 37.698 47.6817 51.776
539 2 23.8379 51.6951 51.8043
540 2 6.98541 32.256 8.08994
541 2 19.7053 55.0665 44.3205
542 2 41.6598 35.1555 41.4971
543 2 51.123 35.4559 25.6858
544 2 44.5936 55.309 14.3
545 2 35.4154 45.4192 49.1425
546 2 42.621 26.1631 34.331
547 2 31.4025 30.499 37.2809
548 2 18.9312 25.1063 28.4188
549 2 17.6797 14.9388 25.8584
550 2 10.8391 53.247 30.9187
551 2 25.3496 54.8754 18.4723
552 2 6.79675 53.7242 52.6207
553 2 33.4414 38.0732 29.9166
554 2 28.0146 35.5562 9.94246
555 2 50.7086 34.2674 22.5578
556 2 41.3732 28.2196 23.7724
557 2 28.1939 45.7175 24.8654
558 2 23.5589 51.2598 19.8438
559 2 54.1215 34.1034 54.7517
560 2 40.5554 12.9553 10.2933
561 2 23.9499 42.3647 32.2663
562 2 28.4465 42.0874 23.6389
563 2 43.5594 22.3674 51.1725
564 2 46.0424 48.4075 14.0744
565 2 16.4891 26.2717 19.0352
566 2 11.214 14.5932 8.34576
567 2 33.5976 22.793 29.4623
568 2 52.9805 29.4097 29.7966
569 2 14.3789 54.0027 6.36036
570 2 7.67771 50.0658 24.8291
571 2 21.8404 41.0567 17.6694
572 2 17.7288 27.9337 12.5238
573 2 52.0779 41.131 54.9154
574 2 48.4611 28.5862 53.941
575 2 44.1348 45.6458 11.1929
576 2 43.337 29.5001 25.6653
577 2 45.626 40.5704 39.7723
578 2 32.8102 36.1721 47.673
579 2 37.8242 9.12684 54.933
580 2 33.216 33.0915 26.0803
581 2 34.8064 42.6897 17.6127
582 2 6.90866 27.4605 11.2371
583 2 28.1884 40.4074 50.0689
584 2 13.8443 7.0136 29.6991
585 2 8.94838 40.3584 17.4248
586 2 29.8534 16.0271 50.5848
587 2 16.3727 24.8418 9.01784
588 2 46.3179 26.2939 19.5138
589 2 51.2923 18.544 14.7053
590 2 54.8188 10.7279 25.7523
591 2 9.60334 32.5987 33.1342
592 2 19.4609 55.0082 33.6968
593 2 36.5418 24.6665 55.6297
594 2 47.9768 45.9106 8.67518
595 2 11.9527 46.0445 29.5575
596 2 55.4918 10.0115 41.6054
597 2 52.5328 31.7771 54.9976
598 2 49.2705 53.9345 24.562
599 2 51.6015 47.0052 52.8359
600 2 29.7372 34.1266 18.2876
601 2 55.561 23.783 44.5214
602 2 10.0665 50.3365 14.6725
603 2 44.7339 38.3067 42.3869
604 2 10.9321 44.3087 15.0155
605 2 23.0861 19.2989 38.3237
606 2 37.2097 20.0182 37.1959
607 2 52.0699 23.8286 47.0404
608 2 21.3992 9.42397 8.11401
609 2 9.45623 49.3742 43.9322
610 2 43.5776 43.9942 41.4376
611 2 14.9323 14.3847 27.8151
612 2 34.9759 39.6804 55.8241
613 2 31.7114 27.0319 49.5763
614 2 14.2341 51.0649 18.7279
615 2 33.1128 15.7593 46.912
616 2 24.7933 52.3548 9.4588
617 2 31.7109 8.28461 16.9706
618 2 27.3392 52.423 14.7526
619 2 43.3709 7.12412 40.6297
620 2 49.166 35.1649 55.1727
621 2 42.1798 45.7028 45.1984
622 2 9.15706 16.2144 48.521
623 2 41.9186 14.586 55.7665
624 2 46.2758 45.6561 42.3899
625 2 17.8678 24.896 40.8946
626 2 39.3512 28.74 42.5644
627 2 19.4807 46.9467 28.784
628 2 22.4853 50.8114 8.40722
629 2 32.8533 47.33 19.3715
630 2 35.2182 28.3791 36.419
631 2 17.1118 11.8433 44.7937
632 2 43.7372 17.8481 34.7453
633 2 23.9218 47.844 40.0077
634 2 15.184 31.5021 27.8356
635 2 43.8053 47.5712 15.6106
636 2 14.5874 28.3938 12.0575
637 2 49.6307 45.0657 24.3807
638 2 52.9458 29.1046 34.4856
639 2 30.9115 29.4373 32.1133
640 2 48.2579 6.1834 22.432
641 2 39.881 19.9069 17.8791
642 2 49.9393 28.2625 8.20265
643 2 8.54915 6.47328 33.0704
644 2 47.646 53.182 26.9012
645 2 52.0865 38.5063 24.4524
646 2 39.0265 13.6678 52.6026
647 2 35.0821 19.5673 19.8152
648 2 39.012 39.4365 16.0374
649 2 25.8514 8.9796 52.7099
650 2 11.1492 38.7414 33.6628
651 2 26.024 47.8195 50.1709
652 2 27.2574 47.2061 13.1387
653 2 10.0456 31.3663 20.265
654 2 16.0047 51.9435 47.4939
655 2 23.3259 43.1022 18.415
656 2 9.74579 40.5707 37.3748
657 2 8.60937 42.6093 45.7055
658 2 14.8484 28.577 43.1381
659 2 46.7115 40.1322 18.7677
660 2 25.6349 32.2737 34.1601
661 2 54.4369 22.9717 35.6557
662 2 34.7632 43.052 28.8408
663 2 21.2961 34.4763 35.4214
664 2 46.58 50.8761 32.6232
665 2 27.8002 16.18 39.1899
666 2 32.7192 54.9549 11.0147
667 2 51.509 48.3259 32.1425
668 2 19.3624 37.9844 19.9954
669 2 10.3566 25.1816 47.7925
670 2 6.87202 49.7147 45.6292
671 2 34.2784 43.5136 20.7944
672 2 28.3305 16.4329 31.5863
673 2 39.4046 24.7711 31.7083
674 2 21.0578 52.6393 21.4375
675 2 52.835 14.7956 54.9016
676 2 50.3123 22.6042 53.9248
677 2 55.1702 52.376 38.6085
678 2 13.6681 24.1262 44.5984
679 2 24.9142 24.426 39.4385
680 2 39.0745 30.6064 7.14074
681 2 22.9999 23.4886 22.2593
682 2 9.31741 49.4241 51.3006
683 2 37.4432 43.6663 21.8162
684 2 32.6787 20.5575 54.9588
685 2 43.6131 33.6363 18.4626
686 2 17.0557 44.2417 36.3997
687 2 54.8232 39.4973 41.2177
688 2 29.4555 26.6529 14.1161
689 2 12.1487 50.6188 8.23395
690 2 54.7417 15.4764 48.7294
691 2 39.5086 54.945 52.2929
692 2 39.8014 46.6221 28.6844
693 2 13.6252 28.5516 38.3171
694 2 20.0948 24.1284 22.9325
695 2 37.2394 34.9023 7.62932
696 2 50.1319 52.827 30.8038
697 2 15.3396 33.13 39.6844
698 2 10.2665 7.37786 17.2801
699 2 11.6313 10.9753 14.9017
700 2 14.0458 44.5029 49.6819
701 2 21.246 53.3544 18.5812
702 2 30.4484 24.4039 53.0294
703 2 13.361 8.97858 32.1242
704 2 40.8549 29.0106 16.6359
705 2 18.2315 46.8977 12.803
706 2 37.9678 51.3032 19.7625
707 2 26.6404 28.5933 35.1541
708 2 29.9828 42.1957 35.9977
709 2 39.9406 15.9856 9.52897
710 2 16.3838 38.5352 16.4345
711 2 32.6095 48.1544 39.5417
712 2 41.0022 30.4341 9.88399
713 2 47.8397 47.3767 21.9342
714 2 27.651 29.3397 27.9152
715 2 21.3198 30.9563 34.2891
716 2 47.5829 52.8711 10.6573
717 2 36.9898 24.0929 42.696
718 2 25.5231 41.3302 54.327
719 2 34.2655 7.08122 7.15322
720 2 51.8904 38.9114 45.9492
721 2 17.9299 8.34003 40.4691
722 2 25.0688 8.54126 24.8422
723 2 27.879 44.3731 18.2495
724 2 47.1649 19.5282 38.4791
725 2 24.2718 46.9539 30.8883
726 2 13.7621 51.7292 50.9156
727 2 32.7904 55.321 41.1965
728 2 10.0234 18.7786 13.2051
729 2 55.6181 46.675 33.5541
730 2 14.8648 31.4755 11.0846
731 2 43.2757 36.8549 39.4377
732 2 52.5128 50.0712 14.4118
733 2 46.5537 54.9964 37.8141
734 2 48.4422 37.462 39.4714
735 2 25.4716 23.0505 11.6849
736 2 22.3893 17.1483 55.5559
737 2 36.9657 42.2525 52.4046
738 2 21.9951 6.53073 23.7669
739 2 52.8186 44.411 7.77993
740 2 40.5422 52.1999 21.8072
741 2 36.5789 18.6454 11.7339
742 2 21.9437 32.613 46.2238
743 2 41.1025 16.53 47.819
744 2 40.9091 45.4098 42.5386
745 2 15.3429 9.83379 27.3985
746 2 29.2809 24.8735 29.4806
747 2 11.4423 18.5284 49.3076
748 2 26.0309 34.0393 51.3295
749 2 22.096 29.0462 48.2745
750 2 45.2033 42.8788 43.7984
751 2 27.0336 53.4429 45.7271
752 2 26.3415 55.4248 32.4067
753 2 12.5156 8.6438 13.5825
754 2 51.4788 54.7428 35.6385
755 2 28.1585 16.9141 34.3744
756 2 15.1503 51.3916 24.9053
757 2 24.6427 53.6998 43.1596
758 2 40.3838 29.6239 47.5955
759 2 18.9406 43.0099 14.5349
760 2 50.063 24.3357 43.9125
761 2 45.0368 44.049 55.4235
762 2 35.3059 48.5825 31.6061
763 2 30.5464 18.3224 35.9864
764 2 22.0939 20.7726 11.4348
765 2 19.3885 39.7167 16.4647
766 2 29.4863 34.8663 23.7801
767 2 6.95129 45.7251 17.8822
768 2 39.6749 42.3527 33.8329
769 2 6.89573 53.8997 21.7228
770 2 26.8875 27.1647 7.30005
771 2 25.0518 32.7669 31.0034
772 2 54.4219 54.6441 30.872
773 2 33.4339 17.6423 50.7657
774 2 29.7908 30.6163 49.704
775 2 17.9981 28.1888 49.7877
776 2 34.3247 10.2315 42.078
777 2 39.3282 20.9993 14.6714
778 2 23.7002 30.1269 7.28091
779 2 18.2637 22.198 40.1737
780 2 12.6727 48.688 44.572
781 2 17.9927 41.6294 34.441
782 2 41.4809 46.5688 31.2785
783 2 14.2535 39.7726 51.9086
784 2 22.1928 46.7798 22.3671
785 2 20.6493 14.9002 11.2524
786 2 40.2483 51.5241 41.2736
787 2 23.1159 20.2282 15.1317
788 2 30.4468 28.3078 21.2407
789 2 45.6776 29.5881 51.3522
790 2 11.5119 8.75683 42.7219
791 2 14.0624 21.596 31.3904
792 2 15.628 17.0636 43.1193
793 2 16.8033 21.251 52.8868
794 2 7.90818 15.9829 16.5715
795 2 21.4749 19.7813 47.9454
796 2 17.3517 53.4601 29.2944
797 2 14.0627 48.6723 32.5351
798 2 32.0424 17.7458 10.9317
799 2 7.9274 13.2516 43.2993
800 2 48.7059 8.60189 34.6379
801 2 21.6391 6.90423 40.3843
802 2 11.8404 6.24768 35.0852
803 2 52.9722 41.7943 23.2512
804 2 27.7951 29.2862 10.8557
805 2 33.0402 55.1369 30.3277
806 2 45.4775 15.2027 34.4097
807 2 17.6395 11.8955 31.1097
808 2 21.7767 52.626 34.1172
809 2 49.6387 27.2545 43.362
810 2 48.9536 40.8303 42.666
811 2 51.6301 32.0316 11.9216
812 2 25.116 27.8049 30.2976
813 2 47.3705 46.348 29.8849
814 2 47.297 37.5349 23.3054
815 2 50.1696 21.3862 21.7593
816 2 10.5568 15.1247 55.2321
817 2 42.7446 46.3742 51.8395
818 2 30.544 38.987 17.4689
819 2 25.3063 42.502 25.3973
820 2 44.5196 15.6188 21.7549
821 2 11.6654 36.6646 15.1391
822 2 33.7736 51.9858 52.2007
823 2 49.9639 21.7774 27.1323
824 2 13.348 34.8387 25.6995
825 2 24.2853 37.1037 48.6814
826 2 23.2509 10.4213 27.0916
827 2 42.8116 21.428 32.5496
828 2 8.44411 41.8825 54.2304
829 2 32.0312 35.7975 22.1322
830 2 35.7226 15.0116 14.6351
831 2 29.1082 42.077 32.7523
832 2 9.52728 27.4281 50.1661
833 2 48.8808 11.7925 38.9697
834 2 25.1751 14.6295 52.5927
835 2 31.1816 21.0282 16.2029
836 2 7.83666 43.6186 40.0344
837 2 22.4967 35.0207 44.6365
838 2 37.707 41.5592 17.3147
839 2 41.1388 24.5948 45.4367
840 2 19.5662 23.8698 38.1789
841 2 54.9063 8.74881 51.9883
842 2 32.2668 9.58288 50.6701
843 2 31.3555 50.6573 9.14121
844 2 28.2124 38.3706 30.457
845 2 44.7652 18.1202 49.4918
846 2 51.0201 35.3255 12.1444
847 2 25.8445 25.2234 28.6247
848 2 51.1668 26.5432 53.2411
849 2 44.3218 11.419 13.816
850 2 38.2689 10.5494 32.8325
851 2 18.7589 55.4485 30.4437
852 2 42.73 38.7644 12.4687
853 2 20.5093 25.9717 49.4876
854 2 39.3665 20.4149 40.1739
855 2 11.5986 22.3007 34.5717
856 2 38.7371 8.26362 46.1456
857 2 40.0311 50.9586 12.887
858 2 52.8321 19.3056 6.15691
859 2 39.8217 16.4924 44.996
860 2 7.97304 17.6285 45.7201
861 2 22.794 29.9995 20.6981
862 2 42.2307 42.4571 29.4324
863 2 43.6494 43.5263 36.3909
864 2 6.14471 18.7323 9.78584
865 2 45.8508 8.59246 16.2305
866 2 40.8013 35.5748 48.9756
867 2 38.7511 11.7387 24.2444
868 2 14.1961 17.3587 25.9779
869 2 12.1175 10.7908 29.218
870 2 45.5996 46.9926 7.40342
871 2 35.2887 36.9738 45.7323
872 2 23.0551 14.2692 36.8354
873 2 48.579 51.414 49.8819
874 2 29.6116 54.8496 44.918
875 2 11.7307 17.2664 16.8713
876 2 23.0561 7.59364 49.708
877 2 7.04713 26.1949 28.6134
878 2 7.03658 39.4245 7.27785
879 2 48.9486 31.9671 42.6318
880 2 47.1122 8.0982 40.3908
881 2 39.0951 14.9262 55.4319
882 2 54.4567 14.5324 10.6925
883 2 36.7712 29.6146 11.5686
884 2 8.88022 26.9426 54.8738
885 2 50.4304 28.1074 46.1598
886 2 46.0559 44.3698 46.5435
887 2 25.8081 29.0829 20.6741
888 2 21.0649 55.4781 14.8059
889 2 19.4618 11.8411 22.978
890 2 23.9926 34.6051 33.1734
891 2 27.1713 37.9077 40.4059
892 2 25.6561 23.4342 47.0792
893 2 23.0687 15.7345 51.0876
894 2 27.3307 7.70974 28.614
895 2 16.9302 19.2055 40.8909
896 2 14.1591 13.572 34.9679
897 2 54.4985 11.5704 19.4088
898 2 42.1459 20.9855 11.1494
899 2 32.8087 20.2969 47.8574
900 2 26.2455 30.2994 46.9794
901 2 32.7783 26.6487 41.0673
902 2 36.105 39.2824 44.5394
903 2 23.0608 27.7519 11.8707
904 2 55.575 10.1487 31.8526
905 2 31.6691 8.08847 32.2667
906 2 49.2945 39.9522 55.0692
907 2 51.5903 25.0596 39.7583
908 2 20.5267 48.6566 12.726
909 2 33.2292 47.3959 22.4694
910 2 11.5786 42.4485 49.8154
911 2 9.92239 7.05381 12.8009
912 2 34.4822 37.4965 34.2665
913 2 55.8189 8.95174 38.7723
914 2 12.6104 12.3363 21.3765
915 2 42.7563 26.7324 12.3647
916 2 44.5884 53.2386 48.8214
917 2 15.1421 44.2117 22.0508
918 2 39.1124 41.8075 6.6936
919 2 48.0585 12.3235 50.3228
920 2 26.2468 39.2602 43.861
921 2 55.2564 21.3957 38.1462
922 2 37.5178 34.516 48.204
923 2 23.0348 35.3335 26.3904
924 2 22.1195 43.9877 7.63176
925 2 34.0095 53.9773 55.7584
926 2 20.8808 27.3993 19.9098
927 2 7.22581 30.9421 38.3827
928 2 9.11976 22.767 36.2564
929 2 55.1862 43.5846 28.1727
930 2 55.7568 31.6432 22.1038
931 2 54.1884 23.6973 32.7585
932 2 45.9731 34.6315 11.8466
933 2 16.7442 13.9379 51.778
934 2 55.3842 38.5575 48.1489
935 2 55.398 52.1702 43.0315
936 2 40.0085 17.2006 40.881
937 2 54.6763 38.2913 11.3838
938 2 42.2524 41.7758 13.5271
939 2 34.2015 33.6408 33.8641
940 2 50.3029 46.4799 48.8208
941 2 50.9495 35.3429 47.764
942 2 32.4549 16.0157 17.707
943 2 53.6492 6.29889 6.85903
944 2 29.336 44.0543 47.1743
945 2 8.99338 53.1949 19.3873
946 2 15.251 48.0582 36.6118
947 2 11.3051 25.2591 37.9463
948 2 6.46379 18.938 39.7208
949 2 49.286 39.8926 38.0604
950 2 27.0846 9.00733 40.6719
951 2 7.10163 18.8573 23.9101
952 2 13.6967 53.1725 31.0132
953 2 38.5553 18.2829 20.1876
954 2 51.9774 13.2593 28.6044
955 2 36.437 28.4048 44.4439
956 2 24.4223 39.2962 32.6711
957 2 10.3247 20.0908 43.1965
958 2 12.7749 16.9701 40.4447
959 2 53.437 15.6993 13.6318
960 2 12.6611 10.0198 48.3759
961 2 25.791 55.1952 38.9096
962 2 13.8212 55.7805 48.0241
963 2 53.9445 22.7655 53.9808
964 2 9.2711 15.7626 37.8472
965 2 8.15469 51.9951 38.6377
966 2 39.6924 49.2922 39.6164
967 2 14.0971 46.0887 39.4645
968 2 16.5029 55.6538 33.6507
969 2 48.5247 8.51753 15.2218
970 2 12.9261 41.9274 15.2948
971 2 31.6418 45.8568 33.5845
972 2 18.0616 52.1304 7.76643
973 2 28.1423 50.4118 6.52843
974 2 9.37636 36.1475 22.3203
975 2 42.6188 11.477 33.2018
976 2 49.1188 42.871 38.8546
977 2 48.8822 43.3208 16.3384
978 2 55.0535 6.18534 54.2539
979 2 49.8276 7.25429 25.4505
980 2 51.5145 31.2291 24.7074
981 2 21.9368 47.8669 53.6614
982 2 44.7768 47.358 22.7832
983 2 30.05 27.4356 28.2528
984 2 45.6957 36.9066 37.6332
985 2 55.3277 46.5926 50.7642
986 2 17.9693 37.9895 30.6568
987 2 41.227 39.79 42.2121
988 2 42.5368 31.0358 50.8731
989 2 12.5141 30.9784 34.0021
990 2 49.1125 52.6274 53.29
991 2 20.9577 37.2017 23.1333
992 2 13.9691 26.3766 50.8315
993 2 22.2756 44.1859 45.5885
994 2 20.0242 36.6419 45.4069
995 2 37.4203 49.8938 30.3954
996 2 35.5383 43.8096 13.3183
997 2 8.27762 33.9086 20.7148
998 2 14.2801 44.247 29.6967
999 2 12.7325 28.7282 51.5872
1000 2 25.6921 31.5728 26.5614
1001 2 25.5174 17.5271 38.2057
1002 2 17.8359 14.3621 16.5604
1003 2 8.07316 10.567 50.8653
1004 2 39.5129 23.0667 29.451