ITEM: TIMESTEP
0
ITEM: NUMBER OF ATOMS
9088
ITEM: BOX BOUNDS xy xz yz pp pp pp
6.0352107377981241e+00 5.5895727054316126e+01 -5.7205701920501893e-15
6.0352107377981294e+00 5.5895727054316126e+01 0.0000000000000000e+00
6.0352107377981294e+00 5.5895727054316126e+01 0.0000000000000000e+00
ITEM: ATOMS id type x y z
1 2 49.2455 12.8134 39.2185
2 2 21.5776 49.5502 7.14689
3 2 52.2847 13.9936 48.49
4 2 18.5644 51.963 48.2472
5 2 18.8357 39.1909 47.6546
6 2 41.8047 40.8467 21.2195
7 2 31.7594 9.44381 40.7054
8 2 41.7494 19.9476 40.0756
9 2 25.5843 36.2305 49.1682
10 2 20.9737 24.2988 55.6149
11 2 37.0848 19.7668 45.566
12 2 14.4663 32.9118 30.4639
13 2 31.4371 53.4138 27.3375
14 2 12.5996 37.9298 6.68951
15 2 8.09151 14.6984 12.2934
16 2 8.50352 27.9248 31.0872
17 2 26.9544 46.6623 34.7232
18 2 6.25568 30.6567 8.19766
19 2 26.5182 44.0396 53.8946
20 2 32.5896 54.3258 40.5192
21 2 37.1507 33.1956 16.715
22 2 43.5114 33.5575 38.012
23 2 35.3194 33.5748 37.1415
24 2 24.3724 46.1742 47.9903
25 2 43.6329 53.3258 16.9298
26 2 53.1906 17.1646 24.9791
27 2 54.3203 7.89942 8.11269
28 2 19.8485 52.9211 12.9924
29 2 29.8157 37.9141 25.9415
30 2 27.456 23.4805 33.9408
31 2 37.7945 10.4643 15.8393
32 2 31.1512 50.214 39.0748
33 2 23.2825 27.5733 40.187
34 2 55.7913 27.8119 33.8277
35 2 42.6712 50.3772 16.0891
36 2 53.3592 17.9413 12.4828
37 2 46.1322 8.89936 42.4215
38 2 38.0912 22.3869 18.217
39 2 35.1 19.1085 41.8583
40 2 41.7953 40.3665 27.2358
41 2 9.67335 7.37001 31.8646
42 2 28.2501 13.6466 29.601
43 2 36.7549 46.9466 41.7069
44 2 39.2271 51.4917 8.92491
45 2 37.2449 36.244 11.2674
46 2 52.4884 12.3653 39.5352
47 2 19.1435 12.6565 31.1825
48 2 37.5338 39.6214 22.0559
49 2 49.5253 6.27424 52.3896
50 2 6.74296 24.8549 13.3635
51 2 38.4026 32.1211 44.9639
52 2 39.559 48.5564 12.845
53 2 33.9485 46.4346 18.379
54 2 6.21675 17.5146 13.8471
55 2 26.9513 46.1567 42.6592
56 2 8.75172 8.45658 6.7033
57 2 11.3298 40.0497 48.3985
58 2 8.28857 54.2673 54.1941
59 2 21.6171 54.5684 31.3938
60 2 18.5096 34.8681 17.2391
61 2 8.44487 42.9372 35.4975
62 2 47.3566 47.9181 42.3771
63 2 17.9399 50.1032 14.425
64 2 30.4862 45.6372 38.7937
65 2 54.1154 34.9704 51.2132
66 2 45.7791 26.2483 25.0263
67 2 25.9334 15.2549 13.8571
68 2 14.2937 32.4976 51.5782
69 2 38.4642 48.8961 19.7361
70 2 26.1667 47.9077 45.3545
71 2 38.3824 35.2262 21.5686
72 2 41.9925 42.0968 49.4015
73 2 53.2553 53.1788 9.92511
74 2 39.9034 13.5944 11.0108
75 2 19.3073 8.6193 24.9969
76 2 25.1879 6.7283 13.6958
77 2 41.6238 27.1686 15.7584
78 2 49.5374 24.5431 40.3284
79 2 49.3936 9.36964 20.4746
80 2 44.7713 47.9928 50.1605
81 2 12.7912 38.7017 24.0351
82 2 33.6992 23.0193 36.8699
83 2 23.1295 42.3595 15.6923
84 2 14.2523 39.5495 48.8359
85 2 40.329 40.9907 46.5691
86 2 49.0748 44.5392 15.2916
87 2 42.2912 38.6852 50.4053
88 2 24.3181 33.1376 15.3159
89 2 10.8834 19.6388 31.8854
90 2 44.9412 26.2187 10.1338
91 2 55.1872 14.1746 47.8486
92 2 31.8107 22.0066 25.7651
93 2 15.0787 51.5972 15.2114
94 2 13.5585 8.21326 8.23985
95 2 47.7144 28.6313 53.3966
96 2 24.3561 10.5787 15.5969
97 2 50.5324 51.1407 53.8421
98 2 33.5026 33.6516 50.3327
99 2 46.5623 17.8291 14.5506
100 2 19.845 28.5172 23.0871
101 2 28.8554 40.9496 9.9523
102 2 9.18445 18.453 16.6472
103 2 13.8533 43.8735 49.552
104 2 34.8326 13.1359 32.8456
105 2 28.9281 21.9598 14.2281
106 2 6.47134 50.5727 20.3567
107 2 54.8972 20.0092 12.794
108 2 49.9356 10.3862 50.3604
109 2 25.6831 27.7585 46.64
110 2 29.7528 30.4138 11.5694
111 2 27.3023 34.8153 55.7326
112 2 36.6956 38.6306 53.2214
113 2 50.639 10.694 43.6392
114 2 46.8022 17.6301 21.4026
115 2 55.2773 13.4991 12.5561
116 2 51.4256 16.2512 53.2235
117 2 40.4124 34.1103 42.1707
118 2 35.3017 9.40601 15.1482
119 2 17.9752 20.1673 50.378
120 2 42.4006 39.8235 13.8692
121 2 33.4635 44.6595 34.4692
122 2 38.5532 17.9974 9.63662
123 2 49.0803 13.5184 14.4569
124 2 43.5423 47.471 7.13591
125 2 40.386 34.3119 7.97408
126 2 52.1693 20.724 53.1072
127 2 23.6567 21.9359 36.3315
128 2 10.8717 53.0259 34.1221
129 2 34.558 44.5027 15.6666
130 2 46.5179 39.0257 48.5795
131 2 23.4632 28.3641 23.166
132 2 45.3298 19.0982 8.17042
133 2 38.8366 47.3957 27.0738
134 2 33.1358 6.30847 27.3676
135 2 44.2601 17.0388 47.142
136 2 6.23591 20.8354 17.1701
137 2 28.9624 48.8305 30.6908
138 2 49.881 36.2778 35.9442
139 2 19.7933 34.6435 20.1609
140 2 13.758 46.8684 15.9368
141 2 54.0943 42.7825 24.1655
142 2 32.0169 22.2234 42.1153
143 2 10.68 38.8486 40.911
144 2 15.597 38.0879 24.6845
145 2 44.1592 30.4297 14.1659
146 2 32.256 25.3453 41.8535
147 2 47.8118 10.3659 22.9898
148 2 34.4311 29.6865 47.6084
149 2 34.513 19.1817 8.10984
150 2 31.8634 6.8559 33.9751
151 2 23.6427 7.65208 9.08261
152 2 21.6559 24.8265 30.0233
153 2 32.249 8.01952 9.65853
154 2 6.56303 36.8277 34.7125
155 2 54.4309 31.5141 16.6824
156 2 41.3843 13.5426 13.943
157 2 32.7467 29.5172 17.4804
158 2 51.9501 49.6409 24.7753
159 2 32.2696 25.9867 36.3001
160 2 41.1051 32.211 53.6615
161 2 37.042 45.4175 50.988
162 2 44.907 30.7589 7.74195
163 2 43.4694 41.7128 29.218
164 2 52.9917 33.3569 38.688
165 2 12.6606 55.361 14.7185
166 2 38.5861 48.5666 55.3022
167 2 34.8827 10.659 50.3002
168 2 23.8174 22.711 46.1428
169 2 11.5151 51.009 25.8152
170 2 13.2009 13.1117 14.5153
171 2 34.396 29.1692 39.5269
172 2 34.7463 43.368 44.4479
173 2 7.38284 48.0853 27.5839
174 2 22.9301 32.2199 47.5484
175 2 21.6293 40.1748 13.4721
176 2 6.46745 31.3903 41.2344
177 2 8.85054 12.2784 52.9832
178 2 30.0043 6.4803 23.0889
179 2 22.4701 26.055 34.2934
180 2 15.8012 20.8755 21.0742
181 2 22.8222 42.9209 38.3951
182 2 50.8832 54.5672 20.3319
183 2 11.5916 54.7711 22.9775
184 2 17.465 43.3511 24.6327
185 2 45.0027 37.4226 53.6508
186 2 10.2452 30.5118 53.6049
187 2 50.8334 20.4596 34.6937
188 2 13.4279 47.2327 28.9273
189 2 10.8381 15.5466 28.2115
190 2 40.2587 36.0006 46.8652
191 2 40.4655 27.3467 12.8967
192 2 40.3711 23.7024 9.36096
193 2 12.2114 51.1557 40.0608
194 2 50.2667 27.1584 20.9504
195 2 17.3932 48.4776 29.9771
196 2 36.5553 33.2233 10.602
197 2 23.5424 29.0797 48.3877
198 2 51.6696 41.8931 51.1821
199 2 39.5248 53.5439 11.1969
200 2 17.8464 6.15037 33.7149
201 2 22.5105 46.1747 10.3743
202 2 27.6616 45.0571 28.8134
203 2 40.3444 45.6811 22.5849
204 2 7.25319 16.0955 20.9191
205 2 31.9886 30.6026 45.5512
206 2 10.1894 29.7722 8.09138
207 2 26.3484 11.7853 34.1988
208 2 25.4117 21.6252 7.05516
209 2 21.9977 53.0081 43.8074
210 2 21.57 36.8597 6.09772
211 2 11.1729 43.0502 52.4624
212 2 6.35474 14.7029 28.5068
213 2 23.9567 17.2264 35.2891
214 2 23.4555 39.2488 45.3954
215 2 15.6929 52.9182 12.2255
216 2 9.48511 50.0202 7.27292
217 2 12.6966 33.627 33.0888
218 2 33.2674 15.4954 17.3739
219 2 8.64032 38.2572 22.5663
220 2 36.2168 47.8791 9.74007
221 2 31.4439 8.2115 17.8034
222 2 46.6467 34.6587 7.13545
223 2 48.5724 31.5 53.4433
224 2 30.248 8.27808 52.735
225 2 37.3693 15.6383 29.8192
226 2 48.6602 26.4528 9.86611
227 2 12.9063 31.1099 8.43426
228 2 39.992 19.2197 36.2432
229 2 39.368 25.2142 25.0881
230 2 35.2723 53.8281 10.2359
231 2 19.6149 53.4311 55.8921
232 2 39.2759 47.8422 8.33827
233 2 54.6895 14.8318 55.2315
234 2 25.0665 13.2428 32.3895
235 2 10.5225 17.7341 34.4807
236 2 33.5409 20.7231 12.2401
237 2 39.1688 8.73688 25.9764
238 2 49.4024 9.49716 53.4557
239 2 36.4643 51.3441 40.5882
240 2 19.4664 22.7944 23.1595
241 2 38.7739 15.8403 22.5412
242 2 38.2631 19.9031 7.19273
243 2 37.0406 36.3449 40.4971
244 2 33.8862 54.6459 50.9688
245 2 55.7445 54.9318 16.352
246 2 27.0922 45.3339 24.7241
247 2 17.8735 26.0119 16.5144
248 2 12.913 51.0772 30.934
249 2 10.1005 9.59335 17.9262
250 2 7.82112 32.7892 38.9924
251 2 44.5779 36.9254 11.1451
252 2 14.7376 36.0166 19.7009
253 2 22.9167 19.8715 50.5968
254 2 20.5099 47.2792 24.3819
255 2 41.584 17.0394 50.6818
256 2 20.7481 42.9879 47.5327
257 2 21.4735 29.174 25.768
258 2 25.8085 10.8259 29.5005
259 2 14.4657 42.4321 13.9179
260 2 48.5318 11.4027 45.955
261 2 18.5673 54.7683 49.1942
262 2 16.4086 40.8394 43.3932
263 2 32.4408 20.6885 45.7618
264 2 15.6889 34.9292 50.2469
265 2 37.0279 14.5977 39.7311
266 2 22.9554 32.5823 41.2007
267 2 14.2998 27.1189 43.8163
268 2 25.4005 16.0285 43.7373
269 2 37.9619 34.7448 51.8645
270 2 46.2474 28.0656 41.5033
271 2 16.8693 18.3136 37.7832
272 2 29.7963 40.2221 17.4991
273 2 41.616 16.7872 39.661
274 2 53.9365 20.657 18.8477
275 2 11.6277 35.8309 28.9724
276 2 17.8325 54.6827 27.2202
277 2 11.4122 14.3744 9.44352
278 2 33.4193 40.0682 48.3577
279 2 11.8874 13.4157 38.9412
280 2 49.2559 41.8053 14.3053
281 2 45.4457 48.4121 19.8751
282 2 32.187 48.7609 22.0124
283 2 45.4739 51.2352 54.4476
284 2 28.5131 27.253 20.1202
285 2 52.0017 21.8417 23.3406
286 2 37.9804 51.781 20.2234
287 2 23.9884 46.6093 53.8077
288 2 23.9132 52.7671 53.814
289 2 34.514 32.6913 30.0815
290 2 25.3664 51.6477 43.6081
291 2 24.0867 23.6754 8.61143
292 2 14.3392 34.7726 9.42655
293 2 41.0073 43.723 12.5782
294 2 16.2967 6.30733 20.4971
295 2 45.7819 44.6411 42.3026
296 2 29.5422 39.682 51.8449
297 2 51.6237 20.4106 46.4687
298 2 18.5133 41.1355 53.5359
299 2 47.9522 48.7742 24.089
300 2 9.7819 31.7284 41.1355
301 2 54.0245 20.0036 42.3931
302 2 15.7338 27.5227 26.0869
303 2 39.2628 36.4482 32.0513
304 2 45.709 31.086 33.9959
305 2 46.1053 24.4326 13.909
306 2 7.76028 50.0714 35.5752
307 2 34.8241 8.42354 29.2818
308 2 36.2941 17.4998 27.7649
309 2 46.2281 31.1753 23.8527
310 2 20.2255 32.1091 46.5199
311 2 33.4481 38.8927 19.5815
312 2 28.9989 35.9683 16.4287
313 2 38.1133 13.4541 50.1071
314 2 16.4076 24.6663 46.8057
315 2 11.9554 8.30351 26.1354
316 2 16.8157 15.6852 10.8638
317 2 53.1817 27.8251 14.3683
318 2 27.3143 29.6899 18.0149
319 2 12.9839 55.6211 34.0377
320 2 23.7889 45.1648 16.2185
321 2 13.7859 35.2021 46.0552
322 2 16.7585 8.75865 29.4319
323 2 16.766 47.9421 50.5795
324 2 11.3105 16.7753 23.137
325 2 39.9642 17.3227 24.8426
326 2 39.5738 29.4294 15.6803
327 2 45.7527 26.5863 28.0584
328 2 28.2887 20.9348 17.2957
329 2 8.14893 26.3286 21.2349
330 2 52.9858 19.9065 10.4576
331 2 15.5473 30.5169 16.4175
332 2 51.9653 37.9217 54.742
333 2 26.3013 6.9835 20.293
334 2 29.9802 34.5142 20.826
335 2 10.9791 30.9461 26.7667
336 2 39.4045 20.3302 24.8654
337 2 36.6667 13.5799 45.3616
338 2 19.0971 51.9863 44.2361
339 2 55.4321 41.955 17.3026
340 2 27.3878 6.78226 28.4176
341 2 29.1792 32.2609 33.6004
342 2 12.8059 21.8573 30.01
343 2 19.7498 45.3571 10.2751
344 2 29.1135 24.6535 16.2723
345 2 44.5748 22.1535 15.7577
346 2 24.9599 35.7718 43.3504
347 2 9.17435 54.5862 45.3782
348 2 6.4127 19.4084 31.4391
349 2 39.5715 14.9711 44.4504
350 2 51.7773 38.6025 42.9042
351 2 17.7421 13.2886 45.8247
352 2 47.5153 15.2513 35.46
353 2 38.2148 9.41202 48.3819
354 2 12.9535 45.3112 44.6169
355 2 31.7446 52.709 20.6438
356 2 54.0532 49.1923 38.8558
357 2 48.9331 15.0274 41.7576
358 2 18.5582 55.8099 41.8626
359 2 45.2908 49.13 38.9208
360 2 30.0741 12.831 54.4112
361 2 51.0009 29.606 28.5897
362 2 37.2592 28.1438 50.6443
363 2 51.6727 35.9232 16.7472
364 2 36.573 53.9275 14.889
365 2 35.5115 26.8355 26.1007
366 2 30.9974 25.99 31.0229
367 2 15.117 50.9843 54.1108
368 2 32.6133 49.6 32.2108
369 2 44.1717 8.57243 21.4166
370 2 32.5004 39.3003 55.6507
371 2 29.9152 55.0918 6.30856
372 2 27.7989 23.2937 10.5188
373 2 40.2949 11.2811 18.0836
374 2 52.1543 53.7525 27.6556
375 2 45.681 41.058 44.9877
376 2 51.4009 25.1763 23.3018
377 2 33.6393 21.442 48.0835
378 2 42.9685 9.56731 42.4128
379 2 30.3511 46.526 28.4783
380 2 15.563 6.19651 23.4492
381 2 25.683 20.9673 49.8376
382 2 26.5557 46.6125 52.3921
383 2 18.3717 28.1574 11.5848
384 2 29.5025 53.1264 32.5289
385 2 21.2673 46.5554 47.9893
386 2 13.8862 10.8861 37.5174
387 2 16.1731 10.1555 34.9895
388 2 21.0155 36.9171 16.0696
389 2 27.3663 54.6985 13.0195
390 2 30.693 7.78652 38.2784
391 2 36.6482 7.97357 54.2551
392 2 22.3255 49.9189 37.383
393 2 11.9542 25.4986 14.2583
394 2 37.5789 51.1891 55.8406
395 2 51.8742 29.3633 9.58647
396 2 52.0117 25.4215 6.82317
397 2 35.6614 23.0272 55.7942
398 2 42.2582 14.6138 36.1118
399 2 50.125 7.45123 34.2312
400 2 41.6611 8.09853 23.249
401 2 33.6838 45.0644 46.8538
402 2 16.9473 23.0801 49.0922
403 2 25.0135 38.5224 18.4523
404 2 30.7568 24.8825 10.4658
405 2 36.3775 22.9618 47.9568
406 2 46.5107 48.4275 47.4898
407 2 41.1653 16.9339 28.4068
408 2 51.3051 20.1336 41.1797
409 2 13.2644 51.2974 12.9188
410 2 23.8201 34.4904 39.2174
411 2 35.8688 11.4096 23.4476
412 2 49.341 41.7759 11.4277
413 2 22.828 54.306 20.7486
414 2 6.33806 47.4998 42.2193
415 2 25.6029 40.2776 27.7529
416 2 54.4627 40.0841 50.887
417 2 32.0148 42.07 33.3425
418 2 23.6525 19.0742 53.4072
419 2 47.9325 41.0746 32.4837
420 2 33.9814 26.197 50.2965
421 2 48.3517 19.1768 40.517
422 2 49.548 49.2507 31.0774
423 2 8.09746 25.2963 16.4849
424 2 13.1585 52.9023 18.3608
425 2 20.517 34.0208 8.57424
426 2 44.9584 32.8622 47.8743
427 2 41.6857 18.5144 46.4173
428 2 32.098 26.1706 44.6058
429 2 40.9527 24.2931 15.7203
430 2 7.37739 47.0465 36.8737
431 2 38.0007 13.0578 8.96784
432 2 40.9093 46.4317 44.568
433 2 38.3983 24.4421 46.6119
434 2 29.32 36.8998 7.17686
435 2 51.2586 37.304 29.1981
436 2 24.1561 14.3061 47.7732
437 2 36.6102 8.79135 25.6058
438 2 51.8214 47.4338 37.2291
439 2 31.2253 35.8342 50.6822
440 2 15.3974 30.104 49.873
441 2 48.8787 35.5929 18.8849
442 2 9.32013 13.9304 17.7896
443 2 21.2441 32.4589 32.0145
444 2 48.0591 54.3889 43.729
445 2 18.3095 51.7063 40.294
446 2 20.5522 10.5235 52.5001
447 2 34.9833 31.2408 32.9203
448 2 35.7876 16.5952 9.57484
449 2 50.8541 40.0202 37.8637
450 2 25.5016 11.6354 19.8797
451 2 15.6748 6.81675 46.4229
452 2 12.0331 34.7665 38.1996
453 2 15.696 17.829 28.7208
454 2 55.5843 19.5401 49.2695
455 2 6.23012 13.2674 40.475
456 2 48.7857 27.5435 15.8022
457 2 37.0292 14.339 17.2928
458 2 9.04229 38.8624 54.6055
459 2 14.3882 21.0491 12.1657
460 2 18.5946 21.2676 35.0694
461 2 46.0792 32.9975 16.076
462 2 30.9073 50.878 30.0011
463 2 7.74536 29.4752 47.4042
464 2 43.4558 42.2367 46.7931
465 2 23.6141 8.81007 40.3639
466 2 43.1752 53.1692 9.4267
467 2 32.7618 23.6088 12.9535
468 2 49.9653 55.385 7.17192
469 2 20.5215 25.9707 47.5784
470 2 8.09242 11.4247 6.58644
471 2 47.1029 27.1973 22.2869
472 2 46.9512 37.3986 9.13092
473 2 53.1973 22.7288 20.3848
474 2 20.7998 27.0315 19.9051
475 2 8.98514 47.7032 43.2496
476 2 28.3027 37.8334 19.0567
477 2 44.9572 40.6153 33.0809
478 2 32.5009 49.0415 17.3807
479 2 13.0472 24.9361 24.6903
480 2 36.5419 28.5053 28.2677
481 2 25.5788 38.3675 25.171
482 2 34.0958 36.6498 21.8551
483 2 27.6371 35.1479 19.0144
484 2 12.541 34.0372 50.4639
485 2 31.1672 25.9483 51.7548
486 2 55.2649 6.57145 50.6059
487 2 45.5343 26.484 39.3888
488 2 11.8121 24.2613 21.7421
489 2 22.2756 42.1269 54.5344
490 2 40.8292 52.6885 26.1131
491 2 49.0945 43.2401 8.2453
492 2 55.5928 22.4698 42.6165
493 2 55.5004 32.3331 34.0565
494 2 10.6152 22.3681 53.6182
495 2 32.8366 16.8092 30.0166
496 2 17.4422 21.7569 6.14109
497 2 10.68 46.3626 46.2755
498 2 31.0716 17.5969 53.5249
499 2 10.1931 9.13778 34.2032
500 2 16.8572 21.7891 24.7222
501 2 38.1523 43.3281 13.673
502 2 44.4948 8.92173 24.9545
503 2 31.4316 19.6203 33.5186
504 2 43.5872 34.3064 6.78666
505 2 31.0334 44.8844 53.2037
506 2 24.3232 32.6171 32.529
507 2 41.7577 35.8115 11.9146
508 2 10.394 8.42757 37.5342
509 2 32.9128 52.1983 45.4374
510 2 52.2589 32.1395 42.9311
511 2 47.2078 52.8626 29.0859
512 2 13.8078 15.7798 23.9817
513 2 44.4413 19.9309 37.708
514 2 12.6279 37.323 47.6358
515 2 52.4945 49.5311 18.4258
516 2 47.3904 34.2529 31.5586
517 2 51.7334 37.3834 19.4109
518 2 41.1008 46.3608 14.6665
519 2 48.2767 20.3177 17.8826
520 2 12.8295 36.551 33.8203
521 2 23.7559 51.7766 29.113
522 2 54.7921 48.3813 16.1073
523 2 44.1214 13.1943 12.5358
524 2 6.33588 17.6722 44.1648
525 2 13.7123 17.2805 8.20841
526 2 45.2515 46.2559 45.1161
527 2 6.55415 47.0146 52.3542
528 2 19.3986 39.7798 15.1346
529 2 46.3329 52.7143 13.5136
530 2 7.63304 9.8553 14.5887
531 2 31.674 37.8719 52.683
532 2 47.2558 25.4511 44.5423
533 2 30.6337 20.3694 52.057
534 2 40.5403 49.1368 53.064
535 2 22.9651 55.6984 54.3739
536 2 53.0106 40.3702 18.7022
537 2 26.7686 25.7808 29.1917
538 2 38.1957 25.5612 30.7116
539 2 13.3695 17.1335 35.984
540 2 53.1346 52.5506 36.0507
541 2 18.4463 18.4281 24.8949
542 2 36.2709 40.2327 16.1766
543 2 54.1814 48.6295 11.501
544 2 43.5569 21.6975 43.9066
545 2 32.5972 19.6546 27.0749
546 2 43.5627 42.2002 53.8525
547 2 34.7284 49.4802 7.42432
548 2 15.3139 37.7023 13.4394
549 2 19.5932 24.7085 52.7218
550 2 11.6724 14.8033 47.3726
551 2 22.5788 26.7332 49.7968
552 2 9.74266 19.7547 20.6107
553 2 31.9658 44.8195 14.1464
554 2 38.8165 43.9982 42.7284
555 2 43.5219 49.0701 54.2768
556 2 42.8363 44.97 48.3262
557 2 16.2006 11.3497 52.1848
558 2 20.3884 12.4114 45.9255
559 2 51.2057 44.3137 30.6056
560 2 41.1218 32.1378 35.1924
561 2 21.9329 17.0065 50.9899
562 2 25.5384 13.4002 53.4974
563 2 37.6283 43.2955 32.2622
564 2 54.3521 15.2656 44.1772
565 2 17.1122 40.0409 50.0009
566 2 50.5483 33.2037 34.1186
567 2 32.3778 32.471 7.81372
568 2 50.5647 44.5802 12.7553
569 2 14.7499 7.08626 38.4293
570 2 14.6016 19.7589 46.4281
571 2 24.2428 8.60716 36.0692
572 2 51.7518 42.786 39.4116
573 2 43.9932 7.8476 31.1948
574 2 47.012 41.2818 35.3734
575 2 38.4076 8.36872 43.931
576 2 35.7895 47.6333 53.0309
577 2 39.4319 53.5697 16.019
578 2 38.1438 55.3889 22.5778
579 2 36.4574 30.5442 30.7096
580 2 29.3335 47.4953 11.9333
581 2 34.8295 12.2396 47.3791
582 2 15.774 52.607 43.7668
583 2 26.0651 52.4483 25.1152
584 2 30.2222 12.3049 22.8792
585 2 55.458 51.7444 50.5654
586 2 24.373 27.953 32.5323
587 2 16.0879 44.7009 40.6367
588 2 41.9617 54.5969 36.5412
589 2 44.2313 38.1919 41.3544
590 2 55.4733 22.9363 9.49829
591 2 15.3803 47.3484 13.3498
592 2 21.3754 22.1172 12.1962
593 2 44.2433 50.0081 33.3484
594 2 53.2287 19.3344 6.16921
595 2 11.6072 13.7528 53.0002
596 2 14.9291 23.5311 22.4705
597 2 52.5036 41.4669 41.8533
598 2 44.4071 19.6615 53.6137
599 2 8.67589 21.3066 31.8958
600 2 27.642 55.4739 48.7066
601 2 15.0723 41.2353 46.9555
602 2 6.66389 24.9258 36.7961
603 2 35.767 54.5836 26.0891
604 2 12.2811 6.45435 43.9637
605 2 8.98596 36.8099 16.0503
606 2 26.3609 35.8859 14.7697
607 2 38.6698 42.2006 37.6948
608 2 26.692 16.3789 33.4563
609 2 14.0414 8.1359 35.8769
610 2 42.0093 6.04903 8.58763
611 2 15.426 25.3638 55.3489
612 2 35.2677 7.47649 36.8429
613 2 18.0346 45.2481 20.4261
614 2 10.2248 21.5189 48.5393
615 2 29.3858 49.0207 25.9508
616 2 19.0299 17.8012 49.4567
617 2 22.4528 23.9077 43.511
618 2 27.4061 17.0009 38.3451
619 2 45.6471 21.953 8.02145
620 2 48.8154 53.2152 35.0004
621 2 37.6396 7.03852 29.9131
622 2 55.6854 26.9252 27.0861
623 2 45.8395 31.3068 40.6849
624 2 39.7005 8.58496 11.1768
625 2 7.33018 34.4997 13.9037
626 2 32.0758 53.1615 16.8891
627 2 17.6043 7.68672 55.2616
628 2 25.2583 10.091 38.5712
629 2 27.2551 11.0032 42.2011
630 2 28.4459 40.2425 24.7195
631 2 12.6529 28.9117 29.802
632 2 43.8545 30.4481 55.091
633 2 20.9192 7.30496 8.21609
634 2 13.7656 50.984 8.77292
635 2 39.8079 53.7939 42.9628
636 2 10.4734 42.7579 48.0672
637 2 44.452 12.2263 53.2377
638 2 47.3247 50.1973 26.9976
639 2 25.3955 38.0418 13.3559
640 2 47.5774 31.961 6.70357
641 2 36.283 38.9768 38.0296
642 2 52.7751 50.6374 44.217
643 2 13.5755 22.0329 15.0611
644 2 45.808 26.3015 52.5399
645 2 41.2121 46.594 52.2041
646 2 30.9678 31.4185 23.9006
647 2 39.5007 50.9745 36.9076
648 2 34.7647 7.88089 40.7233
649 2 35.2324 28.4068 23.1899
650 2 11.0238 44.3453 18.5916
651 2 21.9286 14.4498 34.6945
652 2 29.1964 8.53304 40.5656
653 2 8.17989 48.9356 54.8579
654 2 17.8236 23.1426 17.9447
655 2 24.0383 11.6092 7.91728
656 2 50.579 51.8425 23.7147
657 2 10.6926 54.9016 27.4132
658 2 15.9212 37.0664 21.9418
659 2 46.5353 53.8166 50.722
660 2 25.6047 49.4167 16.1814
661 2 50.825 49.1377 7.83704
662 2 34.2004 53.193 7.44015
663 2 22.3831 43.0527 9.40377
664 2 53.1667 22.8842 6.96062
665 2 29.0894 35.5408 23.9303
666 2 27.8954 27.2199 34.3573
667 2 49.5747 9.02142 14.15
668 2 20.7022 41.6376 41.938
669 2 15.5325 37.2369 29.8894
670 2 16.8427 54.1364 16.7047
671 2 36.5854 8.93924 45.6205
672 2 23.8096 33.661 18.197
673 2 43.5401 42.5571 12.8089
674 2 10.1291 20.1987 51.4315
675 2 45.2764 38.1245 38.7322
676 2 52.5327 38.9558 33.7992
677 2 14.1956 8.30172 14.1334
678 2 16.4269 38.4631 8.48372
679 2 25.3761 38.2469 22.6728
680 2 51.1505 49.3364 47.9059
681 2 22.6058 36.77 47.4003
682 2 14.2931 17.345 32.8577
683 2 32.9242 10.7033 44.5482
684 2 41.0818 33.0517 39.1223
685 2 42.8365 48.4663 48.1742
686 2 19.7782 17.9557 20.0752
687 2 10.3427 15.9131 19.9123
688 2 30.9248 34.3494 43.0912
689 2 12.9879 20.4334 39.1953
690 2 8.29565 30.7576 32.8694
691 2 39.1855 29.9622 41.1808
692 2 34.7728 11.911 11.4889
693 2 53.8307 47.3785 27.9081
694 2 17.9752 43.1709 49.3198
695 2 36.1759 38.6648 18.4564
696 2 54.2727 19.0078 15.5349
697 2 14.4891 34.9738 26.0884
698 2 24.0298 21.7636 53.8505
699 2 9.77657 32.8568 49.282
700 2 9.56388 13.8229 36.7812
701 2 26.8612 27.6937 50.7417
702 2 25.7359 38.3819 39.6933
703 2 11.3251 32.7303 17.4325
704 2 44.1396 48.1582 36.3311
705 2 17.7343 54.5383 44.693
706 2 37.6839 20.2336 38.4387
707 2 19.5703 41.1435 6.37341
708 2 24.1477 52.1094 13.8921
709 2 35.2499 36.2698 35.6029
710 2 10.2893 55.3688 36.4017
711 2 29.3859 9.70446 23.1292
712 2 41.3423 45.2558 37.7697
713 2 40.7563 12.4109 6.30957
714 2 24.5246 48.2619 6.30375
715 2 14.6984 46.7876 8.42769
716 2 41.8762 23.96 38.5749
717 2 26.5203 43.4394 19.5937
718 2 16.7628 52.8425 31.1754
719 2 33.0626 20.1214 30.5725
720 2 49.9967 47.8 20.2512
721 2 21.1351 31.9575 6.55545
722 2 25.9243 26.637 53.6442
723 2 25.4915 8.63431 51.996
724 2 44.4875 39.0078 21.0129
725 2 21.0543 15.5599 12.5507
726 2 14.5199 13.8722 36.4464
727 2 23.3155 31.7422 22.8862
728 2 55.0153 35.975 44.4989
729 2 46.4178 6.5767 9.68743
730 2 50.0868 45.3222 37.3287
731 2 26.2036 13.9373 17.7845
732 2 45.0694 18.871 44.306
733 2 44.6081 19.9501 13.5474
734 2 41.009 48.8785 17.7029
735 2 19.096 39.4272 44.2391
736 2 19.1003 39.4164 30.2754
737 2 54.7049 55.2899 24.0886
738 2 8.42206 22.42 6.33579
739 2 53.9484 13.2207 31.7331
740 2 30.1917 20.2566 55.106
741 2 31.3337 32.1197 39.2573
742 2 20.5617 43.7162 29.9033
743 2 44.1136 26.7707 33.8743
744 2 33.3892 10.4925 17.4103
745 2 25.2683 24.0677 12.1702
746 2 25.1532 41.173 12.0076
747 2 12.0258 26.449 33.255
748 2 24.2493 48.8203 27.9541
749 2 25.0691 43.1341 23.6558
750 2 52.5769 6.66553 10.2143
751 2 24.7043 21.0367 24.4677
752 2 28.2915 21.2375 6.72913
753 2 12.7901 16.127 40.4814
754 2 50.6161 24.0495 20.0293
755 2 27.5581 23.8767 53.2625
756 2 26.5287 18.1386 14.9504
757 2 29.8303 18.1926 21.1393
758 2 47.2632 47.8714 29.5201
759 2 13.0501 54.0952 42.4212
760 2 49.5674 44.4857 22.665
761 2 48.3093 54.8534 40.9383
762 2 34.8239 13.6944 8.83629
763 2 33.1025 33.437 14.7289
764 2 22.3973 39.4501 38.3589
765 2 11.5452 7.02661 48.7152
766 2 29.0282 46.1733 54.7712
767 2 13.2505 24.9003 46.0551
768 2 33.1699 55.0777 14.1931
769 2 10.8481 13.5106 43.121
770 2 38.7061 49.8906 28.929
771 2 19.9073 50.0657 11.9296
772 2 45.9009 19.7958 10.6374
773 2 22.7292 37.7591 29.4421
774 2 32.8431 51.5848 22.9479
775 2 21.2633 39.848 31.941
776 2 41.6885 34.8819 14.6012
777 2 34.027 37.165 45.2801
778 2 16.4662 42.4935 36.1347
779 2 12.0918 34.5199 12.8471
780 2 15.5306 10.8834 18.286
781 2 10.7912 48.9855 27.9479
782 2 42.8416 8.65443 7.38297
783 2 17.3208 13.4725 28.9893
784 2 23.3343 18.46 8.04646
785 2 23.6268 34.2045 45.6931
786 2 45.9596 24.366 16.6567
787 2 21.6938 30.14 39.3062
788 2 29.6312 42.484 53.9936
789 2 41.0039 55.3669 34.0836
790 2 46.0656 20.7933 24.6527
791 2 17.1057 34.3413 10.2174
792 2 28.3687 21.9219 28.767
793 2 27.9426 40.3019 29.041
794 2 9.64066 32.5338 8.20901
795 2 27.0356 35.1465 30.0695
796 2 18.6302 23.73 8.23848
797 2 15.3556 15.2612 6.22169
798 2 26.4727 33.9305 40.0904
799 2 21.0534 19.429 7.20229
800 2 41.2283 19.0051 9.86571
801 2 23.6321 28.9754 9.99595
802 2 17.758 20.3445 13.4179
803 2 54.2928 10.9463 50.7267
804 2 33.7996 47.0205 36.8774
805 2 37.734 22.0373 9.68603
806 2 34.5264 31.2476 16.1221
807 2 12.1078 33.2829 53.7972
808 2 32.482 18.2845 13.9513
809 2 45.8246 45.5865 27.7417
810 2 52.2978 16.2086 34.0814
811 2 6.56083 52.8689 35.9558
812 2 25.2041 40.8048 7.4027
813 2 40.9504 10.9881 51.5029
814 2 41.8288 6.49399 42.9699
815 2 46.5544 34.7222 50.0965
816 2 8.80181 33.8771 43.8452
817 2 40.7026 52.9152 21.4281
818 2 27.9931 8.64355 38.1246
819 2 31.6044 14.5476 12.0672
820 2 34.6132 34.1799 45.4681
821 2 6.93795 7.48996 44.3445
822 2 31.0316 18.0541 28.7777
823 2 46.7793 21.3749 53.385
824 2 55.5281 47.0219 49.5826
825 2 22.8368 6.45478 22.7378
826 2 28.2909 10.3984 9.35224
827 2 41.2102 32.9882 10.66
828 2 55.8615 9.13141 37.8926
829 2 35.3258 7.69379 49.7698
830 2 31.1613 29.3788 40.469
831 2 23.152 7.8399 16.3074
832 2 12.4289 41.4244 28.6117
833 2 49.0647 32.1025 15.5539
834 2 15.7018 20.4721 27.1348
835 2 26.6057 39.6513 46.6688
836 2 20.4442 7.08971 17.3442
837 2 14.4002 51.1949 26.8652
838 2 32.648 7.36642 43.3885
839 2 34.8336 33.118 21.7284
840 2 25.7701 48.0125 23.2622
841 2 44.9262 20.3078 29.0028
842 2 32.4684 22.482 34.0992
843 2 42.7236 17.9765 35.419
844 2 28.0211 48.3593 14.952
845 2 54.2398 41.2831 29.2215
846 2 49.3362 10.7236 31.6205
847 2 21.5519 27.4904 6.32029
848 2 48.5677 35.299 25.2915
849 2 47.489 34.5682 35.6013
850 2 45.0374 23.3806 10.6846
851 2 22.1475 7.21365 13.1048
852 2 38.3944 8.28644 36.9912
853 2 11.8486 51.3122 20.7701
854 2 24.1104 36.2434 16.1485
855 2 11.4556 40.629 8.2829
856 2 38.5303 25.286 17.2716
857 2 37.9429 12.7051 42.7779
858 2 6.47262 29.8839 38.2289
859 2 39.1101 33.9909 33.5002
860 2 9.15688 41.3195 23.7785
861 2 18.24 44.6687 55.3438
862 2 50.7226 47.7869 13.3377
863 2 42.4855 10.0752 54.6724
864 2 6.78879 40.3683 34.5803
865 2 53.8099 21.8432 49.7624
866 2 27.8673 41.9593 21.6991
867 2 38.1376 26.9897 47.4561
868 2 14.2622 27.3701 9.68823
869 2 6.40899 14.4772 9.52994
870 2 43.4983 14.0139 32.2497
871 2 34.9514 51.9014 17.2193
872 2 25.4075 27.3807 11.2568
873 2 33.0683 14.2437 23.2827
874 2 22.4507 16.8454 30.821
875 2 13.0351 32.0635 42.3566
876 2 13.0926 16.9331 18.4794
877 2 49.4885 38.49 55.8137
878 2 50.3058 6.36174 29.2449
879 2 45.8494 42.8506 23.3899
880 2 40.6486 27.5016 20.0311
881 2 38.2646 26.5678 33.4221
882 2 49.0229 32.1229 36.378
883 2 30.0012 46.4545 42.992
884 2 46.2398 45.3132 32.6767
885 2 43.0623 44.3842 22.1488
886 2 8.01218 51.9491 33.1311
887 2 15.8463 44.3093 7.22671
888 2 18.5348 12.5312 54.3352
889 2 22.4868 19.9751 10.3725
890 2 14.9068 33.4218 12.4415
891 2 33.0746 51.4755 13.4662
892 2 21.081 41.4466 26.6366
893 2 21.3861 37.0793 36.7173
894 2 30.7479 28.5329 49.6769
895 2 13.191 41.83 23.8263
896 2 24.9394 29.3386 55.0414
897 2 54.2213 26.0229 52.0684
898 2 43.8655 40.76 42.4069
899 2 35.9002 36.5704 27.5727
900 2 28.4677 10.8207 20.3969
901 2 33.1655 34.4547 23.9817
902 2 33.7928 10.3322 21.8045
903 2 26.354 39.7759 43.6037
904 2 12.0622 21.2783 8.13461
905 2 26.8951 19.5531 10.7379
906 2 45.9486 16.931 28.4859
907 2 48.7987 39.0988 22.1484
908 2 14.8217 7.02482 51.4433
909 2 30.0022 16.7294 45.281
910 2 54.8012 52.7964 21.7775
911 2 8.2196 24.5722 45.6763
912 2 27.6061 11.102 12.6003
913 2 45.1379 22.8559 30.4883
914 2 11.6381 16.3195 44.8121
915 2 43.1353 50.8107 50.4541
916 2 41.285 13.1429 19.666
917 2 7.29825 53.4269 14.4615
918 2 46.9866 10.0112 16.0796
919 2 40.1494 26.1691 28.0265
920 2 23.4365 50.4354 18.5556
921 2 50.931 42.3144 23.7525
922 2 27.4262 41.9404 17.2582
923 2 27.6929 50.8856 54.3635
924 2 25.1599 6.57522 41.4364
925 2 27.9519 20.0452 39.9692
926 2 14.7365 39.402 51.8578
927 2 7.05864 31.9865 18.689
928 2 51.9568 31.7996 19.4167
929 2 51.1022 16.837 6.19981
930 2 53.4724 40.1303 46.9359
931 2 52.6686 34.4562 7.69712
932 2 8.73239 52.3188 42.5163
933 2 18.5006 36.5732 31.0101
934 2 10.7808 12.8769 20.7887
935 2 6.9004 19.9012 22.9135
936 2 44.1545 36.6708 26.6175
937 2 54.8715 13.2201 35.8844
938 2 49.2537 12.8971 34.0659
939 2 26.2035 53.0863 19.6812
940 2 49.9303 12.9502 26.42
941 2 42.9287 50.5866 19.6137
942 2 35.8668 31.7031 41.3322
943 2 50.0415 23.6389 34.7658
944 2 19.5268 52.5169 23.7437
945 2 12.8573 20.1166 42.3846
946 2 21.6682 17.2374 21.8768
947 2 49.5321 46.4416 27.5807
948 2 7.62491 34.8527 28.2809
949 2 8.11148 52.1495 11.1334
950 2 33.4609 26.8868 13.0215
951 2 8.68079 26.2264 11.8797
952 2 16.4993 9.30119 21.0692
953 2 39.2628 20.3654 13.4385
954 2 50.6518 25.5938 14.7383
955 2 36.4802 43.5346 22.9051
956 2 23.8159 51.2639 6.62678
957 2 55.8488 37.6709 51.3812
958 2 15.5488 33.9741 23.2041
959 2 53.137 37.1151 47.1139
960 2 17.9174 35.235 22.467
961 2 17.1342 31.3173 23.667
962 2 7.8595 22.6281 28.9705
963 2 42.4854 35.189 29.0146
964 2 15.405 45.3959 22.5451
965 2 50.261 11.7499 17.8827
966 2 38.6701 19.0768 18.3911
967 2 53.668 46.1486 17.9375
968 2 16.1286 19.4121 7.86783
969 2 51.8486 23.5925 54.0552
970 2 15.3467 12.0199 41.3896
971 2 25.6738 15.4366 10.7578
972 2 9.56646 16.9638 40.281
973 2 36.2339 19.7196 24.6948
974 2 12.7622 50.0123 44.3279
975 2 49.0793 20.2244 11.2655
976 2 41.6128 54.9757 14.5115
977 2 49.3174 54.6082 50.051
978 2 11.6423 23.7985 34.5403
979 2 43.9635 23.4906 6.43109
980 2 6.0637 38.2002 15.6336
981 2 26.5586 8.36798 33.8963
982 2 48.5247 12.137 54.6923
983 2 24.6205 43.9815 11.3948
984 2 39.7083 51.2956 24.1789
985 2 6.97866 45.5486 39.6048
986 2 12.8386 8.91147 11.2408
987 2 44.2562 51.1154 23.5278
988 2 55.0016 9.75775 22.4055
989 2 13.3553 49.9963 17.0249
990 2 49.4516 17.0239 20.6844
991 2 16.4261 53.1444 49.7125
992 2 14.3574 43.89 27.6874
993 2 32.6881 9.78972 30.4383
994 2 20.3757 54.9145 28.6734
995 2 28.9751 13.621 7.91666
996 2 40.8383 10.9929 30.2377
997 2 53.3358 47.6781 45.6113
998 2 13.9504 17.021 15.3162
999 2 17.1855 41.0706 28.5183
1000 2 27.8305 42.4934 46.7732
1001 2 26.0554 29.5235 7.68643
1002 2 7.61786 39.4272 38.6778
1003 2 49.6543 15.937 31.5539
1004 2 34.1359 36.6106 53.8862