ITEM: TIMESTEP
0
ITEM: NUMBER OF ATOMS
9088
ITEM: BOX BOUNDS xy xz yz pp pp pp
6.1397476342633928e+00 5.5791190158067536e+01 -5.6965828490132394e-15
6.1397476342633981e+00 5.5791190158067536e+01 0.0000000000000000e+00
6.1397476342633981e+00 5.5791190158067536e+01 0.0000000000000000e+00
ITEM: ATOMS id type x y z
1 2 13.983 29.3279 46.8597
2 2 35.444 19.5044 17.3961
3 2 23.194 39.831 54.5709
4 2 47.0401 25.5829 10.172
5 2 43.5635 14.5834 13.0396
6 2 15.3582 8.32981 36.0575
7 2 46.4336 18.9716 53.5451
8 2 7.27722 39.5041 49.2609
9 2 38.2535 52.3177 12.0551
10 2 34.9967 46.119 12.7737
11 2 8.1121 40.3732 8.3298
12 2 35.4929 54.4186 29.7955
13 2 43.5533 28.3105 33.7332
14 2 28.9954 10.3575 14.3585
15 2 23.8677 39.2257 29.3348
16 2 17.8993 46.918 36.2215
17 2 46.749 17.2479 40.2485
18 2 14.6183 54.1247 14.2204
19 2 47.0868 12.5995 8.67599
20 2 48.4586 13.4735 49.1655
21 2 53.3006 49.67 27.3084
22 2 8.98412 53.0312 45.758
23 2 54.8117 17.2639 39.3062
24 2 37.5066 21.1414 52.0587
25 2 20.7933 25.0148 33.6112
26 2 23.1639 38.4302 37.9555
27 2 12.5677 31.8928 24.3728
28 2 27.4541 25.0056 10.9966
29 2 49.9059 46.5807 40.7694
30 2 44.5445 40.6275 29.6985
31 2 19.4899 28.5612 18.8864
32 2 39.5892 24.147 55.7831
33 2 38.9427 40.9818 45.7814
34 2 17.8113 15.6016 42.4313
35 2 11.9847 17.2162 21.3293
36 2 20.1881 33.478 12.9738
37 2 17.6369 28.6996 50.9912
38 2 53.2814 36.3756 29.2826
39 2 12.0369 40.2266 8.53564
40 2 6.69186 19.511 27.7165
41 2 30.3725 30.3255 45.9403
42 2 50.6585 34.9251 48.6276
43 2 47.7598 25.8851 51.0165
44 2 8.8585 13.032 29.4517
45 2 53.6747 54.3033 18.6161
46 2 24.5311 41.9118 12.7741
47 2 45.2327 32.4407 42.1308
48 2 10.1971 54.5618 32.5043
49 2 11.579 21.286 10.8274
50 2 30.2226 51.0387 27.4984
51 2 55.6186 10.9224 14.512
52 2 54.9775 10.2665 21.9052
53 2 46.8772 17.0788 16.4369
54 2 23.7826 34.7333 29.3633
55 2 44.824 53.254 9.95441
56 2 28.0644 23.7673 17.8162
57 2 30.9665 11.0252 52.241
58 2 31.9514 16.8093 10.0294
59 2 45.9551 28.7551 55.1874
60 2 31.2235 9.07156 22.2815
61 2 12.3814 11.985 36.7362
62 2 54.3197 19.3142 47.2538
63 2 32.2541 20.4281 17.3161
64 2 48.1996 16.9894 7.70049
65 2 21.9116 9.44027 54.7846
66 2 21.8315 42.5387 32.8468
67 2 39.5265 28.7118 23.8589
68 2 30.7025 49.938 8.67114
69 2 8.21733 23.2401 33.8517
70 2 36.46 20.0509 14.5298
71 2 47.77 19.1892 37.8816
72 2 14.3258 19.2926 55.4675
73 2 32.7575 19.3055 23.7792
74 2 6.43626 28.3768 27.4994
75 2 32.6447 43.324 35.3855
76 2 34.3174 21.7298 23.8327
77 2 9.3115 43.2822 33.1573
78 2 22.3706 53.9454 9.33463
79 2 29.0555 39.8237 34.3246
80 2 17.9852 34.2961 14.9778
81 2 14.8244 21.7339 29.8361
82 2 49.8933 38.9149 54.6264
83 2 50.3213 17.0957 30.6854
84 2 22.7106 17.2168 16.8241
85 2 14.986 22.4588 47.7521
86 2 12.9079 19.3251 35.7579
87 2 54.8839 13.2855 10.8482
88 2 43.8864 50.3099 18.9665
89 2 35.1125 29.1008 44.8086
90 2 6.97246 52.3126 25.978
91 2 15.5118 40.5122 46.3312
92 2 50.1067 44.8977 32.2723
93 2 35.5989 33.2613 35.8882
94 2 24.9427 26.1536 10.2709
95 2 21.4487 41.3341 52.2444
96 2 34.1389 28.2391 32.253
97 2 19.8291 19.2121 14.4643
98 2 50.4394 54.848 54.4077
99 2 53.919 42.0311 33.5392
100 2 35.6879 51.403 29.8803
101 2 9.80872 10.5715 13.7226
102 2 24.8709 33.6432 21.2626
103 2 37.1967 7.82818 7.08421
104 2 50.1993 18.0845 47.388
105 2 41.9667 8.73087 26.2444
106 2 31.194 26.0675 33.0438
107 2 20.891 36.1833 22.508
108 2 12.1168 30.9154 53.3669
109 2 44.0353 44.6533 8.0615
110 2 51.5033 11.6778 13.8858
111 2 45.1916 50.7749 11.9183
112 2 11.8826 8.10827 13.7297
113 2 18.3854 28.5395 9.18657
114 2 12.1665 37.1862 32.6841
115 2 17.8441 35.5326 31.0524
116 2 16.8453 38.8851 54.7123
117 2 55.1567 6.63223 48.6561
118 2 7.39853 22.723 19.9878
119 2 39.3517 42.8789 8.83379
120 2 48.1141 20.4078 27.1989
121 2 39.0397 53.0418 50.1735
122 2 54.6869 37.0227 14.5279
123 2 19.3049 42.4464 29.189
124 2 54.6349 22.0305 14.0325
125 2 37.5916 7.48399 18.5308
126 2 14.942 36.6093 55.441
127 2 41.8807 52.029 46.9053
128 2 27.3727 24.6699 40.3455
129 2 8.16755 15.3455 20.4888
130 2 23.1223 11.2066 52.5985
131 2 33.6289 50.0596 21.3613
132 2 6.78139 39.9214 13.2446
133 2 15.0055 21.8439 17.6913
134 2 51.2834 22.4785 48.8973
135 2 8.97296 36.6646 52.4149
136 2 34.8165 38.0573 23.9591
137 2 46.1393 29.8146 32.6828
138 2 22.7445 53.6001 38.3863
139 2 33.4025 51.7613 42.5323
140 2 41.4817 21.0328 33.0399
141 2 21.1237 17.732 34.4655
142 2 53.6166 41.6463 53.0133
143 2 25.2741 54.6981 53.9215
144 2 43.4547 48.9549 41.2676
145 2 16.964 54.8708 29.3017
146 2 51.4654 44.0951 53.8538
147 2 11.028 28.2184 38.181
148 2 49.2476 9.23864 8.09287
149 2 8.16273 52.2257 11.7539
150 2 47.3848 23.2317 46.1561
151 2 41.5079 26.9586 18.4766
152 2 45.1988 44.2305 34.9737
153 2 46.2379 30.6677 15.142
154 2 15.1688 7.66153 45.9559
155 2 12.769 44.5639 25.6798
156 2 10.4533 31.8303 17.5446
157 2 8.53318 40.1197 32.8299
158 2 24.7666 24.4588 31.2072
159 2 48.7463 43.7121 41.0306
160 2 54.7387 52.9165 15.9207
161 2 6.73119 22.0315 11.1818
162 2 18.8762 52.4526 25.4815
163 2 20.9628 53.1796 43.8153
164 2 10.7124 39.0938 46.5474
165 2 7.5137 13.8973 41.25
166 2 53.6681 19.2772 9.23054
167 2 51.3157 32.1862 10.8837
168 2 35.0317 44.1477 54.9913
169 2 13.1255 21.94 27.4653
170 2 41.2075 20.3388 28.0639
171 2 47.9926 41.7746 8.71549
172 2 43.9619 13.6561 55.2456
173 2 38.3142 10.4246 43.1254
174 2 43.4811 51.7774 7.79264
175 2 44.6266 21.3026 24.7663
176 2 23.3609 7.67697 49.7928
177 2 26.0521 35.6233 9.55205
178 2 10.5294 27.9273 43.0891
179 2 46.3461 31.7683 47.246
180 2 35.1027 35.232 34.0622
181 2 35.9505 10.4779 45.1107
182 2 17.2669 20.6417 29.1195
183 2 24.7981 29.0819 30.1566
184 2 34.595 17.1132 26.2613
185 2 12.8939 10.6693 52.5044
186 2 29.8737 52.7912 10.8918
187 2 10.1981 29.4364 40.6667
188 2 26.7364 27.5827 47.664
189 2 31.645 32.2645 34.5827
190 2 10.1404 17.8351 8.38242
191 2 50.8365 38.4085 22.7324
192 2 14.3566 46.6216 16.7185
193 2 31.8912 22.0208 44.7023
194 2 17.9109 44.7 31.3878
195 2 30.7047 12.2089 35.5884
196 2 8.14341 48.3264 28.4444
197 2 44.4947 47.8155 12.3192
198 2 17.8599 9.8975 24.2888
199 2 18.0168 19.7368 19.9474
200 2 33.8212 30.8714 36.7853
201 2 37.0398 25.3475 17.386
202 2 53.8512 12.5668 41.1393
203 2 51.2824 23.0878 27.4194
204 2 14.842 41.1583 28.1413
205 2 50.4795 49.1749 50.5803
206 2 21.6464 6.77123 18.4538
207 2 35.3234 38.3808 47.6027
208 2 45.4209 37.7637 27.2443
209 2 32.6631 32.0785 6.35847
210 2 42.307 55.4984 20.3276
211 2 23.8434 16.8692 6.19754
212 2 19.0168 34.3324 33.6379
213 2 39.0454 41.5157 48.8365
214 2 39.4542 7.31388 12.3041
215 2 37.4661 24.856 20.752
216 2 26.2323 21.546 18.5228
217 2 31.3149 53.7085 39.1695
218 2 52.2191 19.1404 17.0648
219 2 31.8209 16.6609 24.1586
220 2 49.7141 16.4303 26.5079
221 2 48.5618 23.5624 27.2155
222 2 23.5829 49.8 16.8705
223 2 8.73315 49.5642 13.6235
224 2 42.4044 26.3411 53.2118
225 2 48.5617 32.7645 45.1625
226 2 21.5089 42.8114 16.29
227 2 27.4837 45.7481 22.5972
228 2 7.42739 39.3778 44.0787
229 2 7.80876 6.17363 35.3115
230 2 6.7624 14.6192 27.615
231 2 24.3591 20.1284 14.0966
232 2 10.0059 28.9083 13.4222
233 2 24.4173 36.6688 15.8298
234 2 43.3224 41.0231 37.0407
235 2 28.8909 38.9348 41.8607
236 2 11.62 39.7875 16.7551
237 2 49.7588 29.209 34.4499
238 2 18.8873 36.9661 7.24133
239 2 48.0101 21.9133 48.827
240 2 35.0295 48.6655 39.23
241 2 6.656 35.2708 40.7256
242 2 7.45608 44.7224 14.3581
243 2 50.0463 52.5625 50.1366
244 2 51.4711 27.6815 9.53459
245 2 22.377 21.8691 27.8231
246 2 45.18 17.1886 34.1711
247 2 30.7395 11.1443 19.4356
248 2 32.6427 25.4171 41.0287
249 2 25.3551 30.7948 22.7214
250 2 32.1991 54.2563 49.9254
251 2 52.5761 14.1227 12.937
252 2 34.91 7.59999 36.5768
253 2 43.2127 34.0888 6.17239
254 2 41.9666 13.9296 36.2975
255 2 9.26497 32.5232 15.1655
256 2 42.198 19.6051 52.9195
257 2 46.4514 54.6565 36.8981
258 2 48.0349 26.4318 35.0512
259 2 33.5458 24.1882 14.9633
260 2 14.5604 36.7076 48.6546
261 2 36.6632 31.7517 21.2889
262 2 27.4384 52.1559 50.9176
263 2 49.7392 32.8231 52.4435
264 2 34.6256 7.93267 11.2803
265 2 10.3842 29.3318 55.68
266 2 37.5717 54.7394 40.3264
267 2 34.1091 42.3964 48.0246
268 2 37.3532 30.1546 51.4814
269 2 53.4805 55.3101 15.1684
270 2 15.3104 47.6289 43.9825
271 2 43.0564 48.6301 44.0181
272 2 37.1632 14.5918 28.6123
273 2 53.4687 34.7928 44.186
274 2 15.845 34.7249 23.0684
275 2 29.9543 51.1748 43.6224
276 2 42.4338 22.5385 30.8094
277 2 26.0507 30.165 25.9301
278 2 43.6237 22.1055 14.01
279 2 30.6112 39.5748 48.3995
280 2 13.1309 14.2378 21.727
281 2 10.7687 13.7473 20.1077
282 2 10.2726 15.546 30.221
283 2 13.4257 20.9865 8.32871
284 2 44.6645 47.9378 36.9236
285 2 26.8929 42.4864 31.6634
286 2 52.9928 11.6413 20.8879
287 2 35.5902 18.4093 6.3113
288 2 34.5732 21.5441 10.4882
289 2 54.1941 7.11155 45.4634
290 2 35.34 18.8202 52.8077
291 2 47.9477 48.8193 26.5108
292 2 37.7542 46.3316 11.0352
293 2 54.6265 7.04118 20.8586
294 2 41.9366 23.5931 21.4758
295 2 14.3936 16.2704 48.3428
296 2 50.2429 48.0079 17.8721
297 2 13.2878 44.2153 18.7645
298 2 35.1933 10.5316 20.6948
299 2 15.0709 40.0772 31.2242
300 2 22.0664 50.9377 45.7055
301 2 18.6766 40.7051 53.0586
302 2 29.0047 47.0863 41.9971
303 2 55.438 8.97895 41.5488
304 2 13.8863 10.597 34.6104
305 2 11.0904 47.7639 24.9902
306 2 28.963 28.906 43.6499
307 2 8.15488 10.7936 35.7685
308 2 51.2927 41.4715 35.5367
309 2 20.5849 46.277 32.5643
310 2 40.7558 55.752 54.9937
311 2 45.605 18.1602 22.3967
312 2 25.6306 6.41832 27.3457
313 2 8.31371 37.8834 20.0251
314 2 25.7816 48.695 55.2957
315 2 35.3864 32.8194 24.231
316 2 32.8647 45.1942 21.6841
317 2 26.0312 6.68309 20.6072
318 2 48.293 49.1069 31.3885
319 2 39.8685 34.8391 36.1463
320 2 34.751 18.873 34.6345
321 2 29.1895 54.7685 8.96038
322 2 44.9109 21.0862 49.9766
323 2 29.8702 15.1222 8.95814
324 2 27.4279 44.5852 25.7845
325 2 8.36312 36.6621 35.7144
326 2 52.3524 40.5564 28.4426
327 2 17.8101 46.158 40.563
328 2 52.0127 36.0297 24.0789
329 2 25.0648 51.9318 30.9747
330 2 18.5286 38.2632 23.187
331 2 33.3085 8.79069 24.4548
332 2 27.9582 55.2102 16.1023
333 2 50.2213 28.5783 38.9533
334 2 49.046 12.1186 40.6587
335 2 28.9602 50.873 37.1829
336 2 11.3003 45.2501 34.9154
337 2 55.5097 21.8372 49.3738
338 2 39.5492 14.2516 6.69631
339 2 18.1414 13.2101 23.7795
340 2 40.2732 28.7605 35.2894
341 2 45.1345 53.1599 50.2575
342 2 26.9398 44.58 38.2472
343 2 27.5153 17.0662 16.7627
344 2 39.9209 46.9782 38.1702
345 2 47.5531 53.7297 12.3854
346 2 38.5114 50.5864 51.9651
347 2 41.1182 22.9569 49.2889
348 2 26.4737 32.0231 50.0457
349 2 8.20243 40.4698 55.1623
350 2 18.7703 55.4909 49.349
351 2 33.9993 40.6752 55.418
352 2 10.8775 46.2682 39.9808
353 2 10.8608 26.2569 12.2641
354 2 27.7533 8.56261 54.2835
355 2 53.2897 29.5673 28.8391
356 2 25.1523 25.9403 52.0412
357 2 9.99265 35.4609 48.1831
358 2 33.6095 18.7762 50.0341
359 2 46.8343 17.6565 43.1593
360 2 48.1636 29.2568 12.566
361 2 25.6047 49.1463 45.6145
362 2 53.6761 45.6622 9.11877
363 2 24.6388 6.37934 23.2157
364 2 52.8702 29.4724 23.9569
365 2 53.268 55.3999 36.1239
366 2 47.6388 38.8098 42.5437
367 2 31.1539 27.9693 10.6913
368 2 52.1027 24.78 37.4812
369 2 6.21437 27.7049 39.1822
370 2 40.1101 9.23485 17.7678
371 2 43.3956 24.8211 14.5945
372 2 42.0406 43.4919 24.1265
373 2 53.6204 32.0537 33.5928
374 2 20.9142 27.8155 42.4617
375 2 11.9617 13.456 10.3618
376 2 12.2826 51.4606 26.7943
377 2 45.2305 42.1657 12.0876
378 2 55.0335 32.0492 44.2305
379 2 51.8034 17.118 38.3081
380 2 37.5983 32.7407 31.4094
381 2 44.9071 40.8622 20.1451
382 2 49.2648 18.316 54.6856
383 2 40.6416 51.6015 22.1625
384 2 49.0293 26.0796 41.0047
385 2 42.1849 18.3998 11.6976
386 2 24.8749 28.4891 45.293
387 2 28.491 25.1831 46.5153
388 2 43.433 6.23522 22.7669
389 2 49.2605 20.4951 17.299
390 2 46.1269 29.605 51.6639
391 2 46.6657 25.0625 22.0207
392 2 35.5136 22.6593 46.4288
393 2 20.7198 40.6086 23.9402
394 2 53.9012 26.1036 12.4734
395 2 13.8343 47.1444 24.1959
396 2 21.0999 52.1348 15.1682
397 2 43.632 50.3084 22.9002
398 2 11.9538 25.4551 46.0971
399 2 17.1726 20.313 41.3581
400 2 49.0153 34.7166 23.3692
401 2 44.26 9.07579 54.7846
402 2 30.2465 48.7776 45.9595
403 2 41.6942 22.2829 25.9467
404 2 6.81059 45.0254 20.0271
405 2 52.1649 41.1366 11.4244
406 2 10.6119 21.3234 13.8426
407 2 15.231 31.578 30.8228
408 2 19.5135 45.3497 21.6729
409 2 31.3277 28.19 20.9032
410 2 35.755 55.2809 45.4717
411 2 51.9772 38.5391 36.0437
412 2 10.1929 14.2121 24.7312
413 2 39.6861 28.3742 30.7336
414 2 28.8124 18.7207 43.0095
415 2 37.2173 7.58639 43.974
416 2 28.8117 7.97169 10.7243
417 2 46.5819 52.3973 52.9793
418 2 48.0248 37.3548 14.38
419 2 19.6274 10.3215 38.8554
420 2 49.8721 45.5215 6.65014
421 2 7.63641 29.1662 47.1634
422 2 19.5713 28.1135 33.3413
423 2 25.4795 51.5113 28.325
424 2 28.8886 30.5178 30.3966
425 2 42.8886 16.5201 19.0408
426 2 54.5557 48.8856 8.82711
427 2 11.4276 45.4892 49.5682
428 2 44.7405 46.3336 48.7448
429 2 54.3206 45.0488 25.9658
430 2 28.0742 20.129 47.5851
431 2 6.62785 35.222 21.6181
432 2 54.1276 13.3141 49.6346
433 2 53.3823 40.8383 8.88748
434 2 41.9296 11.813 13.8967
435 2 9.70468 8.50459 35.7228
436 2 39.2787 34.1298 53.9431
437 2 53.1462 35.8175 35.6113
438 2 21.7833 23.6497 45.482
439 2 50.5723 13.8442 10.1457
440 2 38.7066 54.1292 9.33253
441 2 16.3875 8.47626 22.3593
442 2 23.3826 44.3958 24.0113
443 2 34.022 53.2864 37.4338
444 2 12.8465 16.533 6.47327
445 2 29.8011 33.09 46.9601
446 2 37.7801 34.3293 14.8496
447 2 8.27939 51.3313 29.982
448 2 47.6293 39.5405 26.363
449 2 10.8606 55.2187 48.747
450 2 54.4823 26.4498 36.1262
451 2 36.4127 22.3189 49.2843
452 2 25.4299 11.5984 40.5831
453 2 51.2505 53.7793 35.0905
454 2 20.577 40.9952 7.36306
455 2 28.7012 33.8352 8.80742
456 2 6.32775 8.12948 14.8869
457 2 53.3093 33.7096 22.8861
458 2 23.6145 55.5241 6.84483
459 2 32.4106 41.3517 14.4168
460 2 37.7255 53.3371 46.5734
461 2 11.7404 6.82894 19.5142
462 2 52.9453 21.0072 28.8753
463 2 31.8188 52.8366 55.352
464 2 11.7745 6.88989 10.8929
465 2 34.5578 33.4109 45.5025
466 2 14.01 26.129 19.2122
467 2 49.0864 51.3293 27.2796
468 2 21.1571 38.0518 55.4956
469 2 32.5303 37.8459 55.1717
470 2 24.9384 34.1124 18.0852
471 2 20.0194 37.973 15.5692
472 2 18.3719 7.45289 19.8628
473 2 29.7193 48.6888 39.6107
474 2 47.6975 8.5356 28.1655
475 2 19.4652 13.5262 55.0922
476 2 44.9313 9.10511 26.576
477 2 15.2899 19.8204 26.008
478 2 54.0271 18.393 28.7156
479 2 17.7975 40.3032 32.3482
480 2 52.1152 48.2766 39.6178
481 2 50.6231 14.9346 40.261
482 2 10.9376 54.087 26.4318
483 2 37.545 8.48513 25.2004
484 2 27.1525 49.5759 13.1924
485 2 48.1194 44.8701 15.0817
486 2 26.1561 22.1191 7.3383
487 2 11.4033 38.3425 52.5053
488 2 39.1893 45.2627 31.1853
489 2 35.0806 16.9169 10.9557
490 2 17.2328 24.6861 20.6431
491 2 16.336 15.4966 13.4625
492 2 15.8833 54.3205 45.1467
493 2 22.488 10.4449 49.5143
494 2 31.7665 41.9304 10.5672
495 2 43.4737 39.922 47.4518
496 2 27.3777 42.4526 28.8919
497 2 34.7827 7.32682 8.25307
498 2 48.8703 34.5621 17.6822
499 2 33.7796 31.4736 48.4683
500 2 38.3925 49.5439 40.6596
501 2 46.476 11.4511 27.7868
502 2 13.5679 24.5628 36.729
503 2 53.3228 36.6364 52.7097
504 2 7.11259 6.23445 19.07
505 2 53.0093 8.93315 13.7215
506 2 46.8544 46.3293 43.9678
507 2 51.6209 47.0551 25.7005
508 2 32.1803 22.0247 54.0219
509 2 45.2254 27.2776 52.8652
510 2 23.414 50.2072 49.7248
511 2 9.06202 25.8615 34.566
512 2 29.223 42.3325 20.6493
513 2 13.6906 45.0491 52.9867
514 2 30.964 55.6726 11.6092
515 2 16.7726 18.134 33.1219
516 2 22.8754 8.7446 30.3984
517 2 12.1304 11.4194 25.1258
518 2 10.5742 19.3128 25.2009
519 2 15.8635 36.8761 35.2379
520 2 25.262 6.6975 40.9705
521 2 42.3424 25.9686 50.2084
522 2 10.7827 34.178 42.0215
523 2 6.38069 36.4731 17.5393
524 2 21.701 40.5159 13.9346
525 2 27.4425 37.3237 20.6401
526 2 11.695 52.5005 50.0465
527 2 29.149 14.8057 13.1248
528 2 45.5899 14.2542 25.0127
529 2 20.1008 22.3224 32.9236
530 2 26.6287 26.4758 32.9998
531 2 47.156 7.38161 12.921
532 2 15.4557 49.7995 48.0155
533 2 55.6884 34.9973 6.33617
534 2 53.8032 23.8098 10.1576
535 2 38.9055 28.1896 17.2754
536 2 32.3811 10.6397 39.8805
537 2 42.4173 42.1161 39.4499
538 2 53.5754 34.3759 39.6665
539 2 39.0792 38.3646 39.6516
540 2 22.5422 19.0672 45.7157
541 2 35.3006 41.7007 32.0263
542 2 7.693 22.014 29.4486
543 2 17.3752 22.4899 13.689
544 2 11.0783 41.5773 51.9204
545 2 51.374 32.1872 37.0357
546 2 8.72932 12.9873 22.2166
547 2 46.9006 17.2676 24.8473
548 2 34.6218 11.9978 16.4491
549 2 33.1939 51.1009 13.8099
550 2 26.5415 39.556 19.2144
551 2 40.942 41.4771 6.41082
552 2 22.7262 40.7081 40.2925
553 2 49.7007 24.688 18.117
554 2 43.4649 22.3024 47.5261
555 2 16.8033 20.9133 10.4429
556 2 7.66179 15.0067 11.0505
557 2 44.1444 32.2182 12.6227
558 2 39.1198 37.7408 7.88058
559 2 20.0887 20.7761 43.0136
560 2 6.47955 49.6071 48.0419
561 2 39.6285 28.8106 20.1464
562 2 44.2458 28.2473 11.8162
563 2 9.73014 8.80328 38.978
564 2 11.7483 35.2049 51.9954
565 2 32.5642 13.0949 6.98166
566 2 27.7813 50.2606 47.7205
567 2 49.3419 9.66332 17.3611
568 2 18.9032 15.81 17.6667
569 2 30.0616 40.8033 44.1741
570 2 23.179 36.8626 12.9491
571 2 37.6177 27.4953 54.931
572 2 33.58 14.6336 50.2737
573 2 17.9043 27.8807 43.4364
574 2 14.4644 15.6685 41.9383
575 2 10.0793 32.2353 49.2108
576 2 9.58485 16.6074 13.2487
577 2 11.4166 27.116 27.983
578 2 48.6326 22.7422 35.2618
579 2 53.493 45.5287 42.8495
580 2 49.0758 19.6572 13.8993
581 2 49.8329 31.7001 6.48773
582 2 23.0671 14.0877 48.7741
583 2 44.3402 27.3075 37.9258
584 2 29.7322 43.1425 17.6734
585 2 24.6638 27.2829 54.712
586 2 45.2884 52.172 38.3442
587 2 31.5653 11.4371 46.9384
588 2 13.0466 13.971 7.33174
589 2 17.2212 54.9882 52.2809
590 2 20.724 47.0777 13.741
591 2 25.4666 19.1808 20.8136
592 2 35.3422 41.7172 21.4522
593 2 52.1234 11.1396 43.261
594 2 13.9563 32.5937 47.0046
595 2 27.3614 32.4353 17.0989
596 2 21.2981 46.2544 29.5574
597 2 18.3048 18.2268 42.9298
598 2 15.4736 40.422 12.9322
599 2 19.237 34.3382 44.1964
600 2 45.8358 20.9372 6.23328
601 2 21.563 10.4854 32.3639
602 2 25.188 36.4989 52.263
603 2 10.7939 24.6283 30.4966
604 2 27.2705 31.2442 53.0747
605 2 39.0143 55.6832 26.2031
606 2 53.027 6.30763 24.8511
607 2 18.3581 10.708 35.465
608 2 36.8949 45.5825 45.6184
609 2 25.2675 36.0024 31.8085
610 2 8.93955 30.0072 29.3788
611 2 30.5603 50.8622 15.6345
612 2 50.6909 26.4144 43.8913
613 2 47.3936 13.733 37.6434
614 2 29.9175 37.5484 6.85319
615 2 48.768 52.2999 34.8742
616 2 40.5372 39.1932 46.9594
617 2 47.2056 44.7588 54.3414
618 2 42.8792 39.1871 52.6257
619 2 9.54892 43.2529 28.5646
620 2 15.1871 21.9685 43.0488
621 2 8.34589 32.0345 33.025
622 2 25.3391 52.6126 36.1871
623 2 7.73886 51.002 43.4075
624 2 12.3185 32.1467 30.6842
625 2 33.4126 11.6905 28.7981
626 2 54.8318 15.2214 30.497
627 2 35.4502 33.5819 17.1107
628 2 38.0124 37.4226 46.0413
629 2 48.239 34.2296 7.23153
630 2 50.8587 14.8102 24.4956
631 2 32.6295 48.3608 32.9035
632 2 9.50832 54.0542 22.364
633 2 39.9044 34.4906 27.7552
634 2 30.7066 18.056 15.7837
635 2 9.10295 33.9339 53.2353
636 2 30.446 15.0644 49.7132
637 2 15.5237 31.597 12.4873
638 2 18.6765 15.7091 22.2097
639 2 46.6378 15.6522 20.169
640 2 14.4782 42.674 10.9749
641 2 55.7003 6.56229 55.3284
642 2 16.1478 14.8939 45.9837
643 2 23.722 42.8227 21.2128
644 2 14.1943 39.7264 15.351
645 2 18.1732 25.2851 12.2397
646 2 54.548 50.1414 40.5635
647 2 50.95 6.22976 7.81093
648 2 54.9539 25.8999 53.3842
649 2 41.5485 45.2255 40.4017
650 2 27.2971 25.4335 21.5002
651 2 41.6545 34.5538 38.3976
652 2 43.0724 33.9121 50.7737
653 2 25.9843 18.0676 8.01856
654 2 31.865 38.4064 35.0211
655 2 39.0733 29.3177 6.29066
656 2 25.8875 27.1924 25.3455
657 2 24.3297 29.1653 33.5404
658 2 30.4415 15.1118 30.8837
659 2 12.6035 26.5387 6.55105
660 2 41.3506 19.1126 22.3094
661 2 20.6637 9.66813 23.4582
662 2 50.4916 29.0922 16.4824
663 2 37.3171 21.5579 23.5144
664 2 12.5129 37.198 21.3902
665 2 43.6736 52.5501 26.929
666 2 48.0192 41.6542 48.5104
667 2 17.4776 34.8309 20.2231
668 2 35.471 25.4106 8.75374
669 2 26.2062 12.0686 35.5952
670 2 22.5985 36.5097 33.2308
671 2 49.8017 30.3461 8.94981
672 2 44.1383 53.391 19.0703
673 2 55.3864 12.0406 19.2826
674 2 36.7499 39.1282 9.5175
675 2 18.665 51.4288 42.5053
676 2 16.2168 9.17989 41.8186
677 2 21.2452 38.8456 26.882
678 2 29.3081 10.6847 32.1572
679 2 40.5276 11.3123 27.3777
680 2 54.6751 17.1883 44.8785
681 2 38.5093 9.87473 11.0251
682 2 25.15 36.4244 39.1312
683 2 53.9832 32.9569 9.14509
684 2 48.221 7.37018 42.6504
685 2 9.59133 20.2192 55.7271
686 2 32.6366 30.9262 24.1853
687 2 21.3048 25.9843 29.0084
688 2 44.9741 13.2471 51.7013
689 2 27.4397 37.3745 45.8622
690 2 20.8221 52.236 36.5409
691 2 55.0848 41.5104 40.4908
692 2 55.3996 33.2859 17.0348
693 2 29.6803 15.1331 26.2118
694 2 35.5584 10.7091 10.9814
695 2 52.9206 21.2586 45.0732
696 2 16.227 39.2312 19.1504
697 2 30.8594 19.7219 27.8916
698 2 26.2292 43.6165 55.2037
699 2 27.2968 47.1172 52.6063
700 2 29.8847 30.9388 37.3706
701 2 36.9627 39.9035 6.56675
702 2 47.0716 11.7553 43.0583
703 2 29.171 45.4862 19.8696
704 2 7.15611 15.5097 53.9421
705 2 34.0003 33.8876 50.3235
706 2 53.7142 38.0882 7.6723
707 2 42.3554 15.0302 23.1331
708 2 45.7732 29.1741 24.0307
709 2 55.3951 52.377 46.982
710 2 31.9999 25.336 54.3461
711 2 48.2944 34.4592 27.6629
712 2 6.62859 16.9348 47.6717
713 2 13.4701 34.0501 10.0878
714 2 43.6693 16.2368 15.9785
715 2 36.9513 17.6546 22.0186
716 2 13.4398 39.4283 48.117
717 2 52.2086 10.6339 30.8816
718 2 41.1798 27.8901 42.4943
719 2 50.0813 43.3015 44.8916
720 2 17.8582 25.919 34.3376
721 2 33.8775 44.6692 28.4542
722 2 40.7431 44.9436 13.155
723 2 43.5467 31.0944 55.7224
724 2 13.0884 6.29464 26.5457
725 2 39.9968 33.6605 18.7189
726 2 29.3158 38.6728 38.5939
727 2 48.3785 41.6888 28.9606
728 2 25.5154 54.8334 50.7815
729 2 21.6865 33.1595 21.5744
730 2 30.5767 18.483 48.5168
731 2 9.45656 23.4563 27.6248
732 2 18.3043 36.6074 52.4194
733 2 12.8071 41.6334 26.0661
734 2 14.6115 24.2925 27.6749
735 2 41.4625 9.70675 49.2334
736 2 38.2585 53.2649 43.1552
737 2 52.7524 29.0761 40.4289
738 2 37.8595 42.7286 11.6733
739 2 18.6989 31.9026 45.7139
740 2 55.7017 39.1242 9.92528
741 2 52.363 54.9212 49.3556
742 2 37.5394 19.5346 34.1298
743 2 7.38953 52.5356 35.6848
744 2 6.99558 31.9408 30.4551
745 2 31.2543 46.5483 15.032
746 2 44.7775 11.6786 17.6028
747 2 27.3555 54.8352 37.2876
748 2 40.2225 19.7814 38.5786
749 2 37.8039 16.1176 36.1822
750 2 11.3111 29.2689 32.158
751 2 42.6241 40.2305 33.7042
752 2 42.2799 42.0654 19.9718
753 2 28.1907 44.9464 51.389
754 2 17.5006 41.1024 23.8089
755 2 43.5856 53.151 22.2646
756 2 30.6261 38.1488 13.0456
757 2 40.518 40.5082 30.8863
758 2 6.18321 16.0068 35.0368
759 2 34.6737 29.9053 52.3033
760 2 15.9166 10.911 31.9028
761 2 11.3411 30.7004 43.7782
762 2 51.0139 34.8204 19.5571
763 2 46.0233 54.5178 23.5824
764 2 38.1036 7.47148 49.1884
765 2 35.0878 26.03 54.2425
766 2 46.1088 20.4494 13.8425
767 2 22.932 33.0036 6.23474
768 2 55.0134 28.5119 21.832
769 2 24.5255 40.0558 9.99601
770 2 42.5116 13.9611 45.31
771 2 41.0655 19.1623 19.282
772 2 20.4014 41.284 18.793
773 2 48.9575 54.0327 38.6687
774 2 45.2314 17.126 37.4616
775 2 33.8082 14.5485 37.5084
776 2 49.7626 46.4601 29.9492
777 2 55.0549 7.63934 52.1301
778 2 39.3483 16.6941 44.8654
779 2 34.0398 8.85772 28.1694
780 2 28.4578 35.6805 32.2424
781 2 33.9135 28.6802 22.5164
782 2 7.55899 32.7933 19.539
783 2 29.937 26.3176 39.5169
784 2 38.1149 33.5875 11.0924
785 2 36.603 51.285 48.8228
786 2 6.48181 38.1499 28.9837
787 2 38.8926 6.56835 52.7633
788 2 46.047 14.9972 9.47655
789 2 11.5201 16.2453 39.271
790 2 27.2462 45.0464 30.8506
791 2 29.9839 8.32767 19.3959
792 2 31.3885 53.3044 30.9649
793 2 32.7397 7.73103 40.6649
794 2 23.4953 52.2305 54.298
795 2 37.6049 6.32307 35.8794
796 2 32.7871 39.7506 17.419
797 2 29.612 35.2822 20.3567
798 2 47.9016 54.0733 48.556
799 2 23.4981 49.4103 31.1214
800 2 14.6051 45.273 21.4309
801 2 37.7088 43.304 28.1532
802 2 25.8667 43.3724 23.3833
803 2 18.994 30.729 11.857
804 2 43.31 16.1427 48.3904
805 2 48.68 41.5044 18.3966
806 2 11.1254 50.9542 22.1294
807 2 33.2861 48.3975 19.0532
808 2 37.5367 39.1774 21.9246
809 2 15.6376 13.9017 31.2359
810 2 15.0473 27.1564 30.8553
811 2 17.5541 18.8463 49.3266
812 2 41.0904 14.4882 18.1827
813 2 13.1653 33.3867 17.7538
814 2 13.5411 23.6507 10.5232
815 2 13.3446 11.162 8.86176
816 2 26.6841 51.4641 42.9901
817 2 8.65454 33.0116 39.8682
818 2 46.4556 25.8949 55.0599
819 2 41.6545 28.5344 13.5998
820 2 10.5983 52.1828 10.1616
821 2 27.2069 23.3408 52.8338
822 2 49.6063 38.6128 40.3328
823 2 16.349 8.78379 15.277
824 2 29.5075 21.6607 13.7104
825 2 40.1218 23.9848 36.4412
826 2 38.9187 47.0463 15.0452
827 2 8.86711 8.35039 20.1799
828 2 24.1408 28.9692 42.3212
829 2 47.3126 22.4119 10.3428
830 2 51.2796 51.5136 52.4075
831 2 44.689 29.0201 20.7829
832 2 25.2031 14.1503 37.999
833 2 14.9857 48.5515 26.931
834 2 40.9845 50.7113 40.5359
835 2 47.0531 7.83008 54.109
836 2 23.3796 30.1943 27.479
837 2 38.0551 22.0175 32.3361
838 2 53.474 28.0353 54.9477
839 2 6.5334 10.8373 33.0613
840 2 35.4246 10.9172 26.2556
841 2 20.9176 45.2453 39.8969
842 2 48.2663 45.9752 38.8193
843 2 46.8622 37.1285 47.0015
844 2 44.1068 25.0115 18.9178
845 2 10.3576 54.5275 36.965
846 2 17.2466 21.8373 50.011
847 2 41.6459 12.2892 16.5792
848 2 16.9443 13.2214 41.16
849 2 10.3658 47.9214 51.0748
850 2 53.7957 46.8923 20.6486
851 2 34.5151 41.7815 18.324
852 2 8.75243 25.4801 50.1887
853 2 36.388 12.3068 37.2924
854 2 54.9469 7.04522 27.9082
855 2 27.0217 8.73715 22.6104
856 2 54.4624 44.7028 34.2489
857 2 55.7891 37.4371 50.8156
858 2 19.5096 6.67413 41.1682
859 2 55.59 52.3755 33.2545
860 2 23.9287 53.97 33.4017
861 2 38.4739 16.9992 8.68938
862 2 7.92765 28.1711 17.5882
863 2 9.80099 30.0978 24.3414
864 2 21.4713 54.7398 47.4335
865 2 10.0878 47.9572 53.9188
866 2 6.68253 22.4055 36.6189
867 2 54.4231 48.3067 12.0227
868 2 29.4962 53.6467 14.0188
869 2 27.6763 46.8917 17.2935
870 2 11.4051 33.8105 45.4675
871 2 51.057 23.8309 33.822
872 2 39.1978 50.5039 25.5295
873 2 14.6011 37.8963 37.8526
874 2 45.4759 41.3185 32.636
875 2 27.4883 53.382 54.7365
876 2 38.627 44.0176 37.6375
877 2 22.817 13.0698 16.6323
878 2 22.6454 26.853 44.5631
879 2 14.8651 18.389 30.5731
880 2 13.4706 44.6659 28.432
881 2 54.3941 51.7734 43.5279
882 2 20.2614 51.0074 48.5108
883 2 52.1287 16.0256 49.1514
884 2 24.5967 13.6957 42.4551
885 2 16.442 14.8192 33.9926
886 2 12.1895 30.7054 34.7627
887 2 41.5755 16.2398 8.5622
888 2 36.608 42.1239 52.4221
889 2 35.256 48.3347 11.0132
890 2 39.8811 21.211 21.6568
891 2 42.4867 24.6146 28.496
892 2 41.2429 9.96329 35.072
893 2 39.0979 52.1736 38.8963
894 2 43.3213 44.8637 16.6232
895 2 32.7473 55.5355 28.753
896 2 29.6707 50.1275 22.7388
897 2 20.7016 47.3855 7.39803
898 2 8.24971 7.74937 48.4968
899 2 48.2743 7.31798 35.339
900 2 41.814 16.8913 34.6141
901 2 48.7327 13.4137 28.6162
902 2 52.3867 26.238 32.0462
903 2 38.8711 14.506 49.4339
904 2 21.3591 46.6376 19.7964
905 2 47.1042 44.5531 20.0546
906 2 12.9757 26.4446 43.2792
907 2 17.5732 11.6954 27.8886
908 2 36.2441 35.2407 50.2441
909 2 48.7249 34.0671 10.3641
910 2 27.1306 28.7534 37.6874
911 2 25.4769 43.2101 50.7396
912 2 49.9091 23.7871 22.4416
913 2 21.7115 45.4207 26.6844
914 2 28.1585 48.6969 9.43107
915 2 9.02337 13.5584 49.8405
916 2 10.8337 39.7782 36.8396
917 2 31.4009 31.2099 10.5436
918 2 54.7277 28.1246 44.285
919 2 14.0705 48.7375 38.4708
920 2 42.3999 26.0076 31.6341
921 2 21.1223 7.67361 25.6726
922 2 53.3727 21.0239 35.9939
923 2 38.7525 21.8273 14.4406
924 2 37.8369 30.9363 45.146
925 2 49.7091 40.5834 43.8948
926 2 37.3563 14.1943 8.40988
927 2 23.1086 17.4585 26.9028
928 2 24.5929 9.37134 23.6883
929 2 21.3213 30.0931 15.7558
930 2 22.1132 18.7161 10.3261
931 2 20.0329 10.6151 20.3397
932 2 12.3649 21.691 49.6418
933 2 32.53 50.6776 39.1552
934 2 18.0487 28.3315 36.5932
935 2 21.3555 38.6642 31.1479
936 2 55.5842 53.4084 28.8919
937 2 21.0339 25.1705 49.0705
938 2 8.08925 27.9416 51.5793
939 2 50.5712 20.2843 19.6906
940 2 16.1083 33.0047 36.7244
941 2 16.6836 21.4687 36.0928
942 2 48.2581 52.6081 55.3075
943 2 19.7349 43.0098 44.51
944 2 45.1022 30.9265 35.2165
945 2 24.8868 39.4771 7.23674
946 2 30.8854 34.6371 24.6081
947 2 26.9804 11.8588 25.6959
948 2 22.3586 55.2702 27.3846
949 2 15.3894 26.6014 26.0677
950 2 43.1704 45.5165 28.718
951 2 22.7429 55.2092 11.9949
952 2 29.5191 40.1218 18.8971
953 2 54.3576 54.6207 8.13083
954 2 18.097 49.5376 16.5853
955 2 52.1963 15.0067 32.1087
956 2 40.267 25.8703 21.0119
957 2 26.3558 6.48824 30.7318
958 2 28.8678 53.6549 27.686
959 2 19.1568 51.9239 51.3957
960 2 28.3109 46.4583 36.0146
961 2 41.7233 41.9042 26.9335
962 2 29.5554 42.4526 35.4815
963 2 18.4317 8.28545 43.2478
964 2 24.9854 51.9284 25.3604
965 2 24.1864 38.4666 26.3845
966 2 55.3659 35.958 27.4027
967 2 29.8272 32.7793 27.5135
968 2 32.3256 42.3295 21.8831
969 2 14.4211 40.9759 55.0352
970 2 28.7312 28.6826 53.0339
971 2 47.703 32.4173 21.0172
972 2 33.6288 38.8824 45.3588
973 2 43.8598 37.1178 44.1676
974 2 25.3612 22.9431 10.4747
975 2 8.15749 47.9346 20.8663
976 2 15.0392 29.2895 27.231
977 2 14.7239 30.1837 54.255
978 2 21.0266 42.6334 41.8989
979 2 15.5021 43.5029 13.369
980 2 17.2372 18.1132 12.4826
981 2 38.2736 35.9278 41.3217
982 2 10.6653 33.8029 11.1333
983 2 45.6981 14.3581 16.1658
984 2 12.1999 23.5278 25.4032
985 2 20.8814 33.4155 38.4483
986 2 33.3786 24.4143 18.9235
987 2 7.53644 24.7571 30.2549
988 2 8.36634 17.9037 38.8387
989 2 28.1482 17.6638 21.8497
990 2 15.0354 39.2422 41.4867
991 2 37.0403 23.9633 11.0128
992 2 29.8193 12.9453 38.471
993 2 38.3284 30.7585 33.7601
994 2 35.6749 23.66 33.1294
995 2 53.2368 36.5591 18.5419
996 2 51.6009 30.6791 51.0973
997 2 23.9563 20.7416 8.71922
998 2 30.156 31.2386 17.7699
999 2 28.3666 15.4267 39.2236
1000 2 41.4414 18.2679 14.8083
1001 2 41.278 53.911 26.2207
1002 2 33.914 50.6258 54.067
1003 2 23.9001 45.3912 38.2994
1004 2 55.0917 9.8921 17.4404
1005 2 44.8265 33.7456 20.8718