ITEM: TIMESTEP
0
ITEM: NUMBER OF ATOMS
9088
ITEM: BOX BOUNDS xy xz yz pp pp pp
6.0462097351629520e+00 5.5884728056954287e+01 -5.7180463298367647e-15
6.0462097351629573e+00 5.5884728056954287e+01 0.0000000000000000e+00
6.0462097351629573e+00 5.5884728056954287e+01 0.0000000000000000e+00
ITEM: ATOMS id type x y z
1 2 23.9268 18.0565 14.5559
2 2 40.7807 53.2266 32.9566
3 2 29.7713 17.5275 24.7503
4 2 48.506 8.84077 30.0591
5 2 48.7029 46.0077 28.3423
6 2 16.9339 46.6891 51.9732
7 2 55.873 10.9979 18.7083
8 2 14.6012 24.3454 17.7431
9 2 46.9469 39.8455 29.6868
10 2 44.3534 33.1701 30.5057
11 2 15.4909 23.0489 24.8385
12 2 42.6185 37.4 48.4206
13 2 53.6603 55.812 53.0261
14 2 34.4383 41.7597 34.0108
15 2 28.4922 22.6392 44.8925
16 2 26.7504 35.8049 52.3293
17 2 52.6754 52.1641 8.7889
18 2 24.1121 40.769 34.8589
19 2 55.0853 46.9933 25.9248
20 2 55.0483 53.0493 10.5963
21 2 7.14058 35.376 45.2101
22 2 19.9307 36.8523 11.2507
23 2 8.4957 46.1351 11.6441
24 2 45.021 49.3028 25.2801
25 2 20.727 12.2356 44.5929
26 2 29.0999 20.9863 54.617
27 2 29.5293 10.8347 37.7468
28 2 40.4605 11.1199 37.5039
29 2 9.24512 37.6149 52.3196
30 2 55.6768 26.4638 53.2608
31 2 20.2347 19.5301 40.4015
32 2 50.1598 51.2584 20.7934
33 2 44.1396 29.7508 17.335
34 2 26.8512 41.1756 9.03731
35 2 18.5524 8.17818 42.4251
36 2 26.199 12.8769 38.663
37 2 26.3209 16.133 18.3389
38 2 11.235 17.8192 50.362
39 2 16.9246 26.6062 26.5154
40 2 15.6013 46.9402 48.7204
41 2 34.3594 14.3446 12.556
42 2 53.0908 16.8196 9.33884
43 2 55.1672 11.2181 14.0771
44 2 8.96511 47.6026 38.8157
45 2 13.9672 36.8043 34.9222
46 2 36.7468 23.1799 20.2559
47 2 50.0744 18.927 6.96601
48 2 13.3868 38.2922 50.9237
49 2 15.6786 8.47048 28.0248
50 2 27.0964 36.0258 43.4161
51 2 14.3674 47.2924 29.4091
52 2 12.429 44.579 36.6896
53 2 9.82255 49.9345 33.8333
54 2 27.7006 22.7407 41.801
55 2 50.0427 42.6151 22.3735
56 2 34.1686 6.7162 28.0096
57 2 37.5592 44.7482 22.865
58 2 35.907 52.4687 26.2474
59 2 41.6335 7.45242 16.3839
60 2 40.1379 34.1138 40.3759
61 2 21.0205 46.9813 7.83598
62 2 15.9717 49.9735 10.2167
63 2 38.4215 54.3482 41.6876
64 2 55.6658 48.5558 23.6135
65 2 24.73 38.2628 24.3782
66 2 19.8998 28.8518 49.7704
67 2 47.5216 17.6312 39.8341
68 2 39.818 35.2545 26.6384
69 2 8.3881 54.8112 46.9075
70 2 45.3843 52.1739 24.8679
71 2 7.38514 48.5359 49.5598
72 2 20.9931 42.2611 26.5171
73 2 30.9742 12.0822 39.4545
74 2 13.3619 13.1872 37.2289
75 2 45.6312 16.9304 54.2289
76 2 44.1912 10.1793 42.1909
77 2 16.3467 27.3117 46.6059
78 2 23.8462 33.3947 24.7426
79 2 25.5502 19.617 53.0362
80 2 22.0585 14.1383 35.1733
81 2 29.9215 43.7689 45.695
82 2 6.7992 23.0486 20.6525
83 2 51.851 46.8607 44.7097
84 2 30.1572 45.396 22.811
85 2 22.8451 51.3189 15.7993
86 2 20.1969 51.3015 49.8655
87 2 11.7288 42.1868 32.4735
88 2 45.108 32.3336 38.5243
89 2 35.1357 7.15476 9.02819
90 2 12.2773 37.5642 41.3536
91 2 28.8434 17.6471 15.3245
92 2 8.83198 25.1214 52.1057
93 2 33.0111 15.8635 46.04
94 2 36.3953 11.1119 30.3827
95 2 25.1206 28.4134 22.9959
96 2 47.2477 17.3572 48.3219
97 2 26.6763 53.3182 31.0166
98 2 9.40061 40.4681 22.3831
99 2 17.0748 13.8511 53.2467
100 2 46.946 37.8814 47.3548
101 2 13.286 48.0376 25.727
102 2 31.2469 20.8147 41.545
103 2 42.0699 42.5944 25.0497
104 2 8.90792 12.8885 15.8107
105 2 49.1025 27.6175 39.0892
106 2 35.4418 55.047 50.5266
107 2 27.7379 25.7568 37.9016
108 2 20.3376 14.6314 24.4809
109 2 49.9982 30.431 23.4095
110 2 9.29299 34.4211 31.1148
111 2 50.979 36.5414 31.0775
112 2 8.83267 41.4866 32.2549
113 2 28.8008 12.9854 21.2577
114 2 15.6729 17.8593 49.2071
115 2 25.0447 17.5513 42.8413
116 2 22.0781 22.6165 23.8107
117 2 11.1618 38.3399 18.0425
118 2 12.1711 11.5564 42.3909
119 2 41.8655 32.091 28.6055
120 2 12.5277 44.7153 40.0329
121 2 6.87122 42.2876 10.1949
122 2 14.2144 21.5755 29.8264
123 2 22.749 18.7384 44.6961
124 2 13.08 53.0511 32.8875
125 2 8.11381 42.3827 29.571
126 2 22.3478 20.3028 25.7004
127 2 46.9627 29.1826 14.5175
128 2 34.6186 10.2061 9.74045
129 2 12.2876 48.611 38.0611
130 2 24.4427 46.4526 18.8883
131 2 41.1954 29.3557 51.0505
132 2 18.3944 21.415 31.653
133 2 15.9048 50.9423 39.276
134 2 6.88487 8.70624 55.761
135 2 20.0297 18.1982 22.2784
136 2 38.6234 24.6334 41.9894
137 2 53.0922 7.7289 8.70111
138 2 30.6809 32.2821 55.2304
139 2 40.1889 37.2007 7.08215
140 2 43.9197 54.8329 46.4172
141 2 32.7208 44.9066 7.39364
142 2 9.48045 26.4627 21.5706
143 2 28.9941 38.4876 23.5022
144 2 48.1695 41.8772 52.9253
145 2 20.4494 40.4928 42.4864
146 2 7.32906 28.0118 22.437
147 2 17.5389 10.8876 6.71015
148 2 6.70596 40.408 26.299
149 2 10.7732 37.6761 25.452
150 2 55.3463 55.7864 13.8958
151 2 45.1448 10.7134 32.9695
152 2 49.203 32.7802 52.0233
153 2 53.6978 12.2776 31.062
154 2 30.4331 39.5586 10.6322
155 2 21.5611 25.0731 43.6493
156 2 15.8148 17.5618 42.2228
157 2 11.815 27.9615 50.0391
158 2 34.3337 52.2767 50.8707
159 2 7.91746 31.1406 11.4007
160 2 15.8469 39.6951 34.0217
161 2 15.2785 50.5872 22.8385
162 2 22.4495 30.1668 46.4584
163 2 14.2249 42.3714 6.93361
164 2 18.9543 26.1235 11.3367
165 2 21.2866 8.12434 54.3813
166 2 13.9351 6.32437 26.6311
167 2 9.99452 14.8547 28.2549
168 2 46.7906 28.1324 20.212
169 2 27.7692 53.7085 50.5295
170 2 35.0233 7.58719 48.6051
171 2 7.10625 25.2388 23.8861
172 2 51.3432 47.904 23.3556
173 2 38.0296 50.1987 53.2962
174 2 50.2034 35.0563 23.9601
175 2 44.4396 44.8827 39.3943
176 2 29.6316 37.8674 18.6369
177 2 28.1581 18.1244 27.3333
178 2 8.34784 7.83921 48.5438
179 2 51.5343 22.1003 12.7458
180 2 45.6724 25.4273 51.2842
181 2 43.6528 45.0556 11.4017
182 2 24.2154 54.8605 40.9953
183 2 31.0137 18.781 54.4918
184 2 42.2909 52.7581 48.2882
185 2 18.459 42.3314 20.1404
186 2 32.8599 29.3499 31.939
187 2 17.6523 18.8181 9.56292
188 2 36.6864 47.2095 11.2383
189 2 39.637 19.0882 50.6516
190 2 17.5368 49.3654 26.724
191 2 13.827 25.1675 38.7675
192 2 17.2032 28.0378 33.0319
193 2 38.7083 55.5952 16.5848
194 2 25.0075 29.7891 48.5253
195 2 37.6673 45.2749 52.3336
196 2 10.4638 34.1466 43.0141
197 2 48.3266 31.0551 26.2486
198 2 25.4161 45.8758 32.4314
199 2 16.4136 6.46955 34.5853
200 2 43.5229 8.4585 54.5938
201 2 45.186 54.3068 34.9172
202 2 12.2973 49.1812 7.90365
203 2 10.1425 6.16882 54.979
204 2 26.32 20.4186 46.4057
205 2 8.75323 35.769 21.5651
206 2 30.6366 37.6956 32.533
207 2 49.3873 15.165 10.4272
208 2 50.2941 24.5008 41.6148
209 2 44.5557 11.2964 18.57
210 2 44.9563 40.9034 31.2717
211 2 34.7767 46.2909 27.2546
212 2 33.6055 22.3084 53.864
213 2 46.3075 24.8614 15.4585
214 2 49.4105 46.2666 25.0657
215 2 42.0659 54.8628 35.8855
216 2 32.7684 51.0325 35.1778
217 2 39.323 36.6314 13.1468
218 2 8.88521 17.182 40.4879
219 2 38.1801 42.6411 45.4408
220 2 9.93955 53.469 33.3598
221 2 48.7473 9.15112 42.343
222 2 29.9695 31.4279 34.7554
223 2 15.0925 31.7099 30.4596
224 2 53.7743 10.3355 25.0545
225 2 9.53726 20.0608 10.6796
226 2 23.7553 30.3091 36.0518
227 2 33.7162 34.2473 41.0787
228 2 14.3926 23.9143 12.575
229 2 15.2374 29.7935 6.41858
230 2 9.10669 47.156 34.8069
231 2 38.0834 55.5134 30.1834
232 2 15.7793 53.3269 34.4631
233 2 33.1235 19.2283 32.0517
234 2 54.0718 24.0543 8.04813
235 2 39.2865 19.4613 12.5423
236 2 20.8141 19.7331 32.6033
237 2 55.0095 12.9222 55.0061
238 2 29.2063 15.7479 28.6178
239 2 9.22569 9.71895 18.6231
240 2 43.5854 27.3942 46.7563
241 2 19.3305 18.9781 54.9241
242 2 9.13962 30.0899 31.1447
243 2 8.2136 35.6045 17.9061
244 2 6.80187 10.7332 27.9643
245 2 24.7975 6.12197 43.9863
246 2 52.6212 48.306 47.6958
247 2 41.2403 36.9015 34.1748
248 2 33.9743 55.3062 11.5376
249 2 30.0263 14.7766 38.541
250 2 31.8295 38.1284 14.7646
251 2 13.5721 44.3315 33.5532
252 2 37.7138 40.4474 51.8621
253 2 51.4016 21.2701 26.6596
254 2 50.6294 51.6176 50.3658
255 2 15.7885 19.7895 27.9079
256 2 41.3214 45.5435 25.4621
257 2 51.5961 38.198 53.7949
258 2 52.2172 13.1455 6.59907
259 2 31.1454 53.8631 39.5107
260 2 20.1578 20.8819 13.2967
261 2 49.5743 18.4951 24.8623
262 2 35.1164 44.3952 15.7473
263 2 8.45806 16.3364 19.1174
264 2 39.1791 38.5205 26.445
265 2 13.5189 20.645 19.0214
266 2 44.4076 34.0168 9.30009
267 2 36.412 25.3574 14.68
268 2 47.0442 16.2621 20.5624
269 2 10.6635 37.2491 28.9061
270 2 24.2443 32.4982 12.0637
271 2 45.437 21.3777 9.99426
272 2 53.8783 51.0818 40.5497
273 2 14.8541 20.6677 13.9262
274 2 20.6077 23.4318 41.5501
275 2 36.9944 34.4242 9.08544
276 2 41.3001 55.5007 45.546
277 2 32.5117 15.7071 41.9582
278 2 51.1043 47.9884 26.7537
279 2 35.8238 16.6198 17.6893
280 2 24.1047 43.4555 38.5376
281 2 20.9765 52.9828 43.3034
282 2 8.55613 46.3701 45.3835
283 2 21.5942 53.8373 24.7543
284 2 9.42538 31.6587 49.3438
285 2 32.9436 27.1383 7.87369
286 2 6.31932 47.6444 34.7873
287 2 44.445 7.32494 26.8309
288 2 46.9867 55.5604 30.6717
289 2 13.3127 44.9277 10.1037
290 2 43.2935 51.7855 22.3493
291 2 53.4653 30.9333 30.038
292 2 37.9297 36.0052 35.555
293 2 13.1278 40.2906 39.6254
294 2 40.9249 7.27505 39.0423
295 2 21.9902 46.4163 17.4656
296 2 53.5639 39.3335 28.6739
297 2 19.4971 26.1485 29.5447
298 2 43.9957 47.1667 29.5951
299 2 20.5601 11.0397 52.8299
300 2 32.2101 36.8778 18.0598
301 2 28.2703 18.4999 21.2226
302 2 36.7185 33.2237 12.0114
303 2 16.7321 39.2492 11.226
304 2 22.8422 37.6348 52.2017
305 2 18.9156 30.0129 39.5783
306 2 32.4562 8.47388 17.036
307 2 11.2458 9.27028 51.0527
308 2 12.3651 22.8951 54.6151
309 2 22.7363 31.7062 49.6919
310 2 50.2647 39.7675 20.5999
311 2 55.4747 48.5967 37.4309
312 2 47.0573 37.2342 42.908
313 2 16.8764 16.0895 26.306
314 2 36.242 28.5217 23.4748
315 2 38.5065 10.9611 49.9633
316 2 39.8231 21.2623 41.2512
317 2 34.0389 35.2113 38.3853
318 2 7.47906 36.1063 50.256
319 2 38.002 12.0203 52.8375
320 2 42.5727 44.8581 45.6097
321 2 36.0656 39.0502 25.2034
322 2 50.0792 11.6042 13.9778
323 2 38.8866 49.792 27.4482
324 2 34.5438 24.6688 45.249
325 2 24.2618 22.2695 47.2131
326 2 7.23181 25.884 43.8617
327 2 27.5277 30.4313 9.46813
328 2 51.4411 18.6611 43.296
329 2 32.9409 32.0957 53.2868
330 2 23.4143 25.119 38.7197
331 2 40.4292 35.7844 42.4357
332 2 31.4163 36.7974 29.5601
333 2 52.1087 10.3067 52.3032
334 2 44.5282 39.8903 48.8791
335 2 35.7147 31.4701 7.80943
336 2 11.4219 30.724 53.5106
337 2 16.4127 13.9802 23.6535
338 2 43.2398 53.4882 26.8237
339 2 25.487 47.3742 42.1151
340 2 49.7496 11.3567 7.28181
341 2 50.0936 36.2477 13.3448
342 2 35.8149 28.2205 7.36892
343 2 34.0198 55.5947 41.2743
344 2 49.216 26.9626 43.9187
345 2 9.76327 32.059 29.4703
346 2 50.2687 37.2403 22.325
347 2 44.2332 15.3792 20.2464
348 2 31.7742 16.5209 11.8148
349 2 13.43 25.2187 21.1098
350 2 25.3511 42.7135 18.8992
351 2 44.9363 21.3341 24.8354
352 2 21.2506 23.2696 8.72612
353 2 23.4927 12.8379 25.8376
354 2 35.7821 45.9184 20.0636
355 2 10.5267 10.6393 44.2687
356 2 25.4529 52.1969 17.8823
357 2 23.641 13.2498 16.4925
358 2 38.8871 53.8237 13.8537
359 2 7.92544 49.084 15.4683
360 2 55.5308 13.8104 28.1627
361 2 30.4393 35.2019 9.49709
362 2 15.6655 29.9516 25.0334
363 2 29.8819 38.8387 44.5992
364 2 12.647 8.66168 40.4494
365 2 9.28126 34.091 55.0456
366 2 8.04061 30.2411 6.36047
367 2 38.6115 53.1942 28.1614
368 2 8.88157 7.06055 51.4002
369 2 15.7223 9.77951 54.2195
370 2 51.1804 46.0825 32.6101
371 2 50.335 9.2336 32.1696
372 2 53.3875 24.062 42.8441
373 2 13.4695 16.6814 47.5827
374 2 18.7209 8.95171 47.9596
375 2 19.9054 46.2534 21.498
376 2 22.8617 32.5565 42.3236
377 2 7.29296 24.2384 29.007
378 2 15.7512 11.8653 17.8399
379 2 55.6919 46.8053 52.9766
380 2 44.1045 13.1631 47.0511
381 2 53.1108 24.6361 29.5483
382 2 6.454 52.2639 26.5337
383 2 41.5292 30.875 33.5911
384 2 50.5213 6.4931 8.62929
385 2 49.7235 54.2197 27.3675
386 2 36.2113 9.66205 18.9748
387 2 42.253 10.1352 11.9906
388 2 50.0404 42.9736 41.5754
389 2 52.4924 50.9205 36.0421
390 2 52.7008 14.7336 17.2263
391 2 55.8226 14.5491 36.7162
392 2 42.636 53.8499 15.6488
393 2 36.3423 30.2213 42.0197
394 2 10.4735 8.04786 32.6565
395 2 22.3924 29.8551 41.3875
396 2 30.9217 31.7011 30.0122
397 2 6.84057 28.8994 34.6045
398 2 16.4958 21.6294 11.729
399 2 28.4226 55.0214 7.46499
400 2 6.68208 17.936 44.2126
401 2 48.394 44.8621 20.7429
402 2 36.4483 28.3236 16.412
403 2 42.1448 52.913 42.7872
404 2 13.9647 27.5709 40.0714
405 2 9.47656 25.0006 26.8878
406 2 19.1235 54.8787 28.2905
407 2 19.7564 20.5307 48.2174
408 2 23.8176 28.691 26.2811
409 2 38.8536 9.73842 39.6416
410 2 47.9757 39.3799 16.4127
411 2 8.89509 19.7546 47.3572
412 2 25.8553 45.1263 40.1487
413 2 48.3437 12.0835 49.1894
414 2 31.7521 51.5522 16.2592
415 2 42.5653 41.148 54.1167
416 2 33.5398 43.6047 28.7504
417 2 53.0392 37.2889 18.7821
418 2 53.4318 20.9889 28.9798
419 2 30.3403 43.5435 52.6526
420 2 7.89704 32.3774 24.4777
421 2 16.9504 18.3166 12.1255
422 2 26.9314 55.3383 54.6541
423 2 30.7413 25.8951 47.3822
424 2 34.2639 12.3587 40.0963
425 2 43.2462 45.4624 42.1175
426 2 15.5201 32.6287 25.9509
427 2 19.6288 20.7588 20.0178
428 2 52.5964 28.3741 19.7574
429 2 14.55 31.5117 45.5818
430 2 28.9431 50.6314 15.007
431 2 11.8415 20.0166 39.8481
432 2 15.3183 50.415 15.9741
433 2 13.3037 28.7985 23.1886
434 2 49.3229 41.8183 30.5535
435 2 13.8439 40.5291 53.1553
436 2 49.0832 14.3119 22.4651
437 2 10.6497 21.0336 51.9937
438 2 28.8976 52.7275 10.6377
439 2 8.92768 47.331 24.158
440 2 44.355 36.7937 27.8586
441 2 20.8798 40.9269 38.1069
442 2 36.7733 20.6861 48.3986
443 2 40.4786 37.4709 52.0365
444 2 18.4596 6.55897 21.4721
445 2 40.9839 13.7011 20.3493
446 2 41.8504 14.0235 31.1308
447 2 16.2064 36.8253 53.9121
448 2 7.32241 21.477 41.5009
449 2 19.8383 42.1197 14.816
450 2 50.6869 10.2835 48.0113
451 2 43.6438 8.70975 14.1261
452 2 29.0571 39.0136 7.5511
453 2 52.8019 31.8934 49.9812
454 2 26.5999 24.359 26.246
455 2 33.9871 15.9525 25.2383
456 2 19.8471 36.9633 43.7083
457 2 8.44797 14.5873 38.4044
458 2 28.1574 38.9231 27.6373
459 2 40.0035 20.6642 35.7185
460 2 40.2182 33.3581 12.6246
461 2 15.9569 34.8223 35.7836
462 2 7.974 54.4953 53.9059
463 2 38.2153 31.837 20.7118
464 2 20.1712 44.7231 24.5964
465 2 46.981 12.5725 10.3818
466 2 21.1858 7.91509 33.8813
467 2 53.5665 29.3135 43.385
468 2 24.768 10.3638 26.422
469 2 40.9751 32.3898 19.3643
470 2 28.7024 14.8137 35.4898
471 2 22.3625 21.1619 35.1398
472 2 18.7861 40.8468 35.8007
473 2 26.9538 23.4097 7.87703
474 2 49.9455 35.3943 45.1108
475 2 31.4244 49.8188 21.7214
476 2 6.85548 41.7508 44.8346
477 2 9.85632 43.3203 45.2743
478 2 7.96844 52.3522 42.6613
479 2 26.9656 24.5726 48.8725
480 2 11.2408 34.8215 9.05193
481 2 54.7056 42.9267 6.56329
482 2 15.2714 38.05 40.8294
483 2 52.0545 41.9095 43.5458
484 2 35.1063 36.8408 28.9373
485 2 6.43998 31.3314 30.326
486 2 33.0252 54.3745 22.5877
487 2 18.284 28.8414 17.5815
488 2 36.0618 34.0916 51.1989
489 2 45.1691 50.4774 28.9993
490 2 17.0281 11.107 49.8981
491 2 22.5706 45.2114 32.7892
492 2 27.6476 36.4431 16.342
493 2 28.293 44.368 15.7196
494 2 37.182 24.5109 25.5599
495 2 51.1806 23.7254 16.507
496 2 39.6861 28.7471 32.2293
497 2 34.9027 50.9824 18.7483
498 2 7.37469 19.0512 33.0038
499 2 34.1315 12.4089 17.5908
500 2 44.5255 24.9531 7.95411
501 2 9.95765 50.3827 43.2585
502 2 22.0958 16.6905 50.1794
503 2 9.00031 21.9812 16.4941
504 2 17.416 36.7513 42.2604
505 2 55.4733 44.4373 30.8284
506 2 50.7656 33.9656 8.52783
507 2 8.13915 32.8704 43.7509
508 2 38.1379 9.79977 23.7524
509 2 7.89086 12.4188 22.3335
510 2 32.4293 30.6187 15.5888
511 2 14.2991 10.2782 47.1709
512 2 30.9473 19.0284 43.7531
513 2 15.6963 27.9891 18.3955
514 2 38.3454 38.3486 21.3957
515 2 21.826 9.92346 50.0726
516 2 27.2805 40.43 53.9667
517 2 22.5754 45.3699 43.341
518 2 16.0712 47.5375 45.9931
519 2 32.1808 22.7674 48.5697
520 2 33.3483 38.968 7.67305
521 2 51.0245 9.99272 9.54139
522 2 27.5 13.1414 6.72346
523 2 12.1427 19.9365 35.1007
524 2 32.6206 21.4344 20.8317
525 2 39.7113 20.8438 38.3866
526 2 21.5052 35.7071 14.0348
527 2 31.9606 47.0987 30.663
528 2 49.9695 47.5832 41.7201
529 2 26.7835 6.5634 46.8102
530 2 33.5025 18.7196 42.4156
531 2 53.6913 36.8821 27.0806
532 2 22.3563 29.3528 16.2142
533 2 10.7243 20.3298 26.0269
534 2 11.1106 53.8715 30.6883
535 2 45.6804 15.7046 35.2914
536 2 30.9978 35.803 44.7292
537 2 7.69254 32.2331 54.0514
538 2 11.6118 25.1059 6.92386
539 2 40.8867 23.0749 14.3103
540 2 28.0669 9.89621 6.2991
541 2 41.6301 25.0262 54.9168
542 2 18.8326 50.1571 46.5135
543 2 24.9582 54.5471 33.4442
544 2 16.3913 26.4153 22.1551
545 2 10.1167 18.7956 55.8553
546 2 18.8132 47.8037 31.2102
547 2 7.83171 54.496 38.3306
548 2 35.6043 43.4701 38.5594
549 2 45.7058 29.097 28.9095
550 2 38.216 22.8353 30.2574
551 2 52.3685 27.5028 23.9873
552 2 32.1925 20.4401 6.35359
553 2 7.83763 8.71842 34.5439
554 2 55.2518 50.5604 15.7992
555 2 24.0666 53.2281 26.0449
556 2 12.5344 43.6726 24.9677
557 2 44.7354 16.98 29.1452
558 2 46.5169 19.6699 19.3846
559 2 27.7248 50.0468 10.2525
560 2 16.8699 34.5181 16.0671
561 2 45.7394 15.2683 31.7472
562 2 51.5074 12.2783 28.2934
563 2 17.5893 38.4786 6.7732
564 2 21.5621 17.2821 16.8107
565 2 40.9671 48.9226 28.9278
566 2 33.1725 33.8447 11.7378
567 2 9.32454 44.5268 33.0932
568 2 19.9818 45.4691 38.6008
569 2 42.5164 13.4925 12.9116
570 2 35.8956 23.9116 28.6663
571 2 48.0239 7.97847 15.2387
572 2 35.8432 50.6883 14.4012
573 2 19.4443 12.8572 8.45417
574 2 20.7763 51.2361 11.1464
575 2 17.068 18.4231 15.2066
576 2 14.7642 53.3888 28.7306
577 2 15.8956 8.23862 43.3603
578 2 6.45302 8.78666 52.8225
579 2 11.9243 30.1506 9.77286
580 2 55.5781 53.3135 30.6591
581 2 9.71119 15.9891 24.8947
582 2 36.9758 12.2309 18.4858
583 2 49.6188 8.73435 50.6575
584 2 6.84181 16.775 48.9401
585 2 31.8367 55.0239 26.5017
586 2 51.0364 28.5383 55.2457
587 2 40.6338 48.2306 15.8338
588 2 19.7243 45.311 13.7324
589 2 22.5471 39.0578 17.5301
590 2 33.3129 21.741 38.8762
591 2 35.3135 51.1566 39.4448
592 2 40.8329 28.374 40.8748
593 2 11.1877 47.3971 10.4206
594 2 29.0646 24.4718 29.2832
595 2 33.2831 15.2011 30.5236
596 2 32.6446 28.2698 46.8973
597 2 24.5953 53.0173 8.43536
598 2 16.2014 23.7994 27.792
599 2 36.0345 27.383 51.7817
600 2 53.9818 55.5806 24.695
601 2 33.8878 40.4577 20.3083
602 2 30.7604 20.6297 14.6248
603 2 13.7816 7.75774 50.1078
604 2 32.8194 11.6904 22.2539
605 2 34.5347 38.1596 41.0049
606 2 54.879 42.3625 38.2477
607 2 24.5586 46.2829 11.125
608 2 51.0321 23.9868 8.54412
609 2 30.871 16.6222 6.68243
610 2 15.484 16.2219 33.461
611 2 39.8461 31.4559 30.9054
612 2 53.9398 14.0381 9.23697
613 2 52.4265 48.2524 50.4721
614 2 33.1383 25.5271 24.7774
615 2 10.0191 40.9692 49.3345
616 2 45.2079 18.1004 16.9189
617 2 45.9502 30.7568 21.323
618 2 51.8796 23.0786 19.2791
619 2 21.0111 29.1601 43.9893
620 2 31.1849 7.3864 9.91205
621 2 9.36345 9.47763 53.7363
622 2 33.5994 37.161 52.7852
623 2 16.9483 36.4365 11.5087
624 2 16.7951 14.6935 41.7154
625 2 35.058 41.0727 41.088
626 2 7.2001 50.5137 46.6525
627 2 45.0234 18.7313 34.3968
628 2 42.1668 19.3732 16.0013
629 2 53.8544 16.6242 21.346
630 2 10.3956 48.2027 49.7728
631 2 37.1629 29.8039 52.9549
632 2 22.1428 44.3462 36.3567
633 2 45.4959 13.8186 44.6277
634 2 36.7914 54.1927 34.5462
635 2 16.235 19.4857 20.0263
636 2 32.0261 48.3204 19.4546
637 2 21.5164 19.9489 28.3185
638 2 22.7889 52.4201 46.544
639 2 47.919 40.4399 42.0766
640 2 24.705 23.1305 36.026
641 2 11.8049 41.6144 21.3725
642 2 25.4898 49.3532 8.27841
643 2 34.829 25.8258 39.6099
644 2 15.8151 24.1139 30.3759
645 2 19.358 55.603 31.3469
646 2 14.2234 33.7928 8.27923
647 2 9.9762 44.5387 21.5013
648 2 53.3407 11.9962 19.6804
649 2 52.4704 27.8902 50.5832
650 2 31.6299 8.30022 41.191
651 2 47.7116 19.4327 8.13957
652 2 50.1897 17.2322 17.7023
653 2 32.9671 48.947 28.6689
654 2 39.4256 24.5536 45.0528
655 2 46.4501 13.5854 27.2272
656 2 28.2636 10.1184 44.1913
657 2 41.4597 14.9076 54.6127
658 2 36.0173 48.0245 48.9448
659 2 21.1181 10.3692 23.5708
660 2 46.3673 49.6462 39.0675
661 2 26.9806 48.2119 39.5731
662 2 6.21687 10.4513 32.0406
663 2 43.7456 52.1729 37.1754
664 2 17.4843 21.2547 40.3223
665 2 53.0575 38.7809 48.747
666 2 53.9684 25.8373 13.4479
667 2 18.7827 11.1635 40.9879
668 2 43.0239 6.81617 23.0095
669 2 36.5783 40.7762 7.20555
670 2 37.6225 16.7332 46.4829
671 2 7.84978 12.4841 25.51
672 2 45.9682 39.0789 40.9022
673 2 17.091 53.5768 37.3984
674 2 32.8594 22.7745 26.3641
675 2 25.3837 38.3793 53.9005
676 2 26.4456 42.2109 6.40452
677 2 30.4636 25.0913 40.7382
678 2 40.2388 42.8833 41.1599
679 2 46.0901 42.8102 47.7857
680 2 22.3371 54.1309 17.2901
681 2 44.5378 40.5222 25.9314
682 2 36.0168 20.6504 53.7273
683 2 12.4096 13.8634 23.7293
684 2 8.07564 40.9128 15.6292
685 2 21.2261 49.2331 24.4032
686 2 40.0312 19.2413 45.8718
687 2 26.2428 17.2537 49.4202
688 2 49.8163 43.479 18.243
689 2 35.558 20.3072 15.2055
690 2 26.9921 37.3584 50.0257
691 2 14.5668 26.0696 10.3602
692 2 9.2248 15.8235 35.53
693 2 34.9589 49.9259 52.2508
694 2 48.305 48.5004 26.7473
695 2 12.9448 50.7349 46.6162
696 2 18.2985 26.8061 36.6142
697 2 37.7422 46.0476 46.3766
698 2 43.2643 24.8989 31.4332
699 2 32.5028 35.8045 24.6114
700 2 35.2514 18.3314 9.65119
701 2 46.1323 28.4281 23.3807
702 2 52.2896 41.8706 17.9366
703 2 43.194 37.2027 43.5691
704 2 6.87718 52.9244 17.7952
705 2 37.6707 10.7303 21.1944
706 2 13.1728 23.979 23.7546
707 2 44.17 49.4859 33.1654
708 2 52.4639 8.42839 37.296
709 2 14.0442 36.1479 15.2598
710 2 37.0292 8.25954 15.6524
711 2 49.3214 15.7309 46.5337
712 2 16.8743 7.8814 13.3076
713 2 11.2734 16.1168 32.6191
714 2 51.4971 50.9152 31.313
715 2 37.1004 47.4658 35.9355
716 2 18.862 25.0262 14.0818
717 2 55.1243 46.9263 48.557
718 2 46.2576 15.102 7.08006
719 2 7.85048 27.9142 11.5908
720 2 29.1227 8.97276 48.8976
721 2 46.7941 36.507 36.0282
722 2 50.2717 27.7729 28.8677
723 2 43.6353 13.3279 26.9259
724 2 17.6737 39.8516 41.131
725 2 50.9731 19.837 40.3779
726 2 37.6907 19.997 17.02
727 2 51.8254 33.2678 44.5124
728 2 31.5267 40.5636 22.2572
729 2 21.6727 8.3392 39.1169
730 2 30.987 51.8211 12.7314
731 2 8.92893 12.2296 46.6263
732 2 21.6964 15.6718 19.7809
733 2 18.5606 27.9172 45.1401
734 2 18.4769 53.4094 44.9602
735 2 41.8189 41.976 14.1998
736 2 43.0931 46.2088 54.7467
737 2 18.6346 14.2786 50.6651
738 2 36.3549 29.5013 31.6964
739 2 26.1156 15.6915 8.48835
740 2 7.93875 16.8693 22.4554
741 2 7.04926 37.553 15.0875
742 2 43.3657 48.8968 48.7644
743 2 11.8227 37.684 6.1438
744 2 52.465 13.2393 51.2714
745 2 42.8404 22.7921 42.4076
746 2 52.6847 46.263 41.6626
747 2 33.416 35.321 15.5275
748 2 46.2666 51.7672 6.17008
749 2 48.5718 50.2777 52.4584
750 2 21.5631 14.5902 46.0124
751 2 49.4173 28.2118 50.6262
752 2 51.0257 20.5516 30.0109
753 2 29.8351 21.9404 17.1224
754 2 30.37 31.8265 43.3754
755 2 53.1907 31.7877 33.2201
756 2 42.6203 18.1674 32.924
757 2 49.3726 23.7731 46.1376
758 2 18.4852 52.0308 7.51835
759 2 37.2201 16.0714 20.2552
760 2 22.2896 49.2264 50.0555
761 2 17.157 11.0975 15.6024
762 2 8.48183 18.2077 35.8434
763 2 52.5988 35.3511 39.8227
764 2 49.1477 45.2717 16.014
765 2 40.5191 13.9803 23.6556
766 2 53.0103 54.73 27.6429
767 2 39.5408 23.8363 23.5316
768 2 6.24935 10.2018 42.6684
769 2 37.3646 21.1347 22.1932
770 2 7.33907 49.1848 9.24454
771 2 46.7679 52.9317 32.6438
772 2 27.3761 19.3998 38.7134
773 2 49.469 37.5601 6.47454
774 2 55.2313 55.1228 50.3027
775 2 40.6122 45.1104 11.7682
776 2 11.5134 39.1903 44.2914
777 2 11.125 41.6849 18.2427
778 2 41.0564 49.594 11.0434
779 2 36.2009 38.49 45.3883
780 2 36.4911 22.4835 50.5227
781 2 38.3547 51.616 46.2699
782 2 15.1129 13.1536 33.1776
783 2 39.3496 12.9095 10.9878
784 2 45.256 18.5408 26.5729
785 2 45.2272 39.6829 21.7007
786 2 11.1924 24.3874 42.3654
787 2 39.9003 39.6636 13.0509
788 2 54.3385 48.7232 29.7449
789 2 13.1877 55.6834 52.828
790 2 30.283 30.0669 45.4472
791 2 40.4285 38.5726 37.9679
792 2 46.6749 29.2753 49.3865
793 2 45.5849 43.9987 54.9537
794 2 32.2181 38.1174 26.6232
795 2 47.0211 39.8259 55.5988
796 2 47.4601 23.5805 29.1218
797 2 37.7642 17.8361 35.3035
798 2 55.4048 42.7185 14.4974
799 2 45.6379 28.4087 34.7434
800 2 21.1148 26.5658 38.0523
801 2 49.0266 34.5033 41.9561
802 2 45.6857 25.743 36.0798
803 2 30.8009 55.2789 29.9758
804 2 53.7894 50.5278 11.515
805 2 54.1005 23.5429 38.7854
806 2 14.7362 30.8838 40.9186
807 2 37.9207 38.8722 29.3208
808 2 52.0014 29.4429 37.3579
809 2 19.0764 42.2249 49.2996
810 2 21.8715 16.2471 10.7978
811 2 27.6261 54.3866 14.4437
812 2 47.8835 45.8936 35.3728
813 2 16.6029 12.8383 30.2192
814 2 21.3444 6.9606 27.6659
815 2 19.1827 37.993 20.0637
816 2 33.0924 40.3239 17.4346
817 2 15.7937 55.8606 49.2904
818 2 6.73801 13.9345 19.3962
819 2 48.9218 17.4698 32.632
820 2 6.70651 38.3872 17.9013
821 2 33.1003 10.2795 19.6806
822 2 8.807 23.8353 8.34092
823 2 24.6524 34.1842 33.9322
824 2 34.3336 53.1123 31.2066
825 2 42.7615 10.0162 51.2532
826 2 50.5561 22.455 38.9109
827 2 18.3365 43.0544 34.1784
828 2 30.8098 12.404 8.77718
829 2 9.2608 10.5161 26.4948
830 2 8.01596 33.3903 15.3049
831 2 47.6816 12.1296 41.7983
832 2 35.6907 42.0596 54.1
833 2 22.4714 33.5414 39.5631
834 2 40.6399 26.9769 53.0929
835 2 53.6561 41.3538 24.9052
836 2 35.989 13.8225 48.1375
837 2 41.6583 52.0131 51.1613
838 2 10.284 10.5023 22.4377
839 2 8.71085 37.7126 44.859
840 2 44.9222 46.7873 47.0931
841 2 25.2703 23.5761 50.9965
842 2 53.9135 28.0237 9.6733
843 2 8.91357 19.7468 13.9936
844 2 49.9251 54.4521 41.0329
845 2 21.6324 42.2465 51.5805
846 2 15.4395 54.5735 16.2448
847 2 53.1304 34.5351 28.6421
848 2 17.0105 40.4933 52.3219
849 2 18.5292 31.4022 16.0831
850 2 15.1896 31.6914 36.9385
851 2 41.1301 14.3764 40.4397
852 2 13.7714 11.1673 20.4061
853 2 40.9623 51.1027 6.95469
854 2 54.2279 40.3035 45.2133
855 2 33.617 41.6313 37.2309
856 2 13.234 26.7122 47.3838
857 2 13.5431 21.097 11.5951
858 2 26.4289 34.5116 13.6169
859 2 14.0903 39.3404 6.51522
860 2 30.3914 37.3579 46.9856
861 2 46.6838 49.7409 33.1065
862 2 19.7556 10.8331 38.0246
863 2 25.3842 14.7579 35.115
864 2 30.6234 45.6073 13.9463
865 2 26.4102 27.2377 27.7771
866 2 8.81512 52.6355 49.7757
867 2 13.1378 33.0937 28.1397
868 2 37.9921 33.6265 33.9123
869 2 31.0796 24.5689 37.9415
870 2 13.6067 13.2136 11.1295
871 2 6.63294 55.3397 42.8087
872 2 47.4519 29.58 37.8137
873 2 14.3104 15.0303 51.598
874 2 54.9753 22.0908 10.2113
875 2 35.9131 36.5119 20.697
876 2 37.8928 24.3634 37.4315
877 2 19.0054 43.1514 29.0372
878 2 20.6814 8.32563 9.4368
879 2 21.0256 46.9939 53.5076
880 2 27.6708 29.4391 47.3373
881 2 13.6264 35.8519 11.9873
882 2 23.3109 33.1089 16.0067
883 2 7.13014 51.6467 20.5373
884 2 27.3269 50.7563 6.89655
885 2 26.1886 43.6613 51.074
886 2 29.7958 13.9998 13.1772
887 2 41.4465 48.4594 33.9153
888 2 39.194 26.3801 25.5299
889 2 47.0039 26.6452 31.071
890 2 38.5714 41.1114 38.9987
891 2 49.7515 9.10977 38.2453
892 2 49.1044 44.7177 51.7569
893 2 49.9007 39.1113 11.9071
894 2 51.5119 34.2244 32.9966
895 2 39.6213 45.7936 42.5179
896 2 42.2913 34.0038 33.5899
897 2 28.2811 29.3882 26.4568
898 2 14.9762 42.8835 23.6612
899 2 6.44464 38.7501 49.6269
900 2 46.528 53.3 45.7537
901 2 55.7196 42.1393 47.6637
902 2 54.8904 11.6158 47.9521
903 2 49.5389 49.4932 15.6074
904 2 34.1358 24.9823 32.6928
905 2 53.1093 26.1985 39.0312
906 2 22.5759 18.9168 53.1644
907 2 23.3194 46.0329 45.9647
908 2 40.6048 9.14341 18.6494
909 2 54.0963 17.4036 25.5477
910 2 34.3036 6.634 53.5694
911 2 31.5164 29.2542 25.9102
912 2 6.36332 10.6965 39.7778
913 2 20.6248 26.5618 7.34483
914 2 31.5245 24.5335 20.2248
915 2 13.1631 50.4821 17.7708
916 2 15.4134 20.5296 52.7799
917 2 32.9507 8.04579 30.3101
918 2 19.8729 11.9013 48.8581
919 2 21.4443 30.0225 54.2018
920 2 47.2003 6.44992 41.6053
921 2 23.2823 44.9598 51.1024
922 2 11.749 40.6252 55.0909
923 2 50.3446 6.40971 31.3633
924 2 44.5613 15.8399 13.3605
925 2 8.18736 24.2437 11.0044
926 2 40.2376 45.3732 28.2466
927 2 33.7536 34.2856 48.9881
928 2 39.403 38.626 42.6907
929 2 29.3665 12.8562 29.4141
930 2 28.8331 51.5183 26.2162
931 2 28.1158 45.4839 25.187
932 2 26.557 54.6983 19.963
933 2 35.3454 32.6633 55.343
934 2 34.9065 16.4653 49.641
935 2 33.1625 22.3291 45.9071
936 2 18.6803 37.8739 49.1088
937 2 30.5228 14.8536 19.1362
938 2 15.2913 13.01 13.4939
939 2 51.3673 53.5753 46.8542
940 2 24.773 14.9137 53.1328
941 2 20.3234 6.44117 44.2385
942 2 10.7356 33.9953 24.9919
943 2 24.6892 29.2972 14.1773
944 2 48.3003 15.1934 54.3985
945 2 35.3093 22.0196 17.4999
946 2 46.7732 24.9878 47.9578
947 2 32.0127 50.6606 49.1713
948 2 31.2852 32.836 45.975
949 2 27.7481 6.64659 39.8018
950 2 51.9759 23.7003 45.6989
951 2 34.8344 37.6738 33.8984
952 2 35.7761 16.4679 42.8282
953 2 20.5352 34.1099 34.1142
954 2 24.3905 34.9267 36.9707
955 2 7.60825 43.7739 54.6991
956 2 45.971 55.81 39.0653
957 2 32.3285 36.8258 41.5973
958 2 39.7795 35.4252 45.5616
959 2 23.6487 37.5614 21.952
960 2 41.9675 39.6999 50.4532
961 2 44.2766 25.9635 55.1484
962 2 34.2493 25.5712 53.6812
963 2 27.0708 36.8636 11.0467
964 2 35.1218 41.4031 48.8259
965 2 26.3191 16.8701 38.6718
966 2 14.9275 20.6077 50.0723
967 2 31.7122 11.9029 47.4461
968 2 41.7935 25.7277 33.751
969 2 22.2691 26.8603 28.207
970 2 39.6305 12.5919 18.0582
971 2 53.3471 16.2925 39.1251
972 2 38.8918 24.8161 18.8912
973 2 54.5741 25.1371 10.8669
974 2 37.6107 6.31394 23.8681
975 2 20.6982 31.7821 37.5436
976 2 18.2104 10.4718 43.8625
977 2 24.3862 11.3733 23.07
978 2 33.3268 28.2153 55.4529
979 2 19.6788 33.8511 29.8066
980 2 26.6883 41.8961 31.0969
981 2 49.0386 14.3815 7.38281
982 2 18.6526 18.3632 31.1481
983 2 48.4617 48.9739 35.7464
984 2 15.2229 10.9794 44.083
985 2 35.3123 51.1805 9.51546
986 2 37.1616 10.5492 37.4306
987 2 18.6733 52.8958 47.7668
988 2 17.5212 6.80287 7.31073
989 2 38.3153 6.85864 43.0945
990 2 25.3421 24.5915 12.1306
991 2 42.8009 11.7334 29.6824
992 2 38.1101 53.4555 53.5769
993 2 42.916 11.0004 55.6852
994 2 39.6732 6.5337 52.0045
995 2 8.07242 21.0009 36.5896
996 2 7.66467 15.7779 11.9347
997 2 32.5444 51.5197 23.8669
998 2 42.4523 18.4229 37.8621
999 2 41.2499 41.9976 6.58274
1000 2 48.0818 51.8176 28.5951
1001 2 49.0747 33.4778 34.6951
1002 2 32.1651 43.1259 13.7652
1003 2 29.5182 28.7813 8.26585
1004 2 6.19154 40.7021 33.5257