ITEM: TIMESTEP
0
ITEM: NUMBER OF ATOMS
9088
ITEM: BOX BOUNDS xy xz yz pp pp pp
6.0697472258427156e+00 5.5861190566285245e+01 -5.7126453481435692e-15
6.0697472258427210e+00 5.5861190566285245e+01 0.0000000000000000e+00
6.0697472258427210e+00 5.5861190566285245e+01 0.0000000000000000e+00
ITEM: ATOMS id type x y z
1 2 28.0978 47.7884 41.7096
2 2 49.0262 37.7147 11.8137
3 2 37.0373 8.55626 49.5128
4 2 11.1504 43.8235 54.4999
5 2 7.74927 32.4465 7.95094
6 2 28.872 26.7919 31.2243
7 2 10.471 37.1735 48.2478
8 2 21.1588 8.25959 44.1429
9 2 52.0246 20.6546 6.83519
10 2 45.6031 17.3013 8.95663
11 2 21.8282 8.86224 52.9248
12 2 49.0243 22.8478 24.8411
13 2 7.56122 46.7838 28.8378
14 2 42.8465 28.782 9.64842
15 2 37.143 7.75011 23.966
16 2 32.0118 15.627 31.2371
17 2 10.7965 35.6051 35.2309
18 2 28.2795 22.6912 8.84549
19 2 11.3721 30.7439 53.2334
20 2 12.8173 31.7473 43.9283
21 2 17.4332 17.9876 21.9962
22 2 22.4941 22.1873 40.6917
23 2 19.0188 35.5597 34.3039
24 2 51.3592 39.5467 47.0545
25 2 34.4547 43.3965 28.3461
26 2 36.884 6.68203 32.8749
27 2 25.9555 50.2014 19.0288
28 2 41.3259 43.7058 55.6289
29 2 13.9184 15.1266 35.7054
30 2 8.52266 9.56815 24.2862
31 2 33.1593 46.6103 13.4675
32 2 53.2743 42.8558 50.9841
33 2 53.2506 9.83728 40.5863
34 2 31.5065 33.896 36.9485
35 2 25.4453 35.5364 16.2012
36 2 33.6625 51.6979 7.60954
37 2 31.5796 46.8818 45.9773
38 2 16.9891 54.8611 24.2903
39 2 25.644 8.62027 52.9865
40 2 20.3166 37.8145 22.625
41 2 44.1341 48.6583 40.8149
42 2 14.6292 53.3213 43.1673
43 2 11.5048 44.1689 45.9456
44 2 22.3762 31.1587 24.3611
45 2 17.8149 23.0531 13.2828
46 2 38.0899 10.5648 7.48376
47 2 9.02012 50.9561 36.9642
48 2 23.9923 23.1105 27.6008
49 2 25.5812 40.024 6.47718
50 2 43.7717 19.5515 22.1833
51 2 19.7603 29.3237 9.06456
52 2 19.2471 28.3086 16.716
53 2 10.8758 35.3817 10.9229
54 2 37.4825 53.0999 23.9379
55 2 8.82623 21.4232 54.5889
56 2 41.6331 42.4444 12.505
57 2 44.4751 29.352 46.9682
58 2 45.5582 34.8044 54.6368
59 2 9.53055 47.1278 49.8976
60 2 45.0118 27.3642 17.0031
61 2 26.4789 30.3642 31.6425
62 2 18.2845 37.7456 42.113
63 2 46.0297 39.0013 11.9639
64 2 12.4192 35.1477 52.1745
65 2 35.9037 27.5309 49.3954
66 2 35.215 11.2433 27.5959
67 2 53.2869 47.7785 18.6507
68 2 44.2633 18.2884 53.0882
69 2 21.7535 41.4951 28.8452
70 2 50.3704 38.5143 9.09658
71 2 11.9244 37.6972 32.8359
72 2 27.6852 37.7966 50.7649
73 2 46.3841 37.7891 18.6158
74 2 19.8998 46.7115 22.4731
75 2 46.2949 11.7656 30.2777
76 2 48.2558 40.0991 18.5904
77 2 23.0668 11.668 27.8995
78 2 36.0951 22.6636 53.7948
79 2 42.2157 8.38406 28.8475
80 2 31.2576 52.3825 9.80146
81 2 28.4642 40.3018 24.4311
82 2 13.9095 7.34841 49.5561
83 2 14.3401 35.3321 25.4099
84 2 36.803 35.3348 11.7653
85 2 28.9329 40.8951 42.7265
86 2 26.1926 36.9576 30.4623
87 2 18.7409 31.6684 55.2989
88 2 7.44688 18.737 14.1427
89 2 48.8464 47.213 39.6027
90 2 20.9081 20.5979 21.0039
91 2 29.1657 8.97859 41.3385
92 2 13.6004 13.4564 27.0303
93 2 48.9287 51.8667 31.3099
94 2 38.7884 44.2965 54.9258
95 2 35.2686 10.2347 47.299
96 2 47.917 46.3487 27.3096
97 2 33.3588 37.263 9.25683
98 2 14.443 23.6521 49.5741
99 2 17.7467 10.9694 27.9081
100 2 49.4651 19.6055 24.8296
101 2 23.2233 29.1387 8.4948
102 2 38.2362 52.2097 16.2379
103 2 50.951 26.0837 51.6458
104 2 14.0861 36.6693 42.2389
105 2 6.31368 27.0079 20.9414
106 2 44.9812 44.5944 27.5831
107 2 34.5412 54.4589 17.2663
108 2 25.9279 49.3198 48.0969
109 2 8.03336 13.217 52.4528
110 2 15.4662 29.9628 8.71616
111 2 9.07202 19.1311 6.45106
112 2 25.8251 26.1311 8.27841
113 2 32.1249 46.8623 53.1598
114 2 25.9271 55.6277 27.8781
115 2 31.3037 53.8448 26.0462
116 2 30.5485 8.13794 49.2555
117 2 19.1514 24.9191 43.4844
118 2 20.8792 41.5089 14.7732
119 2 53.1985 11.697 53.3997
120 2 12.3306 39.1302 21.8397
121 2 52.7644 21.4835 45.1776
122 2 18.8244 55.3732 9.24665
123 2 32.6793 11.0414 23.9085
124 2 18.6437 40.2612 8.56483
125 2 51.5469 25.9732 13.3228
126 2 28.5203 55.2792 50.2924
127 2 55.2939 20.7663 41.6193
128 2 41.0549 43.0235 35.2118
129 2 21.5411 33.3988 15.065
130 2 36.7663 29.7246 47.6103
131 2 47.564 18.2382 16.3855
132 2 20.2281 8.46622 8.05038
133 2 26.8691 40.0207 14.9027
134 2 15.3763 40.9452 43.8556
135 2 22.6606 54.85 47.1588
136 2 48.0585 6.38799 19.1247
137 2 9.97828 48.0627 27.0981
138 2 36.6798 22.3886 33.3109
139 2 47.2846 20.4407 37.1067
140 2 55.2669 39.5562 27.4829
141 2 34.9763 36.1728 29.509
142 2 17.6092 10.2924 48.3252
143 2 39.1468 23.7557 48.9377
144 2 7.61775 17.8036 35.4164
145 2 30.5721 23.4437 24.2067
146 2 15.5656 12.7012 48.9941
147 2 24.528 46.3945 32.8637
148 2 13.3485 27.1435 52.6577
149 2 21.7808 20.7817 6.28224
150 2 11.3863 41.6104 40.9588
151 2 55.1273 45.254 12.9343
152 2 9.29395 12.8623 29.8508
153 2 10.3289 49.1377 9.55261
154 2 28.9451 25.707 40.7911
155 2 26.3575 12.7182 20.2531
156 2 24.0641 50.1049 12.3528
157 2 22.169 8.57821 27.534
158 2 38.4702 42.8116 25.8901
159 2 12.5859 12.3706 35.9909
160 2 18.9692 21.5192 10.6681
161 2 20.3372 40.7348 55.183
162 2 32.9404 21.2578 20.2092
163 2 34.6622 21.5262 38.6688
164 2 24.0754 7.85113 41.2051
165 2 21.7013 32.1763 36.2012
166 2 17.6724 37.7611 53.7019
167 2 15.2054 50.4903 55.5238
168 2 48.8064 12.6101 49.6158
169 2 26.3729 40.1798 22.5833
170 2 54.9721 38.9063 22.667
171 2 12.0544 10.5244 53.1304
172 2 7.94651 31.9136 49.9979
173 2 52.4787 28.3897 37.9199
174 2 7.27008 20.6415 52.4114
175 2 8.37423 39.4942 19.6472
176 2 37.4565 26.3024 44.7668
177 2 39.547 53.7073 53.7348
178 2 24.7831 46.1597 37.9535
179 2 10.435 49.8758 41.94
180 2 48.7593 53.7357 28.8584
181 2 49.8742 28.7666 39.6696
182 2 30.9643 39.0482 23.7264
183 2 38.356 47.07 24.7841
184 2 48.4431 35.4209 21.0912
185 2 27.0179 28.8118 47.239
186 2 43.4249 21.4118 55.5322
187 2 23.8311 48.0022 35.8002
188 2 40.2225 45.8913 42.4791
189 2 45.0886 50.6944 29.0561
190 2 23.9383 35.981 53.0261
191 2 15.0636 6.81508 17.3192
192 2 27.8915 15.4912 11.4394
193 2 45.661 40.3305 39.41
194 2 31.5636 13.52 26.2005
195 2 44.6709 30.2016 30.3943
196 2 21.5427 16.8484 23.1564
197 2 10.5093 17.3018 8.04662
198 2 31.4022 28.2905 19.407
199 2 31.9732 37.8818 14.9623
200 2 47.5699 49.4482 31.3138
201 2 50.5937 44.3905 12.2042
202 2 17.7516 31.0048 36.1269
203 2 14.6017 41.4255 21.8822
204 2 28.3008 9.54519 22.7521
205 2 14.6346 17.7198 45.8175
206 2 35.4506 24.9797 13.01
207 2 49.2813 7.12916 42.2517
208 2 9.13504 7.01785 21.6792
209 2 45.9716 50.7785 50.6842
210 2 6.52454 24.2691 14.95
211 2 37.55 34.9786 51.2263
212 2 32.6776 52.4826 28.4343
213 2 52.6968 10.2875 43.5482
214 2 53.1659 25.645 6.84894
215 2 51.2713 43.2268 15.6938
216 2 39.8864 39.8404 13.1205
217 2 45.5119 22.3836 34.0721
218 2 16.0646 37.4783 11.9615
219 2 45.6399 35.0918 18.9203
220 2 13.9545 35.0286 21.1898
221 2 13.0097 44.1676 21.0428
222 2 36.99 18.5644 11.5949
223 2 22.307 17.9815 8.28374
224 2 55.6012 44.7464 47.84
225 2 12.4013 51.0538 39.8648
226 2 35.5854 11.6699 11.0105
227 2 40.9348 14.425 17.354
228 2 21.2293 7.82643 38.9371
229 2 21.7617 24.2471 30.5463
230 2 20.306 33.094 22.5314
231 2 38.272 38.2364 8.86891
232 2 23.6713 47.0541 8.24075
233 2 37.8631 54.6753 10.6813
234 2 7.30892 9.5364 31.8325
235 2 42.7044 7.63577 36.3806
236 2 25.2025 8.41305 11.4822
237 2 13.704 47.6054 29.3887
238 2 32.5996 6.65461 51.8818
239 2 11.9033 40.4185 43.7159
240 2 49.1604 17.0329 33.9478
241 2 20.3238 53.3675 35.5728
242 2 21.1046 13.0555 8.60744
243 2 13.0721 19.5945 44.1717
244 2 15.3055 45.735 53.8813
245 2 36.2229 40.1877 22.4065
246 2 9.22307 35.9539 28.6744
247 2 44.5907 29.4693 14.2359
248 2 46.313 43.6307 35.9908
249 2 38.8812 49.1696 17.5859
250 2 46.1564 22.9765 44.6916
251 2 16.8327 32.2929 7.63691
252 2 48.9167 25.8495 31.3488
253 2 7.24341 52.8238 50.8381
254 2 6.41434 32.3979 30.8204
255 2 22.9174 51.2187 9.61862
256 2 6.324 37.9718 47.7232
257 2 10.498 23.8055 31.7358
258 2 11.7403 44.9163 30.0061
259 2 47.2111 42.3844 9.68371
260 2 28.531 55.1991 43.4642
261 2 50.4165 50.359 15.8289
262 2 41.1773 20.4264 45.5893
263 2 13.9206 51.2623 47.215
264 2 48.3236 26.2265 6.51424
265 2 24.3203 47.7958 50.6986
266 2 51.3954 23.2434 34.832
267 2 47.7536 10.9185 42.7533
268 2 51.1451 48.6074 46.3842
269 2 17.7597 24.025 10.05
270 2 28.8672 16.5206 38.8182
271 2 6.84113 17.7743 38.5786
272 2 50.8299 32.9556 23.1767
273 2 17.1791 53.41 38.9115
274 2 29.1988 52.7455 17.8338
275 2 44.1821 19.8327 38.5387
276 2 6.24049 40.8965 25.3341
277 2 39.5755 48.2473 20.6589
278 2 7.55599 40.4172 8.39311
279 2 44.2801 8.17483 42.959
280 2 26.9622 32.5465 16.5859
281 2 24.4953 32.1309 14.6119
282 2 24.0111 33.8894 24.8003
283 2 27.081 39.3924 53.0694
284 2 8.73385 16.6829 31.625
285 2 40.613 11.0315 26.5723
286 2 16.5527 29.5103 15.6715
287 2 49.3048 36.9185 50.5996
288 2 47.894 39.3119 54.982
289 2 18.2749 25.5552 40.393
290 2 48.9826 37.2584 47.566
291 2 11.7503 17.4539 21.2947
292 2 51.6701 15.205 55.4896
293 2 18.5477 25.3256 15.5002
294 2 55.25 41.7579 16.1512
295 2 28.2434 34.4044 43.0928
296 2 14.1332 16.8704 12.5994
297 2 26.8683 13.0717 13.399
298 2 48.6613 28.7814 15.4116
299 2 28.708 8.64084 25.7142
300 2 36.0331 19.4698 40.6686
301 2 32.8098 9.70481 48.0969
302 2 42.9776 15.3479 36.8131
303 2 19.6161 27.3223 36.6074
304 2 27.3586 28.5716 29.2165
305 2 24.9416 16.0368 19.5731
306 2 42.8074 47.0734 38.5864
307 2 22.0448 29.1783 30.5682
308 2 15.422 10.3293 30.3737
309 2 34.059 14.9169 27.6871
310 2 54.3251 24.3483 49.8113
311 2 9.5196 36.4248 16.9361
312 2 39.5707 24.8125 22.2587
313 2 21.7105 6.07984 14.7231
314 2 39.3513 17.4038 50.2042
315 2 48.9996 51.1057 18.9293
316 2 46.1448 13.5695 16.573
317 2 39.7706 24.9703 15.4302
318 2 12.4156 17.9026 26.0488
319 2 53.2174 53.385 30.9691
320 2 48.5571 37.0815 29.1
321 2 42.8887 23.1735 53.4322
322 2 8.93562 39.494 44.521
323 2 43.647 33.3156 53.6703
324 2 40.9906 13.3965 20.4768
325 2 22.1592 55.1258 30.6433
326 2 16.6955 9.363 22.8136
327 2 31.6782 14.6985 35.2496
328 2 15.8496 54.0812 19.0296
329 2 39.0861 20.7198 26.0728
330 2 32.1532 6.74958 17.7848
331 2 47.2938 26.9639 19.2961
332 2 41.8398 24.0392 11.029
333 2 13.9297 46.9228 34.0376
334 2 12.9985 30.1896 35.5902
335 2 42.7075 19.5481 32.0948
336 2 25.3733 13.4608 29.5724
337 2 19.661 40.421 44.5972
338 2 53.0278 32.5784 51.1573
339 2 31.8341 31.5398 18.5652
340 2 54.1719 47.1503 29.9073
341 2 8.89324 21.5425 45.3177
342 2 40.6033 13.1178 33.0442
343 2 41.4345 35.486 11.7807
344 2 53.8149 15.8994 32.7769
345 2 11.3699 21.9132 7.03259
346 2 52.3067 19.336 46.9202
347 2 55.1855 41.4164 44.3316
348 2 40.2622 50.4858 44.7534
349 2 22.0954 8.91019 50.0467
350 2 32.4782 24.1302 44.1293
351 2 47.7522 9.20827 50.2811
352 2 24.656 14.7969 34.8305
353 2 24.7958 44.4571 6.76571
354 2 41.6292 26.8901 49.2114
355 2 17.062 47.7007 23.7031
356 2 38.9447 44.4474 46.9894
357 2 23.6969 54.0152 42.7224
358 2 47.4999 37.2768 45.0266
359 2 10.6693 35.8923 37.9649
360 2 12.4352 47.4605 7.17923
361 2 39.5323 17.7266 40.3156
362 2 17.786 14.345 52.1567
363 2 38.2902 24.8541 17.8135
364 2 16.8 47.6345 18.7237
365 2 17.498 23.7943 31.1273
366 2 11.5139 7.42238 37.2596
367 2 45.0511 46.1585 55.2092
368 2 16.1372 43.1508 32.3221
369 2 19.8317 46.1123 34.1722
370 2 54.0812 27.5354 12.3808
371 2 55.6003 43.8551 9.42359
372 2 55.8167 11.8679 18.8908
373 2 17.255 50.5195 28.4569
374 2 34.9741 45.6672 37.4256
375 2 25.7434 31.8992 54.4466
376 2 26.221 20.0997 21.5472
377 2 9.39659 10.7027 6.65479
378 2 18.8313 50.6766 39.2085
379 2 15.9561 35.5596 33.138
380 2 51.3258 50.8322 26.2105
381 2 8.89032 9.65834 14.8839
382 2 13.1583 36.8026 49.4286
383 2 54.0358 20.6997 18.0862
384 2 13.0126 44.419 35.9137
385 2 6.31107 36.3707 6.25536
386 2 38.6878 46.7681 40.1284
387 2 42.6269 43.7621 41.9227
388 2 7.33643 24.8816 17.6978
389 2 13.0902 38.9279 12.221
390 2 9.93231 48.0997 46.5955
391 2 10.2113 43.6349 16.6442
392 2 49.0936 40.9987 41.4717
393 2 34.0504 9.25487 18.3463
394 2 17.698 44.0566 6.69209
395 2 27.5207 16.005 19.0867
396 2 34.7435 20.7873 10.121
397 2 7.94189 19.0615 17.9765
398 2 25.9354 43.684 40.8266
399 2 30.9743 38.6356 36.1507
400 2 13.0658 52.9158 18.015
401 2 7.94786 27.5704 49.6076
402 2 43.8867 17.4536 40.629
403 2 55.6193 43.0738 20.8267
404 2 20.4631 13.8059 14.6408
405 2 16.3425 9.51605 6.15092
406 2 22.6542 41.4224 9.8588
407 2 28.7245 50.0293 25.6919
408 2 32.9954 14.2422 16.2592
409 2 44.9663 46.4793 15.6623
410 2 49.5628 23.9396 39.907
411 2 16.0539 6.97482 31.0711
412 2 23.6873 32.5537 19.5225
413 2 54.4359 46.7952 25.557
414 2 42.6478 37.0578 37.8749
415 2 51.1176 25.9059 38.4631
416 2 42.6925 26.3535 55.3431
417 2 10.742 21.2235 47.8547
418 2 12.1354 6.17808 9.09942
419 2 33.7663 28.6273 33.5892
420 2 13.516 14.4314 51.5697
421 2 21.5561 47.5997 42.0969
422 2 33.1635 46.3831 28.1683
423 2 39.0937 20.4147 22.7667
424 2 42.6873 48.965 25.1227
425 2 6.85414 35.0879 13.9553
426 2 18.5219 17.7726 53.3448
427 2 24.9722 13.9659 44.3998
428 2 8.51639 14.9462 43.4558
429 2 18.5342 13.4267 20.881
430 2 41.4752 38.4022 42.3839
431 2 20.3851 53.6841 16.1954
432 2 18.035 31.8523 44.3812
433 2 17.3929 9.05869 53.4762
434 2 55.7189 29.9462 8.21164
435 2 23.3454 26.8659 30.583
436 2 52.9164 52.8791 48.9968
437 2 17.0932 54.1825 30.1796
438 2 35.6464 42.0085 40.3562
439 2 14.5009 32.0696 54.7057
440 2 52.059 23.1298 54.0209
441 2 30.0482 26.6749 17.4657
442 2 36.9604 13.0958 18.647
443 2 48.0289 21.8125 32.1308
444 2 26.3929 34.8055 50.8706
445 2 43.7407 51.4737 41.5932
446 2 51.421 52.8416 9.60895
447 2 22.0646 20.0527 24.7511
448 2 12.0782 8.14596 20.9777
449 2 24.6216 24.0787 43.5081
450 2 18.63 44.851 31.0069
451 2 50.6078 41.04 44.0612
452 2 39.6707 29.7454 35.5392
453 2 15.5335 22.1967 30.0899
454 2 34.4931 9.75406 51.9752
455 2 42.1492 52.1698 53.2594
456 2 19.9535 26.2652 9.4083
457 2 17.2034 51.9605 17.7818
458 2 37.4064 24.3015 51.4635
459 2 46.0539 9.93909 9.00911
460 2 51.3706 21.9913 40.9915
461 2 25.5103 24.9728 14.1184
462 2 17.121 39.4878 24.1703
463 2 45.9577 21.3888 50.3177
464 2 25.4587 25.1966 55.4181
465 2 48.4024 51.9071 40.2371
466 2 27.2966 44.319 13.9409
467 2 13.1595 19.7023 21.9922
468 2 34.8495 6.82435 50.35
469 2 46.2139 6.47488 49.99
470 2 38.4049 52.6282 12.7822
471 2 33.694 6.62343 10.1264
472 2 31.859 25.8266 15.0017
473 2 43.5482 17.1623 34.7208
474 2 12.0062 26.7439 22.9966
475 2 33.4765 31.8438 49.896
476 2 9.47477 27.3494 21.4278
477 2 28.5927 38.1737 20.5731
478 2 18.1434 36.919 23.9259
479 2 31.5802 8.86853 27.4373
480 2 16.2671 16.8394 34.5558
481 2 14.5231 33.4244 35.1294
482 2 24.8315 22.7285 21.3316
483 2 51.427 26.8324 19.8606
484 2 40.5873 18.2914 7.81642
485 2 12.207 13.6574 9.88731
486 2 39.8874 40.3345 52.2442
487 2 25.1623 7.07544 47.3248
488 2 52.81 13.9108 25.923
489 2 48.8462 35.1813 55.4714
490 2 30.4194 42.5624 15.2441
491 2 29.9973 33.9376 7.99945
492 2 30.0258 22.8822 39.9861
493 2 36.4431 28.9794 44.4975
494 2 45.6004 10.3542 55.1488
495 2 7.46606 8.56809 42.3107
496 2 41.0181 11.3259 23.5042
497 2 48.3131 25.7959 52.4933
498 2 13.1574 52.8535 12.3998
499 2 47.6028 49.6204 43.3819
500 2 52.2588 17.8763 35.265
501 2 10.7504 29.5614 22.7079
502 2 27.1786 42.7476 31.5704
503 2 17.6486 55.3231 47.2606
504 2 20.8049 24.5256 13.9537
505 2 17.1437 27.3725 8.60254
506 2 10.6319 15.3709 38.4999
507 2 15.9697 15.5214 20.3583
508 2 45.9196 40.6686 48.8932
509 2 9.19514 45.2018 47.7038
510 2 37.2191 18.9762 44.5765
511 2 22.6649 44.0096 29.4694
512 2 42.8962 10.9198 15.1318
513 2 27.3788 13.7545 47.9648
514 2 44.622 24.2557 6.46839
515 2 30.4413 36.4175 27.965
516 2 36.8317 27.165 25.2614
517 2 25.5778 29.7691 19.7884
518 2 24.0857 37.706 20.2968
519 2 29.371 55.3669 30.0962
520 2 39.248 24.9963 36.2135
521 2 6.37391 44.5695 45.0857
522 2 24.3935 52.4425 36.8059
523 2 20.2108 54.2146 12.125
524 2 34.9876 9.28705 8.63189
525 2 41.0616 55.8582 15.0396
526 2 25.7258 21.3864 45.2958
527 2 43.1088 33.0248 8.00746
528 2 9.8406 32.4246 19.5597
529 2 33.5476 40.7459 27.8249
530 2 40.2583 44.658 27.7703
531 2 10.8877 25.565 7.44236
532 2 29.1309 18.6507 42.7499
533 2 19.7715 53.286 50.6922
534 2 17.0982 41.6 54.3032
535 2 52.2701 46.4535 11.8729
536 2 46.3045 28.9302 34.6652
537 2 6.56202 10.5888 34.3105
538 2 17.2001 52.6311 34.7688
539 2 52.8731 7.00682 34.5802
540 2 36.3354 37.5429 40.2138
541 2 49.2938 10.2668 26.6371
542 2 21.1333 40.478 24.2842
543 2 31.0737 40.6102 8.19598
544 2 24.6706 10.3261 47.0529
545 2 14.9331 50.4999 32.0338
546 2 22.5248 31.0072 16.6463
547 2 11.1951 35.319 19.4483
548 2 48.3495 30.3086 11.2648
549 2 47.0095 19.7788 8.92917
550 2 40.1135 8.53106 13.7213
551 2 54.8162 10.0566 50.8489
552 2 36.032 8.81861 35.1226
553 2 13.573 42.9851 12.7689
554 2 7.49225 40.3304 42.0904
555 2 30.5766 39.4784 54.982
556 2 21.3671 33.418 55.4367
557 2 8.01783 50.5022 7.42477
558 2 53.0695 6.67269 52.4734
559 2 33.7874 39.0573 37.6265
560 2 20.4914 18.5384 42.6302
561 2 53.4499 47.1865 14.7808
562 2 8.30729 47.1455 6.43561
563 2 23.657 27.0793 33.775
564 2 25.5318 53.6452 46.7289
565 2 46.2836 31.4725 51.708
566 2 41.5435 18.722 42.5239
567 2 13.4044 27.6617 12.2181
568 2 32.5118 34.1378 12.5499
569 2 43.8602 9.24695 38.5535
570 2 36.9353 54.8935 7.66179
571 2 51.0384 45.83 50.0629
572 2 47.4365 32.8519 45.1022
573 2 31.7792 46.3626 37.9146
574 2 28.2668 33.886 36.607
575 2 24.0675 50.622 43.9345
576 2 23.5906 34.6922 7.93397
577 2 25.0491 45.4747 22.7241
578 2 12.5541 41.239 30.115
579 2 17.7796 14.1955 37.7016
580 2 13.2486 37.9489 8.41924
581 2 13.835 50.3812 50.7092
582 2 36.4854 32.4526 43.5959
583 2 8.2267 45.8912 32.8942
584 2 43.2319 11.6042 12.261
585 2 38.3959 45.2143 49.7782
586 2 9.55555 21.2408 33.2584
587 2 45.6582 29.6601 41.8092
588 2 26.7164 31.6875 51.8308
589 2 30.7513 23.4466 47.2261
590 2 34.6114 15.9532 8.36383
591 2 39.2054 37.0569 15.8252
592 2 48.9302 9.87647 16.2687
593 2 16.0558 29.2805 38.1068
594 2 27.4106 51.2901 41.4619
595 2 40.7988 50.9057 12.1971
596 2 34.8723 14.9844 24.1857
597 2 31.7975 36.6273 38.1185
598 2 29.043 9.07419 7.37609
599 2 32.2186 53.4259 37.8455
600 2 9.68074 39.1933 50.5446
601 2 35.2636 29.1913 27.3375
602 2 39.2427 55.118 47.1362
603 2 24.3991 43.3539 25.3946
604 2 40.7151 49.539 47.391
605 2 52.7889 24.241 20.9629
606 2 17.1521 24.284 19.6907
607 2 31.8916 29.1442 29.9374
608 2 50.4926 14.2849 40.4248
609 2 38.8855 54.43 26.4768
610 2 22.3862 48.4482 24.0459
611 2 44.2296 19.4734 10.6217
612 2 14.5251 45.0611 38.9139
613 2 11.4308 32.197 32.3749
614 2 43.5008 6.23852 51.393
615 2 12.7181 21.159 29.7134
616 2 54.2685 7.73587 41.8368
617 2 11.5348 13.1501 49.2787
618 2 7.06936 7.51385 47.5129
619 2 23.2616 11.9642 23.3629
620 2 28.9519 40.5694 37.7175
621 2 22.2392 50.5727 27.8713
622 2 39.2522 21.4764 31.3432
623 2 21.652 19.5377 38.253
624 2 26.0791 50.4294 25.612
625 2 47.528 29.7694 23.6888
626 2 19.098 33.8048 25.6028
627 2 49.0931 51.5858 11.7802
628 2 51.8419 55.6019 40.6934
629 2 12.1669 52.4641 51.6744
630 2 14.8316 33.1198 18.894
631 2 46.1838 17.0865 27.7043
632 2 23.2982 22.723 17.2237
633 2 53.8049 52.9978 22.7043
634 2 44.5137 36.4834 10.8102
635 2 22.7373 52.367 47.9085
636 2 43.9749 33.464 44.821
637 2 29.0621 50.0795 7.17765
638 2 32.375 34.0505 17.3358
639 2 10.6914 34.0365 14.7077
640 2 27.9688 11.3644 55.5019
641 2 19.9693 25.0242 50.4571
642 2 30.0689 33.099 40.8219
643 2 37.7921 11.3948 16.2637
644 2 27.4249 8.16497 9.66349
645 2 32.1712 43.2648 7.05359
646 2 18.8781 18.5441 35.4192
647 2 14.9133 24.4536 52.608
648 2 19.2145 44.5829 48.396
649 2 55.4225 13.9118 35.1774
650 2 40.9606 43.824 16.261
651 2 55.3546 53.0764 32.835
652 2 6.8848 52.204 45.7072
653 2 39.629 36.1815 52.657
654 2 45.4897 7.19788 29.6483
655 2 52.3334 47.9456 51.2355
656 2 39.4653 45.1951 20.1041
657 2 37.9984 47.6276 28.2557
658 2 44.6316 33.6072 25.8671
659 2 26.2471 44.9265 51.1053
660 2 55.0602 37.4111 17.0364
661 2 34.293 28.0143 18.523
662 2 14.372 47.2232 11.1603
663 2 50.9328 39.4831 18.2826
664 2 26.0374 55.4287 16.0649
665 2 7.69955 21.2813 21.4704
666 2 12.1309 10.1798 43.3418
667 2 31.1067 53.1682 15.0495
668 2 48.601 43.2034 52.759
669 2 39.9791 30.5764 30.2921
670 2 36.1611 54.9523 27.978
671 2 13.8929 48.772 53.1503
672 2 8.05195 21.8039 14.179
673 2 19.3551 30.1352 14.086
674 2 50.5093 7.75303 54.1988
675 2 32.3954 19.8275 37.5939
676 2 30.0264 27.4555 36.5416
677 2 34.5296 7.40613 21.677
678 2 43.4118 29.2199 27.2787
679 2 54.5959 29.7243 22.1046
680 2 18.4588 35.4641 39.5658
681 2 52.3082 28.2884 55.0274
682 2 38.8258 54.6507 33.776
683 2 17.7926 51.0872 53.6897
684 2 12.1901 25.7467 37.7333
685 2 23.0502 38.5269 50.832
686 2 46.3336 49.2793 18.8946
687 2 34.9853 44.3376 23.9526
688 2 9.21453 31.6941 46.5131
689 2 41.2065 55.5137 40.3714
690 2 34.8029 20.8503 31.5528
691 2 19.3471 10.0217 34.9783
692 2 19.1717 51.3061 11.5557
693 2 43.5453 33.6015 21.0526
694 2 49.3542 29.2105 55.6386
695 2 16.6755 39.7415 39.9327
696 2 29.9105 7.97066 13.5914
697 2 44.6626 37.8649 22.8283
698 2 40.0963 12.2193 50.2031
699 2 40.7889 15.5586 47.2953
700 2 43.6567 49.5284 32.1444
701 2 50.8829 8.59926 51.2028
702 2 11.0406 30.0536 38.1212
703 2 42.8551 13.9196 14.4838
704 2 21.0229 34.052 48.6026
705 2 47.4188 52.354 45.1897
706 2 17.5324 6.55808 51.9859
707 2 6.33329 33.4691 18.1536
708 2 9.45469 47.5368 18.5829
709 2 19.6382 20.9147 42.0647
710 2 45.7538 43.6568 49.4149
711 2 12.2316 52.8508 22.3524
712 2 20.1759 35.318 42.0804
713 2 27.2533 52.239 54.4134
714 2 7.78725 34.3168 10.6107
715 2 50.8655 35.7569 17.0482
716 2 27.0963 8.23735 43.1274
717 2 16.2531 28.5085 25.6463
718 2 54.8853 46.0069 36.738
719 2 14.0891 12.2091 39.6724
720 2 31.6414 44.1412 29.0203
721 2 47.2639 13.1816 23.1039
722 2 54.5389 13.3085 7.73311
723 2 7.60064 49.8826 50.3956
724 2 27.1452 24.6642 21.5567
725 2 53.6082 52.3509 13.6504
726 2 43.0486 7.19484 33.2284
727 2 12.5549 10.4693 23.8729
728 2 39.5327 23.3412 45.9117
729 2 35.1935 51.4619 16.6327
730 2 44.5888 36.8352 43.1039
731 2 22.9468 42.0136 22.4073
732 2 32.0619 55.226 47.1409
733 2 26.4539 10.0468 20.5976
734 2 28.2106 42.6387 22.5726
735 2 55.2614 27.9592 44.2806
736 2 51.9513 22.0471 37.732
737 2 16.6375 47.4278 35.6176
738 2 51.892 11.2007 6.58968
739 2 32.5977 49.7016 40.4028
740 2 19.8971 7.49896 54.6422
741 2 16.4121 23.8282 43.9794
742 2 51.3218 37.8999 28.7348
743 2 20.9302 21.2039 30.9868
744 2 20.4992 50.4413 25.3716
745 2 44.9234 14.7551 10.1273
746 2 8.95817 29.8252 11.9574
747 2 41.5003 23.5704 32.1999
748 2 53.9228 37.9146 33.4324
749 2 51.6262 34.5213 30.6564
750 2 25.1302 47.5536 26.8791
751 2 6.78454 8.92135 28.5973
752 2 6.14167 10.3228 14.7258
753 2 42.0386 13.2611 46.0821
754 2 30.993 9.5081 18.1583
755 2 7.53801 21.8254 17.127
756 2 44.3265 6.62324 7.87417
757 2 54.4164 8.95808 25.8101
758 2 20.1169 34.0259 30.2804
759 2 48.2213 48.4093 47.3657
760 2 29.7844 28.932 26.8582
761 2 25.3441 48.8723 38.5979
762 2 15.0622 53.3404 14.1158
763 2 10.1611 23.3079 18.4568
764 2 51.8305 25.7633 44.0957
765 2 48.8138 44.5055 48.9286
766 2 10.0687 38.6586 8.61247
767 2 36.1886 51.2166 50.4701
768 2 18.874 47.2134 16.5109
769 2 37.9553 8.51923 54.4811
770 2 6.64103 32.4398 39.8434
771 2 54.7882 37.4371 13.8924
772 2 34.0299 10.124 13.5935
773 2 13.2235 22.879 33.7004
774 2 9.23047 35.692 32.2215
775 2 47.6564 32.9988 32.4971
776 2 13.8114 14.9036 24.7468
777 2 19.3171 25.9787 47.2726
778 2 52.9603 35.1182 39.6559
779 2 48.1176 27.2088 22.8833
780 2 42.3258 54.0921 27.2484
781 2 47.4844 47.0664 17.2966
782 2 21.2005 51.0853 13.8082
783 2 43.5165 44.8431 34.2763
784 2 51.5605 51.9774 54.5681
785 2 50.013 19.8904 43.4835
786 2 20.2724 6.57245 23.873
787 2 52.5341 24.7224 47.2079
788 2 10.3454 33.3857 53.8749
789 2 25.1829 34.5212 34.0477
790 2 40.7039 13.6408 25.5232
791 2 43.7126 26.8833 14.3283
792 2 45.445 22.1058 25.7066
793 2 46.5956 26.0419 35.0983
794 2 37.3685 20.8628 48.9672
795 2 51.5431 24.7218 30.4983
796 2 46.625 8.27305 11.894
797 2 43.0786 53.5979 15.0643
798 2 12.0479 22.7357 43.5152
799 2 36.9445 18.1443 26.2339
800 2 28.2631 13.7102 16.5364
801 2 51.4662 11.9472 23.0048
802 2 41.3381 11.3532 17.5409
803 2 33.6411 47.8487 55.2234
804 2 7.17813 34.3155 43.5317
805 2 12.7805 9.68972 13.433
806 2 25.1241 19.5668 16.9794
807 2 47.3356 16.673 13.9821
808 2 50.9921 7.84084 16.7009
809 2 29.298 32.2352 26.4842
810 2 28.783 45.5732 25.4912
811 2 31.3421 37.0093 44.2071
812 2 55.0289 32.9477 13.1203
813 2 26.9806 51.5251 12.2137
814 2 27.1612 42.5477 6.59719
815 2 30.3569 26.1637 54.3252
816 2 40.1424 19.8759 37.8841
817 2 22.0486 50.9176 34.7615
818 2 10.1743 44.2269 50.1144
819 2 55.3067 46.9291 7.70871
820 2 24.4697 20.4863 54.7016
821 2 40.8201 41.6055 47.8852
822 2 13.7997 7.17275 35.0068
823 2 30.0154 26.5254 9.73768
824 2 43.3024 39.8254 8.39106
825 2 53.8407 42.2904 31.1187
826 2 52.6809 15.5496 9.47609
827 2 22.7488 26.5619 15.0392
828 2 38.0762 46.8726 37.2181
829 2 11.2256 40.3485 54.7242
830 2 15.2994 20.231 47.1386
831 2 8.62851 47.3473 15.595
832 2 39.0163 32.4484 32.7033
833 2 28.8786 16.9732 21.7025
834 2 54.7247 19.5654 34.9733
835 2 10.9201 26.0243 48.8266
836 2 37.0828 48.6328 22.4781
837 2 52.321 40.5232 27.153
838 2 17.6122 46.7489 49.777
839 2 20.2902 29.0302 27.7971
840 2 49.1313 29.1969 20.595
841 2 34.7974 13.7354 34.9978
842 2 12.1813 14.7507 33.3874
843 2 10.6169 55.5551 41.8445
844 2 7.57424 43.5815 13.5383
845 2 23.9311 22.912 31.796
846 2 30.6654 40.3661 44.821
847 2 55.328 30.5829 11.221
848 2 30.8702 31.4966 35.6299
849 2 24.0141 16.7187 46.0717
850 2 17.82 15.5634 15.4665
851 2 48.1337 10.3597 13.2525
852 2 22.4732 43.7345 44.9976
853 2 50.112 30.8339 32.2754
854 2 19.3001 25.0621 22.7924
855 2 40.9868 27.0968 17.4961
856 2 18.5251 13.1456 29.1809
857 2 19.8752 6.45258 45.9572
858 2 32.9526 24.347 38.4688
859 2 19.6824 21.168 28.1315
860 2 37.6837 22.4979 28.4207
861 2 52.3744 35.0468 53.2283
862 2 21.9378 46.5572 12.2858
863 2 23.5066 48.6492 19.2463
864 2 35.3158 23.3452 42.5511
865 2 23.6788 16.601 48.883
866 2 20.1665 40.3239 31.3632
867 2 18.6211 16.5114 6.57072
868 2 43.3954 22.2279 8.79846
869 2 41.4705 15.5255 11.9868
870 2 25.4286 52.6947 40.1787
871 2 15.0263 42.5075 28.5296
872 2 52.7003 19.1242 19.6811
873 2 27.9779 6.22083 32.6358
874 2 9.55972 10.371 27.4162
875 2 41.623 22.2606 49.4551
876 2 52.5929 12.7388 32.3813
877 2 36.3165 31.1625 11.5554
878 2 36.5655 44.6469 39.5054
879 2 28.6554 37.1099 25.2371
880 2 27.0056 13.1528 23.0371
881 2 18.5243 20.2341 38.4608
882 2 33.8116 19.4742 43.1136
883 2 16.1993 34.5494 44.1004
884 2 38.3845 31.9365 37.2758
885 2 30.101 33.104 28.9385
886 2 25.828 49.1674 29.5793
887 2 55.2426 34.1677 53.0882
888 2 50.4684 10.7356 47.2783
889 2 48.9171 16.9392 55.6378
890 2 53.4678 39.298 16.1059
891 2 6.62361 43.3067 23.6939
892 2 55.3025 28.2649 29.7376
893 2 53.0349 20.8853 33.2542
894 2 6.93125 13.0053 11.1832
895 2 46.5295 24.2804 23.6757
896 2 43.4529 18.6149 17.4145
897 2 34.4122 16.3326 51.6952
898 2 22.0674 25.7927 43.5786
899 2 12.3599 25.7427 30.1797
900 2 55.368 35.3617 29.5757
901 2 12.984 31.772 23.4719
902 2 16.1384 44.7974 27.0459
903 2 52.371 32.6919 44.0859
904 2 35.1192 15.2385 14.4045
905 2 10.9002 13.1185 14.8894
906 2 29.0499 45.4283 37.9534
907 2 31.5871 30.1376 23.0385
908 2 49.9311 53.7399 44.9997
909 2 12.7198 52.3799 55.0017
910 2 40.6951 47.2458 32.4782
911 2 39.5318 11.7951 45.1508
912 2 13.8887 42.273 17.1057
913 2 35.3599 13.9436 21.2101
914 2 41.7349 17.4188 53.8268
915 2 23.1066 32.0032 44.6919
916 2 24.1916 8.38806 31.5499
917 2 44.8064 49.3793 54.6803
918 2 18.9099 46.7915 39.1165
919 2 27.7882 17.0349 33.052
920 2 55.8612 44.1001 26.3633
921 2 35.0932 26.3368 20.9346
922 2 17.4347 39.4849 30.827
923 2 52.5371 40.55 8.93326
924 2 51.475 48.9943 40.1032
925 2 13.5447 9.3301 38.7557
926 2 50.8002 32.4959 52.6772
927 2 36.4719 35.9022 21.92
928 2 38.6055 27.655 18.5658
929 2 34.4924 48.0721 10.2948
930 2 35.9134 36.5884 55.018
931 2 33.7026 28.9042 15.1329
932 2 26.0291 39.8939 44.2708
933 2 46.4816 19.0207 34.1631
934 2 32.2476 46.6453 31.4509
935 2 35.003 7.27471 25.7135
936 2 19.7148 22.0468 23.6668
937 2 34.6395 43.234 44.0241
938 2 22.0157 46.5484 46.4237
939 2 12.5116 39.5618 18.5873
940 2 29.8553 51.1663 31.5913
941 2 30.3329 39.8243 30.9321
942 2 12.4839 21.3547 50.2623
943 2 33.3357 11.2783 39.2853
944 2 9.14169 49.4196 29.9628
945 2 38.4782 8.1622 51.8173
946 2 44.5115 53.0968 19.5239
947 2 41.0401 30.4469 20.6334
948 2 36.0023 23.9669 22.5478
949 2 29.1452 44.7223 20.5987
950 2 7.11551 14.3137 23.4868
951 2 36.6857 23.77 6.68446
952 2 43.0632 8.61721 13.5751
953 2 18.4897 23.4994 52.7453
954 2 31.7124 17.9699 11.3483
955 2 16.1316 33.2763 26.8699
956 2 53.8942 44.3018 15.5598
957 2 40.1261 25.01 25.5001
958 2 42.3782 22.3301 22.7259
959 2 32.8191 20.442 46.1885
960 2 41.9774 14.8615 30.7865
961 2 55.5959 10.6469 21.7525
962 2 43.0568 10.7252 30.1822
963 2 33.7956 27.657 36.5767
964 2 38.7552 20.6549 19.9361
965 2 37.5633 6.98637 21.2415
966 2 19.2278 54.4344 22.3029
967 2 43.6194 51.0024 22.0718
968 2 45.9707 10.7395 16.3767
969 2 27.9306 9.9618 49.7606
970 2 42.462 47.0543 47.9633
971 2 11.4319 50.7242 15.7033
972 2 47.3999 7.36948 40.1752
973 2 7.7169 55.2735 38.825
974 2 38.7604 41.2122 55.0922
975 2 22.0384 16.2097 15.678
976 2 28.8104 47.7163 22.1277
977 2 28.4338 48.5318 48.8316
978 2 34.7241 10.6715 36.8891
979 2 29.2172 12.0215 7.91574
980 2 31.3505 36.5095 7.27524
981 2 52.1598 54.6933 35.9702
982 2 24.1306 52.1826 55.3092
983 2 9.83119 32.339 10.8549
984 2 25.862 41.8004 20.2783
985 2 34.9067 51.9398 33.599
986 2 47.4016 42.825 13.5254
987 2 21.1086 43.3092 24.957
988 2 22.0113 36.1853 33.7715
989 2 41.8622 36.0978 16.5897
990 2 28.5475 7.75368 36.2573
991 2 50.6004 42.3891 54.687
992 2 43.6814 31.3062 33.336
993 2 51.9229 49.1825 28.3267
994 2 49.4576 42.2497 27.9852
995 2 17.163 54.683 13.0826
996 2 15.3107 48.9715 45.8601
997 2 37.911 38.8454 53.5488
998 2 43.495 49.4556 12.7076
999 2 42.2129 33.8521 34.0071
1000 2 55.3671 36.5131 9.37865
1001 2 55.2279 22.5996 20.8511
1002 2 47.4685 18.98 48.7505
1003 2 37.2903 13.9763 33.3194
1004 2 19.0613 28.1258 12.0544