ITEM: TIMESTEP
0
ITEM: NUMBER OF ATOMS
9088
ITEM: BOX BOUNDS xy xz yz pp pp pp
6.0737170100269440e+00 5.5857220782176853e+01 -5.7117344298160954e-15
6.0737170100269493e+00 5.5857220782176853e+01 0.0000000000000000e+00
6.0737170100269493e+00 5.5857220782176853e+01 0.0000000000000000e+00
ITEM: ATOMS id type x y z
1 2 7.13215 52.4807 23.8383
2 2 28.3485 42.6339 43.9565
3 2 16.1686 13.2574 31.7758
4 2 40.2848 48.7411 36.6784
5 2 36.778 37.7358 39.8964
6 2 8.01018 31.4958 13.1159
7 2 39.5108 42.3392 30.4471
8 2 49.9532 12.8996 26.2115
9 2 31.796 25.3187 38.465
10 2 25.007 22.2803 40.8127
11 2 50.7716 13.9049 35.1433
12 2 28.3249 27.8714 6.64077
13 2 36.3006 51.2122 10.5611
14 2 22.1223 33.5413 41.0404
15 2 16.6684 12.6667 6.2549
16 2 10.8729 20.3301 13.2151
17 2 39.46 40.2869 17.2861
18 2 7.59927 27.8964 40.7554
19 2 40.0721 35.7783 35.315
20 2 41.4307 37.0122 26.2499
21 2 45.9991 23.1318 53.9426
22 2 51.5972 26.7658 22.6802
23 2 47.7411 40.3039 16.4618
24 2 30.266 44.7 29.2826
25 2 13.6592 47.965 10.2138
26 2 15.9949 11.802 15.0864
27 2 54.9982 55.0226 50.7732
28 2 20.553 48.3935 37.8107
29 2 43.0152 20.2552 17.6426
30 2 37.5721 14.3112 6.4977
31 2 12.5242 51.7086 45.6431
32 2 32.2992 47.4032 33.086
33 2 32.0874 14.6621 22.887
34 2 10.7588 38.7603 19.1905
35 2 54.4051 40.3968 47.8059
36 2 13.2258 6.89126 39.7865
37 2 10.6844 52.0374 28.0474
38 2 45.9138 9.76061 6.26182
39 2 54.5468 13.6429 35.1407
40 2 49.3345 42.6575 54.1791
41 2 23.2815 53.7286 23.0926
42 2 43.63 8.44434 25.4865
43 2 40.3698 49.4951 28.007
44 2 51.2827 36.3136 6.44272
45 2 46.7593 27.9992 45.2594
46 2 17.3258 15.6995 39.3548
47 2 38.0201 55.8146 19.0574
48 2 52.7035 28.1892 9.38309
49 2 54.114 44.3928 37.6707
50 2 23.1855 24.469 53.976
51 2 48.4465 34.1146 41.0627
52 2 47.7246 33.4187 48.8721
53 2 39.9104 40.1555 42.9076
54 2 16.9274 8.22408 6.25268
55 2 37.9834 26.5144 36.6114
56 2 20.9755 47.0336 44.5339
57 2 23.7353 34.4472 28.8492
58 2 24.885 39.9372 36.6024
59 2 38.61 52.1076 32.3045
60 2 23.9667 32.0306 48.7782
61 2 54.8941 35.0351 13.6864
62 2 47.4506 42.768 24.0487
63 2 25.2046 43.6483 43.9509
64 2 41.3891 40.3719 34.071
65 2 14.998 32.5203 31.6725
66 2 14.5807 15.8653 9.86342
67 2 32.2529 52.4953 50.749
68 2 23.2364 23.6658 35.2375
69 2 50.7843 46.0477 10.6661
70 2 29.5116 43.3066 41.3535
71 2 40.8326 42.6796 14.7112
72 2 7.12852 42.3995 32.8518
73 2 25.7145 42.6484 50.244
74 2 48.8559 51.5153 54.0918
75 2 25.5653 16.7944 12.4833
76 2 27.6357 45.3192 50.321
77 2 51.9633 16.6293 9.92359
78 2 15.0357 27.6513 36.0258
79 2 21.5837 13.2324 11.3939
80 2 10.8362 7.41636 41.8463
81 2 7.57006 45.0189 6.68987
82 2 43.0067 12.5837 31.5328
83 2 43.106 40.3922 7.5413
84 2 15.9183 40.3516 43.7244
85 2 7.86824 45.7668 24.3201
86 2 55.4015 42.2668 12.5175
87 2 47.7454 36.2585 37.5784
88 2 36.4312 23.8615 45.6686
89 2 27.9956 52.4339 21.5902
90 2 49.6134 25.6436 53.0415
91 2 8.34174 13.9652 23.3484
92 2 42.709 18.496 9.34381
93 2 28.1847 6.62433 13.704
94 2 17.8659 49.2107 36.8986
95 2 14.596 15.1101 29.4958
96 2 26.9042 51.1253 9.01515
97 2 12.9936 42.5205 40.9394
98 2 43.3055 28.7209 31.452
99 2 46.5876 15.299 10.3368
100 2 28.6891 25.0469 7.00392
101 2 52.2943 33.9388 40.2882
102 2 17.888 7.15414 48.0128
103 2 30.5241 30.8593 33.7079
104 2 43.0534 41.3387 24.0416
105 2 35.3094 31.8871 53.0754
106 2 23.4387 49.1269 9.97062
107 2 13.9413 9.44099 49.0612
108 2 54.8862 53.9 30.1666
109 2 37.3038 18.2388 35.1352
110 2 44.1319 34.8745 40.5266
111 2 38.0887 24.4717 38.4992
112 2 54.3887 31.3506 40.3766
113 2 11.2058 51.3524 35.5291
114 2 54.826 10.835 9.80275
115 2 10.8877 9.07994 7.96233
116 2 9.61641 12.4119 31.616
117 2 48.1004 29.9203 25.5337
118 2 50.2227 46.1205 46.5474
119 2 32.5124 16.4997 35.7057
120 2 40.6812 43.8168 53.8844
121 2 31.9053 26.4296 27.0277
122 2 47.6325 10.6885 40.9998
123 2 12.2713 15.9414 6.10631
124 2 47.5174 45.2524 40.3419
125 2 30.5023 30.8443 45.0511
126 2 7.41887 10.3765 32.351
127 2 34.9783 25.3322 23.7893
128 2 20.3301 47.9125 17.0789
129 2 50.6442 38.2614 47.1985
130 2 15.8749 34.5167 29.634
131 2 26.5647 23.3571 48.3382
132 2 49.4298 13.1319 39.7591
133 2 8.05751 45.3931 44.1618
134 2 44.2184 45.6102 25.8203
135 2 51.5596 10.0639 29.321
136 2 27.7382 11.3532 50.5676
137 2 38.9526 53.0297 9.34085
138 2 15.7894 27.1757 15.2346
139 2 26.4889 25.1469 19.366
140 2 34.3174 44.4784 10.0755
141 2 14.0939 40.7656 11.5266
142 2 46.5947 15.2406 30.2741
143 2 17.9578 28.6505 30.8404
144 2 36.5988 22.5501 17.512
145 2 9.75834 28.3137 6.33392
146 2 44.4946 17.813 30.899
147 2 53.342 51.7483 14.94
148 2 42.0899 32.636 34.7805
149 2 50.9083 25.7472 38.2457
150 2 40.4932 46.5881 23.0155
151 2 34.3269 50.345 45.0593
152 2 38.3636 17.9442 11.854
153 2 39.1249 53.9808 41.6686
154 2 7.93063 30.7543 22.927
155 2 55.6641 17.9741 52.2818
156 2 52.8127 54.9106 44.3011
157 2 51.2223 13.1972 9.77484
158 2 17.5089 47.8768 8.02028
159 2 41.8678 17.4318 18.2195
160 2 47.8498 26.4423 42.4876
161 2 49.4666 45.0203 37.7237
162 2 11.7709 25.9424 52.106
163 2 13.4911 26.5933 20.6284
164 2 53.359 12.5116 23.3297
165 2 50.3958 37.0585 18.7052
166 2 46.6604 42.7457 35.7184
167 2 44.1368 55.4113 37.3799
168 2 27.9 17.7859 31.8964
169 2 55.6729 45.2746 54.1374
170 2 33.7932 43.455 54.6007
171 2 41.2586 15.8076 35.1461
172 2 36.9546 36.8347 32.2185
173 2 31.3764 33.5582 19.8913
174 2 36.269 25.5352 34.2764
175 2 37.0215 44.5742 51.6032
176 2 16.0941 30.6233 26.853
177 2 19.0104 9.12837 36.3354
178 2 52.9631 50.8541 20.1434
179 2 39.4067 54.9656 23.9165
180 2 27.9324 8.54502 11.4318
181 2 28.927 33.6162 22.1492
182 2 10.0484 43.5538 6.14402
183 2 17.4996 52.2859 7.25753
184 2 27.3718 40.1078 53.0491
185 2 55.4783 33.9168 29.3513
186 2 22.5572 26.1173 37.7014
187 2 52.9879 52.7879 17.7428
188 2 19.7756 50.9205 24.4643
189 2 24.2777 55.4493 11.5239
190 2 52.8516 41.0024 34.8765
191 2 44.1461 11.9205 49.355
192 2 7.0285 20.3167 43.265
193 2 24.6703 45.3851 21.4305
194 2 10.6953 18.2743 8.20538
195 2 23.5498 35.6294 12.6961
196 2 50.6852 21.5923 55.4667
197 2 39.5636 22.4576 39.9543
198 2 10.535 32.8834 51.1187
199 2 10.8096 43.1393 46.5867
200 2 26.6455 54.0313 13.5691
201 2 30.0672 48.6518 44.3314
202 2 46.9346 35.7462 18.3823
203 2 44.2414 46.2596 53.8843
204 2 7.81552 14.2491 54.5547
205 2 43.4202 22.5881 27.4619
206 2 14.4942 30.0814 45.1435
207 2 27.9871 11.8631 24.6113
208 2 38.1469 11.2665 53.9407
209 2 25.1947 55.4604 32.7622
210 2 34.7012 28.523 44.704
211 2 16.7254 40.0448 33.0743
212 2 11.7784 7.9327 10.6315
213 2 31.9419 15.2528 25.7861
214 2 32.1997 30.5459 38.8295
215 2 30.5595 48.4025 47.7782
216 2 18.9762 44.3868 45.3303
217 2 24.2678 27.1257 16.1636
218 2 45.0636 42.5304 43.713
219 2 24.8246 39.5319 50.7728
220 2 42.2836 39.6376 53.1687
221 2 41.55 46.8528 53.7919
222 2 16.1797 23.4115 43.5756
223 2 51.1229 22.9186 40.2891
224 2 34.9416 49.7395 30.2195
225 2 41.5354 6.31186 21.9285
226 2 14.6759 16.4608 42.9804
227 2 20.2039 19.1367 49.478
228 2 49.8374 13.1442 21.0047
229 2 50.443 29.5664 12.7165
230 2 49.2656 37.7592 54.2829
231 2 17.2899 43.1224 40.4419
232 2 52.6857 51.7316 39.8706
233 2 17.3727 10.0278 42.4959
234 2 36.2643 14.4842 13.7845
235 2 22.1697 12.2909 18.5635
236 2 54.2449 13.3527 43.3276
237 2 42.7807 52.246 11.2851
238 2 11.4834 10.9434 33.5891
239 2 41.0465 45.4056 25.9331
240 2 28.2291 21.8235 16.1307
241 2 49.0778 8.65199 17.3846
242 2 50.2938 18.184 40.75
243 2 43.0466 26.1186 27.3545
244 2 44.4368 50.9939 36.2796
245 2 15.0553 44.9653 54.0125
246 2 38.49 40.5706 11.1103
247 2 23.7868 34.1033 45.9054
248 2 25.4383 48.736 17.7312
249 2 18.409 54.2715 49.3306
250 2 24.7922 27.9086 26.7386
251 2 45.4094 37.4304 39.2954
252 2 27.8974 30.8483 13.6676
253 2 36.1472 7.91121 32.705
254 2 34.7545 37.2162 13.0848
255 2 51.5835 6.12582 41.6724
256 2 34.9928 42.9033 30.1837
257 2 39.3284 28.2386 14.0821
258 2 40.9609 49.8294 11.8988
259 2 26.409 47.4078 41.5779
260 2 7.64142 10.111 25.5329
261 2 29.4945 55.1512 47.8947
262 2 20.3228 25.6067 27.6655
263 2 42.6079 6.43301 29.4452
264 2 27.4478 31.0644 37.8727
265 2 53.2306 52.1578 32.3763
266 2 30.364 28.2165 17.2503
267 2 26.9859 15.9686 24.7596
268 2 30.3596 53.5908 28.1313
269 2 46.5814 28.7878 41.9213
270 2 8.11948 21.0986 20.9999
271 2 37.2319 21.8534 21.2225
272 2 30.1387 37.8995 55.4241
273 2 46.2053 8.46799 20.9233
274 2 8.61304 8.13814 49.6063
275 2 22.5595 24.5758 20.1562
276 2 35.2292 45.989 7.41836
277 2 18.9817 53.157 52.7459
278 2 36.4227 45.227 40.5104
279 2 23.4391 13.1908 25.3131
280 2 55.5826 37.5839 48.7406
281 2 53.4775 37.0409 46.6417
282 2 52.8872 38.8467 6.71323
283 2 6.17162 44.086 35.1829
284 2 37.4538 21.786 13.5864
285 2 19.7692 15.7915 8.56174
286 2 46.0243 34.8339 47.5103
287 2 28.7312 41.799 32.9469
288 2 27.4909 44.689 36.9534
289 2 47.1067 30.4042 22.5032
290 2 28.1179 42.1062 29.6744
291 2 40.783 22.2739 53.1076
292 2 30.6209 20.1136 37.5983
293 2 47.511 30.1805 47.3819
294 2 34.6899 46.6115 48.3021
295 2 7.28861 39.2992 25.3924
296 2 43.0723 21.4137 44.4072
297 2 55.6215 17.4466 45.2257
298 2 28.0689 33.9244 47.2873
299 2 7.83895 13.3973 7.68153
300 2 14.7644 24.2142 22.4276
301 2 11.7973 14.4617 30.1046
302 2 21.9092 20.6055 18.7391
303 2 48.6294 32.2892 18.5707
304 2 6.90619 33.7182 11.5817
305 2 53.6559 21.1467 51.9077
306 2 21.7731 52.1166 20.589
307 2 50.7629 34.2181 12.6505
308 2 44.4631 15.14 12.3636
309 2 13.4669 19.5644 9.41339
310 2 33.4168 29.4149 32.0773
311 2 38.6745 41.5125 49.1946
312 2 18.4273 29.7525 54.0673
313 2 50.8443 11.147 46.6933
314 2 18.4507 22.1287 32.3185
315 2 28.1973 6.26854 50.8472
316 2 25.4342 18.6091 48.3397
317 2 18.701 29.7653 47.3419
318 2 41.5982 22.3799 8.04415
319 2 32.7818 8.78411 13.0259
320 2 27.5273 41.9977 11.2816
321 2 21.9921 28.2262 35.7476
322 2 37.4431 44.7496 26.7702
323 2 22.8599 38.0198 35.4839
324 2 20.0938 18.083 53.062
325 2 51.0945 10.307 12.5552
326 2 45.6476 14.1255 55.2654
327 2 10.6918 19.4335 17.308
328 2 44.714 9.42781 51.0417
329 2 18.1398 25.562 8.16475
330 2 11.4338 11.6342 49.5591
331 2 26.2814 31.8801 51.0874
332 2 21.0237 28.9468 42.9124
333 2 42.6787 51.8999 15.9104
334 2 41.8912 35.0298 17.7785
335 2 21.9295 24.3618 14.0256
336 2 53.7944 18.6872 11.6275
337 2 48.486 45.205 26.1104
338 2 32.5328 37.4814 33.1611
339 2 11.1449 36.7566 50.1822
340 2 33.3703 52.0611 12.1204
341 2 38.2366 26.7246 27.211
342 2 19.8114 17.839 15.0974
343 2 20.571 40.2212 43.4911
344 2 33.1808 20.757 15.2589
345 2 40.4549 27.1172 39.1552
346 2 31.2715 23.9163 28.7246
347 2 34.2284 46.1542 26.3969
348 2 19.3345 55.8057 27.1286
349 2 51.1926 13.6661 32.2461
350 2 11.9324 29.2985 26.1566
351 2 26.9712 14.5564 32.515
352 2 53.6482 19.8822 16.8006
353 2 53.497 49.2853 38.6357
354 2 20.733 31.9508 31.3011
355 2 46.1263 52.7919 55.3881
356 2 17.9017 49.7266 29.0516
357 2 52.5713 9.07438 24.894
358 2 26.4516 41.76 27.2594
359 2 39.6619 40.9793 20.1396
360 2 41.0725 52.6132 39.1226
361 2 18.104 22.9914 22.4109
362 2 46.93 19.3388 35.0426
363 2 17.5097 29.6426 49.8913
364 2 45.7807 52.6803 50.5861
365 2 46.2616 28.7298 13.3358
366 2 40.572 12.3511 19.2802
367 2 24.5634 51.7232 37.1142
368 2 44.891 47.9974 14.4415
369 2 48.508 51.039 15.7687
370 2 32.9751 32.5662 43.9869
371 2 36.1175 48.0363 41.1086
372 2 35.0609 16.7623 50.8682
373 2 46.2978 54.9897 10.3727
374 2 13.8614 50.8439 19.6276
375 2 54.5686 36.7329 36.8584
376 2 54.7881 24.7528 53.5501
377 2 38.4005 15.6905 38.7005
378 2 48.0529 55.8135 21.0809
379 2 44.8153 40.5332 15.3379
380 2 29.9966 6.37721 8.47509
381 2 37.7064 14.3246 46.8384
382 2 42.3768 41.8264 31.3132
383 2 33.2694 25.7575 49.1604
384 2 42.0431 49.2597 17.9025
385 2 35.4565 41.5673 38.4395
386 2 18.0002 52.042 22.3934
387 2 21.2228 48.4985 23.6133
388 2 36.0363 29.6171 49.3973
389 2 42.2443 43.8671 43.9284
390 2 38.767 52.8947 28.6849
391 2 39.5371 48.0124 48.7308
392 2 28.3508 45.8398 23.1593
393 2 13.6298 13.9639 50.1632
394 2 46.9445 49.2883 39.2756
395 2 6.39589 20.5168 50.7729
396 2 13.5352 26.4746 42.1305
397 2 36.9175 23.7692 49.9421
398 2 54.7016 48.701 22.7913
399 2 9.72541 43.4692 18.1074
400 2 41.8058 7.81402 49.5981
401 2 37.1894 32.5632 31.7882
402 2 23.208 22.5078 22.7381
403 2 34.3496 45.7978 52.453
404 2 49.4591 18.5775 46.4662
405 2 45.1339 14.5722 38.0329
406 2 53.26 46.3646 40.2894
407 2 8.06196 55.1628 7.82833
408 2 12.1839 18.8952 48.4959
409 2 24.5104 51.2999 47.3542
410 2 28.4858 28.9488 22.3428
411 2 44.8929 12.0859 12.6729
412 2 52.9699 37.3311 51.0507
413 2 32.6679 51.7893 7.5167
414 2 21.8609 41.9222 19.9542
415 2 30.1155 30.99 20.8683
416 2 21.6529 31.3129 37.3835
417 2 39.7089 25.7033 29.9809
418 2 40.9764 10.7858 40.925
419 2 12.6211 33.3704 15.8666
420 2 42.7746 19.2055 33.3735
421 2 50.2006 52.3666 24.0815
422 2 12.3337 51.4433 10.3354
423 2 18.2024 25.1167 54.8931
424 2 21.8685 53.5948 7.54357
425 2 35.8317 39.7928 45.5483
426 2 47.5141 22.6548 35.5102
427 2 54.3739 18.9432 26.5583
428 2 37.8016 19.7292 25.5856
429 2 47.5966 18.4966 52.9663
430 2 20.8148 43.4659 24.4826
431 2 49.123 9.02796 48.1056
432 2 47.116 36.6117 26.8178
433 2 46.2574 14.0351 35.4509
434 2 34.8738 35.0044 40.4986
435 2 52.0944 31.6529 12.3026
436 2 32.2964 7.72031 31.1133
437 2 45.8494 9.24068 12.1926
438 2 14.8175 46.9248 22.5136
439 2 43.4101 37.1216 36.4002
440 2 31.4819 27.5482 36.1006
441 2 9.02157 31.5159 49.0259
442 2 16.3711 17.9463 51.1395
443 2 26.9981 26.7443 14.4912
444 2 55.3332 39.766 33.2178
445 2 23.0402 6.7498 23.8998
446 2 30.7142 8.06827 41.4264
447 2 50.8122 25.0442 6.75275
448 2 40.7719 12.5839 52.8284
449 2 53.3892 28.7951 25.6253
450 2 47.5664 49.4748 12.9644
451 2 29.3452 45.7054 26.1751
452 2 18.6029 34.7747 17.8159
453 2 44.4902 27.0949 11.8919
454 2 13.8606 14.4699 34.2511
455 2 21.4643 7.45534 35.3086
456 2 48.6544 31.2412 41.5473
457 2 45.9267 7.15918 49.2235
458 2 16.5103 29.1052 33.7064
459 2 25.3491 14.8941 41.0739
460 2 30.5788 26.975 23.4785
461 2 54.2192 30.1885 45.8951
462 2 45.6818 44.3009 55.4121
463 2 24.9961 26.4505 32.3752
464 2 54.0652 30.0102 37.4869
465 2 27.566 7.03422 22.2649
466 2 6.81075 49.365 45.7355
467 2 41.9776 24.8409 54.1426
468 2 14.0084 11.5861 32.5788
469 2 25.7588 11.6048 32.2907
470 2 17.9649 7.46833 44.8003
471 2 13.1078 11.4154 42.2222
472 2 10.7511 30.9122 46.8712
473 2 22.8492 22.2875 16.3546
474 2 40.6992 31.6457 54.9998
475 2 12.3707 36.693 31.7238
476 2 38.1666 32.1426 53.4159
477 2 7.90535 43.0467 52.5157
478 2 46.7868 41.6678 55.3588
479 2 10.5701 13.551 9.53534
480 2 45.14 21.9698 16.6211
481 2 43.395 38.2326 17.0728
482 2 53.3838 27.4982 53.4281
483 2 30.6203 31.6418 51.7472
484 2 19.7968 23.2004 39.8113
485 2 41.0446 18.6375 41.634
486 2 19.1441 45.4145 34.1052
487 2 53.7324 11.9461 29.3743
488 2 31.7776 18.9887 8.35399
489 2 27.6375 40.1899 37.1326
490 2 10.1999 47.7936 47.1866
491 2 9.1072 38.8632 40.0797
492 2 9.07013 27.7469 22.0932
493 2 15.6499 33.3676 26.8734
494 2 24.7828 15.4006 37.3761
495 2 36.3313 13.4957 24.304
496 2 20.3566 15.9255 55.421
497 2 27.6537 30.4193 34.6127
498 2 41.9 7.87119 44.2866
499 2 26.5755 54.4266 25.5209
500 2 31.3022 22.8584 17.28
501 2 39.2822 34.479 54.5127
502 2 6.38648 47.8184 13.5556
503 2 46.0398 10.5987 29.4369
504 2 49.6587 29.4254 45.6984
505 2 45.703 32.0866 40.324
506 2 39.7983 20.2287 20.4959
507 2 44.5769 20.2307 52.4776
508 2 25.0189 45.3725 30.7265
509 2 38.0942 50.5976 29.9609
510 2 16.4959 23.7035 26.3266
511 2 51.7237 49.0841 11.404
512 2 22.1097 15.8185 47.2464
513 2 6.68661 18.6533 30.2057
514 2 23.8579 29.2184 38.2348
515 2 9.44516 41.0395 9.80639
516 2 16.06 31.7839 7.31694
517 2 54.6817 34.64 51.6888
518 2 53.2037 42.1421 51.7207
519 2 8.35425 10.3691 12.4408
520 2 18.0108 30.0144 18.3207
521 2 35.0293 49.4135 27.1736
522 2 53.5538 7.36414 19.0046
523 2 49.0172 9.41646 44.2272
524 2 14.7707 14.1628 40.4187
525 2 20.4137 10.9682 46.7129
526 2 54.8773 26.1132 27.0063
527 2 22.3178 38.0436 39.5729
528 2 38.3215 37.2912 51.5521
529 2 11.9951 45.1289 11.0546
530 2 19.2381 49.9019 9.91903
531 2 39.9882 30.5744 39.5192
532 2 8.0586 23.3974 24.9045
533 2 48.5835 8.43372 32.8834
534 2 46.9981 47.1655 36.6293
535 2 32.0425 51.6564 44.046
536 2 25.1345 33.9109 17.0028
537 2 35.3841 15.5899 16.3898
538 2 46.1243 8.03681 16.5653
539 2 32.014 11.8265 16.7078
540 2 15.4224 42.2155 22.707
541 2 28.433 15.021 8.92045
542 2 50.4255 45.1841 6.36404
543 2 10.3575 45.6729 40.1785
544 2 53.4731 15.1289 29.0513
545 2 43.9525 54.9109 13.6745
546 2 51.4134 35.8492 48.874
547 2 39.8446 40.3837 51.7576
548 2 27.3064 35.0783 43.1401
549 2 26.1463 24.9876 40.5392
550 2 19.2539 13.3557 45.7286
551 2 34.0905 15.1141 33.296
552 2 15.5299 13.7924 17.301
553 2 42.7773 47.9254 44.6722
554 2 36.4091 45.7198 24.4898
555 2 9.99659 43.8923 37.0138
556 2 50.0693 38.2028 37.7458
557 2 36.9277 55.6205 39.4846
558 2 31.9582 11.3638 34.5877
559 2 12.9215 44.0705 20.045
560 2 49.3174 23.1336 24.9518
561 2 32.6855 52.3803 46.7949
562 2 37.1649 51.4129 38.4552
563 2 52.2999 32.2291 16.3097
564 2 54.1849 8.62487 28.7001
565 2 25.2985 36.1041 33.8034
566 2 20.3532 23.6682 24.7063
567 2 42.3278 32.7716 44.3066
568 2 11.5199 38.9908 44.1344
569 2 23.1041 13.9871 20.9446
570 2 16.208 10.1638 39.4612
571 2 30.1693 50.9209 32.0891
572 2 26.7106 37.7562 26.958
573 2 10.8319 51.6376 19.9906
574 2 7.4474 38.8012 18.7518
575 2 52.6175 55.3423 25.9917
576 2 52.1705 39.7592 39.7003
577 2 54.2053 50.6025 54.7213
578 2 41.5801 45.7572 12.0784
579 2 46.6649 19.0994 19.8639
580 2 42.2225 42.8245 40.4902
581 2 42.5413 54.8514 32.9112
582 2 15.9647 37.4775 25.9665
583 2 37.2347 50.4621 14.8056
584 2 22.4702 16.4927 44.282
585 2 17.8484 50.8343 32.2688
586 2 38.3765 25.9182 15.2085
587 2 24.0939 34.3315 23.7947
588 2 55.2896 36.5106 34.094
589 2 10.0158 28.5033 29.2395
590 2 14.0007 20.6351 40.3381
591 2 18.2051 42.5683 47.7049
592 2 28.1196 15.0941 48.1479
593 2 45.3013 34.5534 20.4381
594 2 6.73677 6.18498 23.5923
595 2 20.311 6.08805 43.9697
596 2 14.3385 19.7619 6.37695
597 2 11.389 41.4131 20.0034
598 2 8.6511 13.7203 39.4059
599 2 11.1391 8.45668 20.2001
600 2 38.7997 44.2407 32.7814
601 2 14.2943 33.7293 9.49688
602 2 18.2977 10.1626 29.2721
603 2 53.6089 48.1944 7.34789
604 2 19.8443 54.5678 29.9883
605 2 32.0022 28.9779 52.6305
606 2 45.7254 29.2612 51.3512
607 2 10.7313 33.594 12.1354
608 2 29.7379 19.0165 22.2748
609 2 18.2959 9.57623 8.67139
610 2 51.0877 53.3719 55.8351
611 2 23.5756 24.2358 42.4426
612 2 43.6637 49.7009 20.7288
613 2 40.2508 37.1089 14.5365
614 2 22.7894 11.2981 33.4713
615 2 41.7497 25.6534 11.8881
616 2 33.4094 12.5806 23.8946
617 2 40.9085 18.2709 31.4436
618 2 35.3941 13.1334 29.5885
619 2 52.1903 16.8773 55.1213
620 2 8.03747 45.3394 19.987
621 2 50.7352 55.227 9.73308
622 2 18.2251 26.7317 13.2548
623 2 50.3016 24.5657 20.3687
624 2 54.9614 55.5913 7.6395
625 2 26.4025 34.9187 55.4765
626 2 47.4973 38.6321 7.21587
627 2 28.4293 6.91255 43.8363
628 2 30.8702 11.0712 22.8916
629 2 41.0788 7.63552 33.8512
630 2 43.4526 38.1122 51.0339
631 2 25.674 21.9045 9.91243
632 2 52.0552 27.8677 49.0797
633 2 33.1566 8.07373 54.7523
634 2 23.692 41.3777 42.7328
635 2 51.6951 7.32083 29.9904
636 2 23.0875 38.3124 26.5754
637 2 8.41777 54.7903 38.9714
638 2 11.3629 39.1394 49.0175
639 2 39.6721 38.8895 46.6655
640 2 7.458 15.9007 37.5421
641 2 48.7211 29.7373 32.5001
642 2 9.05289 37.9515 23.0635
643 2 16.9058 16.3877 48.2123
644 2 7.14704 13.4705 41.677
645 2 11.1903 48.4372 38.7753
646 2 47.7958 23.7048 17.6592
647 2 43.7697 29.4491 34.6064
648 2 47.8557 49.3667 30.5048
649 2 34.8863 18.8287 17.2355
650 2 20.1856 48.8132 48.0571
651 2 34.4869 8.0053 15.0946
652 2 35.8369 7.59085 27.4461
653 2 18.6666 41.2003 34.8269
654 2 24.9263 12.0165 11.8546
655 2 31.6594 52.8711 33.3655
656 2 18.5602 50.1691 51.871
657 2 17.2334 52.5982 10.4896
658 2 22.9912 38.1822 7.90674
659 2 55.3453 49.7549 33.0821
660 2 34.1905 42.5078 48.963
661 2 13.5884 33.0704 50.4102
662 2 43.4267 52.058 42.8965
663 2 30.325 44.8164 50.1601
664 2 55.2543 10.7183 47.9147
665 2 36.4169 26.0059 53.7007
666 2 41.1566 15.0569 25.6802
667 2 10.297 8.22008 46.844
668 2 28.2412 48.8351 35.5064
669 2 18.966 35.4555 12.7024
670 2 15.4673 9.72072 10.1852
671 2 42.3602 53.224 35.5667
672 2 36.7975 26.696 46.0691
673 2 48.2492 34.8725 45.9968
674 2 29.7293 12.885 36.297
675 2 11.6608 24.833 19.1721
676 2 9.41064 32.4606 18.6435
677 2 14.1149 12.1303 53.7878
678 2 21.899 34.1661 9.22317
679 2 33.4946 34.1563 53.9317
680 2 47.6224 40.5376 21.7286
681 2 31.5737 33.1869 37.811
682 2 18.1212 9.76522 15.7735
683 2 46.8206 6.35169 35.8275
684 2 41.1192 30.5372 19.2525
685 2 52.3795 43.5296 32.7953
686 2 25.3844 54.4561 51.0629
687 2 14.0994 49.3746 55.7169
688 2 37.9513 36.7493 28.6515
689 2 20.4876 10.87 22.8088
690 2 13.9066 25.6219 13.564
691 2 48.01 14.7955 17.1864
692 2 48.2503 6.47511 43.0083
693 2 22.5718 38.2854 53.04
694 2 28.4774 33.8203 37.3969
695 2 45.9091 44.4386 22.0198
696 2 9.19021 12.7418 45.5343
697 2 23.89 42.6712 54.4316
698 2 19.2262 17.2239 32.1931
699 2 20.0742 20.8216 29.656
700 2 22.788 54.202 14.212
701 2 29.6368 13.7595 33.3614
702 2 39.8586 34.9426 19.8146
703 2 21.6717 18.8474 46.7899
704 2 49.8351 38.728 30.9958
705 2 26.3587 7.42868 27.5179
706 2 46.4665 11.7375 34.2732
707 2 35.5743 38.3771 49.9105
708 2 38.7551 52.3116 50.7331
709 2 48.6541 25.9821 24.2466
710 2 24.8058 48.7704 31.1955
711 2 41.5072 8.30669 54.0708
712 2 49.2523 40.2567 24.4025
713 2 6.48173 7.33954 36.3499
714 2 36.6199 39.6348 42.6498
715 2 30.0614 40.9672 48.9391
716 2 6.26431 12.9488 25.1244
717 2 45.2671 33.611 8.06328
718 2 34.1178 51.2493 19.1545
719 2 43.2082 17.1032 21.8519
720 2 10.7554 49.0606 11.0555
721 2 26.7702 18.1867 55.1136
722 2 33.6411 18.5743 39.6722
723 2 36.1453 54.5733 32.8158
724 2 55.6473 29.5409 53.3703
725 2 32.7214 7.30746 45.4871
726 2 22.3589 12.0522 15.595
727 2 41.259 15.3951 55.8122
728 2 18.2237 28.3063 27.758
729 2 14.7551 6.35121 48.2695
730 2 23.556 41.6089 25.2335
731 2 52.2209 46.7838 54.1883
732 2 10.9619 10.3184 29.0504
733 2 55.6409 14.9584 52.3841
734 2 7.5314 47.439 54.4783
735 2 34.2502 32.7877 26.5275
736 2 30.7136 27.011 20.3118
737 2 45.6974 52.3998 17.1632
738 2 30.8722 16.4965 38.2734
739 2 11.5792 54.7868 22.6468
740 2 48.5335 12.396 36.7051
741 2 45.1324 28.4524 26.1602
742 2 30.4857 42.7939 11.0925
743 2 49.767 26.5291 12.8007
744 2 49.0512 55.0873 7.31519
745 2 23.9106 20.1355 41.9995
746 2 37.5776 34.9233 44.263
747 2 20.487 28.5678 14.11
748 2 33.1608 43.035 15.4196
749 2 30.6484 39.4023 13.0364
750 2 53.8769 52.6519 9.05073
751 2 35.7426 14.0848 10.8854
752 2 34.9587 15.4541 46.6861
753 2 21.0812 18.5487 28.379
754 2 10.4722 14.3549 50.2041
755 2 36.5373 26.8562 49.166
756 2 23.6193 11.4785 39.6011
757 2 33.6257 14.201 8.20107
758 2 48.8525 39.0259 12.4972
759 2 27.7268 53.1637 29.4757
760 2 8.7943 33.6796 8.93862
761 2 53.7456 53.7806 20.5808
762 2 44.1296 7.96189 46.0339
763 2 38.8983 28.0501 50.3033
764 2 31.037 30.6284 26.3119
765 2 27.9087 49.2707 31.4391
766 2 39.238 43.6979 40.5445
767 2 15.4169 6.59107 32.9926
768 2 47.6565 51.7811 48.677
769 2 17.3325 13.6948 36.6777
770 2 35.6886 37.2853 22.0428
771 2 33.878 42.4888 45.8405
772 2 13.5059 14.6562 45.3234
773 2 41.8271 27.7871 15.4631
774 2 38.0857 40.7004 14.3456
775 2 26.6493 38.1182 14.5004
776 2 43.167 19.8024 7.15035
777 2 48.3406 30.7865 29.0462
778 2 32.2669 40.2061 21.8822
779 2 26.9056 31.8947 54.7038
780 2 21.4691 9.01042 9.50821
781 2 26.9166 51.6206 49.3852
782 2 50.0887 6.2167 46.1485
783 2 23.0167 49.6882 16.2528
784 2 30.9047 7.12963 38.0108
785 2 29.1717 24.8616 25.4288
786 2 49.0862 11.3753 55.7077
787 2 31.8685 29.3569 29.7136
788 2 39.391 38.2902 36.2438
789 2 54.2214 39.3956 15.9885
790 2 20.4019 18.4678 7.87154
791 2 22.838 31.2761 46.2353
792 2 24.3724 26.6182 7.87815
793 2 25.3696 31.1162 17.6379
794 2 16.4592 25.8693 31.2846
795 2 30.4989 29.6388 12.9862
796 2 25.8069 13.0806 44.0236
797 2 23.7238 8.98681 48.7499
798 2 40.797 27.729 25.5456
799 2 16.5827 23.1732 8.29993
800 2 7.45427 18.6412 47.866
801 2 30.4454 16.7112 54.9068
802 2 18.6835 16.9014 50.9895
803 2 12.8447 53.4156 36.1676
804 2 36.4402 39.4557 25.3947
805 2 41.7078 15.0331 44.9985
806 2 53.7913 24.2459 48.8324
807 2 26.133 21.8913 45.8114
808 2 30.5996 12.5142 48.4935
809 2 8.32869 36.912 8.06347
810 2 7.75376 50.7926 7.69604
811 2 10.2621 41.9824 26.4494
812 2 33.9177 37.7314 45.2417
813 2 6.11507 6.74813 44.2748
814 2 6.49804 46.819 37.4957
815 2 55.782 34.1044 35.3456
816 2 19.5668 25.0659 19.7187
817 2 50.8427 6.42473 16.4957
818 2 39.1062 49.2261 32.1476
819 2 34.4429 51.7831 40.075
820 2 53.631 25.2263 36.719
821 2 19.9096 46.8448 29.678
822 2 42.6093 12.0625 16.9189
823 2 9.19312 31.9552 42.2192
824 2 22.2287 44.764 40.3022
825 2 32.9881 47.6166 13.511
826 2 31.9928 20.6845 41.652
827 2 51.3542 31.4613 46.9423
828 2 17.061 51.6825 19.3951
829 2 40.3588 45.4988 36.8812
830 2 44.3325 24.7398 29.4171
831 2 37.6991 51.9992 47.2606
832 2 17.9884 37.5087 14.8629
833 2 7.87585 21.9482 53.425
834 2 34.184 24.4643 17.5619
835 2 40.0486 30.9988 30.8674
836 2 16.3188 53.5494 54.335
837 2 31.0356 45.2315 9.26538
838 2 46.5259 51.6156 31.5434
839 2 49.046 34.1065 10.1389
840 2 28.1552 34.141 52.4652
841 2 14.1733 18.5518 16.7171
842 2 41.1438 19.9199 15.5839
843 2 39.9462 10.4116 23.7101
844 2 37.1097 48.3301 45.5188
845 2 53.0258 27.9518 13.8844
846 2 9.87014 45.2307 26.7499
847 2 34.6898 35.5752 43.1049
848 2 9.81322 36.6153 18.2549
849 2 53.1038 21.5043 28.164
850 2 46.8693 20.1165 47.1736
851 2 27.5786 15.3595 45.0563
852 2 51.5273 48.5919 26.9297
853 2 29.2622 35.7026 14.1722
854 2 48.0416 30.259 54.7807
855 2 19.5418 32.0637 49.0806
856 2 47.5154 18.073 11.1365
857 2 48.6373 11.1802 27.9589
858 2 12.1425 29.9954 17.9782
859 2 48.5162 26.0395 10.2419
860 2 16.8532 27.6425 10.5691
861 2 31.4572 40.3805 35.2799
862 2 50.5672 51.7154 44.1333
863 2 52.3646 53.3767 50.8669
864 2 14.3998 28.2294 24.4118
865 2 52.6012 21.1761 30.9997
866 2 49.2867 45.6882 13.554
867 2 47.32 21.5933 38.8194
868 2 22.4577 27.0451 40.5356
869 2 20.687 20.3338 43.9108
870 2 54.3273 7.44281 22.4083
871 2 43.8499 47.1351 10.3782
872 2 32.0005 23.877 51.8588
873 2 7.33594 11.4955 14.7103
874 2 38.457 15.037 9.72718
875 2 20.2518 27.2916 31.4218
876 2 31.7722 17.691 14.3759
877 2 15.7422 36.0731 43.5236
878 2 15.7278 49.6441 21.9263
879 2 7.7289 41.297 7.33992
880 2 6.32376 18.2938 55.0272
881 2 47.1513 25.1042 20.451
882 2 13.0279 24.5193 25.2435
883 2 45.3438 39.3285 26.055
884 2 17.7453 37.0598 19.4561
885 2 9.13496 37.7146 11.1099
886 2 54.5345 54.1168 11.6932
887 2 34.4285 39.1039 35.1093
888 2 29.6242 15.8285 29.1679
889 2 27.8947 21.8331 37.8807
890 2 32.6804 44.6671 48.0242
891 2 35.3545 47.8037 55.0876
892 2 34.2735 33.1285 11.8796
893 2 31.8752 25.898 16.1998
894 2 36.1045 18.1425 43.2023
895 2 25.6063 28.8789 55.4289
896 2 22.643 23.5855 49.5028
897 2 13.3083 21.1175 33.645
898 2 51.0592 30.9242 25.6029
899 2 40.8604 30.5661 12.0257
900 2 34.6003 40.3107 11.7262
901 2 41.5771 36.4294 55.3771
902 2 45.1962 49.4359 8.98011
903 2 31.7742 37.9104 26.4949
904 2 13.9422 20.2713 46.3783
905 2 40.1337 18.1012 46.743
906 2 55.3103 49.8076 20.2663
907 2 10.3608 34.8311 54.5034
908 2 28.939 8.63433 27.1559
909 2 41.5639 7.74087 37.0521
910 2 19.991 51.9332 14.6968
911 2 18.6304 16.9787 27.417
912 2 43.1303 46.5175 48.9142
913 2 14.3376 18.7173 53.5462
914 2 21.043 22.3276 35.9893
915 2 51.8124 36.9498 26.8758
916 2 53.3775 12.9361 13.6935
917 2 24.3622 54.7478 36.9099
918 2 47.6999 51.6277 20.962
919 2 6.93512 22.0616 15.3939
920 2 35.1743 48.9885 8.46735
921 2 14.049 30.9918 52.5094
922 2 46.2697 44.2004 12.9567
923 2 31.6391 45.233 41.0737
924 2 30.6574 54.2013 21.8641
925 2 42.73 14.201 20.7003
926 2 30.0276 37.3519 34.8074
927 2 15.6739 40.6138 53.5932
928 2 17.8533 32.9283 50.608
929 2 14.1632 53.405 42.3041
930 2 14.8639 41.6405 36.9709
931 2 12.755 33.8037 47.2633
932 2 55.0542 44.6727 26.584
933 2 25.5532 24.0147 16.0951
934 2 10.8952 51.502 13.4722
935 2 14.1932 11.902 8.04828
936 2 48.4086 27.0436 55.4652
937 2 13.8921 48.216 26.1797
938 2 50.5591 51.1795 28.4231
939 2 43.5897 43.3297 46.1015
940 2 9.07066 6.36338 13.8077
941 2 9.4112 44.6732 12.7445
942 2 41.2665 26.3341 32.406
943 2 12.831 16.7456 21.2724
944 2 38.1662 54.0591 11.857
945 2 17.8421 13.2209 33.8646
946 2 23.7611 8.2615 51.8041
947 2 19.6805 35.1209 52.2516
948 2 15.0836 28.6553 54.0807
949 2 8.53163 49.9357 52.4732
950 2 35.9947 18.9457 55.1945
951 2 15.4982 28.551 38.5828
952 2 22.446 13.6124 45.5771
953 2 47.2088 28.2868 34.9333
954 2 10.9109 23.0099 43.3973
955 2 44.9002 38.1889 9.21347
956 2 33.4215 49.3773 47.6663
957 2 18.8708 29.6697 7.52556
958 2 21.536 27.2302 54.3903
959 2 12.0315 25.4711 28.1516
960 2 21.1351 19.8071 12.9826
961 2 34.705 15.3804 53.799
962 2 22.5821 15.7357 12.7092
963 2 11.2342 31.571 20.3549
964 2 18.2342 25.5419 51.9556
965 2 17.2951 11.8205 53.1327
966 2 48.1352 9.28182 54.1358
967 2 23.1925 55.6311 54.1512
968 2 25.1958 15.7274 48.5138
969 2 7.23461 14.5077 31.8513
970 2 21.5253 51.7858 30.1934
971 2 40.303 55.3996 47.7272
972 2 26.6262 12.3908 22.3755
973 2 36.9024 10.5613 20.8766
974 2 17.9997 46.1368 37.0967
975 2 50.9196 21.1083 47.5716
976 2 8.11466 52.7512 53.7507
977 2 7.75339 53.1628 30.6768
978 2 13.9544 15.8204 18.9893
979 2 8.44701 17.0455 39.9223
980 2 10.3615 41.2677 39.0191
981 2 31.2147 9.51014 18.2281
982 2 53.5023 6.98134 37.7238
983 2 38.8613 37.401 42.7651
984 2 54.6271 46.9961 52.0387
985 2 13.9124 7.00861 15.7882
986 2 26.3243 47.5019 45.776
987 2 49.9662 47.8947 6.83364
988 2 51.1137 41.1739 15.7764
989 2 21.3241 41.1414 48.6657
990 2 7.60586 12.6501 18.2792
991 2 29.7923 47.3295 37.7654
992 2 22.741 36.2292 15.7663
993 2 31.1287 54.3504 10.4975
994 2 28.5604 46.662 10.1091
995 2 46.2957 9.79626 45.0086
996 2 44.5958 54.0793 27.7612
997 2 16.9385 43.7617 35.5336
998 2 23.3043 54.5432 44.2158
999 2 21.0861 38.9954 16.4783
1000 2 34.3616 41.5534 41.3734
1001 2 34.319 27.5253 53.0374
1002 2 26.6913 24.0547 31.1494
1003 2 16.7759 18.5668 15.2304
1004 2 48.1921 33.0404 43.8179