ITEM: TIMESTEP
0
ITEM: NUMBER OF ATOMS
9088
ITEM: BOX BOUNDS xy xz yz pp pp pp
6.1101653823149027e+00 5.5820772409950273e+01 -5.7033708793549509e-15
6.1101653823149080e+00 5.5820772409950273e+01 0.0000000000000000e+00
6.1101653823149080e+00 5.5820772409950273e+01 0.0000000000000000e+00
ITEM: ATOMS id type x y z
1 2 37.6442 16.7875 13.3001
2 2 9.67407 6.68455 33.3025
3 2 47.1317 26.9898 21.1186
4 2 21.3345 12.4468 26.5089
5 2 17.7863 51.2927 29.1718
6 2 39.1359 45.2857 52.4511
7 2 20.9405 6.15644 20.0587
8 2 31.0182 26.8045 15.7033
9 2 12.7084 39.3054 28.0338
10 2 9.17126 33.5395 28.7787
11 2 31.798 27.471 24.8582
12 2 9.63597 41.6159 45.7864
13 2 17.8184 15.2512 50.0236
14 2 53.0893 47.4318 30.6529
15 2 47.5944 26.3096 45.5022
16 2 41.7491 34.3996 52.322
17 2 20.6278 53.8986 6.86827
18 2 38.4426 41.4444 30.4713
19 2 21.2782 49.5019 25.0207
20 2 22.6639 50.5201 15.6659
21 2 27.4939 36.906 43.4466
22 2 32.9992 40.6175 12.5142
23 2 28.9664 54.0834 55.7449
24 2 11.6957 8.43305 18.5416
25 2 44.9319 12.3106 49.5066
26 2 47.1197 25.5754 54.1385
27 2 36.1489 19.0079 40.468
28 2 51.69 12.3473 27.2366
29 2 24.178 33.8455 7.16249
30 2 18.642 27.807 45.6272
31 2 43.4999 15.8096 35.0549
32 2 13.7267 11.3561 22.4429
33 2 13.2695 28.3738 12.6083
34 2 41.525 52.5131 8.80668
35 2 35.7989 54.1955 37.5375
36 2 44.4115 20.6195 29.1493
37 2 41.501 15.9878 17.4342
38 2 27.4885 23.7054 45.5883
39 2 35.941 26.6427 24.4277
40 2 30.5364 6.64222 43.8554
41 2 54.101 17.3025 12.4627
42 2 24.9115 21.9337 14.8941
43 2 21.8023 13.248 17.6888
44 2 32.543 50.0354 45.653
45 2 27.9189 41.8293 34.6374
46 2 48.133 29.1221 29.2347
47 2 19.3013 19.5877 8.74659
48 2 34.212 41.6199 48.6116
49 2 35.5179 8.46829 27.0063
50 2 54.0961 38.1519 43.4577
51 2 29.6882 47.9983 30.8375
52 2 29.218 47.167 38.2051
53 2 20.9882 53.9372 32.3677
54 2 47.7519 21.82 45.4779
55 2 19.11 40.0048 26.1756
56 2 52.0564 11.0256 33.966
57 2 54.6368 47.9741 18.6614
58 2 55.7301 53.6838 26.1896
59 2 20.1498 15.9187 21.7891
60 2 55.3085 45.4882 38.377
61 2 36.245 48.5835 52.9487
62 2 28.4702 6.51146 13.7954
63 2 6.64092 7.71085 33.4207
64 2 22.5073 54.0953 24.081
65 2 45.9388 46.2937 21.0564
66 2 45.7667 29.9578 49.1496
67 2 13.5476 16.1694 40.1804
68 2 54.3942 37.1388 24.4887
69 2 32.1944 10.3535 50.0437
70 2 10.7984 7.43232 30.7076
71 2 21.796 6.39822 54.1821
72 2 38.2219 6.75331 22.2032
73 2 7.08707 6.5657 39.7296
74 2 29.8815 15.3721 43.5974
75 2 6.9369 30.3018 51.5612
76 2 8.38055 9.12472 39.8858
77 2 33.3884 30.4645 49.4071
78 2 46.168 41.2066 25.5269
79 2 52.6623 27.0706 50.4142
80 2 41.8822 21.3514 31.016
81 2 38.737 9.05327 46.0494
82 2 24.2948 26.3101 21.2364
83 2 24.3814 54.2567 46.9882
84 2 46.8676 54.0061 33.2485
85 2 38.7659 9.5083 13.9198
86 2 36.8025 6.53633 52.1107
87 2 29.0322 50.4619 26.957
88 2 18.0155 37.1774 34.8749
89 2 9.04328 16.1517 11.3488
90 2 30.9652 39.3358 42.3251
91 2 39.4494 27.7088 12.6771
92 2 24.0176 31.9326 48.3246
93 2 9.92183 20.2657 52.0175
94 2 48.8082 13.4968 26.5409
95 2 45.471 28.5345 19.0656
96 2 8.33668 15.315 48.4535
97 2 43.8241 6.3901 30.4127
98 2 24.622 42.3484 20.6775
99 2 28.1272 29.3127 49.6012
100 2 9.74957 38.4978 46.237
101 2 33.8214 47.5921 30.0513
102 2 48.7547 20.9447 37.7129
103 2 11.5195 44.419 23.0756
104 2 24.4036 55.0366 13.9638
105 2 16.1369 45.4278 42.4411
106 2 55.1638 13.2863 49.0063
107 2 44.6208 23.4883 38.6197
108 2 35.9505 18.0113 19.9418
109 2 18.1347 31.9155 23.9839
110 2 25.5885 48.6444 30.0284
111 2 19.6914 37.6782 28.2806
112 2 35.7632 45.2547 30.0109
113 2 42.4366 15.842 25.1887
114 2 35.9804 24.3414 49.2218
115 2 41.6063 22.4363 47.1086
116 2 40.4936 26.268 21.0026
117 2 29.3561 43.7117 14.9397
118 2 31.3071 10.0912 35.9527
119 2 13.5648 29.9274 25.0004
120 2 21.8399 7.83996 43.1978
121 2 13.1034 40.2642 16.6867
122 2 28.7363 24.3382 30.7092
123 2 43.026 29.8334 45.3569
124 2 29.0577 9.14841 29.8799
125 2 12.2429 44.2848 34.5496
126 2 38.6109 23.9002 21.68
127 2 15.8368 39.2393 13.3227
128 2 51.4657 11.7819 6.6479
129 2 31.8074 52.1605 36.6291
130 2 47.1216 48.4684 19.0779
131 2 7.76695 36.9835 37.6777
132 2 30.5507 26.9751 29.7572
133 2 38.9318 9.21563 33.8091
134 2 25.1953 9.57914 15.4803
135 2 32.6666 23.6725 18.7177
136 2 9.01121 25.1243 40.0442
137 2 20.2077 16.9172 48.7159
138 2 46.7337 41.0688 54.3312
139 2 7.35508 38.984 8.97669
140 2 15.5128 8.49921 49.2262
141 2 45.3413 54.6074 50.7594
142 2 27.7473 28.9624 19.6255
143 2 49.1595 42.0169 20.5075
144 2 17.4658 36.4412 7.32551
145 2 40.8015 42.1748 45.4542
146 2 25.8182 31.3535 20.5648
147 2 34.6406 15.1986 54.3759
148 2 23.398 45.6424 24.0723
149 2 32.2087 39.5023 27.5653
150 2 21.775 10.7117 12.6774
151 2 15.7892 14.0817 34.5579
152 2 19.2478 31.4237 51.2592
153 2 20.4589 17.8588 31.1021
154 2 39.075 44.2952 12.364
155 2 36.7436 31.539 41.8375
156 2 34.0235 18.964 33.6958
157 2 32.381 27.1941 49.121
158 2 48.5207 11.6834 47.2621
159 2 22.8849 30.8691 7.34833
160 2 29.1181 40.1387 32.0434
161 2 30.649 9.16789 27.3115
162 2 43.0756 39.6497 41.9026
163 2 44.6472 40.311 10.3254
164 2 34.4152 26.0516 12.8462
165 2 31.5317 51.1543 7.88739
166 2 27.9782 6.64348 25.3279
167 2 25.3846 19.3376 27.1188
168 2 9.10883 31.3413 21.3961
169 2 36.9981 9.2034 43.8008
170 2 15.4792 7.51711 44.2221
171 2 21.9932 28.9333 24.8427
172 2 18.1415 50.6233 21.6805
173 2 12.7298 47.3734 9.40712
174 2 17.3435 38.9053 23.8091
175 2 18.4544 8.57907 40.7985
176 2 47.0558 44.5655 16.3387
177 2 49.9709 22.6382 25.5979
178 2 34.2724 14.9373 10.0235
179 2 20.8444 18.7448 13.5891
180 2 9.32239 22.4466 50.2541
181 2 10.1154 47.3298 11.6663
182 2 40.9894 7.7656 45.2904
183 2 48.5913 16.1631 46.3615
184 2 8.76497 53.9169 42.1998
185 2 36.9962 47.4105 18.9627
186 2 53.6293 39.9375 27.0575
187 2 34.1177 16.644 7.39597
188 2 50.4093 14.934 13.7288
189 2 55.4187 19.5956 50.5948
190 2 34.1357 54.4509 24.4011
191 2 25.276 25.6352 38.7264
192 2 38.3929 33.8803 32.9285
193 2 55.299 9.07226 11.0968
194 2 41.9165 32.2244 47.849
195 2 54.6912 48.8571 51.6929
196 2 32.0557 35.4245 44.7141
197 2 18.7896 34.9113 28.4015
198 2 41.4466 46.5755 40.4623
199 2 42.0409 7.31337 36.4439
200 2 7.90473 18.3351 52.891
201 2 11.2779 12.5573 33.6296
202 2 27.5563 49.5257 8.08488
203 2 25.1904 10.2203 43.4406
204 2 38.594 28.3622 44.0401
205 2 24.5958 36.3546 17.2128
206 2 45.7658 43.7698 34.7178
207 2 9.3706 25.795 13.9617
208 2 19.6526 24.9008 43.332
209 2 6.73635 19.5404 22.4132
210 2 16.5959 42.6182 36.3818
211 2 47.5444 53.7959 22.553
212 2 42.8709 21.5116 49.9441
213 2 12.9141 28.7245 15.2207
214 2 13.6985 44.0257 28.2094
215 2 11.5947 12.1304 36.8636
216 2 50.27 8.54374 34.7245
217 2 54.9469 40.9909 55.3294
218 2 26.3454 6.42921 33.1804
219 2 6.13696 53.5616 40.1307
220 2 23.9257 53.4608 42.6936
221 2 22.3893 10.571 43.4057
222 2 47.1538 37.1087 33.0398
223 2 32.7032 36.6709 29.9077
224 2 16.3105 13.3657 19.4041
225 2 22.8859 19.7515 11.5919
226 2 45.4254 30.0417 32.4609
227 2 51.4205 32.8044 38.467
228 2 31.2441 26.5628 10.3727
229 2 31.7782 43.2504 51.6789
230 2 30.7397 51.3397 43.8407
231 2 48.4217 7.19805 30.1473
232 2 33.9393 16.1448 29.5024
233 2 48.2485 23.7539 32.0497
234 2 17.4796 27.7547 53.1666
235 2 52.8592 26.1333 8.07679
236 2 35.4608 27.0742 33.0755
237 2 23.8176 16.4343 50.8918
238 2 42.7057 24.4069 23.5283
239 2 22.0192 9.14177 15.5077
240 2 9.23747 35.4167 55.3496
241 2 30.4473 22.252 6.87196
242 2 31.4234 31.8862 30.4209
243 2 24.3334 39.8457 16.618
244 2 25.9546 14.9144 25.9777
245 2 46.2156 9.21126 43.8075
246 2 19.2828 54.165 50.3651
247 2 54.8619 47.9673 35.3345
248 2 6.94813 12.2492 7.28999
249 2 49.4204 18.2705 39.0275
250 2 6.32982 41.4435 16.4835
251 2 26.6294 51.0359 28.85
252 2 8.89461 44.4327 52.8583
253 2 17.4583 21.4074 22.4163
254 2 15.954 50.6557 52.2259
255 2 33.0497 20.0394 31.2298
256 2 16.255 6.7235 19.583
257 2 20.3889 42.1834 53.2402
258 2 22.0877 13.8346 51.4067
259 2 7.66159 11.394 30.7615
260 2 38.5015 23.766 14.9668
261 2 10.9098 19.02 37.3877
262 2 51.1579 39.3748 17.2257
263 2 24.0441 20.4302 18.8769
264 2 9.10319 44.8874 27.289
265 2 34.2732 16.3628 22.2914
266 2 11.6855 41.7655 6.64519
267 2 8.35633 29.6551 14.644
268 2 11.5507 17.4168 18.028
269 2 27.8644 42.6935 31.3309
270 2 39.0274 34.824 10.3319
271 2 17.3099 35.7072 10.3871
272 2 11.2584 51.6445 44.5622
273 2 27.4754 22.1819 10.5245
274 2 39.5687 21.8312 39.166
275 2 53.8288 38.5017 9.9593
276 2 16.5695 9.82381 46.9086
277 2 50.0042 17.2148 42.1705
278 2 17.9243 8.91179 30.4086
279 2 54.4432 26.7313 14.9097
280 2 37.1495 51.3343 37.9546
281 2 34.6096 50.7648 36.0851
282 2 34.2567 52.6402 46.1915
283 2 37.0683 8.19632 24.8
284 2 18.6718 35.5214 53.0214
285 2 50.6388 29.7166 47.781
286 2 27.1625 48.6225 36.9866
287 2 9.48339 55.4446 22.3467
288 2 8.63527 8.61425 26.3715
289 2 28.161 44.0827 12.059
290 2 9.6632 6.17058 19.3143
291 2 22.2572 35.7917 42.4041
292 2 11.8216 33.8348 27.0638
293 2 28.5361 43.9783 36.9929
294 2 15.9538 10.4861 37.5914
295 2 38.1195 52.8868 14.9379
296 2 24.417 35.3408 33.898
297 2 37.0824 31.2016 34.6334
298 2 9.43729 47.387 36.7081
299 2 38.9522 27.1949 47.0973
300 2 45.7423 37.9584 12.1765
301 2 42.7907 27.9448 19.8423
302 2 52.7786 34.2735 8.38898
303 2 29.7646 46.0869 8.07797
304 2 37.8693 47.5719 50.5661
305 2 34.877 34.8554 41.3319
306 2 52.7352 15.8509 10.2158
307 2 31.9663 47.9538 51.7702
308 2 25.8835 28.8706 51.6612
309 2 44.2643 33.6058 48.978
310 2 14.8225 43.0329 21.2936
311 2 19.8479 54.9202 38.5633
312 2 49.7161 43.3705 43.4891
313 2 31.9555 24.8224 36.0461
314 2 49.5293 35.9272 22.1023
315 2 9.64553 19.7805 40.0942
316 2 6.96051 32.1202 37.8293
317 2 50.078 43.5385 36.892
318 2 22.6459 36.4045 47.4009
319 2 13.8457 22.2119 52.2387
320 2 9.27821 6.19533 50.3007
321 2 52.9466 41.7986 24.9161
322 2 18.8518 8.50716 16.2468
323 2 53.6543 52.024 25.1082
324 2 51.4656 31.8758 41.9691
325 2 32.2094 23.9497 52.0049
326 2 26.9165 27.8856 44.545
327 2 41.7127 33.1934 6.72969
328 2 26.1153 23.533 40.5298
329 2 49.2001 39.2472 47.1085
330 2 42.2729 25.4887 39.2426
331 2 7.37938 45.4656 40.4621
332 2 52.2111 42.2972 32.4103
333 2 24.2817 15.5567 55.1663
334 2 22.9782 48.9626 7.10103
335 2 52.5931 37.9092 53.0752
336 2 35.2247 32.427 50.8129
337 2 29.8383 8.91556 16.3626
338 2 13.8025 51.0707 22.7158
339 2 42.2736 50.2447 39.4889
340 2 14.3857 15.8714 51.4668
341 2 19.269 40.4675 16.9397
342 2 50.5615 31.4554 54.5565
343 2 51.4603 53.9211 33.0687
344 2 14.2558 34.2431 54.6308
345 2 21.7876 40.6772 28.3654
346 2 12.4341 37.9608 18.2575
347 2 15.3493 10.1481 15.8332
348 2 50.2633 19.4035 16.4231
349 2 31.9665 27.7688 21.7273
350 2 42.6638 42.7145 15.6466
351 2 7.89746 27.785 21.7023
352 2 34.4643 33.4874 6.25673
353 2 34.9975 13.3185 28.3817
354 2 51.5851 45.5904 20.6782
355 2 27.6693 16.9408 44.98
356 2 48.9798 13.2622 18.4127
357 2 33.6804 22.6351 14.4656
358 2 7.82169 55.6307 16.6017
359 2 20.9426 54.6441 9.61114
360 2 22.3808 16.3901 28.689
361 2 49.63 36.3465 11.8434
362 2 27.8712 32.7714 25.2522
363 2 48.5206 43.3706 39.3906
364 2 27.0807 16.7904 40.368
365 2 27.6656 42.3037 52.3221
366 2 21.64 26.0877 8.90598
367 2 55.2064 15.1311 26.8144
368 2 26.1462 12.0175 53.7651
369 2 30.0593 15.0644 55.4312
370 2 14.4663 45.9281 33.7391
371 2 17.7505 11.7929 30.7146
372 2 16.4086 30.3145 40.1911
373 2 27.829 19.1149 49.7788
374 2 45.0051 15.0318 8.65934
375 2 35.8654 50.4035 26.313
376 2 36.4157 38.6027 42.9519
377 2 19.4639 29.4541 28.0664
378 2 29.121 19.3584 10.6896
379 2 25.9081 54.1516 54.7313
380 2 11.7039 19.9652 47.6184
381 2 19.2161 27.8751 36.3091
382 2 23.4997 55.2776 21.4206
383 2 14.8197 38.5597 38.3226
384 2 23.2131 13.134 7.49608
385 2 16.5274 55.0812 27.8028
386 2 48.6727 15.5894 11.7323
387 2 52.3853 12.3827 13.1873
388 2 17.4447 43.2179 38.9418
389 2 23.3246 7.81425 33.3595
390 2 20.2375 16.7095 18.414
391 2 20.9315 12.3126 38.3067
392 2 9.8757 9.6447 12.9023
393 2 44.4015 27.9174 39.8224
394 2 28.3464 13.1949 28.5852
395 2 37.5487 34.2263 40.0808
396 2 44.8919 39.2279 31.4936
397 2 17.7928 37.1127 39.1606
398 2 35.893 12.8494 12.4291
399 2 40.9814 7.44586 7.92723
400 2 23.1449 21.5928 39.2634
401 2 18.2743 45.932 21.3869
402 2 53.9539 36.1683 12.3121
403 2 15.8736 9.54571 42.0666
404 2 30.6979 32.1202 35.9734
405 2 26.4813 28.1814 27.5051
406 2 34.0836 8.56067 30.0675
407 2 39.0773 18.5368 47.0774
408 2 43.1702 32.6626 37.9265
409 2 54.8775 15.2954 36.9201
410 2 9.84605 42.7145 12.0032
411 2 26.1977 25.4783 52.2815
412 2 34.2077 51.2042 40.8923
413 2 13.824 15.6089 46.9485
414 2 52.6401 55.6226 9.44735
415 2 11.2813 44.6197 10.4005
416 2 52.732 44.8121 26.7088
417 2 21.0386 39.7217 19.4099
418 2 22.2145 24.4466 30.5069
419 2 43.3423 47.3717 54.8455
420 2 24.166 32.7943 22.8489
421 2 31.5117 16.0805 13.8006
422 2 43.6826 15.6182 49.5556
423 2 49.1841 38.7592 44.3863
424 2 52.648 17.7148 46.5874
425 2 17.2414 53.3015 35.1824
426 2 28.6947 36.2165 25.1026
427 2 35.0916 32.5706 16.0625
428 2 18.6777 33.5174 15.2057
429 2 28.7463 32.333 42.1777
430 2 51.9653 7.14436 13.8667
431 2 30.4444 22.3984 37.6214
432 2 28.3566 50.5725 16.1646
433 2 27.5311 28.0006 25.1689
434 2 16.1139 48.6947 29.7384
435 2 33.3817 45.5655 51.6975
436 2 13.3503 21.5544 20.505
437 2 27.2873 22.7767 51.7131
438 2 45.8911 11.1838 11.7478
439 2 24.8421 50.7992 26.1049
440 2 12.8252 41.4566 25.4934
441 2 40.0857 45.1713 38.61
442 2 47.0832 31.4702 40.2956
443 2 8.02658 40.0225 53.9045
444 2 36.5729 53.2218 22.8063
445 2 53.8621 20.2709 13.3142
446 2 11.9328 21.3584 30.8885
447 2 31.7865 38.1992 46.0941
448 2 22.119 26.8107 42.5693
449 2 34.6542 42.3431 14.7177
450 2 28.685 13.587 52.5456
451 2 10.5625 9.62942 15.6173
452 2 49.3742 48.4043 7.26529
453 2 25.5421 40.6657 51.1028
454 2 44.6999 28.2544 23.6481
455 2 52.583 21.1384 24.8121
456 2 30.2922 44.8168 30.7779
457 2 27.2739 20.9825 39.0257
458 2 47.6054 42.7234 23.1526
459 2 6.37649 28.4931 30.4602
460 2 11.6634 40.4107 12.8646
461 2 35.4941 43.8731 35.5188
462 2 27.0599 8.67908 45.268
463 2 6.2471 40.4113 21.8729
464 2 35.3709 43.8176 27.1744
465 2 8.58389 20.569 11.9731
466 2 37.5975 13.1794 35.3333
467 2 23.2357 38.4302 43.1774
468 2 45.16 25.0753 22.0884
469 2 6.73277 25.1198 21.5023
470 2 48.9301 21.3324 34.5188
471 2 43.9591 25.2654 31.8124
472 2 42.0688 44.5152 36.3151
473 2 53.6984 35.9054 6.24397
474 2 22.0565 45.3286 44.336
475 2 43.3322 50.4922 21.4762
476 2 19.3256 45.8242 42.7725
477 2 38.9106 7.03283 42.2207
478 2 28.117 55.4475 45.1011
479 2 41.7388 27.3905 48.6934
480 2 26.0863 35.513 55.7325
481 2 24.5068 51.7078 6.65759
482 2 34.7605 41.316 42.6813
483 2 11.5604 45.5237 41.4713
484 2 50.948 36.7482 29.5144
485 2 22.5203 32.3251 31.0774
486 2 50.3188 9.3631 23.7571
487 2 35.0921 25.5868 18.5678
488 2 13.348 32.4226 47.1352
489 2 9.35375 53.7133 26.9768
490 2 41.3855 11.9386 36.7842
491 2 40.0143 52.5659 29.5605
492 2 40.1244 41.5538 11.7007
493 2 46.0056 47.543 16.0691
494 2 55.4155 29.192 26.6522
495 2 17.6466 27.1136 13.8799
496 2 51.1998 29.6435 44.8054
497 2 8.98236 44.1164 24.1924
498 2 23.2664 21.5856 33.6887
499 2 7.87074 18.6215 14.9006
500 2 12.1642 36.5743 6.92476
501 2 20.5557 48.0508 44.1832
502 2 37.7437 11.4825 52.9125
503 2 27.3301 24.0855 19.1912
504 2 30.7847 43.0872 35.2466
505 2 27.2355 45.9393 29.8215
506 2 20.8837 33.7093 10.0461
507 2 26.0056 34.1688 41.6894
508 2 6.36798 9.35834 20.2789
509 2 19.2866 14.4976 19.2294
510 2 47.4339 37.4279 16.3155
511 2 33.0723 13.0003 50.6667
512 2 52.7337 29.6074 36.6491
513 2 37.6188 32.3382 19.2952
514 2 54.7701 42.994 27.802
515 2 40.6452 55.0472 49.4127
516 2 47.0239 45.8174 46.4353
517 2 35.8034 48.1659 41.3686
518 2 34.5024 6.68968 41.6226
519 2 39.5772 24.1844 51.3359
520 2 49.0951 43.6475 7.66127
521 2 16.5508 12.9237 16.45
522 2 34.7093 21.0114 8.53397
523 2 30.2679 23.3424 33.4959
524 2 45.516 27.6337 30.1978
525 2 51.2464 24.5627 36.6855
526 2 36.0139 39.8348 16.6928
527 2 53.1636 51.7067 29.4374
528 2 19.7593 51.1082 41.2482
529 2 43.9015 9.27276 49.0042
530 2 50.369 13.566 49.2843
531 2 21.1205 44.156 28.9556
532 2 39.1898 37.0183 14.4237
533 2 29.8175 22.1913 22.1524
534 2 28.0392 10.8906 26.3091
535 2 13.2299 15.0187 33.3629
536 2 6.27982 47.6256 6.17294
537 2 16.4248 29.3023 55.5771
538 2 27.5874 21.4264 6.13078
539 2 13.0916 25.6132 6.38873
540 2 46.1848 6.33403 11.7703
541 2 9.65501 28.829 48.2167
542 2 31.2986 9.22567 45.7135
543 2 41.2238 9.48776 29.7854
544 2 34.8562 28.6443 18.3316
545 2 25.1903 19.2546 53.281
546 2 32.6026 50.0026 38.3332
547 2 21.0138 54.2461 41.1085
548 2 8.89903 48.8662 32.5132
549 2 7.53665 38.4205 30.1477
550 2 50.3682 26.7549 35.2327
551 2 15.1779 28.888 22.5915
552 2 46.933 27.6417 7.09453
553 2 23.568 11.7278 34.3093
554 2 17.5847 9.40673 13.8353
555 2 41.1381 7.9855 26.5124
556 2 31.4229 52.0104 27.2378
557 2 18.1706 19.4503 28.8067
558 2 13.0929 25.0539 24.0086
559 2 43.8663 8.0441 9.49566
560 2 30.4382 36.6302 14.4502
561 2 13.9482 15.97 36.3534
562 2 18.3345 15.4406 28.0065
563 2 33.4319 45.9084 55.5184
564 2 35.7211 22.5929 18.3255
565 2 6.44521 49.8451 22.9099
566 2 51.5011 37.2686 14.1416
567 2 23.5335 46.2488 33.4658
568 2 42.6459 52.6247 33.9495
569 2 53.8136 27.807 10.5268
570 2 47.1879 23.9652 29.0829
571 2 11.5519 14.8357 21.5836
572 2 7.71398 51.4757 16.8987
573 2 41.7185 15.084 9.79568
574 2 38.3301 52.5624 8.52368
575 2 33.8539 19.3253 15.7121
576 2 33.6539 53.629 29.2723
577 2 35.2888 14.2558 44.0183
578 2 22.8571 9.98204 51.3496
579 2 27.6666 33.0693 9.26884
580 2 23.5017 6.90486 29.9955
581 2 24.0073 19.1816 22.4092
582 2 46.5281 50.9552 15.359
583 2 18.5502 14.4971 54.4428
584 2 53.5055 30.2663 33.8102
585 2 48.6921 14.7158 21.4405
586 2 19.6697 39.6699 54.4902
587 2 55.2263 48.4357 13.3197
588 2 36.7793 50.5704 23.5324
589 2 41.2025 42.0446 18.8484
590 2 44.8721 34.356 29.8517
591 2 49.1646 6.37729 37.0107
592 2 9.4223 28.6157 37.5882
593 2 26.0924 47.8925 10.204
594 2 37.8858 20.0095 13.4636
595 2 51.2714 19.8303 33.5574
596 2 45.2253 33.5065 45.498
597 2 42.1804 54.9948 9.71639
598 2 39.0639 27.6638 28.9404
599 2 43.1822 21.4054 10.5611
600 2 20.0552 8.02587 22.3421
601 2 45.104 47.462 48.718
602 2 49.1345 23.7613 18.49
603 2 34.5329 11.8371 46.6656
604 2 51.0882 18.2498 19.3242
605 2 13.3703 43.086 42.4448
606 2 27.303 43.0109 41.0799
607 2 41.7721 47.406 51.4078
608 2 10.7372 32.6749 11.9791
609 2 49.1419 23.1663 48.0009
610 2 32.5269 17.3178 45.3637
611 2 54.677 37.8578 31.8001
612 2 25.0841 13.734 10.4912
613 2 21.4949 50.6162 53.9103
614 2 53.8251 24.8994 22.6714
615 2 22.9207 39.5764 50.6717
616 2 14.7906 26.3178 13.4667
617 2 21.7516 31.9067 20.7521
618 2 16.8202 26.3244 19.2913
619 2 33.4779 30.415 44.8293
620 2 38.9119 9.25841 9.58125
621 2 32.1784 19.3425 49.3234
622 2 49.1796 39.9496 52.5802
623 2 31.4218 38.2483 9.90324
624 2 36.2929 19.1147 46.8267
625 2 7.65068 48.5306 44.9395
626 2 28.6616 52.1135 46.5556
627 2 9.56272 20.8015 33.3955
628 2 12.2043 24.4605 12.5741
629 2 22.4592 21.5544 23.5616
630 2 24.9108 51.9739 40.3076
631 2 6.72609 35.4694 49.0538
632 2 33.2707 41.3096 38.6119
633 2 14.1943 21.7361 43.9091
634 2 54.7528 54.9299 31.9964
635 2 32.9071 21.0133 19.491
636 2 54.0103 52.0482 16.4117
637 2 39.1554 19.1291 28.5711
638 2 42.5625 52.9005 38.43
639 2 20.9469 52.403 36.2106
640 2 38.4427 29.5849 26.7311
641 2 30.1231 43.4684 21.97
642 2 40.17 51.6743 12.5577
643 2 47.4871 30.0073 37.5476
644 2 37.9489 27.0199 31.4623
645 2 42.0811 12.3347 28.2856
646 2 28.8185 37.3309 7.09337
647 2 25.2447 43.1846 24.0677
648 2 29.2447 13.4858 20.0279
649 2 15.7978 32.4614 6.88038
650 2 50.894 12.5578 37.643
651 2 15.9943 21.3747 54.3223
652 2 17.1966 21.002 17.3441
653 2 49.8717 54.9212 24.0968
654 2 55.6166 25.6844 51.1883
655 2 12.9098 16.6432 22.6095
656 2 49.403 14.4613 41.7256
657 2 48.3119 16.5106 49.697
658 2 54.4772 51.9625 47.0169
659 2 36.6224 13.8517 22.7937
660 2 15.6878 6.22306 38.3377
661 2 44.5198 46.4851 39.4455
662 2 24.7253 16.127 32.7804
663 2 11.6443 8.7575 39.6829
664 2 36.3928 24.4516 37.4582
665 2 17.5384 39.7439 43.0423
666 2 22.222 29.0106 15.1084
667 2 41.3244 22.0147 36.3744
668 2 9.61239 12.6835 24.7547
669 2 50.2015 49.0036 51.7465
670 2 46.5841 23.6511 49.5586
671 2 23.932 16.8915 25.199
672 2 18.5851 40.3083 35.2928
673 2 29.5249 48.8373 35.419
674 2 10.6511 26.5854 25.6333
675 2 42.4805 38.6273 8.54058
676 2 39.8463 45.9708 8.32006
677 2 44.8641 26.2617 43.0605
678 2 53.2516 47.7677 48.6461
679 2 14.8138 47.9625 43.6773
680 2 28.84 54.0618 11.4361
681 2 12.9885 46.8183 27.1575
682 2 48.8429 23.3753 55.2214
683 2 28.0342 20.0861 25.4693
684 2 22.3531 43.9431 9.03622
685 2 33.522 7.43714 22.3657
686 2 6.7725 18.0158 40.4047
687 2 45.1395 13.3667 45.0879
688 2 19.4308 50.412 18.3943
689 2 51.4818 24.7208 12.2342
690 2 44.9715 39.4422 52.8032
691 2 29.2978 28.8325 7.20598
692 2 29.4395 20.2586 32.7184
693 2 53.6013 52.1977 42.1357
694 2 9.86093 47.614 27.0397
695 2 26.9752 8.58459 11.7283
696 2 40.1757 26.4643 35.0382
697 2 54.7521 7.02194 44.0053
698 2 50.2908 30.8885 21.7966
699 2 50.9059 34.5559 19.2126
700 2 53.7482 18.3897 53.7414
701 2 10.9724 27.4212 22.7394
702 2 21.0295 48.5939 9.59505
703 2 53.0691 32.6261 35.9241
704 2 31.5014 52.3843 20.4061
705 2 8.02287 20.949 16.7297
706 2 27.7866 25.482 23.7634
707 2 16.657 51.8561 39.5245
708 2 19.9211 16.1349 40.0832
709 2 29.7052 39.6506 13.6544
710 2 55.6743 12.556 20.9474
711 2 22.6329 21.8735 43.7959
712 2 30.3498 53.8176 13.9735
713 2 36.9261 21.5104 25.7584
714 2 17.6865 52.941 32.1298
715 2 11.2329 54.5778 37.9942
716 2 37.4234 26.6641 14.3714
717 2 26.4862 47.5428 47.0318
718 2 15.3293 15.0631 8.76516
719 2 23.8509 30.8018 11.2523
720 2 42.0384 13.0395 50.3491
721 2 8.27558 31.9791 44.6048
722 2 14.5926 32.1912 29.0617
723 2 17.61 18.4187 22.2287
724 2 37.0721 43.3012 42.8003
725 2 14.2701 20.7492 34.8902
726 2 53.1542 26.1768 54.6618
727 2 22.4783 29.1783 45.2157
728 2 49.4669 41.9895 17.2935
729 2 45.5037 20.3812 38.114
730 2 54.4965 55.5422 14.9529
731 2 33.0385 10.6992 43.9346
732 2 42.0597 23.7676 18.9606
733 2 36.5523 28.5434 41.8326
734 2 38.6409 11.4625 43.7958
735 2 15.6061 46.6223 15.7659
736 2 12.2133 40.4684 9.56747
737 2 26.9407 16.257 6.76952
738 2 11.9317 29.9867 27.8349
739 2 42.5198 18.8207 11.9783
740 2 29.7387 26.111 26.0758
741 2 26.551 42.2284 15.7917
742 2 12.0682 6.6787 49.9471
743 2 31.3028 39.8838 52.0907
744 2 30.8706 19.324 46.7332
745 2 55.1004 34.0426 31.219
746 2 18.9176 48.2804 33.7019
747 2 51.3821 42.04 53.315
748 2 14.5132 6.86154 54.6781
749 2 11.9025 53.1756 52.1776
750 2 35.2898 16.3306 48.4809
751 2 17.0804 27.39 49.9419
752 2 16.3625 29.1434 36.1295
753 2 51.942 32.2929 17.9634
754 2 41.3865 28.1758 39.5492
755 2 17.799 40.1183 38.4457
756 2 54.5903 25.3552 29.1277
757 2 14.8118 27.6599 47.5292
758 2 30.3765 52.7706 51.5847
759 2 8.76895 17.1116 18.9291
760 2 39.9125 47.7299 48.4003
761 2 35.2062 17.929 10.1011
762 2 25.3438 21.8618 35.7416
763 2 20.0573 41.6798 40.0261
764 2 12.4799 44.4682 15.641
765 2 9.1899 13.4069 20.9695
766 2 20.3739 7.66032 29.974
767 2 46.534 20.0269 22.3732
768 2 28.7672 15.7534 38.0518
769 2 48.6092 27.2695 26.2914
770 2 16.8364 51.0845 11.6224
771 2 15.2337 6.54649 35.4295
772 2 44.1736 28.2355 34.9087
773 2 23.0131 41.469 54.6391
774 2 19.1392 54.2608 53.753
775 2 7.92588 51.4038 53.6642
776 2 24.2065 33.5998 46.2302
777 2 29.3808 44.6311 18.6049
778 2 13.5092 53.6676 11.4806
779 2 8.2266 45.6162 44.3755
780 2 52.4764 22.8742 48.3809
781 2 7.7518 15.5838 38.4742
782 2 31.3461 19.7302 35.4471
783 2 53.9655 13.5641 55.6094
784 2 12.1061 20.8409 27.2353
785 2 10.6806 38.4419 15.3069
786 2 30.658 25.1413 45.3066
787 2 13.0564 43.3812 18.8705
788 2 20.3475 51.8943 25.5109
789 2 35.423 53.2095 55.3748
790 2 51.3275 32.2879 46.6233
791 2 54.0541 45.2876 35.6407
792 2 55.4293 40.6724 46.9943
793 2 6.76747 44.6409 7.172
794 2 47.5806 39.5384 20.6061
795 2 11.6207 43.3557 51.9951
796 2 6.8597 27.1027 33.4936
797 2 53.5425 22.4799 36.4619
798 2 22.0417 41.58 15.0864
799 2 47.5607 36.8632 47.2849
800 2 38.5064 32.4876 37.5225
801 2 11.9722 30.201 44.536
802 2 49.6639 30.6128 39.371
803 2 43.089 17.675 28.1692
804 2 17.6668 53.1179 15.1889
805 2 23.1106 28.6345 34.4999
806 2 35.3275 38.1429 38.2105
807 2 7.53967 35.576 35.1495
808 2 11.8323 26.3998 37.8294
809 2 39.5955 50.7419 47.4737
810 2 38.7837 14.4094 46.9628
811 2 41.3097 55.7559 16.0715
812 2 15.4019 51.3515 34.4379
813 2 37.1803 20.3551 33.825
814 2 37.532 10.8041 26.8777
815 2 37.2138 47.8347 24.8717
816 2 50.451 38.6084 9.42173
817 2 32.3812 20.2662 6.22969
818 2 20.4803 13.0938 21.61
819 2 15.8515 15.5884 29.741
820 2 34.6172 39.1338 26.1531
821 2 51.055 10.6552 19.2108
822 2 23.9822 25.6531 6.62318
823 2 40.148 45.4776 31.3773
824 2 53.4485 8.81722 29.6252
825 2 14.2964 11.253 52.5709
826 2 12.895 33.9508 31.1495
827 2 32.6047 45.3255 36.5288
828 2 48.0687 15.9527 8.69136
829 2 21.6089 9.41862 26.4286
830 2 25.4552 38.6131 18.7542
831 2 18.8122 15.9938 37.1251
832 2 48.965 50.9064 54.1866
833 2 38.9532 35.5198 43.0036
834 2 14.9626 38.3555 6.9781
835 2 21.1822 44.7913 20.4294
836 2 47.2475 17.6693 43.8596
837 2 12.4574 9.27123 48.5022
838 2 27.4628 16.0064 21.3793
839 2 30.523 47.9751 49.2452
840 2 9.72132 47.7851 42.3234
841 2 44.5496 32.3502 6.26736
842 2 22.5103 33.197 54.7159
843 2 20.8891 24.1716 13.1259
844 2 18.338 11.9906 35.0826
845 2 34.1707 41.6871 53.1342
846 2 40.6646 9.25472 16.2069
847 2 15.9683 48.9899 32.6559
848 2 40.7936 50.0038 7.61758
849 2 34.1088 35.397 17.4021
850 2 28.218 34.1532 36.6132
851 2 8.75994 28.8179 34.5594
852 2 32.4191 12.3849 16.8472
853 2 10.4713 49.2274 53.4912
854 2 29.1223 43.9289 44.329
855 2 51.1682 45.7256 38.7582
856 2 28.6057 31.8163 50.3837
857 2 30.0465 24.8522 17.5381
858 2 43.0307 43.7651 7.59809
859 2 29.9587 39.719 49.4553
860 2 47.8538 41.1077 49.3959
861 2 12.6241 53.8327 24.8354
862 2 31.8111 15.5748 33.6632
863 2 33.2859 17.5723 40.296
864 2 45.5831 41.9218 13.836
865 2 33.7147 34.4668 20.4731
866 2 30.7314 9.49791 52.8913
867 2 28.8404 35.5284 28.3753
868 2 53.3584 40.6376 30.3756
869 2 51.6686 33.9104 33.3353
870 2 35.3057 20.8365 12.0573
871 2 25.2422 10.9426 50.0115
872 2 13.1782 37.5169 41.4339
873 2 38.4547 25.0737 54.0453
874 2 19.9449 28.5238 48.8215
875 2 51.6616 40.9879 20.935
876 2 12.8584 31.1869 53.8312
877 2 46.4396 49.8353 32.6548
878 2 46.5716 13.7156 10.8821
879 2 38.7603 55.1526 46.744
880 2 37.2695 31.8635 44.7695
881 2 28.4978 38.9591 10.0561
882 2 44.0705 38.1357 14.9006
883 2 26.439 53.0867 15.7714
884 2 48.4729 50.742 9.03544
885 2 40.0825 51.7558 50.232
886 2 35.8509 17.9914 50.9814
887 2 15.8479 52.6849 24.4878
888 2 10.8425 29.5887 18.8805
889 2 9.37668 35.7346 27.0379
890 2 14.1517 8.37746 37.297
891 2 16.4896 11.8383 44.5261
892 2 15.5489 46.5643 51.0975
893 2 12.5455 39.2854 54.8318
894 2 17.3791 31.9539 32.5614
895 2 6.83384 42.919 44.7762
896 2 53.5227 37.1835 38.8764
897 2 44.6455 34.6951 23.3568
898 2 32.1321 44.4945 15.3068
899 2 22.3938 44.2517 51.6248
900 2 15.8766 53.8237 50.8945
901 2 22.6732 50.5704 44.6928
902 2 26.2068 13.5105 48.6525
903 2 13.2098 51.4662 16.1815
904 2 45.1887 33.9441 35.9216
905 2 21.2063 31.8372 36.1421
906 2 36.7298 13.6723 9.4745
907 2 41.4372 48.65 44.1657
908 2 10.1334 22.6319 16.6646
909 2 22.9838 21.0823 26.5248
910 2 51.0033 16.0616 53.8133
911 2 49.3958 30.3517 17.1521
912 2 24.0622 10.8172 38.6258
913 2 45.6398 32.6326 42.6303
914 2 52.0417 36.0874 25.5636
915 2 32.7716 50.4806 16.5965
916 2 34.6286 26.8872 52.9548
917 2 55.4538 18.5075 26.4438
918 2 29.0052 15.5769 10.9399
919 2 37.9024 35.6862 54.4865
920 2 16.5087 13.0279 47.6816
921 2 45.2045 44.8206 42.0702
922 2 27.7548 8.0553 52.6629
923 2 13.0934 8.89963 30.3151
924 2 11.7034 17.8367 11.7448
925 2 23.6657 27.8479 10.0894
926 2 11.3447 50.916 24.2419
927 2 46.8554 54.3796 43.1125
928 2 48.7133 46.3923 39.9853
929 2 45.2183 17.2981 31.9549
930 2 45.8828 55.3162 26.5245
931 2 44.0106 47.3832 36.4595
932 2 36.0646 8.80291 15.9652
933 2 6.57921 37.8595 55.5478
934 2 42.3588 15.4479 52.6356
935 2 45.3165 25.5461 47.3012
936 2 29.7844 40.6937 45.0253
937 2 44.6436 12.186 15.6061
938 2 31.9192 15.3711 18.0636
939 2 24.5424 7.51519 35.7023
940 2 39.8237 19.9748 52.78
941 2 40.8753 8.61474 52.4151
942 2 22.7722 40.0277 21.6873
943 2 43.5215 30.1459 10.8002
944 2 19.1506 17.8949 51.2612
945 2 48.9042 26.6704 23.4864
946 2 54.8795 21.7982 40.9545
947 2 51.1945 48.9888 41.6344
948 2 46.1851 42.6987 43.7639
949 2 39.2636 13.7856 42.1868
950 2 17.4397 32.4351 45.038
951 2 46.6974 42.2449 27.9994
952 2 53.5114 27.0425 35.2314
953 2 28.4204 41.7283 24.2385
954 2 41.7614 36.8067 32.8933
955 2 26.0794 51.837 48.5494
956 2 14.3469 13.0869 36.9699
957 2 50.167 43.6254 46.8217
958 2 52.5127 40.8137 43.7597
959 2 42.893 39.0815 17.6924
960 2 51.9886 33.3325 52.3002
961 2 16.1478 28.8195 43.4578
962 2 53.4256 29.6844 51.8421
963 2 42.2947 45.1919 9.56047
964 2 49.1538 39.1771 41.4197
965 2 48.0897 25.8189 42.6603
966 2 29.4755 23.1175 43.5726
967 2 53.8212 20.1905 43.6409
968 2 6.43533 29.2854 38.0209
969 2 37.936 28.4197 21.4028
970 2 52.5775 15.7912 19.5811
971 2 21.826 19.4369 37.4036
972 2 7.66713 25.8699 11.7726
973 2 17.9261 24.2558 10.4954
974 2 49.3433 10.0229 26.6146
975 2 32.1654 34.9228 37.2116
976 2 38.7837 16.7503 43.3027
977 2 38.7295 17.3776 20.5238
978 2 44.8392 29.6178 8.43855
979 2 39.5365 30.6786 29.2406
980 2 41.188 55.0592 28.6153
981 2 12.5487 23.0488 7.71486
982 2 34.5426 21.0667 27.3463
983 2 20.016 50.9522 32.4241
984 2 36.1311 10.6288 41.645
985 2 44.7234 20.7355 54.787
986 2 7.62102 11.6855 35.0384
987 2 31.2939 12.0764 46.1733
988 2 32.2493 54.6756 55.2402
989 2 52.1417 54.6624 38.1265
990 2 38.728 26.379 7.86146
991 2 11.103 11.1995 26.8671
992 2 53.7582 49.8061 54.7124
993 2 12.3234 18.0465 49.9215
994 2 9.84271 10.955 49.0658
995 2 27.2706 23.5598 34.4893
996 2 25.8058 17.9342 17.6951
997 2 48.0652 7.92619 25.0355
998 2 53.7424 18.2104 33.9136
999 2 52.4418 52.3295 55.4163
1000 2 15.669 55.1366 30.9622
1001 2 15.3426 41.0475 42.1668
1002 2 7.77559 37.8036 20.4021
1003 2 47.5785 32.6699 54.5654