ITEM: TIMESTEP
0
ITEM: NUMBER OF ATOMS
9088
ITEM: BOX BOUNDS xy xz yz pp pp pp
6.0488249192729837e+00 5.5882112872791232e+01 -5.7174462420180093e-15
6.0488249192729890e+00 5.5882112872791232e+01 0.0000000000000000e+00
6.0488249192729890e+00 5.5882112872791232e+01 0.0000000000000000e+00
ITEM: ATOMS id type x y z
1 2 7.19294 31.5914 6.72323
2 2 28.9808 16.2449 25.7451
3 2 15.3052 37.3731 17.0798
4 2 33.6286 19.897 23.902
5 2 35.6934 13.1378 22.5977
6 2 8.95976 6.29967 47.2823
7 2 39.0418 16.2904 14.4735
8 2 51.2781 37.9057 11.2773
9 2 28.5928 52.2706 23.291
10 2 25.0448 45.2726 27.6204
11 2 52.8275 37.9978 20.1164
12 2 27.5613 6.1749 42.2909
13 2 35.4134 25.9581 45.0409
14 2 21.6565 8.10772 25.2329
15 2 16.3899 37.3838 39.7337
16 2 10.9273 45.2327 47.5154
17 2 39.3187 15.6533 51.1963
18 2 6.83839 51.8901 25.3135
19 2 40.0383 12.459 20.2085
20 2 40.9048 11.2819 10.479
21 2 46.1609 47.2628 38.4543
22 2 51.2277 51.269 7.06743
23 2 47.3386 15.1041 50.5601
24 2 29.8151 19.2511 13.7191
25 2 14.2867 22.4972 42.5024
26 2 15.3128 37.0675 48.5852
27 2 54.7567 29.6224 35.3599
28 2 23.1583 23.441 25.1913
29 2 42.7167 44.3248 51.2687
30 2 36.5542 39.3172 39.0497
31 2 11.6012 26.5618 29.8516
32 2 33.7787 20.356 15.1711
33 2 32.7115 40.0168 7.44526
34 2 10.3061 13.5473 53.4386
35 2 7.06687 19.4177 32.1767
36 2 11.9939 31.3321 24.933
37 2 10.9868 27.0974 12.0633
38 2 45.6426 34.3642 40.3529
39 2 54.9027 38.6879 21.9615
40 2 49.3379 17.3489 38.7563
41 2 22.0703 26.2315 6.32947
42 2 43.3254 33.6551 9.97116
43 2 39.1674 24.1018 11.3546
44 2 50.8367 10.8477 40.5641
45 2 46.5549 52.1385 29.7198
46 2 16.9823 39.8273 23.4674
47 2 39.7136 30.758 50.7818
48 2 52.6253 52.4358 44.1089
49 2 50.9758 22.9317 22.3062
50 2 17.6561 47.8603 37.8275
51 2 49.0265 10.3559 25.4399
52 2 47.478 7.36949 32.9545
53 2 43.2777 13.817 26.0525
54 2 15.2722 33.1087 39.3997
55 2 38.2655 50.7201 20.7568
56 2 20.2376 21.8763 28.5014
57 2 23.4017 9.0749 13.6849
58 2 24.4105 14.4888 20.6793
59 2 37.8727 23.68 19.1344
60 2 23.4757 6.4443 33.5498
61 2 55.8776 8.47345 47.36
62 2 47.297 17.4124 8.98369
63 2 25.6224 17.982 30.3835
64 2 40.1949 14.6159 18.4345
65 2 14.4731 7.32736 16.1071
66 2 13.844 40.2674 43.4755
67 2 31.9478 25.4213 35.0768
68 2 23.3556 47.9148 19.6934
69 2 50.3299 21.0294 44.9598
70 2 29.6283 18.0823 23.5088
71 2 40.7589 17.1465 49.025
72 2 7.82392 11.1112 22.2275
73 2 25.1057 18.1181 34.8086
74 2 48.5959 25.9786 38.6649
75 2 25.7119 40.63 46.5562
76 2 25.8916 20.7991 34.3841
77 2 51.5973 40.9912 44.1593
78 2 15.0335 52.366 19.8257
79 2 21.0836 37.7128 45.2321
80 2 7.79813 31.2786 26.4004
81 2 7.486 19.7262 41.2765
82 2 41.8147 37.2856 15.4156
83 2 42.7008 15.2138 41.4208
84 2 15.154 14.8114 28.3957
85 2 7.63191 21.8825 8.37135
86 2 55.2293 17.121 47.0728
87 2 47.8109 14.4361 26.1245
88 2 36.2649 48.3488 30.2911
89 2 25.9897 28.1426 6.94142
90 2 48.9953 49.9529 37.9984
91 2 8.18878 38.6566 7.98411
92 2 41.9636 42.8795 43.1419
93 2 27.2337 34.1172 48.9745
94 2 18.3559 24.1211 22.1966
95 2 13.3651 39.8548 13.1394
96 2 29.3409 28.3938 45.9608
97 2 12.1384 16.6465 25.5248
98 2 43.5296 52.7317 15.5167
99 2 47.1827 35.4383 45.2057
100 2 28.2178 49.6583 40.7459
101 2 53.0217 13.4967 20.7423
102 2 19.9915 31.9683 32.5122
103 2 30.2202 55.4677 17.7898
104 2 42.3983 15.7521 9.05579
105 2 34.982 6.80115 37.2546
106 2 23.3219 24.2353 43.8082
107 2 13.1729 34.0396 33.6836
108 2 52.6945 28.3214 16.2816
109 2 37.0078 43.1086 18.053
110 2 44.0706 8.95106 25.0359
111 2 38.9437 47.13 23.7552
112 2 54.0412 6.34362 28.2007
113 2 13.446 25.905 20.3505
114 2 54.5943 34.9406 44.4285
115 2 9.73122 32.9279 42.0487
116 2 8.37408 38.0233 15.4817
117 2 48.0103 54.4048 9.60464
118 2 50.3501 22.8552 27.9986
119 2 30.2024 38.3042 18.9535
120 2 42.0241 17.1848 39.0358
121 2 31.9664 50.7667 10.6938
122 2 47.2462 35.482 24.9714
123 2 11.2336 40.6761 40.305
124 2 48.7509 18.9757 26.1176
125 2 31.6288 55.5026 31.1078
126 2 6.8866 33.6387 17.7169
127 2 34.9831 50.2092 7.64217
128 2 19.7619 22.6539 51.0249
129 2 52.0926 14.7405 32.6355
130 2 15.8083 9.19985 13.6849
131 2 26.9389 48.0124 35.8652
132 2 51.0675 37.1015 26.9306
133 2 7.23879 23.7753 29.7519
134 2 43.3365 19.9667 10.5965
135 2 49.6877 33.2592 12.538
136 2 22.8184 38.0299 35.6541
137 2 39.7389 24.4056 45.7726
138 2 17.6924 46.6504 47.2654
139 2 25.2906 48.2232 54.6983
140 2 36.0882 15.2971 38.4135
141 2 13.8259 15.9052 45.7583
142 2 45.0872 40.4085 15.8527
143 2 18.0091 53.3196 15.0237
144 2 36.3628 46.6198 51.4219
145 2 9.35897 54.2946 41.1966
146 2 42.7984 41.7598 16.8617
147 2 54.7932 24.349 52.643
148 2 41.5481 8.34053 19.4498
149 2 50.0539 52.4082 22.326
150 2 39.8433 23.1844 7.11045
151 2 36.2353 25.2551 29.1368
152 2 38.5038 41.221 46.495
153 2 38.934 28.6896 25.7738
154 2 7.94501 55.7088 7.33597
155 2 55.4028 42.926 37.0218
156 2 50.5216 33.8857 30.1416
157 2 50.8686 37.7138 44.1786
158 2 19.4153 21.6568 44.1129
159 2 41.8242 41.4939 52.1005
160 2 47.4888 50.8035 26.8705
161 2 48.2092 14.3104 18.3487
162 2 11.0703 50.0782 34.3395
163 2 13.675 51.3743 54.6896
164 2 53.3777 36.753 7.67333
165 2 49.7433 11.9677 52.653
166 2 48.598 20.6238 21.2669
167 2 43.7788 30.5396 22.0397
168 2 27.53 43.0072 16.3309
169 2 55.3154 19.1991 38.9679
170 2 33.9757 18.0617 39.3055
171 2 41.9877 38.722 18.2262
172 2 36.1566 11.3518 16.5426
173 2 32.0034 7.80586 53.4991
174 2 34.3242 50.2741 17.8893
175 2 35.5106 18.6891 35.5997
176 2 15.999 55.7948 10.5192
177 2 18.5966 33.03 20.9036
178 2 48.1216 24.8173 50.4631
179 2 38.2693 35.1192 54.1179
180 2 33.7928 29.8974 45.9542
181 2 29.1141 8.73178 6.53533
182 2 12.2532 18.5251 39.7122
183 2 17.8919 27.5672 40.2074
184 2 27.1979 15.5321 37.6289
185 2 54.4292 8.84597 13.8287
186 2 22.3982 50.5121 21.2346
187 2 54.1285 27.6725 52.8786
188 2 19.6972 25.8574 8.788
189 2 23.4379 32.5006 44.9398
190 2 48.5409 11.9674 20.2293
191 2 43.3074 36.3861 33.6266
192 2 6.69628 44.5988 27.4151
193 2 23.7088 20.0751 6.06954
194 2 10.1607 43.2339 42.5668
195 2 23.5629 10.334 46.923
196 2 50.4693 46.2134 39.5867
197 2 35.5513 46.6898 22.3866
198 2 13.4975 6.87943 30.9957
199 2 10.1445 17.4547 31.0557
200 2 26.8485 30.2833 46.7278
201 2 30.6654 19.9836 31.0679
202 2 46.7501 10.5577 52.2928
203 2 43.6181 20.9873 37.0568
204 2 7.06302 38.7989 39.1347
205 2 39.1912 49.7857 9.76489
206 2 14.2895 53.7144 27.8837
207 2 27.8932 36.0688 7.301
208 2 37.6186 35.1815 37.8808
209 2 27.7873 28.8464 17.7061
210 2 32.1566 53.2616 27.476
211 2 16.1666 14.8769 17.2274
212 2 11.0647 32.4527 44.8626
213 2 30.6917 39.8535 9.47173
214 2 31.5577 7.38196 20.8113
215 2 29.7704 23.0029 32.1266
216 2 18.2588 19.0377 29.247
217 2 23.0682 50.7895 50.7728
218 2 42.7469 16.2526 27.819
219 2 26.2115 12.8304 35.4268
220 2 40.2291 14.3962 32.125
221 2 40.1927 22.9222 35.6109
222 2 16.0388 47.5324 27.7103
223 2 51.3082 47.6271 24.8115
224 2 37.6565 24.8796 14.9926
225 2 43.2858 35.0215 6.19006
226 2 13.6276 41.139 26.8725
227 2 18.7761 43.4622 34.3331
228 2 49.3293 37.1953 55.7724
229 2 50.4076 53.7394 46.9049
230 2 48.5758 12.7983 39.0665
231 2 16.5438 17.4981 25.1701
232 2 53.2916 21.9273 26.4537
233 2 16.6463 34.9766 27.5469
234 2 35.8117 38.2716 47.9408
235 2 21.3665 36.606 52.5715
236 2 52.7881 40.9676 28.3076
237 2 42.5591 28.2294 44.5484
238 2 13.2928 33.6551 20.662
239 2 40.018 19.3118 10.3512
240 2 26.6087 45.2285 45.0307
241 2 50.4085 32.9219 54.9025
242 2 49.5967 42.7618 25.8509
243 2 43.219 50.4507 11.259
244 2 40.4369 24.6565 20.3286
245 2 17.5403 22.8255 41.1594
246 2 40.6115 12.6747 42.162
247 2 23.2693 8.89941 30.1874
248 2 24.7782 23.2491 51.9962
249 2 17.7262 28.3827 33.5884
250 2 25.0496 52.4119 11.4099
251 2 47.6652 12.4805 28.8691
252 2 27.5118 55.3544 47.2495
253 2 35.0615 31.3417 17.1867
254 2 34.4608 12.033 46.8642
255 2 53.7807 30.7896 29.3292
256 2 34.5442 15.8038 15.268
257 2 39.3131 52.5112 47.9375
258 2 39.1401 27.7736 50.7041
259 2 22.7428 19.4643 23.3667
260 2 54.2238 31.9459 8.48818
261 2 29.7167 28.3006 29.7425
262 2 20.0624 49.9135 12.0123
263 2 42.2614 30.6617 13.416
264 2 27.5299 55.743 22.3778
265 2 49.1081 32.1416 16.6542
266 2 30.1096 50.929 48.1631
267 2 26.6884 40.1836 8.93045
268 2 31.2311 26.7355 14.1827
269 2 45.736 53.2286 24.5439
270 2 7.67547 45.7116 55.0404
271 2 34.73 47.4846 53.4624
272 2 29.8908 12.8916 39.2889
273 2 51.0032 34.7138 7.25758
274 2 8.01739 32.5119 34.343
275 2 22.5224 49.1944 54.843
276 2 35.1787 20.6343 41.9174
277 2 17.4531 32.8759 34.2916
278 2 35.7433 15.764 26.3624
279 2 23.8448 35.0225 6.93805
280 2 54.0247 11.5247 30.4033
281 2 6.53715 13.8394 32.7844
282 2 52.6242 13.4524 41.2195
283 2 6.12418 18.1296 18.9468
284 2 37.1146 45.8761 47.8124
285 2 18.8206 41.2332 42.6894
286 2 44.8419 8.91169 31.951
287 2 28.2201 16.655 17.5429
288 2 24.8822 18.9051 21.5207
289 2 47.0302 9.3092 7.14478
290 2 28.0282 17.3468 14.425
291 2 40.3846 46.6729 37.5226
292 2 29.3932 42.9327 20.9926
293 2 46.9995 54.2286 32.1988
294 2 34.4166 20.5987 33.0784
295 2 10.1818 11.5509 10.8871
296 2 42.514 45.6582 29.1626
297 2 55.6341 42.2976 28.7336
298 2 27.9409 7.86221 31.6743
299 2 7.36428 37.6663 42.2383
300 2 17.0509 50.9451 9.47776
301 2 14.5575 37.3318 13.6996
302 2 22.882 49.3651 47.6684
303 2 48.7977 6.86464 52.8306
304 2 10.5529 9.30004 46.0492
305 2 53.7853 45.6342 35.7486
306 2 19.9404 28.1979 6.63527
307 2 50.0874 8.39816 46.3954
308 2 44.5825 39.5386 46.2044
309 2 13.0281 44.6588 43.6826
310 2 32.8746 54.3137 16.1852
311 2 37.1167 17.3948 31.4724
312 2 20.5779 53.9586 36.803
313 2 53.5949 37.7899 28.1255
314 2 15.5575 45.202 16.0355
315 2 29.1142 29.6168 35.381
316 2 23.63 40.9138 33.4492
317 2 18.4361 53.9664 31.148
318 2 41.755 48.0815 44.7755
319 2 30.0159 32.3005 49.3228
320 2 27.1989 16.7105 45.6297
321 2 21.9607 53.0123 19.5017
322 2 37.0183 24.0832 6.36524
323 2 22.1875 12.6181 19.8265
324 2 18.374 43.6781 37.5415
325 2 51.0224 34.2892 47.1585
326 2 45.1631 38.7664 39.6034
327 2 10.5227 43.9678 51.2964
328 2 44.5646 33.6096 35.2929
329 2 16.1651 47.5657 42.4648
330 2 10.8953 35.7791 34.2082
331 2 26.4978 8.02111 35.9337
332 2 20.7891 52.8252 27.4017
333 2 38.623 25.6187 48.361
334 2 42.0474 9.33739 51.7786
335 2 18.3109 49.5187 50.4207
336 2 53.2485 42.9359 46.1496
337 2 47.9886 19.6474 10.5928
338 2 31.8447 12.9078 17.1949
339 2 10.9361 7.95847 35.1848
340 2 31.669 28.3393 47.5015
341 2 38.0259 51.5129 11.343
342 2 19.4259 43.046 49.0975
343 2 19.5161 15.0802 28.3186
344 2 34.1425 44.9156 48.3541
345 2 40.4164 51.424 23.0141
346 2 32.5043 51.5819 16.0989
347 2 32.0546 20.1552 9.35841
348 2 18.5624 31.3478 9.50683
349 2 47.6948 38.5019 15.5416
350 2 11.2983 54.3208 10.7362
351 2 26.7469 40.9533 18.7643
352 2 53.1988 44.3816 51.1543
353 2 51.8504 26.717 19.4909
354 2 20.7017 6.69464 15.7888
355 2 46.0484 27.3225 39.7419
356 2 17.601 23.9403 13.6484
357 2 54.6764 32.6238 11.4118
358 2 26.7233 16.9738 11.89
359 2 39.2796 15.0477 54.4803
360 2 40.8726 27.4489 23.7146
361 2 21.3153 47.2509 53.2457
362 2 49.3491 43.7136 22.7285
363 2 17.0532 53.1432 34.0826
364 2 45.8483 27.1388 34.7856
365 2 46.2068 53.2343 47.305
366 2 40.4394 36.0851 52.5272
367 2 23.1984 24.6971 22.1228
368 2 44.2697 21.097 48.3228
369 2 49.6035 24.2015 47.5639
370 2 33.3521 55.7515 27.4409
371 2 38.9106 24.6235 28.3122
372 2 35.1476 41.5623 34.8105
373 2 47.5004 30.1125 44.1261
374 2 13.6005 26.3192 53.8184
375 2 55.5496 11.4361 17.9419
376 2 54.4351 49.5993 38.1877
377 2 40.6941 39.8393 20.7063
378 2 49.533 23.6148 54.3317
379 2 44.3807 14.61 49.1421
380 2 29.9099 28.7797 42.8689
381 2 37.2204 38.4368 31.0948
382 2 41.6755 16.4634 16.4718
383 2 32.0458 50.2772 29.81
384 2 43.9047 24.4126 50.8368
385 2 34.5397 17.9673 22.2545
386 2 16.1936 28.9342 7.66382
387 2 20.4721 23.3643 8.00101
388 2 35.8569 54.1529 33.2866
389 2 37.0584 18.6544 26.9296
390 2 37.388 29.39 12.4078
391 2 38.6126 22.9983 32.8599
392 2 27.553 20.6624 7.96297
393 2 18.8846 34.9669 36.7575
394 2 43.934 24.3671 26.4757
395 2 7.33156 43.2188 34.4644
396 2 15.7825 49.0707 24.8727
397 2 36.9992 48.3048 33.7941
398 2 48.2227 31.3748 53.4864
399 2 10.4947 18.1483 50.8711
400 2 41.6187 32.4081 33.9881
401 2 36.8654 7.01637 16.1651
402 2 22.7944 46.7836 6.84613
403 2 32.313 21.5662 35.8202
404 2 49.0242 42.8946 31.2377
405 2 45.5126 39.0078 21.4506
406 2 54.0975 19.7762 22.6089
407 2 7.51425 29.4423 42.1741
408 2 8.4926 41.2023 28.2065
409 2 24.2651 26.4632 32.2099
410 2 28.4513 53.4305 6.26628
411 2 42.2526 32.8468 43.7598
412 2 53.7598 12.074 34.2089
413 2 34.8183 27.6464 41.8029
414 2 21.0577 16.6963 54.1871
415 2 30.3322 54.7281 53.9787
416 2 21.4313 55.656 21.6529
417 2 39.7935 50.4191 13.977
418 2 40.5093 35.2234 25.2573
419 2 13.4818 9.20737 51.9092
420 2 43.6856 46.2838 19.375
421 2 51.0366 30.2438 8.8185
422 2 13.5273 24.9205 44.5175
423 2 15.7958 43.038 39.1258
424 2 25.6112 28.1498 44.1169
425 2 34.7383 13.6521 30.213
426 2 45.4686 47.4479 17.4202
427 2 53.7262 41.6104 9.18612
428 2 36.7346 44.2565 10.5928
429 2 47.5186 42.2065 37.2066
430 2 19.1203 18.5285 8.31986
431 2 48.9025 33.1153 32.8208
432 2 46.8511 11.1836 11.2164
433 2 47.6706 41.2124 17.8278
434 2 34.9291 8.62544 24.2796
435 2 52.1315 6.59519 47.4704
436 2 33.4867 30.7199 14.4129
437 2 44.4517 35.4413 47.342
438 2 14.5501 21.8211 7.39824
439 2 43.8563 12.8258 20.6436
440 2 30.5694 52.0539 20.6553
441 2 55.7669 7.10568 30.2223
442 2 17.8736 39.8207 36.0957
443 2 27.1261 52.0634 48.6319
444 2 52.9635 20.741 15.5372
445 2 23.4433 30.2438 8.83999
446 2 29.7827 31.9115 25.5571
447 2 50.692 49.5819 41.3908
448 2 40.9562 36.8093 37.2606
449 2 53.5484 53.1613 10.0911
450 2 46.665 24.01 47.2758
451 2 28.8419 20.4365 10.8608
452 2 17.8451 9.27476 51.7146
453 2 44.0159 51.631 46.2805
454 2 14.2911 40.7153 19.5557
455 2 21.3864 31.7552 19.8775
456 2 48.9815 53.4247 27.7939
457 2 46.3398 31.0935 34.3825
458 2 16.5649 53.3491 17.6752
459 2 24.1991 38.7631 25.8594
460 2 30.6849 51.6441 7.87081
461 2 6.0791 54.2211 30.0176
462 2 43.4084 20.5074 41.2861
463 2 24.9415 51.1473 16.6843
464 2 54.3952 54.3646 21.6077
465 2 28.9916 30.0973 6.69414
466 2 9.7586 23.2389 31.8564
467 2 41.3829 49.4879 38.0332
468 2 13.6073 34.5305 17.8042
469 2 27.4001 38.4011 18.1457
470 2 17.3069 33.892 31.6664
471 2 12.3763 35.5482 26.6611
472 2 10.9653 55.0302 30.8526
473 2 23.1961 46.3556 50.9906
474 2 40.1511 55.8043 39.1312
475 2 12.1617 11.3091 16.4315
476 2 37.7692 7.20765 37.5352
477 2 7.35648 17.5116 37.4036
478 2 46.8095 16.7492 40.0378
479 2 9.957 38.3648 43.4504
480 2 44.9123 46.297 50.8105
481 2 42.5653 12.4782 50.9195
482 2 51.8969 50.0439 37.394
483 2 29.7852 7.14929 35.9916
484 2 19.3699 47.2494 23.494
485 2 41.0529 42.8933 26.0412
486 2 18.5332 20.1647 18.9525
487 2 54.0715 38.4519 12.9316
488 2 30.6519 44.193 44.7847
489 2 31.6578 14.3734 26.1272
490 2 55.1664 21.7856 31.4641
491 2 9.89228 11.6035 24.3124
492 2 9.14575 52.615 6.33236
493 2 13.2034 7.95137 12.861
494 2 23.7848 39.7423 22.3856
495 2 37.473 38.1618 10.7046
496 2 19.9644 41.6799 39.2717
497 2 27.5872 54.9075 19.1811
498 2 41.5699 32.3407 28.7151
499 2 26.5273 30.7119 8.30147
500 2 32.1368 45.3806 53.1126
501 2 39.1856 9.38608 38.6771
502 2 54.7399 24.6366 48.8978
503 2 45.2039 35.0652 13.1169
504 2 49.5044 54.0427 30.3595
505 2 47.1067 55.4698 26.5371
506 2 39.3628 44.6216 54.9962
507 2 44.3084 44.8858 36.7366
508 2 24.8654 20.2004 15.6174
509 2 40.5188 20.3711 17.1494
510 2 16.4573 47.7557 10.8853
511 2 50.5754 23.8839 45.1147
512 2 23.4896 39.6286 30.4905
513 2 51.0891 41.066 12.2224
514 2 23.3949 53.6223 22.6076
515 2 9.03662 16.0694 44.5779
516 2 15.3655 6.41396 40.2797
517 2 6.44784 7.89705 33.6196
518 2 53.1918 16.6546 35.4666
519 2 8.14287 34.667 46.5559
520 2 14.3694 52.5235 51.7273
521 2 33.168 23.9017 11.3162
522 2 6.37028 32.5344 52.486
523 2 47.3192 31.7418 28.2213
524 2 14.5349 38.2012 24.275
525 2 21.5286 34.1278 35.5188
526 2 55.3628 50.9031 11.9067
527 2 21.5877 12.2253 24.128
528 2 38.8337 11.7626 36.3964
529 2 12.2416 20.3742 43.934
530 2 17.8889 27.486 43.4628
531 2 39.5103 54.9656 23.6126
532 2 7.90986 48.149 9.21113
533 2 49.1259 36.2159 17.2142
534 2 46.1148 18.0968 25.0713
535 2 31.8612 25.8628 28.3673
536 2 25.3103 8.52915 50.6148
537 2 35.2626 40.0013 50.5726
538 2 47.3091 34.6267 51.1573
539 2 33.4475 35.5031 53.3089
540 2 16.5556 17.4572 8.79923
541 2 28.0325 38.74 43.0898
542 2 50.1026 19.8623 40.7082
543 2 10.181 20.1538 23.7613
544 2 51.9778 40.3047 15.4368
545 2 46.1212 28.1678 48.5253
546 2 50.3843 10.679 32.403
547 2 38.9069 15.568 35.4149
548 2 26.7725 9.70159 27.4991
549 2 25.484 48.6838 24.8817
550 2 18.6635 37.9701 30.3574
551 2 37.7751 41.849 14.4662
552 2 14.6392 38.1611 51.187
553 2 42.4618 22.7689 29.3004
554 2 36.8882 21.5677 10.3549
555 2 9.06004 18.0322 20.5809
556 2 46.8262 8.14271 23.9941
557 2 36.8941 30.1538 23.6255
558 2 32.5158 33.1458 18.49
559 2 12.1798 18.8177 54.2371
560 2 49.0991 47.4538 9.12856
561 2 31.8018 26.5612 30.8431
562 2 36.8126 26.1957 22.7949
563 2 52.9032 6.35887 50.4996
564 2 54.219 33.1573 14.1972
565 2 24.5861 11.0954 18.2791
566 2 18.4149 46.407 6.70929
567 2 42.582 7.63402 28.5518
568 2 11.1087 13.4188 29.1447
569 2 22.9021 38.7975 54.5474
570 2 15.9776 34.8392 24.1968
571 2 32.8223 25.5778 16.6858
572 2 26.0111 12.819 11.6226
573 2 8.92826 24.8569 53.0963
574 2 7.09154 13.1914 53.0364
575 2 52.9386 28.7498 11.3612
576 2 50.7019 15.5642 21.8914
577 2 53.613 24.4148 39.2526
578 2 40.6154 20.8146 45.35
579 2 46.4623 43.3318 53.4444
580 2 40.4746 18.2472 24.3211
581 2 42.6483 29.7568 17.3377
582 2 14.8246 10.9355 6.12745
583 2 34.9566 24.3859 47.5658
584 2 21.9258 41.9442 28.7292
585 2 17.0729 24.8363 16.5534
586 2 38.3298 50.1642 49.6872
587 2 25.1357 9.43232 7.92439
588 2 52.893 9.5413 18.1972
589 2 9.62355 53.3234 13.6338
590 2 13.2379 44.6898 24.9104
591 2 18.46 17.1363 31.9078
592 2 28.3787 39.9622 31.4729
593 2 45.1092 9.4465 54.6699
594 2 7.84329 33.3229 13.3629
595 2 18.3163 27.9372 27.0731
596 2 13.7495 44.2835 40.8562
597 2 10.6245 16.3595 53.8926
598 2 7.86388 38.1988 23.3838
599 2 11.3674 32.2087 52.1218
600 2 38.3335 19.1141 16.9929
601 2 13.5948 8.53422 47.4956
602 2 18.2533 35.8585 14.0389
603 2 53.4063 22.7088 41.8249
604 2 21.384 26.7372 15.1281
605 2 31.5662 54.7045 37.0642
606 2 45.6297 52.2882 36.1917
607 2 9.82908 9.49247 49.2426
608 2 29.6013 43.5589 7.0769
609 2 17.5173 34.1418 42.8831
610 2 50.6291 27.6963 39.9128
611 2 23.2685 47.623 26.1803
612 2 41.0529 24.7375 50.291
613 2 40.3001 11.6478 48.7158
614 2 22.6108 35.2094 17.1565
615 2 40.9579 50.5213 45.8068
616 2 32.9776 37.0751 7.64949
617 2 32.8255 42.1781 16.585
618 2 36.5465 37.1819 13.9099
619 2 51.9321 41.1089 39.7018
620 2 7.22047 19.8566 53.9175
621 2 50.4253 28.4047 45.381
622 2 19.4885 50.7516 44.8068
623 2 50.1678 49.2091 54.5237
624 2 54.3767 29.8108 42.307
625 2 26.1915 9.83922 39.4862
626 2 47.5134 13.3124 42.2059
627 2 28.306 31.5459 28.8034
628 2 31.8359 34.079 55.6463
629 2 41.6092 32.3439 18.3566
630 2 43.1347 14.2676 35.8996
631 2 24.8102 46.9064 43.9713
632 2 52.0913 52.371 33.7496
633 2 31.8336 31.8207 39.1185
634 2 23.9559 16.3664 26.8583
635 2 51.4308 31.8397 14.4738
636 2 22.959 13.2309 11.3256
637 2 7.64929 29.3675 23.7158
638 2 11.2363 13.7606 33.5723
639 2 38.2043 9.41032 33.7181
640 2 7.16281 41.7635 20.4744
641 2 48.1054 53.4092 15.8461
642 2 8.65728 12.2862 7.13747
643 2 16.6904 40.8042 32.9046
644 2 54.074 37.5935 25.2658
645 2 11.3082 24.9506 22.7103
646 2 47.3986 48.0862 51.6182
647 2 43.9349 53.6284 18.5215
648 2 46.84 23.8444 14.6393
649 2 33.0838 43.4601 50.8575
650 2 20.1535 24.5587 32.3228
651 2 33.2267 32.4281 49.7545
652 2 35.1791 31.7663 12.1538
653 2 17.9319 15.8194 19.5384
654 2 25.0831 37.3961 46.4978
655 2 31.6944 24.7089 22.9938
656 2 18.7332 28.3623 37.4588
657 2 21.1378 30.1924 41.9242
658 2 22.8357 13.0601 42.3893
659 2 55.5306 24.562 17.7626
660 2 35.6741 15.6412 33.8872
661 2 15.2153 8.74852 34.0164
662 2 42.9684 27.3439 27.4163
663 2 28.343 17.326 34.3118
664 2 54.7541 34.8941 32.0711
665 2 35.8935 50.5288 37.473
666 2 39.1579 42.6146 9.36574
667 2 9.69056 32.8123 31.4435
668 2 25.3859 23.0741 20.3967
669 2 18.9763 9.90762 46.9149
670 2 14.8096 34.4557 44.056
671 2 43.6225 27.8805 20.142
672 2 33.1321 52.739 31.7639
673 2 47.3339 9.86514 30.6275
674 2 30.1613 37.9009 21.825
675 2 7.18054 50.6573 50.7731
676 2 9.63617 7.17385 53.4148
677 2 20.7328 35.049 39.1677
678 2 17.9807 8.73753 42.4721
679 2 33.5175 9.37112 38.5404
680 2 47.19 15.2246 55.4751
681 2 35.775 54.4173 19.8897
682 2 17.0254 34.8407 49.7305
683 2 46.9734 27.5751 20.0526
684 2 41.8048 54.0697 51.5491
685 2 7.93896 16.6487 17.5565
686 2 27.5827 34.5113 37.1234
687 2 14.3702 25.4814 41.158
688 2 37.2972 10.7616 13.3524
689 2 21.2548 37.002 7.38722
690 2 11.5218 50.1933 48.653
691 2 48.0683 38.6519 51.6838
692 2 47.7216 26.5976 26.7213
693 2 22.6322 12.8505 37.215
694 2 28.6177 8.9554 21.7276
695 2 46.3323 23.2744 54.244
696 2 8.59626 37.5164 30.2357
697 2 23.3659 18.0282 38.9061
698 2 18.7967 41.9599 16.4122
699 2 17.746 46.6865 16.6215
700 2 22.4535 29.0902 50.6971
701 2 32.215 37.5881 17.2126
702 2 39.8595 9.14495 53.5164
703 2 20.3427 46.2834 36.9134
704 2 49.107 13.4395 15.2248
705 2 26.938 33.2472 9.80869
706 2 47.2765 37.3661 19.7235
707 2 35.1478 12.6865 34.9565
708 2 38.2006 27.0309 34.5472
709 2 48.6075 50.1905 8.51041
710 2 24.0749 23.0483 15.7914
711 2 41.3052 32.0642 38.6644
712 2 45.1964 16.4636 7.03766
713 2 48.6649 33.4424 25.861
714 2 35.8229 12.8615 25.8116
715 2 31.3418 16.8446 31.128
716 2 6.33369 39.4289 10.8022
717 2 46.5118 9.1865 41.4967
718 2 33.1514 25.1318 54.7181
719 2 43.0649 41.501 55.3192
720 2 10.5191 23.5984 44.5619
721 2 26.7977 45.54 40.3312
722 2 31.9627 41.6458 21.9928
723 2 36.5862 27.6988 16.3127
724 2 54.8681 54.1793 39.8869
725 2 32.9656 31.3819 29.6534
726 2 21.342 36.8711 49.6489
727 2 40.734 39.3532 39.5742
728 2 18.6764 52.4544 12.0263
729 2 14.1636 30.4952 33.0044
730 2 23.2197 16.5589 10.068
731 2 51.5246 21.1485 38.9545
732 2 11.7961 35.0286 13.7504
733 2 55.0009 39.5108 36.9397
734 2 6.92717 21.86 38.9457
735 2 31.3549 53.6907 9.47418
736 2 31.2998 52.3356 52.3262
737 2 49.1987 28.0015 49.4848
738 2 22.8019 42.3444 22.6849
739 2 11.1341 29.6566 6.67811
740 2 46.6697 34.0956 21.0902
741 2 45.4031 52.9129 10.4516
742 2 30.183 17.3811 45.2178
743 2 49.7579 50.7077 46.9458
744 2 48.9206 29.7879 41.4654
745 2 26.549 40.4133 26.4481
746 2 37.2975 9.18838 28.557
747 2 17.5693 51.7513 52.3157
748 2 32.0796 16.7983 50.289
749 2 29.6467 15.8064 48.0544
750 2 53.3158 27.2542 44.2385
751 2 34.6816 37.2761 44.5665
752 2 34.6258 39.7383 30.832
753 2 20.9384 42.2084 12.2357
754 2 13.3634 38.9312 35.2088
755 2 36.565 51.4108 33.017
756 2 23.6095 35.3684 25.0047
757 2 36.9571 41.3141 42.0326
758 2 48.6196 13.8542 46.7177
759 2 25.2932 30.2099 12.4324
760 2 8.77389 11.8029 42.4849
761 2 53.3791 27.8205 6.21684
762 2 43.7088 32.747 30.4624
763 2 38.7776 52.7783 34.5692
764 2 32.2062 6.22046 7.7806
765 2 28.0118 25.9876 15.3284
766 2 38.3006 19.3923 21.8968
767 2 15.8195 29.8521 17.5339
768 2 47.4861 26.3763 33.0832
769 2 15.4008 37.7419 21.2607
770 2 35.343 12.1832 55.805
771 2 34.2025 17.7567 30.8007
772 2 13.1519 39.5805 29.3165
773 2 42.0766 51.8729 49.9249
774 2 38.0213 15.5769 48.3337
775 2 26.6575 12.5652 48.6894
776 2 43.5036 46.0757 41.8472
777 2 47.8041 55.3549 13.766
778 2 31.7136 14.5469 6.41543
779 2 24.1599 55.6398 41.8945
780 2 21.8388 33.1689 42.4995
781 2 26.1596 25.6514 34.8042
782 2 49.0136 28.867 31.8254
783 2 22.4297 24.256 49.8252
784 2 30.422 31.3481 22.1528
785 2 30.308 49.0484 12.1553
786 2 47.7548 37.1518 40.1807
787 2 29.9871 55.6703 10.325
788 2 37.1675 10.9808 19.4541
789 2 53.6444 14.1994 50.377
790 2 20.2617 43.637 41.6658
791 2 22.4103 6.13131 30.2612
792 2 23.9822 52.881 41.1236
793 2 24.8527 52.8613 52.9281
794 2 16.2788 50.3728 15.352
795 2 30.2925 54.1343 46.5441
796 2 22.8128 37.1415 28.9671
797 2 21.4431 36.1255 32.0403
798 2 40.9261 52.5156 9.5181
799 2 14.6561 47.4176 39.6658
800 2 9.48667 41.3777 30.7827
801 2 30.3514 40.2656 40.1534
802 2 23.6359 35.7747 34.0276
803 2 16.0491 27.1262 19.8737
804 2 37.5209 14.4692 9.9392
805 2 41.4209 39.567 29.6196
806 2 53.4978 48.4042 33.0826
807 2 26.607 44.7134 32.3502
808 2 30.4208 37.2258 32.4585
809 2 55.7074 7.78671 44.6166
810 2 7.21818 25.0891 42.0928
811 2 11.329 16.7034 9.36417
812 2 33.6837 11.6814 28.6792
813 2 53.7808 29.0415 26.5559
814 2 55.8431 21.6201 21.7134
815 2 8.90465 53.1556 18.9453
816 2 18.8856 49.9192 6.74509
817 2 53.0052 30.2874 48.2066
818 2 41.6781 26.9116 16.3735
819 2 34.01 26.6133 23.917
820 2 53.0344 50.0173 20.8656
821 2 19.1895 21.2565 14.2936
822 2 43.7048 36.7701 52.0734
823 2 7.39322 6.24826 27.6765
824 2 19.7179 18.0692 24.9418
825 2 32.5647 20.8593 47.1878
826 2 31.0641 44.5512 25.5666
827 2 50.7698 6.40833 31.1924
828 2 17.9866 26.7548 54.2434
829 2 43.5107 24.7236 21.2359
830 2 43.3561 47.2522 12.0463
831 2 36.9667 26.7841 31.8768
832 2 18 11.6798 49.3305
833 2 7.77045 46.8574 38.3554
834 2 33.5722 48.5649 51.1388
835 2 39.5634 55.2668 14.9127
836 2 15.7244 30.264 41.0545
837 2 31.2523 19.8044 43.8316
838 2 42.3587 25.3371 18.8808
839 2 48.4459 8.66351 43.8607
840 2 28.7381 8.61113 38.045
841 2 14.0495 42.9893 50.9711
842 2 41.86 44.0981 48.0277
843 2 38.8381 33.4145 8.67531
844 2 37.2473 22.1444 30.0672
845 2 53.0892 52.3165 48.5081
846 2 9.14327 20.1926 10.7726
847 2 34.9029 9.99382 26.5157
848 2 9.30088 11.0705 51.9686
849 2 52.8602 44.4582 10.0505
850 2 46.8716 44.8014 31.8611
851 2 25.1622 41.5453 29.0245
852 2 51.2299 24.8955 12.7797
853 2 29.4718 10.8664 48.0373
854 2 47.9275 54.716 38.91
855 2 19.2994 6.90288 33.4815
856 2 47.3087 42.2706 45.0223
857 2 49.2303 34.9658 9.57087
858 2 11.8453 55.0716 54.1637
859 2 48.3395 50.7937 44.3622
860 2 16.1232 50.6123 43.1997
861 2 31.2245 14.7397 19.7111
862 2 51.2001 25.6836 28.8483
863 2 51.7225 27.7994 35.6735
864 2 14.7859 53.2233 6.8634
865 2 52.3494 45.0506 15.3543
866 2 49.1503 20.5726 48.0423
867 2 47.4541 46.2943 23.0316
868 2 21.4396 51.1224 24.6992
869 2 20.4462 44.3623 27.5979
870 2 49.9353 29.5645 52.2337
871 2 43.1211 21.7826 44.15
872 2 29.4969 47.0179 33.9686
873 2 7.15936 36.4009 49.1767
874 2 38.3583 39.6556 43.8522
875 2 20.0622 51.6967 15.8897
876 2 32.0797 41.8926 48.4784
877 2 15.1786 10.3166 27.7949
878 2 15.5511 24.7276 6.55784
879 2 7.04595 16.5179 42.1825
880 2 55.5924 42.9826 39.681
881 2 47.2863 49.7672 54.3273
882 2 12.6562 49.4092 9.60019
883 2 44.9806 13.618 10.3619
884 2 17.6201 11.1973 54.1873
885 2 8.89214 12.851 45.5632
886 2 54.4007 30.6499 45.1952
887 2 31.2733 12.1318 22.0923
888 2 29.6875 41.077 15.1045
889 2 28.0174 45.744 21.6169
890 2 31.2718 16.8128 34.0586
891 2 34.1316 21.9925 38.1881
892 2 33.4074 9.85864 48.0381
893 2 31.0439 47.2502 50.659
894 2 36.1137 41.9059 27.2202
895 2 24.6912 6.29127 37.71
896 2 25.7052 51.3565 32.9251
897 2 12.6034 47.7364 18.8672
898 2 50.6273 55.2295 10.3786
899 2 41.1323 54.9614 46.455
900 2 34.1184 16.8415 45.9663
901 2 41.9107 10.5747 39.6668
902 2 42.7859 24.4963 45.1235
903 2 33.9431 16.3299 9.40042
904 2 16.4628 42.9553 30.2346
905 2 39.8202 42.3493 31.1129
906 2 53.5353 24.1477 55.3302
907 2 8.61841 6.24657 38.6382
908 2 29.7518 29.8792 16.3306
909 2 41.4478 31.9797 21.1281
910 2 20.0842 26.2961 47.5158
911 2 18.1465 40.5852 11.6156
912 2 42.5344 21.6985 33.408
913 2 12.9021 43.6392 37.3636
914 2 20.4056 46.7819 20.1086
915 2 50.4134 10.9567 11.3072
916 2 52.9744 37.7296 48.0382
917 2 19.9439 28.3358 22.7257
918 2 49.0906 19.2436 52.6733
919 2 6.92825 46.4528 49.3292
920 2 36.6786 23.227 41.8569
921 2 13.5593 6.28929 37.938
922 2 43.7014 17.1917 49.9007
923 2 32.6713 18.5715 26.5791
924 2 30.7095 27.5112 54.0677
925 2 42.1523 38.0804 54.4866
926 2 29.5758 12.0197 18.9458
927 2 15.8148 15.5125 38.6116
928 2 18.0538 6.21235 37.7405
929 2 13.4976 27.4648 26.9246
930 2 14.1675 16.1105 21.4525
931 2 11.1648 7.72333 26.6891
932 2 54.0894 18.3381 10.6909
933 2 25.4888 48.8338 50.6329
934 2 13.6726 23.1568 47.686
935 2 13.9058 36.4893 41.8655
936 2 48.2807 51.611 40.3215
937 2 13.52 22.7925 10.5489
938 2 49.9097 28.6988 10.694
939 2 42.6298 17.1562 34.6479
940 2 7.06276 30.6684 50.0464
941 2 9.41176 19.4092 47.2092
942 2 41.5173 50.4244 16.6419
943 2 12.2679 41.0266 55.5986
944 2 38.0289 28.222 45.7045
945 2 18.0138 37.3907 18.8843
946 2 25.5926 38.2011 34.6209
947 2 19.7898 12.2813 36.1002
948 2 15.5854 51.9601 38.5716
949 2 7.77137 24.1521 37.0684
950 2 33.0977 42.3343 40.2437
951 2 15.6177 52.9881 23.1487
952 2 25.9321 37.8551 30.1578
953 2 47.4408 52.5778 18.887
954 2 10.8546 47.9376 27.4229
955 2 44.0468 10.0519 43.0123
956 2 33.3503 22.6975 31.5269
957 2 17.0128 53.6271 42.5106
958 2 21.5063 52.7997 39.2561
959 2 11.9122 50.1013 11.9656
960 2 22.6557 46.9431 46.0205
961 2 34.1771 41.4176 37.4869
962 2 21.6936 40.1636 46.8493
963 2 14.1812 6.0578 52.3162
964 2 18.4213 52.9684 38.4745
965 2 14.4409 34.0159 36.218
966 2 47.8927 34.0509 38.6723
967 2 25.7437 28.4687 38.2264
968 2 20.7557 42.4725 32.0019
969 2 7.21729 42.8621 15.6682
970 2 22.7096 26.4069 12.862
971 2 40.434 30.1105 32.0731
972 2 25.4924 37.2604 55.6969
973 2 36.408 34.3992 6.52683
974 2 17.731 20.6651 21.7719
975 2 50.5993 45.7553 32.0926
976 2 7.62562 27.2704 38.2896
977 2 7.41717 27.2383 15.1372
978 2 13.5468 40.1749 53.0363
979 2 7.65047 41.7448 24.1944
980 2 9.46115 15.819 24.3125
981 2 35.3043 28.4541 51.2713
982 2 55.0952 31.2968 21.9101
983 2 38.4101 12.1797 27.7182
984 2 54.3528 21.1666 37.0075
985 2 13.8674 31.406 49.024
986 2 25.1591 23.9199 32.1358
987 2 49.6683 22.6433 41.0065
988 2 50.3285 16.1557 50.1835
989 2 20.7573 15.6417 33.3387
990 2 7.58437 37.3247 52.0999
991 2 28.5303 21.1443 20.5872
992 2 22.8104 10.4479 49.881
993 2 32.7803 25.996 45.5321
994 2 28.7348 21.4963 44.5849
995 2 45.849 34.1679 29.1432
996 2 43.448 30.8022 9.07636
997 2 16.0001 18.743 20.1684
998 2 21.1883 29.1981 27.9866
999 2 21.0963 12.9782 50.6275
1000 2 32.0884 15.2458 22.8971
1001 2 33.6885 52.1241 36.9095
1002 2 26.2914 48.4826 15.5002
1003 2 17.0551 44.3142 50.202