ITEM: TIMESTEP
0
ITEM: NUMBER OF ATOMS
9088
ITEM: BOX BOUNDS xy xz yz pp pp pp
6.0323017731551030e+00 5.5898636018967437e+01 -5.7212376916093246e-15
6.0323017731551083e+00 5.5898636018967437e+01 0.0000000000000000e+00
6.0323017731551083e+00 5.5898636018967437e+01 0.0000000000000000e+00
ITEM: ATOMS id type x y z
1 2 11.3616 24.4621 54.366
2 2 29.3704 9.56742 24.2606
3 2 17.8636 28.6524 15.3449
4 2 37.4407 12.3584 21.7514
5 2 37.3883 53.1926 21.9629
6 2 10.1838 50.6461 45.4081
7 2 46.0052 16.427 12.7013
8 2 55.6243 29.5456 9.50094
9 2 37.1383 44.2477 22.8529
10 2 31.2894 39.6995 24.7184
11 2 54.475 29.6553 18.8474
12 2 25.5663 48.6609 38.8285
13 2 40.427 17.5582 42.0217
14 2 25.0115 49.4947 24.6777
15 2 17.0091 29.9265 35.4081
16 2 14.1146 37.2726 46.4575
17 2 42.8508 6.83619 47.0991
18 2 11.7241 42.087 20.9975
19 2 43.3952 52.6673 18.4546
20 2 45.5904 53.0938 8.29761
21 2 49.8584 39.6266 36.1641
22 2 55.0231 43.7217 54.7321
23 2 47.9892 52.5533 54.3348
24 2 34.5714 9.53555 12.5053
25 2 13.0048 17.3517 34.8992
26 2 18.9716 30.114 48.0324
27 2 9.31189 17.7614 36.289
28 2 29.1519 18.471 29.3875
29 2 43.5796 37.4751 48.1883
30 2 41.6308 33.0097 42.4316
31 2 13.8138 23.7651 33.1407
32 2 38.0131 9.96774 12.3359
33 2 38.1417 32.2275 55.106
34 2 16.0874 6.08871 9.20809
35 2 12.5237 10.5385 37.4653
36 2 13.9789 28.727 26.4475
37 2 16.0304 20.4072 12.9868
38 2 48.6911 26.1949 39.3645
39 2 7.37789 30.9078 18.6888
40 2 53.9905 54.7935 37.4657
41 2 21.0093 16.5157 7.62268
42 2 47.4197 25.4002 8.09242
43 2 41.9158 16.2184 10.4485
44 2 54.6556 52.7537 34.9576
45 2 48.721 45.024 27.1692
46 2 20.2408 31.3099 18.1309
47 2 38.8086 25.0654 45.0606
48 2 6.2215 45.3164 42.5273
49 2 54.1815 14.5118 20.4401
50 2 21.7218 45.2435 37.7732
51 2 52.0728 52.3143 21.72
52 2 50.8523 47.4618 28.3126
53 2 46.6813 54.5836 26.4858
54 2 16.8629 26.6614 33.7394
55 2 41.1952 42.6108 19.1788
56 2 22.8236 13.6885 22.7063
57 2 27.3719 53.2355 14.2007
58 2 27.4303 8.08915 17.7497
59 2 41.7694 15.1501 17.4382
60 2 23.8078 47.5669 33.7351
61 2 9.18596 51.8286 48.3308
62 2 55.7026 10.7736 48.1226
63 2 29.8088 11.5664 30.9149
64 2 44.6378 54.9132 16.627
65 2 16.6069 47.6374 19.3987
66 2 17.5291 32.3365 42.579
67 2 34.2152 19.9523 34.3272
68 2 27.1924 41.4328 19.2387
69 2 53.8635 10.4285 41.6067
70 2 34.1808 9.81031 17.8292
71 2 45.1291 8.30319 47.9042
72 2 10.58 49.6801 19.8169
73 2 28.3262 17.6184 35.5943
74 2 51.9775 15.8066 39.0877
75 2 31.7825 26.3801 44.0641
76 2 30.8943 13.6497 34.1199
77 2 55.1871 33.7706 43.2179
78 2 15.8977 43.1307 19.6277
79 2 25.2089 30.2168 43.8214
80 2 11.9828 21.6952 26.1913
81 2 11.8266 53.3067 40.3457
82 2 45.0631 29.3925 14.2036
83 2 47.2168 8.19459 37.9386
84 2 18.2615 6.36307 27.3019
85 2 11.0862 10.2759 13.0814
86 2 7.99485 8.42359 42.5635
87 2 49.7512 55.0572 25.5855
88 2 39.6911 40.742 28.0957
89 2 28.7777 19.571 55.059
90 2 53.1397 42.7628 35.6949
91 2 12.626 30.9788 9.00039
92 2 46.584 33.9986 41.866
93 2 34.2986 23.6116 46.7112
94 2 22.6064 17.0857 19.9361
95 2 15.1029 31.3231 11.4146
96 2 33.8143 23.3814 40.3464
97 2 13.7644 9.45001 23.0265
98 2 47.7186 46.5943 15.5483
99 2 52.7463 29.0379 44.5229
100 2 34.4268 40.3839 39.0783
101 2 52.213 53.7319 18.7089
102 2 20.5489 25.0687 31.6605
103 2 32.6316 49.2068 18.0138
104 2 45.1886 18.6324 6.71387
105 2 37.7796 45.6558 34.1253
106 2 24.7428 13.4063 43.3417
107 2 18.0918 28.4055 29.7329
108 2 6.85618 20.113 15.389
109 2 40.2442 35.3376 17.0166
110 2 46.9429 47.6406 23.0725
111 2 42.3241 39.39 22.147
112 2 52.7037 47.5549 26.0651
113 2 17.3642 18.0005 19.1663
114 2 8.11037 26.7897 39.7451
115 2 13.8517 23.1429 38.8264
116 2 11.3514 30.8229 14.0545
117 2 51.0319 45.8221 10.1838
118 2 53.0618 13.7322 27.7799
119 2 29.0696 29.1533 19.8384
120 2 48.4575 55.7681 35.8729
121 2 37.3094 44.7405 6.38863
122 2 50.6647 27.8254 23.8643
123 2 15.0264 29.1555 38.2208
124 2 51.3102 9.47809 25.8584
125 2 37.0519 49.672 28.7163
126 2 9.59236 26.4556 16.3073
127 2 36.2244 39.1298 7.06662
128 2 23.8127 16.5021 51.071
129 2 6.08741 6.85242 33.2387
130 2 19.1682 49.4124 13.6958
131 2 32.9553 37.4255 43.6535
132 2 55.4863 28.977 25.8314
133 2 8.46912 13.8012 32.0557
134 2 49.9404 10.9971 53.0244
135 2 53.4084 24.9575 10.9951
136 2 29.3396 25.6029 35.2649
137 2 44.3075 13.5028 48.4155
138 2 21.1847 38.8748 46.1029
139 2 31.7987 42.9989 47.0425
140 2 41.3097 7.62389 36.5647
141 2 18.5686 55.2968 45.6494
142 2 48.5309 32.537 14.0049
143 2 21.1285 45.5223 15.0304
144 2 38.6073 39.3238 49.4241
145 2 12.8399 46.3562 38.9509
146 2 46.0754 33.6687 15.2061
147 2 7.18441 19.4691 47.8975
148 2 45.0084 45.9401 19.0809
149 2 52.5174 45.8789 21.7262
150 2 42.3185 14.5744 55.6436
151 2 39.705 17.4186 27.6156
152 2 36.7606 37.4113 49.7816
153 2 42.6016 20.4196 24.6424
154 2 15.1912 47.2976 52.0072
155 2 9.0158 31.7721 35.9293
156 2 54.9511 24.9629 28.2871
157 2 54.4467 30.4343 42.6967
158 2 22.7729 10.0496 46.9435
159 2 46.1868 34.7389 50.9473
160 2 51.4979 43.418 25.3947
161 2 53.9995 6.61194 16.0174
162 2 13.9751 39.1507 35.934
163 2 14.4094 41.3578 51.943
164 2 6.93886 28.7843 6.63669
165 2 52.8552 9.09349 46.4548
166 2 52.1331 12.399 19.3498
167 2 48.1951 21.8659 20.7744
168 2 28.5507 36.9903 12.247
169 2 9.68388 8.84595 39.6043
170 2 30.4485 13.056 36.9594
171 2 45.3025 30.7817 17.1186
172 2 40.3909 53.843 15.1472
173 2 27.5748 53.9624 48.9664
174 2 37.8543 42.9605 17.1115
175 2 39.4632 10.4618 33.5054
176 2 18.2169 45.9779 11.6117
177 2 20.4199 21.6977 18.6104
178 2 48.771 15.385 47.894
179 2 40.2665 25.3615 53.8991
180 2 36.3158 23.5177 44.4632
181 2 33.6471 53.5453 53.7981
182 2 11.5601 14.5607 32.7665
183 2 21.0431 20.9569 47.1864
184 2 30.264 9.94057 36.2937
185 2 8.07963 46.7503 11.5861
186 2 23.9903 36.9334 23.1193
187 2 51.9735 23.9674 49.8504
188 2 24.0733 12.9197 8.45185
189 2 26.2753 25.395 43.4367
190 2 55.0126 53.246 22.3066
191 2 46.9805 29.2659 32.1605
192 2 10.085 36.6982 25.0904
193 2 28.2655 10.5447 54.094
194 2 13.7865 35.0278 41.5644
195 2 27.3851 51.0488 45.0538
196 2 54.2904 38.9157 38.0273
197 2 38.4166 38.9443 21.0207
198 2 17.53 50.0185 29.7979
199 2 12.417 9.86875 33.2735
200 2 32.3812 19.799 43.3624
201 2 32.8036 11.2364 27.3689
202 2 49.4136 53.0065 51.3496
203 2 48.9732 12.1993 38.9981
204 2 10.9231 30.7119 40.6033
205 2 42.4505 41.7824 8.88592
206 2 20.8974 47.6949 23.1614
207 2 36.165 26.0038 55.5235
208 2 39.3474 28.5238 34.3723
209 2 29.2856 18.7322 13.1092
210 2 35.1452 45.616 27.1516
211 2 19.6909 6.60148 15.2392
212 2 20.2477 24.6971 46.5582
213 2 35.7555 30.4427 8.36106
214 2 34.8016 50.3367 19.4608
215 2 34.2853 13.1782 31.0766
216 2 21.7095 10.3301 26.1059
217 2 28.462 40.6448 53.8827
218 2 46.759 9.49316 27.6937
219 2 31.9516 53.4888 35.5144
220 2 45.5172 9.52 30.6543
221 2 42.8114 10.6447 34.5074
222 2 18.1681 41.3522 25.2908
223 2 54.7672 38.8797 24.0253
224 2 42.6791 16.9071 15.025
225 2 46.4781 28.2711 54.0511
226 2 16.1703 35.0819 28.1417
227 2 20.4403 37.1763 34.7394
228 2 52.9097 29.2923 54.3338
229 2 54.1747 46.5712 45.3141
230 2 51.2375 6.18307 37.1113
231 2 19.6133 9.21448 24.1175
232 2 6.2768 10.7079 26.1455
233 2 19.1173 27.347 24.8593
234 2 40.8487 30.2414 46.7766
235 2 26.2508 28.6545 51.2822
236 2 7.32308 32.8513 26.6073
237 2 46.3571 18.2932 46.4825
238 2 16.1925 25.3816 18.4788
239 2 42.0164 11.759 9.4161
240 2 26.3765 40.2331 44.4707
241 2 54.88 25.2647 50.6311
242 2 53.0989 34.5768 23.5344
243 2 47.4108 43.3338 10.2477
244 2 44 16.3035 19.3247
245 2 20.4346 15.3075 38.3041
246 2 43.5 6.70846 40.4594
247 2 28.5808 46.5394 28.3358
248 2 27.7982 14.3702 50.8063
249 2 24.1958 18.537 34.291
250 2 30.3796 45.1769 51.6489
251 2 53.3036 52.8484 24.7074
252 2 30.87 47.2265 44.722
253 2 41.1392 25.4829 17.2914
254 2 37.7876 53.2121 45.8756
255 2 6.17769 21.5545 26.5648
256 2 33.3616 55.4271 15.1363
257 2 42.6034 47.253 46.9592
258 2 40.7531 20.1259 48.3846
259 2 20.8189 13.9111 24.7605
260 2 9.87543 24.9634 6.79028
261 2 31.5391 20.8878 26.5676
262 2 23.1234 43.1582 10.6285
263 2 45.8429 22.8619 12.0927
264 2 30.2584 47.7315 21.4117
265 2 52.816 23.3658 15.3976
266 2 33.1053 46.6874 48.757
267 2 27.837 34.5159 9.58799
268 2 32.6445 20.5852 12.488
269 2 48.5356 45.3602 22.7842
270 2 11.413 37.8016 53.8036
271 2 38.55 32.5672 50.492
272 2 39.0513 7.52326 34.61
273 2 53.981 26.7182 55.7755
274 2 11.2937 25.2717 31.9052
275 2 24.8155 40.3794 52.2524
276 2 34.5718 12.5437 38.8099
277 2 22.1674 22.3756 35.8175
278 2 40.4919 6.29688 26.2937
279 2 25.1464 23.4972 55.726
280 2 8.4625 51.0993 27.8401
281 2 9.47459 7.94787 34.9696
282 2 50.1665 53.749 42.4676
283 2 9.89515 9.92001 17.9546
284 2 44.1007 35.5133 43.6163
285 2 18.7858 28.1568 42.7155
286 2 47.5556 52.0346 29.1508
287 2 33.1184 12.3376 19.0374
288 2 33.7339 10.3978 24.5266
289 2 50.4415 50.7609 55.5852
290 2 30.3381 10.0002 14.1178
291 2 44.4215 38.7364 35.6376
292 2 28.0087 41.6601 28.6502
293 2 49.0454 46.5711 31.1621
294 2 30.9325 14.7355 31.3891
295 2 10.4959 50.6924 12.5683
296 2 46.3001 37.6952 27.1116
297 2 8.20782 35.0866 28.0448
298 2 32.7924 52.1263 28.5819
299 2 11.014 26.8392 42.8741
300 2 20.7866 42.9514 8.58001
301 2 18.0794 29.8757 11.9189
302 2 27.9363 38.0789 51.5327
303 2 54.3396 49.038 53.8976
304 2 14.8232 49.8895 44.9225
305 2 55.0579 37.5181 34.0328
306 2 24.2843 18.7163 55.3365
307 2 49.5412 55.5407 47.7215
308 2 48.7539 32.1402 45.2941
309 2 16.2439 36.7736 42.7104
310 2 36.5689 46.4565 15.0423
311 2 40.3138 11.9413 30.1727
312 2 25.6114 43.7568 37.3881
313 2 9.60364 27.5623 25.4114
314 2 19.1653 36.6851 13.9548
315 2 31.1389 16.9447 44.3818
316 2 28.2431 37.0768 30.5132
317 2 22.1129 43.8385 30.8006
318 2 48.0935 43.7883 44.5491
319 2 25.1418 15.9498 44.8192
320 2 30.6602 8.37185 43.6714
321 2 22.4756 44.4251 17.8023
322 2 39.679 16.1547 55.0793
323 2 25.2452 54.0591 18.7264
324 2 23.1475 34.6072 35.845
325 2 6.8814 28.9863 41.2071
326 2 48.9498 30.5834 38.5407
327 2 14.0708 36.0186 50.0524
328 2 48.0703 26.3298 33.7479
329 2 19.7129 40.1453 41.2295
330 2 13.5073 27.4209 30.918
331 2 32.1889 49.9357 33.2502
332 2 24.2721 44.3798 24.7499
333 2 41.9733 17.1688 44.8773
334 2 38.5205 48.6136 48.4554
335 2 23.084 40.6034 47.6616
336 2 7.50217 35.8338 45.6984
337 2 53.754 13.8379 10.1398
338 2 32.4771 7.12756 17.7519
339 2 14.3973 49.8925 34.335
340 2 35.0226 16.6441 47.905
341 2 41.595 46.1827 11.4239
342 2 23.9143 35.907 49.2068
343 2 22.4371 7.5983 27.0183
344 2 40.0906 38.0994 45.2381
345 2 43.8275 43.6994 21.1712
346 2 35.496 43.8012 15.0456
347 2 31.9387 21.3963 9.62253
348 2 23.5034 23.6123 8.36181
349 2 52.3218 30.2391 12.0338
350 2 17.1407 48.3642 10.0163
351 2 32.2609 33.448 17.2309
352 2 6.95954 36.0178 48.9985
353 2 55.5799 18.2101 18.4863
354 2 20.1737 49.7759 16.5986
355 2 51.7924 20.7411 37.8409
356 2 19.0083 14.0559 15.1437
357 2 8.79725 24.9038 9.71414
358 2 30.0537 10.6111 10.9783
359 2 45.222 6.28068 7.82691
360 2 44.4826 19.7286 22.3742
361 2 20.4195 39.0444 54.2272
362 2 52.7558 35.9698 20.5568
363 2 18.4216 42.5563 34.3972
364 2 48.5992 19.2826 34.2919
365 2 49.7232 45.7954 46.0296
366 2 42.8046 30.5571 50.5401
367 2 23.9329 12.2246 19.7852
368 2 48.7329 11.3221 45.3789
369 2 53.7648 18.42 48.036
370 2 39.5967 48.3148 27.984
371 2 42.4544 16.3815 27.1986
372 2 37.2708 32.3184 33.2734
373 2 55.3043 20.6077 40.816
374 2 16.6723 13.5275 45.6576
375 2 8.38217 52.8162 14.7737
376 2 7.98093 41.2652 34.2294
377 2 44.9667 31.9425 22.5171
378 2 55.3019 17.9905 9.94874
379 2 46.8347 55.6287 45.7634
380 2 33.2703 21.7476 38.4273
381 2 38.971 28.8333 26.3688
382 2 43.2686 8.32824 18.8897
383 2 35.5159 40.5456 27.1868
384 2 42.8752 9.32323 49.7833
385 2 39.9197 11.6032 19.6734
386 2 21.0496 17.5031 12.4835
387 2 28.7035 17.556 7.2483
388 2 39.4334 46.2697 31.5641
389 2 40.3436 11.066 25.4077
390 2 40.5312 21.5521 10.8698
391 2 42.5676 14.8635 32.3325
392 2 32.4456 12.3523 55.8316
393 2 22.5688 29.0531 37.1194
394 2 46.8653 16.3636 25.8437
395 2 11.1844 37.1196 29.9917
396 2 20.1027 39.5298 21.9982
397 2 40.6767 40.2156 31.9713
398 2 53.8115 24.7799 53.5024
399 2 12.3136 10.4011 54.9597
400 2 45.0343 25.0162 32.9787
401 2 40.0206 49.1989 14.8115
402 2 27.2675 37.9481 55.449
403 2 32.6687 17.522 31.6904
404 2 53.1527 33.3171 34.8543
405 2 48.6497 31.2306 20.1268
406 2 7.55315 11.3818 21.6622
407 2 9.81613 22.9525 41.6843
408 2 11.4718 32.424 24.3505
409 2 28.9476 19.0267 33.0782
410 2 30.1831 42.9829 8.48917
411 2 44.7524 25.8047 41.9213
412 2 7.58882 53.6868 31.5071
413 2 39.6675 20.89 38.7734
414 2 26.4293 8.51022 53.496
415 2 34.4716 48.9178 51.2761
416 2 22.7279 47.8129 20.2788
417 2 42.4604 42.2918 14.7363
418 2 44.395 27.0728 23.8737
419 2 17.6609 52.929 48.1618
420 2 46.5506 38.0187 17.9959
421 2 6.76052 22.3852 9.39516
422 2 15.7338 15.7648 41.1518
423 2 19.504 35.1192 38.7034
424 2 27.8473 14.1857 35.4312
425 2 37.3278 54.915 34.1692
426 2 53.9436 39.6408 16.9802
427 2 7.38327 33.9569 8.23342
428 2 41.1344 34.358 10.4643
429 2 50.9137 34.7239 36.0869
430 2 20.6765 10.1566 54.1664
431 2 52.2439 25.3008 30.8858
432 2 50.8196 7.16641 12.2755
433 2 51.1273 33.4454 16.1156
434 2 38.2485 47.567 22.3686
435 2 6.1371 49.0031 45.3977
436 2 38.026 21.9938 16.7104
437 2 48.7549 28.9347 46.0593
438 2 17.0121 11.0871 55.3433
439 2 47.9003 53.0816 16.9856
440 2 33.7513 45.2529 18.909
441 2 9.67606 48.4677 29.4972
442 2 19.5686 28.8017 36.7972
443 2 29.6887 45.2963 47.175
444 2 6.55845 12.665 14.2558
445 2 28.8203 21.9332 11.3121
446 2 33.3649 24.6556 25.9359
447 2 54.0572 41.8037 39.6807
448 2 44.5783 29.8782 35.5604
449 2 12.6538 49.4894 10.6021
450 2 44.4145 18.0316 44.1498
451 2 34.1582 11.0363 9.97529
452 2 17.6341 50.4167 47.0324
453 2 44.5219 43.1314 46.1159
454 2 16.4808 34.5732 19.8601
455 2 24.6806 23.3974 18.2785
456 2 53.0085 43.8701 28.0815
457 2 49.7722 23.2077 33.4486
458 2 19.6702 45.1063 17.4669
459 2 25.9488 31.0741 23.1221
460 2 30.7194 39.3814 52.3714
461 2 10.2985 46.3035 28.0082
462 2 45.165 11.024 40.7097
463 2 28.3034 41.7625 15.1185
464 2 9.15057 51.9726 19.0948
465 2 37.1881 19.9346 54.3637
466 2 15.0806 19.1108 27.815
467 2 45.5361 41.315 36.086
468 2 12.3422 27.6118 15.17
469 2 31.0844 38.6174 13.4959
470 2 19.3779 22.8068 25.0864
471 2 16.5559 26.8078 21.3893
472 2 14.5084 47.0064 29.7226
473 2 24.6059 31.0552 50.643
474 2 44.9509 47.4427 36.9924
475 2 16.9247 55.2463 15.5348
476 2 42.1335 48.4738 36.4249
477 2 55.5201 9.79282 36.2998
478 2 42.6345 6.4029 34.1172
479 2 15.157 31.9579 44.0973
480 2 48.4551 38.7564 49.209
481 2 45.5404 54.6278 49.8071
482 2 6.33987 42.7932 36.0054
483 2 31.6131 49.4265 37.4599
484 2 22.5304 41.4143 22.0943
485 2 44.4753 34.9731 24.2183
486 2 21.8463 12.8489 15.4987
487 2 55.4863 31.1148 12.964
488 2 29.015 41.1027 43.596
489 2 35.7458 55.527 24.7494
490 2 52.4732 13.429 33.0457
491 2 9.43739 49.4314 24.9042
492 2 13.1092 41.638 54.5617
493 2 20.9202 54.3412 7.8272
494 2 27.9252 34.1056 15.3442
495 2 40.8702 30.1134 9.21522
496 2 22.8358 32.882 33.0202
497 2 33.4105 48.3802 13.083
498 2 45.5946 24.3109 27.0475
499 2 24.9648 21.4324 9.4641
500 2 34.5767 35.5098 49.4721
501 2 44.2429 52.6273 36.8353
502 2 7.99185 19.4906 45.0882
503 2 48.4289 27.1791 11.1609
504 2 53.8735 47.027 31.5448
505 2 46.1858 44.3379 29.1716
506 2 43.5428 39.3154 53.5994
507 2 48.0913 36.7711 35.225
508 2 29.3901 14.3037 14.0772
509 2 42.2787 13.8118 14.3682
510 2 20.406 40.3348 9.54294
511 2 53.7152 18.0414 39.9897
512 2 23.0403 28.3336 33.0976
513 2 54.6438 33.4949 10.1342
514 2 24.8739 42.9581 20.4189
515 2 14.1116 12.0334 45.8278
516 2 15.7342 47.8618 42.88
517 2 10.4401 50.1821 32.2938
518 2 55.5637 12.8528 32.9398
519 2 14.8018 29.2479 44.2818
520 2 21.0214 44.0069 53.6668
521 2 41.9455 18.4289 8.84933
522 2 9.50284 22.3221 53.7151
523 2 50.75 23.9556 27.1057
524 2 15.655 29.5885 17.4019
525 2 24.5566 25.9495 34.7806
526 2 10.6804 42.5943 10.4964
527 2 25.1002 53.4244 23.2174
528 2 40.2125 54.6504 35.9615
529 2 12.5486 10.8935 41.5411
530 2 22.0884 24.4515 43.636
531 2 43.8432 47.5675 22.6019
532 2 11.5829 39.8811 8.4618
533 2 51.8963 27.696 15.1641
534 2 49.3874 10.1071 23.21
535 2 34.2802 17.2182 24.5216
536 2 24.6122 47.5892 43.8588
537 2 43.0342 32.8451 46.525
538 2 51.0781 26.9744 49.2406
539 2 32.1169 28.2057 54.583
540 2 21.737 11.6236 6.66537
541 2 34.7507 30.593 44.6751
542 2 53.8343 7.68479 41.1427
543 2 13.4865 11.5998 26.607
544 2 54.9286 33.2939 14.6606
545 2 47.2316 25.1527 43.404
546 2 54.2297 52.8395 31.0729
547 2 42.5661 8.10221 29.9606
548 2 29.4264 51.8314 25.9993
549 2 30.2938 40.2699 22.119
550 2 22.2668 27.9495 28.6413
551 2 40.8425 33.3794 13.3422
552 2 20.0089 28.3321 50.2459
553 2 45.9596 14.5177 27.997
554 2 40.7287 11.3152 6.14704
555 2 12.3285 10.216 19.9997
556 2 51.3533 49.3474 17.5422
557 2 40.6936 22.2128 22.1914
558 2 33.4751 27.0715 14.7721
559 2 16.526 7.63945 49.7079
560 2 54.8616 41.2078 8.57213
561 2 35.7452 19.5414 28.7837
562 2 40.6954 18.1497 20.8048
563 2 53.8542 47.7985 49.988
564 2 7.31104 23.4209 12.0712
565 2 30.0493 50.6606 21.2881
566 2 21.2023 40.9616 6.51293
567 2 50.9747 52.2149 26.3578
568 2 11.6916 8.50209 29.7568
569 2 33.3378 22.5431 55.1889
570 2 19.9399 27.7693 21.9229
571 2 36.2965 16.8227 12.822
572 2 23.5603 53.6069 16.3477
573 2 10.84 18.5176 50.0599
574 2 8.88499 7.73932 52.9519
575 2 7.25029 20.4429 10.9332
576 2 52.7792 9.69437 21.4817
577 2 7.09343 13.9294 39.2152
578 2 47.2439 14.1283 44.9155
579 2 50.0992 36.0874 52.7704
580 2 43.9008 10.1557 23.6974
581 2 48.0554 21.9638 16.473
582 2 20.6108 9.5673 8.55429
583 2 38.7548 16.8404 44.7513
584 2 31.8668 29.7522 27.1208
585 2 20.1642 14.8945 19.9457
586 2 42.0237 41.3392 47.3544
587 2 29.8392 55.8022 11.5988
588 2 55.8391 51.5783 11.3832
589 2 10.5174 45.9516 10.2331
590 2 21.491 31.6743 30.1342
591 2 26.6434 12.0789 30.9063
592 2 30.5582 36.695 32.5643
593 2 45.2798 51.6204 51.3717
594 2 11.985 25.1873 12.9858
595 2 22.3698 20.776 23.3831
596 2 17.1784 37.0877 38.2812
597 2 15.8197 8.98103 52.803
598 2 11.6653 28.5645 20.9886
599 2 14.3616 24.7356 50.9825
600 2 42.819 12.3006 16.6282
601 2 22.149 48.6131 55.0128
602 2 22.5165 26.2312 10.3552
603 2 54.6403 16.4889 42.7488
604 2 26.7141 16.3212 14.6857
605 2 33.2474 44.5524 36.2874
606 2 47.8232 44.8139 35.371
607 2 13.7711 49.6919 52.9882
608 2 40.3515 32.647 53.2055
609 2 16.9194 26.0061 40.7474
610 2 51.6294 19.7143 34.7593
611 2 28.348 38.8227 23.9965
612 2 45.0382 19.3723 48.9753
613 2 43.1281 53.883 46.4742
614 2 26.2945 27.0159 15.7511
615 2 43.2879 39.0153 45.8143
616 2 35.4493 24.723 10.4632
617 2 35.9277 33.6969 14.4597
618 2 39.8429 29.312 12.4531
619 2 55.3877 33.9882 38.794
620 2 13.7892 13.7517 53.634
621 2 50.887 21.0333 45.9077
622 2 22.6182 43.1217 44.059
623 2 53.3527 41.3599 53.4855
624 2 7.98096 23.8719 39.0281
625 2 25.86 50.7808 40.5919
626 2 49.8168 54.7519 39.7504
627 2 32.7828 24.0572 30.0353
628 2 29.6545 26.9192 6.27742
629 2 44.9547 23.6897 16.6324
630 2 46.0882 53.884 39.6465
631 2 30.1564 38.8212 42.5103
632 2 55.2954 44.4595 31.7891
633 2 34.0319 24.6284 36.2906
634 2 25.0697 10.2732 24.4026
635 2 54.9589 24.1386 13.3854
636 2 19.0598 52.6222 12.7249
637 2 10.1771 21.6592 23.6105
638 2 14.2384 55.5036 34.346
639 2 37.7178 50.7267 35.0756
640 2 11.882 32.7866 20.9734
641 2 46.8938 43.2477 16.5581
642 2 13.3316 6.76089 52.8879
643 2 19.4265 35.5063 32.3457
644 2 7.79888 30.708 23.2256
645 2 6.67851 14.0279 25.0643
646 2 50.8992 40.7612 50.5697
647 2 48.0839 50.9146 15.0605
648 2 49.2393 15.9793 11.8518
649 2 38.9948 33.3417 44.2968
650 2 21.412 16.4233 33.5975
651 2 36.0566 23.1937 48.9699
652 2 38.7079 23.8138 10.733
653 2 21.412 8.08364 17.8215
654 2 28.6776 28.3516 46.8088
655 2 35.4951 18.4721 18.5714
656 2 18.6557 22.4593 37.8313
657 2 28.8234 22.1761 44.6991
658 2 21.2152 8.23615 42.6895
659 2 9.82899 16.3755 17.3882
660 2 35.9096 9.46067 30.8028
661 2 18.5132 49.6112 32.68
662 2 46.4082 19.0683 26.5397
663 2 33.0772 9.94428 31.2436
664 2 9.89444 28.8097 33.8439
665 2 39.4767 42.5759 35.4888
666 2 42.9612 34.8263 7.86024
667 2 14.1706 24.7175 28.7043
668 2 30.3106 13.5562 18.1624
669 2 21.3261 52.7222 45.8459
670 2 19.3447 27.5748 39.7329
671 2 47.4259 19.7763 18.7643
672 2 36.7892 45.5332 29.8187
673 2 51.3944 54.5247 28.3434
674 2 29.2501 31.0363 23.0117
675 2 10.2921 42.6863 49.2238
676 2 17.4014 48.5723 49.3377
677 2 18.99 24.6066 39.5614
678 2 22.6329 52.8802 43.2162
679 2 34.7291 49.407 38.6082
680 2 53.7551 9.73873 8.78777
681 2 39.1378 47.1042 18.6005
682 2 23.6589 27.6935 47.6201
683 2 51.1831 18.1109 18.6843
684 2 43.9912 46.1161 51.5858
685 2 10.2331 55.3891 18.1316
686 2 25.9158 25.7612 37.474
687 2 17.879 23.3489 42.2065
688 2 38.186 48.9427 11.984
689 2 20.2391 28.5026 7.62342
690 2 18.1418 42.632 46.0021
691 2 52.1105 31.282 50.2835
692 2 51.6341 18.7477 25.9318
693 2 28.9582 8.64677 34.0058
694 2 34.3072 55.0176 18.4971
695 2 51.5372 16.8173 48.562
696 2 11.5334 32.8048 29.5297
697 2 26.7769 7.3499 38.9778
698 2 25.1232 32.7692 16.2765
699 2 21.7556 38.8991 14.4204
700 2 22.5019 21.331 49.5606
701 2 33.3572 32.1752 15.1714
702 2 41.2696 49.6145 53.5007
703 2 26.191 40.1735 34.2997
704 2 46.9486 7.22335 10.4325
705 2 29.5245 20.8831 15.4047
706 2 52.1028 30.5847 16.4022
707 2 35.0917 6.51606 32.4954
708 2 41.5689 19.9184 33.4046
709 2 51.8346 41.8536 7.89053
710 2 29.2561 17.4938 10.1794
711 2 44.413 24.7636 37.1179
712 2 52.0961 11.7896 7.01025
713 2 52.8354 25.9412 24.0417
714 2 38.7857 55.3861 24.0418
715 2 31.3767 6.3543 25.8481
716 2 9.45013 31.5675 9.47341
717 2 47.9739 50.3545 40.9278
718 2 36.3408 17.5889 50.0401
719 2 46.5922 33.8644 54.2321
720 2 14.1718 13.3877 41.3816
721 2 28.751 38.2469 34.5146
722 2 38.5767 31.0286 22.2361
723 2 34.7694 22.2751 16.0284
724 2 8.20706 46.581 38.7439
725 2 36.0699 25.4548 27.4827
726 2 29.4717 29.4744 50.972
727 2 40.8958 31.3501 38.8319
728 2 21.7474 45.6325 11.6978
729 2 9.9021 18.493 32.2515
730 2 25.7772 10.0142 7.5792
731 2 54.0561 13.6143 35.5414
732 2 15.5981 26.5049 10.931
733 2 6.61454 33.3631 36.1192
734 2 9.22472 12.2496 39.3105
735 2 33.0566 47.0295 53.7911
736 2 29.3317 47.0798 6.16995
737 2 52.5227 21.5238 50.6971
738 2 25.665 34.4972 23.1806
739 2 14.5304 22.6892 55.1648
740 2 49.4816 24.3407 17.0935
741 2 44.398 44.8022 12.0555
742 2 33.9529 8.89582 43.4232
743 2 53.366 43.1329 45.7267
744 2 53.1734 22.6284 40.0603
745 2 33.2963 31.7377 29.1214
746 2 41.1307 51.4426 28.0956
747 2 23.6573 45.3393 51.2525
748 2 35.6586 8.56205 48.4295
749 2 33.0811 7.40401 45.76
750 2 11.4041 18.1094 40.7767
751 2 37.6365 33.7133 40.3273
752 2 36.568 28.0479 24.0835
753 2 27.2532 34.0209 12.1358
754 2 19.1382 34.4484 29.4515
755 2 40.5307 42.9626 31.061
756 2 24.2312 26.8155 25.0031
757 2 38.5491 30.1172 40.8443
758 2 52.1846 6.79401 49.075
759 2 29.4765 24.7843 8.45876
760 2 8.88164 54.4552 39.9709
761 2 8.00503 20.7408 6.23249
762 2 47.2565 24.9041 29.2727
763 2 42.9328 44.4228 32.7565
764 2 36.2435 47.0647 7.68138
765 2 32.5832 13.5773 14.8098
766 2 42.598 11.3344 20.7401
767 2 20.4398 23.3776 16.0356
768 2 51.2097 18.3738 32.4954
769 2 15.5611 29.8933 20.1935
770 2 38.578 53.8503 54.3248
771 2 37.4938 10.3929 28.7796
772 2 15.8953 27.2859 28.4663
773 2 44.7659 44.4784 48.8229
774 2 39.8419 6.71555 45.6965
775 2 30.1453 53.8576 47.0157
776 2 46.2039 39.0754 41.9243
777 2 49.1179 48.0636 11.5235
778 2 34.7869 6.23219 54.2335
779 2 27.0564 49.5633 36.366
780 2 21.9337 26.7778 41.7089
781 2 27.0288 11.5574 33.7056
782 2 53.3288 20.9711 28.9559
783 2 24.8653 19.6319 48.5292
784 2 31.7664 24.2239 23.1031
785 2 33.9822 42.6352 8.52068
786 2 51.2048 29.7798 39.4496
787 2 31.3952 46.7408 10.1443
788 2 40.5769 54.4392 19.3243
789 2 7.35359 6.61164 46.4379
790 2 23.5532 35.7882 40.6668
791 2 26.507 48.9198 29.0981
792 2 31.6137 42.2037 38.6053
793 2 29.7878 48.2043 51.026
794 2 19.5507 42.1935 13.847
795 2 33.3631 46.0143 44.1586
796 2 30.8811 35.6097 29.7809
797 2 24.7091 30.4276 33.9321
798 2 43.9058 44.6954 7.82179
799 2 22.8489 37.4413 36.9031
800 2 14.7793 31.6885 28.7043
801 2 35.0018 36.0115 38.7084
802 2 31.4775 28.0715 31.1085
803 2 18.9914 12.229 20.7723
804 2 41.3693 54.1512 6.11307
805 2 43.7129 31.4653 28.0788
806 2 8.77428 37.2982 36.528
807 2 32.8315 39.399 29.6818
808 2 34.8089 35.1535 29.8885
809 2 9.60899 49.7832 42.5448
810 2 14.0191 19.7996 41.3552
811 2 15.4097 55.5619 54.8004
812 2 38.5318 50.7326 24.4086
813 2 7.31788 17.859 28.5034
814 2 9.76221 13.4397 20.9152
815 2 7.75798 43.8899 14.3076
816 2 23.4206 42.7095 54.858
817 2 53.5061 18.662 44.988
818 2 45.0151 19.2224 15.2868
819 2 36.6757 20.2899 20.8246
820 2 49.3157 44.8327 12.3052
821 2 19.1204 13.5221 8.1469
822 2 47.7955 30.3722 50.0155
823 2 11.7112 47.768 26.2221
824 2 23.0733 7.9572 22.437
825 2 36.0608 12.3872 45.2801
826 2 36.9594 37.5231 28.5287
827 2 55.7742 47.0713 26.8731
828 2 24.8074 19.0995 52.5619
829 2 47.3054 16.6664 20.1301
830 2 46.3132 39.0884 10.6517
831 2 40.0959 17.0335 32.3964
832 2 19.0055 55.6849 52.2695
833 2 11.3783 37.9672 34.5608
834 2 31.9495 36.9152 50.2074
835 2 42.9254 48.0537 15.318
836 2 20.9205 21.8944 44.0038
837 2 35.0983 11.3848 42.1014
838 2 46.2098 17.1373 17.6879
839 2 52.0582 51.1612 42.5577
840 2 33.6364 49.2351 35.6502
841 2 17.823 35.0964 50.0979
842 2 44.9352 35.0367 48.1026
843 2 43.1268 26.3319 55.7224
844 2 40.4556 14.4285 28.6493
845 2 7.03084 44.7792 47.077
846 2 6.33925 9.13217 10.9217
847 2 35.099 50.1696 25.6467
848 2 14.1657 52.2981 50.6604
849 2 6.37672 36.9723 8.39457
850 2 48.6302 35.9159 26.4382
851 2 33.3209 31.6947 24.4528
852 2 55.1014 17.1233 13.007
853 2 32.6361 52.3375 45.9142
854 2 51.6697 47.0583 37.3991
855 2 20.7177 50.1366 34.8542
856 2 51.0682 35.7177 43.9107
857 2 51.9642 27.608 8.47254
858 2 16.8251 43.5679 55.6675
859 2 52.0079 43.1498 43.0382
860 2 18.6881 45.0536 41.4325
861 2 32.8133 8.70373 22.0028
862 2 54.1239 17.8193 27.8577
863 2 55.5822 20.8178 33.4489
864 2 19.4585 48.2307 53.5229
865 2 7.73158 35.7604 12.4581
866 2 50.8435 14.5109 41.9582
867 2 50.9979 39.0216 20.9614
868 2 26.7759 40.1834 26.23
869 2 22.1261 35.113 29.0928
870 2 54.9528 15.974 52.312
871 2 46.324 13.5617 39.6739
872 2 32.4538 43.5176 31.1397
873 2 55.0528 23.7914 41.6845
874 2 42.5786 26.3338 48.6908
875 2 24.5894 45.0339 13.2497
876 2 31.9076 30.353 42.5773
877 2 17.463 51.4016 26.9493
878 2 15.331 19.0992 9.71403
879 2 9.48879 6.43479 44.1752
880 2 9.8221 34.9029 38.3107
881 2 50.6709 42.0511 53.4429
882 2 16.1017 41.3406 7.58351
883 2 48.378 6.93592 13.1759
884 2 18.0002 50.8055 52.5211
885 2 11.1531 53.7064 44.8897
886 2 13.6271 24.0312 43.8958
887 2 34.2728 55.7595 21.788
888 2 31.9563 35.898 13.7114
889 2 30.3648 36.9668 19.0742
890 2 38.1695 55.5762 28.5988
891 2 37.1604 13.5447 37.6556
892 2 38.2956 53.3276 43.1842
893 2 33.3315 41.8784 55.4689
894 2 41.9258 35.9403 22.4732
895 2 28.4524 47.1087 34.9174
896 2 29.0181 46.0273 31.4726
897 2 19.6235 37.1756 17.9594
898 2 6.31626 48.9938 12.8293
899 2 44.998 48.0134 45.0485
900 2 37.5371 8.50657 44.2003
901 2 45.5103 51.9608 41.7614
902 2 43.6438 21.26 41.2436
903 2 36.5288 7.02649 9.52182
904 2 18.3214 31.5181 28.3416
905 2 43.1335 34.0111 29.5544
906 2 6.19512 21.4703 51.0856
907 2 10.8267 50.2158 36.6255
908 2 33.6023 16.6509 11.0168
909 2 44.8379 23.7375 19.6984
910 2 24.2578 13.2109 46.3795
911 2 21.7265 33.0806 10.3212
912 2 47.4347 14.3914 33.3475
913 2 12.6318 34.5852 34.9552
914 2 22.9486 30.0864 16.366
915 2 52.7698 54.2225 7.65286
916 2 6.82698 28.5092 44.0781
917 2 23.2721 17.869 22.8955
918 2 53.2331 13.8701 45.9234
919 2 10.3421 38.4151 48.4044
920 2 39.0399 13.648 41.5464
921 2 16.9387 47.1247 35.9245
922 2 46.8451 7.57287 50.3726
923 2 38.1146 9.93876 23.648
924 2 33.2414 19.6019 54.9682
925 2 46.8043 30.9697 53.1796
926 2 29.0248 51.1479 18.5789
927 2 23.1072 52.3739 39.294
928 2 21.9918 48.0885 36.5965
929 2 18.1125 19.1927 22.0483
930 2 17.2037 7.92812 20.0474
931 2 15.9229 53.008 24.6759
932 2 16.5355 9.4357 14.1038
933 2 31.0516 39.0191 45.1562
934 2 19.2822 19.8824 45.2085
935 2 16.3506 31.7508 39.9524
936 2 52.0934 43.9667 38.6719
937 2 20.7783 14.9975 10.4394
938 2 53.985 20.7625 9.46781
939 2 44.0179 7.08162 37.3067
940 2 13.9769 20.8326 48.3573
941 2 7.47234 12.9336 43.8671
942 2 48.8152 40.8012 17.254
943 2 16.1108 33.1382 53.8351
944 2 37.2595 19.5874 45.1677
945 2 20.7897 27.8178 14.6909
946 2 33.1531 29.5643 34.9499
947 2 22.5412 11.2461 33.242
948 2 18.7537 44.0417 37.1347
949 2 16.1034 12.1676 35.1879
950 2 42.0293 28.3952 37.1988
951 2 23.3595 46.9476 26.7292
952 2 27.9318 29.95 32.9375
953 2 8.80438 47.6583 22.489
954 2 14.5418 38.9253 26.0556
955 2 49.2007 53.2645 46.3949
956 2 37.2159 14.7132 30.437
957 2 22.5878 43.3732 33.9278
958 2 28.1727 46.6146 39.2529
959 2 14.8109 42.4527 10.5259
960 2 29.231 37.8999 47.1777
961 2 34.699 34.1974 41.6076
962 2 26.3925 33.5909 46.5021
963 2 16.8664 44.529 52.7062
964 2 21.7351 42.404 40.2131
965 2 18.6248 24.2301 35.2809
966 2 51.0601 26.5749 37.1513
967 2 29.1477 20.1834 35.3682
968 2 26.5579 34.295 30.3401
969 2 9.20891 32.6393 12.4016
970 2 31.788 18.3354 9.24595
971 2 43.6009 22.7264 30.917
972 2 25.4888 27.1775 9.56905
973 2 42.1615 29.6831 53.2174
974 2 25.9295 12.8059 17.4398
975 2 6.19244 38.2235 31.1875
976 2 6.89293 16.8425 37.7185
977 2 11.3757 17.6988 14.9248
978 2 19.8175 32.8274 51.2755
979 2 9.83436 34.8109 21.1369
980 2 11.8489 6.75745 22.9836
981 2 38.6613 21.6471 50.0659
982 2 9.70163 23.4134 20.6631
983 2 39.2462 53.1983 26.3568
984 2 9.70321 15.3422 40.977
985 2 20.7739 12.5327 50.1223
986 2 26.2341 15.1522 29.6184
987 2 51.3315 11.3952 37.6595
988 2 7.76024 14.1623 52.1507
989 2 23.3293 12.9532 36.1584
990 2 10.4302 27.1275 51.3094
991 2 28.0537 17.3076 21.3799
992 2 24.6341 50.5584 48.5476
993 2 34.607 18.9705 46.0726
994 2 32.3889 12.9263 42.397
995 2 49.3103 26.7802 28.0513
996 2 46.3524 22.1681 53.7746
997 2 19.8711 10.8225 18.6918
998 2 26.8017 22.1465 31.1162
999 2 29.9455 52.1886 49.7731
1000 2 36.5249 8.29326 21.3368
1001 2 36.978 42.8294 33.6619
1002 2 31.1071 43.9155 54.3778
1003 2 20.583 36.9432 49.6267