units           metal
boundary        p p p
atom_style      atomic
read_data       ../data/T${T}.dat
read_data       ../data/T570.dat
  orthogonal box = (-35.5895 -35.5895 -35.5895) to (35.5895 35.5895 35.5895)
  3 by 4 by 4 MPI processor grid
  reading atoms ...
  32000 atoms
  reading velocities ...
  32000 velocities
  read_data CPU = 0.0993654 secs
mass            1  58.69
mass		2  30.97
pair_style      eam/alloy
pair_coeff      * *  NiP.lammps.eam Ni P

neigh_modify    delay 5

timestep 0.01
thermo 1000
reset_timestep 0
thermo_style custom step temp pe etotal press vol lx ly lz
fix             1 all nvt temp ${T} ${T} 0.5
fix             1 all nvt temp 570 ${T} 0.5
fix             1 all nvt temp 570 570 0.5
thermo_modify flush yes

fix dsf all deform 1 x  wiggle 0.5  30000.0 y volume z volume units box
fix ps1 all ave/time 1 1 30000 c_thermo_press[1] c_thermo_press[2]  c_thermo_press[3] c_thermo_press[4]  c_thermo_press[5] c_thermo_press[6]  file  stress.${T}
fix ps1 all ave/time 1 1 30000 c_thermo_press[1] c_thermo_press[2]  c_thermo_press[3] c_thermo_press[4]  c_thermo_press[5] c_thermo_press[6]  file  stress.570
dump            1 all custom 3000000 dump.${T} id type x y z
dump            1 all custom 3000000 dump.570 id type x y z
dump_modify 1 sort id
run 30000000
Neighbor list info ...
  update every 1 steps, delay 5 steps, check yes
  max neighbors/atom: 2000, page size: 100000
  master list distance cutoff = 8.5
  ghost atom cutoff = 8.5
  binsize = 4.25, bins = 17 17 17
  1 neighbor lists, perpetual/occasional/extra = 1 0 0
  (1) pair eam/alloy/intel, perpetual
      attributes: half, newton on, intel
      pair build: half/bin/newton/intel
      stencil: half/bin/3d/newton
      bin: intel
Per MPI rank memory allocation (min/avg/max) = 10.16 | 10.29 | 10.42 Mbytes
Step Temp PotEng TotEng Press Volume Lx Ly Lz 
       0    569.43758   -143918.28   -141562.98    1731.9946    360624.46    71.178974    71.178974    71.178974 
    1000    572.30206   -143847.46    -141480.3    2587.9972    360624.46    71.180022    71.178451    71.178451 
    2000    566.78508   -143842.05   -141497.71    2617.7177    360624.46    71.181069    71.177927    71.177927 
    3000    568.00487   -143841.15   -141491.78    2777.2905    360624.46    71.182116    71.177404    71.177404 
    4000    566.33349   -143824.76    -141482.3    2889.8536    360624.46    71.183163     71.17688     71.17688 
    5000    569.08016   -143841.18   -141487.35    2276.7933    360624.46     71.18421    71.176357    71.176357 
    6000    568.07712   -143849.57   -141499.89    2513.4643    360624.46    71.185257    71.175833    71.175833 
    7000    569.53111   -143845.18   -141489.49    2619.7267    360624.46    71.186305     71.17531     71.17531 
    8000    569.41903   -143843.63    -141488.4    2635.1124    360624.46    71.187352    71.174786    71.174786 
    9000    568.94239    -143860.7   -141507.44    2123.9076    360624.46    71.188399    71.174263    71.174263 
   10000    571.89538   -143819.91   -141454.44    3026.3085    360624.46    71.189446    71.173739    71.173739 
   11000     573.4081   -143831.34   -141459.62    2742.4436    360624.46    71.190493    71.173216    71.173216 
   12000    569.11474   -143822.18   -141468.21    2814.1942    360624.46     71.19154    71.172693    71.172693 
   13000    571.12519   -143843.08   -141480.79    2275.9467    360624.46    71.192586    71.172169    71.172169 
   14000    570.05229   -143840.63   -141482.79    2738.4042    360624.46    71.193633    71.171646    71.171646 
   15000    575.57444   -143856.95   -141476.26    2494.9697    360624.46     71.19468    71.171123    71.171123 
   16000    570.81381   -143847.26   -141486.26    2502.4164    360624.46    71.195726      71.1706      71.1706 
   17000    570.50745    -143832.3   -141472.57    2488.0475    360624.46    71.196773    71.170077    71.170077 
   18000    569.49451   -143855.97   -141500.43    2427.0622    360624.46     71.19782    71.169554    71.169554 
   19000    573.55299   -143854.14   -141481.81    2019.2941    360624.46    71.198866    71.169031    71.169031 
   20000    565.69327   -143838.39   -141498.58    2501.6713    360624.46    71.199912    71.168508    71.168508 
   21000    570.70968   -143862.72   -141502.15    2263.7236    360624.46    71.200959    71.167985    71.167985 
   22000    570.75873   -143834.73   -141473.96    2939.3904    360624.46    71.202005    71.167462    71.167462 
   23000    571.25605    -143835.1   -141472.27    2646.0623    360624.46    71.203051    71.166939    71.166939 
   24000    565.88446   -143829.97   -141489.36    2537.9631    360624.46    71.204097    71.166417    71.166417 
   25000     571.0031   -143846.46   -141484.68    2252.0706    360624.46    71.205142    71.165894    71.165894 
   26000     566.7133   -143834.37   -141490.34    2241.7052    360624.46    71.206188    71.165372    71.165372 
   27000    567.65224   -143829.62    -141481.7     2464.607    360624.46    71.207234    71.164849    71.164849 
   28000    570.57056    -143840.9   -141480.91    2594.9836    360624.46    71.208279    71.164327    71.164327 
   29000      567.512   -143843.38   -141496.04    2764.6828    360624.46    71.209325    71.163804    71.163804 
   30000    571.03035   -143843.07   -141481.18     2489.931    360624.46     71.21037    71.163282    71.163282 
   31000    574.55109   -143840.38   -141463.93    2281.4862    360624.46    71.211415     71.16276     71.16276 
   32000    566.28843   -143855.62   -141513.34     2507.677    360624.46     71.21246    71.162238    71.162238 
   33000    569.26638    -143848.5   -141493.91    2262.8942    360624.46    71.213504    71.161716    71.161716 
   34000    574.05603   -143841.22   -141466.81    2652.1298    360624.46    71.214549    71.161194    71.161194 
   35000    571.15052   -143827.61   -141465.22    2927.0248    360624.46    71.215594    71.160672    71.160672 
   36000    569.46141   -143840.01    -141484.6    2711.8457    360624.46    71.216638     71.16015     71.16015 
   37000     566.6755   -143827.44   -141483.56    2975.8509    360624.46    71.217682    71.159629    71.159629 
   38000    570.69175   -143820.54   -141460.05    3006.2321    360624.46    71.218726    71.159107    71.159107 
   39000    568.56321   -143832.54   -141480.85    2730.4733    360624.46     71.21977    71.158586    71.158586 
   40000    567.93044   -143852.09   -141503.02    2294.5689    360624.46    71.220813    71.158064    71.158064 
   41000    569.85595   -143845.62   -141488.58    2356.5404    360624.46    71.221857    71.157543    71.157543 
   42000    567.24236   -143847.77   -141501.55    2236.1702    360624.46      71.2229    71.157022    71.157022 
   43000    567.03129   -143848.74   -141503.38    2315.0395    360624.46    71.223943    71.156501    71.156501 
   44000    573.18106   -143834.75   -141463.96    2849.4469    360624.46    71.224986     71.15598     71.15598 
   45000    569.99108   -143812.77   -141455.17    3085.6382    360624.46    71.226029    71.155459    71.155459 
   46000    570.75135   -143832.42   -141471.69    2971.4333    360624.46    71.227071    71.154938    71.154938 
   47000    572.01361   -143828.02   -141462.06     2653.652    360624.46    71.228113    71.154418    71.154418 
   48000    570.44563   -143837.61   -141478.14    2813.6589    360624.46    71.229155    71.153897    71.153897 
   49000    566.89567   -143824.89    -141480.1    2655.0974    360624.46    71.230197    71.153377    71.153377 
   50000    571.11616   -143828.64   -141466.39    2576.2233    360624.46    71.231239    71.152857    71.152857 
   51000    574.60443   -143832.19   -141455.51    3009.3762    360624.46     71.23228    71.152337    71.152337 
   52000    573.67752    -143820.4   -141447.56    2952.6954    360624.46    71.233321    71.151817    71.151817 
   53000    572.12231   -143853.47   -141487.06    2343.8143    360624.46    71.234362    71.151297    71.151297 
   54000    567.15067   -143823.57   -141477.72    2735.7051    360624.46    71.235403    71.150777    71.150777 
   55000    572.42509   -143820.32   -141452.66    2772.1739    360624.46    71.236443    71.150258    71.150258 
   56000    569.78002    -143814.3   -141457.57    2955.3952    360624.46    71.237483    71.149738    71.149738 
   57000    570.51322   -143859.01   -141499.26    2182.2847    360624.46    71.238523    71.149219    71.149219 
   58000    568.36322   -143828.86      -141478    2774.9802    360624.46    71.239563      71.1487      71.1487 
   59000    566.22487   -143841.19   -141499.17    2668.6331    360624.46    71.240602    71.148181    71.148181 
   60000    570.00065   -143814.66   -141457.02    2584.6018    360624.46    71.241641    71.147662    71.147662 
   61000    569.99954   -143834.46   -141476.83    2593.5293    360624.46     71.24268    71.147143    71.147143 
   62000    565.33863    -143843.2   -141504.85    2826.0899    360624.46    71.243718    71.146625    71.146625 
   63000    572.07478    -143836.4   -141470.19    2661.6568    360624.46    71.244757    71.146106    71.146106 
   64000    569.01353   -143837.72   -141484.16    2503.9686    360624.46    71.245795    71.145588    71.145588 
   65000    565.75819   -143832.16   -141492.07    2440.9803    360624.46    71.246832     71.14507     71.14507 
   66000    567.25739   -143818.17   -141471.89    3043.9915    360624.46     71.24787    71.144552    71.144552 
   67000    574.11809    -143834.8   -141460.14    2833.7121    360624.46    71.248907    71.144034    71.144034 
   68000    569.62602      -143833   -141476.92    2426.5081    360624.46    71.249943    71.143516    71.143516 
   69000    569.10613   -143822.89   -141468.95     2826.339    360624.46     71.25098    71.142999    71.142999 
   70000    567.22956   -143816.96   -141470.79    2713.8315    360624.46    71.252016    71.142482    71.142482 
   71000    575.22254   -143811.22   -141431.99    2975.4754    360624.46    71.253052    71.141965    71.141965 
   72000    571.84505   -143826.59   -141461.33    2783.1637    360624.46    71.254087    71.141448    71.141448 
   73000    574.02885   -143817.61   -141443.31    2934.1311    360624.46    71.255122    71.140931    71.140931 
   74000    567.50899   -143830.14   -141482.81    2438.4758    360624.46    71.256157    71.140414    71.140414 
   75000    568.39729   -143841.28   -141490.28    2485.8453    360624.46    71.257192    71.139898    71.139898 
   76000    569.90399   -143833.39   -141476.16    2977.5701    360624.46    71.258226    71.139382    71.139382 
   77000    570.88243   -143854.45   -141493.17    2351.1765    360624.46     71.25926    71.138866    71.138866 
   78000    572.66637   -143822.13   -141453.47    2968.3848    360624.46    71.260293     71.13835     71.13835 
   79000    571.70022   -143838.49   -141473.83    2774.2473    360624.46    71.261326    71.137834    71.137834 
   80000    569.06475   -143813.27    -141459.5    2880.6149    360624.46    71.262359    71.137319    71.137319 
   81000    573.41832   -143830.28   -141458.51    2448.4502    360624.46    71.263391    71.136804    71.136804 
   82000    567.96369    -143841.8    -141492.6    2700.1908    360624.46    71.264423    71.136289    71.136289 
   83000    572.99292   -143823.53   -141453.52    2915.0926    360624.46    71.265455    71.135774    71.135774 
   84000    569.12242   -143812.11   -141458.11    3092.5063    360624.46    71.266486    71.135259    71.135259 
   85000    566.95172    -143821.2   -141476.18    2867.7739    360624.46    71.267517    71.134745    71.134745 
   86000    575.55333   -143811.19   -141430.59    3021.1321    360624.46    71.268547     71.13423     71.13423 
   87000     570.0164   -143816.11   -141458.41    3095.6635    360624.46    71.269577    71.133716    71.133716 
   88000    571.38911   -143832.46   -141469.09    2439.0112    360624.46    71.270607    71.133202    71.133202 
   89000     568.1299   -143843.53   -141493.63    2906.6517    360624.46    71.271636    71.132689    71.132689 
   90000    570.95008   -143818.38   -141456.82    3021.8031    360624.46    71.272665    71.132175    71.132175 
   91000    566.10051   -143812.73   -141471.23    3194.4891    360624.46    71.273694    71.131662    71.131662 
   92000    571.21972   -143846.43   -141483.75    2302.7807    360624.46    71.274722    71.131149    71.131149 
   93000    565.30745   -143823.73   -141485.51    2776.0235    360624.46    71.275749    71.130636    71.130636 
   94000    567.46923   -143829.66    -141482.5    2645.9419    360624.46    71.276776    71.130124    71.130124 
   95000    567.79405   -143834.53   -141486.02    2835.3569    360624.46    71.277803    71.129612    71.129612 
   96000    570.08161   -143835.16   -141477.19    2616.9053    360624.46    71.278829    71.129099    71.129099 
   97000    571.97767   -143829.72   -141463.91    2882.9674    360624.46    71.279855    71.128588    71.128588 
   98000    566.66798   -143853.27   -141509.42     2120.929    360624.46    71.280881    71.128076    71.128076 
   99000    571.57052   -143828.71   -141464.58    2752.3879    360624.46    71.281906    71.127565    71.127565 
  100000    570.06388   -143804.63   -141446.73    3068.1862    360624.46     71.28293    71.127053    71.127053 
  101000    567.85242   -143821.12   -141472.37    2668.9338    360624.46    71.283954    71.126542    71.126542 
  102000    570.32897    -143849.3    -141490.3    2493.6556    360624.46    71.284978    71.126032    71.126032 
  103000    568.17632   -143828.29    -141478.2    2451.3937    360624.46    71.286001    71.125521    71.125521 
  104000    568.59377   -143816.97   -141465.15    2944.0696    360624.46    71.287024    71.125011    71.125011 
  105000    571.05165   -143839.21   -141477.23    2508.9754    360624.46    71.288046    71.124501    71.124501 
  106000    564.24027   -143812.19   -141478.38    2692.2032    360624.46    71.289068    71.123992    71.123992 
  107000    571.51636   -143832.47   -141468.56    2415.0797    360624.46    71.290089    71.123482    71.123482 
  108000    565.11332   -143847.83   -141510.41    2062.7815    360624.46     71.29111    71.122973    71.122973 
  109000    570.95559   -143835.07   -141473.49    2656.0474    360624.46     71.29213    71.122464    71.122464 
  110000    573.35984   -143820.47   -141448.95     2630.428    360624.46     71.29315    71.121955    71.121955 
  111000    570.39686   -143831.81   -141472.54     2325.969    360624.46    71.294169    71.121447    71.121447 
  112000    566.03638   -143836.52   -141495.29    2341.9997    360624.46    71.295188    71.120939    71.120939 
  113000    572.90695   -143833.72   -141464.06    2440.7573    360624.46    71.296206    71.120431    71.120431 
  114000     571.3106   -143812.67   -141449.62    2761.0106    360624.46    71.297224    71.119923    71.119923 
  115000     570.1766   -143834.79   -141476.43    2403.6578    360624.46    71.298241    71.119416    71.119416 
  116000    570.03294   -143821.04   -141463.28     2871.883    360624.46    71.299258    71.118909    71.118909 
  117000    573.24176   -143826.21   -141455.17     2787.023    360624.46    71.300274    71.118402    71.118402 
  118000    568.22628   -143832.63   -141482.34    2634.9069    360624.46     71.30129    71.117896    71.117896 
  119000    566.51018   -143816.77   -141473.57    2803.9624    360624.46    71.302305    71.117389    71.117389 
  120000    572.11308   -143829.18   -141462.81    2547.7186    360624.46    71.303319    71.116883    71.116883 
  121000    571.22237   -143822.17   -141459.48    2731.3708    360624.46    71.304333    71.116378    71.116378 
  122000    570.55969   -143830.62   -141470.67    2176.8632    360624.46    71.305347    71.115872    71.115872 
  123000    567.30301    -143832.1   -141485.63    2681.4933    360624.46     71.30636    71.115367    71.115367 
  124000    567.98133   -143839.51   -141490.23    2385.3983    360624.46    71.307372    71.114862    71.114862 
  125000    575.14641   -143837.39   -141458.47    2588.0603    360624.46    71.308384    71.114358    71.114358 
  126000    572.44507   -143818.73   -141450.99    2948.8397    360624.46    71.309395    71.113854    71.113854 
  127000    568.76424   -143810.62    -141458.1    2806.4343    360624.46    71.310406     71.11335     71.11335 
  128000    567.86703   -143825.54   -141476.73    2750.7909    360624.46    71.311416    71.112846    71.112846 
  129000    569.71552   -143831.88   -141475.42    2468.6579    360624.46    71.312425    71.112343    71.112343 
  130000    569.41263   -143824.87   -141469.67    2513.1651    360624.46    71.313434     71.11184     71.11184 
  131000    571.93959   -143844.53   -141478.88    2257.6317    360624.46    71.314443    71.111337    71.111337 
  132000    569.27407   -143820.12   -141465.49    2714.8142    360624.46     71.31545    71.110834    71.110834 
  133000    570.28863   -143812.26   -141453.44    2779.1989    360624.46    71.316458    71.110332    71.110332 
  134000     569.2205   -143836.22   -141481.81    2549.5164    360624.46    71.317464    71.109831    71.109831 
  135000    568.93505   -143843.36   -141490.14    2427.3883    360624.46     71.31847    71.109329    71.109329 
  136000    567.75103   -143839.35   -141491.02    2316.7138    360624.46    71.319475    71.108828    71.108828 
  137000    564.89402   -143845.58   -141509.07    2376.5115    360624.46     71.32048    71.108327    71.108327 
  138000    568.69782   -143837.16   -141484.91    2400.7885    360624.46    71.321484    71.107826    71.107826 
  139000    569.37839   -143837.13   -141482.07    2640.6751    360624.46    71.322488    71.107326    71.107326 
  140000    567.65334   -143831.22   -141483.29    2587.8996    360624.46     71.32349    71.106826    71.106826 
  141000      566.011   -143824.38   -141483.25     2878.909    360624.46    71.324493    71.106327    71.106327 
  142000    576.21395   -143834.02   -141450.68    3024.5367    360624.46    71.325494    71.105828    71.105828 
  143000    571.53796   -143828.84   -141464.85    2572.0533    360624.46    71.326495    71.105329    71.105329 
  144000    566.70864   -143811.43   -141467.42    2948.2818    360624.46    71.327495     71.10483     71.10483 
  145000    569.95494   -143830.11   -141472.66    2584.6741    360624.46    71.328495    71.104332    71.104332 
  146000    566.99122   -143831.81   -141486.62    2644.9355    360624.46    71.329494    71.103834    71.103834 
  147000    567.02132   -143839.94   -141494.63    2587.1497    360624.46    71.330492    71.103336    71.103336 
  148000    567.50671   -143821.95   -141474.63    2876.6196    360624.46     71.33149    71.102839    71.102839 
  149000    573.22905   -143822.85   -141451.86    2913.5153    360624.46    71.332487    71.102342    71.102342 
  150000     570.5701   -143815.31   -141455.32    3431.6532    360624.46    71.333483    71.101846    71.101846 
  151000    568.29094   -143843.46   -141492.89    2548.3849    360624.46    71.334479     71.10135     71.10135 
  152000    568.29024   -143840.83   -141490.27    2538.1003    360624.46    71.335473    71.100854    71.100854 
  153000     571.1964    -143831.5   -141468.92    2799.0768    360624.46    71.336468    71.100358    71.100358 
  154000    564.59361   -143828.91   -141493.64    2871.4546    360624.46    71.337461    71.099863    71.099863 
  155000    573.78339   -143807.17   -141433.89    3558.6252    360624.46    71.338454    71.099368    71.099368 
  156000    567.15271   -143835.64   -141489.79    2774.6567    360624.46    71.339446    71.098874    71.098874 
  157000    568.30475   -143841.56   -141490.94    2499.2012    360624.46    71.340438     71.09838     71.09838 
  158000    569.92025   -143839.69   -141482.39    2429.4805    360624.46    71.341428    71.097886    71.097886 
  159000    569.19174   -143831.33   -141477.04    2798.7876    360624.46    71.342418    71.097393    71.097393 
  160000    568.20297   -143828.54   -141478.35    2941.0564    360624.46    71.343408      71.0969      71.0969 
  161000    567.81908   -143812.59   -141463.98    3134.7522    360624.46    71.344396    71.096407    71.096407 
  162000    569.12179   -143831.26   -141477.26    2888.0031    360624.46    71.345384    71.095915    71.095915 
  163000    571.48721   -143842.51   -141478.72    2479.3257    360624.46    71.346371    71.095423    71.095423 
  164000    569.88171   -143828.14      -141471    2838.5961    360624.46    71.347358    71.094932    71.094932 
  165000    575.53665   -143826.52   -141445.99    2654.0832    360624.46    71.348343    71.094441    71.094441 
  166000    579.13172   -143829.92   -141434.52    2538.5987    360624.46    71.349328     71.09395     71.09395 
  167000     573.8625   -143835.89   -141462.28     2547.955    360624.46    71.350312     71.09346     71.09346 
  168000    567.83114   -143825.32   -141476.65    3129.1853    360624.46    71.351296     71.09297     71.09297 
  169000     569.6408   -143847.05    -141490.9    2299.7865    360624.46    71.352279     71.09248     71.09248 
  170000    565.88622   -143841.14   -141500.53    2028.6455    360624.46     71.35326    71.091991    71.091991 
  171000    570.87716   -143832.31   -141471.05    2328.7882    360624.46    71.354242    71.091502    71.091502 
  172000    573.68882   -143818.41   -141445.52    2750.9626    360624.46    71.355222    71.091014    71.091014 
  173000    570.85768    -143822.6   -141461.42    2829.8416    360624.46    71.356202    71.090526    71.090526 
  174000    574.12815   -143812.08   -141437.37    2702.6436    360624.46     71.35718    71.090038    71.090038 
  175000    565.45523   -143830.43    -141491.6     2780.139    360624.46    71.358158    71.089551    71.089551 
  176000    569.18085   -143841.16   -141486.92    2532.8456    360624.46    71.359136    71.089064    71.089064 
  177000    566.46071   -143812.26   -141469.27    3170.9213    360624.46    71.360112    71.088578    71.088578 
  178000       569.75   -143827.19   -141470.59    2925.5305    360624.46    71.361088    71.088092    71.088092 
  179000    571.47315    -143832.5   -141468.78    2677.0822    360624.46    71.362063    71.087607    71.087607 
  180000    564.98668   -143810.05   -141473.15    2833.3231    360624.46    71.363037    71.087121    71.087121 
  181000    566.36687   -143830.56   -141487.96    2730.4948    360624.46     71.36401    71.086637    71.086637 
  182000    572.52621   -143797.84   -141429.76    3222.0223    360624.46    71.364982    71.086152    71.086152 
  183000     569.3343   -143831.43   -141476.55     2735.008    360624.46    71.365954    71.085668    71.085668 
  184000    567.01064   -143810.56    -141465.3    3104.6157    360624.46    71.366925    71.085185    71.085185 
  185000    569.63378   -143827.47   -141471.35    2913.1507    360624.46    71.367895    71.084702    71.084702 
  186000    573.79028   -143849.92   -141476.61    2489.1932    360624.46    71.368864    71.084219    71.084219 
  187000    569.56692   -143835.82   -141479.98    2889.0446    360624.46    71.369832    71.083737    71.083737 
  188000    574.45937   -143836.56   -141460.48    2444.0306    360624.46      71.3708    71.083255    71.083255 
  189000    569.01048   -143811.47   -141457.93    3054.1262    360624.46    71.371766    71.082774    71.082774 
  190000    573.40345   -143847.97   -141476.26     2273.103    360624.46    71.372732    71.082293    71.082293 
  191000    570.28125   -143820.36   -141461.56    3078.8163    360624.46    71.373697    71.081812    71.081812 
  192000    571.92235    -143833.6   -141468.02    2565.7659    360624.46    71.374661    71.081332    71.081332 
  193000    567.30945   -143804.57   -141458.07    3441.8664    360624.46    71.375625    71.080853    71.080853 
  194000    569.59275   -143823.28   -141467.33    3199.6922    360624.46    71.376587    71.080373    71.080373 
  195000    571.92542   -143813.02   -141447.43    3012.2748    360624.46    71.377548    71.079895    71.079895 
  196000    568.39543   -143810.97   -141459.97    3113.0128    360624.46    71.378509    71.079416    71.079416 
  197000    570.04737    -143846.5   -141488.67    2153.0337    360624.46    71.379469    71.078939    71.078939 
  198000     566.7637   -143837.42   -141493.17    2598.2084    360624.46    71.380428    71.078461    71.078461 
  199000    574.75283   -143843.24   -141465.95    2601.0229    360624.46    71.381386    71.077984    71.077984 
  200000    567.50445   -143830.67   -141483.36    2422.0161    360624.46    71.382343    71.077508    71.077508 
  201000    572.48826   -143830.88   -141462.96    2814.5308    360624.46    71.383299    71.077032    71.077032 
  202000    571.94791   -143822.57   -141456.88    2583.6151    360624.46    71.384254    71.076556    71.076556 
  203000    571.51158    -143815.7   -141451.81    3010.1341    360624.46    71.385209    71.076081    71.076081 
  204000    571.25886   -143832.78   -141469.94    2628.2588    360624.46    71.386162    71.075606    71.075606 
  205000    571.97969   -143838.43   -141472.61    2406.0875    360624.46    71.387115    71.075132    71.075132 
  206000    568.07824   -143837.99    -141488.3    2018.1951    360624.46    71.388067    71.074658    71.074658 
  207000    569.63817   -143846.13   -141489.99    1954.7098    360624.46    71.389017    71.074185    71.074185 
  208000     570.5973   -143829.46   -141469.36    2632.4604    360624.46    71.389967    71.073712    71.073712 
  209000    573.85752   -143836.31   -141462.73    2763.4367    360624.46    71.390916     71.07324     71.07324 
  210000    567.69182   -143823.73   -141475.64    2638.4554    360624.46    71.391864    71.072768    71.072768 
  211000    568.48589   -143823.72   -141472.35    2496.0809    360624.46    71.392811    71.072296    71.072296 
  212000    569.74308   -143830.54   -141473.97    2440.9235    360624.46    71.393757    71.071825    71.071825 
  213000    570.22483    -143829.1   -141470.54    2901.4352    360624.46    71.394702    71.071355    71.071355 
  214000     570.4297   -143809.15   -141449.74    2810.7205    360624.46    71.395647    71.070885    71.070885 
  215000    571.71785   -143827.34    -141462.6    2858.7386    360624.46     71.39659    71.070416    71.070416 
  216000    568.48768   -143860.43   -141509.06    2095.7932    360624.46    71.397532    71.069947    71.069947 
  217000     568.2375   -143832.44    -141482.1    2478.6941    360624.46    71.398474    71.069478    71.069478 
  218000    568.96998   -143829.24   -141475.87    2797.3171    360624.46    71.399414     71.06901     71.06901 
  219000    570.04359   -143817.65   -141459.84    2679.7925    360624.46    71.400354    71.068542    71.068542 
  220000    566.94693    -143821.4    -141476.4    2814.6713    360624.46    71.401292    71.068075    71.068075 
  221000    568.64313   -143818.21   -141466.19    2603.2137    360624.46     71.40223    71.067609    71.067609 
  222000    572.44978   -143840.88   -141473.12    2095.0028    360624.46    71.403166    71.067143    71.067143 
  223000    571.14719   -143839.12   -141476.75    2507.9675    360624.46    71.404102    71.066677    71.066677 
  224000    569.96643   -143828.25   -141470.76    2725.0577    360624.46    71.405036    71.066212    71.066212 
  225000    568.21445   -143816.31   -141466.06    2993.2095    360624.46     71.40597    71.065748    71.065748 
  226000    565.26753    -143816.7   -141478.64    2501.1676    360624.46    71.406902    71.065284    71.065284 
  227000    571.21052   -143846.37   -141483.73    2255.3211    360624.46    71.407834     71.06482     71.06482 
  228000    572.28372   -143810.72   -141443.64    2549.2225    360624.46    71.408764    71.064357    71.064357 
  229000    568.55355   -143833.49   -141481.84    2408.4917    360624.46    71.409694    71.063894    71.063894 
  230000    572.02279   -143807.62   -141441.62    3231.9446    360624.46    71.410622    71.063432    71.063432 
  231000    572.78498   -143828.78   -141459.63    2537.4845    360624.46     71.41155    71.062971    71.062971 
  232000    567.01241    -143815.4   -141470.13    2763.3455    360624.46    71.412476     71.06251     71.06251 
  233000    576.43009   -143859.69   -141475.47    1948.1225    360624.46    71.413402    71.062049    71.062049 
  234000    571.11924   -143849.32   -141487.06    2328.4397    360624.46    71.414326    71.061589    71.061589 
  235000    571.10901   -143832.92    -141470.7    2924.6303    360624.46     71.41525     71.06113     71.06113 
  236000    567.48262   -143823.62    -141476.4    2590.5823    360624.46    71.416172    71.060671    71.060671 
  237000    567.98277   -143803.76   -141454.47    3389.1952    360624.46    71.417094    71.060213    71.060213 
  238000    568.69937   -143835.35    -141483.1    2320.5273    360624.46    71.418014    71.059755    71.059755 
  239000    569.09158   -143835.29   -141481.41    2216.8922    360624.46    71.418933    71.059298    71.059298 
  240000    567.62134   -143830.98   -141483.19    2647.4936    360624.46    71.419851    71.058841    71.058841 
  241000    572.45186   -143830.52   -141462.75    2290.2697    360624.46    71.420768    71.058385    71.058385 
  242000    568.43356   -143822.32   -141471.16    2337.4336    360624.46    71.421685    71.057929    71.057929 
  243000    569.31006   -143828.92   -141474.14    2416.0647    360624.46      71.4226    71.057474    71.057474 
  244000    566.87283   -143827.87   -141483.17    2091.4337    360624.46    71.423513    71.057019    71.057019 
  245000    569.71121    -143836.6   -141480.17     2401.377    360624.46    71.424426    71.056565    71.056565 
  246000    573.68323   -143836.29   -141463.43    2737.2329    360624.46    71.425338    71.056111    71.056111 
  247000    569.80919   -143832.69   -141475.84    2471.8248    360624.46    71.426249    71.055658    71.055658 
  248000    570.43859   -143826.38   -141466.94    2659.7275    360624.46    71.427158    71.055206    71.055206 
  249000    568.25182   -143827.81   -141477.41    2574.6986    360624.46    71.428067    71.054754    71.054754 
  250000    569.49254    -143821.9   -141466.37    2667.1789    360624.46    71.428974    71.054303    71.054303 
  251000    569.26622   -143851.76   -141497.16    2021.1471    360624.46    71.429881    71.053852    71.053852 
  252000    566.20238   -143842.29   -141500.36    2078.6191    360624.46    71.430786    71.053402    71.053402 
  253000    571.23215   -143798.71   -141435.98    3214.8928    360624.46     71.43169    71.052952    71.052952 
  254000    574.43042   -143819.74   -141443.78    2986.9177    360624.46    71.432593    71.052503    71.052503 
  255000    572.46463   -143851.94   -141484.11    2087.8232    360624.46    71.433495    71.052054    71.052054 
  256000    575.26947   -143841.65   -141462.22    2476.8416    360624.46    71.434396    71.051606    71.051606 
  257000    569.56561    -143833.7   -141477.87    2589.1402    360624.46    71.435296    71.051159    71.051159 
  258000      572.414   -143825.83   -141458.21    2801.9916    360624.46    71.436194    71.050712    71.050712 
  259000     571.8085   -143826.16   -141461.05    2753.3389    360624.46    71.437092    71.050266    71.050266 
  260000    573.23408   -143831.87   -141460.86    2464.0783    360624.46    71.437988     71.04982     71.04982 
  261000    572.45995   -143819.22   -141451.41    2745.1278    360624.46    71.438883    71.049375    71.049375 
  262000    570.06166   -143815.87   -141457.99    2825.6788    360624.46    71.439777     71.04893     71.04893 
  263000    571.64578   -143818.73   -141454.29    2738.0471    360624.46     71.44067    71.048486    71.048486 
  264000    572.31468   -143856.47   -141489.27    2092.3077    360624.46    71.441562    71.048043    71.048043 
  265000    569.88676   -143827.62   -141470.46    2847.5663    360624.46    71.442452      71.0476      71.0476 
  266000    571.43982    -143834.1   -141470.51    2629.2345    360624.46    71.443342    71.047158    71.047158 
  267000    569.67225   -143820.36   -141464.09    3023.8457    360624.46     71.44423    71.046716    71.046716 
  268000    566.70723   -143840.26   -141496.25    2024.6832    360624.46    71.445117    71.046275    71.046275 
  269000    569.78474    -143833.1   -141476.36    2303.5189    360624.46    71.446003    71.045835    71.045835 
  270000    572.16022   -143816.84   -141450.28    2553.2632    360624.46    71.446888    71.045395    71.045395 
  271000    573.72296   -143818.14   -141445.11    2540.5212    360624.46    71.447771    71.044955    71.044955 
  272000    569.24314   -143828.45   -141473.95    2500.9375    360624.46    71.448654    71.044517    71.044517 
  273000    573.85689   -143796.09    -141422.5    3264.1049    360624.46    71.449535    71.044079    71.044079 
  274000    572.88605   -143830.51   -141460.94     2414.093    360624.46    71.450415    71.043641    71.043641 
  275000    570.48658   -143815.05    -141455.4    2679.6618    360624.46    71.451294    71.043204    71.043204 
  276000     566.7978   -143825.11   -141480.72    2633.0253    360624.46    71.452172    71.042768    71.042768 
  277000    569.81329   -143823.31   -141466.45    2588.4765    360624.46    71.453048    71.042332    71.042332 
  278000    568.84938   -143828.46   -141475.59    2707.9076    360624.46    71.453923    71.041897    71.041897 
  279000    568.52945   -143823.85    -141472.3     2280.701    360624.46    71.454797    71.041463    71.041463 
  280000    567.14697   -143818.32   -141472.48    2911.8559    360624.46     71.45567    71.041029    71.041029 
  281000    570.24097   -143807.17   -141448.54    3059.2087    360624.46    71.456542    71.040595    71.040595 
  282000    563.87512   -143799.39    -141467.1    3106.7759    360624.46    71.457412    71.040163    71.040163 
  283000    570.73151   -143807.71   -141447.05    2971.2669    360624.46    71.458281    71.039731    71.039731 
  284000    572.04062   -143819.49   -141453.42    2910.4099    360624.46    71.459149    71.039299    71.039299 
  285000    574.15087   -143824.73   -141449.93    3066.5321    360624.46    71.460016    71.038868    71.038868 
  286000    568.97858   -143811.75   -141458.34    2773.3261    360624.46    71.460882    71.038438    71.038438 
  287000    569.85587   -143804.69   -141447.65    3200.7091    360624.46    71.461746    71.038009    71.038009 
  288000    570.92428   -143844.76    -141483.3    2193.4934    360624.46    71.462609     71.03758     71.03758 
  289000    569.74562   -143832.78    -141476.2    2711.6463    360624.46    71.463471    71.037151    71.037151 
  290000    571.87811   -143842.38   -141476.98     2279.943    360624.46    71.464331    71.036724    71.036724 
  291000    573.71279   -143820.12   -141447.13    2955.9462    360624.46    71.465191    71.036297    71.036297 
  292000    570.88392   -143838.86   -141477.57    2906.8515    360624.46    71.466049     71.03587     71.03587 
  293000     574.2213   -143835.65   -141460.56    2660.0371    360624.46    71.466905    71.035444    71.035444 
  294000    570.91008   -143824.23   -141462.83    2366.4785    360624.46    71.467761    71.035019    71.035019 
  295000    571.21489   -143843.24   -141480.58    2568.9583    360624.46    71.468615    71.034595    71.034595 
  296000    571.60805   -143800.52   -141436.24    3361.3505    360624.46    71.469468    71.034171    71.034171 
  297000    571.04124   -143832.74    -141470.8     2542.726    360624.46     71.47032    71.033748    71.033748 
  298000    569.61273   -143813.52   -141457.49    3181.0536    360624.46     71.47117    71.033325    71.033325 
  299000    572.23538   -143807.24   -141440.36    2973.1849    360624.46    71.472019    71.032903    71.032903 
  300000    570.97452   -143826.02   -141464.36    2703.8444    360624.46    71.472867    71.032482    71.032482 
  301000    572.22346   -143839.65   -141472.82    2606.5888    360624.46    71.473714    71.032061    71.032061 
  302000    569.00675   -143807.67   -141454.15    3143.6081    360624.46    71.474559    71.031641    71.031641 
  303000     567.1484   -143815.81   -141469.98    2690.6414    360624.46    71.475403    71.031222    71.031222 
  304000    572.29749   -143838.85   -141471.72    2318.7746    360624.46    71.476246    71.030803    71.030803 
  305000    565.97581   -143828.85   -141487.86    2725.9358    360624.46    71.477087    71.030385    71.030385 
  306000    573.21171   -143815.93   -141445.01    2953.3125    360624.46    71.477927    71.029967    71.029967 
  307000    572.87213   -143829.01   -141459.49    2747.1296    360624.46    71.478766    71.029551    71.029551 
  308000    567.80898   -143841.45   -141492.88    2173.6379    360624.46    71.479603    71.029135    71.029135 
  309000    564.89486   -143829.36   -141492.85     2788.435    360624.46    71.480439    71.028719    71.028719 
  310000    568.55699   -143834.61   -141482.95    2687.1627    360624.46    71.481274    71.028304    71.028304 
  311000     569.6165   -143815.31   -141459.26    3038.0769    360624.46    71.482107     71.02789     71.02789 
  312000    567.22986   -143815.44   -141469.26    2593.8777    360624.46     71.48294    71.027477    71.027477 
  313000     573.3487   -143838.43   -141466.95    2444.3134    360624.46     71.48377    71.027064    71.027064 
  314000    570.26265   -143827.94   -141469.22    2937.8531    360624.46      71.4846    71.026652    71.026652 
  315000    567.44917   -143842.47   -141495.39    2851.2216    360624.46    71.485428    71.026241    71.026241 
  316000     570.7266   -143826.68   -141466.04    2581.6663    360624.46    71.486255     71.02583     71.02583 
  317000    571.62752   -143824.85   -141460.49    2682.3455    360624.46     71.48708     71.02542     71.02542 
  318000    571.74683   -143827.82   -141462.96    2917.1014    360624.46    71.487904    71.025011    71.025011 
  319000    568.48097   -143822.14   -141470.79    2910.3301    360624.46    71.488727    71.024602    71.024602 
  320000    570.93758   -143839.52   -141478.01    2317.2064    360624.46    71.489548    71.024194    71.024194 
  321000    569.39979   -143819.09   -141463.94    2848.5543    360624.46    71.490368    71.023787    71.023787 
  322000    569.69156   -143826.34   -141469.99    2963.6681    360624.46    71.491187     71.02338     71.02338 
  323000    570.43259   -143824.29   -141464.87    3023.1377    360624.46    71.492004    71.022974    71.022974 
  324000    571.23086   -143845.08   -141482.36    2307.9306    360624.46     71.49282    71.022569    71.022569 
  325000    574.88001   -143819.36   -141441.54    2715.3326    360624.46    71.493635    71.022164    71.022164 
  326000    571.81895   -143815.35    -141450.2    2655.4263    360624.46    71.494448     71.02176     71.02176 
  327000    566.75114    -143818.7   -141474.51    2982.1863    360624.46     71.49526    71.021357    71.021357 
  328000    570.69931   -143823.43   -141462.91    2586.1145    360624.46     71.49607    71.020955    71.020955 
  329000    575.22427   -143853.97   -141474.73    2301.0035    360624.46    71.496879    71.020553    71.020553 
  330000    571.17393   -143844.22   -141481.73    2596.1785    360624.46    71.497686    71.020152    71.020152 
  331000    573.29801   -143851.86   -141480.59     2266.066    360624.46    71.498493    71.019751    71.019751 
  332000     566.4742   -143816.46   -141473.41    2584.9919    360624.46    71.499297    71.019352    71.019352 
  333000    570.47056   -143827.96   -141468.38    2719.9984    360624.46    71.500101    71.018953    71.018953 
  334000    572.54078   -143826.34    -141458.2    2550.3563    360624.46    71.500903    71.018554    71.018554 
  335000    566.87772   -143812.24   -141467.53    3255.7713    360624.46    71.501703    71.018157    71.018157 
  336000    567.58917   -143827.44   -141479.78     2466.418    360624.46    71.502502     71.01776     71.01776 
  337000    570.38144   -143839.07   -141479.86    2682.3143    360624.46      71.5033    71.017364    71.017364 
  338000    571.95542   -143801.91   -141436.19    3124.7564    360624.46    71.504096    71.016968    71.016968 
  339000    572.00368   -143813.01   -141447.09    2935.0862    360624.46    71.504891    71.016574    71.016574 
  340000      568.275    -143841.9    -141491.4    2611.8949    360624.46    71.505685     71.01618     71.01618 
  341000    569.47377   -143845.93   -141490.47    2067.8397    360624.46    71.506477    71.015786    71.015786 
  342000    572.35418   -143813.03   -141445.66    2831.8231    360624.46    71.507267    71.015394    71.015394 
  343000    571.12061   -143829.35   -141467.09    2799.6941    360624.46    71.508056    71.015002    71.015002 
  344000    566.38601    -143814.7   -141472.02    2933.2953    360624.46    71.508844    71.014611    71.014611 
  345000    573.37222   -143818.88    -141447.3    3158.6551    360624.46     71.50963     71.01422     71.01422 
  346000    568.98253   -143848.47   -141495.05    2445.0771    360624.46    71.510415    71.013831    71.013831 
  347000    569.64025   -143824.51   -141468.37    2899.2415    360624.46    71.511199    71.013442    71.013442 
  348000    570.53171   -143821.46   -141461.63    3078.0377    360624.46     71.51198    71.013053    71.013053 
  349000    572.74978   -143809.13   -141440.13      3115.08    360624.46    71.512761    71.012666    71.012666 
  350000     574.2919   -143802.25   -141426.86    3289.6397    360624.46     71.51354    71.012279    71.012279 
  351000     570.5781   -143829.39   -141469.36    2624.2857    360624.46    71.514317    71.011893    71.011893 
  352000    570.46608   -143821.39   -141461.83    2916.3273    360624.46    71.515093    71.011508    71.011508 
  353000    565.10004   -143821.75   -141484.38     2745.331    360624.46    71.515868    71.011123    71.011123 
  354000    571.41991   -143819.49   -141455.99    2965.8188    360624.46    71.516641     71.01074     71.01074 
  355000    570.27788   -143826.29   -141467.51    3064.3131    360624.46    71.517412    71.010357    71.010357 
  356000    570.94368   -143837.47   -141475.94    2093.0873    360624.46    71.518183    71.009974    71.009974 
  357000    567.65646   -143816.72   -141468.78    2482.1926    360624.46    71.518951    71.009593    71.009593 
  358000    569.91651   -143846.31   -141489.02    2459.4008    360624.46    71.519718    71.009212    71.009212 
  359000    568.18722   -143844.41   -141494.27    2328.7779    360624.46    71.520484    71.008832    71.008832 
  360000      570.313   -143802.55   -141443.62    3570.5212    360624.46    71.521248    71.008452    71.008452 
  361000    569.04776   -143818.39   -141464.69    3074.1449    360624.46    71.522011    71.008074    71.008074 
  362000    569.32478    -143808.4   -141453.56    3055.5279    360624.46    71.522772    71.007696    71.007696 
  363000    572.33573   -143836.32   -141469.03    2390.1691    360624.46    71.523531    71.007319    71.007319 
  364000    571.72509   -143833.73   -141468.96    2669.4681    360624.46    71.524289    71.006943    71.006943 
  365000    564.69627   -143843.77   -141508.08    2385.5884    360624.46    71.525046    71.006567    71.006567 
  366000    572.97726   -143838.65   -141468.71    2659.9229    360624.46    71.525801    71.006192    71.006192 
  367000     571.2404   -143825.78   -141463.01    2692.6162    360624.46    71.526555    71.005818    71.005818 
  368000     573.5469   -143816.72   -141444.41    2824.8378    360624.46    71.527307    71.005445    71.005445 
  369000    567.13154   -143828.53   -141482.76     2700.219    360624.46    71.528057    71.005072    71.005072 
  370000    566.89979   -143828.74   -141483.93    2718.3538    360624.46    71.528806    71.004701    71.004701 
  371000    574.46461   -143816.92   -141440.82    2982.9532    360624.46    71.529554     71.00433     71.00433 
  372000    565.74473   -143822.95   -141482.92     2847.662    360624.46    71.530299     71.00396     71.00396 
  373000    569.40878   -143836.24   -141481.05    2527.5749    360624.46    71.531044     71.00359     71.00359 
  374000    567.21042      -143810   -141463.91    2821.3906    360624.46    71.531787    71.003221    71.003221 
  375000    568.19523   -143835.68   -141485.51    2361.8012    360624.46    71.532528    71.002854    71.002854 
  376000    570.85401   -143834.11   -141472.95    2249.7197    360624.46    71.533268    71.002486    71.002486 
  377000    574.25288   -143824.82    -141449.6    2945.7997    360624.46    71.534006     71.00212     71.00212 
  378000    570.38814   -143846.78   -141487.54    2223.5844    360624.46    71.534742    71.001755    71.001755 
  379000    571.53165   -143811.15   -141447.18    3011.7242    360624.46    71.535477     71.00139     71.00139 
  380000    569.51527   -143815.29   -141459.66    2829.9488    360624.46    71.536211    71.001026    71.001026 
  381000    567.02173   -143819.21    -141473.9    2483.4843    360624.46    71.536943    71.000663    71.000663 
  382000      568.927   -143831.59    -141478.4     2176.355    360624.46    71.537673      71.0003      71.0003 
  383000    569.29895   -143811.77   -141457.04    2915.1182    360624.46    71.538402    70.999939    70.999939 
  384000    571.17172   -143822.05   -141459.57    3028.3008    360624.46    71.539129    70.999578    70.999578 
  385000    569.82473   -143826.51   -141469.61     2539.253    360624.46    71.539855    70.999218    70.999218 
  386000    568.50627   -143822.71   -141471.25    2584.7196    360624.46    71.540579    70.998858    70.998858 
  387000    568.22709   -143823.23   -141472.93    2754.9414    360624.46    71.541301      70.9985      70.9985 
  388000    564.71223    -143815.7   -141479.94    2756.6096    360624.46    71.542022    70.998142    70.998142 
  389000    570.48772   -143823.37   -141463.72    3048.9729    360624.46    71.542741    70.997785    70.997785 
  390000    571.60102   -143833.38   -141469.13    2801.8603    360624.46    71.543459    70.997429    70.997429 
  391000    570.24136   -143813.57   -141454.94     2860.112    360624.46    71.544175    70.997074    70.997074 
  392000    567.38656   -143794.17   -141447.35    2994.3408    360624.46    71.544889    70.996719    70.996719 
  393000    568.22031   -143830.74   -141480.47    2259.4952    360624.46    71.545602    70.996366    70.996366 
  394000    570.24561   -143850.83   -141492.18    2062.7955    360624.46    71.546313    70.996013    70.996013 
  395000     571.0645   -143830.42   -141468.38    2352.4195    360624.46    71.547023    70.995661    70.995661 
  396000    569.97265   -143834.67   -141477.15    2943.7635    360624.46    71.547731     70.99531     70.99531 
  397000    567.53634   -143835.17   -141487.73    2492.6295    360624.46    71.548437    70.994959    70.994959 
  398000    569.20882   -143826.53   -141472.17     2856.695    360624.46    71.549142    70.994609    70.994609 
  399000    570.11105   -143816.54   -141458.45    2716.4742    360624.46    71.549845    70.994261    70.994261 
  400000    570.33831   -143812.06   -141453.03    3143.7834    360624.46    71.550547    70.993912    70.993912 
  401000    567.72648   -143818.97   -141470.74    2635.5272    360624.46    71.551247    70.993565    70.993565 
  402000    560.95206   -143801.62   -141481.41    3175.5705    360624.46    71.551945    70.993219    70.993219 
  403000     570.2825   -143824.61   -141465.81    2665.1111    360624.46    71.552642    70.992873    70.992873 
  404000    566.95319   -143825.28   -141480.25    2624.5538    360624.46    71.553337    70.992528    70.992528 
  405000    560.69521   -143819.83   -141500.68    2748.5597    360624.46     71.55403    70.992185    70.992185 
  406000    569.53083   -143847.03   -141491.34    2465.1177    360624.46    71.554722    70.991841    70.991841 
  407000    570.91953   -143842.16   -141480.73    2563.8335    360624.46    71.555412    70.991499    70.991499 
  408000    562.84842   -143830.42   -141502.37    2780.9637    360624.46      71.5561    70.991158    70.991158 
  409000    570.95559   -143828.43   -141466.84    2480.0928    360624.46    71.556787    70.990817    70.990817 
  410000    570.59029   -143836.23   -141476.16    2707.0457    360624.46    71.557472    70.990477    70.990477 
  411000    566.80321    -143821.2   -141476.79    2368.5015    360624.46    71.558155    70.990138    70.990138 
  412000    569.04488   -143822.93   -141469.25    2774.9094    360624.46    71.558837      70.9898      70.9898 
  413000    570.11474   -143819.42   -141461.31      2545.57    360624.46    71.559517    70.989463    70.989463 
  414000    572.75939   -143832.37   -141463.32    2483.7507    360624.46    71.560196    70.989126    70.989126 
  415000    565.48092   -143823.59   -141484.65    2660.0341    360624.46    71.560872     70.98879     70.98879 
  416000    573.10093   -143824.18   -141453.72    2769.6053    360624.46    71.561548    70.988456    70.988456 
  417000    566.17476   -143843.45   -141501.64    2396.8033    360624.46    71.562221    70.988122    70.988122 
  418000    567.65847   -143831.08   -141483.13    2326.3188    360624.46    71.562893    70.987788    70.987788 
  419000    575.35088   -143839.42   -141459.66      2500.23    360624.46    71.563563    70.987456    70.987456 
  420000    563.34017   -143824.77   -141494.68    2660.7119    360624.46    71.564231    70.987125    70.987125 
  421000    569.08849   -143818.79   -141464.93    2588.8299    360624.46    71.564898    70.986794    70.986794 
  422000    569.28663   -143835.64   -141480.96    2526.7183    360624.46    71.565563    70.986464    70.986464 
  423000    570.16728   -143825.65   -141467.33    2691.0596    360624.46    71.566226    70.986135    70.986135 
  424000    570.86707   -143862.43   -141501.21    2426.4498    360624.46    71.566888    70.985807    70.985807 
  425000    566.54344   -143831.02   -141487.69    2509.2466    360624.46    71.567547     70.98548     70.98548 
  426000     572.7997   -143828.41    -141459.2    2738.2644    360624.46    71.568206    70.985153    70.985153 
  427000    570.32388   -143839.73   -141480.76    2421.9952    360624.46    71.568862    70.984828    70.984828 
  428000    567.62217   -143806.09   -141458.29    2760.0779    360624.46    71.569517    70.984503    70.984503 
  429000    570.31052   -143824.23   -141465.31    3065.5384    360624.46     71.57017    70.984179    70.984179 
  430000    572.15273   -143827.27   -141460.74    2813.5954    360624.46    71.570821    70.983856    70.983856 
  431000    568.37758    -143839.2   -141488.28    2300.8403    360624.46    71.571471    70.983534    70.983534 
  432000    566.58016   -143822.14   -141478.66    2746.5265    360624.46    71.572119    70.983213    70.983213 
  433000    567.13223   -143824.41   -141478.64     3159.488    360624.46    71.572765    70.982892    70.982892 
  434000    566.45405   -143843.85   -141500.89    2443.8668    360624.46    71.573409    70.982573    70.982573 
  435000    573.03053   -143835.08   -141464.92    2543.0836    360624.46    71.574052    70.982254    70.982254 
  436000     567.1051   -143827.75    -141482.1    2374.0573    360624.46    71.574693    70.981936    70.981936 
  437000     565.7515   -143832.69   -141492.64    2492.4825    360624.46    71.575332    70.981619    70.981619 
  438000    568.55638   -143812.49   -141460.83    2714.7517    360624.46     71.57597    70.981303    70.981303 
  439000    570.44691   -143829.73   -141470.25    2438.4567    360624.46    71.576605    70.980988    70.980988 
  440000    566.88595   -143824.47   -141479.72    2442.0523    360624.46    71.577239    70.980674    70.980674 
  441000    571.16658   -143830.49   -141468.04    2696.7583    360624.46    71.577872     70.98036     70.98036 
  442000    570.31559   -143842.74    -141483.8    2530.0551    360624.46    71.578502    70.980048    70.980048 
  443000    568.55252   -143834.43   -141482.78    2296.5092    360624.46    71.579131    70.979736    70.979736 
  444000    569.94589   -143818.71    -141461.3     3128.585    360624.46    71.579758    70.979425    70.979425 
  445000    570.24733   -143807.26   -141448.61    2836.6056    360624.46    71.580383    70.979115    70.979115 
  446000    569.00835   -143822.99   -141469.46    2602.7192    360624.46    71.581007    70.978806    70.978806 
  447000    569.68639   -143806.65   -141450.32    3077.9584    360624.46    71.581628    70.978498    70.978498 
  448000    570.24757   -143821.33   -141462.68    2610.5858    360624.46    71.582248     70.97819     70.97819 
  449000     569.6884   -143809.32   -141452.98     3136.309    360624.46    71.582867    70.977884    70.977884 
  450000    568.32585   -143812.08   -141461.38    2905.4729    360624.46    71.583483    70.977578    70.977578 
  451000    569.54285   -143807.06   -141451.32    3088.4994    360624.46    71.584098    70.977273    70.977273 
  452000    568.90402   -143804.16   -141451.07    2803.5565    360624.46     71.58471     70.97697     70.97697 
  453000    573.27809   -143824.51   -141453.32    2699.2316    360624.46    71.585322    70.976667    70.976667 
  454000    568.72412   -143821.38   -141469.03    2808.6218    360624.46    71.585931    70.976365    70.976365 
  455000     570.2245    -143838.1   -141479.54    2215.0372    360624.46    71.586538    70.976063    70.976063 
  456000    569.79713   -143817.67   -141460.88    2641.7049    360624.46    71.587144    70.975763    70.975763 
  457000    569.88112   -143820.36   -141463.22    2705.9595    360624.46    71.587748    70.975464    70.975464 
  458000    571.17742   -143837.62   -141475.12     2114.512    360624.46     71.58835    70.975165    70.975165 
  459000    571.15355   -143811.26   -141448.86    2504.5504    360624.46    71.588951    70.974868    70.974868 
  460000    575.11535   -143824.56   -141445.77    2652.5832    360624.46    71.589549    70.974571    70.974571 
  461000    569.91238    -143837.8   -141480.53    2761.8534    360624.46    71.590146    70.974275    70.974275 
  462000    567.80341   -143841.61   -141493.07    2323.7194    360624.46    71.590741     70.97398     70.97398 
  463000    570.08377   -143836.34   -141478.37    2494.8508    360624.46    71.591334    70.973686    70.973686 
  464000    572.32656   -143802.41   -141435.15    3545.9403    360624.46    71.591925    70.973393    70.973393 
  465000    570.44356   -143809.98   -141450.51    2984.6698    360624.46    71.592515    70.973101    70.973101 
  466000    568.61895   -143834.35   -141482.43    2614.1059    360624.46    71.593102     70.97281     70.97281 
  467000    575.32469   -143808.66      -141429    3348.2725    360624.46    71.593688    70.972519    70.972519 
  468000    568.56042    -143823.2   -141471.52    2640.9307    360624.46    71.594272     70.97223     70.97223 
  469000    571.35795    -143824.1   -141460.85     2772.677    360624.46    71.594855    70.971941    70.971941 
  470000    566.94902   -143817.07   -141472.05    2604.2232    360624.46    71.595435    70.971653    70.971653 
  471000    569.59683   -143823.13   -141467.16     2607.639    360624.46    71.596014    70.971367    70.971367 
  472000    572.32634   -143792.88   -141425.62    3710.2538    360624.46     71.59659    70.971081    70.971081 
  473000     568.1901   -143805.56   -141455.42    2885.1572    360624.46    71.597165    70.970796    70.970796 
  474000     571.3652   -143814.68    -141451.4    2624.7227    360624.46    71.597738    70.970512    70.970512 
  475000    572.52046   -143826.19   -141458.13    2769.0417    360624.46     71.59831    70.970229    70.970229 
  476000    569.52678   -143805.58   -141449.91    3219.5651    360624.46    71.598879    70.969946    70.969946 
  477000    573.32411   -143803.28    -141431.9    3418.1222    360624.46    71.599447    70.969665    70.969665 
  478000     568.1506   -143817.52   -141467.54    2741.3353    360624.46    71.600012    70.969385    70.969385 
  479000     574.4677   -143821.76   -141445.64    2821.9812    360624.46    71.600576    70.969105    70.969105 
  480000    569.77558   -143811.86   -141455.16    2745.9025    360624.46    71.601138    70.968827    70.968827 
  481000    567.87829   -143780.54   -141431.68    3713.1001    360624.46    71.601699    70.968549    70.968549 
  482000    568.98558   -143823.05   -141469.61    2329.2288    360624.46    71.602257    70.968272    70.968272 
  483000    569.77063   -143828.59   -141471.91     2776.831    360624.46    71.602813    70.967997    70.967997 
  484000    571.45537   -143792.01   -141428.36    3288.2602    360624.46    71.603368    70.967722    70.967722 
  485000    568.50765   -143824.44   -141472.98    2378.7972    360624.46    71.603921    70.967448    70.967448 
  486000    564.85535   -143804.67   -141468.32     2924.068    360624.46    71.604472    70.967175    70.967175 
  487000    573.90544   -143830.72   -141456.93    2482.2976    360624.46    71.605021    70.966903    70.966903 
  488000    571.83678   -143819.76   -141454.53    2706.0795    360624.46    71.605568    70.966632    70.966632 
  489000     568.8469   -143816.77   -141463.91    3021.3768    360624.46    71.606113    70.966362    70.966362 
  490000    571.96793   -143829.33   -141463.56     2845.496    360624.46    71.606657    70.966092    70.966092 
  491000    574.39468   -143825.89   -141450.09    2791.1481    360624.46    71.607198    70.965824    70.965824 
  492000     577.1156   -143826.13   -141439.06    2924.1252    360624.46    71.607738    70.965556    70.965556 
  493000    566.72572   -143819.09      -141475    2129.5545    360624.46    71.608276     70.96529     70.96529 
  494000    569.53245   -143835.69   -141479.99     2067.942    360624.46    71.608811    70.965024    70.965024 
  495000    565.61866   -143819.69   -141480.18     2897.794    360624.46    71.609345     70.96476     70.96476 
  496000    569.98436   -143823.77    -141466.2    2312.7959    360624.46    71.609878    70.964496    70.964496 
  497000    571.87434   -143811.39   -141446.01    2845.9063    360624.46    71.610408    70.964233    70.964233 
  498000    573.30519   -143816.49   -141445.19    2771.2201    360624.46    71.610936    70.963972    70.963972 
  499000       571.94   -143811.87   -141446.21    2711.0205    360624.46    71.611463    70.963711    70.963711 
  500000     566.8091   -143797.97   -141453.53    3154.5479    360624.46    71.611987    70.963451    70.963451 
  501000    575.62022   -143828.13   -141447.25    2379.5865    360624.46     71.61251    70.963192    70.963192 
  502000    571.99032   -143810.09   -141444.23    3021.9857    360624.46    71.613031    70.962934    70.962934 
  503000    567.98105   -143832.13   -141482.85    2513.0528    360624.46    71.613549    70.962677    70.962677 
  504000    572.29395   -143817.16   -141450.04    2764.1566    360624.46    71.614066    70.962421    70.962421 
  505000    568.30836   -143828.87   -141478.23    2577.0765    360624.46    71.614581    70.962166    70.962166 
  506000    569.85529   -143812.25   -141455.22    2845.4701    360624.46    71.615094    70.961911    70.961911 
  507000    569.09011   -143811.11   -141457.24    2580.4355    360624.46    71.615606    70.961658    70.961658 
  508000     570.3723   -143814.73   -141455.56    2636.9789    360624.46    71.616115    70.961406    70.961406 
  509000    574.71133   -143818.83   -141441.71    2818.6028    360624.46    71.616622    70.961154    70.961154 
  510000    567.41654   -143838.58   -141491.63    2209.7609    360624.46    71.617128    70.960904    70.960904 
  511000    571.79974   -143815.42   -141450.34     2766.147    360624.46    71.617631    70.960655    70.960655 
  512000    569.09046   -143814.33   -141460.47    2797.2837    360624.46    71.618133    70.960406    70.960406 
  513000    574.03073   -143828.87   -141454.56     2730.649    360624.46    71.618633    70.960159    70.960159 
  514000    568.95638    -143834.3   -141480.98    2213.4195    360624.46     71.61913    70.959912    70.959912 
  515000    573.83265    -143807.7   -141434.22     3300.914    360624.46    71.619626    70.959666    70.959666 
  516000    567.27369   -143818.74   -141472.39    3007.9182    360624.46     71.62012    70.959422    70.959422 
  517000    569.58757   -143815.34   -141459.41    2471.2069    360624.46    71.620612    70.959178    70.959178 
  518000      575.858   -143817.58   -141435.72    2503.5852    360624.46    71.621102    70.958935    70.958935 
  519000    570.03039   -143802.85   -141445.09    3102.2588    360624.46     71.62159    70.958693    70.958693 
  520000    566.74856   -143820.34   -141476.16    2794.6743    360624.46    71.622076    70.958453    70.958453 
  521000    566.31694   -143828.51   -141486.11    2568.6312    360624.46     71.62256    70.958213    70.958213 
  522000    567.41514   -143831.93   -141484.99    2198.1541    360624.46    71.623043    70.957974    70.957974 
  523000    566.08813   -143833.63   -141492.18    2302.5017    360624.46    71.623523    70.957736    70.957736 
  524000     573.4436   -143818.95   -141447.07    2699.4501    360624.46    71.624001    70.957499    70.957499 
  525000    569.83233   -143827.96   -141471.02    2210.7493    360624.46    71.624478    70.957263    70.957263 
  526000    569.92084   -143831.88   -141474.57    2648.7354    360624.46    71.624952    70.957028    70.957028 
  527000    565.22462    -143820.6   -141482.72    2481.1814    360624.46    71.625425    70.956794    70.956794 
  528000    565.46715   -143831.04   -141492.16    2496.7513    360624.46    71.625895    70.956561    70.956561 
  529000     572.2182   -143813.49   -141446.68    3010.8756    360624.46    71.626364    70.956329    70.956329 
  530000    568.23857   -143835.31   -141484.96    2614.7906    360624.46     71.62683    70.956098    70.956098 
  531000    568.42175   -143818.91   -141467.81    2695.8006    360624.46    71.627295    70.955868    70.955868 
  532000    572.31843   -143812.61   -141445.39    2779.8234    360624.46    71.627758    70.955638    70.955638 
  533000    571.31602   -143802.47    -141439.4    3026.5188    360624.46    71.628218     70.95541     70.95541 
  534000    572.60975   -143820.62   -141452.19    2548.0439    360624.46    71.628677    70.955183    70.955183 
  535000    571.90189    -143816.9    -141451.4    2827.5219    360624.46    71.629134    70.954957    70.954957 
  536000    568.00905   -143811.75   -141462.36    2942.6204    360624.46    71.629589    70.954732    70.954732 
  537000      571.501   -143823.02   -141459.18    2667.0804    360624.46    71.630041    70.954507    70.954507 
  538000    566.29347   -143816.37   -141474.07    2676.2885    360624.46    71.630492    70.954284    70.954284 
  539000    566.90504   -143825.12   -141480.29    2707.9067    360624.46    71.630941    70.954062    70.954062 
  540000    568.86642   -143834.52   -141481.58    2394.8988    360624.46    71.631388     70.95384     70.95384 
  541000    570.00083   -143818.89   -141461.26    2459.2409    360624.46    71.631833     70.95362     70.95362 
  542000    572.51183   -143827.92    -141459.9     3092.449    360624.46    71.632276    70.953401    70.953401 
  543000    572.55284   -143814.83   -141446.64    3170.4552    360624.46    71.632717    70.953182    70.953182 
  544000    571.39467   -143806.36   -141442.96    3165.0111    360624.46    71.633156    70.952965    70.952965 
  545000    571.13655   -143816.09   -141453.76    2742.2603    360624.46    71.633593    70.952749    70.952749 
  546000    567.86634    -143802.2   -141453.39    2965.9908    360624.46    71.634027    70.952533    70.952533 
  547000    568.78012    -143815.9   -141463.31     2904.435    360624.46     71.63446    70.952319    70.952319 
  548000    569.20014   -143830.53   -141476.21     2685.467    360624.46    71.634891    70.952105    70.952105 
  549000    570.16555    -143814.9   -141456.58    2844.5855    360624.46     71.63532    70.951893    70.951893 
  550000    566.90053   -143804.78   -141459.97    2816.2759    360624.46    71.635747    70.951681    70.951681 
  551000    567.68069   -143796.02   -141447.98    3113.8756    360624.46    71.636172    70.951471    70.951471 
  552000    571.82708    -143807.8   -141442.61    2976.4597    360624.46    71.636595    70.951262    70.951262 
  553000    570.14422   -143812.49   -141454.27     2978.629    360624.46    71.637016    70.951053    70.951053 
  554000    572.60565   -143846.91    -141478.5    2122.4315    360624.46    71.637435    70.950846    70.950846 
  555000     568.1594    -143818.4   -141468.38    3048.2264    360624.46    71.637852    70.950639    70.950639 
  556000    567.98143   -143809.06   -141459.78    3064.0445    360624.46    71.638267    70.950434    70.950434 
  557000    573.09056   -143840.03   -141469.62    2719.5956    360624.46     71.63868    70.950229    70.950229 
  558000    567.22071   -143813.51   -141467.37    3153.8526    360624.46     71.63909    70.950026    70.950026 
  559000    569.23829   -143804.84   -141450.36    3226.7927    360624.46    71.639499    70.949823    70.949823 
  560000    568.55633   -143827.01   -141475.35    2776.9483    360624.46    71.639906    70.949622    70.949622 
  561000    571.92219   -143807.99   -141442.41    2926.0104    360624.46    71.640311    70.949422    70.949422 
  562000    568.21938   -143824.59   -141474.32    2807.7569    360624.46    71.640714    70.949222    70.949222 
  563000    568.89428   -143829.87   -141476.81    2762.0537    360624.46    71.641114    70.949024    70.949024 
  564000    571.12755   -143833.54   -141471.24    2534.6892    360624.46    71.641513    70.948826    70.948826 
  565000    570.52813   -143817.36   -141457.54    2977.4271    360624.46     71.64191     70.94863     70.94863 
  566000    572.81356   -143817.22   -141447.95    3111.6218    360624.46    71.642304    70.948434    70.948434 
  567000    571.25326   -143823.67   -141460.86     2656.962    360624.46    71.642697     70.94824     70.94824 
  568000    571.45949   -143826.36   -141462.69    2656.4439    360624.46    71.643088    70.948047    70.948047 
  569000    568.85084   -143819.17   -141466.29     3020.412    360624.46    71.643476    70.947854    70.947854 
  570000    567.33042   -143819.99    -141473.4    2963.3021    360624.46    71.643863    70.947663    70.947663 
  571000     571.3825   -143806.36   -141443.01    3066.3294    360624.46    71.644247    70.947472    70.947472 
  572000     568.7749   -143818.11   -141465.55    2892.4618    360624.46     71.64463    70.947283    70.947283 
  573000    572.81596   -143826.34   -141457.06    3193.8468    360624.46     71.64501    70.947095    70.947095 
  574000     568.5854   -143810.06   -141458.28    3007.3692    360624.46    71.645388    70.946907    70.946907 
  575000     568.3273   -143802.53   -141451.82    3160.2563    360624.46    71.645765    70.946721    70.946721 
  576000    572.07902   -143815.33    -141449.1    3187.8304    360624.46    71.646139    70.946536    70.946536 
  577000    566.02829   -143819.62   -141478.41    2804.3902    360624.46    71.646511    70.946351    70.946351 
  578000    569.56697   -143845.03   -141489.19    2680.6703    360624.46    71.646881    70.946168    70.946168 
  579000    569.04389   -143831.03   -141477.35    2635.4406    360624.46    71.647249    70.945986    70.945986 
  580000    571.08221   -143807.19   -141445.08    3041.9291    360624.46    71.647615    70.945805    70.945805 
  581000    566.58379   -143814.12   -141470.62     2866.855    360624.46    71.647979    70.945625    70.945625 
  582000    566.70903   -143822.61   -141478.59    2262.1712    360624.46    71.648341    70.945445    70.945445 
  583000     569.8997   -143836.08   -141478.86    2519.8614    360624.46    71.648701    70.945267    70.945267 
  584000    569.64729   -143841.42   -141485.25    2696.0513    360624.46    71.649059     70.94509     70.94509 
  585000    569.15589   -143808.77   -141454.63     2957.707    360624.46    71.649415    70.944914    70.944914 
  586000    569.68276   -143813.74   -141457.42    2854.2899    360624.46    71.649769    70.944739    70.944739 
  587000    572.26211   -143813.47   -141446.49    2777.6265    360624.46     71.65012    70.944565    70.944565 
  588000    572.52917   -143807.62   -141439.53    3530.7165    360624.46     71.65047    70.944392    70.944392 
  589000    568.40921   -143809.73   -141458.68    3197.3449    360624.46    71.650817     70.94422     70.94422 
  590000    571.09557   -143817.97    -141455.8    3225.4011    360624.46    71.651163    70.944049    70.944049 
  591000    566.88445   -143821.07   -141476.32    2824.1009    360624.46    71.651506    70.943879    70.943879 
  592000     571.0399   -143823.25   -141461.31    2789.9361    360624.46    71.651847     70.94371     70.94371 
  593000    568.28262   -143812.64   -141462.11     3242.022    360624.46    71.652186    70.943542    70.943542 
  594000    568.75228   -143813.81   -141461.34    3001.7315    360624.46    71.652524    70.943375    70.943375 
  595000    568.42358    -143807.6   -141456.49    3292.3814    360624.46    71.652859    70.943209    70.943209 
  596000     571.6733   -143805.83   -141441.28    3147.1109    360624.46    71.653192    70.943044    70.943044 
  597000    571.59987    -143824.9   -141460.65    2890.2931    360624.46    71.653523     70.94288     70.94288 
  598000    571.05807   -143834.31   -141472.31    2316.0845    360624.46    71.653851    70.942718    70.942718 
  599000    567.31282    -143817.9   -141471.38    3147.4138    360624.46    71.654178    70.942556    70.942556 
  600000    569.64214   -143826.76   -141470.61    2770.6525    360624.46    71.654503    70.942395    70.942395 
  601000    571.26541   -143842.13   -141479.26    2497.2503    360624.46    71.654825    70.942235    70.942235 
  602000    569.98495   -143838.04   -141480.47    2540.5591    360624.46    71.655146    70.942077    70.942077 
  603000    572.64233   -143821.26    -141452.7    2937.5142    360624.46    71.655464    70.941919    70.941919 
  604000    569.04691   -143832.47   -141478.78    2824.3877    360624.46     71.65578    70.941763    70.941763 
  605000    568.54894   -143829.49   -141477.86    3062.0614    360624.46    71.656095    70.941607    70.941607 
  606000    571.74815   -143839.38   -141474.51    2414.8272    360624.46    71.656407    70.941453    70.941453 
  607000    568.46513   -143799.06   -141447.78    3244.2945    360624.46    71.656717    70.941299    70.941299 
  608000    572.08143   -143806.11   -141439.87    3068.9181    360624.46    71.657025    70.941147    70.941147 
  609000    568.58359   -143854.63   -141502.86    2260.3377    360624.46     71.65733    70.940995    70.940995 
  610000    569.57879   -143831.35   -141475.46    2535.1282    360624.46    71.657634    70.940845    70.940845 
  611000    570.51122   -143827.88   -141468.14    2934.0863    360624.46    71.657936    70.940696    70.940696 
  612000    571.48996   -143839.73   -141475.94    2699.3324    360624.46    71.658235    70.940547    70.940547 
  613000    566.28839   -143827.16   -141484.88     2916.886    360624.46    71.658533      70.9404      70.9404 
  614000    569.56223   -143817.57   -141461.75    3016.7212    360624.46    71.658828    70.940254    70.940254 
  615000    570.77805   -143811.47   -141450.62    3213.4354    360624.46    71.659121    70.940109    70.940109 
  616000    571.73531   -143824.48   -141459.67    2439.7925    360624.46    71.659412    70.939965    70.939965 
  617000    571.67507   -143808.58   -141444.02    3370.2851    360624.46    71.659701    70.939822    70.939822 
  618000    570.35754   -143808.79   -141449.68    2970.5568    360624.46    71.659988     70.93968     70.93968 
  619000    564.65501   -143820.66   -141485.13     2803.318    360624.46    71.660273    70.939539    70.939539 
  620000    567.76041   -143832.74   -141484.37    2871.7407    360624.46    71.660556    70.939399    70.939399 
  621000    568.85392   -143827.73   -141474.84    2709.9506    360624.46    71.660836     70.93926     70.93926 
  622000    571.59937   -143819.88   -141455.63     3173.898    360624.46    71.661115    70.939122    70.939122 
  623000    569.16948   -143816.13   -141461.93    3222.3805    360624.46    71.661391    70.938985    70.938985 
  624000    566.52772   -143842.46   -141499.19    2497.5127    360624.46    71.661665     70.93885     70.93885 
  625000    575.34093   -143821.09   -141441.37     3059.932    360624.46    71.661937    70.938715    70.938715 
  626000    571.31868   -143807.56   -141444.47    3179.9229    360624.46    71.662207    70.938581    70.938581 
  627000    565.25644   -143835.69   -141497.68    2333.5914    360624.46    71.662475    70.938449    70.938449 
  628000    567.13751    -143814.2   -141468.41    3210.0405    360624.46    71.662741    70.938317    70.938317 
  629000    567.36296    -143829.6   -141482.87    2631.1958    360624.46    71.663005    70.938187    70.938187 
  630000    566.35735   -143841.65   -141499.09    2355.1532    360624.46    71.663266    70.938057    70.938057 
  631000    569.77733   -143833.93   -141477.22    2894.1345    360624.46    71.663525    70.937929    70.937929 
  632000    577.63822   -143826.91   -141437.68    2511.3114    360624.46    71.663783    70.937802    70.937802 
  633000    572.32314   -143829.57   -141462.33    2975.0701    360624.46    71.664038    70.937675    70.937675 
  634000    570.59435    -143825.6   -141465.51    2821.0991    360624.46    71.664291     70.93755     70.93755 
  635000    569.30957   -143835.37    -141480.6    2426.7995    360624.46    71.664542    70.937426    70.937426 
  636000    571.41278   -143825.99   -141462.52    2448.0449    360624.46     71.66479    70.937303    70.937303 
  637000     568.0225   -143815.54   -141466.09     2905.075    360624.46    71.665037    70.937181    70.937181 
  638000    574.38102   -143824.93   -141449.18    2681.1979    360624.46    71.665281     70.93706     70.93706 
  639000    566.99873   -143821.67   -141476.45    2710.0744    360624.46    71.665524     70.93694     70.93694 
  640000    568.75904    -143814.7    -141462.2     2716.056    360624.46    71.665764    70.936821    70.936821 
  641000     567.2833   -143818.31   -141471.91    2690.7632    360624.46    71.666002    70.936703    70.936703 
  642000    566.94378   -143839.03   -141494.04    2709.5011    360624.46    71.666238    70.936586    70.936586 
  643000    566.53826   -143807.64   -141464.33    2943.7434    360624.46    71.666472    70.936471    70.936471 
  644000    565.20513   -143802.37   -141464.57    3158.2403    360624.46    71.666703    70.936356    70.936356 
  645000    570.75353   -143830.48   -141469.73    2692.5353    360624.46    71.666933    70.936243    70.936243 
  646000    571.16882    -143828.9   -141466.44    2972.4133    360624.46     71.66716     70.93613     70.93613 
  647000    569.15643   -143817.53   -141463.39    3224.8035    360624.46    71.667385    70.936019    70.936019 
  648000    569.20236   -143792.89   -141438.56    3581.5932    360624.46    71.667609    70.935908    70.935908 
  649000    571.95858    -143837.5   -141471.76    2775.8977    360624.46    71.667829    70.935799    70.935799 
  650000    572.72671    -143817.3   -141448.39    3118.3524    360624.46    71.668048    70.935691    70.935691 
  651000     568.0318   -143815.49   -141465.99    3241.0053    360624.46    71.668265    70.935583    70.935583 
  652000    572.46732   -143829.96   -141462.12    2574.8519    360624.46    71.668479    70.935477    70.935477 
  653000    568.21176   -143812.85   -141462.62     2525.197    360624.46    71.668692    70.935372    70.935372 
  654000    576.96254   -143815.96   -141429.53    2872.0821    360624.46    71.668902    70.935268    70.935268 
  655000     571.6018   -143816.88   -141452.62    2799.1364    360624.46     71.66911    70.935165    70.935165 
  656000    569.76549   -143804.17   -141447.51    3276.4987    360624.46    71.669316    70.935063    70.935063 
  657000    571.08824    -143835.9   -141473.77    2276.3806    360624.46     71.66952    70.934962    70.934962 
  658000    565.58456    -143819.1   -141479.74     2884.112    360624.46    71.669721    70.934863    70.934863 
  659000    570.72218      -143824   -141463.38    2916.3407    360624.46    71.669921    70.934764    70.934764 
  660000    572.97821   -143833.79   -141463.84    2612.2719    360624.46    71.670118    70.934666    70.934666 
  661000    569.56451   -143831.25   -141475.42    2532.0599    360624.46    71.670313     70.93457     70.93457 
  662000    569.57101    -143815.8   -141459.94    2969.7086    360624.46    71.670506    70.934474    70.934474 
  663000    569.32654   -143821.99   -141467.14     3366.704    360624.46    71.670697     70.93438     70.93438 
  664000    571.98734   -143839.78   -141473.93    2455.6423    360624.46    71.670886    70.934286    70.934286 
  665000    573.40736    -143843.9   -141472.18    2670.0502    360624.46    71.671072    70.934194    70.934194 
  666000    569.03696   -143834.99   -141481.34    2676.8299    360624.46    71.671257    70.934103    70.934103 
  667000    567.47779   -143826.85   -141479.65    2736.5655    360624.46    71.671439    70.934013    70.934013 
  668000    566.49675    -143820.4   -141477.26    3069.9233    360624.46    71.671619    70.933924    70.933924 
  669000    568.46186   -143849.59   -141498.32    2664.9271    360624.46    71.671797    70.933836    70.933836 
  670000    572.75173   -143821.02   -141452.01    3198.6972    360624.46    71.671972    70.933749    70.933749 
  671000    570.86585   -143805.04   -141443.83    3151.4856    360624.46    71.672146    70.933663    70.933663 
  672000    570.68695   -143825.19   -141464.72     2921.999    360624.46    71.672317    70.933578    70.933578 
  673000    570.57407   -143828.07   -141468.06    2777.7851    360624.46    71.672487    70.933494    70.933494 
  674000    566.20771   -143821.24   -141479.29    3022.6627    360624.46    71.672654    70.933411    70.933411 
  675000     567.5645   -143836.09   -141488.53    2678.1719    360624.46    71.672819     70.93333     70.93333 
  676000    571.89595   -143830.02   -141464.55     2856.033    360624.46    71.672981    70.933249    70.933249 
  677000    567.95735   -143833.62   -141484.44    2647.9018    360624.46    71.673142     70.93317     70.93317 
  678000    574.76281   -143836.84   -141459.51    2443.6731    360624.46      71.6733    70.933091    70.933091 
  679000    571.65929   -143825.22   -141460.73      2812.33    360624.46    71.673457    70.933014    70.933014 
  680000    565.32593   -143814.53   -141476.23    3380.2365    360624.46    71.673611    70.932938    70.932938 
  681000    571.70712   -143838.71   -141474.02    2884.9293    360624.46    71.673763    70.932863    70.932863 
  682000    571.89296   -143817.99   -141452.53    2984.9641    360624.46    71.673912    70.932789    70.932789 
  683000    569.04264   -143813.85   -141460.18     3154.187    360624.46     71.67406    70.932716    70.932716 
  684000    570.54317   -143823.59   -141463.71    3061.0825    360624.46    71.674205    70.932644    70.932644 
[...]
29838000    571.10523   -143758.83   -141396.62    3892.0709    360624.46    71.012565    71.262326    71.262326 
29839000    573.17108   -143790.24   -141419.49    3553.6612    360624.46    71.013553     71.26183     71.26183 
29840000    567.97545   -143796.89   -141447.64    3041.4311    360624.46    71.014541    71.261334    71.261334 
29841000     566.7383    -143788.5   -141444.36    3316.5122    360624.46     71.01553    71.260837    71.260837 
29842000    572.56495    -143768.4   -141400.16    3498.9634    360624.46     71.01652    71.260341    71.260341 
29843000    571.05487   -143760.26   -141398.26    4066.6416    360624.46    71.017511    71.259844    71.259844 
29844000    575.26598   -143774.82   -141395.41    3465.1141    360624.46    71.018503    71.259346    71.259346 
29845000    569.42771   -143768.94   -141413.67    3557.1154    360624.46    71.019495    71.258849    71.258849 
29846000    571.55853   -143794.74   -141430.66    3023.2248    360624.46    71.020488     71.25835     71.25835 
29847000    571.25923      -143792   -141429.16    3440.6529    360624.46    71.021481    71.257852    71.257852 
29848000    568.81346   -143776.02    -141423.3    3565.1352    360624.46    71.022475    71.257353    71.257353 
29849000     570.5515   -143798.66   -141438.75    3130.2888    360624.46     71.02347    71.256854    71.256854 
29850000    573.29678   -143776.83   -141405.56    3632.1105    360624.46    71.024466    71.256355    71.256355 
29851000    570.94575   -143772.14   -141410.59     4001.807    360624.46    71.025462    71.255855    71.255855 
29852000    573.05605   -143802.15   -141431.88    3199.5497    360624.46    71.026459    71.255355    71.255355 
29853000    572.89214   -143759.22   -141389.63     4010.776    360624.46    71.027457    71.254854    71.254854 
29854000    566.01469   -143779.49   -141438.34    3458.3452    360624.46    71.028455    71.254354    71.254354 
29855000    569.69981   -143783.69    -141427.3      3526.14    360624.46    71.029454    71.253853    71.253853 
29856000    570.07404   -143788.15   -141430.22     3584.693    360624.46    71.030454    71.253351    71.253351 
29857000    568.55548      -143780   -141428.35    3461.7554    360624.46    71.031454     71.25285     71.25285 
29858000    571.31865   -143781.14   -141418.05    3422.9352    360624.46    71.032455    71.252348    71.252348 
29859000    565.82338   -143759.75   -141419.39    3809.1026    360624.46    71.033456    71.251845    71.251845 
29860000    567.34609   -143767.79   -141421.14    4053.8205    360624.46    71.034459    71.251343    71.251343 
29861000    569.94552   -143795.22   -141437.82    3046.4118    360624.46    71.035461     71.25084     71.25084 
29862000    572.79342   -143775.22   -141406.04    3551.7877    360624.46    71.036465    71.250336    71.250336 
29863000    570.59364   -143764.73   -141404.64    3845.4743    360624.46    71.037469    71.249833    71.249833 
29864000    569.97171   -143776.88   -141419.37    3914.2285    360624.46    71.038474    71.249329    71.249329 
29865000    568.32705   -143775.09   -141424.38    3656.6837    360624.46    71.039479    71.248825    71.248825 
29866000    567.06837   -143766.46   -141420.96    3759.4794    360624.46    71.040485     71.24832     71.24832 
29867000    571.59214    -143782.8   -141418.58    3430.9763    360624.46    71.041491    71.247816    71.247816 
29868000    574.79251   -143786.64   -141409.18    3587.0947    360624.46    71.042498    71.247311    71.247311 
29869000    567.74762   -143786.83   -141438.51    3397.1108    360624.46    71.043506    71.246805    71.246805 
29870000    568.92225   -143801.62   -141448.44    3253.7113    360624.46    71.044515      71.2463      71.2463 
29871000    569.23602      -143775   -141420.53    3805.8171    360624.46    71.045523    71.245794    71.245794 
29872000    567.43566   -143773.76   -141426.73    3724.8649    360624.46    71.046533    71.245288    71.245288 
29873000    574.30687   -143782.47   -141407.03    3560.0444    360624.46    71.047543    71.244781    71.244781 
29874000    569.07108   -143786.22   -141432.43    3424.4547    360624.46    71.048554    71.244275    71.244275 
29875000    569.58066   -143768.12   -141412.22    3952.1892    360624.46    71.049565    71.243768    71.243768 
29876000    570.33149   -143787.35   -141428.35    3549.3191    360624.46    71.050577     71.24326     71.24326 
29877000    566.93016   -143796.94      -141452       2953.1    360624.46    71.051589    71.242753    71.242753 
29878000    572.96526    -143799.9   -141430.01    3409.9091    360624.46    71.052602    71.242245    71.242245 
29879000    569.64603   -143785.26   -141429.09    3101.6835    360624.46    71.053615    71.241737    71.241737 
29880000    563.65632   -143793.81   -141462.41    3355.2393    360624.46     71.05463    71.241229    71.241229 
29881000    568.33982   -143779.61   -141428.85    3761.6667    360624.46    71.055644     71.24072     71.24072 
29882000    569.88924   -143781.36   -141424.19    3900.9277    360624.46    71.056659    71.240211    71.240211 
29883000    572.24063   -143784.31   -141417.41    3325.9037    360624.46    71.057675    71.239702    71.239702 
29884000    569.06399   -143790.28   -141436.52    3564.0007    360624.46    71.058691    71.239193    71.239193 
29885000    567.67069   -143780.43   -141432.44     3539.561    360624.46    71.059708    71.238683    71.238683 
29886000    568.60657   -143784.37   -141432.51    3707.3524    360624.46    71.060725    71.238173    71.238173 
29887000    571.27529    -143789.3   -141426.39    3375.6504    360624.46    71.061743    71.237663    71.237663 
29888000    572.03075   -143784.04   -141418.01    3550.7463    360624.46    71.062761    71.237152    71.237152 
29889000    568.41903   -143774.97   -141423.88    3814.4171    360624.46     71.06378    71.236642    71.236642 
29890000    569.80386   -143805.63   -141448.81    3094.5892    360624.46    71.064799    71.236131    71.236131 
29891000    566.18643   -143787.22   -141445.36    3669.4042    360624.46    71.065819     71.23562     71.23562 
29892000    568.23659   -143775.04    -141424.7    3814.8783    360624.46    71.066839    71.235108    71.235108 
29893000    571.63267   -143774.71   -141410.33     3416.224    360624.46     71.06786    71.234597    71.234597 
29894000    566.98001   -143787.19   -141442.05    3412.4537    360624.46    71.068881    71.234085    71.234085 
29895000    575.91831    -143770.7   -141388.59    3967.0516    360624.46    71.069903    71.233573    71.233573 
29896000    566.11996   -143799.89    -141458.3    2928.2416    360624.46    71.070925    71.233061    71.233061 
29897000    568.98146   -143802.18   -141448.76    2850.4221    360624.46    71.071948    71.232548    71.232548 
29898000     570.8843    -143790.5   -141429.21     3420.092    360624.46    71.072971    71.232036    71.232036 
29899000    569.56939    -143776.4   -141420.55    3689.6391    360624.46    71.073995    71.231523    71.231523 
29900000    571.08718    -143788.7   -141426.57    3393.0857    360624.46    71.075019    71.231009    71.231009 
29901000    576.76324   -143784.35   -141398.75    3807.1994    360624.46    71.076043    71.230496    71.230496 
29902000    570.48103    -143764.3   -141404.68    3578.6933    360624.46    71.077068    71.229982    71.229982 
29903000    570.30475   -143775.89      -141417    3642.3332    360624.46    71.078094    71.229469    71.229469 
29904000    567.32276   -143809.34   -141462.79    3039.9656    360624.46    71.079119    71.228955    71.228955 
29905000    567.04646   -143767.68   -141422.26     3541.739    360624.46    71.080146     71.22844     71.22844 
29906000    572.70229   -143787.08   -141418.27    3656.1466    360624.46    71.081173    71.227926    71.227926 
29907000    570.32818   -143804.82   -141445.83     3209.663    360624.46      71.0822    71.227411    71.227411 
29908000    571.47175   -143773.46   -141409.74    3654.0571    360624.46    71.083227    71.226896    71.226896 
29909000    573.22624   -143781.07    -141410.1    3818.5234    360624.46    71.084255    71.226381    71.226381 
29910000     570.3802   -143783.51   -141424.31    3174.8243    360624.46    71.085284    71.225866    71.225866 
29911000    569.67488   -143787.88   -141431.59     3147.293    360624.46    71.086313    71.225351    71.225351 
29912000    570.47289   -143775.54   -141415.95    3545.6482    360624.46    71.087342    71.224835    71.224835 
29913000    569.78364   -143770.54    -141413.8    3759.7987    360624.46    71.088372    71.224319    71.224319 
29914000     574.8255   -143785.91   -141408.32    3434.0087    360624.46    71.089402    71.223803    71.223803 
29915000    568.37062   -143770.47   -141419.58    3526.1673    360624.46    71.090432    71.223287    71.223287 
29916000      572.662   -143787.32   -141418.68    3690.8167    360624.46    71.091463    71.222771    71.222771 
29917000    567.39042   -143810.15   -141463.31    3285.8264    360624.46    71.092494    71.222254    71.222254 
29918000    569.65272   -143784.74   -141428.54    3928.5772    360624.46    71.093526    71.221737    71.221737 
29919000    573.83782   -143806.72   -141433.22     3488.615    360624.46    71.094558     71.22122     71.22122 
29920000    572.46413      -143793   -141425.18    3386.3832    360624.46     71.09559    71.220703    71.220703 
29921000    564.94581   -143778.78   -141442.05    3390.2668    360624.46    71.096623    71.220186    71.220186 
29922000    571.82253   -143786.48   -141421.31    3687.4762    360624.46    71.097656    71.219669    71.219669 
29923000    573.76977    -143783.7   -141410.48    3445.7065    360624.46    71.098689    71.219151    71.219151 
29924000    571.46658   -143797.63   -141433.93    3587.9984    360624.46    71.099723    71.218633    71.218633 
29925000     568.3798   -143784.45   -141433.52    3632.9673    360624.46    71.100757    71.218115    71.218115 
29926000    570.86421   -143771.26   -141410.05    3774.8903    360624.46    71.101792    71.217597    71.217597 
29927000    565.97805   -143776.89   -141435.89    3603.7662    360624.46    71.102827    71.217079    71.217079 
29928000    570.11342      -143767    -141408.9    3982.9605    360624.46    71.103862    71.216561    71.216561 
29929000    567.68385   -143795.26   -141447.21     3436.049    360624.46    71.104897    71.216042    71.216042 
29930000    571.44736   -143784.97   -141421.35    3827.2232    360624.46    71.105933    71.215523    71.215523 
29931000    569.85524   -143790.23    -141433.2    3464.3936    360624.46    71.106969    71.215004    71.215004 
29932000     568.8641   -143790.98   -141438.05    3461.9067    360624.46    71.108006    71.214485    71.214485 
29933000    566.30674   -143768.98   -141426.62    3777.4728    360624.46    71.109042    71.213966    71.213966 
29934000    568.13248   -143759.56   -141409.65    3836.6885    360624.46    71.110079    71.213447    71.213447 
29935000    565.88673   -143771.35   -141430.73    4037.2695    360624.46    71.111117    71.212928    71.212928 
29936000    573.82972   -143806.65   -141433.18    3295.4503    360624.46    71.112154    71.212408    71.212408 
29937000    567.75644   -143779.74   -141431.39    3537.8239    360624.46    71.113192    71.211888    71.211888 
29938000    569.91768   -143784.59    -141427.3    4104.2323    360624.46    71.114231    71.211369    71.211369 
29939000    572.31998    -143785.6   -141418.37    3787.1616    360624.46    71.115269    71.210849    71.210849 
29940000    570.74769    -143800.9   -141440.17    3233.1681    360624.46    71.116308    71.210328    71.210328 
29941000    568.06545   -143783.64   -141434.01    3539.2531    360624.46    71.117347    71.209808    71.209808 
29942000    569.05779   -143783.91   -141430.18    3651.5146    360624.46    71.118386    71.209288    71.209288 
29943000    569.57961   -143777.09    -141421.2    3862.9151    360624.46    71.119426    71.208767    71.208767 
29944000    571.67507   -143778.99   -141414.43    4030.7556    360624.46    71.120466    71.208247    71.208247 
29945000    566.85954   -143793.91   -141449.27    4037.7849    360624.46    71.121506    71.207726    71.207726 
29946000    569.31833   -143794.23   -141439.41     4024.814    360624.46    71.122546    71.207205    71.207205 
29947000     564.4303   -143775.64   -141441.05    4004.5105    360624.46    71.123587    71.206684    71.206684 
29948000    575.20782   -143779.72   -141400.55    3863.9745    360624.46    71.124628    71.206163    71.206163 
29949000    571.10855   -143804.93   -141442.71    2889.8099    360624.46    71.125669    71.205642    71.205642 
29950000    569.79636   -143775.09    -141418.3    3639.3805    360624.46     71.12671    71.205121    71.205121 
29951000    568.89007   -143776.12   -141423.08     3860.885    360624.46    71.127752      71.2046      71.2046 
29952000    571.54139   -143785.68   -141421.68    3254.8239    360624.46    71.128794    71.204078    71.204078 
29953000    568.33577   -143794.45    -141443.7    3420.5777    360624.46    71.129836    71.203557    71.203557 
29954000    567.74858   -143790.96   -141442.64     3315.026    360624.46    71.130878    71.203035    71.203035 
29955000    568.51311   -143798.45   -141446.97    3158.5379    360624.46     71.13192    71.202513    71.202513 
29956000    571.04611   -143793.34   -141431.38    3441.3776    360624.46    71.132963    71.201991    71.201991 
29957000    569.57847    -143795.3   -141439.42    3372.0698    360624.46    71.134006    71.201469    71.201469 
29958000    567.59093   -143771.86   -141424.19    3718.4255    360624.46    71.135049    71.200947    71.200947 
29959000     572.7378    -143776.4   -141407.44    3848.8292    360624.46    71.136092    71.200425    71.200425 
29960000    567.09959   -143810.49   -141464.85    3184.7526    360624.46    71.137136    71.199903    71.199903 
29961000    566.68462   -143796.22    -141452.3    3431.2536    360624.46    71.138179    71.199381    71.199381 
29962000    571.53875   -143800.72   -141436.73    3248.9595    360624.46    71.139223    71.198859    71.198859 
29963000    569.97416   -143783.93   -141426.41    3916.2848    360624.46    71.140267    71.198336    71.198336 
29964000    570.81822   -143790.17   -141429.15    3404.7478    360624.46    71.141311    71.197814    71.197814 
29965000    575.05919   -143800.14   -141421.59    3205.7658    360624.46    71.142355    71.197291    71.197291 
29966000    571.26174   -143789.72   -141426.87    3791.2652    360624.46      71.1434    71.196768    71.196768 
29967000    569.24131   -143775.83   -141421.34    3545.0863    360624.46    71.144444    71.196246    71.196246 
29968000    572.19612   -143790.07   -141423.36    3719.2047    360624.46    71.145489    71.195723    71.195723 
29969000    569.09366   -143805.35   -141451.47     3136.521    360624.46    71.146534      71.1952      71.1952 
29970000    567.49173   -143816.84   -141469.59    3022.7873    360624.46    71.147579    71.194677    71.194677 
29971000    568.66431    -143798.5    -141446.4    3655.3452    360624.46    71.148624    71.194154    71.194154 
29972000     568.6927   -143774.94   -141422.72    3654.9965    360624.46     71.14967    71.193631    71.193631 
29973000    574.54672   -143810.65   -141434.22    3316.1925    360624.46    71.150715    71.193108    71.193108 
29974000    571.21716   -143803.41   -141440.74     3456.913    360624.46    71.151761    71.192585    71.192585 
29975000     567.8625   -143799.84   -141451.04    3389.3663    360624.46    71.152806    71.192062    71.192062 
29976000    570.90828    -143802.5   -141441.11    3366.6169    360624.46    71.153852    71.191539    71.191539 
29977000    571.12066   -143807.77   -141445.51     3269.797    360624.46    71.154898    71.191016    71.191016 
29978000    567.52347   -143796.02   -141448.64    3659.9472    360624.46    71.155944    71.190492    71.190492 
29979000    572.52178   -143813.24   -141445.18    3031.1631    360624.46     71.15699    71.189969    71.189969 
29980000    563.86757   -143787.33   -141455.07    3611.2385    360624.46    71.158037    71.189446    71.189446 
29981000    570.42732   -143803.68   -141444.29    3375.1359    360624.46    71.159083    71.188922    71.188922 
29982000    574.23734   -143795.31   -141420.15    3495.2153    360624.46    71.160129    71.188399    71.188399 
29983000     575.6557   -143799.61   -141418.59    3640.2253    360624.46    71.161176    71.187875    71.187875 
29984000    571.34677   -143797.37   -141434.17    3380.7613    360624.46    71.162222    71.187352    71.187352 
29985000    572.31585   -143811.65   -141444.44    2928.4188    360624.46    71.163269    71.186828    71.186828 
29986000    572.98732   -143811.33   -141441.34    2767.0612    360624.46    71.164316    71.186305    71.186305 
29987000     567.2624   -143795.12   -141448.81    3126.1596    360624.46    71.165363    71.185781    71.185781 
29988000     573.2369    -143798.2   -141427.18    3548.6268    360624.46    71.166409    71.185258    71.185258 
29989000    568.71029    -143793.6    -141441.3    3121.3977    360624.46    71.167456    71.184734    71.184734 
29990000     568.9113   -143812.97   -141459.84    3044.2766    360624.46    71.168503    71.184211    71.184211 
29991000     568.2036   -143797.41   -141447.21    3488.0409    360624.46     71.16955    71.183687    71.183687 
29992000    571.37833   -143787.61   -141424.28    3637.2073    360624.46    71.170597    71.183163    71.183163 
29993000    567.92984   -143773.55   -141424.48    3522.1144    360624.46    71.171644     71.18264     71.18264 
29994000    566.09738   -143782.73   -141441.24     3528.261    360624.46    71.172691    71.182116    71.182116 
29995000    573.86047   -143794.92   -141421.32    3132.7386    360624.46    71.173739    71.181593    71.181593 
29996000    573.40538   -143806.71   -141434.99    3468.5327    360624.46    71.174786    71.181069    71.181069 
29997000    569.86045   -143806.07   -141449.01    3081.0986    360624.46    71.175833    71.180545    71.180545 
29998000     567.5717   -143791.79    -141444.2    3639.8089    360624.46     71.17688    71.180022    71.180022 
29999000    564.46756   -143781.31   -141446.56    3512.1412    360624.46    71.177927    71.179498    71.179498 
30000000    569.24397   -143795.71    -141441.2    3501.6327    360624.46    71.178974    71.178974    71.178974 
Loop time of 41862.6 on 48 procs for 30000000 steps with 32000 atoms

Performance: 619.169 ns/day, 0.039 hours/ns, 716.631 timesteps/s
93.0% CPU use with 48 MPI tasks x 1 OpenMP threads

MPI task timing breakdown:
Section |  min time  |  avg time  |  max time  |%varavg| %total
---------------------------------------------------------------
Pair    | 31999      | 32447      | 34424      | 234.5 | 77.51
Neigh   | 1464.8     | 1503.3     | 1661.1     |  90.7 |  3.59
Comm    | 3850.3     | 5759.5     | 6295       | 798.4 | 13.76
Output  | 1.8588     | 1.9559     | 2.8735     |  10.0 |  0.00
Modify  | 1261       | 1628.3     | 3030.8     |1223.3 |  3.89
Other   |            | 522.5      |            |       |  1.25

Nlocal:    666.667 ave 678 max 651 min
Histogram: 3 0 5 2 5 9 6 7 9 2
Nghost:    3709.08 ave 3736 max 3688 min
Histogram: 3 6 6 10 4 6 6 4 1 2
Neighs:    76012.1 ave 77350 max 73912 min
Histogram: 3 0 1 6 7 4 7 8 8 4

Total # of neighbors = 3648579
Ave neighs/atom = 114.018
Neighbor list builds = 3266123
Dangerous builds = 1038
write_restart rst.${T}
write_restart rst.570
clear
OMP_NUM_THREADS environment is not set. Defaulting to 1 thread. (../comm.cpp:93)
  using 1 OpenMP thread(s) per MPI task
package intel 1
jump dms550.lmp
#MD-DMS by Ha-Bin Yu
variable T equal 550
log log.${T}
log log.550
