ITEM: TIMESTEP
0
ITEM: NUMBER OF ATOMS
7200
ITEM: BOX BOUNDS xy xz yz pp pp pp
0.0000000000000000e+00 2.1900000000000000e+02 0.0000000000000000e+00
0.0000000000000000e+00 2.1900000000000000e+02 0.0000000000000000e+00
-3.6499999999999999e-01 3.6499999999999999e-01 0.0000000000000000e+00
ITEM: ATOMS id type x y z
1 1 91.8856 210.123 -5.55112e-17
2 1 145.793 80.6953 -5.55112e-17
3 1 20.3222 194.173 -5.55112e-17
4 1 40.8601 102.883 -5.55112e-17
5 1 88.2219 128.805 -5.55112e-17
6 1 125.127 185.537 -5.55112e-17
7 1 214.996 72.6175 -5.55112e-17
8 2 176.308 116.756 -5.55112e-17
9 1 159.149 209.64 -5.55112e-17
10 2 72.9943 171.742 -5.55112e-17
11 1 163.358 41.5873 -5.55112e-17
12 1 154.866 77.4345 -5.55112e-17
13 2 38.6531 79.8395 -5.55112e-17
14 1 78.0923 63.6207 -5.55112e-17
15 1 144.814 122.93 -5.55112e-17
16 2 94.9561 205.8 -5.55112e-17
17 1 158.071 211.831 -5.55112e-17
18 2 30.0059 44.0239 -5.55112e-17
19 1 68.807 95.1655 -5.55112e-17
20 1 203.668 113.716 -5.55112e-17
21 1 105.275 195.128 -5.55112e-17
22 2 26.1645 162.296 -5.55112e-17
23 2 43.4392 43.9715 -5.55112e-17
24 1 168.803 114.821 -5.55112e-17
25 1 43.3684 186.419 -5.55112e-17
26 2 104.87 79.4473 -5.55112e-17
27 1 183.141 206.343 -5.55112e-17
28 2 65.6863 183.608 -5.55112e-17
29 1 28.7192 88.0591 -5.55112e-17
30 1 174.288 78.6214 -5.55112e-17
31 1 207.373 51.8182 -5.55112e-17
32 1 89.1289 193.298 -5.55112e-17
33 1 176.149 180.928 -5.55112e-17
34 1 74.8678 41.3576 -5.55112e-17
35 1 185.532 36.6537 -5.55112e-17
36 1 13.4451 126.279 -5.55112e-17
37 2 145.301 117.681 -5.55112e-17
38 1 150.506 101.018 -5.55112e-17
39 1 119.312 130.936 -5.55112e-17
40 1 146.068 199.76 -5.55112e-17
41 1 97.1402 31.6142 -5.55112e-17
42 1 83.5833 74.8485 -5.55112e-17
43 1 197.715 53.9673 -5.55112e-17
44 1 124.28 87.4292 -5.55112e-17
45 1 2.37394 59.3013 -5.55112e-17
46 1 113.507 187.283 -5.55112e-17
47 1 4.89075 174.371 -5.55112e-17
48 2 53.8886 65.9098 -5.55112e-17
49 1 11.5065 99.7943 -5.55112e-17
50 1 63.8834 156.818 -5.55112e-17
51 1 109.141 20.2337 -5.55112e-17
52 1 158.877 78.8906 -5.55112e-17
53 1 122.237 215.915 -5.55112e-17
54 1 207.011 129.896 -5.55112e-17
55 1 218.364 200.301 -5.55112e-17
56 1 108.447 137.037 -5.55112e-17
57 2 113.623 197.534 -5.55112e-17
58 1 4.30506 208.177 -5.55112e-17
59 1 184.656 92.4739 -5.55112e-17
60 2 162.677 98.7776 -5.55112e-17
61 2 42.34 171.119 -5.55112e-17
62 1 20.2766 113.202 -5.55112e-17
63 1 89.418 214.391 -5.55112e-17
64 1 145.179 46.452 -5.55112e-17
65 1 156.919 134.555 -5.55112e-17
66 1 119.486 110.146 -5.55112e-17
67 1 120.602 112.486 -5.55112e-17
68 1 56.6936 212.623 -5.55112e-17
69 1 108.855 181.894 -5.55112e-17
70 1 33.265 97.8987 -5.55112e-17
71 1 166.696 153.775 -5.55112e-17
72 1 149.088 58.3879 -5.55112e-17
73 1 165.704 151.482 -5.55112e-17
74 1 166.981 7.62234 -5.55112e-17
75 2 115.95 211.376 -5.55112e-17
76 1 1.51334 44.9531 -5.55112e-17
77 1 209.172 205.677 -5.55112e-17
78 1 91.1083 181.985 -5.55112e-17
79 2 95.005 44.3757 -5.55112e-17
80 1 72.2596 135.534 -5.55112e-17
81 1 142.795 116.129 -5.55112e-17
82 1 86.707 162.631 -5.55112e-17
83 2 118.159 158.698 -5.55112e-17
84 1 203.358 22.1911 -5.55112e-17
85 1 66.2511 118.823 -5.55112e-17
86 1 106.06 119.548 -5.55112e-17
87 1 66.1094 40.2739 -5.55112e-17
88 1 4.3383 6.47918 -5.55112e-17
89 2 50.63 9.12397 -5.55112e-17
90 2 206.616 177.732 -5.55112e-17
91 1 202.315 71.4583 -5.55112e-17
92 2 157.677 200.168 -5.55112e-17
93 1 127.918 29.2381 -5.55112e-17
94 2 151.473 24.0651 -5.55112e-17
95 1 37.229 212.104 -5.55112e-17
96 1 200.373 80.4552 -5.55112e-17
97 1 182.2 16.6934 -5.55112e-17
98 1 99.1486 77.3364 -5.55112e-17
99 1 166.829 64.7111 -5.55112e-17
100 1 148.48 177.543 -5.55112e-17
101 1 104.974 53.1036 -5.55112e-17
102 1 12.7687 68.7568 -5.55112e-17
103 1 58.3681 23.2152 -5.55112e-17
104 1 207.655 120.363 -5.55112e-17
105 1 105.912 44.972 -5.55112e-17
106 1 101.834 106.129 -5.55112e-17
107 2 131.229 83.5135 -5.55112e-17
108 1 74.4688 182.488 -5.55112e-17
109 1 16.2282 120.448 -5.55112e-17
110 1 31.8775 83.5622 -5.55112e-17
111 1 59.352 5.53509 -5.55112e-17
112 1 42.4187 168.115 -5.55112e-17
113 1 138.127 115.641 -5.55112e-17
114 1 135.006 27.9952 -5.55112e-17
115 1 88.5288 181.767 -5.55112e-17
116 2 16.2531 146.438 -5.55112e-17
117 1 194.76 198.426 -5.55112e-17
118 1 163.427 13.5825 -5.55112e-17
119 2 12.0752 108.326 -5.55112e-17
120 1 12.6532 201.682 -5.55112e-17
121 1 181.116 60.521 -5.55112e-17
122 1 110.105 15.249 -5.55112e-17
123 1 146.602 95.4159 -5.55112e-17
124 1 185.349 191.75 -5.55112e-17
125 1 146.627 85.1985 -5.55112e-17
126 1 35.3094 43.1344 -5.55112e-17
127 1 190.251 65.1139 -5.55112e-17
128 1 154.749 177.83 -5.55112e-17
129 1 18.84 147.925 -5.55112e-17
130 1 53.299 156.021 -5.55112e-17
131 1 172.172 147.2 -5.55112e-17
132 2 211.268 212.591 -5.55112e-17
133 1 110.031 63.0795 -5.55112e-17
134 1 20.4147 25.386 -5.55112e-17
135 1 91.1938 13.551 -5.55112e-17
136 1 195.307 157.07 -5.55112e-17
137 1 73.7013 169.003 -5.55112e-17
138 1 58.5928 13.9233 -5.55112e-17
139 1 189.53 112.711 -5.55112e-17
140 2 128.433 206.989 -5.55112e-17
141 1 208.48 66.0224 -5.55112e-17
142 2 192.895 8.35727 -5.55112e-17
143 1 59.7093 132.67 -5.55112e-17
144 2 30.0928 202.098 -5.55112e-17
145 1 143.307 74.9053 -5.55112e-17
146 1 142.578 65.5195 -5.55112e-17
147 1 148.238 153.885 -5.55112e-17
148 1 45.8504 199.949 -5.55112e-17
149 1 68.7955 44.4291 -5.55112e-17
150 1 198.631 216.44 -5.55112e-17
151 1 10.8249 177.319 -5.55112e-17
152 1 36.8741 82.4135 -5.55112e-17
153 2 9.58342 208.271 -5.55112e-17
154 1 156.7 126.728 -5.55112e-17
155 1 148.049 175.123 -5.55112e-17
156 2 21.9202 172.057 -5.55112e-17
157 1 197.58 85.8981 -5.55112e-17
158 1 35.1463 7.32914 -5.55112e-17
159 1 1.65671 155.997 -5.55112e-17
160 1 18.7727 216.637 -5.55112e-17
161 1 62.1098 9.75006 -5.55112e-17
162 1 39.8696 117.341 -5.55112e-17
163 1 73.6535 25.8654 -5.55112e-17
164 1 153.915 92.0875 -5.55112e-17
165 1 166.884 199.142 -5.55112e-17
166 2 185.988 49.6734 -5.55112e-17
167 1 157.598 67.4929 -5.55112e-17
168 1 152.725 152.638 -5.55112e-17
169 1 81.4422 130.614 -5.55112e-17
170 1 110.525 160.766 -5.55112e-17
171 1 179.784 99.0487 -5.55112e-17
172 1 25.1737 69.586 -5.55112e-17
173 1 11.81 147.945 -5.55112e-17
174 1 89.3506 111.189 -5.55112e-17
175 2 155.327 164.46 -5.55112e-17
176 1 51.1865 118.983 -5.55112e-17
177 2 46.7956 80.1548 -5.55112e-17
178 1 38.9717 109.721 -5.55112e-17
179 1 198.526 137.417 -5.55112e-17
180 1 190.321 203.829 -5.55112e-17
181 1 197.085 178.244 -5.55112e-17
182 2 218.496 12.1797 -5.55112e-17
183 1 53.3303 144.12 -5.55112e-17
184 1 195.472 64.0783 -5.55112e-17
185 2 142.165 11.7573 -5.55112e-17
186 2 151.52 124.234 -5.55112e-17
187 1 99.2901 59.3277 -5.55112e-17
188 1 123.729 2.55354 -5.55112e-17
189 1 135.662 210.43 -5.55112e-17
190 2 55.4806 150.233 -5.55112e-17
191 1 140.399 15.6857 -5.55112e-17
192 2 9.63111 68.1493 -5.55112e-17
193 2 96.7289 170.851 -5.55112e-17
194 1 200.289 139.712 -5.55112e-17
195 1 208.561 185.443 -5.55112e-17
196 1 180.722 119.419 -5.55112e-17
197 1 41.7103 88.9729 -5.55112e-17
198 2 69.8498 153.215 -5.55112e-17
199 1 37.3354 209.716 -5.55112e-17
200 1 101.928 37.8479 -5.55112e-17
201 2 56.8376 114.699 -5.55112e-17
202 1 80.0524 29.3115 -5.55112e-17
203 1 183.814 72.5528 -5.55112e-17
204 1 158.604 122.556 -5.55112e-17
205 2 34.8924 83.9986 -5.55112e-17
206 1 106.05 136.521 -5.55112e-17
207 1 93.0733 49.5605 -5.55112e-17
208 1 63.02 93.7816 -5.55112e-17
209 1 93.7408 217.254 -5.55112e-17
210 1 14.8528 90.3687 -5.55112e-17
211 2 145.641 176.988 -5.55112e-17
212 1 183.35 50.9444 -5.55112e-17
213 1 181.091 68.1502 -5.55112e-17
214 1 72.9372 35.0484 -5.55112e-17
215 1 124.758 217.003 -5.55112e-17
216 1 188.473 83.8859 -5.55112e-17
217 1 126.9 161.968 -5.55112e-17
218 2 30.4522 128.56 -5.55112e-17
219 1 109.38 188.726 -5.55112e-17
220 2 123.91 79.5054 -5.55112e-17
221 1 216.752 53.9316 -5.55112e-17
222 1 134.01 96.9892 -5.55112e-17
223 1 49.7107 197.46 -5.55112e-17
224 2 50.893 187.255 -5.55112e-17
225 1 199.682 132.889 -5.55112e-17
226 1 214.87 190.293 -5.55112e-17
227 2 41.1143 208.906 -5.55112e-17
228 1 105.506 134.007 -5.55112e-17
229 1 8.33507 152.773 -5.55112e-17
230 1 160.391 147.287 -5.55112e-17
231 1 143.778 70.2988 -5.55112e-17
232 1 217.937 67.9942 -5.55112e-17
233 1 23.7727 87.2651 -5.55112e-17
234 1 115.055 44.9675 -5.55112e-17
235 1 210 85.4137 -5.55112e-17
236 1 69.4756 117.902 -5.55112e-17
237 1 204.549 159.607 -5.55112e-17
238 1 102.854 133.6 -5.55112e-17
239 2 56.6095 107.752 -5.55112e-17
240 1 118.636 210.969 -5.55112e-17
241 2 129.413 189.708 -5.55112e-17
242 2 201.799 205.796 -5.55112e-17
243 2 82.7661 21.6061 -5.55112e-17
244 1 83.3884 57.1944 -5.55112e-17
245 1 56.2718 104.713 -5.55112e-17
246 1 144.61 125.783 -5.55112e-17
247 1 186.975 81.8472 -5.55112e-17
248 1 148.118 1.97278 -5.55112e-17
249 1 1.29199 80.4306 -5.55112e-17
250 2 132.701 23.2683 -5.55112e-17
251 1 131.815 41.6127 -5.55112e-17
252 1 193.447 14.0901 -5.55112e-17
253 1 158.692 41.1315 -5.55112e-17
254 2 61.4091 155.376 -5.55112e-17
255 1 195.632 167.783 -5.55112e-17
256 1 80.7582 159.155 -5.55112e-17
257 1 25.6582 141.467 -5.55112e-17
258 2 164.723 32.9887 -5.55112e-17
259 1 69.0539 101.642 -5.55112e-17
260 1 82.0587 94.5201 -5.55112e-17
261 1 208.216 183.032 -5.55112e-17
262 1 49.1131 82.1279 -5.55112e-17
263 1 32.9039 66.5649 -5.55112e-17
264 1 172.267 6.21788 -5.55112e-17
265 1 4.34486 31.3079 -5.55112e-17
266 1 182.541 14.0592 -5.55112e-17
267 1 211.1 104.684 -5.55112e-17
268 1 50.6612 35.2702 -5.55112e-17
269 1 118.537 85.3427 -5.55112e-17
270 1 106.147 97.756 -5.55112e-17
271 1 64.9269 91.872 -5.55112e-17
272 1 182.375 177.677 -5.55112e-17
273 1 64.6248 211.986 -5.55112e-17
274 2 113.352 80.0586 -5.55112e-17
275 1 72.9125 86.4494 -5.55112e-17
276 2 62.1843 4.63754 -5.55112e-17
277 2 139.152 85.2059 -5.55112e-17
278 1 56.7878 152.766 -5.55112e-17
279 2 91.9494 26.1157 -5.55112e-17
280 1 7.68917 26.4336 -5.55112e-17
281 1 108.046 216.777 -5.55112e-17
282 1 114.425 189.987 -5.55112e-17
283 1 127.109 140.832 -5.55112e-17
284 1 96.5031 55.7046 -5.55112e-17
285 1 216.056 206.95 -5.55112e-17
286 2 66.3545 218.869 -5.55112e-17
287 1 31.6229 125.857 -5.55112e-17
288 1 6.13808 94.0548 -5.55112e-17
289 1 55.4606 26.8452 -5.55112e-17
290 1 172.18 178.532 -5.55112e-17
291 1 157.885 137.114 -5.55112e-17
292 2 44.3971 16.8251 -5.55112e-17
293 2 104.577 10.0414 -5.55112e-17
294 1 134.449 46.1673 -5.55112e-17
295 1 112.665 214.902 -5.55112e-17
296 1 137.206 46.1479 -5.55112e-17
297 1 162.672 148.037 -5.55112e-17
298 1 164.428 217.781 -5.55112e-17
299 1 122.359 102.2 -5.55112e-17
300 2 53.2992 141.091 -5.55112e-17
301 1 18.5966 21.9529 -5.55112e-17
302 1 143.823 160.798 -5.55112e-17
303 2 46.8936 31.0153 -5.55112e-17
304 2 156.132 158.766 -5.55112e-17
305 1 76.2688 129.342 -5.55112e-17
306 1 20.229 19.6021 -5.55112e-17
307 1 30.757 155.429 -5.55112e-17
308 1 155.747 36.853 -5.55112e-17
309 2 90.1868 153.269 -5.55112e-17
310 1 12.9618 7.52508 -5.55112e-17
311 1 70.3507 73.3796 -5.55112e-17
312 1 161.407 134.244 -5.55112e-17
313 2 137.662 20.7206 -5.55112e-17
314 1 73.1069 94.9301 -5.55112e-17
315 1 121.105 143.642 -5.55112e-17
316 1 45.1787 19.5669 -5.55112e-17
317 1 14.3287 148.676 -5.55112e-17
318 1 125.738 200.255 -5.55112e-17
319 1 68.9148 20.1778 -5.55112e-17
320 1 111.113 78.3411 -5.55112e-17
321 1 55.5768 10.322 -5.55112e-17
322 1 139.647 128.547 -5.55112e-17
323 1 153.37 148.043 -5.55112e-17
324 1 83.7986 41.0447 -5.55112e-17
325 1 137.961 143.159 -5.55112e-17
326 1 95.6004 146.433 -5.55112e-17
327 2 120.079 174.19 -5.55112e-17
328 1 196.555 42.3257 -5.55112e-17
329 2 20.6296 140.015 -5.55112e-17
330 1 217.237 151.885 -5.55112e-17
331 1 162.9 181.497 -5.55112e-17
332 2 118.691 119.79 -5.55112e-17
333 1 53.5102 1.79833 -5.55112e-17
334 1 99.2386 175.937 -5.55112e-17
335 1 216.055 201.878 -5.55112e-17
336 1 168.77 124.851 -5.55112e-17
337 1 139.856 212.252 -5.55112e-17
338 1 166.492 19.7759 -5.55112e-17
339 1 94.2341 67.7148 -5.55112e-17
340 1 173.296 135.251 -5.55112e-17
341 1 131.25 173.992 -5.55112e-17
342 1 158.688 193.621 -5.55112e-17
343 1 165.068 76.6876 -5.55112e-17
344 1 85.7069 150.547 -5.55112e-17
345 1 40.4135 19.6005 -5.55112e-17
346 1 5.88098 167.252 -5.55112e-17
347 1 83.3073 99.3836 -5.55112e-17
348 1 122.574 154.403 -5.55112e-17
349 1 43.1239 41.0506 -5.55112e-17
350 2 65.9005 65.0049 -5.55112e-17
351 1 172.16 33.5364 -5.55112e-17
352 1 6.54432 138.423 -5.55112e-17
353 1 40.7599 213.609 -5.55112e-17
354 1 163.771 169.823 -5.55112e-17
355 1 93.0425 146.178 -5.55112e-17
356 1 17.8874 5.28424 -5.55112e-17
357 1 39.7797 176.035 -5.55112e-17
358 1 204.709 197.52 -5.55112e-17
359 1 193.319 140.132 -5.55112e-17
360 1 37.0028 122.102 -5.55112e-17
361 1 103.016 202.164 -5.55112e-17
362 1 205.427 217.181 -5.55112e-17
363 1 178.565 187.061 -5.55112e-17
364 2 170.447 117.208 -5.55112e-17
365 1 172.933 91.0968 -5.55112e-17
366 1 126.859 147.124 -5.55112e-17
367 1 53.8557 54.8015 -5.55112e-17
368 1 206.926 204.63 -5.55112e-17
369 2 103.774 213.613 -5.55112e-17
370 1 29.0618 13.487 -5.55112e-17
371 1 25.17 123.575 -5.55112e-17
372 2 214.963 67.9674 -5.55112e-17
373 2 147.794 5.00913 -5.55112e-17
374 1 171.817 45.8381 -5.55112e-17
375 1 199.307 103.471 -5.55112e-17
376 1 44.7359 169.183 -5.55112e-17
377 1 218.405 78.6248 -5.55112e-17
378 1 74.5045 166.42 -5.55112e-17
379 1 13.4633 87.8987 -5.55112e-17
380 1 173.634 138.305 -5.55112e-17
381 1 14.3046 190.152 -5.55112e-17
382 1 69.4317 51.8919 -5.55112e-17
383 1 139.288 77.0894 -5.55112e-17
384 1 31.1041 46.8855 -5.55112e-17
385 1 184.439 134.2 -5.55112e-17
386 2 61.2075 36.4431 -5.55112e-17
387 1 129.712 209.466 -5.55112e-17
388 1 94.4774 88.6166 -5.55112e-17
389 1 91.7929 188.955 -5.55112e-17
390 2 207.289 166.574 -5.55112e-17
391 2 201.336 14.0183 -5.55112e-17
392 1 71.092 184.541 -5.55112e-17
393 1 14.6615 24.7818 -5.55112e-17
394 1 64.8453 115.046 -5.55112e-17
395 1 57.8433 210.336 -5.55112e-17
396 1 209.042 176.026 -5.55112e-17
397 1 134.956 57.9036 -5.55112e-17
398 1 6.26685 195.607 -5.55112e-17
399 1 14.9477 1.63034 -5.55112e-17
400 1 108.009 32.1661 -5.55112e-17
401 1 117.337 172.876 -5.55112e-17
402 2 208.158 156.019 -5.55112e-17
403 1 10.4651 26.8246 -5.55112e-17
404 1 27.3104 111.662 -5.55112e-17
405 1 16.5859 198.179 -5.55112e-17
406 1 179.799 40.387 -5.55112e-17
407 2 35.783 48.7546 -5.55112e-17
408 1 63.1449 43.5962 -5.55112e-17
409 1 168.97 129.809 -5.55112e-17
410 1 45.3577 215.613 -5.55112e-17
411 1 176.454 163.365 -5.55112e-17
412 1 118.282 65.5704 -5.55112e-17
413 1 37.3445 134.412 -5.55112e-17
414 1 18.8815 208.69 -5.55112e-17
415 1 167.473 149.898 -5.55112e-17
416 1 62.7149 54.1978 -5.55112e-17
417 1 103.792 97.4776 -5.55112e-17
418 2 197.555 210.58 -5.55112e-17
419 1 118.488 143.596 -5.55112e-17
420 2 170.352 101.034 -5.55112e-17
421 1 33.0627 112.082 -5.55112e-17
422 1 147.884 192.855 -5.55112e-17
423 2 161.662 210.849 -5.55112e-17
424 1 108.042 165.582 -5.55112e-17
425 1 135.865 145.215 -5.55112e-17
426 1 148.898 113.327 -5.55112e-17
427 1 91.1705 121.886 -5.55112e-17
428 1 47.0782 175.151 -5.55112e-17
429 1 155.994 109.877 -5.55112e-17
430 1 169.093 19.2026 -5.55112e-17
431 1 156.455 161.479 -5.55112e-17
432 1 171.193 59.6886 -5.55112e-17
433 1 115.039 147.252 -5.55112e-17
434 1 48.1115 34.8509 -5.55112e-17
435 1 158.502 157.098 -5.55112e-17
436 1 30.7687 25.8106 -5.55112e-17
437 1 185.722 130.092 -5.55112e-17
438 2 112.625 47.6655 -5.55112e-17
439 1 87.9846 16.806 -5.55112e-17
440 1 213.776 90.9017 -5.55112e-17
441 1 185.798 173.192 -5.55112e-17
442 1 77.7058 208.091 -5.55112e-17
443 1 209.209 90.3088 -5.55112e-17
444 1 209.137 102.663 -5.55112e-17
445 1 125.284 54.7616 -5.55112e-17
446 1 188.03 120.641 -5.55112e-17
447 1 43.0206 183.836 -5.55112e-17
448 1 88.986 25.7529 -5.55112e-17
449 1 155.825 114.919 -5.55112e-17
450 1 124.629 7.11891 -5.55112e-17
451 1 200.732 25.9948 -5.55112e-17
452 1 142.481 127.189 -5.55112e-17
453 1 186.507 175.634 -5.55112e-17
454 1 202.432 11.05 -5.55112e-17
455 1 70.3544 87.4397 -5.55112e-17
456 1 165.237 5.54844 -5.55112e-17
457 1 68.1145 71.9664 -5.55112e-17
458 1 173.422 205.804 -5.55112e-17
459 1 61.0612 41.746 -5.55112e-17
460 1 181.494 88.153 -5.55112e-17
461 1 183.439 180.23 -5.55112e-17
462 1 47.1169 131.436 -5.55112e-17
463 1 123.654 40.8432 -5.55112e-17
464 1 131.784 20.4214 -5.55112e-17
465 1 138.039 125.995 -5.55112e-17
466 1 36.5268 155.726 -5.55112e-17
467 1 38.1769 90.7926 -5.55112e-17
468 1 187.507 213.369 -5.55112e-17
469 1 54.8532 68.8271 -5.55112e-17
470 1 65.988 35.7943 -5.55112e-17
471 1 127.392 192.063 -5.55112e-17
472 1 44.2567 114.94 -5.55112e-17
473 1 79.5951 125.305 -5.55112e-17
474 1 85.0182 144.913 -5.55112e-17
475 1 121.696 203.331 -5.55112e-17
476 2 185.109 15.0484 -5.55112e-17
477 1 3.21789 97.9664 -5.55112e-17
478 1 3.25002 186.414 -5.55112e-17
479 1 215.662 51.7438 -5.55112e-17
480 1 87.385 37.8742 -5.55112e-17
481 1 213.326 115.295 -5.55112e-17
482 1 110.15 153.68 -5.55112e-17
483 1 133.236 154.523 -5.55112e-17
484 2 90.0481 70.9892 -5.55112e-17
485 1 65.7368 191.555 -5.55112e-17
486 1 82.3312 38.6998 -5.55112e-17
487 1 59.4772 9.73299 -5.55112e-17
488 1 56.8197 80.1537 -5.55112e-17
489 1 205.593 97.1186 -5.55112e-17
490 1 3.95836 37.9719 -5.55112e-17
491 1 175.181 75.98 -5.55112e-17
492 1 183.265 139.052 -5.55112e-17
493 1 148.649 216.761 -5.55112e-17
494 1 183.914 21.1189 -5.55112e-17
495 1 135.37 63.0441 -5.55112e-17
496 2 71.1306 204.038 -5.55112e-17
497 1 27.6784 3.4283 -5.55112e-17
498 1 111.781 125.222 -5.55112e-17
499 2 120.268 191.444 -5.55112e-17
500 1 73.4154 217.699 -5.55112e-17
501 2 145.227 2.2756 -5.55112e-17
502 2 135.538 160.067 -5.55112e-17
503 1 177.358 168.916 -5.55112e-17
504 1 122.737 141.575 -5.55112e-17
505 1 186.938 44.6249 -5.55112e-17
506 1 5.04086 160.306 -5.55112e-17
507 1 91.9011 143.762 -5.55112e-17
508 1 163.825 30.1397 -5.55112e-17
509 2 48.4466 74.4029 -5.55112e-17
510 2 157.757 119.593 -5.55112e-17
511 1 5.3433 33.785 -5.55112e-17
512 2 39.136 53.5559 -5.55112e-17
513 1 56.3994 194.834 -5.55112e-17
514 1 75.6516 72.6746 -5.55112e-17
515 1 3.71211 194.912 -5.55112e-17
516 1 9.59333 160.959 -5.55112e-17
517 1 100.122 100.94 -5.55112e-17
518 2 127.811 60.7984 -5.55112e-17
519 1 13.2689 22.2837 -5.55112e-17
520 2 49.1754 20.4201 -5.55112e-17
521 1 144.639 128.324 -5.55112e-17
522 1 15.4154 6.58062 -5.55112e-17
523 1 10.397 111.334 -5.55112e-17
524 1 28.3535 80.3853 -5.55112e-17
525 1 52.9148 182.14 -5.55112e-17
526 1 177.789 38.9625 -5.55112e-17
527 1 84.9707 211.357 -5.55112e-17
528 1 144.623 26.2721 -5.55112e-17
529 1 54.7193 170.908 -5.55112e-17
530 1 160.171 83.8319 -5.55112e-17
531 1 54.3365 152.884 -5.55112e-17
532 1 24.218 181.232 -5.55112e-17
533 1 96.8867 191.777 -5.55112e-17
534 1 103.725 143.464 -5.55112e-17
535 1 179.653 154.187 -5.55112e-17
536 1 167.081 145.002 -5.55112e-17
537 1 204.675 205.672 -5.55112e-17
538 1 178.67 72.8075 -5.55112e-17
539 1 78.2765 215.267 -5.55112e-17
540 1 113.006 102.535 -5.55112e-17
541 1 95.9077 0.00616305 -5.55112e-17
542 1 58.8507 2.96334 -5.55112e-17
543 1 108.024 172.605 -5.55112e-17
544 1 161.669 179.406 -5.55112e-17
545 1 49.0951 146.258 -5.55112e-17
546 1 171.737 15.3549 -5.55112e-17
547 1 186.852 144.678 -5.55112e-17
548 1 59.9608 178.377 -5.55112e-17
549 1 44.4055 6.11321 -5.55112e-17
550 2 189.279 133.333 -5.55112e-17
551 2 116.838 108.686 -5.55112e-17
552 2 125.253 171.515 -5.55112e-17
553 1 105.398 12.9579 -5.55112e-17
554 1 21.299 98.6359 -5.55112e-17
555 2 6.31379 90.0237 -5.55112e-17
556 1 172.094 194.212 -5.55112e-17
557 1 74.8945 23.2175 -5.55112e-17
558 1 151.759 150.249 -5.55112e-17
559 1 210.821 39.3736 -5.55112e-17
560 1 129.503 97.2975 -5.55112e-17
561 1 160.741 160.971 -5.55112e-17
562 1 165.343 155.904 -5.55112e-17
563 2 185.511 200.83 -5.55112e-17
564 1 4.23351 63.9681 -5.55112e-17
565 1 76.2253 213.886 -5.55112e-17
566 1 71.028 49.9083 -5.55112e-17
567 1 194.131 112.946 -5.55112e-17
568 1 84.2741 174.072 -5.55112e-17
569 1 93.7565 182.116 -5.55112e-17
570 1 133.259 135.457 -5.55112e-17
571 1 181.667 194.842 -5.55112e-17
572 1 78.2173 73.3715 -5.55112e-17
573 1 173.435 37.9883 -5.55112e-17
574 1 194.062 149.157 -5.55112e-17
575 1 5.17195 74.7561 -5.55112e-17
576 1 150.196 119.675 -5.55112e-17
577 1 180.21 9.39755 -5.55112e-17
578 1 125.658 207.303 -5.55112e-17
579 1 39.7359 192.603 -5.55112e-17
580 1 141.457 98.0807 -5.55112e-17
581 1 169.66 169.16 -5.55112e-17
582 1 53.9078 41.8807 -5.55112e-17
583 1 187.306 8.27289 -5.55112e-17
584 2 9.63534 163.837 -5.55112e-17
585 1 76.16 105.159 -5.55112e-17
586 1 151.885 181.788 -5.55112e-17
587 1 22.3962 73.5054 -5.55112e-17
588 1 24.5247 170.958 -5.55112e-17
589 1 125.595 0.355252 -5.55112e-17
590 1 68.5409 17.2434 -5.55112e-17
591 1 86.8428 166.703 -5.55112e-17
592 1 21.6758 115.562 -5.55112e-17
593 1 23.8479 197.364 -5.55112e-17
594 1 218.092 183.509 -5.55112e-17
595 1 98.3939 73.4695 -5.55112e-17
596 1 36.4252 40.9295 -5.55112e-17
597 2 210.798 18.918 -5.55112e-17
598 1 177.009 209.379 -5.55112e-17
599 1 45.5095 218.419 -5.55112e-17
600 1 129.464 9.27536 -5.55112e-17
601 1 76.5173 189.822 -5.55112e-17
602 1 107.413 25.3955 -5.55112e-17
603 1 18.5248 196.036 -5.55112e-17
604 1 99.2425 10.994 -5.55112e-17
605 2 118.257 113.936 -5.55112e-17
606 1 140.393 183.011 -5.55112e-17
607 2 132.061 177.037 -5.55112e-17
608 1 111.357 106.625 -5.55112e-17
609 1 51.8017 184.519 -5.55112e-17
610 1 184.462 152.145 -5.55112e-17
611 1 50.9671 166.349 -5.55112e-17
612 1 32.2551 49.1169 -5.55112e-17
613 1 193.684 158.957 -5.55112e-17
614 2 149.994 214.337 -5.55112e-17
615 1 119.317 216.127 -5.55112e-17
616 1 176.711 127.989 -5.55112e-17
617 1 57.4283 203.484 -5.55112e-17
618 1 201.267 179.711 -5.55112e-17
619 1 183.019 79.7198 -5.55112e-17
620 1 169.548 64.5338 -5.55112e-17
621 1 182.947 62.5957 -5.55112e-17
622 1 115.273 1.35392 -5.55112e-17
623 1 192.115 213.273 -5.55112e-17
624 1 30.8723 197.269 -5.55112e-17
625 1 187.456 118.186 -5.55112e-17
626 1 125.572 174.151 -5.55112e-17
627 1 54.0878 106.619 -5.55112e-17
628 1 59.5386 39.8474 -5.55112e-17
629 1 69.9147 110.141 -5.55112e-17
630 2 181.565 29.1657 -5.55112e-17
631 1 41.226 65.3657 -5.55112e-17
632 1 47.8182 94.4383 -5.55112e-17
633 1 34.9784 204.522 -5.55112e-17
634 1 185.017 89.6937 -5.55112e-17
635 1 136.999 100.896 -5.55112e-17
636 1 6.60987 103.154 -5.55112e-17
637 1 24.3353 49.2591 -5.55112e-17
638 1 3.48364 50.1937 -5.55112e-17
639 2 38.3138 43.4008 -5.55112e-17
640 1 148.541 136.644 -5.55112e-17
641 1 160.462 118.238 -5.55112e-17
642 1 195.14 76.1347 -5.55112e-17
643 2 186.809 41.6282 -5.55112e-17
644 1 89.8797 184.172 -5.55112e-17
645 1 109.74 12.4932 -5.55112e-17
646 2 22.2319 175.796 -5.55112e-17
647 1 124.968 9.5231 -5.55112e-17
648 1 126.105 89.4059 -5.55112e-17
649 2 200.147 121.162 -5.55112e-17
650 1 5.92068 176.646 -5.55112e-17
651 1 195.933 141.336 -5.55112e-17
652 1 169.439 16.5474 -5.55112e-17
653 1 140.637 176.674 -5.55112e-17
654 1 37.1935 23.5548 -5.55112e-17
655 2 184.163 86.9285 -5.55112e-17
656 1 208.481 148.962 -5.55112e-17
657 2 98.4251 18.6168 -5.55112e-17
658 1 26.5247 33.6381 -5.55112e-17
659 2 195.378 175.997 -5.55112e-17
660 1 75.5466 36.5808 -5.55112e-17
661 1 26.723 121.304 -5.55112e-17
662 1 41.3412 131.522 -5.55112e-17
663 1 87.9034 0.0712127 -5.55112e-17
664 1 175.609 61.4702 -5.55112e-17
665 1 165.131 52.5422 -5.55112e-17
666 2 67.9402 189.583 -5.55112e-17
667 1 159.723 46.9211 -5.55112e-17
668 2 78.7213 106.493 -5.55112e-17
669 1 75.5867 62.9177 -5.55112e-17
670 1 110.547 2.11498 -5.55112e-17
671 2 86.7122 198.772 -5.55112e-17
672 1 194.891 6.17613 -5.55112e-17
673 1 47.9812 23.6258 -5.55112e-17
674 1 208.381 180.339 -5.55112e-17
675 1 138.896 55.4815 -5.55112e-17
676 1 153.491 113.234 -5.55112e-17
677 1 130.298 158.393 -5.55112e-17
678 1 133.003 32.2979 -5.55112e-17
679 2 187.476 0.234189 -5.55112e-17
680 1 25.0044 7.03148 -5.55112e-17
681 2 142.256 17.8654 -5.55112e-17
682 1 196.03 29.7868 -5.55112e-17
683 1 49.7343 30.0017 -5.55112e-17
684 1 125.483 168.476 -5.55112e-17
685 1 202.994 47.6884 -5.55112e-17
686 1 42.3134 116.665 -5.55112e-17
687 1 145.556 162.763 -5.55112e-17
688 1 148.676 80.6633 -5.55112e-17
689 2 72.8938 38.0128 -5.55112e-17
690 1 81.3257 26.9574 -5.55112e-17
691 1 34.021 59.1659 -5.55112e-17
692 1 150.846 154.753 -5.55112e-17
693 1 96.5201 5.03739 -5.55112e-17
694 1 27.5793 184.094 -5.55112e-17
695 1 185.036 104.056 -5.55112e-17
696 1 164.367 69.7504 -5.55112e-17
697 1 139.687 157.329 -5.55112e-17
698 1 118.328 79.2394 -5.55112e-17
699 1 188.478 173.349 -5.55112e-17
700 1 19.7815 206.108 -5.55112e-17
701 1 35.2422 12.1103 -5.55112e-17
702 1 81.367 120.34 -5.55112e-17
703 2 190.564 138.699 -5.55112e-17
704 1 94.7829 200.793 -5.55112e-17
705 2 197.56 80.9779 -5.55112e-17
706 1 119.019 161.626 -5.55112e-17
707 1 132.341 52.8017 -5.55112e-17
708 1 29.4409 157.911 -5.55112e-17
709 1 147.479 202.129 -5.55112e-17
710 1 183.713 162.657 -5.55112e-17
711 1 134.023 84.8032 -5.55112e-17
712 1 186.072 184.65 -5.55112e-17
713 1 186.179 106.284 -5.55112e-17
714 1 142.288 46.5249 -5.55112e-17
715 1 67.2633 200.569 -5.55112e-17
716 1 77.2482 152.394 -5.55112e-17
717 1 198.36 68.6466 -5.55112e-17
718 1 168.494 171.351 -5.55112e-17
719 2 58.4752 95.8528 -5.55112e-17
720 1 76.2408 65.3898 -5.55112e-17
721 1 213.301 106.237 -5.55112e-17
722 1 91.9583 56.6694 -5.55112e-17
723 2 17.7994 39.4269 -5.55112e-17
724 1 4.7586 205.729 -5.55112e-17
725 1 26.674 86.8189 -5.55112e-17
726 1 49.9683 58.5983 -5.55112e-17
727 1 172.884 188.292 -5.55112e-17
728 2 216.383 128.091 -5.55112e-17
729 1 113.051 171.042 -5.55112e-17
730 1 50.6615 177.53 -5.55112e-17
731 1 83.9084 193.706 -5.55112e-17
732 1 79.1252 24.9316 -5.55112e-17
733 1 37.3027 30.5093 -5.55112e-17
734 1 216.015 14.8851 -5.55112e-17
735 1 26.697 14.3522 -5.55112e-17
736 2 25.2947 73.0983 -5.55112e-17
737 1 31.4466 109.888 -5.55112e-17
738 1 216.237 196.518 -5.55112e-17
739 1 117.177 152.037 -5.55112e-17
740 1 65.6837 171.479 -5.55112e-17
741 2 200.923 40.3307 -5.55112e-17
742 1 12.1713 38.8385 -5.55112e-17
743 1 52.3121 88.3928 -5.55112e-17
744 2 192.004 153.774 -5.55112e-17
745 1 130.778 2.00159 -5.55112e-17
746 1 217.603 6.90044 -5.55112e-17
747 2 204.836 19.7741 -5.55112e-17
748 1 38.5362 207.419 -5.55112e-17
749 1 203.095 218.049 -5.55112e-17
750 1 5.85437 133.541 -5.55112e-17
751 1 38.0499 46.4076 -5.55112e-17
752 1 152.578 163.532 -5.55112e-17
753 1 109.164 144.52 -5.55112e-17
754 1 201.316 208.664 -5.55112e-17
755 1 132.519 216.826 -5.55112e-17
756 2 148.433 182.221 -5.55112e-17
757 1 206.811 196.284 -5.55112e-17
758 1 2.23015 174.521 -5.55112e-17
759 1 90.7215 134.671 -5.55112e-17
760 1 130.117 62.4899 -5.55112e-17
761 1 119.317 208.374 -5.55112e-17
762 1 6.7547 72.6945 -5.55112e-17
763 1 59.1908 100.988 -5.55112e-17
764 2 141.116 179.959 -5.55112e-17
765 1 51.9694 40.4851 -5.55112e-17
766 1 108.322 22.7287 -5.55112e-17
767 1 92.8902 106.734 -5.55112e-17
768 1 192.452 202.388 -5.55112e-17
769 1 90.4346 49.5455 -5.55112e-17
770 2 82.6961 115.741 -5.55112e-17
771 1 168.152 206.417 -5.55112e-17
772 1 101.607 57.7821 -5.55112e-17
773 1 124.892 182.988 -5.55112e-17
774 1 115.767 105.835 -5.55112e-17
775 1 111.788 19.6727 -5.55112e-17
776 1 28.1009 6.04093 -5.55112e-17
777 1 167.164 193.505 -5.55112e-17
778 1 211.461 207.165 -5.55112e-17
779 1 170.144 4.43194 -5.55112e-17
780 1 173.789 124.608 -5.55112e-17
781 1 78.5344 130.056 -5.55112e-17
782 1 191.365 36.3648 -5.55112e-17
783 1 150.896 10.8707 -5.55112e-17
784 2 212.313 96.3007 -5.55112e-17
785 1 131.588 204.37 -5.55112e-17
786 1 118.02 180.834 -5.55112e-17
787 1 168.273 21.6621 -5.55112e-17
788 1 164.25 35.8768 -5.55112e-17
789 2 167.923 104.458 -5.55112e-17
790 1 74.693 59.7196 -5.55112e-17
791 2 55.4066 176.505 -5.55112e-17
792 2 213.202 5.32315 -5.55112e-17
793 2 143.095 62.5972 -5.55112e-17
794 1 80.7914 214.189 -5.55112e-17
795 1 168.781 49.5858 -5.55112e-17
796 1 87.3687 27.9128 -5.55112e-17
797 1 169.056 135.481 -5.55112e-17
798 2 203.774 30.1925 -5.55112e-17
799 2 216.172 92.897 -5.55112e-17
800 2 85.5127 1.6414 -5.55112e-17
801 1 53.8592 132.629 -5.55112e-17
802 1 87.2924 98.912 -5.55112e-17
803 1 187.695 69.9166 -5.55112e-17
804 2 91.7937 46.7072 -5.55112e-17
805 1 0.468933 128.877 -5.55112e-17
806 1 48.364 154.219 -5.55112e-17
807 2 90.1368 85.0574 -5.55112e-17
808 1 60.1206 98.3543 -5.55112e-17
809 2 6.30934 116.845 -5.55112e-17
810 1 131.901 199.612 -5.55112e-17
811 1 213.711 210.767 -5.55112e-17
812 1 132.747 29.2742 -5.55112e-17
813 2 153.569 105.135 -5.55112e-17
814 1 82.7627 96.8068 -5.55112e-17
815 1 90.8186 160.322 -5.55112e-17
816 1 196.141 14.2511 -5.55112e-17
817 1 155.522 5.98523 -5.55112e-17
818 1 53.8921 160.245 -5.55112e-17
819 1 45.4819 171.544 -5.55112e-17
820 1 29.601 169.566 -5.55112e-17
821 1 104.974 146.117 -5.55112e-17
822 2 5.46009 153.139 -5.55112e-17
823 2 124.619 70.7268 -5.55112e-17
824 1 62.2628 49.6915 -5.55112e-17
825 1 19.8867 4.0308 -5.55112e-17
826 1 17.6721 193.53 -5.55112e-17
827 1 179.205 145.524 -5.55112e-17
828 1 129.074 100.026 -5.55112e-17
829 1 155.033 215.547 -5.55112e-17
830 1 63.0435 129.586 -5.55112e-17
831 1 189.784 17.2376 -5.55112e-17
832 1 33.3083 81.5677 -5.55112e-17
833 1 24.3221 59.6603 -5.55112e-17
834 1 116.868 25.1921 -5.55112e-17
835 1 42.4254 24.4684 -5.55112e-17
836 1 7.90011 48.3477 -5.55112e-17
837 1 33.2681 73.6091 -5.55112e-17
838 1 161.997 198.22 -5.55112e-17
839 2 196.247 172.933 -5.55112e-17
840 1 142.073 26.8347 -5.55112e-17
841 2 81.3267 184.488 -5.55112e-17
842 1 88.184 60.8292 -5.55112e-17
843 2 174.682 151.454 -5.55112e-17
844 1 35.4856 196.596 -5.55112e-17
845 1 94.049 172.585 -5.55112e-17
846 1 138.114 176.252 -5.55112e-17
847 1 102.534 178.849 -5.55112e-17
848 1 138.23 74.7346 -5.55112e-17
849 1 189.146 136.184 -5.55112e-17
850 1 215.688 135.22 -5.55112e-17
851 1 76.777 32.0173 -5.55112e-17
852 1 137.604 195.176 -5.55112e-17
853 1 75.4898 142.523 -5.55112e-17
854 1 114.647 110.398 -5.55112e-17
855 1 112.606 73.9432 -5.55112e-17
856 1 93.3676 191.178 -5.55112e-17