ITEM: TIMESTEP
40000000
ITEM: NUMBER OF ATOMS
810
ITEM: BOX BOUNDS pp pp pp
-2.4754144463 80.3101919649
-2.4754144463 80.3101919649
-2.4754144463 80.3101919649
ITEM: ATOMS id type x y z Cluster
59 2 60.9585 76.6067 21.4558 3
88 2 68.2994 60.9058 60.3834 1
90 2 57.1581 72.1199 21.3305 3
110 2 1.48565 77.0919 70.1053 2
150 2 18.297 56.4734 11.9192 4
198 2 47.1564 32.9167 40.3205 3
232 1 15.7357 99.6593064112 64.5426 2
244 2 28.6398 97.6610064112 72.1012 1
280 2 58.7497 81.8028914112 86.9916964112 1
405 2 9.96041 99.0494064112 68.6269 2
426 2 42.0783 70.8654 62.9198 1
469 2 10.6557 78.0071 57.9776 2
495 2 30.3432 76.6772 37.4491 5
557 2 58.7671 79.6398 87.8084764112 1
609 1 38.874 76.2518 83.0774554112 1
642 2 64.2643 60.538 56.0602 1
656 2 17.5443 91.8819164112 54.2122 2
659 2 20.6529 52.6442 23.8252 4
661 2 20.161 102.9014064112 59.7614 2
684 1 25.7389 86.7679864112 81.1032464112 1
700 2 16.5466 115.3595064112 86.5657164112 2
732 2 17.0798 104.2258064112 68.1046 2
864 1 49.412 67.0504 71.2385 1
895 2 15.31 120.5958064112 65.073 2
917 2 53.7637 22.8937 33.8367 3
976 2 39.9889 61.804 73.8329 1
1070 2 31.3196 95.4953064112 69.8332 1
1131 1 14.2052 119.5094064112 85.6723864112 2
1148 2 45.6455 69.1723 80.9767164112 1
1180 2 -7.2517064112 73.1558 70.5648 2
1207 2 50.5004 71.8969 63.73 1
1209 1 65.3109 59.3617 19.1545 3
1220 2 63.0621 36.5955 21.5055 3
1283 2 17.7665 116.1474064112 84.1633164112 2
1300 2 15.188 57.2862 14.9732 4
1336 1 28.7316 63.3593 29.8196 5
1365 2 13.4236 74.8156 58.6773 2
1366 1 6.59321 55.2198 33.3002 4
1368 2 10.8824 80.0874 53.6096 2
1384 1 17.7726 58.6085 5.8744 4
1434 2 17.2479 61.6595 23.284 4
1440 1 19.438 122.5325064112 73.4641 2
1471 1 16.5617 94.6194064112 54.9896 2
1511 1 1.74194 80.5707364112 73.07 2
1648 2 41.5936 69.6885 79.1091 1
1670 2 43.8488 53.834 69.0031 1
1699 1 17.4052 85.8991764112 69.6278 2
1769 2 51.4134 64.0429 62.2289 1
1776 2 36.2363 86.0112264112 76.8904 1
1780 2 9.96063 80.3051864112 55.8087 2
1815 2 57.7027 43.5778 20.1003 3
1848 1 17.0353 57.6154 21.1351 4
1878 2 53.1983 80.0606 35.7892 3
2014 2 19.4195 56.1234 21.2571 4
2039 2 -12.4090064112 68.2559 80.2745 2
2079 1 14.7407 105.1622064112 67.5536 2
2111 2 52.3929 65.7366 29.3863 3
2122 2 -5.1993064112 87.3530664112 58.3707 2
2193 2 32.1567 72.9478 37.3122 5
2215 2 47.6482 75.3663 63.0512 1
2227 2 4.23237 61.4694 40.0612 4
2230 1 -2.6658064112 90.4164464112 61.2186 2
2308 1 9.88615 82.9341014112 57.1573 2
2320 1 13.1397 54.3827 9.59689 4
2356 2 26.9281 64.8238 28.8122 5
2415 2 39.0087 74.8792 67.9814 1
2418 2 48.759 58.0224 31.1584 5
2438 1 3.83377 55.2451 37.3985 4
2457 2 14.5576 83.6325624112 72.9304 2
2493 2 42.618 87.1881264112 91.1293964112 1
2618 2 37.3195 79.6932 78.4828 1
2698 2 14.1276 102.4742064112 68.1461 2
2702 2 45.0562 93.7020064112 87.8498664112 1
2730 2 11.066 114.8767064112 74.7196 2
2781 2 18.3326 96.3593064112 50.5577 2
3079 2 2.22727 78.7362 75.2584 2
3150 2 -0.209065 79.1673 74.837 2
3162 2 36.0774 78.9387 84.8303364112 1
3253 1 59.0605 76.7097 36.5725 3
3255 2 17.9845 100.1883064112 67.567 2
3293 1 1.33901 57.9308 34.1984 4
3313 1 35.3552 69.4033 33.179 5
3336 2 12.7096 100.6861064112 61.0971 2
3338 1 56.544 72.8242 18.532 3
3405 2 45.1562 55.2501 67.028 1
3434 2 45.2296 70.6881 79.084 1
3488 2 47.7773 77.0612 65.2752 1
3573 2 4.80216 80.2166464112 64.6974 2
3625 1 45.6176 67.8353 61.4468 1
3727 2 14.7666 58.56 29.571 4
3747 2 49.1655 68.4779 75.5057 1
3765 2 41.5112 69.1949 69.796 1
3835 2 35.321 88.1991364112 86.4974164112 1
3884 2 57.7623 55.8505 24.6557 3
3899 2 5.39809 78.106 71.1607 2
3900 2 12.2418 114.5016064112 87.6099164112 2
3943 2 21.6217 57.8297 9.82859 4
3978 1 39.4398 65.2882 67.5865 1
4071 2 39.2278 70.6469 68.9228 1
4114 2 48.8453 68.3213 66.3099 1
4175 1 19.7003 52.2235 7.48533 4
4238 2 58.6295 68.7873 66.0541 1
4268 2 15.1758 73.9075 57.1695 2
4277 2 45.6795 66.8818 58.6198 1
4462 1 52.5977 51.309 19.4866 3
4494 2 -4.6557064112 79.4373 73.2678 2
4515 2 -2.5042064112 76.1387 65.9212 2
4520 2 38.141 59.6081 63.1723 1
4525 2 61.2395 80.9356564112 19.0001 3
4626 2 66.7111 52.0563 23.2336 3
4671 1 46.5434 66.3508 77.0363 1
4674 2 20.3265 57.7174 6.61328 4
4784 1 16.4255 102.0515064112 66.5423 2
4821 1 13.4331 101.5417064112 65.5409 2
4882 1 50.8967 56.1352 32.1879 5
4966 2 49.4908 73.3501 81.3021264112 1
5010 2 48.2633 74.02 85.5801864112 1
5037 2 52.1586 72.4165 21.4124 3
5152 2 45.4378 55.7602 69.3169 1
5209 1 52.2166 24.9423 34.5677 3
5235 1 59.0579 66.1701 66.8972 1
5237 1 10.896 54.3339 34.9415 4
5282 2 -15.2565064112 69.7246 81.3952764112 2
5311 2 39.0998 64.4036 73.4377 1
5344 1 54.7459 73.8728 62.8836 1
5360 2 42.1074 70.3802 73.4047 1
5369 2 5.94655 54.3906 36.0745 4
5393 2 28.5327 96.5825064112 66.4661 1
5515 2 62.1402 79.8607 16.8561 3
5592 2 55.8811 43.3966 21.4171 3
5636 2 44.9667 72.6745 80.1443 1
5647 1 13.6057 104.7386064112 75.5461 2
5708 2 15.5843 85.5461964112 50.2563 2
5842 2 30.6511 92.8115064112 71.8438 1
5857 2 57.2667 79.9915 85.8937164112 1
5883 2 12.5861 59.3535 30.5871 4
5979 2 5.59021 56.6746 35.4666 4
6037 2 36.9026 65.6777 73.4962 1
6121 2 40.9251 61.4323 66.6578 1
6270 2 15.5039 52.7366 14.9764 4
6282 2 47.3862 38.6581 29.1778 3
6290 2 52.3461 34.7994 26.7451 3
6319 1 58.5268 64.0023 72.7746 1
6413 2 38.042 72.9981 69.3974 1
6465 2 50.49 73.2287 61.4393 1
6468 2 45.9357 64.6092 57.4051 1
6488 1 50.1111 70.9561 82.1480644112 1
6491 1 68.5764 63.2627 58.969 1
6504 2 50.7702 72.7337 77.1187 1
6520 2 -7.6417064112 85.7266664112 52.1977 2
6532 2 33.9891 96.6829064112 72.5344 1
6597 2 57.7783 63.061 64.8629 1
6630 2 40.79 88.8001164112 90.9634664112 1
6636 2 16.7555 118.6950064112 84.0273264112 2
6645 1 -8.8706064112 82.3702534112 57.965 2
6648 2 12.0086 89.3321364112 67.9941 2
6687 2 58.6349 76.5251 21.6786 3
6730 2 17.1508 113.9457064112 79.5338 2
6791 2 58.3346 65.9565 70.7499 1
6793 1 10.5581 84.9045564112 59.9864 2
6844 2 -17.4976064112 70.728 82.0588744112 2
6885 2 54.3102 77.9336 35.3739 3
6903 2 48.1544 64.662 75.2251 1
7047 2 40.3891 71.9854 28.6761 5
7059 2 48.0942 74.6276 65.5048 1
7083 2 15.1259 54.1252 11.6604 4
7095 2 32.8749 74.639 84.0940864112 1
7102 1 12.6006 96.0938064112 65.3401 2
7109 2 22.2953 58.1846 7.72873 4
7157 2 53.3151 73.1413 75.9227 1
7164 2 3.71185 78.1949 73.4849 2
7182 2 59.0446 70.8261 63.1955 1
7204 2 53.5926 53.7277 35.6034 5
7237 2 14.62 53.6958 17.0215 4
7269 2 14.0258 116.5548064112 72.2311 2
7276 2 53.6618 64.5518 72.0702 1
7420 2 49.3611 77.2234 63.0589 1
7488 2 64.1265 56.8481 21.9372 3
7493 2 46.3718 54.2169 71.2718 1
7494 2 54.6688 77.208 31.2314 3
7505 2 6.88834 81.1221664112 63.4698 2
7535 2 68.4354 50.6819 22.527 3
7549 1 48.2871 55.6294 69.8892 1
7593 1 14.264 89.8172664112 50.9861 2
7599 2 11.8019 89.2719264112 65.6243 2
7641 1 56.0169 80.9212764112 58.1591 1
7659 2 14.6362 56.4981 24.0602 4
7672 2 30.9229 95.0638064112 72.8821 1
7673 2 12.2471 119.2220064112 88.6841164112 2
7715 2 31.1996 78.9338 83.6420814112 1
7739 1 57.2986 79.7297 56.0224 1
7823 2 -7.1798064112 80.3535064112 56.7024 2
7884 2 2.96522 84.2605364112 60.2445 2
8046 2 57.8113 79.0903 37.2699 3
8056 2 48.829 29.0357 37.2604 3
8076 2 45.0048 91.1241164112 91.0461564112 1
8088 2 16.3323 114.2556064112 84.2873964112 2
8119 2 35.9564 95.3008064112 72.9866 1
8140 1 37.6402 72.9395 32.0506 5
8183 2 49.609 38.2879 27.9187 3
8201 2 18.4297 115.6084064112 77.6404 2
8248 2 53.7245 71.6285 23.3185 3
8258 2 14.3612 117.7829064112 66.7463 2
8267 1 28.1357 80.1601 32.278 5
8317 2 50.0589 30.6146 38.4523 3
8481 2 13.8557 118.9974064112 68.7925 2
8567 1 -0.569993 86.9759764112 66.3108 2
8601 2 12.8708 77.1509 58.1655 2
8682 2 48.288 64.4815 58.9513 1
8730 2 58.7494 66.4261 23.1896 3
8752 1 31.3531 97.4992064112 71.9048 1
8758 1 55.1916 67.4811 24.8656 3
8833 2 12.2896 87.1035964112 64.1869 2
8897 1 52.1895 28.1518 34.006 3
8925 2 49.6502 24.0514 34.4507 3
8968 2 21.8364 63.0319 22.6489 4
9007 2 30.28 73.5358 31.0445 5
9043 1 18.9981 119.1743064112 73.1994 2
9082 2 44.5522 58.9641 69.4023 1
9110 2 33.9582 69.3201 30.4948 5
9119 1 6.94342 61.2054 33.15 4
9223 2 53.2943 74.5785 80.8998564112 1
9284 2 29.2322 93.6052064112 73.5036 1
9398 1 60.2919 36.8384 21.3868 3
9455 2 37.6789 68.9327 27.8165 5
9493 1 41.568 65.003 72.4976 1
9495 2 42.6513 63.2059 77.1266 1
9510 2 29.0458 76.9329 39.87 5
9561 2 -3.5919064112 86.8422364112 56.603 2
9600 2 38.074 82.6292844112 87.3387564112 1
9708 2 9.92084 98.2879064112 70.8481 2
9726 1 45.0558 72.5541 69.0012 1
9747 2 53.1805 39.312 23.6362 3
9795 2 51.6825 32.2224 38.2508 3
9804 1 34.6339 85.7360264112 81.0700064112 1
9871 2 42.3562 57.9752 75.5789 1
9880 2 -4.5992064112 88.6953964112 60.3217 2
9895 2 16.3817 89.8703064112 52.7588 2
9899 2 51.7444 71.4301 60.5397 1
9924 2 11.9865 84.7784164112 57.5551 2
9940 1 60.1313 63.0464 66.4434 1
9982 2 41.7987 72.714 72.5786 1
10018 1 36.4619 68.4085 30.2647 5
10094 2 -7.6159064112 84.6141864112 57.015 2
10120 1 4.39983 58.5069 33.2258 4
10209 1 46.106 57.5857 71.4625 1
10288 1 34.9558 69.1467 27.2736 5
10370 2 66.8273 54.5219 21.9335 3
10420 1 18.9517 57.013 26.2744 4
10422 2 45.152 72.9141 71.7841 1
10482 2 16.6772 88.0712764112 67.3838 2
10507 1 -5.3681064112 84.5194964112 58.7191 2
10608 1 10.2406 91.8390764112 68.4601 2
10749 1 46.6847 73.1044 77.8852 1
10815 2 1.32922 86.5928664112 62.5073 2
10851 2 29.7079 94.3135064112 68.4792 1
10936 1 -10.3315064112 84.3605864112 55.6218 2
10938 2 50.4183 63.0837 59.209 1
11070 2 12.2373 120.1537064112 73.7961 2
11116 2 29.3802 96.7690064112 69.0499 1
11173 1 59.0359 53.9483 22.6548 3
11181 2 27.196 84.3639864112 81.8871014112 1
11322 2 3.65664 78.4033 65.6508 2
11336 2 58.7692 59.3577 23.0672 3
11420 2 30.6499 70.6894 36.0168 5
11449 2 45.2697 67.1651 56.1806 1
11496 2 6.46521 64.4011 36.8155 4
11501 2 44.3921 66.579 73.5346 1
11536 2 16.0784 60.4394 6.52063 4
11650 2 -8.8642064112 75.1133 74.4564 2
11664 2 55.4002 52.8609 20.4978 3
11718 2 55.4769 45.0359 19.7379 3
11749 1 68.8767 60.2807 57.5572 1
11765 2 41.5383 76.3106 77.9882 1
11766 1 0.974379 55.2071 35.8015 4
11774 2 19.1093 57.7459 23.0718 4
11793 1 17.1845 90.9226764112 50.4122 2
11860 2 52.2619 55.631 28.7927 5
11879 2 30.7608 76.0374 28.509 5
11979 2 -6.3427064112 81.8908224112 58.4144 2
12011 1 49.1783 34.9725 33.0638 3
12030 2 5.10907 76.0815 69.4479 2
12128 1 8.93963 82.3767864112 65.1942 2
12211 1 55.0331 67.7203 28.4124 3
12248 2 51.2793 65.9462 69.6838 1
12273 2 14.6568 101.5887064112 59.78 2
12282 2 6.82083 62.2457 36.286 4
12319 2 11.2455 81.0385264112 61.0053 2
12374 2 17.5435 56.4163 24.2551 4
12393 2 41.9305 66.4506 66.7932 1
12394 2 1.81023 81.5021564112 67.0644 2
12401 2 43.5398 65.0952 69.8208 1
12491 2 55.1579 48.1889 22.9243 3
12511 2 33.2982 67.5235 28.4589 5
12519 2 11.2878 98.9998064112 64.4126 2
12575 2 52.1873 53.5742 32.1965 5
12620 2 12.3832 98.5878064112 70.4613 2
12625 2 1.56398 79.1467 67.0872 2
12698 1 41.2428 66.6124 69.7085 1
12717 2 50.7553 57.3544 29.593 5
12740 2 6.42105 83.8919064112 64.2443 2
12774 1 17.3536 117.9740064112 75.7477 2
12820 2 14.1112 100.5417064112 70.4219 2
12846 2 39.9239 61.1294 68.8214 1
12857 2 26.8669 92.4633064112 72.8578 1
12863 2 -4.4030064112 84.7402764112 64.9736 2
12892 1 64.2562 38.1822 18.8523 3
12896 2 47.6965 31.2566 38.6913 3
12922 2 14.0388 91.3401764112 71.9308 2
12996 2 42.8508 62.8795 71.3404 1
13024 2 61.158 78.6586 87.2835364112 1
13069 2 31.75 68.9509 34.8961 5
13220 2 47.6112 73.6159 68.312 1
13225 1 57.2031 80.9017364112 51.6738 1
13250 2 40.587 63.8321 75.0727 1
13333 2 41.0189 77.0351 80.9551464112 1
13353 1 58.8387 81.5548764112 35.9281 3
13356 1 47.6009 71.7197 80.4474964112 1
13510 2 43.8556 55.3326 71.1164 1
13518 2 45.7852 93.0935064112 90.0497964112 1
13646 2 21.2109 80.9004964112 32.8429 5
13675 2 16.5436 56.4113 7.44453 4
13692 1 47.5159 70.0539 64.7097 1
13693 1 66.6239 56.8725 20.6721 3
13736 1 47.6115 67.7439 68.7856 1
13787 2 9.86474 85.1796064112 55.149 2
13791 1 -8.2157064112 86.5131364112 55.0562 2
13822 2 -1.28292 79.8959 77.3544 2
13841 2 27.0805 79.2468 29.8075 5
13845 2 13.5468 94.2352064112 69.8278 2
13911 2 43.1678 65.9426 26.9902 5
13924 2 32.2794 83.1935154112 77.6772 1
14007 2 47.1193 62.0232 31.1255 5
14052 2 55.9532 33.8772 21.8714 3
14064 2 53.7654 75.9138 29.2988 3
14179 1 35.0653 70.9016 38.0079 5
14207 2 10.4488 80.4777864112 58.4772 2
14217 2 3.7945 59.3253 30.1406 4
14264 2 64.0297 56.7763 19.4114 3
14282 2 34.3242 76.6524 85.5749364112 1
14362 2 32.279 78.9403 79.4716 1
14383 2 -0.0615079 61.7928 35.3387 4
14409 1 3.14869 57.1912 39.2258 4
14423 2 6.4362 88.9467164112 66.8296 2
14480 2 21.4399 92.1917164112 49.0312 2
14514 2 16.3116 90.2684564112 68.5195 2
14519 1 33.9236 66.3373 30.5629 5
14531 2 47.158 71.6977 86.0682464112 1
14547 2 -5.8998064112 85.7820664112 55.8358 2
14583 2 32.1118 67.2095 39.5529 5
14588 2 45.7988 64.337 30.8134 5
14642 1 60.8541 68.4919 23.5293 3
14689 1 37.6808 71.2292 29.1878 5
14697 2 12.3014 56.0533 33.4265 4
14743 1 48.5876 67.3892 62.9119 1
14744 1 25.5554 75.8634 32.7988 5
14810 2 3.32529 81.4178664112 62.9759 2
14814 2 51.0058 35.6414 34.6763 3
14869 2 19.2252 91.3019164112 52.414 2
14893 2 18.8901 88.5478064112 51.8362 2
14907 1 39.5632 65.6193 23.7846 5
14953 2 19.1825 101.6835064112 65.9309 2
14954 2 11.0426 120.0423064112 69.4424 2
15015 1 26.7319 90.4689364112 75.1869 1
15117 2 66.6601 67.376 55.8597 1
15181 2 6.92689 62.4523 38.6708 4
15238 2 54.1567 53.3085 18.5259 3
15270 2 54.872 79.7623 85.4282564112 1
15290 2 53.1276 78.4851 39.0008 3
15342 1 10.37 116.6679064112 76.6335 2
15343 2 38.7665 84.9228064112 87.1127064112 1
15399 2 19.1365 54.8314 8.69394 4
15403 2 36.0573 90.0292864112 74.6081 1
15420 2 -12.8553064112 72.7645 78.4176 2
15424 2 35.3792 65.1745 71.6141 1
15460 2 68.4188 63.134 61.5971 1
15472 2 39.6046 68.727 62.4618 1
15514 2 57.3492 61.2558 23.6475 3
15559 2 34.8837 89.3526864112 78.6756 1
15610 2 64.1086 62.5901 63.2567 1
15638 2 13.0961 87.6703264112 53.5141 2
15646 2 37.5075 61.5668 64.6403 1
15655 2 62.0858 63.8337 63.4344 1
15667 2 16.9895 56.2299 10.0559 4
15693 2 1.6228 76.8074 66.9871 2
15760 2 30.1536 64.5565 27.873 5
15776 2 1.97752 86.2647364112 60.3238 2
15780 1 -2.8498064112 85.8840764112 63.2053 2
15785 2 6.2685 81.9793734112 65.8091 2
15797 2 10.9441 53.3553 37.809 4
15812 1 12.5655 82.6535214112 59.0821 2
15852 2 46.0434 60.8657 67.6926 1
15855 2 7.86098 57.415 13.8136 4
15874 1 59.6938 41.6457 19.6012 3
15938 1 50.8883 51.3506 30.794 5
15942 2 12.1489 101.6549064112 73.9707 2
16034 2 13.1552 84.9229764112 64.2966 2
16078 2 55.2503 36.1347 23.2122 3
16098 2 36.8273 82.5030144112 78.652 1
16111 1 16.7331 83.0975194112 68.3739 2
16177 2 9.56479 78.9487 60.0371 2
16196 2 52.6785 77.6888 60.4299 1
16335 2 59.3042 39.4332 21.9861 3
16394 2 54.5947 34.6997 19.7191 3
16418 1 51.092 72.7075 74.4821 1
16495 2 30.5123 76.2556 31.131 5
16547 1 11.4672 117.5905064112 73.6404 2
16600 2 15.0036 86.2207864112 67.84 2
16666 1 10.803 116.9263064112 88.5080064112 2
16729 1 39.8764 86.3690164112 90.8566564112 1
16748 1 51.8789 72.5239 80.0018 1
16768 2 55.7516 65.4278 26.7608 3
16786 2 54.378 26.7078 34.6228 3
16799 2 15.2689 96.8009064112 55.0999 2
16857 2 9.22409 76.6661 56.7184 2
16918 2 64.4357 59.8106 60.8772 1
16964 2 49.7528 65.4934 60.9605 1
17008 2 -9.4444064112 74.2014 70.1134 2
17019 2 -15.8922064112 74.804 75.3286 2
17064 1 47.5729 75.0876 80.3466464112 1
17094 2 27.6245 63.7621 26.765 5
17104 2 31.2904 81.1978464112 79.1117 1
17153 1 54.7106 81.5138664112 54.3956 1
17166 2 55.2991 45.8461 22.0509 3
17186 2 48.9305 77.2451 78.9933 1
17188 1 61.5549 55.7581 21.94 3
17204 2 18.7626 114.1698064112 85.5510664112 2
17218 2 33.5673 78.4955 84.1838064112 1
17222 2 61.8884 78.7061 20.6351 3
17251 2 6.48754 60.4903 40.0182 4
17268 1 37.9159 88.5909264112 90.8740964112 1
17297 2 2.11097 82.0187344112 60.8381 2
17298 2 32.4331 73.6728 35.0924 5
17304 1 51.4971 51.3366 34.0592 5
17314 1 17.2306 117.8983064112 78.8031 2
17342 2 38.2119 95.8029064112 71.8698 1
17357 2 53.1576 66.6536 26.8833 3
17365 2 14.6321 110.4700064112 80.084 2
17385 2 5.4012 65.091 43.3197 4
17449 2 -11.0547064112 83.6039984112 58.1525 2
17482 2 -2.20686 74.3566 71.0279 2
17500 2 37.7537 66.9397 68.8089 1
17643 1 41.4786 86.3877664112 88.2969564112 1
17659 2 -12.1791064112 73.15 82.2930754112 2
17661 2 55.9925 75.0193 58.1949 1
17683 2 45.5626 56.6962 60.5886 1
17736 1 16.3448 101.0735064112 61.9581 2
17742 1 22.8502 77.1059 33.5352 5
17768 2 8.08726 53.4777 35.212 4
17775 2 11.6559 98.7358064112 72.9851 2
17812 1 0.830839 83.9466064112 58.6179 2
17837 1 14.3765 107.6695064112 79.7905 2
17898 2 55.3735 62.4813 62.0069 1
17964 2 50.2812 67.699 68.151 1
17999 2 15.5613 121.1972064112 87.4435964112 2
18006 2 17.2249 56.8448 18.6867 4
18009 2 16.3568 52.102 12.5976 4
18075 1 11.5004 83.2333054112 62.7992 2
18093 2 49.3794 66.2503 76.5812 1
18124 2 53.6887 79.133 58.7436 1
18233 1 53.9832 73.4348 28.9698 3
18270 2 0.317762 59.5807 36.3822 4
18309 1 50.0283 70.2786 58.3629 1
18317 2 17.5514 112.3059064112 77.8322 2
18331 1 54.9224 76.1021 60.5274 1
18390 2 25.0414 93.2936064112 74.8865 1
18404 2 20.5809 90.4628464112 50.8511 2
18426 1 -0.472321 78.0554 65.7679 2
18430 1 17.507 102.1950064112 59.5306 2
18455 2 19.1994 94.4765064112 55.1065 2
18469 2 43.9585 70.2854 61.4337 1
18525 2 10.6239 119.6451064112 71.915 2
18536 1 5.12426 56.5375 31.0243 4
18562 2 30.297 80.7689764112 42.0378 5
18578 2 61.1286 81.1677364112 87.5483264112 1
18589 2 9.97889 58.5224 14.1353 4
18649 2 11.9066 123.3970064112 70.272 2
18650 2 12.1164 91.6704464112 66.7105 2
18712 2 53.2717 81.0897764112 56.9964 1
18732 2 38.1651 81.4623664112 89.5729564112 1
18777 2 38.8899 58.6743 68.9336 1
18786 2 46.8038 69.2504 74.8208 1
18812 2 16.742 115.6383064112 74.4584 2
18877 2 11.8477 55.5696 17.2428 4
18930 1 17.9307 53.8545 10.8592 4
18951 2 51.1643 39.297 25.0368 3
18961 2 23.9395 64.2068 26.2354 5
18990 2 63.0739 68.6288 22.2042 3
18993 1 66.5709 61.698 56.9765 1
19039 1 20.7575 112.7139064112 84.0396564112 2
19040 1 17.8207 125.9181064112 73.0115 2
19212 2 52.4946 40.1178 20.8678 3
19246 1 -13.9696064112 71.425 83.5872764112 2
19277 2 -18.0366064112 74.6286 76.4793 2
19345 1 48.673 37.0491 31.0918 3
19371 2 52.7296 71.0154 83.1178294112 1
19396 2 28.4703 82.4461994112 81.1563264112 1
19433 2 35.0498 63.7116 30.4944 5
19455 1 60.2518 73.3998 24.6245 3
19578 1 58.0847 63.8377 22.8169 3
19582 2 -0.0130278 84.5215464112 67.3061 2
19610 2 49.0321 64.9289 63.448 1
19627 1 42.6329 70.601 28.109 5
19655 2 57.4377 68.9019 28.4013 3
19708 1 18.3185 102.4352064112 63.5825 2
19720 2 50.701 78.7931 79.8577 1
19731 2 35.5812 74.8626 84.5893664112 1
19741 1 15.3709 112.8813064112 81.7076164112 2
19807 2 34.3251 77.9741 80.6940564112 1
19823 2 -17.0470064112 72.5386 78.3964 2
19847 2 14.327 58.245 22.1993 4
19877 2 32.5513 76.8389 32.0955 5
19940 2 54.2239 73.8797 56.9267 1
19971 2 48.447 21.9973 35.6138 3
20024 2 15.2375 50.2038 13.5717 4
20085 2 -7.1741064112 86.3751664112 59.698 2
20104 1 -2.17945 85.3630264112 58.5 2
20169 2 19.6347 62.1467 23.0868 4
20185 2 30.9341 88.6796664112 72.8771 1
20225 2 39.1732 62.8384 66.552 1
20277 2 4.97294 63.9994 39.2448 4
20297 2 33.4197 64.209 33.0522 5
20380 2 -1.26235 83.9028364112 56.369 2
20389 2 40.2849 86.4321364112 85.8445364112 1
20420 1 55.1004 70.4607 28.7362 3
20455 2 15.475 120.5146064112 69.6706 2
20470 1 35.0026 88.2524364112 76.0134 1
20496 2 24.1053 85.7079264112 78.8903 1
20540 2 17.3114 51.9218 8.53683 4
20582 2 13.579 60.9479 23.1755 4
20588 2 51.3069 69.4175 84.3952764112 1
20741 2 34.3436 72.4633 69.6601 1
20823 1 5.21847 83.0250044112 61.8425 2
20827 2 30.8194 82.5853234112 81.3455864112 1
20865 1 16.2773 116.0873064112 81.4342164112 2
20936 1 14.9663 112.5968064112 78.3909 2
20965 2 56.2615 73.4902 60.3047 1
20966 2 50.0533 75.7218 77.7619 1
20978 1 43.5262 62.3098 66.7295 1
20988 2 14.3463 56.5207 8.54003 4
21094 2 42.7806 68.0716 75.1028 1
21099 2 56.0299 81.9703164112 37.4246 3
21106 2 11.6362 58.2887 32.295 4
21162 2 44.6069 58.0118 74.0682 1
21222 2 30.4618 89.2071364112 79.3177 1
21250 2 -7.5882064112 87.0731364112 57.4321 2
21259 2 15.5594 102.6035064112 64.1831 2
21261 2 39.9119 59.1661 64.8411 1
21268 1 -5.9916064112 84.9231964112 61.8553 2
21269 1 -2.28515 72.6469 67.2731 2
21332 1 62.1506 39.2101 20.5557 3
21389 2 38.9295 66.975 73.113 1
21394 2 38.2999 63.2605 68.9553 1
21397 2 38.3403 81.7545564112 82.9774214112 1
21446 1 56.3998 36.3211 20.6267 3
21516 2 62.8608 63.9037 65.8293 1
21532 2 32.6776 85.5488164112 78.8857 1
21561 2 15.7584 92.5818464112 67.8968 2
21622 1 13.3055 93.7913064112 67.4216 2
21639 2 46.2483 71.4216 73.4203 1
21663 1 14.5925 119.7138064112 82.6035744112 2
21703 2 37.8237 69.9868 32.0974 5
21725 2 -3.1955064112 73.8061 65.3353 2
21758 2 5.27686 65.6028 41.0127 4
21812 1 57.7548 75.2362 24.2972 3
21866 2 42.8213 73.7139 68.2515 1
21895 2 -14.6846064112 74.1191 82.9754754112 2
22066 2 8.40408 89.3024364112 68.9956 2
22079 1 2.93235 59.357 40.9052 4
22090 1 44.8065 62.531 69.4808 1
22093 2 17.6281 57.2239 28.8451 4
22158 2 4.56237 59.6545 38.6168 4
22207 2 43.2215 66.9392 60.3479 1
22233 1 50.3791 76.3371 65.3383 1
22282 2 12.471 118.2351064112 83.6547924112 2
22377 1 62.2828 71.414 22.8764 3
22442 1 9.23235 89.6094864112 66.431 2
22500 2 15.9711 57.4324 31.1444 4
22549 2 58.2199 71.4132 27.9058 3
22571 2 54.0746 72.569 84.1858564112 1
22605 2 38.4621 86.8607764112 88.2064964112 1
22613 2 43.2077 60.152 74.4224 1
22637 2 40.8025 67.0319 26.2419 5
22638 1 38.586 65.3996 70.8515 1
22667 2 -0.815342 73.759 69.1329 2
22755 2 58.0338 72.437 25.5339 3
22761 2 29.056 98.7085064112 67.8266 1
22795 2 36.042 78.7616 76.1597 1
22840 2 2.20548 60.3571 32.0859 4
22990 2 54.0718 73.7651 22.1441 3
23012 2 11.1078 53.7639 13.9035 4
23035 1 -7.7920064112 75.6375 71.9739 2
23102 1 45.1177 68.753 28.6666 5
23132 1 54.8476 24.3108 35.7158 3
23251 1 46.8965 69.5185 71.5064 1
23328 1 14.4228 99.5167064112 72.7451 2
23396 2 12.9557 121.2668064112 70.0343 2
23427 2 26.1289 63.1708 24.9559 5
23468 2 50.6214 39.0654 22.5587 3
23490 2 54.1926 52.6656 33.5111 5
23594 2 13.1618 84.9088364112 60.9536 2
23643 1 10.8371 56.3185 10.1283 4
23687 2 38.9251 83.2963574112 78.5398 1
23744 2 -1.92153 84.6823664112 65.6996 2
23748 1 59.7015 65.2293 64.2008 1
23764 2 30.7593 86.8108764112 79.2186 1
23786 2 35.0424 70.9174 28.9766 5
23812 1 12.5523 104.7190064112 78.2368 2
23814 2 48.7108 72.6629 73.438 1
23866 2 57.2354 54.3464 20.8558 3
23887 2 38.9856 68.3228 70.4155 1
23941 1 -13.4040064112 76.5353 76.3011 2
23944 1 64.1001 53.9735 22.148 3
24000 2 50.3769 67.6199 73.8614 1
24088 2 40.9905 66.3659 74.7964 1
24101 1 46.2285 33.74 37.5872 3
24230 2 -3.3863064112 87.4578964112 65.2269 2
24280 2 -5.9140064112 86.4072964112 66.0652 2
24317 2 50.4629 78.1145 60.5438 1
24395 2 44.1031 89.0473064112 91.7248564112 1
24406 2 46.2402 69.3657 92.4673864112 1
24435 2 53.058 63.1319 60.5695 1
24469 2 39.2258 98.3091064112 75.7287 1
24624 2 50.3828 37.0311 26.1486 3
24628 2 30.6321 91.6581764112 76.2015 1
24637 1 17.0356 53.6951 6.80606 4
24646 2 59.1729 80.1947 53.481 1
24657 1 13.0571 119.3040064112 64.6515 2
24660 2 21.8419 127.9088064112 69.7132 2
24706 2 32.7053 69.8257 32.7546 5
24725 2 35.8394 90.8830864112 71.9177 1
24791 2 15.0022 84.2366464112 62.2607 2
24813 2 67.583 61.0505 63.0785 1
24931 1 9.89657 55.9231 12.8206 4
24998 2 44.9891 70.7634 67.043 1
25049 2 59.1472 56.8111 22.9722 3
25085 2 -3.9433064112 86.2523364112 60.2969 2
25116 2 0.0830069 89.6163464112 65.8815 2
25117 1 45.9841 65.0968 63.3345 1
25168 1 38.4598 60.0799 66.7588 1
25240 1 43.3729 64.4284 29.5308 5
25255 2 13.823 123.2291064112 68.5458 2
25333 2 16.4105 58.4903 16.8547 4
25347 2 48.4891 60.4165 31.8099 5
25361 2 57.3835 70.0006 64.3668 1
25379 2 45.4816 66.0479 28.7854 5
25414 1 18.0769 113.5803064112 75.5093 2
25426 1 19.9798 55.1268 23.6561 4
25430 2 7.29988 57.6287 31.8616 4
25513 1 33.5799 85.5198064112 76.1629 1
25537 2 4.28982 61.2832 32.6977 4
25554 2 12.7457 84.6044264112 71.5571 2
25563 2 47.4676 70.9641 89.9436664112 1
25583 2 43.5795 64.8168 67.3539 1
25604 2 30.6572 78.4449 41.4253 5
25611 2 11.7199 121.9539064112 72.2045 2
25761 2 15.5793 85.3494464112 64.2242 2
25794 2 14.9247 87.1173264112 52.1653 2
25802 2 20.222 97.0326064112 54.9382 2
25842 2 50.1547 32.9103 36.4056 3
25882 1 15.7955 88.1751464112 69.984 2
25963 2 41.2201 63.0334 30.0229 5
26041 2 -11.6792064112 75.2094 74.5792 2
26065 1 48.8147 74.3989 75.7997 1
26126 2 37.4788 71.1083 34.014 5
26152 2 51.043 36.6181 21.8207 3
26185 1 47.3445 66.1948 65.637 1
26199 2 56.4397 83.4679494112 35.8074 3
26215 2 44.8925 90.4668564112 88.3709464112 1
26284 2 13.1154 54.0319 18.6893 4
26304 2 17.7386 98.5841064112 65.8421 2
26396 1 32.8401 64.236 28.4816 5
26402 2 32.2911 74.4027 32.1898 5
26413 2 19.5422 53.5629 21.6442 4
26499 2 54.5923 72.8451 78.6585 1
26531 2 38.6449 68.0625 77.016 1
26619 2 45.9415 65.322 74.3177 1
26681 2 45.5378 69.5768 69.2015 1
26683 2 49.7623 74.5908 63.5024 1
26709 1 53.8907 78.8733 83.2529144112 1
26799 1 32.9167 75.0226 29.5838 5
26817 2 16.3069 117.7308064112 73.1879 2
26828 1 67.2581 64.4503 55.9178 1
26846 2 52.0726 73.7215 64.4678 1
26854 2 52.6323 76.4292 82.4987184112 1
26909 2 59.0771 53.9306 25.6662 3
26919 2 49.4317 32.3695 34.0584 3
26926 1 61.7415 39.7452 17.294 3
26970 1 49.9614 75.6109 83.6697284112 1
26996 2 35.7222 66.9148 32.7158 5
26998 1 41.1128 58.8527 59.4803 1
27003 2 38.1268 97.1291064112 73.8008 1
27041 2 16.6913 87.9977764112 50.6821 2
27091 1 37.6206 87.1280164112 85.4372564112 1
27100 1 4.48991 53.5915 32.0636 4
27106 1 47.506 70.7184 67.8862 1
27122 2 14.9434 84.5248664112 69.6138 2
27125 1 40.7102 58.276 62.3003 1
27147 2 49.5369 73.5333 78.8658 1
27172 2 7.10902 84.4056764112 66.3628 2
27238 2 54.2644 76.5906 62.9804 1
27247 1 7.18832 60.0357 37.3824 4
27259 1 -1.75902 71.6252 70.257 2
27303 2 -10.3719064112 73.4281 75.8331 2
27331 2 66.1989 56.7007 23.169 3
27419 2 5.37995 60.2361 35.3289 4
27461 2 29.2975 76.8721 35.2401 5
27559 2 8.50192 57.031 15.9711 4
27583 2 56.4878 75.3772 17.6385 3
27636 2 19.2178 51.2382 10.0935 4
27659 2 35.3035 76.3275 29.7694 5
27703 2 18.1744 120.7575064112 75.4023 2
27732 2 45.0622 67.9837 75.7052 1
27830 2 44.9524 75.1976 79.3317 1
27847 2 -0.413389 77.6031 68.2017 2
27884 2 52.0401 48.7197 19.9097 3
27892 1 30.7472 68.2977 37.5299 5
27922 2 14.0153 101.1243064112 62.8805 2
27982 2 20.4692 78.5955 32.9715 5
28034 2 58.0019 37.4507 22.883 3
28040 2 17.0736 118.8479064112 81.4534164112 2
28106 2 52.5537 79.9803 81.1024064112 1
28121 2 69.799 52.0391 24.1566 3
28160 2 6.7389 85.4265264112 62.3619 2
28166 2 20.1476 56.0387 10.5174 4
28182 2 -17.6748064112 68.988 80.4588 2
28276 2 9.61263 82.4475264112 59.9941 2
28302 2 56.7978 82.8760063112 56.3891 1
28335 2 -5.6310064112 76.6096 73.1829 2
28439 1 41.3549 64.3091 25.6472 5
28496 2 14.1335 56.0748 21.3474 4
28497 2 9.43762 86.9412564112 66.3818 2
28525 2 16.7001 83.3880524112 64.6906 2
28565 1 -0.158637 74.9126 66.5981 2
28584 2 -6.1395064112 84.7821864112 53.8056 2
28591 2 41.7898 60.9555 72.5958 1
28603 1 44.0684 68.6324 78.1099 1
28643 2 13.2977 98.7332064112 65.7519 2
28816 2 67.9725 53.8165 24.1829 3
28826 2 26.8671 74.2903 31.0678 5
28869 1 41.5254 63.7373 68.72 1
28875 1 47.9281 31.6304 36.1006 3
28970 1 36.4536 86.0446464112 90.5328564112 1
29015 2 29.2505 94.2008064112 65.9555 1
29054 2 43.6297 57.9786 59.8172 1
29124 1 37.8454 85.3089764112 93.0577064112 1
29125 2 49.765 67.7757 57.4805 1
29165 2 40.0587 81.4271364112 88.3929464112 1
29173 1 33.1227 94.5259064112 71.4166 1
29222 2 44.0196 72.0755 73.6263 1
29292 2 44.0107 51.2051 69.2686 1
29306 2 -14.8745064112 71.3903 77.4977 2
29310 2 47.2854 32.9723 33.5046 3
29371 2 46.4043 60.3573 70.1261 1
29379 2 40.6016 57.2517 69.8309 1
29398 1 16.4267 101.8251064112 69.5152 2
29459 1 12.0952 86.4173864112 66.7526 2
29635 2 46.1499 67.7495 63.9468 1
29764 2 55.8304 65.1416 73.2573 1
29776 2 13.7234 102.4620064112 72.1819 2
29817 2 19.4542 126.7873064112 70.8849 2
29843 2 16.9239 111.3372064112 80.0485 2
29864 2 3.27797 78.8073 71.1472 2
29927 2 8.54459 85.0668264112 53.1475 2
29982 2 24.7481 94.5742064112 76.8196 1
30020 1 29.0522 90.5831164112 73.6586 1
30059 2 27.4621 77.5136 33.7186 5
30150 2 47.3964 65.5802 61.3723 1
30158 2 12.1901 84.5943564112 54.0403 2
30219 2 57.9457 67.5247 63.8654 1
30255 1 43.3881 65.5765 75.5182 1
30288 1 47.7086 72.7156 63.4003 1
30304 2 54.2792 81.3679064112 51.6894 1
30327 1 0.131506 82.8282147112 65.385 2
30332 2 -5.3818064112 86.7859764112 63.5957 2
30358 2 15.8975 54.0332 9.02282 4
30413 2 51.4781 82.6592934112 36.9394 3
30577 2 52.7915 72.2389 62.4657 1
30612 2 57.0499 66.3439 68.6487 1
30685 2 -4.5992064112 74.9131 71.8528 2
30688 2 46.7426 66.4633 71.1706 1
30697 2 15.9404 90.8100364112 70.9007 2
30702 2 55.6932 78.6748 32.9652 3
30750 2 19.3293 96.4949064112 52.8442 2
30768 2 19.2404 84.2583564112 71.1141 2
30796 2 60.3652 72.0374 27.0608 3
30897 2 51.7019 54.2427 34.3545 5
31091 1 32.9893 66.9526 33.2751 5
31109 2 71.2437 61.4124 58.4464 1
31113 1 56.3852 74.9881 21.066 3
31162 2 49.4971 28.1459 34.024 3
31182 2 -4.1240064112 70.7956 70.9807 2
31267 2 45.33 70.8471 56.4328 1
31334 1 32.8785 88.1164864112 80.6143564112 1
31343 2 14.2609 88.6862864112 67.765 2
31423 1 45.0035 71.0322 76.103 1
31438 2 39.1577 81.4728464112 85.0426564112 1
31474 2 53.092 31.4581 36.6959 3
31505 2 67.0193 59.2474 61.5205 1
31542 2 16.9151 124.6572064112 70.5732 2
31559 2 64.5637 57.957 54.6223 1
31651 2 53.0792 47.4297 21.6771 3
31678 2 21.6333 112.4916064112 81.5916964112 2
31692 2 18.9466 55.8405 6.52761 4
31782 1 50.8145 75.7294 80.4963864112 1
31867 2 24.3401 74.3949 29.9491 5
31918 2 35.8878 65.979 35.4218 5
31966 1 14.9284 102.0439064112 74.8566 2
31981 1 62.3874 74.3986 21.9297 3
31988 2 -15.8456064112 72.2322 75.7416 2
