ITEM: TIMESTEP
90000000
ITEM: NUMBER OF ATOMS
2379
ITEM: BOX BOUNDS pp pp pp
-2.4828191433 80.3175966618
-2.4828191433 80.3175966618
-2.4828191433 80.3175966618
ITEM: ATOMS id type x y z Cluster
29 2 34.5963 69.9284 51.7417 1
30 2 45.9516 40.8413 23.3691 3
31 1 26.4752 68.7431 74.5214 1
56 2 20.0511 77.0943 83.348300805 1
76 2 26.1737 0.473538 36.9815 1
79 1 15.4923 70.3735 74.8498 1
85 2 37.9699 65.3394 89.553175805 1
92 1 30.7654 32.3296 78.0318 1
103 2 30.893 81.321515805 79.792 1
162 2 38.1152 98.093515805 51.1088 1
172 2 2.87037 24.1719 34.7756 1
204 2 22.1597 76.8089 60.9934 1
212 2 -3.556415805 22.1739 -6.162715805 1
221 2 -30.380115805 22.7902 19.9287 1
224 2 15.5701 77.1149 62.8809 1
229 2 21.1766 71.9118 53.9205 1
245 2 35.0409 11.2638 14.0659 2
253 2 77.2951 -0.792712 74.2416 5
262 2 -15.738415805 36.294 54.9027 1
273 2 8.98337 -7.309815805 15.9434 1
281 2 43.8371 75.2258 65.4009 4
283 1 -1.8104 32.1736 15.4502 1
291 1 -14.863915805 33.0689 22.6989 1
292 1 -13.667215805 44.7707 57.8135 1
299 2 25.7733 75.8129 85.364885805 1
316 2 18.9262 72.4607 59.4912 1
324 1 39.4159 35.2755 77.6436 1
327 1 75.8242 4.63193 73.8246 5
334 1 54.3793 -0.362667 1.00676 2
335 2 27.5138 52.2515 56.8897 1
344 2 -0.222558 30.3346 2.06179 1
353 2 25.0649 81.451545805 52.9064 1
393 2 33.3136 75.1447 54.4848 1
401 2 45.1977 27.5308 71.2656 1
413 1 -7.542315805 31.2582 21.0373 1
426 2 1.33274 27.127 32.2842 1
447 2 76.7223 2.89823 77.1975 5
472 2 -10.618015805 51.4787 57.8651 1
480 2 3.87413 40.3845 25.3528 1
481 2 23.9306 28.5552 73.4855 1
482 1 -11.120915805 37.8444 42.7415 1
492 2 -36.569115805 26.9284 13.4317 1
507 1 15.8444 5.72692 22.7843 1
527 1 40.7582 87.195725805 72.6017 4
529 2 15.1941 61.9025 71.2567 1
561 2 0.709564 33.6285 16.1092 1
566 2 16.8214 65.958 77.7441 1
594 1 -28.742015805 34.6893 47.1856 1
615 1 50.6862 2.21517 7.57499 2
622 2 -1.17955 27.9703 5.27985 1
631 1 19.7173 38.8268 80.448695805 1
633 2 -27.922215805 25.0514 13.1651 1
648 2 31.0932 49.5666 27.0097 1
660 2 82.412619805 2.77656 78.1038 5
667 1 34.3052 9.93991 8.34472 2
684 1 -27.134615805 39.9861 49.1175 1
696 2 -2.628015805 41.9442 47.7181 1
703 2 20.3728 51.8245 56.4432 1
708 2 -21.301915805 49.8186 53.224 1
737 1 -7.361615805 32.9885 44.8554 1
740 2 -19.603115805 18.4222 23.387 1
764 2 50.7797 51.1717 41.4621 3
770 2 13.8171 62.0734 73.0892 1
779 2 27.6997 76.9907 72.463 1
796 2 22.9304 69.8764 83.404433805 1
810 2 -42.603815805 25.0238 24.7114 1
815 2 38.9077 1.42936 19.6905 2
824 1 26.3075 75.0816 58.4576 1
830 2 24.1037 74.0174 88.057155805 1
854 1 17.8464 43.6177 79.1934 1
856 1 10.0754 22.9771 29.352 1
862 1 21.5145 67.0633 75.1902 1
878 2 49.7261 31.154 82.660224805 1
923 2 -12.909415805 25.1653 13.1574 1
926 2 -29.861515805 21.1415 25.8511 1
940 2 17.7247 53.0322 79.0035 1
966 2 -28.081515805 20.9802 24.0131 1
1008 2 14.8858 58.6763 79.1161 1
1011 2 19.5071 41.4993 78.9598 1
1016 2 49.3881 51.5955 37.8269 3
1020 2 9.23955 2.42321 27.1154 1
1046 2 -13.211015805 24.3159 41.1725 1
1097 1 -12.535215805 31.8786 18.7187 1
1127 2 1.36104 33.1578 -2.32244 1
1148 2 5.1723 27.4283 48.1965 1
1150 1 31.0966 75.6496 80.321865805 1
1162 2 29.4623 72.7845 54.7257 1
1163 2 31.1196 77.6965 102.247015805 1
1177 2 7.34175 40.5263 9.16666 1
1180 2 9.1659 20.2298 34.1808 1
1193 2 24.9769 63.3749 33.1968 1
1219 2 22.9263 83.905875805 65.3747 1
1222 2 -1.92564 37.137 8.88352 1
1228 2 -9.876315805 31.0163 19.634 1
1245 2 30.8219 74.6798 77.8502 1
1247 1 13.257 23.4616 30.1673 1
1254 2 -0.0674768 44.284 51.9796 1
1264 1 4.249 37.64 24.7854 1
1299 2 -0.425409 14.3109 31.6528 1
1306 2 35.6814 97.084215805 47.9148 1
1313 1 28.071 66.5332 91.550495805 1
1339 2 14.056 42.9281 82.104068805 1
1354 2 58.5272 0.332425 -18.624115805 2
1356 1 46.7402 -17.279315805 -19.015815805 2
1373 2 -11.371215805 38.5124 49.2245 1
1375 1 23.2661 71.3563 88.057505805 1
1397 2 28.38 66.5423 67.4273 1
1404 2 34.1937 4.86813 32.4084 2
1408 2 13.5669 41.2546 26.781 1
1414 1 -28.864315805 26.7958 7.99883 1
1427 2 36.9271 96.514315805 56.9146 1
1442 1 -1.21293 30.0106 6.95892 1
1447 1 10.5558 52.8171 73.2865 1
1457 1 18.3546 67.5646 76.1854 1
1482 2 20.3943 5.26837 25.9038 1
1496 2 22.2154 46.2125 86.546125805 1
1503 1 -1.35338 18.3644 34.0907 1
1513 1 -20.068515805 43.5038 58.5702 1
1525 2 3.50343 36.3257 31.352 1
1530 1 2.47914 26.9819 47.8158 1
1534 2 26.2087 73.0155 56.2332 1
1535 2 -4.258015805 31.2344 15.0689 1
1563 2 47.117 25.3604 77.905 1
1578 2 48.8194 35.711 72.5493 1
1584 2 1.76855 36.725 0.110526 1
1605 2 -17.336315805 23.0584 19.8823 1
1611 2 -3.280315805 30.8885 5.5693 1
1612 2 49.4246 -0.301998 6.00237 2
1637 2 11.3985 9.7492 37.9334 1
1657 2 61.7757 6.64975 0.16615 2
1661 2 23.932 27.1713 3.37247 1
1666 1 -10.857915805 42.8611 56.0771 1
1684 2 37.8936 2.18842 15.9034 2
1687 1 -20.528315805 34.9136 49.6063 1
1702 1 -4.665915805 19.8584 44.8728 1
1703 2 -5.493215805 31.6933 19.4867 1
1728 2 25.6763 77.2253 82.059534805 1
1733 1 32.0187 75.2933 97.764915805 1
1758 2 10.4593 21.9322 26.054 1
1766 2 42.7278 35.7751 78.1538 1
1771 2 -6.024015805 10.226 38.2441 1
1773 2 -31.239415805 24.398 15.5134 1
1794 2 -41.847915805 23.394 17.4074 1
1822 2 -16.497115805 22.9023 46.655 1
1835 1 -25.674815805 33.0881 18.972 1
1849 2 -6.290815805 29.012 19.3698 1
1861 2 53.2215 43.9988 78.4949 1
1872 2 27.235 85.917185805 55.3314 1
1876 2 35.1628 1.49904 18.1416 2
1877 2 23.7711 72.1868 83.366979805 1
1894 1 13.9105 15.815 30.8794 1
1903 1 15.2069 79.598 64.1505 1
1918 1 50.8554 48.5594 42.1976 3
2020 1 41.9253 81.021135805 60.204 4
2048 2 37.7527 17.3681 11.2605 2
2052 2 20.5648 79.5138 75.0153 1
2062 2 22.2816 75.9623 52.8793 1
2064 2 34.1663 28.6412 77.3304 1
2094 2 11.36 57.7646 74.8861 1
2099 2 20.4484 24.3054 7.47237 1
2113 2 36.7974 35.1088 79.6564 1
2152 2 3.92387 36.7741 -1.852 1
2157 2 -12.040315805 26.4533 42.6241 1
2159 1 2.31523 22.6356 32.6211 1
2160 2 8.56592 25.2312 21.9388 1
2180 1 1.30139 32.1023 4.03528 1
2199 2 -7.202915805 49.3855 58.9911 1
2206 2 -1.18198 23.1423 31.7444 1
2227 2 31.8546 10.1413 6.12101 2
2251 2 -13.165415805 23.1232 47.9233 1
2254 2 22.111 70.9315 79.4058 1
2267 1 28.5787 69.0116 76.6294 1
2269 2 28.3785 26.4703 33.7937 1
2280 2 12.002 70.9975 62.6077 1
2286 2 -11.488015805 45.0124 53.7103 1
2315 2 19.7473 80.696265805 69.693 1
2332 2 25.1695 79.1475 54.1416 1
2335 2 5.97599 32.7265 14.6519 1
2336 1 1.15609 18.828 32.4368 1
2384 2 -11.217615805 31.108 50.8755 1
2387 2 13.0262 -0.405953 20.6124 1
2400 2 36.2267 5.95368 14.3848 2
2402 2 -32.417815805 40.1565 18.5943 1
2408 2 25.034 9.33505 25.0633 1
2419 1 22.0618 53.4516 39.1769 1
2430 1 -9.378915805 30.9367 45.9444 1
2460 1 25.2115 52.1807 66.5832 1
2480 2 18.7788 74.7451 58.1358 1
2483 2 29.7264 74.3973 82.491435805 1
2489 2 18.1219 20.0749 12.5849 1
2493 2 -25.285815805 40.4186 59.4685 1
2498 1 5.92144 47.8943 74.5221 1
2520 2 39.8136 33.9781 74.7439 1
2560 1 56.0161 -7.758715805 -2.881815805 2
2563 2 14.2119 45.6318 22.0535 1
2567 2 12.837 21.8181 40.246 1
2573 2 8.54677 28.9983 23.7515 1
2591 2 41.5505 39.2859 83.827945805 1
2594 2 32.5856 53.5469 33.0764 1
2619 2 9.87026 34.5603 28.5449 1
2630 2 13.4734 38.5279 26.7868 1
2641 1 15.0915 73.1216 77.666 1
2644 1 37.7187 14.2585 6.4209 2
2650 2 78.0369 8.29453 84.916755805 5
2666 2 25.858 76.0755 107.439515805 1
2702 2 -13.814715805 40.4106 53.3964 1
2718 1 -24.858415805 45.6891 56.6614 1
2720 2 31.0031 79.4126 72.2398 1
2725 2 23.113 5.49839 30.6439 1
2727 1 -33.513515805 29.7434 11.081 1
2728 2 -3.457215805 28.422 5.69111 1
2734 1 26.804 47.3043 64.7747 1
2763 2 26.0231 58.727 33.4169 1
2768 2 32.6277 73.1758 84.494365805 1
2817 2 -4.014715805 42.1107 49.8333 1
2825 1 48.1878 39.9849 29.5162 3
2842 2 19.8549 64.2539 80.534235805 1
2867 2 47.7547 2.22813 21.6194 2
2874 2 -1.25334 38.8115 41.8845 1
2886 2 33.5666 54.3779 58.9957 1
2891 2 5.37736 20.752 37.5516 1
2928 2 -10.211715805 37.145 15.7455 1
2971 2 -6.681615805 34.4191 12.727 1
2978 2 64.5502 49.5035 36.0823 3
2982 1 25.463 50.9738 58.087 1
3016 2 65.4931 -17.878615805 -14.848615805 2
3018 1 49.708 48.9367 36.7406 3
3021 2 31.9264 70.7899 95.158515805 1
3025 2 79.0053 5.85529 76.8996 5
3047 2 37.0781 70.0595 51.0929 1
3057 2 38.0394 4.70227 15.9795 2
3058 1 3.56792 8.67884 38.2161 1
3064 2 -0.576109 25.8745 16.0388 1
3073 2 12.8842 72.5178 75.6373 1
3077 2 21.1145 49.4629 80.600485805 1
3078 2 -15.148915805 38.1889 53.7595 1
3084 1 36.1841 69.5503 85.866915805 1
3091 1 17.0957 72.8253 80.939475805 1
3102 1 -0.0798216 27.2034 13.7242 1
3110 2 49.5845 5.77146 12.2547 2
3112 2 28.4429 69.6087 54.75 1
3123 2 0.466046 34.2839 25.2717 1
3127 2 -13.169615805 35.1195 45.4823 1
3132 1 58.5903 -18.088915805 -9.316315805 2
3153 2 38.3878 93.187815805 62.1012 4
3155 2 28.7697 29.8964 14.608 1
3194 2 -3.701615805 42.1121 37.5521 1
3201 2 38.3196 92.822815805 43.3127 1
3210 2 52.4137 46.2094 77.892 1
3214 1 35.3807 33.9873 72.8681 1
3216 2 52.0264 -0.112486 2.98678 2
3237 2 33.7759 93.456015805 66.1549 4
3256 1 10.7171 24.6148 26.1333 1
3261 1 -0.192727 31.1065 41.9609 1
3284 2 27.7323 69.5884 81.959125805 1
3290 2 5.69398 2.60244 38.3033 1
3298 1 35.5527 30.9126 72.3994 1
3312 2 66.7944 50.427 35.4676 3
3315 2 9.82865 34.7196 -7.670215805 1
3332 2 13.8549 8.77145 26.165 1
3341 2 7.59629 28.2778 16.5512 1
3358 2 19.8124 48.9713 39.436 1
3407 2 20.4701 60.1024 31.6739 1
3467 2 50.6152 32.7269 74.5379 1
3488 2 -11.252315805 16.9387 21.3248 1
3489 2 50.882 2.24694 18.7051 2
3520 2 -10.245615805 24.87 16.5625 1
3521 2 -27.177315805 39.0208 60.8296 1
3536 2 46.2637 32.0939 86.673505805 1
3540 2 27.9435 74.6306 77.9687 1
3558 2 36.4813 80.702675805 51.9959 1
3570 1 -30.194915805 33.3247 51.7889 1
3588 1 -11.996115805 20.533 48.1168 1
3602 1 35.3047 7.73349 28.6679 2
3609 1 46.7257 5.52723 12.6301 2
3620 2 44.3828 6.9699 14.2535 2
3634 2 -13.072515805 38.5019 22.1327 1
3676 2 32.6088 11.0075 15.1923 2
3678 2 -12.427315805 46.9914 59.0092 1
3681 2 -34.397815805 23.3393 21.1475 1
3698 2 37.6586 78.6194 51.7207 1
3709 2 49.6716 32.9084 78.9483 1
3722 2 -14.765715805 40.5487 66.0326 1
3726 2 15.3599 12.9101 25.9048 1
3732 2 43.5344 29.9469 75.7338 1
3734 1 71.2532 -1.61721 -13.564415805 2
3760 2 33.6734 93.126015805 63.5743 4
3761 2 11.6391 34.0303 18.3705 1
3776 2 15.9523 59.4935 76.4434 1
3781 2 -3.630115805 13.1838 41.6332 1
3807 2 65.1842 -2.829315805 -15.909415805 2
3836 1 1.73367 34.0563 -8.154815805 1
3854 2 3.60034 7.71946 35.7967 1
3855 2 32.4758 90.906255805 62.6401 4
3868 2 -29.063915805 36.9396 16.1785 1
3876 1 22.8586 58.1112 36.6932 1
3893 2 7.5332 31.8724 12.6897 1
3904 2 15.8768 64.0298 70.6279 1
3950 2 42.5393 40.2207 26.4648 3
3952 1 18.6576 80.0761 65.0337 1
3980 2 -3.038015805 35.7815 15.5987 1
3982 2 43.8646 40.9076 32.2256 3
3986 2 -3.838115805 35.7301 21.6477 1
3998 2 -4.931115805 41.0506 64.6454 1
4008 1 0.334348 31.2953 -4.012915805 1
4047 2 43.0334 29.3074 79.3739 1
4054 1 -11.811115805 37.1283 20.2447 1
4058 2 14.3654 -2.652015805 20.8466 1
4073 1 27.6134 60.0124 36.458 1
4078 2 -29.805515805 35.243 18.1048 1
4086 2 31.7503 95.624515805 51.175 1
4093 2 26.6521 9.13984 26.9873 1
4102 2 -27.155815805 43.533 56.6478 1
4118 2 34.6177 65.5798 92.670015805 1
4138 2 33.4165 98.904615805 54.1558 1
4150 2 5.13842 36.9823 -4.257515805 1
4189 2 22.5053 24.3316 6.21635 1
4205 1 55.2739 -12.489515805 -4.233715805 2
4225 2 26.9097 30.0725 70.1224 1
4234 1 -0.723924 27.0993 48.0273 1
4246 2 -2.41022 31.4015 30.0165 1
4276 2 -22.358915805 47.5465 56.7389 1
4283 1 27.7373 3.33544 36.8571 1
4284 2 -11.079915805 31.0292 55.9136 1
4315 2 55.9677 30.2507 77.2803 1
4333 2 52.8631 40.2972 78.5607 1
4356 1 -4.623215805 16.2152 40.2442 1
4368 2 -10.310815805 36.2588 45.1793 1
4384 1 -15.569215805 25.2934 48.2016 1
4393 2 -0.20435 38.9307 24.4858 1
4417 2 27.2103 84.075485805 49.0158 1
4426 2 -27.866215805 37.1499 62.1824 1
4444 2 33.4387 11.7738 10.1069 2
4446 2 69.1074 -2.06381 -17.397715805 2
4466 2 19.1688 71.1194 65.5459 1
4482 1 38.0061 3.91632 21.342 2
4487 1 -7.409315805 35.366 26.0224 1
4516 1 47.0511 29.6072 86.728745805 1
4518 2 7.01918 41.9874 28.5807 1
4521 2 56.6992 -8.822815805 -9.978815805 2
4523 1 42.3458 35.4473 75.3784 1
4533 2 7.6396 10.1269 49.7554 1
4540 2 -6.127815805 39.0774 44.9871 1
4571 1 19.3361 51.6741 38.4703 1
4573 1 17.854 72.3341 76.0132 1
4614 2 13.7456 44.371 77.4817 1
4624 2 30.7983 67.0758 42.3945 1
4637 1 25.3904 48.3212 66.9873 1
4644 2 26.7173 65.2664 78.185 1
4673 2 52.963 32.1671 74.9347 1
4701 2 68.7634 -5.465415805 -20.105415805 2
4728 1 7.52006 50.5303 73.8276 1
4733 2 18.2663 24.5913 13.6914 1
4740 2 43.0029 6.05774 16.0844 2
4780 2 19.2382 46.9372 22.8432 1
4801 1 45.7147 39.463 27.5781 3
4810 2 -17.705215805 19.0032 25.2242 1
4832 2 -15.197115805 23.9129 44.7907 1
4860 1 33.9422 72.4288 50.4986 1
4861 1 -3.919315805 27.2189 12.8311 1
4873 2 -8.179615805 23.9504 -8.416315805 1
4911 2 23.3395 55.3291 24.009 1
4946 1 -23.763915805 37.4124 52.8272 1
4948 2 35.8908 93.460915805 62.1065 4
4962 2 -16.429715805 47.0739 50.0732 1
4966 2 -9.107815805 31.7579 52.838 1
4968 2 23.615 75.385 56.9776 1
4979 2 48.606 -19.287015805 -19.845915805 2
4988 2 11.5846 7.01315 29.6441 1
4998 2 21.3998 45.4237 77.1139 1
5013 2 46.9554 44.0546 81.030065805 1
5018 2 -1.59864 45.0219 49.6793 1
5021 2 -12.156115805 35.4255 43.3452 1
5030 1 24.829 22.7371 6.71131 1
5035 2 18.9757 39.6765 25.3967 1
5037 2 -3.710915805 20.2151 -7.675815805 1
5046 2 12.7202 34.0467 28.1242 1
5048 2 -13.742215805 44.7104 52.2446 1
5074 2 26.8601 50.7454 71.4578 1
5080 2 19.0415 11.8672 37.6129 1
5085 2 8.91849 43.2948 31.2763 1
5089 2 -4.523215805 32.7135 24.38 1
5091 1 -25.541815805 35.2184 54.75 1
5107 1 58.7259 7.42382 -0.272331 2
5139 2 -7.751315805 51.7896 58.8046 1
5176 2 -0.244262 20.6603 -9.306215805 1
5186 2 18.9144 9.66937 38.453 1
5192 2 20.9389 82.038860805 73.8828 1
5197 2 22.1925 46.2117 75.0703 1
5202 1 30.7902 76.4255 87.525315805 1
5220 2 31.134 75.2254 93.375015805 1
5222 2 26.567 62.6493 36.5463 1
5233 1 25.273 58.1887 30.6498 1
5245 2 23.045 77.1984 48.168 1
5261 2 19.6785 77.752 69.9369 1
5268 1 -28.386815805 31.2354 16.0489 1
5270 1 1.00368 34.4009 31.3941 1
5272 2 25.5637 63.7438 55.2164 1
5281 2 19.0384 26.3586 17.6802 1
5317 1 7.93253 26.0482 33.6351 1
5322 2 71.5525 0.195299 81.288265805 5
5330 1 29.9449 69.1913 91.225935805 1
5342 2 22.2539 8.59677 20.1534 1
5356 1 -28.461615805 36.6761 55.8203 1
5366 1 56.4504 -2.982515805 3.38255 2
5367 1 -1.0236 37.6848 37.4971 1
5395 1 21.7702 40.6018 78.1677 1
5409 2 51.888 35.9807 77.5502 1
5433 2 34.0863 63.0949 89.163655805 1
5439 1 27.0182 71.7865 53.6755 1
5447 1 -14.645215805 33.6325 11.8769 1
5463 2 7.44154 34.4958 29.6779 1
5505 1 -30.457615805 26.8931 14.3019 1
5512 1 -17.226715805 44.9198 58.4602 1
5516 2 4.24525 9.42987 40.7933 1
5527 1 -10.206515805 33.8763 19.5169 1
5543 2 16.8844 -9.594115805 34.8999 1
5571 1 22.9574 45.2709 81.867203805 1
5573 2 10.0378 47.6457 77.7538 1
5596 2 26.2275 86.689225805 74.516 1
5599 2 14.7123 18.9148 38.5009 1
5636 2 -9.799215805 13.7368 43.5936 1
5690 2 23.4617 1.67894 35.8143 1
5694 1 24.1868 47.5468 76.5635 1
5704 2 48.2468 42.0578 41.634 3
5726 1 41.666 67.0945 85.628035805 1
5729 2 51.4939 42.4782 78.5035 1
5732 1 42.3149 -2.36328 18.5296 2
5735 2 -25.597615805 38.5523 55.6922 1
5739 1 -21.764715805 39.6687 53.0256 1
5744 1 -5.802615805 29.3542 13.5856 1
5761 2 39.9264 85.462015805 59.4658 4
5764 2 7.3415 26.3739 47.6735 1
5765 2 -10.173815805 48.8758 62.7404 1
5811 2 74.3114 -4.662115805 76.045 5
5832 2 -4.931015805 38.3245 22.5229 1
5833 1 1.99672 41.9779 0.539937 1
5857 2 2.588 31.1974 46.2368 1
5859 1 24.5026 44.327 75.6928 1
5880 2 33.3398 52.2556 31.175 1
5881 1 30.072 75.5106 54.3242 1
5905 1 48.8453 33.3437 29.5462 3
5920 2 -19.034815805 35.2061 58.9144 1
5930 1 23.4568 68.8618 77.9703 1
5963 2 17.9668 44.7053 23.8892 1
5967 2 54.444 5.81008 8.19599 2
5972 2 14.445 8.32534 17.3976 1
5979 2 29.3254 3.89057 4.90525 2
5992 2 44.5609 42.7761 30.8387 3
6010 2 32.005 56.5827 29.8469 1
6013 2 -9.403015805 20.3434 46.8146 1
6015 2 14.8142 59.7624 74.0275 1
6023 1 18.6424 48.3581 80.1719 1
6049 1 0.163209 30.578 37.6241 1
6051 2 -22.966015805 38.9461 59.9075 1
6053 1 9.94514 14.476 30.2873 1
6067 1 25.0803 58.8897 27.4948 1
6101 1 -17.341715805 15.1458 20.5651 1
6158 2 45.8867 2.90254 12.5718 2
6171 2 28.1748 33.4805 77.6935 1
6177 2 35.2706 87.311635805 44.9892 1
6178 2 27.0514 48.0561 58.1755 1
6182 2 -5.627315805 37.8038 36.5186 1
6193 2 30.967 8.20742 7.83748 2
6205 1 5.20195 5.9482 37.5681 1
6217 2 17.6563 63.577 77.0426 1
6249 2 23.9081 73.0234 90.274965805 1
6255 1 35.8571 28.0287 73.146 1
6260 2 54.0637 -3.139515805 0.137136 2
6267 1 11.833 22.4204 34.5095 1
6274 2 37.3797 30.0713 74.7878 1
6285 2 53.346 -24.148415805 -13.277115805 2
6311 1 0.863823 41.2679 24.8622 1
6328 2 -7.134315805 34.5907 49.2253 1
6335 2 32.3428 6.43403 27.9604 2
6377 1 36.6678 34.1523 82.518159805 1
6398 1 -24.817915805 40.3105 53.3271 1
6450 1 -7.435615805 40.4169 65.0737 1
6457 2 -8.732515805 44.2625 24.2844 1
6461 2 14.6755 22.1684 34.1535 1
6468 2 -14.598115805 17.3757 25.3318 1
6478 2 28.3896 62.6318 65.6058 1
6497 1 8.07044 31.6622 16.2808 1
6500 2 16.899 71.9165 73.203 1
6501 2 17.8946 70.3085 60.5524 1
6520 2 22.905 33.7448 28.3344 1
6539 1 11.5185 43.141 30.9693 1
6554 1 26.064 69.4583 79.6302 1
6562 2 10.1068 44.0589 80.2765 1
6588 2 -9.245115805 43.1025 22.1453 1
6603 2 20.6897 76.0532 68.2559 1
6649 2 27.0735 48.2167 72.4462 1
6650 2 12.7798 -9.492215805 8.74319 1
6662 2 11.7725 38.7969 34.4391 1
6684 1 46.7566 -18.459215805 -16.143115805 2
6687 2 -4.679815805 29.0324 -10.724915805 1
6710 1 17.0167 60.3647 72.609 1
6732 2 9.17947 -9.114315805 11.576 1
6740 2 1.53366 34.5433 4.80412 1
6780 2 51.3291 49.7644 34.7111 3
6781 2 21.021 0.12749 35.5018 1
6815 2 4.866 41.7157 0.64359 1
6819 2 -11.683915805 37.7737 64.3036 1
6828 1 7.70646 -10.010915805 9.48253 1
6830 2 16.5265 64.8899 75.3981 1
6835 1 48.8457 -22.058415805 -18.518715805 2
6842 2 57.5759 -17.511815805 -6.689715805 2
6844 2 18.0644 20.8968 40.177 1
6861 2 26.7359 49.4524 60.2581 1
6865 2 33.8324 67.6867 85.202095805 1
6866 2 22.7504 62.0124 62.2225 1
6868 1 71.2418 -9.730215805 77.8822 5
6885 2 -4.385715805 29.3356 11.0687 1
6907 1 43.9979 38.0597 79.081 1
6917 2 79.6255 8.21888 80.0223 5
6933 2 16.2761 46.0351 18.3313 1
6946 2 16.2496 -2.850015805 35.0065 1
6947 2 24.6602 64.3167 59.729 1
6960 2 21.5126 34.8321 80.2418 1
6977 2 45.6318 42.1149 80.2529 1
6990 2 10.0365 33.3388 17.0135 1
7021 2 0.606201 17.3307 37.705 1
7038 2 17.5183 78.6467 62.8124 1
7080 2 -2.40692 15.9179 35.2385 1
7083 2 41.3824 89.221965805 61.0951 4
7094 1 41.2747 91.770075805 61.6876 4
7098 2 49.7496 34.6505 77.3334 1
7110 2 -30.669115805 38.794 15.1066 1
7123 2 -10.589615805 33.2135 51.6144 1
7140 2 -12.901415805 38.5175 31.1871 1
7147 2 23.373 57.1335 32.4682 1
7155 2 -6.449415805 38.981 42.6446 1
7181 2 26.0338 27.0815 73.2004 1
7191 1 -9.033515805 16.1811 19.5921 1
7196 2 -14.187215805 30.0499 46.2667 1
7229 2 17.0142 54.35 41.5029 1
7245 1 33.5892 7.99922 5.81083 2
7264 2 19.3202 21.9406 25.4894 1
7270 2 20.8505 8.03296 24.3758 1
7285 1 33.0653 88.653345805 45.169 1
7286 1 28.8046 53.6955 27.7809 1
7335 2 4.00957 43.8218 1.69993 1
7336 2 8.87664 18.0725 32.5969 1
7337 2 20.2748 67.818 67.0976 1
7345 1 29.3564 54.5814 59.8882 1
7349 2 45.3344 25.3926 67.7102 1
7358 2 48.1744 25.7001 68.1893 1
7370 2 13.7078 44.8115 83.481808805 1
7375 2 -2.12805 39.2167 57.236 1
7382 2 19.7998 52.8336 80.2602 1
7457 1 40.4074 66.6935 88.517075805 1
7467 2 10.0746 30.4145 27.2387 1
7507 2 9.77609 25.379 17.8569 1
7510 2 35.3308 81.930149805 44.1143 1
7511 2 27.0543 5.75391 27.3337 1
7513 2 16.5543 76.3102 73.9512 1
7523 2 -10.387115805 50.5025 53.0318 1
7532 2 11.2321 41.2962 5.87184 1
7562 2 -10.145215805 36.9815 18.2549 1
7583 2 61.9361 4.59793 -16.832515805 2
7599 2 48.2415 46.9823 37.7286 3
7600 1 0.231137 37.0564 19.8776 1
7604 2 17.0453 28.5039 14.8104 1
7608 2 -15.797315805 20.9341 23.5988 1
7623 1 29.4855 69.2107 84.397085805 1
7642 2 23.7899 23.9297 28.8226 1
7645 1 15.4894 62.1289 75.4842 1
7653 2 28.7676 49.7869 70.2069 1
7672 2 48.9057 44.2676 39.6572 3
7687 2 32.839 74.6015 86.342105805 1
7708 1 7.52008 35.3702 21.676 1
7713 2 3.6071 13.8147 41.8014 1
7735 1 -23.153715805 29.007 24.6045 1
7741 1 15.4211 -0.371351 34.7188 1
7751 2 -10.152215805 43.5896 60.9803 1
7768 2 -7.118215805 39.8461 22.7142 1
7774 2 56.1971 -19.340015805 -7.910515805 2
7781 2 7.25652 34.9551 27.3334 1
7828 1 21.0819 48.2651 77.894 1
7839 2 45.1716 35.0277 71.8082 1
7846 2 19.8218 73.314 80.2408 1
7852 2 36.095 15.6268 7.66171 2
7860 2 14.2294 43.6927 35.1306 1
7866 2 35.7282 96.250815805 45.5622 1
7872 2 36.4866 -0.555712 24.404 2
7897 2 -8.443115805 50.4217 54.5454 1
7904 2 24.4834 57.0526 73.0818 1
7944 1 43.9152 4.36087 18.1401 2
7982 2 47.9894 35.2969 75.7018 1
7992 1 21.3824 9.73609 22.381 1
8000 2 3.99862 42.8588 28.9472 1
8009 1 15.5777 64.1244 73.1547 1
8021 2 23.6763 53.5656 71.8701 1
8041 2 13.2578 19.5638 21.5138 1
8076 2 -14.594015805 48.7151 58.5079 1
8078 2 14.4934 -4.134415805 37.1623 1
8094 1 20.7807 57.7808 32.855 1
8110 2 15.8574 23.2025 2.78716 1
8132 2 70.7268 -2.942515805 -15.705515805 2
8136 1 16.5599 61.9617 68.587 1
8153 1 20.3203 19.8167 17.4848 1
8154 1 20.0896 80.1582 72.2348 1
8172 2 38.6171 2.48324 23.6056 2
8177 2 22.0111 74.3834 89.389935805 1
8192 2 55.2992 -10.625115805 -2.29325 2
8198 2 39.5442 28.4644 70.7335 1
8210 1 23.4301 82.171479805 54.9693 1
8250 1 13.4457 18.0292 23.6776 1
8262 2 35.0385 6.81202 31.1361 2
8277 2 58.6881 6.82006 -12.398115805 2
8347 1 -27.408315805 35.8765 18.3254 1
8355 2 -32.244215805 22.339 21.6468 1
8360 2 51.6017 41.7569 35.4673 3
8373 2 17.0078 19.7537 38.2826 1
8398 2 1.21106 31.3132 -8.701515805 1
8405 2 -33.449515805 26.419 6.08191 1
8431 2 19.1675 55.0756 80.660565805 1
8435 2 -12.676415805 51.1983 53.5964 1
8450 2 18.4608 77.9429 75.7077 1
8465 2 13.3699 26.4011 32.2134 1
8485 2 -26.465915805 30.834 55.9801 1
8489 2 14.9453 21.6471 25.5957 1
8491 2 24.1994 57.0227 25.6041 1
8493 2 -44.747415805 21.0201 26.0966 1
8497 2 63.5929 48.4716 33.5048 3
8515 2 25.4656 58.535 35.781 1
8569 1 28.3612 27.7118 72.1302 1
8592 2 -19.597015805 13.4177 18.7378 1
8599 1 10.9471 16.3419 32.0721 1
8601 2 -40.619015805 23.9677 24.0353 1
8614 2 32.7192 77.115 85.233545805 1
8649 1 46.0217 37.0412 25.6863 3
8651 1 -27.579715805 37.3109 47.4878 1
8654 2 0.359455 20.6455 -15.149215805 1
8686 2 7.94042 34.6424 16.365 1
8700 2 0.070863 24.8647 -13.651715805 1
8722 1 -4.852415805 40.7163 20.8723 1
8737 1 9.38725 8.38373 36.6123 1
8741 2 16.5165 14.4773 33.7399 1
8750 2 69.2111 -5.683715805 75.2528 5
8751 2 14.6251 28.4188 15.7381 1
8768 2 31.8069 32.8941 75.3494 1
8781 2 29.0712 62.4713 52.3109 1
8782 1 -13.534515805 32.5804 46.6479 1
8790 2 75.1492 -0.393051 75.1953 5
8805 2 22.6098 80.460845805 58.2125 1
8812 2 -38.199315805 25.8902 15.6595 1
8813 2 11.2527 61.2488 81.581235805 1
8828 2 45.9184 37.9519 74.4208 1
8833 2 47.0381 39.6584 24.995 3
8846 2 33.8061 64.1725 46.5857 1
8851 2 43.0552 -1.23672 13.4599 2
8865 1 52.3884 -23.384715805 -10.892515805 2
8904 2 59.4622 -17.474815805 -12.036115805 2
8926 2 21.133 85.582265805 61.3592 1
8935 2 35.202 94.193815805 44.4722 1
8948 2 -15.254415805 28.5634 41.0635 1
8952 2 14.9972 42.4633 77.6807 1
8958 1 18.1363 4.75288 27.3507 1
8966 2 43.9837 -2.528715805 20.7888 2
8967 2 23.498 50.359 65.8701 1
8978 1 1.39256 35.6482 36.3015 1
8984 2 7.16512 27.4569 25.3467 1
8987 2 14.0034 6.72591 24.4804 1
9004 2 28.0673 74.8294 104.800115805 1
9008 2 0.697082 34.3647 27.4439 1
9024 2 28.1794 84.245435805 58.7455 1
9025 1 49.8105 0.509131 21.2668 2
9035 2 46.2345 28.6809 75.4479 1
9050 2 41.4046 64.7042 86.604585805 1
9077 2 27.3687 69.1789 92.217635805 1
9094 2 17.8236 -1.76427 18.7398 1
9100 1 47.0484 50.1403 37.1539 3
9109 2 21.7438 81.803668805 69.4314 1
9123 1 16.2411 18.2523 20.1105 1
9176 2 33.0995 29.4004 73.0857 1
9206 2 34.5725 86.545085805 62.8205 4
9241 2 -26.731715805 26.1892 18.841 1
9249 2 3.33426 32.2577 15.3481 1
9260 2 60.3626 9.95145 -3.674615805 2
9284 2 55.6397 44.4218 40.8038 3
9295 1 21.6672 74.081 83.983195805 1
9299 2 41.734 39.4027 77.8793 1
9310 2 23.3411 30.6144 13.656 1
9331 2 28.4847 62.6985 31.1038 1
9344 1 -2.687015805 37.2526 23.8285 1
9352 1 24.7587 74.6027 82.733391205 1
9374 1 29.8586 49.6415 61.8213 1
9382 2 2.95503 29.6703 -7.411615805 1
9393 2 -4.756315805 38.2875 25.0575 1
9417 1 42.4366 86.056505805 60.2489 4
9418 2 1.23235 39.3863 46.1384 1
9433 2 44.5999 25.5795 78.3304 1
9434 2 -4.849815805 35.455 41.3451 1
9476 2 23.553 49.0056 78.6437 1
9494 2 -10.929015805 34.9012 56.3648 1
9497 2 -22.226915805 29.8762 22.0153 1
9504 2 11.2732 15.8014 45.0521 1
9554 2 37.9894 92.434595805 40.9877 1
9561 2 26.0243 40.3613 29.7133 1
9562 1 18.2476 60.8521 75.7818 1
9572 2 12.2935 41.4897 82.216840805 1
9610 2 -19.047715805 22.4325 18.0506 1
9620 1 32.9649 74.9276 49.3537 1
9634 2 47.3993 20.3103 72.1739 1
9637 2 19.8074 59.6681 77.8778 1
9658 2 22.9473 46.4072 84.379555805 1
9685 2 18.5081 83.383253805 63.5932 1
9699 1 11.6933 12.2939 29.2578 1
9700 2 46.6607 33.8283 76.8441 1
9710 1 19.7986 79.5637 57.5726 1
9731 2 57.8502 4.81405 -10.609315805 2
9747 2 71.0762 -4.612615805 -12.485515805 2
9748 2 14.172 81.885598805 63.6248 1
9762 2 28.4127 76.4349 56.8976 1
9763 1 29.4799 82.676094805 49.2049 1
9793 2 24.0712 59.5161 75.2975 1
9802 2 1.25864 37.9101 28.1472 1
9808 1 -2.41622 34.0162 31.5915 1
9814 2 -30.269815805 37.319 47.6512 1
9825 2 23.7017 31.5066 11.276 1
9836 1 20.3057 78.1487 62.9148 1
9853 1 44.6063 77.9198 56.8335 4
9873 1 30.5445 52.2949 63.4731 1
9889 1 1.81286 36.6686 33.391 1
9911 2 21.7988 54.9391 79.8943 1
9918 1 9.53225 41.1708 29.3318 1
9920 2 7.33476 4.61113 38.6664 1
9922 2 31.3262 65.3581 46.3716 1
9957 2 30.3656 61.2922 31.4245 1
9972 2 30.2294 85.586685805 59.2568 1
10004 1 20.6314 57.2989 79.4106 1
10013 2 27.055 86.209405805 41.912 1
10031 2 19.5347 39.087 77.7325 1
10038 2 41.77 5.63934 25.9213 2
10061 2 19.151 54.8669 42.6188 1
10113 2 33.7473 62.898 48.7099 1
10122 2 34.2225 73.2753 82.635005805 1
10128 1 -26.832215805 32.2188 53.8191 1
10152 2 37.5942 94.437315805 45.2542 1
10215 2 -1.15205 18.4994 36.7136 1
10217 2 13.6162 11.6445 38.9189 1
10218 2 32.284 95.115615805 41.7762 1
10235 2 -12.953915805 32.2608 10.2394 1
10259 2 -27.979815805 33.5132 17.6133 1
10262 1 53.3959 3.70019 5.51983 2
10283 1 -15.972315805 18.2468 22.6077 1
10312 2 -7.631115805 34.0226 20.2468 1
10320 1 24.0034 89.628885805 71.9237 1
10323 2 9.42635 3.06475 34.0182 1
10360 2 11.9104 51.528 75.5574 1
10365 2 41.272 91.481245805 47.152 1
10379 2 -3.737315805 43.1968 43.1711 1
10380 2 -7.352315805 28.3733 -4.263315805 1
10401 1 29.1467 96.157315805 52.4694 1
10417 1 18.7338 6.80765 23.6354 1
10428 2 57.6687 5.90956 1.83034 2
10429 2 25.3186 7.80577 19.5453 1
10432 2 24.7532 81.762785805 62.0393 1
10439 2 -3.350715805 40.6437 7.93875 1
10447 2 -9.526015805 31.9375 43.2904 1
10454 1 55.056 9.4448 -1.5067 2
10455 2 20.0284 88.077745805 61.4649 1
10456 2 -2.671715805 14.0907 39.627 1
10461 2 50.425 42.7098 81.874468805 1
10467 2 -28.396315805 35.2817 49.9451 1
10497 1 43.2634 38.4193 81.999727805 1
10523 2 5.73736 24.9691 30.8536 1
10533 2 19.4575 22.4039 17.4353 1
10544 2 -14.547815805 36.1579 52.7738 1
10551 1 6.56267 39.1212 29.5078 1
10564 2 35.0337 25.7591 74.7873 1
10584 2 14.7912 47.4377 25.5687 1
10589 2 47.8856 31.0275 28.5129 3
10598 1 19.255 67.7949 73.0181 1
10600 1 15.8411 11.9263 40.0481 1
10611 2 25.638 59.8368 52.3841 1
10617 1 0.379144 37.2548 4.74942 1
10619 2 19.3471 5.64835 31.5758 1
10663 2 34.3057 92.500985805 57.4538 4
10687 2 -1.57662 29.7066 44.2352 1
10688 2 51.1361 35.5992 30.6031 3
10698 2 34.2403 49.5357 60.9357 1
10715 2 -18.485215805 36.1661 29.914 1
10733 1 32.7704 64.4071 91.293005805 1
10757 2 -30.199315805 23.8091 24.8463 1
10764 2 -40.719515805 25.6939 16.5977 1
10790 1 32.2196 77.6684 78.4907 1
10795 2 5.1982 39.6298 4.91969 1
10807 2 -20.730315805 16.2002 16.1018 1
10814 2 27.5238 30.1088 67.8839 1
10833 1 -33.330515805 27.3795 8.53674 1
10839 1 22.2647 77.7866 58.2823 1
10860 2 33.6227 5.63379 0.650693 2
10867 2 14.5146 31.7559 28.3479 1
10884 2 55.5499 41.8632 79.9253 1
10893 2 34.8171 29.9169 75.2596 1
10903 2 57.6011 0.972772 4.06426 2
10925 2 26.0974 73.4422 91.586495805 1
10927 2 -4.479615805 30.0797 -7.276915805 1
10929 2 48.4574 2.94516 9.01803 2
10935 2 31.4623 93.433815805 63.2112 4
10964 2 -0.44243 45.2485 22.6488 1
10976 2 37.1459 65.4094 92.138965805 1
10997 2 -5.403515805 31.404 6.55641 1
11001 2 -18.528915805 23.7941 45.2868 1
11003 2 12.4707 8.3586 31.3524 1
11033 2 45.2026 9.02596 15.5215 2
11036 2 9.17636 25.9468 24.1757 1
11041 2 -4.340415805 53.4682 56.3735 1
11045 1 17.439 1.92689 25.648 1
11047 2 3.20234 33.9389 45.5447 1
11073 2 81.350735805 4.5869 76.898 5
11079 2 11.3752 44.3305 76.6014 1
11089 2 43.6533 37.978 28.5989 3
11116 2 51.6434 43.6079 32.4509 3
11125 1 17.549 48.3824 77.2959 1
11127 2 44.3061 31.1612 73.316 1
11140 2 -16.302315805 15.6571 14.0467 1
11149 2 -7.102315805 38.3807 21.0757 1
11150 2 25.4994 21.3833 9.49396 1
11180 1 55.9311 8.55635 1.05666 2
11181 2 -29.718515805 32.9515 49.0977 1
11182 2 24.8073 83.588445805 49.8265 1
11193 2 -3.529515805 46.3984 39.8146 1
11194 2 31.4328 47.7212 63.1301 1
11206 2 0.646758 30.4477 44.8045 1
11237 2 -25.103315805 32.2249 49.5399 1
11241 2 -31.797515805 25.0321 9.68673 1
11258 2 27.8287 29.1533 76.9881 1
11308 1 -20.988915805 42.5072 53.7193 1
11312 2 10.697 46.6733 81.733025805 1
11319 2 17.4754 2.08084 19.9781 1
11335 2 43.2255 76.1612 61.2925 4
11339 2 20.1363 18.826 12.255 1
11353 1 17.1073 60.6651 78.5073 1
11354 2 -24.915415805 33.0044 21.4584 1
11377 2 -29.494015805 25.006 21.4489 1
11394 2 23.7854 86.641805805 71.3665 1
11403 2 1.35145 37.1592 30.6853 1
11412 1 76.4072 1.84734 74.9305 5
11418 2 17.7244 74.749 65.0977 1
11424 2 33.6869 67.3978 91.567165805 1
11438 2 48.2809 1.70802 19.1951 2