ITEM: TIMESTEP
40000000
ITEM: NUMBER OF ATOMS
23640
ITEM: BOX BOUNDS pp pp pp
-2.532382323 80.3671598412
-2.532382323 80.3671598412
-2.532382323 80.3671598412
ITEM: ATOMS id type x y z Cluster
4 1 1.02498 19.8413 56.5194 1
5 1 -6.0768421642 -6.6190421642 24.5528 1
8 1 30.4371 2.99893 54.732 1
9 1 -3.3496421642 51.3326 61.3352 1
11 1 -15.2697421642 13.464 61.8604 1
12 1 -11.3152421642 -15.9721421642 74.8361 1
14 2 -8.7352421642 3.60844 67.5235 1
15 2 -5.4718421642 35.7162 88.2604821642 1
17 1 43.6162 0.482811 77.5954 1
18 2 42.3944 51.0074 56.8264 1
24 2 -7.9662421642 -20.5353421642 72.3022 1
25 2 40.3448 37.9187 56.8479 1
27 2 35.5439 15.7493 91.3955921642 1
28 1 -4.0179421642 6.85696 49.8196 1
29 2 24.3745 -7.8982421642 24.003 1
30 2 35.6963 -9.6165421642 73.2663 1
31 1 23.0084 -10.8858421642 50.3762 1
32 1 17.3393 25.6717 45.3301 1
33 1 -12.6098421642 -5.5967421642 77.4604 1
34 2 -25.4120421642 3.44329 55.6508 1
35 1 25.4785 20.9275 13.989 1
36 2 -0.77907 4.53574 92.1082921642 1
37 1 28.933 -20.8120421642 40.0434 1
38 1 16.8936 37.4698 88.9686521642 1
39 1 -18.3815421642 9.41524 62.7399 1
40 2 8.08152 59.897 53.1277 1
41 2 -17.2354421642 -7.9536421642 51.5184 1
42 1 -20.5021421642 12.8486 35.556 1
43 2 -6.0313421642 -10.6867421642 84.6649421642 1
44 2 30.8267 35.5174 65.3818 1
46 2 22.2255 14.398 73.0082 1
47 2 12.7275 -15.2892421642 79.0969 1
49 2 14.7145 1.28022 18.4008 1
51 2 5.90587 36.6016 91.1827821642 1
52 1 -36.6182421642 37.3193 54.8838 1
53 2 1.709 8.97897 93.9941421642 1
54 1 1.87168 14.1892 42.9383 1
56 2 36.2045 -6.0848421642 26.188 1
57 2 38.6013 -10.5548421642 24.8957 1
58 2 12.8866 47.6757 57.6712 1
59 2 -2.7285421642 35.824 22.3881 1
60 2 -2.8308421642 -9.1018421642 87.2375921642 1
61 2 -24.1194421642 -15.1416421642 61.8858 1
62 1 -19.1100421642 50.4656 52.5118 1
63 1 42.8195 27.3041 82.0887791642 1
64 2 2.73859 30.9348 97.3059421642 1
65 2 -15.4248421642 15.9373 92.4454921642 1
66 1 -31.7495421642 25.5494 86.5075221642 1
67 1 24.4424 36.2424 20.2564 1
70 2 38.6642 -8.8885421642 84.5435821642 1
71 2 -2.5327421642 47.7735 70.8947 1
72 1 -29.5118421642 -0.276654 64.3596 1
74 1 42.6783 5.19645 41.3624 1
75 1 36.4228 24.4378 66.29 1
76 2 14.7067 24.9097 73.3696 1
77 2 36.7602 26.5668 76.4156 1
78 2 10.3311 9.79459 76.9826 1
80 1 31.7585 29.0027 35.551 1
81 2 7.03583 -14.8844421642 79.7599 1
83 1 -27.2081421642 -20.6310421642 51.8954 1
84 2 -8.7731421642 44.4826 57.3072 1
85 2 24.9901 -3.4945421642 49.2267 1
86 2 10.7503 58.4856 52.5513 1
88 2 -4.0375421642 43.7967 74.1192 1
89 1 -19.0799421642 42.7088 86.5736721642 1
90 2 1.62013 26.7244 50.7 1
91 1 43.4214 35.3366 24.0879 1
92 1 17.1568 35.7227 54.4735 1
93 2 -33.6898421642 3.92498 74.6944 1
94 1 17.129 45.6321 97.3232421642 1
95 1 25.0376 11.7185 89.7045221642 1
96 1 27.443 3.25453 55.499 1
97 1 23.7388 33.7673 45.6368 1
98 2 30.1936 8.98522 69.8249 1
99 2 28.1352 7.24303 43.3704 1
100 2 32.3723 -15.8757421642 43.8828 1
101 1 30.2273 -10.3600421642 48.3711 1
102 2 11.9098 -8.8530421642 24.7742 1
103 2 28.6343 5.02879 61.6226 1
105 1 14.2094 18.2513 76.6658 1
106 2 -31.3558421642 27.2748 25.2384 1
108 2 -28.6814421642 -8.1153421642 55.7638 1
109 1 -17.4541421642 28.497 68.1173 1
111 1 11.5305 6.76924 46.9622 1
112 1 -11.6237421642 -17.4943421642 95.8676421642 1
113 1 41.524 38.3677 59.5219 1
114 2 34.7422 34.9085 52.3907 1
116 1 -18.3818421642 -16.7157421642 68.9006 1
117 2 -19.3412421642 -17.5722421642 62.9289 1
118 2 38.6203 52.9722 64.9748 1
119 2 -29.6382421642 -10.1506421642 92.4690621642 1
120 2 8.633 7.64992 51.1361 1
122 2 4.63094 26.3099 56.2579 1
123 2 -23.6474421642 54.4059 35.405 1
125 1 27.1129 -18.7912421642 45.0829 1
126 2 21.7509 12.467 49.1019 1
128 1 -24.7233421642 -12.8337421642 21.5668 1
130 2 42.8272 38.6147 52.3582 1
134 2 -35.8003421642 39.9864 73.6549 1
136 1 -3.9020421642 -1.62493 18.2657 1
137 2 26.0654 40.6256 22.4434 1
138 2 9.89252 55.4273 70.1047 1
141 2 -22.0100421642 -3.2513421642 64.7957 1
142 1 -31.2513421642 51.7646 65.0201 1
145 2 -30.6161421642 -4.6254421642 48.3853 1
146 2 -23.3558421642 59.2238 26.8296 1
147 1 22.1664 11.3713 91.4603521642 1
148 2 39.9741 44.9026 11.4296 1
149 2 -12.7990421642 -10.9676421642 40.0498 1
152 1 -23.7883421642 -2.70899 45.6987 1
153 1 26.4655 -25.2533421642 28.1322 1
154 1 -30.6742421642 57.1636 80.3974921642 1
155 2 -8.7249421642 40.3256 30.9719 1
158 1 22.1197 13.6462 78.7943 1
159 1 0.969862 17.5264 15.132 1
160 2 13.936 -17.3320421642 58.5534 1
161 1 32.2108 34.4792 52.1163 1
162 2 26.8349 11.5033 30.1373 1
163 1 40.2784 16.2427 42.1309 1
164 1 -13.9657421642 -10.4601421642 89.8953521642 1
166 2 -12.9347421642 -7.9946421642 36.5465 1
167 2 -26.0143421642 60.0233 56.0234 1
169 2 35.5627 -1.39946 51.1056 1
171 1 -37.3432421642 15.3811 30.8255 1
172 2 10.9634 53.9712 88.7112421642 1
176 2 -28.4298421642 -21.3379421642 26.2866 1
177 2 -8.6068421642 39.1608 26.7451 1
178 2 16.8906 32.6523 18.5239 1
179 1 -23.6066421642 3.86806 35.7549 1
181 2 -30.6802421642 3.8693 49.0434 1
182 2 -35.9297421642 48.2293 28.4357 1
183 2 -2.47447 20.2266 24.3246 1
185 2 29.9782 52.6116 83.3245081642 1
188 1 -12.1147421642 -11.9950421642 50.7262 1
189 2 0.359637 -20.7567421642 43.5672 1
190 1 -7.9739421642 5.54459 97.0512421642 1
192 2 -22.8106421642 -18.5632421642 56.3851 1
193 1 -14.1679421642 22.6047 77.5445 1
195 1 -1.17617 39.2818 22.5846 1
196 2 -33.7404421642 40.6186 25.7647 1
198 2 -24.4631421642 3.23299 53.0426 1
200 2 -25.0568421642 14.279 20.8864 1
201 2 1.29924 11.2543 42.4088 1
202 2 -14.0695421642 21.4334 23.3567 1
204 2 10.3593 12.8795 29.5682 1
205 1 -4.3063421642 -22.0190421642 90.9943021642 1
206 1 -23.4917421642 29.8681 30.5202 1
207 2 35.352 -7.6890421642 90.5144521642 1
208 2 -10.4995421642 21.4192 17.2175 1
209 2 35.0401 -18.1127421642 21.3944 1
213 2 -36.9118421642 64.5677 69.2092 1
214 2 -28.1082421642 35.0165 63.6405 1
215 2 40.5346 54.6442 84.9414821642 1
216 2 -4.2951421642 17.2578 33.8302 1
217 2 1.91276 -5.7872421642 19.848 1
218 1 27.5649 22.3365 30.5575 1
221 2 34.7193 23.331 64.6941 1
222 1 11.1675 30.1999 41.3042 1
224 2 9.16945 18.6145 17.1336 1
225 2 29.1579 32.4357 89.9209121642 1
226 2 32.2187 20.1356 79.9877 1
227 1 9.49214 -15.4416421642 77.7907 1
228 2 13.4798 49.0456 48.5894 1
229 2 -6.7888421642 18.8047 32.5371 1
230 2 -20.3917421642 57.9966 37.3787 1
231 2 -31.9885421642 -11.3907421642 58.1105 1
233 2 -22.2059421642 24.5932 73.8617 1
234 1 7.02649 19.3985 56.224 1
235 2 17.6542 -2.33159 28.3577 1
236 2 -5.0743421642 -2.02932 24.4053 1
237 2 -16.1046421642 -14.4109421642 59.906 1
238 2 -15.6566421642 18.2855 61.5955 1
239 2 14.3968 -7.7898421642 38.3967 1
240 2 26.4846 -0.856314 79.0411 1
241 2 -0.209484 21.7809 45.4136 1
242 2 4.29479 -0.675253 52.2656 1
243 2 -19.1008421642 -21.9921421642 46.1436 1
244 2 -14.3227421642 42.1326 81.6464221642 1
245 2 27.6246 39.9101 51.5689 1
246 2 34.6382 60.2443 72.2709 1
248 2 -12.4162421642 30.6216 47.4689 1
250 1 33.0556 12.9904 28.4994 1
251 1 8.92079 23.4146 18.0422 1
253 2 -23.9177421642 9.71231 62.6426 1
254 2 24.0478 4.65845 90.5674421642 1
255 2 -23.5952421642 50.6394 35.7628 1
257 2 20.3744 18.0347 42.905 1
258 2 -32.2103421642 22.9804 42.7801 1
259 2 -15.5638421642 10.9108 72.0692 1
261 2 3.69614 21.9522 32.2499 1
262 2 -37.0212421642 39.0574 26.4071 1
263 1 -21.5085421642 10.0745 43.1491 1
264 2 29.4503 30.0656 80.6440921642 1
266 2 -13.3275421642 1.78996 90.3891921642 1
268 2 32.7857 43.4607 56.3687 1
269 1 32.4848 -5.0366421642 23.4011 1
270 1 -11.3582421642 17.584 95.7220421642 1
273 2 0.947406 -4.8484421642 67.8056 1
275 1 -14.6810421642 -17.7326421642 40.6494 1
276 2 9.22263 35.8763 98.5499421642 1
277 2 33.7831 35.1035 74.2624 1
278 1 20.9396 22.0057 79.6125 1
279 1 -22.7575421642 17.2255 85.4867021642 1
280 2 -7.7361421642 46.1266 20.6346 1
281 2 -21.5525421642 -1.48864 39.8199 1
282 2 -35.7944421642 47.1793 72.6405 1
284 2 2.76325 35.1303 92.3085421642 1
285 2 -22.3098421642 56.2047 71.317 1
286 1 -38.9288421642 -2.37877 54.604 1
287 2 2.11373 11.2067 79.4938 1
290 1 -7.0976421642 11.1228 17.2564 1
291 1 -22.1840421642 37.6976 66.8284 1
292 1 -7.1891421642 -23.6572421642 20.5145 1
293 1 4.27072 57.2316 61.1854 1
294 2 -4.8736421642 16.0531 16.8738 1
295 2 36.9541 57.3728 40.9937 1
297 2 -12.7332421642 -22.7539421642 77.6804 1
298 2 32.0323 -15.0703421642 70.1927 1
299 2 21.7676 -12.9878421642 50.3149 1
300 1 25.8704 6.45279 41.4035 1
301 2 -37.7581421642 21.0845 20.1769 1
302 2 19.7704 -18.5636421642 23.3767 1
305 1 -13.4888421642 -15.0703421642 49.5819 1
306 2 -25.3561421642 -19.8603421642 75.2621 1
307 1 -11.2335421642 39.9665 73.715 1
308 2 9.42943 23.4371 95.1651421642 1
309 2 -7.9459421642 13.7452 80.2924 1
310 1 14.8441 32.0511 34.7491 1
312 2 -33.8587421642 34.75 91.7591621642 1
315 2 2.87181 6.48221 52.0366 1
316 2 41.097 -17.5961421642 91.9408521642 1
317 2 -26.6535421642 0.200359 77.6975 1
319 2 31.7705 30.8315 18.2497 1
320 2 -36.9503421642 24.1542 67.599 1
321 2 -33.3244421642 28.1407 46.0597 1
322 1 31.3444 27.4872 53.4428 1
323 2 -10.1375421642 -10.1961421642 82.5023101642 1
324 1 24.6572 43.9025 45.8304 1
325 2 -30.7347421642 -5.8713421642 22.4105 1
326 1 -7.4930421642 28.4187 53.9426 1
329 2 10.6918 52.3388 31.1279 1
330 1 -20.2077421642 -10.9836421642 22.5356 1
332 2 42.3222 -21.1700421642 77.966 1
333 2 10.1761 56.7017 76.254 1
334 1 40.2264 14.3537 44.8392 1
335 2 17.6426 52.3496 97.5026421642 1
336 1 -21.5680421642 42.7472 84.6290621642 1
337 1 -19.9331421642 49.7942 17.0335 1
338 1 -6.9284421642 15.3189 23.056 1
339 1 -30.9263421642 41.3887 45.4099 1
340 2 -28.2205421642 28.8541 62.3733 1
341 2 36.3522 7.05845 38.5544 1
342 2 4.86022 54.0389 28.6374 1
343 1 8.0982 21.613 39.1377 1
344 2 2.41813 34.5753 65.8063 1
345 2 -19.2222421642 37.6842 67.3039 1
348 1 -25.1274421642 55.672 62.3834 1
349 1 -0.729142 54.7684 80.0894 1
350 2 21.9656 34.8782 21.8932 1
351 2 -7.1104421642 3.00536 71.7722 1
353 2 6.53285 16.609 90.8064621642 1
354 1 -37.4355421642 -9.7606421642 77.9385 1
355 2 29.717 16.0508 78.7165 1
356 1 -33.7989421642 58.0638 43.6682 1
357 1 40.5199 46.7757 21.0079 1
358 2 13.0811 11.4956 64.6357 1
359 1 32.8013 13.2567 64.0505 1
360 2 -24.7668421642 34.9453 49.4238 1
361 2 5.80551 -2.8970421642 90.0538821642 1
362 2 12.3816 -5.9577421642 81.1838821642 1
364 2 16.3103 20.2398 93.8314421642 1
365 1 -1.3367 10.0536 30.1723 1
366 2 9.38468 37.8549 94.8451421642 1
367 1 19.1309 4.63807 25.4825 1
368 2 45.1767 54.5935 56.398 1
370 1 -23.0026421642 -15.3263421642 66.2642 1
371 2 -25.3876421642 -16.8663421642 66.2093 1
372 2 -17.2813421642 15.3427 34.1027 1
373 2 -8.7647421642 42.0963 33.637 1
374 2 -24.9904421642 49.279 68.167 1
375 1 -35.2521421642 24.5646 39.5868 1
376 2 -30.2498421642 2.15737 37.9812 1
377 1 -34.6494421642 54.2236 68.0841 1
378 1 19.6324 -15.4127421642 55.3678 1
379 2 -5.3525421642 11.4134 27.6193 1
381 2 41.7631 7.32757 28.9291 1
382 2 -28.7344421642 3.69773 26.3394 1
383 2 -17.5394421642 16.3796 96.6357421642 1
384 1 31.0591 -6.4521421642 26.3104 1
386 1 23.4699 21.1032 52.7431 1
387 1 -3.5287421642 -26.6070421642 22.2996 1
388 1 20.8418 16.3131 76.7124 1
389 2 3.37001 7.16483 67.6742 1
391 2 40.9831 34.9874 39.7205 1
392 2 8.82775 15.1803 53.5303 1
394 2 19.386 -10.2356421642 69.7694 1
395 2 30.9739 19.5546 29.6207 1
396 1 -9.9036421642 52.3546 84.2908621642 1
398 2 -8.4683421642 3.27784 95.2623421642 1
399 1 -35.8107421642 39.1973 70.5402 1
400 2 5.61858 49.2665 74.1252 1
401 2 28.1844 34.7967 50.2536 1
403 1 -34.6782421642 34.5394 37.9834 1
404 1 -2.7897421642 37.7004 63.8374 1
406 2 -26.6760421642 -19.0651421642 92.6094621642 1
407 2 10.7742 50.0304 68.2401 1
408 2 31.3556 22.4256 21.9424 1
410 1 -27.2473421642 53.5472 49.6519 1
411 1 19.8409 -10.5399421642 91.7055221642 1
412 1 -9.8587421642 46.3054 27.4179 1
413 1 -18.0579421642 41.4097 69.5752 1
416 1 44.34 22.8381 72.645 1
417 2 33.6129 52.7099 90.4709921642 1
418 1 38.6338 45.0435 40.3327 1
421 1 43.2718 1.62295 46.2445 1
422 1 -16.2529421642 -2.22081 19.722 1
423 2 -20.1615421642 51.797 76.6256 1
426 2 -17.6119421642 49.573 78.9995 1
427 1 -27.8664421642 49.8939 83.0443081642 1
428 2 -20.8272421642 12.1042 30.9646 1
429 2 36.5943 39.7218 68.673 1
431 2 3.36636 30.6091 79.3016 1
433 1 31.7284 51.081 33.6957 1
436 1 -32.8858421642 25.6135 83.3112401642 1
438 2 18.1778 55.7692 40.4111 1
441 1 18.0979 46.6173 22.5243 1
442 2 -0.18714 -15.9941421642 17.1389 1
443 1 25.477 53.8186 26.6653 1
444 2 -28.1510421642 8.86467 16.9205 1
450 2 4.22898 13.342 62.5483 1
451 1 -14.4460421642 33.584 19.2225 1
452 2 -30.2932421642 -9.5134421642 17.0252 1
453 1 41.3983 22.3839 59.0519 1
454 2 -30.0447421642 -15.7306421642 50.79 1
456 1 31.921 -2.6335421642 77.4507 1
458 1 16.3419 -13.1992421642 70.6868 1
459 2 -7.5904421642 -21.7306421642 26.0707 1
460 2 12.0372 41.4776 82.6225791642 1
462 1 24.9391 16.4204 63.1511 1
463 1 23.6255 5.52636 55.5097 1
464 2 -30.2474421642 59.3991 49.9893 1
465 2 7.83386 50.7236 37.757 1
466 2 -30.8141421642 53.4966 83.4993351642 1
468 1 -31.3842421642 -6.2386421642 37.9163 1
469 2 28.6447 31.9299 74.4093 1
471 2 23.4491 -2.9400421642 31.5053 1
472 2 -19.2748421642 -19.9291421642 77.2058 1
473 2 10.9872 20.1007 72.7233 1
474 2 -17.6105421642 -21.2754421642 64.4733 1
475 2 -14.9682421642 57.1076 85.7122921642 1
476 2 44.2546 57.7309 58.5193 1
477 1 2.76227 -9.4123421642 78.6566 1
478 1 14.2687 -10.0617421642 89.6716221642 1
479 2 -17.1673421642 45.4077 29.1432 1
480 2 -1.59117 56.4415 63.3038 1
482 1 -19.5729421642 -16.4334421642 92.2834021642 1
483 1 -34.8572421642 23.6307 11.8569 1
484 1 10.6654 23.2491 34.1474 1
485 2 -14.5267421642 9.07108 87.7789221642 1
487 1 45.032 31.6314 71.1839 1
488 2 17.039 52.0802 52.877 1
491 2 37.8946 11.4366 24.4372 1
492 2 42.3489 36.3802 57.3796 1
493 2 -24.4718421642 22.5605 92.9315421642 1
495 2 -34.0914421642 51.3814 57.6145 1
496 2 -29.3535421642 59.7703 37.016 1
499 1 -15.3407421642 31.1875 92.5763021642 1
501 1 38.3315 36.1228 8.28163 1
503 1 19.4412 -10.2723421642 77.0814 1
504 2 -32.1476421642 -13.8761421642 65.2794 1
505 1 8.40729 45.0166 60.1924 1
506 2 24.7832 3.04476 51.5661 1
507 1 8.22028 12.8823 75.5014 1
508 1 -16.2646421642 42.3226 51.3622 1
510 2 -25.5311421642 -20.1983421642 94.2252421642 1
511 2 37.9177 7.45745 16.5073 1
512 2 31.776 56.1931 49.5822 1
513 2 5.61968 9.14868 19.1528 1
514 2 -26.5895421642 0.185574 82.3116261642 1
515 2 9.32301 59.9002 46.8598 1
516 1 22.812 -7.5699421642 42.8177 1
517 1 7.93001 15.2071 85.6229921642 1
518 2 -18.5008421642 43.0793 67.746 1
519 2 -15.5487421642 34.4934 62.1381 1
520 2 35.1384 40.3532 34.0925 1
521 2 -12.9314421642 24.3945 45.9133 1
522 2 -15.8593421642 41.5694 18.0089 1
523 1 -35.3039421642 51.4081 94.0610421642 1
524 1 4.12128 52.4846 33.6962 1
526 1 -38.4185421642 27.7635 89.6234821642 1
527 1 25.8671 -0.520626 38.7304 1
528 2 -17.7867421642 30.6876 82.3119391642 1
530 1 -2.04157 18.3745 30.5251 1
532 2 -13.1430421642 -15.0961421642 87.1286921642 1
533 2 33.9468 -4.7584421642 65.4723 1
535 1 -28.6596421642 -6.7883421642 92.1619821642 1
537 1 10.0136 30.7951 88.4832121642 1
538 1 -32.5550421642 59.1145 48.6698 1
539 1 31.0819 56.5857 74.2686 1
540 2 32.1602 57.6384 28.6381 1
541 2 -29.1865421642 -2.46105 15.7489 1
543 1 29.2293 50.4248 91.2131421642 1
544 1 14.5726 -13.9043421642 64.7644 1
545 1 -13.3587421642 -24.1864421642 83.9164621642 1
546 1 8.68325 41.8479 60.6455 1
547 1 -15.5416421642 43.6223 38.3107 1
548 1 26.8674 1.26136 29.0768 1
549 2 31.6752 20.2126 34.0977 1
550 1 11.1095 -3.7360421642 16.7198 1
551 1 29.9248 60.1814 70.915 1
553 1 7.86982 -2.09077 69.9428 1
554 2 -32.6369421642 -16.7712421642 87.0241121642 1
555 1 -14.1274421642 10.5673 19.9079 1
556 1 -12.7833421642 51.052 92.3656621642 1
557 2 -33.3991421642 49.8777 80.4635921642 1
561 2 -9.7518421642 41.4352 61.1442 1
563 1 40.3151 29.9728 13.6879 1
564 1 23.9374 43.6251 27.9965 1
566 2 3.56265 2.30468 20.9803 1
567 1 -8.8953421642 9.76634 90.0611221642 1
570 2 5.36619 30.9388 74.9838 1
571 1 21.2262 43.661 54.1982 1
572 2 -3.6991421642 28.0773 70.5336 1
574 1 -5.8502421642 55.3089 55.6915 1
575 2 34.5754 22.8065 45.6429 1
576 1 -10.7557421642 54.1237 86.4077721642 1
577 2 11.3936 -1.88529 63.2935 1
578 2 -28.0653421642 -1.22559 17.4874 1
579 1 -2.8835421642 17.4056 48.3283 1
581 1 -18.5218421642 40.5114 92.3794821642 1
582 2 -34.4159421642 -17.7003421642 30.413 1
583 2 15.1922 -1.95031 71.7269 1
584 2 17.6976 46.855 92.6041621642 1
586 2 25.672 45.5808 26.375 1
587 1 -23.1173421642 12.6763 42.0667 1
588 2 -12.0761421642 54.9111 39.4664 1
593 1 43.0674 8.68644 35.9249 1
594 1 42.4449 45.1938 16.6701 1
596 1 -2.7728421642 -1.88205 41.2123 1
600 2 -1.27075 40.1434 90.9614621642 1
601 2 38.1042 -8.6134421642 43.7676 1
603 1 -29.2849421642 5.99041 43.9935 1
606 2 -12.1048421642 -11.3401421642 36.0948 1
607 1 -33.9834421642 -2.6933421642 42.9008 1
608 2 -17.6524421642 47.0782 48.1488 1
609 1 -19.6424421642 45.2963 90.9370421642 1
612 1 36.8193 -16.4990421642 69.7 1
613 2 13.3245 52.031 70.5819 1
614 2 -34.1211421642 62.4491 73.3934 1
615 1 29.9477 14.8504 63.3704 1
616 2 25.123 17.3038 28.3584 1
617 1 1.87003 3.09366 72.3245 1
619 1 8.87503 56.2003 63.902 1
620 2 -3.3254421642 -15.3534421642 90.2667421642 1
622 2 -21.0196421642 30.8882 51.6469 1
624 2 -33.6865421642 53.464 79.1507 1
625 2 15.0745 9.97016 50.2769 1
626 2 44.6897 27.1434 84.1931121642 1
627 2 -25.3990421642 -5.1867421642 45.5107 1
629 2 18.0252 38.1221 41.2544 1
630 2 -25.4230421642 -7.4703421642 74.0977 1
632 1 10.4623 15.7352 87.2033921642 1
633 2 37.2178 35.8477 43.3449 1
634 1 6.49414 55.5629 54.2419 1
637 1 35.1448 7.74 54.0877 1
639 1 40.319 44.8029 23.5251 1
640 1 -9.3932421642 -9.2880421642 19.7656 1
642 2 3.83627 25.627 68.5274 1
643 2 -16.9636421642 -20.1070421642 34.6543 1
644 2 -10.6549421642 -20.2824421642 53.9599 1
646 2 11.0502 0.0111406 73.3892 1
647 1 -20.3282421642 -10.5794421642 39.2442 1
648 2 19.3113 -13.5090421642 19.8817 1
649 1 -21.5314421642 -15.0889421642 37.1917 1
650 1 -28.2398421642 12.7569 38.5256 1
651 1 41.0073 25.3478 73.6806 1
652 1 -2.11293 -9.5968421642 82.0591701642 1
653 1 15.3601 -7.2301421642 61.2335 1
654 2 41.8238 3.76276 56.145 1
659 2 35.955 0.888438 59.0411 1
660 2 1.34937 -0.725559 29.3848 1
661 2 43.3648 -20.6203421642 67.2779 1
663 1 -35.0711421642 9.16519 56.1644 1
667 1 34.9096 21.7054 58.9545 1
669 1 37.1873 7.10579 85.5030421642 1
670 1 16.8935 31.5649 96.8398421642 1
671 1 35.788 37.5924 90.4680221642 1
672 2 16.5439 -21.4772421642 55.2194 1
673 2 -8.7956421642 5.11517 79.7117 1
674 2 37.5069 29.5962 13.2986 1
676 1 22.9723 5.39164 92.9389421642 1
677 1 39.123 -4.1798421642 84.7190721642 1
678 2 -5.6685421642 -1.90928 68.1411 1
679 1 -28.0930421642 21.819 55.2244 1
681 1 41.2814 33.4776 44.1633 1
682 2 29.7755 18.18 31.2859 1
683 1 -12.7033421642 51.921 87.0190821642 1
686 2 -20.4387421642 56.8533 41.5337 1
687 1 -27.8550421642 58.7101 77.6374 1
689 1 -31.8641421642 52.2179 80.9933321642 1
690 1 -30.8462421642 -21.0115421642 27.9916 1
692 2 -34.7463421642 55.428 51.8689 1
695 1 28.5845 18.0636 36.9133 1
696 2 -8.4332421642 53.8957 97.5973421642 1
697 1 46.0054 6.17608 88.1216821642 1
701 2 -37.7091421642 32.4499 18.3667 1
702 1 13.0004 9.17438 75.3531 1
703 2 36.6152 -18.6273421642 14.3339 1
704 1 -20.6547421642 50.4968 55.4774 1
705 2 32.4096 24.0798 30.6171 1
706 2 19.3512 47.8172 54.9504 1
707 2 37.9381 54.2818 62.7362 1
708 2 30.6602 -16.4646421642 21.6302 1
709 2 -18.2906421642 -6.8857421642 81.4449321642 1
710 1 -5.9164421642 -16.8487421642 91.1982521642 1
711 1 -25.0327421642 -22.1636421642 96.4164421642 1
715 1 -38.9178421642 25.8564 13.9065 1
716 1 45.2187 -3.7676421642 85.9137321642 1
717 2 14.1531 -6.9713421642 68.1213 1
719 2 20.4741 39.9153 19.3985 1
720 1 6.0915 36.9445 87.9711121642 1
722 1 36.2317 -5.3312421642 17.3196 1
723 1 35.9718 53.8216 16.3189 1
725 2 -6.7702421642 40.8236 32.5835 1
726 2 -9.3027421642 -17.7130421642 62.2592 1
727 1 5.37512 46.7856 38.3537 1
729 1 0.975692 22.0205 32.6126 1
731 1 38.295 57.9101 20.9253 1
733 2 40.4953 31.1951 82.2584141642 1
735 2 -24.3047421642 41.0274 14.3858 1
736 2 37.7092 30.8238 73.8823 1
737 1 -13.1292421642 39.1058 96.0986421642 1
738 1 -35.8015421642 20.4048 68.7795 1
740 2 -6.9263421642 8.55971 77.5955 1
741 2 4.44669 48.7141 84.3166421642 1
742 1 -25.3379421642 14.6181 93.0158421642 1
743 2 17.9058 40.3472 52.9984 1
744 1 37.7532 52.3034 85.0425221642 1
746 2 8.78029 60.9493 67.2035 1
747 2 -18.3028421642 13.4353 74.5446 1
749 1 13.7407 -24.0354421642 32.1293 1
750 2 35.122 10.9563 79.0121 1
751 2 -31.0812421642 11.3953 36.3409 1
755 1 15.4634 16.8034 20.0837 1
756 2 7.91192 -9.1554421642 77.8047 1
757 2 -7.6652421642 52.2411 39.9247 1
758 1 -17.3667421642 5.82787 39.5356 1
759 1 38.5431 58.8495 14.5342 1
760 1 32.6041 20.4801 27.4535 1
761 1 18.1595 7.84973 71.7203 1
762 1 26.9865 -6.1704421642 36.9973 1
763 2 26.2126 7.51795 35.8755 1
764 2 37.0746 -5.9984421642 90.0167521642 1
765 2 -18.2253421642 43.1729 79.3126 1
767 2 30.4187 61.38 67.9629 1
769 1 36.3133 -1.62503 35.189 1
770 2 9.46245 28.4369 42.6201 1
771 2 -24.8110421642 -11.4895421642 84.3470221642 1
773 2 12.3549 41.9206 49.667 1
774 1 -18.7063421642 47.4065 93.0137421642 1
775 2 0.991738 10.2392 77.0149 1
776 1 43.4212 -5.5755421642 69.441 1
777 2 -34.1489421642 -12.5502421642 31.3336 1
778 1 -1.68757 53.0194 64.3806 1
779 2 27.6364 -7.6614421642 55.1082 1
780 2 1.58639 15.0169 27.9186 1
781 2 11.213 12.0957 66.1811 1
783 2 -9.9279421642 34.7958 65.3938 1
785 1 45.8603 -4.2956421642 76.9064 1
786 2 -0.418455 -22.6734421642 30.4784 1
787 1 -26.2351421642 -17.8661421642 52.4003 1
789 2 -37.7132421642 3.32431 46.965 1
790 2 -15.0572421642 40.6772 94.0923421642 1
791 2 27.6247 48.925 23.332 1
793 1 -37.0814421642 12.8823 53.2871 1
795 2 30.5678 44.3929 62.2602 1
796 2 5.70517 -9.5800421642 28.1637 1
797 1 38.3572 47.2951 19.0116 1
798 2 43.4899 -1.4207 45.1869 1
800 1 22.8691 -14.2285421642 94.1188421642 1
801 1 7.91258 35.0692 86.8966321642 1
802 2 32.0322 54.3359 43.4548 1
803 2 8.41153 26.8476 44.4192 1
805 2 19.1957 0.371109 85.6526221642 1
807 2 -32.0999421642 22.6424 73.9764 1
808 1 -38.4516421642 48.6915 49.0315 1
809 1 36.5348 57.8646 71.6428 1
813 2 38.5543 49.3645 45.9677 1
814 1 2.74636 21.2093 34.9152 1
815 2 25.0005 10.5072 59.1197 1
817 2 -8.6978421642 53.1707 23.3399 1
818 1 17.2573 29.5897 69.9625 1
819 1 9.46188 57.2207 57.2636 1
824 1 18.3542 -3.0321421642 21.0711 1
825 1 20.8439 -17.1950421642 47.3559 1
826 2 26.9997 -14.5762421642 29.126 1
828 2 -22.8434421642 -14.7341421642 73.0209 1
829 1 13.4552 -17.1525421642 35.3102 1
831 1 -24.0145421642 6.90211 21.8857 1
832 2 18.9703 19.7181 60.3008 1
833 2 24.0629 49.2247 29.2844 1
834 2 -3.7344421642 12.8448 97.3843421642 1
835 2 27.7937 19.3836 78.8668 1
836 2 39.593 56.7362 31.5775 1
838 1 -18.5134421642 54.2503 23.488 1
839 2 13.1109 48.7121 31.9523 1
840 1 -1.11487 28.0391 70.7267 1
841 1 29.1769 27.1577 72.6885 1
842 1 29.8468 -17.4769421642 44.0986 1
843 1 -27.9259421642 -8.6089421642 30.745 1
845 2 17.0553 40.8101 69.505 1
846 2 -14.4099421642 36.1767 38.824 1
847 2 -35.4067421642 0.330306 61.7957 1
848 1 -26.2208421642 30.6884 85.9498321642 1
849 1 -12.9942421642 18.8533 24.5104 1
850 1 34.8096 17.3507 73.9415 1
851 2 -31.0690421642 48.1129 32.7892 1
852 2 -37.0283421642 56.9757 37.6835 1
853 1 -19.0264421642 20.9345 77.8311 1
856 1 8.99298 34.1196 74.4428 1
857 2 27.3119 -22.3560421642 79.7084 1
859 1 -36.7937421642 35.0689 30.1115 1
860 1 23.272 -18.0754421642 72.3159 1
862 1 12.2259 -9.8149421642 29.3005 1
863 2 3.51443 30.1805 91.6216521642 1
867 1 -11.1362421642 -18.1625421642 39.0148 1
868 1 -34.3655421642 1.08031 29.781 1
870 1 -29.7203421642 -5.7710421642 17.6162 1
871 1 27.3426 13.7187 75.3317 1
872 1 30.4026 39.0787 31.3352 1
873 2 -34.2529421642 -4.3507421642 86.6862621642 1
874 2 17.9961 -4.3777421642 64.2022 1
876 2 36.8996 40.546 9.10873 1
878 2 37.451 39.8979 42.3048 1
879 1 -18.2677421642 37.22 75.7025 1
881 2 -21.3844421642 31.8896 15.7139 1
883 1 -22.0464421642 33.6179 61.499 1
884 2 -13.1408421642 58.9094 46.1801 1
885 1 15.6584 48.2994 32.4914 1
886 2 -31.5499421642 -9.9010421642 15.2028 1
887 1 41.6868 22.841 25.9794 1
888 1 -21.5104421642 18.6662 94.9307421642 1
889 1 2.92026 11.9612 59.1253 1
890 1 5.76894 23.4237 48.3053 1
891 1 3.60394 18.9635 84.3705121642 1
893 2 4.25472 9.37962 49.2952 1
895 2 42.0102 2.84943 77.0879 1
896 2 -5.0992421642 -12.3870421642 72.138 1
897 1 9.3306 -10.4700421642 72.3708 1
898 1 -37.0252421642 28.7585 24.3125 1
899 2 -0.969076 -3.7595421642 76.0731 1
901 2 -11.0103421642 -21.2150421642 77.5367 1
902 1 -12.9094421642 29.4553 37.9731 1
903 1 24.8722 -1.66361 89.1834321642 1
904 2 -32.0844421642 6.1411 60.4407 1
905 2 -34.3088421642 29.8682 49.397 1
906 2 8.54467 16.9877 44.7707 1
909 2 -2.16235 6.87583 67.5284 1
910 1 -29.0417421642 -11.0606421642 14.7662 1
911 2 -2.8142421642 41.5127 60.8707 1
912 1 7.79344 56.9297 84.8903521642 1
913 1 -6.6440421642 54.5889 47.1144 1
914 1 36.6039 38.4899 32.8702 1
916 1 -34.2861421642 5.05482 36.054 1
917 2 4.57667 -12.8507421642 50.6911 1
918 2 -7.0224421642 53.8666 53.8772 1
919 1 9.39138 27.4885 85.9347421642 1
921 1 3.767 -15.0835421642 63.7634 1
922 2 40.6017 9.64283 33.7265 1
923 2 30.0088 42.6075 46.5236 1
926 2 40.0618 37.9495 71.8814 1
927 2 -26.5318421642 39.6421 76.551 1
931 1 -32.0431421642 37.8075 27.3854 1
932 1 -30.0992421642 8.66293 55.647 1
933 1 41.6452 -15.6124421642 38.0545 1
934 1 25.1601 47.7451 20.8878 1
935 2 -5.1842421642 18.75 52.6691 1
936 1 14.9579 27.9522 57.8557 1
938 1 12.0989 2.28138 42.3423 1
940 2 6.43294 -18.3962421642 51.6658 1
941 1 20.1084 -2.6229421642 13.1199 1
942 2 -28.0460421642 50.296 58.4354 1
943 1 10.1852 35.2353 69.3269 1
945 2 15.3065 28.007 41.2908 1
946 1 -21.8326421642 50.8873 58.5833 1
947 1 22.0208 31.7308 16.8925 1
948 2 18.1907 42.3442 99.0097421642 1
949 1 -3.9210421642 35.8457 93.6966421642 1
950 1 -22.3186421642 27.0456 29.821 1
951 1 -29.6132421642 -6.7458421642 76.953 1
952 2 17.748 -8.1093421642 29.6073 1
953 1 -14.7617421642 58.9699 33.2816 1
954 2 -11.2777421642 55.9257 64.5161 1
955 2 13.1655 20.9087 95.3860421642 1
956 2 4.41891 -14.7325421642 30.8194 1
959 1 -3.7838421642 54.1516 24.391 1
960 1 36.8216 51.6332 67.6945 1
961 1 -22.1837421642 22.8423 38.2696 1
962 2 2.9333 -3.6022421642 20.2296 1
963 2 24.7068 3.82541 71.732 1
964 2 -25.4195421642 29.0423 54.43 1
965 2 -2.7705421642 -15.3114421642 20.351 1
966 2 39.802 43.1229 71.0424 1
967 2 37.6322 31.9877 78.585 1
968 2 6.46849 28.522 75.4651 1
969 1 42.712 -22.0553421642 37.7595 1
971 1 -7.0552421642 -7.1215421642 88.1975121642 1
972 2 -11.6288421642 28.3898 71.0862 1
974 2 -13.2421421642 -22.9111421642 92.2583821642 1
975 1 -30.8671421642 36.4633 58.9921 1
976 2 -34.8662421642 0.728133 87.6489921642 1
977 1 -16.8208421642 44.6297 74.2962 1
978 1 -40.0871421642 42.7295 47.2467 1
979 2 -28.0959421642 -6.9676421642 49.4167 1
980 2 -22.9681421642 2.49038 50.8506 1
984 2 18.8985 -18.8591421642 54.3579 1
986 2 0.135874 54.7827 62.445 1
987 2 -23.4930421642 45.784 49.9106 1
988 2 11.7035 -16.8211421642 71.8357 1
989 1 43.158 46.103 19.8542 1
990 1 6.83706 24.9499 43.5513 1
991 2 -8.9055421642 43.6895 21.121 1
993 1 -16.3534421642 -12.5129421642 78.123 1
995 1 -12.3849421642 -5.4332421642 96.3912421642 1
996 2 10.8385 21.3038 76.7435 1
997 1 17.7032 -15.4303421642 47.0148 1
998 2 -30.2001421642 53.2896 33.2143 1
1000 1 -34.7862421642 12.8547 26.2851 1
1001 1 28.0376 9.17158 28.4911 1
1002 2 12.5753 36.2886 70.1394 1
1004 2 -1.16825 -18.0234421642 90.1626021642 1
1005 1 -0.712192 45.244 21.5137 1
1006 2 -30.9421421642 42.854 27.3603 1
1007 2 26.7674 -24.8686421642 34.2106 1
1009 1 -19.7150421642 17.7403 84.1587221642 1
1010 2 -28.1106421642 21.3715 91.6528221642 1
1011 2 0.965658 44.5688 32.487 1
1012 2 -37.4419421642 33.0176 33.9879 1
1013 2 26.1792 22.8141 65.7773 1
1014 2 31.2314 34.495 31.0719 1
1015 2 -4.9219421642 0.392555 80.7501621642 1
1016 2 32.3297 55.1648 94.7164421642 1
1017 1 24.5523 56.288 39.7871 1
1020 2 10.1566 4.60625 14.2746 1
1021 2 -18.6835421642 8.41166 72.7848 1
1024 2 -17.0348421642 58.9251 40.3829 1
1025 1 0.601348 12.3807 60.6753 1
1026 2 34.3057 -9.2073421642 75.293 1
1027 1 -21.9512421642 -4.0428421642 38.0383 1
1029 1 -14.4910421642 6.11554 89.7653221642 1
1030 1 -9.3721421642 54.371 73.1635 1
1032 2 -25.1525421642 18.5654 20.147 1
1033 2 29.3165 34.7541 71.4655 1
1034 2 -6.2931421642 31.3609 30.7947 1
1036 1 -0.00189591 47.0118 28.4817 1
1037 2 -35.5874421642 58.7516 81.5910721642 1
1038 2 -16.6788421642 47.1915 90.9987421642 1
1039 2 -15.6881421642 37.0695 16.7768 1
1043 1 2.06633 28.7872 22.2553 1
1044 1 15.1105 -4.5449421642 72.0531 1
1045 1 41.5918 41.9284 43.8333 1
1046 2 -15.8638421642 31.2146 12.4515 1
1047 1 39.1624 -7.0135421642 70.8697 1
1048 2 -35.0078421642 -13.4966421642 89.2619921642 1
1050 2 -11.2566421642 55.554 47.9203 1
1051 2 -3.6782421642 -7.1534421642 22.8012 1
1052 2 -9.9391421642 21.7128 79.2661 1
1054 2 -11.0096421642 7.99863 86.1859121642 1
1056 1 18.4789 58.6926 30.8168 1
1057 1 -24.9133421642 34.2252 75.7866 1
1058 1 11.6264 18.2426 52.3888 1
1059 1 3.28912 24.1066 42.509 1
1060 1 -19.8542421642 -22.0209421642 93.9629421642 1
1061 1 -26.9418421642 1.89131 30.3042 1
1063 1 -23.7939421642 -16.5409421642 89.0859521642 1
1064 1 38.412 37.9677 14.5303 1
1065 2 -22.1120421642 37.957 84.0935421642 1
1066 1 -4.6757421642 13.8342 29.1506 1
1067 1 17.6433 5.73166 81.5367021642 1
1068 1 -6.9818421642 55.2324 24.6141 1
1069 2 26.173 40.9973 14.2039 1
1071 2 40.4228 -19.6378421642 44.2937 1
1073 1 6.32594 33.2526 64.5834 1
1075 2 28.7892 51.3962 61.323 1
1078 1 -4.8721421642 54.8235 27.4079 1
1079 2 -14.3991421642 50.4758 97.7086421642 1
1080 2 -23.2269421642 12.2078 47.4057 1
1081 2 -9.7391421642 16.8794 38.2954 1
1084 2 16.4282 59.2983 59.793 1
1085 2 3.79518 23.2794 90.6997721642 1
1086 2 -14.1486421642 8.36513 64.4241 1
1087 1 4.1359 -17.9785421642 72.0991 1