ITEM: TIMESTEP
0
ITEM: NUMBER OF ATOMS
32000
ITEM: BOX BOUNDS pp pp pp
-2.5508472488861860e+00 8.0385624767244579e+01
-2.5508472488861860e+00 8.0385624767244579e+01
-2.5508472488861860e+00 8.0385624767244579e+01
ITEM: ATOMS id type x y z
1 1 77.1267 64.5675 12.4256
2 1 70.1221 75.4352 59.972
3 1 74.7025 49.2166 74.5738
4 1 57.6716 2.71424 53.0831
5 1 58.2683 56.996 22.3252
6 1 17.4606 52.6123 57.6259
7 1 73.1744 53.8704 56.9075
8 1 14.4293 76.37 49.0636
9 1 56.7897 30.8525 60.1219
10 1 -0.716899 5.40064 30.4974
11 1 47.6347 7.09549 65.397
12 1 59.3518 54.2734 79.9238
13 1 61.0952 78.4821 60.2394
14 2 55.6334 68.0352 55.7253
15 2 58.1366 25.8125 78.82
16 1 34.4183 66.1125 3.72389
17 1 24.5299 61.647 74.4674
18 2 20.3611 43.7408 50.5077
19 1 31.0806 16.0904 9.74081
20 1 19.247 13.0792 37.1594
21 2 9.0162 23.6039 59.0926
22 1 28.4887 -1.94582 57.5192
23 1 36.6886 45.9194 80.1594
24 2 30.4707 47.1919 58.0183
25 2 29.7526 30.9351 68.9588
26 1 33.3014 61.4012 19.4044
27 2 17.3402 2.53503 -0.785659
28 1 62.4064 -1.58417 53.1855
29 2 75.3277 61.8323 17.0244
30 2 12.006 35.7981 71.6076
31 1 5.15786 63.0228 38.8676
32 1 -1.11143 13.6088 41.8063
33 1 45.8351 67.4088 -2.46151
34 2 40.4183 77.4469 56.8578
35 1 2.21742 10.8722 4.93937
36 2 64.347 13.7573 9.40527
37 1 5.33498 49.3402 29.0092
38 1 -0.346537 32.69 10.9908
39 1 47.9507 0.287897 61.1792
40 2 16.0435 32.2454 64.6375
41 2 55.6243 58.1354 56.6856
42 1 42.2681 5.76206 36.9069
43 2 7.30361 55.469 2.35755
44 2 -0.403461 37.7014 70.7547
45 2 63.7779 76.3015 56.1704
46 2 21.3312 64.7483 70.7871
47 2 -0.0492033 45.1891 17.8331
48 1 11.1739 4.79066 34.1956
49 2 57.3369 54.2026 16.4704
50 1 25.0591 17.9522 67.0353
51 2 70.8668 13.7445 21.9756
52 1 32.4491 19.2759 50.4186
53 2 51.3599 64.8648 -0.0629612
54 1 52.2667 14.6185 36.3779
55 1 60.5149 21.8453 65.9364
56 2 72.788 63.2149 25.9047
57 2 30.7518 50.5141 11.2127
58 2 17.6313 17.3317 68.7583
59 2 55.421 22.8698 25.3829
60 2 69.9077 44.9202 11.7023
61 2 22.3079 70.7253 72.4425
62 1 44.4377 42.3201 60.4972
63 1 27.268 14.63 70.5498
64 2 51.1945 9.92482 8.03067
65 2 34.5873 0.140232 72.5729
66 1 40.8857 9.23516 -0.896791
67 1 2.46979 4.4139 7.73782
68 1 40.9097 72.6029 70.627
69 1 -2.3269 22.5726 47.0595
70 2 29.1633 53.6845 0.227116
71 2 60.2503 56.9965 79.4425
72 1 42.0212 62.9618 64.2705
73 1 41.1618 67.8263 -1.36666
74 1 21.762 60.1514 56.0855
75 1 22.3072 10.4767 68.0616
76 2 80.2475 4.68807 7.45205
77 2 22.9823 2.69187 75.4068
78 2 66.9617 -0.854093 65.78
79 1 75.7285 67.3411 44.1244
80 1 3.63365 10.0383 35.371
81 2 54.7241 72.2351 64.0683
82 2 54.7873 33.0271 55.0009
83 1 33.5222 55.2615 57.8856
84 2 44.8856 22.588 45.198
85 2 77.2911 67.4627 46.5049
86 2 79.1614 46.8051 56.0193
87 2 47.6387 67.9018 75.3869
88 2 54.4766 11.0573 60.7417
89 1 38.6918 37.4114 0.3075
90 2 65.8959 14.0195 38.0516
91 1 29.4829 22.7095 15.6366
92 1 79.949 29.1334 50.2649
93 2 36.6807 73.4489 72.4842
94 1 4.33716 37.5319 22.4697
95 1 14.8562 -2.2141 0.145908
96 1 23.0046 4.97869 58.1584
97 1 75.0541 5.56479 51.8166
98 2 3.28574 3.39527 60.136
99 2 53.7462 4.76178 64.542
100 2 14.5611 48.306 34.3869
101 1 5.44823 48.4585 56.7183
102 2 9.58506 69.6362 29.0915
103 2 6.1898 1.99093 39.584
104 1 33.8458 25.0416 14.0124
105 1 79.8561 78.9301 75.9087
106 2 32.61 8.20586 -0.624752
107 1 26.1556 58.2969 42.1593
108 2 42.0201 45.7721 37.3042
109 1 48.8602 23.7053 67.4761
110 2 79.6886 42.7103 8.402
111 1 -0.128868 69.8698 49.6163
112 1 62.8809 45.8356 5.27001
113 1 10.6612 12.5991 52.9693
114 2 8.60626 30.7225 49.3231
115 1 79.0175 70.9224 57.0532
116 1 42.7246 63.1468 67.1767
117 2 51.6813 60.4335 57.7395
118 2 1.52856 34.8285 65.0833
119 2 32.2907 41.043 2.35733
120 2 49.7849 75.2342 55.4418
121 2 7.5003 29.7179 -0.444825
122 2 70.3098 12.3877 49.4784
123 2 27.947 35.5692 44.7814
124 1 6.5585 12.1174 31.7697
125 1 5.24049 54.764 48.8904
126 2 14.99 52.4523 43.4843
127 1 73.4183 67.8209 66.9586
128 1 41.1022 56.7758 23.5861
129 2 18.1465 33.074 63.2631
130 2 31.1142 22.6962 35.4724
131 2 0.0108096 29.9464 23.8642
132 2 68.295 68.1973 72.4877
133 1 14.9009 61.36 45.954
134 2 20.1717 19.3794 65.2579
135 1 54.6347 32.1431 38.6105
136 1 52.084 56.9275 22.1429
137 2 3.26431 22.6866 23.5967
138 2 46.2739 22.1775 69.5998
139 2 64.0648 24.4214 17.2429
140 1 30.5806 3.73579 12.314
141 2 31.0442 72.8407 67.377
142 1 37.2806 40.824 77.7723
143 1 5.25752 27.6961 59.7436
144 1 34.2565 -1.07256 7.73115
145 2 52.0116 65.113 34.4882
146 2 43.3995 24.0654 27.8516
147 1 -0.203529 -1.78116 3.85782
148 2 12.4097 36.9854 33.1257
149 2 52.5308 48.828 41.0636
150 2 18.5767 13.7794 27.8557
151 1 57.3222 54.97 -0.824386
152 1 48.5152 62.8854 44.4223
153 1 4.76885 39.8392 20.2923
154 1 31.9486 41.9977 75.3702
155 2 35.2002 33.0887 34.1117
156 2 52.4702 77.7411 52.3543
157 1 0.710268 31.2744 71.7931
158 1 10.2199 75.5447 3.96911
159 1 59.3034 1.89851 3.72858
160 2 77.714 36.9037 38.9964
161 1 8.48254 20.2229 39.9192
162 2 10.2212 24.7414 30.0361
163 1 20.753 78.2103 43.1816
164 1 60.2216 65.6428 9.67742
165 1 26.0464 62.641 27.2116
166 2 49.6963 52.1822 26.0762
167 2 48.1432 45.0146 59.4199
168 2 26.6668 0.665431 10.5911
169 2 20.5363 63.5209 47.7909
170 2 59.8206 24.2227 18.1045
171 1 21.2873 8.00459 20.3143
172 2 58.4355 41.0185 78.6792
173 1 74.6048 62.2074 3.90746
174 1 76.819 33.2323 40.3317
175 1 49.2004 1.22079 52.5849
176 2 42.7396 44.8153 28.3992
177 2 38.9326 38.2576 15.4836
178 2 -0.00129915 22.9443 28.5302
179 1 49.4841 69.2606 36.7878
180 1 59.9062 42.3872 28.5928
181 2 24.6171 73.1411 60.9857
182 2 24.3635 53.0897 43.7791
183 2 68.2177 27.2255 17.1344
184 1 59.2308 22.416 47.9636
185 2 76.1206 33.065 76.1268
186 1 70.9061 5.77628 39.8181
187 2 7.47653 41.4996 13.6118
188 1 49.7196 53.9239 49.1956
189 2 69.008 37.8932 58.1928
190 1 60.8976 76.0689 15.0584
191 1 4.9005 19.9286 70.0069
192 2 35.2248 30.1001 63.8251
193 1 44.2824 20.2278 74.6662
194 1 80.2229 11.3643 36.1474
195 1 67.7377 21.8581 18.1368
196 2 13.0089 5.09229 24.3237
197 2 11.3033 -2.17846 77.2589
198 2 45.1192 67.0283 58.1538
199 1 10.8777 65.1338 25.4295
200 2 14.8863 63.6515 53.3613
201 2 4.05901 77.8233 56.8636
202 2 33.3895 19.4952 23.0197
203 1 53.3499 58.0316 61.7937
204 2 68.0756 5.59689 43.5184
205 1 58.7677 44.0554 4.68492
206 1 38.4619 20.9029 33.7014
207 2 9.72142 67.1519 2.12796
208 2 71.2857 78.8393 12.4778
209 2 24.466 47.7622 9.72182
210 1 55.9495 1.55715 60.8245
211 1 20.8274 7.70505 7.89757
212 2 62.0615 28.9486 43.4931
213 2 44.0963 65.0219 65.0542
214 2 43.2076 27.5785 60.3035
215 2 13.8919 36.4779 4.5722
216 2 51.8447 16.906 59.7606
217 2 75.6311 32.2472 57.0697
218 1 3.94896 16.2402 27.6133
219 2 11.9052 46.6966 11.6063
220 1 29.6731 67.5675 68.2795
221 2 11.7552 25.6267 79.8248
222 1 71.8995 15.1666 31.5952
223 1 60.6453 57.2209 36.3948
224 2 71.2748 1.96677 30.6959
225 2 10.5718 19.8226 1.42519
226 2 77.9184 -1.70165 63.9325
227 1 76.6806 57.4451 71.4676
228 2 63.6565 20.1221 42.9031
229 2 59.9889 65.2173 47.5349
230 2 35.638 72.2099 31.4843
231 2 59.3694 55.8949 55.6262
232 1 14.4261 44.1172 77.6037
233 2 49.9802 -0.223359 6.22687
234 1 68.8422 3.80062 51.6719
235 2 8.83489 62.3782 31.6119
236 2 55.8987 55.5494 38.4266
237 2 35.0151 66.624 63.5906
238 2 76.3881 6.21224 65.6611
239 2 3.78064 55.1109 22.6007
240 2 11.216 55.3829 9.59371
241 2 -0.632983 0.0661211 46.2664
242 2 72.8824 79.8906 57.1749
243 2 47.0527 55.4267 56.6431
244 2 31.1173 49.6513 7.23401
245 2 79.6129 9.15226 63.83
246 2 39.3024 39.5315 64.6114
247 1 43.7466 44.6399 3.19698
248 2 44.6098 19.1693 35.5579
249 1 64.2062 17.4649 12.4734
250 1 15.017 74.3184 21.2025
251 1 72.7973 11.9033 24.4903
252 2 36.3417 76.6804 65.923
253 2 61.6201 0.793476 43.1822
254 2 67.0557 63.8479 19.279
255 2 52.3049 41.9625 40.1419
256 1 30.3347 41.0446 69.6972
257 2 59.9736 29.9604 31.2829
258 2 39.3498 0.204492 19.249
259 2 45.8762 77.4786 8.06932
260 1 58.0402 51.3178 3.12325
261 2 79.8499 71.3395 1.91038
262 2 24.0709 18.5421 7.70721
263 1 43.7997 79.4746 40.7799
264 2 20.3359 24.4032 65.9207
265 1 75.7662 50.8503 5.1764
266 2 26.7215 66.6644 7.82819
267 1 76.3958 24.154 45.3944
268 2 29.4444 37.7642 48.3715
269 1 19.3095 68.0482 15.5918
270 1 49.5012 80.2308 5.25902
271 2 17.5725 76.6082 12.2867
272 2 17.1103 40.736 61.7251
273 2 70.767 64.3508 71.483
274 2 42.6453 22.2697 32.7559
275 1 35.8538 36.6896 29.4854
276 2 70.873 20.5639 1.02936
277 2 4.59898 27.8949 44.9789
278 1 -0.251589 9.08822 78.2758
279 1 37.1638 17.2523 80.2339
280 2 47.4653 22.1756 28.5608
281 2 24.3334 74.289 20.1793
282 2 7.01962 37.9823 -2.01586
283 1 51.039 24.5676 69.131
284 2 27.4053 31.5892 19.9702
285 2 36.3385 46.6321 60.8484
286 1 25.8737 76.2201 54.3895
287 2 72.65 50.9647 73.5806
288 1 8.78794 36.2304 41.7322
289 1 45.8213 77.3327 0.188684
290 1 52.8253 4.58436 6.59593
291 1 44.1865 18.7934 60.9292
292 1 55.9475 46.265 16.1094
293 1 1.53773 43.4105 52.4676
294 2 50.794 69.168 18.2835
295 2 6.14561 47.7557 40.1911
296 2 73.3564 77.339 70.8588
297 2 62.2811 41.4505 68.5006
298 2 21.5176 50.5795 66.2817
299 2 4.60819 53.8756 36.1038
300 1 21.2038 72.5609 44.0305
301 2 15.7668 25.2373 11.2527
302 2 28.5747 78.9441 37.0625
303 1 42.9015 38.5687 53.536
304 2 37.644 71.9151 -0.331469
305 1 46.7725 53.9435 54.5195
306 2 24.7264 53.1704 77.9412
307 1 58.4578 26.0196 68.4186
308 2 73.2727 18.2004 79.8261
309 2 46.5196 9.56145 0.29105
310 1 5.07677 9.39253 21.4971
311 2 -0.646632 14.2234 70.4404
312 2 37.5475 31.9885 6.43429
313 1 28.4797 77.1347 70.2238
314 1 15.8496 53.7835 74.6274
315 2 64.517 55.6222 43.1649
316 2 11.0596 53.0495 17.3742
317 2 42.5414 58.3025 66.2574
318 1 51.8705 61.511 8.96668
319 2 18.9154 15.3646 20.63
320 2 41.0981 19.4901 74.1557
321 2 40.2304 22.7809 54.7856
322 1 17.8312 17.4067 45.8445
323 2 52.2179 55.2637 62.4473
324 1 7.47289 30.6776 40.7516
325 2 18.9094 68.2984 3.08312
326 1 57.4783 28.1307 58.6508
327 1 56.6886 78.8646 40.148
328 2 43.3259 -0.312509 62.641
329 2 65.0387 52.5212 28.4816
330 1 38.0739 55.3196 20.253
331 1 75.8737 43.0386 11.4637
332 2 25.6163 37.8115 77.8515
333 2 67.9466 53.8748 -0.724483
334 1 33.0799 76.9647 43.8623
335 2 75.1789 46.4378 0.130883
336 1 40.5154 41.3473 3.07673
337 1 48.1851 30.2708 13.3511
338 1 60.219 -0.0941771 24.7852
339 1 27.0067 19.18 41.3361
340 2 55.6487 5.34568 49.3835
341 2 32.1068 60.4173 41.7833
342 2 4.90446 31.6167 33.0556
343 1 76.3623 22.089 36.1432
344 2 59.8547 31.7122 53.5794
345 2 52.5221 22.0889 51.306
346 2 63.3427 28.0544 73.4329
347 1 9.61395 24.041 45.4231
348 1 49.6077 45.1146 62.3457
349 1 69.6105 42.082 2.89896
350 2 -1.10435 15.8781 16.4515
351 2 56.6865 64.6745 74.4612
352 1 53.8853 67.9022 4.60824
353 2 71.2241 74.4425 10.5862
354 1 25.6431 76.0104 76.6384
355 2 21.3261 75.6806 1.9529
356 1 18.4569 35.968 38.4349
357 1 15.7278 33.452 20.547
358 2 76.8252 76.6825 47.2563
359 1 10.088 2.54111 68.8303
360 2 43.0322 19.5808 28.6498
361 2 65.7145 54.9917 70.8847
362 2 76.8186 75.6366 80.2574
363 1 11.5698 41.3869 50.9968
364 2 16.2067 3.62971 79.4072
365 1 69.38 72.3202 25.9463
366 2 78.4099 42.4527 74.1394
367 1 0.225709 68.2601 24.9245
368 2 19.5681 49.9872 54.1044
369 1 75.0301 11.5922 29.1873
370 1 48.3864 56.9783 54.6443
371 2 53.5619 46.9646 69.0657
372 2 26.7736 70.2383 40.471
373 2 62.0785 38.8464 16.9365
374 2 17.4711 35.5584 71.252
375 1 21.7744 18.4801 39.1501
376 2 28.418 70.342 15.6168
377 1 27.7317 45.5104 60.4227
378 1 69.5569 51.1826 51.1856
379 2 43.6857 6.97473 32.0672
380 2 41.8224 15.3318 43.1587
381 2 19.7563 65.6589 23.032
382 2 71.3404 65.1492 17.3677
383 2 54.0347 73.2846 26.677
384 1 12.0181 62.1576 18.9715
385 1 48.5719 17.0271 35.3046
386 1 -0.0827325 2.58785 53.357
387 1 54.6832 40.08 9.63258
388 1 8.42071 1.39287 55.0948
389 2 60.1851 14.2365 37.2779
390 1 19.0456 60.1924 34.7019
391 2 21.9015 14.5126 10.7969
392 2 65.1735 0.948388 61.3754
393 2 11.4904 71.893 15.8502
394 2 78.939 71.8418 52.1232
395 2 12.0708 19.2682 21.9422
396 1 52.5426 38.0324 -1.78694
397 1 56.7234 54.2026 68.5217
398 2 57.6384 71.6204 28.8505
399 1 25.6023 22.3114 64.5868
400 2 55.9874 32.9486 9.24966
401 2 21.5199 26.1536 72.6043
402 1 43.5891 4.80218 59.5352
403 1 21.8622 28.7256 37.791
404 1 71.572 38.7094 58.3183
405 2 8.92414 49.1876 3.63088
406 2 33.8895 54.1011 19.5603
407 2 66.361 38.6367 45.9569
408 2 19.3514 2.96705 37.0467
409 1 76.7758 68.4568 56.0559
410 1 45.3853 37.6567 47.7597
411 1 -1.6255 68.2388 7.96294
412 1 52.1963 30.9149 25.4122
413 1 37.6754 25.8165 72.2321
414 1 3.62197 25.4899 61.3691
415 2 15.9203 74.9398 12.2961
416 1 27.0265 1.44177 77.811
417 2 74.5375 14.304 24.927
418 1 32.3598 36.509 33.4998
419 1 6.05408 7.68321 4.89704
420 1 2.76763 45.9955 50.403
421 1 17.944 72.8552 43.3366
422 1 51.0861 56.1612 13.6425
423 2 22.6476 22.7934 4.74558
424 1 44.6743 43.088 15.7396
425 1 55.9519 19.5454 65.5038
426 2 58.0757 16.2618 72.2151
427 1 37.4444 32.7764 3.63021
428 2 49.7225 21.518 24.5966
429 2 37.9451 45.6228 45.7316
430 1 26.601 49.8017 50.0833
431 2 2.65776 19.3359 64.8514
432 1 67.9288 3.47158 72.0063
433 1 11.3212 50.8062 30.6491
434 2 76.9159 41.9155 32.2191
435 2 73.8967 77.4608 15.7651
436 1 20.8117 15.9492 72.3824
437 1 23.4585 -1.34472 1.67067
438 2 59.0257 41.509 45.6388
439 1 72.8045 73.0445 55.6513
440 1 77.3579 43.3123 41.4043
441 1 -0.728443 27.0988 25.7041
442 2 40.4411 49.1993 7.26355
443 1 6.26687 24.4132 22.3381
444 2 49.5492 71.9898 11.1386
445 1 29.1611 43.7117 62.1081
446 2 51.3217 14.4516 48.7679
447 2 61.6918 -0.621127 36.0872
448 1 23.9585 4.70315 45.5932
449 1 63.1334 40.6939 75.2178
450 2 65.1459 4.84284 59.9233
451 1 51.659 25.0873 22.7551
452 2 39.842 59.8107 30.4631
453 1 34.6063 4.11489 47.3311
454 2 18.2374 67.6836 47.9313
455 2 58.8726 69.2708 58.1306
456 1 31.7033 76.0472 79.3033
457 2 53.0705 42.601 9.74384
458 1 3.39153 62.888 67.1352
459 2 36.4507 49.3769 26.8993
460 2 73.6876 34.339 -0.583919
461 1 50.4091 55.3287 56.9379
462 1 5.54071 4.31577 72.6086
463 1 4.13223 77.7377 44.165
464 2 41.272 36.2711 59.5067
465 2 74.3455 15.2829 32.543
466 2 32.4359 35.8616 69.8429
467 2 7.46023 41.1108 58.4279
468 1 24.0315 52.2347 21.3828
469 2 25.7407 37.5632 65.5036
470 1 51.8115 17.2286 48.6015
471 2 3.27078 77.5185 21.1417
472 2 34.5947 56.4658 23.068
473 2 74.3676 5.53725 11.2554
474 2 33.5393 72.741 67.8177
475 2 57.7856 63.3958 62.1898
476 2 28.1094 43.5178 69.2597
477 1 69.3231 58.0763 79.041
478 1 -0.461993 51.4335 8.34238
479 2 61.4957 31.5677 22.362
480 2 55.2126 31.9419 43.3746
481 2 14.1462 24.4868 36.7926
482 1 38.3124 42.5276 5.27969
483 1 32.5999 8.85889 4.24661
484 1 60.5234 5.39422 40.9794
485 2 52.1 74.2107 79.7187
486 2 3.34501 32.9038 25.2726
487 1 27.8403 19.7726 66.5322
488 2 3.16185 44.4587 54.8358
489 2 72.6511 16.8375 25.9608
490 2 74.6713 38.3626 34.3539
491 2 12.2033 75.284 33.5005
492 2 42.7934 41.2993 66.1893
493 2 32.2034 74.8863 4.42308
494 2 54.6899 67.6273 62.6592
495 2 20.348 28.4526 40.2883
496 2 63.2521 45.7613 24.9201
497 2 42.5425 70.1338 71.6655
498 1 17.8297 67.7612 71.5935
499 1 47.7325 24.7517 14.2539
500 1 57.6335 13.89 7.84944
501 1 17.1288 20.8985 10.984
502 1 73.4009 58.0784 36.2426
503 1 2.92801 73.31 72.7695
504 2 29.1577 23.9459 48.4561
505 1 73.8466 22.4363 54.8969
506 2 24.5153 1.69394 70.6907
507 1 -1.51319 -1.59909 68.7358
508 1 46.3246 32.5248 54.1239
509 2 62.0481 7.53273 17.0692
510 2 54.4502 31.2808 -0.850882
511 2 19.3039 71.8737 21.2842
512 2 79.5817 52.3361 3.73248
513 2 62.2893 54.4615 12.6487
514 2 22.4328 55.4937 60.5502
515 2 1.99513 56.589 37.6329
516 1 11.894 73.2629 31.7497
517 1 68.9098 -2.41638 78.1716
518 2 44.2503 49.1542 52.3607
519 2 63.6819 45.076 55.5918
520 2 18.2449 17.1641 24.7926
521 2 56.494 11.5339 26.1064
522 2 44.8764 21.2754 80.0695
523 1 22.877 38.4961 14.7329
524 1 70.3707 41.3173 28.0479
525 2 12.6802 34.7021 69.43
526 1 29.2426 12.178 7.60644
527 1 16.9848 2.93396 39.1755
528 2 32.4994 28.2644 4.00676
529 2 75.8071 44.0064 51.4592
530 1 62.9103 0.728828 23.7953
531 1 23.085 72.0912 8.53793
532 2 31.6736 44.1371 8.10049
533 2 26.7592 69.5638 57.5003
534 1 66.8756 28.3373 39.4508
535 1 40.8191 56.2172 9.47316
536 1 18.1509 33.8661 57.2422
537 1 70.5682 18.3755 2.6471
538 1 27.9165 35.1886 41.913
539 1 6.69571 46.1191 70.8448
540 2 24.3634 53.0402 36.7961
541 2 41.7247 53.4235 13.3067
542 1 78.1987 54.089 62.1465
543 1 71.8506 27.2864 -0.290574
544 1 6.76716 54.1732 58.4332
545 1 45.1529 53.308 3.56291
546 1 59.9731 34.3141 62.8517
547 1 48.2055 43.3589 45.9384
548 1 2.04283 68.2414 27.1861
549 2 9.5932 72.745 33.0454
550 1 59.2663 61.1507 19.0557
551 1 19.6438 38.0786 66.663
552 1 58.3154 60.5658 48.6748
553 1 72.3231 66.0799 69.6537
554 2 34.8956 54.2501 11.7473
555 1 38.6023 -0.429848 26.981
556 1 42.2802 55.5714 78.4167
557 2 54.9179 34.8229 70.1396
558 2 55.1367 4.9187 30.033
559 1 38.3721 47.6362 8.8563
560 1 9.64259 40.1339 37.5561
561 2 42.4443 39.7241 56.2797
562 1 50.2852 -1.0071 24.9553
563 1 15.0822 13.0161 0.756947
564 1 4.54451 36.3632 18.9043
565 1 56.8777 40.1967 40.2359
566 2 69.3237 59.9912 28.6956
567 1 45.8593 80.3003 8.13244
568 1 69.4328 69.3121 19.7597
569 1 68.5249 38.8473 77.5788
570 2 62.9146 20.4598 3.33631
571 1 2.38999 21.3641 49.1114
572 2 61.3233 27.6852 59.3022
573 1 5.75919 29.2699 4.27505
574 1 59.2035 31.2286 56.4218
575 2 16.0929 16.3651 13.2018
576 1 49.2397 47.9763 2.59202
577 2 4.89671 68.1033 64.9831
578 2 34.2901 51.9031 9.15611
579 1 64.2831 -1.00263 49.3727
580 1 5.93041 72.6817 5.42407
581 1 37.7161 32.7229 -2.50761
582 2 25.7005 57.9069 12.1232
583 2 60.9283 2.6622 5.83655
584 2 -2.13704 29.7413 16.2384
585 1 71.8492 51.2372 70.5023
586 2 6.56971 39.7709 33.7471
587 1 43.82 1.88948 44.0516
588 2 39.7878 61.1474 38.5229
589 1 30.1675 35.1878 28.2375
590 1 17.8312 22.5954 39.5262
591 2 59.9834 4.47604 69.1585
592 2 26.6329 75.4358 71.3657
593 1 27.3909 8.22552 33.2507
594 1 23.8163 24.0861 15.9711
595 1 54.3629 69.4193 69.5658
596 1 70.6718 68.7082 37.779
597 2 78.7317 9.36606 8.83985
598 1 45.7815 61.6014 49.7431
599 1 53.2607 74.8947 29.4573
600 2 47.0585 19.2196 13.5435
601 2 11.8861 50.178 46.4571
602 1 11.8251 5.86875 16.5921
603 1 54.0783 79.8278 41.411
604 1 -0.00619164 63.2935 63.771
605 1 37.7782 72.9277 3.78634
606 2 50.3277 61.0987 61.8562
607 1 36.4437 62.4938 47.6221
608 2 44.307 42.6821 49.3629
609 1 34.8347 35.2284 12.2094
610 1 62.294 21.0031 62.0506
611 1 3.16617 33.538 53.8644
612 1 30.2457 53.5092 62.0004
613 2 -1.67176 41.9797 77.0444
614 2 54.1813 43.1465 -1.94372
615 1 24.5069 79.7141 53.575
616 2 11.4201 70.4918 37.3029
617 1 59.8392 72.3426 77.5922
618 1 72.8908 20.1308 45.9264
619 1 68.2974 40.7768 63.9951
620 2 52.7646 54.2685 18.3885
621 2 39.0407 30.0792 37.0465
622 2 49.9344 15.2477 53.0195
623 1 0.727067 21.3654 34.2729
624 2 51.2173 50.2987 70.3275
625 2 -2.5053 78.3414 46.2472
626 2 17.4179 14.8723 -0.570437
627 2 31.4149 17.2406 40.2347
628 2 75.4343 46.7364 31.5207
629 2 8.07941 26.6952 71.3173
630 2 45.1181 70.4882 71.2208
631 1 76.2497 34.3719 43.6085
632 1 71.3366 77.3088 69.0037
633 2 18.3017 22.6617 57.8128
634 1 75.9795 40.1396 46.1104
635 2 64.3145 5.55355 24.8684
636 1 57.3445 26.5656 45.0525
637 1 24.0165 73.7584 54.2376
638 1 72.0568 -0.619127 64.7317
639 1 10.4612 31.1474 24.797
640 1 51.2463 55.0296 16.5089
641 1 22.6643 40.9595 38.8244
642 2 56.7763 4.88457 77.9256
643 2 22.0167 45.8241 47.8707
644 2 66.3135 59.7457 39.1872
645 2 56.9038 53.7896 59.464
646 2 66.5702 67.5744 71.0445
647 1 46.1404 48.1517 27.1195
648 2 4.60523 44.0236 76.5985
649 1 47.5406 40.3804 23.5397
650 1 33.3451 0.00527365 36.7354
651 1 20.0743 5.10135 70.8146
652 1 59.6368 60.7595 77.082
653 1 79.8003 62.7445 62.1748
654 2 33.8978 14.3309 30.5158
655 2 11.0038 37.2976 49.157
656 2 24.9511 48.3274 75.4707
657 1 24.3833 -0.637261 20.5174
658 1 76.0455 25.842 52.3242
659 2 21.8188 -2.25544 34.0929
660 2 66.0863 75.4355 48.5085
661 2 32.1342 39.2176 75.1265
662 2 33.8411 58.6819 18.1587
663 1 31.5029 4.98324 55.5566
664 1 79.0606 2.43078 2.06598
665 1 53.5772 76.528 4.68362
666 1 2.01375 27.6077 51.2001
667 1 6.77545 7.9131 52.2311
668 1 0.892739 37.316 34.2778
669 1 9.30035 71.2844 6.1134
670 1 1.27289 21.5179 5.49953
671 1 14.7873 18.8078 7.88034
672 2 8.50489 49.3663 62.8943
673 2 62.6854 76.9745 58.243
674 2 17.552 8.16573 32.8827
675 1 17.5978 25.4727 69.0785
676 1 0.438603 76.162 5.46606
677 1 16.6175 58.7459 0.721334
678 2 50.9686 65.4513 68.3371
679 1 32.5359 16.1679 60.2348
680 1 2.98829 41.2514 49.3667
681 1 20.7261 37.356 43.1004
682 2 15.5505 6.29206 24.3991
683 1 54.4409 35.5714 -2.33915
684 1 34.9022 31.3925 14.6557
685 1 35.5244 21.2743 68.6405
686 2 28.0863 38.56 25.0125
687 1 42.7178 40.1897 -2.37896
688 1 20.5559 -1.35282 17.4147
689 1 25.5947 35.3156 78.005
690 1 35.4862 48.1605 34.5807
691 1 53.2368 28.1761 66.2089
692 2 39.3812 55.5304 53.9244
693 1 11.2448 52.8337 58.9518
694 1 58.4589 2.68593 67.7327
695 1 -0.66736 1.98061 37.5256
696 2 40.9218 38.0326 79.4456
697 1 30.8082 70.7795 1.35532
698 1 66.0986 57.1988 53.4185
699 2 67.2796 28.8883 49.5614
700 2 31.2017 74.2342 13.3003
701 2 24.4761 10.452 14.1728
702 1 78.545 -2.07996 78.6663
703 2 20.497 53.9872 17.0624
704 1 46.9129 38.3843 50.2969
705 2 6.27343 64.8159 17.6988
706 2 19.646 42.6512 54.6313
707 2 2.41504 27.3111 59.6927
708 2 20.6787 60.7591 9.38786
709 2 41.4332 62.7495 8.01589
710 1 63.7947 53.2417 10.5875
711 1 34.7915 46.422 20.891
712 1 0.965765 41.9032 5.63919
713 1 5.76823 45.794 49.832
714 1 25.2371 27.4276 10.1699
715 1 25.026 15.6983 7.72335
716 1 23.5688 53.2368 0.524061
717 2 72.1794 60.4886 3.98225
718 1 66.3835 41.3898 45.5073
719 2 77.1159 14.4303 20.9098
720 1 76.2375 42.0066 3.40784
721 1 3.76221 -1.65287 68.5606
722 1 22.0652 61.5879 17.3677
723 1 26.8738 30.7359 10.1872
724 1 59.9152 25.0077 29.0878
725 2 43.5673 29.7177 11.3534
726 2 59.8854 49.1843 44.9328
727 1 7.58916 26.6227 28.4658
728 1 4.38776 70.6349 57.9919
729 1 64.2307 2.23982 26.335
730 2 48.4602 53.6659 73.6733
731 1 21.7274 33.5811 15.0624
732 2 24.1149 57.5969 4.04973
733 2 19.2561 8.36347 74.4895
734 1 13.529 28.7022 0.147488
735 2 55.9804 31.7435 7.1525
736 2 16.7699 10.8111 66.9123
737 1 56.7719 30.2813 9.89202
738 1 29.0996 2.85077 73.0123
739 1 33.2364 56.6373 32.8719
740 2 64.0279 10.6367 67.7826
741 2 74.1733 39.2063 65.6071
742 1 38.1787 12.8993 12.2902
743 2 16.1469 79.4513 39.8129
744 1 7.08874 41.4181 77.7492
745 1 36.9781 73.293 21.2938
746 2 76.1523 40.7886 70.3276
747 2 45.7424 2.61331 65.9737
748 1 3.72232 79.1348 32.3765
749 1 76.1578 46.3499 26.5486
750 2 28.1076 -0.712231 79.4773
751 2 40.7954 79.0891 36.0333
752 1 48.6541 18.2492 42.1947
753 1 59.9143 69.757 38.6919
754 1 41.302 7.78448 66.4168
755 1 -1.46254 7.52775 7.40093
756 2 -1.9108 -1.29485 -2.47922
757 2 54.1039 42.3692 29.7688
758 1 45.785 77.0092 40.0292
759 1 16.7575 47.0769 9.10989
760 1 15.3028 14.3774 27.9061
761 1 -2.03117 76.463 77.7134
762 1 5.30625 78.3329 35.9668
763 2 76.225 77.1478 38.8228
764 2 21.8368 53.4524 79.0398
765 2 34.1122 48.8043 64.3631
766 1 26.8817 40.6774 8.53258
767 2 25.0952 59.8914 72.1857
768 2 0.890836 13.7666 -0.362993
769 1 19.3978 74.1527 40.3106
770 2 7.99152 7.43915 35.2057
771 2 52.7935 56.944 -0.580221
772 1 18.079 13.1725 76.2703
773 2 72.4287 42.9539 55.5021
774 1 42.4762 39.0399 2.78391
775 2 45.6959 6.19231 3.20053
776 1 37.4325 66.8951 61.7882
777 2 27.4712 48.4915 44.8983
778 1 67.2877 40.185 55.8935
779 2 79.3423 2.76591 39.9275
780 2 56.7681 11.9819 16.3738
781 2 55.7063 73.7312 71.1329
782 1 36.7702 51.0329 62.4118
783 2 56.615 32.0569 45.1942
784 1 75.6462 74.9266 37.4497
785 1 17.8557 63.2456 -1.17511
786 2 58.9313 64.026 22.492
787 1 45.0799 51.4758 47.3449
788 2 60.2792 75.8902 58.6634
789 2 26.7202 67.7406 48.6491
790 2 65.3118 36.6724 5.16187
791 2 12.8764 22.4666 33.0396
792 1 29.0585 75.9104 50.5426
793 1 32.6815 72.5303 38.7226
794 2 50.9373 70.6807 13.1287
795 2 33.9171 47.1567 48.07
796 2 -2.33812 51.7618 34.6301
797 1 24.9997 36.7003 18.2734
798 2 13.7142 77.0054 33.9895
799 2 53.6295 49.0426 3.66605
800 1 0.350068 47.434 11.0636
801 1 75.1892 26.2065 9.94995
802 2 9.01723 48.9279 49.3109
803 2 76.2517 19.2718 47.3817
804 1 9.03198 69.5962 1.4487
805 2 0.974004 72.0325 11.5356
806 2 48.852 43.7223 6.67397
807 2 22.7995 9.59918 70.5846
808 1 35.0169 33.2858 42.0327
809 1 21.5969 36.247 -2.52853
810 2 17.4773 27.9507 70.3939
811 2 69.5928 37.4142 22.4799
812 2 59.5927 55.7419 45.7866
813 2 31.6634 32.1784 39.9153
814 1 73.5543 73.7373 30.5692
815 2 6.17631 -1.49408 70.1967
816 2 35.7814 35.0484 18.082
817 2 38.258 42.5605 42.6513
818 1 77.3276 13.0785 67.8039
819 1 73.4507 46.8045 67.6016
820 2 50.5952 58.7957 61.2112
821 1 59.1013 12.2637 77.4666
822 1 13.6685 58.8113 27.9427
823 1 75.9318 17.7186 71.8752
824 1 0.790732 70.2624 22.4883
825 1 17.6852 55.4481 40.8777
826 2 17.8803 58.1758 24.9135
827 2 54.2341 66.053 35.2134
828 2 46.1343 43.0125 72.4279
829 1 69.3344 65.7911 38.3794
830 2 72.5786 70.7925 43.5741
831 1 44.0284 -1.52769 23.6061
832 2 7.07074 7.87336 25.4604
833 2 77.4129 38.0456 28.529
834 2 38.4414 14.1223 9.39243
835 2 9.77476 -0.480395 63.8989
836 2 26.7349 36.3735 23.9524
837 1 27.5837 52.5703 77.217
838 1 47.3802 22.0309 23.2026
839 2 77.6116 28.7147 19.3916
840 1 77.9191 10.6308 53.3285
841 1 9.00569 12.5973 73.8975
842 1 15.3972 51.2064 34.3816
843 1 41.7561 59.7478 28.2375
844 1 68.4637 52.6373 42.2918
845 2 80.2068 6.02838 51.8257
846 2 29.6869 31.4978 19.1543
847 2 34.274 50.5794 60.7268
848 1 53.4343 9.43648 62.6784
849 1 51.4207 80.1715 28.2569
850 1 13.1753 75.6941 77.9789
851 2 29.4572 30.7572 34.145
852 2 30.9826 44.5087 32.5206
853 1 29.4924 15.2567 63.7974
854 1 75.2815 36.2569 23.1472
855 1 78.0485 34.1654 7.54748
856 1 67.0846 20.6619 79.7434
857 2 16.8583 39.0766 66.343
858 1 13.7785 57.0939 57.9282
859 1 43.1619 16.9663 28.3553
860 1 79.6996 53.4405 74.6235
861 1 20.7819 50.6764 46.4256
862 1 1.05573 56.6324 35.045
863 2 77.3472 31.1892 14.3843
864 1 49.1302 19.0065 2.13326
865 1 30.397 33.0337 66.6276
866 2 30.7779 48.8538 9.58878
867 1 51.3394 44.0099 47.0081
868 1 21.7007 0.223126 43.6515
869 1 4.3362 44.9622 7.97258
870 1 37.8002 52.0481 19.1654
871 1 13.4343 -0.371233 2.05741
872 1 11.9344 27.9432 39.0244
873 2 29.6005 54.2899 78.4455
874 2 21.4864 63.974 64.0778
875 1 42.5042 23.0873 11.9859
876 2 30.9096 10.0755 5.91762
877 2 32.2989 0.849769 73.0614
878 2 18.4552 19.8729 15.5519
879 1 46.4683 37.109 60.5351
880 1 -2.48311 37.9488 65.2775
881 2 51.5648 5.97394 15.9225
882 1 10.0121 0.751829 24.535
883 1 43.4881 25.7927 58.3595
884 2 45.6017 34.7412 52.883
885 1 74.8581 26.4299 41.2721
886 2 26.0715 63.5994 14.1438
887 1 17.0714 9.66846 11.5768
888 1 38.9273 12.2808 24.9691
889 1 68.1716 80.0761 58.6033
890 1 66.4673 7.69532 43.0457
891 1 69.878 4.46829 4.27248
892 1 10.6209 3.65639 11.4445
893 2 61.0452 6.40114 60.9014
894 1 9.31735 51.4477 15.4394
895 2 24.4843 65.7056 -0.828718
896 2 39.9034 67.6751 8.13444
897 1 74.5046 55.5216 79.8884
898 1 28.926 16.2141 37.8529
899 2 67.9219 63.9806 74.5873
900 1 63.8542 47.6907 16.4519
901 2 57.7336 41.5513 3.55095
902 1 57.7436 -0.297163 33.4053
903 1 77.34 72.8248 2.02392
904 2 44.6481 64.0985 69.397
905 2 26.3093 14.94 26.9492
906 2 3.83284 66.7341 24.988
907 2 20.061 67.5315 77.188
908 2 63.1629 56.0992 58.294
909 2 71.3313 75.4738 54.9425
910 1 33.5636 54.4878 24.1004
911 2 59.4527 10.7904 51.9217
912 1 78.1041 40.7227 1.71953
913 1 33.764 45.6154 39.0557
914 1 16.1068 36.3317 22.657
915 1 37.0159 -0.0200766 6.38352
916 1 31.7935 72.8755 28.74
917 2 52.5153 58.0736 44.9086
918 2 37.8041 46.8686 33.9455
919 1 78.3715 25.6783 -0.533642
920 2 23.4397 51.8916 32.4372
921 1 72.0979 59.4995 56.5113
922 2 11.7641 5.94908 26.1469
923 2 9.93767 28.3986 40.7628
924 2 46.3014 69.3859 18.5906
925 2 6.34773 65.4857 13.1896
926 2 14.9843 7.10013 60.2454
927 2 33.4926 23.0648 4.17862
928 2 1.01265 21.8209 75.9548
929 2 78.6089 65.7881 65.9786
930 1 77.745 9.77515 14.7322
931 1 40.7061 18.4366 27.2485
932 1 27.729 69.8541 47.1092
933 1 20.9492 53.6554 45.4413
934 1 13.0547 35.2288 21.833
935 2 39.5199 5.48419 56.0114
936 1 71.4097 12.493 64.6784
937 1 5.26621 79.3298 2.58862
938 1 71.1632 76.3878 39.5736
939 1 3.78663 42.7306 24.4232
940 2 35.6036 41.0334 52.7602
941 1 5.49638 58.7244 5.89495
942 2 42.8863 48.7409 64.2499
943 1 72.2155 26.0101 73.5287
944 2 2.47244 33.9644 50.8954
945 2 73.6914 7.49 45.1929
946 1 34.1377 44.7499 60.7446
947 1 -0.476491 16.5148 13.6193
948 2 3.64568 63.5664 25.0329
949 1 62.6615 22.8589 13.4374
950 1 48.6491 13.3168 26.5614
951 1 32.7681 55.7025 73.6562
952 2 65.0401 57.7499 30.2544
953 1 41.0847 43.5013 42.7939
954 2 46.1921 29.6855 35.3948
955 2 64.4131 72.1059 0.683375
956 2 69.3248 60.0684 13.276
957 1 65.1732 27.157 50.2988
958 1 61.7334 74.1691 27.3179
959 1 53.5526 45.3945 24.6524
960 1 21.4621 31.4825 59.9531
961 1 37.0791 7.26617 33.3263
962 2 48.8947 55.2714 30.0877
963 2 -0.154878 60.4721 69.0592
964 2 45.2179 25.0082 44.0774
965 2 6.66954 44.2484 27.9369
966 2 20.0643 22.1401 69.5353
967 2 16.9251 18.3213 76.492
968 2 66.7753 10.2145 76.5251
969 1 15.8889 42.9817 40.3551
970 1 33.44 6.24182 51.3029
971 1 57.0097 64.3395 2.13588
972 2 61.5324 78.266 65.797
973 2 22.1738 20.8781 31.6989
974 2 75.4739 48.651 6.85621
975 1 17.1056 31.6923 55.0814
976 2 46.9045 69.7293 4.17062
977 1 39.913 26.6296 74.8605
978 1 27.423 24.1113 28.3801
979 2 20.2737 73.8989 50.2769
980 2 60.5346 65.554 57.1573
981 1 65.5217 64.1045 51.1776
982 1 46.2246 74.1061 51.3063
983 1 9.84627 12.7798 58.2851
984 2 8.12204 49.8356 60.2564
985 1 57.1168 80.0011 78.4072
986 2 4.06154 38.5983 58.4091
987 2 50.1349 31.2839 34.1897
988 2 75.5889 52.901 77.9384
989 1 27.3624 38.8201 16.6985
990 1 6.68952 3.56535 41.8132
991 2 45.619 19.1046 11.4053
992 1 42.6898 60.0355 68.6672
993 1 48.3421 49.2539 75.9439
994 1 40.9965 22.0458 73.6314
995 1 52.3984 58.9963 14.6545
996 2 0.325989 79.9446 14.5604
997 1 9.30644 54.4723 35.5794
998 2 37.8556 40.3831 24.8248
999 1 68.8351 19.6971 19.9305