units           metal
boundary        p p p
atom_style      atomic
read_data      ../../restart/T${T}.dat
read_data      ../../restart/T590.dat
Reading data file ...
  orthogonal box = (-2.4620705 -2.4620705 -2.4620705) to (80.296848 80.296848 80.296848)
  2 by 4 by 13 MPI processor grid
  reading atoms ...
  32000 atoms
  reading velocities ...
  32000 velocities
  read_data CPU = 0.131 seconds
pair_style      eam/alloy
pair_coeff      * *  ../../ZrCu.lammps.eam Zr Cu
mass 1 91.224
mass 2 63.546
neighbor            2.0 bin
neigh_modify     delay 1
timestep 0.01
thermo 100000
reset_timestep 0
thermo_style custom step temp pe etotal press vol lx ly lz
fix             1 all nvt temp ${T} ${T} 0.1
fix             1 all nvt temp 590 ${T} 0.1
fix             1 all nvt temp 590 590 0.1
thermo_modify flush yes
fix nodrift all momentum 1  linear 1 1 1
fix com_seed all recenter INIT INIT INIT shift all
fix dsf all deform 1 x  wiggle 1.0  100000.0 y volume z volume units box
fix ps1 all ave/time 1 1 100000 c_thermo_press[1] c_thermo_press[2]  c_thermo_press[3] c_thermo_press[4]  c_thermo_press[5] c_thermo_press[6]  file  stress.${T}
fix ps1 all ave/time 1 1 100000 c_thermo_press[1] c_thermo_press[2]  c_thermo_press[3] c_thermo_press[4]  c_thermo_press[5] c_thermo_press[6]  file  stress.590
dump            1 all custom 10000000 dump.${T} id type x y z
dump            1 all custom 10000000 dump.590 id type x y z
dump_modify 1 sort id
run 100000000
Neighbor list info ...
  update every 1 steps, delay 1 steps, check yes
  max neighbors/atom: 2000, page size: 100000
  master list distance cutoff = 8.5
  ghost atom cutoff = 8.5
  binsize = 4.25, bins = 20 20 20
  1 neighbor lists, perpetual/occasional/extra = 1 0 0
  (1) pair eam/alloy/intel, perpetual
      attributes: half, newton on, intel
      pair build: half/bin/newton/intel
      stencil: half/bin/3d/newton
      bin: intel
Per MPI rank memory allocation (min/avg/max) = 7.346 | 7.468 | 7.583 Mbytes
Step Temp PotEng TotEng Press Volume Lx Ly Lz 
       0    588.26843   -157309.36   -154876.16   -47.730263    566819.03    82.758919    82.758919    82.758919 
  100000    591.29494   -157284.53   -154838.82    331.03683    566819.03    82.821709    82.727541    82.727541 
  200000    588.31784    -157287.5   -154854.11    133.10057    566819.03    82.884252    82.696323    82.696323 
  300000    592.93478   -157241.14   -154788.65    496.06885    566819.03      82.9463    82.665387    82.665387 
  400000    592.81964   -157264.14   -154812.12    405.64086    566819.03    83.007608    82.634853    82.634853 
  500000    593.20409   -157279.32   -154825.72    344.81742    566819.03    83.067936    82.604841    82.604841 
  600000    592.41264   -157265.45   -154815.12    331.01116    566819.03    83.127043    82.575468    82.575468 
  700000    588.37467   -157260.72   -154827.09    425.38694    566819.03    83.184698    82.546847    82.546847 
  800000    593.24092   -157273.54   -154819.78    172.17895    566819.03    83.240672    82.519088    82.519088 
  900000    590.16772   -157257.75    -154816.7    399.68339    566819.03    83.294745    82.492299    82.492299 
 1000000    589.52243   -157259.31   -154820.93    385.55763    566819.03    83.346704    82.466582    82.466582 
 1100000    588.54216   -157258.41   -154824.08    455.40949    566819.03    83.396343    82.442036    82.442036 
 1200000    588.71685    -157260.2   -154825.15    389.19491    566819.03    83.443466    82.418754    82.418754 
 1300000    588.18925   -157242.89   -154810.02    586.47837    566819.03    83.487887    82.396825    82.396825 
 1400000    589.15503      -157237   -154800.14    534.94042    566819.03    83.529432    82.376331    82.376331 
 1500000    585.52745   -157271.26   -154849.41    266.93833    566819.03    83.567936    82.357352    82.357352 
 1600000    590.58409   -157261.59   -154818.82    502.06359    566819.03    83.603246    82.339958    82.339958 
 1700000    594.56935   -157265.72   -154806.46    397.51487    566819.03    83.635225    82.324214    82.324214 
 1800000    588.64085   -157254.33    -154819.6    360.70022    566819.03    83.663746    82.310181    82.310181 
 1900000    590.59801   -157255.11   -154812.28    465.61023    566819.03    83.688695    82.297911    82.297911 
 2000000    589.82793   -157246.66   -154807.01    514.62512    566819.03    83.709975     82.28745     82.28745 
 2100000    592.64141   -157263.43   -154812.15    288.21113    566819.03    83.727502    82.278837    82.278837 
 2200000    588.25247   -157258.48   -154825.36     308.7663    566819.03    83.741206    82.272104    82.272104 
 2300000    589.14032   -157235.02   -154798.22    605.22511    566819.03    83.751033    82.267277    82.267277 
 2400000    589.55677   -157264.26   -154825.74    192.59685    566819.03    83.756945    82.264374    82.264374 
 2500000    594.37231    -157233.7   -154775.26    583.89724    566819.03    83.758919    82.263405    82.263405 
 2600000    594.07094    -157260.5    -154803.3    288.90999    566819.03    83.756945    82.264374    82.264374 
 2700000    591.99232   -157241.12   -154792.52    612.90877    566819.03    83.751033    82.267277    82.267277 
 2800000    591.06734   -157272.18   -154827.41    226.68908    566819.03    83.741206    82.272104    82.272104 
 2900000    586.26311   -157252.07   -154827.17    307.07161    566819.03    83.727502    82.278837    82.278837 
 3000000    589.64328   -157254.01   -154815.14    489.57911    566819.03    83.709975     82.28745     82.28745 
 3100000    589.58393   -157254.55   -154815.92    301.37016    566819.03    83.688695    82.297911    82.297911 
 3200000    591.37386   -157238.24   -154792.21    434.69544    566819.03    83.663746    82.310181    82.310181 
 3300000    589.79293   -157244.07   -154804.57    535.33131    566819.03    83.635225    82.324214    82.324214 
 3400000    589.53828   -157254.33   -154815.89     512.1299    566819.03    83.603246    82.339958    82.339958 
 3500000    593.36497   -157270.58    -154816.3    362.56957    566819.03    83.567936    82.357352    82.357352 
 3600000    585.86788   -157252.17    -154828.9    381.69789    566819.03    83.529432    82.376331    82.376331 
 3700000    585.94232   -157236.31   -154812.74    450.60018    566819.03    83.487887    82.396825    82.396825 
 3800000    587.03543   -157253.16   -154825.07    400.22565    566819.03    83.443466    82.418754    82.418754 
 3900000    594.99666   -157246.02   -154784.99    302.89203    566819.03    83.396343    82.442036    82.442036 
 4000000    594.97082   -157274.41   -154813.49    347.75255    566819.03    83.346704    82.466582    82.466582 
 4100000    592.14139   -157269.46   -154820.24    258.12635    566819.03    83.294745    82.492299    82.492299 
 4200000    592.20237   -157250.86    -154801.4    478.49327    566819.03    83.240672    82.519088    82.519088 
 4300000    592.38939   -157255.99   -154805.75    342.63188    566819.03    83.184698    82.546847    82.546847 
 4400000    587.47123   -157265.09   -154835.19    162.70051    566819.03    83.127043    82.575468    82.575468 
 4500000     594.2147   -157257.46   -154799.68    371.67037    566819.03    83.067936    82.604841    82.604841 
 4600000    587.06738   -157251.54   -154823.32    433.10601    566819.03    83.007608    82.634853    82.634853 
 4700000    594.51531   -157258.87   -154799.84    438.43306    566819.03      82.9463    82.665387    82.665387 
 4800000    588.97103   -157249.39   -154813.29    565.24833    566819.03    82.884252    82.696323    82.696323 
 4900000    589.47887   -157261.29    -154823.1    262.15289    566819.03    82.821709    82.727541    82.727541 
 5000000     594.3225    -157272.8   -154814.57    277.51261    566819.03    82.758919    82.758919    82.758919 
 5100000    584.83474   -157251.44   -154832.45    308.78366    566819.03    82.696128    82.790332    82.790332 
 5200000    588.59286   -157258.01   -154823.47    350.52495    566819.03    82.633585    82.821656    82.821656 
 5300000     590.0121   -157253.35   -154812.94    311.12828    566819.03    82.571537    82.852769    82.852769 
 5400000    590.56765   -157256.84   -154814.14     413.3936    566819.03    82.510229    82.883544    82.883544 
 5500000    595.15207   -157274.46    -154812.8    287.22871    566819.03    82.449902    82.913861    82.913861 
 5600000    587.68572   -157260.21   -154829.42    330.41881    566819.03    82.390794    82.943597    82.943597 
 5700000    592.02679   -157259.03   -154810.29    385.85231    566819.03    82.333139    82.972633    82.972633 
 5800000    588.45251   -157257.41   -154823.46    330.37576    566819.03    82.277165    83.000852    83.000852 
 5900000    588.87213   -157274.14   -154838.45    83.218351    566819.03    82.223092     83.02814     83.02814 
 6000000    590.14823   -157263.24   -154822.27    446.07636    566819.03    82.171133    83.054386    83.054386 
 6100000    587.83041   -157247.91   -154816.53    430.97936    566819.03    82.121495    83.079484    83.079484 
 6200000    588.42779   -157260.97   -154827.12    554.88946    566819.03    82.074371     83.10333     83.10333 
 6300000    589.37085   -157263.34   -154825.59    342.08228    566819.03     82.02995    83.125829    83.125829 
 6400000    589.70196   -157245.46   -154806.34    395.76507    566819.03    81.988405    83.146886    83.146886 
 6500000    592.82245   -157238.58   -154786.55    537.76516    566819.03    81.949902    83.166417    83.166417 
 6600000     592.7391   -157246.29   -154794.61    518.15082    566819.03    81.914591     83.18434     83.18434 
 6700000    589.07731   -157243.77   -154807.23    461.87842    566819.03    81.882612    83.200582    83.200582 
 6800000    597.11812   -157236.53   -154766.74    562.83615    566819.03    81.854091    83.215076    83.215076 
 6900000    591.49427   -157249.75   -154803.22    424.40791    566819.03    81.829142    83.227761    83.227761 
 7000000    589.43543   -157252.02      -154814    319.30989    566819.03    81.807862    83.238585    83.238585 
 7100000    593.28772   -157272.33   -154818.38    345.29224    566819.03    81.790335    83.247503    83.247503 
 7200000    588.75657   -157236.78   -154801.57       310.98    566819.03    81.776631    83.254478    83.254478 
 7300000    591.15448   -157262.67   -154817.54    310.37922    566819.03    81.766804    83.259481    83.259481 
 7400000    589.71527   -157258.13   -154818.95    429.32452    566819.03    81.760892    83.262491    83.262491 
 7500000    587.37459   -157242.26   -154812.77    476.33231    566819.03    81.758919    83.263496    83.263496 
 7600000    589.08712   -157231.13   -154794.55    430.61005    566819.03    81.760892    83.262491    83.262491 
 7700000    590.32749   -157257.38   -154815.67    460.65911    566819.03    81.766804    83.259481    83.259481 
 7800000    588.20426   -157264.04   -154831.11    312.76299    566819.03    81.776631    83.254478    83.254478 
 7900000    588.88638    -157245.1   -154809.35     448.4137    566819.03    81.790335    83.247503    83.247503 
 8000000     593.9498   -157251.61   -154794.92    418.11038    566819.03    81.807862    83.238585    83.238585 
 8100000     588.4601   -157257.89    -154823.9    314.37327    566819.03    81.829142    83.227761    83.227761 
 8200000    588.08713   -157235.54    -154803.1    443.11089    566819.03    81.854091    83.215076    83.215076 
 8300000    585.37906   -157252.15   -154830.91    332.23154    566819.03    81.882612    83.200582    83.200582 
 8400000     592.6512   -157254.33   -154803.01    483.22962    566819.03    81.914591     83.18434     83.18434 
 8500000    590.26529   -157232.69   -154791.24    573.01685    566819.03    81.949902    83.166417    83.166417 
 8600000    587.90137   -157230.65   -154798.98    523.63054    566819.03    81.988405    83.146886    83.146886 
 8700000    591.26873   -157253.01    -154807.4    479.72228    566819.03     82.02995    83.125829    83.125829 
 8800000    591.04953   -157265.03   -154820.33    339.15285    566819.03    82.074371     83.10333     83.10333 
 8900000    588.45319   -157241.37   -154807.42    431.36522    566819.03    82.121495    83.079484    83.079484 
 9000000     592.2237   -157256.93   -154807.38    285.29522    566819.03    82.171133    83.054386    83.054386 
 9100000    593.12776   -157245.52   -154792.23    569.45822    566819.03    82.223092     83.02814     83.02814 
 9200000    589.11456   -157236.45   -154799.76    419.26477    566819.03    82.277165    83.000852    83.000852 
 9300000    592.89158   -157253.87   -154801.55    470.38809    566819.03    82.333139    82.972633    82.972633 
 9400000    590.72185   -157257.52   -154814.18    480.87315    566819.03    82.390794    82.943597    82.943597 
 9500000    590.98772   -157258.92   -154814.48     337.8422    566819.03    82.449902    82.913861    82.913861 
 9600000    588.03845   -157250.35    -154818.1     524.5976    566819.03    82.510229    82.883544    82.883544 
 9700000    591.49989   -157247.44   -154800.88    470.17781    566819.03    82.571537    82.852769    82.852769 
 9800000    597.15383   -157258.72   -154788.77    413.95761    566819.03    82.633585    82.821656    82.821656 
 9900000    590.61379   -157271.74   -154828.84    210.42769    566819.03    82.696128    82.790332    82.790332 
10000000     592.1864   -157263.94   -154814.54    295.90605    566819.03    82.758919    82.758919    82.758919 
10100000    595.00669   -157257.78   -154796.72    500.02416    566819.03    82.821709    82.727541    82.727541 
10200000    590.30825   -157258.95   -154817.32    547.14536    566819.03    82.884252    82.696323    82.696323 
10300000    593.33199    -157271.1   -154816.96    359.59209    566819.03      82.9463    82.665387    82.665387 
10400000    597.02111   -157253.64   -154784.24    498.64992    566819.03    83.007608    82.634853    82.634853 
10500000    590.02008   -157259.11   -154818.68    392.36394    566819.03    83.067936    82.604841    82.604841 
10600000    587.60569    -157254.5   -154824.05    389.24312    566819.03    83.127043    82.575468    82.575468 
10700000    588.61358   -157245.78   -154811.16    389.04315    566819.03    83.184698    82.546847    82.546847 
10800000    589.88609   -157240.67   -154800.78    450.69534    566819.03    83.240672    82.519088    82.519088 
10900000    590.99785    -157257.2   -154812.71    278.77103    566819.03    83.294745    82.492299    82.492299 
11000000    589.46897   -157251.27   -154813.11    473.61131    566819.03    83.346704    82.466582    82.466582 
11100000     592.4972   -157263.39   -154812.71    308.88295    566819.03    83.396343    82.442036    82.442036 
11200000    587.21984   -157245.06    -154816.2    532.63354    566819.03    83.443466    82.418754    82.418754 
11300000    591.40355   -157237.97   -154791.81    541.48919    566819.03    83.487887    82.396825    82.396825 
11400000    588.27381   -157257.89   -154824.67    215.66272    566819.03    83.529432    82.376331    82.376331 
11500000    590.89448    -157256.2   -154812.14     410.0907    566819.03    83.567936    82.357352    82.357352 
11600000    590.52922   -157257.51   -154814.96    338.81773    566819.03    83.603246    82.339958    82.339958 
11700000     586.2702   -157229.86   -154804.94    556.44967    566819.03    83.635225    82.324214    82.324214 
11800000    586.99696   -157261.65   -154833.72     299.5799    566819.03    83.663746    82.310181    82.310181 
11900000    593.47937   -157250.66   -154795.91     435.3964    566819.03    83.688695    82.297911    82.297911 
12000000     585.5717   -157247.93   -154825.89    328.03497    566819.03    83.709975     82.28745     82.28745 
12100000    588.50142   -157238.92   -154804.76    574.88473    566819.03    83.727502    82.278837    82.278837 
12200000    593.43715   -157257.79   -154803.22    365.80262    566819.03    83.741206    82.272104    82.272104 
12300000    591.55404   -157224.23   -154777.45    574.83572    566819.03    83.751033    82.267277    82.267277 
12400000    589.29205   -157242.41   -154804.98    559.36493    566819.03    83.756945    82.264374    82.264374 
12500000    595.37324   -157232.79   -154770.21    474.87358    566819.03    83.758919    82.263405    82.263405 
12600000    586.07351   -157258.39   -154834.28    324.98798    566819.03    83.756945    82.264374    82.264374 
12700000    590.58147   -157216.18   -154773.42    656.77654    566819.03    83.751033    82.267277    82.267277 
12800000    591.40245   -157244.18   -154798.02    572.20179    566819.03    83.741206    82.272104    82.272104 
12900000    588.54599      -157231   -154796.66    548.28711    566819.03    83.727502    82.278837    82.278837 
13000000    591.92416   -157259.03   -154810.72    340.87882    566819.03    83.709975     82.28745     82.28745 
13100000    595.87506   -157227.05    -154762.4    696.84395    566819.03    83.688695    82.297911    82.297911 
13200000    593.06977   -157241.12   -154788.07     585.1636    566819.03    83.663746    82.310181    82.310181 
13300000    592.47156   -157258.55   -154807.97    444.71846    566819.03    83.635225    82.324214    82.324214 
13400000    593.54069   -157248.43   -154793.43    366.74028    566819.03    83.603246    82.339958    82.339958 
13500000     586.5935   -157258.39   -154832.13    316.62855    566819.03    83.567936    82.357352    82.357352 
13600000    591.88986   -157242.11   -154793.94    498.26797    566819.03    83.529432    82.376331    82.376331 
13700000     591.1402   -157281.73   -154836.66    391.35578    566819.03    83.487887    82.396825    82.396825 
13800000    588.75775   -157282.22      -154847    180.87238    566819.03    83.443466    82.418754    82.418754 
13900000    587.48481   -157270.04   -154840.09    376.87327    566819.03    83.396343    82.442036    82.442036 
14000000     589.2116   -157268.68   -154831.58    201.14467    566819.03    83.346704    82.466582    82.466582 
14100000    590.89835   -157249.37    -154805.3    409.47412    566819.03    83.294745    82.492299    82.492299 
14200000    591.94934   -157280.28   -154831.86    363.84875    566819.03    83.240672    82.519088    82.519088 
14300000    588.94448   -157250.21   -154814.22    459.96264    566819.03    83.184698    82.546847    82.546847 
14400000    586.92659   -157289.17   -154861.52    196.70893    566819.03    83.127043    82.575468    82.575468 
14500000    588.47809   -157268.18   -154834.12    292.24928    566819.03    83.067936    82.604841    82.604841 
14600000    590.50985   -157266.27   -154823.81    412.95581    566819.03    83.007608    82.634853    82.634853 
14700000    590.16565   -157255.66   -154814.62    304.94321    566819.03      82.9463    82.665387    82.665387 
14800000    591.35215    -157272.4   -154826.45    399.13908    566819.03    82.884252    82.696323    82.696323 
14900000    592.73472   -157266.67      -154815    291.72388    566819.03    82.821709    82.727541    82.727541 
15000000    587.16198   -157248.65   -154820.03    517.04539    566819.03    82.758919    82.758919    82.758919 
15100000    590.25001   -157303.47   -154862.08     77.30148    566819.03    82.696128    82.790332    82.790332 
15200000    592.76621   -157281.29    -154829.5    319.51177    566819.03    82.633585    82.821656    82.821656 
15300000    595.71599   -157255.29   -154791.29    595.97693    566819.03    82.571537    82.852769    82.852769 
15400000    591.79777   -157267.15   -154819.36     383.8958    566819.03    82.510229    82.883544    82.883544 
15500000    590.76287   -157259.63   -154816.12    336.36641    566819.03    82.449902    82.913861    82.913861 
15600000    591.95308   -157285.13    -154836.7     242.8536    566819.03    82.390794    82.943597    82.943597 
15700000    587.34872   -157259.56   -154830.17    375.17287    566819.03    82.333139    82.972633    82.972633 
15800000     589.0362   -157262.08   -154825.72    655.15353    566819.03    82.277165    83.000852    83.000852 
15900000    593.42009   -157246.42   -154791.92    536.22599    566819.03    82.223092     83.02814     83.02814 
16000000    591.77937    -157257.9   -154810.18    340.98942    566819.03    82.171133    83.054386    83.054386 
16100000    593.19315   -157253.07   -154799.51    334.18583    566819.03    82.121495    83.079484    83.079484 
16200000    586.99107   -157257.21    -154829.3    483.94482    566819.03    82.074371     83.10333     83.10333 
16300000    591.15541   -157241.04   -154795.91    504.26227    566819.03     82.02995    83.125829    83.125829 
16400000    591.80438   -157226.15   -154778.33    560.07152    566819.03    81.988405    83.146886    83.146886 
16500000     590.4704   -157256.15   -154813.84    391.53891    566819.03    81.949902    83.166417    83.166417 
16600000    590.73523   -157230.94   -154787.55    592.80224    566819.03    81.914591     83.18434     83.18434 
16700000    592.47625   -157244.74   -154794.14    567.95323    566819.03    81.882612    83.200582    83.200582 
16800000    594.46153   -157225.08   -154766.27    652.16572    566819.03    81.854091    83.215076    83.215076 
16900000     589.6693   -157251.82   -154812.83    470.11286    566819.03    81.829142    83.227761    83.227761 
17000000    586.22478   -157230.17   -154805.43    521.66491    566819.03    81.807862    83.238585    83.238585 
17100000    587.14439   -157250.63   -154822.09    293.12076    566819.03    81.790335    83.247503    83.247503 
17200000    593.01656   -157256.43    -154803.6     394.6959    566819.03    81.776631    83.254478    83.254478 
17300000     593.6694   -157260.76   -154805.23    434.37263    566819.03    81.766804    83.259481    83.259481 
17400000    590.24536   -157249.47    -154808.1    517.42198    566819.03    81.760892    83.262491    83.262491 
17500000    586.45637   -157259.38   -154833.68    334.35978    566819.03    81.758919    83.263496    83.263496 
17600000    589.65703   -157239.96   -154801.02    545.50106    566819.03    81.760892    83.262491    83.262491 
17700000    590.27089   -157252.48      -154811    412.74736    566819.03    81.766804    83.259481    83.259481 
17800000     595.2882   -157230.67   -154768.44    637.09811    566819.03    81.776631    83.254478    83.254478 
17900000     589.9888   -157231.66   -154791.35    703.12986    566819.03    81.790335    83.247503    83.247503 
18000000    591.89416   -157246.81   -154798.62    459.71138    566819.03    81.807862    83.238585    83.238585 
18100000    595.35009   -157247.82   -154785.34     595.3488    566819.03    81.829142    83.227761    83.227761 
18200000    591.04439   -157270.98    -154826.3    259.57945    566819.03    81.854091    83.215076    83.215076 
18300000     589.8854   -157236.64   -154796.76    590.52037    566819.03    81.882612    83.200582    83.200582 
18400000    585.92427   -157246.38   -154822.89    273.06691    566819.03    81.914591     83.18434     83.18434 
18500000     586.7243   -157231.84   -154805.04    557.45559    566819.03    81.949902    83.166417    83.166417 
18600000    593.33586   -157275.89   -154821.74    362.41256    566819.03    81.988405    83.146886    83.146886 
18700000    589.55966   -157279.79   -154841.25    231.66308    566819.03     82.02995    83.125829    83.125829 
18800000    587.64929   -157260.13   -154829.49    383.86292    566819.03    82.074371     83.10333     83.10333 
18900000    587.62716   -157244.36   -154813.82    711.33149    566819.03    82.121495    83.079484    83.079484 
19000000     591.0031   -157261.67   -154817.17    388.04694    566819.03    82.171133    83.054386    83.054386 
19100000    594.16171   -157263.66   -154806.09    435.12401    566819.03    82.223092     83.02814     83.02814 
19200000    587.55894   -157250.94   -154820.68    520.08132    566819.03    82.277165    83.000852    83.000852 
19300000    589.32332   -157266.61   -154829.05    438.95191    566819.03    82.333139    82.972633    82.972633 
19400000    590.78464   -157265.21   -154821.61    471.99528    566819.03    82.390794    82.943597    82.943597 
19500000    593.18967   -157261.54   -154807.99    422.56905    566819.03    82.449902    82.913861    82.913861 
19600000    592.72566   -157266.79   -154815.16     280.3832    566819.03    82.510229    82.883544    82.883544 
19700000    590.30492   -157295.23   -154853.62    231.63083    566819.03    82.571537    82.852769    82.852769 
19800000    589.03019   -157268.28   -154831.93    413.86474    566819.03    82.633585    82.821656    82.821656 
19900000     594.2766   -157297.21   -154839.17    164.08786    566819.03    82.696128    82.790332    82.790332 
20000000    584.34748   -157260.93   -154843.96    435.94997    566819.03    82.758919    82.758919    82.758919 
20100000    585.79233      -157238   -154815.04     521.4426    566819.03    82.821709    82.727541    82.727541 
20200000    587.47477   -157264.48   -154834.57    499.21646    566819.03    82.884252    82.696323    82.696323 
20300000    586.27189   -157265.06   -154840.13     377.0158    566819.03      82.9463    82.665387    82.665387 
20400000    588.70586   -157278.79   -154843.78    325.34408    566819.03    83.007608    82.634853    82.634853 
20500000    588.68682    -157246.7   -154811.78    409.38526    566819.03    83.067936    82.604841    82.604841 
20600000    587.58591    -157273.1   -154842.73    369.80334    566819.03    83.127043    82.575468    82.575468 
20700000    593.32768   -157264.98   -154810.86    443.24863    566819.03    83.184698    82.546847    82.546847 
20800000    588.77408   -157246.48    -154811.2    484.72287    566819.03    83.240672    82.519088    82.519088 
20900000    592.15811   -157262.29   -154813.01    447.73552    566819.03    83.294745    82.492299    82.492299 
21000000    588.39757   -157282.32   -154848.59    302.49877    566819.03    83.346704    82.466582    82.466582 
21100000    590.66362   -157271.08   -154827.98    334.70783    566819.03    83.396343    82.442036    82.442036 
21200000    591.51025   -157263.25   -154816.65    387.94936    566819.03    83.443466    82.418754    82.418754 
21300000    587.09575   -157256.32   -154827.97    493.25664    566819.03    83.487887    82.396825    82.396825 
21400000    594.46054   -157246.27   -154787.47    468.87838    566819.03    83.529432    82.376331    82.376331 
21500000    589.16081   -157259.25   -154822.37    434.50474    566819.03    83.567936    82.357352    82.357352 
21600000    587.69976   -157254.98   -154824.14    461.41399    566819.03    83.603246    82.339958    82.339958 
21700000    587.54916   -157255.38   -154825.16    444.68727    566819.03    83.635225    82.324214    82.324214 
21800000    588.41505   -157251.17   -154817.37    334.61102    566819.03    83.663746    82.310181    82.310181 
21900000    589.68894   -157236.55   -154797.48    605.59607    566819.03    83.688695    82.297911    82.297911 
22000000    588.80132   -157257.47   -154822.07    434.54868    566819.03    83.709975     82.28745     82.28745 
22100000    589.75606   -157230.94   -154791.59    694.71246    566819.03    83.727502    82.278837    82.278837 
22200000    593.79797   -157233.57   -154777.51    527.11379    566819.03    83.741206    82.272104    82.272104 
22300000     585.6814   -157222.99    -154800.5    682.08666    566819.03    83.751033    82.267277    82.267277 
22400000    588.93708   -157257.53   -154821.58    422.22908    566819.03    83.756945    82.264374    82.264374 
22500000    592.12374   -157257.22   -154808.08    452.75109    566819.03    83.758919    82.263405    82.263405 
22600000    592.53587   -157258.83   -154807.98    358.42358    566819.03    83.756945    82.264374    82.264374 
22700000    592.88677   -157243.87   -154791.57    565.08606    566819.03    83.751033    82.267277    82.267277 
22800000    592.35762   -157250.74   -154800.64    461.87591    566819.03    83.741206    82.272104    82.272104 
22900000    589.42839   -157257.32   -154819.33    575.83088    566819.03    83.727502    82.278837    82.278837 
23000000    592.69889   -157265.09   -154813.57    456.03724    566819.03    83.709975     82.28745     82.28745 
23100000    593.73746   -157251.98   -154796.16    648.12352    566819.03    83.688695    82.297911    82.297911 
23200000    589.09527   -157255.35   -154818.74    430.39985    566819.03    83.663746    82.310181    82.310181 
23300000    589.33137   -157260.14   -154822.55    364.80655    566819.03    83.635225    82.324214    82.324214 
23400000    589.44724   -157284.79   -154846.72    245.24838    566819.03    83.603246    82.339958    82.339958 
23500000    592.81091   -157248.54   -154796.55    578.70321    566819.03    83.567936    82.357352    82.357352 
23600000     587.1164   -157249.21   -154820.78    562.71216    566819.03    83.529432    82.376331    82.376331 
23700000    587.01617   -157230.04   -154802.03    680.95897    566819.03    83.487887    82.396825    82.396825 
23800000    591.19007   -157269.95   -154824.67    369.02081    566819.03    83.443466    82.418754    82.418754 
23900000    589.46748   -157273.65   -154835.49    452.74312    566819.03    83.396343    82.442036    82.442036 
24000000    587.42535   -157279.94   -154850.24    289.22358    566819.03    83.346704    82.466582    82.466582 
24100000    591.90899   -157266.62   -154818.36    496.95715    566819.03    83.294745    82.492299    82.492299 
24200000    591.59574   -157264.92   -154817.96    348.88223    566819.03    83.240672    82.519088    82.519088 
24300000     590.0518   -157277.27    -154836.7    319.47446    566819.03    83.184698    82.546847    82.546847 
24400000    588.74453   -157295.02   -154859.85    119.67483    566819.03    83.127043    82.575468    82.575468 
24500000     589.0466   -157269.84   -154833.42    401.46974    566819.03    83.067936    82.604841    82.604841 
24600000    593.75558   -157271.13   -154815.24    372.27992    566819.03    83.007608    82.634853    82.634853 
24700000    586.39038   -157273.74   -154848.31    261.16027    566819.03      82.9463    82.665387    82.665387 
24800000    588.74174   -157251.46   -154816.31    507.37283    566819.03    82.884252    82.696323    82.696323 
24900000     592.7705   -157282.72   -154830.91    297.14812    566819.03    82.821709    82.727541    82.727541 
25000000    586.60924   -157268.35   -154842.02    336.47727    566819.03    82.758919    82.758919    82.758919 
25100000    590.80798   -157268.08   -154824.38    334.95132    566819.03    82.696128    82.790332    82.790332 
25200000    587.77037   -157276.03    -154844.9      357.118    566819.03    82.633585    82.821656    82.821656 
25300000     592.8078      -157275   -154823.03    352.87645    566819.03    82.571537    82.852769    82.852769 
25400000    594.39999   -157279.48   -154820.92    337.26917    566819.03    82.510229    82.883544    82.883544 
25500000    589.03974   -157265.01   -154828.63    522.45677    566819.03    82.449902    82.913861    82.913861 
25600000    589.00294   -157262.96   -154826.73    467.24969    566819.03    82.390794    82.943597    82.943597 
25700000    585.48244   -157278.68   -154857.01     298.0393    566819.03    82.333139    82.972633    82.972633 
25800000    589.00303   -157255.05   -154818.82    472.85718    566819.03    82.277165    83.000852    83.000852 
25900000    587.93632   -157253.27   -154821.45      485.576    566819.03    82.223092     83.02814     83.02814 
26000000    587.61284   -157259.08   -154828.59    396.70625    566819.03    82.171133    83.054386    83.054386 
26100000    589.22671   -157259.07   -154821.92     432.0647    566819.03    82.121495    83.079484    83.079484 
26200000    593.95706   -157249.76   -154793.04    516.58832    566819.03    82.074371     83.10333     83.10333 
26300000    592.69348   -157248.52   -154797.03     561.7757    566819.03     82.02995    83.125829    83.125829 
26400000    591.39929   -157276.61   -154830.47    353.69112    566819.03    81.988405    83.146886    83.146886 
26500000    586.79558    -157248.1      -154821     319.7007    566819.03    81.949902    83.166417    83.166417 
26600000    592.55227   -157232.44   -154781.52    694.55002    566819.03    81.914591     83.18434     83.18434 
26700000    587.45558   -157253.05   -154823.22    457.10406    566819.03    81.882612    83.200582    83.200582 
26800000    591.86371   -157265.28   -154817.21    337.03693    566819.03    81.854091    83.215076    83.215076 
26900000    590.90626   -157256.33   -154812.22    407.45702    566819.03    81.829142    83.227761    83.227761 
27000000    593.28276   -157238.86   -154784.92     490.7287    566819.03    81.807862    83.238585    83.238585 
27100000    590.27152   -157262.49   -154821.01    467.93204    566819.03    81.790335    83.247503    83.247503 
27200000    588.50293   -157254.26   -154820.09    359.94983    566819.03    81.776631    83.254478    83.254478 
27300000    593.75015   -157254.29   -154798.42    471.29564    566819.03    81.766804    83.259481    83.259481 
27400000    585.84543   -157235.42   -154812.25    510.28581    566819.03    81.760892    83.262491    83.262491 
27500000    589.84664   -157275.48   -154835.76     309.6376    566819.03    81.758919    83.263496    83.263496 
27600000    591.42328   -157241.99   -154795.75    706.84088    566819.03    81.760892    83.262491    83.262491 
27700000    591.75925   -157242.29   -154794.66    400.67143    566819.03    81.766804    83.259481    83.259481 
27800000    592.34634   -157244.93   -154794.87    564.68271    566819.03    81.776631    83.254478    83.254478 
27900000    586.33574   -157242.17   -154816.97     645.9269    566819.03    81.790335    83.247503    83.247503 
28000000    589.04128   -157245.76   -154809.37    499.81041    566819.03    81.807862    83.238585    83.238585 
28100000    593.91536   -157258.26   -154801.71    423.31397    566819.03    81.829142    83.227761    83.227761 
28200000    586.27285   -157258.07   -154833.13    429.87915    566819.03    81.854091    83.215076    83.215076 
28300000    594.72307   -157238.88   -154778.98    705.92633    566819.03    81.882612    83.200582    83.200582 
28400000    588.71052   -157260.01   -154824.99    563.34524    566819.03    81.914591     83.18434     83.18434 
28500000     592.5843    -157266.7   -154815.66    383.14574    566819.03    81.949902    83.166417    83.166417 
28600000    586.80729   -157258.39   -154831.24    505.31648    566819.03    81.988405    83.146886    83.146886 
28700000    588.77554   -157261.41   -154826.12    338.76306    566819.03     82.02995    83.125829    83.125829 
28800000    587.47784   -157260.62    -154830.7     399.2779    566819.03    82.074371     83.10333     83.10333 
28900000    587.18598   -157257.56   -154828.85    489.25523    566819.03    82.121495    83.079484    83.079484 
29000000    589.07704   -157247.19   -154810.65    491.97267    566819.03    82.171133    83.054386    83.054386 
29100000    592.18261   -157253.05   -154803.66    520.05431    566819.03    82.223092     83.02814     83.02814 
29200000    590.33636    -157269.5   -154827.75    376.50397    566819.03    82.277165    83.000852    83.000852 
29300000    586.73437   -157263.01   -154836.17    451.13904    566819.03    82.333139    82.972633    82.972633 
29400000    589.63528   -157261.79   -154822.94     276.0595    566819.03    82.390794    82.943597    82.943597 
29500000    591.23307   -157277.94   -154832.48    337.48579    566819.03    82.449902    82.913861    82.913861 
29600000    585.23162   -157261.33    -154840.7    396.90894    566819.03    82.510229    82.883544    82.883544 
29700000    590.81805   -157273.31   -154829.57    375.75847    566819.03    82.571537    82.852769    82.852769 
29800000    590.03813   -157247.79   -154807.27    395.51874    566819.03    82.633585    82.821656    82.821656 
29900000    587.12307   -157272.99   -154844.53    233.05266    566819.03    82.696128    82.790332    82.790332 
30000000     587.2596   -157268.71   -154839.69    402.39418    566819.03    82.758919    82.758919    82.758919 
30100000    589.73629   -157287.49   -154848.23    269.40447    566819.03    82.821709    82.727541    82.727541 
30200000    591.30073   -157262.39   -154816.65    474.34155    566819.03    82.884252    82.696323    82.696323 
30300000    590.18244   -157264.79   -154823.68    477.93838    566819.03      82.9463    82.665387    82.665387 
30400000    593.13304    -157261.5   -154808.19    382.69071    566819.03    83.007608    82.634853    82.634853 
30500000    585.01301   -157273.06   -154853.33    490.23294    566819.03    83.067936    82.604841    82.604841 
30600000    590.68865   -157262.29   -154819.09    439.35049    566819.03    83.127043    82.575468    82.575468 
30700000    591.08867   -157274.82   -154829.97    397.52238    566819.03    83.184698    82.546847    82.546847 
30800000    592.57629   -157253.09   -154802.08    381.46663    566819.03    83.240672    82.519088    82.519088 
30900000    592.35382   -157261.25   -154811.16    464.34597    566819.03    83.294745    82.492299    82.492299 
31000000    589.71176   -157259.04   -154819.88    446.96838    566819.03    83.346704    82.466582    82.466582 
31100000    587.43543   -157262.86   -154833.11    330.40115    566819.03    83.396343    82.442036    82.442036 
31200000    589.02694   -157256.31   -154819.98    434.11814    566819.03    83.443466    82.418754    82.418754 
31300000    592.29854   -157244.13   -154794.27    628.09245    566819.03    83.487887    82.396825    82.396825 
31400000    593.41969   -157258.24   -154803.74    483.58495    566819.03    83.529432    82.376331    82.376331 
31500000    593.60098   -157253.46   -154798.21    484.44341    566819.03    83.567936    82.357352    82.357352 
31600000    588.22822   -157259.53    -154826.5    399.47251    566819.03    83.603246    82.339958    82.339958 
31700000    588.07391   -157261.43   -154829.04    378.20891    566819.03    83.635225    82.324214    82.324214 
31800000    584.36357   -157278.34   -154861.29    155.97961    566819.03    83.663746    82.310181    82.310181 
31900000    589.93463   -157222.41   -154782.32    622.81936    566819.03    83.688695    82.297911    82.297911 
32000000    593.55457   -157238.73   -154783.67    602.26666    566819.03    83.709975     82.28745     82.28745 
32100000    590.70897   -157250.05   -154806.76    525.28047    566819.03    83.727502    82.278837    82.278837 
32200000    590.52206    -157265.8   -154823.29    430.59811    566819.03    83.741206    82.272104    82.272104 
32300000    588.79803   -157251.43   -154816.05    356.12697    566819.03    83.751033    82.267277    82.267277 
32400000    589.45186   -157265.41   -154827.32    387.21958    566819.03    83.756945    82.264374    82.264374 
32500000    591.56512   -157212.85   -154766.02    860.07814    566819.03    83.758919    82.263405    82.263405 
32600000    587.82302   -157241.06   -154809.71    498.48481    566819.03    83.756945    82.264374    82.264374 
32700000    591.35539   -157247.01   -154801.05    521.59914    566819.03    83.751033    82.267277    82.267277 
32800000     587.6632   -157254.26   -154823.57    547.82327    566819.03    83.741206    82.272104    82.272104 
32900000    591.33311   -157253.35   -154807.48    392.14753    566819.03    83.727502    82.278837    82.278837 
33000000     590.8986   -157248.48   -154804.41    585.53883    566819.03    83.709975     82.28745     82.28745 
33100000    593.91121   -157248.98   -154792.44    507.55989    566819.03    83.688695    82.297911    82.297911 
33200000    590.49203   -157251.72   -154809.33    482.22115    566819.03    83.663746    82.310181    82.310181 
33300000    592.62293   -157266.39   -154815.18    444.80774    566819.03    83.635225    82.324214    82.324214 
33400000    589.22921   -157251.61   -154814.44    563.13895    566819.03    83.603246    82.339958    82.339958 
33500000    584.95317   -157255.06   -154835.58    577.27718    566819.03    83.567936    82.357352    82.357352 
33600000     591.8457   -157285.76   -154837.77    278.44686    566819.03    83.529432    82.376331    82.376331 
33700000     587.3713   -157275.14   -154845.66    327.43879    566819.03    83.487887    82.396825    82.396825 
33800000    593.83907   -157255.67   -154799.43    365.93957    566819.03    83.443466    82.418754    82.418754 
33900000    592.43218    -157287.5   -154837.09    264.60984    566819.03    83.396343    82.442036    82.442036 
34000000    590.91027   -157293.22    -154849.1    158.55569    566819.03    83.346704    82.466582    82.466582 
34100000    592.84107    -157265.2   -154813.09    427.32648    566819.03    83.294745    82.492299    82.492299 
34200000    595.26946    -157274.4   -154812.25    337.81339    566819.03    83.240672    82.519088    82.519088 
34300000    589.92673   -157277.19   -154837.14    276.98272    566819.03    83.184698    82.546847    82.546847 
34400000    590.13283   -157273.02   -154832.11    374.72532    566819.03    83.127043    82.575468    82.575468 
34500000    593.54977   -157262.47   -154807.44    426.97046    566819.03    83.067936    82.604841    82.604841 
34600000    587.88967   -157274.81   -154843.19    196.21909    566819.03    83.007608    82.634853    82.634853 
34700000    595.01482   -157285.85   -154824.75    209.62175    566819.03      82.9463    82.665387    82.665387 
34800000    587.43652   -157266.92   -154837.17    260.38441    566819.03    82.884252    82.696323    82.696323 
34900000     589.1142   -157262.25   -154825.56    354.99414    566819.03    82.821709    82.727541    82.727541 
35000000    590.80811   -157274.81   -154831.11    278.63875    566819.03    82.758919    82.758919    82.758919 
35100000    593.89712   -157279.03   -154822.56    396.96267    566819.03    82.696128    82.790332    82.790332 
35200000    593.85408   -157303.09    -154846.8    98.255336    566819.03    82.633585    82.821656    82.821656 
35300000    590.51436   -157271.98    -154829.5    429.15746    566819.03    82.571537    82.852769    82.852769 
35400000    588.81032   -157281.77   -154846.33    337.70082    566819.03    82.510229    82.883544    82.883544 
35500000    587.66884    -157283.9   -154853.19    320.45751    566819.03    82.449902    82.913861    82.913861 
35600000    590.75671   -157284.39   -154840.91    283.72916    566819.03    82.390794    82.943597    82.943597 
35700000     591.0856   -157269.37   -154824.53    501.14275    566819.03    82.333139    82.972633    82.972633 
35800000    587.90062   -157262.48    -154830.8    395.01725    566819.03    82.277165    83.000852    83.000852 
35900000    588.23537   -157263.62   -154830.56    371.10029    566819.03    82.223092     83.02814     83.02814 
36000000    590.14586   -157262.28   -154821.32    521.76947    566819.03    82.171133    83.054386    83.054386 
36100000    589.79639   -157272.16   -154832.65    378.44092    566819.03    82.121495    83.079484    83.079484 
36200000    590.91453   -157265.94   -154821.81    291.58182    566819.03    82.074371     83.10333     83.10333 
36300000    591.19732   -157266.32   -154821.01    470.74016    566819.03     82.02995    83.125829    83.125829 
36400000    591.09631    -157282.3   -154837.41    214.35778    566819.03    81.988405    83.146886    83.146886 
36500000    590.24693   -157248.64   -154807.26    526.38057    566819.03    81.949902    83.166417    83.166417 
36600000    590.55414   -157265.21   -154822.56    524.91066    566819.03    81.914591     83.18434     83.18434 
36700000    593.88292   -157250.98   -154794.56    380.07016    566819.03    81.882612    83.200582    83.200582 
36800000    588.06821   -157260.53   -154828.16    384.16409    566819.03    81.854091    83.215076    83.215076 
36900000    587.03109   -157280.52   -154852.45    168.44796    566819.03    81.829142    83.227761    83.227761 
37000000    591.46109   -157259.36   -154812.96    530.63018    566819.03    81.807862    83.238585    83.238585 
37100000    591.78025   -157257.98   -154810.26    471.65587    566819.03    81.790335    83.247503    83.247503 
37200000    588.14905   -157245.04   -154812.34    596.46769    566819.03    81.776631    83.254478    83.254478 
37300000    585.16014   -157252.41   -154832.08    321.55858    566819.03    81.766804    83.259481    83.259481 
37400000    587.92432   -157242.98   -154811.21    513.94838    566819.03    81.760892    83.262491    83.262491 
37500000    597.28614   -157286.43   -154815.94     392.1204    566819.03    81.758919    83.263496    83.263496 
37600000     590.2848   -157269.42   -154827.89    400.85675    566819.03    81.760892    83.262491    83.262491 
37700000    588.87962   -157253.11   -154817.39    622.49711    566819.03    81.766804    83.259481    83.259481 
37800000    593.15758   -157265.57   -154812.15    490.62251    566819.03    81.776631    83.254478    83.254478 
37900000    588.60536   -157246.64   -154812.05    613.60225    566819.03    81.790335    83.247503    83.247503 
38000000     584.6781   -157261.16   -154842.82    479.28847    566819.03    81.807862    83.238585    83.238585 
38100000    587.93153   -157249.62   -154817.82    640.10507    566819.03    81.829142    83.227761    83.227761 
38200000    595.97463   -157240.21   -154775.14    600.75074    566819.03    81.854091    83.215076    83.215076 
38300000    590.99207   -157271.63   -154827.17    326.22755    566819.03    81.882612    83.200582    83.200582 
38400000     587.3029    -157267.1    -154837.9    300.85779    566819.03    81.914591     83.18434     83.18434 
38500000    591.29555   -157255.39   -154809.68    539.16889    566819.03    81.949902    83.166417    83.166417 
38600000    590.02208   -157243.34    -154802.9    478.39785    566819.03    81.988405    83.146886    83.146886 
38700000    591.48981   -157264.87   -154818.36    375.95427    566819.03     82.02995    83.125829    83.125829 
38800000    589.15925   -157269.48    -154832.6    412.42311    566819.03    82.074371     83.10333     83.10333 
38900000    584.21493   -157255.51   -154839.09      442.715    566819.03    82.121495    83.079484    83.079484 
39000000    593.12189   -157282.83   -154829.56    302.70219    566819.03    82.171133    83.054386    83.054386 
39100000    591.28705    -157266.5   -154820.82    313.12405    566819.03    82.223092     83.02814     83.02814 
39200000    586.51116   -157267.32   -154841.39    415.67944    566819.03    82.277165    83.000852    83.000852 
39300000    593.64325   -157273.74   -154818.31    331.14016    566819.03    82.333139    82.972633    82.972633 
39400000    590.33888   -157276.54   -154834.78    338.36619    566819.03    82.390794    82.943597    82.943597 
39500000    587.33157   -157281.44   -154852.12    429.46901    566819.03    82.449902    82.913861    82.913861 
39600000    589.54996   -157262.29    -154823.8    381.72166    566819.03    82.510229    82.883544    82.883544 
39700000    590.59048   -157290.23   -154847.43    294.23278    566819.03    82.571537    82.852769    82.852769 
39800000    587.88958   -157264.48   -154832.85     519.3396    566819.03    82.633585    82.821656    82.821656 
39900000    593.28591      -157270   -154816.05    460.85508    566819.03    82.696128    82.790332    82.790332 
40000000    588.98598   -157279.19   -154843.03    147.04804    566819.03    82.758919    82.758919    82.758919 
40100000    588.48168   -157288.32   -154854.24    309.82551    566819.03    82.821709    82.727541    82.727541 
40200000     590.9161   -157273.23   -154829.09    435.63743    566819.03    82.884252    82.696323    82.696323 
40300000    595.56198   -157270.57   -154807.21    458.39677    566819.03      82.9463    82.665387    82.665387 
40400000    591.42127   -157273.97   -154827.73     302.9449    566819.03    83.007608    82.634853    82.634853 
40500000    592.19766    -157266.6   -154817.15    420.19058    566819.03    83.067936    82.604841    82.604841 
40600000    591.68092    -157276.4   -154829.09    498.98047    566819.03    83.127043    82.575468    82.575468 
40700000    589.44824   -157270.51   -154832.44     312.6796    566819.03    83.184698    82.546847    82.546847 
40800000    592.24072   -157251.27   -154801.64    491.93101    566819.03    83.240672    82.519088    82.519088 
40900000    588.55185    -157267.4   -154833.04    331.37304    566819.03    83.294745    82.492299    82.492299 
41000000    587.77235   -157277.41   -154846.27    190.74272    566819.03    83.346704    82.466582    82.466582 
41100000    588.46473   -157275.66   -154841.65    324.59409    566819.03    83.396343    82.442036    82.442036 
41200000    596.27978   -157261.22   -154794.89    567.35331    566819.03    83.443466    82.418754    82.418754 
41300000    588.24695   -157276.39   -154843.29    259.90131    566819.03    83.487887    82.396825    82.396825 
41400000    587.80283   -157238.77    -154807.5    557.80126    566819.03    83.529432    82.376331    82.376331 
41500000    582.22824   -157266.51    -154858.3    361.92871    566819.03    83.567936    82.357352    82.357352 
41600000    593.50478   -157262.03   -154807.18     465.3862    566819.03    83.603246    82.339958    82.339958 
41700000    594.57907    -157267.2    -154807.9    418.18435    566819.03    83.635225    82.324214    82.324214 
41800000    590.61995   -157252.98   -154810.06    370.62995    566819.03    83.663746    82.310181    82.310181 
41900000    591.76547    -157262.8   -154815.14    248.69128    566819.03    83.688695    82.297911    82.297911 
42000000    589.71276   -157253.56   -154814.39    447.69817    566819.03    83.709975     82.28745     82.28745 
42100000    589.70595   -157243.25   -154804.11    648.39298    566819.03    83.727502    82.278837    82.278837 
42200000    591.74601   -157269.34   -154821.76    338.98659    566819.03    83.741206    82.272104    82.272104 
42300000    581.53115   -157261.98   -154856.65    404.14913    566819.03    83.751033    82.267277    82.267277 
42400000    586.51428   -157276.05   -154850.12     380.4849    566819.03    83.756945    82.264374    82.264374 
42500000     587.1425   -157273.33    -154844.8     374.5686    566819.03    83.758919    82.263405    82.263405 
42600000    593.44436   -157240.01   -154785.41    467.37522    566819.03    83.756945    82.264374    82.264374 
42700000    584.81172   -157252.76   -154833.87    480.04421    566819.03    83.751033    82.267277    82.267277 
42800000    592.56651   -157266.82   -154815.85    448.31822    566819.03    83.741206    82.272104    82.272104 
42900000    591.38624   -157244.13   -154798.04    632.13086    566819.03    83.727502    82.278837    82.278837 
43000000      588.259   -157257.35    -154824.2    465.98451    566819.03    83.709975     82.28745     82.28745 
43100000    589.42329   -157227.37   -154789.41    620.94167    566819.03    83.688695    82.297911    82.297911 
43200000    590.06396   -157248.49   -154807.87    652.36927    566819.03    83.663746    82.310181    82.310181 
43300000    587.81893   -157258.89   -154827.56    443.29736    566819.03    83.635225    82.324214    82.324214 
43400000    590.53348   -157246.23   -154803.66    575.24921    566819.03    83.603246    82.339958    82.339958 
43500000    591.29874   -157252.92    -154807.2    578.87994    566819.03    83.567936    82.357352    82.357352 
43600000    588.13376   -157262.21   -154829.57    417.24861    566819.03    83.529432    82.376331    82.376331 
43700000    591.71896   -157261.03   -154813.56    511.27234    566819.03    83.487887    82.396825    82.396825 
43800000    586.50294   -157275.25   -154849.36    364.56047    566819.03    83.443466    82.418754    82.418754 
43900000    587.74584   -157261.73   -154830.69    430.74319    566819.03    83.396343    82.442036    82.442036 
44000000    590.91694   -157264.05    -154819.9    450.63166    566819.03    83.346704    82.466582    82.466582 
44100000    591.98852   -157286.72   -154838.14     226.2063    566819.03    83.294745    82.492299    82.492299 
44200000     595.0015   -157265.95   -154804.91    513.18767    566819.03    83.240672    82.519088    82.519088 
44300000    586.18445   -157257.72   -154833.15    668.77944    566819.03    83.184698    82.546847    82.546847 
44400000    588.67268   -157273.45   -154838.59    256.72894    566819.03    83.127043    82.575468    82.575468 
44500000    590.97928   -157262.75   -154818.34    512.44102    566819.03    83.067936    82.604841    82.604841 
44600000     584.9649   -157285.73    -154866.2    306.33344    566819.03    83.007608    82.634853    82.634853 
44700000    591.73204   -157264.64   -154817.12    457.62626    566819.03      82.9463    82.665387    82.665387 
44800000    592.79865   -157263.13    -154811.2    507.29724    566819.03    82.884252    82.696323    82.696323 
44900000    586.87932   -157257.99   -154830.54    339.09982    566819.03    82.821709    82.727541    82.727541 
45000000      589.676   -157264.91    -154825.9    404.04971    566819.03    82.758919    82.758919    82.758919 
45100000    590.22512   -157255.76   -154814.47    579.82874    566819.03    82.696128    82.790332    82.790332 
45200000    590.90164   -157277.75   -154833.67    506.59825    566819.03    82.633585    82.821656    82.821656 
45300000    584.27562   -157291.98   -154875.31     143.2088    566819.03    82.571537    82.852769    82.852769 
45400000    591.75294    -157269.2    -154821.6    301.57554    566819.03    82.510229    82.883544    82.883544 
45500000    587.93224   -157278.77   -154846.96    274.38999    566819.03    82.449902    82.913861    82.913861 
45600000    590.86227   -157280.14   -154836.22    339.59663    566819.03    82.390794    82.943597    82.943597 
45700000    587.53317   -157265.58   -154835.42    405.57041    566819.03    82.333139    82.972633    82.972633 
45800000    586.06698   -157274.07   -154849.99    296.06163    566819.03    82.277165    83.000852    83.000852 
45900000    592.14341   -157262.16   -154812.94    469.83154    566819.03    82.223092     83.02814     83.02814 
46000000    588.84799   -157264.27   -154828.68    409.96955    566819.03    82.171133    83.054386    83.054386 
46100000    589.61424   -157263.97   -154825.21    374.52203    566819.03    82.121495    83.079484    83.079484 
46200000    586.88052   -157264.02   -154836.57    411.89849    566819.03    82.074371     83.10333     83.10333 
46300000     585.6277    -157255.5   -154833.23    420.60639    566819.03     82.02995    83.125829    83.125829 
46400000    585.44745   -157249.36   -154827.83    523.02711    566819.03    81.988405    83.146886    83.146886 
46500000     589.6395   -157261.94   -154823.08    467.15998    566819.03    81.949902    83.166417    83.166417 
46600000    592.43631   -157258.87   -154808.44    514.48867    566819.03    81.914591     83.18434     83.18434 
46700000    589.30086   -157278.85   -154841.39    312.03468    566819.03    81.882612    83.200582    83.200582 
46800000    588.80406   -157262.98   -154827.57    465.26199    566819.03    81.854091    83.215076    83.215076 
46900000    588.20685   -157257.61   -154824.67    447.02774    566819.03    81.829142    83.227761    83.227761 
47000000    597.08522   -157265.78   -154796.11    585.94678    566819.03    81.807862    83.238585    83.238585 
47100000    592.09289    -157249.9   -154800.89     432.9343    566819.03    81.790335    83.247503    83.247503 
47200000    593.61798   -157245.28   -154789.96    588.16759    566819.03    81.776631    83.254478    83.254478 
47300000    584.77166   -157253.06   -154834.33    423.80302    566819.03    81.766804    83.259481    83.259481 
47400000    589.73943   -157262.71   -154823.43    332.14412    566819.03    81.760892    83.262491    83.262491 
47500000    587.86366   -157247.28   -154815.77    617.34276    566819.03    81.758919    83.263496    83.263496 
47600000    587.51031   -157269.35    -154839.3    414.49457    566819.03    81.760892    83.262491    83.262491 
47700000     585.9456   -157263.25   -154839.67    284.97209    566819.03    81.766804    83.259481    83.259481 
47800000    586.08218   -157279.96   -154855.81     230.7493    566819.03    81.776631    83.254478    83.254478 
47900000    587.36161   -157257.79   -154828.34    476.68571    566819.03    81.790335    83.247503    83.247503 
48000000    592.13477   -157270.23   -154821.05    455.57995    566819.03    81.807862    83.238585    83.238585 
48100000    587.96254   -157259.41   -154827.48    477.36331    566819.03    81.829142    83.227761    83.227761 
48200000    585.02009   -157267.66    -154847.9    320.06535    566819.03    81.854091    83.215076    83.215076 
48300000    592.75421   -157265.53   -154813.78    460.84127    566819.03    81.882612    83.200582    83.200582 
48400000     589.2698   -157264.29   -154826.95     442.7391    566819.03    81.914591     83.18434     83.18434 
48500000     587.6285   -157279.38   -154848.83    258.54954    566819.03    81.949902    83.166417    83.166417 
48600000    590.01981   -157260.26   -154819.83    417.60666    566819.03    81.988405    83.146886    83.146886 
48700000    594.67477   -157256.48   -154796.79    526.13678    566819.03     82.02995    83.125829    83.125829 
48800000     589.1783    -157262.8   -154825.84    506.44035    566819.03    82.074371     83.10333     83.10333 
48900000     594.6226   -157282.15   -154822.68    360.27611    566819.03    82.121495    83.079484    83.079484 
49000000    587.47519   -157272.91      -154843    434.15044    566819.03    82.171133    83.054386    83.054386 
49100000    588.37635   -157254.04    -154820.4    516.77215    566819.03    82.223092     83.02814     83.02814 
49200000    585.25167   -157289.97   -154869.25    300.79327    566819.03    82.277165    83.000852    83.000852 
49300000    589.65435   -157270.91   -154831.98    284.88798    566819.03    82.333139    82.972633    82.972633 
49400000    590.67929    -157277.7   -154834.54    303.71655    566819.03    82.390794    82.943597    82.943597 
49500000    590.63006   -157283.28   -154840.32    342.43676    566819.03    82.449902    82.913861    82.913861 
49600000    590.31231   -157267.35    -154825.7    505.16134    566819.03    82.510229    82.883544    82.883544 
49700000    584.80052    -157274.5   -154855.65    292.01742    566819.03    82.571537    82.852769    82.852769 
49800000    590.73815    -157266.6   -154823.19    486.14286    566819.03    82.633585    82.821656    82.821656 
49900000    592.46434   -157278.87   -154828.33    354.57435    566819.03    82.696128    82.790332    82.790332 
50000000     585.3456   -157246.28   -154825.17    698.19079    566819.03    82.758919    82.758919    82.758919 
50100000    591.54483   -157270.69   -154823.95    508.64333    566819.03    82.821709    82.727541    82.727541 
50200000    587.83582   -157260.75   -154829.34    583.40762    566819.03    82.884252    82.696323    82.696323 
50300000     586.1126   -157289.32   -154865.05    270.39059    566819.03      82.9463    82.665387    82.665387 
50400000    593.30855      -157271   -154816.96    344.97374    566819.03    83.007608    82.634853    82.634853 
50500000    589.91422   -157273.26   -154833.26    247.19817    566819.03    83.067936    82.604841    82.604841 
50600000    585.53031   -157288.29   -154866.42    144.13236    566819.03    83.127043    82.575468    82.575468 
50700000    586.28339   -157280.92   -154855.94    266.51169    566819.03    83.184698    82.546847    82.546847 
50800000      587.843   -157305.05   -154873.61     80.77892    566819.03    83.240672    82.519088    82.519088 
50900000     593.2399   -157279.52   -154825.76     306.4336    566819.03    83.294745    82.492299    82.492299 
51000000    589.94249   -157277.82   -154837.71    378.85436    566819.03    83.346704    82.466582    82.466582 
51100000    590.68378   -157267.02   -154823.84    420.89683    566819.03    83.396343    82.442036    82.442036 
51200000    592.26469   -157273.43   -154823.71    476.56929    566819.03    83.443466    82.418754    82.418754 
51300000    595.91844   -157277.21   -154812.37     428.8407    566819.03    83.487887    82.396825    82.396825 
51400000    590.09397   -157261.14    -154820.4    479.45087    566819.03    83.529432    82.376331    82.376331 
51500000    590.82769   -157259.76   -154815.98    517.01748    566819.03    83.567936    82.357352    82.357352 
51600000    595.10736    -157264.1   -154802.62    403.10315    566819.03    83.603246    82.339958    82.339958 
51700000    591.67307   -157270.37   -154823.09    287.08432    566819.03    83.635225    82.324214    82.324214 
51800000    587.57047   -157266.54   -154836.23    290.61329    566819.03    83.663746    82.310181    82.310181 
51900000    596.56347   -157252.89   -154785.39    576.35569    566819.03    83.688695    82.297911    82.297911 
52000000    587.03376   -157246.32   -154818.23    586.53525    566819.03    83.709975     82.28745     82.28745 
52100000    588.02869   -157261.77   -154829.57    467.88756    566819.03    83.727502    82.278837    82.278837 
52200000    593.05667   -157244.95   -154791.95    539.27638    566819.03    83.741206    82.272104    82.272104 
52300000    591.03562   -157256.33   -154811.69    435.22183    566819.03    83.751033    82.267277    82.267277 
52400000    592.89017   -157282.67   -154830.36    294.12342    566819.03    83.756945    82.264374    82.264374 
52500000     590.0268   -157285.34   -154844.87    231.34843    566819.03    83.758919    82.263405    82.263405 
52600000    587.74104   -157255.31    -154824.3    559.01159    566819.03    83.756945    82.264374    82.264374 
52700000    588.97805   -157252.39   -154816.26    540.42772    566819.03    83.751033    82.267277    82.267277 
52800000    589.10325    -157246.3   -154809.65    523.60957    566819.03    83.741206    82.272104    82.272104 
52900000    587.58071   -157261.32   -154830.98     402.0033    566819.03    83.727502    82.278837    82.278837 
53000000    594.14449   -157246.38   -154788.88    592.78915    566819.03    83.709975     82.28745     82.28745 
53100000    585.51835   -157251.37   -154829.56    527.46486    566819.03    83.688695    82.297911    82.297911 
53200000    591.81232   -157281.59   -154833.74    307.93912    566819.03    83.663746    82.310181    82.310181 
53300000    590.87225   -157268.45   -154824.49    528.55959    566819.03    83.635225    82.324214    82.324214 
53400000    589.51099   -157272.19   -154833.86    390.56285    566819.03    83.603246    82.339958    82.339958 
53500000    590.22641   -157262.73   -154821.44    480.88696    566819.03    83.567936    82.357352    82.357352 
53600000    584.68226   -157263.54   -154845.18    454.85681    566819.03    83.529432    82.376331    82.376331 
53700000    586.25776    -157264.5   -154839.62    268.19563    566819.03    83.487887    82.396825    82.396825 
53800000    589.08115   -157268.94   -154832.39    455.50557    566819.03    83.443466    82.418754    82.418754 
53900000    590.82874   -157277.76   -154833.98    437.84981    566819.03    83.396343    82.442036    82.442036 
54000000    588.86964   -157271.45   -154835.77    315.40983    566819.03    83.346704    82.466582    82.466582 
54100000    593.00902   -157264.58   -154811.78    546.31462    566819.03    83.294745    82.492299    82.492299 
54200000    591.70303   -157260.35   -154812.96     662.4116    566819.03    83.240672    82.519088    82.519088 
54300000    592.71143   -157255.79   -154804.22     470.1099    566819.03    83.184698    82.546847    82.546847 
54400000    594.82358   -157291.48   -154831.17    286.27693    566819.03    83.127043    82.575468    82.575468 
54500000    591.35937   -157255.61   -154809.64    549.06466    566819.03    83.067936    82.604841    82.604841 
54600000    590.38766   -157259.47   -154817.51    483.92449    566819.03    83.007608    82.634853    82.634853 
54700000    591.40232    -157267.6   -154821.45    331.98342    566819.03      82.9463    82.665387    82.665387 
54800000     587.0864   -157265.12   -154836.81    448.20558    566819.03    82.884252    82.696323    82.696323 
54900000    593.80636   -157274.62   -154818.52    379.14422    566819.03    82.821709    82.727541    82.727541 
55000000    587.69013    -157262.9    -154832.1     363.6476    566819.03    82.758919    82.758919    82.758919 
55100000     589.8208   -157271.68   -154832.06    334.04163    566819.03    82.696128    82.790332    82.790332 
55200000    591.97924   -157263.29   -154814.75    385.21598    566819.03    82.633585    82.821656    82.821656 
55300000    588.58725   -157268.69   -154834.18    522.50946    566819.03    82.571537    82.852769    82.852769 
55400000    589.60938   -157262.25   -154823.51    524.62278    566819.03    82.510229    82.883544    82.883544 
55500000    593.53164   -157281.83   -154826.87    467.03351    566819.03    82.449902    82.913861    82.913861 
55600000    587.07796   -157278.25   -154849.99    299.35751    566819.03    82.390794    82.943597    82.943597 
55700000    591.51946   -157274.87   -154828.23     438.1594    566819.03    82.333139    82.972633    82.972633 
55800000    591.32974   -157279.45   -154833.59    319.90057    566819.03    82.277165    83.000852    83.000852 
55900000    594.17492   -157288.45   -154830.83    444.21202    566819.03    82.223092     83.02814     83.02814 
56000000    591.34669   -157254.55   -154808.63      573.812    566819.03    82.171133    83.054386    83.054386 
56100000    588.62312   -157275.73   -154841.07    430.22322    566819.03    82.121495    83.079484    83.079484 
56200000    589.81663   -157274.24   -154834.64    483.06103    566819.03    82.074371     83.10333     83.10333 
56300000    585.77845   -157276.84   -154853.94    321.42939    566819.03     82.02995    83.125829    83.125829 
56400000    593.38792   -157256.78   -154802.41    546.45607    566819.03    81.988405    83.146886    83.146886 
56500000    588.86788   -157272.51   -154836.84     141.2755    566819.03    81.949902    83.166417    83.166417 
56600000    592.29649   -157270.04   -154820.19     396.2251    566819.03    81.914591     83.18434     83.18434 
56700000    588.51515   -157257.16   -154822.95    458.28829    566819.03    81.882612    83.200582    83.200582 
56800000     588.5663   -157265.13   -154830.71    436.98439    566819.03    81.854091    83.215076    83.215076 
56900000    590.13622   -157269.96   -154829.04    305.40374    566819.03    81.829142    83.227761    83.227761 
57000000    588.86479   -157244.17   -154808.51    699.40897    566819.03    81.807862    83.238585    83.238585 
57100000    593.18279   -157247.85   -154794.33    620.19658    566819.03    81.790335    83.247503    83.247503 
57200000    590.04326   -157247.91   -154807.37    406.19264    566819.03    81.776631    83.254478    83.254478 
57300000    593.81229   -157244.12   -154787.99    656.00372    566819.03    81.766804    83.259481    83.259481 
57400000    589.04665    -157279.1   -154842.69    304.58176    566819.03    81.760892    83.262491    83.262491 
57500000    589.09602   -157286.32    -154849.7    236.49679    566819.03    81.758919    83.263496    83.263496 
57600000    593.36986   -157237.98   -154783.69    630.85235    566819.03    81.760892    83.262491    83.262491 
57700000    588.69283   -157253.01   -154818.06    305.01431    566819.03    81.766804    83.259481    83.259481 
57800000    586.02426   -157254.15   -154830.24    341.53251    566819.03    81.776631    83.254478    83.254478 
57900000    588.08506   -157236.22   -154803.79    557.43454    566819.03    81.790335    83.247503    83.247503 
58000000    589.19377   -157269.63   -154832.61    371.47247    566819.03    81.807862    83.238585    83.238585 
58100000    585.53648   -157258.32   -154836.43    346.97447    566819.03    81.829142    83.227761    83.227761 
58200000     590.0795   -157266.01   -154825.33    327.46794    566819.03    81.854091    83.215076    83.215076 
58300000    584.34275   -157287.45   -154870.49    126.32962    566819.03    81.882612    83.200582    83.200582 
58400000    589.36318   -157247.61   -154809.89    484.89722    566819.03    81.914591     83.18434     83.18434 
58500000    583.45002   -157253.54   -154840.28    466.94398    566819.03    81.949902    83.166417    83.166417 
58600000    588.67993   -157266.73   -154831.84    338.24535    566819.03    81.988405    83.146886    83.146886 
58700000    588.00028   -157264.38   -154832.29    235.93625    566819.03     82.02995    83.125829    83.125829 
58800000    588.44166   -157253.49   -154819.59     433.9746    566819.03    82.074371     83.10333     83.10333 
58900000    584.11931   -157250.34   -154834.31    534.53331    566819.03    82.121495    83.079484    83.079484 
59000000    590.27436   -157261.86   -154820.37    394.17178    566819.03    82.171133    83.054386    83.054386 
59100000    586.16096   -157277.87    -154853.4     321.3648    566819.03    82.223092     83.02814     83.02814 
59200000    587.06448   -157262.98   -154834.76    302.58234    566819.03    82.277165    83.000852    83.000852 
59300000     593.1773   -157279.88   -154826.38    434.91049    566819.03    82.333139    82.972633    82.972633 
59400000    587.74049   -157269.21    -154838.2    335.08723    566819.03    82.390794    82.943597    82.943597 
59500000    595.98296   -157269.31   -154804.21    436.21603    566819.03    82.449902    82.913861    82.913861 
59600000    589.81744   -157275.05   -154835.45    424.86763    566819.03    82.510229    82.883544    82.883544 
59700000    588.67053   -157261.74   -154826.88    328.95907    566819.03    82.571537    82.852769    82.852769 
59800000    589.54838   -157276.16   -154837.67    254.55799    566819.03    82.633585    82.821656    82.821656 
59900000    589.10834   -157287.67   -154851.01    236.49603    566819.03    82.696128    82.790332    82.790332 
60000000     595.3442    -157258.2   -154795.74    409.98343    566819.03    82.758919    82.758919    82.758919 
60100000    595.24572   -157250.48   -154788.42    533.98379    566819.03    82.821709    82.727541    82.727541 
60200000    590.49579   -157275.81    -154833.4     306.2113    566819.03    82.884252    82.696323    82.696323 
60300000    591.35328   -157266.71   -154820.76    391.59684    566819.03      82.9463    82.665387    82.665387 
60400000    589.88237   -157266.35   -154826.48    309.71918    566819.03    83.007608    82.634853    82.634853 
60500000    589.09154   -157254.93   -154818.33    355.39839    566819.03    83.067936    82.604841    82.604841 
60600000    589.11587   -157270.51   -154833.81    530.44112    566819.03    83.127043    82.575468    82.575468 
60700000    592.41202   -157269.96   -154819.63    314.75399    566819.03    83.184698    82.546847    82.546847 
60800000    589.15861   -157279.31   -154842.43     253.5885    566819.03    83.240672    82.519088    82.519088 
60900000    587.88201    -157283.3    -154851.7     386.2456    566819.03    83.294745    82.492299    82.492299 
61000000    587.26452   -157269.05   -154840.01    384.04102    566819.03    83.346704    82.466582    82.466582 
61100000    593.38481   -157252.57   -154798.21    478.08664    566819.03    83.396343    82.442036    82.442036 
61200000    586.48403   -157264.59   -154838.77    500.13251    566819.03    83.443466    82.418754    82.418754 
61300000    591.80273   -157265.24   -154817.43    487.94651    566819.03    83.487887    82.396825    82.396825 
61400000    590.45821   -157258.27   -154816.02    571.61231    566819.03    83.529432    82.376331    82.376331 
61500000    587.88989   -157268.09   -154836.46    310.98578    566819.03    83.567936    82.357352    82.357352 
61600000    593.12688   -157274.62   -154821.33    486.29438    566819.03    83.603246    82.339958    82.339958 
61700000    585.54572   -157261.19   -154839.26    551.66662    566819.03    83.635225    82.324214    82.324214 
61800000    587.24488   -157279.36    -154850.4     347.1113    566819.03    83.663746    82.310181    82.310181 
61900000    586.99074   -157283.33   -154855.42    209.17505    566819.03    83.688695    82.297911    82.297911 
62000000    589.08566   -157271.33   -154834.76    425.31653    566819.03    83.709975     82.28745     82.28745 
62100000    585.51046   -157264.37   -154842.58    445.52059    566819.03    83.727502    82.278837    82.278837 
62200000    589.45092   -157268.12   -154830.04    472.54195    566819.03    83.741206    82.272104    82.272104 
62300000    594.76719   -157261.07   -154800.99    552.60066    566819.03    83.751033    82.267277    82.267277 
62400000    587.71231   -157252.15   -154821.26    615.32009    566819.03    83.756945    82.264374    82.264374 
62500000    591.43966   -157267.58   -154821.27    304.99872    566819.03    83.758919    82.263405    82.263405 
62600000    593.86018   -157267.11   -154810.79    411.36906    566819.03    83.756945    82.264374    82.264374 
62700000      589.721   -157277.66   -154838.46    412.50957    566819.03    83.751033    82.267277    82.267277 
62800000    590.15635   -157252.16   -154811.15    434.61387    566819.03    83.741206    82.272104    82.272104 
62900000    587.67272   -157246.71   -154815.98    489.49214    566819.03    83.727502    82.278837    82.278837 
63000000    594.45743   -157263.05   -154804.26    470.48889    566819.03    83.709975     82.28745     82.28745 
63100000    589.60593   -157251.96   -154813.23    479.00817    566819.03    83.688695    82.297911    82.297911 
63200000    591.25435   -157268.85   -154823.31    511.42189    566819.03    83.663746    82.310181    82.310181 
63300000    591.17055   -157278.62   -154833.42    382.76862    566819.03    83.635225    82.324214    82.324214 
63400000     591.9407   -157263.59   -154815.21    686.62499    566819.03    83.603246    82.339958    82.339958 
63500000    589.42813   -157270.72   -154832.73    528.74217    566819.03    83.567936    82.357352    82.357352 
63600000    589.42933    -157261.5   -154823.51    493.92198    566819.03    83.529432    82.376331    82.376331 
63700000    591.54437    -157277.4   -154830.66    263.44349    566819.03    83.487887    82.396825    82.396825 
63800000    589.96665   -157275.05   -154834.83    277.11617    566819.03    83.443466    82.418754    82.418754 
63900000    590.98878   -157259.58   -154815.14     539.1995    566819.03    83.396343    82.442036    82.442036 
64000000    589.98124   -157277.94   -154837.67    363.50465    566819.03    83.346704    82.466582    82.466582 
64100000     586.6953   -157289.89    -154863.2    210.51206    566819.03    83.294745    82.492299    82.492299 
64200000    589.67981   -157267.89   -154828.86    413.07934    566819.03    83.240672    82.519088    82.519088 
64300000    584.42174   -157265.76   -154848.48    479.11358    566819.03    83.184698    82.546847    82.546847 
64400000    590.74951   -157268.26   -154824.81    403.97476    566819.03    83.127043    82.575468    82.575468 
64500000    588.11141    -157268.4   -154835.86    443.35592    566819.03    83.067936    82.604841    82.604841 
64600000    587.98444   -157284.44   -154852.42    256.17697    566819.03    83.007608    82.634853    82.634853 
64700000    589.67034   -157278.08   -154839.09      418.812    566819.03      82.9463    82.665387    82.665387 
64800000    595.39368   -157275.32   -154812.65    525.28479    566819.03    82.884252    82.696323    82.696323 
64900000    586.97186   -157269.32   -154841.49    417.83761    566819.03    82.821709    82.727541    82.727541 
65000000     588.6598   -157279.96   -154845.15    292.36882    566819.03    82.758919    82.758919    82.758919 
65100000     587.8166   -157277.44   -154846.11     423.7881    566819.03    82.696128    82.790332    82.790332 
65200000    590.43851   -157280.87    -154838.7    395.64053    566819.03    82.633585    82.821656    82.821656 
65300000    587.95308   -157275.96   -154844.07    315.29552    566819.03    82.571537    82.852769    82.852769 
65400000    586.27244   -157281.67   -154856.73    263.32675    566819.03    82.510229    82.883544    82.883544 
65500000     590.1945   -157273.66    -154832.5    275.37256    566819.03    82.449902    82.913861    82.913861 
65600000    590.68711   -157269.77   -154826.58    404.61037    566819.03    82.390794    82.943597    82.943597 
65700000    583.78982   -157257.43   -154842.76    477.67161    566819.03    82.333139    82.972633    82.972633 
65800000    586.91415   -157263.63   -154836.04    417.96221    566819.03    82.277165    83.000852    83.000852 
65900000    588.10977   -157265.45   -154832.92    381.60561    566819.03    82.223092     83.02814     83.02814 
66000000    584.19005   -157263.98   -154847.66    526.70042    566819.03    82.171133    83.054386    83.054386 
66100000    587.02488   -157258.81   -154830.76    508.88213    566819.03    82.121495    83.079484    83.079484 
66200000    585.52594   -157269.62   -154847.77    352.93164    566819.03    82.074371     83.10333     83.10333 
66300000    587.54362    -157258.4   -154828.21    404.30076    566819.03     82.02995    83.125829    83.125829 
66400000    589.44938   -157244.79   -154806.72     618.7809    566819.03    81.988405    83.146886    83.146886 
66500000    591.05194   -157272.21    -154827.5    394.44803    566819.03    81.949902    83.166417    83.166417 
66600000    595.95621   -157246.94   -154781.95    526.46601    566819.03    81.914591     83.18434     83.18434 
66700000    589.26867    -157260.6   -154823.27    491.90409    566819.03    81.882612    83.200582    83.200582 
66800000    589.63736   -157262.53   -154823.67    497.00613    566819.03    81.854091    83.215076    83.215076 
66900000    588.08218    -157268.5   -154836.08    425.26794    566819.03    81.829142    83.227761    83.227761 
67000000    585.60263   -157238.99   -154816.82    582.62268    566819.03    81.807862    83.238585    83.238585 
67100000    590.41815   -157240.73   -154798.65    535.32069    566819.03    81.790335    83.247503    83.247503 
67200000    589.90389   -157264.11   -154824.15    441.60812    566819.03    81.776631    83.254478    83.254478 
67300000    585.66912   -157256.25   -154833.81    395.82375    566819.03    81.766804    83.259481    83.259481 
67400000    591.38136   -157266.11   -154820.04    478.08454    566819.03    81.760892    83.262491    83.262491 
67500000    590.14905   -157246.11   -154805.14    533.33716    566819.03    81.758919    83.263496    83.263496 
67600000     590.9289   -157264.45   -154820.25    355.16215    566819.03    81.760892    83.262491    83.262491 
67700000    589.45878   -157261.93   -154823.81    530.38041    566819.03    81.766804    83.259481    83.259481 
67800000    588.57288   -157254.57   -154820.12    576.51785    566819.03    81.776631    83.254478    83.254478 
67900000    590.51908   -157250.37   -154807.87    568.90539    566819.03    81.790335    83.247503    83.247503 
68000000     591.0478   -157255.35   -154810.67    491.16427    566819.03    81.807862    83.238585    83.238585 
68100000    589.78467   -157262.56   -154823.09    429.99172    566819.03    81.829142    83.227761    83.227761 
68200000     590.4683   -157269.88   -154827.58    585.34241    566819.03    81.854091    83.215076    83.215076 
68300000    588.10316   -157249.33   -154816.82    482.91397    566819.03    81.882612    83.200582    83.200582 
[...]
83800000    591.86035    -157276.2   -154828.15    278.23486    566819.03    83.443466    82.418754    82.418754 
83900000      592.412    -157270.6   -154820.27    459.78646    566819.03    83.396343    82.442036    82.442036 
84000000    587.32763    -157285.6   -154856.29    120.69713    566819.03    83.346704    82.466582    82.466582 
84100000    591.75687   -157274.08   -154826.46    251.47556    566819.03    83.294745    82.492299    82.492299 
84200000    594.52397   -157261.61   -154802.55    448.09399    566819.03    83.240672    82.519088    82.519088 
84300000    590.20858   -157276.27   -154835.05    195.28305    566819.03    83.184698    82.546847    82.546847 
84400000    590.88481   -157278.49   -154834.47    208.90497    566819.03    83.127043    82.575468    82.575468 
84500000    587.12016    -157262.5   -154834.05    225.85078    566819.03    83.067936    82.604841    82.604841 
84600000    586.65026   -157274.76   -154848.26    231.31351    566819.03    83.007608    82.634853    82.634853 
84700000    588.37395   -157264.48   -154830.85    297.13742    566819.03      82.9463    82.665387    82.665387 
84800000    588.66577   -157287.31   -154852.47    270.77227    566819.03    82.884252    82.696323    82.696323 
84900000     588.1217      -157281   -154848.41    164.60258    566819.03    82.821709    82.727541    82.727541 
85000000    592.82186   -157284.89   -154832.87    386.46589    566819.03    82.758919    82.758919    82.758919 
85100000    587.34097   -157269.03   -154839.67    381.62918    566819.03    82.696128    82.790332    82.790332 
85200000    591.46549   -157264.45   -154818.03     329.1412    566819.03    82.633585    82.821656    82.821656 
85300000    593.48831    -157275.6   -154820.82     461.2955    566819.03    82.571537    82.852769    82.852769 
85400000    596.66178    -157271.8   -154803.89    315.83563    566819.03    82.510229    82.883544    82.883544 
85500000     586.5475   -157268.91   -154842.84    314.31405    566819.03    82.449902    82.913861    82.913861 
85600000    593.96776   -157283.45   -154826.68    347.19018    566819.03    82.390794    82.943597    82.943597 
85700000    589.98712   -157264.59   -154824.29    323.37102    566819.03    82.333139    82.972633    82.972633 
85800000    591.67241   -157273.34   -154826.06    348.53462    566819.03    82.277165    83.000852    83.000852 
85900000    591.80006    -157263.1    -154815.3    387.61672    566819.03    82.223092     83.02814     83.02814 
86000000    593.02483   -157248.73   -154795.86    423.94102    566819.03    82.171133    83.054386    83.054386 
86100000    591.70757   -157262.05   -154814.63    286.23951    566819.03    82.121495    83.079484    83.079484 
86200000     590.6873   -157250.32   -154807.12    480.63497    566819.03    82.074371     83.10333     83.10333 
86300000    589.75542   -157241.54    -154802.2    562.55269    566819.03     82.02995    83.125829    83.125829 
86400000    590.50696   -157264.99   -154822.54    366.03403    566819.03    81.988405    83.146886    83.146886 
86500000    585.58232   -157245.95   -154823.86    551.06111    566819.03    81.949902    83.166417    83.166417 
86600000    590.29995   -157268.47   -154826.88     386.6248    566819.03    81.914591     83.18434     83.18434 
86700000    586.47651   -157270.31   -154844.52    376.91579    566819.03    81.882612    83.200582    83.200582 
86800000    589.77199   -157234.55   -154795.14    540.10788    566819.03    81.854091    83.215076    83.215076 
86900000    592.75209   -157268.13   -154816.39    391.12917    566819.03    81.829142    83.227761    83.227761 
87000000    589.02215   -157261.45   -154825.14    212.64572    566819.03    81.807862    83.238585    83.238585 
87100000    587.05655   -157264.58    -154836.4    385.12841    566819.03    81.790335    83.247503    83.247503 
87200000    589.13551   -157257.58    -154820.8    384.19807    566819.03    81.776631    83.254478    83.254478 
87300000    594.59135   -157253.05   -154793.71    381.27482    566819.03    81.766804    83.259481    83.259481 
87400000    589.38502   -157250.41   -154812.59    553.00204    566819.03    81.760892    83.262491    83.262491 
87500000    588.45998   -157251.52   -154817.54    636.76212    566819.03    81.758919    83.263496    83.263496 
87600000     590.7559   -157286.06   -154842.58    296.79777    566819.03    81.760892    83.262491    83.262491 
87700000    591.99761   -157271.71   -154823.09    383.22291    566819.03    81.766804    83.259481    83.259481 
87800000    589.73114   -157256.17   -154816.92    412.78047    566819.03    81.776631    83.254478    83.254478 
87900000    592.10811   -157250.95   -154801.88    514.06191    566819.03    81.790335    83.247503    83.247503 
88000000    593.09822   -157256.51   -154803.34    534.14656    566819.03    81.807862    83.238585    83.238585 
88100000    591.48689   -157265.97   -154819.47    315.10551    566819.03    81.829142    83.227761    83.227761 
88200000    592.58344    -157264.9   -154813.86     400.8172    566819.03    81.854091    83.215076    83.215076 
88300000    590.59467   -157261.07   -154818.25    500.76039    566819.03    81.882612    83.200582    83.200582 
88400000    591.52352   -157281.06    -154834.4    414.43626    566819.03    81.914591     83.18434     83.18434 
88500000    585.58523   -157267.99   -154845.89    316.45589    566819.03    81.949902    83.166417    83.166417 
88600000    585.53273   -157257.01   -154835.13    513.06425    566819.03    81.988405    83.146886    83.146886 
88700000    588.26022   -157265.62   -154832.46    279.78306    566819.03     82.02995    83.125829    83.125829 
88800000    589.03512   -157271.99   -154835.62    376.01982    566819.03    82.074371     83.10333     83.10333 
88900000    589.75692   -157262.25    -154822.9    376.49707    566819.03    82.121495    83.079484    83.079484 
89000000    591.94241   -157278.45   -154830.06    402.97774    566819.03    82.171133    83.054386    83.054386 
89100000    592.71934   -157277.82   -154826.22    294.35784    566819.03    82.223092     83.02814     83.02814 
89200000    590.59928   -157273.09   -154830.26    293.70659    566819.03    82.277165    83.000852    83.000852 
89300000    585.70444      -157296   -154873.42     207.4388    566819.03    82.333139    82.972633    82.972633 
89400000    589.79628   -157269.57   -154830.06    409.56585    566819.03    82.390794    82.943597    82.943597 
89500000    594.83658   -157271.38   -154811.02    371.33859    566819.03    82.449902    82.913861    82.913861 
89600000    591.07059   -157314.34   -154869.56    68.244512    566819.03    82.510229    82.883544    82.883544 
89700000    593.70904   -157271.59   -154815.89    426.79361    566819.03    82.571537    82.852769    82.852769 
89800000    591.82339   -157275.79   -154827.89    231.54711    566819.03    82.633585    82.821656    82.821656 
89900000    593.32831   -157283.32    -154829.2    285.67226    566819.03    82.696128    82.790332    82.790332 
90000000    592.12906   -157270.96    -154821.8    314.16164    566819.03    82.758919    82.758919    82.758919 
90100000     592.1919   -157271.42      -154822    399.37056    566819.03    82.821709    82.727541    82.727541 
90200000    589.93356    -157258.4   -154818.32    610.27425    566819.03    82.884252    82.696323    82.696323 
90300000    589.71001   -157268.79   -154829.63    319.65276    566819.03      82.9463    82.665387    82.665387 
90400000    592.40905   -157292.51   -154842.19    292.48933    566819.03    83.007608    82.634853    82.634853 
90500000    589.36064   -157296.22   -154858.51    119.41648    566819.03    83.067936    82.604841    82.604841 
90600000    589.35899   -157258.97   -154821.26    447.82633    566819.03    83.127043    82.575468    82.575468 
90700000    592.03337   -157271.25   -154822.48    392.20787    566819.03    83.184698    82.546847    82.546847 
90800000    589.26917   -157278.41   -154841.08    342.56966    566819.03    83.240672    82.519088    82.519088 
90900000    594.96577   -157275.94   -154815.04    534.06896    566819.03    83.294745    82.492299    82.492299 
91000000    594.48694    -157281.7   -154822.78    464.45497    566819.03    83.346704    82.466582    82.466582 
91100000    589.78158   -157268.22   -154828.77    311.27858    566819.03    83.396343    82.442036    82.442036 
91200000    590.19515   -157254.04   -154812.88    523.62562    566819.03    83.443466    82.418754    82.418754 
91300000    587.77721   -157271.34   -154840.18    447.92245    566819.03    83.487887    82.396825    82.396825 
91400000    593.71097   -157259.25   -154803.55    578.28241    566819.03    83.529432    82.376331    82.376331 
91500000    588.58773   -157251.91    -154817.4    573.57367    566819.03    83.567936    82.357352    82.357352 
91600000    591.57136   -157270.63   -154823.77    536.07043    566819.03    83.603246    82.339958    82.339958 
91700000     589.7234   -157268.44   -154829.23    281.38995    566819.03    83.635225    82.324214    82.324214 
91800000     588.8781   -157275.75   -154840.04    266.48254    566819.03    83.663746    82.310181    82.310181 
91900000    588.95632   -157271.84   -154835.81     426.3261    566819.03    83.688695    82.297911    82.297911 
92000000    590.33469   -157274.03   -154832.29    259.60156    566819.03    83.709975     82.28745     82.28745 
92100000    591.30559   -157290.21   -154844.46    149.92613    566819.03    83.727502    82.278837    82.278837 
92200000    592.59518   -157264.63   -154813.54    416.80393    566819.03    83.741206    82.272104    82.272104 
92300000    590.44946   -157264.11    -154821.9    436.14823    566819.03    83.751033    82.267277    82.267277 
92400000    588.82446    -157251.9   -154816.41    577.91411    566819.03    83.756945    82.264374    82.264374 
92500000    591.93626   -157277.73   -154829.37    283.63996    566819.03    83.758919    82.263405    82.263405 
92600000    589.70443   -157244.76   -154805.62     564.6351    566819.03    83.756945    82.264374    82.264374 
92700000    588.17116   -157264.34   -154831.55      328.549    566819.03    83.751033    82.267277    82.267277 
92800000    587.72368   -157243.39   -154812.45    619.73357    566819.03    83.741206    82.272104    82.272104 
92900000    589.48684   -157246.02   -154807.78    595.83988    566819.03    83.727502    82.278837    82.278837 
93000000    590.26751   -157245.17   -154803.71    600.72474    566819.03    83.709975     82.28745     82.28745 
93100000    588.68846   -157268.39   -154833.46    486.38706    566819.03    83.688695    82.297911    82.297911 
93200000    592.01277   -157285.25   -154836.57    309.59318    566819.03    83.663746    82.310181    82.310181 
93300000    594.09421   -157269.76   -154812.47    314.07953    566819.03    83.635225    82.324214    82.324214 
93400000     589.4665   -157259.89   -154821.74    475.57688    566819.03    83.603246    82.339958    82.339958 
93500000    589.72299   -157273.02   -154833.81    154.11554    566819.03    83.567936    82.357352    82.357352 
93600000    595.63071   -157278.95    -154815.3    335.19156    566819.03    83.529432    82.376331    82.376331 
93700000    587.67115    -157250.3   -154819.58    398.70258    566819.03    83.487887    82.396825    82.396825 
93800000    589.73337   -157281.95    -154842.7    376.73838    566819.03    83.443466    82.418754    82.418754 
93900000    590.30991   -157286.95   -154845.31    199.26048    566819.03    83.396343    82.442036    82.442036 
94000000    592.43996   -157293.09   -154842.65     221.8869    566819.03    83.346704    82.466582    82.466582 
94100000    590.94245   -157279.48   -154835.23    253.22628    566819.03    83.294745    82.492299    82.492299 
94200000    587.15555   -157257.87   -154829.28    400.72322    566819.03    83.240672    82.519088    82.519088 
94300000     590.6646   -157293.77   -154850.67    115.83207    566819.03    83.184698    82.546847    82.546847 
94400000    588.64749   -157284.03   -154849.27     236.0224    566819.03    83.127043    82.575468    82.575468 
94500000    590.61042   -157287.63   -154844.75    195.80579    566819.03    83.067936    82.604841    82.604841 
94600000    589.51443   -157278.12   -154839.78     272.9443    566819.03    83.007608    82.634853    82.634853 
94700000    592.99591   -157279.93   -154827.18    180.82832    566819.03      82.9463    82.665387    82.665387 
94800000    591.76259   -157264.52   -154816.87    460.67366    566819.03    82.884252    82.696323    82.696323 
94900000    585.39765   -157287.42    -154866.1     125.4975    566819.03    82.821709    82.727541    82.727541 
95000000    591.79819   -157283.81   -154836.02    218.97741    566819.03    82.758919    82.758919    82.758919 
95100000    590.13636   -157268.76   -154827.84    401.06117    566819.03    82.696128    82.790332    82.790332 
95200000    595.23408   -157279.49   -154817.49    361.43061    566819.03    82.633585    82.821656    82.821656 
95300000    590.19786   -157265.79   -154824.62    488.06584    566819.03    82.571537    82.852769    82.852769 
95400000    587.50017    -157267.9   -154837.89    379.43524    566819.03    82.510229    82.883544    82.883544 
95500000    591.21663   -157285.19    -154839.8    239.12753    566819.03    82.449902    82.913861    82.913861 
95600000    593.51593   -157277.82   -154822.92    280.81729    566819.03    82.390794    82.943597    82.943597 
95700000    590.61983   -157247.47   -154804.55    609.96547    566819.03    82.333139    82.972633    82.972633 
95800000    591.32616   -157271.71   -154825.87    489.34661    566819.03    82.277165    83.000852    83.000852 
95900000    587.33727   -157269.84    -154840.5    363.24585    566819.03    82.223092     83.02814     83.02814 
96000000    591.54279   -157261.41   -154814.67    529.28223    566819.03    82.171133    83.054386    83.054386 
96100000    593.67594   -157281.69   -154826.13    425.97209    566819.03    82.121495    83.079484    83.079484 
96200000    593.45847   -157260.97   -154806.31    502.27299    566819.03    82.074371     83.10333     83.10333 
96300000    591.20857   -157282.43   -154837.08    352.67582    566819.03     82.02995    83.125829    83.125829 
96400000    587.19586   -157257.16    -154828.4    453.75583    566819.03    81.988405    83.146886    83.146886 
96500000    596.46024   -157276.93   -154809.85     354.5523    566819.03    81.949902    83.166417    83.166417 
96600000    589.47897   -157256.59   -154818.39    491.40426    566819.03    81.914591     83.18434     83.18434 
96700000    591.25096   -157265.61   -154820.08    455.08901    566819.03    81.882612    83.200582    83.200582 
96800000    590.75682   -157253.57   -154810.08    451.25915    566819.03    81.854091    83.215076    83.215076 
96900000    594.78702   -157272.39   -154812.24    331.88175    566819.03    81.829142    83.227761    83.227761 
97000000     589.3505   -157232.33   -154794.66    576.61595    566819.03    81.807862    83.238585    83.238585 
97100000    584.60322   -157250.55   -154832.51    554.13695    566819.03    81.790335    83.247503    83.247503 
97200000    590.65807   -157259.01   -154815.93    517.07214    566819.03    81.776631    83.254478    83.254478 
97300000    589.52151   -157262.75   -154824.37    440.61524    566819.03    81.766804    83.259481    83.259481 
97400000    585.56357   -157247.94   -154825.93      467.208    566819.03    81.760892    83.262491    83.262491 
97500000    588.74731   -157261.59   -154826.41    382.57579    566819.03    81.758919    83.263496    83.263496 
97600000    590.94453   -157255.76    -154811.5    395.67457    566819.03    81.760892    83.262491    83.262491 
97700000    593.69748   -157264.76   -154809.11    464.78153    566819.03    81.766804    83.259481    83.259481 
97800000    588.56279   -157259.09   -154824.68     520.7133    566819.03    81.776631    83.254478    83.254478 
97900000    593.37909   -157266.09   -154811.76    417.07687    566819.03    81.790335    83.247503    83.247503 
98000000    591.59206   -157250.59   -154803.65    439.83687    566819.03    81.807862    83.238585    83.238585 
98100000    591.87705   -157263.42    -154815.3    422.24334    566819.03    81.829142    83.227761    83.227761 
98200000    592.16959   -157281.55   -154832.22    371.76027    566819.03    81.854091    83.215076    83.215076 
98300000    585.55463   -157247.63   -154825.66    419.90846    566819.03    81.882612    83.200582    83.200582 
98400000    585.83784   -157250.07   -154826.93      525.671    566819.03    81.914591     83.18434     83.18434 
98500000     592.7566   -157288.15   -154836.39    191.83763    566819.03    81.949902    83.166417    83.166417 
98600000    585.28801   -157264.83   -154843.96    356.94625    566819.03    81.988405    83.146886    83.146886 
98700000    591.85154   -157275.48   -154827.47    477.54778    566819.03     82.02995    83.125829    83.125829 
98800000    589.91049   -157275.66   -154835.68    279.72396    566819.03    82.074371     83.10333     83.10333 
98900000    593.92041   -157270.26   -154813.69    296.22549    566819.03    82.121495    83.079484    83.079484 
99000000    587.83241   -157267.29    -154835.9     196.4458    566819.03    82.171133    83.054386    83.054386 
99100000    591.69645   -157296.03   -154848.65    215.32122    566819.03    82.223092     83.02814     83.02814 
99200000    586.79297   -157259.39    -154832.3    414.93388    566819.03    82.277165    83.000852    83.000852 
99300000     587.6417   -157278.67   -154848.07    426.30349    566819.03    82.333139    82.972633    82.972633 
99400000     589.9843   -157279.14   -154838.85    358.21421    566819.03    82.390794    82.943597    82.943597 
99500000    591.15026   -157287.83   -154842.72     148.2273    566819.03    82.449902    82.913861    82.913861 
99600000    588.79451   -157298.48   -154863.11    200.28173    566819.03    82.510229    82.883544    82.883544 
99700000     591.8426   -157280.62   -154832.65    236.92782    566819.03    82.571537    82.852769    82.852769 
99800000    590.94201   -157290.29   -154846.04    171.06878    566819.03    82.633585    82.821656    82.821656 
99900000    589.08189   -157276.73   -154840.18    367.73455    566819.03    82.696128    82.790332    82.790332 
100000000    590.44389   -157293.22   -154851.03    216.86891    566819.03    82.758919    82.758919    82.758919 
Loop time of 59762.9 on 104 procs for 100000000 steps with 32000 atoms

Performance: 1445.713 ns/day, 0.017 hours/ns, 1673.279 timesteps/s
99.5% CPU use with 104 MPI tasks x 1 OpenMP threads

MPI task timing breakdown:
Section |  min time  |  avg time  |  max time  |%varavg| %total
---------------------------------------------------------------
Pair    | 34761      | 35628      | 36980      | 241.1 | 59.62
Neigh   | 2207.2     | 2344.3     | 2485.1     | 143.2 |  3.92
Comm    | 11940      | 12873      | 14210      | 430.7 | 21.54
Output  | 0.38888    | 0.3933     | 0.44527    |   0.9 |  0.00
Modify  | 7420.7     | 7885.9     | 8419.4     | 271.1 | 13.20
Other   |            | 1031       |            |       |  1.72

Nlocal:        307.692 ave         319 max         295 min
Histogram: 3 1 13 12 14 20 13 19 6 3
Nghost:        2598.67 ave        2647 max        2566 min
Histogram: 5 10 19 19 15 21 9 4 1 1
Neighs:        22404.8 ave       24327 max       20364 min
Histogram: 1 9 10 13 17 17 13 14 8 2

Total # of neighbors = 2330099
Ave neighs/atom = 72.815594
Neighbor list builds = 9878715
Dangerous builds = 0
clear
OMP_NUM_THREADS environment is not set. Defaulting to 1 thread. (../comm.cpp:94)
  using 1 OpenMP thread(s) per MPI task
package intel 1
jump dms720.lmp
#MD-DMS by Ha-Bin Yu
#package gpu 4
variable T equal 720
log log.${T}
log log.720
