units           metal
boundary        p p p
atom_style      atomic
read_data      ../../restart/T${T}.dat
read_data      ../../restart/T620.dat
Reading data file ...
  orthogonal box = (-2.4726667 -2.4726667 -2.4726667) to (80.307444 80.307444 80.307444)
  2 by 4 by 13 MPI processor grid
  reading atoms ...
  32000 atoms
  reading velocities ...
  32000 velocities
  read_data CPU = 0.166 seconds
pair_style      eam/alloy
pair_coeff      * *  ../../ZrCu.lammps.eam Zr Cu
mass 1 91.224
mass 2 63.546
neighbor            2.0 bin
neigh_modify     delay 1
timestep 0.01
thermo 100000
reset_timestep 0
thermo_style custom step temp pe etotal press vol lx ly lz
fix             1 all nvt temp ${T} ${T} 0.1
fix             1 all nvt temp 620 ${T} 0.1
fix             1 all nvt temp 620 620 0.1
thermo_modify flush yes
fix nodrift all momentum 1  linear 1 1 1
fix com_seed all recenter INIT INIT INIT shift all
fix dsf all deform 1 x  wiggle 1.0  100000.0 y volume z volume units box
fix ps1 all ave/time 1 1 100000 c_thermo_press[1] c_thermo_press[2]  c_thermo_press[3] c_thermo_press[4]  c_thermo_press[5] c_thermo_press[6]  file  stress.${T}
fix ps1 all ave/time 1 1 100000 c_thermo_press[1] c_thermo_press[2]  c_thermo_press[3] c_thermo_press[4]  c_thermo_press[5] c_thermo_press[6]  file  stress.620
dump            1 all custom 10000000 dump.${T} id type x y z
dump            1 all custom 10000000 dump.620 id type x y z
dump_modify 1 sort id
run 100000000
Neighbor list info ...
  update every 1 steps, delay 1 steps, check yes
  max neighbors/atom: 2000, page size: 100000
  master list distance cutoff = 8.5
  ghost atom cutoff = 8.5
  binsize = 4.25, bins = 20 20 20
  1 neighbor lists, perpetual/occasional/extra = 1 0 0
  (1) pair eam/alloy/intel, perpetual
      attributes: half, newton on, intel
      pair build: half/bin/newton/intel
      stencil: half/bin/3d/newton
      bin: intel
Per MPI rank memory allocation (min/avg/max) = 7.344 | 7.468 | 7.613 Mbytes
Step Temp PotEng TotEng Press Volume Lx Ly Lz 
       0    619.54796   -157142.66   -154580.09     697.0797    567254.58    82.780111    82.780111    82.780111 
  100000    617.97655   -157115.78   -154559.71    928.46136    567254.58    82.842901    82.748733    82.748733 
  200000    619.13241    -157107.2   -154546.35    1065.2535    567254.58    82.905444    82.717515    82.717515 
  300000    621.62488   -157105.22   -154534.06    953.03051    567254.58    82.967492    82.686579    82.686579 
  400000    621.80129   -157100.82   -154528.93    1019.2412    567254.58    83.028801    82.656045    82.656045 
  500000    618.31142   -157113.38   -154555.92    914.86091    567254.58    83.089128    82.626034    82.626034 
  600000    616.58235   -157098.24   -154547.94    825.76401    567254.58    83.148235     82.59666     82.59666 
  700000     613.5841   -157087.79   -154549.89    1014.4989    567254.58     83.20589    82.568039    82.568039 
  800000     622.4421   -157101.65   -154527.11    990.05463    567254.58    83.261865     82.54028     82.54028 
  900000    621.54172   -157107.22    -154536.4    868.36619    567254.58    83.315938    82.513491    82.513491 
 1000000    620.48112   -157081.51   -154515.08    978.37397    567254.58    83.367896    82.487774    82.487774 
 1100000    615.91473   -157109.43   -154561.89    799.04972    567254.58    83.417535    82.463228    82.463228 
 1200000    618.91572   -157101.97   -154542.02    929.59808    567254.58    83.464658    82.439946    82.439946 
 1300000    618.25804    -157103.3   -154546.06    831.55302    567254.58    83.509079    82.418016    82.418016 
 1400000    616.29497   -157088.02    -154538.9    1120.4957    567254.58    83.550624    82.397523    82.397523 
 1500000    620.46073   -157084.18   -154517.83    1083.2499    567254.58    83.589128    82.378543    82.378543 
 1600000    619.20136   -157101.91   -154540.77    860.45368    567254.58    83.624439    82.361149    82.361149 
 1700000    621.39846   -157086.21   -154515.99    1020.4395    567254.58    83.656418    82.345406    82.345406 
 1800000    625.14105   -157081.64   -154495.93    960.63812    567254.58    83.684938    82.331373    82.331373 
 1900000    616.37515   -157069.81   -154520.36    1282.7462    567254.58    83.709887    82.319102    82.319102 
 2000000    618.13415   -157090.45   -154533.73    1089.9365    567254.58    83.731167    82.308641    82.308641 
 2100000    618.90855    -157090.4   -154530.48    984.01007    567254.58    83.748694    82.300028    82.300028 
 2200000      622.206   -157068.28   -154494.71    1308.0056    567254.58    83.762398    82.293295    82.293295 
 2300000    620.87776   -157077.28   -154509.21    1196.8717    567254.58    83.772226    82.288468    82.288468 
 2400000    617.66678   -157091.87   -154537.08    1053.8142    567254.58    83.778138    82.285565    82.285565 
 2500000    619.35618   -157093.66   -154531.88    934.30676    567254.58    83.780111    82.284596    82.284596 
 2600000    618.27688   -157099.08   -154541.77    912.59602    567254.58    83.778138    82.285565    82.285565 
 2700000    617.91831    -157092.8   -154536.97    976.46785    567254.58    83.772226    82.288468    82.288468 
 2800000    615.53321   -157077.17    -154531.2    1083.8648    567254.58    83.762398    82.293295    82.293295 
 2900000    622.31822   -157079.54   -154505.51    1123.1363    567254.58    83.748694    82.300028    82.300028 
 3000000    618.75668   -157078.38   -154519.08    1081.5706    567254.58    83.731167    82.308641    82.308641 
 3100000    617.02436   -157082.24    -154530.1    1165.4116    567254.58    83.709887    82.319102    82.319102 
 3200000    619.10238   -157081.89   -154521.16    999.72025    567254.58    83.684938    82.331373    82.331373 
 3300000     619.3312    -157084.1   -154522.43    1067.6899    567254.58    83.656418    82.345406    82.345406 
 3400000    624.46559   -157108.14   -154525.23    888.62223    567254.58    83.624439    82.361149    82.361149 
 3500000    617.55927   -157112.89   -154558.54    840.40313    567254.58    83.589128    82.378543    82.378543 
 3600000       623.69   -157089.22   -154509.51    1120.1914    567254.58    83.550624    82.397523    82.397523 
 3700000    616.53057   -157080.07   -154529.98    1069.4046    567254.58    83.509079    82.418016    82.418016 
 3800000    618.76309   -157125.38   -154566.06     741.6949    567254.58    83.464658    82.439946    82.439946 
 3900000    621.40471   -157120.21   -154549.96    753.45748    567254.58    83.417535    82.463228    82.463228 
 4000000    618.27212    -157078.9    -154521.6    1148.2127    567254.58    83.367896    82.487774    82.487774 
 4100000     617.5513   -157114.32   -154560.01    899.19661    567254.58    83.315938    82.513491    82.513491 
 4200000    619.13794   -157104.82   -154543.95    816.26472    567254.58    83.261865     82.54028     82.54028 
 4300000    617.61314   -157127.22   -154572.65     575.7875    567254.58     83.20589    82.568039    82.568039 
 4400000    620.57237   -157098.55   -154531.74    947.67888    567254.58    83.148235     82.59666     82.59666 
 4500000    615.45098   -157114.02    -154568.4    690.46471    567254.58    83.089128    82.626034    82.626034 
 4600000    620.14094   -157094.48   -154529.46     999.2653    567254.58    83.028801    82.656045    82.656045 
 4700000    617.98528   -157108.44   -154552.34    911.55271    567254.58    82.967492    82.686579    82.686579 
 4800000    623.21984   -157131.75      -154554    824.21561    567254.58    82.905444    82.717515    82.717515 
 4900000    620.60853   -157115.75   -154548.79    775.20686    567254.58    82.842901    82.748733    82.748733 
 5000000    618.35187   -157090.08   -154532.46    971.69176    567254.58    82.780111    82.780111    82.780111 
 5100000    615.91712   -157116.17   -154568.62    674.62851    567254.58     82.71732    82.811524    82.811524 
 5200000    620.69395   -157099.49   -154532.18    874.73025    567254.58    82.654778    82.842849    82.842849 
 5300000    618.51595   -157109.82   -154551.51    727.21819    567254.58     82.59273    82.873961    82.873961 
 5400000    616.75489   -157093.67   -154542.65    899.30628    567254.58    82.531421    82.904737    82.904737 
 5500000    628.50553   -157116.98   -154517.35    821.77301    567254.58    82.471094    82.935053    82.935053 
 5600000    624.50339   -157129.37    -154546.3    630.78287    567254.58    82.411986    82.964789    82.964789 
 5700000    614.71865   -157092.12   -154549.52    861.25118    567254.58    82.354332    82.993825    82.993825 
 5800000    623.39776   -157120.34   -154541.85    818.91432    567254.58    82.298357    83.022044    83.022044 
 5900000    619.79107   -157091.05   -154527.47    1148.6234    567254.58    82.244284    83.049332    83.049332 
 6000000    625.12541   -157100.73   -154515.08    1047.6952    567254.58    82.192326    83.075578    83.075578 
 6100000    620.49558   -157086.41   -154519.92    1117.4172    567254.58    82.142687    83.100675    83.100675 
 6200000    619.84976   -157086.28   -154522.46    1081.9248    567254.58    82.095564    83.124522    83.124522 
 6300000     620.9048   -157086.88    -154518.7    1127.6203    567254.58    82.051142     83.14702     83.14702 
 6400000    617.77575   -157088.45   -154533.21    966.87154    567254.58    82.009598    83.168078    83.168078 
 6500000    620.36225   -157083.43   -154517.49    1052.5737    567254.58    81.971094    83.187609    83.187609 
 6600000    612.44251   -157092.92   -154559.74     1107.274    567254.58    81.935783    83.205532    83.205532 
 6700000     614.5982   -157103.28   -154561.19    997.89414    567254.58    81.903804    83.221774    83.221774 
 6800000    620.25275    -157084.2   -154518.71    1043.0984    567254.58    81.875284    83.236267    83.236267 
 6900000    618.33462   -157088.22   -154530.66    1084.2175    567254.58    81.850334    83.248952    83.248952 
 7000000     621.8206   -157082.02   -154510.04    1110.9049    567254.58    81.829054    83.259776    83.259776 
 7100000     622.7059   -157084.72   -154509.09    1077.8451    567254.58    81.811528    83.268694    83.268694 
 7200000    618.73146   -157109.62   -154550.43    898.91747    567254.58    81.797824    83.275669    83.275669 
 7300000    618.77459   -157095.36   -154535.99    1072.9005    567254.58    81.787996    83.280672    83.280672 
 7400000    618.69577   -157079.81   -154520.77    1071.4156    567254.58    81.782084    83.283682    83.283682 
 7500000    620.77833   -157075.45   -154507.79    1215.1314    567254.58    81.780111    83.284687    83.284687 
 7600000    623.50651   -157098.22   -154519.28    1022.3637    567254.58    81.782084    83.283682    83.283682 
 7700000      621.856   -157084.04   -154511.92     1117.036    567254.58    81.787996    83.280672    83.280672 
 7800000    619.79888   -157089.06   -154525.45    921.71197    567254.58    81.797824    83.275669    83.275669 
 7900000    622.64002   -157085.11   -154509.75    1004.4647    567254.58    81.811528    83.268694    83.268694 
 8000000    619.90399   -157056.56   -154492.51    1089.5825    567254.58    81.829054    83.259776    83.259776 
 8100000    621.27321   -157102.93   -154533.22    926.60683    567254.58    81.850334    83.248952    83.248952 
 8200000     618.2333    -157082.1   -154524.97    1103.3783    567254.58    81.875284    83.236267    83.236267 
 8300000    618.86602   -157091.81   -154532.06    990.75128    567254.58    81.903804    83.221774    83.221774 
 8400000     617.0875   -157098.01   -154545.61    911.70447    567254.58    81.935783    83.205532    83.205532 
 8500000    621.55986   -157106.64   -154535.75    923.90778    567254.58    81.971094    83.187609    83.187609 
 8600000     621.8223   -157108.15   -154536.17     943.9833    567254.58    82.009598    83.168078    83.168078 
 8700000    615.15024   -157116.99   -154572.61    786.41624    567254.58    82.051142     83.14702     83.14702 
 8800000    621.55543   -157107.24   -154536.36    956.37642    567254.58    82.095564    83.124522    83.124522 
 8900000     617.7116   -157099.22   -154544.24    1009.1709    567254.58    82.142687    83.100675    83.100675 
 9000000    625.80145   -157110.54    -154522.1    951.03864    567254.58    82.192326    83.075578    83.075578 
 9100000    614.71868   -157116.43   -154573.84    906.05274    567254.58    82.244284    83.049332    83.049332 
 9200000    617.78704   -157123.73   -154568.44    646.31901    567254.58    82.298357    83.022044    83.022044 
 9300000     619.6838   -157113.13   -154549.99    948.62112    567254.58    82.354332    82.993825    82.993825 
 9400000    620.33519   -157091.88   -154526.06    1126.9467    567254.58    82.411986    82.964789    82.964789 
 9500000    620.34549    -157114.8   -154548.93    843.82584    567254.58    82.471094    82.935053    82.935053 
 9600000    618.99884    -157079.9    -154519.6    1076.7458    567254.58    82.531421    82.904737    82.904737 
 9700000      620.202   -157117.55   -154552.28    915.35414    567254.58     82.59273    82.873961    82.873961 
 9800000    618.06182   -157094.73    -154538.3    895.87221    567254.58    82.654778    82.842849    82.842849 
 9900000    618.31354   -157107.58   -154550.12    968.40696    567254.58     82.71732    82.811524    82.811524 
10000000    619.98679   -157124.23   -154559.85    706.77564    567254.58    82.780111    82.780111    82.780111 
10100000    620.06027   -157100.23   -154535.54    1011.9076    567254.58    82.842901    82.748733    82.748733 
10200000    621.96417   -157121.98   -154549.41    904.07792    567254.58    82.905444    82.717515    82.717515 
10300000    617.94038   -157107.33   -154551.41    886.33457    567254.58    82.967492    82.686579    82.686579 
10400000    617.53765   -157099.23   -154544.98     965.9511    567254.58    83.028801    82.656045    82.656045 
10500000    616.76559   -157106.13   -154555.07    818.03951    567254.58    83.089128    82.626034    82.626034 
10600000    616.28967   -157117.78   -154568.69    737.06302    567254.58    83.148235     82.59666     82.59666 
10700000    623.88667   -157100.42    -154519.9    783.98383    567254.58     83.20589    82.568039    82.568039 
10800000     613.3101   -157106.69   -154569.92    660.74528    567254.58    83.261865     82.54028     82.54028 
10900000    626.38726   -157111.19   -154520.33    960.24004    567254.58    83.315938    82.513491    82.513491 
11000000    623.00808   -157086.29   -154509.41    959.04871    567254.58    83.367896    82.487774    82.487774 
11100000     617.5725   -157106.08   -154551.68    797.74451    567254.58    83.417535    82.463228    82.463228 
11200000    625.09404   -157084.65   -154499.14    1047.6856    567254.58    83.464658    82.439946    82.439946 
11300000    615.98846      -157109   -154561.15    702.98307    567254.58    83.509079    82.418016    82.418016 
11400000    624.90735   -157083.83   -154499.09    1150.3215    567254.58    83.550624    82.397523    82.397523 
11500000    622.26884   -157079.56   -154505.74    993.45938    567254.58    83.589128    82.378543    82.378543 
11600000     616.6278   -157087.69    -154537.2    879.94329    567254.58    83.624439    82.361149    82.361149 
11700000    621.04384   -157108.95   -154540.19    862.87856    567254.58    83.656418    82.345406    82.345406 
11800000    616.72755   -157093.56   -154542.65    1034.9505    567254.58    83.684938    82.331373    82.331373 
11900000    622.02837   -157084.03   -154511.19    1063.0943    567254.58    83.709887    82.319102    82.319102 
12000000    621.73072   -157100.78   -154529.18    1054.4139    567254.58    83.731167    82.308641    82.308641 
12100000    622.04262   -157074.61   -154501.72    1002.1034    567254.58    83.748694    82.300028    82.300028 
12200000    622.48092   -157091.06   -154516.36    977.45257    567254.58    83.762398    82.293295    82.293295 
12300000    619.66074   -157083.29   -154520.26    933.98917    567254.58    83.772226    82.288468    82.288468 
12400000    624.49981   -157088.68   -154505.62    1090.4958    567254.58    83.778138    82.285565    82.285565 
12500000    620.81935   -157092.92   -154525.09    1061.4587    567254.58    83.780111    82.284596    82.284596 
12600000    615.92516   -157076.32   -154528.73    924.15312    567254.58    83.778138    82.285565    82.285565 
12700000     621.6195   -157112.24    -154541.1    802.35024    567254.58    83.772226    82.288468    82.288468 
12800000    614.93753    -157070.4   -154526.89    1089.9289    567254.58    83.762398    82.293295    82.293295 
12900000    620.52719   -157121.05   -154554.42    754.17107    567254.58    83.748694    82.300028    82.300028 
13000000     620.3701   -157091.75   -154525.78     937.8115    567254.58    83.731167    82.308641    82.308641 
13100000    620.84506   -157096.72   -154528.78    914.70917    567254.58    83.709887    82.319102    82.319102 
13200000    621.37891   -157101.71   -154531.56    982.28015    567254.58    83.684938    82.331373    82.331373 
13300000    616.20429    -157106.2   -154557.46     770.4457    567254.58    83.656418    82.345406    82.345406 
13400000    617.13614   -157075.88   -154523.29    984.68929    567254.58    83.624439    82.361149    82.361149 
13500000    619.38821    -157112.7   -154550.79    672.44706    567254.58    83.589128    82.378543    82.378543 
13600000    617.41533   -157112.98   -154559.23    784.14869    567254.58    83.550624    82.397523    82.397523 
13700000     619.7993   -157094.58   -154530.97    1035.9414    567254.58    83.509079    82.418016    82.418016 
13800000    615.72792   -157120.75   -154573.98    656.82623    567254.58    83.464658    82.439946    82.439946 
13900000    620.04937   -157113.84   -154549.19    780.71875    567254.58    83.417535    82.463228    82.463228 
14000000    618.31249   -157115.65   -154558.19    709.13539    567254.58    83.367896    82.487774    82.487774 
14100000    619.88438   -157116.81   -154552.85    778.02533    567254.58    83.315938    82.513491    82.513491 
14200000     627.3031   -157094.24    -154499.6    914.12527    567254.58    83.261865     82.54028     82.54028 
14300000    619.56816   -157117.35   -154554.69    747.28489    567254.58     83.20589    82.568039    82.568039 
14400000    617.95214    -157126.9   -154570.93    703.55642    567254.58    83.148235     82.59666     82.59666 
14500000    616.18417   -157112.14   -154563.48    802.71306    567254.58    83.089128    82.626034    82.626034 
14600000    615.70211   -157107.99   -154561.32    738.01575    567254.58    83.028801    82.656045    82.656045 
14700000    618.40647   -157120.79   -154562.94    782.40341    567254.58    82.967492    82.686579    82.686579 
14800000    622.69879   -157111.36   -154535.76    876.84937    567254.58    82.905444    82.717515    82.717515 
14900000    626.20677   -157106.08   -154515.97    998.75974    567254.58    82.842901    82.748733    82.748733 
15000000    622.51359    -157114.1   -154539.27    770.43395    567254.58    82.780111    82.780111    82.780111 
15100000    621.81591   -157119.02   -154547.06    799.13318    567254.58     82.71732    82.811524    82.811524 
15200000    617.93625   -157096.94   -154541.04     828.9333    567254.58    82.654778    82.842849    82.842849 
15300000    621.01861    -157108.4   -154539.74    858.72761    567254.58     82.59273    82.873961    82.873961 
15400000    619.45996   -157117.62   -154555.41    741.84816    567254.58    82.531421    82.904737    82.904737 
15500000    618.41449   -157120.28    -154562.4    769.13203    567254.58    82.471094    82.935053    82.935053 
15600000    622.04216   -157099.25   -154526.36    1047.6409    567254.58    82.411986    82.964789    82.964789 
15700000    622.55823   -157096.95   -154521.93    786.35103    567254.58    82.354332    82.993825    82.993825 
15800000    613.38269   -157109.43   -154572.36    669.39164    567254.58    82.298357    83.022044    83.022044 
15900000    611.41592   -157090.74   -154561.81    923.91051    567254.58    82.244284    83.049332    83.049332 
16000000    622.48457   -157094.35   -154519.64    1078.3638    567254.58    82.192326    83.075578    83.075578 
16100000    617.11934   -157086.07   -154533.55    1021.3005    567254.58    82.142687    83.100675    83.100675 
16200000    617.80323   -157089.53   -154534.18    895.11614    567254.58    82.095564    83.124522    83.124522 
16300000    618.61417   -157100.35   -154541.64    927.21742    567254.58    82.051142     83.14702     83.14702 
16400000    619.24606   -157110.11   -154548.79    846.04986    567254.58    82.009598    83.168078    83.168078 
16500000    614.61262   -157097.46    -154555.3    901.40234    567254.58    81.971094    83.187609    83.187609 
16600000    617.94198   -157058.13    -154502.2    1092.5915    567254.58    81.935783    83.205532    83.205532 
16700000    625.38098    -157095.5    -154508.8    1008.3338    567254.58    81.903804    83.221774    83.221774 
16800000    624.85357   -157104.25   -154519.73     847.4325    567254.58    81.875284    83.236267    83.236267 
16900000    615.81511    -157114.8   -154567.67     903.1296    567254.58    81.850334    83.248952    83.248952 
17000000    615.89868   -157111.74   -154564.27    963.44757    567254.58    81.829054    83.259776    83.259776 
17100000    613.03626   -157104.66   -154569.02    724.17821    567254.58    81.811528    83.268694    83.268694 
17200000    621.49755   -157087.82   -154517.18    953.71997    567254.58    81.797824    83.275669    83.275669 
17300000    624.25471   -157078.98   -154496.94    998.42246    567254.58    81.787996    83.280672    83.280672 
17400000    617.85066   -157094.94   -154539.39    828.33916    567254.58    81.782084    83.283682    83.283682 
17500000    613.92395   -157105.93   -154566.62    924.80561    567254.58    81.780111    83.284687    83.284687 
17600000    622.88927   -157123.75   -154547.36    825.19929    567254.58    81.782084    83.283682    83.283682 
17700000    622.94704    -157077.4   -154500.76    945.53308    567254.58    81.787996    83.280672    83.280672 
17800000    618.74925   -157089.51   -154530.24    966.50281    567254.58    81.797824    83.275669    83.275669 
17900000    624.95877    -157058.4   -154473.45    1198.5925    567254.58    81.811528    83.268694    83.268694 
18000000    622.08669   -157094.11   -154521.04    974.85576    567254.58    81.829054    83.259776    83.259776 
18100000    617.78816   -157078.84   -154523.55    1097.3586    567254.58    81.850334    83.248952    83.248952 
18200000    623.31485   -157072.29   -154494.14    845.37645    567254.58    81.875284    83.236267    83.236267 
18300000    617.54309   -157090.12   -154535.84    980.15381    567254.58    81.903804    83.221774    83.221774 
18400000    622.12468   -157112.27   -154539.04    772.58986    567254.58    81.935783    83.205532    83.205532 
18500000    619.57282   -157082.93   -154520.25    833.60021    567254.58    81.971094    83.187609    83.187609 
18600000    622.00839    -157067.8   -154495.05    1141.1476    567254.58    82.009598    83.168078    83.168078 
18700000    621.36519   -157110.26   -154540.18    771.45663    567254.58    82.051142     83.14702     83.14702 
18800000     616.5757    -157108.5   -154558.22    816.64184    567254.58    82.095564    83.124522    83.124522 
18900000    619.99118    -157095.9   -154531.49    939.17416    567254.58    82.142687    83.100675    83.100675 
19000000    621.96917   -157108.12   -154535.54    864.74688    567254.58    82.192326    83.075578    83.075578 
19100000     623.2595   -157106.97   -154529.05    837.52941    567254.58    82.244284    83.049332    83.049332 
19200000    615.99173   -157100.89   -154553.03    779.85727    567254.58    82.298357    83.022044    83.022044 
19300000     623.7327   -157091.45   -154511.57    945.49626    567254.58    82.354332    82.993825    82.993825 
19400000    622.59763   -157098.46   -154523.27    908.52905    567254.58    82.411986    82.964789    82.964789 
19500000    617.53408   -157102.97   -154548.73    880.52204    567254.58    82.471094    82.935053    82.935053 
19600000    615.50682   -157072.99   -154527.13    1028.6165    567254.58    82.531421    82.904737    82.904737 
19700000    615.65705   -157106.65   -154560.17    719.53916    567254.58     82.59273    82.873961    82.873961 
19800000    622.97981   -157100.23   -154523.46    988.32664    567254.58    82.654778    82.842849    82.842849 
19900000    617.06348   -157100.17   -154547.87    817.04137    567254.58     82.71732    82.811524    82.811524 
20000000    618.25617   -157073.53    -154516.3    1271.3602    567254.58    82.780111    82.780111    82.780111 
20100000     616.6563   -157111.78   -154561.17     902.1464    567254.58    82.842901    82.748733    82.748733 
20200000     617.4738   -157098.93   -154544.94    963.67207    567254.58    82.905444    82.717515    82.717515 
20300000    620.98625   -157097.04   -154528.52    1068.1069    567254.58    82.967492    82.686579    82.686579 
20400000    618.48267   -157096.48   -154538.32    884.47008    567254.58    83.028801    82.656045    82.656045 
20500000    621.81912   -157087.71   -154515.75    1127.5987    567254.58    83.089128    82.626034    82.626034 
20600000    617.76731   -157092.12   -154536.91    1134.3377    567254.58    83.148235     82.59666     82.59666 
20700000    620.82832   -157105.35   -154537.49    954.78563    567254.58     83.20589    82.568039    82.568039 
20800000    624.33647   -157102.16   -154519.78    848.69097    567254.58    83.261865     82.54028     82.54028 
20900000    615.96566   -157096.77   -154549.02    844.21695    567254.58    83.315938    82.513491    82.513491 
21000000    618.23579   -157117.37   -154560.23    874.65877    567254.58    83.367896    82.487774    82.487774 
21100000    623.67829    -157097.9   -154518.25    945.09517    567254.58    83.417535    82.463228    82.463228 
21200000    621.30093   -157102.18   -154532.35    912.01394    567254.58    83.464658    82.439946    82.439946 
21300000    616.30487   -157107.91   -154558.75    758.38716    567254.58    83.509079    82.418016    82.418016 
21400000    624.98455   -157097.83   -154512.77    948.72834    567254.58    83.550624    82.397523    82.397523 
21500000    619.92884   -157102.41   -154538.26    1006.9003    567254.58    83.589128    82.378543    82.378543 
21600000    620.66407   -157118.74   -154551.55    914.53359    567254.58    83.624439    82.361149    82.361149 
21700000    617.83849   -157108.86   -154553.36    784.86242    567254.58    83.656418    82.345406    82.345406 
21800000    624.33436   -157085.23   -154502.86    1134.2365    567254.58    83.684938    82.331373    82.331373 
21900000    623.54219   -157094.08   -154514.98    1092.0701    567254.58    83.709887    82.319102    82.319102 
22000000    616.47872   -157103.32   -154553.44    934.31025    567254.58    83.731167    82.308641    82.308641 
22100000    622.45565   -157096.08   -154521.49    1054.3323    567254.58    83.748694    82.300028    82.300028 
22200000    615.96415   -157106.71   -154558.97    807.50461    567254.58    83.762398    82.293295    82.293295 
22300000    617.14459   -157079.11   -154526.48    1066.2725    567254.58    83.772226    82.288468    82.288468 
22400000    621.84341   -157104.05   -154531.99    899.54045    567254.58    83.778138    82.285565    82.285565 
22500000    618.77054   -157090.19   -154530.83    1045.8353    567254.58    83.780111    82.284596    82.284596 
22600000    626.80162   -157095.41   -154502.84    1087.4469    567254.58    83.778138    82.285565    82.285565 
22700000     617.0569   -157107.66   -154555.39    857.56089    567254.58    83.772226    82.288468    82.288468 
22800000    616.58794   -157097.55   -154547.23    995.18217    567254.58    83.762398    82.293295    82.293295 
22900000    618.21192   -157108.92   -154551.87    938.22783    567254.58    83.748694    82.300028    82.300028 
23000000    620.42129   -157105.16   -154538.97    957.96051    567254.58    83.731167    82.308641    82.308641 
23100000    619.07533   -157078.92   -154518.31    1056.1273    567254.58    83.709887    82.319102    82.319102 
23200000    619.67736   -157099.72   -154536.62    942.76131    567254.58    83.684938    82.331373    82.331373 
23300000    618.56252   -157117.77   -154559.27    716.88745    567254.58    83.656418    82.345406    82.345406 
23400000    623.28411   -157109.54   -154531.52    960.22126    567254.58    83.624439    82.361149    82.361149 
23500000    619.29155   -157098.59   -154537.08    1096.1209    567254.58    83.589128    82.378543    82.378543 
23600000    619.47129    -157102.6   -154540.35    934.26446    567254.58    83.550624    82.397523    82.397523 
23700000    617.55654   -157123.96   -154569.62    808.54537    567254.58    83.509079    82.418016    82.418016 
23800000     617.6507   -157084.05   -154529.33    1003.0365    567254.58    83.464658    82.439946    82.439946 
23900000    625.13052   -157078.94   -154493.28    1029.0661    567254.58    83.417535    82.463228    82.463228 
24000000    620.81013   -157109.14   -154541.34    908.28492    567254.58    83.367896    82.487774    82.487774 
24100000    620.56048   -157119.88   -154553.12    889.82691    567254.58    83.315938    82.513491    82.513491 
24200000    619.09784   -157104.81    -154544.1    787.87433    567254.58    83.261865     82.54028     82.54028 
24300000    618.63907   -157121.76   -154562.95     842.2328    567254.58     83.20589    82.568039    82.568039 
24400000    615.25048   -157101.24   -154556.44    971.06256    567254.58    83.148235     82.59666     82.59666 
24500000     620.7224   -157110.48   -154543.05    934.46252    567254.58    83.089128    82.626034    82.626034 
24600000    616.69684   -157104.44   -154553.66    879.03832    567254.58    83.028801    82.656045    82.656045 
24700000    620.67308   -157119.18   -154551.95    820.29858    567254.58    82.967492    82.686579    82.686579 
24800000    622.19594    -157094.5   -154520.97    1130.2436    567254.58    82.905444    82.717515    82.717515 
24900000    623.29344   -157111.22   -154533.16     871.2863    567254.58    82.842901    82.748733    82.748733 
25000000    621.01609   -157131.64      -154563    677.09203    567254.58    82.780111    82.780111    82.780111 
25100000    619.52509   -157107.21   -154544.74    1019.5047    567254.58     82.71732    82.811524    82.811524 
25200000    616.13498   -157102.97   -154554.51    1015.1586    567254.58    82.654778    82.842849    82.842849 
25300000    617.34716   -157091.94   -154538.47    1014.1201    567254.58     82.59273    82.873961    82.873961 
25400000    616.14863   -157110.45   -154561.94    861.74325    567254.58    82.531421    82.904737    82.904737 
25500000    621.15785   -157103.55   -154534.32    808.89194    567254.58    82.471094    82.935053    82.935053 
25600000    619.57354   -157130.95   -154568.28    781.76289    567254.58    82.411986    82.964789    82.964789 
25700000    621.23787   -157103.38   -154533.82    897.66296    567254.58    82.354332    82.993825    82.993825 
25800000    615.61898   -157088.08   -154541.76    926.51316    567254.58    82.298357    83.022044    83.022044 
25900000    618.52564    -157102.2   -154543.86    894.08315    567254.58    82.244284    83.049332    83.049332 
26000000     618.1229   -157120.78    -154564.1    822.50141    567254.58    82.192326    83.075578    83.075578 
26100000    625.03516   -157114.83   -154529.56    1047.5203    567254.58    82.142687    83.100675    83.100675 
26200000    618.08015   -157079.73   -154523.23    1041.6733    567254.58    82.095564    83.124522    83.124522 
26300000    615.95914   -157118.74   -154571.01    782.96174    567254.58    82.051142     83.14702     83.14702 
26400000    617.04625   -157096.65   -154544.42    905.06735    567254.58    82.009598    83.168078    83.168078 
26500000    623.55812   -157082.83   -154503.67     1068.057    567254.58    81.971094    83.187609    83.187609 
26600000    619.93748   -157080.76   -154516.58    1110.8365    567254.58    81.935783    83.205532    83.205532 
26700000    623.19487   -157088.57   -154510.92    1152.9369    567254.58    81.903804    83.221774    83.221774 
26800000    620.31749   -157112.48   -154546.73    998.68262    567254.58    81.875284    83.236267    83.236267 
26900000    619.93392   -157121.01   -154556.84    831.62287    567254.58    81.850334    83.248952    83.248952 
27000000    629.07278   -157109.35   -154507.38    1036.7482    567254.58    81.829054    83.259776    83.259776 
27100000     615.0947   -157083.23   -154539.08     1045.108    567254.58    81.811528    83.268694    83.268694 
27200000    615.68371   -157084.41   -154537.82    1052.4835    567254.58    81.797824    83.275669    83.275669 
27300000     622.4742   -157114.11   -154539.44    919.23536    567254.58    81.787996    83.280672    83.280672 
27400000    623.28725   -157109.97   -154531.93    875.31579    567254.58    81.782084    83.283682    83.283682 
27500000    622.71974   -157081.15   -154505.46    1010.6075    567254.58    81.780111    83.284687    83.284687 
27600000    626.14117   -157102.02   -154512.18    882.02451    567254.58    81.782084    83.283682    83.283682 
27700000    618.49348   -157067.76   -154509.55    1111.4981    567254.58    81.787996    83.280672    83.280672 
27800000    617.03863   -157093.76   -154541.57     925.6333    567254.58    81.797824    83.275669    83.275669 
27900000    620.27429   -157119.04   -154553.46    801.62346    567254.58    81.811528    83.268694    83.268694 
28000000    621.35268    -157070.2   -154500.16    1044.4457    567254.58    81.829054    83.259776    83.259776 
28100000    620.80707   -157084.81   -154517.03      995.095    567254.58    81.850334    83.248952    83.248952 
28200000    624.25278   -157082.32   -154500.29    939.35521    567254.58    81.875284    83.236267    83.236267 
28300000    619.47993   -157104.26   -154541.97    897.51165    567254.58    81.903804    83.221774    83.221774 
28400000    622.32242   -157102.92   -154528.87     1038.199    567254.58    81.935783    83.205532    83.205532 
28500000    620.15303   -157109.21   -154544.14    809.95166    567254.58    81.971094    83.187609    83.187609 
28600000    617.88919   -157091.48   -154535.77    927.92022    567254.58    82.009598    83.168078    83.168078 
28700000    621.00421   -157112.24   -154543.65     790.3526    567254.58    82.051142     83.14702     83.14702 
28800000    624.89057   -157116.41   -154531.74    876.43137    567254.58    82.095564    83.124522    83.124522 
28900000    617.12839   -157088.42   -154535.86    1078.7966    567254.58    82.142687    83.100675    83.100675 
29000000    622.12706   -157111.18   -154537.94    881.77924    567254.58    82.192326    83.075578    83.075578 
29100000    622.22034   -157101.74   -154528.12     949.9662    567254.58    82.244284    83.049332    83.049332 
29200000    622.22929   -157111.01   -154537.35    934.71663    567254.58    82.298357    83.022044    83.022044 
29300000    624.33084   -157124.72   -154542.37    579.31249    567254.58    82.354332    82.993825    82.993825 
29400000     617.1302   -157090.58   -154538.01    1030.0397    567254.58    82.411986    82.964789    82.964789 
29500000    612.02593   -157082.46      -154551    956.27475    567254.58    82.471094    82.935053    82.935053 
29600000    623.49398   -157115.06   -154536.16    923.76451    567254.58    82.531421    82.904737    82.904737 
29700000    617.51547   -157112.38   -154558.21    781.37856    567254.58     82.59273    82.873961    82.873961 
29800000    622.50679   -157126.99   -154552.18    932.37197    567254.58    82.654778    82.842849    82.842849 
29900000    619.91501   -157109.82   -154545.73    944.80903    567254.58     82.71732    82.811524    82.811524 
30000000     618.1204   -157112.99   -154556.32    787.21121    567254.58    82.780111    82.780111    82.780111 
30100000    619.30939   -157110.01   -154548.43    864.50384    567254.58    82.842901    82.748733    82.748733 
30200000    622.27516   -157083.91   -154510.06     1288.495    567254.58    82.905444    82.717515    82.717515 
30300000    617.02636    -157112.3   -154560.16    781.61161    567254.58    82.967492    82.686579    82.686579 
30400000    619.36608   -157121.66   -154559.84    767.87914    567254.58    83.028801    82.656045    82.656045 
30500000     622.3735   -157114.58   -154540.32    852.14922    567254.58    83.089128    82.626034    82.626034 
30600000    617.82982   -157095.06    -154539.6     1023.033    567254.58    83.148235     82.59666     82.59666 
30700000    620.02769   -157089.92   -154525.37    1080.9605    567254.58     83.20589    82.568039    82.568039 
30800000    618.22147   -157087.72   -154530.64    1012.3213    567254.58    83.261865     82.54028     82.54028 
30900000    626.34428   -157081.31   -154490.63    1152.6863    567254.58    83.315938    82.513491    82.513491 
31000000    622.14208   -157107.02   -154533.72    903.99692    567254.58    83.367896    82.487774    82.487774 
31100000    622.43269   -157095.98   -154521.48    1057.0908    567254.58    83.417535    82.463228    82.463228 
31200000    617.05447    -157100.5   -154548.25    1011.2243    567254.58    83.464658    82.439946    82.439946 
31300000    616.37888   -157101.39   -154551.93    741.01812    567254.58    83.509079    82.418016    82.418016 
31400000    619.69553   -157077.68    -154514.5    1106.0811    567254.58    83.550624    82.397523    82.397523 
31500000    616.23096   -157085.09   -154536.24    1003.3645    567254.58    83.589128    82.378543    82.378543 
31600000    623.74046   -157089.41    -154509.5      1160.57    567254.58    83.624439    82.361149    82.361149 
31700000    618.54101    -157095.3   -154536.89    840.62354    567254.58    83.656418    82.345406    82.345406 
31800000    617.16463   -157095.92   -154543.21    1049.9764    567254.58    83.684938    82.331373    82.331373 
31900000    620.37567   -157090.67   -154524.67    915.11136    567254.58    83.709887    82.319102    82.319102 
32000000    622.81199   -157079.27   -154503.19     1228.629    567254.58    83.731167    82.308641    82.308641 
32100000    621.70756   -157107.89   -154536.38    970.40494    567254.58    83.748694    82.300028    82.300028 
32200000    621.28538   -157061.55   -154491.79    1065.7386    567254.58    83.762398    82.293295    82.293295 
32300000    621.78753   -157082.57   -154510.74    1267.9676    567254.58    83.772226    82.288468    82.288468 
32400000    617.42458   -157102.93   -154549.14      908.404    567254.58    83.778138    82.285565    82.285565 
32500000    624.99813      -157111   -154525.88    1003.4426    567254.58    83.780111    82.284596    82.284596 
32600000     624.8541   -157100.53   -154516.01    891.14162    567254.58    83.778138    82.285565    82.285565 
32700000    622.20656   -157107.66   -154534.09    890.01223    567254.58    83.772226    82.288468    82.288468 
32800000    616.67839   -157104.74   -154554.04    928.36699    567254.58    83.762398    82.293295    82.293295 
32900000     618.3371   -157110.93   -154553.37    972.31865    567254.58    83.748694    82.300028    82.300028 
33000000    617.69608   -157113.17   -154558.26    849.16604    567254.58    83.731167    82.308641    82.308641 
33100000    618.21245   -157116.46   -154559.41    855.15439    567254.58    83.709887    82.319102    82.319102 
33200000    622.06194   -157111.35   -154538.38    838.09146    567254.58    83.684938    82.331373    82.331373 
33300000    619.23621   -157093.77   -154532.48    1011.8037    567254.58    83.656418    82.345406    82.345406 
33400000    622.26351   -157097.51   -154523.71    892.34682    567254.58    83.624439    82.361149    82.361149 
33500000    619.04331   -157124.58   -154564.09    771.31538    567254.58    83.589128    82.378543    82.378543 
33600000    616.22912   -157104.19   -154555.34    832.64299    567254.58    83.550624    82.397523    82.397523 
33700000    617.05052   -157099.59   -154547.35    851.08971    567254.58    83.509079    82.418016    82.418016 
33800000    622.96504   -157110.72   -154534.01    851.66245    567254.58    83.464658    82.439946    82.439946 
33900000    621.64947   -157105.65   -154534.39    993.86218    567254.58    83.417535    82.463228    82.463228 
34000000    623.83763   -157121.19   -154540.87    716.23727    567254.58    83.367896    82.487774    82.487774 
34100000    611.04117   -157122.11   -154594.72    728.97944    567254.58    83.315938    82.513491    82.513491 
34200000    619.85512   -157111.36   -154547.52    955.14145    567254.58    83.261865     82.54028     82.54028 
34300000    620.94396   -157123.95    -154555.6    768.98437    567254.58     83.20589    82.568039    82.568039 
34400000    623.12615   -157110.89   -154533.52    957.51831    567254.58    83.148235     82.59666     82.59666 
34500000     616.7244    -157092.7   -154541.81    969.96755    567254.58    83.089128    82.626034    82.626034 
34600000    619.51371   -157095.72   -154533.29    971.06951    567254.58    83.028801    82.656045    82.656045 
34700000    620.36232   -157109.56   -154543.62    775.79123    567254.58    82.967492    82.686579    82.686579 
34800000    620.34437   -157126.44   -154560.57    640.74906    567254.58    82.905444    82.717515    82.717515 
34900000     623.2745   -157090.85   -154512.86    911.44985    567254.58    82.842901    82.748733    82.748733 
35000000    621.06804    -157118.8   -154549.94    880.46952    567254.58    82.780111    82.780111    82.780111 
35100000    620.32344   -157108.56   -154542.78    884.23568    567254.58     82.71732    82.811524    82.811524 
35200000    620.63705   -157113.05   -154545.97    768.81387    567254.58    82.654778    82.842849    82.842849 
35300000    620.74528   -157140.42    -154572.9    663.69299    567254.58     82.59273    82.873961    82.873961 
35400000    623.13122   -157108.45   -154531.06    827.70336    567254.58    82.531421    82.904737    82.904737 
35500000    620.14471   -157102.14    -154537.1    877.41431    567254.58    82.471094    82.935053    82.935053 
35600000    621.38113   -157108.91   -154538.76    921.83663    567254.58    82.411986    82.964789    82.964789 
35700000    615.07794   -157133.59    -154589.5    583.26109    567254.58    82.354332    82.993825    82.993825 
35800000    620.77189   -157110.74    -154543.1    855.63727    567254.58    82.298357    83.022044    83.022044 
35900000    621.14053    -157122.9   -154553.74    768.68971    567254.58    82.244284    83.049332    83.049332 
36000000     621.8573   -157112.74   -154540.62    792.92126    567254.58    82.192326    83.075578    83.075578 
36100000    620.38599   -157103.56   -154537.52    1010.9348    567254.58    82.142687    83.100675    83.100675 
36200000    615.01945   -157092.31   -154548.47    867.73577    567254.58    82.095564    83.124522    83.124522 
36300000    620.26779   -157095.87   -154530.32    891.30819    567254.58    82.051142     83.14702     83.14702 
36400000    622.22343   -157125.46   -154551.82    729.36409    567254.58    82.009598    83.168078    83.168078 
36500000    620.31548   -157109.11   -154543.36    694.71344    567254.58    81.971094    83.187609    83.187609 
36600000    620.86818   -157112.45   -154544.42    745.86273    567254.58    81.935783    83.205532    83.205532 
36700000    620.18248   -157098.73   -154533.53    765.55022    567254.58    81.903804    83.221774    83.221774 
36800000    618.43693   -157104.95   -154546.97    780.02327    567254.58    81.875284    83.236267    83.236267 
36900000    617.84077   -157114.95   -154559.44    608.47655    567254.58    81.850334    83.248952    83.248952 
37000000    611.29916   -157109.85   -154581.39     623.9974    567254.58    81.829054    83.259776    83.259776 
37100000    623.48028   -157097.36   -154518.53     899.9944    567254.58    81.811528    83.268694    83.268694 
37200000    615.40097   -157112.76   -154567.34    666.89621    567254.58    81.797824    83.275669    83.275669 
37300000    621.59813    -157105.3   -154534.25    952.60859    567254.58    81.787996    83.280672    83.280672 
37400000    614.01652   -157109.78   -154570.09    788.57191    567254.58    81.782084    83.283682    83.283682 
37500000    625.41763   -157095.55    -154508.7    798.28551    567254.58    81.780111    83.284687    83.284687 
37600000    621.31885   -157098.99    -154529.1     944.0467    567254.58    81.782084    83.283682    83.283682 
37700000     624.9608   -157092.46    -154507.5    987.09064    567254.58    81.787996    83.280672    83.280672 
37800000    620.79954   -157110.49   -154542.75    832.62984    567254.58    81.797824    83.275669    83.275669 
37900000    620.69265   -157111.69   -154544.38    745.78326    567254.58    81.811528    83.268694    83.268694 
38000000    623.83434   -157088.91   -154508.61    952.46795    567254.58    81.829054    83.259776    83.259776 
38100000    620.45221   -157090.48   -154524.16    853.66667    567254.58    81.850334    83.248952    83.248952 
38200000     623.5474   -157098.72    -154519.6    933.74648    567254.58    81.875284    83.236267    83.236267 
38300000    620.85145   -157092.64   -154524.68    884.41553    567254.58    81.903804    83.221774    83.221774 
38400000    625.32947   -157113.52   -154527.04    864.15089    567254.58    81.935783    83.205532    83.205532 
38500000    617.81292   -157096.35   -154540.95    1001.1846    567254.58    81.971094    83.187609    83.187609 
38600000    620.65245   -157117.57   -154550.44    787.76705    567254.58    82.009598    83.168078    83.168078 
38700000    619.27329   -157117.42   -154555.98    892.07605    567254.58    82.051142     83.14702     83.14702 
38800000    619.58027   -157129.24   -154566.54    678.24727    567254.58    82.095564    83.124522    83.124522 
38900000    619.01967    -157135.8   -154575.42    708.43357    567254.58    82.142687    83.100675    83.100675 
39000000    619.53453   -157129.17   -154566.65    669.11602    567254.58    82.192326    83.075578    83.075578 
39100000    614.43868   -157127.83   -154586.39    728.23159    567254.58    82.244284    83.049332    83.049332 
39200000    621.04102   -157097.25    -154528.5    927.91824    567254.58    82.298357    83.022044    83.022044 
39300000    619.35152   -157113.37   -154551.61    761.40593    567254.58    82.354332    82.993825    82.993825 
39400000    623.70668   -157113.87    -154534.1     816.2742    567254.58    82.411986    82.964789    82.964789 
39500000    622.13966   -157118.24   -154544.95    805.60033    567254.58    82.471094    82.935053    82.935053 
39600000    621.15154   -157100.85   -154531.65    843.54434    567254.58    82.531421    82.904737    82.904737 
39700000    621.01881   -157108.56    -154539.9    1012.3533    567254.58     82.59273    82.873961    82.873961 
39800000    622.38291   -157122.96   -154548.66    924.99619    567254.58    82.654778    82.842849    82.842849 
39900000    620.79322   -157107.92    -154540.2     736.2548    567254.58     82.71732    82.811524    82.811524 
40000000    615.36458   -157120.67    -154575.4    711.74031    567254.58    82.780111    82.780111    82.780111 
40100000    623.96481   -157101.34    -154520.5    858.95996    567254.58    82.842901    82.748733    82.748733 
40200000    616.36951   -157127.45   -154578.02    634.88907    567254.58    82.905444    82.717515    82.717515 
40300000    615.98106   -157128.62    -154580.8    601.94699    567254.58    82.967492    82.686579    82.686579 
40400000    616.57885   -157114.93   -154564.64    856.74398    567254.58    83.028801    82.656045    82.656045 
40500000    622.98032   -157117.95   -154541.18     932.5669    567254.58    83.089128    82.626034    82.626034 
40600000    619.26617   -157114.59   -154553.19    796.10544    567254.58    83.148235     82.59666     82.59666 
40700000    621.53201   -157104.31   -154533.53    937.71665    567254.58     83.20589    82.568039    82.568039 
40800000    624.54186   -157129.94   -154546.72    737.55022    567254.58    83.261865     82.54028     82.54028 
40900000    623.24105   -157110.07   -154532.22    773.39121    567254.58    83.315938    82.513491    82.513491 
41000000    616.61452   -157103.59   -154553.15    750.32463    567254.58    83.367896    82.487774    82.487774 
41100000      623.134   -157104.35   -154526.95    889.22201    567254.58    83.417535    82.463228    82.463228 
41200000     617.6021   -157098.09   -154543.57    951.28206    567254.58    83.464658    82.439946    82.439946 
41300000    617.27995   -157112.12   -154558.93    634.51981    567254.58    83.509079    82.418016    82.418016 
41400000     624.1015    -157113.8   -154532.39    777.53333    567254.58    83.550624    82.397523    82.397523 
41500000    616.63513   -157106.04   -154555.52    715.36847    567254.58    83.589128    82.378543    82.378543 
41600000    619.31912   -157105.65   -154544.03     812.9014    567254.58    83.624439    82.361149    82.361149 
41700000    622.23198   -157110.35   -154536.68    745.46341    567254.58    83.656418    82.345406    82.345406 
41800000    623.52053   -157134.46   -154555.46    497.61832    567254.58    83.684938    82.331373    82.331373 
41900000    619.57278   -157083.07   -154520.39    874.15013    567254.58    83.709887    82.319102    82.319102 
42000000    618.39521   -157112.76   -154554.95    770.89898    567254.58    83.731167    82.308641    82.308641 
42100000    620.18244   -157104.79    -154539.6    803.50965    567254.58    83.748694    82.300028    82.300028 
42200000    622.53797   -157082.01   -154507.07    950.95151    567254.58    83.762398    82.293295    82.293295 
42300000    624.99886   -157093.08   -154507.96    821.27445    567254.58    83.772226    82.288468    82.288468 
42400000    623.88881   -157102.79   -154522.26    891.38258    567254.58    83.778138    82.285565    82.285565 
42500000    624.66775   -157121.58   -154537.83    837.02296    567254.58    83.780111    82.284596    82.284596 
42600000    621.21208   -157085.65    -154516.2     1118.224    567254.58    83.778138    82.285565    82.285565 
42700000    619.79386   -157092.41   -154528.82    916.15812    567254.58    83.772226    82.288468    82.288468 
42800000     615.9195   -157110.36    -154562.8    766.19692    567254.58    83.762398    82.293295    82.293295 
42900000    623.42833   -157103.14   -154524.52     961.2644    567254.58    83.748694    82.300028    82.300028 
43000000    617.87312   -157116.44   -154560.79    553.77565    567254.58    83.731167    82.308641    82.308641 
43100000    616.58951   -157103.23   -154552.89    666.16342    567254.58    83.709887    82.319102    82.319102 
43200000    625.46146   -157105.73    -154518.7    900.12572    567254.58    83.684938    82.331373    82.331373 
43300000     619.6944   -157080.39   -154517.21    1006.6435    567254.58    83.656418    82.345406    82.345406 
43400000     622.1746   -157080.89   -154507.46    1051.9299    567254.58    83.624439    82.361149    82.361149 
43500000     617.4908   -157109.07   -154555.01     845.4608    567254.58    83.589128    82.378543    82.378543 
43600000    619.86821   -157101.66   -154537.77    894.16919    567254.58    83.550624    82.397523    82.397523 
43700000    618.03516   -157097.77   -154541.45    744.18238    567254.58    83.509079    82.418016    82.418016 
43800000     624.4601   -157120.87   -154537.98    707.09891    567254.58    83.464658    82.439946    82.439946 
43900000    621.79555    -157114.6   -154542.74    866.93179    567254.58    83.417535    82.463228    82.463228 
44000000    621.38642    -157109.7   -154539.52    978.60595    567254.58    83.367896    82.487774    82.487774 
44100000    620.85841   -157104.71   -154536.72    708.13667    567254.58    83.315938    82.513491    82.513491 
44200000    620.64592   -157110.77   -154543.66    735.62856    567254.58    83.261865     82.54028     82.54028 
44300000    617.38313   -157115.08   -154561.46    673.47813    567254.58     83.20589    82.568039    82.568039 
44400000    620.28804   -157123.07   -154557.44    621.23622    567254.58    83.148235     82.59666     82.59666 
44500000     621.0619   -157127.04    -154558.2     640.3671    567254.58    83.089128    82.626034    82.626034 
44600000    618.83854   -157118.32   -154558.69    718.84639    567254.58    83.028801    82.656045    82.656045 
44700000    620.66112   -157125.91   -154558.73    687.67109    567254.58    82.967492    82.686579    82.686579 
44800000    621.07806   -157111.59   -154542.69      837.398    567254.58    82.905444    82.717515    82.717515 
44900000    619.66537    -157118.6   -154555.54    710.40288    567254.58    82.842901    82.748733    82.748733 
45000000    619.65383   -157124.46   -154561.45    563.01932    567254.58    82.780111    82.780111    82.780111 
45100000    618.82148   -157103.51   -154543.94    828.87662    567254.58     82.71732    82.811524    82.811524 
45200000    619.21671   -157135.41   -154574.21    472.52916    567254.58    82.654778    82.842849    82.842849 
45300000    622.19287   -157139.08   -154565.57    535.35549    567254.58     82.59273    82.873961    82.873961 
45400000    620.21112   -157134.92    -154569.6    683.65511    567254.58    82.531421    82.904737    82.904737 
45500000    619.12662   -157128.73    -154567.9    704.44198    567254.58    82.471094    82.935053    82.935053 
45600000    617.29533   -157135.84   -154582.59    695.39955    567254.58    82.411986    82.964789    82.964789 
45700000     622.5079   -157093.77   -154518.95    803.47389    567254.58    82.354332    82.993825    82.993825 
45800000    622.10443   -157104.44   -154531.29    804.27264    567254.58    82.298357    83.022044    83.022044 
45900000    621.08396   -157110.35   -154541.42    930.20078    567254.58    82.244284    83.049332    83.049332 
46000000    625.07017   -157140.22   -154554.81    628.41068    567254.58    82.192326    83.075578    83.075578 
46100000    616.24903   -157106.13    -154557.2    853.38748    567254.58    82.142687    83.100675    83.100675 
46200000    624.28124   -157124.86   -154542.71    804.06747    567254.58    82.095564    83.124522    83.124522 
46300000    621.78836   -157115.81   -154543.97    703.42548    567254.58    82.051142     83.14702     83.14702 
46400000    616.40064   -157109.49   -154559.93    770.37498    567254.58    82.009598    83.168078    83.168078 
46500000    619.13975    -157102.4   -154541.52    845.88342    567254.58    81.971094    83.187609    83.187609 
46600000    617.95114   -157106.65   -154550.68    751.14008    567254.58    81.935783    83.205532    83.205532 
46700000    617.25234   -157100.88    -154547.8    797.96465    567254.58    81.903804    83.221774    83.221774 
46800000    624.93923   -157113.13   -154528.26    866.66898    567254.58    81.875284    83.236267    83.236267 
46900000    617.68435   -157103.83   -154548.97    829.77832    567254.58    81.850334    83.248952    83.248952 
47000000    624.03838   -157105.73   -154524.58    918.17542    567254.58    81.829054    83.259776    83.259776 
47100000    623.72468    -157110.3   -154530.45    869.00533    567254.58    81.811528    83.268694    83.268694 
47200000    620.96544   -157107.19   -154538.75    862.86997    567254.58    81.797824    83.275669    83.275669 
47300000    618.20812   -157093.44   -154536.41    936.55512    567254.58    81.787996    83.280672    83.280672 
47400000    623.74832   -157113.88   -154533.94    918.43414    567254.58    81.782084    83.283682    83.283682 
47500000    622.94683   -157071.36   -154494.73    1058.1988    567254.58    81.780111    83.284687    83.284687 
47600000    620.47812   -157098.66   -154532.24    870.51422    567254.58    81.782084    83.283682    83.283682 
47700000     619.8562   -157101.85      -154538    983.20986    567254.58    81.787996    83.280672    83.280672 
47800000    616.79713   -157100.57   -154549.38     763.0048    567254.58    81.797824    83.275669    83.275669 
47900000     617.0111   -157113.69   -154561.61    857.35831    567254.58    81.811528    83.268694    83.268694 
48000000     622.6569   -157104.84   -154529.41    895.03868    567254.58    81.829054    83.259776    83.259776 
48100000     619.0056   -157105.88   -154545.55    821.06406    567254.58    81.850334    83.248952    83.248952 
48200000     619.1616   -157128.06   -154567.08    776.17381    567254.58    81.875284    83.236267    83.236267 
48300000    622.19404   -157109.58   -154536.06    821.04708    567254.58    81.903804    83.221774    83.221774 
48400000    624.24907   -157105.59   -154523.57    895.24267    567254.58    81.935783    83.205532    83.205532 
48500000    624.30557   -157079.72   -154497.47    1092.2476    567254.58    81.971094    83.187609    83.187609 
48600000    623.38375   -157108.27   -154529.83    863.67103    567254.58    82.009598    83.168078    83.168078 
48700000    621.71729   -157113.63   -154542.08      879.938    567254.58    82.051142     83.14702     83.14702 
48800000    621.89218   -157113.58   -154541.31    788.10168    567254.58    82.095564    83.124522    83.124522 
48900000    617.50385   -157109.02    -154554.9    905.41559    567254.58    82.142687    83.100675    83.100675 
49000000    619.72293    -157125.9    -154562.6    805.93687    567254.58    82.192326    83.075578    83.075578 
49100000    618.31794   -157118.62   -154561.13    716.94951    567254.58    82.244284    83.049332    83.049332 
49200000    620.14276   -157124.74   -154559.71    720.16958    567254.58    82.298357    83.022044    83.022044 
49300000    619.78131   -157103.78   -154540.24    923.24542    567254.58    82.354332    82.993825    82.993825 
49400000    622.85442   -157139.59   -154563.34    680.54505    567254.58    82.411986    82.964789    82.964789 
49500000    621.57016   -157108.22   -154537.28    907.31157    567254.58    82.471094    82.935053    82.935053 
49600000    626.06312   -157128.27   -154538.75    784.26253    567254.58    82.531421    82.904737    82.904737 
49700000    623.84913   -157123.61   -154543.25    662.35194    567254.58     82.59273    82.873961    82.873961 
49800000    622.99234   -157109.34   -154532.53    796.93034    567254.58    82.654778    82.842849    82.842849 
49900000    625.42633   -157125.63   -154538.74    672.34185    567254.58     82.71732    82.811524    82.811524 
50000000    616.58308   -157164.37   -154614.06    438.41698    567254.58    82.780111    82.780111    82.780111 
50100000    627.40314   -157109.36    -154514.3    885.79967    567254.58    82.842901    82.748733    82.748733 
50200000    617.33688   -157131.12    -154577.7    847.72984    567254.58    82.905444    82.717515    82.717515 
50300000    619.33312   -157118.69   -154557.01    784.02298    567254.58    82.967492    82.686579    82.686579 
50400000    621.53631   -157122.48   -154551.69    705.24602    567254.58    83.028801    82.656045    82.656045 
50500000     615.9333   -157128.45   -154580.83    735.92559    567254.58    83.089128    82.626034    82.626034 
50600000    619.13847   -157110.22   -154549.34    832.79532    567254.58    83.148235     82.59666     82.59666 
50700000    616.49094   -157104.45   -154554.53    768.10039    567254.58     83.20589    82.568039    82.568039 
50800000    620.10877   -157113.38   -154548.49    775.15663    567254.58    83.261865     82.54028     82.54028 
50900000    621.86672   -157119.01   -154546.85    860.28879    567254.58    83.315938    82.513491    82.513491 
51000000     621.2314   -157118.38   -154548.85    763.22089    567254.58    83.367896    82.487774    82.487774 
51100000    621.82676    -157117.2   -154545.21    811.19641    567254.58    83.417535    82.463228    82.463228 
51200000    623.62287   -157123.13    -154543.7    689.91565    567254.58    83.464658    82.439946    82.439946 
51300000    619.12036   -157121.12   -154560.32    624.59657    567254.58    83.509079    82.418016    82.418016 
51400000    623.55144   -157092.73    -154513.6    1068.5399    567254.58    83.550624    82.397523    82.397523 
51500000    628.64222   -157105.25   -154505.06    812.52711    567254.58    83.589128    82.378543    82.378543 
51600000    622.46882   -157093.31   -154518.66     1094.497    567254.58    83.624439    82.361149    82.361149 
51700000    616.18986   -157110.49   -154561.81    708.27209    567254.58    83.656418    82.345406    82.345406 
51800000    621.98569   -157102.18   -154529.52    1089.6164    567254.58    83.684938    82.331373    82.331373 
51900000    622.69912   -157106.33   -154530.72    808.91977    567254.58    83.709887    82.319102    82.319102 
52000000    618.01593   -157122.53   -154566.29    704.93272    567254.58    83.731167    82.308641    82.308641 
52100000    619.92642   -157111.36   -154547.22    875.84705    567254.58    83.748694    82.300028    82.300028 
52200000    621.01833    -157090.5   -154521.85    907.37834    567254.58    83.762398    82.293295    82.293295 
52300000    621.28273   -157106.38   -154536.63    788.16706    567254.58    83.772226    82.288468    82.288468 
52400000     621.9967   -157098.15   -154525.45    956.28063    567254.58    83.778138    82.285565    82.285565 
52500000    619.76758   -157099.75   -154536.27    877.67142    567254.58    83.780111    82.284596    82.284596 
52600000    619.98721   -157090.65   -154526.26    864.25296    567254.58    83.778138    82.285565    82.285565 
52700000    619.45072   -157112.41   -154550.24    829.66289    567254.58    83.772226    82.288468    82.288468 
52800000    620.90449   -157089.71   -154521.53    881.82173    567254.58    83.762398    82.293295    82.293295 
52900000    619.76196   -157101.14   -154537.68    830.10777    567254.58    83.748694    82.300028    82.300028 
53000000    615.32783   -157134.26   -154589.14    615.57073    567254.58    83.731167    82.308641    82.308641 
53100000    621.91801   -157093.41   -154521.04    944.80129    567254.58    83.709887    82.319102    82.319102 
53200000    616.55728   -157108.45   -154558.25    781.76972    567254.58    83.684938    82.331373    82.331373 
53300000     615.1157   -157117.22   -154572.98    732.63668    567254.58    83.656418    82.345406    82.345406 
53400000    615.64205   -157137.15   -154590.73    572.08713    567254.58    83.624439    82.361149    82.361149 
53500000    616.21677   -157077.09    -154528.3    1032.2404    567254.58    83.589128    82.378543    82.378543 
53600000    624.55021   -157110.83   -154527.57     751.8791    567254.58    83.550624    82.397523    82.397523 
53700000    616.78325   -157122.92   -154571.79     759.9561    567254.58    83.509079    82.418016    82.418016 
53800000    621.32294   -157135.89   -154565.98    691.19275    567254.58    83.464658    82.439946    82.439946 
53900000    621.35113   -157131.44   -154561.41    556.14821    567254.58    83.417535    82.463228    82.463228 
54000000    620.84022   -157116.91      -154549    888.20151    567254.58    83.367896    82.487774    82.487774 
54100000    619.01745   -157114.53   -154554.16     692.7106    567254.58    83.315938    82.513491    82.513491 
54200000     617.3496   -157131.59   -154578.11    642.09982    567254.58    83.261865     82.54028     82.54028 
54300000    619.86917   -157106.12   -154542.22     881.7917    567254.58     83.20589    82.568039    82.568039 
54400000    622.34317   -157122.95   -154548.82    699.70837    567254.58    83.148235     82.59666     82.59666 
54500000    616.60194   -157106.66   -154556.27    858.58289    567254.58    83.089128    82.626034    82.626034 
54600000    624.38003   -157132.78   -154550.22    647.63407    567254.58    83.028801    82.656045    82.656045 
54700000    620.01507   -157118.22   -154553.72    788.94278    567254.58    82.967492    82.686579    82.686579 
54800000    619.53486   -157143.58   -154581.06    511.85589    567254.58    82.905444    82.717515    82.717515 
54900000    620.30489   -157118.43   -154552.73    903.22581    567254.58    82.842901    82.748733    82.748733 
55000000    620.21487    -157122.3   -154556.97    886.48418    567254.58    82.780111    82.780111    82.780111 
55100000    620.30048   -157117.16   -154551.47    776.94238    567254.58     82.71732    82.811524    82.811524 
55200000    616.61661   -157131.38   -154580.94    622.60598    567254.58    82.654778    82.842849    82.842849 
55300000    617.25516   -157120.17   -154567.08    513.53122    567254.58     82.59273    82.873961    82.873961 
55400000    620.40418   -157131.89   -154565.78    675.81685    567254.58    82.531421    82.904737    82.904737 
55500000    618.50399   -157111.68   -154553.43    850.87673    567254.58    82.471094    82.935053    82.935053 
55600000    623.55483   -157097.64   -154518.49    833.26271    567254.58    82.411986    82.964789    82.964789 
55700000    618.05633   -157110.74   -154554.34    686.44141    567254.58    82.354332    82.993825    82.993825 
55800000    624.80167   -157124.55   -154540.25    816.24714    567254.58    82.298357    83.022044    83.022044 
55900000    619.28443   -157100.95   -154539.47     792.9767    567254.58    82.244284    83.049332    83.049332 
56000000    612.19882   -157102.05   -154569.88    902.43674    567254.58    82.192326    83.075578    83.075578 
56100000    618.73972   -157099.27   -154540.04    881.37704    567254.58    82.142687    83.100675    83.100675 
56200000     621.4119   -157118.24   -154547.96    760.90682    567254.58    82.095564    83.124522    83.124522 
56300000    619.85262   -157117.01   -154553.18    779.50931    567254.58    82.051142     83.14702     83.14702 
56400000    622.40219   -157110.54   -154536.17    664.65311    567254.58    82.009598    83.168078    83.168078 
56500000    621.12196   -157115.16   -154546.08    768.77186    567254.58    81.971094    83.187609    83.187609 
56600000    620.42497   -157108.79    -154542.6    898.39762    567254.58    81.935783    83.205532    83.205532 
56700000    622.14613   -157078.02    -154504.7    1033.2335    567254.58    81.903804    83.221774    83.221774 
56800000    619.51956   -157104.73   -154542.27    775.09395    567254.58    81.875284    83.236267    83.236267 
56900000    621.72061   -157106.38   -154534.83    720.52812    567254.58    81.850334    83.248952    83.248952 
57000000    620.96388   -157109.47   -154541.05    734.34708    567254.58    81.829054    83.259776    83.259776 
57100000    623.59129   -157080.45   -154501.15    980.68745    567254.58    81.811528    83.268694    83.268694 
57200000    618.55273   -157118.58   -154560.13     783.8771    567254.58    81.797824    83.275669    83.275669 
57300000    624.35337   -157097.25   -154514.81    749.37367    567254.58    81.787996    83.280672    83.280672 
57400000    617.09306    -157118.9   -154566.49      701.649    567254.58    81.782084    83.283682    83.283682 
57500000    623.20237   -157115.88   -154538.19     903.7684    567254.58    81.780111    83.284687    83.284687 
57600000    621.79522   -157113.37    -154541.5    750.27256    567254.58    81.782084    83.283682    83.283682 
57700000    619.70301   -157101.12   -154537.91    991.91917    567254.58    81.787996    83.280672    83.280672 
57800000    615.53942   -157099.45   -154553.46    692.98752    567254.58    81.797824    83.275669    83.275669 
57900000    617.40287   -157096.84   -154543.14    697.68008    567254.58    81.811528    83.268694    83.268694 
58000000    621.91919   -157087.87   -154515.49    1088.1711    567254.58    81.829054    83.259776    83.259776 
58100000    623.56964   -157080.49   -154501.28    1069.0416    567254.58    81.850334    83.248952    83.248952 
58200000    621.81317   -157113.69   -154541.75    834.89777    567254.58    81.875284    83.236267    83.236267 
58300000    621.36035   -157085.13   -154515.06    935.99765    567254.58    81.903804    83.221774    83.221774 
58400000    618.42334   -157096.08   -154538.16    860.18959    567254.58    81.935783    83.205532    83.205532 
58500000    621.70326   -157083.79    -154512.3    960.32428    567254.58    81.971094    83.187609    83.187609 
58600000     623.8749    -157105.8   -154525.34    723.71973    567254.58    82.009598    83.168078    83.168078 
58700000    616.17359   -157120.03   -154571.41    556.95959    567254.58    82.051142     83.14702     83.14702 
58800000    617.82533    -157126.8   -154571.35    559.46687    567254.58    82.095564    83.124522    83.124522 
58900000    617.16439   -157091.02   -154538.31    859.94031    567254.58    82.142687    83.100675    83.100675 
59000000     619.8327    -157122.3   -154558.56    692.16824    567254.58    82.192326    83.075578    83.075578 
59100000    616.22481   -157110.03    -154561.2    754.83246    567254.58    82.244284    83.049332    83.049332 
59200000    612.32044   -157119.69   -154587.02    667.85392    567254.58    82.298357    83.022044    83.022044 
59300000    618.27474   -157141.08   -154583.78    594.59962    567254.58    82.354332    82.993825    82.993825 
59400000    619.06824   -157115.36   -154554.77    660.34409    567254.58    82.411986    82.964789    82.964789 
59500000    617.06351   -157123.64   -154571.35    521.69669    567254.58    82.471094    82.935053    82.935053 
59600000    616.99783   -157099.13   -154547.11    667.51939    567254.58    82.531421    82.904737    82.904737 
59700000    622.36975   -157099.64    -154525.4     738.3298    567254.58     82.59273    82.873961    82.873961 
59800000    617.43111   -157134.53   -154580.72    433.51503    567254.58    82.654778    82.842849    82.842849 
59900000    615.23325    -157093.4   -154548.67    761.89037    567254.58     82.71732    82.811524    82.811524 
60000000    622.12043   -157121.87   -154548.66    668.35645    567254.58    82.780111    82.780111    82.780111 
60100000    619.66097   -157123.35   -154560.31    750.79575    567254.58    82.842901    82.748733    82.748733 
60200000    617.33201    -157113.5    -154560.1    637.98844    567254.58    82.905444    82.717515    82.717515 
60300000    614.94553   -157122.73    -154579.2    514.65402    567254.58    82.967492    82.686579    82.686579 
60400000    626.72505   -157111.05   -154518.79    843.43149    567254.58    83.028801    82.656045    82.656045 
60500000    618.20909   -157129.91   -154572.88      634.509    567254.58    83.089128    82.626034    82.626034 
60600000    620.58861   -157098.02   -154531.15    816.97606    567254.58    83.148235     82.59666     82.59666 
60700000    621.36887   -157119.04   -154548.93    771.10691    567254.58     83.20589    82.568039    82.568039 
60800000    619.30473   -157132.44   -154570.87    668.35746    567254.58    83.261865     82.54028     82.54028 
60900000     618.7933   -157098.93   -154539.48    823.93513    567254.58    83.315938    82.513491    82.513491 
61000000    613.73359    -157104.3   -154565.78    721.12651    567254.58    83.367896    82.487774    82.487774 
61100000    616.89002   -157096.66   -154545.08     800.5636    567254.58    83.417535    82.463228    82.463228 
61200000    610.88669   -157095.22   -154568.47    889.43059    567254.58    83.464658    82.439946    82.439946 
61300000    620.12044   -157130.43   -154565.49    628.34908    567254.58    83.509079    82.418016    82.418016 
61400000     620.1135   -157102.52   -154537.61    798.75374    567254.58    83.550624    82.397523    82.397523 
61500000    622.61793   -157104.75   -154529.48    1018.0202    567254.58    83.589128    82.378543    82.378543 
61600000    624.72637   -157110.92   -154526.93    571.66445    567254.58    83.624439    82.361149    82.361149 
61700000    616.74884   -157090.74   -154539.74    957.52997    567254.58    83.656418    82.345406    82.345406 
61800000    621.39782   -157099.05   -154528.82    899.63156    567254.58    83.684938    82.331373    82.331373 
61900000    615.89257   -157110.72   -154563.27    474.71739    567254.58    83.709887    82.319102    82.319102 
62000000    618.35087   -157101.89   -154544.27    636.35786    567254.58    83.731167    82.308641    82.308641 
62100000    618.28409   -157089.37   -154532.02    911.30232    567254.58    83.748694    82.300028    82.300028 
62200000    614.90348   -157094.71   -154551.35    769.06891    567254.58    83.762398    82.293295    82.293295 
62300000    617.21197   -157108.72   -154555.81    832.28465    567254.58    83.772226    82.288468    82.288468 
62400000    620.70662   -157101.32   -154533.96    811.61698    567254.58    83.778138    82.285565    82.285565 
62500000     616.3197   -157124.25   -154575.03    531.44844    567254.58    83.780111    82.284596    82.284596 
62600000    619.56715   -157094.56    -154531.9     894.9369    567254.58    83.778138    82.285565    82.285565 
62700000    619.71555   -157104.25   -154540.98    797.50946    567254.58    83.772226    82.288468    82.288468 
62800000    618.58161   -157105.87    -154547.3    781.75919    567254.58    83.762398    82.293295    82.293295 
62900000    619.78134   -157101.68   -154538.14     727.4684    567254.58    83.748694    82.300028    82.300028 
63000000    616.64434   -157105.21   -154554.65    848.48548    567254.58    83.731167    82.308641    82.308641 
63100000     618.5272   -157088.87   -154530.52      761.747    567254.58    83.709887    82.319102    82.319102 
63200000    616.98483   -157102.03   -154550.06    830.10766    567254.58    83.684938    82.331373    82.331373 
63300000    623.36624   -157097.64   -154519.28    833.70679    567254.58    83.656418    82.345406    82.345406 
63400000    618.24298   -157085.17   -154527.99    913.53639    567254.58    83.624439    82.361149    82.361149 
63500000    619.74986   -157107.52   -154544.11    665.79415    567254.58    83.589128    82.378543    82.378543 
63600000    623.07825   -157089.28   -154512.11    1085.5255    567254.58    83.550624    82.397523    82.397523 
63700000    622.82228   -157105.38   -154529.26    839.02161    567254.58    83.509079    82.418016    82.418016 
63800000    621.01853    -157083.4   -154514.75    993.23082    567254.58    83.464658    82.439946    82.439946 
63900000    622.37777   -157108.91   -154534.63    651.19001    567254.58    83.417535    82.463228    82.463228 
64000000    619.41452   -157103.84   -154541.82    740.69597    567254.58    83.367896    82.487774    82.487774 
64100000    620.21057   -157115.01    -154549.7    739.78367    567254.58    83.315938    82.513491    82.513491 
64200000    624.18313   -157099.28   -154517.54    845.41964    567254.58    83.261865     82.54028     82.54028 
64300000    620.54289    -157119.4   -154552.71    508.34423    567254.58     83.20589    82.568039    82.568039 
64400000    613.32514   -157107.45   -154570.61    825.34662    567254.58    83.148235     82.59666     82.59666 
64500000    622.56161   -157097.34   -154522.31    860.37312    567254.58    83.089128    82.626034    82.626034 
64600000    622.08586   -157113.82   -154540.75    866.18644    567254.58    83.028801    82.656045    82.656045 
64700000    622.25604   -157097.83   -154524.06     890.0398    567254.58    82.967492    82.686579    82.686579 
64800000    623.39066   -157101.19   -154522.72    800.39291    567254.58    82.905444    82.717515    82.717515 
64900000     620.3033    -157100.4    -154534.7    889.49522    567254.58    82.842901    82.748733    82.748733 
65000000    617.12349   -157131.91   -154579.36    584.14619    567254.58    82.780111    82.780111    82.780111 
65100000    618.71721   -157144.09   -154584.95     515.6182    567254.58     82.71732    82.811524    82.811524 
65200000    620.62133   -157127.47   -154560.46    553.19454    567254.58    82.654778    82.842849    82.842849 
65300000    622.73236   -157112.02   -154536.28    804.85382    567254.58     82.59273    82.873961    82.873961 
65400000    617.66309   -157126.45   -154571.68    671.73802    567254.58    82.531421    82.904737    82.904737 
65500000    619.93412   -157094.38   -154530.21     798.6076    567254.58    82.471094    82.935053    82.935053 
65600000    615.98485   -157127.13   -154579.29     502.5264    567254.58    82.411986    82.964789    82.964789 
65700000    619.49709   -157106.15   -154543.79    743.35813    567254.58    82.354332    82.993825    82.993825 
65800000    623.25679   -157088.24   -154510.33    973.93111    567254.58    82.298357    83.022044    83.022044 
65900000    621.24611   -157100.78   -154531.19    866.84461    567254.58    82.244284    83.049332    83.049332 
66000000    623.74769   -157088.53   -154508.58     948.7706    567254.58    82.192326    83.075578    83.075578 
66100000    617.51723   -157095.02   -154540.85    926.56421    567254.58    82.142687    83.100675    83.100675 
66200000    621.80384   -157104.81    -154532.9    818.90459    567254.58    82.095564    83.124522    83.124522 
66300000    617.75675   -157121.15   -154565.99    582.22357    567254.58    82.051142     83.14702     83.14702 
66400000    620.12953   -157100.53   -154535.56    733.38494    567254.58    82.009598    83.168078    83.168078 
66500000    621.88889   -157121.46   -154549.21    543.80553    567254.58    81.971094    83.187609    83.187609 
66600000    619.54491   -157130.35   -154567.79    670.97205    567254.58    81.935783    83.205532    83.205532 
66700000    618.33777   -157117.15   -154559.59    700.68662    567254.58    81.903804    83.221774    83.221774 
66800000    615.64081   -157097.07   -154550.66     782.1006    567254.58    81.875284    83.236267    83.236267 
66900000    617.93377   -157119.37   -154563.47    753.12671    567254.58    81.850334    83.248952    83.248952 
67000000    622.62553   -157108.66   -154533.36    868.88833    567254.58    81.829054    83.259776    83.259776 
67100000     620.9632   -157109.54   -154541.11    807.21181    567254.58    81.811528    83.268694    83.268694 
67200000    621.14184    -157105.8   -154536.64    870.58423    567254.58    81.797824    83.275669    83.275669 
67300000    615.90216   -157105.93   -154558.44    845.72794    567254.58    81.787996    83.280672    83.280672 
67400000    617.69636   -157098.76   -154543.85    988.21133    567254.58    81.782084    83.283682    83.283682 
67500000    623.74737   -157109.84    -154529.9     778.7137    567254.58    81.780111    83.284687    83.284687 
67600000    619.01174   -157111.64   -154551.29    696.69892    567254.58    81.782084    83.283682    83.283682 
67700000    619.82851   -157100.41   -154536.68    862.20033    567254.58    81.787996    83.280672    83.280672 
67800000    619.59428   -157114.48   -154551.71    645.51453    567254.58    81.797824    83.275669    83.275669 
67900000    617.23972   -157099.38   -154546.36    831.31284    567254.58    81.811528    83.268694    83.268694 
68000000    619.40327   -157116.68   -154554.71    689.26617    567254.58    81.829054    83.259776    83.259776 
68100000    620.71902   -157116.14   -154548.72    636.98615    567254.58    81.850334    83.248952    83.248952 
68200000    617.56725   -157119.65   -154565.27    465.99291    567254.58    81.875284    83.236267    83.236267 
68300000     624.2775   -157103.44    -154521.3    881.60791    567254.58    81.903804    83.221774    83.221774 
[...]
83800000    620.45755   -157124.81   -154558.47    734.15985    567254.58    83.464658    82.439946    82.439946 
83900000    619.77949   -157096.31   -154532.78    907.55149    567254.58    83.417535    82.463228    82.463228 
84000000    619.40101   -157133.31   -154571.35    675.44743    567254.58    83.367896    82.487774    82.487774 
84100000    625.44905   -157132.04   -154545.06    494.87725    567254.58    83.315938    82.513491    82.513491 
84200000    614.97921   -157109.83   -154566.16    655.67457    567254.58    83.261865     82.54028     82.54028 
84300000    622.35928    -157155.4    -154581.2    432.58524    567254.58     83.20589    82.568039    82.568039 
84400000    618.91584   -157102.93   -154542.98    758.32836    567254.58    83.148235     82.59666     82.59666 
84500000    619.67627   -157148.29   -154585.19    520.50836    567254.58    83.089128    82.626034    82.626034 
84600000    618.59173   -157151.24   -154592.63    594.28618    567254.58    83.028801    82.656045    82.656045 
84700000    625.88013   -157113.47   -154524.71    820.04171    567254.58    82.967492    82.686579    82.686579 
84800000    615.54783   -157111.59   -154565.56     713.8116    567254.58    82.905444    82.717515    82.717515 
84900000    621.03581   -157118.57   -154549.85    580.03412    567254.58    82.842901    82.748733    82.748733 
85000000    616.97031   -157119.59   -154567.68    672.79559    567254.58    82.780111    82.780111    82.780111 
85100000    618.53964   -157127.66   -154569.26    574.44793    567254.58     82.71732    82.811524    82.811524 
85200000    624.28993   -157111.56   -154529.37    618.76407    567254.58    82.654778    82.842849    82.842849 
85300000    619.91524   -157132.22   -154568.13    759.87196    567254.58     82.59273    82.873961    82.873961 
85400000    614.17876   -157139.36      -154599    496.67131    567254.58    82.531421    82.904737    82.904737 
85500000    618.56061   -157127.93   -154569.44    748.73572    567254.58    82.471094    82.935053    82.935053 
85600000    619.77396   -157110.22   -154546.71    817.01483    567254.58    82.411986    82.964789    82.964789 
85700000    622.17203   -157113.31   -154539.88    609.07852    567254.58    82.354332    82.993825    82.993825 
85800000    615.11271   -157133.95   -154589.73    489.29645    567254.58    82.298357    83.022044    83.022044 
85900000    615.21463   -157114.15   -154569.51    846.88304    567254.58    82.244284    83.049332    83.049332 
86000000    620.42835   -157134.58   -154568.36    567.48288    567254.58    82.192326    83.075578    83.075578 
86100000    618.78118    -157147.9    -154588.5    415.40419    567254.58    82.142687    83.100675    83.100675 
86200000    622.98164   -157122.52   -154545.75    584.40641    567254.58    82.095564    83.124522    83.124522 
86300000    614.20771   -157113.75   -154573.27    687.28596    567254.58    82.051142     83.14702     83.14702 
86400000     614.1699   -157109.22   -154568.89    688.63974    567254.58    82.009598    83.168078    83.168078 
86500000    616.41694   -157128.35   -154578.73    614.18236    567254.58    81.971094    83.187609    83.187609 
86600000    621.72006   -157119.52   -154547.97    649.09084    567254.58    81.935783    83.205532    83.205532 
86700000    619.72472   -157106.14   -154542.83    813.36876    567254.58    81.903804    83.221774    83.221774 
86800000    621.44814   -157108.14   -154537.71    746.69641    567254.58    81.875284    83.236267    83.236267 
86900000    616.02169   -157129.51   -154581.53    491.00151    567254.58    81.850334    83.248952    83.248952 
87000000    620.93913    -157140.1   -154571.78     557.9248    567254.58    81.829054    83.259776    83.259776 
87100000    615.39403   -157109.36   -154563.97    931.73259    567254.58    81.811528    83.268694    83.268694 
87200000    625.55371    -157108.9   -154521.49    870.88622    567254.58    81.797824    83.275669    83.275669 
87300000    618.24017   -157130.22   -154573.05     609.0048    567254.58    81.787996    83.280672    83.280672 
87400000    616.42538   -157101.49   -154551.83     858.1023    567254.58    81.782084    83.283682    83.283682 
87500000    619.34583    -157122.3   -154560.56    774.98028    567254.58    81.780111    83.284687    83.284687 
87600000    619.01873    -157134.6   -154574.22    422.26037    567254.58    81.782084    83.283682    83.283682 
87700000    619.40472   -157101.39   -154539.42    833.76717    567254.58    81.787996    83.280672    83.280672 
87800000    618.78935   -157109.05   -154549.61     629.7353    567254.58    81.797824    83.275669    83.275669 
87900000    624.75955    -157116.3   -154532.17    711.42257    567254.58    81.811528    83.268694    83.268694 
88000000    624.80502   -157112.59   -154528.28    736.69203    567254.58    81.829054    83.259776    83.259776 
88100000    616.72763   -157107.66   -154556.76    664.48059    567254.58    81.850334    83.248952    83.248952 
88200000    619.22478   -157127.59   -154566.35    619.63438    567254.58    81.875284    83.236267    83.236267 
88300000    618.43885   -157101.52   -154543.54    852.36484    567254.58    81.903804    83.221774    83.221774 
88400000    622.80519   -157107.92   -154531.87    834.51574    567254.58    81.935783    83.205532    83.205532 
88500000    620.21301   -157124.39   -154559.07    512.78263    567254.58    81.971094    83.187609    83.187609 
88600000    618.44732   -157124.44   -154566.42     679.1152    567254.58    82.009598    83.168078    83.168078 
88700000    617.27585   -157118.52   -154565.35    592.06057    567254.58    82.051142     83.14702     83.14702 
88800000    620.26408   -157109.51   -154543.98    870.16043    567254.58    82.095564    83.124522    83.124522 
88900000    620.40299   -157112.71    -154546.6    783.67853    567254.58    82.142687    83.100675    83.100675 
89000000    624.78148   -157114.64   -154530.42    724.37709    567254.58    82.192326    83.075578    83.075578 
89100000    622.16999   -157105.68   -154532.27    763.52187    567254.58    82.244284    83.049332    83.049332 
89200000    622.75962   -157124.37   -154548.51    765.07709    567254.58    82.298357    83.022044    83.022044 
89300000    621.40469   -157128.51   -154558.25    661.04701    567254.58    82.354332    82.993825    82.993825 
89400000    623.51148   -157128.54   -154549.57    661.80017    567254.58    82.411986    82.964789    82.964789 
89500000    618.92109   -157114.57   -154554.59    814.24854    567254.58    82.471094    82.935053    82.935053 
89600000    622.17114   -157133.28   -154559.86    524.31928    567254.58    82.531421    82.904737    82.904737 
89700000    621.05003   -157120.76   -154551.98    687.92073    567254.58     82.59273    82.873961    82.873961 
89800000    618.22554    -157118.5    -154561.4    819.90804    567254.58    82.654778    82.842849    82.842849 
89900000    617.27489    -157124.6   -154571.43    468.12957    567254.58     82.71732    82.811524    82.811524 
90000000    622.63043   -157135.95   -154560.63    535.41898    567254.58    82.780111    82.780111    82.780111 
90100000    617.99808   -157127.09   -154570.93    604.72792    567254.58    82.842901    82.748733    82.748733 
90200000     620.4968   -157130.95   -154564.45      732.862    567254.58    82.905444    82.717515    82.717515 
90300000    616.49781   -157117.43   -154567.48     725.3748    567254.58    82.967492    82.686579    82.686579 
90400000    625.43062   -157146.83   -154559.92    552.83129    567254.58    83.028801    82.656045    82.656045 
90500000    624.09776   -157133.87   -154552.48    493.93442    567254.58    83.089128    82.626034    82.626034 
90600000    619.32366   -157126.37   -154564.73    670.02891    567254.58    83.148235     82.59666     82.59666 
90700000    618.98351   -157130.71   -154570.48    544.89381    567254.58     83.20589    82.568039    82.568039 
90800000    615.66845    -157114.9   -154568.38    660.44024    567254.58    83.261865     82.54028     82.54028 
90900000    617.39924   -157119.94   -154566.25     742.8857    567254.58    83.315938    82.513491    82.513491 
91000000    615.44003   -157129.26   -154583.68    489.55569    567254.58    83.367896    82.487774    82.487774 
91100000    617.28833   -157124.72    -154571.5    759.26767    567254.58    83.417535    82.463228    82.463228 
91200000    617.41818   -157116.94   -154563.17    639.77926    567254.58    83.464658    82.439946    82.439946 
91300000    621.48296   -157123.01   -154552.44    615.64674    567254.58    83.509079    82.418016    82.418016 
91400000     621.8857   -157148.85   -154576.61    686.48183    567254.58    83.550624    82.397523    82.397523 
91500000    622.63221   -157125.33      -154550     731.3369    567254.58    83.589128    82.378543    82.378543 
91600000    617.42166   -157138.66   -154584.88    480.22258    567254.58    83.624439    82.361149    82.361149 
91700000    621.66307   -157075.61   -154504.29    1087.1981    567254.58    83.656418    82.345406    82.345406 
91800000    623.51978   -157115.19   -154536.19    879.28261    567254.58    83.684938    82.331373    82.331373 
91900000    616.11845   -157113.91   -154565.52    754.09317    567254.58    83.709887    82.319102    82.319102 
92000000    619.89264   -157146.01   -154582.01    470.63861    567254.58    83.731167    82.308641    82.308641 
92100000    620.21706    -157123.4   -154558.07    773.56833    567254.58    83.748694    82.300028    82.300028 
92200000     615.1752   -157108.49   -154564.01     828.8407    567254.58    83.762398    82.293295    82.293295 
92300000    620.93114   -157116.17   -154547.88    654.53554    567254.58    83.772226    82.288468    82.288468 
92400000    621.75596   -157090.73   -154519.03    845.07104    567254.58    83.778138    82.285565    82.285565 
92500000    618.01524   -157119.25   -154563.02    726.87172    567254.58    83.780111    82.284596    82.284596 
92600000    618.10498   -157126.14   -154569.54    600.99937    567254.58    83.778138    82.285565    82.285565 
92700000    623.97762   -157093.41   -154512.52    745.67339    567254.58    83.772226    82.288468    82.288468 
92800000    621.42784   -157127.05   -154556.71    660.23741    567254.58    83.762398    82.293295    82.293295 
92900000    614.00039   -157107.35   -154567.72    701.88304    567254.58    83.748694    82.300028    82.300028 
93000000     617.1645   -157115.05   -154562.34    512.01883    567254.58    83.731167    82.308641    82.308641 
93100000    618.81909   -157097.29   -154537.74    828.96598    567254.58    83.709887    82.319102    82.319102 
93200000    619.57954   -157123.51   -154560.81    732.28896    567254.58    83.684938    82.331373    82.331373 
93300000    618.89585   -157097.96   -154538.08    724.94124    567254.58    83.656418    82.345406    82.345406 
93400000    617.88083   -157101.17   -154545.49    923.01207    567254.58    83.624439    82.361149    82.361149 
93500000    617.78513   -157122.48    -154567.2    652.25837    567254.58    83.589128    82.378543    82.378543 
93600000    628.06465   -157135.88   -154538.08    750.28489    567254.58    83.550624    82.397523    82.397523 
93700000    618.02485   -157094.22   -154537.95    716.68932    567254.58    83.509079    82.418016    82.418016 
93800000    622.54779   -157102.79   -154527.81    827.44621    567254.58    83.464658    82.439946    82.439946 
93900000    619.30474   -157119.47    -154557.9    756.45324    567254.58    83.417535    82.463228    82.463228 
94000000      615.769   -157118.26   -154571.32    785.41725    567254.58    83.367896    82.487774    82.487774 
94100000    621.95134    -157113.6   -154541.09    881.76994    567254.58    83.315938    82.513491    82.513491 
94200000     615.0873    -157126.8   -154582.68    551.72014    567254.58    83.261865     82.54028     82.54028 
94300000    617.25742   -157120.28   -154567.18    709.63394    567254.58     83.20589    82.568039    82.568039 
94400000    624.85197   -157122.42   -154537.91    708.33508    567254.58    83.148235     82.59666     82.59666 
94500000    621.27411   -157130.99   -154561.28    472.47277    567254.58    83.089128    82.626034    82.626034 
94600000     623.4854   -157121.87   -154543.02    789.36963    567254.58    83.028801    82.656045    82.656045 
94700000    618.10195   -157134.92   -154578.33    698.18136    567254.58    82.967492    82.686579    82.686579 
94800000    619.17682   -157107.35   -154546.31    814.88673    567254.58    82.905444    82.717515    82.717515 
94900000    620.50511   -157129.89   -154563.36    571.57245    567254.58    82.842901    82.748733    82.748733 
95000000    618.05231   -157124.77   -154568.38    648.72498    567254.58    82.780111    82.780111    82.780111 
95100000     617.9583   -157142.08   -154586.08    610.69578    567254.58     82.71732    82.811524    82.811524 
95200000    614.75885   -157110.35   -154567.58    761.50589    567254.58    82.654778    82.842849    82.842849 
95300000    620.95397   -157119.64   -154551.25    681.54652    567254.58     82.59273    82.873961    82.873961 
95400000    622.97212   -157134.74   -154558.01    611.88259    567254.58    82.531421    82.904737    82.904737 
95500000    615.46382   -157130.46   -154584.78    618.32356    567254.58    82.471094    82.935053    82.935053 
95600000    620.23178   -157114.41   -154549.01    772.96578    567254.58    82.411986    82.964789    82.964789 
95700000    625.98797   -157126.98   -154537.77    675.51121    567254.58    82.354332    82.993825    82.993825 
95800000    620.46884   -157134.28    -154567.9    634.29688    567254.58    82.298357    83.022044    83.022044 
95900000    619.07719   -157119.99   -154559.36    505.95941    567254.58    82.244284    83.049332    83.049332 
96000000    619.04002   -157113.27    -154552.8    620.93215    567254.58    82.192326    83.075578    83.075578 
96100000    623.98159   -157164.44   -154583.53     406.8568    567254.58    82.142687    83.100675    83.100675 
96200000    622.44841   -157127.98   -154553.42    699.34324    567254.58    82.095564    83.124522    83.124522 
96300000    618.25507   -157122.04   -154564.82    642.40012    567254.58    82.051142     83.14702     83.14702 
96400000    622.61983   -157137.57    -154562.3    533.13091    567254.58    82.009598    83.168078    83.168078 
96500000    617.44343   -157120.48   -154566.61    600.76557    567254.58    81.971094    83.187609    83.187609 
96600000     619.2705    -157130.6   -154569.17    536.59373    567254.58    81.935783    83.205532    83.205532 
96700000    620.85082      -157105   -154537.04    779.40955    567254.58    81.903804    83.221774    83.221774 
96800000    619.26734   -157120.01    -154558.6    578.27354    567254.58    81.875284    83.236267    83.236267 
96900000    617.33117   -157102.94   -154549.54    704.30843    567254.58    81.850334    83.248952    83.248952 
97000000    626.60716   -157114.98   -154523.21    849.35585    567254.58    81.829054    83.259776    83.259776 
97100000    624.88074   -157114.62   -154529.99    793.38343    567254.58    81.811528    83.268694    83.268694 
97200000    623.39129   -157100.33   -154521.86    844.15795    567254.58    81.797824    83.275669    83.275669 
97300000     625.0492   -157102.75   -154517.43    896.85314    567254.58    81.787996    83.280672    83.280672 
97400000    622.41934   -157124.72   -154550.27    607.16401    567254.58    81.782084    83.283682    83.283682 
97500000    621.44169   -157108.04   -154537.64     779.4359    567254.58    81.780111    83.284687    83.284687 
97600000    620.13244   -157103.53   -154538.55    732.58345    567254.58    81.782084    83.283682    83.283682 
97700000    620.04199   -157092.46   -154527.84    815.53191    567254.58    81.787996    83.280672    83.280672 
97800000    617.83589   -157119.45   -154563.96    594.89579    567254.58    81.797824    83.275669    83.275669 
97900000    615.84891   -157131.19   -154583.92    628.92747    567254.58    81.811528    83.268694    83.268694 
98000000    619.80153   -157116.98   -154553.36    674.86653    567254.58    81.829054    83.259776    83.259776 
98100000     621.9422   -157084.51   -154512.03    803.16329    567254.58    81.850334    83.248952    83.248952 
98200000    620.10652   -157119.92   -154555.04    596.24291    567254.58    81.875284    83.236267    83.236267 
98300000    624.64609   -157140.84   -154557.18     454.5692    567254.58    81.903804    83.221774    83.221774 
98400000    617.48706   -157119.37   -154565.32    585.35353    567254.58    81.935783    83.205532    83.205532 
98500000    622.47094   -157109.56   -154534.89     575.8345    567254.58    81.971094    83.187609    83.187609 
98600000    616.31925   -157135.25   -154586.03    518.47461    567254.58    82.009598    83.168078    83.168078 
98700000    624.81797   -157118.61   -154534.24    648.45338    567254.58    82.051142     83.14702     83.14702 
98800000    619.59295   -157130.94   -154568.19    649.58555    567254.58    82.095564    83.124522    83.124522 
98900000    620.06657   -157112.09   -154547.37    730.19269    567254.58    82.142687    83.100675    83.100675 
99000000    619.89199   -157122.69    -154558.7    642.14925    567254.58    82.192326    83.075578    83.075578 
99100000    616.22598   -157129.57   -154580.74     670.0915    567254.58    82.244284    83.049332    83.049332 
99200000    624.94318   -157119.83   -154534.95      672.355    567254.58    82.298357    83.022044    83.022044 
99300000    624.19872   -157134.81      -154553    525.43841    567254.58    82.354332    82.993825    82.993825 
99400000    622.00725   -157115.58   -154542.83    557.06615    567254.58    82.411986    82.964789    82.964789 
99500000    620.66025   -157079.79   -154512.62     848.8301    567254.58    82.471094    82.935053    82.935053 
99600000    615.42281    -157126.5   -154580.99    626.39799    567254.58    82.531421    82.904737    82.904737 
99700000    618.33249   -157112.18   -154554.63    673.94999    567254.58     82.59273    82.873961    82.873961 
99800000    620.89792   -157105.26   -154537.11     683.3606    567254.58    82.654778    82.842849    82.842849 
99900000    626.21719   -157132.05   -154541.89    693.00196    567254.58     82.71732    82.811524    82.811524 
100000000    618.34879   -157153.52   -154595.91    473.81009    567254.58    82.780111    82.780111    82.780111 
Loop time of 59821.9 on 104 procs for 100000000 steps with 32000 atoms

Performance: 1444.287 ns/day, 0.017 hours/ns, 1671.628 timesteps/s
99.6% CPU use with 104 MPI tasks x 1 OpenMP threads

MPI task timing breakdown:
Section |  min time  |  avg time  |  max time  |%varavg| %total
---------------------------------------------------------------
Pair    | 34903      | 35732      | 36888      | 232.5 | 59.73
Neigh   | 2302.2     | 2439       | 2566.1     | 136.3 |  4.08
Comm    | 12002      | 12806      | 14019      | 401.4 | 21.41
Output  | 0.42299    | 0.42758    | 0.55845    |   2.0 |  0.00
Modify  | 7318.7     | 7824.3     | 8510.3     | 368.1 | 13.08
Other   |            | 1021       |            |       |  1.71

Nlocal:        307.692 ave         319 max         287 min
Histogram: 1 1 1 9 10 19 24 14 12 13
Nghost:        2591.46 ave        2619 max        2560 min
Histogram: 4 6 6 5 23 21 16 14 6 3
Neighs:        22385.3 ave       24676 max       19951 min
Histogram: 1 1 10 19 21 17 14 16 3 2

Total # of neighbors = 2328073
Ave neighs/atom = 72.752281
Neighbor list builds = 10297447
Dangerous builds = 0
clear
OMP_NUM_THREADS environment is not set. Defaulting to 1 thread. (../comm.cpp:94)
  using 1 OpenMP thread(s) per MPI task
package intel 1
jump dms630.lmp
#MD-DMS by Ha-Bin Yu
#package gpu 4
variable T equal 630
log log.${T}
log log.630
