units           metal
boundary        p p p
atom_style      atomic
read_data      ../../restart/T${T}.dat
read_data      ../../restart/T645.dat
Reading data file ...
  orthogonal box = (-2.4944421 -2.4944421 -2.4944421) to (80.329220 80.329220 80.329220)
  2 by 4 by 13 MPI processor grid
  reading atoms ...
  32000 atoms
  reading velocities ...
  32000 velocities
  read_data CPU = 0.225 seconds
pair_style      eam/alloy
pair_coeff      * *  ../../ZrCu.lammps.eam Zr Cu
mass 1 91.224
mass 2 63.546
neighbor            2.0 bin
neigh_modify     delay 1
timestep 0.01
thermo 100000
reset_timestep 0
thermo_style custom step temp pe etotal press vol lx ly lz
fix             1 all nvt temp ${T} ${T} 0.1
fix             1 all nvt temp 645 ${T} 0.1
fix             1 all nvt temp 645 645 0.1
thermo_modify flush yes
fix nodrift all momentum 1  linear 1 1 1
fix com_seed all recenter INIT INIT INIT shift all
fix dsf all deform 1 x  wiggle 1.0  100000.0 y volume z volume units box
fix ps1 all ave/time 1 1 100000 c_thermo_press[1] c_thermo_press[2]  c_thermo_press[3] c_thermo_press[4]  c_thermo_press[5] c_thermo_press[6]  file  stress.${T}
fix ps1 all ave/time 1 1 100000 c_thermo_press[1] c_thermo_press[2]  c_thermo_press[3] c_thermo_press[4]  c_thermo_press[5] c_thermo_press[6]  file  stress.645
dump            1 all custom 10000000 dump.${T} id type x y z
dump            1 all custom 10000000 dump.645 id type x y z
dump_modify 1 sort id
run 100000000
Neighbor list info ...
  update every 1 steps, delay 1 steps, check yes
  max neighbors/atom: 2000, page size: 100000
  master list distance cutoff = 8.5
  ghost atom cutoff = 8.5
  binsize = 4.25, bins = 20 20 20
  1 neighbor lists, perpetual/occasional/extra = 1 0 0
  (1) pair eam/alloy/intel, perpetual
      attributes: half, newton on, intel
      pair build: half/bin/newton/intel
      stencil: half/bin/3d/newton
      bin: intel
Per MPI rank memory allocation (min/avg/max) = 7.351 | 7.467 | 7.584 Mbytes
Step Temp PotEng TotEng Press Volume Lx Ly Lz 
       0    644.33843   -157006.55   -154341.44    184.76208    568150.35    82.823662    82.823662    82.823662 
  100000    649.68609   -156918.98   -154231.76    715.06439    568150.35    82.886452    82.792284    82.792284 
  200000    643.79055   -156943.86   -154281.02    643.85677    568150.35    82.948995    82.761066    82.761066 
  300000    647.60414   -156937.37   -154258.75    512.59016    568150.35    83.011043     82.73013     82.73013 
  400000    645.41737   -156962.86   -154293.29    435.73682    568150.35    83.072352    82.699596    82.699596 
  500000    644.56018   -156950.29   -154284.26    494.76557    568150.35    83.132679    82.669584    82.669584 
  600000    645.66082   -156954.69   -154284.11    271.46663    568150.35    83.191786    82.640211    82.640211 
  700000    642.45487   -156929.25   -154271.93    659.34541    568150.35    83.249441    82.611589    82.611589 
  800000    644.69055   -156933.69   -154267.12    719.61452    568150.35    83.305415    82.583831    82.583831 
  900000    643.51563   -156930.34   -154268.63    557.85399    568150.35    83.359489    82.557041    82.557041 
 1000000    645.26498   -156956.99   -154288.05    334.70347    568150.35    83.411447    82.531324    82.531324 
 1100000    642.41749   -156964.96   -154307.79    299.88377    568150.35    83.461086    82.506778    82.506778 
 1200000    647.47329   -156961.73   -154283.66    386.55016    568150.35    83.508209    82.483495    82.483495 
 1300000    649.04176    -156951.2   -154266.63    238.58247    568150.35     83.55263    82.461566    82.461566 
 1400000    644.46807   -156927.45    -154261.8    472.70843    568150.35    83.594175    82.441073    82.441073 
 1500000    646.56015   -156946.26   -154271.96    505.08306    568150.35    83.632679    82.422093    82.422093 
 1600000    641.50958   -156929.61    -154276.2    402.75187    568150.35     83.66799    82.404698    82.404698 
 1700000    646.23051   -156927.17   -154254.23    410.61717    568150.35    83.699968    82.388955    82.388955 
 1800000    642.51984      -156956   -154298.41    373.11123    568150.35    83.728489    82.374922    82.374922 
 1900000    642.80024   -156910.07   -154251.32    710.31068    568150.35    83.753438    82.362651    82.362651 
 2000000    643.40242   -156935.08   -154273.84    411.60637    568150.35    83.774718     82.35219     82.35219 
 2100000    648.81686   -156938.13    -154254.5    467.51516    568150.35    83.792245    82.343577    82.343577 
 2200000     644.8439   -156933.29   -154266.09    561.23267    568150.35    83.805949    82.336844    82.336844 
 2300000    640.07601   -156920.06   -154272.58    673.48597    568150.35    83.815776    82.332017    82.332017 
 2400000    641.11034   -156931.32   -154279.56    523.26925    568150.35    83.821688    82.329113    82.329113 
 2500000    642.31492   -156916.35   -154259.61    500.04522    568150.35    83.823662    82.328144    82.328144 
 2600000    639.20004   -156955.34   -154311.48    285.71198    568150.35    83.821688    82.329113    82.329113 
 2700000    645.52355   -156955.97   -154285.96     64.21109    568150.35    83.815776    82.332017    82.332017 
 2800000    648.30054   -156930.86   -154249.37    452.42199    568150.35    83.805949    82.336844    82.336844 
 2900000    648.91151    -156958.6   -154274.57    317.70598    568150.35    83.792245    82.343577    82.343577 
 3000000    642.74367   -156924.27   -154265.75    472.22926    568150.35    83.774718     82.35219     82.35219 
 3100000    644.40874   -156937.75   -154272.35     386.6063    568150.35    83.753438    82.362651    82.362651 
 3200000     648.1711   -156917.87   -154236.91    627.19972    568150.35    83.728489    82.374922    82.374922 
 3300000    647.21886    -156926.1   -154249.08    643.15296    568150.35    83.699968    82.388955    82.388955 
 3400000    644.61503   -156930.72   -154264.47    464.27096    568150.35     83.66799    82.404698    82.404698 
 3500000     643.0414   -156947.98   -154288.23     323.6544    568150.35    83.632679    82.422093    82.422093 
 3600000    645.62218   -156931.48   -154261.06    353.62358    568150.35    83.594175    82.441073    82.441073 
 3700000    646.96392   -156940.24   -154264.27    370.54332    568150.35     83.55263    82.461566    82.461566 
 3800000    641.92681    -156925.6   -154270.47    396.55968    568150.35    83.508209    82.483495    82.483495 
 3900000    645.10555   -156941.36   -154273.08    478.44975    568150.35    83.461086    82.506778    82.506778 
 4000000    641.92374   -156923.58   -154268.46    718.64856    568150.35    83.411447    82.531324    82.531324 
 4100000    649.63278   -156948.09   -154261.08    352.96038    568150.35    83.359489    82.557041    82.557041 
 4200000    643.95778    -156957.7   -154294.17    471.27048    568150.35    83.305415    82.583831    82.583831 
 4300000    645.72184   -156929.21   -154258.38     465.6063    568150.35    83.249441    82.611589    82.611589 
 4400000     644.9711   -156951.62    -154283.9    274.41371    568150.35    83.191786    82.640211    82.640211 
 4500000    648.44427    -156955.6   -154273.51    434.82579    568150.35    83.132679    82.669584    82.669584 
 4600000    647.17411   -156955.68   -154278.84    335.20456    568150.35    83.072352    82.699596    82.699596 
 4700000    646.41196   -156949.47   -154275.78    400.04713    568150.35    83.011043     82.73013     82.73013 
 4800000    644.28341   -156937.43   -154272.55    495.31278    568150.35    82.948995    82.761066    82.761066 
 4900000    641.56793   -156959.95    -154306.3    281.22611    568150.35    82.886452    82.792284    82.792284 
 5000000    638.76093   -156931.83   -154289.79    334.68716    568150.35    82.823662    82.823662    82.823662 
 5100000     648.6365   -156960.28   -154277.39    309.38796    568150.35    82.760871    82.855075    82.855075 
 5200000    644.73401   -156954.13   -154287.38    242.73595    568150.35    82.698329      82.8864      82.8864 
 5300000    645.70936   -156946.46   -154275.68     527.9551    568150.35     82.63628    82.917512    82.917512 
 5400000     643.8437    -156951.2   -154288.13    217.73493    568150.35    82.574972    82.948287    82.948287 
 5500000    649.21863   -156938.53   -154253.24     318.2992    568150.35    82.514645    82.978604    82.978604 
 5600000     644.9349   -156950.23   -154282.65    206.42591    568150.35    82.455537     83.00834     83.00834 
 5700000    641.49612   -156944.83   -154291.48    229.85905    568150.35    82.397882    83.037376    83.037376 
 5800000    645.66237   -156952.68   -154282.09    332.87996    568150.35    82.341908    83.065595    83.065595 
 5900000     641.4861   -156939.29   -154285.98    393.88752    568150.35    82.287835    83.092882    83.092882 
 6000000    640.95504   -156932.31   -154281.19    525.06772    568150.35    82.235876    83.119128    83.119128 
 6100000    641.95115   -156924.78   -154269.54    613.02174    568150.35    82.186238    83.144225    83.144225 
 6200000    647.33104   -156940.25   -154262.76    491.97798    568150.35    82.139115    83.168072    83.168072 
 6300000    650.59441   -156897.54   -154206.56    654.12318    568150.35    82.094693     83.19057     83.19057 
 6400000    646.89823   -156939.85   -154264.15    432.15476    568150.35    82.053149    83.211627    83.211627 
 6500000    651.76018   -156925.71    -154229.9    518.71215    568150.35    82.014645    83.231158    83.231158 
 6600000    646.81772   -156921.33   -154245.97    564.89897    568150.35    81.979334    83.249081    83.249081 
 6700000    648.31961   -156934.55   -154252.97    405.64003    568150.35    81.947355    83.265323    83.265323 
 6800000    647.08085   -156950.02   -154273.57    132.66184    568150.35    81.918835    83.279816    83.279816 
 6900000    645.17887   -156921.56   -154252.97    476.01316    568150.35    81.893885    83.292501    83.292501 
 7000000    641.97328   -156926.94   -154271.61    449.36326    568150.35    81.872605    83.303325    83.303325 
 7100000    641.92489   -156930.67   -154275.54    394.95248    568150.35    81.855079    83.312243    83.312243 
 7200000    643.32991   -156936.68   -154275.74    351.63062    568150.35    81.841375    83.319218    83.319218 
 7300000    647.73397   -156922.66    -154243.5    412.59345    568150.35    81.831547    83.324221    83.324221 
 7400000    640.98547   -156921.85    -154270.6    518.10669    568150.35    81.825635    83.327231    83.327231 
 7500000    649.24137   -156935.31   -154249.92    602.11844    568150.35    81.823662    83.328235    83.328235 
 7600000    649.26691   -156926.32   -154240.83    408.70843    568150.35    81.825635    83.327231    83.327231 
 7700000     645.2434   -156936.54   -154267.69    522.93351    568150.35    81.831547    83.324221    83.324221 
 7800000      641.238   -156937.17   -154284.89    453.04872    568150.35    81.841375    83.319218    83.319218 
 7900000    644.02938    -156921.7   -154257.87    607.77347    568150.35    81.855079    83.312243    83.312243 
 8000000     647.1803   -156927.27   -154250.41    558.72395    568150.35    81.872605    83.303325    83.303325 
 8100000    641.61761   -156924.88   -154271.02    332.67355    568150.35    81.893885    83.292501    83.292501 
 8200000    647.07272   -156936.29   -154259.87    478.67386    568150.35    81.918835    83.279816    83.279816 
 8300000     649.1783   -156940.11   -154254.98    284.13053    568150.35    81.947355    83.265323    83.265323 
 8400000    646.03333   -156925.55   -154253.43    619.97651    568150.35    81.979334    83.249081    83.249081 
 8500000    646.49026   -156924.85   -154250.84    433.77245    568150.35    82.014645    83.231158    83.231158 
 8600000    642.89582   -156946.92   -154287.78    171.06732    568150.35    82.053149    83.211627    83.211627 
 8700000     643.0501   -156946.95   -154287.17    170.81746    568150.35    82.094693     83.19057     83.19057 
 8800000    645.10102   -156934.21   -154265.94    442.90853    568150.35    82.139115    83.168072    83.168072 
 8900000    644.20025   -156958.66   -154294.13     234.6291    568150.35    82.186238    83.144225    83.144225 
 9000000    642.77504   -156933.18   -154274.54    360.84039    568150.35    82.235876    83.119128    83.119128 
 9100000    639.24005    -156936.7   -154292.67    408.80413    568150.35    82.287835    83.092882    83.092882 
 9200000    644.84542   -156946.03   -154278.82    295.99916    568150.35    82.341908    83.065595    83.065595 
 9300000    640.17507   -156941.98   -154294.09     430.8207    568150.35    82.397882    83.037376    83.037376 
 9400000    643.83476   -156968.53    -154305.5    202.81378    568150.35    82.455537     83.00834     83.00834 
 9500000    647.51943   -156958.36    -154280.1    389.74467    568150.35    82.514645    82.978604    82.978604 
 9600000    648.56808   -156939.14   -154256.54    369.48438    568150.35    82.574972    82.948287    82.948287 
 9700000    642.12841    -156936.8   -154280.83    428.72128    568150.35     82.63628    82.917512    82.917512 
 9800000    643.33826   -156942.03   -154281.06    354.72814    568150.35    82.698329      82.8864      82.8864 
 9900000    644.01685   -156943.62   -154279.84    373.88002    568150.35    82.760871    82.855075    82.855075 
10000000    648.38432   -156951.29   -154269.45    399.45961    568150.35    82.823662    82.823662    82.823662 
10100000    642.82176   -156968.15   -154309.31    174.34227    568150.35    82.886452    82.792284    82.792284 
10200000    642.01644   -156972.08   -154316.58    255.19572    568150.35    82.948995    82.761066    82.761066 
10300000    643.06047    -156931.2   -154271.37    402.71842    568150.35    83.011043     82.73013     82.73013 
10400000    646.79451   -156935.33   -154260.06    365.09954    568150.35    83.072352    82.699596    82.699596 
10500000    649.86265   -156985.72   -154297.76    143.63005    568150.35    83.132679    82.669584    82.669584 
10600000    647.45666   -156948.06   -154270.05    337.15496    568150.35    83.191786    82.640211    82.640211 
10700000    643.29298   -156934.63   -154273.84    404.23228    568150.35    83.249441    82.611589    82.611589 
10800000    644.30126   -156941.05   -154276.09    362.13636    568150.35    83.305415    82.583831    82.583831 
10900000    645.21965   -156966.39   -154297.64    195.25821    568150.35    83.359489    82.557041    82.557041 
11000000    643.80706   -156953.54   -154290.63    409.89181    568150.35    83.411447    82.531324    82.531324 
11100000    647.11348   -156908.97   -154232.39    765.07975    568150.35    83.461086    82.506778    82.506778 
11200000    643.30014   -156935.85   -154275.04    446.26868    568150.35    83.508209    82.483495    82.483495 
11300000    644.90391   -156921.28   -154253.84    582.22366    568150.35     83.55263    82.461566    82.461566 
11400000    644.49235   -156929.32   -154263.57    555.08329    568150.35    83.594175    82.441073    82.441073 
11500000    644.76316   -156937.26    -154270.4    404.93235    568150.35    83.632679    82.422093    82.422093 
11600000    641.35115   -156951.27   -154298.51     403.3807    568150.35     83.66799    82.404698    82.404698 
11700000    641.39267   -156922.32   -154269.39    279.71953    568150.35    83.699968    82.388955    82.388955 
11800000    644.55115   -156923.46   -154257.47    628.20146    568150.35    83.728489    82.374922    82.374922 
11900000     648.6598   -156941.46   -154258.47    323.23481    568150.35    83.753438    82.362651    82.362651 
12000000    645.43014   -156918.93    -154249.3    367.53834    568150.35    83.774718     82.35219     82.35219 
12100000    650.21422   -156927.55   -154238.13    579.01184    568150.35    83.792245    82.343577    82.343577 
12200000    647.13861   -156937.93   -154261.24    514.12826    568150.35    83.805949    82.336844    82.336844 
12300000    645.48682   -156925.39   -154255.53    484.22549    568150.35    83.815776    82.332017    82.332017 
12400000    646.53101   -156923.77   -154249.59    417.45805    568150.35    83.821688    82.329113    82.329113 
12500000    649.46165   -156950.89   -154264.59    500.65859    568150.35    83.823662    82.328144    82.328144 
12600000    647.20013   -156950.12   -154273.18    376.26966    568150.35    83.821688    82.329113    82.329113 
12700000    640.22815   -156946.27   -154298.16    466.08072    568150.35    83.815776    82.332017    82.332017 
12800000    651.07898   -156944.68   -154251.69    391.06124    568150.35    83.805949    82.336844    82.336844 
12900000    649.15771   -156932.96   -154247.92    628.01356    568150.35    83.792245    82.343577    82.343577 
13000000    644.44986   -156957.53   -154291.96    395.43582    568150.35    83.774718     82.35219     82.35219 
13100000    645.87911   -156968.37   -154296.89    242.07139    568150.35    83.753438    82.362651    82.362651 
13200000    641.11131   -156968.41   -154316.65    279.79712    568150.35    83.728489    82.374922    82.374922 
13300000    646.49031   -156938.87   -154264.86    525.45844    568150.35    83.699968    82.388955    82.388955 
13400000    645.75625   -156970.96   -154299.99    371.67329    568150.35     83.66799    82.404698    82.404698 
13500000    643.02134   -156935.47   -154275.81    382.38771    568150.35    83.632679    82.422093    82.422093 
13600000    644.69033   -156945.47   -154278.91    413.11614    568150.35    83.594175    82.441073    82.441073 
13700000    649.06899   -156950.12   -154265.44    374.37279    568150.35     83.55263    82.461566    82.461566 
13800000    652.09894   -156956.74   -154259.53    466.48067    568150.35    83.508209    82.483495    82.483495 
13900000    644.95938   -156930.77   -154263.09    590.68518    568150.35    83.461086    82.506778    82.506778 
14000000    642.66591   -156937.73   -154279.54    348.34952    568150.35    83.411447    82.531324    82.531324 
14100000    647.57003   -156969.85   -154291.37    345.82021    568150.35    83.359489    82.557041    82.557041 
14200000    650.40333   -156946.32   -154256.12    683.92879    568150.35    83.305415    82.583831    82.583831 
14300000    643.24553   -156960.04   -154299.45    401.99663    568150.35    83.249441    82.611589    82.611589 
14400000    648.44834    -156951.5   -154269.39    439.54332    568150.35    83.191786    82.640211    82.640211 
14500000    646.90094   -156976.58   -154300.87    240.95383    568150.35    83.132679    82.669584    82.669584 
14600000    643.97373   -156943.09   -154279.49    377.60175    568150.35    83.072352    82.699596    82.699596 
14700000    650.34235   -156967.09   -154277.15    127.07348    568150.35    83.011043     82.73013     82.73013 
14800000    644.70379   -156940.33   -154273.71    425.43491    568150.35    82.948995    82.761066    82.761066 
14900000    643.76903   -156939.19   -154276.44    386.05023    568150.35    82.886452    82.792284    82.792284 
15000000    646.77251   -156933.54   -154258.37    425.89391    568150.35    82.823662    82.823662    82.823662 
15100000    642.25084   -156967.62   -154311.15    320.85772    568150.35    82.760871    82.855075    82.855075 
15200000    652.00992   -156981.81   -154284.97    363.33631    568150.35    82.698329      82.8864      82.8864 
15300000    647.63268   -156956.39   -154277.66    364.84357    568150.35     82.63628    82.917512    82.917512 
15400000    645.19453   -156975.41   -154306.76    310.39792    568150.35    82.574972    82.948287    82.948287 
15500000    642.22035   -156944.43   -154288.08     463.1564    568150.35    82.514645    82.978604    82.978604 
15600000    644.64211   -156955.63   -154289.26    304.56191    568150.35    82.455537     83.00834     83.00834 
15700000    647.09494   -156933.38   -154256.86    383.05495    568150.35    82.397882    83.037376    83.037376 
15800000    641.13704    -156926.5   -154274.64     642.8325    568150.35    82.341908    83.065595    83.065595 
15900000    641.35408   -156933.02   -154280.25    544.23373    568150.35    82.287835    83.092882    83.092882 
16000000    642.89864   -156930.75    -154271.6    510.61749    568150.35    82.235876    83.119128    83.119128 
16100000    644.83283    -156948.1   -154280.94    360.53203    568150.35    82.186238    83.144225    83.144225 
16200000    650.18638   -156926.78   -154237.48    594.71657    568150.35    82.139115    83.168072    83.168072 
16300000    645.25458   -156945.18   -154276.29    587.75729    568150.35    82.094693     83.19057     83.19057 
16400000    645.06479   -156939.58   -154271.47    527.05928    568150.35    82.053149    83.211627    83.211627 
16500000    647.51022   -156945.55   -154267.32    375.64186    568150.35    82.014645    83.231158    83.231158 
16600000    640.66602   -156956.54   -154306.62    356.50087    568150.35    81.979334    83.249081    83.249081 
16700000      644.864   -156927.54   -154260.26    550.51577    568150.35    81.947355    83.265323    83.265323 
16800000    644.81039   -156931.66   -154264.59    759.91088    568150.35    81.918835    83.279816    83.279816 
16900000    641.28704   -156933.06   -154280.57    495.29237    568150.35    81.893885    83.292501    83.292501 
17000000    645.52143   -156926.72   -154256.71    576.04532    568150.35    81.872605    83.303325    83.303325 
17100000    638.45961   -156929.58   -154288.79    447.35823    568150.35    81.855079    83.312243    83.312243 
17200000    650.58344   -156966.48   -154275.54    325.23678    568150.35    81.841375    83.319218    83.319218 
17300000    643.40049   -156912.94   -154251.71    687.56165    568150.35    81.831547    83.324221    83.324221 
17400000    639.75141   -156939.71   -154293.58    636.16259    568150.35    81.825635    83.327231    83.327231 
17500000    646.67364   -156938.73   -154263.96    508.89832    568150.35    81.823662    83.328235    83.328235 
17600000    644.38824   -156922.38   -154257.06    474.73376    568150.35    81.825635    83.327231    83.327231 
17700000    649.54671   -156916.47   -154229.82    644.54142    568150.35    81.831547    83.324221    83.324221 
17800000    650.41419   -156944.98   -154254.74    427.60037    568150.35    81.841375    83.319218    83.319218 
17900000    645.81803   -156915.77   -154244.55    582.86341    568150.35    81.855079    83.312243    83.312243 
18000000    644.77261   -156947.74   -154280.84    344.51279    568150.35    81.872605    83.303325    83.303325 
18100000    653.17616   -156941.69   -154240.03    594.73248    568150.35    81.893885    83.292501    83.292501 
18200000    647.53187   -156940.81    -154262.5    562.00281    568150.35    81.918835    83.279816    83.279816 
18300000     647.6042   -156942.22    -154263.6    291.13803    568150.35    81.947355    83.265323    83.265323 
18400000    641.94733   -156940.36   -154285.14    335.93512    568150.35    81.979334    83.249081    83.249081 
18500000    640.97885   -156947.17   -154295.96    377.99401    568150.35    82.014645    83.231158    83.231158 
18600000    646.58695   -156943.02   -154268.61    417.72477    568150.35    82.053149    83.211627    83.211627 
18700000    645.42084   -156932.99   -154263.41    345.67108    568150.35    82.094693     83.19057     83.19057 
18800000    647.05348   -156938.49   -154262.15    459.41011    568150.35    82.139115    83.168072    83.168072 
18900000    639.92463   -156930.83   -154283.97    462.57591    568150.35    82.186238    83.144225    83.144225 
19000000    643.61236   -156942.47   -154280.36    414.36045    568150.35    82.235876    83.119128    83.119128 
19100000    642.15366   -156946.62   -154290.55    482.66753    568150.35    82.287835    83.092882    83.092882 
19200000    648.73281   -156922.17   -154238.89    537.54094    568150.35    82.341908    83.065595    83.065595 
19300000    643.02307   -156953.01   -154293.34    473.64869    568150.35    82.397882    83.037376    83.037376 
19400000    642.82347   -156951.64    -154292.8    495.79183    568150.35    82.455537     83.00834     83.00834 
19500000    644.29703   -156968.19   -154303.25    177.56582    568150.35    82.514645    82.978604    82.978604 
19600000      642.626   -156935.08   -154277.05     467.9279    568150.35    82.574972    82.948287    82.948287 
19700000    646.89121   -156944.94   -154269.27    484.77122    568150.35     82.63628    82.917512    82.917512 
19800000    651.95257   -156930.85   -154234.24     633.4072    568150.35    82.698329      82.8864      82.8864 
19900000    649.90456   -156947.31   -154259.18    598.39818    568150.35    82.760871    82.855075    82.855075 
20000000    646.19223   -156960.45   -154287.67     181.2503    568150.35    82.823662    82.823662    82.823662 
20100000    648.08417   -156949.75   -154269.14    387.83306    568150.35    82.886452    82.792284    82.792284 
20200000    646.13752   -156962.98   -154290.43    221.47649    568150.35    82.948995    82.761066    82.761066 
20300000    644.69251   -156941.51   -154274.93    366.81636    568150.35    83.011043     82.73013     82.73013 
20400000    649.98789   -156945.37    -154256.9    518.10371    568150.35    83.072352    82.699596    82.699596 
20500000    646.12874   -156957.71   -154285.19    362.89854    568150.35    83.132679    82.669584    82.669584 
20600000    643.19986   -156936.23   -154275.83    458.09168    568150.35    83.191786    82.640211    82.640211 
20700000    644.03585   -156941.94   -154278.08    480.28068    568150.35    83.249441    82.611589    82.611589 
20800000    649.79388   -156943.66   -154255.99    558.58262    568150.35    83.305415    82.583831    82.583831 
20900000    647.85928   -156939.97    -154260.3    449.43211    568150.35    83.359489    82.557041    82.557041 
21000000    644.31909   -156943.87   -154278.84    420.24859    568150.35    83.411447    82.531324    82.531324 
21100000    647.24033   -156949.31    -154272.2     404.8478    568150.35    83.461086    82.506778    82.506778 
21200000    637.48785   -156955.45   -154318.67    194.57537    568150.35    83.508209    82.483495    82.483495 
21300000    643.14691   -156951.61   -154291.43    425.20113    568150.35     83.55263    82.461566    82.461566 
21400000    643.40266   -156938.28   -154277.04    356.61298    568150.35    83.594175    82.441073    82.441073 
21500000    645.05359    -156946.9   -154278.84    418.73459    568150.35    83.632679    82.422093    82.422093 
21600000    644.01363   -156936.37   -154272.61    438.22757    568150.35     83.66799    82.404698    82.404698 
21700000    641.53943   -156954.37   -154300.84    371.74681    568150.35    83.699968    82.388955    82.388955 
21800000    647.55952   -156937.33    -154258.9    427.44014    568150.35    83.728489    82.374922    82.374922 
21900000    643.63284   -156961.74   -154299.55    418.61263    568150.35    83.753438    82.362651    82.362651 
22000000    641.92933   -156979.75   -154324.61    126.47118    568150.35    83.774718     82.35219     82.35219 
22100000    644.88123   -156930.58   -154263.22    511.17173    568150.35    83.792245    82.343577    82.343577 
22200000    646.29096   -156947.73   -154274.54    408.26394    568150.35    83.805949    82.336844    82.336844 
22300000    643.56203   -156948.95   -154287.05    326.65592    568150.35    83.815776    82.332017    82.332017 
22400000    643.96341   -156954.88   -154291.32    312.78698    568150.35    83.821688    82.329113    82.329113 
22500000    644.59967   -156956.81   -154290.62    202.71842    568150.35    83.823662    82.328144    82.328144 
22600000    645.16464    -156939.4   -154270.87    458.87405    568150.35    83.821688    82.329113    82.329113 
22700000     643.4641   -156938.57   -154277.08    459.90526    568150.35    83.815776    82.332017    82.332017 
22800000    646.45062    -156932.9   -154259.05    469.81527    568150.35    83.805949    82.336844    82.336844 
22900000    647.09474   -156938.75   -154262.24    415.24591    568150.35    83.792245    82.343577    82.343577 
23000000    643.22669   -156922.49   -154261.98    617.75641    568150.35    83.774718     82.35219     82.35219 
23100000    645.00968   -156925.76   -154257.88    467.69811    568150.35    83.753438    82.362651    82.362651 
23200000     644.6251   -156927.14   -154260.84    580.71728    568150.35    83.728489    82.374922    82.374922 
23300000    642.78436   -156957.04   -154298.36    170.48779    568150.35    83.699968    82.388955    82.388955 
23400000    647.70752   -156922.52   -154243.48    666.56125    568150.35     83.66799    82.404698    82.404698 
23500000    646.61906   -156958.16   -154283.61    344.70484    568150.35    83.632679    82.422093    82.422093 
23600000    646.32306      -156957   -154283.68    405.60187    568150.35    83.594175    82.441073    82.441073 
23700000    639.66185   -156963.11   -154317.34    351.57925    568150.35     83.55263    82.461566    82.461566 
23800000     640.3596   -156956.01   -154307.36    287.59646    568150.35    83.508209    82.483495    82.483495 
23900000    637.47782   -156932.49   -154295.76    530.28755    568150.35    83.461086    82.506778    82.506778 
24000000    642.77187   -156958.82   -154300.19    394.27281    568150.35    83.411447    82.531324    82.531324 
24100000     640.4777   -156942.04    -154292.9    427.85072    568150.35    83.359489    82.557041    82.557041 
24200000    641.70642   -156947.46   -154293.24    442.59376    568150.35    83.305415    82.583831    82.583831 
24300000    645.30819   -156955.34   -154286.22      435.821    568150.35    83.249441    82.611589    82.611589 
24400000    645.31928   -156975.34   -154306.17    285.07649    568150.35    83.191786    82.640211    82.640211 
24500000    640.89359   -156963.16    -154312.3    297.81332    568150.35    83.132679    82.669584    82.669584 
24600000     647.5392   -156963.91   -154285.56    426.80368    568150.35    83.072352    82.699596    82.699596 
24700000    644.33501   -156942.15   -154277.05     499.5069    568150.35    83.011043     82.73013     82.73013 
24800000    642.60899   -156954.37   -154296.41    472.45889    568150.35    82.948995    82.761066    82.761066 
24900000    641.52823   -156976.84   -154323.35     358.8194    568150.35    82.886452    82.792284    82.792284 
25000000    639.40651   -156963.41    -154318.7     336.1234    568150.35    82.823662    82.823662    82.823662 
25100000    640.98767   -156932.96   -154281.71    539.12448    568150.35    82.760871    82.855075    82.855075 
25200000    646.05727   -156960.36   -154288.14    423.16222    568150.35    82.698329      82.8864      82.8864 
25300000    648.89859   -156932.48    -154248.5    820.58776    568150.35     82.63628    82.917512    82.917512 
25400000    648.88877   -156944.76   -154260.83    505.91109    568150.35    82.574972    82.948287    82.948287 
25500000     640.9878   -156947.77   -154296.52    491.03785    568150.35    82.514645    82.978604    82.978604 
25600000    646.17773   -156933.69   -154260.97    534.61934    568150.35    82.455537     83.00834     83.00834 
25700000    647.01787   -156957.05   -154280.86     342.0726    568150.35    82.397882    83.037376    83.037376 
25800000    643.47467   -156956.26   -154294.72    434.73414    568150.35    82.341908    83.065595    83.065595 
25900000    644.77593   -156907.42   -154240.51    856.24547    568150.35    82.287835    83.092882    83.092882 
26000000     646.9833   -156970.84   -154294.79    433.36444    568150.35    82.235876    83.119128    83.119128 
26100000    642.84174   -156937.51   -154278.59    560.10886    568150.35    82.186238    83.144225    83.144225 
26200000    642.06449   -156960.32   -154304.62    346.07726    568150.35    82.139115    83.168072    83.168072 
26300000    642.95981   -156957.13   -154297.73     450.0768    568150.35    82.094693     83.19057     83.19057 
26400000    644.19529   -156942.32    -154277.8    453.20213    568150.35    82.053149    83.211627    83.211627 
26500000     642.7414   -156951.84   -154293.33    551.52422    568150.35    82.014645    83.231158    83.231158 
26600000    642.26382   -156923.31   -154266.78    475.12613    568150.35    81.979334    83.249081    83.249081 
26700000    645.31874   -156943.88   -154274.72    586.19452    568150.35    81.947355    83.265323    83.265323 
26800000    644.91297   -156968.29    -154300.8    257.38617    568150.35    81.918835    83.279816    83.279816 
26900000    645.33546   -156968.54    -154299.3     331.0727    568150.35    81.893885    83.292501    83.292501 
27000000    643.16529   -156912.56    -154252.3    582.74607    568150.35    81.872605    83.303325    83.303325 
27100000    647.37247   -156940.29   -154262.63    608.28697    568150.35    81.855079    83.312243    83.312243 
27200000    645.64167    -156945.9    -154275.4    619.78362    568150.35    81.841375    83.319218    83.319218 
27300000    645.85347   -156952.48    -154281.1    596.57295    568150.35    81.831547    83.324221    83.324221 
27400000    651.68775   -156946.93   -154251.42     680.4765    568150.35    81.825635    83.327231    83.327231 
27500000    647.57475   -156939.32   -154260.82    589.50172    568150.35    81.823662    83.328235    83.328235 
27600000     646.2938   -156959.53   -154286.33    395.84391    568150.35    81.825635    83.327231    83.327231 
27700000    644.58637   -156946.31   -154280.17    579.35356    568150.35    81.831547    83.324221    83.324221 
27800000    647.78713   -156957.77   -154278.39     422.3136    568150.35    81.841375    83.319218    83.319218 
27900000    643.83055      -156953   -154289.99    543.89194    568150.35    81.855079    83.312243    83.312243 
28000000    641.94122   -156930.49    -154275.3    671.54758    568150.35    81.872605    83.303325    83.303325 
28100000    643.42517   -156933.42   -154272.09    696.67598    568150.35    81.893885    83.292501    83.292501 
28200000     646.3879    -156942.9   -154269.31    595.01389    568150.35    81.918835    83.279816    83.279816 
28300000    647.66407   -156955.66   -154276.79    387.73249    568150.35    81.947355    83.265323    83.265323 
28400000    647.18714   -156933.97   -154257.08    558.68091    568150.35    81.979334    83.249081    83.249081 
28500000     647.1453   -156951.83   -154275.11    542.13606    568150.35    82.014645    83.231158    83.231158 
28600000    645.87715   -156956.37    -154284.9    527.37723    568150.35    82.053149    83.211627    83.211627 
28700000     645.9036   -156962.82   -154291.23    587.54909    568150.35    82.094693     83.19057     83.19057 
28800000    644.32341   -156973.76   -154308.72    297.83756    568150.35    82.139115    83.168072    83.168072 
28900000    646.27368   -156978.99   -154305.88    376.04067    568150.35    82.186238    83.144225    83.144225 
29000000    646.68117   -156939.17   -154264.37     613.6716    568150.35    82.235876    83.119128    83.119128 
29100000    640.72813    -156999.9   -154349.72    106.56829    568150.35    82.287835    83.092882    83.092882 
29200000    644.13616   -156955.47    -154291.2    611.25645    568150.35    82.341908    83.065595    83.065595 
29300000    639.07135   -156946.65   -154303.33    614.60601    568150.35    82.397882    83.037376    83.037376 
29400000    639.92371   -156948.38   -154301.53    553.48564    568150.35    82.455537     83.00834     83.00834 
29500000    643.83053   -156957.97   -154294.96    487.60274    568150.35    82.514645    82.978604    82.978604 
29600000    644.70839    -156964.3   -154297.66    551.73169    568150.35    82.574972    82.948287    82.948287 
29700000    645.18334   -156955.11    -154286.5    402.30604    568150.35     82.63628    82.917512    82.917512 
29800000    647.00594   -156949.13   -154272.98    676.12586    568150.35    82.698329      82.8864      82.8864 
29900000    643.58679   -156971.61   -154309.61    469.89038    568150.35    82.760871    82.855075    82.855075 
30000000    646.14736   -156961.07   -154288.48     539.9463    568150.35    82.823662    82.823662    82.823662 
30100000    636.25094   -156981.82   -154350.17    274.29915    568150.35    82.886452    82.792284    82.792284 
30200000    655.02788    -156968.1   -154258.78     539.1608    568150.35    82.948995    82.761066    82.761066 
30300000    642.88593   -156949.01   -154289.91    418.86083    568150.35    83.011043     82.73013     82.73013 
30400000    643.49092   -156941.94   -154280.34    608.66579    568150.35    83.072352    82.699596    82.699596 
30500000    645.09326   -156969.05   -154300.82    554.23132    568150.35    83.132679    82.669584    82.669584 
30600000    644.97284   -156969.48   -154301.74    497.90175    568150.35    83.191786    82.640211    82.640211 
30700000    641.22466   -156957.44   -154305.21    496.67505    568150.35    83.249441    82.611589    82.611589 
30800000    646.18107   -156955.43    -154282.7    632.42466    568150.35    83.305415    82.583831    82.583831 
30900000    645.87227   -156953.48   -154282.03    509.46155    568150.35    83.359489    82.557041    82.557041 
31000000    643.29089   -156970.43   -154309.66     425.5598    568150.35    83.411447    82.531324    82.531324 
31100000    646.49595   -156960.42   -154286.39    485.73387    568150.35    83.461086    82.506778    82.506778 
31200000    644.10833   -156973.73   -154309.57    484.64517    568150.35    83.508209    82.483495    82.483495 
31300000    646.14806   -156965.58   -154292.98    435.93112    568150.35     83.55263    82.461566    82.461566 
31400000    641.82525    -156928.7   -154273.99    707.20456    568150.35    83.594175    82.441073    82.441073 
31500000    647.76093   -156945.71   -154266.44     650.9909    568150.35    83.632679    82.422093    82.422093 
31600000    645.73622   -156963.64   -154292.75    578.12991    568150.35     83.66799    82.404698    82.404698 
31700000    647.18908   -156955.75   -154278.85    528.24461    568150.35    83.699968    82.388955    82.388955 
31800000    642.13154   -156960.19    -154304.2     421.8981    568150.35    83.728489    82.374922    82.374922 
31900000    640.92047   -156956.14   -154305.17    380.23173    568150.35    83.753438    82.362651    82.362651 
32000000    641.00123   -156941.24   -154289.94    656.60367    568150.35    83.774718     82.35219     82.35219 
32100000     647.3507   -156948.55   -154270.98    723.11947    568150.35    83.792245    82.343577    82.343577 
32200000     642.3397   -156927.74    -154270.9    587.80453    568150.35    83.805949    82.336844    82.336844 
32300000    647.35994   -156929.21   -154251.61    764.74495    568150.35    83.815776    82.332017    82.332017 
32400000    644.27598   -156950.78   -154285.93    536.14637    568150.35    83.821688    82.329113    82.329113 
32500000    641.88084      -156931   -154276.06    706.98669    568150.35    83.823662    82.328144    82.328144 
32600000    646.78571   -156915.09   -154239.86    844.57988    568150.35    83.821688    82.329113    82.329113 
32700000      647.731   -156933.17   -154254.03    628.20189    568150.35    83.815776    82.332017    82.332017 
32800000    640.76656   -156947.74   -154297.41    443.44241    568150.35    83.805949    82.336844    82.336844 
32900000     644.9278   -156946.62   -154279.07    650.70655    568150.35    83.792245    82.343577    82.343577 
33000000    642.39542   -156939.12   -154282.05    482.25009    568150.35    83.774718     82.35219     82.35219 
33100000    649.47991   -156934.65   -154248.28    575.59791    568150.35    83.753438    82.362651    82.362651 
33200000     643.6586   -156945.66   -154283.36    554.15169    568150.35    83.728489    82.374922    82.374922 
33300000    647.36749    -156958.9   -154281.26    481.22511    568150.35    83.699968    82.388955    82.388955 
33400000    649.44965   -156964.13   -154277.88    322.95042    568150.35     83.66799    82.404698    82.404698 
33500000    643.45502   -156952.78   -154291.32    477.50128    568150.35    83.632679    82.422093    82.422093 
33600000    644.87399   -156937.98   -154270.66    604.00755    568150.35    83.594175    82.441073    82.441073 
33700000    647.42476   -156961.33   -154283.45    477.83687    568150.35     83.55263    82.461566    82.461566 
33800000    646.05989   -156966.12   -154293.89    351.36065    568150.35    83.508209    82.483495    82.483495 
33900000    650.96447   -156961.97   -154269.46    399.11456    568150.35    83.461086    82.506778    82.506778 
34000000    644.07577   -156955.45   -154291.43    539.80416    568150.35    83.411447    82.531324    82.531324 
34100000    640.74506   -156954.96   -154304.71    274.30364    568150.35    83.359489    82.557041    82.557041 
34200000     645.2178   -156951.12   -154282.38    405.77603    568150.35    83.305415    82.583831    82.583831 
34300000     645.3723   -156979.38   -154309.99    379.46893    568150.35    83.249441    82.611589    82.611589 
34400000    648.75467   -156953.69   -154270.31    631.80078    568150.35    83.191786    82.640211    82.640211 
34500000    645.41683   -156977.48   -154307.91    256.00312    568150.35    83.132679    82.669584    82.669584 
34600000    645.00246   -156985.33   -154317.48    265.82444    568150.35    83.072352    82.699596    82.699596 
34700000    644.32927   -156953.01   -154287.94    581.00904    568150.35    83.011043     82.73013     82.73013 
34800000    645.25062   -156974.56   -154305.68    328.96924    568150.35    82.948995    82.761066    82.761066 
34900000     643.7285   -156967.39    -154304.8    362.17786    568150.35    82.886452    82.792284    82.792284 
35000000    650.55575   -156971.33   -154280.51    311.64308    568150.35    82.823662    82.823662    82.823662 
35100000    647.73795   -156945.05   -154265.88    554.81812    568150.35    82.760871    82.855075    82.855075 
35200000    645.44889   -156953.89   -154284.19    392.69847    568150.35    82.698329      82.8864      82.8864 
35300000    646.65166   -156948.72   -154274.04    500.45991    568150.35     82.63628    82.917512    82.917512 
35400000    646.27382   -156959.06   -154285.94    305.60983    568150.35    82.574972    82.948287    82.948287 
35500000    641.87776   -156959.59   -154304.65    336.69329    568150.35    82.514645    82.978604    82.978604 
35600000    643.90445   -156979.99   -154316.68    385.27536    568150.35    82.455537     83.00834     83.00834 
35700000    648.56178   -156957.56   -154274.98    487.61605    568150.35    82.397882    83.037376    83.037376 
35800000    645.52525   -156971.47   -154301.45    191.33797    568150.35    82.341908    83.065595    83.065595 
35900000    642.74424   -156967.94   -154309.43    407.45538    568150.35    82.287835    83.092882    83.092882 
36000000    647.59878   -156938.08   -154259.49    562.33544    568150.35    82.235876    83.119128    83.119128 
36100000    641.03715   -156960.59   -154309.13    405.69356    568150.35    82.186238    83.144225    83.144225 
36200000    646.42582   -156945.38   -154271.63    439.88193    568150.35    82.139115    83.168072    83.168072 
36300000    644.99932   -156944.27   -154276.42    469.93643    568150.35    82.094693     83.19057     83.19057 
36400000    643.80006   -156960.42   -154297.54    408.51525    568150.35    82.053149    83.211627    83.211627 
36500000    646.73627   -156942.01   -154266.98    564.51801    568150.35    82.014645    83.231158    83.231158 
36600000    639.74706   -156949.41   -154303.29    449.99325    568150.35    81.979334    83.249081    83.249081 
36700000     646.8159   -156954.03   -154278.67    538.23111    568150.35    81.947355    83.265323    83.265323 
36800000    643.49755   -156953.56   -154291.92    555.79698    568150.35    81.918835    83.279816    83.279816 
36900000     644.2961    -156945.9   -154280.96    537.16176    568150.35    81.893885    83.292501    83.292501 
37000000    646.44982   -156934.45   -154260.61    689.76029    568150.35    81.872605    83.303325    83.303325 
37100000    641.00254   -156948.09   -154296.78     473.7575    568150.35    81.855079    83.312243    83.312243 
37200000    643.52671   -156941.26    -154279.5    561.83016    568150.35    81.841375    83.319218    83.319218 
37300000     642.2708   -156959.91   -154303.35    499.25624    568150.35    81.831547    83.324221    83.324221 
37400000    644.37306    -156951.6   -154286.35    599.22658    568150.35    81.825635    83.327231    83.327231 
37500000    648.09922   -156942.56   -154261.89     643.9477    568150.35    81.823662    83.328235    83.328235 
37600000    647.18233      -156964   -154287.13    533.61167    568150.35    81.825635    83.327231    83.327231 
37700000    642.43824   -156949.49   -154292.24    557.66698    568150.35    81.831547    83.324221    83.324221 
37800000    645.94578   -156967.84   -154296.08    521.26163    568150.35    81.841375    83.319218    83.319218 
37900000    645.04854   -156947.09   -154279.04    622.59858    568150.35    81.855079    83.312243    83.312243 
38000000    638.94492   -156952.42   -154309.62    573.84564    568150.35    81.872605    83.303325    83.303325 
38100000    643.65654   -156953.84   -154291.55    422.25934    568150.35    81.893885    83.292501    83.292501 
38200000    643.95963   -156941.41   -154277.87    426.03898    568150.35    81.918835    83.279816    83.279816 
38300000    644.59162   -156934.05    -154267.9    698.63603    568150.35    81.947355    83.265323    83.265323 
38400000    641.92857   -156947.46   -154292.32    359.47081    568150.35    81.979334    83.249081    83.249081 
38500000    647.08247   -156953.69   -154277.23    494.38708    568150.35    82.014645    83.231158    83.231158 
38600000    645.71867   -156974.51   -154303.69    413.12878    568150.35    82.053149    83.211627    83.211627 
38700000    648.31279   -156961.81   -154280.26    545.96144    568150.35    82.094693     83.19057     83.19057 
38800000    643.92368   -156967.89    -154304.5    401.37002    568150.35    82.139115    83.168072    83.168072 
38900000    648.60611   -156964.69   -154281.92    391.03649    568150.35    82.186238    83.144225    83.144225 
39000000    641.03008   -156948.68   -154297.25    362.20288    568150.35    82.235876    83.119128    83.119128 
39100000    640.20552   -156968.03   -154320.01     216.9686    568150.35    82.287835    83.092882    83.092882 
39200000     644.0548   -156942.11   -154278.17    582.57125    568150.35    82.341908    83.065595    83.065595 
39300000    639.16074   -156954.93   -154311.23    407.16837    568150.35    82.397882    83.037376    83.037376 
39400000    640.62115   -156968.38   -154318.64    309.29515    568150.35    82.455537     83.00834     83.00834 
39500000    646.48104   -156979.41   -154305.44    279.57827    568150.35    82.514645    82.978604    82.978604 
39600000    645.70502   -156980.74   -154309.98    345.72921    568150.35    82.574972    82.948287    82.948287 
39700000    644.19411   -156966.39   -154301.88    506.14732    568150.35     82.63628    82.917512    82.917512 
39800000     645.8691   -156956.69   -154285.25    423.44119    568150.35    82.698329      82.8864      82.8864 
39900000    647.51495   -156934.42   -154256.18    607.37872    568150.35    82.760871    82.855075    82.855075 
40000000    644.07943   -156955.43   -154291.39    461.04462    568150.35    82.823662    82.823662    82.823662 
40100000    643.10896   -156966.71   -154306.69    518.90833    568150.35    82.886452    82.792284    82.792284 
40200000    646.09369   -156963.84   -154291.47    380.06455    568150.35    82.948995    82.761066    82.761066 
40300000    645.17977   -156957.47   -154288.88    679.98832    568150.35    83.011043     82.73013     82.73013 
40400000     646.5324   -156976.48    -154302.3    449.78645    568150.35    83.072352    82.699596    82.699596 
40500000    643.58147   -156940.11   -154278.13    586.77525    568150.35    83.132679    82.669584    82.669584 
40600000    645.31235   -156974.88   -154305.74    365.19613    568150.35    83.191786    82.640211    82.640211 
40700000    647.47998   -156945.23   -154267.13    651.20838    568150.35    83.249441    82.611589    82.611589 
40800000    643.26674   -156971.43   -154310.75    273.05029    568150.35    83.305415    82.583831    82.583831 
40900000      646.016   -156952.47   -154280.42    488.39803    568150.35    83.359489    82.557041    82.557041 
41000000    644.32749   -156935.59   -154270.53    554.81628    568150.35    83.411447    82.531324    82.531324 
41100000    641.93278   -156936.12   -154280.96     514.1005    568150.35    83.461086    82.506778    82.506778 
41200000    646.94697   -156952.78   -154276.89    553.70903    568150.35    83.508209    82.483495    82.483495 
41300000    643.83339   -156938.88   -154275.86     736.6865    568150.35     83.55263    82.461566    82.461566 
41400000    644.26441   -156963.55   -154298.75    408.05123    568150.35    83.594175    82.441073    82.441073 
41500000    645.73621   -156952.76   -154281.87    449.83929    568150.35    83.632679    82.422093    82.422093 
41600000    637.84736   -156961.45   -154323.19    311.44247    568150.35     83.66799    82.404698    82.404698 
41700000    646.93008   -156944.68   -154268.85    542.71888    568150.35    83.699968    82.388955    82.388955 
41800000    644.79229   -156945.42   -154278.43    467.19414    568150.35    83.728489    82.374922    82.374922 
41900000    643.36736   -156943.05   -154281.95     348.8784    568150.35    83.753438    82.362651    82.362651 
42000000    644.88134   -156957.51   -154290.15    284.23858    568150.35    83.774718     82.35219     82.35219 
42100000     641.9183   -156961.18   -154306.08    354.90442    568150.35    83.792245    82.343577    82.343577 
42200000    641.40105   -156960.71   -154307.75    189.01209    568150.35    83.805949    82.336844    82.336844 
42300000    640.35761   -156929.76   -154281.11    594.15181    568150.35    83.815776    82.332017    82.332017 
42400000    638.45427   -156948.86   -154308.09     330.0455    568150.35    83.821688    82.329113    82.329113 
42500000    650.01694   -156948.46   -154259.86    490.01022    568150.35    83.823662    82.328144    82.328144 
42600000    641.87232   -156919.23   -154264.32    821.33716    568150.35    83.821688    82.329113    82.329113 
42700000    640.80583   -156953.52   -154303.02     414.8759    568150.35    83.815776    82.332017    82.332017 
42800000     648.2502   -156951.52   -154270.23    458.31294    568150.35    83.805949    82.336844    82.336844 
42900000    641.72486   -156944.39   -154290.09     435.4955    568150.35    83.792245    82.343577    82.343577 
43000000    642.72393   -156967.37   -154308.93    529.72305    568150.35    83.774718     82.35219     82.35219 
43100000    642.16499    -156944.8   -154288.68    587.41679    568150.35    83.753438    82.362651    82.362651 
43200000    641.80375   -156959.67   -154305.05    356.95569    568150.35    83.728489    82.374922    82.374922 
43300000    641.28338    -156969.3   -154316.82    337.20202    568150.35    83.699968    82.388955    82.388955 
43400000    644.59615   -156963.43   -154297.26    383.31145    568150.35     83.66799    82.404698    82.404698 
43500000    640.91839   -156937.28   -154286.31    565.40345    568150.35    83.632679    82.422093    82.422093 
43600000    642.58289   -156948.43   -154290.58    496.73759    568150.35    83.594175    82.441073    82.441073 
43700000    641.95776   -156961.23   -154305.97    447.19983    568150.35     83.55263    82.461566    82.461566 
43800000    644.49899   -156970.86   -154305.08    303.80669    568150.35    83.508209    82.483495    82.483495 
43900000    638.45747   -156982.65   -154341.86    327.73121    568150.35    83.461086    82.506778    82.506778 
44000000    647.84507   -156955.66   -154276.04    431.66975    568150.35    83.411447    82.531324    82.531324 
44100000    648.84875   -156964.58   -154280.82    526.08739    568150.35    83.359489    82.557041    82.557041 
44200000    645.25135   -156967.93   -154299.05    444.51229    568150.35    83.305415    82.583831    82.583831 
44300000    643.95796   -156973.42   -154309.88    467.40003    568150.35    83.249441    82.611589    82.611589 
44400000    646.33997   -156969.23   -154295.84    520.12094    568150.35    83.191786    82.640211    82.640211 
44500000     642.4705   -156975.91   -154318.53      430.272    568150.35    83.132679    82.669584    82.669584 
44600000    650.15468   -156977.87   -154288.71    411.38326    568150.35    83.072352    82.699596    82.699596 
44700000    646.22743   -156963.75   -154290.82    492.92352    568150.35    83.011043     82.73013     82.73013 
44800000    640.56475   -156976.52   -154327.01    225.77267    568150.35    82.948995    82.761066    82.761066 
44900000    641.31334   -156963.94   -154311.35    435.24274    568150.35    82.886452    82.792284    82.792284 
45000000    641.12138   -156980.15   -154328.35    355.76309    568150.35    82.823662    82.823662    82.823662 
45100000    646.24702   -156976.81    -154303.8    389.52137    568150.35    82.760871    82.855075    82.855075 
45200000    644.84369   -156982.64   -154315.44    248.45989    568150.35    82.698329      82.8864      82.8864 
45300000    645.18399   -156965.24   -154296.63    364.55718    568150.35     82.63628    82.917512    82.917512 
45400000    642.62321    -156955.2   -154297.18    585.58283    568150.35    82.574972    82.948287    82.948287 
45500000    651.43263   -156966.34   -154271.88    436.42623    568150.35    82.514645    82.978604    82.978604 
45600000    644.83413   -156981.29   -154314.13    236.65609    568150.35    82.455537     83.00834     83.00834 
45700000    650.35367    -156966.8   -154276.81    373.20341    568150.35    82.397882    83.037376    83.037376 
45800000    647.20312   -156970.68   -154293.72     340.7085    568150.35    82.341908    83.065595    83.065595 
45900000    648.92696   -156948.01   -154263.92    512.58295    568150.35    82.287835    83.092882    83.092882 
46000000    647.06583   -156965.11   -154288.72    356.26115    568150.35    82.235876    83.119128    83.119128 
46100000    642.90925   -156960.93   -154301.73    363.68163    568150.35    82.186238    83.144225    83.144225 
46200000    645.81246   -156937.83   -154266.62    549.94588    568150.35    82.139115    83.168072    83.168072 
46300000    645.68598   -156934.81   -154264.13    605.55601    568150.35    82.094693     83.19057     83.19057 
46400000    653.26592   -156939.13   -154237.09     557.5879    568150.35    82.053149    83.211627    83.211627 
46500000    641.82293   -156959.46   -154304.76    507.85548    568150.35    82.014645    83.231158    83.231158 
46600000     644.5819   -156961.59   -154295.47    545.81884    568150.35    81.979334    83.249081    83.249081 
46700000    641.00974   -156953.88   -154302.54    550.78433    568150.35    81.947355    83.265323    83.265323 
46800000    639.60692   -156944.93   -154299.39    459.17689    568150.35    81.918835    83.279816    83.279816 
46900000    642.63286   -156952.35   -154294.29    558.58115    568150.35    81.893885    83.292501    83.292501 
47000000    641.71131   -156949.35   -154295.11    546.59129    568150.35    81.872605    83.303325    83.303325 
47100000    642.23311   -156955.47   -154299.07    501.41218    568150.35    81.855079    83.312243    83.312243 
47200000    640.93198   -156950.23   -154299.21    536.54253    568150.35    81.841375    83.319218    83.319218 
47300000    638.50965   -156954.92   -154313.92    409.80457    568150.35    81.831547    83.324221    83.324221 
47400000    645.14268   -156960.39   -154291.95     416.5447    568150.35    81.825635    83.327231    83.327231 
47500000     648.6602   -156933.55   -154250.57    663.45436    568150.35    81.823662    83.328235    83.328235 
47600000    645.42507   -156965.82   -154296.21    404.65458    568150.35    81.825635    83.327231    83.327231 
47700000    641.26023   -156951.19   -154298.81    393.16777    568150.35    81.831547    83.324221    83.324221 
47800000    645.40401   -156953.19   -154283.68    511.78289    568150.35    81.841375    83.319218    83.319218 
47900000    641.98504   -156948.59   -154293.21    513.29065    568150.35    81.855079    83.312243    83.312243 
48000000    646.08743   -156978.22   -154305.87    310.40508    568150.35    81.872605    83.303325    83.303325 
48100000    643.18737   -156962.39   -154302.04    401.37938    568150.35    81.893885    83.292501    83.292501 
48200000    639.47661   -156963.62   -154318.62    344.57763    568150.35    81.918835    83.279816    83.279816 
48300000    642.96365   -156950.72   -154291.29    273.48537    568150.35    81.947355    83.265323    83.265323 
48400000    644.89167   -156950.58   -154283.18    470.72366    568150.35    81.979334    83.249081    83.249081 
48500000    645.98081   -156947.35   -154275.45    618.01227    568150.35    82.014645    83.231158    83.231158 
48600000    646.91133   -156956.44   -154280.69    470.18926    568150.35    82.053149    83.211627    83.211627 
48700000    640.15438   -156953.71   -154305.91    465.51864    568150.35    82.094693     83.19057     83.19057 
48800000    649.86289   -156966.69   -154278.73     458.6555    568150.35    82.139115    83.168072    83.168072 
48900000    645.26995   -156971.69   -154302.72    538.40106    568150.35    82.186238    83.144225    83.144225 
49000000     645.1467   -156978.27   -154309.82     289.8555    568150.35    82.235876    83.119128    83.119128 
49100000     638.3614   -156960.47   -154320.08    487.64965    568150.35    82.287835    83.092882    83.092882 
49200000    646.47209   -156985.45   -154311.51    326.70275    568150.35    82.341908    83.065595    83.065595 
49300000    647.40857   -156980.26   -154302.45    481.27369    568150.35    82.397882    83.037376    83.037376 
49400000     647.6315   -156978.76   -154300.03    271.25659    568150.35    82.455537     83.00834     83.00834 
49500000    646.81305   -156978.17   -154302.83    470.35957    568150.35    82.514645    82.978604    82.978604 
49600000     645.5946    -156958.3   -154287.99    430.97022    568150.35    82.574972    82.948287    82.948287 
49700000    646.25128   -156962.18   -154289.15    509.92416    568150.35     82.63628    82.917512    82.917512 
49800000    643.37759   -156971.33    -154310.2    344.15706    568150.35    82.698329      82.8864      82.8864 
49900000    647.87911   -156926.02   -154246.26    855.26479    568150.35    82.760871    82.855075    82.855075 
50000000    647.84292   -156976.79   -154297.18    301.96203    568150.35    82.823662    82.823662    82.823662 
50100000    649.13229   -156979.62   -154294.69    322.55794    568150.35    82.886452    82.792284    82.792284 
50200000    648.50608   -156969.53   -154287.18    337.09649    568150.35    82.948995    82.761066    82.761066 
50300000    651.54815   -156946.74   -154251.81    538.92867    568150.35    83.011043     82.73013     82.73013 
50400000    643.57233   -156961.64    -154299.7    321.38904    568150.35    83.072352    82.699596    82.699596 
50500000    642.08245   -156960.41   -154304.63    349.80864    568150.35    83.132679    82.669584    82.669584 
50600000    643.56927   -156958.25   -154296.32    285.77521    568150.35    83.191786    82.640211    82.640211 
50700000    646.39002   -156934.58   -154260.99    488.75136    568150.35    83.249441    82.611589    82.611589 
50800000     647.7845    -156940.9   -154261.54    550.20674    568150.35    83.305415    82.583831    82.583831 
50900000    640.33772   -156981.51   -154332.95    20.772904    568150.35    83.359489    82.557041    82.557041 
51000000    646.27425   -156969.77   -154296.66    377.60293    568150.35    83.411447    82.531324    82.531324 
51100000    640.71011   -156952.02   -154301.92    523.74657    568150.35    83.461086    82.506778    82.506778 
51200000    639.30952   -156968.87   -154324.56    164.39081    568150.35    83.508209    82.483495    82.483495 
51300000    646.54223    -156958.9   -154284.67    270.61278    568150.35     83.55263    82.461566    82.461566 
51400000    649.32234   -156987.63   -154301.91    117.10139    568150.35    83.594175    82.441073    82.441073 
51500000    645.90049   -156955.36   -154283.79    404.39789    568150.35    83.632679    82.422093    82.422093 
51600000    647.65271   -156939.98   -154261.16    521.17252    568150.35     83.66799    82.404698    82.404698 
51700000    646.77191   -156939.22   -154264.04    614.51148    568150.35    83.699968    82.388955    82.388955 
51800000    644.30922   -156958.19    -154293.2    337.42786    568150.35    83.728489    82.374922    82.374922 
51900000    648.84704   -156947.78   -154264.02    674.31647    568150.35    83.753438    82.362651    82.362651 
52000000    643.20916   -156966.23   -154305.79    269.18188    568150.35    83.774718     82.35219     82.35219 
52100000    648.83077   -156976.05   -154292.36    111.66991    568150.35    83.792245    82.343577    82.343577 
52200000     643.6514   -156953.41   -154291.14    334.23324    568150.35    83.805949    82.336844    82.336844 
52300000    645.44714   -156949.47   -154279.78    485.78371    568150.35    83.815776    82.332017    82.332017 
52400000     646.3007   -156938.17   -154264.95    473.44642    568150.35    83.821688    82.329113    82.329113 
52500000    650.89309   -156958.22      -154266    581.75877    568150.35    83.823662    82.328144    82.328144 
52600000    645.33225   -156952.67   -154283.45    350.37815    568150.35    83.821688    82.329113    82.329113 
52700000    643.59565   -156959.57   -154297.53    337.51785    568150.35    83.815776    82.332017    82.332017 
52800000    642.10096   -156976.84   -154320.98    225.42792    568150.35    83.805949    82.336844    82.336844 
52900000    642.97022   -156942.29   -154282.84    391.84527    568150.35    83.792245    82.343577    82.343577 
53000000     645.2645   -156964.39   -154295.45    442.01577    568150.35    83.774718     82.35219     82.35219 
53100000    648.15958   -156966.95   -154286.04    362.82753    568150.35    83.753438    82.362651    82.362651 
53200000     640.6084   -156978.52   -154328.83    376.72119    568150.35    83.728489    82.374922    82.374922 
53300000    644.99127   -156968.09   -154300.28    286.24123    568150.35    83.699968    82.388955    82.388955 
53400000    644.11489   -156970.78    -154306.6    253.23447    568150.35     83.66799    82.404698    82.404698 
53500000    644.01326   -156955.35   -154291.58    483.67829    568150.35    83.632679    82.422093    82.422093 
53600000    642.79895   -156942.38   -154283.64    440.56593    568150.35    83.594175    82.441073    82.441073 
53700000    647.79875   -156955.43   -154276.01    512.86629    568150.35     83.55263    82.461566    82.461566 
53800000     643.1824   -156946.71   -154286.38    578.33774    568150.35    83.508209    82.483495    82.483495 
53900000    649.93435   -156973.66   -154285.41    354.52179    568150.35    83.461086    82.506778    82.506778 
54000000    646.81815      -156988   -154312.63    195.05631    568150.35    83.411447    82.531324    82.531324 
54100000    647.72091   -156972.24   -154293.14    433.55164    568150.35    83.359489    82.557041    82.557041 
54200000    646.75636   -156980.32   -154305.21    256.60351    568150.35    83.305415    82.583831    82.583831 
54300000    647.44807   -156984.25   -154306.27    248.69258    568150.35    83.249441    82.611589    82.611589 
54400000    649.51938    -156973.7   -154287.16    407.10841    568150.35    83.191786    82.640211    82.640211 
54500000     646.2054   -156959.93    -154287.1    359.67132    568150.35    83.132679    82.669584    82.669584 
54600000     646.7163   -156976.96   -154302.01    262.47429    568150.35    83.072352    82.699596    82.699596 
54700000    646.07298   -156980.89    -154308.6    219.58967    568150.35    83.011043     82.73013     82.73013 
54800000     647.5111    -156994.4   -154316.17     208.4883    568150.35    82.948995    82.761066    82.761066 
54900000    643.93447   -156971.66   -154308.22    388.07044    568150.35    82.886452    82.792284    82.792284 
55000000    646.62612      -156973   -154298.43    364.41271    568150.35    82.823662    82.823662    82.823662 
55100000    638.55976   -156979.85   -154338.65    396.82919    568150.35    82.760871    82.855075    82.855075 
55200000    647.33894   -156984.28   -154306.76    409.25576    568150.35    82.698329      82.8864      82.8864 
55300000    645.33516   -156968.02   -154298.79    455.12678    568150.35     82.63628    82.917512    82.917512 
55400000    646.33676   -156977.63   -154304.25    462.88585    568150.35    82.574972    82.948287    82.948287 
55500000    640.77753   -156954.94   -154304.56    556.33187    568150.35    82.514645    82.978604    82.978604 
55600000    649.93478   -156983.91   -154295.65     337.3465    568150.35    82.455537     83.00834     83.00834 
55700000    647.05262   -156934.05   -154257.72    679.47563    568150.35    82.397882    83.037376    83.037376 
55800000    648.86229   -156952.52    -154268.7    559.27985    568150.35    82.341908    83.065595    83.065595 
55900000    651.33406   -156952.86   -154258.81     591.7001    568150.35    82.287835    83.092882    83.092882 
56000000     653.8339   -156942.12   -154237.73    770.98041    568150.35    82.235876    83.119128    83.119128 
56100000    648.37515   -156968.58   -154286.77     386.2388    568150.35    82.186238    83.144225    83.144225 
56200000    643.90595   -156957.39   -154294.06    381.41406    568150.35    82.139115    83.168072    83.168072 
56300000    643.66771   -156952.56   -154290.22    487.76511    568150.35    82.094693     83.19057     83.19057 
56400000    644.36782   -156961.56   -154296.33    319.08899    568150.35    82.053149    83.211627    83.211627 
56500000    643.69952    -156955.9   -154293.44       449.59    568150.35    82.014645    83.231158    83.231158 
56600000    649.56014   -156973.09   -154286.38    299.29955    568150.35    81.979334    83.249081    83.249081 
56700000     640.9867   -156954.97   -154303.73    388.78999    568150.35    81.947355    83.265323    83.265323 
56800000    647.23097   -156943.52   -154266.45    556.52605    568150.35    81.918835    83.279816    83.279816 
56900000    644.91342   -156961.46   -154293.97    394.29424    568150.35    81.893885    83.292501    83.292501 
57000000    645.26392    -156944.8   -154275.87    608.92458    568150.35    81.872605    83.303325    83.303325 
57100000    646.97725   -156950.55   -154274.53    476.49464    568150.35    81.855079    83.312243    83.312243 
57200000    641.73731   -156956.58   -154302.23    363.60302    568150.35    81.841375    83.319218    83.319218 
57300000    644.74581   -156965.21   -154298.41    391.07243    568150.35    81.831547    83.324221    83.324221 
57400000    644.89332   -156963.16   -154295.76    308.21759    568150.35    81.825635    83.327231    83.327231 
57500000    642.67154   -156955.79   -154297.58    249.14103    568150.35    81.823662    83.328235    83.328235 
57600000    641.52578   -156936.49   -154283.01    419.55718    568150.35    81.825635    83.327231    83.327231 
57700000    646.52677   -156938.19   -154264.03    471.79372    568150.35    81.831547    83.324221    83.324221 
57800000    644.23996   -156957.94   -154293.24    436.79825    568150.35    81.841375    83.319218    83.319218 
57900000    646.97899   -156953.09   -154277.06     424.2394    568150.35    81.855079    83.312243    83.312243 
58000000    646.54103   -156983.88   -154309.66    248.00392    568150.35    81.872605    83.303325    83.303325 
58100000    641.52475   -156960.94   -154307.47    419.08017    568150.35    81.893885    83.292501    83.292501 
58200000    649.30229   -156948.38   -154262.74       496.59    568150.35    81.918835    83.279816    83.279816 
58300000    641.64585    -156992.2   -154338.22    116.31553    568150.35    81.947355    83.265323    83.265323 
58400000    652.39062   -156982.05   -154283.64    406.65419    568150.35    81.979334    83.249081    83.249081 
58500000    641.37528   -156974.44   -154321.59    417.60054    568150.35    82.014645    83.231158    83.231158 
58600000    642.12047   -156960.39   -154304.45    508.17976    568150.35    82.053149    83.211627    83.211627 
58700000    646.92589   -156980.51    -154304.7    162.39175    568150.35    82.094693     83.19057     83.19057 
58800000    645.71015   -156956.79      -154286    356.39914    568150.35    82.139115    83.168072    83.168072 
58900000    647.25421   -156964.91   -154287.74    353.67755    568150.35    82.186238    83.144225    83.144225 
59000000    639.51935   -156971.51   -154326.34    270.01218    568150.35    82.235876    83.119128    83.119128 
59100000    642.19171   -156953.98   -154297.75    407.57504    568150.35    82.287835    83.092882    83.092882 
59200000    645.05274   -156939.62   -154271.56     432.3238    568150.35    82.341908    83.065595    83.065595 
59300000    638.73546   -156974.12   -154332.18    293.46139    568150.35    82.397882    83.037376    83.037376 
59400000    647.29962   -156977.24   -154299.88    238.45739    568150.35    82.455537     83.00834     83.00834 
59500000    638.57836   -156977.85   -154336.57    321.49729    568150.35    82.514645    82.978604    82.978604 
59600000    642.16916   -156973.88   -154317.74     218.4123    568150.35    82.574972    82.948287    82.948287 
59700000    645.83227   -156971.42   -154300.13    170.36664    568150.35     82.63628    82.917512    82.917512 
59800000    643.66215   -156980.57   -154318.26    201.80905    568150.35    82.698329      82.8864      82.8864 
59900000    645.14679   -156961.08   -154292.63    347.42325    568150.35    82.760871    82.855075    82.855075 
60000000    644.24147   -156981.84   -154317.13     233.0416    568150.35    82.823662    82.823662    82.823662 
60100000    642.55306   -156986.56   -154328.84    202.81652    568150.35    82.886452    82.792284    82.792284 
60200000    646.22535   -156945.43   -154272.52     557.1554    568150.35    82.948995    82.761066    82.761066 
60300000     644.4585   -156981.39   -154315.78    329.91628    568150.35    83.011043     82.73013     82.73013 
60400000    645.57392    -156977.9   -154307.69    329.44793    568150.35    83.072352    82.699596    82.699596 
60500000    644.85954   -156972.37   -154305.11    288.04176    568150.35    83.132679    82.669584    82.669584 
60600000    643.83039   -156951.37   -154288.36    431.73806    568150.35    83.191786    82.640211    82.640211 
60700000    644.01406   -156982.33   -154318.56    201.13414    568150.35    83.249441    82.611589    82.611589 
60800000    644.05726   -156966.03   -154302.08    374.09797    568150.35    83.305415    82.583831    82.583831 
60900000    639.01601   -156967.82   -154324.72    421.60136    568150.35    83.359489    82.557041    82.557041 
61000000    645.58266   -156952.17   -154281.91     423.9874    568150.35    83.411447    82.531324    82.531324 
61100000    644.21659   -156969.11    -154304.5    329.84475    568150.35    83.461086    82.506778    82.506778 
61200000    645.59823    -156985.5   -154315.18    346.95942    568150.35    83.508209    82.483495    82.483495 
61300000    635.70085      -156984   -154354.61    220.47197    568150.35     83.55263    82.461566    82.461566 
61400000    641.51521   -156964.99   -154311.56    395.61964    568150.35    83.594175    82.441073    82.441073 
61500000    643.73812   -156952.78   -154290.15    402.16286    568150.35    83.632679    82.422093    82.422093 
61600000    644.93414   -156954.15   -154286.57    338.91613    568150.35     83.66799    82.404698    82.404698 
61700000     642.8085   -156976.02   -154317.24    351.73663    568150.35    83.699968    82.388955    82.388955 
61800000    643.35266   -156957.45   -154296.42    576.32006    568150.35    83.728489    82.374922    82.374922 
61900000    649.26463   -156965.71   -154280.23    520.36873    568150.35    83.753438    82.362651    82.362651 
62000000    643.48721   -156963.19    -154301.6    218.82889    568150.35    83.774718     82.35219     82.35219 
62100000    646.55699   -156954.33   -154280.05     473.1616    568150.35    83.792245    82.343577    82.343577 
62200000    640.47047    -156960.2   -154311.09    311.04147    568150.35    83.805949    82.336844    82.336844 
62300000    638.34705   -156971.54   -154331.21    359.78742    568150.35    83.815776    82.332017    82.332017 
62400000    644.76842    -156957.1   -154290.21    253.93905    568150.35    83.821688    82.329113    82.329113 
62500000    643.11148    -156955.8   -154295.76    535.39036    568150.35    83.823662    82.328144    82.328144 
62600000    646.06746   -156954.83   -154282.57    339.13538    568150.35    83.821688    82.329113    82.329113 
62700000    641.78808   -156944.21   -154289.65    469.80832    568150.35    83.815776    82.332017    82.332017 
62800000    646.68459   -156976.65   -154301.83    381.81469    568150.35    83.805949    82.336844    82.336844 
62900000    649.15595   -156950.38   -154265.35     616.8506    568150.35    83.792245    82.343577    82.343577 
63000000    646.17028   -156953.56   -154280.87    389.96294    568150.35    83.774718     82.35219     82.35219 
63100000    646.60827   -156972.23   -154297.73    324.77364    568150.35    83.753438    82.362651    82.362651 
63200000    647.43072   -156961.02   -154283.12     468.0625    568150.35    83.728489    82.374922    82.374922 
63300000    644.45061   -156984.57      -154319    198.62477    568150.35    83.699968    82.388955    82.388955 
63400000    643.46308   -156958.85   -154297.37    397.79314    568150.35     83.66799    82.404698    82.404698 
63500000    646.15922   -156955.35   -154282.71    389.54231    568150.35    83.632679    82.422093    82.422093 
63600000     646.9162   -156985.85   -154310.08    247.51142    568150.35    83.594175    82.441073    82.441073 
63700000    642.72617   -156991.06   -154332.62    250.02513    568150.35     83.55263    82.461566    82.461566 
63800000    641.90828   -156976.34   -154321.28    338.23914    568150.35    83.508209    82.483495    82.483495 
63900000    643.77014   -156949.39   -154286.63    390.43691    568150.35    83.461086    82.506778    82.506778 
64000000    640.98731    -156969.4   -154318.15    307.51451    568150.35    83.411447    82.531324    82.531324 
64100000    650.97038   -156972.01   -154279.47    287.26722    568150.35    83.359489    82.557041    82.557041 
64200000    646.63398   -156972.15   -154297.55    415.28237    568150.35    83.305415    82.583831    82.583831 
64300000    649.36921   -156964.94   -154279.03    342.16923    568150.35    83.249441    82.611589    82.611589 
64400000    647.26939   -156973.45   -154296.22    362.97828    568150.35    83.191786    82.640211    82.640211 
64500000    644.90347   -156972.89   -154305.44      227.765    568150.35    83.132679    82.669584    82.669584 
64600000    648.29182    -156984.5   -154303.04    190.82282    568150.35    83.072352    82.699596    82.699596 
64700000    649.28576   -156951.37    -154265.8    351.38255    568150.35    83.011043     82.73013     82.73013 
64800000    643.75382   -156987.29    -154324.6    144.11289    568150.35    82.948995    82.761066    82.761066 
64900000    644.30049   -156950.58   -154285.63     445.1915    568150.35    82.886452    82.792284    82.792284 
65000000    642.83104   -156978.42   -154319.54    39.759233    568150.35    82.823662    82.823662    82.823662 
65100000    646.50727   -156972.33   -154298.25    181.58037    568150.35    82.760871    82.855075    82.855075 
65200000    646.64316   -156969.63   -154294.99    376.95255    568150.35    82.698329      82.8864      82.8864 
65300000    645.21059   -156955.85   -154287.13    435.33449    568150.35     82.63628    82.917512    82.917512 
65400000    644.81748   -156972.44   -154305.35    226.39924    568150.35    82.574972    82.948287    82.948287 
65500000    645.38468   -156964.18   -154294.74     335.0586    568150.35    82.514645    82.978604    82.978604 
65600000    644.82113   -156959.96   -154292.85    394.47505    568150.35    82.455537     83.00834     83.00834 
65700000    643.98416   -156948.12   -154284.48    388.70399    568150.35    82.397882    83.037376    83.037376 
65800000    645.19908   -156970.56   -154301.89    253.29449    568150.35    82.341908    83.065595    83.065595 
65900000    642.27822   -156947.23   -154290.64    399.19929    568150.35    82.287835    83.092882    83.092882 
66000000    639.78005   -156954.81   -154308.55    274.53005    568150.35    82.235876    83.119128    83.119128 
66100000    639.24898   -156956.69   -154312.64    289.38199    568150.35    82.186238    83.144225    83.144225 
66200000    640.61988   -156950.11   -154300.39    360.58777    568150.35    82.139115    83.168072    83.168072 
66300000    645.79005   -156947.08   -154275.97    486.24727    568150.35    82.094693     83.19057     83.19057 
66400000    644.95134   -156946.49   -154278.84    445.47092    568150.35    82.053149    83.211627    83.211627 
66500000    641.42739   -156966.27    -154313.2    333.59874    568150.35    82.014645    83.231158    83.231158 
66600000    646.39383   -156931.79   -154258.17    442.04557    568150.35    81.979334    83.249081    83.249081 
66700000    645.52924   -156958.65   -154288.61    343.82583    568150.35    81.947355    83.265323    83.265323 
66800000     643.2458   -156962.97   -154302.38    389.16671    568150.35    81.918835    83.279816    83.279816 
66900000    642.79156   -156930.81    -154272.1    379.29613    568150.35    81.893885    83.292501    83.292501 
67000000    643.27235   -156970.32   -154309.62    221.77479    568150.35    81.872605    83.303325    83.303325 
67100000    642.62824    -156931.4   -154273.36    567.65816    568150.35    81.855079    83.312243    83.312243 
67200000    647.00223   -156950.59   -154274.46    407.71975    568150.35    81.841375    83.319218    83.319218 
67300000    643.05188   -156945.88   -154286.09    439.89396    568150.35    81.831547    83.324221    83.324221 
67400000    641.37875   -156964.24   -154311.37    375.64551    568150.35    81.825635    83.327231    83.327231 
67500000     648.7246   -156951.64   -154268.39    420.74759    568150.35    81.823662    83.328235    83.328235 
67600000    646.19236    -156963.4   -154290.62    399.12443    568150.35    81.825635    83.327231    83.327231 
67700000    645.39843   -156946.66   -154277.17    382.82393    568150.35    81.831547    83.324221    83.324221 
67800000    647.07995   -156960.86   -154284.41    350.81385    568150.35    81.841375    83.319218    83.319218 
67900000    642.92881   -156947.54   -154288.26    355.07988    568150.35    81.855079    83.312243    83.312243 
68000000     646.6517   -156958.71   -154284.03    411.47426    568150.35    81.872605    83.303325    83.303325 
68100000    647.34083   -156961.51   -154283.98    291.80649    568150.35    81.893885    83.292501    83.292501 
68200000    649.53993   -156971.55   -154284.93      468.552    568150.35    81.918835    83.279816    83.279816 
68300000    642.52356   -156972.54   -154314.94    212.20258    568150.35    81.947355    83.265323    83.265323 
[...]
83800000     647.6753   -156980.27   -154301.36    238.15671    568150.35    83.508209    82.483495    82.483495 
83900000    645.54625   -156944.16   -154274.06    476.94898    568150.35    83.461086    82.506778    82.506778 
84000000    649.49311   -156958.04   -154271.61    438.94449    568150.35    83.411447    82.531324    82.531324 
84100000    648.96501   -156977.96   -154293.72    337.33673    568150.35    83.359489    82.557041    82.557041 
84200000    643.85743   -156973.69   -154310.57    285.27775    568150.35    83.305415    82.583831    82.583831 
84300000    647.85361   -156988.02   -154308.37    283.43648    568150.35    83.249441    82.611589    82.611589 
84400000    642.98062   -156974.91   -154315.42    373.73573    568150.35    83.191786    82.640211    82.640211 
84500000    643.90629   -156993.31   -154329.99    72.288962    568150.35    83.132679    82.669584    82.669584 
84600000    647.58648   -156969.51   -154290.96    272.45321    568150.35    83.072352    82.699596    82.699596 
84700000    647.98979   -156956.94   -154276.72    570.91526    568150.35    83.011043     82.73013     82.73013 
84800000    647.96215   -156970.43   -154290.33    177.13396    568150.35    82.948995    82.761066    82.761066 
84900000    642.07025   -157004.97   -154349.25     71.20766    568150.35    82.886452    82.792284    82.792284 
85000000    642.42405   -156974.63   -154317.44    203.82571    568150.35    82.823662    82.823662    82.823662 
85100000    642.50987   -156985.71   -154328.16    218.37997    568150.35    82.760871    82.855075    82.855075 
85200000    644.92572   -156954.34   -154286.81    544.05639    568150.35    82.698329      82.8864      82.8864 
85300000    645.03963   -156984.61    -154316.6    263.62035    568150.35     82.63628    82.917512    82.917512 
85400000    642.01818   -156977.36   -154321.85    370.57886    568150.35    82.574972    82.948287    82.948287 
85500000    641.98871   -156965.74   -154310.35    381.19929    568150.35    82.514645    82.978604    82.978604 
85600000    644.76042   -156961.79   -154294.94    360.81189    568150.35    82.455537     83.00834     83.00834 
85700000    650.74465   -156956.78   -154265.17    443.36593    568150.35    82.397882    83.037376    83.037376 
85800000    644.10002   -156962.07   -154297.95    353.99961    568150.35    82.341908    83.065595    83.065595 
85900000     648.2164   -156959.83   -154278.68    389.98558    568150.35    82.287835    83.092882    83.092882 
86000000    646.44579   -156948.26   -154274.43    510.32289    568150.35    82.235876    83.119128    83.119128 
86100000    640.31419   -156979.96    -154331.5    153.42922    568150.35    82.186238    83.144225    83.144225 
86200000    644.68052   -156973.23    -154306.7    265.04566    568150.35    82.139115    83.168072    83.168072 
86300000    646.25133   -156949.53   -154276.51    252.49609    568150.35    82.094693     83.19057     83.19057 
86400000    642.23362   -156958.92   -154302.51    372.24453    568150.35    82.053149    83.211627    83.211627 
86500000    643.36007   -156978.02   -154316.96    348.71432    568150.35    82.014645    83.231158    83.231158 
86600000    644.01323   -156993.01   -154329.25    176.44387    568150.35    81.979334    83.249081    83.249081 
86700000    646.11847   -156962.99   -154290.52    327.28078    568150.35    81.947355    83.265323    83.265323 
86800000    645.28123   -156989.42   -154320.41    158.95081    568150.35    81.918835    83.279816    83.279816 
86900000    639.68081   -156953.24    -154307.4     435.5234    568150.35    81.893885    83.292501    83.292501 
87000000    647.97683   -156964.54   -154284.38    371.75766    568150.35    81.872605    83.303325    83.303325 
87100000    646.03859   -156952.16   -154280.02    351.61083    568150.35    81.855079    83.312243    83.312243 
87200000    643.90172   -156942.44   -154279.14    465.44405    568150.35    81.841375    83.319218    83.319218 
87300000    646.00636   -156962.33   -154290.32    178.75618    568150.35    81.831547    83.324221    83.324221 
87400000    647.43415   -156979.88   -154301.97    451.46529    568150.35    81.825635    83.327231    83.327231 
87500000    642.05563   -156976.92   -154321.26    248.06539    568150.35    81.823662    83.328235    83.328235 
87600000    647.66609   -156956.31   -154277.43    518.60955    568150.35    81.825635    83.327231    83.327231 
87700000    647.12528   -156946.81   -154270.17    576.38455    568150.35    81.831547    83.324221    83.324221 
87800000    646.61662   -156948.72   -154274.18     434.7388    568150.35    81.841375    83.319218    83.319218 
87900000    645.66189    -156950.5   -154279.92    452.47845    568150.35    81.855079    83.312243    83.312243 
88000000     643.1901   -156950.83   -154290.47     551.6558    568150.35    81.872605    83.303325    83.303325 
88100000    644.98934   -156965.36   -154297.56    448.64657    568150.35    81.893885    83.292501    83.292501 
88200000    645.67308   -156959.95   -154289.32    317.75071    568150.35    81.918835    83.279816    83.279816 
88300000    646.31859   -156954.54   -154281.24    452.90958    568150.35    81.947355    83.265323    83.265323 
88400000    644.51579   -156962.77   -154296.93    290.33046    568150.35    81.979334    83.249081    83.249081 
88500000     642.5479   -156969.48   -154311.77    221.23138    568150.35    82.014645    83.231158    83.231158 
88600000    644.82023   -156965.17   -154298.07    391.43435    568150.35    82.053149    83.211627    83.211627 
88700000    651.72201   -156946.41   -154250.76    408.32006    568150.35    82.094693     83.19057     83.19057 
88800000     645.9608   -156972.49   -154300.67    450.28756    568150.35    82.139115    83.168072    83.168072 
88900000    648.71202   -156976.46   -154293.26    281.89304    568150.35    82.186238    83.144225    83.144225 
89000000    643.07662   -156990.15   -154330.26    189.92129    568150.35    82.235876    83.119128    83.119128 
89100000     642.0058   -156991.77   -154336.31    37.594386    568150.35    82.287835    83.092882    83.092882 
89200000    645.71529   -156978.31    -154307.5    257.02099    568150.35    82.341908    83.065595    83.065595 
89300000    642.82693    -156987.2   -154328.35    115.96679    568150.35    82.397882    83.037376    83.037376 
89400000    643.91752   -156946.09   -154282.73    593.56136    568150.35    82.455537     83.00834     83.00834 
89500000    652.18583   -156966.53   -154268.96    380.24528    568150.35    82.514645    82.978604    82.978604 
89600000    651.16878   -156992.22   -154298.86    150.91127    568150.35    82.574972    82.948287    82.948287 
89700000    645.29225   -156954.53   -154285.47    355.26881    568150.35     82.63628    82.917512    82.917512 
89800000    641.08166   -156980.29   -154328.65    93.306643    568150.35    82.698329      82.8864      82.8864 
89900000    643.16314   -156961.46   -154301.21    362.00362    568150.35    82.760871    82.855075    82.855075 
90000000     645.6105   -156976.87   -154306.49    179.47261    568150.35    82.823662    82.823662    82.823662 
90100000    647.02454   -156983.37   -154307.15    140.56521    568150.35    82.886452    82.792284    82.792284 
90200000    642.00971   -156963.83   -154308.35    417.55996    568150.35    82.948995    82.761066    82.761066 
90300000     644.9727   -156991.82   -154324.08    137.27018    568150.35    83.011043     82.73013     82.73013 
90400000    647.96269   -156981.18   -154301.08    234.05741    568150.35    83.072352    82.699596    82.699596 
90500000    641.32672   -156974.41   -154321.76    168.85168    568150.35    83.132679    82.669584    82.669584 
90600000    639.45169      -156976   -154331.11    283.78082    568150.35    83.191786    82.640211    82.640211 
90700000    643.49427   -156984.23   -154322.61    289.56216    568150.35    83.249441    82.611589    82.611589 
90800000    642.10596   -156991.57    -154335.7    146.34349    568150.35    83.305415    82.583831    82.583831 
90900000    645.66725   -156972.27   -154301.66    123.58148    568150.35    83.359489    82.557041    82.557041 
91000000    644.63885   -156978.93   -154312.58    248.31703    568150.35    83.411447    82.531324    82.531324 
91100000     646.1596   -156967.82   -154295.18    219.57305    568150.35    83.461086    82.506778    82.506778 
91200000     645.6076    -156981.7   -154311.34    166.61261    568150.35    83.508209    82.483495    82.483495 
91300000    644.75555   -156948.89   -154282.06    458.10634    568150.35     83.55263    82.461566    82.461566 
91400000    643.85171   -156956.55   -154293.46    334.90274    568150.35    83.594175    82.441073    82.441073 
91500000    644.53071   -156981.85   -154315.95    188.82612    568150.35    83.632679    82.422093    82.422093 
91600000    641.54992   -156976.98    -154323.4    68.965317    568150.35     83.66799    82.404698    82.404698 
91700000    646.54563   -156968.62   -154294.38    264.39842    568150.35    83.699968    82.388955    82.388955 
91800000    648.27345   -156947.14   -154265.75    432.44385    568150.35    83.728489    82.374922    82.374922 
91900000    647.60363    -156944.9   -154266.28    343.79009    568150.35    83.753438    82.362651    82.362651 
92000000    639.10021   -156977.49   -154334.05    267.86388    568150.35    83.774718     82.35219     82.35219 
92100000    642.84415   -156960.29   -154301.36    268.49649    568150.35    83.792245    82.343577    82.343577 
92200000    647.06207   -156958.05   -154281.68    427.11205    568150.35    83.805949    82.336844    82.336844 
92300000    647.17094   -156967.81   -154290.98    273.83594    568150.35    83.815776    82.332017    82.332017 
92400000    647.93202   -156937.84   -154257.87    542.99263    568150.35    83.821688    82.329113    82.329113 
92500000    644.32923   -156951.63   -154286.55    303.73656    568150.35    83.823662    82.328144    82.328144 
92600000    644.38091   -156947.95   -154282.67     522.5756    568150.35    83.821688    82.329113    82.329113 
92700000    645.06473    -156963.9   -154295.78    269.85467    568150.35    83.815776    82.332017    82.332017 
92800000    642.09186    -156960.4   -154304.59    349.02348    568150.35    83.805949    82.336844    82.336844 
92900000    644.04066   -156980.37   -154316.49   -36.291901    568150.35    83.792245    82.343577    82.343577 
93000000    643.38737   -156982.99   -154321.82     64.94649    568150.35    83.774718     82.35219     82.35219 
93100000    644.85104   -156963.57   -154296.34     266.2354    568150.35    83.753438    82.362651    82.362651 
93200000    649.99731   -156969.42   -154280.91    357.57422    568150.35    83.728489    82.374922    82.374922 
93300000    651.42573    -156988.6   -154294.18    229.98897    568150.35    83.699968    82.388955    82.388955 
93400000     646.0816   -156980.55   -154308.23    61.584724    568150.35     83.66799    82.404698    82.404698 
93500000    643.75186   -156962.85   -154300.17    177.50601    568150.35    83.632679    82.422093    82.422093 
93600000    640.86297   -156988.21   -154337.47    54.148097    568150.35    83.594175    82.441073    82.441073 
93700000     643.9823   -156993.03    -154329.4    135.10393    568150.35     83.55263    82.461566    82.461566 
93800000    649.14685   -156979.21   -154294.21    101.11112    568150.35    83.508209    82.483495    82.483495 
93900000    645.60938   -156961.68   -154291.31    226.92068    568150.35    83.461086    82.506778    82.506778 
94000000    647.95146   -157008.52   -154328.47   -116.03228    568150.35    83.411447    82.531324    82.531324 
94100000     645.2534   -156988.67   -154319.78    110.49867    568150.35    83.359489    82.557041    82.557041 
94200000     639.9352   -156973.11   -154326.22    239.14605    568150.35    83.305415    82.583831    82.583831 
94300000      641.073   -156996.63   -154345.03    84.535968    568150.35    83.249441    82.611589    82.611589 
94400000    644.32687    -157005.2   -154340.14   -57.690102    568150.35    83.191786    82.640211    82.640211 
94500000    646.41542   -157011.59   -154337.89   -58.006686    568150.35    83.132679    82.669584    82.669584 
94600000    643.75048   -157002.22   -154339.54   -79.804323    568150.35    83.072352    82.699596    82.699596 
94700000    648.11982   -156983.35    -154302.6    161.97979    568150.35    83.011043     82.73013     82.73013 
94800000    651.00568   -157005.46   -154312.78    176.26865    568150.35    82.948995    82.761066    82.761066 
94900000    647.42166   -156952.39   -154274.53       383.55    568150.35    82.886452    82.792284    82.792284 
95000000    643.29393   -156987.24   -154326.45   -28.949668    568150.35    82.823662    82.823662    82.823662 
95100000    647.27759    -156982.9   -154305.63    302.95801    568150.35    82.760871    82.855075    82.855075 
95200000    648.27907   -156974.79   -154293.38    126.18803    568150.35    82.698329      82.8864      82.8864 
95300000    645.27641   -156974.69    -154305.7    240.10579    568150.35     82.63628    82.917512    82.917512 
95400000    644.88804      -156987   -154319.62    142.49066    568150.35    82.574972    82.948287    82.948287 
95500000    647.93809   -156949.64   -154269.64    386.88061    568150.35    82.514645    82.978604    82.978604 
95600000    643.39488   -156999.21   -154338.01    113.97149    568150.35    82.455537     83.00834     83.00834 
95700000    646.71301    -156972.1   -154297.17    195.76634    568150.35    82.397882    83.037376    83.037376 
95800000     645.9818   -156967.75   -154295.84    288.45799    568150.35    82.341908    83.065595    83.065595 
95900000    644.83061   -156949.71   -154282.56    296.46022    568150.35    82.287835    83.092882    83.092882 
96000000    646.25656   -156985.93   -154312.89    127.09659    568150.35    82.235876    83.119128    83.119128 
96100000    645.63436   -156976.36   -154305.89    446.76674    568150.35    82.186238    83.144225    83.144225 
96200000    646.99443   -156978.89   -154302.79    157.59964    568150.35    82.139115    83.168072    83.168072 
96300000    645.51741   -156963.54   -154293.55     242.5597    568150.35    82.094693     83.19057     83.19057 
96400000    641.12368   -156981.22    -154329.4     110.8072    568150.35    82.053149    83.211627    83.211627 
96500000    645.88274   -156988.74   -154317.24    94.031957    568150.35    82.014645    83.231158    83.231158 
96600000    646.27945   -156968.37   -154295.24    127.25966    568150.35    81.979334    83.249081    83.249081 
96700000    647.57567   -156970.73   -154292.23    89.695889    568150.35    81.947355    83.265323    83.265323 
96800000    649.53795   -156965.28   -154278.66    220.90989    568150.35    81.918835    83.279816    83.279816 
96900000    644.96131    -156965.3   -154297.61    358.64796    568150.35    81.893885    83.292501    83.292501 
97000000    642.99413   -156971.26   -154311.71    259.21855    568150.35    81.872605    83.303325    83.303325 
97100000    648.40858   -156992.53   -154310.58    212.59904    568150.35    81.855079    83.312243    83.312243 
97200000    641.27808   -156969.54   -154317.09    161.19785    568150.35    81.841375    83.319218    83.319218 
97300000    643.01311   -156944.17   -154284.55     503.3244    568150.35    81.831547    83.324221    83.324221 
97400000    649.11359   -156953.26    -154268.4    183.50524    568150.35    81.825635    83.327231    83.327231 
97500000    643.88087    -156958.9   -154295.69     206.5906    568150.35    81.823662    83.328235    83.328235 
97600000    646.67734   -156961.04   -154286.26    291.06129    568150.35    81.825635    83.327231    83.327231 
97700000    642.05799   -156971.41   -154315.73    189.69986    568150.35    81.831547    83.324221    83.324221 
97800000     647.0671   -156984.72   -154308.33     131.4584    568150.35    81.841375    83.319218    83.319218 
97900000    639.77851   -156963.51   -154317.26    230.73255    568150.35    81.855079    83.312243    83.312243 
98000000    645.32772   -156957.84   -154288.63    262.58848    568150.35    81.872605    83.303325    83.303325 
98100000    639.47176   -156985.43   -154340.45     121.6869    568150.35    81.893885    83.292501    83.292501 
98200000    644.57627   -156981.15   -154315.06    210.60986    568150.35    81.918835    83.279816    83.279816 
98300000    647.27446   -156948.97   -154271.72    367.02734    568150.35    81.947355    83.265323    83.265323 
98400000    641.08389   -156964.67   -154313.03    314.77732    568150.35    81.979334    83.249081    83.249081 
98500000    641.51584   -156961.36   -154307.92    239.74615    568150.35    82.014645    83.231158    83.231158 
98600000    643.65771   -156970.26   -154307.96    227.69258    568150.35    82.053149    83.211627    83.211627 
98700000    644.48347   -156959.12   -154293.41    248.17193    568150.35    82.094693     83.19057     83.19057 
98800000    647.13914    -156961.6   -154284.91    332.76589    568150.35    82.139115    83.168072    83.168072 
98900000    644.85333   -156984.57   -154317.33    93.207415    568150.35    82.186238    83.144225    83.144225 
99000000    646.31161   -156973.81   -154300.54    126.19732    568150.35    82.235876    83.119128    83.119128 
99100000    643.37063   -156962.08   -154300.98    316.02732    568150.35    82.287835    83.092882    83.092882 
99200000    642.33975   -156958.13   -154301.29    250.06278    568150.35    82.341908    83.065595    83.065595 
99300000    646.06055   -156983.42   -154311.19    220.22934    568150.35    82.397882    83.037376    83.037376 
99400000    643.01338   -156981.49   -154321.86    154.51674    568150.35    82.455537     83.00834     83.00834 
99500000    646.76024   -156960.14   -154285.01    275.91086    568150.35    82.514645    82.978604    82.978604 
99600000    646.68917   -156960.15   -154285.32    326.37627    568150.35    82.574972    82.948287    82.948287 
99700000    649.01376   -156960.69   -154276.24     223.2716    568150.35     82.63628    82.917512    82.917512 
99800000    642.80121   -156981.11   -154322.36    24.329517    568150.35    82.698329      82.8864      82.8864 
99900000    646.19621   -156978.02   -154305.23    226.74441    568150.35    82.760871    82.855075    82.855075 
100000000    642.55868   -156966.79   -154309.04    156.28765    568150.35    82.823662    82.823662    82.823662 
Loop time of 60095.7 on 104 procs for 100000000 steps with 32000 atoms

Performance: 1437.707 ns/day, 0.017 hours/ns, 1664.013 timesteps/s
99.5% CPU use with 104 MPI tasks x 1 OpenMP threads

MPI task timing breakdown:
Section |  min time  |  avg time  |  max time  |%varavg| %total
---------------------------------------------------------------
Pair    | 34999      | 35679      | 36831      | 240.5 | 59.37
Neigh   | 2370.2     | 2528.8     | 2675.5     | 145.7 |  4.21
Comm    | 11961      | 12888      | 14012      | 433.1 | 21.45
Output  | 0.40069    | 0.40428    | 0.54766    |   2.2 |  0.00
Modify  | 7334.7     | 7970.6     | 8659.4     | 372.6 | 13.26
Other   |            | 1029       |            |       |  1.71

Nlocal:        307.692 ave         321 max         290 min
Histogram: 2 2 4 8 13 28 24 12 8 3
Nghost:        2591.91 ave        2622 max        2555 min
Histogram: 2 4 9 11 16 18 18 8 13 5
Neighs:        22348.4 ave       24342 max       19957 min
Histogram: 1 4 11 11 12 24 16 15 5 5

Total # of neighbors = 2324238
Ave neighs/atom = 72.632437
Neighbor list builds = 10636768
Dangerous builds = 0
clear
OMP_NUM_THREADS environment is not set. Defaulting to 1 thread. (../comm.cpp:94)
  using 1 OpenMP thread(s) per MPI task
package intel 1
jump dms655.lmp
#MD-DMS by Ha-Bin Yu
#package gpu 4
variable T equal 655
log log.${T}
log log.655
