units           metal
boundary        p p p
atom_style      atomic
read_data      ../../restart/T${T}.dat
read_data      ../../restart/T665.dat
Reading data file ...
  orthogonal box = (-2.5121807 -2.5121807 -2.5121807) to (80.346958 80.346958 80.346958)
  4 by 2 by 13 MPI processor grid
  reading atoms ...
  32000 atoms
  reading velocities ...
  32000 velocities
  read_data CPU = 0.141 seconds
pair_style      eam/alloy
pair_coeff      * *  ../../ZrCu.lammps.eam Zr Cu
mass 1 91.224
mass 2 63.546
neighbor            2.0 bin
neigh_modify     delay 1
timestep 0.01
thermo 100000
reset_timestep 0
thermo_style custom step temp pe etotal press vol lx ly lz
fix             1 all nvt temp ${T} ${T} 0.1
fix             1 all nvt temp 665 ${T} 0.1
fix             1 all nvt temp 665 665 0.1
thermo_modify flush yes
fix nodrift all momentum 1  linear 1 1 1
fix com_seed all recenter INIT INIT INIT shift all
fix dsf all deform 1 x  wiggle 1.0  100000.0 y volume z volume units box
fix ps1 all ave/time 1 1 100000 c_thermo_press[1] c_thermo_press[2]  c_thermo_press[3] c_thermo_press[4]  c_thermo_press[5] c_thermo_press[6]  file  stress.${T}
fix ps1 all ave/time 1 1 100000 c_thermo_press[1] c_thermo_press[2]  c_thermo_press[3] c_thermo_press[4]  c_thermo_press[5] c_thermo_press[6]  file  stress.665
dump            1 all custom 10000000 dump.${T} id type x y z
dump            1 all custom 10000000 dump.665 id type x y z
dump_modify 1 sort id
run 100000000
Neighbor list info ...
  update every 1 steps, delay 1 steps, check yes
  max neighbors/atom: 2000, page size: 100000
  master list distance cutoff = 8.5
  ghost atom cutoff = 8.5
  binsize = 4.25, bins = 20 20 20
  1 neighbor lists, perpetual/occasional/extra = 1 0 0
  (1) pair eam/alloy/intel, perpetual
      attributes: half, newton on, intel
      pair build: half/bin/newton/intel
      stencil: half/bin/3d/newton
      bin: intel
Per MPI rank memory allocation (min/avg/max) = 7.337 | 7.467 | 7.601 Mbytes
Step Temp PotEng TotEng Press Volume Lx Ly Lz 
       0    665.21959   -156846.84   -154095.36   -270.18177    568880.76    82.859139    82.859139    82.859139 
  100000    666.21702   -156809.95   -154054.35    67.223481    568880.76    82.921929    82.827761    82.827761 
  200000    665.96817   -156817.78   -154063.21   -97.481022    568880.76    82.984472    82.796543    82.796543 
  300000     669.3087   -156816.15   -154047.76     33.65035    568880.76     83.04652    82.765607    82.765607 
  400000    663.17177   -156804.54   -154061.53    179.14498    568880.76    83.107829    82.735073    82.735073 
  500000    662.10415   -156780.47   -154041.87   -59.208674    568880.76    83.168156    82.705061    82.705061 
  600000    667.75257   -156784.16   -154022.21    304.07497    568880.76    83.227263    82.675688    82.675688 
  700000    662.15317    -156785.9   -154047.11     151.2713    568880.76    83.284918    82.647066    82.647066 
  800000    666.67422    -156775.8    -154018.3    287.46581    568880.76    83.340892    82.619307    82.619307 
  900000    663.73316    -156817.8   -154072.47   -67.508843    568880.76    83.394966    82.592518    82.592518 
 1000000    662.48419   -156808.55   -154068.38    73.052535    568880.76    83.446924    82.566801    82.566801 
 1100000    662.61207   -156790.69      -154050    265.39751    568880.76    83.496563    82.542254    82.542254 
 1200000    664.15158    -156764.6   -154017.54    460.98367    568880.76    83.543686    82.518972    82.518972 
 1300000    661.60033   -156830.41    -154093.9   -170.27548    568880.76    83.588107    82.497042    82.497042 
 1400000    661.36174   -156784.35   -154048.82    173.39303    568880.76    83.629652    82.476548    82.476548 
 1500000    666.68986   -156792.67   -154035.11    232.27052    568880.76    83.668156    82.457569    82.457569 
 1600000    662.55786   -156802.21   -154061.74    218.10571    568880.76    83.703467    82.440174    82.440174 
 1700000    666.58712   -156803.98   -154046.85    151.95683    568880.76    83.735446    82.424431    82.424431 
 1800000    661.14632   -156798.48   -154063.85      142.051    568880.76    83.763966    82.410397    82.410397 
 1900000    665.24515   -156799.39    -154047.8    26.740588    568880.76    83.788915    82.398127    82.398127 
 2000000    665.42283   -156788.49   -154036.17    237.22308    568880.76    83.810195    82.387665    82.387665 
 2100000    667.40248   -156782.32   -154021.81    312.90128    568880.76    83.827722    82.379052    82.379052 
 2200000    663.05112    -156775.4   -154032.89    289.16059    568880.76    83.841426    82.372319    82.372319 
 2300000    665.60119   -156781.93   -154028.87    52.314859    568880.76    83.851254    82.367492    82.367492 
 2400000    665.23661   -156811.51   -154059.96   -87.777827    568880.76    83.857166    82.364589    82.364589 
 2500000    665.57953   -156783.42   -154030.45    111.85969    568880.76    83.859139     82.36362     82.36362 
 2600000    663.60896   -156801.87   -154057.05    38.834488    568880.76    83.857166    82.364589    82.364589 
 2700000    666.71004   -156768.46   -154010.82    336.36852    568880.76    83.851254    82.367492    82.367492 
 2800000    665.04193    -156790.5   -154039.76    128.03023    568880.76    83.841426    82.372319    82.372319 
 2900000    665.32178      -156768    -154016.1    304.99929    568880.76    83.827722    82.379052    82.379052 
 3000000    667.12558   -156799.47   -154040.11    20.235028    568880.76    83.810195    82.387665    82.387665 
 3100000    661.77085   -156782.16   -154044.94    149.56328    568880.76    83.788915    82.398127    82.398127 
 3200000     666.1397   -156802.66   -154047.38     45.86963    568880.76    83.763966    82.410397    82.410397 
 3300000    662.33665    -156797.9   -154058.35    83.207375    568880.76    83.735446    82.424431    82.424431 
 3400000    667.54892   -156793.82    -154032.7    79.892113    568880.76    83.703467    82.440174    82.440174 
 3500000    664.11917   -156776.23    -154029.3     201.8155    568880.76    83.668156    82.457569    82.457569 
 3600000    666.33642   -156794.65   -154038.56    209.13403    568880.76    83.629652    82.476548    82.476548 
 3700000    660.72739   -156793.54   -154060.64    55.565536    568880.76    83.588107    82.497042    82.497042 
 3800000    662.26839   -156784.67    -154045.4    122.26951    568880.76    83.543686    82.518972    82.518972 
 3900000    668.80933   -156807.85   -154041.53    18.434209    568880.76    83.496563    82.542254    82.542254 
 4000000    664.00807   -156777.27   -154030.81    291.27755    568880.76    83.446924    82.566801    82.566801 
 4100000    661.19796   -156772.32   -154037.47    287.83758    568880.76    83.394966    82.592518    82.592518 
 4200000    662.70901   -156799.22   -154058.13   -31.375905    568880.76    83.340892    82.619307    82.619307 
 4300000    661.25131   -156787.44   -154052.38    190.00497    568880.76    83.284918    82.647066    82.647066 
 4400000    665.30191   -156803.04   -154051.22   -41.834285    568880.76    83.227263    82.675688    82.675688 
 4500000    665.69016   -156805.02   -154051.59    78.441871    568880.76    83.168156    82.705061    82.705061 
 4600000    663.55716   -156825.38   -154080.78   -70.826936    568880.76    83.107829    82.735073    82.735073 
 4700000     664.5829   -156788.88   -154040.04    297.42785    568880.76     83.04652    82.765607    82.765607 
 4800000    663.63738   -156806.37   -154061.44   -59.248025    568880.76    82.984472    82.796543    82.796543 
 4900000    661.59204   -156789.48      -154053    142.24558    568880.76    82.921929    82.827761    82.827761 
 5000000     662.0889   -156790.28   -154051.75    44.560548    568880.76    82.859139    82.859139    82.859139 
 5100000    660.80578   -156825.03   -154091.81    70.993144    568880.76    82.796348    82.890552    82.890552 
 5200000    664.57781    -156787.6   -154038.78    137.53554    568880.76    82.733806    82.921877    82.921877 
 5300000    661.17646   -156799.83   -154065.08    212.46204    568880.76    82.671758    82.952989    82.952989 
 5400000    669.46629   -156800.89   -154031.84    75.353969    568880.76    82.610449    82.983764    82.983764 
 5500000    670.14066   -156766.64   -153994.81    348.94915    568880.76    82.550122    83.014081    83.014081 
 5600000    664.17634   -156796.21   -154049.05    146.40447    568880.76    82.491014    83.043817    83.043817 
 5700000    664.39687   -156791.36   -154043.29     193.8395    568880.76     82.43336    83.072852    83.072852 
 5800000     664.8955   -156789.47   -154039.34    262.79141    568880.76    82.377385    83.101071    83.101071 
 5900000    661.57985   -156810.64   -154074.21   -99.340761    568880.76    82.323312    83.128359    83.128359 
 6000000    664.26625   -156815.97   -154068.43    4.2233557    568880.76    82.271354    83.154604    83.154604 
 6100000    666.08122   -156784.26   -154029.22     186.3113    568880.76    82.221715    83.179702    83.179702 
 6200000    659.82314   -156794.28   -154065.13    244.67209    568880.76    82.174592    83.203548    83.203548 
 6300000    661.74795   -156781.01   -154043.89    246.39561    568880.76     82.13017    83.226046    83.226046 
 6400000    662.87819    -156779.4   -154037.61     86.13423    568880.76    82.088626    83.247103    83.247103 
 6500000    661.88089   -156781.36   -154043.69     128.9185    568880.76    82.050122    83.266634    83.266634 
 6600000    660.86018   -156808.35    -154074.9     118.2089    568880.76    82.014811    83.284557    83.284557 
 6700000    667.42724   -156819.41    -154058.8    -122.0014    568880.76    81.982832    83.300798    83.300798 
 6800000    669.86545   -156792.34   -154021.64    133.62191    568880.76    81.954312    83.315292    83.315292 
 6900000    668.33281   -156815.71   -154051.35   0.41256757    568880.76    81.929362    83.327976    83.327976 
 7000000    661.48199   -156788.85   -154052.83    48.456551    568880.76    81.908082      83.3388      83.3388 
 7100000    662.83481   -156799.12    -154057.5   -94.603275    568880.76    81.890556    83.347718    83.347718 
 7200000    665.78585   -156829.54   -154075.72   -252.89466    568880.76    81.876852    83.354693    83.354693 
 7300000    659.36206   -156800.27   -154073.02   -44.041931    568880.76    81.867024    83.359696    83.359696 
 7400000     670.5151   -156780.63   -154007.25    277.56764    568880.76    81.861112    83.362706    83.362706 
 7500000    666.86624    -156820.9   -154062.61    13.742157    568880.76    81.859139    83.363711    83.363711 
 7600000    665.24858   -156806.15   -154054.56     21.41878    568880.76    81.861112    83.362706    83.362706 
 7700000     665.7484    -156786.6   -154032.93    128.21881    568880.76    81.867024    83.359696    83.359696 
 7800000    660.07062   -156790.58    -154060.4    177.35941    568880.76    81.876852    83.354693    83.354693 
 7900000    663.22481    -156820.4   -154077.17   -35.506812    568880.76    81.890556    83.347718    83.347718 
 8000000    666.51592    -156811.9   -154055.06    277.75472    568880.76    81.908082      83.3388      83.3388 
 8100000    663.06336   -156810.86   -154068.31    34.578879    568880.76    81.929362    83.327976    83.327976 
 8200000    665.86909   -156806.41   -154052.24    148.66003    568880.76    81.954312    83.315292    83.315292 
 8300000     660.7214   -156797.69   -154064.81    254.54844    568880.76    81.982832    83.300798    83.300798 
 8400000    670.33244   -156794.76   -154022.14    202.51179    568880.76    82.014811    83.284557    83.284557 
 8500000     667.8023   -156797.27   -154035.11    146.38044    568880.76    82.050122    83.266634    83.266634 
 8600000    666.38168   -156797.39   -154041.11    221.16364    568880.76    82.088626    83.247103    83.247103 
 8700000     668.0431   -156802.39   -154039.23    172.06603    568880.76     82.13017    83.226046    83.226046 
 8800000    669.97208   -156834.25   -154063.11    23.752158    568880.76    82.174592    83.203548    83.203548 
 8900000    662.72271   -156816.96    -154075.8    39.974597    568880.76    82.221715    83.179702    83.179702 
 9000000     667.3421   -156808.49   -154048.24    135.36938    568880.76    82.271354    83.154604    83.154604 
 9100000    668.10201   -156807.61   -154044.21    -6.221474    568880.76    82.323312    83.128359    83.128359 
 9200000    668.21728   -156811.82   -154047.94      151.871    568880.76    82.377385    83.101071    83.101071 
 9300000    662.97434   -156823.37   -154081.18   -18.200611    568880.76     82.43336    83.072852    83.072852 
 9400000    660.14154   -156810.37    -154079.9   -3.5612438    568880.76    82.491014    83.043817    83.043817 
 9500000    663.49231   -156848.67   -154104.33   -242.26932    568880.76    82.550122    83.014081    83.014081 
 9600000    666.75037   -156817.08   -154059.27    118.13029    568880.76    82.610449    82.983764    82.983764 
 9700000    659.73127   -156825.92   -154097.14   -231.69545    568880.76    82.671758    82.952989    82.952989 
 9800000    666.96428   -156802.97   -154044.28    142.58254    568880.76    82.733806    82.921877    82.921877 
 9900000    664.46072   -156831.42   -154083.09   -147.35368    568880.76    82.796348    82.890552    82.890552 
10000000    662.95017   -156831.16   -154089.07   -135.82723    568880.76    82.859139    82.859139    82.859139 
10100000    662.73526   -156820.14   -154078.94   -36.572703    568880.76    82.921929    82.827761    82.827761 
10200000    667.14898   -156805.22   -154045.76   -26.644584    568880.76    82.984472    82.796543    82.796543 
10300000    668.96509   -156811.56   -154044.58    101.45584    568880.76     83.04652    82.765607    82.765607 
10400000    660.75973   -156817.26   -154084.23   -88.111651    568880.76    83.107829    82.735073    82.735073 
10500000    662.67822   -156813.73   -154072.77   -21.359492    568880.76    83.168156    82.705061    82.705061 
10600000    666.44539   -156840.64   -154084.09   -235.09557    568880.76    83.227263    82.675688    82.675688 
10700000    668.30192   -156795.87   -154031.65    49.943325    568880.76    83.284918    82.647066    82.647066 
10800000     664.6205   -156817.83   -154068.83   -21.510043    568880.76    83.340892    82.619307    82.619307 
10900000      664.848   -156818.49   -154068.55   -70.153993    568880.76    83.394966    82.592518    82.592518 
11000000    664.81078   -156837.16   -154087.37   -32.351157    568880.76    83.446924    82.566801    82.566801 
11100000     668.4736   -156829.16   -154064.23   -35.384812    568880.76    83.496563    82.542254    82.542254 
11200000    664.30509   -156797.12   -154049.42   -89.644119    568880.76    83.543686    82.518972    82.518972 
11300000    660.06137   -156819.95    -154089.8    -56.17804    568880.76    83.588107    82.497042    82.497042 
11400000    666.06631   -156797.05   -154042.07    169.96375    568880.76    83.629652    82.476548    82.476548 
11500000    667.77674   -156796.01   -154033.95    22.836404    568880.76    83.668156    82.457569    82.457569 
11600000    664.29027   -156820.23    -154072.6   -9.4722809    568880.76    83.703467    82.440174    82.440174 
11700000    667.03436    -156783.2   -154024.22    247.97495    568880.76    83.735446    82.424431    82.424431 
11800000    667.73962   -156813.02   -154051.11    71.647955    568880.76    83.763966    82.410397    82.410397 
11900000    667.07624   -156808.48   -154049.32    24.967013    568880.76    83.788915    82.398127    82.398127 
12000000    665.44158   -156793.61   -154041.22    299.15206    568880.76    83.810195    82.387665    82.387665 
12100000    669.01759   -156801.07   -154033.89    161.06819    568880.76    83.827722    82.379052    82.379052 
12200000    662.46091   -156818.58   -154078.51   -47.806878    568880.76    83.841426    82.372319    82.372319 
12300000    662.04188   -156810.39   -154072.06    104.11903    568880.76    83.851254    82.367492    82.367492 
12400000    661.47286   -156797.02   -154061.04    216.34897    568880.76    83.857166    82.364589    82.364589 
12500000    667.38225   -156799.49   -154039.07    206.24412    568880.76    83.859139     82.36362     82.36362 
12600000     663.7374   -156799.11   -154053.76    368.55354    568880.76    83.857166    82.364589    82.364589 
12700000    666.99439   -156807.38   -154048.56    13.905551    568880.76    83.851254    82.367492    82.367492 
12800000    667.20776   -156779.56   -154019.86    336.70956    568880.76    83.841426    82.372319    82.372319 
12900000    664.26919   -156817.21   -154069.67   -37.602935    568880.76    83.827722    82.379052    82.379052 
13000000     666.0518   -156805.41   -154050.49    110.41495    568880.76    83.810195    82.387665    82.387665 
13100000    664.89011   -156804.58   -154054.47    233.03411    568880.76    83.788915    82.398127    82.398127 
13200000    666.31722   -156823.84   -154067.82     42.13213    568880.76    83.763966    82.410397    82.410397 
13300000    671.37623   -156824.63   -154047.69    181.68518    568880.76    83.735446    82.424431    82.424431 
13400000    665.57974   -156807.42   -154054.46    222.49883    568880.76    83.703467    82.440174    82.440174 
13500000    664.99449   -156814.36   -154063.81    289.14701    568880.76    83.668156    82.457569    82.457569 
13600000    665.35161    -156817.2   -154065.18    172.29185    568880.76    83.629652    82.476548    82.476548 
13700000    664.16422   -156825.64   -154078.53    141.06236    568880.76    83.588107    82.497042    82.497042 
13800000    666.50243   -156806.75   -154049.96    201.63472    568880.76    83.543686    82.518972    82.518972 
13900000    662.63173   -156824.81   -154084.04   -66.581069    568880.76    83.496563    82.542254    82.542254 
14000000    665.03926    -156813.4   -154062.67    152.63861    568880.76    83.446924    82.566801    82.566801 
14100000     663.5785   -156823.64   -154078.95    164.56253    568880.76    83.394966    82.592518    82.592518 
14200000    663.10762   -156834.29   -154091.55    12.377013    568880.76    83.340892    82.619307    82.619307 
14300000    660.78976   -156839.79   -154106.64   -123.62939    568880.76    83.284918    82.647066    82.647066 
14400000    665.14483   -156817.27    -154066.1    35.971036    568880.76    83.227263    82.675688    82.675688 
14500000    668.17485   -156803.98   -154040.28    268.14458    568880.76    83.168156    82.705061    82.705061 
14600000    667.69563   -156819.82    -154058.1   -88.281375    568880.76    83.107829    82.735073    82.735073 
14700000    666.96228   -156815.89    -154057.2   -88.180405    568880.76     83.04652    82.765607    82.765607 
14800000    664.26735   -156823.62   -154076.08    139.52001    568880.76    82.984472    82.796543    82.796543 
14900000    659.93065   -156824.98   -154095.38   -211.39281    568880.76    82.921929    82.827761    82.827761 
15000000    665.19829   -156816.15   -154064.76    18.638076    568880.76    82.859139    82.859139    82.859139 
15100000    661.11674   -156813.87   -154079.36    41.191783    568880.76    82.796348    82.890552    82.890552 
15200000    665.00804   -156798.81    -154048.2    404.02098    568880.76    82.733806    82.921877    82.921877 
15300000    668.10393   -156812.33   -154048.92    221.49403    568880.76    82.671758    82.952989    82.952989 
15400000    662.30908   -156824.16   -154084.72   -79.045406    568880.76    82.610449    82.983764    82.983764 
15500000    665.59898   -156800.82   -154047.77    114.45572    568880.76    82.550122    83.014081    83.014081 
15600000    661.01662   -156821.77   -154087.68    108.14955    568880.76    82.491014    83.043817    83.043817 
15700000    664.97159   -156808.31   -154057.86    331.84965    568880.76     82.43336    83.072852    83.072852 
15800000    662.38625   -156825.39   -154085.63   -251.27844    568880.76    82.377385    83.101071    83.101071 
15900000    665.92331   -156805.59    -154051.2    217.52346    568880.76    82.323312    83.128359    83.128359 
16000000    663.87713   -156827.62    -154081.7    22.444246    568880.76    82.271354    83.154604    83.154604 
16100000    658.51299   -156787.56   -154063.82    194.41611    568880.76    82.221715    83.179702    83.179702 
16200000    665.12307   -156811.82   -154060.74    24.969916    568880.76    82.174592    83.203548    83.203548 
16300000     671.9849   -156812.74   -154033.28    52.677028    568880.76     82.13017    83.226046    83.226046 
16400000    660.96192   -156822.63   -154088.76   -9.4984824    568880.76    82.088626    83.247103    83.247103 
16500000    665.71234   -156807.49   -154053.98    30.455244    568880.76    82.050122    83.266634    83.266634 
16600000    662.80649   -156825.48   -154083.98   -32.965169    568880.76    82.014811    83.284557    83.284557 
16700000     660.3589   -156819.16   -154087.79   -45.990214    568880.76    81.982832    83.300798    83.300798 
16800000    663.68311      -156823   -154077.88   -97.776698    568880.76    81.954312    83.315292    83.315292 
16900000    664.59979   -156804.08   -154055.16    293.85483    568880.76    81.929362    83.327976    83.327976 
17000000    667.09361   -156795.82   -154036.59    184.87511    568880.76    81.908082      83.3388      83.3388 
17100000      661.375   -156795.04   -154059.47    256.89506    568880.76    81.890556    83.347718    83.347718 
17200000    668.23568    -156804.2   -154040.25    176.09129    568880.76    81.876852    83.354693    83.354693 
17300000    665.25453   -156815.55   -154063.93   -42.558168    568880.76    81.867024    83.359696    83.359696 
17400000    660.50915   -156821.27   -154089.28    67.293149    568880.76    81.861112    83.362706    83.362706 
17500000    666.32822   -156834.94   -154078.88   -96.446731    568880.76    81.859139    83.363711    83.363711 
17600000    665.21039    -156820.4   -154068.96    70.756425    568880.76    81.861112    83.362706    83.362706 
17700000    668.73515   -156801.87   -154035.86    279.63701    568880.76    81.867024    83.359696    83.359696 
17800000    666.44071   -156803.28   -154046.75    295.35356    568880.76    81.876852    83.354693    83.354693 
17900000    667.10877   -156819.59    -154060.3    60.338939    568880.76    81.890556    83.347718    83.347718 
18000000    665.12015   -156803.46   -154052.39    220.50142    568880.76    81.908082      83.3388      83.3388 
18100000     663.4232   -156799.25    -154055.2    279.64419    568880.76    81.929362    83.327976    83.327976 
18200000    667.56165    -156803.7   -154042.53     136.9598    568880.76    81.954312    83.315292    83.315292 
18300000    660.09045   -156833.68   -154103.41   -202.37109    568880.76    81.982832    83.300798    83.300798 
18400000    662.73256   -156836.06   -154094.87   -120.26248    568880.76    82.014811    83.284557    83.284557 
18500000    669.63587   -156801.64    -154031.9    197.33365    568880.76    82.050122    83.266634    83.266634 
18600000    664.04417   -156800.72   -154054.11    113.09936    568880.76    82.088626    83.247103    83.247103 
18700000     661.9075   -156839.58    -154101.8   -122.78066    568880.76     82.13017    83.226046    83.226046 
18800000    672.61222   -156813.98   -154031.93    92.493376    568880.76    82.174592    83.203548    83.203548 
18900000    661.59799   -156835.38   -154098.88    -94.06089    568880.76    82.221715    83.179702    83.179702 
19000000    663.17814   -156836.42   -154093.39   -85.809089    568880.76    82.271354    83.154604    83.154604 
19100000     660.7456   -156819.97      -154087    155.54409    568880.76    82.323312    83.128359    83.128359 
19200000    660.70084   -156811.61   -154078.82     219.1381    568880.76    82.377385    83.101071    83.101071 
19300000    674.02122   -156830.01   -154042.13   -81.885333    568880.76     82.43336    83.072852    83.072852 
19400000    666.64357   -156841.41   -154084.04   -55.411771    568880.76    82.491014    83.043817    83.043817 
19500000     664.3962   -156820.07      -154072    43.936006    568880.76    82.550122    83.014081    83.014081 
19600000    665.45224   -156840.99   -154088.55   -37.235601    568880.76    82.610449    82.983764    82.983764 
19700000    664.62866   -156809.38   -154060.35    259.58307    568880.76    82.671758    82.952989    82.952989 
19800000    663.16535   -156807.75   -154064.77    190.73612    568880.76    82.733806    82.921877    82.921877 
19900000    667.22572   -156842.39   -154082.62   -165.12575    568880.76    82.796348    82.890552    82.890552 
20000000    662.37263   -156819.57   -154079.86    75.208641    568880.76    82.859139    82.859139    82.859139 
20100000    661.57266   -156844.06   -154107.67   -103.13217    568880.76    82.921929    82.827761    82.827761 
20200000    661.16769   -156840.51   -154105.79   -30.400615    568880.76    82.984472    82.796543    82.796543 
20300000    668.19665   -156842.08   -154078.29    43.115614    568880.76     83.04652    82.765607    82.765607 
20400000    661.91555   -156862.26   -154124.45   -220.51194    568880.76    83.107829    82.735073    82.735073 
20500000    664.12838   -156841.96   -154094.99     -74.9221    568880.76    83.168156    82.705061    82.705061 
20600000    664.71933   -156809.63   -154060.22    193.83002    568880.76    83.227263    82.675688    82.675688 
20700000    671.91615   -156831.19   -154052.02    17.533309    568880.76    83.284918    82.647066    82.647066 
20800000    664.25334   -156838.42   -154090.94    29.389735    568880.76    83.340892    82.619307    82.619307 
20900000    669.16241   -156853.63   -154085.84   -187.73892    568880.76    83.394966    82.592518    82.592518 
21000000    664.90501   -156830.94   -154080.77   -75.211973    568880.76    83.446924    82.566801    82.566801 
21100000    664.90848   -156843.04   -154092.85    7.7623543    568880.76    83.496563    82.542254    82.542254 
21200000    666.18864   -156829.73   -154074.25    180.71726    568880.76    83.543686    82.518972    82.518972 
21300000    664.68002   -156806.42   -154057.18    167.27948    568880.76    83.588107    82.497042    82.497042 
21400000    663.37826   -156809.53   -154065.67    335.28628    568880.76    83.629652    82.476548    82.476548 
21500000     664.8662    -156846.7   -154096.68   -241.44233    568880.76    83.668156    82.457569    82.457569 
21600000    669.70166      -156842   -154071.98    106.68457    568880.76    83.703467    82.440174    82.440174 
21700000    665.88422   -156833.54   -154079.31    42.294412    568880.76    83.735446    82.424431    82.424431 
21800000    665.15137   -156811.54   -154060.34    147.70587    568880.76    83.763966    82.410397    82.410397 
21900000    665.06561   -156831.11   -154080.27   -86.544304    568880.76    83.788915    82.398127    82.398127 
22000000    668.54234   -156798.86   -154033.64    381.05247    568880.76    83.810195    82.387665    82.387665 
22100000    664.90275   -156830.93   -154080.77   -83.210618    568880.76    83.827722    82.379052    82.379052 
22200000    662.53264   -156790.42   -154050.05    285.33333    568880.76    83.841426    82.372319    82.372319 
22300000    655.93117   -156802.59   -154089.53    14.107363    568880.76    83.851254    82.367492    82.367492 
22400000    663.88611   -156825.73   -154079.77    19.984628    568880.76    83.857166    82.364589    82.364589 
22500000    662.54864    -156826.9   -154086.46   -3.6156566    568880.76    83.859139     82.36362     82.36362 
22600000    665.64577   -156826.37   -154073.13    162.24738    568880.76    83.857166    82.364589    82.364589 
22700000    662.64133   -156817.06   -154076.25    154.93321    568880.76    83.851254    82.367492    82.367492 
22800000     660.7109    -156835.2   -154102.37   -85.671492    568880.76    83.841426    82.372319    82.372319 
22900000    663.52419   -156833.52   -154089.06   -93.364814    568880.76    83.827722    82.379052    82.379052 
23000000    664.76324   -156838.39    -154088.8   -40.026334    568880.76    83.810195    82.387665    82.387665 
23100000    663.84662   -156814.58   -154068.79    95.935866    568880.76    83.788915    82.398127    82.398127 
23200000    664.67733   -156828.12   -154078.89    7.7671231    568880.76    83.763966    82.410397    82.410397 
23300000    662.76997   -156832.25    -154090.9     45.39416    568880.76    83.735446    82.424431    82.424431 
23400000    671.07428   -156822.51   -154046.82    134.92051    568880.76    83.703467    82.440174    82.440174 
23500000    664.43475   -156822.25   -154074.02    290.88008    568880.76    83.668156    82.457569    82.457569 
23600000    663.68362   -156841.28   -154096.15   -59.414447    568880.76    83.629652    82.476548    82.476548 
23700000    659.64569   -156806.79   -154078.36    159.73783    568880.76    83.588107    82.497042    82.497042 
23800000    665.92246   -156833.39   -154079.01    172.83704    568880.76    83.543686    82.518972    82.518972 
23900000    663.03684   -156854.22   -154111.77   -222.56417    568880.76    83.496563    82.542254    82.542254 
24000000    657.09318   -156828.31   -154110.44    5.0813082    568880.76    83.446924    82.566801    82.566801 
24100000    667.64755    -156840.5   -154078.98    -53.50881    568880.76    83.394966    82.592518    82.592518 
24200000    661.14007   -156882.34   -154147.73   -300.82798    568880.76    83.340892    82.619307    82.619307 
24300000    659.97994   -156819.52   -154089.71   -2.4786272    568880.76    83.284918    82.647066    82.647066 
24400000    666.87208   -156852.43   -154094.12   -139.86812    568880.76    83.227263    82.675688    82.675688 
24500000    660.56401   -156835.86   -154103.64   -73.633724    568880.76    83.168156    82.705061    82.705061 
24600000    663.91778   -156830.47   -154084.37   -138.06127    568880.76    83.107829    82.735073    82.735073 
24700000    658.37692   -156841.02   -154117.85   -17.119911    568880.76     83.04652    82.765607    82.765607 
24800000    665.27815   -156854.35   -154102.63   -149.66131    568880.76    82.984472    82.796543    82.796543 
24900000    663.96115   -156807.86   -154061.58    70.478697    568880.76    82.921929    82.827761    82.827761 
25000000    669.48558   -156837.98   -154068.86   -72.451566    568880.76    82.859139    82.859139    82.859139 
25100000    665.20435   -156822.43   -154071.01   -55.110772    568880.76    82.796348    82.890552    82.890552 
25200000    667.11251   -156818.37   -154059.06    83.329337    568880.76    82.733806    82.921877    82.921877 
25300000    666.38215   -156840.28      -154084    31.200328    568880.76    82.671758    82.952989    82.952989 
25400000    665.10017   -156829.27   -154078.29  -0.59579476    568880.76    82.610449    82.983764    82.983764 
25500000    671.05022   -156831.22   -154055.63    113.40742    568880.76    82.550122    83.014081    83.014081 
25600000    668.71043   -156817.75   -154051.83    75.509399    568880.76    82.491014    83.043817    83.043817 
25700000    663.64527   -156833.19   -154088.23      2.04153    568880.76     82.43336    83.072852    83.072852 
25800000    660.41542   -156816.45   -154084.84   -106.77922    568880.76    82.377385    83.101071    83.101071 
25900000    668.44158   -156827.35   -154062.55    268.82637    568880.76    82.323312    83.128359    83.128359 
26000000    664.27909   -156823.71   -154076.12    281.91138    568880.76    82.271354    83.154604    83.154604 
26100000    667.38089   -156828.61   -154068.19    39.596384    568880.76    82.221715    83.179702    83.179702 
26200000    668.06823   -156857.78   -154094.52   -132.92471    568880.76    82.174592    83.203548    83.203548 
26300000     663.3948   -156839.96   -154096.03    127.38531    568880.76     82.13017    83.226046    83.226046 
26400000    663.62745   -156841.63   -154096.74   -67.295507    568880.76    82.088626    83.247103    83.247103 
26500000    659.46271   -156845.69   -154118.02    96.334274    568880.76    82.050122    83.266634    83.266634 
26600000    669.57426   -156827.21   -154057.72    128.31061    568880.76    82.014811    83.284557    83.284557 
26700000    668.93186   -156834.97   -154068.14    172.69174    568880.76    81.982832    83.300798    83.300798 
26800000    667.88265   -156836.41   -154073.92   -18.487658    568880.76    81.954312    83.315292    83.315292 
26900000    662.58524    -156826.6   -154086.02    127.22102    568880.76    81.929362    83.327976    83.327976 
27000000    670.16826   -156828.89   -154056.95    146.68282    568880.76    81.908082      83.3388      83.3388 
27100000    665.05997   -156821.46   -154070.65     116.6719    568880.76    81.890556    83.347718    83.347718 
27200000    665.02114   -156848.43   -154097.78   -136.18471    568880.76    81.876852    83.354693    83.354693 
27300000    667.44805   -156824.18   -154063.49    266.09977    568880.76    81.867024    83.359696    83.359696 
27400000    667.88333   -156851.61   -154089.11   -133.72795    568880.76    81.861112    83.362706    83.362706 
27500000    660.78124   -156799.36   -154066.24     107.1269    568880.76    81.859139    83.363711    83.363711 
27600000    665.85834   -156828.58   -154074.46    91.285374    568880.76    81.861112    83.362706    83.362706 
27700000    665.55822   -156829.29   -154076.41     72.45384    568880.76    81.867024    83.359696    83.359696 
27800000    665.89764   -156837.61   -154083.33   -71.483365    568880.76    81.876852    83.354693    83.354693 
27900000    667.01088   -156807.05   -154048.17    275.93262    568880.76    81.890556    83.347718    83.347718 
28000000    664.22823   -156841.03   -154093.66   -42.989034    568880.76    81.908082      83.3388      83.3388 
28100000    665.00205   -156844.91   -154094.33   -100.56528    568880.76    81.929362    83.327976    83.327976 
28200000     666.3093   -156836.34   -154080.35   -66.438994    568880.76    81.954312    83.315292    83.315292 
28300000    665.34905   -156822.64   -154070.63    7.7477247    568880.76    81.982832    83.300798    83.300798 
28400000    666.43111   -156822.55   -154066.06    82.886082    568880.76    82.014811    83.284557    83.284557 
28500000    660.56725   -156828.52   -154096.29    65.005564    568880.76    82.050122    83.266634    83.266634 
28600000    668.52843    -156813.1   -154047.94    160.42317    568880.76    82.088626    83.247103    83.247103 
28700000    666.96831   -156834.02   -154075.31    29.520252    568880.76     82.13017    83.226046    83.226046 
28800000    665.80556   -156847.36   -154093.46   -82.653167    568880.76    82.174592    83.203548    83.203548 
28900000    666.40241   -156838.77    -154082.4   -30.746268    568880.76    82.221715    83.179702    83.179702 
29000000    661.69426   -156844.33   -154107.43    61.573183    568880.76    82.271354    83.154604    83.154604 
29100000    667.66206   -156830.54   -154068.96    36.323466    568880.76    82.323312    83.128359    83.128359 
29200000    662.81694   -156826.99   -154085.45    69.820459    568880.76    82.377385    83.101071    83.101071 
29300000    664.29329   -156847.78   -154100.13    17.493253    568880.76     82.43336    83.072852    83.072852 
29400000    665.94254   -156827.19   -154072.72    88.100793    568880.76    82.491014    83.043817    83.043817 
29500000    659.75416   -156850.17   -154121.29   -132.91571    568880.76    82.550122    83.014081    83.014081 
29600000    664.22758   -156836.12   -154088.75    92.642686    568880.76    82.610449    82.983764    82.983764 
29700000     666.6083   -156847.33    -154090.1   -114.28891    568880.76    82.671758    82.952989    82.952989 
29800000    664.55657   -156839.83    -154091.1    43.281102    568880.76    82.733806    82.921877    82.921877 
29900000    663.74985   -156853.81   -154108.41    13.019533    568880.76    82.796348    82.890552    82.890552 
30000000    667.07574   -156825.51   -154066.35    90.980122    568880.76    82.859139    82.859139    82.859139 
30100000    656.95933   -156826.47   -154109.16   -10.288623    568880.76    82.921929    82.827761    82.827761 
30200000    667.80734   -156832.99   -154070.81    3.5605754    568880.76    82.984472    82.796543    82.796543 
30300000    664.12809   -156847.24   -154100.28   -85.546652    568880.76     83.04652    82.765607    82.765607 
30400000    669.69396   -156811.68    -154041.7    202.37676    568880.76    83.107829    82.735073    82.735073 
30500000    663.25101   -156819.37   -154076.04    178.63844    568880.76    83.168156    82.705061    82.705061 
30600000    663.72592   -156837.02   -154091.72    189.45277    568880.76    83.227263    82.675688    82.675688 
30700000     666.2229   -156843.44   -154087.81   -26.675353    568880.76    83.284918    82.647066    82.647066 
30800000    663.14023   -156819.89   -154077.01    195.75653    568880.76    83.340892    82.619307    82.619307 
30900000    663.59385   -156820.98   -154076.23    94.091042    568880.76    83.394966    82.592518    82.592518 
31000000    666.93166   -156856.31   -154097.75   -159.00718    568880.76    83.446924    82.566801    82.566801 
31100000    665.87739   -156799.22   -154045.02    211.83926    568880.76    83.496563    82.542254    82.542254 
31200000    664.73455   -156818.49   -154069.02    159.58089    568880.76    83.543686    82.518972    82.518972 
31300000    666.84771   -156813.29   -154055.08    19.926476    568880.76    83.588107    82.497042    82.497042 
31400000    667.82118   -156831.73   -154069.49    167.26914    568880.76    83.629652    82.476548    82.476548 
31500000    661.04708   -156813.09   -154078.87    167.62027    568880.76    83.668156    82.457569    82.457569 
31600000    666.58284   -156799.13   -154042.01    339.62845    568880.76    83.703467    82.440174    82.440174 
31700000    664.83231   -156834.95   -154085.07   -165.98112    568880.76    83.735446    82.424431    82.424431 
31800000    661.33336   -156848.95   -154113.55   -158.82719    568880.76    83.763966    82.410397    82.410397 
31900000    671.73023   -156804.99   -154026.58    250.59063    568880.76    83.788915    82.398127    82.398127 
32000000    666.88896   -156842.34   -154083.95   -19.295901    568880.76    83.810195    82.387665    82.387665 
32100000    669.89664   -156841.21   -154070.38   -20.579955    568880.76    83.827722    82.379052    82.379052 
32200000    663.45196   -156822.53   -154078.36   -40.721992    568880.76    83.841426    82.372319    82.372319 
32300000    670.99934      -156842   -154066.62    -163.2859    568880.76    83.851254    82.367492    82.367492 
32400000     667.2415   -156801.34    -154041.5    188.28087    568880.76    83.857166    82.364589    82.364589 
32500000    661.18158   -156814.72   -154079.95    192.48703    568880.76    83.859139     82.36362     82.36362 
32600000    663.92031   -156822.96   -154076.86   -14.837535    568880.76    83.857166    82.364589    82.364589 
32700000    664.32726    -156831.4   -154083.61    -98.94028    568880.76    83.851254    82.367492    82.367492 
32800000    666.42919   -156839.46   -154082.98   -155.22338    568880.76    83.841426    82.372319    82.372319 
32900000    667.74273   -156837.46   -154075.55    -46.41777    568880.76    83.827722    82.379052    82.379052 
33000000    664.34597   -156825.78   -154077.91   -66.124514    568880.76    83.810195    82.387665    82.387665 
33100000    666.70058   -156814.13   -154056.53    222.32293    568880.76    83.788915    82.398127    82.398127 
33200000    667.59451    -156811.1    -154049.8    92.644414    568880.76    83.763966    82.410397    82.410397 
33300000    667.81135   -156836.71   -154074.52   -101.88055    568880.76    83.735446    82.424431    82.424431 
33400000    663.35309   -156828.87   -154085.12   -86.247406    568880.76    83.703467    82.440174    82.440174 
33500000     666.1914   -156825.34   -154069.84   -31.128484    568880.76    83.668156    82.457569    82.457569 
33600000    667.08229   -156807.45   -154048.27    395.15702    568880.76    83.629652    82.476548    82.476548 
33700000    659.37305   -156853.85   -154126.56   -256.78716    568880.76    83.588107    82.497042    82.497042 
33800000     663.7308   -156839.13   -154093.81   -34.306855    568880.76    83.543686    82.518972    82.518972 
33900000    665.70154   -156826.34   -154072.87    79.375809    568880.76    83.496563    82.542254    82.542254 
34000000    670.52962   -156813.47   -154040.02    128.45853    568880.76    83.446924    82.566801    82.566801 
34100000    658.73573   -156829.96    -154105.3    19.744728    568880.76    83.394966    82.592518    82.592518 
34200000     663.6757    -156840.4   -154095.31   -151.86546    568880.76    83.340892    82.619307    82.619307 
34300000    668.06877   -156806.05   -154042.79    127.84687    568880.76    83.284918    82.647066    82.647066 
34400000    666.64848   -156848.59   -154091.21   -150.44571    568880.76    83.227263    82.675688    82.675688 
34500000    664.89608   -156835.74    -154085.6    15.115444    568880.76    83.168156    82.705061    82.705061 
34600000     663.3948   -156825.66   -154081.73    112.73826    568880.76    83.107829    82.735073    82.735073 
34700000    666.32071   -156842.43    -154086.4   -85.918614    568880.76     83.04652    82.765607    82.765607 
34800000    665.65477    -156831.5   -154078.22    143.93513    568880.76    82.984472    82.796543    82.796543 
34900000    665.00295   -156843.77   -154093.18   -79.773517    568880.76    82.921929    82.827761    82.827761 
35000000    665.31486   -156829.37    -154077.5    137.42933    568880.76    82.859139    82.859139    82.859139 
35100000    662.98821   -156823.67   -154081.43    82.226121    568880.76    82.796348    82.890552    82.890552 
35200000    663.92322   -156843.68   -154097.56    188.20494    568880.76    82.733806    82.921877    82.921877 
35300000    667.48688   -156853.32   -154092.46   -217.20861    568880.76    82.671758    82.952989    82.952989 
35400000    666.59724   -156832.07   -154074.89   -53.196573    568880.76    82.610449    82.983764    82.983764 
35500000    664.43221   -156826.85   -154078.63    157.44335    568880.76    82.550122    83.014081    83.014081 
35600000     667.6512   -156851.61   -154090.08     37.24093    568880.76    82.491014    83.043817    83.043817 
35700000    662.62923   -156857.73   -154116.97    -198.8028    568880.76     82.43336    83.072852    83.072852 
35800000    661.00406   -156819.99   -154085.94    193.86496    568880.76    82.377385    83.101071    83.101071 
35900000    668.07253   -156832.74   -154069.46    177.20115    568880.76    82.323312    83.128359    83.128359 
36000000    664.51243   -156826.16    -154077.6    213.37611    568880.76    82.271354    83.154604    83.154604 
36100000     658.5328   -156835.74   -154111.92     26.70637    568880.76    82.221715    83.179702    83.179702 
36200000    662.46061   -156820.28   -154080.22    140.96723    568880.76    82.174592    83.203548    83.203548 
36300000    666.17762    -156827.3   -154071.86    80.688098    568880.76     82.13017    83.226046    83.226046 
36400000    661.97203   -156828.87   -154090.82    2.2913446    568880.76    82.088626    83.247103    83.247103 
36500000    664.49897    -156820.2    -154071.7    211.77483    568880.76    82.050122    83.266634    83.266634 
36600000    664.91905   -156838.21   -154087.98   -89.409823    568880.76    82.014811    83.284557    83.284557 
36700000    661.98316   -156840.07   -154101.97    -62.19652    568880.76    81.982832    83.300798    83.300798 
36800000    666.16963   -156834.67   -154079.27    34.023892    568880.76    81.954312    83.315292    83.315292 
36900000    663.19603   -156820.29   -154077.18    51.030384    568880.76    81.929362    83.327976    83.327976 
37000000    662.21622   -156823.29   -154084.23    53.902691    568880.76    81.908082      83.3388      83.3388 
37100000    660.68655   -156831.44   -154098.71   -1.6537903    568880.76    81.890556    83.347718    83.347718 
37200000    670.98491   -156812.97   -154037.64    254.43019    568880.76    81.876852    83.354693    83.354693 
37300000    667.97377   -156812.59   -154049.72    153.26499    568880.76    81.867024    83.359696    83.359696 
37400000    662.01487   -156838.59   -154100.36    130.63592    568880.76    81.861112    83.362706    83.362706 
37500000     665.0236   -156829.75   -154079.08    36.223937    568880.76    81.859139    83.363711    83.363711 
37600000    663.32822   -156809.09   -154065.44    285.73282    568880.76    81.861112    83.362706    83.362706 
37700000    659.87939   -156799.01   -154069.62    292.27773    568880.76    81.867024    83.359696    83.359696 
37800000    660.10286   -156823.54   -154093.23   -23.880903    568880.76    81.876852    83.354693    83.354693 
37900000    668.58397   -156837.66   -154072.27    166.44177    568880.76    81.890556    83.347718    83.347718 
38000000     664.9505   -156833.91   -154083.55   -46.992783    568880.76    81.908082      83.3388      83.3388 
38100000    665.25922   -156831.99   -154080.35    81.753598    568880.76    81.929362    83.327976    83.327976 
38200000    661.39302    -156848.7   -154113.05     -23.9006    568880.76    81.954312    83.315292    83.315292 
38300000    664.44855   -156821.27   -154072.98    225.36849    568880.76    81.982832    83.300798    83.300798 
38400000    662.41113   -156823.09   -154083.23     37.39592    568880.76    82.014811    83.284557    83.284557 
38500000    667.55386   -156831.49   -154070.36    41.601065    568880.76    82.050122    83.266634    83.266634 
38600000    667.56758    -156831.6   -154070.41    160.13578    568880.76    82.088626    83.247103    83.247103 
38700000    666.12054   -156825.26   -154070.05   -42.393816    568880.76     82.13017    83.226046    83.226046 
38800000    668.54402   -156830.34   -154065.11    237.96771    568880.76    82.174592    83.203548    83.203548 
38900000    666.94022   -156832.52   -154073.93    27.215928    568880.76    82.221715    83.179702    83.179702 
39000000    663.86018    -156821.9   -154076.04    91.631696    568880.76    82.271354    83.154604    83.154604 
39100000    664.18365    -156823.1   -154075.91   -51.406226    568880.76    82.323312    83.128359    83.128359 
39200000    665.93878   -156838.59   -154084.14   -7.8564189    568880.76    82.377385    83.101071    83.101071 
39300000    663.37756   -156846.44   -154102.58   -151.10572    568880.76     82.43336    83.072852    83.072852 
39400000    673.83689   -156835.74   -154048.62    242.55898    568880.76    82.491014    83.043817    83.043817 
39500000     665.6883   -156828.85   -154075.44     112.7058    568880.76    82.550122    83.014081    83.014081 
39600000    659.00238   -156842.11   -154116.34   -14.695669    568880.76    82.610449    82.983764    82.983764 
39700000    662.23666   -156847.84    -154108.7   -181.95989    568880.76    82.671758    82.952989    82.952989 
39800000    666.22476   -156846.23    -154090.6    29.170676    568880.76    82.733806    82.921877    82.921877 
39900000    663.13042   -156822.11   -154079.27    53.231695    568880.76    82.796348    82.890552    82.890552 
40000000    665.52326   -156830.83    -154078.1    136.17837    568880.76    82.859139    82.859139    82.859139 
40100000     669.0165   -156839.19   -154072.01    144.88158    568880.76    82.921929    82.827761    82.827761 
40200000    668.83498   -156843.14   -154076.71    87.342729    568880.76    82.984472    82.796543    82.796543 
40300000    666.76788   -156824.34   -154066.45    101.47002    568880.76     83.04652    82.765607    82.765607 
40400000    669.23969   -156853.28   -154085.17    171.44776    568880.76    83.107829    82.735073    82.735073 
40500000    661.95695   -156851.52   -154113.53   -59.978986    568880.76    83.168156    82.705061    82.705061 
40600000    658.19871   -156842.42   -154119.99   -43.069469    568880.76    83.227263    82.675688    82.675688 
40700000    664.82088   -156851.25   -154101.42   -258.63308    568880.76    83.284918    82.647066    82.647066 
40800000    657.36798   -156831.92   -154112.92   -112.06312    568880.76    83.340892    82.619307    82.619307 
40900000    667.24198   -156849.45   -154089.61   -161.23907    568880.76    83.394966    82.592518    82.592518 
41000000    665.75398   -156841.93   -154088.25    18.550077    568880.76    83.446924    82.566801    82.566801 
41100000     661.5489   -156842.06   -154105.76   -49.935575    568880.76    83.496563    82.542254    82.542254 
41200000    662.13246   -156832.43   -154093.72   -65.105337    568880.76    83.543686    82.518972    82.518972 
41300000    662.83138   -156802.16   -154060.56    199.68991    568880.76    83.588107    82.497042    82.497042 
41400000    665.02183   -156822.25   -154071.59   -16.374461    568880.76    83.629652    82.476548    82.476548 
41500000    666.83144   -156821.35   -154063.21    171.69926    568880.76    83.668156    82.457569    82.457569 
41600000    663.53821   -156835.64   -154091.12    38.080737    568880.76    83.703467    82.440174    82.440174 
41700000     666.4114   -156848.15   -154091.74   -216.04354    568880.76    83.735446    82.424431    82.424431 
41800000     671.3639   -156820.12   -154043.23    275.31646    568880.76    83.763966    82.410397    82.410397 
41900000    669.78447   -156824.09   -154053.73    193.17933    568880.76    83.788915    82.398127    82.398127 
42000000    666.18745   -156813.98    -154058.5    169.66291    568880.76    83.810195    82.387665    82.387665 
42100000    661.99364   -156846.75   -154108.61    123.98835    568880.76    83.827722    82.379052    82.379052 
42200000    666.13481   -156848.57   -154093.31   -36.094684    568880.76    83.841426    82.372319    82.372319 
42300000    669.07492   -156833.58   -154066.16   -47.324555    568880.76    83.851254    82.367492    82.367492 
42400000    673.87217   -156845.82   -154058.55    154.72899    568880.76    83.857166    82.364589    82.364589 
42500000    662.92753   -156863.31   -154121.31   -92.083936    568880.76    83.859139     82.36362     82.36362 
42600000    660.19424   -156823.17   -154092.48   -3.2720842    568880.76    83.857166    82.364589    82.364589 
42700000    665.02538   -156835.06   -154084.39    49.515562    568880.76    83.851254    82.367492    82.367492 
42800000    660.60911   -156839.26   -154106.85   -164.77538    568880.76    83.841426    82.372319    82.372319 
42900000    668.60948   -156835.35   -154069.85    111.15665    568880.76    83.827722    82.379052    82.379052 
43000000    661.97455   -156845.22   -154107.16   -77.382205    568880.76    83.810195    82.387665    82.387665 
43100000    666.31627   -156831.72   -154075.71    70.847965    568880.76    83.788915    82.398127    82.398127 
43200000    665.27633   -156833.95   -154082.24    73.471422    568880.76    83.763966    82.410397    82.410397 
43300000    664.32917   -156840.76   -154092.96    12.064801    568880.76    83.735446    82.424431    82.424431 
43400000    661.57002   -156824.89   -154088.51   -22.008267    568880.76    83.703467    82.440174    82.440174 
43500000    668.05891   -156839.31   -154076.09    90.405964    568880.76    83.668156    82.457569    82.457569 
43600000    660.51598   -156872.84   -154140.82   -199.18999    568880.76    83.629652    82.476548    82.476548 
43700000    663.89219   -156820.41   -154074.42   -74.644152    568880.76    83.588107    82.497042    82.497042 
43800000    665.56453   -156819.67   -154066.76    85.718073    568880.76    83.543686    82.518972    82.518972 
43900000    665.39964   -156841.24   -154089.02    7.6715525    568880.76    83.496563    82.542254    82.542254 
44000000    662.10984   -156870.37   -154131.75   -397.85805    568880.76    83.446924    82.566801    82.566801 
44100000    667.37075   -156869.88    -154109.5   -197.40346    568880.76    83.394966    82.592518    82.592518 
44200000    667.52348   -156860.68   -154099.67   -258.05104    568880.76    83.340892    82.619307    82.619307 
44300000    670.06111   -156855.48   -154083.97   -147.47419    568880.76    83.284918    82.647066    82.647066 
44400000    668.90855   -156857.29   -154090.55  -0.89580504    568880.76    83.227263    82.675688    82.675688 
44500000    673.67208   -156860.28   -154073.84   -29.281539    568880.76    83.168156    82.705061    82.705061 
44600000    673.15545   -156840.51   -154056.21   -41.562631    568880.76    83.107829    82.735073    82.735073 
44700000    670.53311   -156854.23   -154080.77    -68.05924    568880.76     83.04652    82.765607    82.765607 
44800000    665.93299   -156863.05   -154108.62   -111.60197    568880.76    82.984472    82.796543    82.796543 
44900000     662.6029   -156838.57   -154097.92    28.095564    568880.76    82.921929    82.827761    82.827761 
45000000    662.77948    -156850.4   -154109.01   -104.55263    568880.76    82.859139    82.859139    82.859139 
45100000    666.28437   -156836.63   -154080.75   -14.985487    568880.76    82.796348    82.890552    82.890552 
45200000    670.16564   -156868.23    -154096.3   -243.81693    568880.76    82.733806    82.921877    82.921877 
45300000    662.90756   -156828.19   -154086.27    136.03079    568880.76    82.671758    82.952989    82.952989 
45400000    662.80284    -156822.9   -154081.42    10.945934    568880.76    82.610449    82.983764    82.983764 
45500000    666.89408   -156843.98   -154085.58   -54.629954    568880.76    82.550122    83.014081    83.014081 
45600000    661.06194   -156844.75   -154110.47    5.3762519    568880.76    82.491014    83.043817    83.043817 
45700000    665.40667   -156856.57   -154104.32   -152.45192    568880.76     82.43336    83.072852    83.072852 
45800000    668.19124   -156855.05   -154091.28   -135.21141    568880.76    82.377385    83.101071    83.101071 
45900000    659.81141   -156817.28   -154088.17    214.45284    568880.76    82.323312    83.128359    83.128359 
46000000    666.48637   -156879.29   -154122.58   -284.57456    568880.76    82.271354    83.154604    83.154604 
46100000    662.86239   -156823.69   -154081.96   -27.243851    568880.76    82.221715    83.179702    83.179702 
46200000    663.90228   -156844.23    -154098.2   -8.0765977    568880.76    82.174592    83.203548    83.203548 
46300000    658.23017   -156829.36    -154106.8   -5.6739814    568880.76     82.13017    83.226046    83.226046 
46400000     661.7393   -156816.33   -154079.24    50.702052    568880.76    82.088626    83.247103    83.247103 
46500000    670.68593   -156814.35   -154040.26    99.802864    568880.76    82.050122    83.266634    83.266634 
46600000     663.0183   -156846.82   -154104.44   -233.07887    568880.76    82.014811    83.284557    83.284557 
46700000    666.74215   -156839.01   -154081.24   -85.653412    568880.76    81.982832    83.300798    83.300798 
46800000    667.34621   -156817.61   -154057.34     230.2014    568880.76    81.954312    83.315292    83.315292 
46900000    663.15195   -156839.91   -154096.98    50.860291    568880.76    81.929362    83.327976    83.327976 
47000000     660.9099   -156819.92   -154086.27   -66.594658    568880.76    81.908082      83.3388      83.3388 
47100000    661.51238      -156838   -154101.85    62.584123    568880.76    81.890556    83.347718    83.347718 
47200000    662.80032   -156828.74   -154087.27    214.35185    568880.76    81.876852    83.354693    83.354693 
47300000    666.00417   -156829.71   -154074.98    132.91288    568880.76    81.867024    83.359696    83.359696 
47400000     664.2477   -156831.39   -154083.93    120.74233    568880.76    81.861112    83.362706    83.362706 
47500000    665.58751   -156826.69   -154073.69    234.85089    568880.76    81.859139    83.363711    83.363711 
47600000    661.89731   -156815.52   -154077.79    223.76069    568880.76    81.861112    83.362706    83.362706 
47700000    664.10609    -156830.6   -154083.73    15.364953    568880.76    81.867024    83.359696    83.359696 
47800000    670.05798   -156830.78   -154059.29    156.74557    568880.76    81.876852    83.354693    83.354693 
47900000    664.51388   -156848.26    -154099.7   -91.923626    568880.76    81.890556    83.347718    83.347718 
48000000    662.15456   -156811.14   -154072.34    243.00178    568880.76    81.908082      83.3388      83.3388 
48100000    663.94268   -156808.48   -154062.28    261.84185    568880.76    81.929362    83.327976    83.327976 
48200000    665.30356   -156833.41   -154081.58    126.19328    568880.76    81.954312    83.315292    83.315292 
48300000    666.01413   -156860.09   -154105.33   -183.18086    568880.76    81.982832    83.300798    83.300798 
48400000    658.66388   -156829.61   -154105.25    97.535682    568880.76    82.014811    83.284557    83.284557 
48500000    664.50877    -156845.1   -154096.56    71.028903    568880.76    82.050122    83.266634    83.266634 
48600000    667.66867   -156839.47   -154077.87   -74.399134    568880.76    82.088626    83.247103    83.247103 
48700000    667.07724   -156848.63   -154089.47   -176.14067    568880.76     82.13017    83.226046    83.226046 
48800000    659.27023   -156866.17    -154139.3   -206.73217    568880.76    82.174592    83.203548    83.203548 
48900000    667.40396   -156859.83   -154099.32   -132.25455    568880.76    82.221715    83.179702    83.179702 
49000000    661.79485   -156840.18   -154102.86   -65.019481    568880.76    82.271354    83.154604    83.154604 
49100000     665.9112   -156847.15   -154092.81   -57.690646    568880.76    82.323312    83.128359    83.128359 
49200000    666.63678   -156820.33   -154062.99    117.60437    568880.76    82.377385    83.101071    83.101071 
49300000    666.73403   -156834.14    -154076.4   -46.385059    568880.76     82.43336    83.072852    83.072852 
49400000    664.94687   -156869.21   -154118.86   -110.09406    568880.76    82.491014    83.043817    83.043817 
49500000    662.39244   -156837.24   -154097.45   -115.72207    568880.76    82.550122    83.014081    83.014081 
49600000     665.9978   -156852.91   -154098.21   -230.87964    568880.76    82.610449    82.983764    82.983764 
49700000    663.93535   -156887.75   -154141.58      -400.24    568880.76    82.671758    82.952989    82.952989 
49800000    666.44428   -156863.82   -154107.27   -256.28744    568880.76    82.733806    82.921877    82.921877 
49900000    663.71214   -156831.47   -154086.22   -53.615949    568880.76    82.796348    82.890552    82.890552 
50000000    659.76969   -156851.25   -154122.31    2.2310719    568880.76    82.859139    82.859139    82.859139 
50100000    671.10518   -156882.24   -154106.42   -213.96349    568880.76    82.921929    82.827761    82.827761 
50200000    665.73531   -156853.86   -154100.25   -252.89672    568880.76    82.984472    82.796543    82.796543 
50300000      665.893   -156837.54   -154083.28   -24.420274    568880.76     83.04652    82.765607    82.765607 
50400000    661.12643   -156828.39   -154093.84    47.564381    568880.76    83.107829    82.735073    82.735073 
50500000    661.07579   -156849.32   -154114.98   -275.12029    568880.76    83.168156    82.705061    82.705061 
50600000    662.65355   -156841.64   -154100.78    25.204753    568880.76    83.227263    82.675688    82.675688 
50700000    668.30665   -156817.81   -154053.56    152.12341    568880.76    83.284918    82.647066    82.647066 
50800000    662.70407   -156858.37    -154117.3   -225.49915    568880.76    83.340892    82.619307    82.619307 
50900000    663.98088   -156841.87   -154095.52   -137.25634    568880.76    83.394966    82.592518    82.592518 
51000000    671.59109   -156841.53    -154063.7   -58.689114    568880.76    83.446924    82.566801    82.566801 
51100000    668.33033   -156847.36   -154083.02   -174.76075    568880.76    83.496563    82.542254    82.542254 
51200000    663.23224   -156810.12   -154066.87    82.831216    568880.76    83.543686    82.518972    82.518972 
51300000     668.7571   -156844.34   -154078.23   -231.61516    568880.76    83.588107    82.497042    82.497042 
51400000    664.34298   -156827.21   -154079.35    32.834141    568880.76    83.629652    82.476548    82.476548 
51500000    664.05257   -156843.09   -154096.43    -140.4136    568880.76    83.668156    82.457569    82.457569 
51600000    663.16733   -156833.97   -154090.98     -33.3081    568880.76    83.703467    82.440174    82.440174 
51700000    662.62803    -156835.9   -154095.14   -53.323338    568880.76    83.735446    82.424431    82.424431 
51800000     663.7767    -156815.5   -154069.98    168.66711    568880.76    83.763966    82.410397    82.410397 
51900000    663.60451   -156821.87   -154077.07     -202.582    568880.76    83.788915    82.398127    82.398127 
52000000     664.4322   -156831.39   -154083.17   -100.34708    568880.76    83.810195    82.387665    82.387665 
52100000    666.96787   -156834.95   -154076.24   -154.21118    568880.76    83.827722    82.379052    82.379052 
52200000    660.78892   -156827.05    -154093.9    20.281885    568880.76    83.841426    82.372319    82.372319 
52300000     663.7639   -156823.21   -154077.75   -174.36634    568880.76    83.851254    82.367492    82.367492 
52400000     659.5273   -156828.21   -154100.28   -102.62818    568880.76    83.857166    82.364589    82.364589 
52500000     662.9059   -156831.55   -154089.64   -90.222744    568880.76    83.859139     82.36362     82.36362 
52600000    664.46471   -156832.77   -154084.42   -99.275739    568880.76    83.857166    82.364589    82.364589 
52700000    668.79582   -156836.94   -154070.67   -147.41656    568880.76    83.851254    82.367492    82.367492 
52800000    664.45034   -156818.46   -154070.17   -55.115718    568880.76    83.841426    82.372319    82.372319 
52900000    659.21256   -156819.21   -154092.58   -77.809523    568880.76    83.827722    82.379052    82.379052 
53000000    667.36923   -156828.51   -154068.14   -90.031042    568880.76    83.810195    82.387665    82.387665 
53100000    663.18234   -156850.32   -154107.27    -218.9111    568880.76    83.788915    82.398127    82.398127 
53200000    661.34371   -156827.68   -154092.23   -182.60223    568880.76    83.763966    82.410397    82.410397 
53300000    662.91347   -156815.24    -154073.3    35.817265    568880.76    83.735446    82.424431    82.424431 
53400000     669.1371   -156837.17   -154069.49   -14.403357    568880.76    83.703467    82.440174    82.440174 
53500000    666.24475   -156835.43   -154079.71     3.592896    568880.76    83.668156    82.457569    82.457569 
53600000    667.81863   -156829.11   -154066.88   -60.905922    568880.76    83.629652    82.476548    82.476548 
53700000    662.15485   -156828.57   -154089.77   -113.23879    568880.76    83.588107    82.497042    82.497042 
53800000    662.82483   -156814.89   -154073.32    145.17512    568880.76    83.543686    82.518972    82.518972 
53900000    667.37306   -156820.03   -154059.64    92.688927    568880.76    83.496563    82.542254    82.542254 
54000000    661.29484   -156839.75   -154104.51   -188.87944    568880.76    83.446924    82.566801    82.566801 
54100000    663.64669   -156844.58   -154099.61   -108.37524    568880.76    83.394966    82.592518    82.592518 
54200000    661.22421   -156831.75   -154096.79   -63.946872    568880.76    83.340892    82.619307    82.619307 
54300000    665.97785    -156824.3   -154069.68   -96.466521    568880.76    83.284918    82.647066    82.647066 
54400000    663.08319   -156838.79   -154096.15   -119.76481    568880.76    83.227263    82.675688    82.675688 
54500000    665.94772   -156840.73   -154086.24   -152.87743    568880.76    83.168156    82.705061    82.705061 
54600000    666.36354    -156844.1   -154087.89   -117.65248    568880.76    83.107829    82.735073    82.735073 
54700000    665.00417   -156850.71   -154100.12    -79.45723    568880.76     83.04652    82.765607    82.765607 
54800000    666.03497   -156815.96   -154061.11    115.98441    568880.76    82.984472    82.796543    82.796543 
54900000    665.60763   -156866.28   -154113.19   -353.24444    568880.76    82.921929    82.827761    82.827761 
55000000    669.15039   -156842.34    -154074.6   -25.490618    568880.76    82.859139    82.859139    82.859139 
55100000    661.92949   -156832.12   -154094.25    -154.7188    568880.76    82.796348    82.890552    82.890552 
55200000    669.57968   -156852.84   -154083.32   -163.55501    568880.76    82.733806    82.921877    82.921877 
55300000    665.62872   -156856.63   -154103.46   -177.93864    568880.76    82.671758    82.952989    82.952989 
55400000    658.12537   -156845.95   -154123.81   -107.92917    568880.76    82.610449    82.983764    82.983764 
55500000    663.36522   -156851.48   -154107.67    -177.3192    568880.76    82.550122    83.014081    83.014081 
55600000    664.51119   -156849.81   -154101.26   -206.37965    568880.76    82.491014    83.043817    83.043817 
55700000    661.21348   -156812.97   -154078.06    33.989032    568880.76     82.43336    83.072852    83.072852 
55800000    660.87402   -156850.53   -154117.03   -167.49302    568880.76    82.377385    83.101071    83.101071 
55900000    665.10618   -156845.87   -154094.86   -171.71974    568880.76    82.323312    83.128359    83.128359 
56000000    668.38071   -156839.06   -154074.51   -201.03537    568880.76    82.271354    83.154604    83.154604 
56100000    664.24513   -156836.05    -154088.6   -77.322068    568880.76    82.221715    83.179702    83.179702 
56200000     662.2209   -156840.83   -154101.76   -183.99988    568880.76    82.174592    83.203548    83.203548 
56300000    662.16448   -156822.91   -154084.06   -125.50626    568880.76     82.13017    83.226046    83.226046 
56400000      669.271   -156801.74   -154033.51    77.967463    568880.76    82.088626    83.247103    83.247103 
56500000    665.16757   -156833.04   -154081.78   -46.315785    568880.76    82.050122    83.266634    83.266634 
56600000    662.06883   -156826.85   -154088.41    15.929933    568880.76    82.014811    83.284557    83.284557 
56700000    667.12265   -156835.98   -154076.63   -82.308892    568880.76    81.982832    83.300798    83.300798 
56800000    665.93279   -156823.22   -154068.79    109.07661    568880.76    81.954312    83.315292    83.315292 
56900000    664.24634   -156851.01   -154103.56   -336.81593    568880.76    81.929362    83.327976    83.327976 
57000000    663.30002   -156823.13   -154079.59    48.333298    568880.76    81.908082      83.3388      83.3388 
57100000    660.70748   -156846.84   -154114.02    -70.29554    568880.76    81.890556    83.347718    83.347718 
57200000    665.35095   -156818.61   -154066.59      75.9994    568880.76    81.876852    83.354693    83.354693 
57300000    664.74496   -156818.97   -154069.46    52.884734    568880.76    81.867024    83.359696    83.359696 
57400000    664.10213   -156836.95   -154090.09   -235.85607    568880.76    81.861112    83.362706    83.362706 
57500000    666.73485   -156811.94   -154054.19    226.38092    568880.76    81.859139    83.363711    83.363711 
57600000     659.6441   -156819.24   -154090.82   -246.37615    568880.76    81.861112    83.362706    83.362706 
57700000    661.95266   -156859.09   -154121.13   -362.75971    568880.76    81.867024    83.359696    83.359696 
57800000    666.95755   -156818.46   -154059.79   -56.625279    568880.76    81.876852    83.354693    83.354693 
57900000    662.81751   -156812.08   -154070.54    115.16356    568880.76    81.890556    83.347718    83.347718 
58000000    666.56279    -156840.6   -154083.57   -85.806646    568880.76    81.908082      83.3388      83.3388 
58100000     669.1356   -156849.54   -154081.86   -195.49839    568880.76    81.929362    83.327976    83.327976 
58200000    665.74971   -156845.62   -154091.95   -165.12974    568880.76    81.954312    83.315292    83.315292 
58300000    664.04192   -156838.02   -154091.41   -335.89254    568880.76    81.982832    83.300798    83.300798 
58400000     662.0889    -156839.9   -154101.37   -38.052068    568880.76    82.014811    83.284557    83.284557 
58500000    663.84949   -156826.72   -154080.91   -190.90005    568880.76    82.050122    83.266634    83.266634 
58600000      661.367   -156827.73   -154092.19   -44.373298    568880.76    82.088626    83.247103    83.247103 
58700000     666.7245   -156837.34   -154079.63   -181.80546    568880.76     82.13017    83.226046    83.226046 
58800000    667.38891   -156827.15    -154066.7   -90.958939    568880.76    82.174592    83.203548    83.203548 
58900000    667.89048   -156818.03   -154055.51    83.291101    568880.76    82.221715    83.179702    83.179702 
59000000    663.75217   -156850.36   -154104.95   -305.49069    568880.76    82.271354    83.154604    83.154604 
59100000    664.98122   -156843.81   -154093.32   -283.05208    568880.76    82.323312    83.128359    83.128359 
59200000    664.23138   -156841.62   -154094.23   -142.38683    568880.76    82.377385    83.101071    83.101071 
59300000    662.69293   -156853.08   -154112.06   -291.59062    568880.76     82.43336    83.072852    83.072852 
59400000    663.64447    -156833.9   -154088.93    -86.21315    568880.76    82.491014    83.043817    83.043817 
59500000    664.73892   -156825.02   -154075.53   -105.10113    568880.76    82.550122    83.014081    83.014081 
59600000    661.85679   -156829.27    -154091.7   -26.705571    568880.76    82.610449    82.983764    82.983764 
59700000    664.02119   -156847.83    -154101.3   -175.23907    568880.76    82.671758    82.952989    82.952989 
59800000    660.49725   -156836.49   -154104.54   -231.10407    568880.76    82.733806    82.921877    82.921877 
59900000     663.3454   -156860.81   -154117.08   -205.61897    568880.76    82.796348    82.890552    82.890552 
60000000    664.13331   -156845.14   -154098.15   -154.74838    568880.76    82.859139    82.859139    82.859139 
60100000    664.32249    -156834.5   -154086.73   -157.91976    568880.76    82.921929    82.827761    82.827761 
60200000    661.70787   -156835.72   -154098.76   -260.30289    568880.76    82.984472    82.796543    82.796543 
60300000    661.90315   -156853.15   -154115.39   -308.08536    568880.76     83.04652    82.765607    82.765607 
60400000    667.77792      -156841   -154078.94   -47.175842    568880.76    83.107829    82.735073    82.735073 
60500000    662.63235   -156873.57    -154132.8   -570.67728    568880.76    83.168156    82.705061    82.705061 
60600000    665.86085   -156818.71   -154064.58   -176.83923    568880.76    83.227263    82.675688    82.675688 
60700000    670.12468   -156830.72   -154058.96   -145.48926    568880.76    83.284918    82.647066    82.647066 
60800000    665.19536      -156842   -154090.62    -195.7665    568880.76    83.340892    82.619307    82.619307 
60900000    664.60305   -156846.14   -154097.21   -186.41358    568880.76    83.394966    82.592518    82.592518 
61000000    667.71823   -156826.35   -154064.54   -45.483577    568880.76    83.446924    82.566801    82.566801 
61100000    660.57749   -156843.25   -154110.97   -146.71915    568880.76    83.496563    82.542254    82.542254 
61200000    664.13156   -156828.02   -154081.04    27.071916    568880.76    83.543686    82.518972    82.518972 
61300000    663.91755   -156828.39   -154082.29   -20.400283    568880.76    83.588107    82.497042    82.497042 
61400000    667.18522   -156830.86   -154071.25   -189.72871    568880.76    83.629652    82.476548    82.476548 
61500000     664.8894   -156817.48   -154067.37    36.232914    568880.76    83.668156    82.457569    82.457569 
61600000    663.27931   -156822.92   -154079.47    121.60655    568880.76    83.703467    82.440174    82.440174 
61700000    669.27233   -156815.14    -154046.9    229.99209    568880.76    83.735446    82.424431    82.424431 
61800000    663.16024   -156820.56    -154077.6    148.41353    568880.76    83.763966    82.410397    82.410397 
61900000    667.08855   -156818.14   -154058.93    1.4157864    568880.76    83.788915    82.398127    82.398127 
62000000    668.62626   -156816.07   -154050.51    255.39231    568880.76    83.810195    82.387665    82.387665 
62100000    661.69779    -156820.6   -154083.68   -116.33448    568880.76    83.827722    82.379052    82.379052 
62200000    661.21971   -156825.01   -154090.08     -64.6434    568880.76    83.841426    82.372319    82.372319 
62300000    663.92893   -156809.54    -154063.4   -103.15255    568880.76    83.851254    82.367492    82.367492 
62400000    663.68411   -156833.37   -154088.24    71.247128    568880.76    83.857166    82.364589    82.364589 
62500000    658.33928   -156820.47   -154097.45    37.669852    568880.76    83.859139     82.36362     82.36362 
62600000    665.29119   -156828.32   -154076.55    106.12174    568880.76    83.857166    82.364589    82.364589 
62700000    662.98921   -156801.01   -154058.76    55.513626    568880.76    83.851254    82.367492    82.367492 
62800000    662.36715   -156834.17   -154094.49   -177.66832    568880.76    83.841426    82.372319    82.372319 
62900000    665.64488    -156816.4   -154063.16   -30.612579    568880.76    83.827722    82.379052    82.379052 
63000000    661.68818   -156809.81   -154072.94   -24.776741    568880.76    83.810195    82.387665    82.387665 
63100000    668.07665   -156855.05   -154091.75   -245.85331    568880.76    83.788915    82.398127    82.398127 
63200000    666.06139   -156823.81   -154068.85    51.557813    568880.76    83.763966    82.410397    82.410397 
63300000    665.20418   -156848.99   -154097.58   -237.86204    568880.76    83.735446    82.424431    82.424431 
63400000    658.95199   -156821.09   -154095.53    17.956053    568880.76    83.703467    82.440174    82.440174 
63500000    661.73165   -156836.59   -154099.54   -254.74748    568880.76    83.668156    82.457569    82.457569 
63600000    666.13787   -156838.58    -154083.3   -102.47465    568880.76    83.629652    82.476548    82.476548 
63700000    665.76687    -156869.3   -154115.56    -486.1424    568880.76    83.588107    82.497042    82.497042 
63800000    665.20845   -156855.49   -154104.06    -140.5102    568880.76    83.543686    82.518972    82.518972 
63900000    666.34218   -156857.29   -154101.17   -241.72207    568880.76    83.496563    82.542254    82.542254 
64000000    666.03502   -156836.32   -154081.46   -121.32011    568880.76    83.446924    82.566801    82.566801 
64100000    662.58434   -156844.61   -154104.04   -267.02428    568880.76    83.394966    82.592518    82.592518 
64200000     671.4127   -156828.53   -154051.43   -60.571211    568880.76    83.340892    82.619307    82.619307 
64300000    661.67426   -156824.07   -154087.25    -137.5998    568880.76    83.284918    82.647066    82.647066 
64400000    664.69133   -156829.66   -154080.37   -158.41853    568880.76    83.227263    82.675688    82.675688 
64500000    667.11925    -156820.8   -154061.46   -30.457106    568880.76    83.168156    82.705061    82.705061 
64600000    668.31059   -156819.83   -154055.57    77.936552    568880.76    83.107829    82.735073    82.735073 
64700000    664.81395   -156810.03   -154060.23   -64.162499    568880.76     83.04652    82.765607    82.765607 
64800000    666.56104   -156826.82   -154069.79   -112.43221    568880.76    82.984472    82.796543    82.796543 
64900000    666.32686   -156820.12   -154064.06    16.082446    568880.76    82.921929    82.827761    82.827761 
65000000    666.39398   -156804.72   -154048.38    88.961178    568880.76    82.859139    82.859139    82.859139 
65100000     660.5656   -156784.71   -154052.49    296.93718    568880.76    82.796348    82.890552    82.890552 
65200000    661.96849    -156840.4   -154102.37   -247.53136    568880.76    82.733806    82.921877    82.921877 
65300000    665.85257   -156808.78   -154054.68    28.636007    568880.76    82.671758    82.952989    82.952989 
65400000    664.58303   -156830.73   -154081.89   -194.47955    568880.76    82.610449    82.983764    82.983764 
65500000    664.71607   -156819.05   -154069.65   -77.062151    568880.76    82.550122    83.014081    83.014081 
65600000    665.62401   -156841.72   -154088.57   -214.68846    568880.76    82.491014    83.043817    83.043817 
65700000     664.4869   -156829.92   -154081.47   -199.31704    568880.76     82.43336    83.072852    83.072852 
65800000    667.14026   -156839.77   -154080.35   -134.68651    568880.76    82.377385    83.101071    83.101071 
65900000    665.44272   -156844.31    -154091.9   -158.25102    568880.76    82.323312    83.128359    83.128359 
66000000    661.96451   -156813.24   -154075.22     10.60238    568880.76    82.271354    83.154604    83.154604 
66100000    665.85749   -156838.51    -154084.4   -210.29893    568880.76    82.221715    83.179702    83.179702 
66200000    658.72204   -156816.36   -154091.75    21.424282    568880.76    82.174592    83.203548    83.203548 
66300000    665.63731   -156829.35   -154076.14   -134.30023    568880.76     82.13017    83.226046    83.226046 
66400000    664.35707   -156827.26   -154079.35   -61.331084    568880.76    82.088626    83.247103    83.247103 
66500000    659.55473   -156823.86   -154095.81    -202.8013    568880.76    82.050122    83.266634    83.266634 
66600000    667.96748   -156830.29   -154067.45   -139.21475    568880.76    82.014811    83.284557    83.284557 
66700000     667.0955   -156844.66   -154085.42   -200.79542    568880.76    81.982832    83.300798    83.300798 
66800000    668.76572   -156825.07   -154058.92    10.718336    568880.76    81.954312    83.315292    83.315292 
66900000     667.0095   -156823.89   -154065.01    47.622357    568880.76    81.929362    83.327976    83.327976 
67000000    665.66883   -156814.41   -154061.08   -89.241695    568880.76    81.908082      83.3388      83.3388 
67100000    658.22023   -156838.52   -154115.99     38.64136    568880.76    81.890556    83.347718    83.347718 
67200000    667.07735   -156833.15   -154073.99    34.719389    568880.76    81.876852    83.354693    83.354693 
67300000    665.55248    -156844.3   -154091.44   -1.0197216    568880.76    81.867024    83.359696    83.359696 
67400000    664.61245   -156829.29   -154080.32   -72.426342    568880.76    81.861112    83.362706    83.362706 
67500000    663.91025   -156818.91   -154072.85   -3.7166336    568880.76    81.859139    83.363711    83.363711 
67600000    666.35956   -156837.53   -154081.33   -54.338205    568880.76    81.861112    83.362706    83.362706 
67700000    661.76194   -156815.49   -154078.31    101.03826    568880.76    81.867024    83.359696    83.359696 
67800000     662.8338   -156832.87   -154091.26 -0.096351219    568880.76    81.876852    83.354693    83.354693 
67900000    670.91779   -156854.32   -154079.27   -210.40701    568880.76    81.890556    83.347718    83.347718 
68000000    662.60628   -156824.19   -154083.52   -38.202503    568880.76    81.908082      83.3388      83.3388 
68100000    662.50379   -156834.26   -154094.01    31.501781    568880.76    81.929362    83.327976    83.327976 
68200000    658.80728   -156852.53   -154127.57   -251.35092    568880.76    81.954312    83.315292    83.315292 
68300000    669.82916   -156832.24   -154061.69    27.506017    568880.76    81.982832    83.300798    83.300798 
[...]
83800000    667.55545   -156838.91   -154077.77   -123.02896    568880.76    83.543686    82.518972    82.518972 
83900000    670.79829   -156849.72   -154075.16   -94.742661    568880.76    83.496563    82.542254    82.542254 
84000000     660.1745   -156873.93   -154143.32   -209.89941    568880.76    83.446924    82.566801    82.566801 
84100000    665.64697   -156842.49   -154089.24   -231.14224    568880.76    83.394966    82.592518    82.592518 
84200000    666.72661   -156830.77   -154073.06    4.6573126    568880.76    83.340892    82.619307    82.619307 
84300000    670.07758   -156862.89   -154091.32   -405.85557    568880.76    83.284918    82.647066    82.647066 
84400000    666.42708   -156861.19   -154104.71    -109.1741    568880.76    83.227263    82.675688    82.675688 
84500000    666.85552   -156863.57   -154105.32   -12.359697    568880.76    83.168156    82.705061    82.705061 
84600000    661.97567   -156832.35   -154094.29    48.795484    568880.76    83.107829    82.735073    82.735073 
84700000     665.4044   -156851.76   -154099.52   -36.810345    568880.76     83.04652    82.765607    82.765607 
84800000    668.48424   -156841.92   -154076.94   -167.45315    568880.76    82.984472    82.796543    82.796543 
84900000    667.09444   -156830.53    -154071.3    101.93947    568880.76    82.921929    82.827761    82.827761 
85000000    662.06081   -156841.35   -154102.94   -135.55653    568880.76    82.859139    82.859139    82.859139 
85100000    663.24607   -156856.09   -154112.78      -225.53    568880.76    82.796348    82.890552    82.890552 
85200000    661.25845   -156840.76   -154105.67   -48.193299    568880.76    82.733806    82.921877    82.921877 
85300000    669.23515   -156848.68   -154080.59   -149.90856    568880.76    82.671758    82.952989    82.952989 
85400000    662.27421   -156848.93   -154109.63   -203.19261    568880.76    82.610449    82.983764    82.983764 
85500000    668.86887   -156842.26   -154075.69    54.616065    568880.76    82.550122    83.014081    83.014081 
85600000    668.73198   -156832.31    -154066.3    50.168453    568880.76    82.491014    83.043817    83.043817 
85700000    664.08721   -156839.45   -154092.65   -38.494953    568880.76     82.43336    83.072852    83.072852 
85800000    662.37007   -156835.18   -154095.49   -106.05012    568880.76    82.377385    83.101071    83.101071 
85900000    664.05704   -156837.29   -154090.62   -28.128038    568880.76    82.323312    83.128359    83.128359 
86000000     665.3659   -156814.42   -154062.33    93.970877    568880.76    82.271354    83.154604    83.154604 
86100000    665.87062   -156812.85   -154058.68 -0.071869425    568880.76    82.221715    83.179702    83.179702 
86200000    666.51554   -156839.53   -154082.69    4.1676884    568880.76    82.174592    83.203548    83.203548 
86300000    665.28239   -156827.46   -154075.72   -70.692155    568880.76     82.13017    83.226046    83.226046 
86400000    660.66564   -156810.84    -154078.2     99.84017    568880.76    82.088626    83.247103    83.247103 
86500000    669.89808   -156820.69   -154049.86    99.429409    568880.76    82.050122    83.266634    83.266634 
86600000    671.84221   -156829.68    -154050.8    107.59515    568880.76    82.014811    83.284557    83.284557 
86700000    667.31818    -156843.7   -154083.54   -17.807496    568880.76    81.982832    83.300798    83.300798 
86800000    666.97948   -156830.55   -154071.79    17.921022    568880.76    81.954312    83.315292    83.315292 
86900000    666.75378   -156832.22   -154074.39   -7.3236494    568880.76    81.929362    83.327976    83.327976 
87000000    670.24877   -156820.67   -154048.39 -0.021038719    568880.76    81.908082      83.3388      83.3388 
87100000    665.52729   -156831.56   -154078.81   -16.555913    568880.76    81.890556    83.347718    83.347718 
87200000    669.22594   -156841.36   -154073.32   -46.939934    568880.76    81.876852    83.354693    83.354693 
87300000    662.79337   -156830.02   -154088.58   -101.48182    568880.76    81.867024    83.359696    83.359696 
87400000    668.35088   -156836.96   -154072.53   -42.786702    568880.76    81.861112    83.362706    83.362706 
87500000    662.70485   -156820.48    -154079.4    110.69661    568880.76    81.859139    83.363711    83.363711 
87600000    664.38073   -156829.15   -154081.14   -99.016422    568880.76    81.861112    83.362706    83.362706 
87700000     668.0388   -156830.03   -154066.89    133.32984    568880.76    81.867024    83.359696    83.359696 
87800000     663.9354   -156834.21   -154088.05   -164.93171    568880.76    81.876852    83.354693    83.354693 
87900000    667.42524   -156828.29   -154067.69    6.9086436    568880.76    81.890556    83.347718    83.347718 
88000000    665.27134   -156852.04   -154100.35   -177.31969    568880.76    81.908082      83.3388      83.3388 
88100000    665.55875   -156852.19   -154099.31   -132.26882    568880.76    81.929362    83.327976    83.327976 
88200000    667.53444   -156842.07   -154081.02   -122.74512    568880.76    81.954312    83.315292    83.315292 
88300000    668.23944    -156859.8   -154095.83   -61.107236    568880.76    81.982832    83.300798    83.300798 
88400000    666.96006      -156854   -154095.32   -42.994303    568880.76    82.014811    83.284557    83.284557 
88500000     664.4011   -156845.52   -154097.43    -207.7774    568880.76    82.050122    83.266634    83.266634 
88600000    661.23603   -156837.86   -154102.86    -61.67529    568880.76    82.088626    83.247103    83.247103 
88700000    665.39306   -156846.05   -154093.85   -129.35524    568880.76     82.13017    83.226046    83.226046 
88800000    665.20239   -156839.25   -154087.85   -96.655684    568880.76    82.174592    83.203548    83.203548 
88900000    659.97736   -156846.42   -154116.62   -145.81051    568880.76    82.221715    83.179702    83.179702 
89000000    662.67089   -156837.76   -154096.83   -250.54532    568880.76    82.271354    83.154604    83.154604 
89100000    673.92829   -156843.99   -154056.49   -96.265073    568880.76    82.323312    83.128359    83.128359 
89200000    660.95338   -156859.61   -154125.78   -313.25546    568880.76    82.377385    83.101071    83.101071 
89300000    664.12479   -156855.76   -154108.81   -257.36534    568880.76     82.43336    83.072852    83.072852 
89400000    663.21427   -156839.68    -154096.5   -36.951314    568880.76    82.491014    83.043817    83.043817 
89500000    665.47365   -156832.97   -154080.44   -1.5530184    568880.76    82.550122    83.014081    83.014081 
89600000    661.84962   -156848.23   -154110.69   -354.57759    568880.76    82.610449    82.983764    82.983764 
89700000    669.15597    -156863.8   -154096.04   -180.41737    568880.76    82.671758    82.952989    82.952989 
89800000    668.81291   -156828.31   -154061.97   -73.718363    568880.76    82.733806    82.921877    82.921877 
89900000    662.42351   -156846.19   -154106.27   -312.09506    568880.76    82.796348    82.890552    82.890552 
90000000    665.09192   -156846.71   -154095.76   -60.121552    568880.76    82.859139    82.859139    82.859139 
90100000    660.92487   -156857.24   -154123.52   -245.99072    568880.76    82.921929    82.827761    82.827761 
90200000    662.22967   -156835.66   -154096.54   -69.039723    568880.76    82.984472    82.796543    82.796543 
90300000    665.96693   -156837.41   -154082.84   -197.00483    568880.76     83.04652    82.765607    82.765607 
90400000    665.08862   -156843.49   -154092.55   -169.22557    568880.76    83.107829    82.735073    82.735073 
90500000     663.3773   -156814.51   -154070.65    93.575812    568880.76    83.168156    82.705061    82.705061 
90600000    661.71756   -156834.02   -154097.02   -49.241509    568880.76    83.227263    82.675688    82.675688 
90700000     662.5376   -156858.82   -154118.43   -354.92433    568880.76    83.284918    82.647066    82.647066 
90800000    662.89823   -156822.46   -154080.59    46.905211    568880.76    83.340892    82.619307    82.619307 
90900000    670.33642   -156839.33   -154066.69    43.786069    568880.76    83.394966    82.592518    82.592518 
91000000    661.77378   -156852.23      -154115   -170.46559    568880.76    83.446924    82.566801    82.566801 
91100000    666.14455    -156863.2   -154107.89   -237.13627    568880.76    83.496563    82.542254    82.542254 
91200000    662.23535   -156826.06   -154086.92   -176.88637    568880.76    83.543686    82.518972    82.518972 
91300000    670.79631   -156844.75    -154070.2    13.229694    568880.76    83.588107    82.497042    82.497042 
91400000    664.58351   -156799.76   -154050.92    122.60643    568880.76    83.629652    82.476548    82.476548 
91500000    665.98008   -156854.84   -154100.22   -335.74183    568880.76    83.668156    82.457569    82.457569 
91600000    666.78251   -156842.16   -154084.22   -126.31616    568880.76    83.703467    82.440174    82.440174 
91700000    661.32488   -156823.18   -154087.81   -89.653328    568880.76    83.735446    82.424431    82.424431 
91800000    661.58566   -156840.18   -154103.74   -205.31789    568880.76    83.763966    82.410397    82.410397 
91900000    663.49562   -156831.83   -154087.48   -41.149998    568880.76    83.788915    82.398127    82.398127 
92000000    668.27774    -156830.7   -154066.57    28.999324    568880.76    83.810195    82.387665    82.387665 
92100000    664.02213   -156836.09   -154089.57    45.140267    568880.76    83.827722    82.379052    82.379052 
92200000    663.63265   -156840.89   -154095.98   -103.72786    568880.76    83.841426    82.372319    82.372319 
92300000    667.53579   -156826.34   -154065.29     -80.9878    568880.76    83.851254    82.367492    82.367492 
92400000    668.88887   -156837.95   -154071.29   -195.81635    568880.76    83.857166    82.364589    82.364589 
92500000    666.07938   -156848.17   -154093.13   -70.513681    568880.76    83.859139     82.36362     82.36362 
92600000    663.64466   -156852.21   -154107.25   -371.60511    568880.76    83.857166    82.364589    82.364589 
92700000    668.05823   -156833.39   -154070.17     53.93575    568880.76    83.851254    82.367492    82.367492 
92800000    669.21836   -156833.03   -154065.01   -9.2684914    568880.76    83.841426    82.372319    82.372319 
92900000    667.97972   -156872.47   -154109.57   -320.52256    568880.76    83.827722    82.379052    82.379052 
93000000    664.92592   -156824.47   -154074.21   -151.03141    568880.76    83.810195    82.387665    82.387665 
93100000    663.74921   -156845.32   -154099.93   -93.645826    568880.76    83.788915    82.398127    82.398127 
93200000    662.72998   -156832.23   -154091.05   -86.620536    568880.76    83.763966    82.410397    82.410397 
93300000    663.03256   -156855.81   -154113.38   -245.94762    568880.76    83.735446    82.424431    82.424431 
93400000    659.13676   -156854.48   -154128.16   -153.02971    568880.76    83.703467    82.440174    82.440174 
93500000    666.67019   -156831.19   -154073.71   -187.23347    568880.76    83.668156    82.457569    82.457569 
93600000     666.3364   -156838.43   -154082.33   -107.44832    568880.76    83.629652    82.476548    82.476548 
93700000    664.94312   -156841.22   -154090.88   -93.600833    568880.76    83.588107    82.497042    82.497042 
93800000    661.06426   -156878.72   -154144.43   -269.06347    568880.76    83.543686    82.518972    82.518972 
93900000    663.20137   -156859.92   -154116.79   -236.64477    568880.76    83.496563    82.542254    82.542254 
94000000    667.81404    -156858.4   -154096.19    -200.7303    568880.76    83.446924    82.566801    82.566801 
94100000    662.86533   -156865.11   -154123.37   -360.26033    568880.76    83.394966    82.592518    82.592518 
94200000    664.46102   -156853.57   -154105.23   -73.386194    568880.76    83.340892    82.619307    82.619307 
94300000    660.84583   -156846.16   -154112.78   -280.27136    568880.76    83.284918    82.647066    82.647066 
94400000    660.85227   -156846.94   -154113.53   -184.11999    568880.76    83.227263    82.675688    82.675688 
94500000    665.13035   -156851.79   -154100.68   -268.03845    568880.76    83.168156    82.705061    82.705061 
94600000    665.01425   -156855.22   -154104.59   -329.61319    568880.76    83.107829    82.735073    82.735073 
94700000     668.4774   -156872.05   -154107.09   -267.57995    568880.76     83.04652    82.765607    82.765607 
94800000    670.79275   -156872.72   -154098.19   -238.23543    568880.76    82.984472    82.796543    82.796543 
94900000    660.89372   -156859.26   -154125.67   -213.40166    568880.76    82.921929    82.827761    82.827761 
95000000     660.5904   -156852.34   -154120.01    -266.1507    568880.76    82.859139    82.859139    82.859139 
95100000    666.66086    -156840.5   -154083.06   -103.76584    568880.76    82.796348    82.890552    82.890552 
95200000    666.94786   -156863.91   -154105.28   -220.91667    568880.76    82.733806    82.921877    82.921877 
95300000    663.88192   -156855.95      -154110   -281.20965    568880.76    82.671758    82.952989    82.952989 
95400000    661.76425    -156833.6   -154096.42   -84.300255    568880.76    82.610449    82.983764    82.983764 
95500000    665.51403    -156866.7      -154114   -243.22221    568880.76    82.550122    83.014081    83.014081 
95600000     664.4728   -156847.13   -154098.74   -209.82603    568880.76    82.491014    83.043817    83.043817 
95700000    663.99383   -156849.85   -154103.44   -191.15736    568880.76     82.43336    83.072852    83.072852 
95800000    660.96778   -156850.73   -154116.84   -77.051898    568880.76    82.377385    83.101071    83.101071 
95900000    658.92712   -156863.64   -154138.19   -280.62655    568880.76    82.323312    83.128359    83.128359 
96000000    663.93855    -156854.7   -154108.52   -133.31847    568880.76    82.271354    83.154604    83.154604 
96100000    667.17612   -156836.57      -154077   -50.395865    568880.76    82.221715    83.179702    83.179702 
96200000    662.88276   -156852.06   -154110.24    -108.4799    568880.76    82.174592    83.203548    83.203548 
96300000    668.43928   -156843.04   -154078.25   -159.91607    568880.76     82.13017    83.226046    83.226046 
96400000    662.30463   -156828.24   -154088.82    7.1967181    568880.76    82.088626    83.247103    83.247103 
96500000    662.61659    -156842.6   -154101.89   -289.74758    568880.76    82.050122    83.266634    83.266634 
96600000     667.4526   -156847.76   -154087.04   -91.523354    568880.76    82.014811    83.284557    83.284557 
96700000    656.33802   -156843.05   -154128.31   -255.25497    568880.76    81.982832    83.300798    83.300798 
96800000    666.79628   -156845.86   -154087.86    -180.7599    568880.76    81.954312    83.315292    83.315292 
96900000    659.89688   -156830.22   -154100.75   -92.109548    568880.76    81.929362    83.327976    83.327976 
97000000    668.07041    -156852.3   -154089.03   -144.81631    568880.76    81.908082      83.3388      83.3388 
97100000    668.76576   -156847.22   -154081.08    68.161667    568880.76    81.890556    83.347718    83.347718 
97200000    661.53282   -156840.29   -154104.06   -170.88838    568880.76    81.876852    83.354693    83.354693 
97300000    667.82519   -156836.32   -154074.07   -157.97508    568880.76    81.867024    83.359696    83.359696 
97400000    660.71529   -156840.53   -154107.68    1.8405078    568880.76    81.861112    83.362706    83.362706 
97500000    664.59417   -156856.69    -154107.8   -65.485882    568880.76    81.859139    83.363711    83.363711 
97600000    655.87068   -156834.98   -154122.17     -217.425    568880.76    81.861112    83.362706    83.362706 
97700000    664.57203   -156840.17   -154091.37   -51.890785    568880.76    81.867024    83.359696    83.359696 
97800000    665.15115   -156850.64   -154099.44   -162.17141    568880.76    81.876852    83.354693    83.354693 
97900000    666.19227   -156832.25   -154076.75    -109.6841    568880.76    81.890556    83.347718    83.347718 
98000000     664.7243   -156840.52   -154091.09   -17.237356    568880.76    81.908082      83.3388      83.3388 
98100000    663.85115   -156829.03   -154083.21   -5.3301376    568880.76    81.929362    83.327976    83.327976 
98200000    665.71039   -156834.11    -154080.6   -81.479887    568880.76    81.954312    83.315292    83.315292 
98300000    665.36297   -156846.37    -154094.3    60.222988    568880.76    81.982832    83.300798    83.300798 
98400000    668.92146   -156835.27   -154068.48   -60.022406    568880.76    82.014811    83.284557    83.284557 
98500000    671.52037   -156845.13    -154067.6   -41.825547    568880.76    82.050122    83.266634    83.266634 
98600000    664.03963   -156851.37   -154104.77   -122.03417    568880.76    82.088626    83.247103    83.247103 
98700000    663.91142   -156837.95   -154091.88    29.270887    568880.76     82.13017    83.226046    83.226046 
98800000    660.54104   -156826.18   -154094.05    5.7891198    568880.76    82.174592    83.203548    83.203548 
98900000    669.37296   -156845.78   -154077.12    1.7298524    568880.76    82.221715    83.179702    83.179702 
99000000     666.5055   -156836.99   -154080.19   -100.49737    568880.76    82.271354    83.154604    83.154604 
99100000    658.97998   -156830.98   -154105.31   -37.230183    568880.76    82.323312    83.128359    83.128359 
99200000    662.31452    -156833.5   -154094.03   -143.94402    568880.76    82.377385    83.101071    83.101071 
99300000    667.90734   -156856.61   -154094.02   -271.94325    568880.76     82.43336    83.072852    83.072852 
99400000    663.10024    -156846.8   -154104.08   -245.26082    568880.76    82.491014    83.043817    83.043817 
99500000    669.57878    -156850.8   -154081.29   -164.18196    568880.76    82.550122    83.014081    83.014081 
99600000    666.62696   -156851.92   -154094.62   -213.17658    568880.76    82.610449    82.983764    82.983764 
99700000    666.71316   -156839.17   -154081.52   -40.590453    568880.76    82.671758    82.952989    82.952989 
99800000    661.53807   -156851.43   -154115.18   -201.09842    568880.76    82.733806    82.921877    82.921877 
99900000    666.45306   -156853.24   -154096.66   -225.94324    568880.76    82.796348    82.890552    82.890552 
100000000    666.34124   -156866.66   -154110.54   -250.95677    568880.76    82.859139    82.859139    82.859139 
Loop time of 59690.9 on 104 procs for 100000000 steps with 32000 atoms

Performance: 1447.457 ns/day, 0.017 hours/ns, 1675.298 timesteps/s
99.5% CPU use with 104 MPI tasks x 1 OpenMP threads

MPI task timing breakdown:
Section |  min time  |  avg time  |  max time  |%varavg| %total
---------------------------------------------------------------
Pair    | 34603      | 35388      | 36828      | 251.6 | 59.29
Neigh   | 2438.5     | 2594.3     | 2738.5     | 145.1 |  4.35
Comm    | 11220      | 12333      | 13855      | 516.1 | 20.66
Output  | 0.53314    | 0.53727    | 0.66058    |   1.7 |  0.00
Modify  | 7640.4     | 8329.6     | 8999.7     | 400.5 | 13.95
Other   |            | 1045       |            |       |  1.75

Nlocal:        307.692 ave         324 max         289 min
Histogram: 2 0 7 10 31 18 12 14 8 2
Nghost:        2589.51 ave        2621 max        2563 min
Histogram: 7 8 9 24 12 11 14 9 8 2
Neighs:        22329.0 ave       24806 max       20208 min
Histogram: 3 3 16 21 20 18 8 9 3 3

Total # of neighbors = 2322213
Ave neighs/atom = 72.569156
Neighbor list builds = 10901182
Dangerous builds = 0
clear
OMP_NUM_THREADS environment is not set. Defaulting to 1 thread. (../comm.cpp:94)
  using 1 OpenMP thread(s) per MPI task
package intel 1
jump dms675.lmp
#MD-DMS by Ha-Bin Yu
#package gpu 4
variable T equal 675
log log.${T}
log log.675
