units           metal
boundary        p p p
atom_style      atomic
read_data      ../../restart/T${T}.dat
read_data      ../../restart/T685.dat
Reading data file ...
  orthogonal box = (-2.5345387 -2.5345387 -2.5345387) to (80.369316 80.369316 80.369316)
  2 by 4 by 13 MPI processor grid
  reading atoms ...
  32000 atoms
  reading velocities ...
  32000 velocities
  read_data CPU = 0.139 seconds
pair_style      eam/alloy
pair_coeff      * *  ../../ZrCu.lammps.eam Zr Cu
mass 1 91.224
mass 2 63.546
neighbor            2.0 bin
neigh_modify     delay 1
timestep 0.01
thermo 100000
reset_timestep 0
thermo_style custom step temp pe etotal press vol lx ly lz
fix             1 all nvt temp ${T} ${T} 0.1
fix             1 all nvt temp 685 ${T} 0.1
fix             1 all nvt temp 685 685 0.1
thermo_modify flush yes
fix nodrift all momentum 1  linear 1 1 1
fix com_seed all recenter INIT INIT INIT shift all
fix dsf all deform 1 x  wiggle 1.0  100000.0 y volume z volume units box
fix ps1 all ave/time 1 1 100000 c_thermo_press[1] c_thermo_press[2]  c_thermo_press[3] c_thermo_press[4]  c_thermo_press[5] c_thermo_press[6]  file  stress.${T}
fix ps1 all ave/time 1 1 100000 c_thermo_press[1] c_thermo_press[2]  c_thermo_press[3] c_thermo_press[4]  c_thermo_press[5] c_thermo_press[6]  file  stress.685
dump            1 all custom 10000000 dump.${T} id type x y z
dump            1 all custom 10000000 dump.685 id type x y z
dump_modify 1 sort id
run 100000000
Neighbor list info ...
  update every 1 steps, delay 1 steps, check yes
  max neighbors/atom: 2000, page size: 100000
  master list distance cutoff = 8.5
  ghost atom cutoff = 8.5
  binsize = 4.25, bins = 20 20 20
  1 neighbor lists, perpetual/occasional/extra = 1 0 0
  (1) pair eam/alloy/intel, perpetual
      attributes: half, newton on, intel
      pair build: half/bin/newton/intel
      stencil: half/bin/3d/newton
      bin: intel
Per MPI rank memory allocation (min/avg/max) = 7.351 | 7.467 | 7.614 Mbytes
Step Temp PotEng TotEng Press Volume Lx Ly Lz 
       0      686.654   -156722.07   -153881.93   -831.04727    569802.27    82.903855    82.903855    82.903855 
  100000    676.28083   -156674.56   -153877.33   -518.11394    569802.27    82.966645    82.872477    82.872477 
  200000    685.71928   -156665.66   -153829.39   -382.11816    569802.27    83.029188    82.841259    82.841259 
  300000    683.89662   -156661.89   -153833.16   -279.90594    569802.27    83.091236    82.810323    82.810323 
  400000    685.17596    -156637.8   -153803.78   -275.65235    569802.27    83.152545    82.779789    82.779789 
  500000    684.79313   -156660.52   -153828.08   -242.62017    569802.27    83.212872    82.749777    82.749777 
  600000    685.52713   -156670.86   -153835.39   -306.15583    569802.27    83.271979    82.720403    82.720403 
  700000    681.27826   -156658.58   -153840.68   -510.68328    569802.27    83.329634    82.691782    82.691782 
  800000    687.60627   -156676.32   -153832.25   -347.56471    569802.27    83.385609    82.664023    82.664023 
  900000      684.685   -156656.42   -153824.43   -297.65084    569802.27    83.439682    82.637233    82.637233 
 1000000    688.64439   -156660.83   -153812.46   -213.48961    569802.27     83.49164    82.611516    82.611516 
 1100000    689.77119   -156632.87   -153779.84    57.242404    569802.27    83.541279    82.586969    82.586969 
 1200000    690.00049   -156668.73   -153814.75   -555.21808    569802.27    83.588402    82.563687    82.563687 
 1300000    687.11813   -156662.59   -153820.53   -385.12922    569802.27    83.632824    82.541757    82.541757 
 1400000    683.95697   -156657.15   -153828.17   -346.63119    569802.27    83.674368    82.521263    82.521263 
 1500000    687.10345   -156651.67   -153809.68   -210.60475    569802.27    83.712872    82.502283    82.502283 
 1600000      689.155   -156643.77   -153793.29   -254.94386    569802.27    83.748183    82.484888    82.484888 
 1700000    690.85828   -156672.82    -153815.3   -399.35037    569802.27    83.780162    82.469145    82.469145 
 1800000    683.57118   -156662.91   -153835.52    -384.6144    569802.27    83.808682    82.455111    82.455111 
 1900000    687.57148   -156638.73    -153794.8   -176.75258    569802.27    83.833631    82.442841    82.442841 
 2000000    682.96789   -156657.08   -153832.19     -456.165    569802.27    83.854911    82.432379    82.432379 
 2100000    684.30024    -156625.4      -153795    -248.6127    569802.27    83.872438    82.423766    82.423766 
 2200000    685.60872   -156667.58   -153831.77   -370.04544    569802.27    83.886142    82.417033    82.417033 
 2300000    690.38541   -156677.38   -153821.81   -317.76588    569802.27     83.89597    82.412206    82.412206 
 2400000    682.65061   -156640.78   -153817.21     -174.453    569802.27    83.901882    82.409302    82.409302 
 2500000    685.19318   -156661.58   -153827.49   -292.56856    569802.27    83.903855    82.408333    82.408333 
 2600000    681.06805    -156656.2   -153839.17   -336.40328    569802.27    83.901882    82.409302    82.409302 
 2700000    683.25449   -156665.12   -153839.05    -240.5787    569802.27     83.89597    82.412206    82.412206 
 2800000    685.24636   -156645.55   -153811.23   -194.18371    569802.27    83.886142    82.417033    82.417033 
 2900000    683.51693   -156680.34   -153853.18   -363.71321    569802.27    83.872438    82.423766    82.423766 
 3000000    682.05722   -156667.23   -153846.11   -249.72649    569802.27    83.854911    82.432379    82.432379 
 3100000     683.1474   -156657.57   -153831.94   -193.65684    569802.27    83.833631    82.442841    82.442841 
 3200000    685.67379   -156679.52   -153843.44   -418.23684    569802.27    83.808682    82.455111    82.455111 
 3300000    685.01323   -156641.41   -153808.06   -190.67749    569802.27    83.780162    82.469145    82.469145 
 3400000    682.92713   -156693.88   -153869.16   -405.76257    569802.27    83.748183    82.484888    82.484888 
 3500000    678.89679    -156646.2   -153838.15   -25.774956    569802.27    83.712872    82.502283    82.502283 
 3600000    683.39474   -156668.92   -153842.27   -342.81751    569802.27    83.674368    82.521263    82.521263 
 3700000    683.19166   -156653.07   -153827.26   -183.47361    569802.27    83.632824    82.541757    82.541757 
 3800000    682.23954   -156661.19   -153839.32   -301.58384    569802.27    83.588402    82.563687    82.563687 
 3900000    683.84249   -156662.32   -153833.81   -188.58227    569802.27    83.541279    82.586969    82.586969 
 4000000    681.05739   -156675.18   -153858.19   -430.76362    569802.27     83.49164    82.611516    82.611516 
 4100000    684.73933   -156640.48   -153808.26   -231.21964    569802.27    83.439682    82.637233    82.637233 
 4200000    680.52146   -156652.93   -153838.16   -156.72195    569802.27    83.385609    82.664023    82.664023 
 4300000    686.27563   -156670.57      -153832   -322.68029    569802.27    83.329634    82.691782    82.691782 
 4400000    686.71711   -156674.16   -153833.76   -373.61571    569802.27    83.271979    82.720403    82.720403 
 4500000    684.83494    -156657.3   -153824.69   -324.11599    569802.27    83.212872    82.749777    82.749777 
 4600000    685.94934   -156676.94   -153839.72   -590.19211    569802.27    83.152545    82.779789    82.779789 
 4700000    683.92188   -156674.52   -153845.68   -438.18624    569802.27    83.091236    82.810323    82.810323 
 4800000    688.93867   -156654.11   -153804.53   -126.40809    569802.27    83.029188    82.841259    82.841259 
 4900000    689.56836   -156637.84   -153785.65   -156.93978    569802.27    82.966645    82.872477    82.872477 
 5000000    681.23517   -156662.61   -153844.89     -275.571    569802.27    82.903855    82.903855    82.903855 
 5100000    685.61419   -156655.12   -153819.29   -133.42984    569802.27    82.841064    82.935268    82.935268 
 5200000    685.74498   -156640.99   -153804.62   -108.80424    569802.27    82.778522    82.966593    82.966593 
 5300000    684.62591   -156671.48   -153839.74    -481.5891    569802.27    82.716474    82.997705    82.997705 
 5400000    689.86133   -156659.23   -153805.83   -137.97956    569802.27    82.655165     83.02848     83.02848 
 5500000    687.61636   -156663.43   -153819.31   -263.82698    569802.27    82.594838    83.058797    83.058797 
 5600000     687.4718   -156669.16   -153825.64   -408.84378    569802.27     82.53573    83.088532    83.088532 
 5700000    679.30626   -156648.82   -153839.07   -170.69424    569802.27    82.478076    83.117568    83.117568 
 5800000    686.28203   -156649.77   -153811.17   -119.70805    569802.27    82.422101    83.145787    83.145787 
 5900000    689.47933   -156657.72    -153805.9   -129.15802    569802.27    82.368028    83.173074    83.173074 
 6000000     682.4988   -156650.77   -153827.82   -186.67783    569802.27     82.31607     83.19932     83.19932 
 6100000    684.78847    -156643.1   -153810.69   -157.39963    569802.27    82.266431    83.224417    83.224417 
 6200000    685.80897   -156667.46   -153830.82   -354.80969    569802.27    82.219308    83.248263    83.248263 
 6300000    688.71797   -156644.14   -153795.47   -205.33903    569802.27    82.174886    83.270761    83.270761 
 6400000    689.28712   -156651.59   -153800.56   -115.77328    569802.27    82.133342    83.291818    83.291818 
 6500000    682.35967    -156669.7   -153847.33   -479.84009    569802.27    82.094838    83.311348    83.311348 
 6600000    689.14299   -156660.21   -153809.78   -249.09136    569802.27    82.059527    83.329271    83.329271 
 6700000    681.44524   -156656.82   -153838.23   -311.55533    569802.27    82.027548    83.345513    83.345513 
 6800000    685.89947   -156643.12    -153806.1   -119.36059    569802.27    81.999028    83.360006    83.360006 
 6900000    687.23593   -156613.81   -153771.27    24.982903    569802.27    81.974078     83.37269     83.37269 
 7000000    685.41675   -156641.75   -153806.73   -139.02386    569802.27    81.952798    83.383514    83.383514 
 7100000    679.35831   -156681.51   -153871.56   -347.46549    569802.27    81.935272    83.392432    83.392432 
 7200000    685.52498      -156673   -153837.53    -105.6974    569802.27    81.921568    83.399407    83.399407 
 7300000    690.16661   -156670.76    -153816.1   -147.04503    569802.27     81.91174    83.404409    83.404409 
 7400000    684.35529   -156678.89   -153848.27   -466.71002    569802.27    81.905828    83.407419    83.407419 
 7500000    684.92245   -156667.53   -153834.56   -310.36532    569802.27    81.903855    83.408424    83.408424 
 7600000     685.8957   -156636.38   -153799.38   -14.342096    569802.27    81.905828    83.407419    83.407419 
 7700000    688.54882   -156655.06   -153807.09   -177.47861    569802.27     81.91174    83.404409    83.404409 
 7800000    684.69346   -156664.96   -153832.94   -222.40094    569802.27    81.921568    83.399407    83.399407 
 7900000    685.17643      -156626   -153791.98   -166.43154    569802.27    81.935272    83.392432    83.392432 
 8000000    680.45144    -156646.2   -153831.72   -157.62152    569802.27    81.952798    83.383514    83.383514 
 8100000    684.29352   -156656.34   -153825.97   -265.83758    569802.27    81.974078     83.37269     83.37269 
 8200000    686.70183   -156660.59   -153820.26   -227.82883    569802.27    81.999028    83.360006    83.360006 
 8300000    686.43306   -156652.91   -153813.69   -317.50203    569802.27    82.027548    83.345513    83.345513 
 8400000    684.59711   -156651.84   -153820.21   -165.39928    569802.27    82.059527    83.329271    83.329271 
 8500000    688.62478   -156658.25   -153809.96   -151.57543    569802.27    82.094838    83.311348    83.311348 
 8600000    686.69753   -156649.55   -153809.23   -65.873727    569802.27    82.133342    83.291818    83.291818 
 8700000    688.18485   -156651.88   -153805.42   -183.32102    569802.27    82.174886    83.270761    83.270761 
 8800000    691.16521   -156682.14   -153823.35   -247.91322    569802.27    82.219308    83.248263    83.248263 
 8900000    685.44321   -156629.58   -153794.45    2.8640396    569802.27    82.266431    83.224417    83.224417 
 9000000    688.98773   -156686.34   -153836.55   -398.18337    569802.27     82.31607     83.19932     83.19932 
 9100000    687.28762   -156661.84   -153819.09   -245.62746    569802.27    82.368028    83.173074    83.173074 
 9200000    688.33045   -156648.32   -153801.25     23.33982    569802.27    82.422101    83.145787    83.145787 
 9300000    685.75356   -156638.78   -153802.37   -82.059096    569802.27    82.478076    83.117568    83.117568 
 9400000    680.85727   -156645.37   -153829.21   -168.02741    569802.27     82.53573    83.088532    83.088532 
 9500000    684.90638   -156668.06   -153835.15   -316.84744    569802.27    82.594838    83.058797    83.058797 
 9600000    686.45932   -156668.27   -153828.94   -422.24137    569802.27    82.655165     83.02848     83.02848 
 9700000    685.05833   -156629.38   -153795.84   -104.73486    569802.27    82.716474    82.997705    82.997705 
 9800000    685.79981    -156654.4    -153817.8   -393.93437    569802.27    82.778522    82.966593    82.966593 
 9900000    683.40091   -156650.07   -153823.39   -183.46317    569802.27    82.841064    82.935268    82.935268 
10000000     682.9938   -156655.74   -153830.75   -349.09637    569802.27    82.903855    82.903855    82.903855 
10100000    686.77727   -156652.31   -153811.67   -214.94414    569802.27    82.966645    82.872477    82.872477 
10200000    680.56229   -156665.32   -153850.38   -221.74883    569802.27    83.029188    82.841259    82.841259 
10300000    691.98662    -156669.6   -153807.41   -375.99678    569802.27    83.091236    82.810323    82.810323 
10400000    684.43821   -156641.78   -153810.81   -91.506306    569802.27    83.152545    82.779789    82.779789 
10500000    686.18956   -156657.88   -153819.66   -442.01718    569802.27    83.212872    82.749777    82.749777 
10600000    689.95216   -156663.21   -153809.43   -326.37105    569802.27    83.271979    82.720403    82.720403 
10700000    687.33438   -156680.69   -153837.74   -463.74187    569802.27    83.329634    82.691782    82.691782 
10800000    684.36458   -156661.37   -153830.71   -371.64692    569802.27    83.385609    82.664023    82.664023 
10900000    688.92946   -156641.35    -153791.8   -188.11273    569802.27    83.439682    82.637233    82.637233 
11000000    684.62842    -156640.5   -153808.75   -103.84705    569802.27     83.49164    82.611516    82.611516 
11100000     681.5425   -156661.65   -153842.66    -465.5556    569802.27    83.541279    82.586969    82.586969 
11200000    680.99661   -156659.71   -153842.97   -388.14567    569802.27    83.588402    82.563687    82.563687 
11300000    681.08635   -156673.61    -153856.5   -469.21119    569802.27    83.632824    82.541757    82.541757 
11400000    688.41573   -156640.85   -153793.43   -145.10067    569802.27    83.674368    82.521263    82.521263 
11500000    682.83437   -156649.61   -153825.27   -280.69841    569802.27    83.712872    82.502283    82.502283 
11600000    684.41366   -156643.47    -153812.6   -358.76076    569802.27    83.748183    82.484888    82.484888 
11700000    687.67495   -156657.29   -153812.94   -143.85184    569802.27    83.780162    82.469145    82.469145 
11800000    683.80338   -156652.74    -153824.4   -284.05824    569802.27    83.808682    82.455111    82.455111 
11900000    687.57803   -156658.69   -153814.74   -357.56352    569802.27    83.833631    82.442841    82.442841 
12000000    684.83143   -156659.95   -153827.35   -421.32157    569802.27    83.854911    82.432379    82.432379 
12100000    682.91011   -156660.65      -153836   -424.34863    569802.27    83.872438    82.423766    82.423766 
12200000    683.41925   -156649.85   -153823.09    -276.2217    569802.27    83.886142    82.417033    82.417033 
12300000    691.30415   -156650.39   -153791.02   -292.77136    569802.27     83.89597    82.412206    82.412206 
12400000     681.6426   -156659.55   -153840.14   -416.72139    569802.27    83.901882    82.409302    82.409302 
12500000     686.3314   -156670.79   -153831.99   -378.88532    569802.27    83.903855    82.408333    82.408333 
12600000    685.16505   -156663.15   -153829.17   -297.48157    569802.27    83.901882    82.409302    82.409302 
12700000    688.40855   -156690.44   -153843.05   -479.97076    569802.27     83.89597    82.412206    82.412206 
12800000    682.05983   -156676.91   -153855.78   -373.19977    569802.27    83.886142    82.417033    82.417033 
12900000      681.012    -156671.4    -153854.6   -438.82436    569802.27    83.872438    82.423766    82.423766 
13000000    683.79982   -156665.04   -153836.71   -377.04216    569802.27    83.854911    82.432379    82.432379 
13100000    681.31603   -156659.31   -153841.26   -295.78978    569802.27    83.833631    82.442841    82.442841 
13200000    679.01684   -156654.58   -153846.04   -545.80487    569802.27    83.808682    82.455111    82.455111 
13300000    680.33881    -156676.2   -153862.19   -668.02654    569802.27    83.780162    82.469145    82.469145 
13400000    687.81625   -156701.85   -153856.91   -564.38588    569802.27    83.748183    82.484888    82.484888 
13500000    681.63506   -156688.96   -153869.58   -549.73805    569802.27    83.712872    82.502283    82.502283 
13600000    678.82468   -156652.57   -153844.82   -314.87829    569802.27    83.674368    82.521263    82.521263 
13700000    686.69691   -156664.84   -153824.53   -311.78017    569802.27    83.632824    82.541757    82.541757 
13800000    686.16603   -156673.52   -153835.41   -441.02929    569802.27    83.588402    82.563687    82.563687 
13900000    683.33879   -156687.54   -153861.12   -376.11208    569802.27    83.541279    82.586969    82.586969 
14000000    688.78765   -156665.29   -153816.33   -278.61412    569802.27     83.49164    82.611516    82.611516 
14100000    682.49866    -156680.5   -153857.55    -399.2774    569802.27    83.439682    82.637233    82.637233 
14200000    686.44745   -156669.63   -153830.35   -352.36935    569802.27    83.385609    82.664023    82.664023 
14300000    682.53337   -156645.48   -153822.39   -275.90819    569802.27    83.329634    82.691782    82.691782 
14400000    687.43714   -156686.91   -153843.53   -438.53393    569802.27    83.271979    82.720403    82.720403 
14500000    689.71934    -156662.4   -153809.59   -225.65647    569802.27    83.212872    82.749777    82.749777 
14600000     683.9277    -156657.4   -153828.54   -175.60859    569802.27    83.152545    82.779789    82.779789 
14700000    681.59816   -156674.02    -153854.8   -458.48824    569802.27    83.091236    82.810323    82.810323 
14800000    691.90619   -156659.59   -153797.73    -166.5807    569802.27    83.029188    82.841259    82.841259 
14900000    685.30003   -156676.38   -153841.85   -321.41932    569802.27    82.966645    82.872477    82.872477 
15000000    687.38908   -156694.31   -153851.13   -535.44909    569802.27    82.903855    82.903855    82.903855 
15100000    687.49284   -156679.71    -153836.1    -381.3251    569802.27    82.841064    82.935268    82.935268 
15200000    682.72483   -156631.68   -153807.79    -62.93448    569802.27    82.778522    82.966593    82.966593 
15300000    686.75625   -156671.63   -153831.07   -234.54085    569802.27    82.716474    82.997705    82.997705 
15400000     683.6001   -156660.14   -153832.64   -224.27185    569802.27    82.655165     83.02848     83.02848 
15500000    681.36229   -156644.94   -153826.69   -165.41769    569802.27    82.594838    83.058797    83.058797 
15600000    687.12417   -156655.82   -153813.74    -190.5748    569802.27     82.53573    83.088532    83.088532 
15700000    685.30653    -156652.6   -153818.04   -245.78196    569802.27    82.478076    83.117568    83.117568 
15800000    682.91052   -156659.57   -153834.92   -469.95461    569802.27    82.422101    83.145787    83.145787 
15900000    682.73527   -156686.59   -153862.66   -424.99869    569802.27    82.368028    83.173074    83.173074 
16000000    684.11168    -156673.4   -153843.78   -490.80133    569802.27     82.31607     83.19932     83.19932 
16100000     686.1886   -156657.82    -153819.6   -461.83299    569802.27    82.266431    83.224417    83.224417 
16200000    684.26725    -156662.8   -153832.53   -348.49269    569802.27    82.219308    83.248263    83.248263 
16300000      679.674   -156662.41   -153851.15   -399.44578    569802.27    82.174886    83.270761    83.270761 
16400000    682.95291   -156666.08   -153841.25   -263.22064    569802.27    82.133342    83.291818    83.291818 
16500000     682.8726   -156667.73   -153843.23   -333.30212    569802.27    82.094838    83.311348    83.311348 
16600000    689.37517   -156672.21   -153820.82   -479.52035    569802.27    82.059527    83.329271    83.329271 
16700000    682.39324   -156676.02   -153853.51   -387.97056    569802.27    82.027548    83.345513    83.345513 
16800000    690.94181   -156627.84   -153769.97   -89.335768    569802.27    81.999028    83.360006    83.360006 
16900000    687.30385    -156652.1   -153809.28   -227.70578    569802.27    81.974078     83.37269     83.37269 
17000000    694.14237    -156653.5   -153782.39   -392.94888    569802.27    81.952798    83.383514    83.383514 
17100000    685.34007   -156680.41   -153845.71   -604.60088    569802.27    81.935272    83.392432    83.392432 
17200000    685.02723   -156676.29   -153842.88   -393.97748    569802.27    81.921568    83.399407    83.399407 
17300000    687.39684   -156668.84   -153825.63   -473.19682    569802.27     81.91174    83.404409    83.404409 
17400000    683.10201   -156664.68   -153839.24   -650.39032    569802.27    81.905828    83.407419    83.407419 
17500000    686.94593   -156674.59   -153833.25   -498.11871    569802.27    81.903855    83.408424    83.408424 
17600000    693.35275   -156679.66   -153811.82   -536.02137    569802.27    81.905828    83.407419    83.407419 
17700000    682.79935   -156674.34   -153850.15   -525.29003    569802.27     81.91174    83.404409    83.404409 
17800000    682.77496   -156683.22   -153859.13   -662.55291    569802.27    81.921568    83.399407    83.399407 
17900000    685.59166   -156668.46   -153832.72   -234.40148    569802.27    81.935272    83.392432    83.392432 
18000000    686.03491   -156691.01   -153853.44   -559.11601    569802.27    81.952798    83.383514    83.383514 
18100000    683.37663   -156670.44   -153843.86   -479.77129    569802.27    81.974078     83.37269     83.37269 
18200000    687.11399   -156670.41   -153828.37   -496.16205    569802.27    81.999028    83.360006    83.360006 
18300000    686.56845   -156678.85   -153839.07    -486.6833    569802.27    82.027548    83.345513    83.345513 
18400000    687.50649   -156666.32   -153822.66   -244.23113    569802.27    82.059527    83.329271    83.329271 
18500000    685.06468   -156668.44   -153834.88   -256.32376    569802.27    82.094838    83.311348    83.311348 
18600000    688.88566   -156654.28   -153804.91   -255.94546    569802.27    82.133342    83.291818    83.291818 
18700000    683.46363   -156698.02   -153871.08   -675.00354    569802.27    82.174886    83.270761    83.270761 
18800000    680.14466   -156660.23   -153847.02   -455.62575    569802.27    82.219308    83.248263    83.248263 
18900000    688.41859   -156673.48   -153826.05    -429.6077    569802.27    82.266431    83.224417    83.224417 
19000000    689.44322   -156672.41   -153820.73   -566.83682    569802.27     82.31607     83.19932     83.19932 
19100000    683.91444   -156660.05   -153831.25   -423.91976    569802.27    82.368028    83.173074    83.173074 
19200000    688.75412   -156654.81   -153805.99   -273.29865    569802.27    82.422101    83.145787    83.145787 
19300000    687.77536   -156625.27    -153780.5   -11.870286    569802.27    82.478076    83.117568    83.117568 
19400000    688.83107   -156661.79   -153812.65   -281.43684    569802.27     82.53573    83.088532    83.088532 
19500000    683.91757   -156669.48   -153840.66    -418.0565    569802.27    82.594838    83.058797    83.058797 
19600000    684.37799   -156652.18   -153821.46   -211.56748    569802.27    82.655165     83.02848     83.02848 
19700000    692.18831   -156685.72   -153822.69   -231.59146    569802.27    82.716474    82.997705    82.997705 
19800000    689.72451   -156672.49   -153819.66   -287.80574    569802.27    82.778522    82.966593    82.966593 
19900000    682.83197   -156700.36   -153876.03    -548.8102    569802.27    82.841064    82.935268    82.935268 
20000000    685.92978   -156664.99   -153827.85   -215.14595    569802.27    82.903855    82.903855    82.903855 
20100000    689.44893   -156682.74   -153831.04   -332.17614    569802.27    82.966645    82.872477    82.872477 
20200000    690.52233   -156656.93   -153800.79   -229.00754    569802.27    83.029188    82.841259    82.841259 
20300000    682.78578   -156667.91   -153843.77   -431.03058    569802.27    83.091236    82.810323    82.810323 
20400000    684.36978   -156665.11   -153834.42   -255.99954    569802.27    83.152545    82.779789    82.779789 
20500000    689.75409   -156681.63   -153828.67   -386.77501    569802.27    83.212872    82.749777    82.749777 
20600000    683.70101   -156663.02    -153835.1   -408.84166    569802.27    83.271979    82.720403    82.720403 
20700000    682.32359   -156643.52    -153821.3    -161.4823    569802.27    83.329634    82.691782    82.691782 
20800000    686.74649   -156644.23   -153803.72    -158.0655    569802.27    83.385609    82.664023    82.664023 
20900000    680.82979   -156680.75    -153864.7   -416.82394    569802.27    83.439682    82.637233    82.637233 
21000000    687.37109    -156672.4    -153829.3   -335.62713    569802.27     83.49164    82.611516    82.611516 
21100000    685.58916   -156675.83    -153840.1   -431.43321    569802.27    83.541279    82.586969    82.586969 
21200000    684.04858   -156676.01   -153846.65   -585.66762    569802.27    83.588402    82.563687    82.563687 
21300000    682.62101   -156658.72   -153835.27   -313.40534    569802.27    83.632824    82.541757    82.541757 
21400000    679.45572   -156649.04   -153838.68   -512.37197    569802.27    83.674368    82.521263    82.521263 
21500000    681.15575   -156659.63   -153842.24   -469.05347    569802.27    83.712872    82.502283    82.502283 
21600000    683.66948   -156654.92   -153827.13   -319.77883    569802.27    83.748183    82.484888    82.484888 
21700000    686.80762   -156646.71   -153805.94   -390.57826    569802.27    83.780162    82.469145    82.469145 
21800000    681.64735   -156657.45   -153838.03   -438.70151    569802.27    83.808682    82.455111    82.455111 
21900000     683.6657   -156657.09   -153829.32   -302.12784    569802.27    83.833631    82.442841    82.442841 
22000000    684.24105   -156674.04   -153843.88   -489.33686    569802.27    83.854911    82.432379    82.432379 
22100000    688.05724   -156674.38   -153828.44   -300.06106    569802.27    83.872438    82.423766    82.423766 
22200000    683.37399   -156663.89   -153837.32   -307.33012    569802.27    83.886142    82.417033    82.417033 
22300000    682.49387   -156661.76   -153838.83   -311.48681    569802.27     83.89597    82.412206    82.412206 
22400000     684.1092   -156669.42   -153839.81   -276.78183    569802.27    83.901882    82.409302    82.409302 
22500000    686.43783   -156676.48   -153837.23   -469.75078    569802.27    83.903855    82.408333    82.408333 
22600000    690.03243   -156633.39   -153779.28   -213.90183    569802.27    83.901882    82.409302    82.409302 
22700000    691.39143   -156638.52   -153778.79   -128.84698    569802.27     83.89597    82.412206    82.412206 
22800000    684.11649   -156619.71   -153790.07    -215.0696    569802.27    83.886142    82.417033    82.417033 
22900000    686.40281   -156640.98   -153801.89   -391.75319    569802.27    83.872438    82.423766    82.423766 
23000000     680.3123   -156671.41   -153857.51   -547.25234    569802.27    83.854911    82.432379    82.432379 
23100000     680.7784   -156669.93    -153854.1   -337.98881    569802.27    83.833631    82.442841    82.442841 
23200000    679.99441   -156682.68   -153870.09   -400.65798    569802.27    83.808682    82.455111    82.455111 
23300000    687.62687   -156672.11   -153827.95   -418.18893    569802.27    83.780162    82.469145    82.469145 
23400000    687.91388   -156662.95   -153817.61   -339.53401    569802.27    83.748183    82.484888    82.484888 
23500000    681.48396   -156666.04   -153847.29   -601.07012    569802.27    83.712872    82.502283    82.502283 
23600000    685.01779   -156675.14   -153841.78    -535.3438    569802.27    83.674368    82.521263    82.521263 
23700000      683.636   -156675.86   -153848.21   -407.78359    569802.27    83.632824    82.541757    82.541757 
23800000    684.09881   -156683.08   -153853.51   -607.05028    569802.27    83.588402    82.563687    82.563687 
23900000    688.46295    -156697.8   -153850.18   -444.65555    569802.27    83.541279    82.586969    82.586969 
24000000     685.0109   -156669.38   -153836.04   -337.04806    569802.27     83.49164    82.611516    82.611516 
24100000    684.05801   -156683.58   -153854.18   -554.47776    569802.27    83.439682    82.637233    82.637233 
24200000    682.08787   -156665.34   -153844.09   -535.96217    569802.27    83.385609    82.664023    82.664023 
24300000    688.61945   -156692.31   -153844.05   -396.49327    569802.27    83.329634    82.691782    82.691782 
24400000    688.68012   -156678.59   -153830.08   -359.08997    569802.27    83.271979    82.720403    82.720403 
24500000    686.97864   -156709.43   -153867.95   -570.14225    569802.27    83.212872    82.749777    82.749777 
24600000    685.11598   -156676.77      -153843   -378.66388    569802.27    83.152545    82.779789    82.779789 
24700000    684.92201    -156671.9   -153838.92   -357.77445    569802.27    83.091236    82.810323    82.810323 
24800000    680.09308   -156654.66   -153841.66    -236.1073    569802.27    83.029188    82.841259    82.841259 
24900000    690.62107    -156681.6   -153825.06   -422.26046    569802.27    82.966645    82.872477    82.872477 
25000000    685.59063   -156623.72   -153787.99    -49.84757    569802.27    82.903855    82.903855    82.903855 
25100000    684.77258   -156654.69   -153822.34   -107.02657    569802.27    82.841064    82.935268    82.935268 
25200000    683.90588   -156665.32   -153836.55   -404.28227    569802.27    82.778522    82.966593    82.966593 
25300000    689.22157   -156654.82   -153804.07   -282.55761    569802.27    82.716474    82.997705    82.997705 
25400000    684.66602   -156677.84   -153845.93   -541.16194    569802.27    82.655165     83.02848     83.02848 
25500000    683.10875   -156673.21   -153847.74   -511.31138    569802.27    82.594838    83.058797    83.058797 
25600000    683.43348   -156638.91   -153812.09   -133.21799    569802.27     82.53573    83.088532    83.088532 
25700000     682.6771   -156654.91   -153831.22   -21.974745    569802.27    82.478076    83.117568    83.117568 
25800000    685.72023   -156675.88   -153839.61   -215.31757    569802.27    82.422101    83.145787    83.145787 
25900000    682.11064   -156678.49   -153857.15    -440.4619    569802.27    82.368028    83.173074    83.173074 
26000000    684.89183   -156670.26   -153837.41   -553.47175    569802.27     82.31607     83.19932     83.19932 
26100000    684.64291    -156633.5   -153801.68   -306.58045    569802.27    82.266431    83.224417    83.224417 
26200000    690.32331   -156663.73   -153808.42   -263.68602    569802.27    82.219308    83.248263    83.248263 
26300000    681.67481   -156674.22   -153854.68   -433.87018    569802.27    82.174886    83.270761    83.270761 
26400000    677.26704   -156657.56   -153856.25   -313.46712    569802.27    82.133342    83.291818    83.291818 
26500000      685.234   -156673.49   -153839.23   -139.25892    569802.27    82.094838    83.311348    83.311348 
26600000    683.43338   -156695.57   -153868.76   -404.17469    569802.27    82.059527    83.329271    83.329271 
26700000    686.32414   -156681.71   -153842.94   -421.88362    569802.27    82.027548    83.345513    83.345513 
26800000    681.97051   -156647.97   -153827.21   -234.57702    569802.27    81.999028    83.360006    83.360006 
26900000    677.64264   -156661.57   -153858.71   -476.00383    569802.27    81.974078     83.37269     83.37269 
27000000    679.01036   -156672.67   -153864.15   -534.33842    569802.27    81.952798    83.383514    83.383514 
27100000     681.4578   -156643.52   -153824.87   -213.21967    569802.27    81.935272    83.392432    83.392432 
27200000    686.19472   -156650.47   -153812.24   -235.70241    569802.27    81.921568    83.399407    83.399407 
27300000    688.19487   -156669.94   -153823.43   -293.15066    569802.27     81.91174    83.404409    83.404409 
27400000    683.93353   -156683.34   -153854.46   -392.52195    569802.27    81.905828    83.407419    83.407419 
27500000    675.90355   -156646.04   -153850.37   -374.09231    569802.27    81.903855    83.408424    83.408424 
27600000     686.0251   -156677.79   -153840.26   -295.62382    569802.27    81.905828    83.407419    83.407419 
27700000    688.74395   -156682.31   -153833.54   -625.79214    569802.27     81.91174    83.404409    83.404409 
27800000    683.56389   -156660.18   -153832.83    -423.5174    569802.27    81.921568    83.399407    83.399407 
27900000    686.63576   -156657.21   -153817.15   -239.88125    569802.27    81.935272    83.392432    83.392432 
28000000    687.34455   -156680.77   -153837.78   -574.92994    569802.27    81.952798    83.383514    83.383514 
28100000    682.73888   -156687.84    -153863.9   -346.90612    569802.27    81.974078     83.37269     83.37269 
28200000    682.88909   -156694.89   -153870.32   -488.16153    569802.27    81.999028    83.360006    83.360006 
28300000    689.16345   -156688.16   -153837.65    -684.4913    569802.27    82.027548    83.345513    83.345513 
28400000    682.97793   -156667.39   -153842.46   -402.93663    569802.27    82.059527    83.329271    83.329271 
28500000    675.97127   -156684.56   -153888.61   -517.83366    569802.27    82.094838    83.311348    83.311348 
28600000    682.97971   -156665.74    -153840.8   -515.36085    569802.27    82.133342    83.291818    83.291818 
28700000    683.56638   -156679.91   -153852.55   -391.71707    569802.27    82.174886    83.270761    83.270761 
28800000    690.99407   -156686.15   -153828.07   -416.01227    569802.27    82.219308    83.248263    83.248263 
28900000    681.34755    -156700.8   -153882.62   -694.96696    569802.27    82.266431    83.224417    83.224417 
29000000    691.57641   -156693.65   -153833.15   -460.66619    569802.27     82.31607     83.19932     83.19932 
29100000    686.46907   -156671.86   -153832.49   -399.39344    569802.27    82.368028    83.173074    83.173074 
29200000    687.26299   -156645.87   -153803.21   -122.40779    569802.27    82.422101    83.145787    83.145787 
29300000     683.1825   -156660.04   -153834.27   -438.45959    569802.27    82.478076    83.117568    83.117568 
29400000    676.90119   -156651.25   -153851.46   -398.52134    569802.27     82.53573    83.088532    83.088532 
29500000    686.97518   -156675.37    -153833.9   -329.24104    569802.27    82.594838    83.058797    83.058797 
29600000    682.64717   -156670.77   -153847.21   -449.50928    569802.27    82.655165     83.02848     83.02848 
29700000     686.6379    -156670.6   -153830.53   -372.02552    569802.27    82.716474    82.997705    82.997705 
29800000    688.78932   -156659.12   -153810.15   -202.10895    569802.27    82.778522    82.966593    82.966593 
29900000     684.7472   -156657.84    -153825.6   -346.50375    569802.27    82.841064    82.935268    82.935268 
30000000    683.56015   -156663.13   -153835.79   -289.79666    569802.27    82.903855    82.903855    82.903855 
30100000    685.61453   -156662.46   -153826.62   -369.12682    569802.27    82.966645    82.872477    82.872477 
30200000    684.48173   -156682.07   -153850.92   -448.39463    569802.27    83.029188    82.841259    82.841259 
30300000    687.94855   -156695.32   -153849.83    -481.7372    569802.27    83.091236    82.810323    82.810323 
30400000    689.13611   -156677.42   -153827.01   -450.80629    569802.27    83.152545    82.779789    82.779789 
30500000    687.52681   -156675.65   -153831.91   -404.28046    569802.27    83.212872    82.749777    82.749777 
30600000    684.86954   -156663.61   -153830.85   -166.26539    569802.27    83.271979    82.720403    82.720403 
30700000    684.28907   -156671.46    -153841.1   -525.41868    569802.27    83.329634    82.691782    82.691782 
30800000    682.51407   -156700.94   -153877.93   -532.06923    569802.27    83.385609    82.664023    82.664023 
30900000    684.01517   -156666.53   -153837.31   -450.15882    569802.27    83.439682    82.637233    82.637233 
31000000     680.3127   -156694.64   -153880.74   -520.40545    569802.27     83.49164    82.611516    82.611516 
31100000     686.6659   -156669.61   -153829.43   -370.09054    569802.27    83.541279    82.586969    82.586969 
31200000    685.95259   -156683.91   -153846.68   -560.77569    569802.27    83.588402    82.563687    82.563687 
31300000    682.54518   -156669.95   -153846.81   -383.42001    569802.27    83.632824    82.541757    82.541757 
31400000    683.40715   -156683.74   -153857.04   -523.69359    569802.27    83.674368    82.521263    82.521263 
31500000    680.81401    -156691.8   -153875.82   -556.96097    569802.27    83.712872    82.502283    82.502283 
31600000    686.83699   -156678.52   -153837.63   -478.41982    569802.27    83.748183    82.484888    82.484888 
31700000    685.82462   -156696.66   -153859.96   -629.22462    569802.27    83.780162    82.469145    82.469145 
31800000    680.32819   -156671.28   -153857.31   -382.33105    569802.27    83.808682    82.455111    82.455111 
31900000    688.43621   -156652.34   -153804.84   -115.34799    569802.27    83.833631    82.442841    82.442841 
32000000    682.04055   -156664.79   -153843.74   -382.43621    569802.27    83.854911    82.432379    82.432379 
32100000    678.92245   -156674.76    -153866.6   -390.77653    569802.27    83.872438    82.423766    82.423766 
32200000    691.69435   -156652.98      -153792   -223.86384    569802.27    83.886142    82.417033    82.417033 
32300000    687.09604   -156670.56   -153828.59    -167.6504    569802.27     83.89597    82.412206    82.412206 
32400000    683.87314    -156650.1   -153821.47    -342.4304    569802.27    83.901882    82.409302    82.409302 
32500000    681.63826   -156671.72   -153852.33   -464.02691    569802.27    83.903855    82.408333    82.408333 
32600000    687.12241   -156667.27   -153825.19   -523.76296    569802.27    83.901882    82.409302    82.409302 
32700000    689.34568   -156671.91   -153820.64   -265.90151    569802.27     83.89597    82.412206    82.412206 
32800000    686.14101   -156666.61    -153828.6   -502.17917    569802.27    83.886142    82.417033    82.417033 
32900000    682.84998   -156684.69   -153860.29   -419.19793    569802.27    83.872438    82.423766    82.423766 
33000000    690.62008   -156666.26   -153809.72    -326.7341    569802.27    83.854911    82.432379    82.432379 
33100000    681.42278   -156680.81   -153862.31   -582.22009    569802.27    83.833631    82.442841    82.442841 
33200000    689.00563   -156689.54   -153839.68   -545.31554    569802.27    83.808682    82.455111    82.455111 
33300000    682.54601   -156708.94    -153885.8   -692.61047    569802.27    83.780162    82.469145    82.469145 
33400000    684.17978   -156667.33   -153837.43   -393.67239    569802.27    83.748183    82.484888    82.484888 
33500000    687.05777   -156676.31    -153834.5   -516.31806    569802.27    83.712872    82.502283    82.502283 
33600000    684.08076   -156694.82   -153865.33   -529.49194    569802.27    83.674368    82.521263    82.521263 
33700000    679.50932   -156683.27   -153872.68   -577.63626    569802.27    83.632824    82.541757    82.541757 
33800000    685.80046   -156687.05   -153850.45   -318.91015    569802.27    83.588402    82.563687    82.563687 
33900000    685.45432   -156725.83   -153890.66   -901.94132    569802.27    83.541279    82.586969    82.586969 
34000000    683.99948   -156694.82   -153865.66   -511.08797    569802.27     83.49164    82.611516    82.611516 
34100000    676.94136   -156683.93   -153883.96   -434.33963    569802.27    83.439682    82.637233    82.637233 
34200000    685.81213   -156678.18   -153841.53   -429.30709    569802.27    83.385609    82.664023    82.664023 
34300000    686.10411    -156698.4   -153860.54   -580.32754    569802.27    83.329634    82.691782    82.691782 
34400000    685.96859   -156694.55   -153857.25   -458.90583    569802.27    83.271979    82.720403    82.720403 
34500000    685.73146   -156706.45   -153870.13   -314.38859    569802.27    83.212872    82.749777    82.749777 
34600000    682.86595   -156693.49   -153869.02   -521.30704    569802.27    83.152545    82.779789    82.779789 
34700000     685.0729    -156701.5    -153867.9   -478.92631    569802.27    83.091236    82.810323    82.810323 
34800000    685.65772   -156700.97   -153864.96   -392.32292    569802.27    83.029188    82.841259    82.841259 
34900000    682.65189    -156707.4   -153883.82   -558.23021    569802.27    82.966645    82.872477    82.872477 
35000000    687.76915   -156704.32   -153859.57   -563.52705    569802.27    82.903855    82.903855    82.903855 
35100000    689.97841   -156707.92   -153854.03   -436.72558    569802.27    82.841064    82.935268    82.935268 
35200000    686.95132   -156679.08   -153837.72    -312.8191    569802.27    82.778522    82.966593    82.966593 
35300000    684.91198   -156698.04   -153865.11   -421.02942    569802.27    82.716474    82.997705    82.997705 
35400000    684.50986   -156669.74   -153838.47    -153.9881    569802.27    82.655165     83.02848     83.02848 
35500000    684.39513   -156679.83   -153849.04   -317.24656    569802.27    82.594838    83.058797    83.058797 
35600000    689.68039   -156696.88   -153844.23   -473.20104    569802.27     82.53573    83.088532    83.088532 
35700000    688.36712   -156654.02    -153806.8   -50.833067    569802.27    82.478076    83.117568    83.117568 
35800000    687.05271   -156681.58   -153839.79   -512.33345    569802.27    82.422101    83.145787    83.145787 
35900000    675.68063   -156674.97   -153880.22   -487.23731    569802.27    82.368028    83.173074    83.173074 
36000000    683.09806   -156678.45   -153853.02   -461.64412    569802.27     82.31607     83.19932     83.19932 
36100000    685.64932   -156684.79   -153848.81    -364.1645    569802.27    82.266431    83.224417    83.224417 
36200000    680.64449    -156700.8   -153885.52   -648.34539    569802.27    82.219308    83.248263    83.248263 
36300000    687.70439   -156677.05   -153832.57   -334.89593    569802.27    82.174886    83.270761    83.270761 
36400000    680.09293   -156696.36   -153883.36    -634.8575    569802.27    82.133342    83.291818    83.291818 
36500000    686.16611   -156684.69   -153846.58   -336.01542    569802.27    82.094838    83.311348    83.311348 
36600000    680.58945   -156685.89   -153870.84   -241.50854    569802.27    82.059527    83.329271    83.329271 
36700000    685.23811   -156694.91   -153860.63   -360.30114    569802.27    82.027548    83.345513    83.345513 
36800000     687.8809   -156687.64   -153842.43   -363.29203    569802.27    81.999028    83.360006    83.360006 
36900000    680.35005   -156659.96    -153845.9    -409.2822    569802.27    81.974078     83.37269     83.37269 
37000000    682.63655   -156671.97   -153848.45   -451.20568    569802.27    81.952798    83.383514    83.383514 
37100000     684.8385   -156686.37   -153853.74   -265.33856    569802.27    81.935272    83.392432    83.392432 
37200000    685.69135   -156686.07   -153849.92   -423.08052    569802.27    81.921568    83.399407    83.399407 
37300000    688.65831   -156671.52   -153823.09   -313.87056    569802.27     81.91174    83.404409    83.404409 
37400000    683.38347   -156700.41    -153873.8   -540.51932    569802.27    81.905828    83.407419    83.407419 
37500000    685.08092   -156683.37   -153849.74   -488.30266    569802.27    81.903855    83.408424    83.408424 
37600000    685.19535   -156674.63   -153840.52   -439.37242    569802.27    81.905828    83.407419    83.407419 
37700000    685.76297   -156644.03   -153807.59   -297.25609    569802.27     81.91174    83.404409    83.404409 
37800000    680.58839   -156686.89   -153871.85   -448.12151    569802.27    81.921568    83.399407    83.399407 
37900000    682.08534   -156690.68   -153869.44   -487.63244    569802.27    81.935272    83.392432    83.392432 
38000000    683.77139   -156683.38   -153855.17   -365.40242    569802.27    81.952798    83.383514    83.383514 
38100000    689.51157   -156688.19   -153836.24   -400.59552    569802.27    81.974078     83.37269     83.37269 
38200000    684.87413   -156716.11   -153883.34   -717.95514    569802.27    81.999028    83.360006    83.360006 
38300000    684.65391   -156676.91   -153845.04    -248.8276    569802.27    82.027548    83.345513    83.345513 
38400000    685.40228   -156664.55   -153829.59   -297.79962    569802.27    82.059527    83.329271    83.329271 
38500000    684.14462   -156691.61   -153861.85   -468.09853    569802.27    82.094838    83.311348    83.311348 
38600000    679.69184    -156682.1   -153870.77   -497.03916    569802.27    82.133342    83.291818    83.291818 
38700000    685.64936   -156674.14   -153838.16   -402.70706    569802.27    82.174886    83.270761    83.270761 
38800000    687.33727   -156685.47    -153842.5   -334.62546    569802.27    82.219308    83.248263    83.248263 
38900000    689.91599   -156700.79   -153847.16   -535.67074    569802.27    82.266431    83.224417    83.224417 
39000000    692.67262   -156699.68   -153834.65   -550.59434    569802.27     82.31607     83.19932     83.19932 
39100000    685.50084   -156671.66    -153836.3   -330.15141    569802.27    82.368028    83.173074    83.173074 
39200000      686.263   -156689.18   -153850.66   -510.98564    569802.27    82.422101    83.145787    83.145787 
39300000    689.06505   -156695.36   -153845.25   -375.66163    569802.27    82.478076    83.117568    83.117568 
39400000    681.93383   -156684.58   -153863.97   -314.98116    569802.27     82.53573    83.088532    83.088532 
39500000    689.58247   -156673.84   -153821.59   -343.42799    569802.27    82.594838    83.058797    83.058797 
39600000    683.21275   -156674.94   -153849.04   -368.30262    569802.27    82.655165     83.02848     83.02848 
39700000    683.73495    -156672.5   -153844.44   -293.46552    569802.27    82.716474    82.997705    82.997705 
39800000    684.28236   -156694.29   -153863.96   -418.94755    569802.27    82.778522    82.966593    82.966593 
39900000    684.32949   -156669.18   -153838.66   -419.35619    569802.27    82.841064    82.935268    82.935268 
40000000    691.26316   -156679.64   -153820.44   -380.86401    569802.27    82.903855    82.903855    82.903855 
40100000    683.80731   -156669.09   -153840.73   -361.07586    569802.27    82.966645    82.872477    82.872477 
40200000    685.16296   -156680.56   -153846.59   -529.59874    569802.27    83.029188    82.841259    82.841259 
40300000    683.47766    -156684.6   -153857.61   -546.22108    569802.27    83.091236    82.810323    82.810323 
40400000    680.95467   -156710.77   -153894.21   -481.03348    569802.27    83.152545    82.779789    82.779789 
40500000    684.12097   -156681.57   -153851.91   -472.42012    569802.27    83.212872    82.749777    82.749777 
40600000    685.19891   -156674.68   -153840.56   -372.58192    569802.27    83.271979    82.720403    82.720403 
40700000    690.65466   -156692.07   -153835.39    -305.9275    569802.27    83.329634    82.691782    82.691782 
40800000    686.78027   -156682.08   -153841.42   -358.89532    569802.27    83.385609    82.664023    82.664023 
40900000    690.58707   -156670.44   -153814.04   -417.10023    569802.27    83.439682    82.637233    82.637233 
41000000    687.14801   -156663.57   -153821.39   -370.42059    569802.27     83.49164    82.611516    82.611516 
41100000    689.87083   -156648.59   -153795.15   -276.43722    569802.27    83.541279    82.586969    82.586969 
41200000     682.0173    -156670.4   -153849.45   -473.25863    569802.27    83.588402    82.563687    82.563687 
41300000    684.54711   -156658.18   -153826.76   -207.44421    569802.27    83.632824    82.541757    82.541757 
41400000    682.04039   -156663.48   -153842.43   -193.13242    569802.27    83.674368    82.521263    82.521263 
41500000    688.22399   -156668.36   -153821.73   -292.67689    569802.27    83.712872    82.502283    82.502283 
41600000    689.15309    -156667.9   -153817.43   -194.83762    569802.27    83.748183    82.484888    82.484888 
41700000    684.63665   -156659.92   -153828.13   -251.48719    569802.27    83.780162    82.469145    82.469145 
41800000    684.84642   -156665.21   -153832.55   -492.46061    569802.27    83.808682    82.455111    82.455111 
41900000    688.53653    -156673.2   -153825.28   -340.61978    569802.27    83.833631    82.442841    82.442841 
42000000     685.7699   -156662.11   -153825.64    -334.3164    569802.27    83.854911    82.432379    82.432379 
42100000     691.6329   -156686.83    -153826.1   -567.83076    569802.27    83.872438    82.423766    82.423766 
42200000    679.10599   -156663.46   -153854.54    -346.1882    569802.27    83.886142    82.417033    82.417033 
42300000    680.42523   -156707.52   -153893.15   -551.92657    569802.27     83.89597    82.412206    82.412206 
42400000    688.43279   -156666.09    -153818.6   -214.64972    569802.27    83.901882    82.409302    82.409302 
42500000    689.45273   -156691.78   -153840.07    -397.6488    569802.27    83.903855    82.408333    82.408333 
42600000    686.36244   -156713.65   -153874.72   -669.29378    569802.27    83.901882    82.409302    82.409302 
42700000    681.97239   -156672.89   -153852.12   -441.65609    569802.27     83.89597    82.412206    82.412206 
42800000     682.9751   -156683.16   -153858.24   -472.17387    569802.27    83.886142    82.417033    82.417033 
42900000    682.69574   -156696.14   -153872.38   -482.59288    569802.27    83.872438    82.423766    82.423766 
43000000    681.99339   -156683.61   -153862.75   -551.85875    569802.27    83.854911    82.432379    82.432379 
43100000    685.20238   -156676.21   -153842.08   -198.69072    569802.27    83.833631    82.442841    82.442841 
43200000    683.50721   -156697.27   -153870.15   -692.58864    569802.27    83.808682    82.455111    82.455111 
43300000     687.7557   -156676.98   -153832.29   -491.18501    569802.27    83.780162    82.469145    82.469145 
43400000     685.1219   -156679.85   -153846.05   -329.29687    569802.27    83.748183    82.484888    82.484888 
43500000    682.32341   -156699.02    -153876.8   -617.23734    569802.27    83.712872    82.502283    82.502283 
43600000    687.49474    -156690.4   -153846.78   -377.56598    569802.27    83.674368    82.521263    82.521263 
43700000    690.17454   -156707.65   -153852.95    -757.2373    569802.27    83.632824    82.541757    82.541757 
43800000    690.13574   -156685.62   -153831.09   -356.10646    569802.27    83.588402    82.563687    82.563687 
43900000    687.51997    -156710.5   -153866.78   -748.82625    569802.27    83.541279    82.586969    82.586969 
44000000    691.52309   -156675.43   -153815.16   -201.27376    569802.27     83.49164    82.611516    82.611516 
44100000    683.81615   -156702.64   -153874.25   -688.17239    569802.27    83.439682    82.637233    82.637233 
44200000     681.9236   -156679.21   -153858.64   -448.17132    569802.27    83.385609    82.664023    82.664023 
44300000    687.17511   -156679.93   -153837.64   -383.65296    569802.27    83.329634    82.691782    82.691782 
44400000    684.77833   -156693.61   -153861.24   -423.39761    569802.27    83.271979    82.720403    82.720403 
44500000    686.16142   -156682.53   -153844.43   -336.58223    569802.27    83.212872    82.749777    82.749777 
44600000    688.23254   -156695.71   -153849.05   -490.40239    569802.27    83.152545    82.779789    82.779789 
44700000    687.52671   -156694.04   -153850.29   -345.51851    569802.27    83.091236    82.810323    82.810323 
44800000    691.88792   -156670.94   -153809.16   -168.50648    569802.27    83.029188    82.841259    82.841259 
44900000    683.36365   -156696.66   -153870.13   -353.72118    569802.27    82.966645    82.872477    82.872477 
45000000     682.9481    -156691.3    -153866.5   -417.96608    569802.27    82.903855    82.903855    82.903855 
45100000     679.4973   -156718.47   -153907.93   -608.60395    569802.27    82.841064    82.935268    82.935268 
45200000    685.54576   -156710.76   -153875.21   -576.87726    569802.27    82.778522    82.966593    82.966593 
45300000    681.75959   -156703.05   -153883.16   -516.71266    569802.27    82.716474    82.997705    82.997705 
45400000    685.88401   -156683.63   -153846.68   -546.65697    569802.27    82.655165     83.02848     83.02848 
45500000    687.38405   -156677.97   -153834.81   -264.99917    569802.27    82.594838    83.058797    83.058797 
45600000    689.58085   -156695.79   -153843.55   -402.58793    569802.27     82.53573    83.088532    83.088532 
45700000    681.58019   -156679.39   -153860.24   -447.56016    569802.27    82.478076    83.117568    83.117568 
45800000    687.12106   -156702.01   -153859.95   -720.55324    569802.27    82.422101    83.145787    83.145787 
45900000    685.54446   -156722.01   -153886.46   -734.91833    569802.27    82.368028    83.173074    83.173074 
46000000    690.94995   -156684.58   -153826.68   -485.00713    569802.27     82.31607     83.19932     83.19932 
46100000    685.61922   -156685.23   -153849.37   -479.07551    569802.27    82.266431    83.224417    83.224417 
46200000    684.40975   -156697.43   -153866.58   -743.38921    569802.27    82.219308    83.248263    83.248263 
46300000    685.93808    -156690.3   -153853.13   -417.05619    569802.27    82.174886    83.270761    83.270761 
46400000      683.975   -156684.84   -153855.79   -736.59247    569802.27    82.133342    83.291818    83.291818 
46500000    685.10848   -156684.63   -153850.89   -513.23513    569802.27    82.094838    83.311348    83.311348 
46600000    688.92199   -156645.96   -153796.45   -92.051497    569802.27    82.059527    83.329271    83.329271 
46700000    685.10589   -156663.11   -153829.38   -411.48699    569802.27    82.027548    83.345513    83.345513 
46800000    683.80821   -156677.75   -153849.39   -413.05055    569802.27    81.999028    83.360006    83.360006 
46900000    686.90549   -156674.23   -153833.06   -384.19411    569802.27    81.974078     83.37269     83.37269 
47000000    682.03985   -156661.09   -153840.04    -309.0936    569802.27    81.952798    83.383514    83.383514 
47100000     681.8929    -156672.1   -153851.66   -540.51973    569802.27    81.935272    83.392432    83.392432 
47200000    688.90245   -156650.14   -153800.71   -319.62989    569802.27    81.921568    83.399407    83.399407 
47300000    687.72276      -156695   -153850.44   -541.01677    569802.27     81.91174    83.404409    83.404409 
47400000    682.78428   -156670.62   -153846.49   -396.68359    569802.27    81.905828    83.407419    83.407419 
47500000     681.6143   -156673.49    -153854.2   -382.07565    569802.27    81.903855    83.408424    83.408424 
47600000    685.43086   -156654.97    -153819.9   -341.31143    569802.27    81.905828    83.407419    83.407419 
47700000    681.28219   -156687.49   -153869.58   -578.94176    569802.27     81.91174    83.404409    83.404409 
47800000    687.58085   -156654.66   -153810.69   -273.00258    569802.27    81.921568    83.399407    83.399407 
47900000    686.03844    -156680.5   -153842.92   -682.73733    569802.27    81.935272    83.392432    83.392432 
48000000    687.51996   -156667.19   -153823.48   -386.02045    569802.27    81.952798    83.383514    83.383514 
48100000     683.2578   -156689.85   -153863.76   -629.14098    569802.27    81.974078     83.37269     83.37269 
48200000    686.70105   -156689.57   -153849.25   -553.24634    569802.27    81.999028    83.360006    83.360006 
48300000    684.24302   -156697.15   -153866.98   -643.63898    569802.27    82.027548    83.345513    83.345513 
48400000     679.3127   -156705.06   -153895.29   -782.56945    569802.27    82.059527    83.329271    83.329271 
48500000    678.93568   -156688.26   -153880.04   -664.24599    569802.27    82.094838    83.311348    83.311348 
48600000    683.51661   -156653.35   -153826.19   -481.18512    569802.27    82.133342    83.291818    83.291818 
48700000    687.34182   -156685.98      -153843   -377.92898    569802.27    82.174886    83.270761    83.270761 
48800000     684.1074   -156699.23   -153869.62   -668.16802    569802.27    82.219308    83.248263    83.248263 
48900000    687.83015   -156657.25   -153812.25    -248.6772    569802.27    82.266431    83.224417    83.224417 
49000000    685.61476   -156660.16   -153824.33   -497.82993    569802.27     82.31607     83.19932     83.19932 
49100000    685.95221   -156717.43    -153880.2    -929.8637    569802.27    82.368028    83.173074    83.173074 
49200000      678.614   -156694.76   -153887.88   -628.02555    569802.27    82.422101    83.145787    83.145787 
49300000     682.7315   -156666.38   -153842.47   -567.00644    569802.27    82.478076    83.117568    83.117568 
49400000    679.35336   -156683.23   -153873.29   -654.71391    569802.27     82.53573    83.088532    83.088532 
49500000    684.42796   -156685.24   -153854.31   -563.14797    569802.27    82.594838    83.058797    83.058797 
49600000    685.18447   -156691.56   -153857.51   -544.75858    569802.27    82.655165     83.02848     83.02848 
49700000    685.08804   -156660.21   -153826.55   -294.38586    569802.27    82.716474    82.997705    82.997705 
49800000    690.61928   -156685.77   -153829.23   -482.58429    569802.27    82.778522    82.966593    82.966593 
49900000    686.26051   -156698.79   -153860.28   -733.46301    569802.27    82.841064    82.935268    82.935268 
50000000    685.56273   -156660.88   -153825.26    -393.9983    569802.27    82.903855    82.903855    82.903855 
50100000    684.24451   -156690.47    -153860.3   -636.78676    569802.27    82.966645    82.872477    82.872477 
50200000    682.09391   -156676.84   -153855.57   -576.31029    569802.27    83.029188    82.841259    82.841259 
50300000    681.02876    -156670.3   -153853.43   -510.38773    569802.27    83.091236    82.810323    82.810323 
50400000    690.19218      -156682   -153827.23    -484.8368    569802.27    83.152545    82.779789    82.779789 
50500000    685.44115    -156689.2   -153854.08   -664.37362    569802.27    83.212872    82.749777    82.749777 
50600000    679.96593   -156671.87    -153859.4    -440.0135    569802.27    83.271979    82.720403    82.720403 
50700000    684.61176   -156709.87   -153878.18   -625.94489    569802.27    83.329634    82.691782    82.691782 
50800000    685.95318   -156689.53   -153852.29   -526.61774    569802.27    83.385609    82.664023    82.664023 
50900000    677.39515   -156694.81   -153892.97   -578.66574    569802.27    83.439682    82.637233    82.637233 
51000000    681.06252   -156676.65   -153859.64    -432.0806    569802.27     83.49164    82.611516    82.611516 
51100000     687.4111   -156682.81   -153839.55   -317.22849    569802.27    83.541279    82.586969    82.586969 
51200000     690.0161   -156648.36   -153794.31   -52.389538    569802.27    83.588402    82.563687    82.563687 
51300000    690.04208    -156657.9   -153803.75   -266.09406    569802.27    83.632824    82.541757    82.541757 
51400000    686.90798   -156682.14   -153840.96   -425.22619    569802.27    83.674368    82.521263    82.521263 
51500000    684.88721   -156680.11   -153847.29   -471.87254    569802.27    83.712872    82.502283    82.502283 
51600000    684.36328   -156685.47   -153854.81   -515.72876    569802.27    83.748183    82.484888    82.484888 
51700000    684.87986   -156679.57   -153846.77   -540.02374    569802.27    83.780162    82.469145    82.469145 
51800000    683.98407   -156671.01   -153841.92   -545.14014    569802.27    83.808682    82.455111    82.455111 
51900000     676.1989   -156669.37   -153872.48   -449.94964    569802.27    83.833631    82.442841    82.442841 
52000000    682.73334   -156683.19   -153859.27   -510.35594    569802.27    83.854911    82.432379    82.432379 
52100000    680.89178      -156669    -153852.7   -360.81132    569802.27    83.872438    82.423766    82.423766 
52200000    685.89392   -156662.87   -153825.88   -257.60637    569802.27    83.886142    82.417033    82.417033 
52300000    688.20298   -156674.16   -153827.62   -400.13445    569802.27     83.89597    82.412206    82.412206 
52400000     686.3386   -156702.88   -153864.05   -583.67041    569802.27    83.901882    82.409302    82.409302 
52500000    679.54077   -156674.27   -153863.56   -464.69458    569802.27    83.903855    82.408333    82.408333 
52600000    681.46455   -156665.62   -153846.95   -281.76191    569802.27    83.901882    82.409302    82.409302 
52700000    685.85536   -156697.75   -153860.92   -512.96482    569802.27     83.89597    82.412206    82.412206 
52800000    684.31573   -156663.69   -153833.22   -252.59101    569802.27    83.886142    82.417033    82.417033 
52900000    684.70627   -156659.23   -153827.15   -249.63308    569802.27    83.872438    82.423766    82.423766 
53000000     690.6928   -156674.32   -153817.48   -284.14561    569802.27    83.854911    82.432379    82.432379 
53100000    686.56239   -156661.19   -153821.43    -172.8168    569802.27    83.833631    82.442841    82.442841 
53200000    679.61758   -156682.66   -153871.62   -309.00347    569802.27    83.808682    82.455111    82.455111 
53300000    685.00845   -156664.71   -153831.38   -293.08361    569802.27    83.780162    82.469145    82.469145 
53400000    679.72942   -156680.03   -153868.54   -422.30192    569802.27    83.748183    82.484888    82.484888 
53500000    685.54649   -156696.96    -153861.4   -475.62419    569802.27    83.712872    82.502283    82.502283 
53600000    682.39036   -156664.09   -153841.59   -473.28912    569802.27    83.674368    82.521263    82.521263 
53700000    688.60089   -156690.55   -153842.36   -686.17504    569802.27    83.632824    82.541757    82.541757 
53800000    684.92105   -156698.24   -153865.27   -588.38192    569802.27    83.588402    82.563687    82.563687 
53900000    683.75058   -156686.85   -153858.72   -437.90625    569802.27    83.541279    82.586969    82.586969 
54000000    681.57883   -156689.36   -153870.22   -729.93144    569802.27     83.49164    82.611516    82.611516 
54100000     687.6818   -156672.32   -153827.94   -567.71538    569802.27    83.439682    82.637233    82.637233 
54200000    681.07954    -156684.4   -153867.32   -596.82202    569802.27    83.385609    82.664023    82.664023 
54300000    683.89937      -156684   -153855.25   -670.56145    569802.27    83.329634    82.691782    82.691782 
54400000    685.10348   -156688.45   -153854.72    -596.7703    569802.27    83.271979    82.720403    82.720403 
54500000    686.45334   -156702.68   -153863.38   -671.11653    569802.27    83.212872    82.749777    82.749777 
54600000    682.35869      -156650   -153827.64   -377.30109    569802.27    83.152545    82.779789    82.779789 
54700000     681.2012   -156687.76   -153870.18   -571.37777    569802.27    83.091236    82.810323    82.810323 
54800000     684.2735   -156680.16   -153849.87   -484.63262    569802.27    83.029188    82.841259    82.841259 
54900000    683.92927   -156680.33   -153851.47   -393.48471    569802.27    82.966645    82.872477    82.872477 
55000000    678.05049   -156668.26   -153863.71   -253.46038    569802.27    82.903855    82.903855    82.903855 
55100000    682.04112   -156655.64   -153834.58   -312.90416    569802.27    82.841064    82.935268    82.935268 
55200000    684.30848   -156678.47   -153848.04   -533.28547    569802.27    82.778522    82.966593    82.966593 
55300000    684.89121   -156659.24    -153826.4   -376.82884    569802.27    82.716474    82.997705    82.997705 
55400000    681.99251   -156673.04   -153852.19   -498.58035    569802.27    82.655165     83.02848     83.02848 
55500000    684.69399    -156660.1   -153828.07   -397.09647    569802.27    82.594838    83.058797    83.058797 
55600000    682.64781   -156679.32   -153855.76   -556.75583    569802.27     82.53573    83.088532    83.088532 
55700000    686.74366   -156677.52   -153837.01   -437.18596    569802.27    82.478076    83.117568    83.117568 
55800000    685.76375   -156688.65   -153852.19   -530.28874    569802.27    82.422101    83.145787    83.145787 
55900000    692.88962   -156649.08   -153783.15   -228.38038    569802.27    82.368028    83.173074    83.173074 
56000000    688.05902   -156670.83   -153824.88   -417.21443    569802.27     82.31607     83.19932     83.19932 
56100000    685.64773   -156650.78   -153814.81   -293.28397    569802.27    82.266431    83.224417    83.224417 
56200000    687.93939   -156688.82   -153843.37   -531.26469    569802.27    82.219308    83.248263    83.248263 
56300000        679.3   -156683.17   -153873.46   -682.95247    569802.27    82.174886    83.270761    83.270761 
56400000    688.18465   -156651.76    -153805.3   -289.14288    569802.27    82.133342    83.291818    83.291818 
56500000    683.32236   -156667.21   -153840.86   -389.50766    569802.27    82.094838    83.311348    83.311348 
56600000    683.15134   -156667.88   -153842.24   -661.73775    569802.27    82.059527    83.329271    83.329271 
56700000    681.66188   -156651.13   -153831.64   -376.80163    569802.27    82.027548    83.345513    83.345513 
56800000    679.56571   -156648.65   -153837.84   -279.82617    569802.27    81.999028    83.360006    83.360006 
56900000    685.24544   -156683.98   -153849.68   -556.22353    569802.27    81.974078     83.37269     83.37269 
57000000    683.48236   -156653.27   -153826.25   -396.39028    569802.27    81.952798    83.383514    83.383514 
57100000    687.42597   -156642.46   -153799.14   -273.79716    569802.27    81.935272    83.392432    83.392432 
57200000     679.6741   -156674.82   -153863.56    -618.2043    569802.27    81.921568    83.399407    83.399407 
57300000    687.29154    -156647.8   -153805.03   -335.27917    569802.27     81.91174    83.404409    83.404409 
57400000    686.50071   -156670.89   -153831.39   -394.56965    569802.27    81.905828    83.407419    83.407419 
57500000    682.51276   -156659.83   -153836.82   -474.50162    569802.27    81.903855    83.408424    83.408424 
57600000    683.06431   -156641.71   -153816.42   -365.88199    569802.27    81.905828    83.407419    83.407419 
57700000    684.26287   -156652.52   -153822.28   -351.64601    569802.27     81.91174    83.404409    83.404409 
57800000    692.04951   -156665.64   -153803.19   -273.22358    569802.27    81.921568    83.399407    83.399407 
57900000    683.69336   -156664.82   -153836.93   -585.04762    569802.27    81.935272    83.392432    83.392432 
58000000    685.68185   -156644.88   -153808.76    -297.0161    569802.27    81.952798    83.383514    83.383514 
58100000    681.76819   -156696.88   -153876.95   -632.26094    569802.27    81.974078     83.37269     83.37269 
58200000    680.18287   -156679.32   -153865.95   -516.10146    569802.27    81.999028    83.360006    83.360006 
58300000    684.70848   -156677.67   -153845.58   -400.53351    569802.27    82.027548    83.345513    83.345513 
58400000    684.78566   -156693.08   -153860.67   -519.54336    569802.27    82.059527    83.329271    83.329271 
58500000    687.71082   -156657.07   -153812.56   -275.12101    569802.27    82.094838    83.311348    83.311348 
58600000    689.06179   -156675.68   -153825.59    -594.6326    569802.27    82.133342    83.291818    83.291818 
58700000     681.0836   -156686.87   -153869.77   -660.07177    569802.27    82.174886    83.270761    83.270761 
58800000    680.79414   -156674.49   -153858.59    -435.7804    569802.27    82.219308    83.248263    83.248263 
58900000    683.07098   -156676.07   -153850.76   -500.44919    569802.27    82.266431    83.224417    83.224417 
59000000    683.97766   -156688.32   -153859.25   -570.45473    569802.27     82.31607     83.19932     83.19932 
59100000    684.65051   -156680.17   -153848.33   -525.58325    569802.27    82.368028    83.173074    83.173074 
59200000    680.84254   -156706.82   -153890.72   -655.57983    569802.27    82.422101    83.145787    83.145787 
59300000     681.5776   -156682.37   -153863.23   -618.96808    569802.27    82.478076    83.117568    83.117568 
59400000    688.70947   -156670.31   -153821.68   -524.76325    569802.27     82.53573    83.088532    83.088532 
59500000    687.30051   -156669.97   -153827.16   -388.81667    569802.27    82.594838    83.058797    83.058797 
59600000    686.46511   -156661.07   -153821.71    -330.6811    569802.27    82.655165     83.02848     83.02848 
59700000    685.68109   -156666.43   -153830.32   -494.88237    569802.27    82.716474    82.997705    82.997705 
59800000     687.3143    -156691.4   -153848.53   -570.06703    569802.27    82.778522    82.966593    82.966593 
59900000    681.29731   -156690.92   -153872.94   -486.84978    569802.27    82.841064    82.935268    82.935268 
60000000    689.06885   -156650.56   -153800.44   -193.27494    569802.27    82.903855    82.903855    82.903855 
60100000    682.54987   -156662.88   -153839.72   -679.92475    569802.27    82.966645    82.872477    82.872477 
60200000    683.45075   -156678.31   -153851.43   -529.58212    569802.27    83.029188    82.841259    82.841259 
60300000     688.1838   -156651.25   -153804.79   -284.60168    569802.27    83.091236    82.810323    82.810323 
60400000    691.53061   -156679.32   -153819.01   -378.81326    569802.27    83.152545    82.779789    82.779789 
60500000    681.67824   -156673.17   -153853.61   -491.56442    569802.27    83.212872    82.749777    82.749777 
60600000    682.85903   -156666.18   -153841.74   -343.89541    569802.27    83.271979    82.720403    82.720403 
60700000     689.9539   -156698.86   -153845.07   -577.73514    569802.27    83.329634    82.691782    82.691782 
60800000    684.31674   -156652.97    -153822.5   -350.20623    569802.27    83.385609    82.664023    82.664023 
60900000    689.26286   -156674.34   -153823.41   -552.94776    569802.27    83.439682    82.637233    82.637233 
61000000    682.44525   -156665.46   -153842.73   -480.66496    569802.27     83.49164    82.611516    82.611516 
61100000    679.65846    -156670.1    -153858.9   -380.20024    569802.27    83.541279    82.586969    82.586969 
61200000    680.72969   -156656.29   -153840.66   -366.57717    569802.27    83.588402    82.563687    82.563687 
61300000    687.03544   -156654.96   -153813.25   -303.55091    569802.27    83.632824    82.541757    82.541757 
61400000     688.0309      -156686   -153840.16    -430.7202    569802.27    83.674368    82.521263    82.521263 
61500000    685.31183   -156661.98    -153827.4   -508.83133    569802.27    83.712872    82.502283    82.502283 
61600000    687.92499   -156635.82   -153790.43    22.782265    569802.27    83.748183    82.484888    82.484888 
61700000    688.47982   -156650.01   -153802.33   -151.62291    569802.27    83.780162    82.469145    82.469145 
61800000    681.73972    -156669.5   -153849.69   -378.54682    569802.27    83.808682    82.455111    82.455111 
61900000    682.69275   -156645.79   -153822.04   -244.32498    569802.27    83.833631    82.442841    82.442841 
62000000    682.40825   -156641.51   -153818.94   -119.63604    569802.27    83.854911    82.432379    82.432379 
62100000    686.82666   -156640.34   -153799.49   -159.67214    569802.27    83.872438    82.423766    82.423766 
62200000     683.6196   -156667.76   -153840.18    -482.3297    569802.27    83.886142    82.417033    82.417033 
62300000    682.72655    -156639.4   -153815.51   -278.96209    569802.27     83.89597    82.412206    82.412206 
62400000    679.95895   -156631.23   -153818.79   -396.66477    569802.27    83.901882    82.409302    82.409302 
62500000    678.03424    -156647.7   -153843.22   -507.73546    569802.27    83.903855    82.408333    82.408333 
62600000    683.79409    -156660.5   -153832.19   -339.89845    569802.27    83.901882    82.409302    82.409302 
62700000    688.29219    -156652.8   -153805.89   -364.56717    569802.27     83.89597    82.412206    82.412206 
62800000    679.89528    -156660.8   -153848.62   -491.34095    569802.27    83.886142    82.417033    82.417033 
62900000    683.33986   -156627.57   -153801.14   -175.25391    569802.27    83.872438    82.423766    82.423766 
63000000    678.81623   -156649.67   -153841.95   -351.57359    569802.27    83.854911    82.432379    82.432379 
63100000    685.67261   -156613.44   -153777.36   -106.43111    569802.27    83.833631    82.442841    82.442841 
63200000    689.50985   -156668.09   -153816.14   -482.24349    569802.27    83.808682    82.455111    82.455111 
63300000    690.85869   -156676.83   -153819.31   -418.32758    569802.27    83.780162    82.469145    82.469145 
63400000    687.50987   -156670.77    -153827.1   -542.32868    569802.27    83.748183    82.484888    82.484888 
63500000    688.81871   -156671.48   -153822.39    -503.4719    569802.27    83.712872    82.502283    82.502283 
63600000    685.66762   -156659.47   -153823.41    -527.3961    569802.27    83.674368    82.521263    82.521263 
63700000    683.74011   -156690.16   -153862.08   -634.20466    569802.27    83.632824    82.541757    82.541757 
63800000    678.32312   -156658.86   -153853.18   -508.69648    569802.27    83.588402    82.563687    82.563687 
63900000    681.40245   -156673.05   -153854.63   -568.43185    569802.27    83.541279    82.586969    82.586969 
64000000     681.2196   -156672.61   -153854.95   -509.71219    569802.27     83.49164    82.611516    82.611516 
64100000    685.84742   -156623.59   -153786.79   -93.826307    569802.27    83.439682    82.637233    82.637233 
64200000    682.58349   -156664.71   -153841.41   -498.27434    569802.27    83.385609    82.664023    82.664023 
64300000    686.13725   -156672.38   -153834.38   -356.96219    569802.27    83.329634    82.691782    82.691782 
64400000     683.0174   -156662.43   -153837.34   -446.49945    569802.27    83.271979    82.720403    82.720403 
64500000    683.35025   -156671.27    -153844.8   -564.80925    569802.27    83.212872    82.749777    82.749777 
64600000    685.00623   -156683.58   -153850.26   -526.35882    569802.27    83.152545    82.779789    82.779789 
64700000    684.74451   -156664.09   -153831.85   -423.03424    569802.27    83.091236    82.810323    82.810323 
64800000    686.93611   -156673.71   -153832.41   -343.48849    569802.27    83.029188    82.841259    82.841259 
64900000    686.92352   -156696.94   -153855.69   -676.98385    569802.27    82.966645    82.872477    82.872477 
65000000    688.29191    -156685.9   -153838.99   -471.56947    569802.27    82.903855    82.903855    82.903855 
65100000    687.00116   -156683.09   -153841.51   -410.59692    569802.27    82.841064    82.935268    82.935268 
65200000    684.35299   -156673.68   -153843.06    -497.1646    569802.27    82.778522    82.966593    82.966593 
65300000    685.85917   -156676.98   -153840.14   -438.08276    569802.27    82.716474    82.997705    82.997705 
65400000    690.18712   -156672.81   -153818.06   -512.24017    569802.27    82.655165     83.02848     83.02848 
65500000    687.92739   -156648.46   -153803.06   -74.406785    569802.27    82.594838    83.058797    83.058797 
65600000    683.82254   -156651.51   -153823.09   -298.32758    569802.27     82.53573    83.088532    83.088532 
65700000    686.45232   -156689.47   -153850.17   -658.28093    569802.27    82.478076    83.117568    83.117568 
65800000    686.38458   -156653.31   -153814.28    -409.8581    569802.27    82.422101    83.145787    83.145787 
65900000    682.62347   -156687.46      -153864   -734.98904    569802.27    82.368028    83.173074    83.173074 
66000000    679.74306   -156683.53   -153871.98   -562.08907    569802.27     82.31607     83.19932     83.19932 
66100000    682.48774   -156674.26   -153851.36   -494.23413    569802.27    82.266431    83.224417    83.224417 
66200000    685.85066   -156684.89   -153848.08   -558.22551    569802.27    82.219308    83.248263    83.248263 
66300000    683.89829   -156656.14    -153827.4   -410.72103    569802.27    82.174886    83.270761    83.270761 
66400000    687.39097   -156676.64   -153833.46   -527.67738    569802.27    82.133342    83.291818    83.291818 
66500000    686.24615      -156668   -153829.56   -517.89071    569802.27    82.094838    83.311348    83.311348 
66600000    687.38061   -156661.43   -153818.29   -399.69876    569802.27    82.059527    83.329271    83.329271 
66700000    680.80794   -156661.33   -153845.37   -106.34128    569802.27    82.027548    83.345513    83.345513 
66800000      680.336   -156658.72   -153844.72   -297.87426    569802.27    81.999028    83.360006    83.360006 
66900000    683.98564   -156655.99   -153826.89   -510.24668    569802.27    81.974078     83.37269     83.37269 
67000000    680.55642   -156663.36   -153848.44   -435.15147    569802.27    81.952798    83.383514    83.383514 
67100000    687.29081   -156672.44   -153829.67   -470.79728    569802.27    81.935272    83.392432    83.392432 
67200000    686.48466   -156643.96   -153804.52   -185.99258    569802.27    81.921568    83.399407    83.399407 
67300000    688.22725   -156676.71   -153830.07   -415.28634    569802.27     81.91174    83.404409    83.404409 
67400000    684.19919   -156635.96   -153805.98   -107.39714    569802.27    81.905828    83.407419    83.407419 
67500000     691.9871   -156672.14   -153809.95   -516.96176    569802.27    81.903855    83.408424    83.408424 
67600000    690.06617   -156665.89   -153811.64   -372.61987    569802.27    81.905828    83.407419    83.407419 
67700000    687.94697   -156668.47   -153822.98    -398.3738    569802.27     81.91174    83.404409    83.404409 
67800000    681.74931   -156664.31   -153844.46     -360.166    569802.27    81.921568    83.399407    83.399407 
67900000    688.44503   -156675.35    -153827.8   -395.63861    569802.27    81.935272    83.392432    83.392432 
68000000    686.02087   -156681.53   -153844.02    -386.8015    569802.27    81.952798    83.383514    83.383514 
68100000    685.98828   -156671.69   -153834.31   -457.38348    569802.27    81.974078     83.37269     83.37269 
68200000    684.65606   -156684.38   -153852.51    -532.1754    569802.27    81.999028    83.360006    83.360006 
68300000    692.94489   -156662.39   -153796.24   -178.12759    569802.27    82.027548    83.345513    83.345513 
[...]
83800000    685.66985   -156669.84   -153833.78   -411.33999    569802.27    83.588402    82.563687    82.563687 
83900000    680.51729   -156695.46   -153880.71   -738.19069    569802.27    83.541279    82.586969    82.586969 
84000000    682.97221   -156685.39   -153860.49   -573.85851    569802.27     83.49164    82.611516    82.611516 
84100000    689.04255   -156691.33   -153841.32   -495.19239    569802.27    83.439682    82.637233    82.637233 
84200000    688.24178      -156696    -153849.3    -509.9818    569802.27    83.385609    82.664023    82.664023 
84300000    685.82004   -156665.51   -153828.82   -298.31993    569802.27    83.329634    82.691782    82.691782 
84400000    684.13491   -156695.66   -153865.94   -432.48266    569802.27    83.271979    82.720403    82.720403 
84500000    685.55537   -156668.39    -153832.8     -276.046    569802.27    83.212872    82.749777    82.749777 
84600000    684.54043   -156662.83   -153831.43   -285.70573    569802.27    83.152545    82.779789    82.779789 
84700000     682.5924   -156683.16   -153859.83   -484.79039    569802.27    83.091236    82.810323    82.810323 
84800000    679.52257   -156647.08   -153836.44   -223.17665    569802.27    83.029188    82.841259    82.841259 
84900000    690.31872   -156674.46   -153819.17   -389.78316    569802.27    82.966645    82.872477    82.872477 
85000000     684.8683   -156687.66   -153854.91   -511.17096    569802.27    82.903855    82.903855    82.903855 
85100000    682.72087   -156691.52   -153867.66   -650.59456    569802.27    82.841064    82.935268    82.935268 
85200000    686.58957   -156667.62   -153827.75   -252.60349    569802.27    82.778522    82.966593    82.966593 
85300000    692.66534   -156660.29   -153795.29   -268.13177    569802.27    82.716474    82.997705    82.997705 
85400000    687.90183   -156657.19    -153811.9   -204.99543    569802.27    82.655165     83.02848     83.02848 
85500000    686.24572   -156659.21   -153820.76   -231.62318    569802.27    82.594838    83.058797    83.058797 
85600000    688.83117    -156680.4   -153831.26   -459.24046    569802.27     82.53573    83.088532    83.088532 
85700000    687.40649   -156651.36   -153808.11   -348.63129    569802.27    82.478076    83.117568    83.117568 
85800000    680.51512    -156659.7   -153844.95   -399.50334    569802.27    82.422101    83.145787    83.145787 
85900000    685.28435   -156693.21   -153858.74   -523.05682    569802.27    82.368028    83.173074    83.173074 
86000000    688.93377   -156668.57      -153819   -232.95049    569802.27     82.31607     83.19932     83.19932 
86100000    684.54007   -156670.24   -153838.85   -528.46349    569802.27    82.266431    83.224417    83.224417 
86200000     681.2863   -156659.28   -153841.35   -337.92825    569802.27    82.219308    83.248263    83.248263 
86300000    689.74333   -156682.39   -153829.48   -364.09582    569802.27    82.174886    83.270761    83.270761 
86400000    685.41008   -156652.49    -153817.5   -354.48202    569802.27    82.133342    83.291818    83.291818 
86500000     685.4143   -156636.45   -153801.44    49.889484    569802.27    82.094838    83.311348    83.311348 
86600000    684.36679   -156651.85   -153821.18   -296.67629    569802.27    82.059527    83.329271    83.329271 
86700000    688.53217   -156657.68   -153809.78   -158.75105    569802.27    82.027548    83.345513    83.345513 
86800000    685.96659   -156654.74   -153817.45   -283.49825    569802.27    81.999028    83.360006    83.360006 
86900000    684.21458   -156663.22   -153833.18   -204.88756    569802.27    81.974078     83.37269     83.37269 
87000000    682.40402   -156653.94   -153831.39   -223.20256    569802.27    81.952798    83.383514    83.383514 
87100000    685.51139   -156678.03   -153842.62   -483.91915    569802.27    81.935272    83.392432    83.392432 
87200000    688.83011   -156655.36   -153806.22   -380.67151    569802.27    81.921568    83.399407    83.399407 
87300000    683.82453   -156673.92   -153845.49    -442.7022    569802.27     81.91174    83.404409    83.404409 
87400000    688.84142   -156680.56   -153831.38   -352.43383    569802.27    81.905828    83.407419    83.407419 
87500000    682.60552    -156668.9   -153845.51   -218.95747    569802.27    81.903855    83.408424    83.408424 
87600000     684.1508   -156668.33   -153838.55    -216.7149    569802.27    81.905828    83.407419    83.407419 
87700000    680.35862    -156660.9    -153846.8   -324.98459    569802.27     81.91174    83.404409    83.404409 
87800000    684.97641    -156666.6    -153833.4   -189.55475    569802.27    81.921568    83.399407    83.399407 
87900000    689.86437    -156656.3   -153802.88   -309.95421    569802.27    81.935272    83.392432    83.392432 
88000000    688.32331   -156669.51   -153822.47   -403.02329    569802.27    81.952798    83.383514    83.383514 
88100000    686.96414   -156687.02    -153845.6   -356.05151    569802.27    81.974078     83.37269     83.37269 
88200000     686.2386   -156661.06   -153822.64    -379.6548    569802.27    81.999028    83.360006    83.360006 
88300000     686.8606   -156702.58    -153861.6   -567.60508    569802.27    82.027548    83.345513    83.345513 
88400000    692.24551   -156679.05   -153815.78   -531.65202    569802.27    82.059527    83.329271    83.329271 
88500000    688.91033   -156685.58   -153836.12   -376.81553    569802.27    82.094838    83.311348    83.311348 
88600000    683.12654   -156659.94   -153834.39    -345.2575    569802.27    82.133342    83.291818    83.291818 
88700000    688.85191   -156657.57   -153808.34   -122.67935    569802.27    82.174886    83.270761    83.270761 
88800000     686.7221   -156689.31   -153848.89   -407.06887    569802.27    82.219308    83.248263    83.248263 
88900000    684.35623   -156669.45   -153838.82   -423.51693    569802.27    82.266431    83.224417    83.224417 
89000000    681.82935   -156667.46   -153847.29    -428.7789    569802.27     82.31607     83.19932     83.19932 
89100000      686.865   -156687.19   -153846.19   -433.49045    569802.27    82.368028    83.173074    83.173074 
89200000    685.11902    -156691.2   -153857.42   -471.73566    569802.27    82.422101    83.145787    83.145787 
89300000     687.5527   -156664.51   -153820.66   -300.28293    569802.27    82.478076    83.117568    83.117568 
89400000    680.95866   -156659.15   -153842.57   -393.47002    569802.27     82.53573    83.088532    83.088532 
89500000    686.30827   -156666.27   -153827.57   -413.76492    569802.27    82.594838    83.058797    83.058797 
89600000    689.53103    -156661.1   -153809.07   -317.09039    569802.27    82.655165     83.02848     83.02848 
89700000    680.69533   -156698.08   -153882.59   -513.94267    569802.27    82.716474    82.997705    82.997705 
89800000    683.49252   -156670.51   -153843.45   -400.92043    569802.27    82.778522    82.966593    82.966593 
89900000    682.04779   -156662.61   -153841.53   -305.78486    569802.27    82.841064    82.935268    82.935268 
90000000    687.88583   -156671.93    -153826.7   -313.14073    569802.27    82.903855    82.903855    82.903855 
90100000    694.17379   -156682.43    -153811.2   -462.57263    569802.27    82.966645    82.872477    82.872477 
90200000    680.89162   -156665.94   -153849.63   -469.33349    569802.27    83.029188    82.841259    82.841259 
90300000    681.58428   -156661.52   -153842.35   -314.77016    569802.27    83.091236    82.810323    82.810323 
90400000    685.28837    -156663.9   -153829.41   -344.56947    569802.27    83.152545    82.779789    82.779789 
90500000    686.50881   -156661.92   -153822.38   -308.29661    569802.27    83.212872    82.749777    82.749777 
90600000     682.3302   -156656.74   -153834.49    -428.3802    569802.27    83.271979    82.720403    82.720403 
90700000    686.79309   -156671.15   -153830.44    -491.2185    569802.27    83.329634    82.691782    82.691782 
90800000    684.28715   -156638.31   -153807.96   -197.13035    569802.27    83.385609    82.664023    82.664023 
90900000    682.41617   -156677.87   -153855.26   -541.84064    569802.27    83.439682    82.637233    82.637233 
91000000    688.82905   -156660.93    -153811.8   -254.86647    569802.27     83.49164    82.611516    82.611516 
91100000    689.14604   -156661.13   -153810.68   -230.95994    569802.27    83.541279    82.586969    82.586969 
91200000    683.26112   -156630.26   -153804.16   -114.42277    569802.27    83.588402    82.563687    82.563687 
91300000    686.38377   -156657.06   -153818.04   -443.18292    569802.27    83.632824    82.541757    82.541757 
91400000    686.03656   -156636.72   -153799.13   -150.86977    569802.27    83.674368    82.521263    82.521263 
91500000    681.06886    -156656.5   -153839.46   -330.35762    569802.27    83.712872    82.502283    82.502283 
91600000    686.81911   -156684.23   -153843.41   -524.11616    569802.27    83.748183    82.484888    82.484888 
91700000    684.94775    -156670.5   -153837.42   -472.95348    569802.27    83.780162    82.469145    82.469145 
91800000    687.34033   -156651.08   -153808.11   -171.74281    569802.27    83.808682    82.455111    82.455111 
91900000    684.72199   -156641.81   -153809.66   -281.85469    569802.27    83.833631    82.442841    82.442841 
92000000    681.93295   -156648.99   -153828.38   -276.13323    569802.27    83.854911    82.432379    82.432379 
92100000    683.31827   -156658.74    -153832.4   -511.85231    569802.27    83.872438    82.423766    82.423766 
92200000    685.23158   -156683.71   -153849.45   -520.13658    569802.27    83.886142    82.417033    82.417033 
92300000    684.33449   -156684.49   -153853.95   -521.77918    569802.27     83.89597    82.412206    82.412206 
92400000    686.09532   -156652.22   -153814.39   -357.03081    569802.27    83.901882    82.409302    82.409302 
92500000     684.8532    -156667.3   -153834.61    -402.9523    569802.27    83.903855    82.408333    82.408333 
92600000    688.18373    -156677.3   -153830.84   -506.32366    569802.27    83.901882    82.409302    82.409302 
92700000    688.63568   -156660.74   -153812.41   -359.63388    569802.27     83.89597    82.412206    82.412206 
92800000     681.6994   -156667.39   -153847.75   -508.16933    569802.27    83.886142    82.417033    82.417033 
92900000    682.19477   -156677.65   -153855.96   -667.56541    569802.27    83.872438    82.423766    82.423766 
93000000    687.93167   -156696.67   -153851.25   -728.94337    569802.27    83.854911    82.432379    82.432379 
93100000    684.25753   -156651.48   -153821.25   -507.16257    569802.27    83.833631    82.442841    82.442841 
93200000    686.94311   -156676.61   -153835.28   -477.51516    569802.27    83.808682    82.455111    82.455111 
93300000     685.7177   -156682.33   -153846.07   -527.03509    569802.27    83.780162    82.469145    82.469145 
93400000    689.56177    -156675.8   -153823.64   -516.42473    569802.27    83.748183    82.484888    82.484888 
93500000    684.41038   -156678.79   -153847.93   -417.32558    569802.27    83.712872    82.502283    82.502283 
93600000    684.35688    -156688.1   -153857.46   -578.39691    569802.27    83.674368    82.521263    82.521263 
93700000    688.63516   -156669.76   -153821.43   -495.01484    569802.27    83.632824    82.541757    82.541757 
93800000    690.56971   -156695.64   -153839.31   -519.83145    569802.27    83.588402    82.563687    82.563687 
93900000    684.61858   -156654.74   -153823.02   -368.90941    569802.27    83.541279    82.586969    82.586969 
94000000    684.90379   -156680.84   -153847.94   -482.41436    569802.27     83.49164    82.611516    82.611516 
94100000    683.12534   -156679.05   -153853.51   -592.89921    569802.27    83.439682    82.637233    82.637233 
94200000    688.67958    -156673.8   -153825.29   -695.16704    569802.27    83.385609    82.664023    82.664023 
94300000    687.78286   -156677.72   -153832.92   -377.69926    569802.27    83.329634    82.691782    82.691782 
94400000    684.48857    -156683.6   -153852.42   -662.21553    569802.27    83.271979    82.720403    82.720403 
94500000    688.34744   -156693.74    -153846.6   -434.35394    569802.27    83.212872    82.749777    82.749777 
94600000     680.8185   -156646.76   -153830.76   -284.28522    569802.27    83.152545    82.779789    82.779789 
94700000      683.004   -156683.22   -153858.18   -519.62861    569802.27    83.091236    82.810323    82.810323 
94800000    684.82743   -156676.76   -153844.18   -471.09493    569802.27    83.029188    82.841259    82.841259 
94900000    690.77087   -156696.04   -153838.88   -500.66058    569802.27    82.966645    82.872477    82.872477 
95000000    685.04606   -156703.26   -153869.78   -507.69931    569802.27    82.903855    82.903855    82.903855 
95100000    681.59468      -156688    -153868.8   -502.49023    569802.27    82.841064    82.935268    82.935268 
95200000    677.31476   -156683.22   -153881.71   -561.42384    569802.27    82.778522    82.966593    82.966593 
95300000    679.08451   -156674.71   -153865.88   -340.49206    569802.27    82.716474    82.997705    82.997705 
95400000    682.75861   -156677.37   -153853.35   -350.39083    569802.27    82.655165     83.02848     83.02848 
95500000    683.34727   -156695.88   -153869.42   -488.31017    569802.27    82.594838    83.058797    83.058797 
95600000    680.46747   -156682.34   -153867.79   -407.09828    569802.27     82.53573    83.088532    83.088532 
95700000    687.99457   -156683.06   -153837.38   -435.91042    569802.27    82.478076    83.117568    83.117568 
95800000    682.14869   -156663.15   -153841.65    -346.3758    569802.27    82.422101    83.145787    83.145787 
95900000    686.36182   -156692.88   -153853.95   -730.18804    569802.27    82.368028    83.173074    83.173074 
96000000    684.30752   -156656.13    -153825.7   -310.18724    569802.27     82.31607     83.19932     83.19932 
96100000    683.47704   -156703.79   -153876.79   -409.98399    569802.27    82.266431    83.224417    83.224417 
96200000    689.50196   -156684.76   -153832.85   -351.47134    569802.27    82.219308    83.248263    83.248263 
96300000    684.26308   -156668.87   -153838.63   -372.91777    569802.27    82.174886    83.270761    83.270761 
96400000    687.32887   -156687.37   -153844.44   -652.25356    569802.27    82.133342    83.291818    83.291818 
96500000    688.51868   -156682.23   -153834.39   -530.94339    569802.27    82.094838    83.311348    83.311348 
96600000     684.3767   -156660.57   -153829.85   -334.08774    569802.27    82.059527    83.329271    83.329271 
96700000    685.82927   -156683.87   -153847.14   -412.41988    569802.27    82.027548    83.345513    83.345513 
96800000    690.80865   -156676.31   -153818.99   -367.96587    569802.27    81.999028    83.360006    83.360006 
96900000    684.79493   -156655.65   -153823.21   -222.25576    569802.27    81.974078     83.37269     83.37269 
97000000    677.72475   -156676.07   -153872.86   -458.39578    569802.27    81.952798    83.383514    83.383514 
97100000     686.0757   -156644.64    -153806.9   -315.09111    569802.27    81.935272    83.392432    83.392432 
97200000    684.68641   -156680.17   -153848.17   -275.41266    569802.27    81.921568    83.399407    83.399407 
97300000    684.10495      -156670    -153840.4   -477.93059    569802.27     81.91174    83.404409    83.404409 
97400000     684.4562   -156662.05   -153831.01   -239.25552    569802.27    81.905828    83.407419    83.407419 
97500000    684.97062   -156675.74   -153842.56   -458.67042    569802.27    81.903855    83.408424    83.408424 
97600000    682.81476   -156664.56    -153840.3   -456.69556    569802.27    81.905828    83.407419    83.407419 
97700000    684.09187    -156645.7   -153816.16   -168.32871    569802.27     81.91174    83.404409    83.404409 
97800000    684.64571   -156644.69   -153812.86   -219.51955    569802.27    81.921568    83.399407    83.399407 
97900000    687.59478   -156666.78   -153822.75    -140.3756    569802.27    81.935272    83.392432    83.392432 
98000000    686.42579    -156666.9   -153827.71   -420.30309    569802.27    81.952798    83.383514    83.383514 
98100000    682.71179   -156661.03    -153837.2   -284.25972    569802.27    81.974078     83.37269     83.37269 
98200000     690.7789   -156680.12   -153822.93   -336.22892    569802.27    81.999028    83.360006    83.360006 
98300000    684.45127   -156670.81   -153839.78   -389.40915    569802.27    82.027548    83.345513    83.345513 
98400000    683.87655   -156663.88   -153835.23   -391.85504    569802.27    82.059527    83.329271    83.329271 
98500000    682.90362   -156712.22    -153887.6   -746.97095    569802.27    82.094838    83.311348    83.311348 
98600000    686.84619   -156688.27   -153847.34   -463.95079    569802.27    82.133342    83.291818    83.291818 
98700000    682.20972    -156659.8   -153838.04   -457.34788    569802.27    82.174886    83.270761    83.270761 
98800000    684.27171   -156672.41   -153842.13   -366.70691    569802.27    82.219308    83.248263    83.248263 
98900000    685.47222   -156677.44   -153842.19   -434.72851    569802.27    82.266431    83.224417    83.224417 
99000000    683.81226   -156680.65   -153852.27   -393.42546    569802.27     82.31607     83.19932     83.19932 
99100000    686.90773   -156672.58    -153831.4   -330.44556    569802.27    82.368028    83.173074    83.173074 
99200000    676.70913   -156660.61   -153861.61    -334.5556    569802.27    82.422101    83.145787    83.145787 
99300000    684.31219   -156672.59   -153842.14   -429.14692    569802.27    82.478076    83.117568    83.117568 
99400000    683.62091   -156669.19    -153841.6    -570.2067    569802.27     82.53573    83.088532    83.088532 
99500000    680.21721   -156655.03   -153841.52    -402.0412    569802.27    82.594838    83.058797    83.058797 
99600000    689.80424   -156668.83   -153815.67   -331.42244    569802.27    82.655165     83.02848     83.02848 
99700000    681.05711   -156683.34   -153866.35   -599.82235    569802.27    82.716474    82.997705    82.997705 
99800000    680.92839   -156642.91   -153826.46   -404.31373    569802.27    82.778522    82.966593    82.966593 
99900000    687.05835   -156662.16   -153820.35   -322.88038    569802.27    82.841064    82.935268    82.935268 
100000000    683.96749   -156664.45   -153835.43   -430.30122    569802.27    82.903855    82.903855    82.903855 
Loop time of 60349.9 on 104 procs for 100000000 steps with 32000 atoms

Performance: 1431.651 ns/day, 0.017 hours/ns, 1657.003 timesteps/s
99.5% CPU use with 104 MPI tasks x 1 OpenMP threads

MPI task timing breakdown:
Section |  min time  |  avg time  |  max time  |%varavg| %total
---------------------------------------------------------------
Pair    | 34824      | 35675      | 36669      | 235.2 | 59.11
Neigh   | 2493.5     | 2654.6     | 2820.4     | 150.7 |  4.40
Comm    | 12225      | 12980      | 14159      | 422.8 | 21.51
Output  | 0.50442    | 0.50867    | 0.64315    |   1.9 |  0.00
Modify  | 7446.8     | 8005.8     | 8734.9     | 364.6 | 13.27
Other   |            | 1034       |            |       |  1.71

Nlocal:        307.692 ave         320 max         294 min
Histogram: 1 2 9 17 17 23 14 6 11 4
Nghost:        2587.64 ave        2610 max        2563 min
Histogram: 5 2 7 14 18 19 14 16 7 2
Neighs:        22284.0 ave       24337 max       20372 min
Histogram: 2 7 12 16 15 26 10 10 4 2

Total # of neighbors = 2317532
Ave neighs/atom = 72.422875
Neighbor list builds = 11160454
Dangerous builds = 0
clear
OMP_NUM_THREADS environment is not set. Defaulting to 1 thread. (../comm.cpp:94)
  using 1 OpenMP thread(s) per MPI task
package intel 1
jump dms695.lmp
#MD-DMS by Ha-Bin Yu
#package gpu 4
variable T equal 695
log log.${T}
log log.695
