units           metal
boundary        p p p
atom_style      atomic
read_data      ../../restart/T${T}.dat
read_data      ../../restart/T640.dat
Reading data file ...
  orthogonal box = (-2.4875552 -2.4875552 -2.4875552) to (80.322333 80.322333 80.322333)
  2 by 4 by 13 MPI processor grid
  reading atoms ...
  32000 atoms
  reading velocities ...
  32000 velocities
  read_data CPU = 0.204 seconds
pair_style      eam/alloy
pair_coeff      * *  ../../ZrCu.lammps.eam Zr Cu
mass 1 91.224
mass 2 63.546
neighbor            2.0 bin
neigh_modify     delay 1
timestep 0.01
thermo 100000
reset_timestep 0
thermo_style custom step temp pe etotal press vol lx ly lz
fix             1 all nvt temp ${T} ${T} 0.1
fix             1 all nvt temp 640 ${T} 0.1
fix             1 all nvt temp 640 640 0.1
thermo_modify flush yes
fix nodrift all momentum 1  linear 1 1 1
fix com_seed all recenter INIT INIT INIT shift all
fix dsf all deform 1 x  wiggle 1.0  100000.0 y volume z volume units box
fix ps1 all ave/time 1 1 100000 c_thermo_press[1] c_thermo_press[2]  c_thermo_press[3] c_thermo_press[4]  c_thermo_press[5] c_thermo_press[6]  file  stress.${T}
fix ps1 all ave/time 1 1 100000 c_thermo_press[1] c_thermo_press[2]  c_thermo_press[3] c_thermo_press[4]  c_thermo_press[5] c_thermo_press[6]  file  stress.640
dump            1 all custom 10000000 dump.${T} id type x y z
dump            1 all custom 10000000 dump.640 id type x y z
dump_modify 1 sort id
run 100000000
Neighbor list info ...
  update every 1 steps, delay 1 steps, check yes
  max neighbors/atom: 2000, page size: 100000
  master list distance cutoff = 8.5
  ghost atom cutoff = 8.5
  binsize = 4.25, bins = 20 20 20
  1 neighbor lists, perpetual/occasional/extra = 1 0 0
  (1) pair eam/alloy/intel, perpetual
      attributes: half, newton on, intel
      pair build: half/bin/newton/intel
      stencil: half/bin/3d/newton
      bin: intel
Per MPI rank memory allocation (min/avg/max) = 7.335 | 7.467 | 7.575 Mbytes
Step Temp PotEng TotEng Press Volume Lx Ly Lz 
       0    636.48193   -157015.55   -154382.94    488.77922    567866.94    82.809888    82.809888    82.809888 
  100000    639.17228   -156996.28   -154352.54    704.23991    567866.94    82.872678     82.77851     82.77851 
  200000    636.51553   -156976.33   -154343.58    705.77374    567866.94    82.935221    82.747292    82.747292 
  300000    640.53717   -156975.21   -154325.82    835.24752    567866.94    82.997269    82.716356    82.716356 
  400000     640.1744   -156982.08   -154334.19    704.56844    567866.94    83.058578    82.685822    82.685822 
  500000     640.9666   -156976.82   -154325.66    675.85932    567866.94    83.118905     82.65581     82.65581 
  600000    637.83717   -156963.54   -154325.32    791.19867    567866.94    83.178012    82.626437    82.626437 
  700000    641.28544   -156985.88    -154333.4    724.46436    567866.94    83.235667    82.597816    82.597816 
  800000    638.65312   -156975.23   -154333.63    737.45749    567866.94    83.291641    82.570057    82.570057 
  900000    640.51156   -156992.78    -154343.5    817.56138    567866.94    83.345715    82.543268    82.543268 
 1000000    641.11663   -156964.58   -154312.79     769.7363    567866.94    83.397673    82.517551    82.517551 
 1100000    635.01802   -156997.74   -154371.18    576.69413    567866.94    83.447312    82.493004    82.493004 
 1200000    636.56137    -156991.4   -154358.46    399.55376    567866.94    83.494435    82.469722    82.469722 
 1300000    638.58593   -156963.13   -154321.81    1005.7008    567866.94    83.538856    82.447792    82.447792 
 1400000    643.49477   -156968.06   -154306.44    958.10513    567866.94    83.580401    82.427299    82.427299 
 1500000    645.59701   -156971.09   -154300.78    732.26316    567866.94    83.618905    82.408319    82.408319 
 1600000    636.60057   -156957.83   -154324.73     789.4939    567866.94    83.654216    82.390925    82.390925 
 1700000    637.13071   -157001.51   -154366.21    493.67244    567866.94    83.686194    82.375182    82.375182 
 1800000    645.80298   -156979.87   -154308.71    739.51219    567866.94    83.714715    82.361148    82.361148 
 1900000     636.2665   -156974.21   -154342.49    704.32622    567866.94    83.739664    82.348878    82.348878 
 2000000    642.58426   -156979.06    -154321.2    637.72508    567866.94    83.760944    82.338417    82.338417 
 2100000    641.75788   -156978.18   -154323.74     752.7275    567866.94    83.778471    82.329804    82.329804 
 2200000    641.03741   -156973.29   -154321.83    684.03283    567866.94    83.792175    82.323071    82.323071 
 2300000    633.04031   -156955.68    -154337.3    845.34401    567866.94    83.802003    82.318244    82.318244 
 2400000    642.90065   -156978.23   -154319.07    590.29436    567866.94    83.807915     82.31534     82.31534 
 2500000    641.42542   -156964.17    -154311.1    772.43522    567866.94    83.809888    82.314371    82.314371 
 2600000    638.60807   -156976.47   -154335.06    640.33746    567866.94    83.807915     82.31534     82.31534 
 2700000    639.96337   -156989.33   -154342.31    517.31856    567866.94    83.802003    82.318244    82.318244 
 2800000    635.63378   -156972.35   -154343.25    596.20956    567866.94    83.792175    82.323071    82.323071 
 2900000    640.38434   -156978.02   -154329.27    665.21476    567866.94    83.778471    82.329804    82.329804 
 3000000    639.26135   -156982.91    -154338.8    697.55184    567866.94    83.760944    82.338417    82.338417 
 3100000    636.07037   -156984.33   -154353.42    447.31449    567866.94    83.739664    82.348878    82.348878 
 3200000    643.46517   -156970.36   -154308.86    715.99384    567866.94    83.714715    82.361148    82.361148 
 3300000    642.08776   -156970.84   -154315.04      693.592    567866.94    83.686194    82.375182    82.375182 
 3400000    641.02067    -156988.4   -154337.01    765.52551    567866.94    83.654216    82.390925    82.390925 
 3500000    642.80242    -156985.6   -154326.85      485.271    567866.94    83.618905    82.408319    82.408319 
 3600000    640.61041   -156965.05   -154315.36    843.00643    567866.94    83.580401    82.427299    82.427299 
 3700000    637.51754   -157015.41   -154378.52    432.59888    567866.94    83.538856    82.447792    82.447792 
 3800000    636.89095   -156982.02   -154347.72    706.06092    567866.94    83.494435    82.469722    82.469722 
 3900000    642.11647   -156980.83   -154324.91    697.12461    567866.94    83.447312    82.493004    82.493004 
 4000000     640.9994   -156984.22   -154332.92    641.79062    567866.94    83.397673    82.517551    82.517551 
 4100000    642.63455   -156985.74   -154327.68    681.13171    567866.94    83.345715    82.543268    82.543268 
 4200000    645.13272   -157001.52   -154333.12    760.71439    567866.94    83.291641    82.570057    82.570057 
 4300000    639.96284   -156989.39   -154342.38    671.77553    567866.94    83.235667    82.597816    82.597816 
 4400000    640.22336   -156992.55   -154344.46    776.90918    567866.94    83.178012    82.626437    82.626437 
 4500000    637.85023   -156998.56   -154360.28    717.60741    567866.94    83.118905     82.65581     82.65581 
 4600000    635.46616   -156987.84   -154359.42    765.38712    567866.94    83.058578    82.685822    82.685822 
 4700000    643.00115    -156978.1   -154318.52     885.6259    567866.94    82.997269    82.716356    82.716356 
 4800000    635.67959   -157003.81   -154374.52    510.21014    567866.94    82.935221    82.747292    82.747292 
 4900000    639.83259   -157005.33   -154358.85    669.58647    567866.94    82.872678     82.77851     82.77851 
 5000000    637.42465   -156981.78   -154345.27    644.85487    567866.94    82.809888    82.809888    82.809888 
 5100000    642.43166   -156977.92    -154320.7    554.01081    567866.94    82.747097    82.841301    82.841301 
 5200000    642.71135   -156982.34   -154323.96     750.4917    567866.94    82.684555    82.872626    82.872626 
 5300000     639.3982    -156987.7   -154343.02    739.36249    567866.94    82.622507    82.903738    82.903738 
 5400000    638.36678   -156985.66   -154345.25    703.70255    567866.94    82.561198    82.934514    82.934514 
 5500000    639.56246    -156999.2   -154353.85    749.59641    567866.94    82.500871     82.96483     82.96483 
 5600000    640.52413   -156968.66   -154319.32    833.02354    567866.94    82.441763    82.994566    82.994566 
 5700000    641.49113   -156995.39   -154342.05     765.1783    567866.94    82.384109    83.023602    83.023602 
 5800000    637.37648   -156974.22    -154337.9    661.10054    567866.94    82.328134    83.051821    83.051821 
 5900000     644.9076   -156967.96   -154300.49    760.91061    567866.94    82.274061    83.079108    83.079108 
 6000000    639.16547   -156958.35   -154314.64    841.68383    567866.94    82.222103    83.105354    83.105354 
 6100000    637.77204   -156968.62   -154330.67    779.79533    567866.94    82.172464    83.130452    83.130452 
 6200000    643.43218    -156967.5   -154306.14    722.42673    567866.94    82.125341    83.154298    83.154298 
 6300000    641.13423   -156966.11   -154314.25    861.53624    567866.94    82.080919    83.176796    83.176796 
 6400000    642.58413   -156967.87   -154310.02    799.47789    567866.94    82.039375    83.197854    83.197854 
 6500000    639.21989   -156967.82   -154323.88    824.84306    567866.94    82.000871    83.217385    83.217385 
 6600000    639.16645    -156965.2   -154321.48    807.48252    567866.94     81.96556    83.235308    83.235308 
 6700000    643.30528   -156983.89   -154323.06    613.90056    567866.94    81.933581     83.25155     83.25155 
 6800000     636.3584   -156976.72   -154344.62    864.55033    567866.94    81.905061    83.266043    83.266043 
 6900000    638.38176   -156944.36   -154303.89    1037.2694    567866.94    81.880111    83.278728    83.278728 
 7000000    640.87628   -156973.59    -154322.8    747.24232    567866.94    81.858831    83.289552    83.289552 
 7100000    635.58334   -156975.61   -154346.72    643.07198    567866.94    81.841305     83.29847     83.29847 
 7200000    636.12579   -156977.89   -154346.75    701.30468    567866.94    81.827601    83.305445    83.305445 
 7300000    637.28637   -156977.91   -154341.96    690.79895    567866.94    81.817773    83.310447    83.310447 
 7400000    636.96076   -156968.82   -154334.22    915.31375    567866.94    81.811861    83.313458    83.313458 
 7500000    644.07298   -156947.14   -154283.13    1091.2803    567866.94    81.809888    83.314462    83.314462 
 7600000    639.10368   -156947.15    -154303.7    908.77285    567866.94    81.811861    83.313458    83.313458 
 7700000    640.93963   -156995.35    -154344.3    601.92674    567866.94    81.817773    83.310447    83.310447 
 7800000    638.27053   -156987.68   -154347.67    745.29613    567866.94    81.827601    83.305445    83.305445 
 7900000    640.20299   -156981.61    -154333.6    737.93911    567866.94    81.841305     83.29847     83.29847 
 8000000    646.34077   -156984.16   -154310.77    658.65593    567866.94    81.858831    83.289552    83.289552 
 8100000    644.88556   -156971.74   -154304.37    744.10795    567866.94    81.880111    83.278728    83.278728 
 8200000    640.06059   -156974.06   -154326.64    784.50986    567866.94    81.905061    83.266043    83.266043 
 8300000    640.21021   -156978.19   -154330.16    702.76052    567866.94    81.933581     83.25155     83.25155 
 8400000    633.92638   -156991.11   -154369.07    608.55693    567866.94     81.96556    83.235308    83.235308 
 8500000    640.91178   -156963.15   -154312.21    768.93664    567866.94    82.000871    83.217385    83.217385 
 8600000    634.05125   -156977.22   -154354.66    722.26951    567866.94    82.039375    83.197854    83.197854 
 8700000    638.13757   -156983.97   -154344.51    675.29289    567866.94    82.080919    83.176796    83.176796 
 8800000    638.30341   -156951.73   -154311.59    913.29812    567866.94    82.125341    83.154298    83.154298 
 8900000    641.64095   -156964.07   -154310.11    953.33678    567866.94    82.172464    83.130452    83.130452 
 9000000     636.2207   -156986.07   -154354.54    533.73889    567866.94    82.222103    83.105354    83.105354 
 9100000    640.47157   -156983.88   -154334.76    717.68314    567866.94    82.274061    83.079108    83.079108 
 9200000    647.66162   -156995.05    -154316.2     562.3871    567866.94    82.328134    83.051821    83.051821 
 9300000    642.82886   -156987.61   -154328.74    601.80745    567866.94    82.384109    83.023602    83.023602 
 9400000     642.4347   -157004.25   -154347.02    721.14289    567866.94    82.441763    82.994566    82.994566 
 9500000    642.02978   -157003.65   -154348.09    404.21138    567866.94    82.500871     82.96483     82.96483 
 9600000    638.32987    -156994.6   -154354.34    606.68466    567866.94    82.561198    82.934514    82.934514 
 9700000    638.11693   -157010.18    -154370.8    528.59925    567866.94    82.622507    82.903738    82.903738 
 9800000    639.87494   -156974.37   -154327.72    589.55825    567866.94    82.684555    82.872626    82.872626 
 9900000    641.59012   -156998.32   -154344.58    601.80332    567866.94    82.747097    82.841301    82.841301 
10000000    638.85399   -156998.14   -154355.71    580.21222    567866.94    82.809888    82.809888    82.809888 
10100000    641.10465   -156986.47   -154334.73    652.92764    567866.94    82.872678     82.77851     82.77851 
10200000    646.26224   -157005.58   -154332.51    691.65831    567866.94    82.935221    82.747292    82.747292 
10300000    639.61353   -156980.38   -154334.81    631.82342    567866.94    82.997269    82.716356    82.716356 
10400000    638.79647   -156983.32   -154341.13    628.96302    567866.94    83.058578    82.685822    82.685822 
10500000    640.05073   -156984.45   -154337.08    660.19327    567866.94    83.118905     82.65581     82.65581 
10600000    634.00189   -156991.81   -154369.46    527.38705    567866.94    83.178012    82.626437    82.626437 
10700000    635.45705   -156987.38      -154359    570.65057    567866.94    83.235667    82.597816    82.597816 
10800000    644.14545   -156996.75   -154332.44    627.52729    567866.94    83.291641    82.570057    82.570057 
10900000    639.86857   -156979.14   -154332.52    769.05299    567866.94    83.345715    82.543268    82.543268 
11000000    639.15094   -156999.58   -154355.92    646.56802    567866.94    83.397673    82.517551    82.517551 
11100000     642.3857   -157009.53    -154352.5    553.48875    567866.94    83.447312    82.493004    82.493004 
11200000    640.91158    -156995.8   -154344.86    593.71596    567866.94    83.494435    82.469722    82.469722 
11300000    642.46611   -156978.74   -154321.38    667.47417    567866.94    83.538856    82.447792    82.447792 
11400000    639.73981      -156996   -154349.91    557.54868    567866.94    83.580401    82.427299    82.427299 
11500000    642.05985   -156999.93   -154344.25    533.82382    567866.94    83.618905    82.408319    82.408319 
11600000    642.55706   -157006.26   -154348.52    332.91052    567866.94    83.654216    82.390925    82.390925 
11700000    640.63359   -156981.43   -154331.64     800.2949    567866.94    83.686194    82.375182    82.375182 
11800000    638.13136   -157001.05   -154361.62    527.17762    567866.94    83.714715    82.361148    82.361148 
11900000     640.7695   -156983.45    -154333.1    669.68338    567866.94    83.739664    82.348878    82.348878 
12000000    636.19288   -156961.16   -154329.74    811.84583    567866.94    83.760944    82.338417    82.338417 
12100000    636.36348   -156995.49   -154363.37    477.70659    567866.94    83.778471    82.329804    82.329804 
12200000    638.69826   -156997.18    -154355.4    516.21204    567866.94    83.792175    82.323071    82.323071 
12300000    640.18482   -156964.48   -154316.55    839.65202    567866.94    83.802003    82.318244    82.318244 
12400000    639.47504   -156990.98   -154345.99    708.77212    567866.94    83.807915     82.31534     82.31534 
12500000    643.24415   -156957.22   -154296.64    797.97017    567866.94    83.809888    82.314371    82.314371 
12600000     636.3062   -156987.97   -154356.08    622.64091    567866.94    83.807915     82.31534     82.31534 
12700000    641.06014   -156974.84   -154323.29    652.45973    567866.94    83.802003    82.318244    82.318244 
12800000    640.57948    -156968.1   -154318.54    737.21801    567866.94    83.792175    82.323071    82.323071 
12900000    634.52564   -156988.47   -154363.94    702.04563    567866.94    83.778471    82.329804    82.329804 
13000000    639.32506   -156977.08    -154332.7    592.16406    567866.94    83.760944    82.338417    82.338417 
13100000     643.6003   -156973.12   -154311.06    790.38106    567866.94    83.739664    82.348878    82.348878 
13200000    642.92457   -157006.28   -154347.02    584.73226    567866.94    83.714715    82.361148    82.361148 
13300000    640.92589   -156960.94   -154309.95     673.9703    567866.94    83.686194    82.375182    82.375182 
13400000    645.08153   -156966.62   -154298.43    805.80139    567866.94    83.654216    82.390925    82.390925 
13500000    639.57282   -156979.27   -154333.87    667.41377    567866.94    83.618905    82.408319    82.408319 
13600000    638.58546    -156984.2   -154342.88     587.4249    567866.94    83.580401    82.427299    82.427299 
13700000    639.99711   -157005.47   -154358.32    469.90935    567866.94    83.538856    82.447792    82.447792 
13800000    635.33096   -157002.17   -154374.32    381.96634    567866.94    83.494435    82.469722    82.469722 
13900000    640.91506   -156968.73   -154317.78    803.59406    567866.94    83.447312    82.493004    82.493004 
14000000    632.71485   -156958.66   -154341.63    800.33518    567866.94    83.397673    82.517551    82.517551 
14100000    643.46821   -156973.58   -154312.07    628.98012    567866.94    83.345715    82.543268    82.543268 
14200000    637.08052   -156995.38   -154360.29    550.61103    567866.94    83.291641    82.570057    82.570057 
14300000    640.30516    -156976.6   -154328.18    740.23131    567866.94    83.235667    82.597816    82.597816 
14400000    642.51318   -156978.51   -154320.95    779.33153    567866.94    83.178012    82.626437    82.626437 
14500000    638.70252   -156975.44   -154333.65    752.08329    567866.94    83.118905     82.65581     82.65581 
14600000    638.74759   -156995.11   -154353.12    644.16493    567866.94    83.058578    82.685822    82.685822 
14700000    636.59345   -156992.94   -154359.86    611.39346    567866.94    82.997269    82.716356    82.716356 
14800000     645.3243   -157011.75   -154342.56     586.9606    567866.94    82.935221    82.747292    82.747292 
14900000    647.39944   -156997.16   -154319.39    572.41152    567866.94    82.872678     82.77851     82.77851 
15000000    641.99716   -157023.74   -154368.31    296.31593    567866.94    82.809888    82.809888    82.809888 
15100000    638.56425   -156987.28   -154346.05    750.10931    567866.94    82.747097    82.841301    82.841301 
15200000     644.9432   -157014.14   -154346.53    584.52376    567866.94    82.684555    82.872626    82.872626 
15300000    636.57748   -157003.03   -154370.02    510.21091    567866.94    82.622507    82.903738    82.903738 
15400000    640.21513   -157000.85    -154352.8    481.13167    567866.94    82.561198    82.934514    82.934514 
15500000    641.27988   -157007.74   -154355.28    524.78221    567866.94    82.500871     82.96483     82.96483 
15600000    641.48857   -156997.24   -154343.92    564.82697    567866.94    82.441763    82.994566    82.994566 
15700000    641.23112   -156980.46   -154328.21    667.67421    567866.94    82.384109    83.023602    83.023602 
15800000    641.54076   -156980.33   -154326.79    733.36722    567866.94    82.328134    83.051821    83.051821 
15900000    637.00678   -156996.81   -154362.02    554.23656    567866.94    82.274061    83.079108    83.079108 
16000000    638.86656   -156990.53   -154348.05     514.0298    567866.94    82.222103    83.105354    83.105354 
16100000    638.09414   -156989.33   -154350.04    607.24181    567866.94    82.172464    83.130452    83.130452 
16200000    637.06401   -156976.29   -154341.27    782.30115    567866.94    82.125341    83.154298    83.154298 
16300000    639.09966    -156983.6   -154340.15    729.72558    567866.94    82.080919    83.176796    83.176796 
16400000    638.26584   -156982.86   -154342.87    756.27826    567866.94    82.039375    83.197854    83.197854 
16500000    640.40424   -156996.71   -154347.87    484.19975    567866.94    82.000871    83.217385    83.217385 
16600000    644.40247   -156980.55   -154315.18     677.4975    567866.94     81.96556    83.235308    83.235308 
16700000    636.45388    -156977.9    -154345.4    732.75686    567866.94    81.933581     83.25155     83.25155 
16800000     638.0423   -156982.57    -154343.5    670.84745    567866.94    81.905061    83.266043    83.266043 
16900000    642.94943   -156971.54   -154312.18    697.31469    567866.94    81.880111    83.278728    83.278728 
17000000    638.53721   -156964.94   -154323.83    702.50782    567866.94    81.858831    83.289552    83.289552 
17100000    643.76533   -156962.34    -154299.6    724.23814    567866.94    81.841305     83.29847     83.29847 
17200000    643.33233    -156974.5   -154313.55    635.15764    567866.94    81.827601    83.305445    83.305445 
17300000    646.09996   -156976.91   -154304.51    778.92317    567866.94    81.817773    83.310447    83.310447 
17400000    641.71198   -156959.53   -154305.29    817.04008    567866.94    81.811861    83.313458    83.313458 
17500000    641.68729   -156977.38   -154323.24    774.11719    567866.94    81.809888    83.314462    83.314462 
17600000    639.48664   -156969.39   -154324.35    858.34113    567866.94    81.811861    83.313458    83.313458 
17700000    642.26324   -156988.02    -154331.5    698.69204    567866.94    81.817773    83.310447    83.310447 
17800000    638.39748   -156943.81   -154303.27    673.54232    567866.94    81.827601    83.305445    83.305445 
17900000    644.38531   -156973.26   -154307.96    581.86393    567866.94    81.841305     83.29847     83.29847 
18000000    645.59861   -156965.84   -154295.52    903.46318    567866.94    81.858831    83.289552    83.289552 
18100000    641.53174   -156962.63   -154309.13    586.54451    567866.94    81.880111    83.278728    83.278728 
18200000    639.19904   -156985.71   -154341.86    702.00706    567866.94    81.905061    83.266043    83.266043 
18300000    635.45705   -156993.85   -154365.47    577.01143    567866.94    81.933581     83.25155     83.25155 
18400000    639.00999   -156984.18   -154341.11    780.54434    567866.94     81.96556    83.235308    83.235308 
18500000    636.93562   -156990.77   -154356.28    447.58885    567866.94    82.000871    83.217385    83.217385 
18600000     640.9536   -156982.92   -154331.81    660.64584    567866.94    82.039375    83.197854    83.197854 
18700000    634.14576   -156991.92   -154368.97    484.36217    567866.94    82.080919    83.176796    83.176796 
18800000    644.84366   -156956.47   -154289.27    935.03051    567866.94    82.125341    83.154298    83.154298 
18900000    645.16907   -156968.56   -154300.01    703.73666    567866.94    82.172464    83.130452    83.130452 
19000000     638.1884   -156982.54   -154342.86    683.10332    567866.94    82.222103    83.105354    83.105354 
19100000    641.87128   -156974.85   -154319.94    811.85209    567866.94    82.274061    83.079108    83.079108 
19200000     638.0499   -156988.79    -154349.7    553.17604    567866.94    82.328134    83.051821    83.051821 
19300000     633.5414   -156990.21   -154369.76    486.98481    567866.94    82.384109    83.023602    83.023602 
19400000    640.29076   -156972.33   -154323.96     772.5708    567866.94    82.441763    82.994566    82.994566 
19500000    634.53266   -156995.85    -154371.3    425.28667    567866.94    82.500871     82.96483     82.96483 
19600000    640.84016   -157000.49   -154349.85    629.57701    567866.94    82.561198    82.934514    82.934514 
19700000    642.12882   -156978.52   -154322.55    699.31149    567866.94    82.622507    82.903738    82.903738 
19800000    642.66785   -156981.63   -154323.43    772.24017    567866.94    82.684555    82.872626    82.872626 
19900000    639.78294   -156999.62   -154353.35    648.06028    567866.94    82.747097    82.841301    82.841301 
20000000    642.31616   -156980.14    -154323.4    916.70753    567866.94    82.809888    82.809888    82.809888 
20100000    640.52531   -156986.06   -154336.72    731.02968    567866.94    82.872678     82.77851     82.77851 
20200000    636.76262   -157000.97    -154367.2    459.75118    567866.94    82.935221    82.747292    82.747292 
20300000    639.44293   -156997.38   -154352.52    560.05499    567866.94    82.997269    82.716356    82.716356 
20400000    642.75834   -157004.49   -154345.92    501.01115    567866.94    83.058578    82.685822    82.685822 
20500000    639.27254   -156976.83   -154332.68    588.52885    567866.94    83.118905     82.65581     82.65581 
20600000    638.41421   -156984.44   -154343.83    551.58942    567866.94    83.178012    82.626437    82.626437 
20700000    643.81778   -156991.35   -154328.39    632.53182    567866.94    83.235667    82.597816    82.597816 
20800000    641.89438    -157008.2    -154353.2    438.75108    567866.94    83.291641    82.570057    82.570057 
20900000    639.26016    -156984.8    -154340.7    590.22387    567866.94    83.345715    82.543268    82.543268 
21000000    635.89207   -156972.99   -154342.82    774.94826    567866.94    83.397673    82.517551    82.517551 
21100000    644.31873   -156982.29   -154317.26    638.03363    567866.94    83.447312    82.493004    82.493004 
21200000    640.99519   -157000.58    -154349.3    737.43146    567866.94    83.494435    82.469722    82.469722 
21300000    642.02073   -156986.14   -154330.62    773.55326    567866.94    83.538856    82.447792    82.447792 
21400000    640.09657   -156990.21   -154342.64    681.05439    567866.94    83.580401    82.427299    82.427299 
21500000    642.86494   -156984.89   -154325.87    684.51615    567866.94    83.618905    82.408319    82.408319 
21600000    638.07567   -156989.54   -154350.34    658.60624    567866.94    83.654216    82.390925    82.390925 
21700000    642.98045   -156982.45   -154322.96    579.35552    567866.94    83.686194    82.375182    82.375182 
21800000    642.18962   -156979.18   -154322.96    705.83384    567866.94    83.714715    82.361148    82.361148 
21900000    638.93791   -156976.83   -154334.05    641.74546    567866.94    83.739664    82.348878    82.348878 
22000000    641.89059   -157002.74   -154347.76    512.35831    567866.94    83.760944    82.338417    82.338417 
22100000    641.15564   -156990.49   -154338.54    572.85457    567866.94    83.778471    82.329804    82.329804 
22200000    639.12226   -156974.68   -154331.15     816.7058    567866.94    83.792175    82.323071    82.323071 
22300000    637.95516   -156974.22   -154335.51    676.73108    567866.94    83.802003    82.318244    82.318244 
22400000    644.28137   -156987.17    -154322.3     582.0928    567866.94    83.807915     82.31534     82.31534 
22500000    643.38639   -156955.49   -154294.31    844.92087    567866.94    83.809888    82.314371    82.314371 
22600000    640.22753   -156974.07   -154325.96    938.74509    567866.94    83.807915     82.31534     82.31534 
22700000    646.02355    -156959.9   -154287.82    834.45903    567866.94    83.802003    82.318244    82.318244 
22800000     637.3202    -156974.3   -154338.22    700.98152    567866.94    83.792175    82.323071    82.323071 
22900000    640.32421   -156970.08   -154321.57    865.36432    567866.94    83.778471    82.329804    82.329804 
23000000    635.98838   -156973.01   -154342.44    633.49502    567866.94    83.760944    82.338417    82.338417 
23100000    635.40371    -156995.9   -154367.75    746.47785    567866.94    83.739664    82.348878    82.348878 
23200000    637.71043   -156964.85   -154327.15    838.88562    567866.94    83.714715    82.361148    82.361148 
23300000    639.62722   -156966.07   -154320.45    933.36262    567866.94    83.686194    82.375182    82.375182 
23400000    641.40648    -156992.3   -154339.32    796.35535    567866.94    83.654216    82.390925    82.390925 
23500000    640.56522   -156989.12   -154339.61    587.25771    567866.94    83.618905    82.408319    82.408319 
23600000    636.78731   -156967.99   -154334.11    811.93816    567866.94    83.580401    82.427299    82.427299 
23700000    643.45424   -156984.99   -154323.54    697.93312    567866.94    83.538856    82.447792    82.447792 
23800000     638.5707   -156987.16   -154345.91    642.69719    567866.94    83.494435    82.469722    82.469722 
23900000    643.06565   -157007.86   -154348.02    675.01027    567866.94    83.447312    82.493004    82.493004 
24000000    644.81568   -156990.73   -154323.65    707.28957    567866.94    83.397673    82.517551    82.517551 
24100000    641.57064    -156996.3   -154342.64    645.89879    567866.94    83.345715    82.543268    82.543268 
24200000    638.02385   -156996.21   -154357.22    647.50601    567866.94    83.291641    82.570057    82.570057 
24300000    637.12252   -156963.23   -154327.97    776.25595    567866.94    83.235667    82.597816    82.597816 
24400000    639.49321   -156981.23   -154336.17    660.64549    567866.94    83.178012    82.626437    82.626437 
24500000    642.62117   -156994.02   -154336.02    750.46446    567866.94    83.118905     82.65581     82.65581 
24600000     640.1902   -156977.38   -154329.43    685.65505    567866.94    83.058578    82.685822    82.685822 
24700000    642.90605   -156987.97   -154328.79    694.03538    567866.94    82.997269    82.716356    82.716356 
24800000    643.37959   -157000.63   -154339.49    773.61179    567866.94    82.935221    82.747292    82.747292 
24900000    643.48201   -156984.98   -154323.41    667.32909    567866.94    82.872678     82.77851     82.77851 
25000000    641.76675   -156995.07    -154340.6    741.20746    567866.94    82.809888    82.809888    82.809888 
25100000     639.9921   -157000.98   -154353.85    670.84548    567866.94    82.747097    82.841301    82.841301 
25200000    640.25059   -156993.93   -154345.73     587.9355    567866.94    82.684555    82.872626    82.872626 
25300000    638.81568   -156990.13   -154347.86     698.0142    567866.94    82.622507    82.903738    82.903738 
25400000    639.59861   -156996.32   -154350.81    589.82672    567866.94    82.561198    82.934514    82.934514 
25500000    635.86548   -157005.91   -154375.85    502.38623    567866.94    82.500871     82.96483     82.96483 
25600000    642.50012   -156989.14   -154331.63    645.01283    567866.94    82.441763    82.994566    82.994566 
25700000    636.60521   -156994.21   -154361.09    568.78746    567866.94    82.384109    83.023602    83.023602 
25800000    636.14149    -156995.7   -154364.49    457.72064    567866.94    82.328134    83.051821    83.051821 
25900000     638.2667    -156981.3   -154341.31    478.50561    567866.94    82.274061    83.079108    83.079108 
26000000     636.6196   -156995.24   -154362.05     544.2493    567866.94    82.222103    83.105354    83.105354 
26100000    638.91038   -156975.62   -154332.96    725.35355    567866.94    82.172464    83.130452    83.130452 
26200000    639.36001   -156970.49   -154325.97    654.30189    567866.94    82.125341    83.154298    83.154298 
26300000    638.80315   -156990.77   -154348.56    569.28998    567866.94    82.080919    83.176796    83.176796 
26400000    635.42527   -156968.61   -154340.37    537.06434    567866.94    82.039375    83.197854    83.197854 
26500000     639.1273    -156973.8   -154330.24    710.47793    567866.94    82.000871    83.217385    83.217385 
26600000    638.04741   -156977.49    -154338.4    777.74641    567866.94     81.96556    83.235308    83.235308 
26700000    639.69301   -156969.41   -154323.51     716.7298    567866.94    81.933581     83.25155     83.25155 
26800000    643.01788   -156974.15    -154314.5    798.20048    567866.94    81.905061    83.266043    83.266043 
26900000    640.50067   -156967.64   -154318.41    806.72062    567866.94    81.880111    83.278728    83.278728 
27000000    638.93865   -157007.17   -154364.39    475.23227    567866.94    81.858831    83.289552    83.289552 
27100000     639.6555    -156980.4   -154334.66    665.58604    567866.94    81.841305     83.29847     83.29847 
27200000    639.87356   -156982.33   -154335.69    701.74886    567866.94    81.827601    83.305445    83.305445 
27300000    638.75456   -156974.37   -154332.35    758.92699    567866.94    81.817773    83.310447    83.310447 
27400000    643.63141   -156950.75   -154288.57    821.30171    567866.94    81.811861    83.313458    83.313458 
27500000     636.8198   -156969.39   -154335.38     688.6458    567866.94    81.809888    83.314462    83.314462 
27600000    636.23342   -156996.08   -154364.49    562.63045    567866.94    81.811861    83.313458    83.313458 
27700000    643.50813    -156976.1   -154314.43     607.6146    567866.94    81.817773    83.310447    83.310447 
27800000    641.77227   -156957.11   -154302.62    880.56716    567866.94    81.827601    83.305445    83.305445 
27900000    643.29205   -156957.18    -154296.4    780.81984    567866.94    81.841305     83.29847     83.29847 
28000000    640.98565   -156969.51   -154318.27    592.97603    567866.94    81.858831    83.289552    83.289552 
28100000    641.49326   -156964.22   -154310.87    817.00245    567866.94    81.880111    83.278728    83.278728 
28200000    641.77571   -156978.41    -154323.9    698.37932    567866.94    81.905061    83.266043    83.266043 
28300000    644.40525   -156973.06   -154307.68    657.78495    567866.94    81.933581     83.25155     83.25155 
28400000    641.16984   -156985.91   -154333.91    498.95946    567866.94     81.96556    83.235308    83.235308 
28500000      637.377   -156978.78   -154342.47    703.50412    567866.94    82.000871    83.217385    83.217385 
28600000    643.09498   -156981.97      -154322    554.01963    567866.94    82.039375    83.197854    83.197854 
28700000     644.5702   -156967.22   -154301.15    770.53723    567866.94    82.080919    83.176796    83.176796 
28800000    642.68957   -156974.45   -154316.16    777.93855    567866.94    82.125341    83.154298    83.154298 
28900000    638.70031   -157000.87   -154359.08    411.65966    567866.94    82.172464    83.130452    83.130452 
29000000     642.7545   -156990.33   -154331.77    558.67523    567866.94    82.222103    83.105354    83.105354 
29100000    643.27449    -156993.5   -154332.79     583.6191    567866.94    82.274061    83.079108    83.079108 
29200000    638.52845   -156975.69   -154334.61    622.36801    567866.94    82.328134    83.051821    83.051821 
29300000    634.21533   -156979.36   -154356.12     557.4568    567866.94    82.384109    83.023602    83.023602 
29400000    635.59276   -156982.01   -154353.07    643.59728    567866.94    82.441763    82.994566    82.994566 
29500000    638.82432   -156981.48   -154339.17    718.62524    567866.94    82.500871     82.96483     82.96483 
29600000    639.06097   -156994.87   -154351.59     557.2428    567866.94    82.561198    82.934514    82.934514 
29700000    646.41294   -156993.32   -154319.63    552.04894    567866.94    82.622507    82.903738    82.903738 
29800000    636.30548   -156975.62   -154343.74    632.83133    567866.94    82.684555    82.872626    82.872626 
29900000    638.61828   -157014.27   -154372.82    316.53128    567866.94    82.747097    82.841301    82.841301 
30000000    638.90897   -156975.65      -154333    669.33955    567866.94    82.809888    82.809888    82.809888 
30100000    638.39522   -156992.29   -154351.76    499.44102    567866.94    82.872678     82.77851     82.77851 
30200000    642.18588   -156975.78   -154319.57    724.80382    567866.94    82.935221    82.747292    82.747292 
30300000    637.85673   -156990.17   -154351.87    513.05071    567866.94    82.997269    82.716356    82.716356 
30400000     637.7569   -156984.88   -154346.99    540.42672    567866.94    83.058578    82.685822    82.685822 
30500000    637.55462   -156980.52   -154343.46    690.79837    567866.94    83.118905     82.65581     82.65581 
30600000    636.38973   -156998.15   -154365.92    399.27905    567866.94    83.178012    82.626437    82.626437 
30700000    638.44762   -157000.69   -154359.95    452.96544    567866.94    83.235667    82.597816    82.597816 
30800000    638.69174   -156982.06   -154340.31    645.64277    567866.94    83.291641    82.570057    82.570057 
30900000    638.25721   -156984.71   -154344.75    549.08092    567866.94    83.345715    82.543268    82.543268 
31000000    648.05231   -156966.15   -154285.68    798.34813    567866.94    83.397673    82.517551    82.517551 
31100000    641.37893   -156977.56   -154324.69     738.7014    567866.94    83.447312    82.493004    82.493004 
31200000    641.07793   -156996.36   -154344.74    429.13283    567866.94    83.494435    82.469722    82.469722 
31300000    644.09721    -156969.8   -154305.69    732.68915    567866.94    83.538856    82.447792    82.447792 
31400000    637.94283   -156972.71   -154334.06    811.21514    567866.94    83.580401    82.427299    82.427299 
31500000    642.00323   -156980.11   -154324.66    857.54137    567866.94    83.618905    82.408319    82.408319 
31600000     639.6346   -156999.34   -154353.69    504.03609    567866.94    83.654216    82.390925    82.390925 
31700000    638.34319   -156966.86   -154326.54    668.18453    567866.94    83.686194    82.375182    82.375182 
31800000    640.93227   -156969.45   -154318.43    717.30307    567866.94    83.714715    82.361148    82.361148 
31900000    640.23285   -156967.24   -154319.12    759.41334    567866.94    83.739664    82.348878    82.348878 
32000000    641.92504   -156959.16   -154304.03    735.62873    567866.94    83.760944    82.338417    82.338417 
32100000    639.49484   -156971.63   -154326.56    769.21643    567866.94    83.778471    82.329804    82.329804 
32200000    641.38501   -156992.89      -154340    562.55247    567866.94    83.792175    82.323071    82.323071 
32300000    639.95332   -156953.42   -154306.44    775.04998    567866.94    83.802003    82.318244    82.318244 
32400000    640.02339   -156975.68   -154328.42    682.47466    567866.94    83.807915     82.31534     82.31534 
32500000    637.75031   -156971.97   -154334.11    592.41755    567866.94    83.809888    82.314371    82.314371 
32600000    646.26734   -156969.74   -154296.65    690.64202    567866.94    83.807915     82.31534     82.31534 
32700000    641.26446   -156996.51   -154344.12    655.31673    567866.94    83.802003    82.318244    82.318244 
32800000    649.38924   -156997.22   -154311.22     769.1633    567866.94    83.792175    82.323071    82.323071 
32900000    637.12093   -156974.76    -154339.5    620.23058    567866.94    83.778471    82.329804    82.329804 
33000000    639.53786   -156946.07   -154300.82    974.79316    567866.94    83.760944    82.338417    82.338417 
33100000    642.82595   -156988.78   -154329.93    629.58782    567866.94    83.739664    82.348878    82.348878 
33200000    645.38527   -156973.47   -154304.04    604.07831    567866.94    83.714715    82.361148    82.361148 
33300000    639.90981   -156987.83   -154341.04    663.37499    567866.94    83.686194    82.375182    82.375182 
33400000    639.24295   -156987.75   -154343.71    530.48108    567866.94    83.654216    82.390925    82.390925 
33500000    638.30594   -156977.55   -154337.39    641.98268    567866.94    83.618905    82.408319    82.408319 
33600000    636.08353   -156971.31   -154340.34    597.11345    567866.94    83.580401    82.427299    82.427299 
33700000     642.4389   -156972.91   -154315.66     771.7952    567866.94    83.538856    82.447792    82.447792 
33800000    644.00896   -156963.24    -154299.5     881.7218    567866.94    83.494435    82.469722    82.469722 
33900000    639.51516   -157007.49   -154362.33     531.2386    567866.94    83.447312    82.493004    82.493004 
34000000    637.57172   -156987.76   -154350.64    555.83432    567866.94    83.397673    82.517551    82.517551 
34100000    640.14258   -156945.27   -154297.52    930.70064    567866.94    83.345715    82.543268    82.543268 
34200000    644.03751   -157002.76    -154338.9    581.79176    567866.94    83.291641    82.570057    82.570057 
34300000    642.35192   -157009.72   -154352.83    527.78676    567866.94    83.235667    82.597816    82.597816 
34400000    639.87121   -156985.51   -154338.88    676.62272    567866.94    83.178012    82.626437    82.626437 
34500000    643.89259   -156966.57    -154303.3    864.60211    567866.94    83.118905     82.65581     82.65581 
34600000    637.88073   -156986.69   -154348.29      607.797    567866.94    83.058578    82.685822    82.685822 
34700000    641.63045   -156980.04   -154326.13    680.94628    567866.94    82.997269    82.716356    82.716356 
34800000    639.22384   -156966.21   -154322.25    911.44945    567866.94    82.935221    82.747292    82.747292 
34900000    644.71249   -156994.57   -154327.91    461.42514    567866.94    82.872678     82.77851     82.77851 
35000000    642.05916   -156993.11   -154337.43    732.92987    567866.94    82.809888    82.809888    82.809888 
35100000    636.45133   -156973.46   -154340.97     835.6124    567866.94    82.747097    82.841301    82.841301 
35200000    638.83678   -156995.34   -154352.99    719.71562    567866.94    82.684555    82.872626    82.872626 
35300000    641.42883   -156994.85   -154341.78    556.69326    567866.94    82.622507    82.903738    82.903738 
35400000    635.29311   -156983.65   -154355.95    846.54831    567866.94    82.561198    82.934514    82.934514 
35500000     642.5088   -156990.06   -154332.52    731.85289    567866.94    82.500871     82.96483     82.96483 
35600000    641.27035   -156980.97   -154328.55    672.18984    567866.94    82.441763    82.994566    82.994566 
35700000     641.9693   -156972.41    -154317.1     860.4922    567866.94    82.384109    83.023602    83.023602 
35800000    636.14888    -157011.1   -154379.86    388.57805    567866.94    82.328134    83.051821    83.051821 
35900000    634.32725   -156972.54   -154348.84    876.31922    567866.94    82.274061    83.079108    83.079108 
36000000    640.87125   -156988.32   -154337.55    649.63621    567866.94    82.222103    83.105354    83.105354 
36100000    636.06197   -156968.37   -154337.49    710.65958    567866.94    82.172464    83.130452    83.130452 
36200000    634.01288   -156986.12   -154363.72    597.02334    567866.94    82.125341    83.154298    83.154298 
36300000    640.76418   -156957.82   -154307.49    725.91233    567866.94    82.080919    83.176796    83.176796 
36400000    643.26271   -156957.68   -154297.02    780.72149    567866.94    82.039375    83.197854    83.197854 
36500000    639.54066    -156977.9   -154332.64      557.294    567866.94    82.000871    83.217385    83.217385 
36600000    639.70304   -156974.89   -154328.95    885.92571    567866.94     81.96556    83.235308    83.235308 
36700000    634.74713   -156963.25   -154337.81    762.56567    567866.94    81.933581     83.25155     83.25155 
36800000    636.12197    -156966.3   -154335.17    703.89349    567866.94    81.905061    83.266043    83.266043 
36900000    642.60857   -156974.46   -154316.51    709.24062    567866.94    81.880111    83.278728    83.278728 
37000000    637.55742   -156990.52   -154353.46    524.07172    567866.94    81.858831    83.289552    83.289552 
37100000    641.41577   -156982.45   -154329.43    763.29138    567866.94    81.841305     83.29847     83.29847 
37200000    640.24554   -156966.75   -154318.57    751.25797    567866.94    81.827601    83.305445    83.305445 
37300000    641.77737   -156990.28   -154335.77    642.75698    567866.94    81.817773    83.310447    83.310447 
37400000    639.72691   -156983.97   -154337.93    589.41215    567866.94    81.811861    83.313458    83.313458 
37500000    642.48901   -156980.21   -154322.75    604.15009    567866.94    81.809888    83.314462    83.314462 
37600000    643.82558   -156999.51   -154336.53    511.99028    567866.94    81.811861    83.313458    83.313458 
37700000    644.12551   -156999.74   -154335.51    529.31658    567866.94    81.817773    83.310447    83.310447 
37800000    643.27665   -156978.66   -154317.94    679.27828    567866.94    81.827601    83.305445    83.305445 
37900000    634.57764   -156988.16   -154363.43     683.4779    567866.94    81.841305     83.29847     83.29847 
38000000    644.60786   -156990.77   -154324.55    493.11593    567866.94    81.858831    83.289552    83.289552 
38100000    638.66388   -156995.71   -154354.07    709.96417    567866.94    81.880111    83.278728    83.278728 
38200000     641.6118   -156970.62   -154316.79    864.94987    567866.94    81.905061    83.266043    83.266043 
38300000    645.11699   -156985.07   -154316.74    850.65383    567866.94    81.933581     83.25155     83.25155 
38400000    636.29246   -156976.79   -154344.96    664.67155    567866.94     81.96556    83.235308    83.235308 
38500000    642.19345   -156989.72   -154333.48    658.89005    567866.94    82.000871    83.217385    83.217385 
38600000    634.41275   -157000.86   -154376.81    503.22473    567866.94    82.039375    83.197854    83.197854 
38700000    643.95203   -156984.94   -154321.43     624.2234    567866.94    82.080919    83.176796    83.176796 
38800000    642.51185   -156982.93   -154325.37    765.37462    567866.94    82.125341    83.154298    83.154298 
38900000    637.72109   -156978.31   -154340.58     713.1837    567866.94    82.172464    83.130452    83.130452 
39000000    636.75075   -156993.58   -154359.86    657.80865    567866.94    82.222103    83.105354    83.105354 
39100000    645.79221   -156987.32    -154316.2    867.26241    567866.94    82.274061    83.079108    83.079108 
39200000    641.62497   -156976.11   -154322.22    799.97117    567866.94    82.328134    83.051821    83.051821 
39300000    640.82294   -156979.54   -154328.97    781.85405    567866.94    82.384109    83.023602    83.023602 
39400000    643.32085   -156990.22   -154329.32    612.07626    567866.94    82.441763    82.994566    82.994566 
39500000    641.54788   -156972.56   -154318.99    603.66781    567866.94    82.500871     82.96483     82.96483 
39600000    641.59008   -156990.34    -154336.6    745.86146    567866.94    82.561198    82.934514    82.934514 
39700000    639.02423   -157011.59   -154368.46    513.40434    567866.94    82.622507    82.903738    82.903738 
39800000    637.10943   -157014.69   -154379.48    425.61602    567866.94    82.684555    82.872626    82.872626 
39900000    642.66611   -156988.02   -154329.83     574.5602    567866.94    82.747097    82.841301    82.841301 
40000000     640.5487   -156978.76   -154329.33     685.4326    567866.94    82.809888    82.809888    82.809888 
40100000    640.66751   -156984.27   -154334.34    432.08165    567866.94    82.872678     82.77851     82.77851 
40200000    638.53473   -157007.76   -154366.66    400.73641    567866.94    82.935221    82.747292    82.747292 
40300000     637.5398    -156983.6   -154346.61    703.72118    567866.94    82.997269    82.716356    82.716356 
40400000    631.97793   -157001.87   -154387.89    541.06925    567866.94    83.058578    82.685822    82.685822 
40500000    634.41529   -156981.34   -154357.28    626.69566    567866.94    83.118905     82.65581     82.65581 
40600000    637.81862   -156982.66   -154344.51    709.49335    567866.94    83.178012    82.626437    82.626437 
40700000     646.3655   -156993.51   -154320.02     630.5308    567866.94    83.235667    82.597816    82.597816 
40800000    635.68065   -156969.17   -154339.87     815.3372    567866.94    83.291641    82.570057    82.570057 
40900000    641.97225   -156983.61   -154328.28    494.69472    567866.94    83.345715    82.543268    82.543268 
41000000    642.07189   -157004.65   -154348.91    507.64418    567866.94    83.397673    82.517551    82.517551 
41100000     639.2355   -156978.23   -154334.23    609.95519    567866.94    83.447312    82.493004    82.493004 
41200000    641.64835   -156986.66   -154332.68    439.54424    567866.94    83.494435    82.469722    82.469722 
41300000    642.47801   -156992.92   -154335.51    562.48429    567866.94    83.538856    82.447792    82.447792 
41400000    641.52013   -156976.99   -154323.54    708.99486    567866.94    83.580401    82.427299    82.427299 
41500000    643.59676   -157014.04      -154352    431.10557    567866.94    83.618905    82.408319    82.408319 
41600000    641.32474   -157001.49   -154348.85    568.52174    567866.94    83.654216    82.390925    82.390925 
41700000    639.65504   -156976.62   -154330.89    660.02303    567866.94    83.686194    82.375182    82.375182 
41800000    640.75657   -156987.29   -154336.99    713.43659    567866.94    83.714715    82.361148    82.361148 
41900000    643.89227   -156980.19   -154316.93    784.73595    567866.94    83.739664    82.348878    82.348878 
42000000    637.67728   -156978.72   -154341.16    611.13428    567866.94    83.760944    82.338417    82.338417 
42100000     640.4179   -156957.69    -154308.8    783.68869    567866.94    83.778471    82.329804    82.329804 
42200000     635.8794   -157004.61   -154374.49     461.8975    567866.94    83.792175    82.323071    82.323071 
42300000    637.79158   -156990.38   -154352.35    720.53038    567866.94    83.802003    82.318244    82.318244 
42400000    643.86794   -156978.62   -154315.46    776.75563    567866.94    83.807915     82.31534     82.31534 
42500000    641.14683   -156963.96   -154312.06    792.06014    567866.94    83.809888    82.314371    82.314371 
42600000     637.7411   -156995.27   -154357.45    454.16448    567866.94    83.807915     82.31534     82.31534 
42700000    643.12262   -156992.58    -154332.5    664.61265    567866.94    83.802003    82.318244    82.318244 
42800000    642.49039   -156999.17    -154341.7    510.35131    567866.94    83.792175    82.323071    82.323071 
42900000    633.64892   -156993.39   -154372.49    517.71545    567866.94    83.778471    82.329804    82.329804 
43000000    637.74199    -157011.2   -154373.38    397.61439    567866.94    83.760944    82.338417    82.338417 
43100000    640.70564   -156998.48   -154348.39    728.70636    567866.94    83.739664    82.348878    82.348878 
43200000    638.32918   -156987.77   -154347.52    652.31852    567866.94    83.714715    82.361148    82.361148 
43300000    641.46051    -156985.4   -154332.19    726.34159    567866.94    83.686194    82.375182    82.375182 
43400000    639.83903   -157004.03   -154357.54    557.91694    567866.94    83.654216    82.390925    82.390925 
43500000    649.42357   -156978.81   -154292.66    755.28531    567866.94    83.618905    82.408319    82.408319 
43600000    640.05844   -156983.72   -154336.31    598.22781    567866.94    83.580401    82.427299    82.427299 
43700000    641.18537   -156986.26   -154334.19    582.43597    567866.94    83.538856    82.447792    82.447792 
43800000     638.8877   -157008.71   -154366.15    574.50408    567866.94    83.494435    82.469722    82.469722 
43900000    638.71823   -156976.44   -154334.58    746.69164    567866.94    83.447312    82.493004    82.493004 
44000000    645.92054   -156982.65   -154310.99    720.82702    567866.94    83.397673    82.517551    82.517551 
44100000     646.0776   -157011.29   -154338.99    455.52697    567866.94    83.345715    82.543268    82.543268 
44200000     636.6686   -157008.78    -154375.4    668.84976    567866.94    83.291641    82.570057    82.570057 
44300000     636.1371   -156986.09    -154354.9    728.40359    567866.94    83.235667    82.597816    82.597816 
44400000    642.22697    -156994.8   -154338.42     489.8436    567866.94    83.178012    82.626437    82.626437 
44500000    639.64051   -157002.13   -154356.45    611.74347    567866.94    83.118905     82.65581     82.65581 
44600000    643.67008   -156977.66   -154315.31    766.49619    567866.94    83.058578    82.685822    82.685822 
44700000    641.56691   -156985.87   -154332.22    621.17401    567866.94    82.997269    82.716356    82.716356 
44800000    639.91314   -157015.14   -154368.33    432.32586    567866.94    82.935221    82.747292    82.747292 
44900000    641.65962   -157002.63    -154348.6    576.55001    567866.94    82.872678     82.77851     82.77851 
45000000    638.75337   -156990.47   -154348.46    713.73478    567866.94    82.809888    82.809888    82.809888 
45100000    639.99202   -156997.44   -154350.31    636.32764    567866.94    82.747097    82.841301    82.841301 
45200000    643.23242   -156989.06   -154328.53    684.56194    567866.94    82.684555    82.872626    82.872626 
45300000    640.85216   -157016.25   -154365.56    500.56447    567866.94    82.622507    82.903738    82.903738 
45400000    639.69526   -157005.43   -154359.52    545.20013    567866.94    82.561198    82.934514    82.934514 
45500000    640.86553   -156993.06   -154342.32    653.77645    567866.94    82.500871     82.96483     82.96483 
45600000     637.2928   -156982.89   -154346.92    786.87056    567866.94    82.441763    82.994566    82.994566 
45700000    636.61638   -156982.76   -154349.59    678.41336    567866.94    82.384109    83.023602    83.023602 
45800000    636.72104   -157013.36   -154379.76    516.16628    567866.94    82.328134    83.051821    83.051821 
45900000    641.89449    -156966.8    -154311.8     942.9338    567866.94    82.274061    83.079108    83.079108 
46000000    642.18163   -156991.76   -154335.57     646.3102    567866.94    82.222103    83.105354    83.105354 
46100000    639.81496   -156992.44   -154346.04     688.5759    567866.94    82.172464    83.130452    83.130452 
46200000    640.64019   -156982.79   -154332.97    770.81532    567866.94    82.125341    83.154298    83.154298 
46300000    639.87145    -156999.4   -154352.76    630.35934    567866.94    82.080919    83.176796    83.176796 
46400000    639.87503   -156973.67   -154327.02    764.04623    567866.94    82.039375    83.197854    83.197854 
46500000    640.96738   -156976.52   -154325.35    748.95308    567866.94    82.000871    83.217385    83.217385 
46600000    639.12397   -156986.22   -154342.68    682.90702    567866.94     81.96556    83.235308    83.235308 
46700000    639.95209   -156987.99   -154341.03    707.36558    567866.94    81.933581     83.25155     83.25155 
46800000    636.63686   -156985.22   -154351.96     589.9769    567866.94    81.905061    83.266043    83.266043 
46900000    640.13385   -156973.57   -154325.86    750.86424    567866.94    81.880111    83.278728    83.278728 
47000000    634.02151   -156986.49   -154364.05    633.33258    567866.94    81.858831    83.289552    83.289552 
47100000    636.87273   -156977.02   -154342.79    775.11754    567866.94    81.841305     83.29847     83.29847 
47200000    641.82311   -156976.88   -154322.17    791.29395    567866.94    81.827601    83.305445    83.305445 
47300000    638.79379   -156999.29   -154357.11    658.12097    567866.94    81.817773    83.310447    83.310447 
47400000    641.20817   -156976.77   -154324.61    866.30287    567866.94    81.811861    83.313458    83.313458 
47500000    642.76145   -156988.81   -154330.22    726.38011    567866.94    81.809888    83.314462    83.314462 
47600000    635.86142   -157001.88   -154371.83    580.74449    567866.94    81.811861    83.313458    83.313458 
47700000    640.72199   -156997.17   -154347.02    565.59472    567866.94    81.817773    83.310447    83.310447 
47800000     635.7531   -156939.39   -154309.79    860.15661    567866.94    81.827601    83.305445    83.305445 
47900000    635.77194   -156975.86   -154346.19     566.3264    567866.94    81.841305     83.29847     83.29847 
48000000    640.00296   -156980.77   -154333.59    801.05757    567866.94    81.858831    83.289552    83.289552 
48100000    638.16837   -157000.56   -154360.97     595.3845    567866.94    81.880111    83.278728    83.278728 
48200000    642.49155    -156994.3   -154336.83    624.57987    567866.94    81.905061    83.266043    83.266043 
48300000    640.63138   -156986.71   -154336.93    881.73689    567866.94    81.933581     83.25155     83.25155 
48400000    640.41459   -157007.58   -154358.71    488.15856    567866.94     81.96556    83.235308    83.235308 
48500000     640.9215   -157003.92   -154352.94    750.62995    567866.94    82.000871    83.217385    83.217385 
48600000     637.0966   -156981.54   -154346.39    747.50249    567866.94    82.039375    83.197854    83.197854 
48700000    638.54889   -156997.16      -154356    524.30584    567866.94    82.080919    83.176796    83.176796 
48800000    638.75686   -156979.61   -154337.59    845.44096    567866.94    82.125341    83.154298    83.154298 
48900000    645.49569   -156991.67   -154321.77    750.34496    567866.94    82.172464    83.130452    83.130452 
49000000    639.46382   -156998.63   -154353.68    598.44361    567866.94    82.222103    83.105354    83.105354 
49100000     641.5806   -156981.58   -154327.88    780.43148    567866.94    82.274061    83.079108    83.079108 
49200000    636.12335   -157003.05   -154371.91    578.32544    567866.94    82.328134    83.051821    83.051821 
49300000    642.70561   -157009.21   -154350.86    465.64433    567866.94    82.384109    83.023602    83.023602 
49400000    644.49927   -156996.73   -154330.96    700.25346    567866.94    82.441763    82.994566    82.994566 
49500000    641.94208   -156995.83   -154340.63    728.10024    567866.94    82.500871     82.96483     82.96483 
49600000    636.98278   -157012.66   -154377.98    463.40803    567866.94    82.561198    82.934514    82.934514 
49700000    637.57934   -157022.75    -154385.6    518.07598    567866.94    82.622507    82.903738    82.903738 
49800000    639.47507   -156994.48   -154349.48    511.67751    567866.94    82.684555    82.872626    82.872626 
49900000    635.23917   -157004.43   -154376.96    225.57749    567866.94    82.747097    82.841301    82.841301 
50000000    639.56533   -156998.48   -154353.11    470.92303    567866.94    82.809888    82.809888    82.809888 
50100000    642.97892   -157009.87   -154350.38    399.14426    567866.94    82.872678     82.77851     82.77851 
50200000    634.58722   -156981.24   -154356.46    612.11958    567866.94    82.935221    82.747292    82.747292 
50300000    638.27974    -156999.5   -154359.46    545.76889    567866.94    82.997269    82.716356    82.716356 
50400000    639.55046   -157003.69   -154358.39    501.33951    567866.94    83.058578    82.685822    82.685822 
50500000    638.81801   -156988.62   -154346.34    576.56376    567866.94    83.118905     82.65581     82.65581 
50600000    640.95468   -157019.98   -154368.87    473.27692    567866.94    83.178012    82.626437    82.626437 
50700000    638.15132   -156995.83   -154356.31     401.0247    567866.94    83.235667    82.597816    82.597816 
50800000    639.02896   -156995.52   -154352.37    535.89882    567866.94    83.291641    82.570057    82.570057 
50900000    639.72192   -157005.67   -154359.66    552.62359    567866.94    83.345715    82.543268    82.543268 
51000000    635.88755   -156991.22   -154361.06    476.79632    567866.94    83.397673    82.517551    82.517551 
51100000    638.02672   -156990.34   -154351.34    621.57882    567866.94    83.447312    82.493004    82.493004 
51200000    640.83823   -156995.59   -154344.96    538.04557    567866.94    83.494435    82.469722    82.469722 
51300000    639.35924   -156972.45   -154327.94    815.91322    567866.94    83.538856    82.447792    82.447792 
51400000    641.50973   -156975.54   -154322.13     794.6677    567866.94    83.580401    82.427299    82.427299 
51500000     637.2217    -156962.5   -154326.82       818.43    567866.94    83.618905    82.408319    82.408319 
51600000    639.91156   -156979.19   -154332.39    545.09633    567866.94    83.654216    82.390925    82.390925 
51700000    640.10796   -156957.12   -154309.51    999.56848    567866.94    83.686194    82.375182    82.375182 
51800000    645.04842   -156991.73   -154323.68    605.06042    567866.94    83.714715    82.361148    82.361148 
51900000    642.54272   -156992.86   -154335.18    619.53658    567866.94    83.739664    82.348878    82.348878 
52000000    638.44004   -157003.67   -154362.95    561.59817    567866.94    83.760944    82.338417    82.338417 
52100000    638.89369   -156996.76   -154354.17    452.55988    567866.94    83.778471    82.329804    82.329804 
52200000    640.73315    -156982.3    -154332.1    596.48815    567866.94    83.792175    82.323071    82.323071 
52300000     640.8288   -156967.68   -154317.09    733.56169    567866.94    83.802003    82.318244    82.318244 
52400000    640.56003   -156994.32   -154344.84    493.53836    567866.94    83.807915     82.31534     82.31534 
52500000    637.70501   -156990.63   -154352.96     602.0456    567866.94    83.809888    82.314371    82.314371 
52600000    636.86233   -156973.25   -154339.06    656.05591    567866.94    83.807915     82.31534     82.31534 
52700000    643.66992   -156990.26   -154327.91     684.5414    567866.94    83.802003    82.318244    82.318244 
52800000    641.27896   -157010.06   -154357.61    524.91873    567866.94    83.792175    82.323071    82.323071 
52900000     638.9458   -156991.93   -154349.12    650.56174    567866.94    83.778471    82.329804    82.329804 
53000000    641.51468   -157016.97   -154363.54    447.13957    567866.94    83.760944    82.338417    82.338417 
53100000     639.3216   -157013.58   -154369.22    495.02938    567866.94    83.739664    82.348878    82.348878 
53200000    644.68551   -157000.12   -154333.58    461.85704    567866.94    83.714715    82.361148    82.361148 
53300000    640.29642   -156984.69    -154336.3    635.98361    567866.94    83.686194    82.375182    82.375182 
53400000    640.30039   -157007.49   -154359.08    668.12621    567866.94    83.654216    82.390925    82.390925 
53500000    637.18826   -157007.32   -154371.78    754.63745    567866.94    83.618905    82.408319    82.408319 
53600000    642.62257   -156989.35   -154331.34     651.8732    567866.94    83.580401    82.427299    82.427299 
53700000    636.64932   -156973.78   -154340.48    656.93536    567866.94    83.538856    82.447792    82.447792 
53800000    642.17473   -156989.15   -154332.99     660.7621    567866.94    83.494435    82.469722    82.469722 
53900000    641.74432   -156999.75   -154345.37     463.5866    567866.94    83.447312    82.493004    82.493004 
54000000    642.77368   -156999.37   -154340.73    609.83146    567866.94    83.397673    82.517551    82.517551 
54100000     635.9218   -157002.13   -154371.83    638.66325    567866.94    83.345715    82.543268    82.543268 
54200000    637.89953   -156983.72   -154345.24     539.9558    567866.94    83.291641    82.570057    82.570057 
54300000    637.89762   -157016.03   -154377.56    331.49861    567866.94    83.235667    82.597816    82.597816 
54400000     641.8711   -157009.57   -154354.66    573.99312    567866.94    83.178012    82.626437    82.626437 
54500000    640.19126    -156997.7   -154349.75    610.67266    567866.94    83.118905     82.65581     82.65581 
54600000    639.35209   -157013.07   -154368.59    279.62887    567866.94    83.058578    82.685822    82.685822 
54700000    638.27281   -157005.96   -154365.94    477.39866    567866.94    82.997269    82.716356    82.716356 
54800000    642.87207   -157010.57   -154351.53    487.61492    567866.94    82.935221    82.747292    82.747292 
54900000    643.05038   -157003.09   -154343.31    667.65062    567866.94    82.872678     82.77851     82.77851 
55000000    640.81492   -157010.89   -154360.35    491.84233    567866.94    82.809888    82.809888    82.809888 
55100000     641.1396   -157010.75   -154358.87    568.27806    567866.94    82.747097    82.841301    82.841301 
55200000    640.59466   -156972.66   -154323.04    845.68425    567866.94    82.684555    82.872626    82.872626 
55300000    639.48989   -157015.52   -154370.46    352.13842    567866.94    82.622507    82.903738    82.903738 
55400000    637.82326   -157029.63   -154391.47    387.62001    567866.94    82.561198    82.934514    82.934514 
55500000    644.04768    -156988.5    -154324.6    680.96708    567866.94    82.500871     82.96483     82.96483 
55600000    637.17729   -156993.68   -154358.19    680.29846    567866.94    82.441763    82.994566    82.994566 
55700000    637.59444   -156981.99   -154344.78    598.25274    567866.94    82.384109    83.023602    83.023602 
55800000    640.81509   -156986.61   -154336.07    747.12897    567866.94    82.328134    83.051821    83.051821 
55900000    640.54489   -156992.66   -154343.25    611.53177    567866.94    82.274061    83.079108    83.079108 
56000000    638.99982   -156981.13    -154338.1    747.89176    567866.94    82.222103    83.105354    83.105354 
56100000    636.95302   -157014.95   -154380.39    469.91592    567866.94    82.172464    83.130452    83.130452 
56200000    640.19486   -156993.33   -154345.36    710.53757    567866.94    82.125341    83.154298    83.154298 
56300000      640.918   -157016.56    -154365.6    539.76133    567866.94    82.080919    83.176796    83.176796 
56400000    638.28499   -156999.23   -154359.16    666.18857    567866.94    82.039375    83.197854    83.197854 
56500000    644.29673   -156991.94      -154327    663.25944    567866.94    82.000871    83.217385    83.217385 
56600000    643.35012   -156981.43   -154320.41    809.46463    567866.94     81.96556    83.235308    83.235308 
56700000     641.4475   -156974.77   -154321.62    717.15532    567866.94    81.933581     83.25155     83.25155 
56800000    643.20348   -156970.03   -154309.62    837.57289    567866.94    81.905061    83.266043    83.266043 
56900000    635.86545   -156986.69   -154356.63    599.34202    567866.94    81.880111    83.278728    83.278728 
57000000    645.78692   -157009.43   -154338.33    498.39322    567866.94    81.858831    83.289552    83.289552 
57100000    636.88768   -156977.34   -154343.05    797.83006    567866.94    81.841305     83.29847     83.29847 
57200000    635.51061   -156964.35   -154335.76    766.95954    567866.94    81.827601    83.305445    83.305445 
57300000    641.66969   -156994.66   -154340.59    547.25226    567866.94    81.817773    83.310447    83.310447 
57400000    641.38464    -156995.6   -154342.71    666.43762    567866.94    81.811861    83.313458    83.313458 
57500000    641.64976   -156999.24   -154345.25    447.91831    567866.94    81.809888    83.314462    83.314462 
57600000    639.83449   -156965.72   -154319.24    688.25907    567866.94    81.811861    83.313458    83.313458 
57700000    640.89715    -156989.2   -154338.32    527.35385    567866.94    81.817773    83.310447    83.310447 
57800000    636.99833   -156990.18   -154355.43    619.07688    567866.94    81.827601    83.305445    83.305445 
57900000    636.66982   -156982.41   -154349.02    781.01742    567866.94    81.841305     83.29847     83.29847 
58000000    639.82443   -156992.86   -154346.42    553.94819    567866.94    81.858831    83.289552    83.289552 
58100000     643.4043   -156992.77   -154331.53    619.10367    567866.94    81.880111    83.278728    83.278728 
58200000    635.82786   -156998.85   -154368.94    314.31478    567866.94    81.905061    83.266043    83.266043 
58300000    643.94559   -157004.57   -154341.09     470.4974    567866.94    81.933581     83.25155     83.25155 
58400000    646.54798   -156987.73   -154313.49    689.14113    567866.94     81.96556    83.235308    83.235308 
58500000    638.03728   -156997.16   -154358.11    540.72316    567866.94    82.000871    83.217385    83.217385 
58600000    645.50176   -156990.57   -154320.65    653.84399    567866.94    82.039375    83.197854    83.197854 
58700000    637.50807   -156968.73   -154331.87    857.14058    567866.94    82.080919    83.176796    83.176796 
58800000    638.29961   -156988.05   -154347.92    724.23325    567866.94    82.125341    83.154298    83.154298 
58900000     638.0175   -156997.01   -154358.05     670.7631    567866.94    82.172464    83.130452    83.130452 
59000000    635.59293   -156999.12   -154370.18    449.89922    567866.94    82.222103    83.105354    83.105354 
59100000    638.44892   -156993.06   -154352.31    576.91202    567866.94    82.274061    83.079108    83.079108 
59200000    641.00805   -156997.66   -154346.33    556.38233    567866.94    82.328134    83.051821    83.051821 
59300000    638.52885   -157001.95   -154360.87    533.91967    567866.94    82.384109    83.023602    83.023602 
59400000    635.08784   -156989.93   -154363.08    501.76188    567866.94    82.441763    82.994566    82.994566 
59500000    638.92453   -157036.87   -154394.16    310.49527    567866.94    82.500871     82.96483     82.96483 
59600000     640.4855   -157014.96   -154365.78    522.09253    567866.94    82.561198    82.934514    82.934514 
59700000    642.06395   -156980.03   -154324.33    648.99399    567866.94    82.622507    82.903738    82.903738 
59800000    645.68829   -157018.62   -154347.93    517.60082    567866.94    82.684555    82.872626    82.872626 
59900000    638.41759   -157011.22    -154370.6    558.72939    567866.94    82.747097    82.841301    82.841301 
60000000    635.76662   -156997.57   -154367.91    555.96444    567866.94    82.809888    82.809888    82.809888 
60100000    639.86641   -156999.08   -154352.47    678.06838    567866.94    82.872678     82.77851     82.77851 
60200000    642.21772   -157030.86   -154374.53    355.21852    567866.94    82.935221    82.747292    82.747292 
60300000    638.72257   -156988.36   -154346.48    804.77348    567866.94    82.997269    82.716356    82.716356 
60400000     639.6951   -156971.25   -154325.35    894.82699    567866.94    83.058578    82.685822    82.685822 
60500000    644.10145   -157000.79   -154336.66    596.55774    567866.94    83.118905     82.65581     82.65581 
60600000    636.49535   -156999.65   -154366.98    513.47799    567866.94    83.178012    82.626437    82.626437 
60700000    638.19449   -156997.19   -154357.49    463.47409    567866.94    83.235667    82.597816    82.597816 
60800000     640.0956    -157014.6   -154367.04    499.83766    567866.94    83.291641    82.570057    82.570057 
60900000    642.69833   -156994.47   -154336.15    689.84724    567866.94    83.345715    82.543268    82.543268 
61000000    640.96561   -157009.13   -154357.97    539.14775    567866.94    83.397673    82.517551    82.517551 
61100000    642.46482   -156995.05   -154337.69    673.21522    567866.94    83.447312    82.493004    82.493004 
61200000    637.61363   -157010.76   -154373.47    401.51828    567866.94    83.494435    82.469722    82.469722 
61300000    642.06271    -157016.9    -154361.2    517.05397    567866.94    83.538856    82.447792    82.447792 
61400000     639.0268   -156996.57   -154353.43     507.5145    567866.94    83.580401    82.427299    82.427299 
61500000    639.02993   -156997.37   -154354.21    509.01056    567866.94    83.618905    82.408319    82.408319 
61600000    641.66848   -156967.21   -154313.15    690.53283    567866.94    83.654216    82.390925    82.390925 
61700000    642.48406   -157002.21   -154344.77    478.33987    567866.94    83.686194    82.375182    82.375182 
61800000    636.39507    -156992.5   -154360.25    737.48109    567866.94    83.714715    82.361148    82.361148 
61900000    636.03263   -157006.52   -154375.77    608.07554    567866.94    83.739664    82.348878    82.348878 
62000000    643.80759   -156988.63   -154325.72    723.04318    567866.94    83.760944    82.338417    82.338417 
62100000    639.59375   -156993.67   -154348.18    554.36936    567866.94    83.778471    82.329804    82.329804 
62200000    640.49793   -156995.99   -154346.76    601.32182    567866.94    83.792175    82.323071    82.323071 
62300000    643.44482   -156991.71    -154330.3    698.52897    567866.94    83.802003    82.318244    82.318244 
62400000    638.92519   -157009.54   -154366.82     474.4449    567866.94    83.807915     82.31534     82.31534 
62500000    643.66502   -156996.08   -154333.75    604.94594    567866.94    83.809888    82.314371    82.314371 
62600000    642.82106   -156985.26   -154326.42    781.09607    567866.94    83.807915     82.31534     82.31534 
62700000    634.54155   -156984.51   -154359.93    788.08657    567866.94    83.802003    82.318244    82.318244 
62800000    641.72697   -156991.05   -154336.74    447.52205    567866.94    83.792175    82.323071    82.323071 
62900000    642.29012   -156989.02   -154332.39    668.50379    567866.94    83.778471    82.329804    82.329804 
63000000    635.82731    -156991.4   -154361.49    661.74629    567866.94    83.760944    82.338417    82.338417 
63100000    642.35961   -156996.51   -154339.58    611.71237    567866.94    83.739664    82.348878    82.348878 
63200000     642.7234   -156975.85   -154317.42    905.88245    567866.94    83.714715    82.361148    82.361148 
63300000    643.56929   -156974.45   -154312.53    832.98274    567866.94    83.686194    82.375182    82.375182 
63400000    645.38744   -156965.14   -154295.69    869.47508    567866.94    83.654216    82.390925    82.390925 
63500000    638.23325   -156983.89   -154344.03    661.82708    567866.94    83.618905    82.408319    82.408319 
63600000    637.15136   -157002.86   -154367.47     507.8193    567866.94    83.580401    82.427299    82.427299 
63700000     639.8557   -156995.96    -154349.4    773.32375    567866.94    83.538856    82.447792    82.447792 
63800000    634.79417   -156975.24   -154349.61    539.51967    567866.94    83.494435    82.469722    82.469722 
63900000     637.7386   -156979.45   -154341.64    623.47451    567866.94    83.447312    82.493004    82.493004 
64000000    646.91797    -156998.2   -154322.42    618.71436    567866.94    83.397673    82.517551    82.517551 
64100000    638.49706   -156979.07   -154338.12    817.86276    567866.94    83.345715    82.543268    82.543268 
64200000    641.13701   -156991.86   -154339.99    758.03015    567866.94    83.291641    82.570057    82.570057 
64300000    637.26068   -156993.31   -154357.48    527.23314    567866.94    83.235667    82.597816    82.597816 
64400000     639.7231   -157008.54   -154362.52    484.29063    567866.94    83.178012    82.626437    82.626437 
64500000    638.81514   -157016.93   -154374.67    452.83093    567866.94    83.118905     82.65581     82.65581 
64600000    637.30457   -156976.96   -154340.95    753.31386    567866.94    83.058578    82.685822    82.685822 
64700000    639.88839   -157020.38   -154373.68    309.81687    567866.94    82.997269    82.716356    82.716356 
64800000    641.92456   -157009.69   -154354.56    528.31986    567866.94    82.935221    82.747292    82.747292 
64900000    638.41145   -156999.28   -154358.69     594.1221    567866.94    82.872678     82.77851     82.77851 
65000000    637.85058    -157005.6   -154367.32    514.02023    567866.94    82.809888    82.809888    82.809888 
65100000    636.57896   -156991.51   -154358.49    660.88648    567866.94    82.747097    82.841301    82.841301 
65200000    638.75745   -156985.63    -154343.6    565.07997    567866.94    82.684555    82.872626    82.872626 
65300000    640.19385   -156981.14   -154333.17    535.56018    567866.94    82.622507    82.903738    82.903738 
65400000    639.05581   -156987.18   -154343.92    524.17341    567866.94    82.561198    82.934514    82.934514 
65500000     643.4391   -156989.83   -154328.44     658.0007    567866.94    82.500871     82.96483     82.96483 
65600000     642.3598   -156998.17   -154341.24    637.15233    567866.94    82.441763    82.994566    82.994566 
65700000    636.03502   -157018.74   -154387.98    442.84436    567866.94    82.384109    83.023602    83.023602 
65800000    640.63441   -156959.14   -154309.35      830.511    567866.94    82.328134    83.051821    83.051821 
65900000    637.72209    -156997.6   -154359.85    545.90963    567866.94    82.274061    83.079108    83.079108 
66000000    638.22103    -156985.8   -154345.99    594.81255    567866.94    82.222103    83.105354    83.105354 
66100000    639.98054   -156987.38   -154340.29    781.71432    567866.94    82.172464    83.130452    83.130452 
66200000    641.95228   -156994.23   -154338.99    756.09885    567866.94    82.125341    83.154298    83.154298 
66300000     636.7743   -157016.31   -154382.49    354.98582    567866.94    82.080919    83.176796    83.176796 
66400000    642.61184   -156995.88   -154337.91    607.50678    567866.94    82.039375    83.197854    83.197854 
66500000    642.92422   -156977.97   -154318.71     805.9211    567866.94    82.000871    83.217385    83.217385 
66600000    640.41915   -156998.16   -154349.27    668.00682    567866.94     81.96556    83.235308    83.235308 
66700000    640.09557   -156989.55   -154341.99    662.15854    567866.94    81.933581     83.25155     83.25155 
66800000    637.55296   -156969.24    -154332.2    765.00489    567866.94    81.905061    83.266043    83.266043 
66900000     645.3719   -156968.93   -154299.54    877.56154    567866.94    81.880111    83.278728    83.278728 
67000000    638.89587   -156985.15   -154342.55    632.69476    567866.94    81.858831    83.289552    83.289552 
67100000     635.8511    -156999.8    -154369.8    484.95598    567866.94    81.841305     83.29847     83.29847 
67200000    637.84403   -156981.15   -154342.91    788.97879    567866.94    81.827601    83.305445    83.305445 
67300000    638.85652   -156987.78   -154345.35    713.47195    567866.94    81.817773    83.310447    83.310447 
67400000    638.20499      -156992   -154352.26    557.83372    567866.94    81.811861    83.313458    83.313458 
67500000    638.03185   -156975.14   -154336.12    767.50461    567866.94    81.809888    83.314462    83.314462 
67600000    635.48893   -156933.98   -154305.47    863.16154    567866.94    81.811861    83.313458    83.313458 
67700000    635.77644   -156975.63   -154345.93    602.61155    567866.94    81.817773    83.310447    83.310447 
67800000    643.09024   -157018.05   -154358.11    427.51814    567866.94    81.827601    83.305445    83.305445 
67900000    639.23511   -156982.26   -154338.26    695.07431    567866.94    81.841305     83.29847     83.29847 
68000000    639.07953    -157007.5   -154364.14    478.89291    567866.94    81.858831    83.289552    83.289552 
68100000    637.85895   -156983.97   -154345.66    569.95029    567866.94    81.880111    83.278728    83.278728 
68200000    638.84082   -156970.13   -154327.76    747.70211    567866.94    81.905061    83.266043    83.266043 
68300000    639.24887   -156981.68   -154337.62     656.1307    567866.94    81.933581     83.25155     83.25155 
[...]
83800000     637.7525   -156986.19   -154348.32    570.28609    567866.94    83.494435    82.469722    82.469722 
83900000    639.84867   -156997.64    -154351.1    633.09314    567866.94    83.447312    82.493004    82.493004 
84000000    641.22126   -156981.56   -154329.35    748.31494    567866.94    83.397673    82.517551    82.517551 
84100000    636.72699   -156996.59   -154362.96    740.32465    567866.94    83.345715    82.543268    82.543268 
84200000    637.18969   -156990.68   -154355.14    604.89394    567866.94    83.291641    82.570057    82.570057 
84300000    637.20696   -156989.16   -154353.54    676.25446    567866.94    83.235667    82.597816    82.597816 
84400000    641.34315   -156986.48   -154333.76    741.01014    567866.94    83.178012    82.626437    82.626437 
84500000     640.0082   -156992.59    -154345.4    562.36566    567866.94    83.118905     82.65581     82.65581 
84600000    641.68035   -156994.77   -154340.65    690.00644    567866.94    83.058578    82.685822    82.685822 
84700000    640.20909   -157013.61   -154365.58    565.40639    567866.94    82.997269    82.716356    82.716356 
84800000    635.12885   -156993.45   -154366.43    653.22052    567866.94    82.935221    82.747292    82.747292 
84900000     635.1328   -157001.92   -154374.89    802.71375    567866.94    82.872678     82.77851     82.77851 
85000000    643.04214   -157014.14   -154354.39    501.39699    567866.94    82.809888    82.809888    82.809888 
85100000    642.34853   -157002.25   -154345.37    732.35251    567866.94    82.747097    82.841301    82.841301 
85200000    637.07489   -157005.11   -154370.04     648.4113    567866.94    82.684555    82.872626    82.872626 
85300000     638.6906   -156994.92   -154353.17    687.56073    567866.94    82.622507    82.903738    82.903738 
85400000    640.67519   -157022.36    -154372.4    221.82465    567866.94    82.561198    82.934514    82.934514 
85500000    635.54956   -156995.84   -154367.09    544.69021    567866.94    82.500871     82.96483     82.96483 
85600000    638.95089   -156990.39   -154347.57     680.0469    567866.94    82.441763    82.994566    82.994566 
85700000    642.46939   -157007.83   -154350.45    431.26484    567866.94    82.384109    83.023602    83.023602 
85800000    637.97486   -156996.14   -154357.36    562.56636    567866.94    82.328134    83.051821    83.051821 
85900000    644.04455   -156981.37   -154317.48    628.42805    567866.94    82.274061    83.079108    83.079108 
86000000    638.41075    -157004.9   -154364.31    441.87654    567866.94    82.222103    83.105354    83.105354 
86100000    640.98342   -156993.62   -154342.39     534.2119    567866.94    82.172464    83.130452    83.130452 
86200000    641.23062   -156979.17   -154326.91    721.68767    567866.94    82.125341    83.154298    83.154298 
86300000    644.04312   -157003.42   -154339.53    555.92108    567866.94    82.080919    83.176796    83.176796 
86400000    642.31717   -156993.04   -154336.29    521.78909    567866.94    82.039375    83.197854    83.197854 
86500000    640.21307   -157004.29   -154356.25    628.58725    567866.94    82.000871    83.217385    83.217385 
86600000    638.86101   -156993.36   -154350.91     664.6609    567866.94     81.96556    83.235308    83.235308 
86700000    639.48961   -156981.95    -154336.9    729.11934    567866.94    81.933581     83.25155     83.25155 
86800000     641.6974   -157003.01   -154348.82    567.01709    567866.94    81.905061    83.266043    83.266043 
86900000    642.10115   -156995.13   -154339.28    592.98305    567866.94    81.880111    83.278728    83.278728 
87000000    643.26451   -156989.17    -154328.5    713.38093    567866.94    81.858831    83.289552    83.289552 
87100000    636.64724   -156964.52   -154331.22    794.98953    567866.94    81.841305     83.29847     83.29847 
87200000    642.93094   -156998.46   -154339.17    620.28844    567866.94    81.827601    83.305445    83.305445 
87300000      642.349   -156966.33   -154309.45    771.65723    567866.94    81.817773    83.310447    83.310447 
87400000     634.9202   -156984.17   -154358.02    612.86165    567866.94    81.811861    83.313458    83.313458 
87500000    640.49481   -156977.59   -154328.38    719.99371    567866.94    81.809888    83.314462    83.314462 
87600000     639.2281   -156989.72   -154345.75    569.11635    567866.94    81.811861    83.313458    83.313458 
87700000      640.478   -156988.69   -154339.55    596.36417    567866.94    81.817773    83.310447    83.310447 
87800000    636.51428   -156999.66   -154366.91    606.20674    567866.94    81.827601    83.305445    83.305445 
87900000    643.18043   -157009.03   -154348.71    688.53596    567866.94    81.841305     83.29847     83.29847 
88000000    637.85143   -156983.37   -154345.09    513.35303    567866.94    81.858831    83.289552    83.289552 
88100000    643.28518   -156968.59   -154307.83    945.82432    567866.94    81.880111    83.278728    83.278728 
88200000    638.97234   -156976.03   -154333.11    847.60789    567866.94    81.905061    83.266043    83.266043 
88300000    640.33184   -157004.22   -154355.68    528.74937    567866.94    81.933581     83.25155     83.25155 
88400000    638.33983   -156983.28   -154342.98    653.61296    567866.94     81.96556    83.235308    83.235308 
88500000    636.66332   -156995.72   -154362.36     648.9603    567866.94    82.000871    83.217385    83.217385 
88600000    636.22699   -156993.43   -154361.87    657.12783    567866.94    82.039375    83.197854    83.197854 
88700000    637.32671   -156989.65   -154353.54     766.8837    567866.94    82.080919    83.176796    83.176796 
88800000    631.92863    -156987.5   -154373.72    418.51834    567866.94    82.125341    83.154298    83.154298 
88900000    639.41847   -156998.59   -154353.83    589.85177    567866.94    82.172464    83.130452    83.130452 
89000000    640.53095   -157009.46    -154360.1    652.10554    567866.94    82.222103    83.105354    83.105354 
89100000     642.7181   -156964.47   -154306.06    826.66323    567866.94    82.274061    83.079108    83.079108 
89200000    638.64338   -156979.71   -154338.16    658.35516    567866.94    82.328134    83.051821    83.051821 
89300000    637.48067   -157016.95    -154380.2    419.93246    567866.94    82.384109    83.023602    83.023602 
89400000    641.17187   -156999.87   -154347.86    544.06746    567866.94    82.441763    82.994566    82.994566 
89500000     637.6337   -157004.14   -154366.76    689.45872    567866.94    82.500871     82.96483     82.96483 
89600000    647.22763   -157004.23   -154327.18    563.92407    567866.94    82.561198    82.934514    82.934514 
89700000    637.53271   -157030.48   -154393.52    597.52715    567866.94    82.622507    82.903738    82.903738 
89800000    638.48967   -157006.67   -154365.75    560.65997    567866.94    82.684555    82.872626    82.872626 
89900000    639.10666   -156988.52   -154345.05    612.80678    567866.94    82.747097    82.841301    82.841301 
90000000    637.12704    -156986.6   -154351.31    759.05966    567866.94    82.809888    82.809888    82.809888 
90100000    646.46347   -157019.63   -154345.74    539.61446    567866.94    82.872678     82.77851     82.77851 
90200000    642.65919   -157030.96    -154372.8    497.68251    567866.94    82.935221    82.747292    82.747292 
90300000    639.56929    -157017.7   -154372.32    510.15622    567866.94    82.997269    82.716356    82.716356 
90400000    642.19596   -156994.67   -154338.42    679.69893    567866.94    83.058578    82.685822    82.685822 
90500000    646.17784   -157030.83   -154358.12    444.83815    567866.94    83.118905     82.65581     82.65581 
90600000    639.93854   -156992.48   -154345.57    536.41541    567866.94    83.178012    82.626437    82.626437 
90700000     637.4111    -156992.1   -154355.64     603.3997    567866.94    83.235667    82.597816    82.597816 
90800000    636.61909   -157014.08    -154380.9    527.04699    567866.94    83.291641    82.570057    82.570057 
90900000    642.25488   -157014.27   -154357.77      541.583    567866.94    83.345715    82.543268    82.543268 
91000000     641.4204   -157007.72   -154354.68    576.17546    567866.94    83.397673    82.517551    82.517551 
91100000    639.25151   -156975.72   -154331.65    779.79441    567866.94    83.447312    82.493004    82.493004 
91200000    639.22011   -156983.27   -154339.34    704.52006    567866.94    83.494435    82.469722    82.469722 
91300000    639.04104   -156995.68   -154352.48    541.38227    567866.94    83.538856    82.447792    82.447792 
91400000    638.84925   -157016.88   -154374.48    524.56229    567866.94    83.580401    82.427299    82.427299 
91500000     646.5024    -157018.5   -154344.44    605.22288    567866.94    83.618905    82.408319    82.408319 
91600000    641.24131   -156998.77   -154346.47    547.09245    567866.94    83.654216    82.390925    82.390925 
91700000    640.36159   -157002.23   -154353.57    670.91731    567866.94    83.686194    82.375182    82.375182 
91800000    639.99781   -157004.11   -154356.96    538.64667    567866.94    83.714715    82.361148    82.361148 
91900000    639.94639   -156979.41   -154332.46    700.61353    567866.94    83.739664    82.348878    82.348878 
92000000    644.03104   -156987.88   -154324.04      801.356    567866.94    83.760944    82.338417    82.338417 
92100000    645.05731   -157009.16   -154341.08     444.1669    567866.94    83.778471    82.329804    82.329804 
92200000    636.24372   -157017.04   -154385.41    655.49237    567866.94    83.792175    82.323071    82.323071 
92300000    641.29682    -156996.5   -154343.97     606.6347    567866.94    83.802003    82.318244    82.318244 
92400000    636.49144   -157010.12   -154377.47    644.02807    567866.94    83.807915     82.31534     82.31534 
92500000    637.20646   -156994.51    -154358.9    689.53049    567866.94    83.809888    82.314371    82.314371 
92600000    640.29112   -157002.89   -154354.52    527.46448    567866.94    83.807915     82.31534     82.31534 
92700000    641.85196   -156995.11   -154340.29    847.20592    567866.94    83.802003    82.318244    82.318244 
92800000    642.82999   -156992.49   -154333.62    777.22066    567866.94    83.792175    82.323071    82.323071 
92900000    636.16339   -157005.14   -154373.84    493.00084    567866.94    83.778471    82.329804    82.329804 
93000000    638.30957   -156984.92   -154344.75    727.40557    567866.94    83.760944    82.338417    82.338417 
93100000    639.13351   -157009.73   -154366.15    543.29371    567866.94    83.739664    82.348878    82.348878 
93200000    639.09461   -157009.76   -154366.34    620.02743    567866.94    83.714715    82.361148    82.361148 
93300000    642.09673    -157017.8   -154361.97    486.67687    567866.94    83.686194    82.375182    82.375182 
93400000     638.7021   -157006.31   -154364.52    446.44735    567866.94    83.654216    82.390925    82.390925 
93500000    639.96817   -157031.84   -154384.81    452.22749    567866.94    83.618905    82.408319    82.408319 
93600000    643.17644    -157037.5    -154377.2    499.26294    567866.94    83.580401    82.427299    82.427299 
93700000     640.6357   -157005.05   -154355.25    695.34224    567866.94    83.538856    82.447792    82.447792 
93800000     645.8299   -156990.14   -154318.86    608.66151    567866.94    83.494435    82.469722    82.469722 
93900000    638.39621    -156979.8   -154339.27     846.4346    567866.94    83.447312    82.493004    82.493004 
94000000    637.60241   -157007.72   -154370.47    486.97456    567866.94    83.397673    82.517551    82.517551 
94100000    638.78484    -157025.4   -154383.27    542.93366    567866.94    83.345715    82.543268    82.543268 
94200000    641.90485   -157024.05      -154369    477.33296    567866.94    83.291641    82.570057    82.570057 
94300000    631.90079   -157017.59   -154403.93    665.34752    567866.94    83.235667    82.597816    82.597816 
94400000    643.01638   -157019.18   -154359.54    492.57518    567866.94    83.178012    82.626437    82.626437 
94500000    642.50158   -157021.03   -154363.52    464.47678    567866.94    83.118905     82.65581     82.65581 
94600000    642.73075    -157019.6   -154361.14    499.87129    567866.94    83.058578    82.685822    82.685822 
94700000    631.26797   -157006.73   -154395.68    562.40597    567866.94    82.997269    82.716356    82.716356 
94800000    637.66772   -157020.79   -154383.27    571.82042    567866.94    82.935221    82.747292    82.747292 
94900000    641.94168    -157018.6    -154363.4    474.05758    567866.94    82.872678     82.77851     82.77851 
95000000     647.4771   -157006.14   -154328.05    549.67884    567866.94    82.809888    82.809888    82.809888 
95100000    639.29717   -156996.98   -154352.72    793.14656    567866.94    82.747097    82.841301    82.841301 
95200000    638.86912   -157013.42   -154370.93    661.70833    567866.94    82.684555    82.872626    82.872626 
95300000    642.59392   -157061.25   -154403.36    197.52421    567866.94    82.622507    82.903738    82.903738 
95400000    637.40797   -157025.58   -154389.13    442.48653    567866.94    82.561198    82.934514    82.934514 
95500000    641.39517    -157019.9   -154366.96    416.90098    567866.94    82.500871     82.96483     82.96483 
95600000    639.66418   -157011.41   -154365.63    705.02293    567866.94    82.441763    82.994566    82.994566 
95700000    644.15247   -157013.54    -154349.2    514.89526    567866.94    82.384109    83.023602    83.023602 
95800000    643.57807   -157037.19   -154375.23     511.1437    567866.94    82.328134    83.051821    83.051821 
95900000    641.31577   -157012.62   -154360.01    579.32701    567866.94    82.274061    83.079108    83.079108 
96000000    641.34553   -157006.72   -154353.99    447.76977    567866.94    82.222103    83.105354    83.105354 
96100000    636.29028    -156983.4   -154351.57    753.80302    567866.94    82.172464    83.130452    83.130452 
96200000    641.48212   -157011.83   -154358.53    435.58004    567866.94    82.125341    83.154298    83.154298 
96300000    642.95924   -156993.69   -154334.28    648.33244    567866.94    82.080919    83.176796    83.176796 
96400000    641.32044   -156996.35   -154343.73    819.33759    567866.94    82.039375    83.197854    83.197854 
96500000    643.88389   -157003.96   -154340.73    635.72417    567866.94    82.000871    83.217385    83.217385 
96600000    643.51051   -157009.92   -154348.24    669.89503    567866.94     81.96556    83.235308    83.235308 
96700000    638.55918   -157034.37   -154393.16    406.89454    567866.94    81.933581     83.25155     83.25155 
96800000    642.74009   -156982.13   -154323.63     681.0777    567866.94    81.905061    83.266043    83.266043 
96900000    641.53496   -156998.39   -154344.87    590.98777    567866.94    81.880111    83.278728    83.278728 
97000000    637.79376   -157026.02   -154387.98    384.30871    567866.94    81.858831    83.289552    83.289552 
97100000    639.58221   -156992.03    -154346.6    743.40016    567866.94    81.841305     83.29847     83.29847 
97200000    639.75705   -156996.58   -154350.42    710.36335    567866.94    81.827601    83.305445    83.305445 
97300000    640.77749   -156996.87   -154346.49    479.79829    567866.94    81.817773    83.310447    83.310447 
97400000    641.87762    -156996.5   -154341.57    482.02001    567866.94    81.811861    83.313458    83.313458 
97500000    639.31362   -157005.85   -154361.52    520.97079    567866.94    81.809888    83.314462    83.314462 
97600000    636.09577   -156996.14   -154365.13    463.71254    567866.94    81.811861    83.313458    83.313458 
97700000    635.65092   -157008.99   -154379.82    606.15542    567866.94    81.817773    83.310447    83.310447 
97800000    636.70007   -156995.46   -154361.94    444.37761    567866.94    81.827601    83.305445    83.305445 
97900000    637.99881   -157012.13   -154373.24    552.51201    567866.94    81.841305     83.29847     83.29847 
98000000    639.96198   -156989.14   -154342.13    662.19234    567866.94    81.858831    83.289552    83.289552 
98100000    634.64159   -156990.31   -154365.31    660.74347    567866.94    81.880111    83.278728    83.278728 
98200000    643.36091   -157015.12   -154354.05    579.90123    567866.94    81.905061    83.266043    83.266043 
98300000     636.0516   -157024.45   -154393.62    432.79367    567866.94    81.933581     83.25155     83.25155 
98400000    643.73148   -157001.12   -154338.52    545.03104    567866.94     81.96556    83.235308    83.235308 
98500000     636.8703   -157009.16   -154374.94    497.18389    567866.94    82.000871    83.217385    83.217385 
98600000    641.60453   -157012.17   -154358.37    565.66016    567866.94    82.039375    83.197854    83.197854 
98700000    632.84668   -157006.56   -154388.98    654.23231    567866.94    82.080919    83.176796    83.176796 
98800000    639.75775   -157014.73   -154368.57    601.50645    567866.94    82.125341    83.154298    83.154298 
98900000    641.30097   -157000.83   -154348.28    513.81688    567866.94    82.172464    83.130452    83.130452 
99000000    640.15646   -157032.92   -154385.11    432.60564    567866.94    82.222103    83.105354    83.105354 
99100000    640.96946   -157005.93   -154354.76    506.03563    567866.94    82.274061    83.079108    83.079108 
99200000    644.16018   -157041.86   -154377.49    380.47184    567866.94    82.328134    83.051821    83.051821 
99300000    636.58969   -157034.16    -154401.1    416.21592    567866.94    82.384109    83.023602    83.023602 
99400000    638.68115   -157011.49   -154369.78    626.21924    567866.94    82.441763    82.994566    82.994566 
99500000    638.15837   -157007.07   -154367.52      505.715    567866.94    82.500871     82.96483     82.96483 
99600000    637.77071   -157021.34    -154383.4    497.61099    567866.94    82.561198    82.934514    82.934514 
99700000    639.97486   -156990.06      -154343    671.31346    567866.94    82.622507    82.903738    82.903738 
99800000    637.18855   -157016.57   -154381.03    574.37395    567866.94    82.684555    82.872626    82.872626 
99900000     643.8919   -157028.04   -154364.77    381.07686    567866.94    82.747097    82.841301    82.841301 
100000000     632.0748   -157002.37   -154387.99    539.34708    567866.94    82.809888    82.809888    82.809888 
Loop time of 59932.1 on 104 procs for 100000000 steps with 32000 atoms

Performance: 1441.632 ns/day, 0.017 hours/ns, 1668.555 timesteps/s
99.5% CPU use with 104 MPI tasks x 1 OpenMP threads

MPI task timing breakdown:
Section |  min time  |  avg time  |  max time  |%varavg| %total
---------------------------------------------------------------
Pair    | 34853      | 35646      | 37028      | 254.1 | 59.48
Neigh   | 2366.4     | 2510.1     | 2722.7     | 149.8 |  4.19
Comm    | 11882      | 12899      | 14124      | 445.3 | 21.52
Output  | 0.42466    | 0.42888    | 0.53914    |   1.7 |  0.00
Modify  | 7352.2     | 7854.5     | 8437.5     | 340.1 | 13.11
Other   |            | 1022       |            |       |  1.71

Nlocal:        307.692 ave         323 max         293 min
Histogram: 1 4 9 17 18 27 15 4 7 2
Nghost:        2590.00 ave        2627 max        2551 min
Histogram: 1 2 4 18 20 31 17 6 4 1
Neighs:        22368.2 ave       24290 max       20851 min
Histogram: 9 8 14 17 12 13 18 11 1 1

Total # of neighbors = 2326296
Ave neighs/atom = 72.696750
Neighbor list builds = 10569537
Dangerous builds = 0
clear
OMP_NUM_THREADS environment is not set. Defaulting to 1 thread. (../comm.cpp:94)
  using 1 OpenMP thread(s) per MPI task
package intel 1
jump dms650.lmp
#MD-DMS by Ha-Bin Yu
#package gpu 4
variable T equal 650
log log.${T}
log log.650
