units           metal
boundary        p p p
atom_style      atomic
read_data      ../../restart/T${T}.dat
read_data      ../../restart/T560.dat
Reading data file ...
  orthogonal box = (-2.4432866 -2.4432866 -2.4432866) to (80.278064 80.278064 80.278064)
  2 by 4 by 13 MPI processor grid
  reading atoms ...
  32000 atoms
  reading velocities ...
  32000 velocities
  read_data CPU = 0.135 seconds
pair_style      eam/alloy
pair_coeff      * *  ../../ZrCu.lammps.eam Zr Cu
mass 1 91.224
mass 2 63.546
neighbor            2.0 bin
neigh_modify     delay 1
timestep 0.01
thermo 100000
reset_timestep 0
thermo_style custom step temp pe etotal press vol lx ly lz
fix             1 all nvt temp ${T} ${T} 0.1
fix             1 all nvt temp 560 ${T} 0.1
fix             1 all nvt temp 560 560 0.1
thermo_modify flush yes
fix nodrift all momentum 1  linear 1 1 1
fix com_seed all recenter INIT INIT INIT shift all
fix dsf all deform 1 x  wiggle 1.0  100000.0 y volume z volume units box
fix ps1 all ave/time 1 1 100000 c_thermo_press[1] c_thermo_press[2]  c_thermo_press[3] c_thermo_press[4]  c_thermo_press[5] c_thermo_press[6]  file  stress.${T}
fix ps1 all ave/time 1 1 100000 c_thermo_press[1] c_thermo_press[2]  c_thermo_press[3] c_thermo_press[4]  c_thermo_press[5] c_thermo_press[6]  file  stress.560
dump            1 all custom 10000000 dump.${T} id type x y z
dump            1 all custom 10000000 dump.560 id type x y z
dump_modify 1 sort id
run 100000000
Neighbor list info ...
  update every 1 steps, delay 1 steps, check yes
  max neighbors/atom: 2000, page size: 100000
  master list distance cutoff = 8.5
  ghost atom cutoff = 8.5
  binsize = 4.25, bins = 20 20 20
  1 neighbor lists, perpetual/occasional/extra = 1 0 0
  (1) pair eam/alloy/intel, perpetual
      attributes: half, newton on, intel
      pair build: half/bin/newton/intel
      stencil: half/bin/3d/newton
      bin: intel
Per MPI rank memory allocation (min/avg/max) = 7.372 | 7.467 | 7.553 Mbytes
Step Temp PotEng TotEng Press Volume Lx Ly Lz 
       0    558.56815   -157462.98   -155152.63    307.70253    566047.47    82.721351    82.721351    82.721351 
  100000    562.60181   -157416.55   -155089.52    726.12234    566047.47    82.784141    82.689973    82.689973 
  200000    558.14837   -157422.13   -155113.52    605.39058    566047.47    82.846684    82.658755    82.658755 
  300000    558.07182   -157409.12   -155100.83    560.80854    566047.47    82.908732    82.627819    82.627819 
  400000     562.0247   -157416.65      -155092     642.9364    566047.47    82.970041    82.597286    82.597286 
  500000    559.93729    -157428.9   -155112.89    473.66478    566047.47    83.030368    82.567274    82.567274 
  600000    563.87734   -157431.76   -155099.46    526.95957    566047.47    83.089475    82.537901    82.537901 
  700000    563.64921   -157422.91   -155091.55    616.05629    566047.47     83.14713    82.509279    82.509279 
  800000    559.81441   -157401.51   -155086.01     699.9309    566047.47    83.203104    82.481521    82.481521 
  900000    561.82838   -157403.35   -155079.52    514.74382    566047.47    83.257178    82.454732    82.454732 
 1000000    560.36402   -157402.92   -155085.14    679.24017    566047.47    83.309136    82.429015    82.429015 
 1100000    560.56264    -157426.7    -155108.1    499.81916    566047.47    83.358775    82.404469    82.404469 
 1200000    561.52192   -157417.34   -155094.77    576.29867    566047.47    83.405898    82.381187    82.381187 
 1300000    559.84243   -157432.74   -155117.12    481.47222    566047.47    83.450319    82.359258    82.359258 
 1400000    559.32015   -157401.09   -155087.63    658.56486    566047.47    83.491864    82.338765    82.338765 
 1500000    563.22549   -157419.07   -155089.46    598.19607    566047.47    83.530368    82.319785    82.319785 
 1600000    559.73189    -157420.6   -155105.44     534.3295    566047.47    83.565679    82.302391    82.302391 
 1700000    556.87717   -157422.23   -155118.87    393.50271    566047.47    83.597657    82.286648    82.286648 
 1800000    560.44196   -157412.35   -155094.26    474.26945    566047.47    83.626178    82.272615    82.272615 
 1900000    560.19678   -157394.72   -155077.64    688.62481    566047.47    83.651127    82.260345    82.260345 
 2000000    555.56059   -157406.35   -155108.44    612.70437    566047.47    83.672407    82.249884    82.249884 
 2100000    556.07146   -157392.44   -155092.42     707.3569    566047.47    83.689934    82.241271    82.241271 
 2200000    558.96428    -157393.2   -155081.21    865.00052    566047.47    83.703638    82.234538    82.234538 
 2300000     555.6816   -157401.56   -155103.15    578.41748    566047.47    83.713466    82.229711    82.229711 
 2400000    562.31569   -157400.41   -155074.56     624.0451    566047.47    83.719378    82.226808    82.226808 
 2500000    562.63555   -157394.74   -155067.57    726.03542    566047.47    83.721351    82.225839    82.225839 
 2600000    557.89665    -157411.2   -155103.63    473.43527    566047.47    83.719378    82.226808    82.226808 
 2700000    563.27407   -157400.72    -155070.9    725.32282    566047.47    83.713466    82.229711    82.229711 
 2800000    558.82365   -157410.11   -155098.71    637.94313    566047.47    83.703638    82.234538    82.234538 
 2900000     560.9474   -157425.16   -155104.97    528.79601    566047.47    83.689934    82.241271    82.241271 
 3000000    558.81663   -157402.82   -155091.45    754.06979    566047.47    83.672407    82.249884    82.249884 
 3100000    558.90335    -157386.1   -155074.37     739.4716    566047.47    83.651127    82.260345    82.260345 
 3200000      556.287   -157378.63   -155077.72    858.91307    566047.47    83.626178    82.272615    82.272615 
 3300000    558.41619   -157422.25   -155112.53    519.75819    566047.47    83.597657    82.286648    82.286648 
 3400000     560.0102   -157396.85   -155080.54    763.50531    566047.47    83.565679    82.302391    82.302391 
 3500000    560.56897   -157418.21   -155099.59    604.96341    566047.47    83.530368    82.319785    82.319785 
 3600000    560.06966   -157406.94   -155090.38    757.25634    566047.47    83.491864    82.338765    82.338765 
 3700000    559.21074   -157411.08   -155098.07    587.82902    566047.47    83.450319    82.359258    82.359258 
 3800000    562.24236   -157428.37   -155102.82    366.85721    566047.47    83.405898    82.381187    82.381187 
 3900000    561.43139   -157413.26   -155091.07    597.62814    566047.47    83.358775    82.404469    82.404469 
 4000000    554.93083   -157417.71    -155122.4    522.43923    566047.47    83.309136    82.429015    82.429015 
 4100000    562.02932   -157430.91   -155106.25     614.5594    566047.47    83.257178    82.454732    82.454732 
 4200000    557.94262   -157413.26    -155105.5    644.11696    566047.47    83.203104    82.481521    82.481521 
 4300000    558.33416   -157407.59   -155098.21    570.56916    566047.47     83.14713    82.509279    82.509279 
 4400000    564.42688   -157419.95   -155085.37    585.21513    566047.47    83.089475    82.537901    82.537901 
 4500000    560.54792   -157422.74    -155104.2     449.3771    566047.47    83.030368    82.567274    82.567274 
 4600000    561.23271   -157408.98   -155087.61    709.83766    566047.47    82.970041    82.597286    82.597286 
 4700000    563.26997   -157425.14   -155095.35    625.35564    566047.47    82.908732    82.627819    82.627819 
 4800000    561.42223   -157415.38   -155093.23    611.90753    566047.47    82.846684    82.658755    82.658755 
 4900000    561.33629   -157431.43   -155109.63    391.91763    566047.47    82.784141    82.689973    82.689973 
 5000000    563.73613   -157411.24   -155079.52     776.3642    566047.47    82.721351    82.721351    82.721351 
 5100000    558.46178   -157423.42   -155113.51    493.09985    566047.47     82.65856    82.752764    82.752764 
 5200000    554.10048   -157421.24   -155129.37    476.87086    566047.47    82.596018    82.784089    82.784089 
 5300000    556.78581   -157422.55   -155119.57      520.649    566047.47     82.53397    82.815201    82.815201 
 5400000    557.63221   -157412.83   -155106.35    559.98488    566047.47    82.472661    82.845977    82.845977 
 5500000    563.30754    -157409.3   -155079.35    690.12518    566047.47    82.412334    82.876294    82.876294 
 5600000     558.1632   -157412.44   -155103.77    509.60049    566047.47    82.353226     82.90603     82.90603 
 5700000    555.91146   -157421.14   -155121.78    416.67734    566047.47    82.295572    82.935066    82.935066 
 5800000    557.35882    -157414.5   -155109.15    625.24004    566047.47    82.239597    82.963285    82.963285 
 5900000    557.14509   -157439.58   -155135.12    480.22668    566047.47    82.185524    82.990573    82.990573 
 6000000    558.51211   -157421.72   -155111.61    491.28763    566047.47    82.133566    83.016819    83.016819 
 6100000    559.01952   -157418.11    -155105.9    522.12489    566047.47    82.083927    83.041917    83.041917 
 6200000    559.12069   -157416.19   -155103.56    547.97113    566047.47    82.036804    83.065763    83.065763 
 6300000    559.12756   -157410.76   -155098.09    419.21885    566047.47    81.992382    83.088262    83.088262 
 6400000    563.47306   -157413.67   -155083.03    704.01562    566047.47    81.950838     83.10932     83.10932 
 6500000    559.85421   -157409.52   -155093.85    640.68479    566047.47    81.912334    83.128851    83.128851 
 6600000     563.3821   -157404.87   -155074.61    714.87003    566047.47    81.877023    83.146774    83.146774 
 6700000    566.31056   -157417.97    -155075.6     669.9456    566047.47    81.845044    83.163016    83.163016 
 6800000    553.64447   -157405.99      -155116    626.72536    566047.47    81.816524     83.17751     83.17751 
 6900000    565.27227   -157397.96   -155059.89     804.4765    566047.47    81.791574    83.190195    83.190195 
 7000000    562.35462   -157406.64   -155080.63     571.1743    566047.47    81.770294    83.201019    83.201019 
 7100000    557.95615   -157397.82      -155090    597.52354    566047.47    81.752768    83.209937    83.209937 
 7200000    560.74762   -157406.14   -155086.78    871.84769    566047.47    81.739064    83.216912    83.216912 
 7300000    558.17558   -157413.86   -155105.14    553.88189    566047.47    81.729236    83.221915    83.221915 
 7400000    564.45734   -157405.25   -155070.54    811.50655    566047.47    81.723324    83.224925    83.224925 
 7500000    558.67968   -157396.08   -155085.28    735.63398    566047.47    81.721351     83.22593     83.22593 
 7600000    561.55764   -157397.21    -155074.5    675.61165    566047.47    81.723324    83.224925    83.224925 
 7700000     563.8833   -157404.75   -155072.42    657.21653    566047.47    81.729236    83.221915    83.221915 
 7800000    556.47602   -157407.31   -155105.61    593.37544    566047.47    81.739064    83.216912    83.216912 
 7900000    558.89171   -157413.72   -155102.03    552.28982    566047.47    81.752768    83.209937    83.209937 
 8000000    557.15135   -157398.46   -155093.97    651.04728    566047.47    81.770294    83.201019    83.201019 
 8100000    558.52903   -157389.61   -155079.42    741.73275    566047.47    81.791574    83.190195    83.190195 
 8200000    562.32951   -157387.86   -155061.96     631.0461    566047.47    81.816524     83.17751     83.17751 
 8300000    558.36679    -157405.4   -155095.88    616.61523    566047.47    81.845044    83.163016    83.163016 
 8400000    560.72034   -157394.86   -155075.61    575.84142    566047.47    81.877023    83.146774    83.146774 
 8500000     560.6538   -157401.73   -155082.75    571.15153    566047.47    81.912334    83.128851    83.128851 
 8600000    561.69682   -157397.39    -155074.1    833.88714    566047.47    81.950838     83.10932     83.10932 
 8700000    562.06902   -157398.17   -155073.34    732.53674    566047.47    81.992382    83.088262    83.088262 
 8800000     565.5427   -157422.59    -155083.4    556.84853    566047.47    82.036804    83.065763    83.065763 
 8900000    560.59351   -157413.11   -155094.39    473.79378    566047.47    82.083927    83.041917    83.041917 
 9000000    558.01718   -157414.24   -155106.17    595.71639    566047.47    82.133566    83.016819    83.016819 
 9100000    557.59912    -157410.8   -155104.47    634.48985    566047.47    82.185524    82.990573    82.990573 
 9200000    557.18544   -157400.05   -155095.43    689.20908    566047.47    82.239597    82.963285    82.963285 
 9300000     554.9557   -157432.47   -155137.07    424.01324    566047.47    82.295572    82.935066    82.935066 
 9400000    557.00481   -157425.22   -155121.34    428.96003    566047.47    82.353226     82.90603     82.90603 
 9500000    554.74484   -157427.27   -155132.73     510.5872    566047.47    82.412334    82.876294    82.876294 
 9600000    560.02771   -157437.46   -155121.08    349.09105    566047.47    82.472661    82.845977    82.845977 
 9700000    554.68586   -157421.36   -155127.07    474.97214    566047.47     82.53397    82.815201    82.815201 
 9800000    557.87102   -157438.28   -155130.82    311.46346    566047.47    82.596018    82.784089    82.784089 
 9900000    563.28592    -157425.8   -155095.94    350.85861    566047.47     82.65856    82.752764    82.752764 
10000000    556.71541   -157414.03   -155111.34    428.04407    566047.47    82.721351    82.721351    82.721351 
10100000    559.55117   -157405.61    -155091.2     692.6845    566047.47    82.784141    82.689973    82.689973 
10200000    557.75131   -157410.28   -155103.31     576.8459    566047.47    82.846684    82.658755    82.658755 
10300000    558.48341   -157421.23   -155111.23    545.46608    566047.47    82.908732    82.627819    82.627819 
10400000    564.73649   -157416.38   -155080.52    537.53298    566047.47    82.970041    82.597286    82.597286 
10500000    558.24851   -157417.27   -155108.24    433.70814    566047.47    83.030368    82.567274    82.567274 
10600000    557.68044   -157419.97    -155113.3    498.10374    566047.47    83.089475    82.537901    82.537901 
10700000    563.41366   -157421.14   -155090.75    475.43965    566047.47     83.14713    82.509279    82.509279 
10800000    557.13407   -157417.81   -155113.39    742.83343    566047.47    83.203104    82.481521    82.481521 
10900000    560.96254   -157423.59   -155103.34    655.11669    566047.47    83.257178    82.454732    82.454732 
11000000    562.79224   -157405.51   -155077.69    669.59408    566047.47    83.309136    82.429015    82.429015 
11100000    558.02024   -157411.21   -155103.13    726.05721    566047.47    83.358775    82.404469    82.404469 
11200000    554.52415   -157395.52    -155101.9    752.08768    566047.47    83.405898    82.381187    82.381187 
11300000    560.20912   -157405.06   -155087.93    645.37198    566047.47    83.450319    82.359258    82.359258 
11400000    563.92058   -157397.78    -155065.3    773.14191    566047.47    83.491864    82.338765    82.338765 
11500000    557.95463   -157398.95   -155091.14    589.23754    566047.47    83.530368    82.319785    82.319785 
11600000    561.36869   -157399.81   -155077.88    655.00836    566047.47    83.565679    82.302391    82.302391 
11700000    557.20885   -157405.26   -155100.54    626.33103    566047.47    83.597657    82.286648    82.286648 
11800000      558.999    -157412.2   -155100.07     541.2361    566047.47    83.626178    82.272615    82.272615 
11900000    562.93509   -157403.74   -155075.33    684.14361    566047.47    83.651127    82.260345    82.260345 
12000000    565.57342   -157398.74   -155059.42    652.02685    566047.47    83.672407    82.249884    82.249884 
12100000    563.25504   -157428.79   -155099.06    400.01079    566047.47    83.689934    82.241271    82.241271 
12200000    557.80847   -157405.89   -155098.68    472.72778    566047.47    83.703638    82.234538    82.234538 
12300000     560.6248   -157402.68   -155083.83    550.86762    566047.47    83.713466    82.229711    82.229711 
12400000    560.21516   -157401.19   -155084.03    791.51173    566047.47    83.719378    82.226808    82.226808 
12500000    563.63033   -157408.26   -155076.97    640.35188    566047.47    83.721351    82.225839    82.225839 
12600000    563.05642   -157413.54   -155084.63    608.05655    566047.47    83.719378    82.226808    82.226808 
12700000    558.04242   -157409.02   -155100.84    590.28807    566047.47    83.713466    82.229711    82.229711 
12800000    559.07764   -157403.96   -155091.51    512.95888    566047.47    83.703638    82.234538    82.234538 
12900000    558.20548   -157388.31   -155079.46    806.78356    566047.47    83.689934    82.241271    82.241271 
13000000    557.14243   -157391.31   -155086.86    542.92654    566047.47    83.672407    82.249884    82.249884 
13100000     563.6471   -157398.02   -155066.67    636.36575    566047.47    83.651127    82.260345    82.260345 
13200000    557.82818   -157407.48   -155100.19    532.80135    566047.47    83.626178    82.272615    82.272615 
13300000    557.46268   -157406.98   -155101.21     583.0855    566047.47    83.597657    82.286648    82.286648 
13400000    564.32554   -157404.47   -155070.31    719.01462    566047.47    83.565679    82.302391    82.302391 
13500000    560.69728   -157414.82   -155095.66    753.35777    566047.47    83.530368    82.319785    82.319785 
13600000    556.39812   -157422.07    -155120.7    489.48313    566047.47    83.491864    82.338765    82.338765 
13700000     561.1211   -157400.46   -155079.55    676.62651    566047.47    83.450319    82.359258    82.359258 
13800000    559.18338   -157413.16   -155100.27    519.21645    566047.47    83.405898    82.381187    82.381187 
13900000    562.26719   -157425.22   -155099.57    526.03046    566047.47    83.358775    82.404469    82.404469 
14000000    554.97585   -157420.67   -155125.18    336.05263    566047.47    83.309136    82.429015    82.429015 
14100000    564.96554   -157400.78   -155063.97    880.10859    566047.47    83.257178    82.454732    82.454732 
14200000    560.64329   -157417.02   -155098.09    581.25258    566047.47    83.203104    82.481521    82.481521 
14300000    559.85294   -157427.86    -155112.2    419.47802    566047.47     83.14713    82.509279    82.509279 
14400000    560.85794   -157434.13   -155114.32    429.13126    566047.47    83.089475    82.537901    82.537901 
14500000    559.74156   -157405.01   -155089.81    744.40679    566047.47    83.030368    82.567274    82.567274 
14600000    557.04388   -157393.57   -155089.53    712.01494    566047.47    82.970041    82.597286    82.597286 
14700000    561.12645   -157412.66   -155091.73    536.75325    566047.47    82.908732    82.627819    82.627819 
14800000    558.45968   -157410.09   -155100.19    548.30369    566047.47    82.846684    82.658755    82.658755 
14900000    555.96477   -157398.37   -155098.79    763.78675    566047.47    82.784141    82.689973    82.689973 
15000000    559.55696   -157435.49   -155121.06    421.26699    566047.47    82.721351    82.721351    82.721351 
15100000    559.92448   -157403.11   -155087.15    675.13169    566047.47     82.65856    82.752764    82.752764 
15200000    558.15491   -157429.32   -155120.69    515.45141    566047.47    82.596018    82.784089    82.784089 
15300000    556.31249   -157410.12   -155109.11     581.3993    566047.47     82.53397    82.815201    82.815201 
15400000    557.48542   -157403.35   -155097.49     575.1946    566047.47    82.472661    82.845977    82.845977 
15500000    561.85832   -157413.87   -155089.91    659.10655    566047.47    82.412334    82.876294    82.876294 
15600000    562.51597   -157403.82   -155077.14    720.86472    566047.47    82.353226     82.90603     82.90603 
15700000    560.87863   -157418.43   -155098.52    533.12478    566047.47    82.295572    82.935066    82.935066 
15800000    560.05996   -157405.01   -155088.49    707.27891    566047.47    82.239597    82.963285    82.963285 
15900000    561.30306   -157407.95   -155086.29    680.54721    566047.47    82.185524    82.990573    82.990573 
16000000     561.4532   -157409.03   -155086.75    686.34326    566047.47    82.133566    83.016819    83.016819 
16100000    559.23225   -157414.57   -155101.47    506.47557    566047.47    82.083927    83.041917    83.041917 
16200000    558.74784    -157413.2   -155102.11    614.08327    566047.47    82.036804    83.065763    83.065763 
16300000    560.48946   -157424.37   -155106.07    568.64444    566047.47    81.992382    83.088262    83.088262 
16400000    555.52448   -157399.71   -155101.95    550.84673    566047.47    81.950838     83.10932     83.10932 
16500000     561.9157   -157417.63   -155093.44    633.11985    566047.47    81.912334    83.128851    83.128851 
16600000    562.67017   -157408.05   -155080.73    610.59825    566047.47    81.877023    83.146774    83.146774 
16700000    558.23817   -157400.78    -155091.8    720.17315    566047.47    81.845044    83.163016    83.163016 
16800000    553.52031   -157401.79   -155112.33    616.05127    566047.47    81.816524     83.17751     83.17751 
16900000    562.30786    -157411.1   -155085.28    630.34596    566047.47    81.791574    83.190195    83.190195 
17000000    563.84429    -157389.8   -155057.63    722.15168    566047.47    81.770294    83.201019    83.201019 
17100000    560.93969   -157361.11   -155040.95    992.62949    566047.47    81.752768    83.209937    83.209937 
17200000    560.12991   -157390.91    -155074.1    745.65957    566047.47    81.739064    83.216912    83.216912 
17300000     558.6771   -157389.13   -155078.34    634.97003    566047.47    81.729236    83.221915    83.221915 
17400000    564.89842   -157398.51   -155061.98    735.73341    566047.47    81.723324    83.224925    83.224925 
17500000    555.25956   -157401.32   -155104.66    542.82481    566047.47    81.721351     83.22593     83.22593 
17600000    558.09272   -157404.38      -155096    683.19496    566047.47    81.723324    83.224925    83.224925 
17700000    557.23848   -157414.56   -155109.71    562.64575    566047.47    81.729236    83.221915    83.221915 
17800000    559.19939   -157404.91   -155091.95     679.2272    566047.47    81.739064    83.216912    83.216912 
17900000    557.01684    -157389.1   -155085.17    665.96271    566047.47    81.752768    83.209937    83.209937 
18000000    563.26036   -157392.98   -155063.22    817.83048    566047.47    81.770294    83.201019    83.201019 
18100000    559.84052   -157377.99   -155062.38    898.16782    566047.47    81.791574    83.190195    83.190195 
18200000    562.56857   -157402.65   -155075.76    683.44802    566047.47    81.816524     83.17751     83.17751 
18300000    562.79929   -157390.12   -155062.27    713.79566    566047.47    81.845044    83.163016    83.163016 
18400000    558.44618   -157405.01   -155095.17    548.67828    566047.47    81.877023    83.146774    83.146774 
18500000    556.38914   -157406.09   -155104.75    650.45886    566047.47    81.912334    83.128851    83.128851 
18600000    561.34068   -157409.36   -155087.55    647.48521    566047.47    81.950838     83.10932     83.10932 
18700000    558.98414   -157402.36   -155090.29     589.6691    566047.47    81.992382    83.088262    83.088262 
18800000    563.25152   -157414.65   -155084.94    800.04571    566047.47    82.036804    83.065763    83.065763 
18900000    559.90508   -157422.84   -155106.96    429.39564    566047.47    82.083927    83.041917    83.041917 
19000000    561.24712   -157427.83    -155106.4     587.3815    566047.47    82.133566    83.016819    83.016819 
19100000    558.45581   -157391.78    -155081.9    748.34152    566047.47    82.185524    82.990573    82.990573 
19200000    560.24334    -157411.7   -155094.43    762.98638    566047.47    82.239597    82.963285    82.963285 
19300000    557.37362   -157426.98   -155121.57    543.82133    566047.47    82.295572    82.935066    82.935066 
19400000    557.15691   -157419.81    -155115.3    545.00071    566047.47    82.353226     82.90603     82.90603 
19500000    554.47549   -157405.93   -155112.52    555.34385    566047.47    82.412334    82.876294    82.876294 
19600000    558.01766   -157425.24   -155117.17    547.36399    566047.47    82.472661    82.845977    82.845977 
19700000    554.40377   -157425.96   -155132.84    476.68045    566047.47     82.53397    82.815201    82.815201 
19800000    560.27524   -157423.24   -155105.83    448.23543    566047.47    82.596018    82.784089    82.784089 
19900000    563.18507   -157417.92   -155088.48    622.47232    566047.47     82.65856    82.752764    82.752764 
20000000    559.84634   -157425.42   -155109.79    490.29284    566047.47    82.721351    82.721351    82.721351 
20100000    561.16225   -157408.93   -155087.85    653.06633    566047.47    82.784141    82.689973    82.689973 
20200000     558.1962   -157416.11    -155107.3    593.89071    566047.47    82.846684    82.658755    82.658755 
20300000    560.96824   -157430.44   -155110.16    514.71724    566047.47    82.908732    82.627819    82.627819 
20400000    557.38007   -157424.56   -155119.13    546.66609    566047.47    82.970041    82.597286    82.597286 
20500000    560.01574   -157404.82   -155088.49    709.92714    566047.47    83.030368    82.567274    82.567274 
20600000    559.38038    -157415.6   -155101.89    569.08354    566047.47    83.089475    82.537901    82.537901 
20700000    559.84229   -157403.08   -155087.47    686.30914    566047.47     83.14713    82.509279    82.509279 
20800000    558.06015   -157417.57   -155109.32    459.87744    566047.47    83.203104    82.481521    82.481521 
20900000    561.13495   -157411.09   -155090.13    801.08316    566047.47    83.257178    82.454732    82.454732 
21000000    558.43679   -157425.26   -155115.46     588.1968    566047.47    83.309136    82.429015    82.429015 
21100000    559.05571   -157408.52   -155096.16    727.76554    566047.47    83.358775    82.404469    82.404469 
21200000    561.07671   -157415.67   -155094.95    657.01325    566047.47    83.405898    82.381187    82.381187 
21300000     554.3498   -157420.34   -155127.44    559.71167    566047.47    83.450319    82.359258    82.359258 
21400000    558.48788   -157417.69   -155107.68    479.44375    566047.47    83.491864    82.338765    82.338765 
21500000    563.27513   -157414.39   -155084.58    624.67128    566047.47    83.530368    82.319785    82.319785 
21600000    559.83395   -157405.65   -155090.07    605.11521    566047.47    83.565679    82.302391    82.302391 
21700000    557.91074   -157418.87   -155111.24    598.71364    566047.47    83.597657    82.286648    82.286648 
21800000     559.3043   -157382.25   -155068.86    721.54511    566047.47    83.626178    82.272615    82.272615 
21900000    560.72471    -157397.2   -155077.93    775.94467    566047.47    83.651127    82.260345    82.260345 
22000000     561.2793   -157399.35   -155077.79    700.82143    566047.47    83.672407    82.249884    82.249884 
22100000    564.04563   -157400.47   -155067.47     668.8861    566047.47    83.689934    82.241271    82.241271 
22200000    561.16537   -157424.21   -155103.12    495.34594    566047.47    83.703638    82.234538    82.234538 
22300000    557.41873   -157402.88   -155097.28    611.22732    566047.47    83.713466    82.229711    82.229711 
22400000     562.4101   -157429.11   -155102.87    485.66228    566047.47    83.719378    82.226808    82.226808 
22500000    558.97044   -157410.15   -155098.14    658.71946    566047.47    83.721351    82.225839    82.225839 
22600000    561.23724   -157404.78   -155083.39     579.1614    566047.47    83.719378    82.226808    82.226808 
22700000    557.65417   -157398.85   -155092.29    731.43139    566047.47    83.713466    82.229711    82.229711 
22800000    561.06358   -157403.94   -155083.27    523.48046    566047.47    83.703638    82.234538    82.234538 
22900000    561.27249   -157403.65   -155082.12    633.54342    566047.47    83.689934    82.241271    82.241271 
23000000    563.16698   -157417.63   -155088.26    535.41304    566047.47    83.672407    82.249884    82.249884 
23100000    554.66844   -157403.29   -155109.07    574.80196    566047.47    83.651127    82.260345    82.260345 
23200000    558.34789    -157405.9   -155096.46    625.05466    566047.47    83.626178    82.272615    82.272615 
23300000     566.8834   -157421.18   -155076.44    672.24268    566047.47    83.597657    82.286648    82.286648 
23400000    557.06784   -157409.07   -155104.93    591.29681    566047.47    83.565679    82.302391    82.302391 
23500000     561.0907   -157418.76   -155097.98    480.22166    566047.47    83.530368    82.319785    82.319785 
23600000    563.16772   -157426.02   -155096.65    428.10727    566047.47    83.491864    82.338765    82.338765 
23700000    560.56086   -157401.98   -155083.39    630.69645    566047.47    83.450319    82.359258    82.359258 
23800000    560.23095   -157422.79   -155105.56    455.82651    566047.47    83.405898    82.381187    82.381187 
23900000    561.05473   -157422.17   -155101.54    493.13341    566047.47    83.358775    82.404469    82.404469 
24000000    559.62331   -157417.72      -155103    677.51527    566047.47    83.309136    82.429015    82.429015 
24100000    557.12814   -157419.26   -155114.87    540.47507    566047.47    83.257178    82.454732    82.454732 
24200000    563.98302   -157422.49   -155089.75    552.14335    566047.47    83.203104    82.481521    82.481521 
24300000    562.96253   -157416.49   -155087.97    529.39755    566047.47     83.14713    82.509279    82.509279 
24400000    560.42257   -157424.91    -155106.9    571.18468    566047.47    83.089475    82.537901    82.537901 
24500000    555.58643   -157412.08   -155114.07    505.67353    566047.47    83.030368    82.567274    82.567274 
24600000    560.08452   -157415.75   -155099.13    563.60594    566047.47    82.970041    82.597286    82.597286 
24700000    558.12328   -157423.93   -155115.42     658.0525    566047.47    82.908732    82.627819    82.627819 
24800000    559.94762   -157416.42   -155100.36    628.29498    566047.47    82.846684    82.658755    82.658755 
24900000    557.76633   -157409.12   -155102.09    603.08149    566047.47    82.784141    82.689973    82.689973 
25000000    564.95285   -157414.13   -155077.37    588.96862    566047.47    82.721351    82.721351    82.721351 
25100000    561.31077   -157421.57   -155099.88    547.87437    566047.47     82.65856    82.752764    82.752764 
25200000    559.22586   -157411.94   -155098.88    699.78677    566047.47    82.596018    82.784089    82.784089 
25300000     558.6064   -157426.74   -155116.23    490.65661    566047.47     82.53397    82.815201    82.815201 
25400000    564.47483   -157394.39   -155059.61    663.25089    566047.47    82.472661    82.845977    82.845977 
25500000    559.25814    -157441.9    -155128.7      359.179    566047.47    82.412334    82.876294    82.876294 
25600000    562.12137   -157427.05   -155102.01    386.37798    566047.47    82.353226     82.90603     82.90603 
25700000    561.52276   -157399.57      -155077    683.99595    566047.47    82.295572    82.935066    82.935066 
25800000    561.39883   -157406.59   -155084.54    551.15008    566047.47    82.239597    82.963285    82.963285 
25900000    566.79444   -157406.63   -155062.26    666.04944    566047.47    82.185524    82.990573    82.990573 
26000000    557.28406   -157406.39   -155101.35    632.52924    566047.47    82.133566    83.016819    83.016819 
26100000    560.64481   -157411.38   -155092.44    491.85061    566047.47    82.083927    83.041917    83.041917 
26200000    557.93096   -157418.94   -155111.23     550.2376    566047.47    82.036804    83.065763    83.065763 
26300000    558.75969   -157416.46   -155105.32     430.4176    566047.47    81.992382    83.088262    83.088262 
26400000    562.09332   -157398.37   -155073.44    692.67014    566047.47    81.950838     83.10932     83.10932 
26500000    556.67024   -157419.61   -155117.12    599.29372    566047.47    81.912334    83.128851    83.128851 
26600000    558.23655   -157399.77   -155090.79    660.15583    566047.47    81.877023    83.146774    83.146774 
26700000    559.28936    -157398.4   -155085.07    712.07696    566047.47    81.845044    83.163016    83.163016 
26800000    557.92001    -157422.2   -155114.54    407.45219    566047.47    81.816524     83.17751     83.17751 
26900000    559.59791   -157405.28   -155090.67    620.62554    566047.47    81.791574    83.190195    83.190195 
27000000    557.91396   -157405.14    -155097.5     691.7495    566047.47    81.770294    83.201019    83.201019 
27100000    557.90019   -157394.37   -155086.78    617.62464    566047.47    81.752768    83.209937    83.209937 
27200000    565.02064   -157414.56   -155077.52    445.88615    566047.47    81.739064    83.216912    83.216912 
27300000    561.46588    -157410.4   -155088.07    557.14585    566047.47    81.729236    83.221915    83.221915 
27400000    559.51262   -157409.23   -155094.98    515.18589    566047.47    81.723324    83.224925    83.224925 
27500000    564.01778   -157413.32   -155080.43    515.89858    566047.47    81.721351     83.22593     83.22593 
27600000    562.32939   -157419.21    -155093.3    566.39028    566047.47    81.723324    83.224925    83.224925 
27700000    558.96925   -157388.97   -155076.96    778.55684    566047.47    81.729236    83.221915    83.221915 
27800000    560.54188   -157393.46   -155074.95    679.20166    566047.47    81.739064    83.216912    83.216912 
27900000    558.34112      -157390   -155080.59    857.20342    566047.47    81.752768    83.209937    83.209937 
28000000    560.61882   -157409.58   -155090.75    571.53657    566047.47    81.770294    83.201019    83.201019 
28100000    558.85342   -157396.87   -155085.34    802.35404    566047.47    81.791574    83.190195    83.190195 
28200000    560.04149   -157406.54    -155090.1    618.70431    566047.47    81.816524     83.17751     83.17751 
28300000     558.0683   -157410.92   -155102.64    629.25496    566047.47    81.845044    83.163016    83.163016 
28400000     561.7657   -157423.42   -155099.85    556.33051    566047.47    81.877023    83.146774    83.146774 
28500000    560.20921   -157416.61   -155099.48     604.4748    566047.47    81.912334    83.128851    83.128851 
28600000    562.51152   -157415.91   -155089.25    630.97177    566047.47    81.950838     83.10932     83.10932 
28700000    561.42907   -157399.08    -155076.9    675.71047    566047.47    81.992382    83.088262    83.088262 
28800000    560.58082    -157417.3   -155098.62    565.48702    566047.47    82.036804    83.065763    83.065763 
28900000    559.47686   -157417.88   -155103.77    431.08387    566047.47    82.083927    83.041917    83.041917 
29000000    562.35359   -157425.09   -155099.08     534.5636    566047.47    82.133566    83.016819    83.016819 
29100000    559.42253   -157407.44   -155093.56    577.20395    566047.47    82.185524    82.990573    82.990573 
29200000    562.04598   -157432.18   -155107.45    431.55169    566047.47    82.239597    82.963285    82.963285 
29300000     555.0744   -157404.98   -155109.08    522.15223    566047.47    82.295572    82.935066    82.935066 
29400000    555.91462   -157411.04   -155111.66    495.50689    566047.47    82.353226     82.90603     82.90603 
29500000     562.0151   -157408.38   -155083.78    613.86256    566047.47    82.412334    82.876294    82.876294 
29600000    563.61119   -157437.21      -155106    491.96799    566047.47    82.472661    82.845977    82.845977 
29700000    562.93692    -157400.9   -155072.49    857.66538    566047.47     82.53397    82.815201    82.815201 
29800000    556.36763    -157446.3   -155145.06    259.74546    566047.47    82.596018    82.784089    82.784089 
29900000    553.72881   -157411.11   -155120.78    642.00981    566047.47     82.65856    82.752764    82.752764 
30000000    557.07926   -157407.34   -155103.15     570.4465    566047.47    82.721351    82.721351    82.721351 
30100000    558.21443   -157417.12   -155108.23    484.65113    566047.47    82.784141    82.689973    82.689973 
30200000    561.56537    -157416.3   -155093.55    476.86103    566047.47    82.846684    82.658755    82.658755 
30300000     557.3523   -157441.25   -155135.93     439.0704    566047.47    82.908732    82.627819    82.627819 
30400000    561.12948   -157414.06   -155093.12    639.76971    566047.47    82.970041    82.597286    82.597286 
30500000    558.55078   -157400.86   -155090.59    731.77576    566047.47    83.030368    82.567274    82.567274 
30600000    558.40341   -157412.12   -155102.45    544.20812    566047.47    83.089475    82.537901    82.537901 
30700000    560.33987   -157420.15   -155102.47    502.01543    566047.47     83.14713    82.509279    82.509279 
30800000    561.24608   -157422.27   -155100.85    559.76746    566047.47    83.203104    82.481521    82.481521 
30900000     563.5381   -157413.19   -155082.29    677.51068    566047.47    83.257178    82.454732    82.454732 
31000000    559.86941   -157401.79   -155086.06    678.04417    566047.47    83.309136    82.429015    82.429015 
31100000    562.15864   -157397.81   -155072.61    693.67256    566047.47    83.358775    82.404469    82.404469 
31200000    557.63357   -157413.99   -155107.51    637.45237    566047.47    83.405898    82.381187    82.381187 
31300000    563.79544   -157403.31   -155071.34    601.38732    566047.47    83.450319    82.359258    82.359258 
31400000    559.47846   -157399.08   -155084.97    777.28612    566047.47    83.491864    82.338765    82.338765 
31500000    558.79505   -157398.69    -155087.4    617.68915    566047.47    83.530368    82.319785    82.319785 
31600000     564.6652   -157403.57   -155068.01    622.95033    566047.47    83.565679    82.302391    82.302391 
31700000    559.83028   -157382.56      -155067    839.18777    566047.47    83.597657    82.286648    82.286648 
31800000    556.63021   -157380.56   -155078.23    785.07276    566047.47    83.626178    82.272615    82.272615 
31900000    557.57791   -157402.91   -155096.66    673.40995    566047.47    83.651127    82.260345    82.260345 
32000000    565.14717   -157406.34   -155068.78    761.69323    566047.47    83.672407    82.249884    82.249884 
32100000    557.40616   -157412.43   -155106.88    578.24199    566047.47    83.689934    82.241271    82.241271 
32200000    558.44276   -157406.18   -155096.35    627.83456    566047.47    83.703638    82.234538    82.234538 
32300000    561.43885   -157381.95   -155059.73    904.63111    566047.47    83.713466    82.229711    82.229711 
32400000    561.37952   -157410.07    -155088.1    676.92681    566047.47    83.719378    82.226808    82.226808 
32500000    558.65808    -157401.7   -155090.99    674.06632    566047.47    83.721351    82.225839    82.225839 
32600000    561.09218    -157386.8   -155066.01    847.20789    566047.47    83.719378    82.226808    82.226808 
32700000    560.24792   -157398.48   -155081.19    709.01987    566047.47    83.713466    82.229711    82.229711 
32800000     561.0735   -157405.66   -155084.95    622.61918    566047.47    83.703638    82.234538    82.234538 
32900000    564.47985   -157392.38   -155057.58    769.04724    566047.47    83.689934    82.241271    82.241271 
33000000    558.57828   -157400.16   -155089.77    564.76831    566047.47    83.672407    82.249884    82.249884 
33100000    557.99602   -157405.95   -155097.97    766.40072    566047.47    83.651127    82.260345    82.260345 
33200000    559.36213   -157393.32   -155079.69    861.31835    566047.47    83.626178    82.272615    82.272615 
33300000    564.35279   -157413.54   -155079.26    660.27735    566047.47    83.597657    82.286648    82.286648 
33400000    560.81257   -157417.82   -155098.19    373.81214    566047.47    83.565679    82.302391    82.302391 
33500000    558.80102   -157419.03   -155107.72     585.0634    566047.47    83.530368    82.319785    82.319785 
33600000    557.34596   -157414.27   -155108.98    586.60031    566047.47    83.491864    82.338765    82.338765 
33700000    554.83601   -157416.01    -155121.1    535.02798    566047.47    83.450319    82.359258    82.359258 
33800000    556.87129   -157413.34   -155110.01    514.44826    566047.47    83.405898    82.381187    82.381187 
33900000    557.93135   -157428.85   -155121.14    569.97087    566047.47    83.358775    82.404469    82.404469 
34000000    556.77044   -157393.42   -155090.51    714.26264    566047.47    83.309136    82.429015    82.429015 
34100000    560.55165   -157408.48   -155089.93    573.84328    566047.47    83.257178    82.454732    82.454732 
34200000    560.51333   -157430.64   -155112.25    438.27169    566047.47    83.203104    82.481521    82.481521 
34300000     556.2507   -157419.94   -155119.18     521.5308    566047.47     83.14713    82.509279    82.509279 
34400000    562.67536    -157429.1   -155101.76    521.61936    566047.47    83.089475    82.537901    82.537901 
34500000    561.08815    -157437.5   -155116.73    515.08619    566047.47    83.030368    82.567274    82.567274 
34600000    562.70574   -157413.55   -155086.09    666.93532    566047.47    82.970041    82.597286    82.597286 
34700000     559.1446   -157413.69   -155100.95     625.1495    566047.47    82.908732    82.627819    82.627819 
34800000    562.61148   -157418.05   -155090.98    577.91685    566047.47    82.846684    82.658755    82.658755 
34900000    560.22445   -157429.39   -155112.19    470.65956    566047.47    82.784141    82.689973    82.689973 
35000000    559.75335    -157397.7   -155082.45    694.64033    566047.47    82.721351    82.721351    82.721351 
35100000    559.65422   -157434.32   -155119.48    403.08398    566047.47     82.65856    82.752764    82.752764 
35200000    562.77271   -157429.49   -155101.75    632.73438    566047.47    82.596018    82.784089    82.784089 
35300000    554.85751   -157438.11   -155143.12    404.56317    566047.47     82.53397    82.815201    82.815201 
35400000    558.29326   -157431.07   -155121.86    354.62966    566047.47    82.472661    82.845977    82.845977 
35500000    562.42971   -157408.93   -155082.61    685.09464    566047.47    82.412334    82.876294    82.876294 
35600000     559.8268   -157432.95    -155117.4    418.33168    566047.47    82.353226     82.90603     82.90603 
35700000    561.12198   -157411.66   -155090.75    556.15506    566047.47    82.295572    82.935066    82.935066 
35800000    556.58379   -157426.26   -155124.12     386.8413    566047.47    82.239597    82.963285    82.963285 
35900000    561.05392   -157419.63      -155099     572.3896    566047.47    82.185524    82.990573    82.990573 
36000000    565.19757   -157403.73   -155065.97    556.23649    566047.47    82.133566    83.016819    83.016819 
36100000    558.13592   -157401.51   -155092.95    545.75337    566047.47    82.083927    83.041917    83.041917 
36200000     559.0124   -157413.67   -155101.49    629.04385    566047.47    82.036804    83.065763    83.065763 
36300000    562.43343    -157402.9   -155076.57    694.23458    566047.47    81.992382    83.088262    83.088262 
36400000    560.13319   -157427.08   -155110.26    329.44882    566047.47    81.950838     83.10932     83.10932 
36500000    559.17843   -157411.98   -155099.11    758.12995    566047.47    81.912334    83.128851    83.128851 
36600000    560.14073   -157420.63   -155103.78    527.48925    566047.47    81.877023    83.146774    83.146774 
36700000    557.08737      -157414   -155109.77    466.50211    566047.47    81.845044    83.163016    83.163016 
36800000    562.10347   -157398.86   -155073.89    701.76236    566047.47    81.816524     83.17751     83.17751 
36900000    559.61801    -157406.5   -155091.81    653.09173    566047.47    81.791574    83.190195    83.190195 
37000000    562.18639   -157416.99   -155091.67    534.88958    566047.47    81.770294    83.201019    83.201019 
37100000    559.46796   -157403.87   -155089.81     671.0283    566047.47    81.752768    83.209937    83.209937 
37200000    557.48346   -157405.41   -155099.55    574.00572    566047.47    81.739064    83.216912    83.216912 
37300000    563.25731   -157405.72   -155075.98    673.12905    566047.47    81.729236    83.221915    83.221915 
37400000    555.00334    -157418.6      -155123     480.4988    566047.47    81.723324    83.224925    83.224925 
37500000    561.97711   -157399.51   -155075.07    719.04792    566047.47    81.721351     83.22593     83.22593 
37600000    556.92264   -157401.05   -155097.51    720.12421    566047.47    81.723324    83.224925    83.224925 
37700000    561.85082   -157399.37   -155075.45     690.1051    566047.47    81.729236    83.221915    83.221915 
37800000    556.26239   -157402.94   -155102.13    610.64542    566047.47    81.739064    83.216912    83.216912 
37900000    559.53701   -157418.76    -155104.4    476.68836    566047.47    81.752768    83.209937    83.209937 
38000000    561.60236   -157400.74   -155077.85    604.24737    566047.47    81.770294    83.201019    83.201019 
38100000    559.58753   -157406.45   -155091.88    717.67302    566047.47    81.791574    83.190195    83.190195 
38200000    557.49518    -157411.3   -155105.39    616.57177    566047.47    81.816524     83.17751     83.17751 
38300000    558.17825   -157406.94   -155098.21    636.67735    566047.47    81.845044    83.163016    83.163016 
38400000     556.3266   -157395.85   -155094.77    707.50726    566047.47    81.877023    83.146774    83.146774 
38500000    561.26502   -157404.64   -155083.14    626.63884    566047.47    81.912334    83.128851    83.128851 
38600000    561.93157    -157403.1   -155078.84    576.16889    566047.47    81.950838     83.10932     83.10932 
38700000    558.08231   -157428.72   -155120.38      514.442    566047.47    81.992382    83.088262    83.088262 
38800000     560.1529   -157416.44   -155099.54    509.14427    566047.47    82.036804    83.065763    83.065763 
38900000    564.43702   -157428.13   -155093.51    633.49144    566047.47    82.083927    83.041917    83.041917 
39000000    564.43637   -157403.62      -155069    633.19775    566047.47    82.133566    83.016819    83.016819 
39100000      563.509   -157425.69   -155094.91    468.13604    566047.47    82.185524    82.990573    82.990573 
39200000    557.25669   -157409.17   -155104.25    561.12811    566047.47    82.239597    82.963285    82.963285 
39300000     563.2621   -157424.41   -155094.65    503.64145    566047.47    82.295572    82.935066    82.935066 
39400000    557.32036   -157423.25   -155118.06    556.00858    566047.47    82.353226     82.90603     82.90603 
39500000    558.23674   -157422.91   -155113.93     623.5948    566047.47    82.412334    82.876294    82.876294 
39600000    564.47401    -157433.5   -155098.72    481.30576    566047.47    82.472661    82.845977    82.845977 
39700000    559.25756   -157405.03   -155091.83    665.41437    566047.47     82.53397    82.815201    82.815201 
39800000    563.18166   -157425.27   -155095.84    472.31961    566047.47    82.596018    82.784089    82.784089 
39900000     558.7471   -157411.25   -155100.16    584.39175    566047.47     82.65856    82.752764    82.752764 
40000000    555.29143   -157421.78   -155124.99    371.78342    566047.47    82.721351    82.721351    82.721351 
40100000    560.39605   -157438.49   -155120.58    496.86898    566047.47    82.784141    82.689973    82.689973 
40200000     558.9422   -157429.15   -155117.26    480.23031    566047.47    82.846684    82.658755    82.658755 
40300000    560.06812   -157422.64   -155106.09    681.90921    566047.47    82.908732    82.627819    82.627819 
40400000    558.34897   -157435.33   -155125.89    400.41498    566047.47    82.970041    82.597286    82.597286 
40500000      558.186   -157418.77   -155110.01    566.75961    566047.47    83.030368    82.567274    82.567274 
40600000    560.01584   -157425.43   -155109.09    628.61884    566047.47    83.089475    82.537901    82.537901 
40700000     561.6298   -157421.44   -155098.43    435.93012    566047.47     83.14713    82.509279    82.509279 
40800000    562.92779   -157392.42   -155064.04    832.58513    566047.47    83.203104    82.481521    82.481521 
40900000    560.20177   -157400.89   -155083.78     661.7295    566047.47    83.257178    82.454732    82.454732 
41000000    557.54131   -157432.76   -155126.66    350.82799    566047.47    83.309136    82.429015    82.429015 
41100000    555.07479   -157397.78   -155101.88    656.78388    566047.47    83.358775    82.404469    82.404469 
41200000    558.33041   -157423.47    -155114.1    666.54048    566047.47    83.405898    82.381187    82.381187 
41300000    558.93829   -157403.47   -155091.59    523.44211    566047.47    83.450319    82.359258    82.359258 
41400000    558.50862   -157417.66   -155107.56    539.01137    566047.47    83.491864    82.338765    82.338765 
41500000    561.57893   -157429.37   -155106.57    599.52255    566047.47    83.530368    82.319785    82.319785 
41600000    561.58939   -157389.78   -155066.94    747.29571    566047.47    83.565679    82.302391    82.302391 
41700000    558.01072   -157410.63   -155102.58    699.76054    566047.47    83.597657    82.286648    82.286648 
41800000    558.59314   -157405.72   -155095.27    753.64796    566047.47    83.626178    82.272615    82.272615 
41900000    556.30176   -157414.93   -155113.95     548.5862    566047.47    83.651127    82.260345    82.260345 
42000000     558.7083   -157395.37   -155084.45    798.41091    566047.47    83.672407    82.249884    82.249884 
42100000    558.70089   -157437.06   -155126.16    360.39844    566047.47    83.689934    82.241271    82.241271 
42200000    555.42429   -157425.05   -155127.71    506.70767    566047.47    83.703638    82.234538    82.234538 
42300000    566.22065   -157419.15   -155077.15    534.51488    566047.47    83.713466    82.229711    82.229711 
42400000    564.17287   -157390.21   -155056.68    727.83509    566047.47    83.719378    82.226808    82.226808 
42500000    561.25661   -157422.63   -155101.16    533.91529    566047.47    83.721351    82.225839    82.225839 
42600000    561.70954   -157394.01   -155070.67    798.41737    566047.47    83.719378    82.226808    82.226808 
42700000    557.68534   -157413.92   -155107.22    620.11704    566047.47    83.713466    82.229711    82.229711 
42800000    562.45079   -157415.84   -155089.44       581.15    566047.47    83.703638    82.234538    82.234538 
42900000      556.782   -157403.55   -155100.59    629.47376    566047.47    83.689934    82.241271    82.241271 
43000000    561.15946   -157410.73   -155089.66    567.20028    566047.47    83.672407    82.249884    82.249884 
43100000    556.72158   -157402.48   -155099.77    650.64276    566047.47    83.651127    82.260345    82.260345 
43200000    562.03042   -157417.73   -155093.06    551.61652    566047.47    83.626178    82.272615    82.272615 
43300000    555.31968   -157408.09   -155111.18    578.57805    566047.47    83.597657    82.286648    82.286648 
43400000    561.56392   -157389.96   -155067.22    845.82604    566047.47    83.565679    82.302391    82.302391 
43500000     557.7543   -157405.83   -155098.85    589.32792    566047.47    83.530368    82.319785    82.319785 
43600000    563.57364   -157417.27   -155086.22    641.99508    566047.47    83.491864    82.338765    82.338765 
43700000    561.34854   -157418.22   -155096.37    529.86121    566047.47    83.450319    82.359258    82.359258 
43800000    558.51835   -157406.99   -155096.85    671.26061    566047.47    83.405898    82.381187    82.381187 
43900000    565.21655   -157399.78   -155061.94     679.9359    566047.47    83.358775    82.404469    82.404469 
44000000     564.7935    -157416.2    -155080.1    482.80986    566047.47    83.309136    82.429015    82.429015 
44100000    561.04325    -157406.5   -155085.91    632.82391    566047.47    83.257178    82.454732    82.454732 
44200000    557.96345   -157399.17   -155091.33    660.64556    566047.47    83.203104    82.481521    82.481521 
44300000     562.0046   -157435.68   -155111.12    511.77677    566047.47     83.14713    82.509279    82.509279 
44400000    558.23703   -157426.75   -155117.77    599.53787    566047.47    83.089475    82.537901    82.537901 
44500000    559.07456   -157412.94    -155100.5    618.36263    566047.47    83.030368    82.567274    82.567274 
44600000    559.01257   -157406.69   -155094.51    567.00154    566047.47    82.970041    82.597286    82.597286 
44700000    563.33397    -157415.7   -155085.64    637.04226    566047.47    82.908732    82.627819    82.627819 
44800000    558.96832   -157400.58   -155088.58    754.44459    566047.47    82.846684    82.658755    82.658755 
44900000    555.72786   -157422.03   -155123.43    536.41392    566047.47    82.784141    82.689973    82.689973 
45000000    561.50767   -157420.37   -155097.87    640.06926    566047.47    82.721351    82.721351    82.721351 
45100000    561.89752   -157413.89   -155089.77    571.99463    566047.47     82.65856    82.752764    82.752764 
45200000     556.2568   -157412.23   -155111.45    616.31145    566047.47    82.596018    82.784089    82.784089 
45300000    561.64463   -157415.22   -155092.15    554.72277    566047.47     82.53397    82.815201    82.815201 
45400000    560.04517    -157423.1   -155106.64    347.39051    566047.47    82.472661    82.845977    82.845977 
45500000    557.27808   -157401.06   -155096.04    656.35238    566047.47    82.412334    82.876294    82.876294 
45600000    555.79101    -157398.2   -155099.34    554.17016    566047.47    82.353226     82.90603     82.90603 
45700000    560.42613   -157423.76   -155105.73     603.5934    566047.47    82.295572    82.935066    82.935066 
45800000    559.11362   -157416.92   -155104.31    588.66244    566047.47    82.239597    82.963285    82.963285 
45900000    562.26858   -157403.98   -155078.33    724.16852    566047.47    82.185524    82.990573    82.990573 
46000000    558.65658   -157421.06   -155110.35    571.90888    566047.47    82.133566    83.016819    83.016819 
46100000     562.0789   -157417.58   -155092.71    492.19392    566047.47    82.083927    83.041917    83.041917 
46200000    562.30202   -157393.57   -155067.78     657.5642    566047.47    82.036804    83.065763    83.065763 
46300000    559.29753   -157409.37      -155096    679.01392    566047.47    81.992382    83.088262    83.088262 
46400000    562.67729   -157418.53   -155091.18    538.49432    566047.47    81.950838     83.10932     83.10932 
46500000    564.51392   -157406.54    -155071.6    716.67866    566047.47    81.912334    83.128851    83.128851 
46600000    561.73682   -157409.84   -155086.39    514.75605    566047.47    81.877023    83.146774    83.146774 
46700000    559.46189   -157410.16   -155096.12    649.28702    566047.47    81.845044    83.163016    83.163016 
46800000    558.90199   -157427.17   -155115.44    584.29114    566047.47    81.816524     83.17751     83.17751 
46900000    560.27396    -157404.2    -155086.8    528.39289    566047.47    81.791574    83.190195    83.190195 
47000000    556.92406   -157399.85   -155096.31    586.55889    566047.47    81.770294    83.201019    83.201019 
47100000    567.94481   -157424.03    -155074.9    609.54054    566047.47    81.752768    83.209937    83.209937 
47200000    561.62967   -157395.18   -155072.17    732.95396    566047.47    81.739064    83.216912    83.216912 
47300000    561.76751   -157416.11   -155092.53    580.14267    566047.47    81.729236    83.221915    83.221915 
47400000    561.70731   -157407.32   -155083.98    547.82869    566047.47    81.723324    83.224925    83.224925 
47500000     557.8796   -157401.22   -155093.72    705.88362    566047.47    81.721351     83.22593     83.22593 
47600000    559.13338   -157405.23   -155092.55    604.16945    566047.47    81.723324    83.224925    83.224925 
47700000    563.45474   -157401.01   -155070.45    578.70856    566047.47    81.729236    83.221915    83.221915 
47800000    560.52701   -157404.91   -155086.46    610.68602    566047.47    81.739064    83.216912    83.216912 
47900000    561.48279   -157393.45   -155071.05    720.07321    566047.47    81.752768    83.209937    83.209937 
48000000    560.15079    -157393.5   -155076.61    694.19769    566047.47    81.770294    83.201019    83.201019 
48100000     562.1921   -157412.78   -155087.45    607.92568    566047.47    81.791574    83.190195    83.190195 
48200000    557.74204   -157406.07   -155099.14     504.3714    566047.47    81.816524     83.17751     83.17751 
48300000     563.4982   -157419.18   -155088.44    529.71018    566047.47    81.845044    83.163016    83.163016 
48400000    558.23717   -157420.08    -155111.1    514.04509    566047.47    81.877023    83.146774    83.146774 
48500000    564.71179   -157398.43   -155062.67    653.18132    566047.47    81.912334    83.128851    83.128851 
48600000    557.02993    -157404.4   -155100.41    548.39963    566047.47    81.950838     83.10932     83.10932 
48700000    557.58473   -157407.41   -155101.13    575.87832    566047.47    81.992382    83.088262    83.088262 
48800000    560.26119   -157425.96   -155108.61    521.99675    566047.47    82.036804    83.065763    83.065763 
48900000    562.53284   -157412.04    -155085.3    658.94086    566047.47    82.083927    83.041917    83.041917 
49000000    558.79272   -157415.39   -155104.11    549.27834    566047.47    82.133566    83.016819    83.016819 
49100000    562.05186   -157382.24   -155057.48    868.25467    566047.47    82.185524    82.990573    82.990573 
49200000    560.33235   -157408.98   -155091.33    717.10155    566047.47    82.239597    82.963285    82.963285 
49300000     559.1682   -157440.87   -155128.04    373.03696    566047.47    82.295572    82.935066    82.935066 
49400000    557.17155   -157424.21   -155119.64    532.52679    566047.47    82.353226     82.90603     82.90603 
49500000    560.09379   -157412.74   -155096.08    632.80538    566047.47    82.412334    82.876294    82.876294 
49600000    563.04235   -157414.61   -155085.76    559.28773    566047.47    82.472661    82.845977    82.845977 
49700000    563.62081      -157405   -155073.75    590.29912    566047.47     82.53397    82.815201    82.815201 
49800000    564.13901   -157432.39      -155099    501.25577    566047.47    82.596018    82.784089    82.784089 
49900000    559.65908   -157410.14   -155095.28    563.76556    566047.47     82.65856    82.752764    82.752764 
50000000    557.86789   -157427.96   -155120.51    529.31214    566047.47    82.721351    82.721351    82.721351 
50100000    560.46374    -157407.1   -155088.91    606.79082    566047.47    82.784141    82.689973    82.689973 
50200000    561.31504   -157417.58   -155095.87    595.63522    566047.47    82.846684    82.658755    82.658755 
50300000    562.04569   -157418.93    -155094.2    460.67298    566047.47    82.908732    82.627819    82.627819 
50400000    562.58486   -157418.85   -155091.89     584.8668    566047.47    82.970041    82.597286    82.597286 
50500000     562.9397   -157412.29   -155083.86     727.1045    566047.47    83.030368    82.567274    82.567274 
50600000    559.27036   -157409.26   -155096.01    602.30645    566047.47    83.089475    82.537901    82.537901 
50700000    562.33024   -157428.43   -155102.52    616.16605    566047.47     83.14713    82.509279    82.509279 
50800000    557.00729   -157430.69    -155126.8    514.29537    566047.47    83.203104    82.481521    82.481521 
50900000    559.50354    -157408.5   -155094.28    589.34774    566047.47    83.257178    82.454732    82.454732 
51000000    563.88058   -157428.83   -155096.51    465.29209    566047.47    83.309136    82.429015    82.429015 
51100000    564.44778   -157412.53   -155077.86    589.64903    566047.47    83.358775    82.404469    82.404469 
51200000    559.28146    -157426.7    -155113.4    517.16688    566047.47    83.405898    82.381187    82.381187 
51300000    558.96438   -157412.63   -155100.65    558.36055    566047.47    83.450319    82.359258    82.359258 
51400000    565.11096   -157411.24   -155073.83    524.73826    566047.47    83.491864    82.338765    82.338765 
51500000       556.79   -157425.53   -155122.54    295.96271    566047.47    83.530368    82.319785    82.319785 
51600000    559.17884   -157428.05   -155115.17    497.97744    566047.47    83.565679    82.302391    82.302391 
51700000    565.21864   -157416.41   -155078.55    478.63539    566047.47    83.597657    82.286648    82.286648 
51800000    560.13952   -157400.86   -155084.02    662.42784    566047.47    83.626178    82.272615    82.272615 
51900000    558.87028   -157398.99   -155087.39    708.66587    566047.47    83.651127    82.260345    82.260345 
52000000    559.93747   -157424.84   -155108.83    548.85231    566047.47    83.672407    82.249884    82.249884 
52100000    559.62674    -157405.7   -155090.98    614.31065    566047.47    83.689934    82.241271    82.241271 
52200000    562.73801    -157407.8   -155080.21    709.07779    566047.47    83.703638    82.234538    82.234538 
52300000    559.93494    -157415.4    -155099.4    580.24859    566047.47    83.713466    82.229711    82.229711 
52400000    559.93885   -157400.22   -155084.21    666.09223    566047.47    83.719378    82.226808    82.226808 
52500000    554.80035   -157396.65   -155101.89    523.98466    566047.47    83.721351    82.225839    82.225839 
52600000    554.17952   -157415.54   -155123.35    558.69772    566047.47    83.719378    82.226808    82.226808 
52700000    560.21159   -157407.35   -155090.21    613.48223    566047.47    83.713466    82.229711    82.229711 
52800000    558.35158   -157398.32   -155088.87    590.08664    566047.47    83.703638    82.234538    82.234538 
52900000    560.04703   -157410.06    -155093.6    516.69963    566047.47    83.689934    82.241271    82.241271 
53000000        558.5   -157426.11   -155116.04    550.90833    566047.47    83.672407    82.249884    82.249884 
53100000    562.41032   -157405.58   -155079.34    603.03685    566047.47    83.651127    82.260345    82.260345 
53200000    559.40904   -157418.73   -155104.91    352.67918    566047.47    83.626178    82.272615    82.272615 
53300000    561.19048   -157411.79    -155090.6    485.24375    566047.47    83.597657    82.286648    82.286648 
53400000    561.89177   -157420.68   -155096.58    703.18675    566047.47    83.565679    82.302391    82.302391 
53500000    558.03589   -157413.67   -155105.53    663.25794    566047.47    83.530368    82.319785    82.319785 
53600000    562.21039   -157428.77   -155103.36    490.49649    566047.47    83.491864    82.338765    82.338765 
53700000    560.35011   -157402.56   -155084.84    610.86562    566047.47    83.450319    82.359258    82.359258 
53800000    563.33817   -157421.49   -155091.42    558.89463    566047.47    83.405898    82.381187    82.381187 
53900000    558.44769      -157447   -155137.16    405.11625    566047.47    83.358775    82.404469    82.404469 
54000000    564.16329   -157425.05   -155091.56    672.62581    566047.47    83.309136    82.429015    82.429015 
54100000    564.00173    -157433.3   -155100.48    443.58026    566047.47    83.257178    82.454732    82.454732 
54200000    556.28425   -157438.29   -155137.39    347.85321    566047.47    83.203104    82.481521    82.481521 
54300000     562.6397   -157431.04   -155103.85    350.45474    566047.47     83.14713    82.509279    82.509279 
54400000     564.1137   -157424.46   -155091.17    615.21804    566047.47    83.089475    82.537901    82.537901 
54500000    561.15775   -157418.32   -155097.26    599.57322    566047.47    83.030368    82.567274    82.567274 
54600000    555.91347   -157428.02   -155128.66    415.34056    566047.47    82.970041    82.597286    82.597286 
54700000     560.7738   -157412.13   -155092.66    677.59236    566047.47    82.908732    82.627819    82.627819 
54800000    560.97222   -157437.26   -155116.97    524.26873    566047.47    82.846684    82.658755    82.658755 
54900000    559.47867   -157426.85   -155112.74    432.42862    566047.47    82.784141    82.689973    82.689973 
55000000    557.55641   -157431.76    -155125.6    418.86239    566047.47    82.721351    82.721351    82.721351 
55100000    561.09476    -157429.1    -155108.3    544.96152    566047.47     82.65856    82.752764    82.752764 
55200000    556.72889   -157436.56   -155133.82    581.56462    566047.47    82.596018    82.784089    82.784089 
55300000     558.6016   -157422.83   -155112.34    651.79186    566047.47     82.53397    82.815201    82.815201 
55400000    557.71443   -157420.31   -155113.49    580.70686    566047.47    82.472661    82.845977    82.845977 
55500000    559.94956    -157408.5   -155092.44    542.74609    566047.47    82.412334    82.876294    82.876294 
55600000    560.77111   -157417.25   -155097.79    618.67917    566047.47    82.353226     82.90603     82.90603 
55700000    560.67178   -157418.23   -155099.19    600.77191    566047.47    82.295572    82.935066    82.935066 
55800000    563.14505   -157421.76   -155092.48    524.55815    566047.47    82.239597    82.963285    82.963285 
55900000    560.48579   -157431.41   -155113.13    577.01987    566047.47    82.185524    82.990573    82.990573 
56000000    560.35733    -157408.8   -155091.05    678.35773    566047.47    82.133566    83.016819    83.016819 
56100000    564.22495   -157416.86   -155083.12    672.37795    566047.47    82.083927    83.041917    83.041917 
56200000     560.0581   -157429.59   -155113.08     467.9577    566047.47    82.036804    83.065763    83.065763 
56300000    561.53091   -157406.61   -155084.01    663.79586    566047.47    81.992382    83.088262    83.088262 
56400000    558.88509   -157412.91   -155101.25    605.06087    566047.47    81.950838     83.10932     83.10932 
56500000    556.66102    -157409.4   -155106.94    631.31964    566047.47    81.912334    83.128851    83.128851 
56600000    558.52346   -157408.89   -155098.73    500.80149    566047.47    81.877023    83.146774    83.146774 
56700000    563.11073   -157426.41   -155097.28    559.82076    566047.47    81.845044    83.163016    83.163016 
56800000    559.63087   -157412.79   -155098.05    655.59371    566047.47    81.816524     83.17751     83.17751 
56900000    557.20646   -157414.56   -155109.85    709.20018    566047.47    81.791574    83.190195    83.190195 
57000000    559.38416   -157398.82    -155085.1    636.53533    566047.47    81.770294    83.201019    83.201019 
57100000    566.73991   -157421.19   -155077.04    713.28092    566047.47    81.752768    83.209937    83.209937 
57200000    562.42496   -157408.07   -155081.77    614.08459    566047.47    81.739064    83.216912    83.216912 
57300000     561.4807   -157393.85   -155071.45    748.22236    566047.47    81.729236    83.221915    83.221915 
57400000    563.58846   -157420.33   -155089.22    539.13468    566047.47    81.723324    83.224925    83.224925 
57500000    561.76103    -157402.6   -155079.05    609.45533    566047.47    81.721351     83.22593     83.22593 
57600000     558.6625   -157386.62   -155075.88    663.24273    566047.47    81.723324    83.224925    83.224925 
57700000    560.75377   -157407.85   -155088.46    683.15524    566047.47    81.729236    83.221915    83.221915 
57800000    563.16719   -157411.47    -155082.1    728.05269    566047.47    81.739064    83.216912    83.216912 
57900000    561.10707    -157406.7   -155085.85    543.58382    566047.47    81.752768    83.209937    83.209937 
58000000    562.39727   -157397.62   -155071.44     812.4189    566047.47    81.770294    83.201019    83.201019 
58100000    558.43123   -157409.99   -155100.21    452.96799    566047.47    81.791574    83.190195    83.190195 
58200000    562.31319   -157426.91   -155101.07    486.92752    566047.47    81.816524     83.17751     83.17751 
58300000    555.85977   -157404.55    -155105.4    538.90906    566047.47    81.845044    83.163016    83.163016 
58400000    562.33488   -157416.12   -155090.19    525.40126    566047.47    81.877023    83.146774    83.146774 
58500000    557.08745   -157405.71   -155101.48    594.41507    566047.47    81.912334    83.128851    83.128851 
58600000    561.64564   -157413.44   -155090.36     582.9194    566047.47    81.950838     83.10932     83.10932 
58700000    560.98337   -157430.23    -155109.9    560.58019    566047.47    81.992382    83.088262    83.088262 
58800000    559.43189   -157402.66   -155088.74     687.9958    566047.47    82.036804    83.065763    83.065763 
58900000    562.22172   -157424.02   -155098.56     424.0783    566047.47    82.083927    83.041917    83.041917 
59000000    559.97761    -157418.8   -155102.63    719.44607    566047.47    82.133566    83.016819    83.016819 
59100000      560.475   -157406.61   -155088.38    785.70528    566047.47    82.185524    82.990573    82.990573 
59200000    561.54984   -157412.27   -155089.59    600.12733    566047.47    82.239597    82.963285    82.963285 
59300000    562.66852   -157435.62   -155108.32    406.36491    566047.47    82.295572    82.935066    82.935066 
59400000    565.74324   -157416.13   -155076.11    636.11657    566047.47    82.353226     82.90603     82.90603 
59500000    558.83931   -157427.66   -155116.19    497.32728    566047.47    82.412334    82.876294    82.876294 
59600000    558.00078    -157428.1    -155120.1    547.59397    566047.47    82.472661    82.845977    82.845977 
59700000    559.04149   -157422.65   -155110.34    562.87257    566047.47     82.53397    82.815201    82.815201 
59800000     562.4591   -157435.91   -155109.47    507.36761    566047.47    82.596018    82.784089    82.784089 
59900000    559.26628   -157424.75   -155111.51    784.85861    566047.47     82.65856    82.752764    82.752764 
60000000    559.85518   -157415.29   -155099.62    642.66635    566047.47    82.721351    82.721351    82.721351 
60100000    557.70025   -157423.94   -155117.18    463.53396    566047.47    82.784141    82.689973    82.689973 
60200000     558.6366   -157413.69   -155103.06    650.90569    566047.47    82.846684    82.658755    82.658755 
60300000    559.62265   -157426.35   -155111.64      486.731    566047.47    82.908732    82.627819    82.627819 
60400000     561.6518   -157433.64   -155110.54    618.68904    566047.47    82.970041    82.597286    82.597286 
60500000    559.47527   -157429.26   -155115.16    481.94951    566047.47    83.030368    82.567274    82.567274 
60600000    559.16432   -157436.53   -155123.72    386.26165    566047.47    83.089475    82.537901    82.537901 
60700000    559.04891   -157440.99   -155128.65    414.78446    566047.47     83.14713    82.509279    82.509279 
60800000    557.94723   -157405.14   -155097.36    534.52182    566047.47    83.203104    82.481521    82.481521 
60900000    559.22636   -157414.88   -155101.82    631.69065    566047.47    83.257178    82.454732    82.454732 
61000000    557.52475   -157421.05   -155115.02    580.72895    566047.47    83.309136    82.429015    82.429015 
61100000    560.85104   -157417.02   -155097.23     652.7182    566047.47    83.358775    82.404469    82.404469 
61200000    560.73071   -157429.25   -155109.95    518.71015    566047.47    83.405898    82.381187    82.381187 
61300000    557.71161   -157414.03   -155107.22    684.61199    566047.47    83.450319    82.359258    82.359258 
61400000    557.90545   -157430.09   -155122.48    425.13631    566047.47    83.491864    82.338765    82.338765 
61500000    560.34691    -157416.6    -155098.9    670.84817    566047.47    83.530368    82.319785    82.319785 
61600000     556.4692   -157391.37   -155089.71    771.14993    566047.47    83.565679    82.302391    82.302391 
61700000    562.55727   -157410.22   -155083.37    628.27429    566047.47    83.597657    82.286648    82.286648 
61800000    558.15768   -157424.78   -155116.13    510.54017    566047.47    83.626178    82.272615    82.272615 
61900000    555.94061   -157399.88    -155100.4    733.93359    566047.47    83.651127    82.260345    82.260345 
62000000    559.28171   -157410.25   -155096.96     644.4807    566047.47    83.672407    82.249884    82.249884 
62100000    562.28612      -157404   -155078.28    586.95762    566047.47    83.689934    82.241271    82.241271 
62200000     558.1484   -157419.77   -155111.16    710.03823    566047.47    83.703638    82.234538    82.234538 
62300000    560.72542   -157405.68   -155086.41    726.96878    566047.47    83.713466    82.229711    82.229711 
62400000    560.65986   -157399.86   -155080.86    757.46108    566047.47    83.719378    82.226808    82.226808 
62500000    556.79018   -157407.63   -155104.64    689.48038    566047.47    83.721351    82.225839    82.225839 
62600000    555.98775   -157424.64   -155124.97    417.55583    566047.47    83.719378    82.226808    82.226808 
62700000    562.50947    -157418.5   -155091.85    657.45234    566047.47    83.713466    82.229711    82.229711 
62800000    557.41713   -157410.83   -155105.24    498.93021    566047.47    83.703638    82.234538    82.234538 
62900000    557.02127   -157405.73   -155101.78    655.95021    566047.47    83.689934    82.241271    82.241271 
63000000     560.4666   -157400.95   -155082.75     625.6158    566047.47    83.672407    82.249884    82.249884 
63100000    560.07447   -157409.15   -155092.57    613.32161    566047.47    83.651127    82.260345    82.260345 
63200000    559.32531   -157424.99   -155111.52    574.77251    566047.47    83.626178    82.272615    82.272615 
63300000    554.94512   -157413.38   -155118.02    516.05128    566047.47    83.597657    82.286648    82.286648 
63400000    560.76927   -157376.41   -155056.96    925.54993    566047.47    83.565679    82.302391    82.302391 
63500000    562.07199   -157402.72   -155077.88    749.41348    566047.47    83.530368    82.319785    82.319785 
63600000    559.17894   -157421.75   -155108.87    402.19013    566047.47    83.491864    82.338765    82.338765 
63700000    560.83851   -157419.34    -155099.6    666.10928    566047.47    83.450319    82.359258    82.359258 
63800000    560.26684   -157429.88   -155112.51    538.80996    566047.47    83.405898    82.381187    82.381187 
63900000    556.25262   -157415.93   -155115.16    695.57771    566047.47    83.358775    82.404469    82.404469 
64000000    560.25677   -157409.15   -155091.82     643.9794    566047.47    83.309136    82.429015    82.429015 
64100000    559.72001   -157397.57   -155082.46    763.58126    566047.47    83.257178    82.454732    82.454732 
64200000    563.27917   -157428.26   -155098.42    589.53541    566047.47    83.203104    82.481521    82.481521 
64300000    564.73554   -157408.07   -155072.21    657.37497    566047.47     83.14713    82.509279    82.509279 
64400000    558.45181   -157427.21   -155117.34    487.77551    566047.47    83.089475    82.537901    82.537901 
64500000    559.82726   -157418.21   -155102.66    443.13467    566047.47    83.030368    82.567274    82.567274 
64600000    556.93842   -157432.53   -155128.92    516.57125    566047.47    82.970041    82.597286    82.597286 
64700000    557.52183   -157429.88   -155123.87    574.95958    566047.47    82.908732    82.627819    82.627819 
64800000     559.9831   -157424.46   -155108.27    577.03056    566047.47    82.846684    82.658755    82.658755 
64900000    566.95254   -157418.79   -155073.76    645.93935    566047.47    82.784141    82.689973    82.689973 
65000000    561.33761   -157431.21    -155109.4      455.014    566047.47    82.721351    82.721351    82.721351 
65100000    560.40243   -157409.43    -155091.5    645.91159    566047.47     82.65856    82.752764    82.752764 
65200000    562.11431   -157424.66   -155099.65    481.63434    566047.47    82.596018    82.784089    82.784089 
65300000     557.4945   -157411.89   -155105.98    553.99648    566047.47     82.53397    82.815201    82.815201 
65400000    559.22778   -157431.85   -155118.78    488.27687    566047.47    82.472661    82.845977    82.845977 
65500000    557.62183   -157417.22   -155110.79    537.12665    566047.47    82.412334    82.876294    82.876294 
65600000    559.56229    -157412.9   -155098.44    587.48042    566047.47    82.353226     82.90603     82.90603 
65700000    561.31506   -157427.34   -155105.63    579.19001    566047.47    82.295572    82.935066    82.935066 
65800000    560.21319   -157425.73   -155108.58    616.96656    566047.47    82.239597    82.963285    82.963285 
65900000    563.92204   -157430.18   -155097.69    544.08487    566047.47    82.185524    82.990573    82.990573 
66000000    561.47484   -157422.63   -155100.26    508.15089    566047.47    82.133566    83.016819    83.016819 
66100000    560.11086   -157435.06   -155118.34    388.19573    566047.47    82.083927    83.041917    83.041917 
66200000    559.07396   -157417.43   -155104.99    632.72031    566047.47    82.036804    83.065763    83.065763 
66300000    558.60321    -157411.1    -155100.6     683.6853    566047.47    81.992382    83.088262    83.088262 
66400000    557.51162   -157407.57    -155101.6    617.48806    566047.47    81.950838     83.10932     83.10932 
66500000     565.0879   -157436.63   -155099.32     445.1004    566047.47    81.912334    83.128851    83.128851 
66600000    562.22093   -157412.94   -155087.48    544.93711    566047.47    81.877023    83.146774    83.146774 
66700000    556.37756   -157423.48   -155122.19    519.26855    566047.47    81.845044    83.163016    83.163016 
66800000    561.04973    -157423.6   -155102.99    565.10331    566047.47    81.816524     83.17751     83.17751 
66900000    557.12671   -157404.45   -155100.06    633.95534    566047.47    81.791574    83.190195    83.190195 
67000000    563.88322   -157414.22   -155081.89    680.83591    566047.47    81.770294    83.201019    83.201019 
67100000    557.39148   -157409.06   -155103.58    686.32045    566047.47    81.752768    83.209937    83.209937 
67200000    559.54088   -157408.87    -155094.5    675.15009    566047.47    81.739064    83.216912    83.216912 
67300000     557.6385   -157424.19   -155117.69    577.57842    566047.47    81.729236    83.221915    83.221915 
67400000    561.11854   -157411.93   -155091.03    599.45466    566047.47    81.723324    83.224925    83.224925 
67500000     559.7315   -157393.96   -155078.81    749.38384    566047.47    81.721351     83.22593     83.22593 
67600000    559.35794   -157410.76   -155097.15    490.09009    566047.47    81.723324    83.224925    83.224925 
67700000    561.46492   -157406.19   -155083.86     619.2156    566047.47    81.729236    83.221915    83.221915 
67800000    565.21708   -157389.55    -155051.7     672.3685    566047.47    81.739064    83.216912    83.216912 
67900000    560.92457   -157386.79    -155066.7     709.0579    566047.47    81.752768    83.209937    83.209937 
68000000    558.67092   -157418.03   -155107.26    406.02789    566047.47    81.770294    83.201019    83.201019 
68100000    563.57131   -157409.88   -155078.84    558.99765    566047.47    81.791574    83.190195    83.190195 
68200000    560.71529    -157417.9   -155098.67    452.40595    566047.47    81.816524     83.17751     83.17751 
68300000     557.9465   -157412.19   -155104.42    596.48835    566047.47    81.845044    83.163016    83.163016 
[...]
83800000    563.46243   -157427.84   -155097.25    465.40205    566047.47    83.405898    82.381187    82.381187 
83900000    563.40083   -157416.69   -155086.35      652.681    566047.47    83.358775    82.404469    82.404469 
84000000    557.66049   -157431.33   -155124.74    453.17134    566047.47    83.309136    82.429015    82.429015 
84100000    561.35608   -157441.23   -155119.35    515.93493    566047.47    83.257178    82.454732    82.454732 
84200000    559.81914   -157423.55   -155108.03    457.78022    566047.47    83.203104    82.481521    82.481521 
84300000    560.73192   -157432.67   -155113.38    482.08908    566047.47     83.14713    82.509279    82.509279 
84400000    560.72584   -157426.97   -155107.69    463.70851    566047.47    83.089475    82.537901    82.537901 
84500000    562.27058   -157438.97   -155113.31    280.87477    566047.47    83.030368    82.567274    82.567274 
84600000    560.31702   -157440.45   -155122.87    456.59962    566047.47    82.970041    82.597286    82.597286 
84700000    561.14291   -157431.43   -155110.43    529.28338    566047.47    82.908732    82.627819    82.627819 
84800000    560.29327   -157433.81   -155116.33    625.83901    566047.47    82.846684    82.658755    82.658755 
84900000    561.93157   -157418.83   -155094.57    483.88773    566047.47    82.784141    82.689973    82.689973 
85000000    561.10195    -157443.9   -155123.07    529.65392    566047.47    82.721351    82.721351    82.721351 
85100000    558.75353   -157460.91   -155149.79    221.69038    566047.47     82.65856    82.752764    82.752764 
85200000     560.2831   -157441.43   -155123.99    385.27025    566047.47    82.596018    82.784089    82.784089 
85300000    560.85523    -157415.1   -155095.29    518.69601    566047.47     82.53397    82.815201    82.815201 
85400000    562.60007   -157418.02      -155091    682.27786    566047.47    82.472661    82.845977    82.845977 
85500000    562.75524   -157427.47    -155099.8    697.78122    566047.47    82.412334    82.876294    82.876294 
85600000    556.13268   -157429.11   -155128.84    351.43981    566047.47    82.353226     82.90603     82.90603 
85700000    557.53447   -157440.13   -155134.06    253.53514    566047.47    82.295572    82.935066    82.935066 
85800000    558.25827   -157418.77   -155109.71    474.43312    566047.47    82.239597    82.963285    82.963285 
85900000     562.4343   -157425.75   -155099.42    529.23639    566047.47    82.185524    82.990573    82.990573 
86000000    562.12049   -157434.03   -155108.99    493.04409    566047.47    82.133566    83.016819    83.016819 
86100000    560.17853   -157424.77   -155107.76    503.04278    566047.47    82.083927    83.041917    83.041917 
86200000     561.5246    -157444.9   -155122.32    371.64603    566047.47    82.036804    83.065763    83.065763 
86300000     556.8004   -157433.12   -155130.08    576.97631    566047.47    81.992382    83.088262    83.088262 
86400000    563.86707   -157422.17   -155089.91    621.86161    566047.47    81.950838     83.10932     83.10932 
86500000     556.9509   -157434.13   -155130.47    493.41532    566047.47    81.912334    83.128851    83.128851 
86600000    562.55987   -157397.92   -155071.06    671.98011    566047.47    81.877023    83.146774    83.146774 
86700000    564.74065   -157409.83   -155073.96     495.3919    566047.47    81.845044    83.163016    83.163016 
86800000    565.78894   -157408.94   -155068.73    687.58269    566047.47    81.816524     83.17751     83.17751 
86900000    558.49692   -157417.06   -155107.01    555.90079    566047.47    81.791574    83.190195    83.190195 
87000000    557.84969    -157415.1   -155107.72    558.77399    566047.47    81.770294    83.201019    83.201019 
87100000    558.99613   -157405.95   -155093.83    708.12343    566047.47    81.752768    83.209937    83.209937 
87200000    562.70798   -157418.98   -155091.51    630.90697    566047.47    81.739064    83.216912    83.216912 
87300000    557.68745   -157404.27   -155097.57    617.71455    566047.47    81.729236    83.221915    83.221915 
87400000    558.68134   -157421.17   -155110.36    618.16305    566047.47    81.723324    83.224925    83.224925 
87500000    562.37196   -157418.13   -155092.05     466.7188    566047.47    81.721351     83.22593     83.22593 
87600000       557.48   -157394.35    -155088.5    531.17603    566047.47    81.723324    83.224925    83.224925 
87700000    559.54584   -157397.56   -155083.17     910.0885    566047.47    81.729236    83.221915    83.221915 
87800000    556.35847   -157412.38   -155111.17    454.65624    566047.47    81.739064    83.216912    83.216912 
87900000    560.29891   -157421.43   -155103.93    400.75101    566047.47    81.752768    83.209937    83.209937 
88000000    561.37901    -157402.9   -155080.93    534.35179    566047.47    81.770294    83.201019    83.201019 
88100000    566.68329   -157401.75   -155057.84    850.42524    566047.47    81.791574    83.190195    83.190195 
88200000     559.8264   -157399.74   -155084.19    661.04526    566047.47    81.816524     83.17751     83.17751 
88300000    561.18573   -157389.34   -155068.16    627.50131    566047.47    81.845044    83.163016    83.163016 
88400000    561.25077   -157432.54    -155111.1    430.96552    566047.47    81.877023    83.146774    83.146774 
88500000    559.30554   -157407.03   -155093.64    660.58576    566047.47    81.912334    83.128851    83.128851 
88600000    558.89304   -157427.19    -155115.5    513.19376    566047.47    81.950838     83.10932     83.10932 
88700000    558.62883   -157434.03   -155123.43     436.5454    566047.47    81.992382    83.088262    83.088262 
88800000    560.42469   -157418.77   -155100.75    415.42628    566047.47    82.036804    83.065763    83.065763 
88900000    562.30721   -157419.26   -155093.45    551.06425    566047.47    82.083927    83.041917    83.041917 
89000000    559.11526   -157419.58   -155106.97    605.99769    566047.47    82.133566    83.016819    83.016819 
89100000    559.45212   -157422.72   -155108.71    590.90199    566047.47    82.185524    82.990573    82.990573 
89200000    558.98423    -157431.1   -155119.03    448.04488    566047.47    82.239597    82.963285    82.963285 
89300000    560.30305   -157436.08   -155118.56     304.1963    566047.47    82.295572    82.935066    82.935066 
89400000    559.85383   -157423.96    -155108.3    572.67746    566047.47    82.353226     82.90603     82.90603 
89500000    560.01791   -157429.87   -155113.53    490.77273    566047.47    82.412334    82.876294    82.876294 
89600000    560.25735   -157431.71   -155114.37    555.96093    566047.47    82.472661    82.845977    82.845977 
89700000    559.68773   -157445.35   -155130.38    312.10492    566047.47     82.53397    82.815201    82.815201 
89800000     564.7296   -157440.71   -155104.88     340.8256    566047.47    82.596018    82.784089    82.784089 
89900000    561.51717   -157430.76   -155108.21    454.15004    566047.47     82.65856    82.752764    82.752764 
90000000    560.22348   -157421.97   -155104.77     458.5641    566047.47    82.721351    82.721351    82.721351 
90100000    559.55586   -157415.88   -155101.45    650.78562    566047.47    82.784141    82.689973    82.689973 
90200000    558.28556   -157438.16   -155128.98    452.21398    566047.47    82.846684    82.658755    82.658755 
90300000    560.23134   -157440.12   -155122.89    535.13071    566047.47    82.908732    82.627819    82.627819 
90400000    558.42625   -157451.19   -155141.43    305.54187    566047.47    82.970041    82.597286    82.597286 
90500000    557.58408   -157429.37   -155123.09      550.069    566047.47    83.030368    82.567274    82.567274 
90600000    558.94282   -157419.04   -155107.14    547.68234    566047.47    83.089475    82.537901    82.537901 
90700000     558.9342   -157429.33   -155117.47    439.19064    566047.47     83.14713    82.509279    82.509279 
90800000    560.65205    -157427.4   -155108.43    423.72515    566047.47    83.203104    82.481521    82.481521 
90900000    559.64314    -157421.8   -155107.01     563.2475    566047.47    83.257178    82.454732    82.454732 
91000000    554.85149   -157418.35   -155123.38    509.90299    566047.47    83.309136    82.429015    82.429015 
91100000    560.76774   -157417.15   -155097.71    524.67398    566047.47    83.358775    82.404469    82.404469 
91200000    559.69595   -157421.65   -155106.64    472.11027    566047.47    83.405898    82.381187    82.381187 
91300000    558.82228   -157427.01   -155115.61    462.48153    566047.47    83.450319    82.359258    82.359258 
91400000    555.96187   -157429.04   -155129.47    398.73498    566047.47    83.491864    82.338765    82.338765 
91500000    559.35758   -157429.92   -155116.31    294.74388    566047.47    83.530368    82.319785    82.319785 
91600000    560.48641    -157419.8   -155101.52    518.12558    566047.47    83.565679    82.302391    82.302391 
91700000    562.08695   -157437.25   -155112.35    458.75894    566047.47    83.597657    82.286648    82.286648 
91800000    553.67697    -157413.3   -155123.19    521.46415    566047.47    83.626178    82.272615    82.272615 
91900000    557.57291   -157419.84   -155113.61     510.6527    566047.47    83.651127    82.260345    82.260345 
92000000    558.26549   -157408.43   -155099.34    749.70472    566047.47    83.672407    82.249884    82.249884 
92100000    556.90209   -157390.04   -155086.58     666.7027    566047.47    83.689934    82.241271    82.241271 
92200000    558.74813   -157414.49    -155103.4    576.15715    566047.47    83.703638    82.234538    82.234538 
92300000    560.67958   -157423.34   -155104.26    541.79385    566047.47    83.713466    82.229711    82.229711 
92400000    557.00296   -157425.37    -155121.5    492.32208    566047.47    83.719378    82.226808    82.226808 
92500000    562.29575   -157408.76      -155083    568.02837    566047.47    83.721351    82.225839    82.225839 
92600000    558.64833   -157411.52   -155100.84    693.43175    566047.47    83.719378    82.226808    82.226808 
92700000    559.25887   -157412.08   -155098.88    622.60034    566047.47    83.713466    82.229711    82.229711 
92800000    560.56708   -157409.07   -155090.45    586.76086    566047.47    83.703638    82.234538    82.234538 
92900000    561.11402   -157423.33   -155102.45    413.10119    566047.47    83.689934    82.241271    82.241271 
93000000    558.31487   -157426.94   -155117.64    537.68804    566047.47    83.672407    82.249884    82.249884 
93100000    560.71059   -157428.98   -155109.77    481.61851    566047.47    83.651127    82.260345    82.260345 
93200000    558.26055   -157437.41   -155128.34    407.00122    566047.47    83.626178    82.272615    82.272615 
93300000    564.33834   -157425.21   -155090.99    603.65994    566047.47    83.597657    82.286648    82.286648 
93400000    556.15222   -157408.29   -155107.94    564.67758    566047.47    83.565679    82.302391    82.302391 
93500000    556.68852   -157411.43   -155108.86    407.10149    566047.47    83.530368    82.319785    82.319785 
93600000    559.36467   -157412.62   -155098.98    508.76585    566047.47    83.491864    82.338765    82.338765 
93700000    558.65781   -157421.11   -155110.39    460.38523    566047.47    83.450319    82.359258    82.359258 
93800000    560.51966   -157441.73   -155123.31     336.8445    566047.47    83.405898    82.381187    82.381187 
93900000    558.78029   -157419.74   -155108.52    558.33184    566047.47    83.358775    82.404469    82.404469 
94000000    559.20111   -157432.84   -155119.88    482.17656    566047.47    83.309136    82.429015    82.429015 
94100000    562.01014   -157419.63   -155095.04    582.86837    566047.47    83.257178    82.454732    82.454732 
94200000     563.1538   -157434.63   -155105.32     648.5287    566047.47    83.203104    82.481521    82.481521 
94300000    561.13515   -157413.13   -155092.17    515.11702    566047.47     83.14713    82.509279    82.509279 
94400000    559.23829   -157442.04   -155128.92    421.42714    566047.47    83.089475    82.537901    82.537901 
94500000    557.77678   -157434.26   -155127.19    424.61166    566047.47    83.030368    82.567274    82.567274 
94600000    561.54908   -157422.62   -155099.95    602.80696    566047.47    82.970041    82.597286    82.597286 
94700000    558.47046   -157413.76   -155103.82    537.86916    566047.47    82.908732    82.627819    82.627819 
94800000      560.327   -157441.62   -155123.99    322.73159    566047.47    82.846684    82.658755    82.658755 
94900000    559.08852   -157431.88   -155119.38    563.90237    566047.47    82.784141    82.689973    82.689973 
95000000    556.25736    -157429.1   -155128.31    453.10334    566047.47    82.721351    82.721351    82.721351 
95100000    557.19037   -157418.21   -155113.56    537.78463    566047.47     82.65856    82.752764    82.752764 
95200000    563.19977   -157435.77   -155106.27    479.58228    566047.47    82.596018    82.784089    82.784089 
95300000    556.24755   -157424.07   -155123.32     462.9721    566047.47     82.53397    82.815201    82.815201 
95400000    561.28541   -157439.23   -155117.64    302.80986    566047.47    82.472661    82.845977    82.845977 
95500000    558.45976   -157439.58   -155129.68    301.26256    566047.47    82.412334    82.876294    82.876294 
95600000    561.35839   -157439.38   -155117.49    480.31349    566047.47    82.353226     82.90603     82.90603 
95700000    558.06579   -157430.43   -155122.16    388.91328    566047.47    82.295572    82.935066    82.935066 
95800000    559.10608   -157423.53   -155110.96    493.43384    566047.47    82.239597    82.963285    82.963285 
95900000      558.341   -157428.06   -155118.65    297.49328    566047.47    82.185524    82.990573    82.990573 
96000000    561.67962   -157423.43   -155100.22    352.37664    566047.47    82.133566    83.016819    83.016819 
96100000    556.25797   -157409.33   -155108.54    492.68777    566047.47    82.083927    83.041917    83.041917 
96200000    558.44088    -157427.2   -155117.38    611.11553    566047.47    82.036804    83.065763    83.065763 
96300000    560.00225   -157423.36   -155107.08    430.69213    566047.47    81.992382    83.088262    83.088262 
96400000    555.51077    -157427.6   -155129.89    511.53003    566047.47    81.950838     83.10932     83.10932 
96500000    557.90842   -157417.46   -155109.84    356.42608    566047.47    81.912334    83.128851    83.128851 
96600000     560.3917    -157413.5   -155095.61    543.02472    566047.47    81.877023    83.146774    83.146774 
96700000    560.98722   -157407.75    -155087.4    652.17753    566047.47    81.845044    83.163016    83.163016 
96800000     559.9084    -157418.1   -155102.21    586.25497    566047.47    81.816524     83.17751     83.17751 
96900000    557.89235   -157425.55      -155118    433.52665    566047.47    81.791574    83.190195    83.190195 
97000000    562.57053   -157395.65   -155068.75    619.57866    566047.47    81.770294    83.201019    83.201019 
97100000     561.0312    -157393.3   -155072.76    632.26774    566047.47    81.752768    83.209937    83.209937 
97200000    557.93931      -157419   -155111.26    526.22154    566047.47    81.739064    83.216912    83.216912 
97300000    560.71526   -157407.44   -155088.21    574.63194    566047.47    81.729236    83.221915    83.221915 
97400000    563.16396   -157423.18   -155093.83    493.86399    566047.47    81.723324    83.224925    83.224925 
97500000    557.10219   -157401.37   -155097.08    608.54565    566047.47    81.721351     83.22593     83.22593 
97600000    557.53138   -157398.65   -155092.59    701.45589    566047.47    81.723324    83.224925    83.224925 
97700000    563.36425   -157420.27   -155090.09    557.25601    566047.47    81.729236    83.221915    83.221915 
97800000    561.09676   -157433.09   -155112.28    566.49982    566047.47    81.739064    83.216912    83.216912 
97900000    559.80836   -157436.51   -155121.03    414.94259    566047.47    81.752768    83.209937    83.209937 
98000000     564.9187   -157423.84   -155087.23    588.71634    566047.47    81.770294    83.201019    83.201019 
98100000    558.63388   -157423.36   -155112.74    446.87466    566047.47    81.791574    83.190195    83.190195 
98200000    561.52558   -157419.22   -155096.64    592.17013    566047.47    81.816524     83.17751     83.17751 
98300000    557.15038    -157412.2   -155107.71    554.98778    566047.47    81.845044    83.163016    83.163016 
98400000    556.92179   -157424.18   -155120.64    428.91594    566047.47    81.877023    83.146774    83.146774 
98500000    561.83321    -157420.4   -155096.54    493.65819    566047.47    81.912334    83.128851    83.128851 
98600000    560.55516    -157424.6   -155106.03    406.77941    566047.47    81.950838     83.10932     83.10932 
98700000    562.09513   -157433.01   -155108.08    386.38866    566047.47    81.992382    83.088262    83.088262 
98800000    556.04006   -157431.18   -155131.29    472.95661    566047.47    82.036804    83.065763    83.065763 
98900000    560.19529   -157442.23   -155125.15    302.18827    566047.47    82.083927    83.041917    83.041917 
99000000    559.49005   -157456.13   -155141.97     265.6975    566047.47    82.133566    83.016819    83.016819 
99100000    559.04438   -157421.12   -155108.81    619.62074    566047.47    82.185524    82.990573    82.990573 
99200000    558.39312   -157423.39   -155113.77    495.18666    566047.47    82.239597    82.963285    82.963285 
99300000    556.71688   -157412.82   -155110.13    566.34292    566047.47    82.295572    82.935066    82.935066 
99400000    559.91715   -157437.82    -155121.9     286.2443    566047.47    82.353226     82.90603     82.90603 
99500000    563.43003   -157429.68   -155099.22    452.83238    566047.47    82.412334    82.876294    82.876294 
99600000     558.8884   -157417.44   -155105.77    553.99557    566047.47    82.472661    82.845977    82.845977 
99700000    556.98485   -157451.35   -155147.56    233.48467    566047.47     82.53397    82.815201    82.815201 
99800000    559.26061   -157436.51    -155123.3    366.42072    566047.47    82.596018    82.784089    82.784089 
99900000    560.86593   -157444.69   -155124.84    281.93621    566047.47     82.65856    82.752764    82.752764 
100000000     558.8733   -157441.98   -155130.37    306.98197    566047.47    82.721351    82.721351    82.721351 
Loop time of 59621.2 on 104 procs for 100000000 steps with 32000 atoms

Performance: 1449.148 ns/day, 0.017 hours/ns, 1677.255 timesteps/s
99.5% CPU use with 104 MPI tasks x 1 OpenMP threads

MPI task timing breakdown:
Section |  min time  |  avg time  |  max time  |%varavg| %total
---------------------------------------------------------------
Pair    | 34850      | 35693      | 36805      | 218.8 | 59.87
Neigh   | 2105.3     | 2240.4     | 2390.2     | 143.6 |  3.76
Comm    | 11936      | 12792      | 14087      | 402.1 | 21.46
Output  | 0.31231    | 0.31705    | 0.43761    |   2.1 |  0.00
Modify  | 7403.8     | 7872.5     | 8433       | 273.5 | 13.20
Other   |            | 1022       |            |       |  1.71

Nlocal:        307.692 ave         319 max         296 min
Histogram: 3 4 9 23 12 11 21 11 5 5
Nghost:        2596.14 ave        2626 max        2565 min
Histogram: 5 4 5 17 21 20 14 6 5 7
Neighs:        22434.2 ave       24343 max       20364 min
Histogram: 1 6 8 15 14 28 11 10 9 2

Total # of neighbors = 2333158
Ave neighs/atom = 72.911187
Neighbor list builds = 9430811
Dangerous builds = 0
clear
OMP_NUM_THREADS environment is not set. Defaulting to 1 thread. (../comm.cpp:94)
  using 1 OpenMP thread(s) per MPI task
package intel 1
jump dms570.lmp
#MD-DMS by Ha-Bin Yu
#package gpu 4
variable T equal 570
log log.${T}
log log.570
