ITEM: TIMESTEP
0
ITEM: NUMBER OF ATOMS
7200
ITEM: BOX BOUNDS xy xz yz pp pp pp
0.0000000000000000e+00 2.1900000000000000e+02 0.0000000000000000e+00
0.0000000000000000e+00 2.1900000000000000e+02 0.0000000000000000e+00
-3.6499999999999999e-01 3.6499999999999999e-01 0.0000000000000000e+00
ITEM: ATOMS id type x y z
1 1 67.8434 134.787 -5.55112e-17
2 1 183.143 108.683 -5.55112e-17
3 1 13.5514 157.722 -5.55112e-17
4 1 3.36261 86.0494 -5.55112e-17
5 1 215.972 157.515 -5.55112e-17
6 1 117.189 210.772 -5.55112e-17
7 1 42.3443 51.3336 -5.55112e-17
8 2 149.138 83.4505 -5.55112e-17
9 1 203.219 9.78825 -5.55112e-17
10 2 58.2561 193.51 -5.55112e-17
11 1 114.477 15.2027 -5.55112e-17
12 1 129.159 78.1366 -5.55112e-17
13 2 51.3986 79.2027 -5.55112e-17
14 1 65.3231 18.1062 -5.55112e-17
15 1 136.874 105.646 -5.55112e-17
16 2 61.4472 172.526 -5.55112e-17
17 1 114.02 30.7568 -5.55112e-17
18 2 31.7569 78.3075 -5.55112e-17
19 1 106.468 52.3971 -5.55112e-17
20 1 144.302 103.865 -5.55112e-17
21 1 42.0417 5.71902 -5.55112e-17
22 2 49.8287 148.017 -5.55112e-17
23 2 17.0058 54.633 -5.55112e-17
24 1 159.473 99.9676 -5.55112e-17
25 1 75.9424 182.86 -5.55112e-17
26 2 86.3092 96.674 -5.55112e-17
27 1 155.692 174.44 -5.55112e-17
28 2 23.1889 156.154 -5.55112e-17
29 1 53.0273 46.8889 -5.55112e-17
30 1 139.442 88.4286 -5.55112e-17
31 1 211.353 90.5388 -5.55112e-17
32 1 58.1572 104.396 -5.55112e-17
33 1 157.564 154.378 -5.55112e-17
34 1 61.2782 77.8304 -5.55112e-17
35 1 177.151 68.8093 -5.55112e-17
36 1 61.5625 75.3207 -5.55112e-17
37 2 135.981 140.474 -5.55112e-17
38 1 197.713 74.2686 -5.55112e-17
39 1 122.247 138.161 -5.55112e-17
40 1 166.073 163.586 -5.55112e-17
41 1 120.777 182.636 -5.55112e-17
42 1 103.132 36.2738 -5.55112e-17
43 1 135.262 61.1669 -5.55112e-17
44 1 106.801 23.6841 -5.55112e-17
45 1 214.368 84.3618 -5.55112e-17
46 1 28.2564 203.391 -5.55112e-17
47 1 89.1332 172.445 -5.55112e-17
48 2 47.5213 86.2384 -5.55112e-17
49 1 77.3191 110.662 -5.55112e-17
50 1 46.3652 197.805 -5.55112e-17
51 1 181.07 34.6826 -5.55112e-17
52 1 204.13 132.378 -5.55112e-17
53 1 156.546 27.0928 -5.55112e-17
54 1 24.4927 119.407 -5.55112e-17
55 1 22.7988 48.2227 -5.55112e-17
56 1 117.69 140.366 -5.55112e-17
57 2 68.0434 214.671 -5.55112e-17
58 1 32.4787 40.1446 -5.55112e-17
59 1 29.217 151.703 -5.55112e-17
60 2 152.027 147.166 -5.55112e-17
61 2 36.1911 202.937 -5.55112e-17
62 1 10.8736 161.774 -5.55112e-17
63 1 112.166 198.327 -5.55112e-17
64 1 133.918 39.3004 -5.55112e-17
65 1 214.393 113.962 -5.55112e-17
66 1 128.518 134.26 -5.55112e-17
67 1 96.0444 139.795 -5.55112e-17
68 1 67.0113 116.59 -5.55112e-17
69 1 140.942 174.053 -5.55112e-17
70 1 59.1564 111.262 -5.55112e-17
71 1 7.76678 125.691 -5.55112e-17
72 1 171.488 60.8496 -5.55112e-17
73 1 187.834 185.463 -5.55112e-17
74 1 207.219 21.4452 -5.55112e-17
75 2 93.6323 1.46464 -5.55112e-17
76 1 17.7926 4.57961 -5.55112e-17
77 1 36.205 24.369 -5.55112e-17
78 1 124.703 117.186 -5.55112e-17
79 2 126.28 1.18121 -5.55112e-17
80 1 75.4385 106.302 -5.55112e-17
81 1 110.848 141.236 -5.55112e-17
82 1 53.8043 141.439 -5.55112e-17
83 2 129.778 182.085 -5.55112e-17
84 1 179.808 80.6963 -5.55112e-17
85 1 22.0842 41.0551 -5.55112e-17
86 1 128.282 142.311 -5.55112e-17
87 1 217.224 216.945 -5.55112e-17
88 1 18.8973 34.8406 -5.55112e-17
89 2 44.0379 3.55916 -5.55112e-17
90 2 190.452 187.033 -5.55112e-17
91 1 149.634 90.8281 -5.55112e-17
92 2 168.945 21.5785 -5.55112e-17
93 1 142.048 15.1526 -5.55112e-17
94 2 201.833 12.4424 -5.55112e-17
95 1 33.384 195.312 -5.55112e-17
96 1 130.672 95.6537 -5.55112e-17
97 1 97.0194 5.19636 -5.55112e-17
98 1 125.416 55.4651 -5.55112e-17
99 1 178.561 21.7364 -5.55112e-17
100 1 176.112 8.78592 -5.55112e-17
101 1 114.591 12.6993 -5.55112e-17
102 1 24.5171 46.2714 -5.55112e-17
103 1 58.1137 81.0026 -5.55112e-17
104 1 69.223 109.161 -5.55112e-17
105 1 142.567 201.583 -5.55112e-17
106 1 78.1614 102.525 -5.55112e-17
107 2 146.312 101.684 -5.55112e-17
108 1 36.5128 210.789 -5.55112e-17
109 1 54.4781 88.7255 -5.55112e-17
110 1 107.741 63.2598 -5.55112e-17
111 1 61.0714 21.2656 -5.55112e-17
112 1 94.7969 137.359 -5.55112e-17
113 1 99.3266 43.8015 -5.55112e-17
114 1 158.422 23.243 -5.55112e-17
115 1 51.4073 163.348 -5.55112e-17
116 2 214.467 133.593 -5.55112e-17
117 1 201.656 216.275 -5.55112e-17
118 1 164.931 68.1545 -5.55112e-17
119 2 57.9667 98.9928 -5.55112e-17
120 1 53.4986 199.687 -5.55112e-17
121 1 151.926 83.9537 -5.55112e-17
122 1 102.937 14.7785 -5.55112e-17
123 1 136.497 75.7196 -5.55112e-17
124 1 154.777 201.542 -5.55112e-17
125 1 141.21 117.749 -5.55112e-17
126 1 111.453 65.6587 -5.55112e-17
127 1 163.7 78.3305 -5.55112e-17
128 1 175.721 136.736 -5.55112e-17
129 1 7.97757 104.181 -5.55112e-17
130 1 83.9959 129.082 -5.55112e-17
131 1 175.62 152.384 -5.55112e-17
132 2 183.192 1.93923 -5.55112e-17
133 1 127.253 79.844 -5.55112e-17
134 1 35.3063 86.1353 -5.55112e-17
135 1 78.0857 8.31862 -5.55112e-17
136 1 210.221 201.557 -5.55112e-17
137 1 102.065 137.126 -5.55112e-17
138 1 50.5647 212.132 -5.55112e-17
139 1 202.507 105.476 -5.55112e-17
140 2 141.916 186.282 -5.55112e-17
141 1 205.501 96.2375 -5.55112e-17
142 2 211.746 48.6079 -5.55112e-17
143 1 111.374 80.8012 -5.55112e-17
144 2 43.6706 199.06 -5.55112e-17
145 1 172.475 103.097 -5.55112e-17
146 1 99.5571 120.356 -5.55112e-17
147 1 154.591 145.601 -5.55112e-17
148 1 6.69391 201.076 -5.55112e-17
149 1 67.8859 21.6654 -5.55112e-17
150 1 53.9374 37.2245 -5.55112e-17
151 1 25.9695 112.639 -5.55112e-17
152 1 63.689 104.58 -5.55112e-17
153 2 52.0347 6.40885 -5.55112e-17
154 1 149.214 95.0571 -5.55112e-17
155 1 107.634 17.0271 -5.55112e-17
156 2 71.8566 116.108 -5.55112e-17
157 1 207.641 104.36 -5.55112e-17
158 1 29.054 28.9077 -5.55112e-17
159 1 22.4999 135.638 -5.55112e-17
160 1 12.0829 201.491 -5.55112e-17
161 1 1.71923 7.81598 -5.55112e-17
162 1 127.352 127.284 -5.55112e-17
163 1 17.5962 32.6544 -5.55112e-17
164 1 166.876 53.0962 -5.55112e-17
165 1 124.957 121.788 -5.55112e-17
166 2 159.189 60.8789 -5.55112e-17
167 1 174.973 46.6606 -5.55112e-17
168 1 149.308 169.692 -5.55112e-17
169 1 1.91385 101.767 -5.55112e-17
170 1 95.2557 168.39 -5.55112e-17
171 1 146.7 61.3168 -5.55112e-17
172 1 218.905 16.9102 -5.55112e-17
173 1 45.8097 143.444 -5.55112e-17
174 1 131.11 62.6576 -5.55112e-17
175 2 137.703 160.663 -5.55112e-17
176 1 110.155 70.8922 -5.55112e-17
177 2 70.4542 56.4725 -5.55112e-17
178 1 65.5906 86.7567 -5.55112e-17
179 1 173.105 163.569 -5.55112e-17
180 1 203.407 196.844 -5.55112e-17
181 1 134.982 167.182 -5.55112e-17
182 2 77.5527 20.7801 -5.55112e-17
183 1 77.2643 164.074 -5.55112e-17
184 1 176.31 86.8704 -5.55112e-17
185 2 175.487 20.9046 -5.55112e-17
186 2 209.172 133.65 -5.55112e-17
187 1 92.8794 29.1415 -5.55112e-17
188 1 103.084 170.292 -5.55112e-17
189 1 123.809 174.715 -5.55112e-17
190 2 13.7523 160.549 -5.55112e-17
191 1 77.6725 157.087 -5.55112e-17
192 2 63.7397 109.775 -5.55112e-17
193 2 80.1464 172.49 -5.55112e-17
194 1 33.2552 149.319 -5.55112e-17
195 1 145.557 163.717 -5.55112e-17
196 1 168.417 191.174 -5.55112e-17
197 1 74.0647 69.6996 -5.55112e-17
198 2 9.8331 132.577 -5.55112e-17
199 1 210.522 56.7599 -5.55112e-17
200 1 80.2394 6.70779 -5.55112e-17
201 2 71.8735 110.229 -5.55112e-17
202 1 52.7167 210.426 -5.55112e-17
203 1 175.336 81.6771 -5.55112e-17
204 1 188.686 156.225 -5.55112e-17
205 2 191.823 82.4918 -5.55112e-17
206 1 89.4812 133.03 -5.55112e-17
207 1 105.961 30.2432 -5.55112e-17
208 1 32.8629 85.8979 -5.55112e-17
209 1 81.7895 2.57993 -5.55112e-17
210 1 7.98546 64.4972 -5.55112e-17
211 2 146.732 156.554 -5.55112e-17
212 1 120.255 112.587 -5.55112e-17
213 1 134.679 104.128 -5.55112e-17
214 1 74.4266 14.1775 -5.55112e-17
215 1 74.6788 201.973 -5.55112e-17
216 1 194.087 139.208 -5.55112e-17
217 1 126.744 186.953 -5.55112e-17
218 2 28.4456 168.263 -5.55112e-17
219 1 155.818 213.664 -5.55112e-17
220 2 106.947 55.6769 -5.55112e-17
221 1 212.596 55.6941 -5.55112e-17
222 1 143.073 146.144 -5.55112e-17
223 1 52.1907 208.039 -5.55112e-17
224 2 10.1612 188.702 -5.55112e-17
225 1 201.579 141.905 -5.55112e-17
226 1 138.655 190.352 -5.55112e-17
227 2 50.8606 17.2453 -5.55112e-17
228 1 138.602 77.6181 -5.55112e-17
229 1 61.0268 135.74 -5.55112e-17
230 1 158.927 130.949 -5.55112e-17
231 1 148.179 123.08 -5.55112e-17
232 1 1.05744 90.5331 -5.55112e-17
233 1 109.944 100.403 -5.55112e-17
234 1 133.807 216.205 -5.55112e-17
235 1 21.0829 142.856 -5.55112e-17
236 1 46.2353 81.3455 -5.55112e-17
237 1 198.767 8.19117 -5.55112e-17
238 1 147.639 128.223 -5.55112e-17
239 2 17.7098 112.031 -5.55112e-17
240 1 99.5373 6.12898 -5.55112e-17
241 2 187.422 14.6321 -5.55112e-17
242 2 198.434 36.9353 -5.55112e-17
243 2 114.546 27.8804 -5.55112e-17
244 1 97.3399 7.81284 -5.55112e-17
245 1 84.6628 58.7692 -5.55112e-17
246 1 126.022 119.25 -5.55112e-17
247 1 210.568 98.2285 -5.55112e-17
248 1 94.5435 4.15115 -5.55112e-17
249 1 23.3012 65.5305 -5.55112e-17
250 2 149.762 29.8501 -5.55112e-17
251 1 153.886 212.174 -5.55112e-17
252 1 195.209 63.5624 -5.55112e-17
253 1 94.3973 61.3378 -5.55112e-17
254 2 76.8047 197.256 -5.55112e-17
255 1 212.573 149.083 -5.55112e-17
256 1 84.9183 165.832 -5.55112e-17
257 1 212.054 151.889 -5.55112e-17
258 2 164.034 27.9153 -5.55112e-17
259 1 58.238 166.062 -5.55112e-17
260 1 127.18 11.0564 -5.55112e-17
261 1 184.537 13.872 -5.55112e-17
262 1 53.464 52.6686 -5.55112e-17
263 1 12.6859 213.367 -5.55112e-17
264 1 172.235 43.0491 -5.55112e-17
265 1 166.215 22.6957 -5.55112e-17
266 1 155.758 9.70943 -5.55112e-17
267 1 2.49083 64.5235 -5.55112e-17
268 1 21.1561 35.4613 -5.55112e-17
269 1 126.078 95.1717 -5.55112e-17
270 1 141.375 106.589 -5.55112e-17
271 1 12.427 92.2445 -5.55112e-17
272 1 159.341 202.184 -5.55112e-17
273 1 40.6159 168.925 -5.55112e-17
274 2 113.157 88.1165 -5.55112e-17
275 1 64.0236 5.19422 -5.55112e-17
276 2 53.9217 32.3073 -5.55112e-17
277 2 167.209 121.894 -5.55112e-17
278 1 38.5327 100.968 -5.55112e-17
279 2 109.673 205.616 -5.55112e-17
280 1 60.0708 32.0998 -5.55112e-17
281 1 147.058 28.4669 -5.55112e-17
282 1 164.858 8.28479 -5.55112e-17
283 1 113.304 141.834 -5.55112e-17
284 1 136.846 165.339 -5.55112e-17
285 1 35.9632 12.6959 -5.55112e-17
286 2 34.1915 215.334 -5.55112e-17
287 1 82.9321 135.498 -5.55112e-17
288 1 21.3416 57.4185 -5.55112e-17
289 1 71.4381 53.7133 -5.55112e-17
290 1 150.68 193.472 -5.55112e-17
291 1 158.606 144.687 -5.55112e-17
292 2 19.9475 181.165 -5.55112e-17
293 2 65.8654 194.369 -5.55112e-17
294 1 112.163 40.326 -5.55112e-17
295 1 124.862 48.3454 -5.55112e-17
296 1 134.934 41.6248 -5.55112e-17
297 1 118.858 145.411 -5.55112e-17
298 1 104.835 198.872 -5.55112e-17
299 1 160.287 106.672 -5.55112e-17
300 2 61.79 94.8418 -5.55112e-17
301 1 58.7115 45.7414 -5.55112e-17
302 1 127.064 192.69 -5.55112e-17
303 2 198.178 59.4335 -5.55112e-17
304 2 144.512 129.545 -5.55112e-17
305 1 86.1949 99.6045 -5.55112e-17
306 1 51.1056 73.6412 -5.55112e-17
307 1 35.5964 122.279 -5.55112e-17
308 1 161.653 59.3261 -5.55112e-17
309 2 73.0772 184.352 -5.55112e-17
310 1 194.365 215.293 -5.55112e-17
311 1 79.7687 33.6281 -5.55112e-17
312 1 192.262 147.843 -5.55112e-17
313 2 147.05 66.3715 -5.55112e-17
314 1 52.2696 135.043 -5.55112e-17
315 1 111.414 150.89 -5.55112e-17
316 1 72.6377 0.743722 -5.55112e-17
317 1 13.6655 99.3228 -5.55112e-17
318 1 100.038 215.411 -5.55112e-17
319 1 50.9612 32.9925 -5.55112e-17
320 1 144.351 99.7776 -5.55112e-17
321 1 88.7016 204.101 -5.55112e-17
322 1 143.164 140.238 -5.55112e-17
323 1 188.027 107.994 -5.55112e-17
324 1 81.0718 26.9902 -5.55112e-17
325 1 163.19 139.298 -5.55112e-17
326 1 85.4164 151.993 -5.55112e-17
327 2 149.887 186.018 -5.55112e-17
328 1 167.47 40.4972 -5.55112e-17
329 2 47.4424 115.753 -5.55112e-17
330 1 24.3645 101.822 -5.55112e-17
331 1 174.802 175.651 -5.55112e-17
332 2 112.44 104.635 -5.55112e-17
333 1 44.2726 18.0216 -5.55112e-17
334 1 139.7 169.068 -5.55112e-17
335 1 12.7083 206.494 -5.55112e-17
336 1 212.656 106.025 -5.55112e-17
337 1 103.305 182.508 -5.55112e-17
338 1 159.202 58.013 -5.55112e-17
339 1 109.389 217.45 -5.55112e-17
340 1 153.461 141.439 -5.55112e-17
341 1 160.496 158.479 -5.55112e-17
342 1 128.624 144.917 -5.55112e-17
343 1 127.45 29.4123 -5.55112e-17
344 1 63.7872 181.946 -5.55112e-17
345 1 60.9128 109.289 -5.55112e-17
346 1 9.39247 127.389 -5.55112e-17
347 1 92.2824 92.3356 -5.55112e-17
348 1 164.022 179.309 -5.55112e-17
349 1 193.339 75.0029 -5.55112e-17
350 2 89.9761 40.8467 -5.55112e-17
351 1 154.919 66.2948 -5.55112e-17
352 1 61.1062 182.69 -5.55112e-17
353 1 39.3596 166.427 -5.55112e-17
354 1 167.818 161.479 -5.55112e-17
355 1 58.7009 156.832 -5.55112e-17
356 1 23.5523 36.3702 -5.55112e-17
357 1 62.8451 159.252 -5.55112e-17
358 1 172.254 180.716 -5.55112e-17
359 1 157.782 158.92 -5.55112e-17
360 1 74.0677 53.0992 -5.55112e-17
361 1 63.7761 168.058 -5.55112e-17
362 1 169.179 200.931 -5.55112e-17
363 1 163.865 190.255 -5.55112e-17
364 2 116.564 92.9015 -5.55112e-17
365 1 178.884 90.45 -5.55112e-17
366 1 117.834 161.214 -5.55112e-17
367 1 174.197 7.13687 -5.55112e-17
368 1 197.147 192.233 -5.55112e-17
369 2 115.286 188.422 -5.55112e-17
370 1 15.253 205.933 -5.55112e-17
371 1 53.7606 137.133 -5.55112e-17
372 2 0.0382422 93.7564 -5.55112e-17
373 2 212.705 7.63207 -5.55112e-17
374 1 151.248 88.6495 -5.55112e-17
375 1 37.5125 111.889 -5.55112e-17
376 1 17.0224 151.854 -5.55112e-17
377 1 29.0348 213.323 -5.55112e-17
378 1 74.9462 129.577 -5.55112e-17
379 1 42.8246 60.3688 -5.55112e-17
380 1 177.853 150.888 -5.55112e-17
381 1 13.518 5.56355 -5.55112e-17
382 1 54.4137 67.2682 -5.55112e-17
383 1 169.556 67.5003 -5.55112e-17
384 1 21.8171 13.7325 -5.55112e-17
385 1 191.498 76.722 -5.55112e-17
386 2 82.1534 44.3182 -5.55112e-17
387 1 144.289 18.8417 -5.55112e-17
388 1 56.6264 44.0405 -5.55112e-17
389 1 206.899 159.149 -5.55112e-17
390 2 207.446 179.622 -5.55112e-17
391 2 35.631 40.51 -5.55112e-17
392 1 41.8911 218.116 -5.55112e-17
393 1 0.413575 33.2811 -5.55112e-17
394 1 102.304 101.595 -5.55112e-17
395 1 16.0677 27.2006 -5.55112e-17
396 1 202.65 153.744 -5.55112e-17
397 1 100.763 16.3863 -5.55112e-17
398 1 11.5398 191.431 -5.55112e-17
399 1 19.2965 59.3139 -5.55112e-17
400 1 103.28 179.9 -5.55112e-17
401 1 87.9598 176.888 -5.55112e-17
402 2 191.361 178.824 -5.55112e-17
403 1 213.951 53.701 -5.55112e-17
404 1 35.9643 71.61 -5.55112e-17
405 1 204.185 29.0611 -5.55112e-17
406 1 201 67.8677 -5.55112e-17
407 2 19.1288 62.46 -5.55112e-17
408 1 33.7919 35.3012 -5.55112e-17
409 1 169.463 129.096 -5.55112e-17
410 1 20.4596 154.745 -5.55112e-17
411 1 152.064 160.433 -5.55112e-17
412 1 114.691 215.286 -5.55112e-17
413 1 63.8361 156.785 -5.55112e-17
414 1 38.1252 13.8835 -5.55112e-17
415 1 207.768 148.326 -5.55112e-17
416 1 72.3008 200.271 -5.55112e-17
417 1 141.193 94.0226 -5.55112e-17
418 2 184.26 7.46816 -5.55112e-17
419 1 108.972 150.032 -5.55112e-17
420 2 136.929 109.075 -5.55112e-17
421 1 87.9327 104.146 -5.55112e-17
422 1 176.626 23.813 -5.55112e-17
423 2 157.902 41.461 -5.55112e-17
424 1 157.292 149.32 -5.55112e-17
425 1 129.423 166.788 -5.55112e-17
426 1 133.322 113.057 -5.55112e-17
427 1 45.7265 84.11 -5.55112e-17
428 1 71.1518 191.923 -5.55112e-17
429 1 194.639 82.9487 -5.55112e-17
430 1 215.151 59.9684 -5.55112e-17
431 1 120.049 206.809 -5.55112e-17
432 1 161.264 54.0558 -5.55112e-17
433 1 105.295 153.876 -5.55112e-17
434 1 71.4888 30.51 -5.55112e-17
435 1 178.187 161.578 -5.55112e-17
436 1 41.6092 36.8406 -5.55112e-17
437 1 175.625 109.355 -5.55112e-17
438 2 109.333 21.9471 -5.55112e-17
439 1 67.2922 208.913 -5.55112e-17
440 1 3.72065 161.862 -5.55112e-17
441 1 193.085 131.234 -5.55112e-17
442 1 50.5039 13.856 -5.55112e-17
443 1 158.103 105.06 -5.55112e-17
444 1 218.399 101.148 -5.55112e-17
445 1 139.471 7.40403 -5.55112e-17
446 1 131.584 79.0615 -5.55112e-17
447 1 39.1097 144.951 -5.55112e-17
448 1 75.7363 7.22302 -5.55112e-17
449 1 131.587 120.436 -5.55112e-17
450 1 139.551 187.989 -5.55112e-17
451 1 170.498 47.3871 -5.55112e-17
452 1 130.947 144.896 -5.55112e-17
453 1 179.232 181.894 -5.55112e-17
454 1 160.381 211.474 -5.55112e-17
455 1 100.373 72.0618 -5.55112e-17
456 1 167.071 27.1677 -5.55112e-17
457 1 97.934 113.821 -5.55112e-17
458 1 198.461 0.162058 -5.55112e-17
459 1 81.184 69.0569 -5.55112e-17
460 1 48.9677 102.6 -5.55112e-17
461 1 188.819 177.759 -5.55112e-17
462 1 181.762 116.132 -5.55112e-17
463 1 126.777 33.848 -5.55112e-17
464 1 154.804 195.086 -5.55112e-17
465 1 122.298 160.06 -5.55112e-17
466 1 24.5617 213.787 -5.55112e-17
467 1 17.2116 80.0709 -5.55112e-17
468 1 161.654 218.547 -5.55112e-17
469 1 68.3296 77.6074 -5.55112e-17
470 1 77.9503 37.9331 -5.55112e-17
471 1 129.059 174.28 -5.55112e-17
472 1 48.0372 83.0155 -5.55112e-17
473 1 26.7464 102.633 -5.55112e-17
474 1 88.1642 101.284 -5.55112e-17
475 1 185.45 163.495 -5.55112e-17
476 2 192.367 12.0054 -5.55112e-17
477 1 53.5028 84.545 -5.55112e-17
478 1 59.0294 125.86 -5.55112e-17
479 1 201.434 80.3289 -5.55112e-17
480 1 85.4635 23.506 -5.55112e-17
481 1 14.9022 94.0642 -5.55112e-17
482 1 99.7902 160.069 -5.55112e-17
483 1 142.525 160.033 -5.55112e-17
484 2 87.5531 45.8213 -5.55112e-17
485 1 33.9341 100.67 -5.55112e-17
486 1 81.6248 17.0229 -5.55112e-17
487 1 100.74 197.117 -5.55112e-17
488 1 6.00498 121.288 -5.55112e-17
489 1 211.843 134.897 -5.55112e-17
490 1 204.599 83.8846 -5.55112e-17
491 1 197.65 121.504 -5.55112e-17
492 1 2.59476 128.771 -5.55112e-17
493 1 193.927 210.493 -5.55112e-17
494 1 211.057 37.8642 -5.55112e-17
495 1 198.426 89.4728 -5.55112e-17
496 2 44.0982 189.407 -5.55112e-17
497 1 39.5336 217.089 -5.55112e-17
498 1 104.806 121.199 -5.55112e-17
499 2 136.738 216.747 -5.55112e-17
500 1 25.7544 29.7201 -5.55112e-17
501 2 112.704 217.116 -5.55112e-17
502 2 123.619 143.497 -5.55112e-17
503 1 147.194 183.777 -5.55112e-17
504 1 113.071 149.008 -5.55112e-17
505 1 118.235 18.6001 -5.55112e-17
506 1 26.3404 121.442 -5.55112e-17
507 1 14.7238 129.639 -5.55112e-17
508 1 196.388 217.448 -5.55112e-17
509 2 27.1455 75.3519 -5.55112e-17
510 2 146.15 133.566 -5.55112e-17
511 1 195.893 35.6318 -5.55112e-17
512 2 210.162 59.7415 -5.55112e-17
513 1 56.6117 127.461 -5.55112e-17
514 1 48.6617 19.063 -5.55112e-17
515 1 204.258 25.0056 -5.55112e-17
516 1 182.716 205.881 -5.55112e-17
517 1 112.243 117.6 -5.55112e-17
518 2 103.246 20.478 -5.55112e-17
519 1 11.4372 52.7611 -5.55112e-17
520 2 212.48 23.013 -5.55112e-17
521 1 89.2266 111.516 -5.55112e-17
522 1 31.0531 30.3987 -5.55112e-17
523 1 24.6582 67.9118 -5.55112e-17
524 1 99.7882 74.9316 -5.55112e-17
525 1 174.646 121.193 -5.55112e-17
526 1 190.915 64.5522 -5.55112e-17
527 1 75.2339 4.58001 -5.55112e-17
528 1 168.791 28.9249 -5.55112e-17
529 1 57.3847 158.921 -5.55112e-17
530 1 100.465 32.0336 -5.55112e-17
531 1 66.8809 197.306 -5.55112e-17
532 1 206.788 187.804 -5.55112e-17
533 1 134.437 150.915 -5.55112e-17
534 1 97.6235 144.915 -5.55112e-17
535 1 14.1952 104.682 -5.55112e-17
536 1 203.748 117.451 -5.55112e-17
537 1 201.423 166.824 -5.55112e-17
538 1 168.655 80.8089 -5.55112e-17
539 1 89.0896 211.815 -5.55112e-17
540 1 103.101 89.1512 -5.55112e-17
541 1 40.5908 58.9512 -5.55112e-17
542 1 67.3741 211.39 -5.55112e-17
543 1 147.412 151.442 -5.55112e-17
544 1 128.728 200.611 -5.55112e-17
545 1 7.98701 149.485 -5.55112e-17
546 1 179.175 41.4107 -5.55112e-17
547 1 83.0464 172.354 -5.55112e-17
548 1 99.7089 8.72779 -5.55112e-17
549 1 51.4744 76.4232 -5.55112e-17
550 2 162.545 121.939 -5.55112e-17
551 2 134.824 157.587 -5.55112e-17
552 2 94.3576 180.252 -5.55112e-17
553 1 122.521 42.71 -5.55112e-17
554 1 73.6874 101.922 -5.55112e-17
555 2 66.1032 124.378 -5.55112e-17
556 1 148.388 21.7142 -5.55112e-17
557 1 76.5524 12.5885 -5.55112e-17
558 1 148.243 125.64 -5.55112e-17
559 1 187.252 47.5036 -5.55112e-17
560 1 131.225 51.1701 -5.55112e-17
561 1 146.572 168.809 -5.55112e-17
562 1 195.881 144.462 -5.55112e-17
563 2 167.888 113.829 -5.55112e-17
564 1 41.9307 67.064 -5.55112e-17
565 1 60.0483 10.5867 -5.55112e-17
566 1 75.3303 34.3278 -5.55112e-17
567 1 150.042 111.382 -5.55112e-17
568 1 22.1826 114.727 -5.55112e-17
569 1 114.435 185.525 -5.55112e-17
570 1 124.677 124.278 -5.55112e-17
571 1 175.425 203.653 -5.55112e-17
572 1 61.6739 112.13 -5.55112e-17
573 1 177.231 76.6006 -5.55112e-17
574 1 41.8914 130.125 -5.55112e-17
575 1 21.688 76.6116 -5.55112e-17
576 1 195.829 98.5276 -5.55112e-17
577 1 202.785 33.044 -5.55112e-17
578 1 122.616 197.116 -5.55112e-17
579 1 14.0676 168.107 -5.55112e-17
580 1 102.958 139.536 -5.55112e-17
581 1 141.435 154.517 -5.55112e-17
582 1 75.936 79.1971 -5.55112e-17
583 1 162.77 186.066 -5.55112e-17
584 2 29.1821 117.377 -5.55112e-17
585 1 48.835 198.786 -5.55112e-17
586 1 137.844 170.869 -5.55112e-17
587 1 99.1851 104.997 -5.55112e-17
588 1 16.9383 2.01256 -5.55112e-17
589 1 103.063 17.36 -5.55112e-17
590 1 70.3039 0.110151 -5.55112e-17
591 1 215.814 162.655 -5.55112e-17
592 1 56.4134 156.265 -5.55112e-17
593 1 209.766 181.577 -5.55112e-17
594 1 181.546 180.751 -5.55112e-17
595 1 82.7061 39.504 -5.55112e-17
596 1 65.9922 36.3414 -5.55112e-17
597 2 180.474 203.994 -5.55112e-17
598 1 167.473 211.484 -5.55112e-17
599 1 208.009 171.358 -5.55112e-17
600 1 104.938 10.7965 -5.55112e-17
601 1 11.9309 134.749 -5.55112e-17
602 1 97.9006 31.121 -5.55112e-17
603 1 207.848 202.576 -5.55112e-17
604 1 120.632 1.22027 -5.55112e-17
605 2 85.3351 77.4708 -5.55112e-17
606 1 102.672 202.581 -5.55112e-17
607 2 171.457 146.869 -5.55112e-17
608 1 95.0284 76.711 -5.55112e-17
609 1 15.9084 6.33416 -5.55112e-17
610 1 214.312 150.707 -5.55112e-17
611 1 201.96 190.061 -5.55112e-17
612 1 217.953 37.4981 -5.55112e-17
613 1 59.3454 151.168 -5.55112e-17
614 2 127.932 179.337 -5.55112e-17
615 1 105.58 18.5604 -5.55112e-17
616 1 202.482 130.353 -5.55112e-17
617 1 127.27 198.591 -5.55112e-17
618 1 201.471 211.927 -5.55112e-17
619 1 179.112 78.3036 -5.55112e-17
620 1 140.809 141.778 -5.55112e-17
621 1 197.025 93.9311 -5.55112e-17
622 1 95.3889 214.07 -5.55112e-17
623 1 218.651 11.863 -5.55112e-17
624 1 24.2506 209.088 -5.55112e-17
625 1 204.8 155.253 -5.55112e-17
626 1 94.0101 191.076 -5.55112e-17
627 1 64.0715 74.0423 -5.55112e-17
628 1 34.3092 28.3786 -5.55112e-17
629 1 9.97643 94.4497 -5.55112e-17
630 2 151.276 21.877 -5.55112e-17
631 1 15.5429 86.3518 -5.55112e-17
632 1 49.327 92.221 -5.55112e-17
633 1 39.0107 211.55 -5.55112e-17
634 1 1.30912 147.748 -5.55112e-17
635 1 155.175 150.918 -5.55112e-17
636 1 208.058 57.4771 -5.55112e-17
637 1 201.605 58.1551 -5.55112e-17
638 1 172.674 76.7389 -5.55112e-17
639 2 203.443 78.2553 -5.55112e-17
640 1 143.537 152.936 -5.55112e-17
641 1 192.953 85.3482 -5.55112e-17
642 1 32.0743 91.389 -5.55112e-17
643 2 181.837 42.8219 -5.55112e-17
644 1 68.6015 155.548 -5.55112e-17
645 1 106.734 197.022 -5.55112e-17
646 2 212.285 141.399 -5.55112e-17
647 1 10.9447 185.343 -5.55112e-17
648 1 132.249 103.364 -5.55112e-17
649 2 23.9945 150.481 -5.55112e-17
650 1 204.67 186.483 -5.55112e-17
651 1 218.706 113.109 -5.55112e-17
652 1 153.329 43.987 -5.55112e-17
653 1 114.741 175.612 -5.55112e-17
654 1 23.0268 21.1618 -5.55112e-17
655 2 183.616 101.04 -5.55112e-17
656 1 28.2562 123.371 -5.55112e-17
657 2 79.3931 207.148 -5.55112e-17
658 1 53.8984 44.3186 -5.55112e-17
659 2 156.329 192.504 -5.55112e-17
660 1 101.912 55.4757 -5.55112e-17
661 1 42.8234 116.565 -5.55112e-17
662 1 82.0125 130.525 -5.55112e-17
663 1 31.6497 25.4261 -5.55112e-17
664 1 146.7 17.5421 -5.55112e-17
665 1 139.715 75.4649 -5.55112e-17
666 2 47.7528 181.227 -5.55112e-17
667 1 93.0855 99.7004 -5.55112e-17
668 2 102.082 94.1218 -5.55112e-17
669 1 36.0007 17.7662 -5.55112e-17
670 1 96.5914 173.541 -5.55112e-17
671 2 53.9728 176.188 -5.55112e-17
672 1 186.539 12.0085 -5.55112e-17
673 1 63.1595 19.769 -5.55112e-17
674 1 2.41051 31.5989 -5.55112e-17
675 1 128.479 23.8367 -5.55112e-17
676 1 169.366 123.763 -5.55112e-17
677 1 131.75 174.677 -5.55112e-17
678 1 137.6 30.9122 -5.55112e-17
679 2 152.101 33.0337 -5.55112e-17
680 1 202.516 41.1864 -5.55112e-17
681 2 129.111 119.173 -5.55112e-17
682 1 218.837 47.5441 -5.55112e-17
683 1 68.5481 4.55022 -5.55112e-17
684 1 120.357 154.886 -5.55112e-17
685 1 152.774 38.6974 -5.55112e-17
686 1 27.7868 193.745 -5.55112e-17
687 1 118.359 192.114 -5.55112e-17
688 1 162.835 110.291 -5.55112e-17
689 2 55.9796 46.8484 -5.55112e-17
690 1 70.0754 20.1538 -5.55112e-17
691 1 88.9255 66.1301 -5.55112e-17
692 1 130.962 8.31488 -5.55112e-17
693 1 48.4418 143.223 -5.55112e-17
694 1 76.2637 125.149 -5.55112e-17
695 1 146.167 38.8162 -5.55112e-17
696 1 146.319 81.5832 -5.55112e-17
697 1 139.68 201.713 -5.55112e-17
698 1 116.683 66.1553 -5.55112e-17
699 1 180.599 191.576 -5.55112e-17
700 1 205.76 209.273 -5.55112e-17
701 1 53.9532 17.1718 -5.55112e-17
702 1 113.27 128.796 -5.55112e-17
703 2 188.701 143.985 -5.55112e-17
704 1 29.5362 218.52 -5.55112e-17
705 2 69.2919 112.211 -5.55112e-17
706 1 165.781 177.086 -5.55112e-17
707 1 113.867 24.8228 -5.55112e-17
708 1 84.3337 209.347 -5.55112e-17
709 1 147.238 196.23 -5.55112e-17
710 1 192.327 191.513 -5.55112e-17
711 1 111.488 93.0974 -5.55112e-17
712 1 192.665 207.844 -5.55112e-17
713 1 14.2678 135.807 -5.55112e-17
714 1 135.968 13.173 -5.55112e-17
715 1 56.1164 199.497 -5.55112e-17
716 1 40.6838 123.448 -5.55112e-17
717 1 51.8345 107.524 -5.55112e-17
718 1 131.146 185.014 -5.55112e-17
719 2 119.557 79.2354 -5.55112e-17
720 1 98.7457 64.9939 -5.55112e-17
721 1 95.4943 98.8245 -5.55112e-17
722 1 133.746 63.2384 -5.55112e-17
723 2 48.4525 45.5466 -5.55112e-17
724 1 15.2118 49.2834 -5.55112e-17
725 1 29.3123 109.037 -5.55112e-17
726 1 189.538 45.8155 -5.55112e-17
727 1 148.561 205.32 -5.55112e-17
728 2 18.28 87.7851 -5.55112e-17
729 1 133.93 164.94 -5.55112e-17
730 1 174.351 198.979 -5.55112e-17
731 1 49.1146 190.157 -5.55112e-17
732 1 218.625 9.14536 -5.55112e-17
733 1 205.307 33.9806 -5.55112e-17
734 1 4.141 29.6521 -5.55112e-17
735 1 40.9739 22.9789 -5.55112e-17
736 2 190.277 74.0416 -5.55112e-17
737 1 81.689 86.6497 -5.55112e-17
738 1 18.628 166.394 -5.55112e-17
739 1 106.076 156.303 -5.55112e-17
740 1 60.1621 116.132 -5.55112e-17
741 2 189.051 77.8484 -5.55112e-17
742 1 74.3317 44.0205 -5.55112e-17
743 1 202.75 66.1953 -5.55112e-17
744 2 210.898 172.626 -5.55112e-17
745 1 130.929 32.2756 -5.55112e-17
746 1 14.1233 29.0351 -5.55112e-17
747 2 204.18 22.0826 -5.55112e-17
748 1 182.726 192.895 -5.55112e-17
749 1 196.574 210.748 -5.55112e-17
750 1 213.545 163.886 -5.55112e-17
751 1 59.5439 58.7789 -5.55112e-17
752 1 178.066 105.614 -5.55112e-17
753 1 99.2485 150.843 -5.55112e-17
754 1 14.8359 215.331 -5.55112e-17
755 1 83.5036 194.947 -5.55112e-17
756 2 103.655 196.238 -5.55112e-17
757 1 27.2514 18.2679 -5.55112e-17
758 1 135.445 146.027 -5.55112e-17
759 1 73.1527 107.733 -5.55112e-17
760 1 95.2027 39.9148 -5.55112e-17
761 1 58.6474 161.529 -5.55112e-17
762 1 43.4389 23.7259 -5.55112e-17
763 1 114.101 99.725 -5.55112e-17
764 2 177.716 148.029 -5.55112e-17
765 1 92.0208 62.4582 -5.55112e-17
766 1 114.469 35.9027 -5.55112e-17
767 1 96.9897 78.3769 -5.55112e-17
768 1 9.24376 4.07865 -5.55112e-17
769 1 107.88 75.8929 -5.55112e-17
770 2 113.307 109.874 -5.55112e-17
771 1 143.485 178.863 -5.55112e-17
772 1 102.24 28.5903 -5.55112e-17
773 1 109.779 167.431 -5.55112e-17
774 1 111.298 124.04 -5.55112e-17
775 1 68.8484 7.10599 -5.55112e-17
776 1 38.0466 11.1097 -5.55112e-17
777 1 108.106 182.055 -5.55112e-17
778 1 22.652 18.7188 -5.55112e-17
779 1 191.655 44.2046 -5.55112e-17
780 1 3.60178 169.315 -5.55112e-17
781 1 127.282 99.8661 -5.55112e-17
782 1 175.454 49.4791 -5.55112e-17
783 1 98.4553 15.6729 -5.55112e-17
784 2 194.723 159.138 -5.55112e-17
785 1 111.467 165.163 -5.55112e-17
786 1 119.468 177.174 -5.55112e-17
787 1 185.275 74.7058 -5.55112e-17
788 1 177.044 45.2581 -5.55112e-17
789 2 142.844 109.019 -5.55112e-17
790 1 109.76 28.2054 -5.55112e-17
791 2 14.6134 121.976 -5.55112e-17
792 2 215.86 13.2978 -5.55112e-17
793 2 115.951 69.0352 -5.55112e-17
794 1 56.1997 188.453 -5.55112e-17
795 1 132.357 53.5498 -5.55112e-17
796 1 130.698 21.9762 -5.55112e-17
797 1 198.051 155.531 -5.55112e-17
798 2 195.947 203.545 -5.55112e-17
799 2 207.783 64.8628 -5.55112e-17
800 2 55.5959 217.346 -5.55112e-17
801 1 103.173 132.831 -5.55112e-17
802 1 124.576 75.9212 -5.55112e-17
803 1 181.936 68.4006 -5.55112e-17
804 2 122.507 205.163 -5.55112e-17
805 1 44.804 106.665 -5.55112e-17
806 1 11.8426 117.223 -5.55112e-17
807 2 100.27 99.5978 -5.55112e-17
808 1 14.6053 116.714 -5.55112e-17
809 2 57.7853 134.394 -5.55112e-17
810 1 129.838 197.864 -5.55112e-17
811 1 32.8579 6.27741 -5.55112e-17
812 1 131.948 34.6553 -5.55112e-17
813 2 107.677 111.29 -5.55112e-17
814 1 147.437 69.3044 -5.55112e-17
815 1 89.5582 164.418 -5.55112e-17
816 1 200.764 9.85328 -5.55112e-17
817 1 108.315 215.001 -5.55112e-17
818 1 57.4452 101.8 -5.55112e-17
819 1 9.68299 135.919 -5.55112e-17
820 1 45.5321 120.157 -5.55112e-17
821 1 94.8949 151.937 -5.55112e-17
822 2 41.919 135.58 -5.55112e-17
823 2 139.132 91.7179 -5.55112e-17
824 1 35.1777 108.168 -5.55112e-17
825 1 65.3445 15.6609 -5.55112e-17
826 1 190.267 13.8962 -5.55112e-17
827 1 192.497 107.282 -5.55112e-17
828 1 142.106 123.558 -5.55112e-17
829 1 127.293 210.974 -5.55112e-17
830 1 81.7446 128.074 -5.55112e-17
831 1 217.222 42.3412 -5.55112e-17
832 1 93.0069 87.3052 -5.55112e-17
833 1 62.129 84.6893 -5.55112e-17
834 1 107.053 9.48523 -5.55112e-17
835 1 58.182 218.645 -5.55112e-17
836 1 10.7401 50.273 -5.55112e-17
837 1 6.85386 70.509 -5.55112e-17
838 1 98.4858 178.495 -5.55112e-17
839 2 198.002 3.2619 -5.55112e-17
840 1 5.59044 203.208 -5.55112e-17
841 2 63.0039 185.019 -5.55112e-17
842 1 94.7751 91.7289 -5.55112e-17
843 2 159.559 182.934 -5.55112e-17
844 1 25.838 158.374 -5.55112e-17
845 1 71.0475 189.163 -5.55112e-17
846 1 159.131 191.021 -5.55112e-17
847 1 42.114 140.913 -5.55112e-17
848 1 188.376 117.326 -5.55112e-17
849 1 189.499 166.746 -5.55112e-17
850 1 39.5725 129.167 -5.55112e-17
851 1 89.3891 37.5612 -5.55112e-17
852 1 12.0475 209.05 -5.55112e-17
853 1 32.5028 138.767 -5.55112e-17
854 1 171.13 84.7695 -5.55112e-17
855 1 126.092 19.6054 -5.55112e-17
856 1 210.107 169.926 -5.55112e-17