ITEM: TIMESTEP
0
ITEM: NUMBER OF ATOMS
7200
ITEM: BOX BOUNDS xy xz yz pp pp pp
0.0000000000000000e+00 2.1900000000000000e+02 0.0000000000000000e+00
0.0000000000000000e+00 2.1900000000000000e+02 0.0000000000000000e+00
-3.6499999999999999e-01 3.6499999999999999e-01 0.0000000000000000e+00
ITEM: ATOMS id type x y z
1 1 80.0071 212.998 -5.55112e-17
2 1 106.236 80.1868 -5.55112e-17
3 1 25.3654 36.7658 -5.55112e-17
4 1 70.4762 106.766 -5.55112e-17
5 1 94.9992 142.041 -5.55112e-17
6 1 153.477 168.579 -5.55112e-17
7 1 193.713 18.5346 -5.55112e-17
8 2 179.795 124.786 -5.55112e-17
9 1 193.101 197.496 -5.55112e-17
10 2 67.8563 205.192 -5.55112e-17
11 1 155.17 41.7045 -5.55112e-17
12 1 111.766 60.4301 -5.55112e-17
13 2 29.0918 52.4626 -5.55112e-17
14 1 79.4912 101.9 -5.55112e-17
15 1 180.964 119.498 -5.55112e-17
16 2 100.692 1.53951 -5.55112e-17
17 1 123.382 9.34662 -5.55112e-17
18 2 75.3621 52.3616 -5.55112e-17
19 1 110.425 81.4468 -5.55112e-17
20 1 199.992 96.3289 -5.55112e-17
21 1 103.664 202.553 -5.55112e-17
22 2 30.8443 165.806 -5.55112e-17
23 2 69.8558 32.4127 -5.55112e-17
24 1 174.076 133.084 -5.55112e-17
25 1 55.4953 171.599 -5.55112e-17
26 2 104.692 112.675 -5.55112e-17
27 1 194.339 192.945 -5.55112e-17
28 2 70.504 160.571 -5.55112e-17
29 1 0.473744 88.3954 -5.55112e-17
30 1 159.264 69.344 -5.55112e-17
31 1 175.639 49.0696 -5.55112e-17
32 1 68.6433 181.394 -5.55112e-17
33 1 199.558 193.581 -5.55112e-17
34 1 58.4128 34.9857 -5.55112e-17
35 1 166.353 21.0036 -5.55112e-17
36 1 210.823 144.709 -5.55112e-17
37 2 126.915 126.918 -5.55112e-17
38 1 130.973 122.45 -5.55112e-17
39 1 117.286 139.286 -5.55112e-17
40 1 167.733 197.075 -5.55112e-17
41 1 77.072 23.2042 -5.55112e-17
42 1 67.6513 70.4532 -5.55112e-17
43 1 170.512 65.7981 -5.55112e-17
44 1 140.702 104.299 -5.55112e-17
45 1 216.688 55.7026 -5.55112e-17
46 1 114.945 181.498 -5.55112e-17
47 1 46.3891 172.345 -5.55112e-17
48 2 17.8554 42.8929 -5.55112e-17
49 1 18.8884 76.4567 -5.55112e-17
50 1 57.825 175.515 -5.55112e-17
51 1 100.6 44.955 -5.55112e-17
52 1 185.296 107.83 -5.55112e-17
53 1 93.0415 211.789 -5.55112e-17
54 1 183.146 106.13 -5.55112e-17
55 1 3.44693 206.865 -5.55112e-17
56 1 119.102 143.376 -5.55112e-17
57 2 126.638 180.579 -5.55112e-17
58 1 208.45 7.21137 -5.55112e-17
59 1 175.366 81.026 -5.55112e-17
60 2 184.156 103.573 -5.55112e-17
61 2 43.9763 151.619 -5.55112e-17
62 1 24.3971 92.1964 -5.55112e-17
63 1 91.5244 10.8661 -5.55112e-17
64 1 154.449 2.19746 -5.55112e-17
65 1 183.133 143.177 -5.55112e-17
66 1 118.538 89.1313 -5.55112e-17
67 1 202.826 146.875 -5.55112e-17
68 1 60.5519 213.099 -5.55112e-17
69 1 110.768 187.234 -5.55112e-17
70 1 33.4309 79.2301 -5.55112e-17
71 1 134.875 190.824 -5.55112e-17
72 1 130.672 76.4674 -5.55112e-17
73 1 162.161 151.872 -5.55112e-17
74 1 174.567 1.48637 -5.55112e-17
75 2 121.377 212.594 -5.55112e-17
76 1 178.516 13.5703 -5.55112e-17
77 1 210.898 199.311 -5.55112e-17
78 1 59.5605 200.761 -5.55112e-17
79 2 124.074 81.0363 -5.55112e-17
80 1 65.4917 160.34 -5.55112e-17
81 1 146.511 134.868 -5.55112e-17
82 1 80.532 192.779 -5.55112e-17
83 2 101.063 182.475 -5.55112e-17
84 1 207.623 18.3963 -5.55112e-17
85 1 37.596 127.203 -5.55112e-17
86 1 112.574 129.843 -5.55112e-17
87 1 47.566 45.4706 -5.55112e-17
88 1 201.743 9.41154 -5.55112e-17
89 2 48.8798 15.7275 -5.55112e-17
90 2 5.42887 181.319 -5.55112e-17
91 1 189.054 25.2828 -5.55112e-17
92 2 155.77 202.54 -5.55112e-17
93 1 149.866 207.348 -5.55112e-17
94 2 152.377 29.7264 -5.55112e-17
95 1 36.1586 16.2774 -5.55112e-17
96 1 171.924 105.098 -5.55112e-17
97 1 217.471 213.709 -5.55112e-17
98 1 121.439 56.6976 -5.55112e-17
99 1 154.179 67.2268 -5.55112e-17
100 1 124.975 165.638 -5.55112e-17
101 1 81.2778 77.7437 -5.55112e-17
102 1 192.308 69.3219 -5.55112e-17
103 1 90.5476 16.6503 -5.55112e-17
104 1 0.251634 114.537 -5.55112e-17
105 1 96.448 88.7257 -5.55112e-17
106 1 78.5739 108.635 -5.55112e-17
107 2 118.347 42.0742 -5.55112e-17
108 1 52.6892 199.619 -5.55112e-17
109 1 2.98964 134.044 -5.55112e-17
110 1 50.4922 90.6889 -5.55112e-17
111 1 33.5776 217.69 -5.55112e-17
112 1 37.7261 124.479 -5.55112e-17
113 1 143.627 138.612 -5.55112e-17
114 1 134.078 204.91 -5.55112e-17
115 1 61.163 188.192 -5.55112e-17
116 2 18.7438 177.828 -5.55112e-17
117 1 183.148 176.394 -5.55112e-17
118 1 174.32 217.75 -5.55112e-17
119 2 62.1402 103.597 -5.55112e-17
120 1 7.15679 28.0049 -5.55112e-17
121 1 170.643 58.403 -5.55112e-17
122 1 101.59 23.8377 -5.55112e-17
123 1 160.349 127.955 -5.55112e-17
124 1 200.777 217.746 -5.55112e-17
125 1 117.571 64.5015 -5.55112e-17
126 1 59.4979 57.1649 -5.55112e-17
127 1 178.049 61.5959 -5.55112e-17
128 1 175.626 182.205 -5.55112e-17
129 1 4.33834 154.239 -5.55112e-17
130 1 46.7044 131.829 -5.55112e-17
131 1 191.301 159.66 -5.55112e-17
132 2 3.38894 3.18026 -5.55112e-17
133 1 126.762 104.611 -5.55112e-17
134 1 28.7774 65.5991 -5.55112e-17
135 1 145.939 190.815 -5.55112e-17
136 1 202.454 166.169 -5.55112e-17
137 1 152.069 199.85 -5.55112e-17
138 1 42.8835 28.1988 -5.55112e-17
139 1 217.608 92.7253 -5.55112e-17
140 2 149.633 198.431 -5.55112e-17
141 1 182.78 53.9403 -5.55112e-17
142 2 187.281 12.9789 -5.55112e-17
143 1 49.6006 164.959 -5.55112e-17
144 2 44.7372 4.80355 -5.55112e-17
145 1 105.873 39.9642 -5.55112e-17
146 1 147.448 43.7396 -5.55112e-17
147 1 175.729 166.565 -5.55112e-17
148 1 57.3982 206.833 -5.55112e-17
149 1 64.1996 73.007 -5.55112e-17
150 1 188.739 19.3473 -5.55112e-17
151 1 82.2306 173.912 -5.55112e-17
152 1 38.5391 109.291 -5.55112e-17
153 2 24.3116 217.23 -5.55112e-17
154 1 175.437 121.641 -5.55112e-17
155 1 152.685 161.493 -5.55112e-17
156 2 24.7007 194.49 -5.55112e-17
157 1 187.546 69.7125 -5.55112e-17
158 1 48.1927 214.54 -5.55112e-17
159 1 10.1785 178.768 -5.55112e-17
160 1 62.715 171.377 -5.55112e-17
161 1 55.0176 216.953 -5.55112e-17
162 1 39.3472 153.299 -5.55112e-17
163 1 79.595 18.9459 -5.55112e-17
164 1 147.645 71.3346 -5.55112e-17
165 1 192.205 206.626 -5.55112e-17
166 2 174.15 51.7687 -5.55112e-17
167 1 130.922 68.5232 -5.55112e-17
168 1 134.689 171.648 -5.55112e-17
169 1 112.669 127.157 -5.55112e-17
170 1 112.453 173.463 -5.55112e-17
171 1 185.337 123.075 -5.55112e-17
172 1 17.6729 59.6209 -5.55112e-17
173 1 40.6627 157.817 -5.55112e-17
174 1 101.257 105.672 -5.55112e-17
175 2 159.474 164.408 -5.55112e-17
176 1 47.4928 155.109 -5.55112e-17
177 2 40.3046 89.4535 -5.55112e-17
178 1 51.4369 86.3798 -5.55112e-17
179 1 208.653 152.808 -5.55112e-17
180 1 186.037 213.889 -5.55112e-17
181 1 210.883 123.762 -5.55112e-17
182 2 190.904 17.0657 -5.55112e-17
183 1 77.7474 145.363 -5.55112e-17
184 1 186.705 39.4399 -5.55112e-17
185 2 120.538 32.5336 -5.55112e-17
186 2 178.065 112.926 -5.55112e-17
187 1 76.8313 70.9647 -5.55112e-17
188 1 137.553 6.57847 -5.55112e-17
189 1 149.965 195.844 -5.55112e-17
190 2 25.8402 167.631 -5.55112e-17
191 1 148.447 217.301 -5.55112e-17
192 2 203.943 62.8995 -5.55112e-17
193 2 99.4702 173.912 -5.55112e-17
194 1 201.862 129.732 -5.55112e-17
195 1 216.668 173.193 -5.55112e-17
196 1 200.218 124.929 -5.55112e-17
197 1 16.5969 47.6889 -5.55112e-17
198 2 55.5258 102.478 -5.55112e-17
199 1 23.6095 26.9296 -5.55112e-17
200 1 95.8183 29.5556 -5.55112e-17
201 2 65.3471 127.591 -5.55112e-17
202 1 79.8617 13.3778 -5.55112e-17
203 1 152.582 81.3965 -5.55112e-17
204 1 168.245 135.761 -5.55112e-17
205 2 13.3919 100.52 -5.55112e-17
206 1 123.458 117.631 -5.55112e-17
207 1 121.517 79.64 -5.55112e-17
208 1 45.9358 64.5097 -5.55112e-17
209 1 125.342 209.428 -5.55112e-17
210 1 7.67437 76.0811 -5.55112e-17
211 2 148.391 181.41 -5.55112e-17
212 1 180.239 57.7048 -5.55112e-17
213 1 167.513 73.1798 -5.55112e-17
214 1 80.8566 46.1296 -5.55112e-17
215 1 146.471 204.889 -5.55112e-17
216 1 142.326 117.864 -5.55112e-17
217 1 154.631 135.973 -5.55112e-17
218 2 12.4497 130.49 -5.55112e-17
219 1 110.103 174.852 -5.55112e-17
220 2 99.0925 110.79 -5.55112e-17
221 1 201.955 68.0144 -5.55112e-17
222 1 136.078 141.059 -5.55112e-17
223 1 35.6118 171.822 -5.55112e-17
224 2 49.5503 182.928 -5.55112e-17
225 1 5.38212 112.242 -5.55112e-17
226 1 18.3363 183.119 -5.55112e-17
227 2 30.4055 6.83433 -5.55112e-17
228 1 121.783 139.695 -5.55112e-17
229 1 15.8847 178.779 -5.55112e-17
230 1 175.826 149.468 -5.55112e-17
231 1 140.2 81.0027 -5.55112e-17
232 1 206.666 46.7636 -5.55112e-17
233 1 26.6661 80.7018 -5.55112e-17
234 1 127.5 29.0076 -5.55112e-17
235 1 207.35 69.6243 -5.55112e-17
236 1 32.1094 117.013 -5.55112e-17
237 1 7.07077 153.409 -5.55112e-17
238 1 115.769 134.528 -5.55112e-17
239 2 28.0019 101.255 -5.55112e-17
240 1 138.559 202.328 -5.55112e-17
241 2 97.7059 160.288 -5.55112e-17
242 2 207.467 216.18 -5.55112e-17
243 2 63.3087 24.3603 -5.55112e-17
244 1 90.5265 61.6293 -5.55112e-17
245 1 90.7284 96.6844 -5.55112e-17
246 1 180.3 143.76 -5.55112e-17
247 1 178.383 118.073 -5.55112e-17
248 1 127.237 24.4746 -5.55112e-17
249 1 11.2674 70.0402 -5.55112e-17
250 2 91.6648 36.004 -5.55112e-17
251 1 101.695 12.073 -5.55112e-17
252 1 183.227 23.0727 -5.55112e-17
253 1 150.16 56.9407 -5.55112e-17
254 2 68.1126 173.663 -5.55112e-17
255 1 209.937 159.974 -5.55112e-17
256 1 100.808 166.329 -5.55112e-17
257 1 25.9719 126.722 -5.55112e-17
258 2 151.433 23.2407 -5.55112e-17
259 1 19.7345 107.997 -5.55112e-17
260 1 103.381 123.462 -5.55112e-17
261 1 211.351 182.188 -5.55112e-17
262 1 58.0555 78.7547 -5.55112e-17
263 1 33.2171 64.4346 -5.55112e-17
264 1 178.798 216.995 -5.55112e-17
265 1 19.1094 24.6025 -5.55112e-17
266 1 178.876 40.2795 -5.55112e-17
267 1 187.709 66.7499 -5.55112e-17
268 1 34.8315 46.7232 -5.55112e-17
269 1 117.475 102.488 -5.55112e-17
270 1 92.234 108.592 -5.55112e-17
271 1 95.0514 77.2494 -5.55112e-17
272 1 217.03 160.89 -5.55112e-17
273 1 72.8714 14.2371 -5.55112e-17
274 2 141.295 115.045 -5.55112e-17
275 1 86.1923 87.0965 -5.55112e-17
276 2 204.587 35.9923 -5.55112e-17
277 2 139.395 38.3037 -5.55112e-17
278 1 63.2221 160.987 -5.55112e-17
279 2 98.4596 22.7247 -5.55112e-17
280 1 187.38 10.0465 -5.55112e-17
281 1 95.9389 2.55596 -5.55112e-17
282 1 98.5049 170.961 -5.55112e-17
283 1 131.814 150.787 -5.55112e-17
284 1 123.883 66.0135 -5.55112e-17
285 1 1.76582 216.467 -5.55112e-17
286 2 80.095 5.23149 -5.55112e-17
287 1 53.8613 107.274 -5.55112e-17
288 1 10.0347 86.4355 -5.55112e-17
289 1 49.1594 71.4655 -5.55112e-17
290 1 197.745 198.105 -5.55112e-17
291 1 169.862 145.913 -5.55112e-17
292 2 42.6117 7.92298 -5.55112e-17
293 2 113.144 6.16625 -5.55112e-17
294 1 93.4585 22.6679 -5.55112e-17
295 1 147.988 212.794 -5.55112e-17
296 1 126.032 13.1944 -5.55112e-17
297 1 176.625 153.728 -5.55112e-17
298 1 178.074 206.227 -5.55112e-17
299 1 136.851 110.981 -5.55112e-17
300 2 53.6216 141.864 -5.55112e-17
301 1 37.0543 57.8008 -5.55112e-17
302 1 82.1279 161.897 -5.55112e-17
303 2 63.3939 63.7654 -5.55112e-17
304 2 162.637 160.091 -5.55112e-17
305 1 105.934 97.4877 -5.55112e-17
306 1 41.3262 61.3276 -5.55112e-17
307 1 10.4421 183.138 -5.55112e-17
308 1 89.0999 59.7846 -5.55112e-17
309 2 110.172 154.456 -5.55112e-17
310 1 2.37437 40.8939 -5.55112e-17
311 1 56.8906 60.1923 -5.55112e-17
312 1 184.164 147.614 -5.55112e-17
313 2 132.251 1.53593 -5.55112e-17
314 1 87.5523 92.3154 -5.55112e-17
315 1 119.997 152.772 -5.55112e-17
316 1 25.5666 48.1591 -5.55112e-17
317 1 20.2785 141.261 -5.55112e-17
318 1 93.771 197.253 -5.55112e-17
319 1 101.82 19.0487 -5.55112e-17
320 1 135.746 103.702 -5.55112e-17
321 1 28.2277 48.3922 -5.55112e-17
322 1 140.382 144.75 -5.55112e-17
323 1 186.316 180.439 -5.55112e-17
324 1 99.9543 77.3835 -5.55112e-17
325 1 132.591 148.224 -5.55112e-17
326 1 87.1624 147.302 -5.55112e-17
327 2 98.3884 186.951 -5.55112e-17
328 1 204.976 32.852 -5.55112e-17
329 2 215.623 121.616 -5.55112e-17
330 1 28.2614 122.591 -5.55112e-17
331 1 163.318 198.058 -5.55112e-17
332 2 154.076 93.509 -5.55112e-17
333 1 27.4408 212.817 -5.55112e-17
334 1 111.046 179.865 -5.55112e-17
335 1 1.6792 201.884 -5.55112e-17
336 1 198.534 118.564 -5.55112e-17
337 1 164.318 217.884 -5.55112e-17
338 1 154.26 19.5659 -5.55112e-17
339 1 171.274 102.709 -5.55112e-17
340 1 176.93 128.837 -5.55112e-17
341 1 114.458 195.288 -5.55112e-17
342 1 155.16 173.419 -5.55112e-17
343 1 133.432 104.816 -5.55112e-17
344 1 82.2339 170.897 -5.55112e-17
345 1 26.4974 13.096 -5.55112e-17
346 1 17.3003 185.597 -5.55112e-17
347 1 53.2052 98.2343 -5.55112e-17
348 1 125.231 175.152 -5.55112e-17
349 1 56.489 108.229 -5.55112e-17
350 2 82.2349 69.8484 -5.55112e-17
351 1 169.629 39.2291 -5.55112e-17
352 1 203.262 157.386 -5.55112e-17
353 1 32.2677 207.563 -5.55112e-17
354 1 179.636 160.596 -5.55112e-17
355 1 90.1132 137.185 -5.55112e-17
356 1 168.616 16.7397 -5.55112e-17
357 1 37.1094 155.09 -5.55112e-17
358 1 210.376 196.816 -5.55112e-17
359 1 181.955 187.721 -5.55112e-17
360 1 16.0172 116.736 -5.55112e-17
361 1 117.431 182.403 -5.55112e-17
362 1 199.116 2.98433 -5.55112e-17
363 1 190.395 172.967 -5.55112e-17
364 2 195.804 137.11 -5.55112e-17
365 1 185.095 112.96 -5.55112e-17
366 1 124.054 156.303 -5.55112e-17
367 1 67.5751 118.16 -5.55112e-17
368 1 196.927 1.80183 -5.55112e-17
369 2 97.7672 192.123 -5.55112e-17
370 1 7.31398 17.8707 -5.55112e-17
371 1 23.0781 121.567 -5.55112e-17
372 2 197.728 24.8606 -5.55112e-17
373 2 140.773 12.9077 -5.55112e-17
374 1 157.623 53.0385 -5.55112e-17
375 1 185.593 117.24 -5.55112e-17
376 1 52.8263 160.663 -5.55112e-17
377 1 205.921 76.5363 -5.55112e-17
378 1 87.1421 174.513 -5.55112e-17
379 1 8.65055 81.5117 -5.55112e-17
380 1 187.411 137.549 -5.55112e-17
381 1 32.148 189.023 -5.55112e-17
382 1 49.2473 124.92 -5.55112e-17
383 1 77.7901 66.9081 -5.55112e-17
384 1 52.7392 25.1926 -5.55112e-17
385 1 203.458 119.932 -5.55112e-17
386 2 51.8292 12.0663 -5.55112e-17
387 1 172.528 207.55 -5.55112e-17
388 1 83.1239 109.748 -5.55112e-17
389 1 86.1994 155.401 -5.55112e-17
390 2 209.981 167.819 -5.55112e-17
391 2 201.73 207.903 -5.55112e-17
392 1 83.6228 185.136 -5.55112e-17
393 1 200.343 52.8339 -5.55112e-17
394 1 92.6697 116.214 -5.55112e-17
395 1 24.8146 17.4831 -5.55112e-17
396 1 197.513 171.772 -5.55112e-17
397 1 126.259 58.5683 -5.55112e-17
398 1 218.059 155.612 -5.55112e-17
399 1 190.039 30.4708 -5.55112e-17
400 1 100.067 30.9827 -5.55112e-17
401 1 100.693 192.516 -5.55112e-17
402 2 9.0443 141.991 -5.55112e-17
403 1 205.283 40.9934 -5.55112e-17
404 1 12.0356 105.47 -5.55112e-17
405 1 20.8999 189.77 -5.55112e-17
406 1 180.631 49.7047 -5.55112e-17
407 2 26.3906 60.982 -5.55112e-17
408 1 46.0652 24.9725 -5.55112e-17
409 1 211.866 112.798 -5.55112e-17
410 1 30.513 203.38 -5.55112e-17
411 1 184.52 159.376 -5.55112e-17
412 1 136.193 13.4444 -5.55112e-17
413 1 57.1218 115.956 -5.55112e-17
414 1 0.718136 22.4078 -5.55112e-17
415 1 174.91 158.933 -5.55112e-17
416 1 61.286 28.8108 -5.55112e-17
417 1 135.908 78.9297 -5.55112e-17
418 2 172.564 186.278 -5.55112e-17
419 1 124.428 134.03 -5.55112e-17
420 2 166.616 94.2203 -5.55112e-17
421 1 20.5621 116.278 -5.55112e-17
422 1 140.198 16.2919 -5.55112e-17
423 2 180.833 181.284 -5.55112e-17
424 1 90.9859 165.575 -5.55112e-17
425 1 148.205 162.142 -5.55112e-17
426 1 150.55 138.439 -5.55112e-17
427 1 116.329 116.626 -5.55112e-17
428 1 73.9563 144.285 -5.55112e-17
429 1 179.579 139.304 -5.55112e-17
430 1 170.938 17.4553 -5.55112e-17
431 1 166.803 170.525 -5.55112e-17
432 1 146.918 30.7154 -5.55112e-17
433 1 117.402 153.871 -5.55112e-17
434 1 46.6277 31.8855 -5.55112e-17
435 1 150.41 133.474 -5.55112e-17
436 1 110.864 15.4708 -5.55112e-17
437 1 193.412 154.379 -5.55112e-17
438 2 135.222 65.9589 -5.55112e-17
439 1 92.6624 18.0339 -5.55112e-17
440 1 214.107 79.9084 -5.55112e-17
441 1 0.54082 180.778 -5.55112e-17
442 1 118.285 207.337 -5.55112e-17
443 1 10.0012 77.0023 -5.55112e-17
444 1 202.528 82.7239 -5.55112e-17
445 1 129.565 70.697 -5.55112e-17
446 1 182.96 112.005 -5.55112e-17
447 1 43.8797 176.505 -5.55112e-17
448 1 116.324 13.8361 -5.55112e-17
449 1 163.866 138.349 -5.55112e-17
450 1 134.293 202.585 -5.55112e-17
451 1 156.581 28.5899 -5.55112e-17
452 1 138.777 153.94 -5.55112e-17
453 1 206.458 174.738 -5.55112e-17
454 1 197.944 20.1257 -5.55112e-17
455 1 136.216 93.3691 -5.55112e-17
456 1 193.783 217.631 -5.55112e-17
457 1 66.559 68.222 -5.55112e-17
458 1 171.375 183.623 -5.55112e-17
459 1 16.1974 30.9565 -5.55112e-17
460 1 201.752 114.522 -5.55112e-17
461 1 200.167 179.739 -5.55112e-17
462 1 36.712 147.629 -5.55112e-17
463 1 154.299 27.4565 -5.55112e-17
464 1 126.686 204.509 -5.55112e-17
465 1 190.678 124.61 -5.55112e-17
466 1 47.4264 136.798 -5.55112e-17
467 1 43.2788 77.1317 -5.55112e-17
468 1 199.884 172.274 -5.55112e-17
469 1 56.1222 105.685 -5.55112e-17
470 1 65.3392 26.2045 -5.55112e-17
471 1 107.744 192.037 -5.55112e-17
472 1 36.1746 79.5234 -5.55112e-17
473 1 109.79 103.995 -5.55112e-17
474 1 105.108 153.449 -5.55112e-17
475 1 85.1347 187.563 -5.55112e-17
476 2 198.709 10.3176 -5.55112e-17
477 1 180.085 93.3206 -5.55112e-17
478 1 18.1453 190.193 -5.55112e-17
479 1 202.798 41.0909 -5.55112e-17
480 1 48.1735 39.1897 -5.55112e-17
481 1 18.5113 126.124 -5.55112e-17
482 1 112.059 143.549 -5.55112e-17
483 1 117.017 156.447 -5.55112e-17
484 2 77.683 49.8783 -5.55112e-17
485 1 64.9293 203.485 -5.55112e-17
486 1 65.7838 28.8815 -5.55112e-17
487 1 65.5701 211.003 -5.55112e-17
488 1 55.5814 128.291 -5.55112e-17
489 1 173.035 82.9805 -5.55112e-17
490 1 216.367 209.856 -5.55112e-17
491 1 164.44 101.201 -5.55112e-17
492 1 206.098 118.102 -5.55112e-17
493 1 170.499 181.233 -5.55112e-17
494 1 171.888 162.336 -5.55112e-17
495 1 124.422 24.7689 -5.55112e-17
496 2 85.391 204.474 -5.55112e-17
497 1 38.7788 25.4376 -5.55112e-17
498 1 118.967 123.732 -5.55112e-17
499 2 133.344 178.777 -5.55112e-17
500 1 100.088 210.642 -5.55112e-17
501 2 153.633 210.942 -5.55112e-17
502 2 137.841 156.822 -5.55112e-17
503 1 161.68 157.032 -5.55112e-17
504 1 124.639 153.701 -5.55112e-17
505 1 172.14 38.1513 -5.55112e-17
506 1 19.3876 187.716 -5.55112e-17
507 1 89.2414 132.894 -5.55112e-17
508 1 139.156 46.7497 -5.55112e-17
509 2 55.9139 80.9707 -5.55112e-17
510 2 163.703 88.9443 -5.55112e-17
511 1 63.5247 80.6301 -5.55112e-17
512 2 39.1649 80.1113 -5.55112e-17
513 1 57.4828 215.901 -5.55112e-17
514 1 75.9321 87.0551 -5.55112e-17
515 1 4.42656 202.467 -5.55112e-17
516 1 52.2365 189.281 -5.55112e-17
517 1 119.695 128.957 -5.55112e-17
518 2 90.2822 68.9697 -5.55112e-17
519 1 16.9806 28.5792 -5.55112e-17
520 2 33.1414 49.1636 -5.55112e-17
521 1 188.434 116.533 -5.55112e-17
522 1 22.9942 9.05502 -5.55112e-17
523 1 2.11341 138.341 -5.55112e-17
524 1 18.0782 70.2418 -5.55112e-17
525 1 69.5196 201.312 -5.55112e-17
526 1 141.138 32.8389 -5.55112e-17
527 1 78.3888 0.442704 -5.55112e-17
528 1 136.083 19.534 -5.55112e-17
529 1 66.1853 145.744 -5.55112e-17
530 1 142.641 88.0867 -5.55112e-17
531 1 91.9199 148.292 -5.55112e-17
532 1 66.9053 176.465 -5.55112e-17
533 1 103.417 165.002 -5.55112e-17
534 1 104.43 139.551 -5.55112e-17
535 1 202.393 139.455 -5.55112e-17
536 1 167.248 130.451 -5.55112e-17
537 1 178.264 173.306 -5.55112e-17
538 1 132.71 19.8951 -5.55112e-17
539 1 54.6776 3.4694 -5.55112e-17
540 1 158.304 116.316 -5.55112e-17
541 1 95.6093 212.201 -5.55112e-17
542 1 79.486 27.0253 -5.55112e-17
543 1 96.2709 165.69 -5.55112e-17
544 1 162.877 187.395 -5.55112e-17
545 1 43.7861 129.532 -5.55112e-17
546 1 172.23 2.96993 -5.55112e-17
547 1 14.063 121.43 -5.55112e-17
548 1 61.5215 159.223 -5.55112e-17
549 1 35.2871 36.8697 -5.55112e-17
550 2 213.997 125.24 -5.55112e-17
551 2 119.996 101.395 -5.55112e-17
552 2 155.512 194.404 -5.55112e-17
553 1 126.849 211.651 -5.55112e-17
554 1 199.917 69.6099 -5.55112e-17
555 2 199.318 57.9455 -5.55112e-17
556 1 159.692 14.0212 -5.55112e-17
557 1 55.1202 39.3378 -5.55112e-17
558 1 169.889 160.73 -5.55112e-17
559 1 170.842 14.875 -5.55112e-17
560 1 110.079 42.4382 -5.55112e-17
561 1 177.675 158.241 -5.55112e-17
562 1 171.486 155.262 -5.55112e-17
563 2 180.35 175.929 -5.55112e-17
564 1 44.2797 57.6194 -5.55112e-17
565 1 81.0931 218.693 -5.55112e-17
566 1 47.9808 80.89 -5.55112e-17
567 1 194.861 93.6624 -5.55112e-17
568 1 73.0295 196.884 -5.55112e-17
569 1 79.1905 151.872 -5.55112e-17
570 1 128.893 129.354 -5.55112e-17
571 1 184.283 185.404 -5.55112e-17
572 1 150.454 98.1526 -5.55112e-17
573 1 168.081 46.966 -5.55112e-17
574 1 208.527 179.001 -5.55112e-17
575 1 187.315 56.9498 -5.55112e-17
576 1 185.461 110.334 -5.55112e-17
577 1 151.337 10.9064 -5.55112e-17
578 1 151.257 191.65 -5.55112e-17
579 1 12.7364 13.5088 -5.55112e-17
580 1 150.193 40.1087 -5.55112e-17
581 1 186.794 151.627 -5.55112e-17
582 1 23.1097 48.2615 -5.55112e-17
583 1 179.708 2.993 -5.55112e-17
584 2 37.955 158.157 -5.55112e-17
585 1 72.1083 115.561 -5.55112e-17
586 1 116.245 164.525 -5.55112e-17
587 1 198.988 60.8152 -5.55112e-17
588 1 38.4773 168.256 -5.55112e-17
589 1 116.177 187.6 -5.55112e-17
590 1 76.8271 20.0647 -5.55112e-17
591 1 67.743 161.81 -5.55112e-17
592 1 216.205 106.531 -5.55112e-17
593 1 202.274 33.7755 -5.55112e-17
594 1 5.30652 205.05 -5.55112e-17
595 1 102.715 77.4185 -5.55112e-17
596 1 215.954 45.8331 -5.55112e-17
597 2 178.829 21.7484 -5.55112e-17
598 1 188.644 218.195 -5.55112e-17
599 1 9.70095 37.9949 -5.55112e-17
600 1 116.991 190.237 -5.55112e-17
601 1 75.9161 184.952 -5.55112e-17
602 1 118.378 216.242 -5.55112e-17
603 1 2.67092 24.0841 -5.55112e-17
604 1 117.077 209.492 -5.55112e-17
605 2 94.7292 113.836 -5.55112e-17
606 1 151.413 167.324 -5.55112e-17
607 2 159.129 170.231 -5.55112e-17
608 1 121.464 115.202 -5.55112e-17
609 1 57.7177 145.21 -5.55112e-17
610 1 181.292 141.251 -5.55112e-17
611 1 23.1942 136.859 -5.55112e-17
612 1 37.4266 67.2921 -5.55112e-17
613 1 201.98 177.536 -5.55112e-17
614 2 189.141 169.871 -5.55112e-17
615 1 77.9074 209.026 -5.55112e-17
616 1 180.53 100.583 -5.55112e-17
617 1 57.3075 191.05 -5.55112e-17
618 1 201.914 171.324 -5.55112e-17
619 1 159.59 106.824 -5.55112e-17
620 1 144.579 83.7051 -5.55112e-17
621 1 153.628 85.6299 -5.55112e-17
622 1 105.79 185.936 -5.55112e-17
623 1 192.95 212.221 -5.55112e-17
624 1 22.1083 37.407 -5.55112e-17
625 1 195.524 79.9945 -5.55112e-17
626 1 100.807 213.21 -5.55112e-17
627 1 79.8408 90.1095 -5.55112e-17
628 1 66.9481 9.05726 -5.55112e-17
629 1 72.4501 136.522 -5.55112e-17
630 2 142.487 39.4593 -5.55112e-17
631 1 46.0054 115.347 -5.55112e-17
632 1 76.3237 134.392 -5.55112e-17
633 1 38.9812 207.702 -5.55112e-17
634 1 149.478 61.9199 -5.55112e-17
635 1 146.344 115.987 -5.55112e-17
636 1 183.548 75.985 -5.55112e-17
637 1 13.5486 40.9239 -5.55112e-17
638 1 215.809 60.8083 -5.55112e-17
639 2 46.835 50.9446 -5.55112e-17
640 1 150.008 160.24 -5.55112e-17
641 1 190.198 110.932 -5.55112e-17
642 1 163.311 65.5773 -5.55112e-17
643 2 172.341 35.1137 -5.55112e-17
644 1 82.9479 192.33 -5.55112e-17
645 1 129.331 181.603 -5.55112e-17
646 2 23.1194 184.747 -5.55112e-17
647 1 114.728 218.906 -5.55112e-17
648 1 149.686 91.4411 -5.55112e-17
649 2 204.268 128.131 -5.55112e-17
650 1 33.2349 199.889 -5.55112e-17
651 1 3.83366 117.681 -5.55112e-17
652 1 164.836 208.743 -5.55112e-17
653 1 157.937 213.408 -5.55112e-17
654 1 210.454 32.4488 -5.55112e-17
655 2 187.411 98.4354 -5.55112e-17
656 1 19.9693 172.59 -5.55112e-17
657 2 76.9482 39.4162 -5.55112e-17
658 1 215.504 48.6207 -5.55112e-17
659 2 196.306 190.45 -5.55112e-17
660 1 71.7351 22.4409 -5.55112e-17
661 1 49.6642 117.642 -5.55112e-17
662 1 45.3805 106.194 -5.55112e-17
663 1 98.8144 215.629 -5.55112e-17
664 1 137.563 43.054 -5.55112e-17
665 1 135.825 61.2075 -5.55112e-17
666 2 71.2245 206.398 -5.55112e-17
667 1 158.112 50.4329 -5.55112e-17
668 2 82.2017 97.3366 -5.55112e-17
669 1 100.403 54.1159 -5.55112e-17
670 1 138.24 208.879 -5.55112e-17
671 2 70.1119 176.468 -5.55112e-17
672 1 174.931 34.4748 -5.55112e-17
673 1 33.8767 53.95 -5.55112e-17
674 1 210.937 179.759 -5.55112e-17
675 1 110.494 51.8283 -5.55112e-17
676 1 166.134 126.362 -5.55112e-17
677 1 99.3767 162.457 -5.55112e-17
678 1 128.282 216.553 -5.55112e-17
679 2 168.566 187.82 -5.55112e-17
680 1 36.3292 26.1444 -5.55112e-17
681 2 145.684 9.40596 -5.55112e-17
682 1 184.593 37.7475 -5.55112e-17
683 1 45.6119 43.6652 -5.55112e-17
684 1 109.524 162.266 -5.55112e-17
685 1 149.785 72.6433 -5.55112e-17
686 1 93.449 96.2049 -5.55112e-17
687 1 148.843 149.737 -5.55112e-17
688 1 155.011 80.8831 -5.55112e-17
689 2 88.4779 31.3495 -5.55112e-17
690 1 103.156 14.6012 -5.55112e-17
691 1 54.4134 11.022 -5.55112e-17
692 1 121.717 156.908 -5.55112e-17
693 1 118.991 6.19459 -5.55112e-17
694 1 38.749 215.657 -5.55112e-17
695 1 12.5955 110.671 -5.55112e-17
696 1 127.284 102.176 -5.55112e-17
697 1 129.701 164.471 -5.55112e-17
698 1 144.99 64.4635 -5.55112e-17
699 1 197.526 165.866 -5.55112e-17
700 1 44.8185 30.0258 -5.55112e-17
701 1 4.88671 39.8586 -5.55112e-17
702 1 65.0041 88.8445 -5.55112e-17
703 2 218.119 142.81 -5.55112e-17
704 1 55.0578 198.467 -5.55112e-17
705 2 202.88 78.4314 -5.55112e-17
706 1 107.599 152.792 -5.55112e-17
707 1 107.543 68.5538 -5.55112e-17
708 1 69.2788 150.429 -5.55112e-17
709 1 158.021 196.21 -5.55112e-17
710 1 216.415 163.597 -5.55112e-17
711 1 142.132 108.642 -5.55112e-17
712 1 206.954 163.232 -5.55112e-17
713 1 143.846 115.928 -5.55112e-17
714 1 139.285 68.3639 -5.55112e-17
715 1 70.279 195.953 -5.55112e-17
716 1 84.0816 133.597 -5.55112e-17
717 1 163.536 110.96 -5.55112e-17
718 1 166.164 177.542 -5.55112e-17
719 2 70.2498 111.78 -5.55112e-17
720 1 113.358 56.0468 -5.55112e-17
721 1 177.843 82.2466 -5.55112e-17
722 1 129.519 80.717 -5.55112e-17
723 2 16.1328 67.2758 -5.55112e-17
724 1 215.101 7.92798 -5.55112e-17
725 1 13.5054 68.5011 -5.55112e-17
726 1 96.9319 108.836 -5.55112e-17
727 1 201.925 184.628 -5.55112e-17
728 2 216.661 103.2 -5.55112e-17
729 1 111.845 170.68 -5.55112e-17
730 1 57.3686 173.104 -5.55112e-17
731 1 72.0381 201.31 -5.55112e-17
732 1 52.2763 27.7232 -5.55112e-17
733 1 50.9162 35.4242 -5.55112e-17
734 1 177.757 30.0552 -5.55112e-17
735 1 29.6011 44.6887 -5.55112e-17
736 2 21.1013 78.4137 -5.55112e-17
737 1 211.727 105.296 -5.55112e-17
738 1 5.97827 207.516 -5.55112e-17
739 1 130.839 183.542 -5.55112e-17
740 1 73.7831 134.418 -5.55112e-17
741 2 178.333 45.2385 -5.55112e-17
742 1 37.6418 50.9841 -5.55112e-17
743 1 61.6401 73.1372 -5.55112e-17
744 2 207.534 148.285 -5.55112e-17
745 1 124.122 189.727 -5.55112e-17
746 1 29.5454 22.5532 -5.55112e-17
747 2 185.909 216.694 -5.55112e-17
748 1 56.1698 204.407 -5.55112e-17
749 1 198.915 0.364122 -5.55112e-17
750 1 3.50485 103.18 -5.55112e-17
751 1 62.3939 77.97 -5.55112e-17
752 1 121.594 171.158 -5.55112e-17
753 1 126.836 167.753 -5.55112e-17
754 1 204.238 209.147 -5.55112e-17
755 1 119.833 191.14 -5.55112e-17
756 2 138.866 178.458 -5.55112e-17
757 1 214.555 195.459 -5.55112e-17
758 1 10.3512 190.903 -5.55112e-17
759 1 78.3671 154.811 -5.55112e-17
760 1 112.798 80.7665 -5.55112e-17
761 1 101.597 215.689 -5.55112e-17
762 1 213.3 84.852 -5.55112e-17
763 1 35.1032 138.917 -5.55112e-17
764 2 144.013 162.127 -5.55112e-17
765 1 54.4426 83.7409 -5.55112e-17
766 1 125.642 37.8921 -5.55112e-17
767 1 66.191 59.3261 -5.55112e-17
768 1 150.27 3.01017 -5.55112e-17
769 1 63.4669 27.7829 -5.55112e-17
770 2 69.3313 101.306 -5.55112e-17
771 1 180.743 192.648 -5.55112e-17
772 1 103.035 61.8925 -5.55112e-17
773 1 89.1259 185.536 -5.55112e-17
774 1 171.413 134.476 -5.55112e-17
775 1 103.335 25.7388 -5.55112e-17
776 1 37.5199 55.5193 -5.55112e-17
777 1 192.344 185.192 -5.55112e-17
778 1 216.515 203.194 -5.55112e-17
779 1 188.351 212.691 -5.55112e-17
780 1 201.952 126.767 -5.55112e-17
781 1 44.8969 74.997 -5.55112e-17
782 1 183.074 46.0859 -5.55112e-17
783 1 114.624 26.7505 -5.55112e-17
784 2 214.716 92.2592 -5.55112e-17
785 1 134.302 195.238 -5.55112e-17
786 1 96.107 185.294 -5.55112e-17
787 1 146.953 12.0039 -5.55112e-17
788 1 146.622 46.7617 -5.55112e-17
789 2 189.319 113.967 -5.55112e-17
790 1 59.8365 51.6726 -5.55112e-17
791 2 39.8261 162.989 -5.55112e-17
792 2 218.31 7.02807 -5.55112e-17
793 2 119.071 51.6142 -5.55112e-17
794 1 81.6447 28.6705 -5.55112e-17
795 1 168.918 53.74 -5.55112e-17
796 1 71.6977 4.32836 -5.55112e-17
797 1 173.34 109.904 -5.55112e-17
798 2 196.236 48.7052 -5.55112e-17
799 2 4.53272 85.1713 -5.55112e-17
800 2 118.61 9.3125 -5.55112e-17
801 1 55.5057 112.951 -5.55112e-17
802 1 52.6714 91.8863 -5.55112e-17
803 1 172.944 66.3084 -5.55112e-17
804 2 102.197 51.6606 -5.55112e-17
805 1 19.5405 90.1871 -5.55112e-17
806 1 75.526 180.421 -5.55112e-17
807 2 137.324 98.543 -5.55112e-17
808 1 57.9771 64.1267 -5.55112e-17
809 2 191.427 89.6243 -5.55112e-17
810 1 139.369 24.8122 -5.55112e-17
811 1 211.118 208.692 -5.55112e-17
812 1 136.549 23.8533 -5.55112e-17
813 2 161.307 136.139 -5.55112e-17
814 1 110.321 128.238 -5.55112e-17
815 1 86.0327 167.635 -5.55112e-17
816 1 15.6629 12.9068 -5.55112e-17
817 1 167.826 0.64837 -5.55112e-17
818 1 69.7711 171.223 -5.55112e-17
819 1 57.4474 197.5 -5.55112e-17
820 1 34.9287 156.872 -5.55112e-17
821 1 112.902 124.754 -5.55112e-17
822 2 10.0017 176.017 -5.55112e-17
823 2 92.5684 82.8296 -5.55112e-17
824 1 88.2558 66.0351 -5.55112e-17
825 1 211.251 17.4139 -5.55112e-17
826 1 30.2281 206.022 -5.55112e-17
827 1 200.887 162.407 -5.55112e-17
828 1 142.691 106.101 -5.55112e-17
829 1 151.745 217.487 -5.55112e-17
830 1 91.8373 100.89 -5.55112e-17
831 1 179.967 11.4643 -5.55112e-17
832 1 3.48489 48.4901 -5.55112e-17
833 1 57.7917 50.0881 -5.55112e-17
834 1 93.0372 2.12398 -5.55112e-17
835 1 204.581 28.3325 -5.55112e-17
836 1 213.903 59.1753 -5.55112e-17
837 1 56.0772 70.665 -5.55112e-17
838 1 166.862 190.13 -5.55112e-17
839 2 197.157 168.937 -5.55112e-17
840 1 158.693 8.10732 -5.55112e-17
841 2 94.5241 180.089 -5.55112e-17
842 1 60.9504 16.5715 -5.55112e-17
843 2 173.639 135.928 -5.55112e-17
844 1 29.5877 211.658 -5.55112e-17
845 1 78.4828 167.767 -5.55112e-17
846 1 145.288 156.324 -5.55112e-17
847 1 82.0485 199.319 -5.55112e-17
848 1 112.488 37.8012 -5.55112e-17
849 1 200.112 140.205 -5.55112e-17
850 1 18.9371 139.028 -5.55112e-17
851 1 93.769 214.261 -5.55112e-17
852 1 83.9913 180.671 -5.55112e-17
853 1 87.3614 126.631 -5.55112e-17
854 1 103.822 87.8816 -5.55112e-17
855 1 128.794 88.7648 -5.55112e-17
856 1 84.2782 175.467 -5.55112e-17