ITEM: TIMESTEP
0
ITEM: NUMBER OF ATOMS
7200
ITEM: BOX BOUNDS xy xz yz pp pp pp
0.0000000000000000e+00 2.1900000000000000e+02 0.0000000000000000e+00
0.0000000000000000e+00 2.1900000000000000e+02 0.0000000000000000e+00
-3.6499999999999999e-01 3.6499999999999999e-01 0.0000000000000000e+00
ITEM: ATOMS id type x y z
1 1 67.5574 134.719 -5.55112e-17
2 1 183.444 108.778 -5.55112e-17
3 1 13.6191 158.496 -5.55112e-17
4 1 3.58837 86.0195 -5.55112e-17
5 1 215.441 157.19 -5.55112e-17
6 1 116.914 210.576 -5.55112e-17
7 1 42.4327 51.614 -5.55112e-17
8 2 149.22 83.193 -5.55112e-17
9 1 203.317 9.64664 -5.55112e-17
10 2 58.2012 193.349 -5.55112e-17
11 1 114.58 14.9508 -5.55112e-17
12 1 129.08 78.0459 -5.55112e-17
13 2 51.5284 79.2474 -5.55112e-17
14 1 65.5076 18.0708 -5.55112e-17
15 1 136.876 105.587 -5.55112e-17
16 2 61.1526 172.568 -5.55112e-17
17 1 114.221 31.0165 -5.55112e-17
18 2 31.5602 78.1269 -5.55112e-17
19 1 106.531 52.4441 -5.55112e-17
20 1 144.231 103.807 -5.55112e-17
21 1 41.9975 5.49102 -5.55112e-17
22 2 49.7524 147.925 -5.55112e-17
23 2 17.2351 54.3001 -5.55112e-17
24 1 159.409 99.5295 -5.55112e-17
25 1 76.0209 182.808 -5.55112e-17
26 2 86.4341 96.77 -5.55112e-17
27 1 155.717 174.356 -5.55112e-17
28 2 22.6554 156.698 -5.55112e-17
29 1 53.3002 46.618 -5.55112e-17
30 1 139.697 88.1622 -5.55112e-17
31 1 211.477 90.3762 -5.55112e-17
32 1 57.9201 104.301 -5.55112e-17
33 1 157.452 154.549 -5.55112e-17
34 1 61.3249 77.5562 -5.55112e-17
35 1 177.286 68.9015 -5.55112e-17
36 1 61.7106 75.0717 -5.55112e-17
37 2 136.361 140.45 -5.55112e-17
38 1 197.639 74.3666 -5.55112e-17
39 1 122.069 138.049 -5.55112e-17
40 1 165.548 164.151 -5.55112e-17
41 1 120.968 182.115 -5.55112e-17
42 1 103.153 36.099 -5.55112e-17
43 1 135.299 60.9334 -5.55112e-17
44 1 107.094 23.3825 -5.55112e-17
45 1 214.711 84.5141 -5.55112e-17
46 1 28.2388 203.497 -5.55112e-17
47 1 88.8693 172.225 -5.55112e-17
48 2 47.7133 86.1186 -5.55112e-17
49 1 76.6045 110.559 -5.55112e-17
50 1 46.4076 197.711 -5.55112e-17
51 1 181.11 34.6028 -5.55112e-17
52 1 203.697 132.846 -5.55112e-17
53 1 156.646 27.2684 -5.55112e-17
54 1 24.3661 119.403 -5.55112e-17
55 1 22.7773 48.2401 -5.55112e-17
56 1 117.504 140.003 -5.55112e-17
57 2 68.0279 214.654 -5.55112e-17
58 1 32.8267 40.4036 -5.55112e-17
59 1 29.0007 152.144 -5.55112e-17
60 2 151.979 147.019 -5.55112e-17
61 2 35.8683 202.841 -5.55112e-17
62 1 10.5239 162.179 -5.55112e-17
63 1 111.929 197.836 -5.55112e-17
64 1 133.917 39.4289 -5.55112e-17
65 1 214.196 114.275 -5.55112e-17
66 1 128.946 134.13 -5.55112e-17
67 1 95.6652 139.876 -5.55112e-17
68 1 66.5755 116.508 -5.55112e-17
69 1 141.053 174.182 -5.55112e-17
70 1 59.0016 111.362 -5.55112e-17
71 1 7.6196 125.863 -5.55112e-17
72 1 171.688 60.6993 -5.55112e-17
73 1 187.855 185.913 -5.55112e-17
74 1 207.177 21.4856 -5.55112e-17
75 2 93.7382 1.33549 -5.55112e-17
76 1 17.8636 4.63134 -5.55112e-17
77 1 36.2863 24.4035 -5.55112e-17
78 1 124.377 117.238 -5.55112e-17
79 2 126.554 1.18455 -5.55112e-17
80 1 74.9777 106.107 -5.55112e-17
81 1 110.574 140.979 -5.55112e-17
82 1 53.7745 141.915 -5.55112e-17
83 2 129.999 181.911 -5.55112e-17
84 1 179.911 80.679 -5.55112e-17
85 1 22.3263 41.2437 -5.55112e-17
86 1 128.19 142.16 -5.55112e-17
87 1 217.376 217.223 -5.55112e-17
88 1 19.1415 34.7246 -5.55112e-17
89 2 43.9993 3.29322 -5.55112e-17
90 2 190.565 187.507 -5.55112e-17
91 1 149.584 90.627 -5.55112e-17
92 2 168.907 21.4998 -5.55112e-17
93 1 141.45 15.3268 -5.55112e-17
94 2 201.826 12.375 -5.55112e-17
95 1 33.4736 195.067 -5.55112e-17
96 1 130.566 95.5141 -5.55112e-17
97 1 97.2362 4.82753 -5.55112e-17
98 1 125.398 55.1399 -5.55112e-17
99 1 178.216 21.6452 -5.55112e-17
100 1 176.156 8.90768 -5.55112e-17
101 1 114.437 12.4926 -5.55112e-17
102 1 24.7313 45.9576 -5.55112e-17
103 1 58.3227 80.7567 -5.55112e-17
104 1 68.815 109.118 -5.55112e-17
105 1 142.443 201.421 -5.55112e-17
106 1 77.9367 102.676 -5.55112e-17
107 2 146.427 101.737 -5.55112e-17
108 1 36.1664 210.486 -5.55112e-17
109 1 54.611 88.9614 -5.55112e-17
110 1 108.116 63.0094 -5.55112e-17
111 1 61.1841 21.083 -5.55112e-17
112 1 94.9938 137.187 -5.55112e-17
113 1 99.2723 43.8002 -5.55112e-17
114 1 158.557 23.2866 -5.55112e-17
115 1 51.3725 163.313 -5.55112e-17
116 2 214.17 133.665 -5.55112e-17
117 1 201.348 216.404 -5.55112e-17
118 1 164.994 68.2059 -5.55112e-17
119 2 57.8334 98.9319 -5.55112e-17
120 1 53.2865 199.508 -5.55112e-17
121 1 152.081 83.8486 -5.55112e-17
122 1 103.009 14.7797 -5.55112e-17
123 1 136.882 75.7707 -5.55112e-17
124 1 154.793 201.646 -5.55112e-17
125 1 141.682 117.721 -5.55112e-17
126 1 111.718 65.5056 -5.55112e-17
127 1 163.996 78.1565 -5.55112e-17
128 1 175.507 136.752 -5.55112e-17
129 1 7.62899 104.189 -5.55112e-17
130 1 83.5515 128.647 -5.55112e-17
131 1 175.443 152.743 -5.55112e-17
132 2 183.288 2.09146 -5.55112e-17
133 1 127.029 79.5739 -5.55112e-17
134 1 35.5362 86.0012 -5.55112e-17
135 1 78.3674 8.39684 -5.55112e-17
136 1 210.345 201.641 -5.55112e-17
137 1 101.943 136.921 -5.55112e-17
138 1 50.4569 212.105 -5.55112e-17
139 1 202.804 105.503 -5.55112e-17
140 2 141.87 186.233 -5.55112e-17
141 1 205.633 96.3393 -5.55112e-17
142 2 211.848 49.0251 -5.55112e-17
143 1 111.229 80.6054 -5.55112e-17
144 2 43.74 199.293 -5.55112e-17
145 1 172.61 103.145 -5.55112e-17
146 1 99.9631 120.188 -5.55112e-17
147 1 154.519 145.795 -5.55112e-17
148 1 6.79337 200.803 -5.55112e-17
149 1 68.1704 21.6047 -5.55112e-17
150 1 54.2844 37.1496 -5.55112e-17
151 1 26.3249 112.665 -5.55112e-17
152 1 63.1929 104.542 -5.55112e-17
153 2 52.3809 6.02788 -5.55112e-17
154 1 149.101 94.8526 -5.55112e-17
155 1 107.785 16.8795 -5.55112e-17
156 2 71.5753 115.927 -5.55112e-17
157 1 207.603 104.643 -5.55112e-17
158 1 28.9884 29.0583 -5.55112e-17
159 1 22.1677 135.832 -5.55112e-17
160 1 12.13 201.411 -5.55112e-17
161 1 1.72115 8.21388 -5.55112e-17
162 1 127.422 127.187 -5.55112e-17
163 1 17.8959 32.4486 -5.55112e-17
164 1 166.992 53.0778 -5.55112e-17
165 1 124.983 121.683 -5.55112e-17
166 2 159.536 60.8983 -5.55112e-17
167 1 175.022 46.7502 -5.55112e-17
168 1 149.124 169.67 -5.55112e-17
169 1 1.84386 101.761 -5.55112e-17
170 1 95.0174 168.329 -5.55112e-17
171 1 146.615 61.0216 -5.55112e-17
172 1 218.825 17.3537 -5.55112e-17
173 1 45.952 143.292 -5.55112e-17
174 1 131.218 62.6003 -5.55112e-17
175 2 137.562 160.796 -5.55112e-17
176 1 110.029 70.6819 -5.55112e-17
177 2 70.7182 56.9744 -5.55112e-17
178 1 65.5042 86.9097 -5.55112e-17
179 1 173.457 164.011 -5.55112e-17
180 1 203.5 197.194 -5.55112e-17
181 1 134.886 167.5 -5.55112e-17
182 2 77.4777 20.8624 -5.55112e-17
183 1 76.9657 163.921 -5.55112e-17
184 1 176.144 86.9024 -5.55112e-17
185 2 175.415 20.7415 -5.55112e-17
186 2 208.719 133.825 -5.55112e-17
187 1 93.2412 28.8587 -5.55112e-17
188 1 102.779 170.223 -5.55112e-17
189 1 123.605 174.563 -5.55112e-17
190 2 13.5279 161.643 -5.55112e-17
191 1 77.6119 157.149 -5.55112e-17
192 2 63.4623 109.701 -5.55112e-17
193 2 79.9411 172.362 -5.55112e-17
194 1 32.9333 149.662 -5.55112e-17
195 1 145.224 163.504 -5.55112e-17
196 1 168.421 191.717 -5.55112e-17
197 1 74.4616 69.8772 -5.55112e-17
198 2 9.71227 133.091 -5.55112e-17
199 1 210.493 56.9661 -5.55112e-17
200 1 80.4372 6.76925 -5.55112e-17
201 2 71.5736 109.996 -5.55112e-17
202 1 52.7209 210.679 -5.55112e-17
203 1 175.494 81.6774 -5.55112e-17
204 1 188.368 156.704 -5.55112e-17
205 2 191.672 82.4368 -5.55112e-17
206 1 89.3574 132.907 -5.55112e-17
207 1 106.143 29.942 -5.55112e-17
208 1 33.0186 85.805 -5.55112e-17
209 1 82.07 2.57376 -5.55112e-17
210 1 7.76327 64.6446 -5.55112e-17
211 2 146.576 156.519 -5.55112e-17
212 1 120.36 112.557 -5.55112e-17
213 1 134.688 104.247 -5.55112e-17
214 1 74.4333 14.2907 -5.55112e-17
215 1 74.4048 201.786 -5.55112e-17
216 1 193.551 139.048 -5.55112e-17
217 1 126.758 186.887 -5.55112e-17
218 2 28.8027 168.557 -5.55112e-17
219 1 155.386 213.868 -5.55112e-17
220 2 107.12 55.4739 -5.55112e-17
221 1 212.764 55.9792 -5.55112e-17
222 1 143.429 145.918 -5.55112e-17
223 1 52.4974 208.022 -5.55112e-17
224 2 10.1904 188.297 -5.55112e-17
225 1 201.251 142.353 -5.55112e-17
226 1 138.894 190.121 -5.55112e-17
227 2 50.9785 16.9029 -5.55112e-17
228 1 138.571 77.5414 -5.55112e-17
229 1 60.6471 135.574 -5.55112e-17
230 1 159.022 131.155 -5.55112e-17
231 1 148.417 123.016 -5.55112e-17
232 1 1.22597 90.7019 -5.55112e-17
233 1 110.002 100.281 -5.55112e-17
234 1 133.686 216.213 -5.55112e-17
235 1 20.8128 143.194 -5.55112e-17
236 1 46.0943 81.5031 -5.55112e-17
237 1 198.82 8.14331 -5.55112e-17
238 1 147.815 128.219 -5.55112e-17
239 2 17.68 112.217 -5.55112e-17
240 1 99.7529 5.82934 -5.55112e-17
241 2 187.624 14.8863 -5.55112e-17
242 2 198.623 37.0517 -5.55112e-17
243 2 114.76 27.9275 -5.55112e-17
244 1 97.6379 7.49951 -5.55112e-17
245 1 84.7493 58.8999 -5.55112e-17
246 1 126.033 119.261 -5.55112e-17
247 1 210.85 98.4343 -5.55112e-17
248 1 94.5518 3.96734 -5.55112e-17
249 1 23.2874 65.4328 -5.55112e-17
250 2 149.672 29.9956 -5.55112e-17
251 1 153.52 212.248 -5.55112e-17
252 1 195.376 63.9583 -5.55112e-17
253 1 94.3248 61.5531 -5.55112e-17
254 2 76.5674 197.328 -5.55112e-17
255 1 212.303 148.921 -5.55112e-17
256 1 84.6929 165.563 -5.55112e-17
257 1 211.81 151.463 -5.55112e-17
258 2 164.116 27.8321 -5.55112e-17
259 1 58.5055 165.837 -5.55112e-17
260 1 127.456 11.4114 -5.55112e-17
261 1 184.973 14.0355 -5.55112e-17
262 1 53.4425 52.3303 -5.55112e-17
263 1 12.8285 213.746 -5.55112e-17
264 1 172.429 42.9311 -5.55112e-17
265 1 166.333 22.8356 -5.55112e-17
266 1 155.626 9.94809 -5.55112e-17
267 1 2.59795 64.4354 -5.55112e-17
268 1 21.6833 35.3205 -5.55112e-17
269 1 126.029 94.9331 -5.55112e-17
270 1 141.43 106.647 -5.55112e-17
271 1 12.6939 92.5841 -5.55112e-17
272 1 159.272 202.12 -5.55112e-17
273 1 40.807 169.211 -5.55112e-17
274 2 112.847 87.7885 -5.55112e-17
275 1 64.3109 4.99115 -5.55112e-17
276 2 54.1071 31.9939 -5.55112e-17
277 2 167.252 122.038 -5.55112e-17
278 1 38.8239 100.822 -5.55112e-17
279 2 109.862 204.978 -5.55112e-17
280 1 60.3683 31.8339 -5.55112e-17
281 1 147.082 28.6385 -5.55112e-17
282 1 164.834 8.38578 -5.55112e-17
283 1 113.087 141.396 -5.55112e-17
284 1 136.597 165.641 -5.55112e-17
285 1 35.8132 12.4148 -5.55112e-17
286 2 33.8794 215.019 -5.55112e-17
287 1 82.6148 135.251 -5.55112e-17
288 1 21.463 57.1478 -5.55112e-17
289 1 71.7816 54.0854 -5.55112e-17
290 1 150.759 193.532 -5.55112e-17
291 1 158.464 144.856 -5.55112e-17
292 2 19.9831 181.022 -5.55112e-17
293 2 65.709 194.482 -5.55112e-17
294 1 111.927 40.4115 -5.55112e-17
295 1 124.845 47.9474 -5.55112e-17
296 1 134.901 41.9469 -5.55112e-17
297 1 118.706 145.047 -5.55112e-17
298 1 104.977 198.51 -5.55112e-17
299 1 160.435 106.443 -5.55112e-17
300 2 62.1168 94.9465 -5.55112e-17
301 1 58.9755 45.9414 -5.55112e-17
302 1 127.109 192.573 -5.55112e-17
303 2 198.713 59.9073 -5.55112e-17
304 2 144.985 129.745 -5.55112e-17
305 1 86.1079 99.6371 -5.55112e-17
306 1 51.1474 73.7272 -5.55112e-17
307 1 35.1466 122.323 -5.55112e-17
308 1 161.962 59.2413 -5.55112e-17
309 2 73.2913 184.261 -5.55112e-17
310 1 194.296 215.447 -5.55112e-17
311 1 79.9636 33.7423 -5.55112e-17
312 1 192.178 147.957 -5.55112e-17
313 2 147.528 66.3606 -5.55112e-17
314 1 52.1255 135.119 -5.55112e-17
315 1 111.252 150.468 -5.55112e-17
316 1 72.7266 1.16195 -5.55112e-17
317 1 13.7194 99.612 -5.55112e-17
318 1 100.004 214.986 -5.55112e-17
319 1 51.2461 33.069 -5.55112e-17
320 1 144.49 99.7652 -5.55112e-17
321 1 88.5373 203.897 -5.55112e-17
322 1 143.278 140.497 -5.55112e-17
323 1 188.306 108.11 -5.55112e-17
324 1 81.4221 26.7785 -5.55112e-17
325 1 162.917 139.322 -5.55112e-17
326 1 85.2683 151.803 -5.55112e-17
327 2 149.731 186.275 -5.55112e-17
328 1 167.596 40.3943 -5.55112e-17
329 2 47.2159 115.756 -5.55112e-17
330 1 23.7975 101.931 -5.55112e-17
331 1 174.686 176.084 -5.55112e-17
332 2 112.368 104.496 -5.55112e-17
333 1 44.314 17.7753 -5.55112e-17
334 1 139.686 168.984 -5.55112e-17
335 1 12.634 206.385 -5.55112e-17
336 1 212.566 106.328 -5.55112e-17
337 1 103.268 182.087 -5.55112e-17
338 1 159.333 57.9867 -5.55112e-17
339 1 109.367 217.125 -5.55112e-17
340 1 153.571 141.366 -5.55112e-17
341 1 160.254 158.643 -5.55112e-17
342 1 128.823 144.542 -5.55112e-17
343 1 127.48 29.2895 -5.55112e-17
344 1 63.7557 181.775 -5.55112e-17
345 1 60.5177 109.291 -5.55112e-17
346 1 9.39979 127.596 -5.55112e-17
347 1 92.4097 92.3939 -5.55112e-17
348 1 164.099 179.13 -5.55112e-17
349 1 193.423 75.2082 -5.55112e-17
350 2 89.9678 40.6792 -5.55112e-17
351 1 154.974 66.1062 -5.55112e-17
352 1 61.1272 182.624 -5.55112e-17
353 1 39.286 166.614 -5.55112e-17
354 1 167.78 161.811 -5.55112e-17
355 1 58.4758 156.79 -5.55112e-17
356 1 23.9704 36.3713 -5.55112e-17
357 1 62.553 158.649 -5.55112e-17
358 1 172.103 180.841 -5.55112e-17
359 1 157.812 159.024 -5.55112e-17
360 1 74.3882 53.4754 -5.55112e-17
361 1 63.4044 167.909 -5.55112e-17
362 1 169.13 201.055 -5.55112e-17
363 1 163.444 190.147 -5.55112e-17
364 2 116.521 92.5104 -5.55112e-17
365 1 178.792 90.6549 -5.55112e-17
366 1 117.543 160.892 -5.55112e-17
367 1 174.202 7.21328 -5.55112e-17
368 1 197.053 192.493 -5.55112e-17
369 2 115.5 187.949 -5.55112e-17
370 1 15.2647 206.007 -5.55112e-17
371 1 53.7552 137.169 -5.55112e-17
372 2 0.254329 93.7354 -5.55112e-17
373 2 212.792 7.7994 -5.55112e-17
374 1 151.303 88.6538 -5.55112e-17
375 1 37.1442 111.936 -5.55112e-17
376 1 16.3741 152.767 -5.55112e-17
377 1 28.7334 213.12 -5.55112e-17
378 1 74.4095 129.467 -5.55112e-17
379 1 43.0495 60.5116 -5.55112e-17
380 1 177.671 151.232 -5.55112e-17
381 1 13.5004 5.59232 -5.55112e-17
382 1 54.2684 67.2806 -5.55112e-17
383 1 169.762 67.381 -5.55112e-17
384 1 21.9901 13.8931 -5.55112e-17
385 1 191.524 76.8741 -5.55112e-17
386 2 82.1288 44.4542 -5.55112e-17
387 1 144.192 19.2558 -5.55112e-17
388 1 56.6558 43.7021 -5.55112e-17
389 1 206.484 159.068 -5.55112e-17
390 2 207.267 179.775 -5.55112e-17
391 2 35.7664 40.2887 -5.55112e-17
392 1 41.4075 218.063 -5.55112e-17
393 1 0.319642 33.4666 -5.55112e-17
394 1 102.44 101.621 -5.55112e-17
395 1 16.0878 27.352 -5.55112e-17
396 1 202.636 154 -5.55112e-17
397 1 100.999 16.2517 -5.55112e-17
398 1 11.5519 191.023 -5.55112e-17
399 1 19.5157 59.1698 -5.55112e-17
400 1 103.367 179.567 -5.55112e-17
401 1 87.8567 176.737 -5.55112e-17
402 2 191.249 179.135 -5.55112e-17
403 1 214.208 53.9796 -5.55112e-17
404 1 36.0697 71.4944 -5.55112e-17
405 1 204.31 29.1729 -5.55112e-17
406 1 201.091 68.2717 -5.55112e-17
407 2 19.3625 62.3273 -5.55112e-17
408 1 34.4361 35.4925 -5.55112e-17
409 1 169.406 129.142 -5.55112e-17
410 1 20.0679 155.133 -5.55112e-17
411 1 151.993 160.624 -5.55112e-17
412 1 114.661 215.166 -5.55112e-17
413 1 63.5424 156.199 -5.55112e-17
414 1 38.1416 13.6446 -5.55112e-17
415 1 207.71 148.221 -5.55112e-17
416 1 72.11 200.386 -5.55112e-17
417 1 141.184 94.0979 -5.55112e-17
418 2 184.478 7.39036 -5.55112e-17
419 1 108.73 149.936 -5.55112e-17
420 2 136.802 109.061 -5.55112e-17
421 1 87.8577 103.974 -5.55112e-17
422 1 176.422 23.6117 -5.55112e-17
423 2 157.95 41.5031 -5.55112e-17
424 1 157.043 149.321 -5.55112e-17
425 1 129.274 166.948 -5.55112e-17
426 1 133.422 112.799 -5.55112e-17
427 1 45.4307 84.2366 -5.55112e-17
428 1 71.2671 191.801 -5.55112e-17
429 1 194.481 83.0683 -5.55112e-17
430 1 215.227 60.0378 -5.55112e-17
431 1 120.234 206.444 -5.55112e-17
432 1 161.533 53.7854 -5.55112e-17
433 1 105.09 153.861 -5.55112e-17
434 1 71.6745 30.5235 -5.55112e-17
435 1 178.12 161.816 -5.55112e-17
436 1 44.8233 36.0538 -5.55112e-17
437 1 175.679 109.503 -5.55112e-17
438 2 109.616 21.7764 -5.55112e-17
439 1 67.4131 208.941 -5.55112e-17
440 1 3.33197 161.812 -5.55112e-17
441 1 192.794 131.48 -5.55112e-17
442 1 50.4273 13.575 -5.55112e-17
443 1 158.309 104.809 -5.55112e-17
444 1 218.414 101.037 -5.55112e-17
445 1 139.833 7.48519 -5.55112e-17
446 1 131.679 78.9263 -5.55112e-17
447 1 38.9959 145.274 -5.55112e-17
448 1 75.9073 7.4607 -5.55112e-17
449 1 131.801 120.562 -5.55112e-17
450 1 139.571 187.835 -5.55112e-17
451 1 170.719 47.2965 -5.55112e-17
452 1 131.291 144.709 -5.55112e-17
453 1 179.04 182.332 -5.55112e-17
454 1 160.135 211.878 -5.55112e-17
455 1 100.165 71.8502 -5.55112e-17
456 1 167.239 27.0875 -5.55112e-17
457 1 97.829 113.532 -5.55112e-17
458 1 198.178 0.0311535 -5.55112e-17
459 1 81.3339 69.1849 -5.55112e-17
460 1 48.5752 102.349 -5.55112e-17
461 1 188.606 178.258 -5.55112e-17
462 1 181.881 116.223 -5.55112e-17
463 1 126.706 33.7621 -5.55112e-17
464 1 154.727 195.086 -5.55112e-17
465 1 121.644 159.84 -5.55112e-17
466 1 24.2426 213.718 -5.55112e-17
467 1 17.4123 80.034 -5.55112e-17
468 1 161.301 218.843 -5.55112e-17
469 1 68.6382 77.7624 -5.55112e-17
470 1 78.301 37.8995 -5.55112e-17
471 1 128.92 174.396 -5.55112e-17
472 1 48.056 83.1347 -5.55112e-17
473 1 26.2213 102.582 -5.55112e-17
474 1 88.2942 101.353 -5.55112e-17
475 1 184.94 163.782 -5.55112e-17
476 2 192.322 12.091 -5.55112e-17
477 1 54.039 84.6274 -5.55112e-17
478 1 58.4871 125.916 -5.55112e-17
479 1 201.581 80.4169 -5.55112e-17
480 1 85.3351 23.5288 -5.55112e-17
481 1 14.9864 94.1723 -5.55112e-17
482 1 99.6024 159.885 -5.55112e-17
483 1 142.137 159.92 -5.55112e-17
484 2 87.6926 45.7678 -5.55112e-17
485 1 33.8652 100.468 -5.55112e-17
486 1 81.6641 17.2924 -5.55112e-17
487 1 100.856 196.665 -5.55112e-17
488 1 5.90654 121.542 -5.55112e-17
489 1 211.477 134.79 -5.55112e-17
490 1 205.162 83.8915 -5.55112e-17
491 1 197.701 121.549 -5.55112e-17
492 1 2.69755 129.076 -5.55112e-17
493 1 193.865 210.51 -5.55112e-17
494 1 211.28 38.121 -5.55112e-17
495 1 198.694 89.3522 -5.55112e-17
496 2 43.9881 189.484 -5.55112e-17
497 1 39.1548 216.948 -5.55112e-17
498 1 104.749 121.189 -5.55112e-17
499 2 136.697 216.507 -5.55112e-17
500 1 26.3575 29.9508 -5.55112e-17
501 2 112.471 216.85 -5.55112e-17
502 2 123.612 143.134 -5.55112e-17
503 1 147.18 184.057 -5.55112e-17
504 1 113.063 148.606 -5.55112e-17
505 1 118.107 18.6389 -5.55112e-17
506 1 26.0733 121.818 -5.55112e-17
507 1 14.5017 129.829 -5.55112e-17
508 1 196.264 217.069 -5.55112e-17
509 2 26.9305 75.2709 -5.55112e-17
510 2 146.378 133.375 -5.55112e-17
511 1 196.121 35.5348 -5.55112e-17
512 2 210.171 59.9759 -5.55112e-17
513 1 56.3465 127.509 -5.55112e-17
514 1 48.7779 18.8185 -5.55112e-17
515 1 204.208 24.9947 -5.55112e-17
516 1 182.73 206.269 -5.55112e-17
517 1 111.832 117.552 -5.55112e-17
518 2 103.521 20.4004 -5.55112e-17
519 1 11.4885 52.738 -5.55112e-17
520 2 212.402 23.1163 -5.55112e-17
521 1 88.6795 110.806 -5.55112e-17
522 1 31.4012 30.3237 -5.55112e-17
523 1 24.5406 67.839 -5.55112e-17
524 1 99.9409 74.6417 -5.55112e-17
525 1 174.972 121.377 -5.55112e-17
526 1 190.889 64.6712 -5.55112e-17
527 1 75.5537 4.73558 -5.55112e-17
528 1 168.608 29.1417 -5.55112e-17
529 1 57.0575 158.941 -5.55112e-17
530 1 100.718 31.6604 -5.55112e-17
531 1 66.44 197.486 -5.55112e-17
532 1 206.701 188.278 -5.55112e-17
533 1 134.164 151.079 -5.55112e-17
534 1 97.4085 144.886 -5.55112e-17
535 1 14.3226 104.831 -5.55112e-17
536 1 203.602 117.73 -5.55112e-17
537 1 201.235 166.856 -5.55112e-17
538 1 168.755 81.0675 -5.55112e-17
539 1 88.9524 211.875 -5.55112e-17
540 1 103.461 88.9081 -5.55112e-17
541 1 40.8645 58.8398 -5.55112e-17
542 1 67.3873 211.592 -5.55112e-17
543 1 147.046 151.928 -5.55112e-17
544 1 128.822 200.317 -5.55112e-17
545 1 8.04903 149.761 -5.55112e-17
546 1 179.133 41.2482 -5.55112e-17
547 1 82.861 172.151 -5.55112e-17
548 1 99.9699 8.51746 -5.55112e-17
549 1 51.506 76.3495 -5.55112e-17
550 2 162.665 121.588 -5.55112e-17
551 2 134.663 157.794 -5.55112e-17
552 2 93.8936 180.493 -5.55112e-17
553 1 122.479 42.3803 -5.55112e-17
554 1 73.496 101.729 -5.55112e-17
555 2 65.7885 123.786 -5.55112e-17
556 1 148.494 22.0351 -5.55112e-17
557 1 76.6123 12.6359 -5.55112e-17
558 1 148.151 125.643 -5.55112e-17
559 1 187.64 47.4407 -5.55112e-17
560 1 131.287 51.3766 -5.55112e-17
561 1 146.652 168.743 -5.55112e-17
562 1 195.545 144.536 -5.55112e-17
563 2 168.085 113.814 -5.55112e-17
564 1 42.2016 67.1008 -5.55112e-17
565 1 60.3645 10.4411 -5.55112e-17
566 1 75.4347 34.5004 -5.55112e-17
567 1 150.377 111.243 -5.55112e-17
568 1 22.2331 114.755 -5.55112e-17
569 1 114.328 185.042 -5.55112e-17
570 1 124.884 124.102 -5.55112e-17
571 1 175.34 203.91 -5.55112e-17
572 1 61.4394 111.904 -5.55112e-17
573 1 177.329 76.583 -5.55112e-17
574 1 41.6398 130.316 -5.55112e-17
575 1 21.8001 76.2741 -5.55112e-17
576 1 196.148 98.4601 -5.55112e-17
577 1 202.826 33.263 -5.55112e-17
578 1 122.831 196.8 -5.55112e-17
579 1 15.6612 166.913 -5.55112e-17
580 1 102.836 139.26 -5.55112e-17
581 1 141.274 154.287 -5.55112e-17
582 1 76.0412 78.951 -5.55112e-17
583 1 162.11 185.717 -5.55112e-17
584 2 28.9185 117.456 -5.55112e-17
585 1 48.8019 198.857 -5.55112e-17
586 1 137.865 171.119 -5.55112e-17
587 1 99.3448 104.909 -5.55112e-17
588 1 17.4014 2.0003 -5.55112e-17
589 1 103.375 17.3604 -5.55112e-17
590 1 70.3393 0.151819 -5.55112e-17
591 1 215.283 162.179 -5.55112e-17
592 1 56.0303 156.439 -5.55112e-17
593 1 209.576 181.716 -5.55112e-17
594 1 181.472 181.34 -5.55112e-17
595 1 83.2031 39.5911 -5.55112e-17
596 1 66.2412 36.0475 -5.55112e-17
597 2 180.39 204.552 -5.55112e-17
598 1 167.216 211.672 -5.55112e-17
599 1 207.856 171.459 -5.55112e-17
600 1 104.832 10.4672 -5.55112e-17
601 1 11.7899 135.097 -5.55112e-17
602 1 98.19 30.8849 -5.55112e-17
603 1 207.981 202.81 -5.55112e-17
604 1 120.739 1.31797 -5.55112e-17
605 2 85.6095 77.5715 -5.55112e-17
606 1 102.754 202.176 -5.55112e-17
607 2 171.789 146.964 -5.55112e-17
608 1 95.1892 76.8447 -5.55112e-17
609 1 15.8325 6.47344 -5.55112e-17
610 1 214.227 150.534 -5.55112e-17
611 1 201.846 190.397 -5.55112e-17
612 1 218.091 37.7574 -5.55112e-17
613 1 58.9781 150.952 -5.55112e-17
614 2 127.892 179.311 -5.55112e-17
615 1 105.749 18.4092 -5.55112e-17
616 1 202.094 130.851 -5.55112e-17
617 1 127.245 198.283 -5.55112e-17
618 1 201.49 212.08 -5.55112e-17
619 1 179.158 78.3146 -5.55112e-17
620 1 141.164 141.914 -5.55112e-17
621 1 197.119 93.8085 -5.55112e-17
622 1 95.0743 213.53 -5.55112e-17
623 1 218.74 12.2247 -5.55112e-17
624 1 23.9106 209.135 -5.55112e-17
625 1 204.828 155.073 -5.55112e-17
626 1 94.264 191.2 -5.55112e-17
627 1 64.0799 73.9661 -5.55112e-17
628 1 34.2293 28.4789 -5.55112e-17
629 1 10.2073 94.6765 -5.55112e-17
630 2 151.32 22.316 -5.55112e-17
631 1 15.6725 86.3696 -5.55112e-17
632 1 49.4443 92.2261 -5.55112e-17
633 1 38.8676 211.689 -5.55112e-17
634 1 1.21286 147.573 -5.55112e-17
635 1 154.919 150.875 -5.55112e-17
636 1 208.062 57.6656 -5.55112e-17
637 1 201.234 58.2403 -5.55112e-17
638 1 172.813 76.7498 -5.55112e-17
639 2 203.664 78.5304 -5.55112e-17
640 1 143.33 152.431 -5.55112e-17
641 1 192.713 85.2249 -5.55112e-17
642 1 32.2393 91.4583 -5.55112e-17
643 2 181.844 42.5909 -5.55112e-17
644 1 68.6217 155.002 -5.55112e-17
645 1 106.623 196.49 -5.55112e-17
646 2 211.857 141.378 -5.55112e-17
647 1 11.092 185.037 -5.55112e-17
648 1 132.404 103.117 -5.55112e-17
649 2 23.7992 151.061 -5.55112e-17
650 1 204.701 186.68 -5.55112e-17
651 1 218.572 113.131 -5.55112e-17
652 1 153.331 44.0062 -5.55112e-17
653 1 114.545 175.426 -5.55112e-17
654 1 23.1608 21.4971 -5.55112e-17
655 2 183.882 101.049 -5.55112e-17
656 1 30.4033 125.199 -5.55112e-17
657 2 79.2119 207.366 -5.55112e-17
658 1 54.0831 44.1912 -5.55112e-17
659 2 156.313 192.584 -5.55112e-17
660 1 102.331 55.503 -5.55112e-17
661 1 42.4379 116.519 -5.55112e-17
662 1 81.5331 130.304 -5.55112e-17
663 1 31.7599 25.2749 -5.55112e-17
664 1 146.385 17.9331 -5.55112e-17
665 1 139.915 75.3873 -5.55112e-17
666 2 48.0425 181.131 -5.55112e-17
667 1 93.0696 99.7348 -5.55112e-17
668 2 102.118 93.8101 -5.55112e-17
669 1 36.2723 17.5808 -5.55112e-17
670 1 96.4523 173.556 -5.55112e-17
671 2 54.1 176.115 -5.55112e-17
672 1 186.547 12.1269 -5.55112e-17
673 1 63.3165 19.6457 -5.55112e-17
674 1 2.09212 31.7288 -5.55112e-17
675 1 128.686 23.6358 -5.55112e-17
676 1 169.501 123.899 -5.55112e-17
677 1 131.495 174.838 -5.55112e-17
678 1 137.756 30.8801 -5.55112e-17
679 2 152.184 33.157 -5.55112e-17
680 1 202.674 41.321 -5.55112e-17
681 2 129.185 119.217 -5.55112e-17
682 1 0.252553 47.6991 -5.55112e-17
683 1 68.5951 4.39934 -5.55112e-17
684 1 120.069 154.429 -5.55112e-17
685 1 152.909 38.8677 -5.55112e-17
686 1 27.9024 193.899 -5.55112e-17
687 1 118.509 191.943 -5.55112e-17
688 1 162.894 110.19 -5.55112e-17
689 2 56.1176 46.6323 -5.55112e-17
690 1 70.3891 20.0569 -5.55112e-17
691 1 89.3184 66.2595 -5.55112e-17
692 1 131.111 8.18582 -5.55112e-17
693 1 48.5065 143.205 -5.55112e-17
694 1 75.9387 125.07 -5.55112e-17
695 1 146.069 38.7012 -5.55112e-17
696 1 146.276 81.2866 -5.55112e-17
697 1 139.744 201.595 -5.55112e-17
698 1 116.761 65.929 -5.55112e-17
699 1 180.385 191.783 -5.55112e-17
700 1 205.742 209.444 -5.55112e-17
701 1 53.9852 16.7507 -5.55112e-17
702 1 113.436 128.878 -5.55112e-17
703 2 187.993 144.275 -5.55112e-17
704 1 29.4166 218.563 -5.55112e-17
705 2 68.8747 112.101 -5.55112e-17
706 1 165.914 177.125 -5.55112e-17
707 1 114.081 24.8533 -5.55112e-17
708 1 84.2728 209.375 -5.55112e-17
709 1 147.395 196.47 -5.55112e-17
710 1 192.374 191.938 -5.55112e-17
711 1 111.422 93.0535 -5.55112e-17
712 1 192.441 208.197 -5.55112e-17
713 1 14.0794 136.276 -5.55112e-17
714 1 136.111 13.2548 -5.55112e-17
715 1 55.9521 199.27 -5.55112e-17
716 1 40.2632 123.689 -5.55112e-17
717 1 51.3846 107.513 -5.55112e-17
718 1 131.061 185.08 -5.55112e-17
719 2 119.809 78.8327 -5.55112e-17
720 1 98.9595 64.9968 -5.55112e-17
721 1 95.4857 98.9117 -5.55112e-17
722 1 133.738 63.082 -5.55112e-17
723 2 48.6412 45.5927 -5.55112e-17
724 1 15.1382 49.1939 -5.55112e-17
725 1 29.3424 108.908 -5.55112e-17
726 1 189.638 45.7965 -5.55112e-17
727 1 148.508 205.419 -5.55112e-17
728 2 18.4877 87.6451 -5.55112e-17
729 1 133.869 165.082 -5.55112e-17
730 1 174.166 199.469 -5.55112e-17
731 1 49.2532 190.123 -5.55112e-17
732 1 218.645 9.56607 -5.55112e-17
733 1 205.393 34.1295 -5.55112e-17
734 1 3.80969 30.0857 -5.55112e-17
735 1 41.2331 22.7361 -5.55112e-17
736 2 190.287 74.2269 -5.55112e-17
737 1 81.7885 86.5194 -5.55112e-17
738 1 20.0719 165.516 -5.55112e-17
739 1 105.891 156.353 -5.55112e-17
740 1 59.8336 116.299 -5.55112e-17
741 2 188.893 78.1551 -5.55112e-17
742 1 74.6137 43.8377 -5.55112e-17
743 1 202.949 66.4574 -5.55112e-17
744 2 210.65 172.661 -5.55112e-17
745 1 131.054 32.1239 -5.55112e-17
746 1 14.0961 29.2695 -5.55112e-17
747 2 204.347 22.1936 -5.55112e-17
748 1 182.725 193.215 -5.55112e-17
749 1 196.544 211.008 -5.55112e-17
750 1 212.885 163.595 -5.55112e-17
751 1 59.6588 58.6572 -5.55112e-17
752 1 178.107 106.015 -5.55112e-17
753 1 99.3998 150.801 -5.55112e-17
754 1 15.178 215.528 -5.55112e-17
755 1 83.3433 195.038 -5.55112e-17
756 2 103.668 195.745 -5.55112e-17
757 1 27.1792 18.4424 -5.55112e-17
758 1 135.527 146.271 -5.55112e-17
759 1 72.7406 107.314 -5.55112e-17
760 1 95.3472 39.7813 -5.55112e-17
761 1 58.3029 161.105 -5.55112e-17
762 1 43.6954 23.4523 -5.55112e-17
763 1 114.222 99.7446 -5.55112e-17
764 2 177.671 148.187 -5.55112e-17
765 1 91.9832 62.5588 -5.55112e-17
766 1 114.421 35.7655 -5.55112e-17
767 1 97.1426 78.4275 -5.55112e-17
768 1 9.77931 3.99182 -5.55112e-17
769 1 107.881 75.6467 -5.55112e-17
770 2 113.638 109.812 -5.55112e-17
771 1 143.607 179.093 -5.55112e-17
772 1 102.292 28.2796 -5.55112e-17
773 1 109.37 167.264 -5.55112e-17
774 1 111.25 124.055 -5.55112e-17
775 1 69.0789 6.95014 -5.55112e-17
776 1 37.9399 10.967 -5.55112e-17
777 1 108.059 181.93 -5.55112e-17
778 1 22.7235 18.9658 -5.55112e-17
779 1 191.851 44.2776 -5.55112e-17
780 1 3.20449 169.201 -5.55112e-17
781 1 127.276 99.8413 -5.55112e-17
782 1 175.555 49.4755 -5.55112e-17
783 1 98.554 15.4404 -5.55112e-17
784 2 194.651 159.39 -5.55112e-17
785 1 111.104 165.31 -5.55112e-17
786 1 119.462 176.955 -5.55112e-17
787 1 185.429 74.9153 -5.55112e-17
788 1 177.144 45.1276 -5.55112e-17
789 2 143.096 109.199 -5.55112e-17
790 1 109.853 28.0697 -5.55112e-17
791 2 14.5439 121.92 -5.55112e-17
792 2 215.81 13.4294 -5.55112e-17
793 2 115.878 68.8144 -5.55112e-17
794 1 56.5702 188.519 -5.55112e-17
795 1 132.412 53.7024 -5.55112e-17
796 1 130.761 22.0901 -5.55112e-17
797 1 197.765 155.706 -5.55112e-17
798 2 195.937 203.983 -5.55112e-17
799 2 207.641 64.9515 -5.55112e-17
800 2 55.5683 217.528 -5.55112e-17
801 1 102.766 132.342 -5.55112e-17
802 1 124.423 75.8136 -5.55112e-17
803 1 182.032 68.5803 -5.55112e-17
804 2 122.793 204.835 -5.55112e-17
805 1 44.6652 106.7 -5.55112e-17
806 1 11.72 117.241 -5.55112e-17
807 2 100.389 99.4872 -5.55112e-17
808 1 14.4733 116.87 -5.55112e-17
809 2 57.7225 134.382 -5.55112e-17
810 1 129.947 197.744 -5.55112e-17
811 1 32.8525 5.97054 -5.55112e-17
812 1 131.95 34.6579 -5.55112e-17
813 2 107.886 110.955 -5.55112e-17
814 1 147.288 69.3759 -5.55112e-17
815 1 89.1082 164.356 -5.55112e-17
816 1 200.684 9.84852 -5.55112e-17
817 1 108.074 214.657 -5.55112e-17
818 1 57.0891 101.851 -5.55112e-17
819 1 9.53512 136.175 -5.55112e-17
820 1 45.1183 120.416 -5.55112e-17
821 1 94.7081 151.685 -5.55112e-17
822 2 41.7429 135.905 -5.55112e-17
823 2 139.349 91.7375 -5.55112e-17
824 1 34.6967 107.781 -5.55112e-17
825 1 65.3442 15.4406 -5.55112e-17
826 1 190.418 14.1404 -5.55112e-17
827 1 192.935 107.511 -5.55112e-17
828 1 142.376 123.569 -5.55112e-17
829 1 127.266 210.744 -5.55112e-17
830 1 81.2205 127.658 -5.55112e-17
831 1 217.551 42.6474 -5.55112e-17
832 1 93.3404 87.2343 -5.55112e-17
833 1 62.0998 84.597 -5.55112e-17
834 1 106.844 8.93979 -5.55112e-17
835 1 58.1073 218.62 -5.55112e-17
836 1 10.7176 50.3569 -5.55112e-17
837 1 6.83404 70.4988 -5.55112e-17
838 1 98.2617 178.452 -5.55112e-17
839 2 198.195 3.08394 -5.55112e-17
840 1 5.12531 202.665 -5.55112e-17
841 2 63.3276 184.849 -5.55112e-17
842 1 94.7447 91.6655 -5.55112e-17
843 2 159.397 182.906 -5.55112e-17
844 1 26.1541 158.94 -5.55112e-17
845 1 71.1924 189.229 -5.55112e-17
846 1 158.862 190.687 -5.55112e-17
847 1 42.0712 140.992 -5.55112e-17
848 1 188.693 117.363 -5.55112e-17
849 1 189.235 167.091 -5.55112e-17
850 1 39.3742 129.294 -5.55112e-17
851 1 89.5626 37.4891 -5.55112e-17
852 1 11.8457 209.126 -5.55112e-17
853 1 31.9796 138.881 -5.55112e-17
854 1 171.295 84.7086 -5.55112e-17
855 1 126.089 19.6846 -5.55112e-17
856 1 209.951 170.051 -5.55112e-17