ITEM: TIMESTEP
0
ITEM: NUMBER OF ATOMS
7200
ITEM: BOX BOUNDS xy xz yz pp pp pp
0.0000000000000000e+00 2.1900000000000000e+02 0.0000000000000000e+00
0.0000000000000000e+00 2.1900000000000000e+02 0.0000000000000000e+00
-3.6499999999999999e-01 3.6499999999999999e-01 0.0000000000000000e+00
ITEM: ATOMS id type x y z
1 1 67.357 135.105 -5.55112e-17
2 1 183.317 108.738 -5.55112e-17
3 1 13.6892 158.226 -5.55112e-17
4 1 3.52529 85.9236 -5.55112e-17
5 1 215.534 156.985 -5.55112e-17
6 1 117.432 210.388 -5.55112e-17
7 1 42.5598 51.4968 -5.55112e-17
8 2 149.116 83.4604 -5.55112e-17
9 1 203.18 9.75062 -5.55112e-17
10 2 58.2301 193.277 -5.55112e-17
11 1 114.459 14.6525 -5.55112e-17
12 1 129.004 77.8589 -5.55112e-17
13 2 51.5386 79.417 -5.55112e-17
14 1 65.7026 17.7428 -5.55112e-17
15 1 137.021 105.152 -5.55112e-17
16 2 60.879 172.416 -5.55112e-17
17 1 113.796 31.0047 -5.55112e-17
18 2 31.5325 78.6756 -5.55112e-17
19 1 106.518 52.4348 -5.55112e-17
20 1 144.282 103.534 -5.55112e-17
21 1 42.2229 5.3349 -5.55112e-17
22 2 49.4589 147.936 -5.55112e-17
23 2 17.5444 54.7552 -5.55112e-17
24 1 159.235 99.861 -5.55112e-17
25 1 76.0149 183.143 -5.55112e-17
26 2 86.5386 96.9351 -5.55112e-17
27 1 155.677 174.64 -5.55112e-17
28 2 22.3994 156.474 -5.55112e-17
29 1 53.2583 46.7377 -5.55112e-17
30 1 139.363 88.158 -5.55112e-17
31 1 211.5 90.5332 -5.55112e-17
32 1 57.9865 104.391 -5.55112e-17
33 1 157.262 154.895 -5.55112e-17
34 1 61.3208 77.7804 -5.55112e-17
35 1 177.372 69.1001 -5.55112e-17
36 1 61.7612 75.319 -5.55112e-17
37 2 136.229 140.479 -5.55112e-17
38 1 197.804 74.5951 -5.55112e-17
39 1 122.057 138.074 -5.55112e-17
40 1 166.026 163.782 -5.55112e-17
41 1 120.818 182.217 -5.55112e-17
42 1 103.099 36.0897 -5.55112e-17
43 1 135.128 60.9584 -5.55112e-17
44 1 107.266 23.1599 -5.55112e-17
45 1 214.697 84.5936 -5.55112e-17
46 1 28.1721 203.32 -5.55112e-17
47 1 88.9225 172.34 -5.55112e-17
48 2 47.6991 86.4706 -5.55112e-17
49 1 76.8133 110.555 -5.55112e-17
50 1 46.4256 197.333 -5.55112e-17
51 1 181.152 34.5844 -5.55112e-17
52 1 204.002 132.641 -5.55112e-17
53 1 156.543 27.4075 -5.55112e-17
54 1 24.2149 119.407 -5.55112e-17
55 1 23.0114 48.6244 -5.55112e-17
56 1 117.541 140.147 -5.55112e-17
57 2 68.0537 214.492 -5.55112e-17
58 1 32.834 40.483 -5.55112e-17
59 1 29.0364 152.111 -5.55112e-17
60 2 152.041 147.05 -5.55112e-17
61 2 36.0083 202.736 -5.55112e-17
62 1 10.4898 162.015 -5.55112e-17
63 1 112.112 197.818 -5.55112e-17
64 1 133.964 39.0696 -5.55112e-17
65 1 214.338 114.089 -5.55112e-17
66 1 129.097 134.273 -5.55112e-17
67 1 95.6199 139.924 -5.55112e-17
68 1 66.6247 116.766 -5.55112e-17
69 1 140.691 173.907 -5.55112e-17
70 1 59.1602 111.301 -5.55112e-17
71 1 7.51037 125.861 -5.55112e-17
72 1 171.701 60.8639 -5.55112e-17
73 1 187.982 185.943 -5.55112e-17
74 1 207.063 21.6841 -5.55112e-17
75 2 93.7876 1.02791 -5.55112e-17
76 1 17.8721 4.68136 -5.55112e-17
77 1 36.6286 24.1666 -5.55112e-17
78 1 124.785 117.415 -5.55112e-17
79 2 126.215 0.897945 -5.55112e-17
80 1 75.3224 106.056 -5.55112e-17
81 1 110.542 140.762 -5.55112e-17
82 1 53.8278 141.892 -5.55112e-17
83 2 130.286 181.947 -5.55112e-17
84 1 179.865 80.5691 -5.55112e-17
85 1 22.6326 41.494 -5.55112e-17
86 1 127.997 142.067 -5.55112e-17
87 1 217.033 217.341 -5.55112e-17
88 1 19.3145 34.9745 -5.55112e-17
89 2 44.0577 3.14039 -5.55112e-17
90 2 190.629 187.104 -5.55112e-17
91 1 149.502 90.8535 -5.55112e-17
92 2 168.964 21.2686 -5.55112e-17
93 1 141.699 15.5858 -5.55112e-17
94 2 201.933 12.5282 -5.55112e-17
95 1 33.0302 194.938 -5.55112e-17
96 1 130.423 95.6866 -5.55112e-17
97 1 97.2768 4.48339 -5.55112e-17
98 1 125.416 54.9075 -5.55112e-17
99 1 178.001 21.6874 -5.55112e-17
100 1 176.104 8.85151 -5.55112e-17
101 1 114.358 12.0174 -5.55112e-17
102 1 24.8073 46.4659 -5.55112e-17
103 1 58.2423 80.4557 -5.55112e-17
104 1 68.9295 109.332 -5.55112e-17
105 1 142.636 201.332 -5.55112e-17
106 1 77.9421 102.733 -5.55112e-17
107 2 146.24 101.631 -5.55112e-17
108 1 36.4341 210.418 -5.55112e-17
109 1 54.5259 88.9411 -5.55112e-17
110 1 108.022 62.8468 -5.55112e-17
111 1 61.1758 20.7822 -5.55112e-17
112 1 94.8319 137.277 -5.55112e-17
113 1 99.1331 43.7378 -5.55112e-17
114 1 158.355 23.2522 -5.55112e-17
115 1 51.3196 163.322 -5.55112e-17
116 2 214.457 133.829 -5.55112e-17
117 1 201.602 216.588 -5.55112e-17
118 1 164.815 68.1494 -5.55112e-17
119 2 58.0239 98.8109 -5.55112e-17
120 1 53.3578 199.193 -5.55112e-17
121 1 152.093 83.9325 -5.55112e-17
122 1 102.877 14.589 -5.55112e-17
123 1 136.785 75.9176 -5.55112e-17
124 1 154.665 201.786 -5.55112e-17
125 1 141.673 117.624 -5.55112e-17
126 1 111.578 65.5114 -5.55112e-17
127 1 163.967 78.0979 -5.55112e-17
128 1 175.609 136.61 -5.55112e-17
129 1 7.75024 104.451 -5.55112e-17
130 1 83.6656 128.504 -5.55112e-17
131 1 175.531 152.343 -5.55112e-17
132 2 183.366 2.25295 -5.55112e-17
133 1 126.968 79.4392 -5.55112e-17
134 1 35.3589 86.4871 -5.55112e-17
135 1 78.1809 7.98194 -5.55112e-17
136 1 210.163 201.622 -5.55112e-17
137 1 101.83 136.529 -5.55112e-17
138 1 50.5477 211.971 -5.55112e-17
139 1 202.62 105.628 -5.55112e-17
140 2 142.171 186.133 -5.55112e-17
141 1 205.792 96.478 -5.55112e-17
142 2 212.172 49.4193 -5.55112e-17
143 1 111.27 80.7888 -5.55112e-17
144 2 43.7857 198.904 -5.55112e-17
145 1 172.052 103.169 -5.55112e-17
146 1 99.7315 120.163 -5.55112e-17
147 1 154.455 145.784 -5.55112e-17
148 1 6.59354 200.748 -5.55112e-17
149 1 68.4373 21.483 -5.55112e-17
150 1 53.9336 37.5075 -5.55112e-17
151 1 26.193 112.766 -5.55112e-17
152 1 63.4998 104.59 -5.55112e-17
153 2 52.2917 5.88253 -5.55112e-17
154 1 149.153 94.6936 -5.55112e-17
155 1 107.738 16.9985 -5.55112e-17
156 2 71.6909 116.053 -5.55112e-17
157 1 207.795 104.582 -5.55112e-17
158 1 28.9694 28.6696 -5.55112e-17
159 1 22.2072 136.008 -5.55112e-17
160 1 11.8632 201.242 -5.55112e-17
161 1 1.46438 8.04634 -5.55112e-17
162 1 127.55 127.351 -5.55112e-17
163 1 17.9799 32.6251 -5.55112e-17
164 1 167.032 53.2136 -5.55112e-17
165 1 125.267 121.819 -5.55112e-17
166 2 159.438 60.8531 -5.55112e-17
167 1 175.139 46.8488 -5.55112e-17
168 1 149.077 169.644 -5.55112e-17
169 1 2.34348 101.626 -5.55112e-17
170 1 94.9746 168.514 -5.55112e-17
171 1 146.616 61.0587 -5.55112e-17
172 1 218.717 17.4035 -5.55112e-17
173 1 45.9868 143.314 -5.55112e-17
174 1 130.988 62.6844 -5.55112e-17
175 2 137.638 160.697 -5.55112e-17
176 1 109.979 70.8408 -5.55112e-17
177 2 70.609 56.8317 -5.55112e-17
178 1 65.604 86.93 -5.55112e-17
179 1 173.111 163.971 -5.55112e-17
180 1 203.575 197.301 -5.55112e-17
181 1 134.938 167.194 -5.55112e-17
182 2 77.6412 20.5881 -5.55112e-17
183 1 77.1372 164.151 -5.55112e-17
184 1 176.055 87.2373 -5.55112e-17
185 2 175.117 20.8405 -5.55112e-17
186 2 209.079 134.081 -5.55112e-17
187 1 93.0758 28.9646 -5.55112e-17
188 1 102.851 169.912 -5.55112e-17
189 1 123.371 174.361 -5.55112e-17
190 2 13.3696 161.344 -5.55112e-17
191 1 77.5356 157.57 -5.55112e-17
192 2 63.6039 109.809 -5.55112e-17
193 2 80.0249 172.278 -5.55112e-17
194 1 33.0646 149.378 -5.55112e-17
195 1 145.088 163.453 -5.55112e-17
196 1 168.558 191.437 -5.55112e-17
197 1 74.4762 69.9949 -5.55112e-17
198 2 9.75982 133.08 -5.55112e-17
199 1 210.564 57.2163 -5.55112e-17
200 1 80.5219 6.50756 -5.55112e-17
201 2 71.7397 110.003 -5.55112e-17
202 1 52.8552 210.734 -5.55112e-17
203 1 175.642 81.5126 -5.55112e-17
204 1 187.948 156.581 -5.55112e-17
205 2 191.87 82.4792 -5.55112e-17
206 1 89.2018 132.864 -5.55112e-17
207 1 105.898 29.79 -5.55112e-17
208 1 32.722 86.464 -5.55112e-17
209 1 81.988 2.22477 -5.55112e-17
210 1 7.89156 64.7568 -5.55112e-17
211 2 146.627 156.477 -5.55112e-17
212 1 120.498 112.64 -5.55112e-17
213 1 134.858 103.983 -5.55112e-17
214 1 74.7157 13.8831 -5.55112e-17
215 1 74.4686 201.805 -5.55112e-17
216 1 193.624 139.161 -5.55112e-17
217 1 127.097 186.805 -5.55112e-17
218 2 28.6294 168.601 -5.55112e-17
219 1 155.71 213.852 -5.55112e-17
220 2 107.104 55.3344 -5.55112e-17
221 1 212.809 56.1225 -5.55112e-17
222 1 143.587 146.203 -5.55112e-17
223 1 52.6031 208.019 -5.55112e-17
224 2 9.65452 188.394 -5.55112e-17
225 1 201.225 142.447 -5.55112e-17
226 1 139.162 189.968 -5.55112e-17
227 2 51.0765 17.0446 -5.55112e-17
228 1 138.523 77.7218 -5.55112e-17
229 1 60.6644 135.958 -5.55112e-17
230 1 159.183 131.143 -5.55112e-17
231 1 148.707 123.132 -5.55112e-17
232 1 1.32452 90.7176 -5.55112e-17
233 1 110.069 100.362 -5.55112e-17
234 1 133.591 216.273 -5.55112e-17
235 1 21.0785 143.288 -5.55112e-17
236 1 46.1883 81.6261 -5.55112e-17
237 1 199.067 8.19548 -5.55112e-17
238 1 147.873 128.28 -5.55112e-17
239 2 17.7373 112.431 -5.55112e-17
240 1 99.6708 5.56852 -5.55112e-17
241 2 187.596 14.8015 -5.55112e-17
242 2 198.838 37.116 -5.55112e-17
243 2 114.524 27.8369 -5.55112e-17
244 1 97.5825 7.24632 -5.55112e-17
245 1 84.5037 58.7798 -5.55112e-17
246 1 126.184 119.428 -5.55112e-17
247 1 210.957 98.3168 -5.55112e-17
248 1 94.6017 3.6237 -5.55112e-17
249 1 23.6055 65.7956 -5.55112e-17
250 2 149.653 29.7496 -5.55112e-17
251 1 153.62 212.353 -5.55112e-17
252 1 195.548 64.3341 -5.55112e-17
253 1 94.3495 61.5862 -5.55112e-17
254 2 76.6478 197.258 -5.55112e-17
255 1 212.359 148.793 -5.55112e-17
256 1 84.7526 165.68 -5.55112e-17
257 1 211.831 151.534 -5.55112e-17
258 2 164.089 27.9574 -5.55112e-17
259 1 58.242 166.005 -5.55112e-17
260 1 127.277 11.2215 -5.55112e-17
261 1 184.763 14.0649 -5.55112e-17
262 1 53.1232 52.5888 -5.55112e-17
263 1 12.3956 213.527 -5.55112e-17
264 1 172.331 43.1608 -5.55112e-17
265 1 166.67 23.0136 -5.55112e-17
266 1 155.676 10.0884 -5.55112e-17
267 1 2.67194 64.6603 -5.55112e-17
268 1 21.821 35.3997 -5.55112e-17
269 1 125.938 95.0615 -5.55112e-17
270 1 141.575 106.37 -5.55112e-17
271 1 12.5648 92.7517 -5.55112e-17
272 1 159.178 202.392 -5.55112e-17
273 1 40.7839 169.217 -5.55112e-17
274 2 113.204 87.8618 -5.55112e-17
275 1 64.0817 4.87107 -5.55112e-17
276 2 54.012 32.2144 -5.55112e-17
277 2 167.41 121.951 -5.55112e-17
278 1 38.9685 101.346 -5.55112e-17
279 2 110.004 204.909 -5.55112e-17
280 1 59.818 31.8341 -5.55112e-17
281 1 147.063 28.4941 -5.55112e-17
282 1 164.812 8.22966 -5.55112e-17
283 1 112.951 141.647 -5.55112e-17
284 1 136.613 165.499 -5.55112e-17
285 1 35.9899 12.3728 -5.55112e-17
286 2 33.9124 215.001 -5.55112e-17
287 1 82.7128 135.298 -5.55112e-17
288 1 21.6471 57.8014 -5.55112e-17
289 1 71.6581 53.9973 -5.55112e-17
290 1 151.07 193.648 -5.55112e-17
291 1 158.544 145.006 -5.55112e-17
292 2 19.7792 181.105 -5.55112e-17
293 2 65.8885 194.224 -5.55112e-17
294 1 112.204 40.4339 -5.55112e-17
295 1 124.879 47.9418 -5.55112e-17
296 1 134.75 41.7082 -5.55112e-17
297 1 118.745 145.025 -5.55112e-17
298 1 105.104 198.373 -5.55112e-17
299 1 160.249 106.622 -5.55112e-17
300 2 62.0809 95.0308 -5.55112e-17
301 1 58.8824 46.0879 -5.55112e-17
302 1 127.214 192.554 -5.55112e-17
303 2 198.495 60.0389 -5.55112e-17
304 2 145.077 129.578 -5.55112e-17
305 1 86.1233 99.6336 -5.55112e-17
306 1 51.0239 73.6635 -5.55112e-17
307 1 35.4268 122.423 -5.55112e-17
308 1 161.896 59.4107 -5.55112e-17
309 2 73.3163 184.287 -5.55112e-17
310 1 194.461 215.494 -5.55112e-17
311 1 79.8309 33.5174 -5.55112e-17
312 1 192.267 147.995 -5.55112e-17
313 2 147.182 66.336 -5.55112e-17
314 1 52.0829 135.399 -5.55112e-17
315 1 111.286 150.378 -5.55112e-17
316 1 72.7855 0.769915 -5.55112e-17
317 1 13.7215 99.518 -5.55112e-17
318 1 100.127 214.673 -5.55112e-17
319 1 50.9307 33.3346 -5.55112e-17
320 1 144.531 99.3684 -5.55112e-17
321 1 88.6389 203.652 -5.55112e-17
322 1 143.217 140.517 -5.55112e-17
323 1 187.967 108.09 -5.55112e-17
324 1 81.2355 26.4726 -5.55112e-17
325 1 162.969 139.546 -5.55112e-17
326 1 85.1939 151.893 -5.55112e-17
327 2 149.991 186.379 -5.55112e-17
328 1 167.537 40.5993 -5.55112e-17
329 2 47.324 115.749 -5.55112e-17
330 1 23.9702 102.127 -5.55112e-17
331 1 174.731 175.91 -5.55112e-17
332 2 112.594 104.735 -5.55112e-17
333 1 44.2493 17.9109 -5.55112e-17
334 1 139.667 168.731 -5.55112e-17
335 1 12.4324 206.449 -5.55112e-17
336 1 212.671 106.246 -5.55112e-17
337 1 103.422 182.357 -5.55112e-17
338 1 159.166 58.0649 -5.55112e-17
339 1 109.099 216.78 -5.55112e-17
340 1 153.41 141.515 -5.55112e-17
341 1 160.181 158.658 -5.55112e-17
342 1 128.803 144.623 -5.55112e-17
343 1 127.315 29.1887 -5.55112e-17
344 1 63.8516 181.94 -5.55112e-17
345 1 60.8677 109.554 -5.55112e-17
346 1 9.05275 128.018 -5.55112e-17
347 1 92.1761 92.4991 -5.55112e-17
348 1 163.929 179.447 -5.55112e-17
349 1 193.331 75.5338 -5.55112e-17
350 2 89.9653 40.4798 -5.55112e-17
351 1 154.637 66.1031 -5.55112e-17
352 1 61.1669 182.795 -5.55112e-17
353 1 39.2372 166.772 -5.55112e-17
354 1 167.859 161.569 -5.55112e-17
355 1 58.4087 156.957 -5.55112e-17
356 1 23.9367 36.5844 -5.55112e-17
357 1 62.4611 159.052 -5.55112e-17
358 1 172.01 180.572 -5.55112e-17
359 1 157.779 159.573 -5.55112e-17
360 1 74.156 53.2147 -5.55112e-17
361 1 63.2794 168.154 -5.55112e-17
362 1 169.632 200.891 -5.55112e-17
363 1 163.819 190.471 -5.55112e-17
364 2 116.375 92.798 -5.55112e-17
365 1 178.669 90.6086 -5.55112e-17
366 1 117.676 160.933 -5.55112e-17
367 1 174.305 6.92224 -5.55112e-17
368 1 197.069 192.412 -5.55112e-17
369 2 115.703 187.966 -5.55112e-17
370 1 15.1999 206.04 -5.55112e-17
371 1 53.6305 137.336 -5.55112e-17
372 2 0.474138 93.8995 -5.55112e-17
373 2 212.748 7.99704 -5.55112e-17
374 1 151.132 88.9131 -5.55112e-17
375 1 37.4431 112.051 -5.55112e-17
376 1 16.0841 152.79 -5.55112e-17
377 1 28.9096 213.09 -5.55112e-17
378 1 74.5947 129.354 -5.55112e-17
379 1 43.0902 60.6684 -5.55112e-17
380 1 177.627 150.837 -5.55112e-17
381 1 13.6474 5.66451 -5.55112e-17
382 1 54.424 67.2638 -5.55112e-17
383 1 169.853 67.6544 -5.55112e-17
384 1 21.9675 13.9192 -5.55112e-17
385 1 191.161 76.975 -5.55112e-17
386 2 82.1511 44.2223 -5.55112e-17
387 1 144.102 19.0191 -5.55112e-17
388 1 56.5248 43.9111 -5.55112e-17
389 1 206.443 158.687 -5.55112e-17
390 2 207.605 179.644 -5.55112e-17
391 2 35.7602 40.3881 -5.55112e-17
392 1 41.3977 217.897 -5.55112e-17
393 1 0.811483 33.4431 -5.55112e-17
394 1 102.482 101.397 -5.55112e-17
395 1 16.1464 27.3703 -5.55112e-17
396 1 202.2 153.749 -5.55112e-17
397 1 100.795 16.1121 -5.55112e-17
398 1 10.878 190.909 -5.55112e-17
399 1 19.6384 59.7898 -5.55112e-17
400 1 103.428 179.812 -5.55112e-17
401 1 88.0228 176.787 -5.55112e-17
402 2 191.443 178.96 -5.55112e-17
403 1 214.421 54.1667 -5.55112e-17
404 1 36.1363 71.5756 -5.55112e-17
405 1 204.675 29.3614 -5.55112e-17
406 1 201.081 68.4124 -5.55112e-17
407 2 19.2865 62.7895 -5.55112e-17
408 1 34.3201 35.4419 -5.55112e-17
409 1 169.485 129.168 -5.55112e-17
410 1 19.706 154.93 -5.55112e-17
411 1 151.886 160.765 -5.55112e-17
412 1 115.09 214.674 -5.55112e-17
413 1 63.5513 156.524 -5.55112e-17
414 1 38.2392 13.5946 -5.55112e-17
415 1 207.744 148.308 -5.55112e-17
416 1 72.0435 200.329 -5.55112e-17
417 1 141.002 93.8155 -5.55112e-17
418 2 184.493 7.44387 -5.55112e-17
419 1 108.746 149.71 -5.55112e-17
420 2 137.006 108.825 -5.55112e-17
421 1 87.8969 103.931 -5.55112e-17
422 1 176.483 23.7279 -5.55112e-17
423 2 157.946 41.7782 -5.55112e-17
424 1 157.095 149.445 -5.55112e-17
425 1 129.262 166.784 -5.55112e-17
426 1 133.575 112.858 -5.55112e-17
427 1 45.4085 84.737 -5.55112e-17
428 1 71.4886 191.907 -5.55112e-17
429 1 194.705 83.3895 -5.55112e-17
430 1 215.3 60.2842 -5.55112e-17
431 1 120.68 206.356 -5.55112e-17
432 1 161.349 53.9467 -5.55112e-17
433 1 104.895 153.795 -5.55112e-17
434 1 71.9574 30.1817 -5.55112e-17
435 1 177.902 161.676 -5.55112e-17
436 1 44.5962 36.3678 -5.55112e-17
437 1 175.438 109.434 -5.55112e-17
438 2 109.724 21.6507 -5.55112e-17
439 1 67.3915 208.687 -5.55112e-17
440 1 3.46425 161.673 -5.55112e-17
441 1 192.806 131.544 -5.55112e-17
442 1 50.356 13.9905 -5.55112e-17
443 1 157.973 104.905 -5.55112e-17
444 1 218.631 100.971 -5.55112e-17
445 1 139.517 7.71388 -5.55112e-17
446 1 131.462 78.7798 -5.55112e-17
447 1 39.0092 145.091 -5.55112e-17
448 1 75.738 7.032 -5.55112e-17
449 1 131.949 120.567 -5.55112e-17
450 1 139.876 187.634 -5.55112e-17
451 1 170.689 47.3649 -5.55112e-17
452 1 131.325 144.803 -5.55112e-17
453 1 179.12 182.083 -5.55112e-17
454 1 160.472 211.894 -5.55112e-17
455 1 100.186 71.9597 -5.55112e-17
456 1 167.167 27.2404 -5.55112e-17
457 1 97.8181 113.27 -5.55112e-17
458 1 198.395 0.192574 -5.55112e-17
459 1 81.2186 69.2612 -5.55112e-17
460 1 49.069 102.685 -5.55112e-17
461 1 188.778 177.977 -5.55112e-17
462 1 182.111 116.172 -5.55112e-17
463 1 126.453 33.676 -5.55112e-17
464 1 155.148 195.339 -5.55112e-17
465 1 121.778 159.563 -5.55112e-17
466 1 24.1913 213.703 -5.55112e-17
467 1 17.1802 80.1218 -5.55112e-17
468 1 161.523 218.986 -5.55112e-17
469 1 68.5544 77.6395 -5.55112e-17
470 1 78.0226 37.8072 -5.55112e-17
471 1 128.799 174.222 -5.55112e-17
472 1 47.9573 83.3987 -5.55112e-17
473 1 26.4838 102.75 -5.55112e-17
474 1 88.4125 101.272 -5.55112e-17
475 1 184.882 163.83 -5.55112e-17
476 2 192.28 12.1402 -5.55112e-17
477 1 53.7701 84.6412 -5.55112e-17
478 1 58.3576 126.068 -5.55112e-17
479 1 201.554 80.6134 -5.55112e-17
480 1 85.1593 23.3188 -5.55112e-17
481 1 14.9929 94.5231 -5.55112e-17
482 1 99.5937 159.806 -5.55112e-17
483 1 142.213 159.947 -5.55112e-17
484 2 87.661 45.5524 -5.55112e-17
485 1 34.1237 100.903 -5.55112e-17
486 1 81.7545 17.0661 -5.55112e-17
487 1 101.04 196.47 -5.55112e-17
488 1 5.96204 121.343 -5.55112e-17
489 1 211.827 135.168 -5.55112e-17
490 1 204.996 84.1345 -5.55112e-17
491 1 197.542 121.397 -5.55112e-17
492 1 2.5658 128.607 -5.55112e-17
493 1 193.538 210.659 -5.55112e-17
494 1 211.345 38.5064 -5.55112e-17
495 1 198.436 89.7052 -5.55112e-17
496 2 43.9002 189.433 -5.55112e-17
497 1 39.1086 216.792 -5.55112e-17
498 1 104.952 120.975 -5.55112e-17
499 2 136.564 216.602 -5.55112e-17
500 1 26.318 29.7166 -5.55112e-17
501 2 112.693 216.308 -5.55112e-17
502 2 123.545 143.097 -5.55112e-17
503 1 147.4 183.818 -5.55112e-17
504 1 113.045 148.567 -5.55112e-17
505 1 117.829 18.5803 -5.55112e-17
506 1 25.8099 121.859 -5.55112e-17
507 1 14.4985 130.067 -5.55112e-17
508 1 196.535 217.327 -5.55112e-17
509 2 27.2316 75.7353 -5.55112e-17
510 2 146.259 133.585 -5.55112e-17
511 1 196.252 35.8619 -5.55112e-17
512 2 210.1 60.2075 -5.55112e-17
513 1 56.3374 127.597 -5.55112e-17
514 1 48.7667 18.7892 -5.55112e-17
515 1 204.252 25.4319 -5.55112e-17
516 1 182.985 206.229 -5.55112e-17
517 1 112.021 117.226 -5.55112e-17
518 2 103.267 20.4056 -5.55112e-17
519 1 11.8555 53.103 -5.55112e-17
520 2 212.415 22.8951 -5.55112e-17
521 1 88.7752 111.307 -5.55112e-17
522 1 31.2273 30.433 -5.55112e-17
523 1 24.8655 68.0455 -5.55112e-17
524 1 100.064 74.4438 -5.55112e-17
525 1 175.178 121.161 -5.55112e-17
526 1 190.924 64.8994 -5.55112e-17
527 1 75.4348 4.29926 -5.55112e-17
528 1 168.974 29.0882 -5.55112e-17
529 1 57.0583 158.996 -5.55112e-17
530 1 100.319 31.8801 -5.55112e-17
531 1 66.7422 197.352 -5.55112e-17
532 1 206.707 188.102 -5.55112e-17
533 1 134.153 150.953 -5.55112e-17
534 1 97.4633 144.735 -5.55112e-17
535 1 14.4942 104.814 -5.55112e-17
536 1 203.797 118.166 -5.55112e-17
537 1 201.357 166.738 -5.55112e-17
538 1 168.63 81.1242 -5.55112e-17
539 1 88.7948 211.61 -5.55112e-17
540 1 103.546 88.9504 -5.55112e-17
541 1 40.8893 58.9788 -5.55112e-17
542 1 67.5609 211.324 -5.55112e-17
543 1 147.343 151.844 -5.55112e-17
544 1 128.911 200.339 -5.55112e-17
545 1 7.89601 149.595 -5.55112e-17
546 1 179.362 41.2274 -5.55112e-17
547 1 82.9009 172.231 -5.55112e-17
548 1 99.7943 8.23359 -5.55112e-17
549 1 51.609 76.3535 -5.55112e-17
550 2 162.912 121.642 -5.55112e-17
551 2 134.711 157.698 -5.55112e-17
552 2 94.1937 180.3 -5.55112e-17
553 1 122.36 42.4842 -5.55112e-17
554 1 73.227 101.751 -5.55112e-17
555 2 65.9347 123.946 -5.55112e-17
556 1 148.444 21.7364 -5.55112e-17
557 1 76.6212 12.2217 -5.55112e-17
558 1 148.315 125.732 -5.55112e-17
559 1 187.511 47.635 -5.55112e-17
560 1 131.518 51.3064 -5.55112e-17
561 1 146.547 168.753 -5.55112e-17
562 1 195.474 144.534 -5.55112e-17
563 2 168.083 114.211 -5.55112e-17
564 1 41.876 67.1796 -5.55112e-17
565 1 60.3151 10.4177 -5.55112e-17
566 1 75.2833 34.2408 -5.55112e-17
567 1 150.485 111.354 -5.55112e-17
568 1 22.2491 114.758 -5.55112e-17
569 1 114.344 185.219 -5.55112e-17
570 1 125.05 124.194 -5.55112e-17
571 1 175.62 203.488 -5.55112e-17
572 1 61.5263 112.071 -5.55112e-17
573 1 177.176 76.8998 -5.55112e-17
574 1 41.9239 130.455 -5.55112e-17
575 1 21.6301 76.3735 -5.55112e-17
576 1 196.118 98.8172 -5.55112e-17
577 1 203.069 33.3248 -5.55112e-17
578 1 123.033 196.791 -5.55112e-17
579 1 15.6784 166.914 -5.55112e-17
580 1 102.764 139.001 -5.55112e-17
581 1 141.348 154.323 -5.55112e-17
582 1 75.9247 79.2471 -5.55112e-17
583 1 162.486 185.914 -5.55112e-17
584 2 28.981 117.751 -5.55112e-17
585 1 48.9382 198.636 -5.55112e-17
586 1 137.695 170.689 -5.55112e-17
587 1 99.4914 104.74 -5.55112e-17
588 1 16.9689 1.81478 -5.55112e-17
589 1 103.212 17.3062 -5.55112e-17
590 1 70.4061 218.936 -5.55112e-17
591 1 215.304 162.07 -5.55112e-17
592 1 56.1069 156.154 -5.55112e-17
593 1 209.774 181.42 -5.55112e-17
594 1 181.636 181.046 -5.55112e-17
595 1 82.8815 39.4251 -5.55112e-17
596 1 65.936 35.767 -5.55112e-17
597 2 180.521 204.443 -5.55112e-17
598 1 167.215 211.661 -5.55112e-17
599 1 207.912 171.245 -5.55112e-17
600 1 104.865 10.4181 -5.55112e-17
601 1 11.7267 135.031 -5.55112e-17
602 1 97.976 31.0509 -5.55112e-17
603 1 207.935 202.841 -5.55112e-17
604 1 120.547 1.22615 -5.55112e-17
605 2 85.3513 77.659 -5.55112e-17
606 1 102.851 201.986 -5.55112e-17
607 2 171.64 146.553 -5.55112e-17
608 1 95.1225 76.7091 -5.55112e-17
609 1 16.0745 6.40305 -5.55112e-17
610 1 214.251 150.495 -5.55112e-17
611 1 201.927 190.449 -5.55112e-17
612 1 218.089 38.0234 -5.55112e-17
613 1 58.9043 150.975 -5.55112e-17
614 2 128.068 179.103 -5.55112e-17
615 1 105.516 18.3452 -5.55112e-17
616 1 202.502 130.567 -5.55112e-17
617 1 127.34 198.263 -5.55112e-17
618 1 201.171 212.255 -5.55112e-17
619 1 179.275 78.1903 -5.55112e-17
620 1 141.238 141.949 -5.55112e-17
621 1 197.153 94.2191 -5.55112e-17
622 1 95.1407 213.388 -5.55112e-17
623 1 218.66 12.1249 -5.55112e-17
624 1 23.9061 209.123 -5.55112e-17
625 1 204.49 154.729 -5.55112e-17
626 1 94.2683 191.015 -5.55112e-17
627 1 64.0308 74.0189 -5.55112e-17
628 1 34.4263 28.3387 -5.55112e-17
629 1 10.2561 94.2616 -5.55112e-17
630 2 151.377 22.2247 -5.55112e-17
631 1 15.3842 86.5574 -5.55112e-17
632 1 49.4873 92.2797 -5.55112e-17
633 1 38.7207 211.42 -5.55112e-17
634 1 1.17525 147.528 -5.55112e-17
635 1 155.038 150.905 -5.55112e-17
636 1 208.057 57.852 -5.55112e-17
637 1 201.223 58.4291 -5.55112e-17
638 1 172.793 76.8191 -5.55112e-17
639 2 203.701 78.7851 -5.55112e-17
640 1 143.561 152.812 -5.55112e-17
641 1 192.937 85.2965 -5.55112e-17
642 1 32.1926 91.7758 -5.55112e-17
643 2 181.908 42.8737 -5.55112e-17
644 1 68.4945 155.115 -5.55112e-17
645 1 107.032 196.4 -5.55112e-17
646 2 212.109 141.356 -5.55112e-17
647 1 10.8166 185.213 -5.55112e-17
648 1 132.512 102.981 -5.55112e-17
649 2 23.6583 151.309 -5.55112e-17
650 1 204.673 186.546 -5.55112e-17
651 1 218.527 112.995 -5.55112e-17
652 1 153.238 43.9072 -5.55112e-17
653 1 114.551 175.374 -5.55112e-17
654 1 23.0927 21.5556 -5.55112e-17
655 2 183.553 101.27 -5.55112e-17
656 1 30.1827 125.15 -5.55112e-17
657 2 79.2148 207.107 -5.55112e-17
658 1 54.1243 44.2977 -5.55112e-17
659 2 156.781 192.771 -5.55112e-17
660 1 102.217 55.36 -5.55112e-17
661 1 42.6992 116.762 -5.55112e-17
662 1 81.609 130.374 -5.55112e-17
663 1 32.2441 25.5835 -5.55112e-17
664 1 146.303 17.6445 -5.55112e-17
665 1 139.571 75.3941 -5.55112e-17
666 2 47.9497 181.001 -5.55112e-17
667 1 93.0947 99.6894 -5.55112e-17
668 2 102.107 93.7351 -5.55112e-17
669 1 36.2957 17.87 -5.55112e-17
670 1 96.6858 173.303 -5.55112e-17
671 2 54.0076 176.126 -5.55112e-17
672 1 186.604 12.1229 -5.55112e-17
673 1 63.3903 19.2182 -5.55112e-17
674 1 2.35003 31.5589 -5.55112e-17
675 1 128.471 23.5498 -5.55112e-17
676 1 169.678 123.787 -5.55112e-17
677 1 131.434 174.631 -5.55112e-17
678 1 137.583 30.8029 -5.55112e-17
679 2 152.188 33.0989 -5.55112e-17
680 1 202.902 41.5323 -5.55112e-17
681 2 129.44 119.106 -5.55112e-17
682 1 0.358822 47.8692 -5.55112e-17
683 1 68.451 4.22005 -5.55112e-17
684 1 119.988 154.512 -5.55112e-17
685 1 152.979 38.6723 -5.55112e-17
686 1 27.7798 193.814 -5.55112e-17
687 1 118.685 191.794 -5.55112e-17
688 1 162.751 110.423 -5.55112e-17
689 2 56.2219 46.7542 -5.55112e-17
690 1 70.5723 19.8009 -5.55112e-17
691 1 89.0933 66.2977 -5.55112e-17
692 1 130.917 8.21879 -5.55112e-17
693 1 48.4864 143.171 -5.55112e-17
694 1 75.9708 125.099 -5.55112e-17
695 1 146.082 38.5493 -5.55112e-17
696 1 146.329 81.4381 -5.55112e-17
697 1 139.851 201.692 -5.55112e-17
698 1 116.559 65.9737 -5.55112e-17
699 1 180.513 191.48 -5.55112e-17
700 1 205.689 209.555 -5.55112e-17
701 1 53.9577 16.8899 -5.55112e-17
702 1 113.555 128.87 -5.55112e-17
703 2 188.257 144.062 -5.55112e-17
704 1 29.0902 218.334 -5.55112e-17
705 2 68.9592 112.21 -5.55112e-17
706 1 165.711 177.303 -5.55112e-17
707 1 113.978 24.8799 -5.55112e-17
708 1 84.2058 209.008 -5.55112e-17
709 1 147.379 196.524 -5.55112e-17
710 1 192.332 191.707 -5.55112e-17
711 1 111.397 93.1658 -5.55112e-17
712 1 192.268 208.083 -5.55112e-17
713 1 14.0182 136.442 -5.55112e-17
714 1 135.602 13.042 -5.55112e-17
715 1 55.9985 199.002 -5.55112e-17
716 1 40.4945 123.808 -5.55112e-17
717 1 51.8661 107.428 -5.55112e-17
718 1 131.433 184.896 -5.55112e-17
719 2 119.72 78.7851 -5.55112e-17
720 1 98.7378 64.8702 -5.55112e-17
721 1 95.5165 98.7257 -5.55112e-17
722 1 133.68 62.9649 -5.55112e-17
723 2 48.4503 46.0011 -5.55112e-17
724 1 15.5668 49.4967 -5.55112e-17
725 1 29.4444 109.226 -5.55112e-17
726 1 189.49 45.8662 -5.55112e-17
727 1 148.613 205.54 -5.55112e-17
728 2 18.1762 87.8332 -5.55112e-17
729 1 133.922 164.827 -5.55112e-17
730 1 174.377 198.985 -5.55112e-17
731 1 49.2878 189.922 -5.55112e-17
732 1 218.439 9.48507 -5.55112e-17
733 1 205.556 34.1322 -5.55112e-17
734 1 4.17058 29.8856 -5.55112e-17
735 1 41.3985 23.0499 -5.55112e-17
736 2 190.287 74.2819 -5.55112e-17
737 1 81.6827 86.6763 -5.55112e-17
738 1 19.9773 165.533 -5.55112e-17
739 1 105.727 156.292 -5.55112e-17
740 1 59.9603 116.187 -5.55112e-17
741 2 188.926 78.5268 -5.55112e-17
742 1 74.315 43.6166 -5.55112e-17
743 1 203.106 66.7681 -5.55112e-17
744 2 210.689 172.35 -5.55112e-17
745 1 130.791 31.8024 -5.55112e-17
746 1 14.1383 29.3959 -5.55112e-17
747 2 204.218 22.4158 -5.55112e-17
748 1 182.744 192.884 -5.55112e-17
749 1 196.264 211.023 -5.55112e-17
750 1 212.935 163.303 -5.55112e-17
751 1 59.7657 58.8373 -5.55112e-17
752 1 177.969 105.91 -5.55112e-17
753 1 99.1587 150.619 -5.55112e-17
754 1 14.6345 215.295 -5.55112e-17
755 1 83.1361 195.086 -5.55112e-17
756 2 103.935 195.677 -5.55112e-17
757 1 27.2839 18.6573 -5.55112e-17
758 1 135.546 146.263 -5.55112e-17
759 1 72.9964 107.395 -5.55112e-17
760 1 95.2023 39.8309 -5.55112e-17
761 1 58.3982 161.437 -5.55112e-17
762 1 43.8887 23.4903 -5.55112e-17
763 1 114.284 99.9142 -5.55112e-17
764 2 177.673 147.957 -5.55112e-17
765 1 91.7924 62.5444 -5.55112e-17
766 1 114.129 35.7987 -5.55112e-17
767 1 97.0127 78.3026 -5.55112e-17
768 1 9.6277 3.81161 -5.55112e-17
769 1 107.899 75.614 -5.55112e-17
770 2 113.598 109.571 -5.55112e-17
771 1 143.835 178.977 -5.55112e-17
772 1 102.191 28.2402 -5.55112e-17
773 1 109.442 167.143 -5.55112e-17
774 1 111.349 123.897 -5.55112e-17
775 1 68.9184 6.76837 -5.55112e-17
776 1 38.1833 10.9157 -5.55112e-17
777 1 108.138 181.74 -5.55112e-17
778 1 22.7311 19.1085 -5.55112e-17
779 1 191.791 44.3494 -5.55112e-17
780 1 3.25906 168.727 -5.55112e-17
781 1 127.296 100.334 -5.55112e-17
782 1 175.609 49.5877 -5.55112e-17
783 1 98.2909 15.1626 -5.55112e-17
784 2 194.602 159.405 -5.55112e-17
785 1 111.145 165.236 -5.55112e-17
786 1 119.352 176.99 -5.55112e-17
787 1 185.439 75.0781 -5.55112e-17
788 1 177.155 45.1928 -5.55112e-17
789 2 143.342 108.956 -5.55112e-17
790 1 109.686 28.1633 -5.55112e-17
791 2 14.3308 121.942 -5.55112e-17
792 2 215.909 13.4622 -5.55112e-17
793 2 115.952 69.0002 -5.55112e-17
794 1 56.2922 188.309 -5.55112e-17
795 1 132.348 53.5736 -5.55112e-17
796 1 130.419 21.9057 -5.55112e-17
797 1 197.625 155.731 -5.55112e-17
798 2 195.7 204.193 -5.55112e-17
799 2 207.657 65.2663 -5.55112e-17
800 2 55.5218 217.339 -5.55112e-17
801 1 102.859 132.124 -5.55112e-17
802 1 124.401 75.7794 -5.55112e-17
803 1 182.111 68.5413 -5.55112e-17
804 2 123.121 204.663 -5.55112e-17
805 1 44.9705 106.825 -5.55112e-17
806 1 11.7584 117.148 -5.55112e-17
807 2 100.442 99.243 -5.55112e-17
808 1 14.5529 116.695 -5.55112e-17
809 2 57.8775 134.297 -5.55112e-17
810 1 129.914 197.777 -5.55112e-17
811 1 32.8439 5.7188 -5.55112e-17
812 1 131.768 34.3037 -5.55112e-17
813 2 107.935 110.888 -5.55112e-17
814 1 147.008 69.3092 -5.55112e-17
815 1 89.1281 164.292 -5.55112e-17
816 1 200.643 10.0649 -5.55112e-17
817 1 107.992 214.463 -5.55112e-17
818 1 57.5616 101.703 -5.55112e-17
819 1 9.48628 136.133 -5.55112e-17
820 1 45.4187 120.401 -5.55112e-17
821 1 94.5064 151.635 -5.55112e-17
822 2 41.8502 135.736 -5.55112e-17
823 2 139.19 91.4592 -5.55112e-17
824 1 35.1217 108.059 -5.55112e-17
825 1 65.5289 15.2484 -5.55112e-17
826 1 190.356 14.0715 -5.55112e-17
827 1 193.028 107.542 -5.55112e-17
828 1 142.106 123.498 -5.55112e-17
829 1 127.306 210.706 -5.55112e-17
830 1 81.3833 127.68 -5.55112e-17
831 1 217.401 42.9382 -5.55112e-17
832 1 93.1246 87.3963 -5.55112e-17
833 1 62.1446 84.4281 -5.55112e-17
834 1 106.98 8.78886 -5.55112e-17
835 1 58.1704 218.203 -5.55112e-17
836 1 11.06 50.6115 -5.55112e-17
837 1 6.79145 70.8238 -5.55112e-17
838 1 98.5227 178.373 -5.55112e-17
839 2 198.209 3.22273 -5.55112e-17
840 1 4.69003 202.645 -5.55112e-17
841 2 63.2712 184.875 -5.55112e-17
842 1 94.6834 91.6066 -5.55112e-17
843 2 159.519 183.107 -5.55112e-17
844 1 25.9512 158.714 -5.55112e-17
845 1 71.4065 189.273 -5.55112e-17
846 1 159.36 190.877 -5.55112e-17
847 1 42.1973 140.887 -5.55112e-17
848 1 188.615 117.596 -5.55112e-17
849 1 189.16 166.795 -5.55112e-17
850 1 39.7336 129.237 -5.55112e-17
851 1 89.3738 37.2718 -5.55112e-17
852 1 11.5024 209.044 -5.55112e-17
853 1 32.3516 138.883 -5.55112e-17
854 1 171.256 84.8594 -5.55112e-17
855 1 125.898 19.7109 -5.55112e-17