ITEM: TIMESTEP
0
ITEM: NUMBER OF ATOMS
7200
ITEM: BOX BOUNDS xy xz yz pp pp pp
0.0000000000000000e+00 2.1900000000000000e+02 0.0000000000000000e+00
0.0000000000000000e+00 2.1900000000000000e+02 0.0000000000000000e+00
-3.6499999999999999e-01 3.6499999999999999e-01 0.0000000000000000e+00
ITEM: ATOMS id type x y z
1 1 67.2793 135.447 -5.55112e-17
2 1 185.96 105.797 -5.55112e-17
3 1 12.1412 160.85 -5.55112e-17
4 1 22.8371 81.9608 -5.55112e-17
5 1 216.274 157.498 -5.55112e-17
6 1 131.524 2.1957 -5.55112e-17
7 1 44.7513 43.5764 -5.55112e-17
8 2 150.099 83.7383 -5.55112e-17
9 1 205.723 4.89192 -5.55112e-17
10 2 59.5402 187.698 -5.55112e-17
11 1 123.458 202.589 -5.55112e-17
12 1 135.24 97.4562 -5.55112e-17
13 2 50.8171 75.9088 -5.55112e-17
14 1 65.9082 18.0148 -5.55112e-17
15 1 139.359 94.0778 -5.55112e-17
16 2 53.7549 175.858 -5.55112e-17
17 1 116.122 33.1155 -5.55112e-17
18 2 35.7242 68.4572 -5.55112e-17
19 1 103.912 57.7129 -5.55112e-17
20 1 149.223 111.083 -5.55112e-17
21 1 42.2952 5.91709 -5.55112e-17
22 2 45.5434 140.212 -5.55112e-17
23 2 13.1807 58.6283 -5.55112e-17
24 1 146.566 111.68 -5.55112e-17
25 1 75.2595 186.569 -5.55112e-17
26 2 87.0946 97.5162 -5.55112e-17
27 1 157.726 177.708 -5.55112e-17
28 2 21.2716 154.123 -5.55112e-17
29 1 50.0766 67.7813 -5.55112e-17
30 1 144.271 98.9504 -5.55112e-17
31 1 211.11 90.2075 -5.55112e-17
32 1 50.6882 119.151 -5.55112e-17
33 1 168.387 150.672 -5.55112e-17
34 1 47.715 63.5733 -5.55112e-17
35 1 176.531 68.5874 -5.55112e-17
36 1 55.4554 78.4016 -5.55112e-17
37 2 138.189 142.026 -5.55112e-17
38 1 196.966 74.3882 -5.55112e-17
39 1 118.397 145.627 -5.55112e-17
40 1 168.596 167.818 -5.55112e-17
41 1 120.289 182.768 -5.55112e-17
42 1 95.2503 43.3089 -5.55112e-17
43 1 142.707 68.117 -5.55112e-17
44 1 106.987 27.5161 -5.55112e-17
45 1 213.559 81.6716 -5.55112e-17
46 1 32.0068 202.565 -5.55112e-17
47 1 88.2767 172.623 -5.55112e-17
48 2 53.6267 80.8008 -5.55112e-17
49 1 70.28 123.688 -5.55112e-17
50 1 42.4244 192.334 -5.55112e-17
51 1 181.5 34.5761 -5.55112e-17
52 1 201.615 127.84 -5.55112e-17
53 1 156.264 42.7612 -5.55112e-17
54 1 25.0453 128.32 -5.55112e-17
55 1 18.9913 43.8312 -5.55112e-17
56 1 117.512 140.587 -5.55112e-17
57 2 69.9215 211.481 -5.55112e-17
58 1 35.7681 40.3086 -5.55112e-17
59 1 26.7135 141.082 -5.55112e-17
60 2 150.214 148.961 -5.55112e-17
61 2 41.5408 195.135 -5.55112e-17
62 1 14.4166 159.205 -5.55112e-17
63 1 118.356 195.314 -5.55112e-17
64 1 133.85 38.3465 -5.55112e-17
65 1 215.624 116.635 -5.55112e-17
66 1 127.023 136.113 -5.55112e-17
67 1 96.0178 140.046 -5.55112e-17
68 1 64.0557 128.304 -5.55112e-17
69 1 145.025 176.98 -5.55112e-17
70 1 56.5915 112.865 -5.55112e-17
71 1 0.596678 122.447 -5.55112e-17
72 1 171.62 60.2937 -5.55112e-17
73 1 188.56 186.709 -5.55112e-17
74 1 206.752 21.5211 -5.55112e-17
75 2 94.1486 1.77366 -5.55112e-17
76 1 18.7366 5.69748 -5.55112e-17
77 1 49.1023 31.3746 -5.55112e-17
78 1 115.962 101.784 -5.55112e-17
79 2 122.182 2.45051 -5.55112e-17
80 1 81.0781 107.341 -5.55112e-17
81 1 110.26 141.435 -5.55112e-17
82 1 55.5672 140.513 -5.55112e-17
83 2 129.865 182.782 -5.55112e-17
84 1 178.993 80.6714 -5.55112e-17
85 1 29.1067 45.2177 -5.55112e-17
86 1 128.278 143.474 -5.55112e-17
87 1 15.1468 1.22087 -5.55112e-17
88 1 26.4016 44.874 -5.55112e-17
89 2 44.1553 3.69532 -5.55112e-17
90 2 191.102 188.058 -5.55112e-17
91 1 144.515 96.3683 -5.55112e-17
92 2 164.359 18.33 -5.55112e-17
93 1 144.154 22.7722 -5.55112e-17
94 2 201.436 14.322 -5.55112e-17
95 1 41.1034 204.619 -5.55112e-17
96 1 149.215 88.2371 -5.55112e-17
97 1 95.1658 213.885 -5.55112e-17
98 1 119.882 50.0277 -5.55112e-17
99 1 172.152 23.5951 -5.55112e-17
100 1 174.862 11.6718 -5.55112e-17
101 1 132.09 218.802 -5.55112e-17
102 1 11.8389 38.9721 -5.55112e-17
103 1 53.525 74.3437 -5.55112e-17
104 1 71.3862 119.404 -5.55112e-17
105 1 144.141 204.211 -5.55112e-17
106 1 77.3149 101.83 -5.55112e-17
107 2 154.879 105.548 -5.55112e-17
108 1 36.407 210.502 -5.55112e-17
109 1 36.2759 82.7828 -5.55112e-17
110 1 96.6424 61.183 -5.55112e-17
111 1 61.5959 21.1611 -5.55112e-17
112 1 95.2438 137.525 -5.55112e-17
113 1 103.356 50.7259 -5.55112e-17
114 1 159.95 30.7949 -5.55112e-17
115 1 60.7781 169.412 -5.55112e-17
116 2 212.527 133.694 -5.55112e-17
117 1 196.915 212.933 -5.55112e-17
118 1 164.616 67.6385 -5.55112e-17
119 2 70.2844 104.508 -5.55112e-17
120 1 49.5803 201.56 -5.55112e-17
121 1 158.235 72.0348 -5.55112e-17
122 1 102.312 13.3746 -5.55112e-17
123 1 130.906 101.196 -5.55112e-17
124 1 156.235 197.823 -5.55112e-17
125 1 137.993 139.01 -5.55112e-17
126 1 101.765 56.2694 -5.55112e-17
127 1 153.668 86.5443 -5.55112e-17
128 1 175.716 136.815 -5.55112e-17
129 1 8.08213 102.32 -5.55112e-17
130 1 87.9384 127.778 -5.55112e-17
131 1 176.098 153.231 -5.55112e-17
132 2 183.125 216.582 -5.55112e-17
133 1 116.982 79.5638 -5.55112e-17
134 1 11.7481 96.6565 -5.55112e-17
135 1 78.268 8.65481 -5.55112e-17
136 1 210.032 204.863 -5.55112e-17
137 1 102.062 136.902 -5.55112e-17
138 1 50.6355 212.143 -5.55112e-17
139 1 205.165 110.638 -5.55112e-17
140 2 142.728 181.65 -5.55112e-17
141 1 198.367 89.0508 -5.55112e-17
142 2 211.533 48.9591 -5.55112e-17
143 1 110.88 82.3805 -5.55112e-17
144 2 44.9651 193.807 -5.55112e-17
145 1 183.402 98.7039 -5.55112e-17
146 1 105.521 117.343 -5.55112e-17
147 1 139.305 146.922 -5.55112e-17
148 1 2.23156 215.465 -5.55112e-17
149 1 68.4475 22.1825 -5.55112e-17
150 1 48.2406 37.2912 -5.55112e-17
151 1 23.1753 111.654 -5.55112e-17
152 1 65.5804 110.413 -5.55112e-17
153 2 52.3643 6.1337 -5.55112e-17
154 1 137.351 123.845 -5.55112e-17
155 1 107.244 214.249 -5.55112e-17
156 2 72.2044 114.049 -5.55112e-17
157 1 207.866 104.512 -5.55112e-17
158 1 43.3619 26.1118 -5.55112e-17
159 1 19.7914 140.005 -5.55112e-17
160 1 14.2108 203.667 -5.55112e-17
161 1 14.106 5.7902 -5.55112e-17
162 1 137.57 144.81 -5.55112e-17
163 1 21.8583 36.0729 -5.55112e-17
164 1 166.401 52.7076 -5.55112e-17
165 1 133.263 130.359 -5.55112e-17
166 2 159.144 60.4923 -5.55112e-17
167 1 174.895 46.366 -5.55112e-17
168 1 148.54 169.065 -5.55112e-17
169 1 1.61439 100.665 -5.55112e-17
170 1 94.4913 168.323 -5.55112e-17
171 1 149.686 63.0722 -5.55112e-17
172 1 218.455 16.6738 -5.55112e-17
173 1 48.3519 140.637 -5.55112e-17
174 1 137.974 60.6771 -5.55112e-17
175 2 136.882 161.396 -5.55112e-17
176 1 104.735 67.8537 -5.55112e-17
177 2 77.2221 55.7541 -5.55112e-17
178 1 65.7107 85.0142 -5.55112e-17
179 1 173.915 164.391 -5.55112e-17
180 1 203.933 197.692 -5.55112e-17
181 1 134.593 168.118 -5.55112e-17
182 2 78.0241 20.9815 -5.55112e-17
183 1 72.9654 161.313 -5.55112e-17
184 1 175.776 86.8158 -5.55112e-17
185 2 184.449 18.092 -5.55112e-17
186 2 208.843 134.655 -5.55112e-17
187 1 93.1831 29.8778 -5.55112e-17
188 1 102.228 170.352 -5.55112e-17
189 1 123.319 175.361 -5.55112e-17
190 2 14.9955 164.811 -5.55112e-17
191 1 73.2336 156.4 -5.55112e-17
192 2 65.4013 125.452 -5.55112e-17
193 2 75.7196 171.744 -5.55112e-17
194 1 27.9754 155.041 -5.55112e-17
195 1 145.48 166.18 -5.55112e-17
196 1 168.493 188.169 -5.55112e-17
197 1 74.2723 70.2244 -5.55112e-17
198 2 11.3673 131.909 -5.55112e-17
199 1 209.494 57.9579 -5.55112e-17
200 1 80.5476 6.94995 -5.55112e-17
201 2 77.692 107.803 -5.55112e-17
202 1 52.646 210.857 -5.55112e-17
203 1 174.65 81.6493 -5.55112e-17
204 1 188.907 156.744 -5.55112e-17
205 2 191.193 82.334 -5.55112e-17
206 1 89.5644 133.513 -5.55112e-17
207 1 101.361 35.63 -5.55112e-17
208 1 20.0366 68.6898 -5.55112e-17
209 1 82.2753 2.68873 -5.55112e-17
210 1 12.9707 65.7952 -5.55112e-17
211 2 144.118 158.089 -5.55112e-17
212 1 115.013 118.468 -5.55112e-17
213 1 146.722 91.9452 -5.55112e-17
214 1 74.664 14.5304 -5.55112e-17
215 1 74.6572 202.019 -5.55112e-17
216 1 199.548 141.573 -5.55112e-17
217 1 123.53 186.828 -5.55112e-17
218 2 29.7243 163.068 -5.55112e-17
219 1 155.117 209.846 -5.55112e-17
220 2 106.565 58.7124 -5.55112e-17
221 1 209.773 60.6388 -5.55112e-17
222 1 149.217 135.463 -5.55112e-17
223 1 52.4636 208.105 -5.55112e-17
224 2 10.5154 188.433 -5.55112e-17
225 1 197.082 142.334 -5.55112e-17
226 1 141.963 184.791 -5.55112e-17
227 2 51.3274 16.673 -5.55112e-17
228 1 130.995 111.331 -5.55112e-17
229 1 61.5352 128.16 -5.55112e-17
230 1 158.445 134.008 -5.55112e-17
231 1 146.502 119.103 -5.55112e-17
232 1 215.608 80.1696 -5.55112e-17
233 1 106.996 95.7723 -5.55112e-17
234 1 115.621 202.524 -5.55112e-17
235 1 16.7454 147.351 -5.55112e-17
236 1 30.9814 85.0211 -5.55112e-17
237 1 198.96 214.329 -5.55112e-17
238 1 151.876 126.153 -5.55112e-17
239 2 16.3386 111.193 -5.55112e-17
240 1 97.7794 8.25084 -5.55112e-17
241 2 186.187 23.5275 -5.55112e-17
242 2 198.707 36.9825 -5.55112e-17
243 2 121.43 20.6161 -5.55112e-17
244 1 100.41 9.50701 -5.55112e-17
245 1 84.3852 55.8455 -5.55112e-17
246 1 129.552 123.41 -5.55112e-17
247 1 210.612 97.5597 -5.55112e-17
248 1 95.3778 4.32466 -5.55112e-17
249 1 17.8588 67.729 -5.55112e-17
250 2 150.16 34.683 -5.55112e-17
251 1 154.367 212.333 -5.55112e-17
252 1 194.254 64.6108 -5.55112e-17
253 1 99.056 60.1692 -5.55112e-17
254 2 77.1274 197.563 -5.55112e-17
255 1 212.942 149.098 -5.55112e-17
256 1 84.1683 165.965 -5.55112e-17
257 1 212.494 151.706 -5.55112e-17
258 2 169.21 27.9548 -5.55112e-17
259 1 53.6671 161.225 -5.55112e-17
260 1 128.891 14.3469 -5.55112e-17
261 1 182.366 11.1262 -5.55112e-17
262 1 42.9879 71.6999 -5.55112e-17
263 1 16.1933 217.943 -5.55112e-17
264 1 172.646 42.6142 -5.55112e-17
265 1 164.299 28.585 -5.55112e-17
266 1 145.951 7.5679 -5.55112e-17
267 1 6.80257 62.0859 -5.55112e-17
268 1 25.7849 42.2831 -5.55112e-17
269 1 124.223 100.398 -5.55112e-17
270 1 135.04 99.9795 -5.55112e-17
271 1 15.3561 90.0553 -5.55112e-17
272 1 158.321 199.554 -5.55112e-17
273 1 52.9099 169.131 -5.55112e-17
274 2 114.884 88.8904 -5.55112e-17
275 1 64.1883 4.77272 -5.55112e-17
276 2 52.3674 31.2313 -5.55112e-17
277 2 170.827 123 -5.55112e-17
278 1 51.3857 78.7149 -5.55112e-17
279 2 107.443 0.194796 -5.55112e-17
280 1 59.9437 31.8241 -5.55112e-17
281 1 151.336 20.8186 -5.55112e-17
282 1 162.995 8.42234 -5.55112e-17
283 1 113.036 142.008 -5.55112e-17
284 1 136.235 166.129 -5.55112e-17
285 1 36.3657 12.8371 -5.55112e-17
286 2 34.0614 215.218 -5.55112e-17
287 1 70.5011 130.315 -5.55112e-17
288 1 14.3914 55.8761 -5.55112e-17
289 1 74.8516 50.2026 -5.55112e-17
290 1 153.022 189.088 -5.55112e-17
291 1 156.937 141.662 -5.55112e-17
292 2 20.5272 181.277 -5.55112e-17
293 2 64.8843 193.32 -5.55112e-17
294 1 124.771 48.2815 -5.55112e-17
295 1 120.376 44.7378 -5.55112e-17
296 1 134.481 40.9184 -5.55112e-17
297 1 118.028 143.168 -5.55112e-17
298 1 105.857 196.105 -5.55112e-17
299 1 184.827 116.538 -5.55112e-17
300 2 67.2779 96.9439 -5.55112e-17
301 1 74.7063 57.1992 -5.55112e-17
302 1 128.694 193.06 -5.55112e-17
303 2 198.834 57.7492 -5.55112e-17
304 2 149.011 125.467 -5.55112e-17
305 1 87.3735 100.331 -5.55112e-17
306 1 48.0468 80.1303 -5.55112e-17
307 1 15.8841 95.4284 -5.55112e-17
308 1 161.303 58.8416 -5.55112e-17
309 2 69.3475 184.386 -5.55112e-17
310 1 199.672 211.785 -5.55112e-17
311 1 80.2451 33.9608 -5.55112e-17
312 1 192.332 148.21 -5.55112e-17
313 2 142.901 71.5147 -5.55112e-17
314 1 37.5783 127.401 -5.55112e-17
315 1 111.052 150.764 -5.55112e-17
316 1 73.0341 1.13285 -5.55112e-17
317 1 40.7875 106.761 -5.55112e-17
318 1 105.099 8.34783 -5.55112e-17
319 1 55.8223 36.1585 -5.55112e-17
320 1 138.134 77.3479 -5.55112e-17
321 1 88.7893 204.21 -5.55112e-17
322 1 147.403 140.814 -5.55112e-17
323 1 198.248 96.3072 -5.55112e-17
324 1 81.6214 27.2994 -5.55112e-17
325 1 162.45 139.886 -5.55112e-17
326 1 84.5636 151.853 -5.55112e-17
327 2 151.454 181.686 -5.55112e-17
328 1 170.1 38.7582 -5.55112e-17
329 2 44.2628 112.078 -5.55112e-17
330 1 13.0469 111.67 -5.55112e-17
331 1 175.162 176.793 -5.55112e-17
332 2 110.927 100.843 -5.55112e-17
333 1 46.5591 19.9691 -5.55112e-17
334 1 139.685 169.213 -5.55112e-17
335 1 16.2136 205.095 -5.55112e-17
336 1 212.952 105.481 -5.55112e-17
337 1 102.908 182.113 -5.55112e-17
338 1 158.797 57.5121 -5.55112e-17
339 1 109.433 9.97497 -5.55112e-17
340 1 141.821 130.608 -5.55112e-17
341 1 163.101 174.579 -5.55112e-17
342 1 131.836 153.165 -5.55112e-17
343 1 132.256 25.8811 -5.55112e-17
344 1 43.2428 182.18 -5.55112e-17
345 1 62.618 115.284 -5.55112e-17
346 1 4.63449 128.522 -5.55112e-17
347 1 92.7695 92.7243 -5.55112e-17
348 1 164.308 180.429 -5.55112e-17
349 1 192.605 75.526 -5.55112e-17
350 2 87.9663 45.4206 -5.55112e-17
351 1 154.337 65.3969 -5.55112e-17
352 1 68.9411 168.081 -5.55112e-17
353 1 51.4324 171.171 -5.55112e-17
354 1 152.655 169.147 -5.55112e-17
355 1 62.9001 159.186 -5.55112e-17
356 1 35.7008 42.6427 -5.55112e-17
357 1 60.5519 160.444 -5.55112e-17
358 1 174.773 182.744 -5.55112e-17
359 1 163.266 157.914 -5.55112e-17
360 1 79.2859 57.7205 -5.55112e-17
361 1 55.3266 178.321 -5.55112e-17
362 1 170.145 200.589 -5.55112e-17
363 1 161.164 194.254 -5.55112e-17
364 2 109.597 97.5061 -5.55112e-17
365 1 178.453 90.4614 -5.55112e-17
366 1 117.02 161.717 -5.55112e-17
367 1 177.01 6.19242 -5.55112e-17
368 1 197.575 193.033 -5.55112e-17
369 2 114.719 188.779 -5.55112e-17
370 1 4.84878 215.901 -5.55112e-17
371 1 57.2901 136.503 -5.55112e-17
372 2 0.561239 93.2033 -5.55112e-17
373 2 208.557 8.96371 -5.55112e-17
374 1 153.627 97.1368 -5.55112e-17
375 1 35.1367 113.074 -5.55112e-17
376 1 10.4757 153.54 -5.55112e-17
377 1 28.894 213.442 -5.55112e-17
378 1 67.7905 123.335 -5.55112e-17
379 1 37.3052 44.3977 -5.55112e-17
380 1 178.102 151.737 -5.55112e-17
381 1 17.8202 1.14894 -5.55112e-17
382 1 57.3271 61.1678 -5.55112e-17
383 1 169.224 67.2579 -5.55112e-17
384 1 22.4354 14.5294 -5.55112e-17
385 1 190.658 77.0825 -5.55112e-17
386 2 85.3232 41.4799 -5.55112e-17
387 1 148.255 12.7458 -5.55112e-17
388 1 72.4888 46.8179 -5.55112e-17
389 1 209.754 161.138 -5.55112e-17
390 2 208.082 179.946 -5.55112e-17
391 2 47.7151 33.9646 -5.55112e-17
392 1 41.74 218.299 -5.55112e-17
393 1 0.398978 33.3355 -5.55112e-17
394 1 106.1 106.628 -5.55112e-17
395 1 15.8441 28.2148 -5.55112e-17
396 1 205.718 152.25 -5.55112e-17
397 1 101.147 17.6659 -5.55112e-17
398 1 11.5686 191.109 -5.55112e-17
399 1 30.9913 56.5559 -5.55112e-17
400 1 103.125 179.771 -5.55112e-17
401 1 87.3177 176.695 -5.55112e-17
402 2 191.915 179.648 -5.55112e-17
403 1 214.137 54.0243 -5.55112e-17
404 1 42.1779 80.5952 -5.55112e-17
405 1 204.661 29.2355 -5.55112e-17
406 1 197.715 67.262 -5.55112e-17
407 2 17.1165 62.3163 -5.55112e-17
408 1 43.9262 31.582 -5.55112e-17
409 1 163.804 126.263 -5.55112e-17
410 1 16.5667 157.824 -5.55112e-17
411 1 151.503 162.247 -5.55112e-17
412 1 106.224 216.746 -5.55112e-17
413 1 69.5323 165.81 -5.55112e-17
414 1 38.7557 13.9323 -5.55112e-17
415 1 208.705 148.426 -5.55112e-17
416 1 69.689 198.827 -5.55112e-17
417 1 158.703 80.0616 -5.55112e-17
418 2 182.152 0.671356 -5.55112e-17
419 1 108.234 150.243 -5.55112e-17
420 2 153.843 100.073 -5.55112e-17
421 1 89.2496 104.493 -5.55112e-17
422 1 180.015 17.5816 -5.55112e-17
423 2 160.211 39.0624 -5.55112e-17
424 1 141.41 135.53 -5.55112e-17
425 1 128.905 167.429 -5.55112e-17
426 1 137.356 110.451 -5.55112e-17
427 1 51.0225 83.5049 -5.55112e-17
428 1 69.0329 196.519 -5.55112e-17
429 1 193.88 83.0591 -5.55112e-17
430 1 217.306 61.9179 -5.55112e-17
431 1 131.591 209.344 -5.55112e-17
432 1 161.023 53.7198 -5.55112e-17
433 1 104.758 154.407 -5.55112e-17
434 1 72.03 30.6512 -5.55112e-17
435 1 178.808 162.257 -5.55112e-17
436 1 35.5132 34.3218 -5.55112e-17
437 1 181.182 100.252 -5.55112e-17
438 2 115.331 26.3075 -5.55112e-17
439 1 64.9066 208.702 -5.55112e-17
440 1 2.0997 162.898 -5.55112e-17
441 1 190.294 133.512 -5.55112e-17
442 1 51.3063 13.6828 -5.55112e-17
443 1 162.605 105.777 -5.55112e-17
444 1 218.255 99.9465 -5.55112e-17
445 1 138.362 215.599 -5.55112e-17
446 1 165.349 96.8375 -5.55112e-17
447 1 46.5171 149.898 -5.55112e-17
448 1 75.994 7.6424 -5.55112e-17
449 1 124.062 131.673 -5.55112e-17
450 1 140.95 192.235 -5.55112e-17
451 1 170.559 46.9291 -5.55112e-17
452 1 130.953 143.778 -5.55112e-17
453 1 179.66 182.948 -5.55112e-17
454 1 159.504 211.645 -5.55112e-17
455 1 100.057 72.4723 -5.55112e-17
456 1 162.368 32.3189 -5.55112e-17
457 1 98.9603 113.458 -5.55112e-17
458 1 192.989 3.9236 -5.55112e-17
459 1 81.3859 69.9488 -5.55112e-17
460 1 47.4751 91.1688 -5.55112e-17
461 1 189.28 178.597 -5.55112e-17
462 1 183.229 110.515 -5.55112e-17
463 1 124.327 27.5835 -5.55112e-17
464 1 153.729 194.261 -5.55112e-17
465 1 121.337 160.313 -5.55112e-17
466 1 23.6219 211.931 -5.55112e-17
467 1 29.9797 80.0362 -5.55112e-17
468 1 159.015 218.546 -5.55112e-17
469 1 63.3076 76.9199 -5.55112e-17
470 1 78.1445 38.1156 -5.55112e-17
471 1 128.757 174.932 -5.55112e-17
472 1 52.6553 90.4103 -5.55112e-17
473 1 45.1792 117.518 -5.55112e-17
474 1 89.509 102.027 -5.55112e-17
475 1 185.569 164.367 -5.55112e-17
476 2 187.321 13.5978 -5.55112e-17
477 1 55.0632 90.6429 -5.55112e-17
478 1 35.3735 117.739 -5.55112e-17
479 1 201.143 80.5961 -5.55112e-17
480 1 85.727 24.0066 -5.55112e-17
481 1 7.16447 99.7463 -5.55112e-17
482 1 99.1163 160.209 -5.55112e-17
483 1 144.717 163.532 -5.55112e-17
484 2 83.1183 48.7214 -5.55112e-17
485 1 36.3333 93.1663 -5.55112e-17
486 1 81.9154 17.5943 -5.55112e-17
487 1 101.062 196.653 -5.55112e-17
488 1 12.8158 118.554 -5.55112e-17
489 1 2.87169 130.328 -5.55112e-17
490 1 207.376 84.4354 -5.55112e-17
491 1 202.272 114.537 -5.55112e-17
492 1 5.39366 131.092 -5.55112e-17
493 1 189.798 0.676642 -5.55112e-17
494 1 211.286 38.1569 -5.55112e-17
495 1 198.668 91.8893 -5.55112e-17
496 2 40.5207 187.214 -5.55112e-17
497 1 39.3245 217.12 -5.55112e-17
498 1 106.301 121.994 -5.55112e-17
499 2 134.768 8.48909 -5.55112e-17
500 1 40.2962 35.291 -5.55112e-17
501 2 118.803 216.809 -5.55112e-17
502 2 125.721 144.633 -5.55112e-17
503 1 147.549 184.174 -5.55112e-17
504 1 112.769 148.954 -5.55112e-17
505 1 119.028 22.8131 -5.55112e-17
506 1 27.8198 128.231 -5.55112e-17
507 1 20.7186 129.918 -5.55112e-17
508 1 198.366 4.90545 -5.55112e-17
509 2 33.6193 83.6032 -5.55112e-17
510 2 143.984 134.142 -5.55112e-17
511 1 193.949 37.5303 -5.55112e-17
512 2 207.104 59.7405 -5.55112e-17
513 1 44.9771 134.759 -5.55112e-17
514 1 48.625 16.8246 -5.55112e-17
515 1 204.614 24.8346 -5.55112e-17
516 1 182.674 213.497 -5.55112e-17
517 1 113.909 122.916 -5.55112e-17
518 2 103.101 10.6267 -5.55112e-17
519 1 11.1729 52.9897 -5.55112e-17
520 2 212.681 22.5076 -5.55112e-17
521 1 90.0933 111.472 -5.55112e-17
522 1 26.2815 26.9404 -5.55112e-17
523 1 15.2752 66.8983 -5.55112e-17
524 1 99.9107 75.0039 -5.55112e-17
525 1 187.321 115.419 -5.55112e-17
526 1 190.023 64.7719 -5.55112e-17
527 1 75.583 4.96038 -5.55112e-17
528 1 156.099 26.2566 -5.55112e-17
529 1 52.8574 139.895 -5.55112e-17
530 1 97.211 41.3255 -5.55112e-17
531 1 58.1734 190.47 -5.55112e-17
532 1 207.085 188.832 -5.55112e-17
533 1 127.654 141.077 -5.55112e-17
534 1 96.8919 144.784 -5.55112e-17
535 1 11.0112 106.176 -5.55112e-17
536 1 210.172 122.638 -5.55112e-17
537 1 201.776 167.216 -5.55112e-17
538 1 167.986 80.4839 -5.55112e-17
539 1 89.359 211.929 -5.55112e-17
540 1 103.526 87.0031 -5.55112e-17
541 1 57.3101 46.1852 -5.55112e-17
542 1 64.8841 211.198 -5.55112e-17
543 1 151.685 151.757 -5.55112e-17
544 1 143.618 199.474 -5.55112e-17
545 1 12.4225 147.625 -5.55112e-17
546 1 179.421 40.8529 -5.55112e-17
547 1 81.1983 172.42 -5.55112e-17
548 1 102.833 2.98895 -5.55112e-17
549 1 53.5132 88.0048 -5.55112e-17
550 2 161.759 124.367 -5.55112e-17
551 2 133.916 158.178 -5.55112e-17
552 2 93.4731 180.333 -5.55112e-17
553 1 123.847 36.4305 -5.55112e-17
554 1 68.0121 109.884 -5.55112e-17
555 2 71.4728 126.996 -5.55112e-17
556 1 146.917 22.6105 -5.55112e-17
557 1 76.6537 12.7841 -5.55112e-17
558 1 133.271 117.757 -5.55112e-17
559 1 187.377 47.6267 -5.55112e-17
560 1 140.577 59.8925 -5.55112e-17
561 1 148.425 173.608 -5.55112e-17
562 1 195.508 144.511 -5.55112e-17
563 2 167.599 123.423 -5.55112e-17
564 1 16.7194 72.7476 -5.55112e-17
565 1 60.4656 10.5488 -5.55112e-17
566 1 75.5352 34.6314 -5.55112e-17
567 1 130.45 121.164 -5.55112e-17
568 1 37.2936 129.893 -5.55112e-17
569 1 113.975 185.682 -5.55112e-17
570 1 123.118 133.932 -5.55112e-17
571 1 176.385 203.705 -5.55112e-17
572 1 42.0355 109.191 -5.55112e-17
573 1 176.424 76.7645 -5.55112e-17
574 1 35.7951 123.433 -5.55112e-17
575 1 16.4066 98.3686 -5.55112e-17
576 1 192.25 97.3244 -5.55112e-17
577 1 202.83 33.4001 -5.55112e-17
578 1 118.845 209.11 -5.55112e-17
579 1 13.1158 169.212 -5.55112e-17
580 1 102.812 139.509 -5.55112e-17
581 1 142.343 155.831 -5.55112e-17
582 1 75.196 79.5657 -5.55112e-17
583 1 164.926 191.307 -5.55112e-17
584 2 24.2374 120.69 -5.55112e-17
585 1 49.5306 191.43 -5.55112e-17
586 1 137.59 171.358 -5.55112e-17
587 1 98.2938 105.276 -5.55112e-17
588 1 19.2259 214.431 -5.55112e-17
589 1 105.66 16.4867 -5.55112e-17
590 1 70.6351 0.267734 -5.55112e-17
591 1 216.453 162.622 -5.55112e-17
592 1 62.7835 170.918 -5.55112e-17
593 1 209.928 182.377 -5.55112e-17
594 1 182.403 181.822 -5.55112e-17
595 1 82.8816 40.2427 -5.55112e-17
596 1 65.8711 36.0121 -5.55112e-17
597 2 184.299 204.719 -5.55112e-17
598 1 167.208 210.568 -5.55112e-17
599 1 208.43 171.638 -5.55112e-17
600 1 118.376 20.4362 -5.55112e-17
601 1 22.4641 127.996 -5.55112e-17
602 1 98.4458 32.0162 -5.55112e-17
603 1 213.279 215.684 -5.55112e-17
604 1 124.183 9.75936 -5.55112e-17
605 2 85.2545 78.3234 -5.55112e-17
606 1 103.032 200.843 -5.55112e-17
607 2 172.022 147.114 -5.55112e-17
608 1 94.9786 76.9291 -5.55112e-17
609 1 16.6756 6.84865 -5.55112e-17
610 1 214.922 150.544 -5.55112e-17
611 1 202.382 190.99 -5.55112e-17
612 1 218.04 37.9532 -5.55112e-17
613 1 61.5555 152.083 -5.55112e-17
614 2 127.515 180.14 -5.55112e-17
615 1 128.854 22.2149 -5.55112e-17
616 1 204.123 116.313 -5.55112e-17
617 1 122.089 205.845 -5.55112e-17
618 1 188.178 207.881 -5.55112e-17
619 1 178.416 78.2348 -5.55112e-17
620 1 146.983 134.441 -5.55112e-17
621 1 205.237 93.3387 -5.55112e-17
622 1 93.9287 211.648 -5.55112e-17
623 1 218.868 11.5948 -5.55112e-17
624 1 24.4776 209.586 -5.55112e-17
625 1 205.85 155.574 -5.55112e-17
626 1 94.1132 190.897 -5.55112e-17
627 1 58.2906 72.0509 -5.55112e-17
628 1 28.2448 25.1812 -5.55112e-17
629 1 25.1239 104.571 -5.55112e-17
630 2 153.87 18.6646 -5.55112e-17
631 1 29.8409 77.6464 -5.55112e-17
632 1 57.4064 102.446 -5.55112e-17
633 1 38.8715 211.381 -5.55112e-17
634 1 2.40858 147.82 -5.55112e-17
635 1 163.708 149.348 -5.55112e-17
636 1 208.7 65.9644 -5.55112e-17
637 1 206.55 56.8582 -5.55112e-17
638 1 171.966 76.6048 -5.55112e-17
639 2 203.056 78.4556 -5.55112e-17
640 1 135.184 148.86 -5.55112e-17
641 1 191.988 84.9391 -5.55112e-17
642 1 26.5308 89.54 -5.55112e-17
643 2 181.799 42.6347 -5.55112e-17
644 1 65.1241 160.395 -5.55112e-17
645 1 108.598 197.154 -5.55112e-17
646 2 215.991 142.051 -5.55112e-17
647 1 11.3236 185.604 -5.55112e-17
648 1 137.345 96.0774 -5.55112e-17
649 2 25.4023 153.465 -5.55112e-17
650 1 205.165 187.032 -5.55112e-17
651 1 0.169813 112.074 -5.55112e-17
652 1 160.85 45.1777 -5.55112e-17
653 1 114.098 176.118 -5.55112e-17
654 1 23.3155 22.0897 -5.55112e-17
655 2 180.623 105.533 -5.55112e-17
656 1 49.083 106.909 -5.55112e-17
657 2 79.6011 207.634 -5.55112e-17
658 1 57.6325 48.6995 -5.55112e-17
659 2 157.544 190.703 -5.55112e-17
660 1 112.437 46.2083 -5.55112e-17
661 1 40.0508 126.474 -5.55112e-17
662 1 86.0335 129.959 -5.55112e-17
663 1 34.6604 19.9294 -5.55112e-17
664 1 146.981 9.98602 -5.55112e-17
665 1 141.735 81.1359 -5.55112e-17
666 2 50.2894 183.717 -5.55112e-17
667 1 94.4451 99.7006 -5.55112e-17
668 2 102.826 90.0529 -5.55112e-17
669 1 38.9098 16.2609 -5.55112e-17
670 1 96.0254 173.29 -5.55112e-17
671 2 49.0127 169.884 -5.55112e-17
672 1 182.236 13.6947 -5.55112e-17
673 1 63.5861 19.5194 -5.55112e-17
674 1 2.11989 31.4263 -5.55112e-17
675 1 121.482 23.7136 -5.55112e-17
676 1 160.816 114.041 -5.55112e-17
677 1 131.552 175.583 -5.55112e-17
678 1 138.478 29.8125 -5.55112e-17
679 2 151.15 28.1885 -5.55112e-17
680 1 202.34 41.3046 -5.55112e-17
681 2 131.008 128.407 -5.55112e-17
682 1 0.145338 47.9467 -5.55112e-17
683 1 68.8722 4.36625 -5.55112e-17
684 1 119.735 155.203 -5.55112e-17
685 1 147.398 34.9608 -5.55112e-17
686 1 29.1608 186.494 -5.55112e-17
687 1 128.177 190.55 -5.55112e-17
688 1 166.229 101.928 -5.55112e-17
689 2 52.9176 37.8037 -5.55112e-17
690 1 70.6109 20.3383 -5.55112e-17
691 1 90.8771 68.3714 -5.55112e-17
692 1 134.043 16.0799 -5.55112e-17
693 1 50.9768 165.128 -5.55112e-17
694 1 62.7596 130.701 -5.55112e-17
695 1 155.908 45.1846 -5.55112e-17
696 1 140.173 70.1062 -5.55112e-17
697 1 142.678 202.085 -5.55112e-17
698 1 120.344 69.2679 -5.55112e-17
699 1 181.363 191.985 -5.55112e-17
700 1 205.389 207.214 -5.55112e-17
701 1 50.2006 21.6628 -5.55112e-17
702 1 113.927 129.902 -5.55112e-17
703 2 188.669 144.266 -5.55112e-17
704 1 29.4272 218.887 -5.55112e-17
705 2 64.4883 113.194 -5.55112e-17
706 1 160.716 173.903 -5.55112e-17
707 1 122.015 26.5893 -5.55112e-17
708 1 84.5747 209.45 -5.55112e-17
709 1 144.22 197.002 -5.55112e-17
710 1 193.015 192.497 -5.55112e-17
711 1 122.51 88.5922 -5.55112e-17
712 1 194.907 211.219 -5.55112e-17
713 1 21.7389 132.424 -5.55112e-17
714 1 141.23 15.6643 -5.55112e-17
715 1 62.3876 188.684 -5.55112e-17
716 1 39.7181 128.926 -5.55112e-17
717 1 49.1901 112.34 -5.55112e-17
718 1 128.212 185.582 -5.55112e-17
719 2 114.998 77.1712 -5.55112e-17
720 1 94.1426 62.2799 -5.55112e-17
721 1 96.9588 98.5035 -5.55112e-17
722 1 126.195 62.0986 -5.55112e-17
723 2 46.6875 45.6418 -5.55112e-17
724 1 15.7933 51.9851 -5.55112e-17
725 1 43.6936 97.7478 -5.55112e-17
726 1 189.166 45.8535 -5.55112e-17
727 1 148.338 205.828 -5.55112e-17
728 2 44.0071 94.9701 -5.55112e-17
729 1 133.568 165.696 -5.55112e-17
730 1 175.385 199.451 -5.55112e-17
731 1 57.7525 185.13 -5.55112e-17
732 1 7.27723 7.73108 -5.55112e-17
733 1 205.441 33.9726 -5.55112e-17
734 1 3.73317 29.6866 -5.55112e-17
735 1 48.0659 25.3547 -5.55112e-17
736 2 189.537 74.4151 -5.55112e-17
737 1 81.9948 86.8205 -5.55112e-17
738 1 12.5962 166.546 -5.55112e-17
739 1 105.473 156.594 -5.55112e-17
740 1 33.916 110.887 -5.55112e-17
741 2 188.23 78.4864 -5.55112e-17
742 1 69.164 42.2104 -5.55112e-17
743 1 203.322 63.6408 -5.55112e-17
744 2 211.395 172.901 -5.55112e-17
745 1 131.623 30.903 -5.55112e-17
746 1 13.7078 29.6635 -5.55112e-17
747 2 203.55 22.2348 -5.55112e-17
748 1 183.677 193.865 -5.55112e-17
749 1 192.042 211.594 -5.55112e-17
750 1 214.235 164.304 -5.55112e-17
751 1 46.467 61.4722 -5.55112e-17
752 1 172.708 104.897 -5.55112e-17
753 1 99.1372 151.302 -5.55112e-17
754 1 11.1976 216.961 -5.55112e-17
755 1 83.3911 194.885 -5.55112e-17
756 2 103.531 198.267 -5.55112e-17
757 1 27.4342 18.9512 -5.55112e-17
758 1 130.825 150.615 -5.55112e-17
759 1 73.1308 108.735 -5.55112e-17
760 1 90.7783 46.1212 -5.55112e-17
761 1 59.7915 180.242 -5.55112e-17
762 1 40.4276 22.6593 -5.55112e-17
763 1 118.01 103.931 -5.55112e-17
764 2 177.851 148.757 -5.55112e-17
765 1 94.2466 52.4671 -5.55112e-17
766 1 105.799 33.1068 -5.55112e-17
767 1 97.1077 78.4597 -5.55112e-17
768 1 14.1429 215.993 -5.55112e-17
769 1 106.186 79.8304 -5.55112e-17
770 2 115.016 113.345 -5.55112e-17
771 1 139.505 185.248 -5.55112e-17
772 1 102.006 28.6238 -5.55112e-17
773 1 109.157 167.555 -5.55112e-17
774 1 112.419 124.954 -5.55112e-17
775 1 69.2747 7.02636 -5.55112e-17
776 1 38.3124 11.3503 -5.55112e-17
777 1 108.004 181.818 -5.55112e-17
778 1 22.8012 19.5894 -5.55112e-17
779 1 191.511 44.361 -5.55112e-17
780 1 3.87284 169.996 -5.55112e-17
781 1 118.732 101.372 -5.55112e-17
782 1 175.32 49.218 -5.55112e-17
783 1 98.6495 16.4798 -5.55112e-17
784 2 195.533 159.703 -5.55112e-17
785 1 110.736 165.759 -5.55112e-17
786 1 119.215 177.556 -5.55112e-17
787 1 184.464 75.0208 -5.55112e-17
788 1 177.041 45.0994 -5.55112e-17
789 2 136.023 105.58 -5.55112e-17
790 1 110.481 35.1509 -5.55112e-17
791 2 17.7959 120.132 -5.55112e-17
792 2 215.688 12.1841 -5.55112e-17
793 2 116.131 72.0647 -5.55112e-17
794 1 51.2366 189.65 -5.55112e-17
795 1 123.726 58.1847 -5.55112e-17
796 1 123.977 22.5189 -5.55112e-17
797 1 198.31 155.63 -5.55112e-17
798 2 195.934 205.988 -5.55112e-17
799 2 206.114 64.7488 -5.55112e-17
800 2 55.7669 217.644 -5.55112e-17
801 1 101.143 134.359 -5.55112e-17
802 1 122.483 78.7803 -5.55112e-17
803 1 181.171 68.602 -5.55112e-17
804 2 130.433 4.86709 -5.55112e-17
805 1 47.0761 115.734 -5.55112e-17
806 1 10.3376 112.111 -5.55112e-17
807 2 105.491 98.2959 -5.55112e-17
808 1 14.0022 116.207 -5.55112e-17
809 2 56.3674 130.642 -5.55112e-17
810 1 122.031 213.305 -5.55112e-17
811 1 33.2385 6.27946 -5.55112e-17
812 1 132.517 33.3797 -5.55112e-17
813 2 110.798 107.078 -5.55112e-17
814 1 129.361 65.9636 -5.55112e-17
815 1 88.6016 164.675 -5.55112e-17
816 1 190.424 13.4207 -5.55112e-17
817 1 111.346 208.563 -5.55112e-17
818 1 58.9536 111.381 -5.55112e-17
819 1 13.4983 140.848 -5.55112e-17
820 1 59.1552 113.803 -5.55112e-17
821 1 94.2871 151.845 -5.55112e-17
822 2 34.5701 131.791 -5.55112e-17
823 2 142.538 84.3358 -5.55112e-17
824 1 40.6896 72.6701 -5.55112e-17
825 1 65.6217 15.33 -5.55112e-17
826 1 193.088 205.843 -5.55112e-17
827 1 196.564 100.925 -5.55112e-17
828 1 134.023 132.823 -5.55112e-17
829 1 136.449 10.9192 -5.55112e-17
830 1 71.7415 134.861 -5.55112e-17
831 1 217.37 42.7024 -5.55112e-17
832 1 93.4509 87.4472 -5.55112e-17
833 1 52.2438 85.7674 -5.55112e-17
834 1 114.106 207.694 -5.55112e-17
835 1 57.1446 1.24173 -5.55112e-17
836 1 10.4137 47.8014 -5.55112e-17
837 1 4.68005 73.6337 -5.55112e-17
838 1 97.7495 178.565 -5.55112e-17
839 2 200.63 6.37895 -5.55112e-17
840 1 6.15098 218.556 -5.55112e-17
841 2 68.8169 175.232 -5.55112e-17
842 1 95.1175 91.6727 -5.55112e-17
843 2 163.966 177.519 -5.55112e-17
844 1 38.8975 159.808 -5.55112e-17
845 1 64.307 197.739 -5.55112e-17
846 1 162.318 191.031 -5.55112e-17
847 1 62.728 154.534 -5.55112e-17
848 1 191.36 111.737 -5.55112e-17
849 1 190.014 167.27 -5.55112e-17
850 1 21.4287 125.672 -5.55112e-17
851 1 94.819 40.9312 -5.55112e-17
852 1 9.15436 204.785 -5.55112e-17
853 1 31.3246 132.378 -5.55112e-17
854 1 170.506 84.5423 -5.55112e-17
855 1 124.076 19.2109 -5.55112e-17
856 1 213.143 169.864 -5.55112e-17