ITEM: TIMESTEP
0
ITEM: NUMBER OF ATOMS
7200
ITEM: BOX BOUNDS xy xz yz pp pp pp
0.0000000000000000e+00 2.1900000000000000e+02 0.0000000000000000e+00
0.0000000000000000e+00 2.1900000000000000e+02 0.0000000000000000e+00
-3.6499999999999999e-01 3.6499999999999999e-01 0.0000000000000000e+00
ITEM: ATOMS id type x y z
1 1 67.6986 134.809 -5.55112e-17
2 1 183.243 108.547 -5.55112e-17
3 1 14.0519 158.412 -5.55112e-17
4 1 3.78405 86.3279 -5.55112e-17
5 1 215.592 157.195 -5.55112e-17
6 1 117.319 210.593 -5.55112e-17
7 1 42.3276 51.7705 -5.55112e-17
8 2 149.172 83.3342 -5.55112e-17
9 1 203.287 9.85716 -5.55112e-17
10 2 58.1371 193.457 -5.55112e-17
11 1 114.727 14.8084 -5.55112e-17
12 1 129.208 78.0607 -5.55112e-17
13 2 51.4146 79.3224 -5.55112e-17
14 1 65.5618 18.0852 -5.55112e-17
15 1 137.152 105.509 -5.55112e-17
16 2 61.0424 172.57 -5.55112e-17
17 1 114.203 30.7867 -5.55112e-17
18 2 31.7216 78.3433 -5.55112e-17
19 1 106.671 52.5839 -5.55112e-17
20 1 144.413 103.506 -5.55112e-17
21 1 41.9922 5.57456 -5.55112e-17
22 2 49.7518 147.978 -5.55112e-17
23 2 17.1857 54.7088 -5.55112e-17
24 1 159.336 99.4886 -5.55112e-17
25 1 75.8412 182.941 -5.55112e-17
26 2 86.308 96.8835 -5.55112e-17
27 1 155.915 174.3 -5.55112e-17
28 2 22.5144 156.322 -5.55112e-17
29 1 53.3644 46.6886 -5.55112e-17
30 1 139.451 88.2373 -5.55112e-17
31 1 211.362 90.5549 -5.55112e-17
32 1 58.0607 104.588 -5.55112e-17
33 1 157.342 154.453 -5.55112e-17
34 1 61.3171 77.656 -5.55112e-17
35 1 177.248 68.8463 -5.55112e-17
36 1 61.5356 75.1496 -5.55112e-17
37 2 136.448 140.31 -5.55112e-17
38 1 197.767 74.4392 -5.55112e-17
39 1 122.17 138.142 -5.55112e-17
40 1 165.594 164.05 -5.55112e-17
41 1 120.72 182.428 -5.55112e-17
42 1 102.961 36.0679 -5.55112e-17
43 1 135.461 60.9112 -5.55112e-17
44 1 107.26 23.3091 -5.55112e-17
45 1 214.838 84.6665 -5.55112e-17
46 1 28.3423 203.334 -5.55112e-17
47 1 89.0262 172.284 -5.55112e-17
48 2 47.6757 86.2959 -5.55112e-17
49 1 76.6593 110.597 -5.55112e-17
50 1 46.2847 197.608 -5.55112e-17
51 1 181.123 34.5113 -5.55112e-17
52 1 203.692 132.563 -5.55112e-17
53 1 156.456 27.3025 -5.55112e-17
54 1 24.2125 119.353 -5.55112e-17
55 1 22.835 48.539 -5.55112e-17
56 1 117.554 139.999 -5.55112e-17
57 2 67.9434 214.764 -5.55112e-17
58 1 32.7746 40.5352 -5.55112e-17
59 1 28.7102 152.035 -5.55112e-17
60 2 151.928 146.953 -5.55112e-17
61 2 36.0175 202.82 -5.55112e-17
62 1 10.6971 162.265 -5.55112e-17
63 1 111.911 197.764 -5.55112e-17
64 1 133.901 39.3468 -5.55112e-17
65 1 214.138 114.016 -5.55112e-17
66 1 128.926 134.216 -5.55112e-17
67 1 95.6833 139.803 -5.55112e-17
68 1 66.7152 116.602 -5.55112e-17
69 1 141.074 173.938 -5.55112e-17
70 1 59.0259 111.271 -5.55112e-17
71 1 7.78769 125.685 -5.55112e-17
72 1 171.533 60.6352 -5.55112e-17
73 1 187.953 185.838 -5.55112e-17
74 1 207.248 21.6146 -5.55112e-17
75 2 93.6444 1.23248 -5.55112e-17
76 1 17.7787 4.68474 -5.55112e-17
77 1 36.2936 24.3544 -5.55112e-17
78 1 124.52 117.274 -5.55112e-17
79 2 126.623 1.13979 -5.55112e-17
80 1 74.9505 106.378 -5.55112e-17
81 1 110.587 141.065 -5.55112e-17
82 1 53.8062 141.926 -5.55112e-17
83 2 129.955 182.253 -5.55112e-17
84 1 179.75 80.6891 -5.55112e-17
85 1 22.02 41.1531 -5.55112e-17
86 1 128.203 142.307 -5.55112e-17
87 1 217.429 217.116 -5.55112e-17
88 1 19.3845 35.0162 -5.55112e-17
89 2 43.877 3.34987 -5.55112e-17
90 2 190.474 187.402 -5.55112e-17
91 1 149.468 90.5933 -5.55112e-17
92 2 168.991 21.3895 -5.55112e-17
93 1 141.616 15.1269 -5.55112e-17
94 2 201.809 12.5024 -5.55112e-17
95 1 33.2392 194.957 -5.55112e-17
96 1 130.327 95.939 -5.55112e-17
97 1 97.1558 4.83316 -5.55112e-17
98 1 125.556 55.2378 -5.55112e-17
99 1 178.084 21.4763 -5.55112e-17
100 1 176.241 8.62686 -5.55112e-17
101 1 114.494 12.3413 -5.55112e-17
102 1 24.7146 46.5607 -5.55112e-17
103 1 58.055 80.8535 -5.55112e-17
104 1 68.7384 109.248 -5.55112e-17
105 1 142.56 201.364 -5.55112e-17
106 1 77.8133 102.778 -5.55112e-17
107 2 146.44 101.411 -5.55112e-17
108 1 36.2918 210.397 -5.55112e-17
109 1 54.6306 89.103 -5.55112e-17
110 1 108.037 63.1696 -5.55112e-17
111 1 61.0627 20.9663 -5.55112e-17
112 1 94.9548 137.326 -5.55112e-17
113 1 99.4239 43.8129 -5.55112e-17
114 1 158.477 23.164 -5.55112e-17
115 1 51.3739 163.311 -5.55112e-17
116 2 214.379 133.879 -5.55112e-17
117 1 201.498 216.351 -5.55112e-17
118 1 164.957 68.1119 -5.55112e-17
119 2 57.9866 98.8688 -5.55112e-17
120 1 53.2997 199.453 -5.55112e-17
121 1 152.146 83.9584 -5.55112e-17
122 1 103.099 14.7637 -5.55112e-17
123 1 136.789 75.8185 -5.55112e-17
124 1 154.837 201.305 -5.55112e-17
125 1 141.407 117.843 -5.55112e-17
126 1 111.643 65.6343 -5.55112e-17
127 1 163.683 78.2171 -5.55112e-17
128 1 175.514 136.502 -5.55112e-17
129 1 7.52388 104.121 -5.55112e-17
130 1 83.724 128.571 -5.55112e-17
131 1 175.488 152.68 -5.55112e-17
132 2 183.488 1.98281 -5.55112e-17
133 1 127.127 79.5813 -5.55112e-17
134 1 35.5657 86.2746 -5.55112e-17
135 1 78.1446 8.43909 -5.55112e-17
136 1 210.449 201.746 -5.55112e-17
137 1 101.869 136.816 -5.55112e-17
138 1 50.4637 212.405 -5.55112e-17
139 1 202.576 105.473 -5.55112e-17
140 2 142.125 186.098 -5.55112e-17
141 1 205.753 96.5599 -5.55112e-17
142 2 211.853 49.0682 -5.55112e-17
143 1 111.427 80.8154 -5.55112e-17
144 2 43.4104 199.219 -5.55112e-17
145 1 172.389 103.112 -5.55112e-17
146 1 99.8887 120.117 -5.55112e-17
147 1 154.417 145.656 -5.55112e-17
148 1 6.82675 200.969 -5.55112e-17
149 1 68.2349 21.7259 -5.55112e-17
150 1 54.1123 37.381 -5.55112e-17
151 1 26.2345 112.801 -5.55112e-17
152 1 63.268 104.792 -5.55112e-17
153 2 52.147 6.26841 -5.55112e-17
154 1 148.976 94.7276 -5.55112e-17
155 1 108.057 16.5905 -5.55112e-17
156 2 71.6178 116.141 -5.55112e-17
157 1 207.624 104.714 -5.55112e-17
158 1 29.1489 29.1248 -5.55112e-17
159 1 22.2403 135.786 -5.55112e-17
160 1 12.1516 201.335 -5.55112e-17
161 1 1.46435 8.02751 -5.55112e-17
162 1 127.406 127.536 -5.55112e-17
163 1 17.9265 32.7634 -5.55112e-17
164 1 166.875 52.976 -5.55112e-17
165 1 124.999 121.766 -5.55112e-17
166 2 159.467 60.6032 -5.55112e-17
167 1 174.969 46.6843 -5.55112e-17
168 1 149.123 169.467 -5.55112e-17
169 1 1.77441 101.891 -5.55112e-17
170 1 94.9277 168.338 -5.55112e-17
171 1 146.758 60.9619 -5.55112e-17
172 1 218.868 17.4229 -5.55112e-17
173 1 45.9523 143.433 -5.55112e-17
174 1 131.331 62.8022 -5.55112e-17
175 2 137.572 160.793 -5.55112e-17
176 1 109.764 70.7605 -5.55112e-17
177 2 70.6822 56.8567 -5.55112e-17
178 1 65.6289 87.0686 -5.55112e-17
179 1 173.201 163.723 -5.55112e-17
180 1 203.592 196.953 -5.55112e-17
181 1 135.01 167.484 -5.55112e-17
182 2 77.4752 20.8377 -5.55112e-17
183 1 76.8882 164.175 -5.55112e-17
184 1 176.167 86.8105 -5.55112e-17
185 2 175.338 20.4245 -5.55112e-17
186 2 208.826 133.874 -5.55112e-17
187 1 93.0323 28.9192 -5.55112e-17
188 1 102.787 170.298 -5.55112e-17
189 1 123.724 174.756 -5.55112e-17
190 2 13.6498 161.555 -5.55112e-17
191 1 77.3305 157.408 -5.55112e-17
192 2 63.4934 109.923 -5.55112e-17
193 2 79.9519 172.336 -5.55112e-17
194 1 32.7263 149.497 -5.55112e-17
195 1 145.202 163.409 -5.55112e-17
196 1 168.592 191.44 -5.55112e-17
197 1 74.293 69.9503 -5.55112e-17
198 2 9.67945 132.891 -5.55112e-17
199 1 210.518 57.0802 -5.55112e-17
200 1 80.3253 6.76129 -5.55112e-17
201 2 71.5232 110.104 -5.55112e-17
202 1 52.5908 210.788 -5.55112e-17
203 1 175.435 81.5743 -5.55112e-17
204 1 188.379 156.369 -5.55112e-17
205 2 191.718 82.2905 -5.55112e-17
206 1 89.1774 133.046 -5.55112e-17
207 1 105.982 29.8674 -5.55112e-17
208 1 32.9682 86.0263 -5.55112e-17
209 1 81.7636 2.4459 -5.55112e-17
210 1 7.89873 64.6356 -5.55112e-17
211 2 146.67 156.367 -5.55112e-17
212 1 120.378 112.64 -5.55112e-17
213 1 134.864 104.321 -5.55112e-17
214 1 74.4404 14.2647 -5.55112e-17
215 1 74.4672 201.81 -5.55112e-17
216 1 193.579 138.907 -5.55112e-17
217 1 126.896 186.914 -5.55112e-17
218 2 28.7735 168.375 -5.55112e-17
219 1 155.632 213.72 -5.55112e-17
220 2 107.174 55.558 -5.55112e-17
221 1 212.887 56.1013 -5.55112e-17
222 1 143.417 146.187 -5.55112e-17
223 1 52.4617 208.141 -5.55112e-17
224 2 10.0965 188.293 -5.55112e-17
225 1 201.414 142.299 -5.55112e-17
226 1 138.984 190.243 -5.55112e-17
227 2 51.034 16.9939 -5.55112e-17
228 1 138.729 77.5032 -5.55112e-17
229 1 60.7962 135.698 -5.55112e-17
230 1 159.016 131.129 -5.55112e-17
231 1 148.558 123.079 -5.55112e-17
232 1 1.33498 90.7994 -5.55112e-17
233 1 110.043 100.416 -5.55112e-17
234 1 133.934 216.327 -5.55112e-17
235 1 20.8069 143.099 -5.55112e-17
236 1 46.2625 81.5592 -5.55112e-17
237 1 199.049 8.14967 -5.55112e-17
238 1 148.032 128.165 -5.55112e-17
239 2 17.6243 112.106 -5.55112e-17
240 1 99.5108 5.94845 -5.55112e-17
241 2 187.669 14.6495 -5.55112e-17
242 2 198.697 37.2317 -5.55112e-17
243 2 114.707 27.6354 -5.55112e-17
244 1 97.4576 7.55899 -5.55112e-17
245 1 84.6907 58.8036 -5.55112e-17
246 1 126.102 119.296 -5.55112e-17
247 1 210.717 98.5096 -5.55112e-17
248 1 94.4327 3.92114 -5.55112e-17
249 1 23.2012 65.8574 -5.55112e-17
250 2 149.616 29.7483 -5.55112e-17
251 1 153.73 212.133 -5.55112e-17
252 1 195.321 64.31 -5.55112e-17
253 1 94.4034 61.4665 -5.55112e-17
254 2 76.9061 197.362 -5.55112e-17
255 1 212.298 148.981 -5.55112e-17
256 1 84.6876 165.58 -5.55112e-17
257 1 211.937 151.6 -5.55112e-17
258 2 164.047 27.9046 -5.55112e-17
259 1 58.1902 165.984 -5.55112e-17
260 1 127.548 11.1615 -5.55112e-17
261 1 184.697 13.7615 -5.55112e-17
262 1 53.3934 52.5341 -5.55112e-17
263 1 12.8081 213.555 -5.55112e-17
264 1 172.371 42.8712 -5.55112e-17
265 1 166.473 22.7369 -5.55112e-17
266 1 155.533 9.69732 -5.55112e-17
267 1 2.62781 64.9123 -5.55112e-17
268 1 21.8706 35.665 -5.55112e-17
269 1 125.724 95.0117 -5.55112e-17
270 1 141.326 106.481 -5.55112e-17
271 1 12.6793 92.6892 -5.55112e-17
272 1 159.306 202.094 -5.55112e-17
273 1 40.7365 169.173 -5.55112e-17
274 2 113.075 87.8911 -5.55112e-17
275 1 64.2276 5.1213 -5.55112e-17
276 2 53.9386 32.2381 -5.55112e-17
277 2 167.305 121.902 -5.55112e-17
278 1 38.6418 101.182 -5.55112e-17
279 2 109.797 205.101 -5.55112e-17
280 1 60.3032 31.8959 -5.55112e-17
281 1 147.014 28.501 -5.55112e-17
282 1 164.717 8.02841 -5.55112e-17
283 1 113.104 141.537 -5.55112e-17
284 1 136.734 165.64 -5.55112e-17
285 1 35.9757 12.5222 -5.55112e-17
286 2 33.9655 214.976 -5.55112e-17
287 1 82.5502 135.046 -5.55112e-17
288 1 21.3736 57.5973 -5.55112e-17
289 1 71.6455 53.8956 -5.55112e-17
290 1 151.116 193.323 -5.55112e-17
291 1 158.52 144.767 -5.55112e-17
292 2 20.0336 181.087 -5.55112e-17
293 2 65.7178 194.609 -5.55112e-17
294 1 111.914 40.4538 -5.55112e-17
295 1 124.987 47.7544 -5.55112e-17
296 1 134.901 41.8599 -5.55112e-17
297 1 118.645 145.052 -5.55112e-17
298 1 105.132 198.456 -5.55112e-17
299 1 160.29 106.217 -5.55112e-17
300 2 62.1544 95.0807 -5.55112e-17
301 1 59.0318 46.0127 -5.55112e-17
302 1 127.006 192.675 -5.55112e-17
303 2 198.494 60.0794 -5.55112e-17
304 2 144.753 129.674 -5.55112e-17
305 1 86.1554 99.7695 -5.55112e-17
306 1 51.1187 73.4207 -5.55112e-17
307 1 35.1465 122.283 -5.55112e-17
308 1 161.781 59.0769 -5.55112e-17
309 2 73.0908 184.357 -5.55112e-17
310 1 194.557 215.499 -5.55112e-17
311 1 79.8904 33.7449 -5.55112e-17
312 1 191.989 147.862 -5.55112e-17
313 2 147.316 66.3357 -5.55112e-17
314 1 51.8991 135.659 -5.55112e-17
315 1 111.234 150.431 -5.55112e-17
316 1 72.7139 1.12093 -5.55112e-17
317 1 13.7818 99.5405 -5.55112e-17
318 1 100.157 215.053 -5.55112e-17
319 1 51.0987 33.4142 -5.55112e-17
320 1 144.373 99.49 -5.55112e-17
321 1 88.6084 203.861 -5.55112e-17
322 1 143.3 140.372 -5.55112e-17
323 1 188.275 107.797 -5.55112e-17
324 1 81.2425 26.8349 -5.55112e-17
325 1 162.975 139.295 -5.55112e-17
326 1 85.1848 151.828 -5.55112e-17
327 2 149.95 186.073 -5.55112e-17
328 1 167.654 40.3772 -5.55112e-17
329 2 47.5027 115.734 -5.55112e-17
330 1 24.0204 102.185 -5.55112e-17
331 1 174.745 175.918 -5.55112e-17
332 2 112.455 104.566 -5.55112e-17
333 1 44.2195 18.0002 -5.55112e-17
334 1 139.816 169.047 -5.55112e-17
335 1 12.8052 206.408 -5.55112e-17
336 1 212.636 106.526 -5.55112e-17
337 1 103.164 182.155 -5.55112e-17
338 1 159.238 57.6574 -5.55112e-17
339 1 109.51 217.066 -5.55112e-17
340 1 153.621 141.424 -5.55112e-17
341 1 160.128 158.591 -5.55112e-17
342 1 128.681 144.636 -5.55112e-17
343 1 127.43 29.1931 -5.55112e-17
344 1 63.7161 182.074 -5.55112e-17
345 1 60.7541 109.562 -5.55112e-17
346 1 9.37672 127.489 -5.55112e-17
347 1 92.2588 92.4247 -5.55112e-17
348 1 164.125 179.261 -5.55112e-17
349 1 193.261 75.1824 -5.55112e-17
350 2 90.1157 40.8752 -5.55112e-17
351 1 154.862 65.8936 -5.55112e-17
352 1 61.0172 182.975 -5.55112e-17
353 1 39.4382 166.667 -5.55112e-17
354 1 167.73 161.512 -5.55112e-17
355 1 58.3268 156.77 -5.55112e-17
356 1 24.1632 36.6644 -5.55112e-17
357 1 62.5083 158.776 -5.55112e-17
358 1 172.191 180.809 -5.55112e-17
359 1 157.659 159.3 -5.55112e-17
360 1 74.2959 53.3305 -5.55112e-17
361 1 63.2663 168.033 -5.55112e-17
362 1 169.222 200.811 -5.55112e-17
363 1 163.885 190.056 -5.55112e-17
364 2 116.345 92.6431 -5.55112e-17
365 1 178.762 90.6041 -5.55112e-17
366 1 117.613 160.951 -5.55112e-17
367 1 174.272 6.83229 -5.55112e-17
368 1 197.019 192.528 -5.55112e-17
369 2 115.378 188.171 -5.55112e-17
370 1 15.3158 205.925 -5.55112e-17
371 1 53.5777 137.475 -5.55112e-17
372 2 0.232408 93.9235 -5.55112e-17
373 2 212.864 8.02058 -5.55112e-17
374 1 151.091 88.4922 -5.55112e-17
375 1 37.247 112.092 -5.55112e-17
376 1 16.2734 152.816 -5.55112e-17
377 1 28.7648 213.047 -5.55112e-17
378 1 74.6034 129.461 -5.55112e-17
379 1 43.1372 60.7384 -5.55112e-17
380 1 177.559 151.058 -5.55112e-17
381 1 13.401 5.44657 -5.55112e-17
382 1 54.3795 67.0537 -5.55112e-17
383 1 169.673 67.4736 -5.55112e-17
384 1 21.9744 13.9766 -5.55112e-17
385 1 191.286 76.8555 -5.55112e-17
386 2 82.2137 44.4027 -5.55112e-17
387 1 144.327 18.8812 -5.55112e-17
388 1 56.6663 43.8737 -5.55112e-17
389 1 206.493 158.933 -5.55112e-17
390 2 207.305 179.649 -5.55112e-17
391 2 35.6704 40.5698 -5.55112e-17
392 1 41.4616 217.989 -5.55112e-17
393 1 0.367841 33.556 -5.55112e-17
394 1 102.307 101.372 -5.55112e-17
395 1 16.1643 27.4656 -5.55112e-17
396 1 202.571 153.711 -5.55112e-17
397 1 100.989 16.2799 -5.55112e-17
398 1 11.6298 191.053 -5.55112e-17
399 1 19.4934 59.5716 -5.55112e-17
400 1 103.375 179.575 -5.55112e-17
401 1 88.0173 176.674 -5.55112e-17
402 2 191.261 178.93 -5.55112e-17
403 1 214.333 54.0348 -5.55112e-17
404 1 36.1661 71.5863 -5.55112e-17
405 1 204.549 29.283 -5.55112e-17
406 1 201.04 68.1998 -5.55112e-17
407 2 19.2515 62.7306 -5.55112e-17
408 1 34.4703 35.5704 -5.55112e-17
409 1 169.438 128.886 -5.55112e-17
410 1 20.1581 154.76 -5.55112e-17
411 1 151.9 160.563 -5.55112e-17
412 1 114.986 215.161 -5.55112e-17
413 1 63.4824 156.27 -5.55112e-17
414 1 38.2287 13.6941 -5.55112e-17
415 1 207.811 148.223 -5.55112e-17
416 1 72.071 200.373 -5.55112e-17
417 1 141.171 94.0437 -5.55112e-17
418 2 184.578 7.48245 -5.55112e-17
419 1 108.609 149.825 -5.55112e-17
420 2 136.837 109.143 -5.55112e-17
421 1 87.8289 103.902 -5.55112e-17
422 1 176.161 23.4119 -5.55112e-17
423 2 158.081 41.329 -5.55112e-17
424 1 157.125 149.197 -5.55112e-17
425 1 129.365 166.781 -5.55112e-17
426 1 133.249 112.926 -5.55112e-17
427 1 45.7142 84.2226 -5.55112e-17
428 1 71.3246 191.949 -5.55112e-17
429 1 194.636 83.0305 -5.55112e-17
430 1 215.26 60.0769 -5.55112e-17
431 1 120.328 206.473 -5.55112e-17
432 1 161.545 53.7568 -5.55112e-17
433 1 105.156 153.939 -5.55112e-17
434 1 71.5793 30.3753 -5.55112e-17
435 1 178.104 161.749 -5.55112e-17
436 1 44.6582 36.4932 -5.55112e-17
437 1 175.55 109.283 -5.55112e-17
438 2 109.766 21.7633 -5.55112e-17
439 1 67.1913 209.146 -5.55112e-17
440 1 3.34578 161.821 -5.55112e-17
441 1 192.668 131.114 -5.55112e-17
442 1 50.4009 13.8427 -5.55112e-17
443 1 158.052 104.608 -5.55112e-17
444 1 218.216 101.171 -5.55112e-17
445 1 140.276 7.39047 -5.55112e-17
446 1 131.739 79.0142 -5.55112e-17
447 1 38.7076 145.154 -5.55112e-17
448 1 75.8189 7.40334 -5.55112e-17
449 1 131.712 120.545 -5.55112e-17
450 1 139.923 187.975 -5.55112e-17
451 1 170.559 47.2455 -5.55112e-17
452 1 131.135 144.686 -5.55112e-17
453 1 179.238 182.246 -5.55112e-17
454 1 160.249 211.644 -5.55112e-17
455 1 100.153 71.8289 -5.55112e-17
456 1 167.017 26.9732 -5.55112e-17
457 1 97.8687 113.402 -5.55112e-17
458 1 198.423 0.0653716 -5.55112e-17
459 1 81.2229 69.2598 -5.55112e-17
460 1 48.9039 102.551 -5.55112e-17
461 1 188.607 177.983 -5.55112e-17
462 1 181.744 115.834 -5.55112e-17
463 1 126.555 33.5818 -5.55112e-17
464 1 155.183 194.956 -5.55112e-17
465 1 121.726 159.811 -5.55112e-17
466 1 24.2754 213.908 -5.55112e-17
467 1 17.2676 80.1512 -5.55112e-17
468 1 161.526 218.601 -5.55112e-17
469 1 68.5255 77.6691 -5.55112e-17
470 1 78.1954 37.9111 -5.55112e-17
471 1 128.922 174.602 -5.55112e-17
472 1 48.0892 83.2813 -5.55112e-17
473 1 26.3916 102.784 -5.55112e-17
474 1 88.2489 101.421 -5.55112e-17
475 1 184.925 163.751 -5.55112e-17
476 2 192.241 11.9467 -5.55112e-17
477 1 53.713 84.7501 -5.55112e-17
478 1 58.4163 126.126 -5.55112e-17
479 1 201.683 80.4791 -5.55112e-17
480 1 85.2496 23.5396 -5.55112e-17
481 1 14.8451 94.274 -5.55112e-17
482 1 99.6482 159.935 -5.55112e-17
483 1 142.108 159.959 -5.55112e-17
484 2 87.7878 45.6829 -5.55112e-17
485 1 34.0011 100.825 -5.55112e-17
486 1 81.6883 17.2246 -5.55112e-17
487 1 100.928 196.729 -5.55112e-17
488 1 5.91144 121.303 -5.55112e-17
489 1 211.65 134.776 -5.55112e-17
490 1 205.158 83.987 -5.55112e-17
491 1 197.519 121.205 -5.55112e-17
492 1 2.79641 128.848 -5.55112e-17
493 1 193.952 210.549 -5.55112e-17
494 1 211.223 38.2709 -5.55112e-17
495 1 198.828 89.2057 -5.55112e-17
496 2 44.0746 189.494 -5.55112e-17
497 1 39.1296 216.816 -5.55112e-17
498 1 104.745 121.172 -5.55112e-17
499 2 136.945 216.345 -5.55112e-17
500 1 26.3781 30.0483 -5.55112e-17
501 2 112.801 216.791 -5.55112e-17
502 2 123.58 143.053 -5.55112e-17
503 1 147.364 183.955 -5.55112e-17
504 1 113.03 148.565 -5.55112e-17
505 1 118.05 18.4903 -5.55112e-17
506 1 25.9995 121.747 -5.55112e-17
507 1 14.5589 129.709 -5.55112e-17
508 1 196.496 217.374 -5.55112e-17
509 2 27.1935 75.6873 -5.55112e-17
510 2 146.096 133.393 -5.55112e-17
511 1 196.168 35.7418 -5.55112e-17
512 2 210.119 60.0464 -5.55112e-17
513 1 56.0975 127.648 -5.55112e-17
514 1 48.7901 18.9289 -5.55112e-17
515 1 204.182 25.2498 -5.55112e-17
516 1 182.559 205.945 -5.55112e-17
517 1 111.852 117.411 -5.55112e-17
518 2 103.766 20.2681 -5.55112e-17
519 1 11.5853 52.9355 -5.55112e-17
520 2 212.545 23.1891 -5.55112e-17
521 1 88.7137 111.094 -5.55112e-17
522 1 31.4284 30.5075 -5.55112e-17
523 1 24.5316 68.2171 -5.55112e-17
524 1 99.7839 74.6972 -5.55112e-17
525 1 174.943 121.061 -5.55112e-17
526 1 190.849 64.8512 -5.55112e-17
527 1 75.3879 4.70287 -5.55112e-17
528 1 168.69 28.9664 -5.55112e-17
529 1 56.9407 158.946 -5.55112e-17
530 1 100.328 31.7014 -5.55112e-17
531 1 66.3283 197.451 -5.55112e-17
532 1 206.838 187.983 -5.55112e-17
533 1 134.036 151.059 -5.55112e-17
534 1 97.3109 144.593 -5.55112e-17
535 1 14.2268 104.862 -5.55112e-17
536 1 203.569 117.763 -5.55112e-17
537 1 201.29 166.723 -5.55112e-17
538 1 168.753 80.9252 -5.55112e-17
539 1 89.2055 211.731 -5.55112e-17
540 1 103.348 88.9059 -5.55112e-17
541 1 40.792 59.1057 -5.55112e-17
542 1 67.3004 211.705 -5.55112e-17
543 1 147.23 151.797 -5.55112e-17
544 1 128.899 200.436 -5.55112e-17
545 1 7.95373 149.739 -5.55112e-17
546 1 179.264 41.188 -5.55112e-17
547 1 83.0233 172.184 -5.55112e-17
548 1 99.8751 8.61695 -5.55112e-17
549 1 51.5213 76.3443 -5.55112e-17
550 2 162.831 121.516 -5.55112e-17
551 2 134.571 157.794 -5.55112e-17
552 2 93.9421 180.342 -5.55112e-17
553 1 122.481 42.3702 -5.55112e-17
554 1 73.3456 101.836 -5.55112e-17
555 2 65.6959 123.95 -5.55112e-17
556 1 148.497 21.6175 -5.55112e-17
557 1 76.4467 12.7761 -5.55112e-17
558 1 148.284 125.63 -5.55112e-17
559 1 187.434 47.4855 -5.55112e-17
560 1 131.535 51.312 -5.55112e-17
561 1 146.697 168.628 -5.55112e-17
562 1 195.428 144.486 -5.55112e-17
563 2 168.003 113.645 -5.55112e-17
564 1 41.9995 67.1407 -5.55112e-17
565 1 60.1837 10.4923 -5.55112e-17
566 1 75.2968 34.4612 -5.55112e-17
567 1 150.397 111.128 -5.55112e-17
568 1 22.1147 114.553 -5.55112e-17
569 1 114.187 185.419 -5.55112e-17
570 1 124.727 124.177 -5.55112e-17
571 1 175.282 203.658 -5.55112e-17
572 1 61.4288 112.045 -5.55112e-17
573 1 177.494 76.4713 -5.55112e-17
574 1 41.7142 130.498 -5.55112e-17
575 1 21.7924 76.501 -5.55112e-17
576 1 196.362 98.4928 -5.55112e-17
577 1 202.977 33.4149 -5.55112e-17
578 1 122.896 196.85 -5.55112e-17
579 1 15.6954 166.995 -5.55112e-17
580 1 102.83 139.177 -5.55112e-17
581 1 141.204 154.448 -5.55112e-17
582 1 75.8717 79.1933 -5.55112e-17
583 1 162.374 185.621 -5.55112e-17
584 2 28.84 117.67 -5.55112e-17
585 1 48.5976 198.849 -5.55112e-17
586 1 137.943 171.002 -5.55112e-17
587 1 99.2559 104.727 -5.55112e-17
588 1 17.2941 1.85929 -5.55112e-17
589 1 103.449 17.3025 -5.55112e-17
590 1 70.3592 0.0244117 -5.55112e-17
591 1 215.428 162.218 -5.55112e-17
592 1 55.8616 156.446 -5.55112e-17
593 1 209.557 181.514 -5.55112e-17
594 1 181.55 181.109 -5.55112e-17
595 1 83.0844 39.6545 -5.55112e-17
596 1 66.1861 36.1388 -5.55112e-17
597 2 180.137 204.385 -5.55112e-17
598 1 167.325 211.589 -5.55112e-17
599 1 207.777 171.255 -5.55112e-17
600 1 104.967 10.4997 -5.55112e-17
601 1 11.708 134.933 -5.55112e-17
602 1 98.0056 30.9044 -5.55112e-17
603 1 207.92 202.67 -5.55112e-17
604 1 120.881 1.48224 -5.55112e-17
605 2 85.366 77.771 -5.55112e-17
606 1 102.981 202.274 -5.55112e-17
607 2 171.652 146.717 -5.55112e-17
608 1 95.1896 76.8262 -5.55112e-17
609 1 15.775 6.39602 -5.55112e-17
610 1 214.252 150.591 -5.55112e-17
611 1 201.908 190.34 -5.55112e-17
612 1 218.15 37.7844 -5.55112e-17
613 1 59.036 150.976 -5.55112e-17
614 2 128.098 179.51 -5.55112e-17
615 1 105.938 18.3279 -5.55112e-17
616 1 202.26 130.405 -5.55112e-17
617 1 127.246 198.317 -5.55112e-17
618 1 201.492 212.165 -5.55112e-17
619 1 179.209 78.2608 -5.55112e-17
620 1 141.306 141.938 -5.55112e-17
621 1 197.149 93.6331 -5.55112e-17
622 1 95.3515 213.589 -5.55112e-17
623 1 218.705 12.1771 -5.55112e-17
624 1 24.0118 209.148 -5.55112e-17
625 1 204.701 154.987 -5.55112e-17
626 1 94.2591 191.305 -5.55112e-17
627 1 63.866 74.0899 -5.55112e-17
628 1 34.1434 28.6161 -5.55112e-17
629 1 10.0361 94.8063 -5.55112e-17
630 2 151.389 21.9153 -5.55112e-17
631 1 15.4372 86.581 -5.55112e-17
632 1 49.3398 92.3475 -5.55112e-17
633 1 38.6661 211.512 -5.55112e-17
634 1 1.18467 147.684 -5.55112e-17
635 1 155.07 150.689 -5.55112e-17
636 1 208.06 57.9607 -5.55112e-17
637 1 200.95 58.4427 -5.55112e-17
638 1 172.769 76.638 -5.55112e-17
639 2 203.802 78.5099 -5.55112e-17
640 1 143.166 152.644 -5.55112e-17
641 1 192.881 85.0226 -5.55112e-17
642 1 32.3105 91.6604 -5.55112e-17
643 2 181.903 42.7369 -5.55112e-17
644 1 68.453 155.112 -5.55112e-17
645 1 106.684 196.416 -5.55112e-17
646 2 211.788 141.533 -5.55112e-17
647 1 11.118 185.041 -5.55112e-17
648 1 132.636 103.239 -5.55112e-17
649 2 23.5266 150.845 -5.55112e-17
650 1 204.654 186.454 -5.55112e-17
651 1 218.438 113.211 -5.55112e-17
652 1 153.39 43.9077 -5.55112e-17
653 1 114.621 175.613 -5.55112e-17
654 1 23.067 21.5594 -5.55112e-17
655 2 183.791 100.868 -5.55112e-17
656 1 30.3954 125.357 -5.55112e-17
657 2 79.1939 207.363 -5.55112e-17
658 1 54.0374 44.2345 -5.55112e-17
659 2 156.772 192.53 -5.55112e-17
660 1 102.039 55.4992 -5.55112e-17
661 1 42.8683 116.594 -5.55112e-17
662 1 81.688 130.21 -5.55112e-17
663 1 31.678 25.4024 -5.55112e-17
664 1 146.591 17.5948 -5.55112e-17
665 1 139.717 75.2452 -5.55112e-17
666 2 47.993 181.09 -5.55112e-17
667 1 93.1015 99.6162 -5.55112e-17
668 2 102.08 93.7662 -5.55112e-17
669 1 36.2821 17.6402 -5.55112e-17
670 1 96.5602 173.435 -5.55112e-17
671 2 54.0565 176.231 -5.55112e-17
672 1 186.596 11.9939 -5.55112e-17
673 1 63.3316 19.6777 -5.55112e-17
674 1 2.25319 31.8802 -5.55112e-17
675 1 128.622 23.6681 -5.55112e-17
676 1 169.619 123.731 -5.55112e-17
677 1 131.591 174.757 -5.55112e-17
678 1 137.593 30.8202 -5.55112e-17
679 2 151.991 33.067 -5.55112e-17
680 1 202.754 41.682 -5.55112e-17
681 2 129.28 119.167 -5.55112e-17
682 1 0.20159 47.6986 -5.55112e-17
683 1 68.6322 4.38959 -5.55112e-17
684 1 120.006 154.511 -5.55112e-17
685 1 152.861 38.8931 -5.55112e-17
686 1 27.9147 193.632 -5.55112e-17
687 1 118.551 191.986 -5.55112e-17
688 1 162.77 110.179 -5.55112e-17
689 2 56.2355 46.7116 -5.55112e-17
690 1 70.2489 20.1828 -5.55112e-17
691 1 89.317 66.2689 -5.55112e-17
692 1 131.319 8.06341 -5.55112e-17
693 1 48.5152 143.43 -5.55112e-17
694 1 76.0865 125.076 -5.55112e-17
695 1 145.914 38.463 -5.55112e-17
696 1 146.338 81.2624 -5.55112e-17
697 1 139.822 201.679 -5.55112e-17
698 1 116.501 66.0451 -5.55112e-17
699 1 180.603 191.803 -5.55112e-17
700 1 205.744 209.454 -5.55112e-17
701 1 53.9797 16.8033 -5.55112e-17
702 1 113.406 128.933 -5.55112e-17
703 2 187.995 143.965 -5.55112e-17
704 1 29.4175 218.454 -5.55112e-17
705 2 68.9563 112.236 -5.55112e-17
706 1 166.066 177.179 -5.55112e-17
707 1 114.138 24.7213 -5.55112e-17
708 1 84.3166 209.383 -5.55112e-17
709 1 147.441 196.185 -5.55112e-17
710 1 192.343 191.87 -5.55112e-17
711 1 111.29 93.112 -5.55112e-17
712 1 192.464 207.891 -5.55112e-17
713 1 14.0453 136.005 -5.55112e-17
714 1 136.202 13.1319 -5.55112e-17
715 1 55.9178 199.307 -5.55112e-17
716 1 40.2465 123.444 -5.55112e-17
717 1 51.5644 107.561 -5.55112e-17
718 1 131.112 185.026 -5.55112e-17
719 2 119.746 78.8993 -5.55112e-17
720 1 98.8558 64.91 -5.55112e-17
721 1 95.4723 98.7504 -5.55112e-17
722 1 133.875 63.0043 -5.55112e-17
723 2 48.6044 45.7057 -5.55112e-17
724 1 15.3565 49.4589 -5.55112e-17
725 1 29.3512 109.075 -5.55112e-17
726 1 189.462 45.7466 -5.55112e-17
727 1 148.605 205.075 -5.55112e-17
728 2 18.2649 87.7052 -5.55112e-17
729 1 133.964 165.124 -5.55112e-17
730 1 174.198 199.184 -5.55112e-17
731 1 49.1264 190.101 -5.55112e-17
732 1 218.519 9.50201 -5.55112e-17
733 1 205.509 34.3379 -5.55112e-17
734 1 3.97791 30.0987 -5.55112e-17
735 1 41.1195 23.0079 -5.55112e-17
736 2 190.335 74.1094 -5.55112e-17
737 1 81.7374 86.5985 -5.55112e-17
738 1 20.0143 165.469 -5.55112e-17
739 1 105.964 156.331 -5.55112e-17
740 1 59.7574 116.317 -5.55112e-17
741 2 188.713 78.1564 -5.55112e-17
742 1 74.6647 43.968 -5.55112e-17
743 1 202.947 66.6089 -5.55112e-17
744 2 210.702 172.648 -5.55112e-17
745 1 130.864 31.9738 -5.55112e-17
746 1 14.1116 29.3576 -5.55112e-17
747 2 204.354 22.3093 -5.55112e-17
748 1 182.729 193.24 -5.55112e-17
749 1 196.529 210.974 -5.55112e-17
750 1 213.064 163.496 -5.55112e-17
751 1 59.6432 58.5462 -5.55112e-17
752 1 177.871 105.544 -5.55112e-17
753 1 99.2508 150.738 -5.55112e-17
754 1 15.0737 215.192 -5.55112e-17
755 1 83.2751 195.248 -5.55112e-17
756 2 103.7 195.918 -5.55112e-17
757 1 27.1495 18.5093 -5.55112e-17
758 1 135.379 146.239 -5.55112e-17
759 1 72.7238 107.593 -5.55112e-17
760 1 95.421 39.7753 -5.55112e-17
761 1 58.1273 161.296 -5.55112e-17
762 1 43.7087 23.8561 -5.55112e-17
763 1 114.173 99.8263 -5.55112e-17
764 2 177.688 147.973 -5.55112e-17
765 1 91.9649 62.5155 -5.55112e-17
766 1 114.566 35.6222 -5.55112e-17
767 1 97.1428 78.4714 -5.55112e-17
768 1 9.58165 4.01675 -5.55112e-17
769 1 107.881 75.8177 -5.55112e-17
770 2 113.526 109.813 -5.55112e-17
771 1 143.681 179.068 -5.55112e-17
772 1 102.285 28.1132 -5.55112e-17
773 1 109.464 167.37 -5.55112e-17
774 1 111.274 124.199 -5.55112e-17
775 1 68.9143 7.12509 -5.55112e-17
776 1 37.9693 10.8765 -5.55112e-17
777 1 108.113 181.876 -5.55112e-17
778 1 22.7103 19.068 -5.55112e-17
779 1 191.674 44.4002 -5.55112e-17
780 1 3.38786 169.026 -5.55112e-17
781 1 127.262 100.376 -5.55112e-17
782 1 175.354 49.354 -5.55112e-17
783 1 98.6253 15.3956 -5.55112e-17
784 2 194.749 159.344 -5.55112e-17
785 1 111.13 165.403 -5.55112e-17
786 1 119.43 177.396 -5.55112e-17
787 1 185.376 74.8707 -5.55112e-17
788 1 177.12 45.1714 -5.55112e-17
789 2 142.986 108.933 -5.55112e-17
790 1 109.908 28.1924 -5.55112e-17
791 2 14.5499 121.701 -5.55112e-17
792 2 215.889 13.624 -5.55112e-17
793 2 115.859 69.004 -5.55112e-17
794 1 56.4203 188.6 -5.55112e-17
795 1 132.37 53.6065 -5.55112e-17
796 1 130.717 22.1701 -5.55112e-17
797 1 197.692 155.443 -5.55112e-17
798 2 196.006 204.077 -5.55112e-17
799 2 207.646 65.0708 -5.55112e-17
800 2 55.4221 217.588 -5.55112e-17
801 1 102.815 132.433 -5.55112e-17
802 1 124.52 75.8576 -5.55112e-17
803 1 181.817 68.4508 -5.55112e-17
804 2 122.855 204.924 -5.55112e-17
805 1 44.814 106.615 -5.55112e-17
806 1 11.8363 116.835 -5.55112e-17
807 2 100.428 99.223 -5.55112e-17
808 1 14.5635 116.504 -5.55112e-17
809 2 57.7126 134.365 -5.55112e-17
810 1 129.866 197.846 -5.55112e-17
811 1 32.929 5.88839 -5.55112e-17
812 1 131.799 34.4556 -5.55112e-17
813 2 107.825 110.9 -5.55112e-17
814 1 147.194 69.3642 -5.55112e-17
815 1 89.0744 164.268 -5.55112e-17
816 1 200.787 9.88625 -5.55112e-17
817 1 108.225 214.575 -5.55112e-17
818 1 57.4797 101.8 -5.55112e-17
819 1 9.43663 136.295 -5.55112e-17
820 1 45.3586 120.437 -5.55112e-17
821 1 94.6439 151.702 -5.55112e-17
822 2 41.4934 135.812 -5.55112e-17
823 2 139.155 91.8069 -5.55112e-17
824 1 34.7902 108 -5.55112e-17
825 1 65.0732 15.4365 -5.55112e-17
826 1 190.409 14.2771 -5.55112e-17
827 1 193.012 107.4 -5.55112e-17
828 1 142.421 123.603 -5.55112e-17
829 1 127.206 210.894 -5.55112e-17
830 1 81.4516 127.692 -5.55112e-17
831 1 217.351 42.6116 -5.55112e-17
832 1 93.4089 87.3056 -5.55112e-17
833 1 62.2098 84.4033 -5.55112e-17
834 1 107.005 8.96233 -5.55112e-17
835 1 58.025 218.51 -5.55112e-17
836 1 10.7966 50.5482 -5.55112e-17
837 1 6.82188 70.8448 -5.55112e-17
838 1 98.3466 178.353 -5.55112e-17
839 2 198.321 3.09418 -5.55112e-17
840 1 5.10955 202.698 -5.55112e-17
841 2 63.088 185.121 -5.55112e-17
842 1 94.7131 91.6891 -5.55112e-17
843 2 159.696 182.832 -5.55112e-17
844 1 26.4409 158.709 -5.55112e-17
845 1 71.2663 189.309 -5.55112e-17
846 1 159.239 190.526 -5.55112e-17
847 1 41.8461 141.235 -5.55112e-17
848 1 188.482 117.234 -5.55112e-17
849 1 189.224 166.84 -5.55112e-17
850 1 39.5784 129.381 -5.55112e-17
851 1 89.7278 37.5354 -5.55112e-17
852 1 11.9341 209.083 -5.55112e-17
853 1 31.9391 138.981 -5.55112e-17
854 1 171.285 84.6281 -5.55112e-17
855 1 126.079 19.5955 -5.55112e-17
856 1 209.982 169.894 -5.55112e-17