units           metal
boundary        p p p
atom_style      atomic
read_data      ../data/T${T}.dat
read_data      ../data/T580.dat
Reading data file ...
  orthogonal box = (-6.2397348 -6.2397348 -6.2397348) to (78.639735 78.639735 78.639735)
  3 by 4 by 4 MPI processor grid
  reading atoms ...
  32000 atoms
  reading velocities ...
  32000 velocities
  read_data CPU = 0.272 seconds
mass            1  26.98	#Al
mass            2  150.36	#Sm
pair_style      eam/fs
pair_coeff      * * ../data/Al90Sm10_MendelevM_2014.eam.fs  Al Sm

neighbor        2.0 bin
neigh_modify    delay 1

timestep 0.01
thermo 1000
reset_timestep 0
thermo_style custom step temp pe etotal press vol lx ly lz
fix             1 all nvt temp ${T} ${T} 0.1
fix             1 all nvt temp 580 ${T} 0.1
fix             1 all nvt temp 580 580 0.1
thermo_modify flush yes
fix nodrift all momentum 1  linear 1 1 1
fix com_seed all recenter INIT INIT INIT shift all
fix dsf all deform 1 x  wiggle 0.5 300.0 y volume z volume units box
fix ps1 all ave/time 1 1 300 c_thermo_press[1] c_thermo_press[2]  c_thermo_press[3] c_thermo_press[4]  c_thermo_press[5] c_thermo_press[6]  file  stress.${T}
fix ps1 all ave/time 1 1 300 c_thermo_press[1] c_thermo_press[2]  c_thermo_press[3] c_thermo_press[4]  c_thermo_press[5] c_thermo_press[6]  file  stress.580
dump            1 all custom 30000 dump.${T} id type x y z
dump            1 all custom 30000 dump.580 id type x y z
dump_modify 1 sort id
run 300000
----------------------------------------------------------
Using INTEL Package without Coprocessor.
Compiler: GNU C++ 4.8.5 20150623 (Red Hat 4.8.5-39)
SIMD compiler directives: Disabled
Precision: mixed
----------------------------------------------------------
Neighbor list info ...
  update every 1 steps, delay 1 steps, check yes
  max neighbors/atom: 2000, page size: 100000
  master list distance cutoff = 10
  ghost atom cutoff = 10
  binsize = 5, bins = 17 17 17
  1 neighbor lists, perpetual/occasional/extra = 1 0 0
  (1) pair eam/fs/intel, perpetual
      attributes: half, newton on, intel
      pair build: half/bin/newton/intel
      stencil: half/bin/3d
      bin: intel
Per MPI rank memory allocation (min/avg/max) = 10.57 | 10.67 | 10.77 Mbytes
   Step          Temp          PotEng         TotEng         Press          Volume           Lx             Ly             Lz      
         0   579.94331     -128394.53     -125995.77     -320.61816      611516.21      84.87947       84.87947       84.87947     
      1000   581.32154     -128313.45     -125908.99      444.18878      611516.21      84.983426      84.827539      84.827539    
      2000   579.18919     -128303.88     -125908.24      441.5581       611516.21      85.082838      84.777968      84.777968    
      3000   582.30608     -128303.67     -125895.14      413.93231      611516.21      85.173362      84.732904      84.732904    
      4000   577.55434     -128309.26     -125920.38      317.39225      611516.21      85.251042      84.694291      84.694291    
      5000   580.44065     -128298.52     -125897.7       650.2472       611516.21      85.312482      84.663788      84.663788    
      6000   578.89001     -128292.73     -125898.33      614.92107      611516.21      85.354998      84.6427        84.6427      
      7000   583.0592      -128321.82     -125910.18      471.87508      611516.21      85.376731      84.631926      84.631926    
      8000   578.9328      -128300.49     -125905.91      547.81993      611516.21      85.376731      84.631926      84.631926    
      9000   577.88967     -128296.57     -125906.3       660.17937      611516.21      85.354998      84.6427        84.6427      
     10000   579.16386     -128318.4      -125922.87      369.72149      611516.21      85.312482      84.663788      84.663788    
     11000   578.30018     -128321.29     -125929.33      464.66263      611516.21      85.251042      84.694291      84.694291    
     12000   581.83318     -128321.1      -125914.52      493.78009      611516.21      85.173362      84.732904      84.732904    
     13000   577.71998     -128295.5      -125905.94      646.53441      611516.21      85.082838      84.777968      84.777968    
     14000   577.95368     -128293.76     -125903.23      605.40929      611516.21      84.983426      84.827539      84.827539    
     15000   579.17195     -128308.94     -125913.37      401.0971       611516.21      84.87947       84.87947       84.87947     
     16000   578.96987     -128321.5      -125926.77      301.37871      611516.21      84.775514      84.931495      84.931495    
     17000   582.77645     -128322.23     -125911.76      363.43311      611516.21      84.676101      84.981337      84.981337    
     18000   577.91876     -128321.34     -125930.95      375.01607      611516.21      84.585577      85.026799      85.026799    
     19000   579.13749     -128333.38     -125937.96      209.95071      611516.21      84.507897      85.065868      85.065868    
     20000   575.82579     -128311.7      -125929.97      436.4131       611516.21      84.446457      85.096808      85.096808    
     21000   579.94341     -128314.67     -125915.91      385.2989       611516.21      84.403941      85.118238      85.118238    
     22000   579.76246     -128319.32     -125921.31      441.80319      611516.21      84.382209      85.129198      85.129198    
     23000   579.11655     -128309.07     -125913.73      538.93511      611516.21      84.382209      85.129198      85.129198    
     24000   581.95694     -128328.19     -125921.1       342.39633      611516.21      84.403941      85.118238      85.118238    
     25000   577.06639     -128322.86     -125936         300.05597      611516.21      84.446457      85.096808      85.096808    
     26000   579.52038     -128318.87     -125921.86      463.23785      611516.21      84.507897      85.065868      85.065868    
     27000   577.56339     -128319.15     -125930.23      390.61451      611516.21      84.585577      85.026799      85.026799    
     28000   581.53084     -128318.83     -125913.5       465.69336      611516.21      84.676101      84.981337      84.981337    
     29000   577.89294     -128309.94     -125919.66      511.67547      611516.21      84.775514      84.931495      84.931495    
     30000   578.82308     -128308.09     -125913.96      507.99263      611516.21      84.87947       84.87947       84.87947     
     31000   581.46056     -128289.7      -125884.66      692.67691      611516.21      84.983426      84.827539      84.827539    
     32000   579.48173     -128324.08     -125927.23      337.0163       611516.21      85.082838      84.777968      84.777968    
     33000   578.16116     -128312.95     -125921.56      448.27502      611516.21      85.173362      84.732904      84.732904    
     34000   578.63818     -128299.72     -125906.36      537.52114      611516.21      85.251042      84.694291      84.694291    
     35000   581.89537     -128310.7      -125903.87      464.94893      611516.21      85.312482      84.663788      84.663788    
     36000   579.51799     -128304.61     -125907.61      532.13132      611516.21      85.354998      84.6427        84.6427      
     37000   582.44583     -128297.44     -125888.33      595.91751      611516.21      85.376731      84.631926      84.631926    
     38000   581.09235     -128315.91     -125912.4       316.19645      611516.21      85.376731      84.631926      84.631926    
     39000   581.38889     -128310.93     -125906.19      611.00347      611516.21      85.354998      84.6427        84.6427      
     40000   580.58356     -128317.8      -125916.39      372.15864      611516.21      85.312482      84.663788      84.663788    
     41000   583.27471     -128314.56     -125902.02      533.90903      611516.21      85.251042      84.694291      84.694291    
     42000   582.70897     -128308.46     -125898.26      621.46698      611516.21      85.173362      84.732904      84.732904    
     43000   586.69056     -128317.3      -125890.63      558.31299      611516.21      85.082838      84.777968      84.777968    
     44000   582.56907     -128301.58     -125891.96      611.90449      611516.21      84.983426      84.827539      84.827539    
     45000   582.1405      -128317.62     -125909.77      451.6986       611516.21      84.87947       84.87947       84.87947     
     46000   578.74958     -128312.9      -125919.08      433.38141      611516.21      84.775514      84.931495      84.931495    
     47000   587.05849     -128317.02     -125888.83      454.98975      611516.21      84.676101      84.981337      84.981337    
     48000   578.50887     -128336.76     -125943.93      227.94588      611516.21      84.585577      85.026799      85.026799    
     49000   577.36448     -128318.48     -125930.39      486.96015      611516.21      84.507897      85.065868      85.065868    
     50000   583.23491     -128312.05     -125899.67      505.36695      611516.21      84.446457      85.096808      85.096808    
     51000   575.74614     -128312.53     -125931.13      408.7744       611516.21      84.403941      85.118238      85.118238    
     52000   585.58559     -128278.34     -125856.24      837.91694      611516.21      84.382209      85.129198      85.129198    
     53000   581.39241     -128296.98     -125892.22      603.11687      611516.21      84.382209      85.129198      85.129198    
     54000   577.38528     -128308.07     -125919.89      354.19569      611516.21      84.403941      85.118238      85.118238    
     55000   579.83245     -128303.43     -125905.13      485.76629      611516.21      84.446457      85.096808      85.096808    
     56000   575.58144     -128289.71     -125908.99      686.89947      611516.21      84.507897      85.065868      85.065868    
     57000   580.02303     -128314.32     -125915.23      434.79279      611516.21      84.585577      85.026799      85.026799    
     58000   579.92487     -128299.68     -125901         517.5491       611516.21      84.676101      84.981337      84.981337    
     59000   578.73866     -128311.26     -125917.48      406.67211      611516.21      84.775514      84.931495      84.931495    
     60000   575.82522     -128316.41     -125934.69      404.96728      611516.21      84.87947       84.87947       84.87947     
     61000   584.21898     -128308.82     -125892.38      585.25178      611516.21      84.983426      84.827539      84.827539    
     62000   583.32022     -128302.81     -125890.09      504.70241      611516.21      85.082838      84.777968      84.777968    
     63000   577.0594      -128308.31     -125921.48      494.87197      611516.21      85.173362      84.732904      84.732904    
     64000   580.8708      -128299.34     -125896.75      610.58106      611516.21      85.251042      84.694291      84.694291    
     65000   575.64485     -128304.6      -125923.62      672.47086      611516.21      85.312482      84.663788      84.663788    
     66000   578.03583     -128310.1      -125919.23      574.75931      611516.21      85.354998      84.6427        84.6427      
     67000   583.6411      -128281.76     -125867.71      606.58197      611516.21      85.376731      84.631926      84.631926    
     68000   578.2968      -128314.23     -125922.29      540.68893      611516.21      85.376731      84.631926      84.631926    
     69000   579.74819     -128314.99     -125917.04      533.85924      611516.21      85.354998      84.6427        84.6427      
     70000   578.28353     -128303.65     -125911.76      538.08868      611516.21      85.312482      84.663788      84.663788    
     71000   585.05333     -128328.99     -125909.1       451.921        611516.21      85.251042      84.694291      84.694291    
     72000   581.9888      -128308.41     -125901.19      535.82645      611516.21      85.173362      84.732904      84.732904    
     73000   578.146       -128309.35     -125918.03      321.35376      611516.21      85.082838      84.777968      84.777968    
     74000   579.9604      -128307.38     -125908.55      562.31721      611516.21      84.983426      84.827539      84.827539    
     75000   583.39461     -128314.59     -125901.56      486.22223      611516.21      84.87947       84.87947       84.87947     
     76000   579.81427     -128328.57     -125930.35      183.16164      611516.21      84.775514      84.931495      84.931495    
     77000   580.48859     -128325.14     -125924.12      410.93783      611516.21      84.676101      84.981337      84.981337    
     78000   585.2424      -128307.95     -125887.27      497.14664      611516.21      84.585577      85.026799      85.026799    
     79000   581.54791     -128300.96     -125895.57      573.3636       611516.21      84.507897      85.065868      85.065868    
     80000   581.94686     -128325.73     -125918.68      366.43616      611516.21      84.446457      85.096808      85.096808    
     81000   577.75339     -128293        -125903.3       717.04938      611516.21      84.403941      85.118238      85.118238    
     82000   582.40633     -128302        -125893.06      587.62485      611516.21      84.382209      85.129198      85.129198    
     83000   586.08991     -128302.55     -125878.36      661.74526      611516.21      84.382209      85.129198      85.129198    
     84000   577.7043      -128324.02     -125934.52      248.29114      611516.21      84.403941      85.118238      85.118238    
     85000   577.05723     -128309.36     -125922.54      406.82456      611516.21      84.446457      85.096808      85.096808    
     86000   578.25852     -128291.94     -125900.15      626.27724      611516.21      84.507897      85.065868      85.065868    
     87000   580.94517     -128297.96     -125895.06      585.21661      611516.21      84.585577      85.026799      85.026799    
     88000   581.03131     -128308.91     -125905.65      435.66372      611516.21      84.676101      84.981337      84.981337    
     89000   581.33677     -128305.87     -125901.35      574.34054      611516.21      84.775514      84.931495      84.931495    
     90000   578.611       -128313.73     -125920.48      480.9863       611516.21      84.87947       84.87947       84.87947     
     91000   580.18803     -128319.28     -125919.5       532.29266      611516.21      84.983426      84.827539      84.827539    
     92000   578.79293     -128322.21     -125928.21      358.13315      611516.21      85.082838      84.777968      84.777968    
     93000   583.95673     -128309.87     -125894.51      566.16979      611516.21      85.173362      84.732904      84.732904    
     94000   585.65478     -128303.93     -125881.54      539.55671      611516.21      85.251042      84.694291      84.694291    
     95000   578.44912     -128302.78     -125910.2       621.82506      611516.21      85.312482      84.663788      84.663788    
     96000   580.62477     -128301.54     -125899.96      611.89579      611516.21      85.354998      84.6427        84.6427      
     97000   580.39136     -128315.45     -125914.84      413.83446      611516.21      85.376731      84.631926      84.631926    
     98000   581.70806     -128296.57     -125890.51      638.36427      611516.21      85.376731      84.631926      84.631926    
     99000   581.29566     -128318.62     -125914.27      439.20309      611516.21      85.354998      84.6427        84.6427      
    100000   577.32773     -128311.3      -125923.36      401.46664      611516.21      85.312482      84.663788      84.663788    
    101000   584.0653      -128307.36     -125891.55      371.69461      611516.21      85.251042      84.694291      84.694291    
    102000   583.94249     -128324.69     -125909.39      248.05572      611516.21      85.173362      84.732904      84.732904    
    103000   578.30894     -128315.73     -125923.73      472.83397      611516.21      85.082838      84.777968      84.777968    
    104000   581.05435     -128296.71     -125893.36      590.4857       611516.21      84.983426      84.827539      84.827539    
    105000   580.95793     -128314.79     -125911.84      395.3218       611516.21      84.87947       84.87947       84.87947     
    106000   581.64122     -128301.15     -125895.37      507.21647      611516.21      84.775514      84.931495      84.931495    
    107000   583.86081     -128325.92     -125910.96      384.5258       611516.21      84.676101      84.981337      84.981337    
    108000   574.60825     -128306.11     -125929.42      253.19543      611516.21      84.585577      85.026799      85.026799    
    109000   577.54777     -128307.45     -125918.6       538.71525      611516.21      84.507897      85.065868      85.065868    
    110000   576.51915     -128308.53     -125923.93      381.58552      611516.21      84.446457      85.096808      85.096808    
    111000   579.91643     -128316.26     -125917.62      494.91242      611516.21      84.403941      85.118238      85.118238    
    112000   582.40093     -128319.22     -125910.3       500.70244      611516.21      84.382209      85.129198      85.129198    
    113000   581.51085     -128312.95     -125907.7       349.16353      611516.21      84.382209      85.129198      85.129198    
    114000   577.74873     -128316.41     -125926.73      366.04712      611516.21      84.403941      85.118238      85.118238    
    115000   577.78237     -128311.54     -125921.72      449.98602      611516.21      84.446457      85.096808      85.096808    
    116000   580.65035     -128297.6      -125895.92      567.35421      611516.21      84.507897      85.065868      85.065868    
    117000   579.67411     -128316.55     -125918.91      467.3047       611516.21      84.585577      85.026799      85.026799    
    118000   581.86293     -128318.05     -125911.36      372.16665      611516.21      84.676101      84.981337      84.981337    
    119000   577.93544     -128310.35     -125919.9       397.34858      611516.21      84.775514      84.931495      84.931495    
    120000   581.41        -128305.4      -125900.57      641.23368      611516.21      84.87947       84.87947       84.87947     
    121000   580.23226     -128342.09     -125942.14      129.3394       611516.21      84.983426      84.827539      84.827539    
    122000   572.3303      -128312.33     -125945.06      375.38894      611516.21      85.082838      84.777968      84.777968    
    123000   580.10329     -128309.87     -125910.45      332.31102      611516.21      85.173362      84.732904      84.732904    
    124000   579.58298     -128291.95     -125894.68      691.67688      611516.21      85.251042      84.694291      84.694291    
    125000   579.68083     -128306.6      -125908.93      552.54508      611516.21      85.312482      84.663788      84.663788    
    126000   577.68187     -128299.94     -125910.54      482.54526      611516.21      85.354998      84.6427        84.6427      
    127000   583.31842     -128314.12     -125901.4       512.98151      611516.21      85.376731      84.631926      84.631926    
    128000   583.1765      -128324.07     -125911.94      356.44343      611516.21      85.376731      84.631926      84.631926    
    129000   577.35099     -128307.22     -125919.19      469.73469      611516.21      85.354998      84.6427        84.6427      
    130000   576.08932     -128314.54     -125931.72      432.93881      611516.21      85.312482      84.663788      84.663788    
    131000   578.3531      -128293.89     -125901.71      495.64683      611516.21      85.251042      84.694291      84.694291    
    132000   581.54265     -128334.77     -125929.4       276.48182      611516.21      85.173362      84.732904      84.732904    
    133000   579.98076     -128301.41     -125902.5       584.86757      611516.21      85.082838      84.777968      84.777968    
    134000   577.00488     -128345.71     -125959.11      267.26075      611516.21      84.983426      84.827539      84.827539    
    135000   578.53028     -128308.22     -125915.31      399.93388      611516.21      84.87947       84.87947       84.87947     
    136000   581.05652     -128311.72     -125908.36      442.03393      611516.21      84.775514      84.931495      84.931495    
    137000   578.29264     -128313.45     -125921.52      514.69158      611516.21      84.676101      84.981337      84.981337    
    138000   578.68837     -128309.32     -125915.76      341.50891      611516.21      84.585577      85.026799      85.026799    
    139000   581.90444     -128314.88     -125908.01      439.34822      611516.21      84.507897      85.065868      85.065868    
    140000   580.40193     -128316.69     -125916.03      369.6883       611516.21      84.446457      85.096808      85.096808    
    141000   580.38619     -128329.1      -125928.51      385.55838      611516.21      84.403941      85.118238      85.118238    
    142000   579.76867     -128314.07     -125916.03      380.07831      611516.21      84.382209      85.129198      85.129198    
    143000   579.34095     -128287.62     -125891.36      641.17694      611516.21      84.382209      85.129198      85.129198    
    144000   580.38256     -128298.01     -125897.43      671.9625       611516.21      84.403941      85.118238      85.118238    
    145000   582.33021     -128318.06     -125909.43      505.79422      611516.21      84.446457      85.096808      85.096808    
    146000   576.035       -128304.24     -125921.64      592.12252      611516.21      84.507897      85.065868      85.065868    
    147000   580.55202     -128315.63     -125914.36      449.30546      611516.21      84.585577      85.026799      85.026799    
    148000   581.26862     -128307.69     -125903.45      661.61557      611516.21      84.676101      84.981337      84.981337    
    149000   580.073       -128308.29     -125909         501.73781      611516.21      84.775514      84.931495      84.931495    
    150000   579.72259     -128309.29     -125911.45      545.82466      611516.21      84.87947       84.87947       84.87947     
    151000   576.99039     -128321.69     -125935.14      311.77513      611516.21      84.983426      84.827539      84.827539    
    152000   581.00045     -128309.96     -125906.82      530.50303      611516.21      85.082838      84.777968      84.777968    
    153000   577.46665     -128319.94     -125931.42      396.25681      611516.21      85.173362      84.732904      84.732904    
    154000   585.92852     -128311.23     -125887.72      473.35494      611516.21      85.251042      84.694291      84.694291    
    155000   586.42494     -128304.2      -125878.63      605.20341      611516.21      85.312482      84.663788      84.663788    
    156000   580.1579      -128327.53     -125927.89      400.77996      611516.21      85.354998      84.6427        84.6427      
    157000   575.52847     -128298.73     -125918.23      456.13139      611516.21      85.376731      84.631926      84.631926    
    158000   580.85047     -128308.55     -125906.04      579.68518      611516.21      85.376731      84.631926      84.631926    
    159000   576.20053     -128309.13     -125925.85      357.84653      611516.21      85.354998      84.6427        84.6427      
    160000   579.62219     -128301.17     -125903.74      507.92786      611516.21      85.312482      84.663788      84.663788    
    161000   578.83301     -128309.11     -125914.95      384.24948      611516.21      85.251042      84.694291      84.694291    
    162000   579.40764     -128312.1      -125915.56      286.92911      611516.21      85.173362      84.732904      84.732904    
    163000   579.21709     -128303.1      -125907.35      601.81743      611516.21      85.082838      84.777968      84.777968    
    164000   582.60753     -128290.84     -125881.06      587.4925       611516.21      84.983426      84.827539      84.827539    
    165000   582.72512     -128316.76     -125906.5       430.33983      611516.21      84.87947       84.87947       84.87947     
    166000   576.36188     -128300.89     -125916.95      473.72888      611516.21      84.775514      84.931495      84.931495    
    167000   583.6439      -128319.69     -125905.62      440.34045      611516.21      84.676101      84.981337      84.981337    
    168000   583.09047     -128299.47     -125887.7       638.50577      611516.21      84.585577      85.026799      85.026799    
    169000   580.8319      -128306.11     -125903.68      578.0391       611516.21      84.507897      85.065868      85.065868    
    170000   579.22839     -128320.77     -125924.97      478.73245      611516.21      84.446457      85.096808      85.096808    
    171000   581.81867     -128309.07     -125902.55      543.13938      611516.21      84.403941      85.118238      85.118238    
    172000   579.01589     -128311.41     -125916.49      359.50237      611516.21      84.382209      85.129198      85.129198    
    173000   576.26821     -128312.97     -125929.41      428.55506      611516.21      84.382209      85.129198      85.129198    
    174000   580.15825     -128318.9      -125919.25      377.19606      611516.21      84.403941      85.118238      85.118238    
    175000   583.17295     -128305.89     -125893.78      528.36744      611516.21      84.446457      85.096808      85.096808    
    176000   582.10014     -128281.86     -125874.18      648.0996       611516.21      84.507897      85.065868      85.065868    
    177000   579.75784     -128311.19     -125913.2       472.84653      611516.21      84.585577      85.026799      85.026799    
    178000   580.9802      -128307.37     -125904.32      595.92667      611516.21      84.676101      84.981337      84.981337    
    179000   581.03154     -128316.18     -125912.92      314.12505      611516.21      84.775514      84.931495      84.931495    
    180000   581.33369     -128331.36     -125926.85      333.44082      611516.21      84.87947       84.87947       84.87947     
    181000   579.45925     -128295.26     -125898.51      581.39899      611516.21      84.983426      84.827539      84.827539    
    182000   582.12646     -128315.51     -125907.72      417.47843      611516.21      85.082838      84.777968      84.777968    
    183000   578.68379     -128309.57     -125916.02      493.8517       611516.21      85.173362      84.732904      84.732904    
    184000   576.12699     -128313.74     -125930.77      403.32886      611516.21      85.251042      84.694291      84.694291    
    185000   581.00068     -128316.04     -125912.91      481.57388      611516.21      85.312482      84.663788      84.663788    
    186000   578.10416     -128299.05     -125907.9       553.3351       611516.21      85.354998      84.6427        84.6427      
    187000   582.55482     -128314.15     -125904.59      424.96661      611516.21      85.376731      84.631926      84.631926    
    188000   580.2468      -128304.21     -125904.19      620.46624      611516.21      85.376731      84.631926      84.631926    
    189000   579.38377     -128300.69     -125904.24      540.09248      611516.21      85.354998      84.6427        84.6427      
    190000   575.21745     -128311.91     -125932.69      483.93948      611516.21      85.312482      84.663788      84.663788    
    191000   579.02333     -128334        -125939.05      292.45551      611516.21      85.251042      84.694291      84.694291    
    192000   584.53876     -128297.88     -125880.11      568.05552      611516.21      85.173362      84.732904      84.732904    
    193000   578.08986     -128329.41     -125938.31      254.23214      611516.21      85.082838      84.777968      84.777968    
    194000   578.70222     -128317.24     -125923.61      303.0554       611516.21      84.983426      84.827539      84.827539    
    195000   579.125       -128307.26     -125911.88      549.71537      611516.21      84.87947       84.87947       84.87947     
    196000   580.66805     -128317.12     -125915.36      459.52272      611516.21      84.775514      84.931495      84.931495    
    197000   582.10433     -128273.92     -125866.23      700.56759      611516.21      84.676101      84.981337      84.981337    
    198000   580.50968     -128323.38     -125922.28      335.99284      611516.21      84.585577      85.026799      85.026799    
    199000   580.38632     -128322.04     -125921.45      376.59379      611516.21      84.507897      85.065868      85.065868    
    200000   579.98575     -128301.46     -125902.52      541.35261      611516.21      84.446457      85.096808      85.096808    
    201000   580.33928     -128317.81     -125917.41      451.47229      611516.21      84.403941      85.118238      85.118238    
    202000   579.8174      -128317.33     -125919.09      317.66819      611516.21      84.382209      85.129198      85.129198    
    203000   576.3889      -128301.55     -125917.5       557.01738      611516.21      84.382209      85.129198      85.129198    
    204000   580.97016     -128317.55     -125914.54      285.81957      611516.21      84.403941      85.118238      85.118238    
    205000   580.31323     -128314.27     -125913.98      338.0535       611516.21      84.446457      85.096808      85.096808    
    206000   577.63455     -128299.87     -125910.66      491.12638      611516.21      84.507897      85.065868      85.065868    
    207000   580.0517      -128303.92     -125904.71      532.8112       611516.21      84.585577      85.026799      85.026799    
    208000   580.7053      -128308.3      -125906.39      434.31758      611516.21      84.676101      84.981337      84.981337    
    209000   579.5115      -128319.51     -125922.54      325.94522      611516.21      84.775514      84.931495      84.931495    
    210000   580.45278     -128335.06     -125934.2       79.674528      611516.21      84.87947       84.87947       84.87947     
    211000   582.06588     -128322.47     -125914.93      386.40203      611516.21      84.983426      84.827539      84.827539    
    212000   577.44792     -128321.35     -125932.92      460.8339       611516.21      85.082838      84.777968      84.777968    
    213000   581.30705     -128335.35     -125930.95      336.62632      611516.21      85.173362      84.732904      84.732904    
    214000   581.73113     -128321.05     -125914.9       529.55276      611516.21      85.251042      84.694291      84.694291    
    215000   586.12235     -128298.44     -125874.13      627.842        611516.21      85.312482      84.663788      84.663788    
    216000   581.38181     -128318        -125913.29      517.4622       611516.21      85.354998      84.6427        84.6427      
    217000   578.28736     -128304.58     -125912.67      527.9197       611516.21      85.376731      84.631926      84.631926    
    218000   579.9881      -128315.51     -125916.56      374.35456      611516.21      85.376731      84.631926      84.631926    
    219000   580.1152      -128288.9      -125889.43      488.64565      611516.21      85.354998      84.6427        84.6427      
    220000   580.45963     -128296.25     -125895.35      683.48136      611516.21      85.312482      84.663788      84.663788    
    221000   581.16089     -128305.83     -125902.04      588.57766      611516.21      85.251042      84.694291      84.694291    
    222000   579.91323     -128317.87     -125919.24      329.25271      611516.21      85.173362      84.732904      84.732904    
    223000   580.0803      -128304.53     -125905.21      644.0881       611516.21      85.082838      84.777968      84.777968    
    224000   580.48275     -128296.54     -125895.55      621.7832       611516.21      84.983426      84.827539      84.827539    
    225000   582.03459     -128341.27     -125933.86      333.67073      611516.21      84.87947       84.87947       84.87947     
    226000   578.44653     -128332.29     -125939.72      184.51819      611516.21      84.775514      84.931495      84.931495    
    227000   577.7948      -128309.06     -125919.19      367.21277      611516.21      84.676101      84.981337      84.981337    
    228000   579.62986     -128316.46     -125919         367.75316      611516.21      84.585577      85.026799      85.026799    
    229000   576.4771      -128294.78     -125910.36      662.80717      611516.21      84.507897      85.065868      85.065868    
    230000   578.07945     -128306.06     -125915.02      463.62275      611516.21      84.446457      85.096808      85.096808    
    231000   581.73448     -128290.71     -125884.54      461.13698      611516.21      84.403941      85.118238      85.118238    
    232000   578.72579     -128307.57     -125913.84      516.70412      611516.21      84.382209      85.129198      85.129198    
    233000   581.22528     -128326.76     -125922.7       222.514        611516.21      84.382209      85.129198      85.129198    
    234000   586.50307     -128311.36     -125885.47      498.11016      611516.21      84.403941      85.118238      85.118238    
    235000   578.57095     -128310.23     -125917.15      437.05184      611516.21      84.446457      85.096808      85.096808    
    236000   577.53288     -128292.13     -125903.34      556.6145       611516.21      84.507897      85.065868      85.065868    
    237000   576.56803     -128315.49     -125930.69      419.6779       611516.21      84.585577      85.026799      85.026799    
    238000   579.28839     -128318.31     -125922.26      381.77334      611516.21      84.676101      84.981337      84.981337    
    239000   588.01907     -128334.28     -125902.12      324.0616       611516.21      84.775514      84.931495      84.931495    
    240000   581.16282     -128306.36     -125902.56      571.8403       611516.21      84.87947       84.87947       84.87947     
    241000   586.30794     -128304.13     -125879.04      551.95545      611516.21      84.983426      84.827539      84.827539    
    242000   580.80432     -128302.49     -125900.17      576.24785      611516.21      85.082838      84.777968      84.777968    
    243000   574.02141     -128321.99     -125947.72      313.25702      611516.21      85.173362      84.732904      84.732904    
    244000   578.61747     -128310.72     -125917.45      460.2955       611516.21      85.251042      84.694291      84.694291    
    245000   580.83465     -128280.9      -125878.46      692.5155       611516.21      85.312482      84.663788      84.663788    
    246000   579.71391     -128308.51     -125910.7       372.14254      611516.21      85.354998      84.6427        84.6427      
    247000   579.57558     -128316.55     -125919.31      308.42471      611516.21      85.376731      84.631926      84.631926    
    248000   581.04258     -128304.09     -125900.78      442.63347      611516.21      85.376731      84.631926      84.631926    
    249000   581.28879     -128313.16     -125908.83      315.74714      611516.21      85.354998      84.6427        84.6427      
    250000   579.86043     -128318.62     -125920.21      311.4377       611516.21      85.312482      84.663788      84.663788    
    251000   584.0726      -128325.37     -125909.53      337.02711      611516.21      85.251042      84.694291      84.694291    
    252000   574.5503      -128298.63     -125922.18      581.83786      611516.21      85.173362      84.732904      84.732904    
    253000   583.51673     -128339.11     -125925.58      158.38978      611516.21      85.082838      84.777968      84.777968    
    254000   582.71334     -128334.74     -125924.52      209.73723      611516.21      84.983426      84.827539      84.827539    
    255000   575.65408     -128324.31     -125943.3       272.52993      611516.21      84.87947       84.87947       84.87947     
    256000   574.16909     -128337.78     -125962.91      277.58007      611516.21      84.775514      84.931495      84.931495    
    257000   577.83519     -128308.39     -125918.36      277.2673       611516.21      84.676101      84.981337      84.981337    
    258000   575.37163     -128335.18     -125955.33      85.36876       611516.21      84.585577      85.026799      85.026799    
    259000   580.13412     -128286.11     -125886.57      679.89685      611516.21      84.507897      85.065868      85.065868    
    260000   579.45363     -128300.74     -125904.01      658.10146      611516.21      84.446457      85.096808      85.096808    
    261000   576.49725     -128307.48     -125922.97      394.70311      611516.21      84.403941      85.118238      85.118238    
    262000   582.41985     -128319.36     -125910.36      338.44424      611516.21      84.382209      85.129198      85.129198    
    263000   581.45368     -128314.13     -125909.12      287.28381      611516.21      84.382209      85.129198      85.129198    
    264000   579.14523     -128296.88     -125901.43      621.78687      611516.21      84.403941      85.118238      85.118238    
    265000   581.46826     -128307.23     -125902.16      486.81783      611516.21      84.446457      85.096808      85.096808    
    266000   578.50331     -128295.99     -125903.19      503.62386      611516.21      84.507897      85.065868      85.065868    
    267000   587.78441     -128318.93     -125887.74      353.30421      611516.21      84.585577      85.026799      85.026799    
    268000   578.32571     -128302.72     -125910.65      448.67551      611516.21      84.676101      84.981337      84.981337    
    269000   581.87795     -128323.2      -125916.43      488.37356      611516.21      84.775514      84.931495      84.931495    
    270000   575.98003     -128318.84     -125936.48      256.1998       611516.21      84.87947       84.87947       84.87947     
    271000   580.00609     -128302.82     -125903.8       499.95017      611516.21      84.983426      84.827539      84.827539    
    272000   584.31389     -128318.01     -125901.18      493.88405      611516.21      85.082838      84.777968      84.777968    
    273000   578.05637     -128306.95     -125916         510.41769      611516.21      85.173362      84.732904      84.732904    
    274000   581.25971     -128310.73     -125906.53      465.42334      611516.21      85.251042      84.694291      84.694291    
    275000   581.94525     -128313.58     -125906.55      431.04303      611516.21      85.312482      84.663788      84.663788    
    276000   581.33648     -128296.17     -125891.65      515.31855      611516.21      85.354998      84.6427        84.6427      
    277000   577.60127     -128290.68     -125901.61      529.42862      611516.21      85.376731      84.631926      84.631926    
    278000   580.51469     -128316.48     -125915.36      449.64848      611516.21      85.376731      84.631926      84.631926    
    279000   580.19722     -128329.13     -125929.32      410.35437      611516.21      85.354998      84.6427        84.6427      
    280000   585.03648     -128289.13     -125869.31      738.24541      611516.21      85.312482      84.663788      84.663788    
    281000   580.65156     -128294.65     -125892.96      651.18323      611516.21      85.251042      84.694291      84.694291    
    282000   580.51825     -128297.89     -125896.76      639.99737      611516.21      85.173362      84.732904      84.732904    
    283000   580.77931     -128319.98     -125917.76      614.66317      611516.21      85.082838      84.777968      84.777968    
    284000   581.50727     -128321.25     -125916.02      413.22181      611516.21      84.983426      84.827539      84.827539    
    285000   577.90439     -128285.52     -125895.2       641.61872      611516.21      84.87947       84.87947       84.87947     
    286000   582.64105     -128313.59     -125903.67      361.10181      611516.21      84.775514      84.931495      84.931495    
    287000   581.99966     -128317.17     -125909.9       408.13188      611516.21      84.676101      84.981337      84.981337    
    288000   581.10026     -128310.9      -125907.36      544.4799       611516.21      84.585577      85.026799      85.026799    
    289000   579.16519     -128293.54     -125898         637.47101      611516.21      84.507897      85.065868      85.065868    
    290000   581.52338     -128320.08     -125914.78      378.38228      611516.21      84.446457      85.096808      85.096808    
    291000   578.79092     -128322.38     -125928.39      337.40701      611516.21      84.403941      85.118238      85.118238    
    292000   582.67226     -128302.21     -125892.16      595.78379      611516.21      84.382209      85.129198      85.129198    
    293000   583.11295     -128313.26     -125901.39      419.14377      611516.21      84.382209      85.129198      85.129198    
    294000   586.12883     -128289.86     -125865.51      689.75058      611516.21      84.403941      85.118238      85.118238    
    295000   580.12806     -128317.8      -125918.27      507.48476      611516.21      84.446457      85.096808      85.096808    
    296000   577.35244     -128310.32     -125922.28      340.45221      611516.21      84.507897      85.065868      85.065868    
    297000   583.18186     -128309.03     -125896.87      565.32188      611516.21      84.585577      85.026799      85.026799    
    298000   581.21973     -128319.11     -125915.07      420.26395      611516.21      84.676101      84.981337      84.981337    
    299000   580.37245     -128297.76     -125897.23      574.50966      611516.21      84.775514      84.931495      84.931495    
    300000   577.74666     -128303.69     -125914.02      693.95057      611516.21      84.87947       84.87947       84.87947     
Loop time of 1188.66 on 48 procs for 300000 steps with 32000 atoms

Performance: 218.061 ns/day, 0.110 hours/ns, 252.385 timesteps/s
99.3% CPU use with 48 MPI tasks x 1 OpenMP threads

MPI task timing breakdown:
Section |  min time  |  avg time  |  max time  |%varavg| %total
---------------------------------------------------------------
Pair    | 1005.2     | 1016       | 1032.9     |  17.7 | 85.48
Neigh   | 61.023     | 63.025     | 65.107     |  15.6 |  5.30
Comm    | 51.323     | 67.299     | 82.521     |  93.2 |  5.66
Output  | 0.040069   | 0.041702   | 0.10478    |   4.5 |  0.00
Modify  | 33.406     | 38.534     | 44.915     |  55.4 |  3.24
Other   |            | 3.753      |            |       |  0.32

Nlocal:        666.667 ave         684 max         657 min
Histogram: 6 8 11 5 7 3 2 2 2 2
Nghost:        3629.54 ave        3655 max        3605 min
Histogram: 4 0 5 5 13 6 7 4 2 2
Neighs:          72726 ave       74630 max       71308 min
Histogram: 2 8 5 11 6 4 5 3 0 4

Total # of neighbors = 3490847
Ave neighs/atom = 109.08897
Neighbor list builds = 49015
Dangerous builds = 0
clear
OMP_NUM_THREADS environment is not set. Defaulting to 1 thread. (src/comm.cpp:98)
  using 1 OpenMP thread(s) per MPI task
Open of file /opt/app/anaconda3/envs/deepmd/lib/deepmd_lmp/dpplugin.so failed: libdeepmd_cc.so: cannot open shared object file: No such file or directory
Loaded 0 plugins from /opt/app/anaconda3/envs/deepmd/lib/deepmd_lmp
Loaded 0 plugins from 
package intel 1
jump dms560.lmp
#MD-DMS by Ha-Bin Yu
variable T equal 560
log log.${T}
log log.560
