units           metal
boundary        p p p
atom_style      atomic
read_data      ../data/T${T}.dat
read_data      ../data/T600.dat
Reading data file ...
  orthogonal box = (-6.2541499 -6.2541499 -6.2541499) to (78.65415 78.65415 78.65415)
  3 by 4 by 4 MPI processor grid
  reading atoms ...
  32000 atoms
  reading velocities ...
  32000 velocities
  read_data CPU = 0.255 seconds
mass            1  26.98	#Al
mass            2  150.36	#Sm
pair_style      eam/fs
pair_coeff      * * ../data/Al90Sm10_MendelevM_2014.eam.fs  Al Sm

neighbor        2.0 bin
neigh_modify    delay 1

timestep 0.01
thermo 1000
reset_timestep 0
thermo_style custom step temp pe etotal press vol lx ly lz
fix             1 all nvt temp ${T} ${T} 0.1
fix             1 all nvt temp 600 ${T} 0.1
fix             1 all nvt temp 600 600 0.1
thermo_modify flush yes
fix nodrift all momentum 1  linear 1 1 1
fix com_seed all recenter INIT INIT INIT shift all
fix dsf all deform 1 x  wiggle 0.5 300.0 y volume z volume units box
fix ps1 all ave/time 1 1 300 c_thermo_press[1] c_thermo_press[2]  c_thermo_press[3] c_thermo_press[4]  c_thermo_press[5] c_thermo_press[6]  file  stress.${T}
fix ps1 all ave/time 1 1 300 c_thermo_press[1] c_thermo_press[2]  c_thermo_press[3] c_thermo_press[4]  c_thermo_press[5] c_thermo_press[6]  file  stress.600
dump            1 all custom 30000 dump.${T} id type x y z
dump            1 all custom 30000 dump.600 id type x y z
dump_modify 1 sort id
run 300000
----------------------------------------------------------
Using INTEL Package without Coprocessor.
Compiler: GNU C++ 4.8.5 20150623 (Red Hat 4.8.5-39)
SIMD compiler directives: Disabled
Precision: mixed
----------------------------------------------------------
Neighbor list info ...
  update every 1 steps, delay 1 steps, check yes
  max neighbors/atom: 2000, page size: 100000
  master list distance cutoff = 10
  ghost atom cutoff = 10
  binsize = 5, bins = 17 17 17
  1 neighbor lists, perpetual/occasional/extra = 1 0 0
  (1) pair eam/fs/intel, perpetual
      attributes: half, newton on, intel
      pair build: half/bin/newton/intel
      stencil: half/bin/3d
      bin: intel
Per MPI rank memory allocation (min/avg/max) = 10.54 | 10.67 | 10.76 Mbytes
   Step          Temp          PotEng         TotEng         Press          Volume           Lx             Ly             Lz      
         0   600.51191     -128294.93     -125811.1       25.843252      612139.54      84.9083        84.9083        84.9083      
      1000   602.2845      -128198.69     -125707.52      735.21851      612139.54      85.012256      84.85637       84.85637     
      2000   597.52164     -128235.54     -125764.07      529.29975      612139.54      85.111668      84.806798      84.806798    
      3000   605.43189     -128202.73     -125698.55      685.31606      612139.54      85.202192      84.761734      84.761734    
      4000   599.26183     -128213.02     -125734.36      618.8252       612139.54      85.279872      84.723121      84.723121    
      5000   600.08681     -128185.64     -125703.57      809.89058      612139.54      85.341313      84.692618      84.692618    
      6000   596.67309     -128206.94     -125738.98      494.38319      612139.54      85.383828      84.67153       84.67153     
      7000   600.11974     -128212.18     -125729.96      616.35405      612139.54      85.405561      84.660756      84.660756    
      8000   598.06869     -128221.71     -125747.99      548.90033      612139.54      85.405561      84.660756      84.660756    
      9000   604.479       -128207.66     -125707.41      709.23915      612139.54      85.383828      84.67153       84.67153     
     10000   596.80172     -128212.3      -125743.81      523.97524      612139.54      85.341313      84.692618      84.692618    
     11000   596.91687     -128187.25     -125718.29      824.16754      612139.54      85.279872      84.723121      84.723121    
     12000   600.65899     -128189        -125704.56      769.91018      612139.54      85.202192      84.761734      84.761734    
     13000   601.07412     -128211.03     -125724.87      542.60551      612139.54      85.111668      84.806798      84.806798    
     14000   599.19449     -128210.57     -125732.19      659.0874       612139.54      85.012256      84.85637       84.85637     
     15000   601.34299     -128206.24     -125718.97      661.59717      612139.54      84.9083        84.9083        84.9083      
     16000   599.01038     -128208.74     -125731.11      632.49733      612139.54      84.804344      84.960326      84.960326    
     17000   600.20737     -128174.08     -125691.5       950.29705      612139.54      84.704931      85.010167      85.010167    
     18000   601.55935     -128194.53     -125706.36      786.92709      612139.54      84.614407      85.055629      85.055629    
     19000   597.50839     -128193.07     -125721.66      816.90397      612139.54      84.536727      85.094698      85.094698    
     20000   597.54164     -128197.86     -125726.32      830.32043      612139.54      84.475287      85.125638      85.125638    
     21000   597.38348     -128194.16     -125723.27      784.88132      612139.54      84.432772      85.147067      85.147067    
     22000   603.04111     -128197.38     -125703.08      724.62291      612139.54      84.411039      85.158028      85.158028    
     23000   597.95387     -128178.94     -125705.69      936.7194       612139.54      84.411039      85.158028      85.158028    
     24000   598.04557     -128215.66     -125742.02      588.55373      612139.54      84.432772      85.147067      85.147067    
     25000   599.30775     -128206.5      -125727.64      698.703        612139.54      84.475287      85.125638      85.125638    
     26000   599.26954     -128216.75     -125738.05      503.18954      612139.54      84.536727      85.094698      85.094698    
     27000   597.15577     -128184.47     -125714.51      821.30293      612139.54      84.614407      85.055629      85.055629    
     28000   602.1126      -128193.96     -125703.51      670.3211       612139.54      84.704931      85.010167      85.010167    
     29000   602.22124     -128198.89     -125707.99      672.1684       612139.54      84.804344      84.960326      84.960326    
     30000   602.75702     -128185.53     -125692.41      970.27895      612139.54      84.9083        84.9083        84.9083      
     31000   595.39499     -128215.99     -125753.32      447.31511      612139.54      85.012256      84.85637       84.85637     
     32000   603.32608     -128202.1      -125706.62      721.9335       612139.54      85.111668      84.806798      84.806798    
     33000   601.81187     -128194.63     -125705.42      788.15131      612139.54      85.202192      84.761734      84.761734    
     34000   599.835       -128196.49     -125715.46      750.61812      612139.54      85.279872      84.723121      84.723121    
     35000   599.3734      -128190.08     -125710.95      747.11941      612139.54      85.341313      84.692618      84.692618    
     36000   598.18781     -128205.18     -125730.96      627.96189      612139.54      85.383828      84.67153       84.67153     
     37000   599.4072      -128176.28     -125697.01      869.00981      612139.54      85.405561      84.660756      84.660756    
     38000   604.19159     -128207.94     -125708.89      752.09554      612139.54      85.405561      84.660756      84.660756    
     39000   597.89139     -128181.93     -125708.94      837.76573      612139.54      85.383828      84.67153       84.67153     
     40000   603.2222      -128193.68     -125698.64      884.79508      612139.54      85.341313      84.692618      84.692618    
     41000   596.58865     -128202.53     -125734.92      627.57172      612139.54      85.279872      84.723121      84.723121    
     42000   599.9616      -128207.56     -125726         670.43218      612139.54      85.202192      84.761734      84.761734    
     43000   597.89704     -128204.86     -125731.84      749.17411      612139.54      85.111668      84.806798      84.806798    
     44000   601.86906     -128173.84     -125684.39      957.67305      612139.54      85.012256      84.85637       84.85637     
     45000   598.88576     -128177.25     -125700.14      916.08137      612139.54      84.9083        84.9083        84.9083      
     46000   601.13488     -128195.68     -125709.27      784.75268      612139.54      84.804344      84.960326      84.960326    
     47000   597.37363     -128175.36     -125704.51      896.15053      612139.54      84.704931      85.010167      85.010167    
     48000   600.74432     -128182.84     -125698.04      839.73103      612139.54      84.614407      85.055629      85.055629    
     49000   598.16037     -128217.5      -125743.4       608.58881      612139.54      84.536727      85.094698      85.094698    
     50000   598.02546     -128196.61     -125723.06      696.859        612139.54      84.475287      85.125638      85.125638    
     51000   600.1145      -128182.09     -125699.9       933.64504      612139.54      84.432772      85.147067      85.147067    
     52000   597.31957     -128192.44     -125721.81      833.56501      612139.54      84.411039      85.158028      85.158028    
     53000   599.12656     -128199.84     -125721.74      776.46833      612139.54      84.411039      85.158028      85.158028    
     54000   602.1506      -128215.97     -125725.36      717.42897      612139.54      84.432772      85.147067      85.147067    
     55000   598.88718     -128200.25     -125723.14      749.56549      612139.54      84.475287      85.125638      85.125638    
     56000   596.63377     -128188.02     -125720.23      875.43951      612139.54      84.536727      85.094698      85.094698    
     57000   600.3977      -128215.31     -125731.95      759.05815      612139.54      84.614407      85.055629      85.055629    
     58000   601.20144     -128198.81     -125712.13      740.22622      612139.54      84.704931      85.010167      85.010167    
     59000   600.93665     -128210.11     -125724.52      616.44046      612139.54      84.804344      84.960326      84.960326    
     60000   601.6265      -128196.96     -125708.52      597.95271      612139.54      84.9083        84.9083        84.9083      
     61000   601.20582     -128214.05     -125727.34      730.93524      612139.54      85.012256      84.85637       84.85637     
     62000   598.3144      -128210.55     -125735.81      639.49021      612139.54      85.111668      84.806798      84.806798    
     63000   601.80197     -128212.52     -125723.35      613.90418      612139.54      85.202192      84.761734      84.761734    
     64000   602.9494      -128206.1      -125712.18      679.38147      612139.54      85.279872      84.723121      84.723121    
     65000   599.75176     -128184.66     -125703.97      824.93767      612139.54      85.341313      84.692618      84.692618    
     66000   602.43785     -128201.18     -125709.38      794.76937      612139.54      85.383828      84.67153       84.67153     
     67000   599.98182     -128211.64     -125730         547.19555      612139.54      85.405561      84.660756      84.660756    
     68000   602.8493      -128206.14     -125712.64      792.66516      612139.54      85.405561      84.660756      84.660756    
     69000   597.14031     -128197.04     -125727.15      751.5363       612139.54      85.383828      84.67153       84.67153     
     70000   601.12689     -128207        -125720.63      757.29669      612139.54      85.341313      84.692618      84.692618    
     71000   602.75809     -128203.98     -125710.85      682.88395      612139.54      85.279872      84.723121      84.723121    
     72000   600.2352      -128191.08     -125708.39      807.77146      612139.54      85.202192      84.761734      84.761734    
     73000   601.03795     -128203.88     -125717.87      685.68932      612139.54      85.111668      84.806798      84.806798    
     74000   596.021       -128186.63     -125721.38      864.43066      612139.54      85.012256      84.85637       84.85637     
     75000   599.38557     -128186.59     -125707.42      829.2941       612139.54      84.9083        84.9083        84.9083      
     76000   603.51773     -128187.61     -125691.34      798.39401      612139.54      84.804344      84.960326      84.960326    
     77000   598.31522     -128195.14     -125720.39      813.73776      612139.54      84.704931      85.010167      85.010167    
     78000   602.85864     -128208.02     -125714.48      603.89477      612139.54      84.614407      85.055629      85.055629    
     79000   599.93819     -128198.25     -125716.79      646.51396      612139.54      84.536727      85.094698      85.094698    
     80000   601.84857     -128169.64     -125680.28      1017.5133      612139.54      84.475287      85.125638      85.125638    
     81000   597.20168     -128192.99     -125722.84      713.69966      612139.54      84.432772      85.147067      85.147067    
     82000   603.27739     -128202.58     -125707.31      760.71085      612139.54      84.411039      85.158028      85.158028    
     83000   600.46809     -128212.35     -125728.7       654.10098      612139.54      84.411039      85.158028      85.158028    
     84000   606.18158     -128184.84     -125677.55      1070.9292      612139.54      84.432772      85.147067      85.147067    
     85000   601.70287     -128197.19     -125708.43      827.20455      612139.54      84.475287      85.125638      85.125638    
     86000   595.44466     -128187.68     -125724.8       895.54141      612139.54      84.536727      85.094698      85.094698    
     87000   601.68259     -128187.6      -125698.92      772.02559      612139.54      84.614407      85.055629      85.055629    
     88000   598.13031     -128208.07     -125734.09      713.03645      612139.54      84.704931      85.010167      85.010167    
     89000   599.50868     -128193.65     -125713.97      823.62404      612139.54      84.804344      84.960326      84.960326    
     90000   596.58548     -128214.17     -125746.58      715.29175      612139.54      84.9083        84.9083        84.9083      
     91000   600.92718     -128191.05     -125705.49      843.43492      612139.54      85.012256      84.85637       84.85637     
     92000   597.92367     -128189.84     -125716.71      915.00811      612139.54      85.111668      84.806798      84.806798    
     93000   600.71804     -128207.57     -125722.88      734.32425      612139.54      85.202192      84.761734      84.761734    
     94000   599.7293      -128218.64     -125738.04      599.40562      612139.54      85.279872      84.723121      84.723121    
     95000   602.89119     -128213.95     -125720.27      606.78564      612139.54      85.341313      84.692618      84.692618    
     96000   599.85867     -128189.23     -125708.1       919.21642      612139.54      85.383828      84.67153       84.67153     
     97000   600.02842     -128186.14     -125704.3       831.23284      612139.54      85.405561      84.660756      84.660756    
     98000   595.72113     -128195.61     -125731.59      669.70561      612139.54      85.405561      84.660756      84.660756    
     99000   598.44621     -128200.08     -125724.79      735.91581      612139.54      85.383828      84.67153       84.67153     
    100000   598.93588     -128201.19     -125723.87      676.58005      612139.54      85.341313      84.692618      84.692618    
    101000   601.93341     -128198.64     -125708.93      838.97055      612139.54      85.279872      84.723121      84.723121    
    102000   599.98184     -128196.96     -125715.32      718.05029      612139.54      85.202192      84.761734      84.761734    
    103000   600.54287     -128188.65     -125704.69      872.53308      612139.54      85.111668      84.806798      84.806798    
    104000   599.10919     -128199.81     -125721.78      734.48916      612139.54      85.012256      84.85637       84.85637     
    105000   599.63438     -128204.85     -125724.65      784.51172      612139.54      84.9083        84.9083        84.9083      
    106000   600.25688     -128208.22     -125725.44      866.94901      612139.54      84.804344      84.960326      84.960326    
    107000   598.80602     -128200.15     -125723.37      732.58783      612139.54      84.704931      85.010167      85.010167    
    108000   597.18433     -128177.09     -125707.02      932.59867      612139.54      84.614407      85.055629      85.055629    
    109000   601.91172     -128171.8      -125682.17      911.64717      612139.54      84.536727      85.094698      85.094698    
    110000   597.59998     -128201.1      -125729.31      757.70472      612139.54      84.475287      85.125638      85.125638    
    111000   604.21167     -128199.76     -125700.63      856.03353      612139.54      84.432772      85.147067      85.147067    
    112000   600.78659     -128182        -125697.03      791.03051      612139.54      84.411039      85.158028      85.158028    
    113000   602.25774     -128201.17     -125710.12      837.89977      612139.54      84.411039      85.158028      85.158028    
    114000   598.54829     -128188.38     -125712.67      883.14423      612139.54      84.432772      85.147067      85.147067    
    115000   598.16192     -128203.79     -125729.67      670.29439      612139.54      84.475287      85.125638      85.125638    
    116000   601.66473     -128205.63     -125717.03      819.01001      612139.54      84.536727      85.094698      85.094698    
    117000   598.08856     -128223.78     -125749.96      621.76938      612139.54      84.614407      85.055629      85.055629    
    118000   597.71104     -128184.5      -125712.25      842.81552      612139.54      84.704931      85.010167      85.010167    
    119000   600.43972     -128204.11     -125720.58      743.95585      612139.54      84.804344      84.960326      84.960326    
    120000   603.13511     -128209.42     -125714.73      725.3144       612139.54      84.9083        84.9083        84.9083      
    121000   600.22444     -128193.83     -125711.19      849.91513      612139.54      85.012256      84.85637       84.85637     
    122000   605.76167     -128194.11     -125688.56      796.13889      612139.54      85.111668      84.806798      84.806798    
    123000   590.17313     -128196.9      -125755.83      704.98109      612139.54      85.202192      84.761734      84.761734    
    124000   600.06262     -128206.06     -125724.09      680.88845      612139.54      85.279872      84.723121      84.723121    
    125000   596.10024     -128191.37     -125725.78      775.69672      612139.54      85.341313      84.692618      84.692618    
    126000   599.06297     -128211.49     -125733.65      571.52614      612139.54      85.383828      84.67153       84.67153     
    127000   605.73609     -128207.18     -125701.74      819.83455      612139.54      85.405561      84.660756      84.660756    
    128000   600.30268     -128209.97     -125727         540.60946      612139.54      85.405561      84.660756      84.660756    
    129000   600.21012     -128204.67     -125722.08      699.44624      612139.54      85.383828      84.67153       84.67153     
    130000   595.15971     -128219.51     -125757.82      523.90801      612139.54      85.341313      84.692618      84.692618    
    131000   596.74678     -128213.39     -125745.13      598.85643      612139.54      85.279872      84.723121      84.723121    
    132000   602.5037      -128209.4      -125717.33      675.58993      612139.54      85.202192      84.761734      84.761734    
    133000   602.90921     -128218.89     -125725.14      513.02353      612139.54      85.111668      84.806798      84.806798    
    134000   598.02035     -128176.24     -125702.71      821.97597      612139.54      85.012256      84.85637       84.85637     
    135000   602.15427     -128207.22     -125716.59      805.47387      612139.54      84.9083        84.9083        84.9083      
    136000   600.32079     -128197        -125713.96      741.65497      612139.54      84.804344      84.960326      84.960326    
    137000   603.47071     -128192.34     -125696.27      918.82401      612139.54      84.704931      85.010167      85.010167    
    138000   599.58351     -128168.08     -125688.08      1057.6556      612139.54      84.614407      85.055629      85.055629    
    139000   604.36799     -128201.03     -125701.24      763.54843      612139.54      84.536727      85.094698      85.094698    
    140000   600.04688     -128184.22     -125702.31      767.14098      612139.54      84.475287      85.125638      85.125638    
    141000   602.6214      -128199.67     -125707.11      778.72451      612139.54      84.432772      85.147067      85.147067    
    142000   601.65883     -128179.8      -125691.22      942.33604      612139.54      84.411039      85.158028      85.158028    
    143000   604.26524     -128193.89     -125694.53      789.1344       612139.54      84.411039      85.158028      85.158028    
    144000   599.60608     -128195.49     -125715.4       721.55862      612139.54      84.432772      85.147067      85.147067    
    145000   600.07498     -128216.47     -125734.44      743.33989      612139.54      84.475287      85.125638      85.125638    
    146000   597.2335      -128205.61     -125735.34      736.48239      612139.54      84.536727      85.094698      85.094698    
    147000   601.50505     -128183.71     -125695.77      843.98707      612139.54      84.614407      85.055629      85.055629    
    148000   601.37951     -128180.48     -125693.06      1007.0914      612139.54      84.704931      85.010167      85.010167    
    149000   600.32272     -128205.98     -125722.93      768.93458      612139.54      84.804344      84.960326      84.960326    
    150000   600.77232     -128194.55     -125709.64      641.63884      612139.54      84.9083        84.9083        84.9083      
    151000   603.07105     -128200.34     -125705.92      766.1612       612139.54      85.012256      84.85637       84.85637     
    152000   598.43875     -128176.17     -125700.91      815.83175      612139.54      85.111668      84.806798      84.806798    
    153000   601.82068     -128213.3      -125724.05      663.36234      612139.54      85.202192      84.761734      84.761734    
    154000   597.19914     -128200.05     -125729.92      631.32408      612139.54      85.279872      84.723121      84.723121    
    155000   601.81028     -128184.41     -125695.21      826.25033      612139.54      85.341313      84.692618      84.692618    
    156000   596.56178     -128201.93     -125734.43      847.10026      612139.54      85.383828      84.67153       84.67153     
    157000   601.45811     -128214.69     -125726.94      606.22277      612139.54      85.405561      84.660756      84.660756    
    158000   601.45895     -128206.48     -125718.72      642.6014       612139.54      85.405561      84.660756      84.660756    
    159000   600.07507     -128200.61     -125718.59      832.30807      612139.54      85.383828      84.67153       84.67153     
    160000   596.1461      -128181.52     -125715.74      952.4883       612139.54      85.341313      84.692618      84.692618    
    161000   601.87226     -128185.07     -125695.61      813.91622      612139.54      85.279872      84.723121      84.723121    
    162000   596.66866     -128219.86     -125751.92      491.39047      612139.54      85.202192      84.761734      84.761734    
    163000   596.44317     -128213.83     -125746.82      499.54053      612139.54      85.111668      84.806798      84.806798    
    164000   597.09841     -128196.41     -125726.69      671.8813       612139.54      85.012256      84.85637       84.85637     
    165000   599.90122     -128213.04     -125731.73      546.56376      612139.54      84.9083        84.9083        84.9083      
    166000   602.38949     -128205.24     -125713.64      748.76209      612139.54      84.804344      84.960326      84.960326    
    167000   596.10902     -128197.52     -125731.9       662.84938      612139.54      84.704931      85.010167      85.010167    
    168000   599.99239     -128209.21     -125727.53      672.40895      612139.54      84.614407      85.055629      85.055629    
    169000   601.90966     -128190.55     -125700.93      870.08569      612139.54      84.536727      85.094698      85.094698    
    170000   596.90947     -128196.54     -125727.61      751.46254      612139.54      84.475287      85.125638      85.125638    
    171000   600.79685     -128190.95     -125705.93      755.5409       612139.54      84.432772      85.147067      85.147067    
    172000   601.57748     -128200.24     -125712         713.84086      612139.54      84.411039      85.158028      85.158028    
    173000   599.76295     -128184.88     -125704.14      1056.1146      612139.54      84.411039      85.158028      85.158028    
    174000   595.61854     -128184.23     -125720.63      808.26388      612139.54      84.432772      85.147067      85.147067    
    175000   599.24936     -128204.3      -125725.69      670.69576      612139.54      84.475287      85.125638      85.125638    
    176000   603.66556     -128197.84     -125700.96      931.24261      612139.54      84.536727      85.094698      85.094698    
    177000   599.42517     -128198.42     -125719.08      907.92826      612139.54      84.614407      85.055629      85.055629    
    178000   600.12968     -128211.8      -125729.55      744.61304      612139.54      84.704931      85.010167      85.010167    
    179000   600.41442     -128197.91     -125714.47      721.77848      612139.54      84.804344      84.960326      84.960326    
    180000   603.53347     -128197.13     -125700.8       896.20911      612139.54      84.9083        84.9083        84.9083      
    181000   601.62319     -128194.51     -125706.08      897.23457      612139.54      85.012256      84.85637       84.85637     
    182000   605.1268      -128205.28     -125702.36      837.59838      612139.54      85.111668      84.806798      84.806798    
    183000   595.14933     -128190.3      -125728.65      701.2532       612139.54      85.202192      84.761734      84.761734    
    184000   602.23812     -128189.98     -125699         782.56817      612139.54      85.279872      84.723121      84.723121    
    185000   603.46245     -128208.23     -125712.19      629.69792      612139.54      85.341313      84.692618      84.692618    
    186000   596.17325     -128198.16     -125732.27      692.46021      612139.54      85.383828      84.67153       84.67153     
    187000   596.50933     -128202.66     -125735.38      783.76326      612139.54      85.405561      84.660756      84.660756    
    188000   597.12184     -128194.79     -125724.98      708.82285      612139.54      85.405561      84.660756      84.660756    
    189000   597.85239     -128184.57     -125711.73      921.11503      612139.54      85.383828      84.67153       84.67153     
    190000   597.76529     -128215.8      -125743.32      664.89803      612139.54      85.341313      84.692618      84.692618    
    191000   602.38954     -128188.74     -125697.14      1045.1363      612139.54      85.279872      84.723121      84.723121    
    192000   596.54607     -128151.05     -125683.62      1016.2479      612139.54      85.202192      84.761734      84.761734    
    193000   602.17987     -128199.46     -125708.73      841.1979       612139.54      85.111668      84.806798      84.806798    
    194000   598.59421     -128194.08     -125718.18      879.1587       612139.54      85.012256      84.85637       84.85637     
    195000   599.32674     -128193.8      -125714.87      824.02624      612139.54      84.9083        84.9083        84.9083      
    196000   601.9959      -128199.58     -125709.6       721.68135      612139.54      84.804344      84.960326      84.960326    
    197000   596.93126     -128185.93     -125716.91      877.22207      612139.54      84.704931      85.010167      85.010167    
    198000   598.73699     -128179.62     -125703.13      988.01141      612139.54      84.614407      85.055629      85.055629    
    199000   598.79649     -128203.4      -125726.66      749.44421      612139.54      84.536727      85.094698      85.094698    
    200000   598.02961     -128225.46     -125751.89      641.49079      612139.54      84.475287      85.125638      85.125638    
    201000   605.30277     -128192.93     -125689.28      830.97655      612139.54      84.432772      85.147067      85.147067    
    202000   601.78788     -128187.71     -125698.59      903.66236      612139.54      84.411039      85.158028      85.158028    
    203000   601.61214     -128183.39     -125695.01      962.896        612139.54      84.411039      85.158028      85.158028    
    204000   595.59158     -128199.51     -125736.03      722.20258      612139.54      84.432772      85.147067      85.147067    
    205000   603.1315      -128203.18     -125708.51      759.07144      612139.54      84.475287      85.125638      85.125638    
    206000   601.52911     -128180.13     -125692.08      926.20447      612139.54      84.536727      85.094698      85.094698    
    207000   599.4408      -128175.66     -125696.26      956.41349      612139.54      84.614407      85.055629      85.055629    
    208000   598.6586      -128191.41     -125715.25      866.89308      612139.54      84.704931      85.010167      85.010167    
    209000   604.23438     -128193.94     -125694.71      836.09818      612139.54      84.804344      84.960326      84.960326    
    210000   601.79084     -128207.02     -125717.9       844.44486      612139.54      84.9083        84.9083        84.9083      
    211000   599.35761     -128191.04     -125711.98      847.35889      612139.54      85.012256      84.85637       84.85637     
    212000   606.07539     -128220.79     -125713.95      663.89211      612139.54      85.111668      84.806798      84.806798    
    213000   599.79363     -128201.59     -125720.73      853.43768      612139.54      85.202192      84.761734      84.761734    
    214000   602.37206     -128180.25     -125688.72      933.69962      612139.54      85.279872      84.723121      84.723121    
    215000   598.29004     -128206.02     -125731.38      698.16672      612139.54      85.341313      84.692618      84.692618    
    216000   602.05618     -128176.17     -125685.94      859.0154       612139.54      85.383828      84.67153       84.67153     
    217000   600.10618     -128191.92     -125709.76      778.84829      612139.54      85.405561      84.660756      84.660756    
    218000   598.95395     -128186.74     -125709.35      844.99994      612139.54      85.405561      84.660756      84.660756    
    219000   599.73133     -128209.78     -125729.18      565.33874      612139.54      85.383828      84.67153       84.67153     
    220000   601.73639     -128177.28     -125688.38      1071.6105      612139.54      85.341313      84.692618      84.692618    
    221000   601.45452     -128221.51     -125733.77      647.19434      612139.54      85.279872      84.723121      84.723121    
    222000   598.91971     -128194.82     -125717.57      818.92477      612139.54      85.202192      84.761734      84.761734    
    223000   602.80001     -128197.75     -125704.45      726.15097      612139.54      85.111668      84.806798      84.806798    
    224000   600.0265      -128196.3      -125714.47      754.71792      612139.54      85.012256      84.85637       84.85637     
    225000   601.47982     -128198.51     -125710.67      825.20122      612139.54      84.9083        84.9083        84.9083      
    226000   601.28627     -128193.02     -125705.98      845.05284      612139.54      84.804344      84.960326      84.960326    
    227000   596.05607     -128192.37     -125726.96      824.76849      612139.54      84.704931      85.010167      85.010167    
    228000   600.24858     -128214.75     -125732.01      686.05406      612139.54      84.614407      85.055629      85.055629    
    229000   603.06239     -128208.03     -125713.65      814.31105      612139.54      84.536727      85.094698      85.094698    
    230000   603.33104     -128215.67     -125720.17      569.85169      612139.54      84.475287      85.125638      85.125638    
    231000   597.98548     -128189.34     -125715.96      865.17261      612139.54      84.432772      85.147067      85.147067    
    232000   603.84805     -128215.9      -125718.26      856.28109      612139.54      84.411039      85.158028      85.158028    
    233000   599.92252     -128197.25     -125715.85      732.33793      612139.54      84.411039      85.158028      85.158028    
    234000   602.79671     -128200.98     -125707.7       894.49694      612139.54      84.432772      85.147067      85.147067    
    235000   600.02734     -128208.55     -125726.72      734.20818      612139.54      84.475287      85.125638      85.125638    
    236000   602.48621     -128180.19     -125688.19      1023.1738      612139.54      84.536727      85.094698      85.094698    
    237000   600.59681     -128212.09     -125727.9       603.0723       612139.54      84.614407      85.055629      85.055629    
    238000   603.82959     -128193.45     -125695.9       734.7536       612139.54      84.704931      85.010167      85.010167    
    239000   597.12642     -128210.55     -125740.72      642.42681      612139.54      84.804344      84.960326      84.960326    
    240000   602.62798     -128207.32     -125714.74      677.94717      612139.54      84.9083        84.9083        84.9083      
    241000   604.89665     -128190.02     -125688.05      903.92918      612139.54      85.012256      84.85637       84.85637     
    242000   603.22791     -128203.48     -125708.41      915.24913      612139.54      85.111668      84.806798      84.806798    
    243000   597.23352     -128217.76     -125747.48      546.07528      612139.54      85.202192      84.761734      84.761734    
    244000   600.63454     -128194.17     -125709.83      706.38862      612139.54      85.279872      84.723121      84.723121    
    245000   598.43962     -128197.55     -125722.28      831.60534      612139.54      85.341313      84.692618      84.692618    
    246000   599.20569     -128187.71     -125709.28      838.06853      612139.54      85.383828      84.67153       84.67153     
    247000   599.07133     -128197.95     -125720.07      783.41225      612139.54      85.405561      84.660756      84.660756    
    248000   603.05954     -128206.16     -125711.79      886.83741      612139.54      85.405561      84.660756      84.660756    
    249000   598.79527     -128190.9      -125714.17      776.80387      612139.54      85.383828      84.67153       84.67153     
    250000   599.77742     -128206.13     -125725.33      751.11848      612139.54      85.341313      84.692618      84.692618    
    251000   601.92873     -128191.93     -125702.24      823.32018      612139.54      85.279872      84.723121      84.723121    
    252000   600.99403     -128176.04     -125690.21      989.10524      612139.54      85.202192      84.761734      84.761734    
    253000   596.42468     -128193.38     -125726.45      768.63399      612139.54      85.111668      84.806798      84.806798    
    254000   597.73222     -128198.59     -125726.25      776.35255      612139.54      85.012256      84.85637       84.85637     
    255000   599.54241     -128193.42     -125713.6       887.19838      612139.54      84.9083        84.9083        84.9083      
    256000   599.45239     -128184.44     -125704.99      864.75206      612139.54      84.804344      84.960326      84.960326    
    257000   601.38298     -128210.76     -125723.32      699.33764      612139.54      84.704931      85.010167      85.010167    
    258000   599.83482     -128185.31     -125704.27      822.99437      612139.54      84.614407      85.055629      85.055629    
    259000   599.03712     -128197.77     -125720.03      740.72601      612139.54      84.536727      85.094698      85.094698    
    260000   596.45272     -128199.28     -125732.23      772.08872      612139.54      84.475287      85.125638      85.125638    
    261000   600.45207     -128186.17     -125702.59      1069.6128      612139.54      84.432772      85.147067      85.147067    
    262000   599.63085     -128197.58     -125717.39      742.31772      612139.54      84.411039      85.158028      85.158028    
    263000   601.75739     -128201.85     -125712.86      817.62122      612139.54      84.411039      85.158028      85.158028    
    264000   601.67252     -128215.14     -125726.51      639.65431      612139.54      84.432772      85.147067      85.147067    
    265000   601.02346     -128188.5      -125702.55      1005.5511      612139.54      84.475287      85.125638      85.125638    
    266000   599.14275     -128210.67     -125732.5       618.18901      612139.54      84.536727      85.094698      85.094698    
    267000   599.38735     -128214.85     -125735.67      420.37768      612139.54      84.614407      85.055629      85.055629    
    268000   599.06898     -128193.29     -125715.42      804.15976      612139.54      84.704931      85.010167      85.010167    
    269000   600.38391     -128200.39     -125717.08      738.70517      612139.54      84.804344      84.960326      84.960326    
    270000   598.2118      -128182.47     -125708.15      854.74326      612139.54      84.9083        84.9083        84.9083      
    271000   598.32875     -128194.98     -125720.17      642.17676      612139.54      85.012256      84.85637       84.85637     
    272000   593.51948     -128174.07     -125719.16      1028.4601      612139.54      85.111668      84.806798      84.806798    
    273000   602.11223     -128202.85     -125712.4       737.25788      612139.54      85.202192      84.761734      84.761734    
    274000   603.62974     -128184.85     -125688.12      891.54137      612139.54      85.279872      84.723121      84.723121    
    275000   595.84181     -128199.88     -125735.36      648.51102      612139.54      85.341313      84.692618      84.692618    
    276000   601.62173     -128174.89     -125686.46      1039.2267      612139.54      85.383828      84.67153       84.67153     
    277000   599.66288     -128179.79     -125699.47      901.09367      612139.54      85.405561      84.660756      84.660756    
    278000   600.33495     -128193.08     -125709.98      751.27805      612139.54      85.405561      84.660756      84.660756    
    279000   598.34145     -128197.52     -125722.66      700.35652      612139.54      85.383828      84.67153       84.67153     
    280000   598.73114     -128189.69     -125713.23      992.35452      612139.54      85.341313      84.692618      84.692618    
    281000   602.0109      -128208.06     -125718.03      633.96563      612139.54      85.279872      84.723121      84.723121    
    282000   596.9786      -128190.4      -125721.18      869.23817      612139.54      85.202192      84.761734      84.761734    
    283000   599.96048     -128200.75     -125719.2       816.82303      612139.54      85.111668      84.806798      84.806798    
    284000   601.51265     -128196.7      -125708.72      750.56584      612139.54      85.012256      84.85637       84.85637     
    285000   603.31082     -128195.52     -125700.11      810.34458      612139.54      84.9083        84.9083        84.9083      
    286000   596.64583     -128203.65     -125735.81      528.24199      612139.54      84.804344      84.960326      84.960326    
    287000   600.20263     -128197.27     -125714.72      755.57492      612139.54      84.704931      85.010167      85.010167    
    288000   599.35408     -128196.55     -125717.5       712.15743      612139.54      84.614407      85.055629      85.055629    
    289000   599.41562     -128209.3      -125730         691.48122      612139.54      84.536727      85.094698      85.094698    
    290000   600.10673     -128190.74     -125708.58      953.32437      612139.54      84.475287      85.125638      85.125638    
    291000   605.2817      -128189.45     -125685.88      887.62392      612139.54      84.432772      85.147067      85.147067    
    292000   599.19629     -128220.17     -125741.77      650.76182      612139.54      84.411039      85.158028      85.158028    
    293000   597.6506      -128217.91     -125745.92      746.8244       612139.54      84.411039      85.158028      85.158028    
    294000   596.50164     -128179.98     -125712.73      875.29056      612139.54      84.432772      85.147067      85.147067    
    295000   604.52754     -128204.66     -125704.22      866.38147      612139.54      84.475287      85.125638      85.125638    
    296000   603.05654     -128192.36     -125698         734.26834      612139.54      84.536727      85.094698      85.094698    
    297000   596.52829     -128190.89     -125723.53      836.32234      612139.54      84.614407      85.055629      85.055629    
    298000   597.87711     -128192.92     -125719.98      854.31008      612139.54      84.704931      85.010167      85.010167    
    299000   596.35398     -128199.19     -125732.56      850.31339      612139.54      84.804344      84.960326      84.960326    
    300000   599.75767     -128193.95     -125713.23      845.32544      612139.54      84.9083        84.9083        84.9083      
Loop time of 1188.81 on 48 procs for 300000 steps with 32000 atoms

Performance: 218.034 ns/day, 0.110 hours/ns, 252.354 timesteps/s
99.3% CPU use with 48 MPI tasks x 1 OpenMP threads

MPI task timing breakdown:
Section |  min time  |  avg time  |  max time  |%varavg| %total
---------------------------------------------------------------
Pair    | 1003.4     | 1017.4     | 1028.5     |  18.8 | 85.58
Neigh   | 62.419     | 64.472     | 67.552     |  15.3 |  5.42
Comm    | 53.866     | 65.718     | 77.873     |  79.7 |  5.53
Output  | 0.040471   | 0.04218    | 0.10532    |   4.5 |  0.00
Modify  | 32.741     | 37.44      | 42.764     |  38.5 |  3.15
Other   |            | 3.701      |            |       |  0.31

Nlocal:        666.667 ave         682 max         644 min
Histogram: 1 0 2 5 7 8 10 5 8 2
Nghost:        3624.35 ave        3660 max        3601 min
Histogram: 3 7 6 9 8 9 3 1 1 1
Neighs:        72639.6 ave       74711 max       70179 min
Histogram: 1 0 3 7 8 13 7 4 3 2

Total # of neighbors = 3486701
Ave neighs/atom = 108.95941
Neighbor list builds = 50098
Dangerous builds = 0
clear
OMP_NUM_THREADS environment is not set. Defaulting to 1 thread. (src/comm.cpp:98)
  using 1 OpenMP thread(s) per MPI task
Open of file /opt/app/anaconda3/envs/deepmd/lib/deepmd_lmp/dpplugin.so failed: libdeepmd_cc.so: cannot open shared object file: No such file or directory
Loaded 0 plugins from /opt/app/anaconda3/envs/deepmd/lib/deepmd_lmp
Loaded 0 plugins from 
package intel 1
jump dms580.lmp
#MD-DMS by Ha-Bin Yu
variable T equal 580
log log.${T}
log log.580
