units           metal
boundary        p p p
atom_style      atomic
read_data      ../data/T${T}.dat
read_data      ../data/T680.dat
Reading data file ...
  orthogonal box = (-6.3579112 -6.3579112 -6.3579112) to (78.757911 78.757911 78.757911)
  3 by 4 by 4 MPI processor grid
  reading atoms ...
  32000 atoms
  reading velocities ...
  32000 velocities
  read_data CPU = 0.230 seconds
mass            1  26.98	#Al
mass            2  150.36	#Sm
pair_style      eam/fs
pair_coeff      * * ../data/Al90Sm10_MendelevM_2014.eam.fs  Al Sm

neighbor        2.0 bin
neigh_modify    delay 1

timestep 0.01
thermo 1000
reset_timestep 0
thermo_style custom step temp pe etotal press vol lx ly lz
fix             1 all nvt temp ${T} ${T} 0.1
fix             1 all nvt temp 680 ${T} 0.1
fix             1 all nvt temp 680 680 0.1
thermo_modify flush yes
fix nodrift all momentum 1  linear 1 1 1
fix com_seed all recenter INIT INIT INIT shift all
fix dsf all deform 1 x  wiggle 0.5 300.0 y volume z volume units box
fix ps1 all ave/time 1 1 300 c_thermo_press[1] c_thermo_press[2]  c_thermo_press[3] c_thermo_press[4]  c_thermo_press[5] c_thermo_press[6]  file  stress.${T}
fix ps1 all ave/time 1 1 300 c_thermo_press[1] c_thermo_press[2]  c_thermo_press[3] c_thermo_press[4]  c_thermo_press[5] c_thermo_press[6]  file  stress.680
dump            1 all custom 30000 dump.${T} id type x y z
dump            1 all custom 30000 dump.680 id type x y z
dump_modify 1 sort id
run 300000
----------------------------------------------------------
Using INTEL Package without Coprocessor.
Compiler: GNU C++ 4.8.5 20150623 (Red Hat 4.8.5-39)
SIMD compiler directives: Disabled
Precision: mixed
----------------------------------------------------------
Neighbor list info ...
  update every 1 steps, delay 1 steps, check yes
  max neighbors/atom: 2000, page size: 100000
  master list distance cutoff = 10
  ghost atom cutoff = 10
  binsize = 5, bins = 18 18 18
  1 neighbor lists, perpetual/occasional/extra = 1 0 0
  (1) pair eam/fs/intel, perpetual
      attributes: half, newton on, intel
      pair build: half/bin/newton/intel
      stencil: half/bin/3d
      bin: intel
Per MPI rank memory allocation (min/avg/max) = 10.57 | 10.67 | 10.75 Mbytes
   Step          Temp          PotEng         TotEng         Press          Volume           Lx             Ly             Lz      
         0   672.11984     -127745.23     -124965.21     -844.45431      616638.87      85.115822      85.115822      85.115822    
      1000   679.0485      -127597.6      -124788.92      453.40253      616638.87      85.219778      85.063892      85.063892    
      2000   676.47926     -127608.98     -124810.93      550.58152      616638.87      85.319191      85.01432       85.01432     
      3000   676.29438     -127592.93     -124795.65      449.12639      616638.87      85.409715      84.969256      84.969256    
      4000   678.07566     -127604.04     -124799.39      199.13551      616638.87      85.487395      84.930642      84.930642    
      5000   679.78509     -127575.93     -124764.2       739.31383      616638.87      85.548835      84.900139      84.900139    
      6000   678.77291     -127612.19     -124804.65      437.4456       616638.87      85.591351      84.87905       84.87905     
      7000   683.26216     -127623.52     -124797.41      310.01305      616638.87      85.613083      84.868276      84.868276    
      8000   679.65541     -127604.53     -124793.34      475.98113      616638.87      85.613083      84.868276      84.868276    
      9000   681.30193     -127617.24     -124799.24      393.28296      616638.87      85.591351      84.87905       84.87905     
     10000   675.44053     -127601.67     -124807.92      361.5387       616638.87      85.548835      84.900139      84.900139    
     11000   676.75208     -127604.04     -124804.86      371.31725      616638.87      85.487395      84.930642      84.930642    
     12000   681.76329     -127614.56     -124794.65      438.62813      616638.87      85.409715      84.969256      84.969256    
     13000   679.43734     -127621.12     -124810.84      314.97553      616638.87      85.319191      85.01432       85.01432     
     14000   684.26802     -127606.24     -124775.98      483.19722      616638.87      85.219778      85.063892      85.063892    
     15000   680.82882     -127591.85     -124775.81      487.39623      616638.87      85.115822      85.115822      85.115822    
     16000   673.66742     -127604.47     -124818.05      427.95751      616638.87      85.011867      85.167848      85.167848    
     17000   677.64239     -127643.02     -124840.16     -44.778386      616638.87      84.912454      85.217689      85.217689    
     18000   676.81509     -127609.91     -124810.47      302.21063      616638.87      84.82193       85.26315       85.26315     
     19000   680.17262     -127608.84     -124795.52      299.54294      616638.87      84.74425       85.302219      85.302219    
     20000   678.47917     -127606.82     -124800.49      410.12294      616638.87      84.68281       85.333158      85.333158    
     21000   680.37428     -127580.73     -124766.57      480.43145      616638.87      84.640294      85.354587      85.354587    
     22000   689.15239     -127591.04     -124740.57      609.9639       616638.87      84.618561      85.365548      85.365548    
     23000   680.33668     -127623.65     -124809.64      293.7346       616638.87      84.618561      85.365548      85.365548    
     24000   678.41542     -127617.46     -124811.4       420.37194      616638.87      84.640294      85.354587      85.354587    
     25000   679.26163     -127601.86     -124792.3       388.94402      616638.87      84.68281       85.333158      85.333158    
     26000   680.34143     -127588.57     -124774.55      682.21141      616638.87      84.74425       85.302219      85.302219    
     27000   677.75173     -127610.64     -124807.33      442.317        616638.87      84.82193       85.26315       85.26315     
     28000   675.53782     -127612.29     -124818.13      361.56597      616638.87      84.912454      85.217689      85.217689    
     29000   679.65025     -127592.44     -124781.27      645.92202      616638.87      85.011867      85.167848      85.167848    
     30000   681.35492     -127598.55     -124780.33      469.99938      616638.87      85.115822      85.115822      85.115822    
     31000   685.05623     -127585.7      -124752.17      598.18016      616638.87      85.219778      85.063892      85.063892    
     32000   681.98527     -127624.28     -124803.46      217.39962      616638.87      85.319191      85.01432       85.01432     
     33000   683.06002     -127627.69     -124802.42      256.15646      616638.87      85.409715      84.969256      84.969256    
     34000   679.63489     -127611.18     -124800.08      400.16728      616638.87      85.487395      84.930642      84.930642    
     35000   678.06984     -127622.11     -124817.48      247.01704      616638.87      85.548835      84.900139      84.900139    
     36000   681.35974     -127580.84     -124762.6       626.10959      616638.87      85.591351      84.87905       84.87905     
     37000   689.47872     -127618.88     -124767.06      430.11697      616638.87      85.613083      84.868276      84.868276    
     38000   679.05972     -127599.75     -124791.02      639.15263      616638.87      85.613083      84.868276      84.868276    
     39000   681.78326     -127625.73     -124805.74      396.42334      616638.87      85.591351      84.87905       84.87905     
     40000   678.77111     -127602.24     -124794.71      379.60263      616638.87      85.548835      84.900139      84.900139    
     41000   678.77795     -127601.83     -124794.27      386.70995      616638.87      85.487395      84.930642      84.930642    
     42000   681.27016     -127589.68     -124771.82      628.05648      616638.87      85.409715      84.969256      84.969256    
     43000   676.18578     -127602.84     -124806         519.63748      616638.87      85.319191      85.01432       85.01432     
     44000   684.6626      -127608.45     -124776.55      400.89179      616638.87      85.219778      85.063892      85.063892    
     45000   679.59118     -127587.16     -124776.24      654.37942      616638.87      85.115822      85.115822      85.115822    
     46000   682.73237     -127585.05     -124761.14      407.19788      616638.87      85.011867      85.167848      85.167848    
     47000   682.56521     -127616.73     -124793.51      309.44859      616638.87      84.912454      85.217689      85.217689    
     48000   679.74908     -127608.13     -124796.56      369.20067      616638.87      84.82193       85.26315       85.26315     
     49000   674.2248      -127614.32     -124825.59      321.52046      616638.87      84.74425       85.302219      85.302219    
     50000   677.47068     -127622.39     -124820.24      192.36691      616638.87      84.68281       85.333158      85.333158    
     51000   681.13165     -127621.96     -124804.67      236.07183      616638.87      84.640294      85.354587      85.354587    
     52000   681.61327     -127589.01     -124769.73      450.39063      616638.87      84.618561      85.365548      85.365548    
     53000   681.40998     -127616.08     -124797.63      409.63103      616638.87      84.618561      85.365548      85.365548    
     54000   681.39492     -127616.35     -124797.96      348.8446       616638.87      84.640294      85.354587      85.354587    
     55000   674.23014     -127607.98     -124819.23      232.50707      616638.87      84.68281       85.333158      85.333158    
     56000   678.38103     -127594.22     -124788.3       565.63829      616638.87      84.74425       85.302219      85.302219    
     57000   679.79865     -127611.85     -124800.07      374.85419      616638.87      84.82193       85.26315       85.26315     
     58000   676.54514     -127583.96     -124785.64      588.3278       616638.87      84.912454      85.217689      85.217689    
     59000   676.91458     -127601.87     -124802.02      410.13777      616638.87      85.011867      85.167848      85.167848    
     60000   677.91725     -127588.17     -124784.17      568.40953      616638.87      85.115822      85.115822      85.115822    
     61000   676.59902     -127612.69     -124814.15      201.58623      616638.87      85.219778      85.063892      85.063892    
     62000   681.47863     -127591.76     -124773.03      479.07012      616638.87      85.319191      85.01432       85.01432     
     63000   679.50738     -127595.93     -124785.36      476.13155      616638.87      85.409715      84.969256      84.969256    
     64000   682.46507     -127598.83     -124776.02      555.15565      616638.87      85.487395      84.930642      84.930642    
     65000   681.95771     -127602.22     -124781.51      467.59555      616638.87      85.548835      84.900139      84.900139    
     66000   677.72525     -127597.51     -124794.31      493.32084      616638.87      85.591351      84.87905       84.87905     
     67000   680.78503     -127605.68     -124789.82      358.96884      616638.87      85.613083      84.868276      84.868276    
     68000   675.13667     -127600.69     -124808.19      364.33612      616638.87      85.613083      84.868276      84.868276    
     69000   683.78757     -127617.07     -124788.79      261.82715      616638.87      85.591351      84.87905       84.87905     
     70000   679.90579     -127597.99     -124785.76      308.69318      616638.87      85.548835      84.900139      84.900139    
     71000   678.42369     -127646.23     -124840.13      9.0701955      616638.87      85.487395      84.930642      84.930642    
     72000   678.40313     -127593.55     -124787.55      592.32798      616638.87      85.409715      84.969256      84.969256    
     73000   680.01519     -127601.63     -124788.96      472.43151      616638.87      85.319191      85.01432       85.01432     
     74000   679.80961     -127621.54     -124809.72      321.61457      616638.87      85.219778      85.063892      85.063892    
     75000   678.06241     -127602.38     -124797.78      244.09288      616638.87      85.115822      85.115822      85.115822    
     76000   683.777       -127599.93     -124771.69      549.13594      616638.87      85.011867      85.167848      85.167848    
     77000   678.45262     -127592.89     -124786.67      388.55885      616638.87      84.912454      85.217689      85.217689    
     78000   679.14988     -127590.93     -124781.83      453.01759      616638.87      84.82193       85.26315       85.26315     
     79000   677.55541     -127615.31     -124812.81      360.72508      616638.87      84.74425       85.302219      85.302219    
     80000   675.32579     -127604.92     -124811.65      360.80585      616638.87      84.68281       85.333158      85.333158    
     81000   680.48761     -127600.85     -124786.22      453.4643       616638.87      84.640294      85.354587      85.354587    
     82000   681.79113     -127601        -124780.98      479.34698      616638.87      84.618561      85.365548      85.365548    
     83000   684.81042     -127568.43     -124735.92      863.7286       616638.87      84.618561      85.365548      85.365548    
     84000   676.61869     -127601.96     -124803.33      525.64014      616638.87      84.640294      85.354587      85.354587    
     85000   678.40688     -127600.41     -124794.38      576.50561      616638.87      84.68281       85.333158      85.333158    
     86000   680.14855     -127569.46     -124756.23      780.1562       616638.87      84.74425       85.302219      85.302219    
     87000   680.8858      -127576.07     -124759.79      638.43255      616638.87      84.82193       85.26315       85.26315     
     88000   678.1086      -127600.83     -124796.04      484.08439      616638.87      84.912454      85.217689      85.217689    
     89000   685.3475      -127615.26     -124780.53      405.63272      616638.87      85.011867      85.167848      85.167848    
     90000   680.35232     -127628.83     -124814.76      37.715104      616638.87      85.115822      85.115822      85.115822    
     91000   679.58996     -127600.32     -124789.4       615.70384      616638.87      85.219778      85.063892      85.063892    
     92000   679.17814     -127591.32     -124782.1       463.10864      616638.87      85.319191      85.01432       85.01432     
     93000   677.82414     -127585.18     -124781.56      556.60393      616638.87      85.409715      84.969256      84.969256    
     94000   674.81162     -127613.4      -124822.24      232.79881      616638.87      85.487395      84.930642      84.930642    
     95000   681.15592     -127588.74     -124771.35      603.31097      616638.87      85.548835      84.900139      84.900139    
     96000   685.2216      -127607.56     -124773.35      207.70282      616638.87      85.591351      84.87905       84.87905     
     97000   681.28222     -127607.86     -124789.94      254.17915      616638.87      85.613083      84.868276      84.868276    
     98000   681.11625     -127587.29     -124770.06      563.03947      616638.87      85.613083      84.868276      84.868276    
     99000   680.51103     -127602.83     -124788.1       281.48467      616638.87      85.591351      84.87905       84.87905     
    100000   680.66387     -127584.72     -124769.36      623.01998      616638.87      85.548835      84.900139      84.900139    
    101000   685.9755      -127575.94     -124738.61      644.96568      616638.87      85.487395      84.930642      84.930642    
    102000   683.92141     -127591.58     -124762.75      469.6433       616638.87      85.409715      84.969256      84.969256    
    103000   682.69472     -127602.3      -124778.54      287.78593      616638.87      85.319191      85.01432       85.01432     
    104000   678.44138     -127586.02     -124779.86      521.61645      616638.87      85.219778      85.063892      85.063892    
    105000   684.62157     -127622.78     -124791.05      367.80076      616638.87      85.115822      85.115822      85.115822    
    106000   680.3091      -127582.78     -124768.89      494.17543      616638.87      85.011867      85.167848      85.167848    
    107000   680.25074     -127565.51     -124751.86      636.42652      616638.87      84.912454      85.217689      85.217689    
    108000   680.40939     -127605.04     -124790.73      543.14206      616638.87      84.82193       85.26315       85.26315     
    109000   680.11233     -127592.45     -124779.38      404.77807      616638.87      84.74425       85.302219      85.302219    
    110000   685.59846     -127596.58     -124760.81      585.55188      616638.87      84.68281       85.333158      85.333158    
    111000   682.4793      -127604.17     -124781.3       371.76614      616638.87      84.640294      85.354587      85.354587    
    112000   678.2172      -127572.8      -124767.56      802.70183      616638.87      84.618561      85.365548      85.365548    
    113000   683.41067     -127597.92     -124771.2       509.1338       616638.87      84.618561      85.365548      85.365548    
    114000   679.59686     -127614.19     -124803.24      304.68842      616638.87      84.640294      85.354587      85.354587    
    115000   676.44332     -127599.77     -124801.87      339.09019      616638.87      84.68281       85.333158      85.333158    
    116000   685.92423     -127576.01     -124738.9       553.28236      616638.87      84.74425       85.302219      85.302219    
    117000   682.59965     -127586.38     -124763.01      748.50683      616638.87      84.82193       85.26315       85.26315     
    118000   677.79578     -127619.29     -124815.8       318.96367      616638.87      84.912454      85.217689      85.217689    
    119000   679.83862     -127597.13     -124785.18      375.95562      616638.87      85.011867      85.167848      85.167848    
    120000   677.67958     -127594.05     -124791.03      477.35406      616638.87      85.115822      85.115822      85.115822    
    121000   683.56273     -127613.77     -124786.42      382.51799      616638.87      85.219778      85.063892      85.063892    
    122000   673.82061     -127582.27     -124795.21      547.63208      616638.87      85.319191      85.01432       85.01432     
    123000   680.58989     -127614.13     -124799.07      214.58878      616638.87      85.409715      84.969256      84.969256    
    124000   680.14298     -127568.41     -124755.21      528.48007      616638.87      85.487395      84.930642      84.930642    
    125000   680.06715     -127609.93     -124797.04      366.67066      616638.87      85.548835      84.900139      84.900139    
    126000   683.12051     -127605.37     -124779.86      412.84839      616638.87      85.591351      84.87905       84.87905     
    127000   677.59829     -127605.56     -124802.88      424.62811      616638.87      85.613083      84.868276      84.868276    
    128000   674.11796     -127608.54     -124820.26      281.91008      616638.87      85.613083      84.868276      84.868276    
    129000   677.67        -127589.69     -124786.72      274.43079      616638.87      85.591351      84.87905       84.87905     
    130000   684.05652     -127588.16     -124758.77      502.50909      616638.87      85.548835      84.900139      84.900139    
    131000   680.23122     -127588.81     -124775.24      529.43405      616638.87      85.487395      84.930642      84.930642    
    132000   678.65147     -127586.14     -124779.11      423.79501      616638.87      85.409715      84.969256      84.969256    
    133000   675.87005     -127626.38     -124830.85      13.755354      616638.87      85.319191      85.01432       85.01432     
    134000   682.96229     -127599.12     -124774.26      540.97847      616638.87      85.219778      85.063892      85.063892    
    135000   681.75702     -127619.36     -124799.48      209.20821      616638.87      85.115822      85.115822      85.115822    
    136000   679.05205     -127591.12     -124782.43      369.04859      616638.87      85.011867      85.167848      85.167848    
    137000   682.19785     -127601.79     -124780.09      305.6016       616638.87      84.912454      85.217689      85.217689    
    138000   678.16403     -127610.15     -124805.13      391.21769      616638.87      84.82193       85.26315       85.26315     
    139000   678.54477     -127598.09     -124791.5       300.49828      616638.87      84.74425       85.302219      85.302219    
    140000   682.44229     -127583.71     -124760.99      509.63627      616638.87      84.68281       85.333158      85.333158    
    141000   677.71348     -127580.69     -124777.54      576.24697      616638.87      84.640294      85.354587      85.354587    
    142000   679.9209      -127612.87     -124800.59      372.76829      616638.87      84.618561      85.365548      85.365548    
    143000   679.7921      -127621.3      -124809.54      329.22278      616638.87      84.618561      85.365548      85.365548    
    144000   678.86196     -127591.01     -124783.11      573.18456      616638.87      84.640294      85.354587      85.354587    
    145000   685.91567     -127596.34     -124759.26      421.73683      616638.87      84.68281       85.333158      85.333158    
    146000   680.85062     -127593.52     -124777.39      444.00155      616638.87      84.74425       85.302219      85.302219    
    147000   684.15277     -127563.11     -124733.33      831.64273      616638.87      84.82193       85.26315       85.26315     
    148000   680.08161     -127597.58     -124784.63      629.58575      616638.87      84.912454      85.217689      85.217689    
    149000   674.94222     -127587.02     -124795.33      477.46457      616638.87      85.011867      85.167848      85.167848    
    150000   683.10122     -127604.96     -124779.52      398.02683      616638.87      85.115822      85.115822      85.115822    
    151000   677.23686     -127598.89     -124797.7       519.92157      616638.87      85.219778      85.063892      85.063892    
    152000   680.37085     -127590.54     -124776.4       381.5735       616638.87      85.319191      85.01432       85.01432     
    153000   679.64899     -127614.03     -124802.86      298.42012      616638.87      85.409715      84.969256      84.969256    
    154000   676.29056     -127591.87     -124794.6       409.32331      616638.87      85.487395      84.930642      84.930642    
    155000   678.92147     -127586.86     -124778.71      419.15791      616638.87      85.548835      84.900139      84.900139    
    156000   678.52604     -127566.36     -124759.84      670.5041       616638.87      85.591351      84.87905       84.87905     
    157000   676.71904     -127581.64     -124782.6       547.69219      616638.87      85.613083      84.868276      84.868276    
    158000   675.40003     -127581.02     -124787.44      625.98365      616638.87      85.613083      84.868276      84.868276    
    159000   679.46877     -127594.2      -124783.78      342.21         616638.87      85.591351      84.87905       84.87905     
    160000   675.2739      -127608.54     -124815.47      381.78176      616638.87      85.548835      84.900139      84.900139    
    161000   684.56537     -127551.45     -124719.96      916.88277      616638.87      85.487395      84.930642      84.930642    
    162000   680.55973     -127592.37     -124777.44      530.2537       616638.87      85.409715      84.969256      84.969256    
    163000   677.76674     -127581.09     -124777.71      485.52023      616638.87      85.319191      85.01432       85.01432     
    164000   673.2874      -127582.36     -124797.51      565.95514      616638.87      85.219778      85.063892      85.063892    
    165000   682.56505     -127576.51     -124753.29      552.61657      616638.87      85.115822      85.115822      85.115822    
    166000   677.65441     -127619.85     -124816.94      241.1136       616638.87      85.011867      85.167848      85.167848    
    167000   675.84876     -127567.27     -124771.83      577.46722      616638.87      84.912454      85.217689      85.217689    
    168000   681.08868     -127614.22     -124797.11      322.42817      616638.87      84.82193       85.26315       85.26315     
    169000   681.98626     -127589.26     -124768.43      743.13514      616638.87      84.74425       85.302219      85.302219    
    170000   679.96366     -127589.17     -124776.7       590.05244      616638.87      84.68281       85.333158      85.333158    
    171000   682.64044     -127598.98     -124775.45      405.78756      616638.87      84.640294      85.354587      85.354587    
    172000   677.35867     -127596.19     -124794.5       410.46541      616638.87      84.618561      85.365548      85.365548    
    173000   676.49215     -127597.07     -124798.97      396.98776      616638.87      84.618561      85.365548      85.365548    
    174000   678.77209     -127600.91     -124793.37      445.1394       616638.87      84.640294      85.354587      85.354587    
    175000   681.90869     -127611.93     -124791.43      374.5763       616638.87      84.68281       85.333158      85.333158    
    176000   683.94715     -127590.69     -124761.75      479.00898      616638.87      84.74425       85.302219      85.302219    
    177000   684.35084     -127590.82     -124760.21      467.90693      616638.87      84.82193       85.26315       85.26315     
    178000   679.92803     -127621.2      -124808.89      146.35318      616638.87      84.912454      85.217689      85.217689    
    179000   683.98782     -127612.05     -124782.94      324.48812      616638.87      85.011867      85.167848      85.167848    
    180000   682.19233     -127610.18     -124788.5       271.89412      616638.87      85.115822      85.115822      85.115822    
    181000   680.43275     -127594.38     -124779.97      440.63959      616638.87      85.219778      85.063892      85.063892    
    182000   678.10809     -127598.29     -124793.51      269.99603      616638.87      85.319191      85.01432       85.01432     
    183000   675.6804      -127610.55     -124815.81      287.83089      616638.87      85.409715      84.969256      84.969256    
    184000   679.46665     -127609.95     -124799.55      225.80816      616638.87      85.487395      84.930642      84.930642    
    185000   681.66625     -127590.82     -124771.32      473.03063      616638.87      85.548835      84.900139      84.900139    
    186000   675.54223     -127618.52     -124824.34      254.78664      616638.87      85.591351      84.87905       84.87905     
    187000   681.91658     -127616.64     -124796.1       265.24705      616638.87      85.613083      84.868276      84.868276    
    188000   676.62081     -127610.83     -124812.2       280.80557      616638.87      85.613083      84.868276      84.868276    
    189000   680.69263     -127599.25     -124783.77      508.05556      616638.87      85.591351      84.87905       84.87905     
    190000   679.29173     -127594.18     -124784.5       468.95363      616638.87      85.548835      84.900139      84.900139    
    191000   684.38976     -127594.28     -124763.51      507.25101      616638.87      85.487395      84.930642      84.930642    
    192000   679.73276     -127578.77     -124767.26      726.55917      616638.87      85.409715      84.969256      84.969256    
    193000   676.68552     -127590.45     -124791.55      570.20188      616638.87      85.319191      85.01432       85.01432     
    194000   679.33278     -127604.73     -124794.88      363.99288      616638.87      85.219778      85.063892      85.063892    
    195000   682.48814     -127590.51     -124767.61      511.51292      616638.87      85.115822      85.115822      85.115822    
    196000   675.04157     -127586.99     -124794.88      500.76206      616638.87      85.011867      85.167848      85.167848    
    197000   675.70275     -127590.68     -124795.85      565.51186      616638.87      84.912454      85.217689      85.217689    
    198000   684.47446     -127587.97     -124756.85      551.97217      616638.87      84.82193       85.26315       85.26315     
    199000   672.42348     -127607.4      -124826.12      341.10206      616638.87      84.74425       85.302219      85.302219    
    200000   678.38014     -127594.89     -124788.98      362.63217      616638.87      84.68281       85.333158      85.333158    
    201000   682.2097      -127600.56     -124778.81      379.41531      616638.87      84.640294      85.354587      85.354587    
    202000   682.18697     -127600.96     -124779.3       314.47253      616638.87      84.618561      85.365548      85.365548    
    203000   676.99019     -127586.75     -124786.59      364.70055      616638.87      84.618561      85.365548      85.365548    
    204000   685.31559     -127592.31     -124757.71      598.27565      616638.87      84.640294      85.354587      85.354587    
    205000   675.59132     -127587.69     -124793.31      490.49362      616638.87      84.68281       85.333158      85.333158    
    206000   682.87249     -127597.06     -124772.57      390.54648      616638.87      84.74425       85.302219      85.302219    
    207000   680.39233     -127626.19     -124811.96      257.29227      616638.87      84.82193       85.26315       85.26315     
    208000   676.45871     -127580.37     -124782.4       558.27278      616638.87      84.912454      85.217689      85.217689    
    209000   681.96036     -127606.58     -124785.86      166.40087      616638.87      85.011867      85.167848      85.167848    
    210000   679.82055     -127625.98     -124814.11      159.64629      616638.87      85.115822      85.115822      85.115822    
    211000   676.09397     -127613.14     -124816.69      391.60994      616638.87      85.219778      85.063892      85.063892    
    212000   679.82818     -127641.11     -124829.21      57.826195      616638.87      85.319191      85.01432       85.01432     
    213000   674.20605     -127594.1      -124805.46      398.28489      616638.87      85.409715      84.969256      84.969256    
    214000   681.92801     -127618.38     -124797.8       317.97023      616638.87      85.487395      84.930642      84.930642    
    215000   682.44497     -127586.63     -124763.9       569.17227      616638.87      85.548835      84.900139      84.900139    
    216000   674.26347     -127572.76     -124783.88      660.93606      616638.87      85.591351      84.87905       84.87905     
    217000   680.2072      -127584.74     -124771.27      580.31909      616638.87      85.613083      84.868276      84.868276    
    218000   678.83065     -127599.3      -124791.52      336.79927      616638.87      85.613083      84.868276      84.868276    
    219000   684.11567     -127592.8      -124763.16      351.59259      616638.87      85.591351      84.87905       84.87905     
    220000   679.03527     -127609.04     -124800.42      317.01049      616638.87      85.548835      84.900139      84.900139    
    221000   671.86246     -127591.74     -124812.79      278.5727       616638.87      85.487395      84.930642      84.930642    
    222000   685.25781     -127615.33     -124780.97      241.39181      616638.87      85.409715      84.969256      84.969256    
    223000   680.8715      -127593.28     -124777.07      399.67947      616638.87      85.319191      85.01432       85.01432     
    224000   671.74828     -127589.53     -124811.05      493.00157      616638.87      85.219778      85.063892      85.063892    
    225000   677.86381     -127621.25     -124817.48      259.47336      616638.87      85.115822      85.115822      85.115822    
    226000   679.87124     -127590.12     -124778.04      328.29594      616638.87      85.011867      85.167848      85.167848    
    227000   675.05752     -127593.5      -124801.33      516.10181      616638.87      84.912454      85.217689      85.217689    
    228000   676.21997     -127608.09     -124811.11      371.55662      616638.87      84.82193       85.26315       85.26315     
    229000   681.45977     -127594.91     -124776.26      352.8681       616638.87      84.74425       85.302219      85.302219    
    230000   682.76322     -127619.18     -124795.14      61.706882      616638.87      84.68281       85.333158      85.333158    
    231000   683.94132     -127604.66     -124775.75      405.80854      616638.87      84.640294      85.354587      85.354587    
    232000   682.66416     -127594.74     -124771.11      482.5537       616638.87      84.618561      85.365548      85.365548    
    233000   679.96955     -127585.16     -124772.68      491.07203      616638.87      84.618561      85.365548      85.365548    
    234000   684.43966     -127625.39     -124794.41      164.74168      616638.87      84.640294      85.354587      85.354587    
    235000   684.15475     -127590.77     -124760.98      519.04311      616638.87      84.68281       85.333158      85.333158    
    236000   680.81688     -127568.35     -124752.36      680.64833      616638.87      84.74425       85.302219      85.302219    
    237000   683.31343     -127576.95     -124750.63      615.25476      616638.87      84.82193       85.26315       85.26315     
    238000   689.60114     -127604.48     -124752.15      568.7947       616638.87      84.912454      85.217689      85.217689    
    239000   683.90014     -127596.93     -124768.18      555.6629       616638.87      85.011867      85.167848      85.167848    
    240000   685.10934     -127608.55     -124774.8       256.43277      616638.87      85.115822      85.115822      85.115822    
    241000   680.32654     -127600.13     -124786.17      399.13294      616638.87      85.219778      85.063892      85.063892    
    242000   680.47824     -127608.89     -124794.3       349.23207      616638.87      85.319191      85.01432       85.01432     
    243000   680.81023     -127607.41     -124791.45      368.29138      616638.87      85.409715      84.969256      84.969256    
    244000   679.15475     -127600.88     -124791.77      503.95885      616638.87      85.487395      84.930642      84.930642    
    245000   681.55584     -127593.76     -124774.71      498.48659      616638.87      85.548835      84.900139      84.900139    
    246000   677.48151     -127612.07     -124809.88      426.20044      616638.87      85.591351      84.87905       84.87905     
    247000   680.49403     -127604.75     -124790.09      418.51725      616638.87      85.613083      84.868276      84.868276    
    248000   684.09849     -127617.34     -124787.77      284.75095      616638.87      85.613083      84.868276      84.868276    
    249000   679.92898     -127612.81     -124800.49      209.7949       616638.87      85.591351      84.87905       84.87905     
    250000   677.2762      -127606.13     -124804.79      252.56401      616638.87      85.548835      84.900139      84.900139    
    251000   683.36995     -127613.03     -124786.48      400.84396      616638.87      85.487395      84.930642      84.930642    
    252000   683.01403     -127619.02     -124793.94      295.40455      616638.87      85.409715      84.969256      84.969256    
    253000   676.59522     -127620.72     -124822.19      207.58401      616638.87      85.319191      85.01432       85.01432     
    254000   685.36628     -127587.05     -124752.24      641.4342       616638.87      85.219778      85.063892      85.063892    
    255000   686.9708      -127621.2      -124779.75      335.32073      616638.87      85.115822      85.115822      85.115822    
    256000   675.2947      -127584.02     -124790.87      371.75946      616638.87      85.011867      85.167848      85.167848    
    257000   679.561       -127601.34     -124790.54      526.7139       616638.87      84.912454      85.217689      85.217689    
    258000   680.81067     -127621.91     -124805.95      222.34697      616638.87      84.82193       85.26315       85.26315     
    259000   681.79076     -127579.34     -124759.32      602.28804      616638.87      84.74425       85.302219      85.302219    
    260000   680.07086     -127612.78     -124799.88      209.84059      616638.87      84.68281       85.333158      85.333158    
    261000   685.27008     -127599.9      -124765.49      384.4052       616638.87      84.640294      85.354587      85.354587    
    262000   677.6553      -127611.56     -124808.65      229.65604      616638.87      84.618561      85.365548      85.365548    
    263000   682.28366     -127593.31     -124771.25      569.28008      616638.87      84.618561      85.365548      85.365548    
    264000   679.44472     -127598.91     -124788.6       552.77842      616638.87      84.640294      85.354587      85.354587    
    265000   676.28215     -127594.51     -124797.28      417.72196      616638.87      84.68281       85.333158      85.333158    
    266000   683.83731     -127574.96     -124746.48      722.71218      616638.87      84.74425       85.302219      85.302219    
    267000   678.80131     -127582.72     -124775.07      535.28285      616638.87      84.82193       85.26315       85.26315     
    268000   676.77377     -127598.12     -124798.85      488.63447      616638.87      84.912454      85.217689      85.217689    
    269000   678.97787     -127567.99     -124759.61      762.66171      616638.87      85.011867      85.167848      85.167848    
    270000   677.75371     -127583.54     -124780.22      522.71571      616638.87      85.115822      85.115822      85.115822    
    271000   681.54919     -127604.18     -124785.15      364.45546      616638.87      85.219778      85.063892      85.063892    
    272000   679.19833     -127587.43     -124778.13      572.91867      616638.87      85.319191      85.01432       85.01432     
    273000   679.10964     -127589.37     -124780.44      374.75106      616638.87      85.409715      84.969256      84.969256    
    274000   679.15123     -127599.45     -124790.35      390.73952      616638.87      85.487395      84.930642      84.930642    
    275000   678.77193     -127603        -124795.46      503.29374      616638.87      85.548835      84.900139      84.900139    
    276000   680.67256     -127583.72     -124768.32      650.16277      616638.87      85.591351      84.87905       84.87905     
    277000   677.51743     -127623.13     -124820.79      224.18837      616638.87      85.613083      84.868276      84.868276    
    278000   682.61926     -127593.54     -124770.1       322.1619       616638.87      85.613083      84.868276      84.868276    
    279000   679.84518     -127592.83     -124780.86      581.83183      616638.87      85.591351      84.87905       84.87905     
    280000   686.8996      -127600.46     -124759.31      443.41261      616638.87      85.548835      84.900139      84.900139    
    281000   676.59832     -127599.53     -124800.99      387.00356      616638.87      85.487395      84.930642      84.930642    
    282000   681.61206     -127597.19     -124777.91      306.57         616638.87      85.409715      84.969256      84.969256    
    283000   686.78601     -127598.34     -124757.66      304.08656      616638.87      85.319191      85.01432       85.01432     
    284000   680.46851     -127603.4      -124788.85      416.19346      616638.87      85.219778      85.063892      85.063892    
    285000   679.40657     -127623        -124812.84      428.62521      616638.87      85.115822      85.115822      85.115822    
    286000   679.22064     -127596.97     -124787.58      520.0763       616638.87      85.011867      85.167848      85.167848    
    287000   680.38047     -127614.08     -124799.89      370.0208       616638.87      84.912454      85.217689      85.217689    
    288000   677.35053     -127608.58     -124806.92      257.0191       616638.87      84.82193       85.26315       85.26315     
    289000   683.32634     -127614.69     -124788.32      492.95379      616638.87      84.74425       85.302219      85.302219    
    290000   682.33293     -127622.52     -124800.26      319.20951      616638.87      84.68281       85.333158      85.333158    
    291000   677.6153      -127578.69     -124775.94      729.23138      616638.87      84.640294      85.354587      85.354587    
    292000   676.89968     -127610.43     -124810.64      372.87296      616638.87      84.618561      85.365548      85.365548    
    293000   677.77489     -127609.45     -124806.04      314.03718      616638.87      84.618561      85.365548      85.365548    
    294000   681.88153     -127592.21     -124771.81      349.42943      616638.87      84.640294      85.354587      85.354587    
    295000   680.58521     -127610.14     -124795.11      506.18105      616638.87      84.68281       85.333158      85.333158    
    296000   679.54696     -127564.16     -124753.42      661.10868      616638.87      84.74425       85.302219      85.302219    
    297000   678.48551     -127596.39     -124790.04      418.62094      616638.87      84.82193       85.26315       85.26315     
    298000   682.01265     -127606.41     -124785.48      384.0238       616638.87      84.912454      85.217689      85.217689    
    299000   681.65565     -127610.54     -124791.08      303.5037       616638.87      85.011867      85.167848      85.167848    
    300000   678.6951      -127600.35     -124793.14      442.78392      616638.87      85.115822      85.115822      85.115822    
Loop time of 1200.48 on 48 procs for 300000 steps with 32000 atoms

Performance: 215.913 ns/day, 0.111 hours/ns, 249.899 timesteps/s
99.3% CPU use with 48 MPI tasks x 1 OpenMP threads

MPI task timing breakdown:
Section |  min time  |  avg time  |  max time  |%varavg| %total
---------------------------------------------------------------
Pair    | 1001.8     | 1014.7     | 1043.7     |  25.6 | 84.52
Neigh   | 66.84      | 69.918     | 73.204     |  17.9 |  5.82
Comm    | 45.287     | 73.146     | 91.154     | 113.3 |  6.09
Output  | 0.050009   | 0.051493   | 0.10359    |   3.3 |  0.00
Modify  | 32.659     | 38.858     | 45.513     |  66.5 |  3.24
Other   |            | 3.839      |            |       |  0.32

Nlocal:        666.667 ave         675 max         653 min
Histogram: 2 0 2 3 4 13 7 4 5 8
Nghost:        3613.35 ave        3651 max        3579 min
Histogram: 1 0 6 10 11 8 8 1 1 2
Neighs:        72047.1 ave       74749 max       69887 min
Histogram: 4 4 5 8 8 6 8 3 0 2

Total # of neighbors = 3458262
Ave neighs/atom = 108.07069
Neighbor list builds = 54070
Dangerous builds = 0
clear
OMP_NUM_THREADS environment is not set. Defaulting to 1 thread. (src/comm.cpp:98)
  using 1 OpenMP thread(s) per MPI task
Open of file /opt/app/anaconda3/envs/deepmd/lib/deepmd_lmp/dpplugin.so failed: libdeepmd_cc.so: cannot open shared object file: No such file or directory
Loaded 0 plugins from /opt/app/anaconda3/envs/deepmd/lib/deepmd_lmp
Loaded 0 plugins from 
package intel 1
jump dms660.lmp
#MD-DMS by Ha-Bin Yu
variable T equal 660
log log.${T}
log log.660
