units           metal
boundary        p p p
atom_style      atomic
read_data      ../data/T${T}.dat
read_data      ../data/T780.dat
Reading data file ...
  orthogonal box = (-6.5071834 -6.5071834 -6.5071834) to (78.907183 78.907183 78.907183)
  3 by 4 by 4 MPI processor grid
  reading atoms ...
  32000 atoms
  reading velocities ...
  32000 velocities
  read_data CPU = 0.275 seconds
mass            1  26.98	#Al
mass            2  150.36	#Sm
pair_style      eam/fs
pair_coeff      * * ../data/Al90Sm10_MendelevM_2014.eam.fs  Al Sm

neighbor        2.0 bin
neigh_modify    delay 1

timestep 0.01
thermo 1000
reset_timestep 0
thermo_style custom step temp pe etotal press vol lx ly lz
fix             1 all nvt temp ${T} ${T} 0.1
fix             1 all nvt temp 780 ${T} 0.1
fix             1 all nvt temp 780 780 0.1
thermo_modify flush yes
fix nodrift all momentum 1  linear 1 1 1
fix com_seed all recenter INIT INIT INIT shift all
fix dsf all deform 1 x  wiggle 0.5 300.0 y volume z volume units box
fix ps1 all ave/time 1 1 300 c_thermo_press[1] c_thermo_press[2]  c_thermo_press[3] c_thermo_press[4]  c_thermo_press[5] c_thermo_press[6]  file  stress.${T}
fix ps1 all ave/time 1 1 300 c_thermo_press[1] c_thermo_press[2]  c_thermo_press[3] c_thermo_press[4]  c_thermo_press[5] c_thermo_press[6]  file  stress.780
dump            1 all custom 30000 dump.${T} id type x y z
dump            1 all custom 30000 dump.780 id type x y z
dump_modify 1 sort id
run 300000
----------------------------------------------------------
Using INTEL Package without Coprocessor.
Compiler: GNU C++ 4.8.5 20150623 (Red Hat 4.8.5-39)
SIMD compiler directives: Disabled
Precision: mixed
----------------------------------------------------------
Neighbor list info ...
  update every 1 steps, delay 1 steps, check yes
  max neighbors/atom: 2000, page size: 100000
  master list distance cutoff = 10
  ghost atom cutoff = 10
  binsize = 5, bins = 18 18 18
  1 neighbor lists, perpetual/occasional/extra = 1 0 0
  (1) pair eam/fs/intel, perpetual
      attributes: half, newton on, intel
      pair build: half/bin/newton/intel
      stencil: half/bin/3d
      bin: intel
Per MPI rank memory allocation (min/avg/max) = 10.49 | 10.66 | 10.78 Mbytes
   Step          Temp          PotEng         TotEng         Press          Volume           Lx             Ly             Lz      
         0   780.3854      -126678.39     -123450.57      1065.5235      623150.25      85.414367      85.414367      85.414367    
      1000   773.46708     -126535.08     -123335.87      2005.5607      623150.25      85.518323      85.362436      85.362436    
      2000   771.51148     -126517.94     -123326.82      2147.2903      623150.25      85.617735      85.312864      85.312864    
      3000   777.06573     -126552.79     -123338.69      1907.5248      623150.25      85.708259      85.267799      85.267799    
      4000   782.45347     -126562.62     -123326.24      1718.4428      623150.25      85.785939      85.229185      85.229185    
      5000   770.95961     -126556.93     -123368.09      1876.7719      623150.25      85.847379      85.19868       85.19868     
      6000   775.93463     -126561.65     -123352.23      1821.2921      623150.25      85.889895      85.177591      85.177591    
      7000   780.873       -126555.83     -123325.99      1834.7823      623150.25      85.911628      85.166817      85.166817    
      8000   777.7467      -126553.17     -123336.26      1858.8029      623150.25      85.911628      85.166817      85.166817    
      9000   777.81267     -126551.62     -123334.44      2100.5181      623150.25      85.889895      85.177591      85.177591    
     10000   783.99054     -126563.89     -123321.15      1826.2219      623150.25      85.847379      85.19868       85.19868     
     11000   783.16876     -126544.98     -123305.64      2021.5766      623150.25      85.785939      85.229185      85.229185    
     12000   776.54196     -126547.47     -123335.54      1944.8503      623150.25      85.708259      85.267799      85.267799    
     13000   776.05415     -126545.2      -123335.29      1848.244       623150.25      85.617735      85.312864      85.312864    
     14000   776.12971     -126534.53     -123324.31      2100.5918      623150.25      85.518323      85.362436      85.362436    
     15000   782.86865     -126522.26     -123284.17      2064.9814      623150.25      85.414367      85.414367      85.414367    
     16000   778.68461     -126548.37     -123327.58      1849.3072      623150.25      85.310411      85.466392      85.466392    
     17000   778.01141     -126546.7      -123328.69      1825.7481      623150.25      85.210998      85.516233      85.516233    
     18000   774.36128     -126529.92     -123327.01      2066.0353      623150.25      85.120474      85.561693      85.561693    
     19000   777.81766     -126535.95     -123318.74      2075.8944      623150.25      85.042794      85.600761      85.600761    
     20000   781.21237     -126544.63     -123313.38      1959.4429      623150.25      84.981354      85.6317        85.6317      
     21000   778.06251     -126543.94     -123325.72      1921.3986      623150.25      84.938839      85.653128      85.653128    
     22000   776.11051     -126561.22     -123351.07      1800.301       623150.25      84.917106      85.664088      85.664088    
     23000   777.74561     -126520.96     -123304.06      2048.3958      623150.25      84.917106      85.664088      85.664088    
     24000   779.73646     -126551.72     -123326.58      1875.508       623150.25      84.938839      85.653128      85.653128    
     25000   779.60901     -126506.15     -123281.53      2239.7067      623150.25      84.981354      85.6317        85.6317      
     26000   776.31959     -126522.64     -123311.63      1957.2545      623150.25      85.042794      85.600761      85.600761    
     27000   778.89827     -126521.28     -123299.6       2103.1308      623150.25      85.120474      85.561693      85.561693    
     28000   781.23835     -126522.57     -123291.22      2109.3951      623150.25      85.210998      85.516233      85.516233    
     29000   776.65194     -126551.69     -123339.3       1681.8358      623150.25      85.310411      85.466392      85.466392    
     30000   783.9345      -126505.99     -123263.49      2400.4963      623150.25      85.414367      85.414367      85.414367    
     31000   785.70614     -126549.13     -123299.29      1852.3812      623150.25      85.518323      85.362436      85.362436    
     32000   781.73775     -126570.7      -123337.28      1992.7044      623150.25      85.617735      85.312864      85.312864    
     33000   774.58866     -126521.25     -123317.4       2272.666       623150.25      85.708259      85.267799      85.267799    
     34000   777.96688     -126542.06     -123324.23      2149.6116      623150.25      85.785939      85.229185      85.229185    
     35000   775.19353     -126529.64     -123323.28      1908.8546      623150.25      85.847379      85.19868       85.19868     
     36000   774.59065     -126545.46     -123341.61      1934.3565      623150.25      85.889895      85.177591      85.177591    
     37000   779.55619     -126549.49     -123325.09      1968.3045      623150.25      85.911628      85.166817      85.166817    
     38000   780.35297     -126514.58     -123286.89      2174.0007      623150.25      85.911628      85.166817      85.166817    
     39000   777.69373     -126516.42     -123299.73      2169.14        623150.25      85.889895      85.177591      85.177591    
     40000   786.28787     -126502.12     -123249.88      2683.1731      623150.25      85.847379      85.19868       85.19868     
     41000   777.08099     -126485.74     -123271.58      2216.0324      623150.25      85.785939      85.229185      85.229185    
     42000   781.79415     -126543.17     -123309.52      1800.7122      623150.25      85.708259      85.267799      85.267799    
     43000   780.42484     -126533.86     -123305.87      2094.662       623150.25      85.617735      85.312864      85.312864    
     44000   778.04897     -126506.55     -123288.39      2323.1116      623150.25      85.518323      85.362436      85.362436    
     45000   776.191       -126538.92     -123328.45      1837.491       623150.25      85.414367      85.414367      85.414367    
     46000   770.88777     -126517.02     -123328.48      2274.7314      623150.25      85.310411      85.466392      85.466392    
     47000   781.78589     -126525        -123291.38      2115.8808      623150.25      85.210998      85.516233      85.516233    
     48000   776.84296     -126517.48     -123304.31      2138.4085      623150.25      85.120474      85.561693      85.561693    
     49000   782.71933     -126494.48     -123257         2250.8779      623150.25      85.042794      85.600761      85.600761    
     50000   777.70504     -126543.77     -123327.03      1897.977       623150.25      84.981354      85.6317        85.6317      
     51000   788.87428     -126538.51     -123275.57      2055.8919      623150.25      84.938839      85.653128      85.653128    
     52000   779.22064     -126525.51     -123302.5       1934.2957      623150.25      84.917106      85.664088      85.664088    
     53000   784.09104     -126518        -123274.84      2235.4238      623150.25      84.917106      85.664088      85.664088    
     54000   783.48016     -126544.05     -123303.42      2225.8815      623150.25      84.938839      85.653128      85.653128    
     55000   784.45161     -126541.82     -123297.17      2191.6486      623150.25      84.981354      85.6317        85.6317      
     56000   775.13529     -126577.04     -123370.93      1664.8363      623150.25      85.042794      85.600761      85.600761    
     57000   777.35594     -126521.59     -123306.29      2340.6403      623150.25      85.120474      85.561693      85.561693    
     58000   784.90628     -126560.93     -123314.41      1840.7573      623150.25      85.210998      85.516233      85.516233    
     59000   782.23816     -126519.23     -123283.74      2343.0469      623150.25      85.310411      85.466392      85.466392    
     60000   779.29166     -126548.32     -123325.02      2047.4885      623150.25      85.414367      85.414367      85.414367    
     61000   775.13956     -126549.78     -123343.65      1789.6821      623150.25      85.518323      85.362436      85.362436    
     62000   780.04027     -126546.54     -123320.14      1932.9014      623150.25      85.617735      85.312864      85.312864    
     63000   780.95072     -126512.32     -123282.15      2254.6512      623150.25      85.708259      85.267799      85.267799    
     64000   774.04986     -126517.47     -123315.84      1995.4627      623150.25      85.785939      85.229185      85.229185    
     65000   779.28772     -126531.36     -123308.08      2209.2998      623150.25      85.847379      85.19868       85.19868     
     66000   780.54322     -126524.29     -123295.81      2290.5805      623150.25      85.889895      85.177591      85.177591    
     67000   780.08509     -126531.36     -123304.77      2110.0647      623150.25      85.911628      85.166817      85.166817    
     68000   775.7056      -126552.68     -123344.21      1900.0814      623150.25      85.911628      85.166817      85.166817    
     69000   781.36533     -126557.48     -123325.6       1891.2647      623150.25      85.889895      85.177591      85.177591    
     70000   779.13046     -126542.06     -123319.42      1972.1546      623150.25      85.847379      85.19868       85.19868     
     71000   780.96827     -126563.82     -123333.59      1912.8613      623150.25      85.785939      85.229185      85.229185    
     72000   780.86724     -126540.16     -123310.34      1930.4381      623150.25      85.708259      85.267799      85.267799    
     73000   782.73682     -126553.95     -123316.4       2095.5196      623150.25      85.617735      85.312864      85.312864    
     74000   787.4842      -126544.28     -123287.09      1981.3076      623150.25      85.518323      85.362436      85.362436    
     75000   781.2552      -126506.69     -123275.27      2159.9007      623150.25      85.414367      85.414367      85.414367    
     76000   781.93725     -126501.35     -123267.1       2326.5406      623150.25      85.310411      85.466392      85.466392    
     77000   783.58535     -126533.55     -123292.48      2044.4113      623150.25      85.210998      85.516233      85.516233    
     78000   781.3874      -126535.37     -123303.4       2227.9001      623150.25      85.120474      85.561693      85.561693    
     79000   781.29922     -126528.59     -123296.99      2294.1267      623150.25      85.042794      85.600761      85.600761    
     80000   781.84331     -126560.34     -123326.49      1901.3191      623150.25      84.981354      85.6317        85.6317      
     81000   780.39783     -126523.41     -123295.53      2204.9135      623150.25      84.938839      85.653128      85.653128    
     82000   778.98193     -126527.17     -123305.15      2218.7337      623150.25      84.917106      85.664088      85.664088    
     83000   780.12083     -126574.68     -123347.95      1692.1412      623150.25      84.917106      85.664088      85.664088    
     84000   779.30878     -126529.82     -123306.45      2308.1528      623150.25      84.938839      85.653128      85.653128    
     85000   779.3655      -126508        -123284.39      2342.9046      623150.25      84.981354      85.6317        85.6317      
     86000   781.19446     -126501.03     -123269.86      2295.2238      623150.25      85.042794      85.600761      85.600761    
     87000   786.01867     -126559.29     -123308.16      1861.4118      623150.25      85.120474      85.561693      85.561693    
     88000   781.29936     -126533.36     -123301.75      2201.1811      623150.25      85.210998      85.516233      85.516233    
     89000   781.419       -126521.84     -123289.74      2105.5604      623150.25      85.310411      85.466392      85.466392    
     90000   780.94061     -126517.17     -123287.05      2344.6521      623150.25      85.414367      85.414367      85.414367    
     91000   781.90437     -126537.8      -123303.69      1979.5938      623150.25      85.518323      85.362436      85.362436    
     92000   785.13294     -126527.39     -123279.92      2334.3979      623150.25      85.617735      85.312864      85.312864    
     93000   773.36254     -126517.2      -123318.42      2165.8705      623150.25      85.708259      85.267799      85.267799    
     94000   771.68741     -126549.6      -123357.75      1810.8333      623150.25      85.785939      85.229185      85.229185    
     95000   779.64956     -126532.1      -123307.31      2048.1147      623150.25      85.847379      85.19868       85.19868     
     96000   778.17758     -126512.59     -123293.89      2133.1125      623150.25      85.889895      85.177591      85.177591    
     97000   788.59023     -126565.43     -123303.67      1926.9359      623150.25      85.911628      85.166817      85.166817    
     98000   783.88611     -126550.5      -123308.19      1793.7267      623150.25      85.911628      85.166817      85.166817    
     99000   780.35466     -126522.86     -123295.16      2221.2274      623150.25      85.889895      85.177591      85.177591    
    100000   778.16255     -126527.01     -123308.37      1957.0486      623150.25      85.847379      85.19868       85.19868     
    101000   788.83101     -126495.76     -123233         2547.9791      623150.25      85.785939      85.229185      85.229185    
    102000   777.1395      -126506.09     -123291.69      2442.5636      623150.25      85.708259      85.267799      85.267799    
    103000   776.74249     -126526.65     -123313.89      2074.2297      623150.25      85.617735      85.312864      85.312864    
    104000   780.3231      -126530.04     -123302.47      2207.5925      623150.25      85.518323      85.362436      85.362436    
    105000   777.48306     -126542.03     -123326.21      2185.6961      623150.25      85.414367      85.414367      85.414367    
    106000   784.41824     -126587.9      -123343.39      1636.4416      623150.25      85.310411      85.466392      85.466392    
    107000   780.2903      -126559.55     -123332.12      1825.0501      623150.25      85.210998      85.516233      85.516233    
    108000   781.34304     -126600.5      -123368.72      1393.7953      623150.25      85.120474      85.561693      85.561693    
    109000   777.53324     -126547.68     -123331.65      2050.7412      623150.25      85.042794      85.600761      85.600761    
    110000   780.49737     -126536.27     -123307.98      2122.1949      623150.25      84.981354      85.6317        85.6317      
    111000   781.58418     -126550.38     -123317.6       1870.7884      623150.25      84.938839      85.653128      85.653128    
    112000   781.28532     -126546.65     -123315.1       2018.8163      623150.25      84.917106      85.664088      85.664088    
    113000   783.36148     -126524.52     -123284.38      2189.5586      623150.25      84.917106      85.664088      85.664088    
    114000   781.6714      -126543.01     -123309.87      2052.0113      623150.25      84.938839      85.653128      85.653128    
    115000   779.83928     -126551.79     -123326.22      1972.1945      623150.25      84.981354      85.6317        85.6317      
    116000   779.62589     -126540.32     -123315.64      1851.2277      623150.25      85.042794      85.600761      85.600761    
    117000   780.3453      -126578.69     -123351.03      1486.61        623150.25      85.120474      85.561693      85.561693    
    118000   783.14692     -126535.06     -123295.81      2034.3874      623150.25      85.210998      85.516233      85.516233    
    119000   775.02816     -126502.1      -123296.43      2128.7096      623150.25      85.310411      85.466392      85.466392    
    120000   783.34395     -126534.31     -123294.25      2225.7101      623150.25      85.414367      85.414367      85.414367    
    121000   776.06918     -126542.55     -123332.57      1999.9392      623150.25      85.518323      85.362436      85.362436    
    122000   779.59603     -126492.99     -123268.43      2374.0282      623150.25      85.617735      85.312864      85.312864    
    123000   775.10943     -126529.67     -123323.66      2369.9044      623150.25      85.708259      85.267799      85.267799    
    124000   783.447       -126531.87     -123291.38      2085.7248      623150.25      85.785939      85.229185      85.229185    
    125000   775.27421     -126538.96     -123332.27      2216.2766      623150.25      85.847379      85.19868       85.19868     
    126000   774.82059     -126521.65     -123316.84      2141.232       623150.25      85.889895      85.177591      85.177591    
    127000   769.56118     -126570.78     -123387.72      1630.591       623150.25      85.911628      85.166817      85.166817    
    128000   773.60339     -126477.77     -123278         2782.5104      623150.25      85.911628      85.166817      85.166817    
    129000   782.30764     -126547.8      -123312.02      2127.7604      623150.25      85.889895      85.177591      85.177591    
    130000   777.83585     -126491.44     -123274.16      2296.4178      623150.25      85.847379      85.19868       85.19868     
    131000   776.2873      -126545.92     -123335.04      2042.1883      623150.25      85.785939      85.229185      85.229185    
    132000   781.65721     -126522.2      -123289.11      2072.4338      623150.25      85.708259      85.267799      85.267799    
    133000   772.61382     -126509.99     -123314.31      2263.0348      623150.25      85.617735      85.312864      85.312864    
    134000   781.05144     -126510.11     -123279.53      2321.8632      623150.25      85.518323      85.362436      85.362436    
    135000   787.60867     -126519.98     -123262.28      2227.0579      623150.25      85.414367      85.414367      85.414367    
    136000   778.59939     -126511.45     -123291.01      2277.4276      623150.25      85.310411      85.466392      85.466392    
    137000   783.61655     -126527.47     -123286.28      2299.8745      623150.25      85.210998      85.516233      85.516233    
    138000   778.18628     -126545.27     -123326.54      2029.4987      623150.25      85.120474      85.561693      85.561693    
    139000   782.91701     -126530.51     -123292.21      1890.0255      623150.25      85.042794      85.600761      85.600761    
    140000   786.52103     -126558.12     -123304.91      2102.8372      623150.25      84.981354      85.6317        85.6317      
    141000   779.88742     -126533.45     -123307.69      2114.9702      623150.25      84.938839      85.653128      85.653128    
    142000   783.34604     -126532.8      -123292.73      1987.9434      623150.25      84.917106      85.664088      85.664088    
    143000   781.70908     -126524.8      -123291.5       2135.6647      623150.25      84.917106      85.664088      85.664088    
    144000   779.42325     -126558.92     -123335.08      1587.2239      623150.25      84.938839      85.653128      85.653128    
    145000   776.6915      -126540.91     -123328.36      1992.8131      623150.25      84.981354      85.6317        85.6317      
    146000   782.30509     -126542.78     -123307.01      1788.4055      623150.25      85.042794      85.600761      85.600761    
    147000   777.31301     -126517.51     -123302.39      2040.2683      623150.25      85.120474      85.561693      85.561693    
    148000   781.01645     -126534.62     -123304.19      1992.8927      623150.25      85.210998      85.516233      85.516233    
    149000   773.28553     -126477.05     -123278.59      2586.0552      623150.25      85.310411      85.466392      85.466392    
    150000   782.63171     -126491.59     -123254.48      2394.4521      623150.25      85.414367      85.414367      85.414367    
    151000   782.56742     -126549.6      -123312.75      1931.0149      623150.25      85.518323      85.362436      85.362436    
    152000   777.51258     -126504.93     -123288.99      2251.8972      623150.25      85.617735      85.312864      85.312864    
    153000   782.21077     -126511.01     -123275.64      2298.8746      623150.25      85.708259      85.267799      85.267799    
    154000   781.7601      -126535.08     -123301.56      2156.3272      623150.25      85.785939      85.229185      85.229185    
    155000   772.05473     -126543.26     -123349.89      1820.3624      623150.25      85.847379      85.19868       85.19868     
    156000   777.61844     -126536.88     -123320.5       1879.2679      623150.25      85.889895      85.177591      85.177591    
    157000   775.56802     -126575.2      -123367.29      1653.3678      623150.25      85.911628      85.166817      85.166817    
    158000   776.72491     -126541.98     -123329.29      1886.2657      623150.25      85.911628      85.166817      85.166817    
    159000   779.93698     -126539.4      -123313.43      2159.9905      623150.25      85.889895      85.177591      85.177591    
    160000   776.83166     -126514.01     -123300.88      2195.446       623150.25      85.847379      85.19868       85.19868     
    161000   783.59767     -126531.05     -123289.93      2153.1472      623150.25      85.785939      85.229185      85.229185    
    162000   777.07047     -126507.94     -123293.82      2359.0089      623150.25      85.708259      85.267799      85.267799    
    163000   783.87036     -126541.19     -123298.95      2064.4845      623150.25      85.617735      85.312864      85.312864    
    164000   782.02106     -126526.06     -123291.47      2161.8772      623150.25      85.518323      85.362436      85.362436    
    165000   777.94048     -126540.12     -123322.4       2050.412       623150.25      85.414367      85.414367      85.414367    
    166000   779.26773     -126525.08     -123301.88      2129.6211      623150.25      85.310411      85.466392      85.466392    
    167000   779.47362     -126514.24     -123290.18      2363.1183      623150.25      85.210998      85.516233      85.516233    
    168000   775.31655     -126530.78     -123323.92      2115.4671      623150.25      85.120474      85.561693      85.561693    
    169000   777.35565     -126529.89     -123314.59      2136.1859      623150.25      85.042794      85.600761      85.600761    
    170000   779.07678     -126496.52     -123274.11      2398.5315      623150.25      84.981354      85.6317        85.6317      
    171000   782.37357     -126526.57     -123290.52      2286.5048      623150.25      84.938839      85.653128      85.653128    
    172000   781.56977     -126548.99     -123316.26      2198.1477      623150.25      84.917106      85.664088      85.664088    
    173000   771.87983     -126547.43     -123354.79      1794.6742      623150.25      84.917106      85.664088      85.664088    
    174000   784.82887     -126505.09     -123258.88      2433.238       623150.25      84.938839      85.653128      85.653128    
    175000   787.15694     -126516.46     -123260.62      2247.4318      623150.25      84.981354      85.6317        85.6317      
    176000   786.10876     -126536.47     -123284.97      2114.2657      623150.25      85.042794      85.600761      85.600761    
    177000   782.54763     -126538.76     -123301.99      2074.2722      623150.25      85.120474      85.561693      85.561693    
    178000   777.72239     -126519.56     -123302.74      2145.8013      623150.25      85.210998      85.516233      85.516233    
    179000   781.91582     -126537.47     -123303.32      1953.9972      623150.25      85.310411      85.466392      85.466392    
    180000   776.04838     -126505.73     -123295.85      2411.2681      623150.25      85.414367      85.414367      85.414367    
    181000   779.0043      -126496.76     -123274.65      2436.0202      623150.25      85.518323      85.362436      85.362436    
    182000   781.14769     -126512.39     -123281.41      2197.3481      623150.25      85.617735      85.312864      85.312864    
    183000   776.46301     -126516.56     -123304.95      2229.6378      623150.25      85.708259      85.267799      85.267799    
    184000   782.96884     -126502.01     -123263.5       2291.7389      623150.25      85.785939      85.229185      85.229185    
    185000   770.11939     -126522.49     -123337.13      2207.1422      623150.25      85.847379      85.19868       85.19868     
    186000   779.14186     -126510.46     -123287.78      2240.3773      623150.25      85.889895      85.177591      85.177591    
    187000   774.76937     -126500.51     -123295.91      2496.0944      623150.25      85.911628      85.166817      85.166817    
    188000   781.12968     -126513.87     -123282.97      2085.5451      623150.25      85.911628      85.166817      85.166817    
    189000   780.44947     -126485.59     -123257.5       2555.9484      623150.25      85.889895      85.177591      85.177591    
    190000   788.3763      -126533.93     -123273.06      2215.617       623150.25      85.847379      85.19868       85.19868     
    191000   780.89728     -126516.43     -123286.49      2151.3191      623150.25      85.785939      85.229185      85.229185    
    192000   779.07725     -126516.31     -123293.9       2071.4265      623150.25      85.708259      85.267799      85.267799    
    193000   778.63743     -126534.68     -123314.08      1870.7206      623150.25      85.617735      85.312864      85.312864    
    194000   785.47516     -126532.69     -123283.81      1973.4758      623150.25      85.518323      85.362436      85.362436    
    195000   777.72999     -126512.33     -123295.49      2120.9132      623150.25      85.414367      85.414367      85.414367    
    196000   779.94978     -126551.34     -123325.31      1944.9364      623150.25      85.310411      85.466392      85.466392    
    197000   774.53888     -126509.24     -123305.59      2123.4677      623150.25      85.210998      85.516233      85.516233    
    198000   779.13        -126532.9      -123310.27      2045.5087      623150.25      85.120474      85.561693      85.561693    
    199000   775.70743     -126531.82     -123323.34      2103.6842      623150.25      85.042794      85.600761      85.600761    
    200000   783.54434     -126531.67     -123290.78      1954.8887      623150.25      84.981354      85.6317        85.6317      
    201000   779.50187     -126517.36     -123293.19      2132.6505      623150.25      84.938839      85.653128      85.653128    
    202000   781.35299     -126538.39     -123306.57      2098.8073      623150.25      84.917106      85.664088      85.664088    
    203000   776.10722     -126530.36     -123320.23      2018.9111      623150.25      84.917106      85.664088      85.664088    
    204000   781.12317     -126530.95     -123300.07      1932.8495      623150.25      84.938839      85.653128      85.653128    
    205000   784.45508     -126532.24     -123287.58      2125.6073      623150.25      84.981354      85.6317        85.6317      
    206000   780.09818     -126543.24     -123316.6       1982.8916      623150.25      85.042794      85.600761      85.600761    
    207000   780.36438     -126505.47     -123277.73      2282.7532      623150.25      85.120474      85.561693      85.561693    
    208000   776.46047     -126550.02     -123338.43      1753.6071      623150.25      85.210998      85.516233      85.516233    
    209000   772.35618     -126511.34     -123316.72      2301.0216      623150.25      85.310411      85.466392      85.466392    
    210000   778.44896     -126526.45     -123306.63      1920.0342      623150.25      85.414367      85.414367      85.414367    
    211000   787.42346     -126520.84     -123263.9       2158.0247      623150.25      85.518323      85.362436      85.362436    
    212000   782.51536     -126527.87     -123291.24      2000.6104      623150.25      85.617735      85.312864      85.312864    
    213000   783.48502     -126541.83     -123301.18      2147.4253      623150.25      85.708259      85.267799      85.267799    
    214000   775.46053     -126509        -123301.55      2364.4048      623150.25      85.785939      85.229185      85.229185    
    215000   782.60782     -126517.44     -123280.42      2147.6829      623150.25      85.847379      85.19868       85.19868     
    216000   774.55293     -126559.1      -123355.4       1706.7211      623150.25      85.889895      85.177591      85.177591    
    217000   773.75592     -126520.8      -123320.39      2056.3943      623150.25      85.911628      85.166817      85.166817    
    218000   776.08451     -126513.12     -123303.08      2220.8999      623150.25      85.911628      85.166817      85.166817    
    219000   781.4184      -126558.54     -123326.44      1874.5169      623150.25      85.889895      85.177591      85.177591    
    220000   781.93217     -126560.28     -123326.06      1867.2808      623150.25      85.847379      85.19868       85.19868     
    221000   784.4322      -126536.65     -123292.08      2152.1498      623150.25      85.785939      85.229185      85.229185    
    222000   778.9292      -126558.58     -123336.78      1978.2339      623150.25      85.708259      85.267799      85.267799    
    223000   782.84308     -126551.1      -123313.11      1938.898       623150.25      85.617735      85.312864      85.312864    
    224000   783.45258     -126552.49     -123311.98      2103.1902      623150.25      85.518323      85.362436      85.362436    
    225000   784.46106     -126546.88     -123302.19      2131.8491      623150.25      85.414367      85.414367      85.414367    
    226000   781.12318     -126557.64     -123326.76      1681.0074      623150.25      85.310411      85.466392      85.466392    
    227000   784.39802     -126543.04     -123298.62      2016.7229      623150.25      85.210998      85.516233      85.516233    
    228000   786.11595     -126551.86     -123300.33      2010.8469      623150.25      85.120474      85.561693      85.561693    
    229000   783.84139     -126521.86     -123279.74      2378.4052      623150.25      85.042794      85.600761      85.600761    
    230000   782.21215     -126570.81     -123335.42      1813.6884      623150.25      84.981354      85.6317        85.6317      
    231000   782.92286     -126536.63     -123298.31      2085.9536      623150.25      84.938839      85.653128      85.653128    
    232000   778.03007     -126525.84     -123307.76      2311.6272      623150.25      84.917106      85.664088      85.664088    
    233000   775.96494     -126528.58     -123319.04      2195.7081      623150.25      84.917106      85.664088      85.664088    
    234000   782.12748     -126564.64     -123329.61      1768.5724      623150.25      84.938839      85.653128      85.653128    
    235000   781.66412     -126553.28     -123320.17      1908.7978      623150.25      84.981354      85.6317        85.6317      
    236000   789.1291      -126527.97     -123263.97      2129.7521      623150.25      85.042794      85.600761      85.600761    
    237000   778.39465     -126532.19     -123312.59      2026.2423      623150.25      85.120474      85.561693      85.561693    
    238000   773.7036      -126533.83     -123333.64      2047.6002      623150.25      85.210998      85.516233      85.516233    
    239000   780.19085     -126527.7      -123300.68      1965.8679      623150.25      85.310411      85.466392      85.466392    
    240000   781.69425     -126514.31     -123281.07      2303.3698      623150.25      85.414367      85.414367      85.414367    
    241000   781.49367     -126537.53     -123305.12      2128.0877      623150.25      85.518323      85.362436      85.362436    
    242000   776.90568     -126556.2      -123342.77      1737.1681      623150.25      85.617735      85.312864      85.312864    
    243000   779.82165     -126504.48     -123278.99      2195.4883      623150.25      85.708259      85.267799      85.267799    
    244000   777.61727     -126538.51     -123322.13      2056.4503      623150.25      85.785939      85.229185      85.229185    
    245000   777.64248     -126549.7      -123333.22      1854.0712      623150.25      85.847379      85.19868       85.19868     
    246000   777.92353     -126561.02     -123343.37      1864.7261      623150.25      85.889895      85.177591      85.177591    
    247000   780.55061     -126569.68     -123341.17      1718.0055      623150.25      85.911628      85.166817      85.166817    
    248000   779.44942     -126531.68     -123307.72      2415.0945      623150.25      85.911628      85.166817      85.166817    
    249000   776.00372     -126541.16     -123331.46      2010.0846      623150.25      85.889895      85.177591      85.177591    
    250000   783.26773     -126532.82     -123293.07      2274.0617      623150.25      85.847379      85.19868       85.19868     
    251000   785.74516     -126535.19     -123285.2       2224.1175      623150.25      85.785939      85.229185      85.229185    
    252000   783.78372     -126528.35     -123286.47      2158.0522      623150.25      85.708259      85.267799      85.267799    
    253000   780.50129     -126504        -123275.7       2319.9335      623150.25      85.617735      85.312864      85.312864    
    254000   776.61319     -126527.52     -123315.3       1999.7854      623150.25      85.518323      85.362436      85.362436    
    255000   778.92689     -126534.95     -123313.15      2087.191       623150.25      85.414367      85.414367      85.414367    
    256000   783.14073     -126485.41     -123246.19      2529.2285      623150.25      85.310411      85.466392      85.466392    
    257000   781.55426     -126504.59     -123271.93      2415.578       623150.25      85.210998      85.516233      85.516233    
    258000   777.43123     -126525.08     -123309.47      2174.5162      623150.25      85.120474      85.561693      85.561693    
    259000   785.16503     -126547.12     -123299.53      1980.3143      623150.25      85.042794      85.600761      85.600761    
    260000   779.5691      -126552.64     -123328.19      2058.9463      623150.25      84.981354      85.6317        85.6317      
    261000   776.03156     -126549.11     -123339.29      1894.2517      623150.25      84.938839      85.653128      85.653128    
    262000   780.56093     -126543.2      -123314.65      2208.7159      623150.25      84.917106      85.664088      85.664088    
    263000   788.70329     -126550.98     -123288.74      2047.6124      623150.25      84.917106      85.664088      85.664088    
    264000   774.86137     -126521.07     -123316.09      2244.0053      623150.25      84.938839      85.653128      85.653128    
    265000   777.62717     -126488.09     -123271.67      2460.7697      623150.25      84.981354      85.6317        85.6317      
    266000   775.71173     -126510.26     -123301.76      2359.9144      623150.25      85.042794      85.600761      85.600761    
    267000   782.91036     -126542.82     -123304.55      2082.7617      623150.25      85.120474      85.561693      85.561693    
    268000   775.03097     -126553.6      -123347.92      2026.3542      623150.25      85.210998      85.516233      85.516233    
    269000   786.75307     -126546.96     -123292.8       1943.6634      623150.25      85.310411      85.466392      85.466392    
    270000   782.71798     -126548.59     -123311.12      1800.0272      623150.25      85.414367      85.414367      85.414367    
    271000   778.47735     -126578.46     -123358.53      1797.2325      623150.25      85.518323      85.362436      85.362436    
    272000   775.06906     -126551.45     -123345.61      1781.8286      623150.25      85.617735      85.312864      85.312864    
    273000   780.82855     -126506.97     -123277.31      2413.3467      623150.25      85.708259      85.267799      85.267799    
    274000   782.20225     -126504.88     -123269.54      2297.5754      623150.25      85.785939      85.229185      85.229185    
    275000   784.35505     -126535.97     -123291.73      2029.1291      623150.25      85.847379      85.19868       85.19868     
    276000   782.36112     -126551.12     -123315.12      1911.3926      623150.25      85.889895      85.177591      85.177591    
    277000   778.39315     -126523.32     -123303.73      2241.7852      623150.25      85.911628      85.166817      85.166817    
    278000   778.54489     -126543.29     -123323.08      1965.7323      623150.25      85.911628      85.166817      85.166817    
    279000   783.68168     -126547.72     -123306.26      1757.5526      623150.25      85.889895      85.177591      85.177591    
    280000   778.8648      -126549.61     -123328.07      1914.8756      623150.25      85.847379      85.19868       85.19868     
    281000   781.45439     -126530.87     -123298.62      2176.3112      623150.25      85.785939      85.229185      85.229185    
    282000   771.81302     -126555.21     -123362.84      1870.4531      623150.25      85.708259      85.267799      85.267799    
    283000   787.37022     -126535.79     -123279.07      2211.6574      623150.25      85.617735      85.312864      85.312864    
    284000   781.67447     -126527.98     -123294.83      2044.5791      623150.25      85.518323      85.362436      85.362436    
    285000   779.50273     -126539.51     -123315.33      2005.4945      623150.25      85.414367      85.414367      85.414367    
    286000   788.33606     -126527        -123266.29      2322.5423      623150.25      85.310411      85.466392      85.466392    
    287000   779.10285     -126529.54     -123307.02      2237.9007      623150.25      85.210998      85.516233      85.516233    
    288000   781.22348     -126532.67     -123301.38      2197.696       623150.25      85.120474      85.561693      85.561693    
    289000   775.77715     -126538.46     -123329.7       2056.7687      623150.25      85.042794      85.600761      85.600761    
    290000   776.01328     -126515.43     -123305.69      2159.1097      623150.25      84.981354      85.6317        85.6317      
    291000   778.87783     -126541.7      -123320.1       1978.4088      623150.25      84.938839      85.653128      85.653128    
    292000   782.72005     -126549.59     -123312.11      1987.7172      623150.25      84.917106      85.664088      85.664088    
    293000   784.14662     -126526.24     -123282.86      2166.2358      623150.25      84.917106      85.664088      85.664088    
    294000   780.41923     -126524.3      -123296.34      2243.1488      623150.25      84.938839      85.653128      85.653128    
    295000   779.88931     -126482.65     -123256.88      2504.1395      623150.25      84.981354      85.6317        85.6317      
    296000   776.12444     -126533.7      -123323.5       1862.3751      623150.25      85.042794      85.600761      85.600761    
    297000   779.13744     -126568.07     -123345.41      1690.278       623150.25      85.120474      85.561693      85.561693    
    298000   775.11381     -126531.4      -123325.38      1984.8995      623150.25      85.210998      85.516233      85.516233    
    299000   783.28581     -126516.32     -123276.49      2323.3239      623150.25      85.310411      85.466392      85.466392    
    300000   787.01335     -126561.12     -123305.88      1876.926       623150.25      85.414367      85.414367      85.414367    
Loop time of 1227.25 on 48 procs for 300000 steps with 32000 atoms

Performance: 211.204 ns/day, 0.114 hours/ns, 244.449 timesteps/s
99.3% CPU use with 48 MPI tasks x 1 OpenMP threads

MPI task timing breakdown:
Section |  min time  |  avg time  |  max time  |%varavg| %total
---------------------------------------------------------------
Pair    | 993.2      | 1022.6     | 1055.2     |  51.9 | 83.33
Neigh   | 76.324     | 79.021     | 81.897     |  15.2 |  6.44
Comm    | 50.539     | 82.9       | 119.39     | 190.6 |  6.75
Output  | 0.045738   | 0.047374   | 0.11074    |   4.2 |  0.00
Modify  | 33.549     | 38.862     | 46.452     |  64.9 |  3.17
Other   |            | 3.774      |            |       |  0.31

Nlocal:        666.667 ave         683 max         649 min
Histogram: 2 1 4 2 13 7 11 4 3 1
Nghost:         3593.1 ave        3626 max        3562 min
Histogram: 3 3 6 8 6 7 5 3 3 4
Neighs:        71264.5 ave       74318 max       68966 min
Histogram: 4 8 3 5 9 6 7 4 1 1

Total # of neighbors = 3420694
Ave neighs/atom = 106.89669
Neighbor list builds = 59695
Dangerous builds = 0
clear
OMP_NUM_THREADS environment is not set. Defaulting to 1 thread. (src/comm.cpp:98)
  using 1 OpenMP thread(s) per MPI task
Open of file /opt/app/anaconda3/envs/deepmd/lib/deepmd_lmp/dpplugin.so failed: libdeepmd_cc.so: cannot open shared object file: No such file or directory
Loaded 0 plugins from /opt/app/anaconda3/envs/deepmd/lib/deepmd_lmp
Loaded 0 plugins from 
package intel 1
jump dms760.lmp
#MD-DMS by Ha-Bin Yu
variable T equal 760
log log.${T}
log log.760
