units           metal
boundary        p p p
atom_style      atomic
read_data      ../data/T${T}.dat
read_data      ../data/T340.dat
Reading data file ...
  orthogonal box = (-6.0602441 -6.0602441 -6.0602441) to (78.460244 78.460244 78.460244)
  3 by 4 by 4 MPI processor grid
  reading atoms ...
  32000 atoms
  read_data CPU = 0.124 seconds
mass            1  26.98	#Al
mass            2  150.36	#Sm
pair_style      eam/fs
pair_coeff      * * ../data/Al90Sm10_MendelevM_2014.eam.fs  Al Sm

neighbor        2.0 bin
neigh_modify    delay 1

timestep 0.01
thermo 1000
reset_timestep 0
thermo_style custom step temp pe etotal press vol lx ly lz
fix             1 all nvt temp ${T} ${T} 0.1
fix             1 all nvt temp 340 ${T} 0.1
fix             1 all nvt temp 340 340 0.1
thermo_modify flush yes
fix nodrift all momentum 1  linear 1 1 1
fix com_seed all recenter INIT INIT INIT shift all
fix dsf all deform 1 x  wiggle 0.5 300.0 y volume z volume units box
fix ps1 all ave/time 1 1 300 c_thermo_press[1] c_thermo_press[2]  c_thermo_press[3] c_thermo_press[4]  c_thermo_press[5] c_thermo_press[6]  file  stress.${T}
fix ps1 all ave/time 1 1 300 c_thermo_press[1] c_thermo_press[2]  c_thermo_press[3] c_thermo_press[4]  c_thermo_press[5] c_thermo_press[6]  file  stress.340
dump            1 all custom 30000 dump.${T} id type x y z
dump            1 all custom 30000 dump.340 id type x y z
dump_modify 1 sort id
run 300000
----------------------------------------------------------
Using INTEL Package without Coprocessor.
Compiler: GNU C++ 4.8.5 20150623 (Red Hat 4.8.5-39)
SIMD compiler directives: Disabled
Precision: mixed
----------------------------------------------------------
Neighbor list info ...
  update every 1 steps, delay 1 steps, check yes
  max neighbors/atom: 2000, page size: 100000
  master list distance cutoff = 10
  ghost atom cutoff = 10
  binsize = 5, bins = 17 17 17
  1 neighbor lists, perpetual/occasional/extra = 1 0 0
  (1) pair eam/fs/intel, perpetual
      attributes: half, newton on, intel
      pair build: half/bin/newton/intel
      stencil: half/bin/3d
      bin: intel
Per MPI rank memory allocation (min/avg/max) = 10.49 | 10.67 | 10.79 Mbytes
   Step          Temp          PotEng         TotEng         Press          Volume           Lx             Ly             Lz      
         0   0             -129566.56     -129566.56     -3354.7857      603790.11      84.520488      84.520488      84.520488    
      1000   338.89115     -129515.92     -128114.2      -473.65571      603790.11      84.624444      84.468558      84.468558    
      2000   341.32416     -129517.74     -128105.96     -534.58282      603790.11      84.723857      84.418987      84.418987    
      3000   342.68321     -129519.46     -128102.05     -479.0627       603790.11      84.814381      84.373924      84.373924    
      4000   342.4978      -129505.09     -128088.45     -406.12484      603790.11      84.892061      84.335312      84.335312    
      5000   340.3535      -129503.99     -128096.22     -407.34234      603790.11      84.953501      84.30481       84.30481     
      6000   340.02422     -129502.82     -128096.42     -411.78673      603790.11      84.996017      84.283723      84.283723    
      7000   338.36864     -129505.87     -128106.31     -435.72104      603790.11      85.017749      84.27295       84.27295     
      8000   342.86385     -129505.82     -128087.67     -461.87997      603790.11      85.017749      84.27295       84.27295     
      9000   338.9281      -129504.32     -128102.45     -353.87863      603790.11      84.996017      84.283723      84.283723    
     10000   342.61697     -129509.22     -128092.09     -418.50027      603790.11      84.953501      84.30481       84.30481     
     11000   340.08104     -129512.72     -128106.08     -388.3255       603790.11      84.892061      84.335312      84.335312    
     12000   340.74843     -129496.69     -128087.29     -449.29243      603790.11      84.814381      84.373924      84.373924    
     13000   340.91684     -129512.41     -128102.31     -482.87871      603790.11      84.723857      84.418987      84.418987    
     14000   339.66969     -129494.26     -128089.32     -279.36803      603790.11      84.624444      84.468558      84.468558    
     15000   336.84596     -129515.87     -128122.61     -512.41814      603790.11      84.520488      84.520488      84.520488    
     16000   341.92259     -129507.78     -128093.52     -373.49916      603790.11      84.416532      84.572514      84.572514    
     17000   340.8395      -129504.35     -128094.57     -369.63281      603790.11      84.31712       84.622356      84.622356    
     18000   339.83681     -129508.29     -128102.65     -429.65414      603790.11      84.226596      84.667819      84.667819    
     19000   337.91418     -129510.93     -128113.25     -480.4255       603790.11      84.148916      84.706889      84.706889    
     20000   340.82898     -129497.01     -128087.27     -323.06096      603790.11      84.087476      84.73783       84.73783     
     21000   342.70295     -129499.43     -128081.94     -321.99763      603790.11      84.04496       84.75926       84.75926     
     22000   340.53893     -129514.61     -128106.08     -538.19186      603790.11      84.023227      84.770221      84.770221    
     23000   338.9753      -129501.69     -128099.62     -443.06224      603790.11      84.023227      84.770221      84.770221    
     24000   339.33223     -129512.25     -128108.7      -458.19954      603790.11      84.04496       84.75926       84.75926     
     25000   342.4682      -129514.68     -128098.17     -448.27837      603790.11      84.087476      84.73783       84.73783     
     26000   339.40313     -129499.65     -128095.81     -271.54493      603790.11      84.148916      84.706889      84.706889    
     27000   341.5756      -129504.81     -128091.99     -329.26519      603790.11      84.226596      84.667819      84.667819    
     28000   340.28469     -129502.02     -128094.53     -403.41738      603790.11      84.31712       84.622356      84.622356    
     29000   339.11835     -129515.81     -128113.15     -440.46632      603790.11      84.416532      84.572514      84.572514    
     30000   341.90741     -129516.02     -128101.83     -381.57719      603790.11      84.520488      84.520488      84.520488    
     31000   338.2635      -129501.81     -128102.68     -326.08068      603790.11      84.624444      84.468558      84.468558    
     32000   340.45616     -129502.46     -128094.27     -279.23599      603790.11      84.723857      84.418987      84.418987    
     33000   344.32273     -129510.56     -128086.38     -338.76618      603790.11      84.814381      84.373924      84.373924    
     34000   337.74502     -129518.63     -128121.65     -590.67698      603790.11      84.892061      84.335312      84.335312    
     35000   340.60592     -129507.11     -128098.3      -387.26483      603790.11      84.953501      84.30481       84.30481     
     36000   337.83575     -129499.24     -128101.89     -381.57938      603790.11      84.996017      84.283723      84.283723    
     37000   338.79635     -129508.56     -128107.23     -432.49055      603790.11      85.017749      84.27295       84.27295     
     38000   340.22723     -129511.64     -128104.39     -450.95425      603790.11      85.017749      84.27295       84.27295     
     39000   343.32265     -129508.14     -128088.09     -397.96831      603790.11      84.996017      84.283723      84.283723    
     40000   338.89164     -129497.46     -128095.74     -355.96787      603790.11      84.953501      84.30481       84.30481     
     41000   338.1701      -129508.67     -128109.93     -467.07389      603790.11      84.892061      84.335312      84.335312    
     42000   333.66987     -129510.34     -128130.21     -549.22355      603790.11      84.814381      84.373924      84.373924    
     43000   340.08239     -129497.4      -128090.75     -285.09973      603790.11      84.723857      84.418987      84.418987    
     44000   341.05774     -129505.2      -128094.52     -335.67763      603790.11      84.624444      84.468558      84.468558    
     45000   339.7629      -129508.13     -128102.8      -455.86393      603790.11      84.520488      84.520488      84.520488    
     46000   339.91934     -129502.1      -128096.12     -312.92868      603790.11      84.416532      84.572514      84.572514    
     47000   340.76607     -129502.99     -128093.51     -325.82747      603790.11      84.31712       84.622356      84.622356    
     48000   338.06991     -129508.32     -128109.99     -422.05006      603790.11      84.226596      84.667819      84.667819    
     49000   340.93237     -129518.56     -128108.39     -460.71146      603790.11      84.148916      84.706889      84.706889    
     50000   345.29029     -129506.67     -128078.48     -408.07864      603790.11      84.087476      84.73783       84.73783     
     51000   343.14627     -129502.86     -128083.54     -251.50274      603790.11      84.04496       84.75926       84.75926     
     52000   342.19764     -129498.53     -128083.13     -336.08713      603790.11      84.023227      84.770221      84.770221    
     53000   339.49725     -129506.81     -128102.58     -402.48203      603790.11      84.023227      84.770221      84.770221    
     54000   341.50374     -129491.65     -128079.12     -246.86279      603790.11      84.04496       84.75926       84.75926     
     55000   338.25207     -129509.52     -128110.45     -551.31724      603790.11      84.087476      84.73783       84.73783     
     56000   342.78134     -129495.79     -128077.98     -257.48293      603790.11      84.148916      84.706889      84.706889    
     57000   341.47708     -129508.73     -128096.32     -385.06549      603790.11      84.226596      84.667819      84.667819    
     58000   339.98839     -129509.22     -128102.96     -473.84805      603790.11      84.31712       84.622356      84.622356    
     59000   338.50925     -129508.92     -128108.78     -316.98443      603790.11      84.416532      84.572514      84.572514    
     60000   339.2829      -129503.92     -128100.58     -592.1619       603790.11      84.520488      84.520488      84.520488    
     61000   339.80532     -129518.2      -128112.7      -472.29122      603790.11      84.624444      84.468558      84.468558    
     62000   341.69571     -129502.19     -128088.87     -370.20073      603790.11      84.723857      84.418987      84.418987    
     63000   341.09048     -129504.24     -128093.42     -340.57693      603790.11      84.814381      84.373924      84.373924    
     64000   338.71917     -129514.57     -128113.56     -443.97445      603790.11      84.892061      84.335312      84.335312    
     65000   341.16375     -129499.02     -128087.9      -362.89306      603790.11      84.953501      84.30481       84.30481     
     66000   340.04295     -129508.28     -128101.8      -491.48429      603790.11      84.996017      84.283723      84.283723    
     67000   340.5628      -129507.58     -128098.94     -411.77333      603790.11      85.017749      84.27295       84.27295     
     68000   340.50549     -129500.13     -128091.74     -348.06233      603790.11      85.017749      84.27295       84.27295     
     69000   340.11406     -129498.9      -128092.12     -303.98161      603790.11      84.996017      84.283723      84.283723    
     70000   341.84732     -129511.21     -128097.26     -412.95576      603790.11      84.953501      84.30481       84.30481     
     71000   340.38942     -129496.56     -128088.64     -374.90054      603790.11      84.892061      84.335312      84.335312    
     72000   338.59024     -129506.03     -128105.55     -409.16156      603790.11      84.814381      84.373924      84.373924    
     73000   341.99485     -129510.8      -128096.24     -520.45939      603790.11      84.723857      84.418987      84.418987    
     74000   339.11808     -129506.42     -128103.76     -308.7308       603790.11      84.624444      84.468558      84.468558    
     75000   340.19315     -129509.66     -128102.56     -415.37741      603790.11      84.520488      84.520488      84.520488    
     76000   340.81436     -129502.4      -128092.73     -353.01681      603790.11      84.416532      84.572514      84.572514    
     77000   343.53474     -129496.42     -128075.49     -298.63556      603790.11      84.31712       84.622356      84.622356    
     78000   343.0244      -129502.35     -128083.53     -234.93136      603790.11      84.226596      84.667819      84.667819    
     79000   339.95997     -129520.56     -128114.42     -489.14098      603790.11      84.148916      84.706889      84.706889    
     80000   341.41455     -129499.92     -128087.77     -454.50037      603790.11      84.087476      84.73783       84.73783     
     81000   340.60243     -129501.06     -128092.26     -314.08409      603790.11      84.04496       84.75926       84.75926     
     82000   338.96282     -129504.12     -128102.1      -437.12029      603790.11      84.023227      84.770221      84.770221    
     83000   341.73679     -129500.72     -128087.23     -315.36188      603790.11      84.023227      84.770221      84.770221    
     84000   339.14021     -129508.71     -128105.96     -431.45476      603790.11      84.04496       84.75926       84.75926     
     85000   337.42001     -129494.36     -128098.73     -215.81346      603790.11      84.087476      84.73783       84.73783     
     86000   340.72813     -129502.96     -128093.64     -346.23922      603790.11      84.148916      84.706889      84.706889    
     87000   339.90875     -129512.94     -128107.01     -447.96398      603790.11      84.226596      84.667819      84.667819    
     88000   338.76672     -129503.56     -128102.36     -275.64815      603790.11      84.31712       84.622356      84.622356    
     89000   336.78771     -129503.19     -128110.17     -385.63591      603790.11      84.416532      84.572514      84.572514    
     90000   340.88709     -129502.47     -128092.49     -431.5242       603790.11      84.520488      84.520488      84.520488    
     91000   339.36817     -129509.62     -128105.93     -369.85086      603790.11      84.624444      84.468558      84.468558    
     92000   343.38054     -129515.22     -128094.93     -517.34912      603790.11      84.723857      84.418987      84.418987    
     93000   338.09395     -129503.69     -128105.27     -434.65938      603790.11      84.814381      84.373924      84.373924    
     94000   339.37901     -129508.06     -128104.32     -430.15703      603790.11      84.892061      84.335312      84.335312    
     95000   340.07276     -129499.17     -128092.57     -361.26062      603790.11      84.953501      84.30481       84.30481     
     96000   341.85524     -129509.58     -128095.6      -453.68941      603790.11      84.996017      84.283723      84.283723    
     97000   338.23045     -129511.82     -128112.84     -437.32483      603790.11      85.017749      84.27295       84.27295     
     98000   343.44132     -129500.91     -128080.37     -466.13891      603790.11      85.017749      84.27295       84.27295     
     99000   340.72184     -129515.66     -128106.37     -388.39059      603790.11      84.996017      84.283723      84.283723    
    100000   340.4218      -129498.35     -128090.3      -311.84816      603790.11      84.953501      84.30481       84.30481     
    101000   340.74771     -129514.93     -128105.53     -444.79584      603790.11      84.892061      84.335312      84.335312    
    102000   342.58459     -129501.16     -128084.16     -297.72889      603790.11      84.814381      84.373924      84.373924    
    103000   338.43578     -129512.42     -128112.59     -525.95133      603790.11      84.723857      84.418987      84.418987    
    104000   340.69822     -129510.05     -128100.85     -417.17709      603790.11      84.624444      84.468558      84.468558    
    105000   340.23549     -129518.93     -128111.65     -456.60571      603790.11      84.520488      84.520488      84.520488    
    106000   340.46279     -129499.31     -128091.09     -412.74719      603790.11      84.416532      84.572514      84.572514    
    107000   338.2439      -129503.36     -128104.32     -323.53276      603790.11      84.31712       84.622356      84.622356    
    108000   340.67894     -129512.8      -128103.68     -424.2984       603790.11      84.226596      84.667819      84.667819    
    109000   338.38705     -129505.42     -128105.78     -499.65737      603790.11      84.148916      84.706889      84.706889    
    110000   339.35281     -129494.92     -128091.29     -355.05996      603790.11      84.087476      84.73783       84.73783     
    111000   342.93177     -129519.5      -128101.06     -514.76261      603790.11      84.04496       84.75926       84.75926     
    112000   342.07024     -129504.3      -128089.43     -409.97892      603790.11      84.023227      84.770221      84.770221    
    113000   340.48901     -129509.07     -128100.74     -398.67463      603790.11      84.023227      84.770221      84.770221    
    114000   339.87872     -129507.85     -128102.04     -452.21625      603790.11      84.04496       84.75926       84.75926     
    115000   338.17444     -129500.58     -128101.82     -375.06685      603790.11      84.087476      84.73783       84.73783     
    116000   339.23697     -129504.05     -128100.9      -349.28735      603790.11      84.148916      84.706889      84.706889    
    117000   339.59612     -129514.4      -128109.77     -537.69277      603790.11      84.226596      84.667819      84.667819    
    118000   340.7655      -129512.22     -128102.75     -429.17295      603790.11      84.31712       84.622356      84.622356    
    119000   338.11083     -129514.56     -128116.06     -561.57928      603790.11      84.416532      84.572514      84.572514    
    120000   340.69829     -129514.41     -128105.21     -352.54697      603790.11      84.520488      84.520488      84.520488    
    121000   341.8691      -129515.61     -128101.57     -479.90017      603790.11      84.624444      84.468558      84.468558    
    122000   341.17795     -129503.18     -128092        -471.84206      603790.11      84.723857      84.418987      84.418987    
    123000   340.1154      -129515.2      -128108.42     -422.54548      603790.11      84.814381      84.373924      84.373924    
    124000   338.48853     -129488.52     -128088.47     -297.56628      603790.11      84.892061      84.335312      84.335312    
    125000   338.52058     -129507.11     -128106.92     -471.22864      603790.11      84.953501      84.30481       84.30481     
    126000   340.81747     -129509        -128099.31     -413.97436      603790.11      84.996017      84.283723      84.283723    
    127000   342.06376     -129517.14     -128102.3      -366.72791      603790.11      85.017749      84.27295       84.27295     
    128000   338.01084     -129501.89     -128103.81     -372.02381      603790.11      85.017749      84.27295       84.27295     
    129000   342.1536      -129509.44     -128094.23     -352.90897      603790.11      84.996017      84.283723      84.283723    
    130000   340.4626      -129520.07     -128111.85     -469.09634      603790.11      84.953501      84.30481       84.30481     
    131000   340.15717     -129504.36     -128097.4      -381.25894      603790.11      84.892061      84.335312      84.335312    
    132000   343.8758      -129516.61     -128094.28     -489.85161      603790.11      84.814381      84.373924      84.373924    
    133000   341.31161     -129515.03     -128103.3      -530.58965      603790.11      84.723857      84.418987      84.418987    
    134000   343.70278     -129504.14     -128082.52     -289.52382      603790.11      84.624444      84.468558      84.468558    
    135000   338.08528     -129498.76     -128100.37     -370.44395      603790.11      84.520488      84.520488      84.520488    
    136000   337.50443     -129505.08     -128109.1      -398.89523      603790.11      84.416532      84.572514      84.572514    
    137000   337.04079     -129508.11     -128114.04     -337.04321      603790.11      84.31712       84.622356      84.622356    
    138000   338.2922      -129508.3      -128109.06     -347.70598      603790.11      84.226596      84.667819      84.667819    
    139000   338.19397     -129510.29     -128111.45     -382.75162      603790.11      84.148916      84.706889      84.706889    
    140000   339.03985     -129504.46     -128102.13     -461.26779      603790.11      84.087476      84.73783       84.73783     
    141000   339.16726     -129522.35     -128119.49     -553.13286      603790.11      84.04496       84.75926       84.75926     
    142000   338.86139     -129500.77     -128099.18     -390.31739      603790.11      84.023227      84.770221      84.770221    
    143000   342.90202     -129505.92     -128087.61     -302.11529      603790.11      84.023227      84.770221      84.770221    
    144000   341.42085     -129502.94     -128090.75     -296.90462      603790.11      84.04496       84.75926       84.75926     
    145000   340.13847     -129507.9      -128101.02     -389.15657      603790.11      84.087476      84.73783       84.73783     
    146000   340.67553     -129499.15     -128090.05     -345.17811      603790.11      84.148916      84.706889      84.706889    
    147000   340.39579     -129498.54     -128090.6      -330.21619      603790.11      84.226596      84.667819      84.667819    
    148000   344.15514     -129524.69     -128101.19     -596.57397      603790.11      84.31712       84.622356      84.622356    
    149000   339.82039     -129512.43     -128106.87     -409.01934      603790.11      84.416532      84.572514      84.572514    
    150000   338.68597     -129508.57     -128107.7      -434.00405      603790.11      84.520488      84.520488      84.520488    
    151000   338.16037     -129507.73     -128109.04     -375.93396      603790.11      84.624444      84.468558      84.468558    
    152000   337.49388     -129512.88     -128116.94     -429.91826      603790.11      84.723857      84.418987      84.418987    
    153000   338.75607     -129508.24     -128107.08     -357.80313      603790.11      84.814381      84.373924      84.373924    
    154000   340.78945     -129508.14     -128098.57     -398.4723       603790.11      84.892061      84.335312      84.335312    
    155000   340.21073     -129505.92     -128098.74     -354.21023      603790.11      84.953501      84.30481       84.30481     
    156000   341.27003     -129516.28     -128104.72     -443.11658      603790.11      84.996017      84.283723      84.283723    
    157000   337.76279     -129520.9      -128123.85     -540.09071      603790.11      85.017749      84.27295       84.27295     
    158000   339.91819     -129493        -128087.04     -355.79776      603790.11      85.017749      84.27295       84.27295     
    159000   339.41753     -129500.2      -128096.3      -351.2561       603790.11      84.996017      84.283723      84.283723    
    160000   340.07026     -129517.65     -128111.05     -496.86137      603790.11      84.953501      84.30481       84.30481     
    161000   338.93571     -129505.38     -128103.48     -401.82271      603790.11      84.892061      84.335312      84.335312    
    162000   338.53802     -129501.8      -128101.54     -331.03164      603790.11      84.814381      84.373924      84.373924    
    163000   339.08468     -129514.48     -128111.96     -437.32508      603790.11      84.723857      84.418987      84.418987    
    164000   337.58609     -129514.16     -128117.84     -455.14149      603790.11      84.624444      84.468558      84.468558    
    165000   337.39789     -129513.66     -128118.12     -509.45039      603790.11      84.520488      84.520488      84.520488    
    166000   337.85947     -129514.59     -128117.14     -404.05709      603790.11      84.416532      84.572514      84.572514    
    167000   340.71458     -129510.38     -128101.12     -507.76349      603790.11      84.31712       84.622356      84.622356    
    168000   341.83843     -129507.68     -128093.77     -373.93956      603790.11      84.226596      84.667819      84.667819    
    169000   337.92139     -129506.79     -128109.08     -384.36228      603790.11      84.148916      84.706889      84.706889    
    170000   339.03779     -129513.56     -128111.23     -501.8774       603790.11      84.087476      84.73783       84.73783     
    171000   338.85485     -129501.46     -128099.89     -417.44458      603790.11      84.04496       84.75926       84.75926     
    172000   338.49329     -129508.47     -128108.39     -389.54098      603790.11      84.023227      84.770221      84.770221    
    173000   339.79663     -129513.8      -128108.33     -467.70601      603790.11      84.023227      84.770221      84.770221    
    174000   337.74706     -129507.5      -128110.52     -360.16853      603790.11      84.04496       84.75926       84.75926     
    175000   341.28806     -129500.43     -128088.79     -302.86501      603790.11      84.087476      84.73783       84.73783     
    176000   337.92343     -129501.75     -128104.04     -444.40691      603790.11      84.148916      84.706889      84.706889    
    177000   341.49282     -129513.55     -128101.06     -471.30091      603790.11      84.226596      84.667819      84.667819    
    178000   338.56411     -129517.52     -128117.15     -487.4032       603790.11      84.31712       84.622356      84.622356    
    179000   340.44823     -129504.17     -128096.01     -419.63558      603790.11      84.416532      84.572514      84.572514    
    180000   341.29144     -129510.69     -128099.04     -430.9663       603790.11      84.520488      84.520488      84.520488    
    181000   338.69575     -129502.03     -128101.11     -404.2502       603790.11      84.624444      84.468558      84.468558    
    182000   340.02771     -129512.34     -128105.92     -416.92244      603790.11      84.723857      84.418987      84.418987    
    183000   340.85831     -129510.53     -128100.68     -429.78234      603790.11      84.814381      84.373924      84.373924    
    184000   342.3158      -129515.24     -128099.36     -467.98919      603790.11      84.892061      84.335312      84.335312    
    185000   340.87729     -129498.03     -128088.09     -260.53074      603790.11      84.953501      84.30481       84.30481     
    186000   338.5442      -129512.81     -128112.52     -461.64082      603790.11      84.996017      84.283723      84.283723    
    187000   340.58313     -129493.7      -128084.98     -279.10327      603790.11      85.017749      84.27295       84.27295     
    188000   340.36401     -129504.27     -128096.45     -274.23047      603790.11      85.017749      84.27295       84.27295     
    189000   339.27943     -129499.08     -128095.76     -374.77286      603790.11      84.996017      84.283723      84.283723    
    190000   338.96799     -129511.35     -128109.31     -414.96387      603790.11      84.953501      84.30481       84.30481     
    191000   337.62165     -129502.32     -128105.85     -390.47179      603790.11      84.892061      84.335312      84.335312    
    192000   339.49526     -129499.07     -128094.85     -408.66735      603790.11      84.814381      84.373924      84.373924    
    193000   341.07996     -129506.11     -128095.34     -344.81156      603790.11      84.723857      84.418987      84.418987    
    194000   340.3691      -129505.94     -128098.1      -525.07256      603790.11      84.624444      84.468558      84.468558    
    195000   340.58637     -129511.34     -128102.61     -418.94131      603790.11      84.520488      84.520488      84.520488    
    196000   340.74328     -129492.29     -128082.91     -364.33827      603790.11      84.416532      84.572514      84.572514    
    197000   339.94141     -129518.16     -128112.09     -435.18167      603790.11      84.31712       84.622356      84.622356    
    198000   338.12935     -129501.34     -128102.77     -317.52401      603790.11      84.226596      84.667819      84.667819    
    199000   340.23076     -129512.61     -128105.35     -470.3697       603790.11      84.148916      84.706889      84.706889    
    200000   339.66616     -129495.46     -128090.54     -347.33733      603790.11      84.087476      84.73783       84.73783     
    201000   339.14045     -129503.14     -128100.39     -366.16315      603790.11      84.04496       84.75926       84.75926     
    202000   338.31415     -129503.73     -128104.4      -404.2307       603790.11      84.023227      84.770221      84.770221    
    203000   339.42123     -129492.81     -128088.9      -328.45874      603790.11      84.023227      84.770221      84.770221    
    204000   339.97514     -129502.48     -128096.28     -264.83273      603790.11      84.04496       84.75926       84.75926     
    205000   340.5295      -129495.33     -128086.84     -187.08947      603790.11      84.087476      84.73783       84.73783     
    206000   337.98281     -129512.7      -128114.74     -396.57785      603790.11      84.148916      84.706889      84.706889    
    207000   339.23484     -129499.61     -128096.47     -436.67704      603790.11      84.226596      84.667819      84.667819    
    208000   342.53209     -129501.67     -128084.89     -291.38409      603790.11      84.31712       84.622356      84.622356    
    209000   341.09831     -129513.88     -128103.03     -412.36619      603790.11      84.416532      84.572514      84.572514    
    210000   337.67527     -129504.09     -128107.4      -517.44627      603790.11      84.520488      84.520488      84.520488    
    211000   338.79979     -129509.8      -128108.46     -467.41079      603790.11      84.624444      84.468558      84.468558    
    212000   340.83641     -129514.69     -128104.92     -381.5492       603790.11      84.723857      84.418987      84.418987    
    213000   341.76283     -129506.45     -128092.85     -449.78876      603790.11      84.814381      84.373924      84.373924    
    214000   339.62291     -129508.48     -128103.73     -384.78377      603790.11      84.892061      84.335312      84.335312    
    215000   339.44558     -129509.37     -128105.36     -488.28527      603790.11      84.953501      84.30481       84.30481     
    216000   338.75446     -129506.21     -128105.05     -365.67396      603790.11      84.996017      84.283723      84.283723    
    217000   336.90107     -129493.47     -128099.98     -342.90653      603790.11      85.017749      84.27295       84.27295     
    218000   343.13322     -129519.26     -128099.99     -369.57817      603790.11      85.017749      84.27295       84.27295     
    219000   338.02996     -129508.01     -128109.85     -454.58432      603790.11      84.996017      84.283723      84.283723    
    220000   338.32327     -129504.44     -128105.07     -397.80719      603790.11      84.953501      84.30481       84.30481     
    221000   339.27477     -129502.69     -128099.39     -378.05783      603790.11      84.892061      84.335312      84.335312    
    222000   341.27239     -129498.99     -128087.42     -295.47134      603790.11      84.814381      84.373924      84.373924    
    223000   338.32107     -129511.59     -128112.22     -371.2415       603790.11      84.723857      84.418987      84.418987    
    224000   339.91829     -129518.25     -128112.28     -462.14907      603790.11      84.624444      84.468558      84.468558    
    225000   341.32213     -129505.84     -128094.06     -404.45029      603790.11      84.520488      84.520488      84.520488    
    226000   344.83771     -129504.93     -128078.62     -385.75913      603790.11      84.416532      84.572514      84.572514    
    227000   340.18953     -129503.91     -128096.82     -378.353        603790.11      84.31712       84.622356      84.622356    
    228000   342.71312     -129517.95     -128100.42     -421.04672      603790.11      84.226596      84.667819      84.667819    
    229000   341.15223     -129511.88     -128100.8      -461.18029      603790.11      84.148916      84.706889      84.706889    
    230000   339.31284     -129506.73     -128103.27     -382.19065      603790.11      84.087476      84.73783       84.73783     
    231000   339.48538     -129507.22     -128103.04     -380.05204      603790.11      84.04496       84.75926       84.75926     
    232000   338.11751     -129511.47     -128112.95     -353.80829      603790.11      84.023227      84.770221      84.770221    
    233000   338.73657     -129502.43     -128101.35     -379.85221      603790.11      84.023227      84.770221      84.770221    
    234000   336.97907     -129512.65     -128118.84     -464.95241      603790.11      84.04496       84.75926       84.75926     
    235000   338.2714      -129506.73     -128107.58     -379.01255      603790.11      84.087476      84.73783       84.73783     
    236000   342.02932     -129508.8      -128094.1      -477.5464       603790.11      84.148916      84.706889      84.706889    
    237000   338.74439     -129487.84     -128086.73     -267.75331      603790.11      84.226596      84.667819      84.667819    
    238000   339.97359     -129508.26     -128102.06     -383.35622      603790.11      84.31712       84.622356      84.622356    
    239000   339.45446     -129511.12     -128107.07     -415.3456       603790.11      84.416532      84.572514      84.572514    
    240000   338.03105     -129508.68     -128110.52     -382.99861      603790.11      84.520488      84.520488      84.520488    
    241000   339.97363     -129504.53     -128098.33     -279.48806      603790.11      84.624444      84.468558      84.468558    
    242000   341.7681      -129505.27     -128091.65     -327.51046      603790.11      84.723857      84.418987      84.418987    
    243000   340.53557     -129517.86     -128109.34     -455.70602      603790.11      84.814381      84.373924      84.373924    
    244000   337.07687     -129509.55     -128115.34     -459.97288      603790.11      84.892061      84.335312      84.335312    
    245000   340.72422     -129502.29     -128092.99     -327.07608      603790.11      84.953501      84.30481       84.30481     
    246000   338.65113     -129511.35     -128110.62     -462.6904       603790.11      84.996017      84.283723      84.283723    
    247000   339.28861     -129505.31     -128101.94     -457.22951      603790.11      85.017749      84.27295       84.27295     
    248000   342.47706     -129503        -128086.45     -291.78862      603790.11      85.017749      84.27295       84.27295     
    249000   339.87767     -129508.3      -128102.49     -439.87061      603790.11      84.996017      84.283723      84.283723    
    250000   339.22184     -129515.92     -128112.83     -416.61189      603790.11      84.953501      84.30481       84.30481     
    251000   339.53261     -129508.72     -128104.35     -381.76834      603790.11      84.892061      84.335312      84.335312    
    252000   339.89795     -129501.66     -128095.77     -336.18157      603790.11      84.814381      84.373924      84.373924    
    253000   339.48592     -129504.6      -128100.42     -460.40727      603790.11      84.723857      84.418987      84.418987    
    254000   339.69336     -129507.74     -128102.7      -386.69251      603790.11      84.624444      84.468558      84.468558    
    255000   340.29271     -129511.87     -128104.35     -440.0324       603790.11      84.520488      84.520488      84.520488    
    256000   342.4699      -129518.69     -128102.17     -440.46392      603790.11      84.416532      84.572514      84.572514    
    257000   341.64925     -129509.51     -128096.39     -448.67148      603790.11      84.31712       84.622356      84.622356    
    258000   337.57815     -129506.35     -128110.06     -467.35476      603790.11      84.226596      84.667819      84.667819    
    259000   340.45117     -129501.97     -128093.8      -344.74886      603790.11      84.148916      84.706889      84.706889    
    260000   340.76422     -129506.96     -128097.49     -317.08429      603790.11      84.087476      84.73783       84.73783     
    261000   339.25325     -129506.14     -128102.92     -348.17697      603790.11      84.04496       84.75926       84.75926     
    262000   340.65086     -129505.37     -128096.37     -343.74181      603790.11      84.023227      84.770221      84.770221    
    263000   340.77549     -129490.36     -128080.84     -160.31099      603790.11      84.023227      84.770221      84.770221    
    264000   338.54659     -129496.45     -128096.15     -236.89372      603790.11      84.04496       84.75926       84.75926     
    265000   342.78286     -129514.75     -128096.93     -497.18049      603790.11      84.087476      84.73783       84.73783     
    266000   339.88326     -129495.56     -128089.74     -222.72229      603790.11      84.148916      84.706889      84.706889    
    267000   341.34813     -129519.65     -128107.76     -474.60635      603790.11      84.226596      84.667819      84.667819    
    268000   338.59599     -129508.62     -128108.12     -481.35654      603790.11      84.31712       84.622356      84.622356    
    269000   338.7638      -129511.12     -128109.93     -418.25268      603790.11      84.416532      84.572514      84.572514    
    270000   341.35636     -129505.09     -128093.18     -399.4348       603790.11      84.520488      84.520488      84.520488    
    271000   338.04166     -129505.99     -128107.79     -427.69501      603790.11      84.624444      84.468558      84.468558    
    272000   340.6316      -129512.58     -128103.66     -517.90748      603790.11      84.723857      84.418987      84.418987    
    273000   340.66317     -129511.54     -128102.49     -424.32692      603790.11      84.814381      84.373924      84.373924    
    274000   340.92387     -129513.47     -128103.34     -480.28268      603790.11      84.892061      84.335312      84.335312    
    275000   339.53581     -129510.06     -128105.67     -400.9575       603790.11      84.953501      84.30481       84.30481     
    276000   341.11447     -129497.85     -128086.93     -380.58656      603790.11      84.996017      84.283723      84.283723    
    277000   339.61149     -129503.06     -128098.36     -404.80509      603790.11      85.017749      84.27295       84.27295     
    278000   336.18349     -129511.63     -128121.11     -437.06994      603790.11      85.017749      84.27295       84.27295     
    279000   339.36042     -129502.07     -128098.41     -346.46728      603790.11      84.996017      84.283723      84.283723    
    280000   341.0437      -129517.01     -128106.39     -496.17932      603790.11      84.953501      84.30481       84.30481     
    281000   337.69115     -129520.39     -128123.63     -584.36479      603790.11      84.892061      84.335312      84.335312    
    282000   341.49947     -129504.73     -128092.22     -407.09883      603790.11      84.814381      84.373924      84.373924    
    283000   339.30407     -129500.19     -128096.76     -421.03457      603790.11      84.723857      84.418987      84.418987    
    284000   340.94839     -129516.67     -128106.44     -483.05152      603790.11      84.624444      84.468558      84.468558    
    285000   341.70436     -129503.52     -128090.17     -339.78872      603790.11      84.520488      84.520488      84.520488    
    286000   338.57041     -129519.76     -128119.37     -508.23769      603790.11      84.416532      84.572514      84.572514    
    287000   342.70173     -129508.31     -128090.83     -384.2387       603790.11      84.31712       84.622356      84.622356    
    288000   339.42813     -129512.03     -128108.09     -522.43708      603790.11      84.226596      84.667819      84.667819    
    289000   337.45059     -129506.13     -128110.37     -445.85709      603790.11      84.148916      84.706889      84.706889    
    290000   340.52113     -129506.73     -128098.27     -401.26002      603790.11      84.087476      84.73783       84.73783     
    291000   339.77305     -129505.26     -128099.89     -483.02742      603790.11      84.04496       84.75926       84.75926     
    292000   338.01725     -129508.08     -128109.98     -402.916        603790.11      84.023227      84.770221      84.770221    
    293000   341.9292      -129504.22     -128089.93     -373.9097       603790.11      84.023227      84.770221      84.770221    
    294000   340.88195     -129502.11     -128092.15     -261.26821      603790.11      84.04496       84.75926       84.75926     
    295000   341.80107     -129507.54     -128093.78     -284.73959      603790.11      84.087476      84.73783       84.73783     
    296000   337.77396     -129511.99     -128114.89     -478.59902      603790.11      84.148916      84.706889      84.706889    
    297000   340.83524     -129505.45     -128095.69     -470.23838      603790.11      84.226596      84.667819      84.667819    
    298000   342.59858     -129506.56     -128089.51     -468.34899      603790.11      84.31712       84.622356      84.622356    
    299000   339.05461     -129507.39     -128104.99     -455.8118       603790.11      84.416532      84.572514      84.572514    
    300000   339.21428     -129501.85     -128098.79     -276.93221      603790.11      84.520488      84.520488      84.520488    
Loop time of 1157.61 on 48 procs for 300000 steps with 32000 atoms

Performance: 223.909 ns/day, 0.107 hours/ns, 259.154 timesteps/s
99.3% CPU use with 48 MPI tasks x 1 OpenMP threads

MPI task timing breakdown:
Section |  min time  |  avg time  |  max time  |%varavg| %total
---------------------------------------------------------------
Pair    | 1001.1     | 1017.1     | 1030.9     |  18.5 | 87.86
Neigh   | 37.719     | 39.639     | 41.495     |  12.7 |  3.42
Comm    | 43.945     | 60.793     | 81.872     |  97.7 |  5.25
Output  | 0.038966   | 0.040579   | 0.099976   |   4.3 |  0.00
Modify  | 31.895     | 36.384     | 42.368     |  50.9 |  3.14
Other   |            | 3.666      |            |       |  0.32

Nlocal:        666.667 ave         679 max         655 min
Histogram: 4 3 7 5 5 7 5 5 5 2
Nghost:        3652.21 ave        3688 max        3628 min
Histogram: 3 5 11 7 4 7 5 3 1 2
Neighs:        73743.4 ave       75392 max       71900 min
Histogram: 2 2 3 8 9 6 8 4 1 5

Total # of neighbors = 3539684
Ave neighs/atom = 110.61513
Neighbor list builds = 31860
Dangerous builds = 0
clear
OMP_NUM_THREADS environment is not set. Defaulting to 1 thread. (src/comm.cpp:98)
  using 1 OpenMP thread(s) per MPI task
Open of file /opt/app/anaconda3/envs/deepmd/lib/deepmd_lmp/dpplugin.so failed: libdeepmd_cc.so: cannot open shared object file: No such file or directory
Loaded 0 plugins from /opt/app/anaconda3/envs/deepmd/lib/deepmd_lmp
Loaded 0 plugins from 
package intel 1
jump dms320.lmp
#MD-DMS by Ha-Bin Yu
variable T equal 320
log log.${T}
log log.320
