units           metal
boundary        p p p
atom_style      atomic
read_data      ../data/T${T}.dat
read_data      ../data/T740.dat
Reading data file ...
  orthogonal box = (-6.4501872 -6.4501872 -6.4501872) to (78.850187 78.850187 78.850187)
  3 by 4 by 4 MPI processor grid
  reading atoms ...
  32000 atoms
  reading velocities ...
  32000 velocities
  read_data CPU = 0.251 seconds
mass            1  26.98	#Al
mass            2  150.36	#Sm
pair_style      eam/fs
pair_coeff      * * ../data/Al90Sm10_MendelevM_2014.eam.fs  Al Sm

neighbor        2.0 bin
neigh_modify    delay 1

timestep 0.01
thermo 1000
reset_timestep 0
thermo_style custom step temp pe etotal press vol lx ly lz
fix             1 all nvt temp ${T} ${T} 0.1
fix             1 all nvt temp 740 ${T} 0.1
fix             1 all nvt temp 740 740 0.1
thermo_modify flush yes
fix nodrift all momentum 1  linear 1 1 1
fix com_seed all recenter INIT INIT INIT shift all
fix dsf all deform 1 x  wiggle 0.5 300.0 y volume z volume units box
fix ps1 all ave/time 1 1 300 c_thermo_press[1] c_thermo_press[2]  c_thermo_press[3] c_thermo_press[4]  c_thermo_press[5] c_thermo_press[6]  file  stress.${T}
fix ps1 all ave/time 1 1 300 c_thermo_press[1] c_thermo_press[2]  c_thermo_press[3] c_thermo_press[4]  c_thermo_press[5] c_thermo_press[6]  file  stress.740
dump            1 all custom 30000 dump.${T} id type x y z
dump            1 all custom 30000 dump.740 id type x y z
dump_modify 1 sort id
run 300000
----------------------------------------------------------
Using INTEL Package without Coprocessor.
Compiler: GNU C++ 4.8.5 20150623 (Red Hat 4.8.5-39)
SIMD compiler directives: Disabled
Precision: mixed
----------------------------------------------------------
Neighbor list info ...
  update every 1 steps, delay 1 steps, check yes
  max neighbors/atom: 2000, page size: 100000
  master list distance cutoff = 10
  ghost atom cutoff = 10
  binsize = 5, bins = 18 18 18
  1 neighbor lists, perpetual/occasional/extra = 1 0 0
  (1) pair eam/fs/intel, perpetual
      attributes: half, newton on, intel
      pair build: half/bin/newton/intel
      stencil: half/bin/3d
      bin: intel
Per MPI rank memory allocation (min/avg/max) = 10.55 | 10.66 | 10.77 Mbytes
   Step          Temp          PotEng         TotEng         Press          Volume           Lx             Ly             Lz      
         0   737.16632     -127113.82     -124064.76      6.4353433      620658.65      85.300374      85.300374      85.300374    
      1000   734.14531     -127046.28     -124009.71      268.35032      620658.65      85.40433       85.248444      85.248444    
      2000   730.77876     -126982.82     -123960.18      962.3046       620658.65      85.503743      85.198872      85.198872    
      3000   738.90263     -127009.94     -123953.7       886.16298      620658.65      85.594267      85.153807      85.153807    
      4000   736.75311     -126973.62     -123926.26      997.46568      620658.65      85.671947      85.115193      85.115193    
      5000   739.48107     -126993.75     -123935.11      923.28286      620658.65      85.733387      85.084689      85.084689    
      6000   737.48986     -127003.83     -123953.42      842.40047      620658.65      85.775903      85.0636        85.0636      
      7000   741.75599     -127010.51     -123942.47      831.13978      620658.65      85.797635      85.052826      85.052826    
      8000   737.23851     -126986.92     -123937.56      951.13424      620658.65      85.797635      85.052826      85.052826    
      9000   741.08705     -126991.02     -123925.74      1051.7556      620658.65      85.775903      85.0636        85.0636      
     10000   740.53017     -127014.7      -123951.72      863.59409      620658.65      85.733387      85.084689      85.084689    
     11000   738.47665     -126976.34     -123921.85      1201.9968      620658.65      85.671947      85.115193      85.115193    
     12000   737.69847     -126972.89     -123921.62      1165.6111      620658.65      85.594267      85.153807      85.153807    
     13000   742.38595     -126966.96     -123896.31      1215.3024      620658.65      85.503743      85.198872      85.198872    
     14000   738.19581     -126949.46     -123896.14      1281.3156      620658.65      85.40433       85.248444      85.248444    
     15000   740.69153     -126987.77     -123924.13      992.84031      620658.65      85.300374      85.300374      85.300374    
     16000   734.96354     -126969.99     -123930.04      1191.001       620658.65      85.196419      85.3524        85.3524      
     17000   746.66147     -126965.97     -123877.63      1115.7966      620658.65      85.097006      85.402241      85.402241    
     18000   748.42201     -126985.26     -123889.65      1124.2529      620658.65      85.006482      85.447702      85.447702    
     19000   745.44896     -127001.36     -123918.04      965.86529      620658.65      84.928802      85.48677       85.48677     
     20000   740.03368     -126942.81     -123881.89      1377.0271      620658.65      84.867362      85.517709      85.517709    
     21000   743.93336     -126972.95     -123895.89      1166.2479      620658.65      84.824846      85.539137      85.539137    
     22000   740.6092      -126975.02     -123911.71      1184.8937      620658.65      84.803114      85.550097      85.550097    
     23000   738.2931      -126927.46     -123873.73      1424.1166      620658.65      84.803114      85.550097      85.550097    
     24000   738.31256     -126925.13     -123871.32      1741.4036      620658.65      84.824846      85.539137      85.539137    
     25000   739.73898     -126962.47     -123902.77      1273.052       620658.65      84.867362      85.517709      85.517709    
     26000   743.88179     -126965.65     -123888.81      1258.2509      620658.65      84.928802      85.48677       85.48677     
     27000   740.24311     -126957.5      -123895.71      1287.1133      620658.65      85.006482      85.447702      85.447702    
     28000   738.73474     -126995.51     -123939.96      953.16999      620658.65      85.097006      85.402241      85.402241    
     29000   737.28538     -126955.12     -123905.56      1413.6897      620658.65      85.196419      85.3524        85.3524      
     30000   743.15057     -126963.9      -123890.08      1547.9244      620658.65      85.300374      85.300374      85.300374    
     31000   744.47817     -126942.67     -123863.36      1414.237       620658.65      85.40433       85.248444      85.248444    
     32000   741.95179     -126977.25     -123908.4       1133.0312      620658.65      85.503743      85.198872      85.198872    
     33000   742.90942     -126979.62     -123906.8       1175.3994      620658.65      85.594267      85.153807      85.153807    
     34000   740.65558     -126968.98     -123905.48      1000.2054      620658.65      85.671947      85.115193      85.115193    
     35000   735.59442     -127002.81     -123960.25      909.97935      620658.65      85.733387      85.084689      85.084689    
     36000   739.80681     -126984.74     -123924.76      959.85214      620658.65      85.775903      85.0636        85.0636      
     37000   739.77354     -126946.6      -123886.75      1179.3743      620658.65      85.797635      85.052826      85.052826    
     38000   733.10704     -126946.57     -123914.29      1304.4964      620658.65      85.797635      85.052826      85.052826    
     39000   735.03956     -126964.88     -123924.61      1039.6996      620658.65      85.775903      85.0636        85.0636      
     40000   742.8096      -126970.96     -123898.56      1191.2725      620658.65      85.733387      85.084689      85.084689    
     41000   742.34884     -126954.39     -123883.89      1503.5245      620658.65      85.671947      85.115193      85.115193    
     42000   736.36536     -126937.58     -123891.83      1406.6112      620658.65      85.594267      85.153807      85.153807    
     43000   743.6047      -126938.62     -123862.93      1377.7928      620658.65      85.503743      85.198872      85.198872    
     44000   736.10761     -126951.55     -123906.87      1304.171       620658.65      85.40433       85.248444      85.248444    
     45000   736.78489     -126970.63     -123923.15      1019.2955      620658.65      85.300374      85.300374      85.300374    
     46000   742.84905     -126941.39     -123868.82      1413.8865      620658.65      85.196419      85.3524        85.3524      
     47000   743.88685     -126948.45     -123871.58      1318.0584      620658.65      85.097006      85.402241      85.402241    
     48000   736.54292     -126943.63     -123897.14      1478.805       620658.65      85.006482      85.447702      85.447702    
     49000   741.29305     -126967.65     -123901.52      1216.7868      620658.65      84.928802      85.48677       85.48677     
     50000   740.98794     -126950.41     -123885.54      1236.0899      620658.65      84.867362      85.517709      85.517709    
     51000   737.06935     -126959.25     -123910.58      1249.9469      620658.65      84.824846      85.539137      85.539137    
     52000   746.46698     -126983.72     -123896.19      1040.904       620658.65      84.803114      85.550097      85.550097    
     53000   735.19569     -126975.04     -123934.12      1099.9932      620658.65      84.803114      85.550097      85.550097    
     54000   745.10114     -126982.38     -123900.5       1082.1892      620658.65      84.824846      85.539137      85.539137    
     55000   744.23628     -126988.91     -123910.6       1185.2524      620658.65      84.867362      85.517709      85.517709    
     56000   732.82892     -126922.25     -123891.13      1452.3891      620658.65      84.928802      85.48677       85.48677     
     57000   745.64747     -126948.02     -123863.88      1206.547       620658.65      85.006482      85.447702      85.447702    
     58000   741.54496     -126952.82     -123885.64      1552.0301      620658.65      85.097006      85.402241      85.402241    
     59000   740.80137     -126973.16     -123909.06      1256.0917      620658.65      85.196419      85.3524        85.3524      
     60000   737.73923     -126969.32     -123917.89      1089.5261      620658.65      85.300374      85.300374      85.300374    
     61000   747.14226     -126935.91     -123845.59      1541.0378      620658.65      85.40433       85.248444      85.248444    
     62000   737.59035     -126918.17     -123867.35      1438.1938      620658.65      85.503743      85.198872      85.198872    
     63000   739.57267     -126957.52     -123898.5       1268.0907      620658.65      85.594267      85.153807      85.153807    
     64000   730.49802     -126968.98     -123947.5       1156.9405      620658.65      85.671947      85.115193      85.115193    
     65000   745.02227     -126959.92     -123878.36      1253.6376      620658.65      85.733387      85.084689      85.084689    
     66000   737.93838     -126944.07     -123891.81      1510.2528      620658.65      85.775903      85.0636        85.0636      
     67000   738.63986     -126938.81     -123883.65      1470.7283      620658.65      85.797635      85.052826      85.052826    
     68000   736.60184     -126974.58     -123927.85      1152.5346      620658.65      85.797635      85.052826      85.052826    
     69000   739.67733     -126960.66     -123901.21      1409.7858      620658.65      85.775903      85.0636        85.0636      
     70000   733.66746     -126960.98     -123926.39      1114.2174      620658.65      85.733387      85.084689      85.084689    
     71000   744.90757     -126953.02     -123871.93      1135.5242      620658.65      85.671947      85.115193      85.115193    
     72000   744.36089     -126940.91     -123862.09      1280.5447      620658.65      85.594267      85.153807      85.153807    
     73000   743.10632     -126953.65     -123880.02      1205.6248      620658.65      85.503743      85.198872      85.198872    
     74000   742.35366     -126956.1      -123885.58      1320.8956      620658.65      85.40433       85.248444      85.248444    
     75000   742.21659     -126947.48     -123877.53      1535.1475      620658.65      85.300374      85.300374      85.300374    
     76000   743.51538     -126948.04     -123872.71      1562.4581      620658.65      85.196419      85.3524        85.3524      
     77000   741.0918      -126939.6      -123874.3       1398.1619      620658.65      85.097006      85.402241      85.402241    
     78000   742.35875     -126924.91     -123854.37      1540.4824      620658.65      85.006482      85.447702      85.447702    
     79000   740.67877     -126934.4      -123870.81      1477.3028      620658.65      84.928802      85.48677       85.48677     
     80000   738.78528     -126954.73     -123898.97      1522.8024      620658.65      84.867362      85.517709      85.517709    
     81000   744.9115      -126939.07     -123857.97      1548.2957      620658.65      84.824846      85.539137      85.539137    
     82000   739.90561     -126949.51     -123889.12      1401.9129      620658.65      84.803114      85.550097      85.550097    
     83000   740.13347     -126953.12     -123891.78      1423.5765      620658.65      84.803114      85.550097      85.550097    
     84000   738.44451     -126931.27     -123876.92      1524.2829      620658.65      84.824846      85.539137      85.539137    
     85000   737.55899     -126977.82     -123927.13      1118.3036      620658.65      84.867362      85.517709      85.517709    
     86000   736.21297     -126976.44     -123931.32      1068.7097      620658.65      84.928802      85.48677       85.48677     
     87000   742.18219     -126958.64     -123888.83      1124.1575      620658.65      85.006482      85.447702      85.447702    
     88000   740.06414     -126972.82     -123911.77      1199.6475      620658.65      85.097006      85.402241      85.402241    
     89000   744.47843     -126973.72     -123894.42      1373.9494      620658.65      85.196419      85.3524        85.3524      
     90000   744.84673     -126977.72     -123896.89      1034.9121      620658.65      85.300374      85.300374      85.300374    
     91000   740.56109     -126972.26     -123909.16      1040.5955      620658.65      85.40433       85.248444      85.248444    
     92000   738.31594     -126960.29     -123906.47      1179.0725      620658.65      85.503743      85.198872      85.198872    
     93000   739.20927     -126968.76     -123911.25      1349.1812      620658.65      85.594267      85.153807      85.153807    
     94000   740.67739     -126922.96     -123859.38      1586.4912      620658.65      85.671947      85.115193      85.115193    
     95000   735.75426     -126964.34     -123921.12      1288.2704      620658.65      85.733387      85.084689      85.084689    
     96000   739.70713     -126949.33     -123889.75      1409.0284      620658.65      85.775903      85.0636        85.0636      
     97000   735.50332     -126965.5      -123923.32      1222.8763      620658.65      85.797635      85.052826      85.052826    
     98000   740.12084     -126957.93     -123896.65      1241.2381      620658.65      85.797635      85.052826      85.052826    
     99000   740.62183     -127004.52     -123941.16      1049.9254      620658.65      85.775903      85.0636        85.0636      
    100000   741.59616     -126973.43     -123906.05      1283.319       620658.65      85.733387      85.084689      85.084689    
    101000   740.86353     -126971.56     -123907.21      1151.5876      620658.65      85.671947      85.115193      85.115193    
    102000   735.77174     -126952.6      -123909.31      1434.6942      620658.65      85.594267      85.153807      85.153807    
    103000   744.1439      -126966.51     -123888.58      1572.7748      620658.65      85.503743      85.198872      85.198872    
    104000   740.67768     -126992.37     -123928.78      965.40755      620658.65      85.40433       85.248444      85.248444    
    105000   734.66195     -126953.66     -123914.95      1293.2185      620658.65      85.300374      85.300374      85.300374    
    106000   743.49741     -126961.3      -123886.05      1379.1816      620658.65      85.196419      85.3524        85.3524      
    107000   737.84472     -126942.05     -123890.18      1500.7009      620658.65      85.097006      85.402241      85.402241    
    108000   750.63364     -126964.73     -123859.96      1185.4005      620658.65      85.006482      85.447702      85.447702    
    109000   740.27339     -126970.67     -123908.76      1347.7782      620658.65      84.928802      85.48677       85.48677     
    110000   739.42684     -126997.61     -123939.2       897.61524      620658.65      84.867362      85.517709      85.517709    
    111000   742.70562     -126965.75     -123893.78      1189.3974      620658.65      84.824846      85.539137      85.539137    
    112000   736.14451     -126974.53     -123929.69      958.0153       620658.65      84.803114      85.550097      85.550097    
    113000   742.57601     -126957.23     -123885.79      1369.8906      620658.65      84.803114      85.550097      85.550097    
    114000   737.34475     -126977.32     -123927.52      1060.9178      620658.65      84.824846      85.539137      85.539137    
    115000   744.14268     -126954.67     -123876.75      1106.4639      620658.65      84.867362      85.517709      85.517709    
    116000   741.53721     -126951.49     -123884.35      1365.5298      620658.65      84.928802      85.48677       85.48677     
    117000   742.53706     -126992.84     -123921.56      1044.6348      620658.65      85.006482      85.447702      85.447702    
    118000   741.14825     -126989.31     -123923.77      979.22331      620658.65      85.097006      85.402241      85.402241    
    119000   737.40897     -126948.47     -123898.4       1429.5261      620658.65      85.196419      85.3524        85.3524      
    120000   738.60936     -126961.56     -123906.53      1229.9624      620658.65      85.300374      85.300374      85.300374    
    121000   733.85419     -126931.86     -123896.49      1624.1229      620658.65      85.40433       85.248444      85.248444    
    122000   744.48845     -126973.69     -123894.34      1123.3376      620658.65      85.503743      85.198872      85.198872    
    123000   736.57454     -126931.79     -123885.18      1593.6222      620658.65      85.594267      85.153807      85.153807    
    124000   742.22813     -126937.46     -123867.46      1395.7344      620658.65      85.671947      85.115193      85.115193    
    125000   738.5178      -126961.45     -123906.79      1200.3655      620658.65      85.733387      85.084689      85.084689    
    126000   741.24963     -126959.72     -123893.77      1213.0429      620658.65      85.775903      85.0636        85.0636      
    127000   735.03734     -126946.6      -123906.34      1363.5984      620658.65      85.797635      85.052826      85.052826    
    128000   735.18465     -126950.31     -123909.44      1342.5389      620658.65      85.797635      85.052826      85.052826    
    129000   741.87836     -126923.93     -123855.37      1534.1774      620658.65      85.775903      85.0636        85.0636      
    130000   743.23254     -126926.53     -123852.38      1493.5487      620658.65      85.733387      85.084689      85.084689    
    131000   743.05718     -126932.36     -123858.93      1578.4858      620658.65      85.671947      85.115193      85.115193    
    132000   744.74552     -126931.24     -123850.82      1460.0369      620658.65      85.594267      85.153807      85.153807    
    133000   740.85867     -126946.78     -123882.45      1346.9503      620658.65      85.503743      85.198872      85.198872    
    134000   743.03339     -126962.69     -123889.36      1262.7297      620658.65      85.40433       85.248444      85.248444    
    135000   736.93624     -126946.31     -123898.2       1128.5061      620658.65      85.300374      85.300374      85.300374    
    136000   740.87958     -126928.22     -123863.8       1498.4386      620658.65      85.196419      85.3524        85.3524      
    137000   737.6918      -126910.27     -123859.03      1641.98        620658.65      85.097006      85.402241      85.402241    
    138000   737.16788     -126927.61     -123878.54      1485.3554      620658.65      85.006482      85.447702      85.447702    
    139000   741.4101      -126937.79     -123871.18      1544.0665      620658.65      84.928802      85.48677       85.48677     
    140000   741.00653     -126935.28     -123870.34      1586.4451      620658.65      84.867362      85.517709      85.517709    
    141000   739.28063     -126962.53     -123904.72      1163.2106      620658.65      84.824846      85.539137      85.539137    
    142000   742.03158     -126952.65     -123883.46      1479.7114      620658.65      84.803114      85.550097      85.550097    
    143000   737.861       -127001.53     -123949.59      788.49169      620658.65      84.803114      85.550097      85.550097    
    144000   738.21753     -126937.37     -123883.96      1494.2903      620658.65      84.824846      85.539137      85.539137    
    145000   735.69856     -126918.58     -123875.59      1792.5442      620658.65      84.867362      85.517709      85.517709    
    146000   735.36573     -126936.9      -123895.28      1551.3849      620658.65      84.928802      85.48677       85.48677     
    147000   739.88763     -126939.71     -123879.39      1435.5093      620658.65      85.006482      85.447702      85.447702    
    148000   736.55719     -126954.35     -123907.8       1454.7375      620658.65      85.097006      85.402241      85.402241    
    149000   743.72028     -126957.91     -123881.73      1552.1303      620658.65      85.196419      85.3524        85.3524      
    150000   738.10941     -126935.2      -123882.24      1286.3948      620658.65      85.300374      85.300374      85.300374    
    151000   738.04017     -126973.34     -123920.67      1091.2975      620658.65      85.40433       85.248444      85.248444    
    152000   745.68365     -126947.78     -123863.48      1463.3047      620658.65      85.503743      85.198872      85.198872    
    153000   737.94024     -126933.83     -123881.56      1500.4867      620658.65      85.594267      85.153807      85.153807    
    154000   740.76422     -126933.35     -123869.4       1306.9432      620658.65      85.671947      85.115193      85.115193    
    155000   740.62752     -126957.31     -123893.93      1251.1307      620658.65      85.733387      85.084689      85.084689    
    156000   735.82467     -126957.48     -123913.97      1185.3306      620658.65      85.775903      85.0636        85.0636      
    157000   737.01568     -126937.82     -123889.38      1376.8947      620658.65      85.797635      85.052826      85.052826    
    158000   740.53005     -126953.42     -123890.45      1319.6119      620658.65      85.797635      85.052826      85.052826    
    159000   741.76628     -126949.43     -123881.34      1342.619       620658.65      85.775903      85.0636        85.0636      
    160000   738.96759     -126953.56     -123897.05      1168.9125      620658.65      85.733387      85.084689      85.084689    
    161000   736.48942     -126973.06     -123926.8       1034.9604      620658.65      85.671947      85.115193      85.115193    
    162000   744.27914     -126960.08     -123881.59      1218.6871      620658.65      85.594267      85.153807      85.153807    
    163000   737.93743     -126958.49     -123906.24      1171.3831      620658.65      85.503743      85.198872      85.198872    
    164000   743.70659     -126946.42     -123870.31      1346.4544      620658.65      85.40433       85.248444      85.248444    
    165000   738.43717     -126919.74     -123865.42      1476.2444      620658.65      85.300374      85.300374      85.300374    
    166000   741.08544     -126964.95     -123899.67      1357.731       620658.65      85.196419      85.3524        85.3524      
    167000   743.52904     -126930.4      -123855.02      1497.9248      620658.65      85.097006      85.402241      85.402241    
    168000   744.08143     -126933.4      -123855.74      1507.2362      620658.65      85.006482      85.447702      85.447702    
    169000   741.23571     -126974.27     -123908.37      1171.0713      620658.65      84.928802      85.48677       85.48677     
    170000   733.98101     -126957.86     -123921.97      1424.3074      620658.65      84.867362      85.517709      85.517709    
    171000   735.50125     -126917.6      -123875.43      1554.549       620658.65      84.824846      85.539137      85.539137    
    172000   742.64136     -126933.74     -123862.03      1506.9854      620658.65      84.803114      85.550097      85.550097    
    173000   741.1667      -126949.86     -123884.25      1405.0682      620658.65      84.803114      85.550097      85.550097    
    174000   743.86223     -126979.07     -123902.31      1179.4087      620658.65      84.824846      85.539137      85.539137    
    175000   739.88822     -126922.03     -123861.71      1705.7002      620658.65      84.867362      85.517709      85.517709    
    176000   741.35476     -126961.3      -123894.91      1309.3284      620658.65      84.928802      85.48677       85.48677     
    177000   738.98415     -126935.52     -123878.93      1322.4129      620658.65      85.006482      85.447702      85.447702    
    178000   739.252       -126939.82     -123882.13      1616.2904      620658.65      85.097006      85.402241      85.402241    
    179000   739.95327     -126932.38     -123871.79      1725.3518      620658.65      85.196419      85.3524        85.3524      
    180000   740.55133     -126925.91     -123862.85      1622.2001      620658.65      85.300374      85.300374      85.300374    
    181000   739.13184     -126946.44     -123889.24      1474.0189      620658.65      85.40433       85.248444      85.248444    
    182000   741.21624     -126909.48     -123843.67      1616.0623      620658.65      85.503743      85.198872      85.198872    
    183000   739.60524     -126943.74     -123884.59      1380.789       620658.65      85.594267      85.153807      85.153807    
    184000   745.68024     -126958.21     -123873.93      1183.489       620658.65      85.671947      85.115193      85.115193    
    185000   742.91727     -126953.64     -123880.79      1350.1057      620658.65      85.733387      85.084689      85.084689    
    186000   734.22991     -126942.63     -123905.71      1423.5012      620658.65      85.775903      85.0636        85.0636      
    187000   737.84735     -126957.07     -123905.19      1128.3512      620658.65      85.797635      85.052826      85.052826    
    188000   738.65191     -126946.19     -123890.98      1447.8474      620658.65      85.797635      85.052826      85.052826    
    189000   739.58604     -126930.14     -123871.07      1535.281       620658.65      85.775903      85.0636        85.0636      
    190000   741.29528     -126954.91     -123888.77      1234.0171      620658.65      85.733387      85.084689      85.084689    
    191000   743.44241     -126973.92     -123898.9       1023.1137      620658.65      85.671947      85.115193      85.115193    
    192000   742.98804     -126960.98     -123887.83      1244.0016      620658.65      85.594267      85.153807      85.153807    
    193000   742.0728      -126954.28     -123884.92      1337.0599      620658.65      85.503743      85.198872      85.198872    
    194000   735.26492     -126955.75     -123914.55      1153.572       620658.65      85.40433       85.248444      85.248444    
    195000   735.26335     -126920.41     -123879.21      1561.0291      620658.65      85.300374      85.300374      85.300374    
    196000   737.65282     -126940.9      -123889.83      1379.0905      620658.65      85.196419      85.3524        85.3524      
    197000   742.68451     -126953.96     -123882.07      1384.1718      620658.65      85.097006      85.402241      85.402241    
    198000   737.8812      -126940.57     -123888.55      1477.8694      620658.65      85.006482      85.447702      85.447702    
    199000   742.8025      -126925.57     -123853.19      1338.8564      620658.65      84.928802      85.48677       85.48677     
    200000   741.90953     -126962.4      -123893.72      1415.3861      620658.65      84.867362      85.517709      85.517709    
    201000   744.0439      -126950.35     -123872.84      1381.67        620658.65      84.824846      85.539137      85.539137    
    202000   737.23471     -126942.11     -123892.76      1459.9344      620658.65      84.803114      85.550097      85.550097    
    203000   738.78529     -126941.74     -123885.98      1345.0835      620658.65      84.803114      85.550097      85.550097    
    204000   739.39042     -126939.75     -123881.48      1494.9942      620658.65      84.824846      85.539137      85.539137    
    205000   740.20009     -126910.82     -123849.21      1378.6177      620658.65      84.867362      85.517709      85.517709    
    206000   738.09569     -126933.7      -123880.79      1216.1127      620658.65      84.928802      85.48677       85.48677     
    207000   745.73707     -126913.44     -123828.92      1694.0933      620658.65      85.006482      85.447702      85.447702    
    208000   731.97295     -126952.65     -123925.07      1213.4382      620658.65      85.097006      85.402241      85.402241    
    209000   741.9057      -126915.23     -123846.56      1454.3988      620658.65      85.196419      85.3524        85.3524      
    210000   739.32311     -126933.61     -123875.62      1372.8551      620658.65      85.300374      85.300374      85.300374    
    211000   741.27572     -126930.3      -123864.24      1421.1269      620658.65      85.40433       85.248444      85.248444    
    212000   736.03933     -126942.18     -123897.77      1363.3638      620658.65      85.503743      85.198872      85.198872    
    213000   737.30554     -126956.01     -123906.37      1303.4456      620658.65      85.594267      85.153807      85.153807    
    214000   738.01508     -126942.74     -123890.17      1450.8974      620658.65      85.671947      85.115193      85.115193    
    215000   744.67212     -126968.35     -123888.25      1197.2277      620658.65      85.733387      85.084689      85.084689    
    216000   734.42477     -126936.24     -123898.52      1337.9484      620658.65      85.775903      85.0636        85.0636      
    217000   749.45532     -126958.1      -123858.21      1317.9747      620658.65      85.797635      85.052826      85.052826    
    218000   740.9926      -126947.56     -123882.67      1435.8729      620658.65      85.797635      85.052826      85.052826    
    219000   734.01525     -126962.83     -123926.8       1242.8661      620658.65      85.775903      85.0636        85.0636      
    220000   742.78821     -126948.71     -123876.4       1509.006       620658.65      85.733387      85.084689      85.084689    
    221000   741.69597     -126922.41     -123854.61      1523.2903      620658.65      85.671947      85.115193      85.115193    
    222000   735.49752     -126929.95     -123887.79      1530.1678      620658.65      85.594267      85.153807      85.153807    
    223000   741.09838     -126943.42     -123878.09      1352.3496      620658.65      85.503743      85.198872      85.198872    
    224000   743.93359     -126977.04     -123899.99      992.54144      620658.65      85.40433       85.248444      85.248444    
    225000   741.15811     -126962.52     -123896.95      1104.0095      620658.65      85.300374      85.300374      85.300374    
    226000   745.37161     -126942.25     -123859.25      1485.4506      620658.65      85.196419      85.3524        85.3524      
    227000   740.79872     -127004.88     -123940.79      1027.2217      620658.65      85.097006      85.402241      85.402241    
    228000   739.93387     -126936.26     -123875.75      1684.6592      620658.65      85.006482      85.447702      85.447702    
    229000   740.74144     -126943.15     -123879.3       1641.0863      620658.65      84.928802      85.48677       85.48677     
    230000   741.00555     -126980.06     -123915.12      1078.7753      620658.65      84.867362      85.517709      85.517709    
    231000   737.02625     -126953.88     -123905.4       1295.2332      620658.65      84.824846      85.539137      85.539137    
    232000   744.54126     -126948.47     -123868.9       1426.6277      620658.65      84.803114      85.550097      85.550097    
    233000   743.21104     -126967.34     -123893.27      1364.9069      620658.65      84.803114      85.550097      85.550097    
    234000   743.52445     -126960.29     -123884.93      1473.6191      620658.65      84.824846      85.539137      85.539137    
    235000   739.00925     -126963.77     -123907.08      1295.5224      620658.65      84.867362      85.517709      85.517709    
    236000   742.05355     -126973.48     -123904.2       1293.576       620658.65      84.928802      85.48677       85.48677     
    237000   742.11737     -126912.36     -123842.82      1659.5394      620658.65      85.006482      85.447702      85.447702    
    238000   734.99518     -126961.12     -123921.04      1194.8221      620658.65      85.097006      85.402241      85.402241    
    239000   734.93664     -126935.6      -123895.76      1604.0464      620658.65      85.196419      85.3524        85.3524      
    240000   739.89157     -126937.87     -123877.53      1429.5714      620658.65      85.300374      85.300374      85.300374    
    241000   737.04014     -126944.98     -123896.44      1426.2107      620658.65      85.40433       85.248444      85.248444    
    242000   731.32294     -126952.57     -123927.68      1089.4937      620658.65      85.503743      85.198872      85.198872    
    243000   735.53931     -126972.2      -123929.87      1236.3496      620658.65      85.594267      85.153807      85.153807    
    244000   736.96481     -126944.12     -123895.89      1427.6883      620658.65      85.671947      85.115193      85.115193    
    245000   745.8314      -126982.39     -123897.49      1105.9093      620658.65      85.733387      85.084689      85.084689    
    246000   736.4697      -126931.69     -123885.51      1466.372       620658.65      85.775903      85.0636        85.0636      
    247000   747.20699     -126959.55     -123868.95      1317.8103      620658.65      85.797635      85.052826      85.052826    
    248000   741.60573     -126928.58     -123861.16      1765.4324      620658.65      85.797635      85.052826      85.052826    
    249000   738.27331     -126930.18     -123876.54      1638.0895      620658.65      85.775903      85.0636        85.0636      
    250000   734.3795      -126945.97     -123908.43      1471.5607      620658.65      85.733387      85.084689      85.084689    
    251000   738.92804     -126947.64     -123891.29      1414.9752      620658.65      85.671947      85.115193      85.115193    
    252000   739.12256     -126988.88     -123931.73      1033.9432      620658.65      85.594267      85.153807      85.153807    
    253000   740.03624     -126936.64     -123875.7       1544.3733      620658.65      85.503743      85.198872      85.198872    
    254000   729.45764     -126968.62     -123951.44      1195.1089      620658.65      85.40433       85.248444      85.248444    
    255000   740.44288     -126951.86     -123889.24      1216.7638      620658.65      85.300374      85.300374      85.300374    
    256000   741.15945     -126941.84     -123876.25      1485.2046      620658.65      85.196419      85.3524        85.3524      
    257000   740.41753     -126975.68     -123913.17      1034.7049      620658.65      85.097006      85.402241      85.402241    
    258000   737.83819     -126950.92     -123899.07      1321.6173      620658.65      85.006482      85.447702      85.447702    
    259000   739.00607     -126948.58     -123891.91      1551.8182      620658.65      84.928802      85.48677       85.48677     
    260000   738.74681     -126977.38     -123921.77      1164.0926      620658.65      84.867362      85.517709      85.517709    
    261000   733.69776     -126975.05     -123940.33      1273.141       620658.65      84.824846      85.539137      85.539137    
    262000   739.71221     -126971.77     -123912.17      1139.5305      620658.65      84.803114      85.550097      85.550097    
    263000   739.32578     -126926.61     -123868.62      1736.3203      620658.65      84.803114      85.550097      85.550097    
    264000   746.38825     -126958.09     -123870.88      1291.6459      620658.65      84.824846      85.539137      85.539137    
    265000   739.93962     -126935.22     -123874.69      1400.3028      620658.65      84.867362      85.517709      85.517709    
    266000   743.49837     -126991.36     -123916.11      998.31424      620658.65      84.928802      85.48677       85.48677     
    267000   745.95353     -126973.82     -123888.41      1183.0264      620658.65      85.006482      85.447702      85.447702    
    268000   743.93577     -126975.58     -123898.52      1209.6875      620658.65      85.097006      85.402241      85.402241    
    269000   742.69263     -126952.08     -123880.16      1472.4647      620658.65      85.196419      85.3524        85.3524      
    270000   739.113       -126952.86     -123895.75      1268.0806      620658.65      85.300374      85.300374      85.300374    
    271000   747.8668      -126947.53     -123854.2       1584.7047      620658.65      85.40433       85.248444      85.248444    
    272000   738.93507     -126941.53     -123885.15      1492.6186      620658.65      85.503743      85.198872      85.198872    
    273000   738.96961     -126913.51     -123856.99      1602.6928      620658.65      85.594267      85.153807      85.153807    
    274000   737.32742     -126961.93     -123912.2       1176.184       620658.65      85.671947      85.115193      85.115193    
    275000   735.07159     -126935.76     -123895.36      1321.2764      620658.65      85.733387      85.084689      85.084689    
    276000   743.09673     -126945.73     -123872.14      1458.8773      620658.65      85.775903      85.0636        85.0636      
    277000   744.44422     -126941.64     -123862.48      1560.4919      620658.65      85.797635      85.052826      85.052826    
    278000   739.61923     -126949.96     -123890.75      1328.6247      620658.65      85.797635      85.052826      85.052826    
    279000   742.09525     -126971.98     -123902.53      1185.3048      620658.65      85.775903      85.0636        85.0636      
    280000   740.06899     -126959.89     -123898.82      1114.7924      620658.65      85.733387      85.084689      85.084689    
    281000   737.29077     -126949.81     -123900.23      1401.2636      620658.65      85.671947      85.115193      85.115193    
    282000   741.55058     -126954.57     -123887.37      1205.8958      620658.65      85.594267      85.153807      85.153807    
    283000   740.35749     -126937.04     -123874.77      1314.8906      620658.65      85.503743      85.198872      85.198872    
    284000   742.72198     -126930.81     -123858.77      1442.9608      620658.65      85.40433       85.248444      85.248444    
    285000   736.94264     -126946.73     -123898.6       1352.6027      620658.65      85.300374      85.300374      85.300374    
    286000   738.83183     -126949.03     -123893.08      1313.0553      620658.65      85.196419      85.3524        85.3524      
    287000   735.37007     -126950.46     -123908.83      1154.7016      620658.65      85.097006      85.402241      85.402241    
    288000   736.90675     -126975.08     -123927.09      977.83737      620658.65      85.006482      85.447702      85.447702    
    289000   740.02891     -126929.23     -123868.33      1510.7568      620658.65      84.928802      85.48677       85.48677     
    290000   741.91804     -126949.07     -123880.35      1479.8951      620658.65      84.867362      85.517709      85.517709    
    291000   742.85842     -126958.56     -123885.95      1251.0675      620658.65      84.824846      85.539137      85.539137    
    292000   741.45448     -126971.97     -123905.17      1290.7525      620658.65      84.803114      85.550097      85.550097    
    293000   746.56381     -126992.61     -123904.68      1118.1209      620658.65      84.803114      85.550097      85.550097    
    294000   737.76651     -126941.84     -123890.29      1301.4996      620658.65      84.824846      85.539137      85.539137    
    295000   735.47171     -126931.66     -123889.61      1408.5339      620658.65      84.867362      85.517709      85.517709    
    296000   742.67157     -126921.16     -123849.33      1505.943       620658.65      84.928802      85.48677       85.48677     
    297000   738.97191     -126950.58     -123894.04      1367.9636      620658.65      85.006482      85.447702      85.447702    
    298000   737.88478     -126953.02     -123900.99      1215.4946      620658.65      85.097006      85.402241      85.402241    
    299000   737.59765     -126938.3      -123887.45      1309.1219      620658.65      85.196419      85.3524        85.3524      
    300000   738.00931     -126950.74     -123898.19      1383.2921      620658.65      85.300374      85.300374      85.300374    
Loop time of 1220.84 on 48 procs for 300000 steps with 32000 atoms

Performance: 212.313 ns/day, 0.113 hours/ns, 245.733 timesteps/s
99.3% CPU use with 48 MPI tasks x 1 OpenMP threads

MPI task timing breakdown:
Section |  min time  |  avg time  |  max time  |%varavg| %total
---------------------------------------------------------------
Pair    | 995.72     | 1017.6     | 1053.7     |  46.5 | 83.35
Neigh   | 72.205     | 74.806     | 77.551     |  16.9 |  6.13
Comm    | 48.848     | 84.889     | 109.37     | 164.8 |  6.95
Output  | 0.084292   | 0.086051   | 0.14829    |   3.1 |  0.01
Modify  | 34.884     | 39.674     | 51.232     |  73.5 |  3.25
Other   |            | 3.786      |            |       |  0.31

Nlocal:        666.667 ave         681 max         651 min
Histogram: 2 0 5 5 11 8 4 8 1 4
Nghost:         3592.1 ave        3626 max        3553 min
Histogram: 1 1 6 6 8 6 9 4 3 4
Neighs:        71551.1 ave       74210 max       69126 min
Histogram: 4 2 8 4 7 5 11 3 2 2

Total # of neighbors = 3434454
Ave neighs/atom = 107.32669
Neighbor list builds = 57749
Dangerous builds = 0
clear
OMP_NUM_THREADS environment is not set. Defaulting to 1 thread. (src/comm.cpp:98)
  using 1 OpenMP thread(s) per MPI task
Open of file /opt/app/anaconda3/envs/deepmd/lib/deepmd_lmp/dpplugin.so failed: libdeepmd_cc.so: cannot open shared object file: No such file or directory
Loaded 0 plugins from /opt/app/anaconda3/envs/deepmd/lib/deepmd_lmp
Loaded 0 plugins from 
package intel 1
jump dms720.lmp
#MD-DMS by Ha-Bin Yu
variable T equal 720
log log.${T}
log log.720
