ITEM: TIMESTEP
0
ITEM: NUMBER OF ATOMS
7200
ITEM: BOX BOUNDS xy xz yz pp pp pp
0.0000000000000000e+00 2.1900000000000000e+02 0.0000000000000000e+00
0.0000000000000000e+00 2.1900000000000000e+02 0.0000000000000000e+00
-3.6499999999999999e-01 3.6499999999999999e-01 0.0000000000000000e+00
ITEM: ATOMS id type x y z
1 1 182.876 12.934 -4.05231e-17
2 2 188.34 183.547 -4.05231e-17
3 2 144.79 189.594 -4.05231e-17
4 1 123.142 110.308 -4.05231e-17
5 1 101.126 122.638 -4.05231e-17
6 1 104.688 25.1921 -4.05231e-17
7 2 158.592 128.777 -4.05231e-17
8 2 70.0308 25.6462 -4.05231e-17
9 1 21.8667 214.957 -4.05231e-17
10 2 52.354 166.828 -4.05231e-17
11 2 210.364 99.8816 -4.05231e-17
12 1 33.7788 197.805 -4.05231e-17
13 2 194.336 53.8024 -4.05231e-17
14 1 57.6846 184.615 -4.05231e-17
15 2 193.301 218.969 -4.05231e-17
16 2 218.505 85.3936 -4.05231e-17
17 1 67.7591 74.4779 -4.05231e-17
18 2 10.4402 172.48 -4.05231e-17
19 1 92.6631 130.375 -4.05231e-17
20 1 72.5837 10.8413 -4.05231e-17
21 1 156.721 7.42306 -4.05231e-17
22 2 31.8703 212.649 -4.05231e-17
23 2 43.2317 208.56 -4.05231e-17
24 2 218.542 102.95 -4.05231e-17
25 2 30.0887 207.627 -4.05231e-17
26 2 149.528 27.7586 -4.05231e-17
27 1 217.452 162.37 -4.05231e-17
28 2 54.372 154.91 -4.05231e-17
29 2 83.7605 4.09378 -4.05231e-17
30 2 132.231 37.8067 -4.05231e-17
31 2 156.726 83.854 -4.05231e-17
32 1 48.199 108.606 -4.05231e-17
33 2 145.282 87.4078 -4.05231e-17
34 2 16.2078 96.2781 -4.05231e-17
35 2 127.032 11.4535 -4.05231e-17
36 1 160.324 146.573 -4.05231e-17
37 1 133.29 185.122 -4.05231e-17
38 2 209.129 157.874 -4.05231e-17
39 1 8.01724 38.071 -4.05231e-17
40 2 196.357 73.3267 -4.05231e-17
41 1 192.8 73.0715 -4.05231e-17
42 1 54.8202 58.8438 -4.05231e-17
43 1 210.414 132.139 -4.05231e-17
44 1 155.325 188.758 -4.05231e-17
45 2 159.367 61.0466 -4.05231e-17
46 1 124.211 192.473 -4.05231e-17
47 2 88.901 80.3956 -4.05231e-17
48 2 150.406 129.543 -4.05231e-17
49 1 194.397 200.179 -4.05231e-17
50 2 29.2222 47.4375 -4.05231e-17
51 1 186.463 3.28322 -4.05231e-17
52 1 115.648 47.97 -4.05231e-17
53 2 55.2168 201.205 -4.05231e-17
54 1 38.7834 16.6346 -4.05231e-17
55 2 53.2854 141.542 -4.05231e-17
56 1 31.5099 132.42 -4.05231e-17
57 2 58.3889 133.861 -4.05231e-17
58 1 183.933 33.4104 -4.05231e-17
59 1 157.64 86.1717 -4.05231e-17
60 2 206.199 59.1466 -4.05231e-17
61 1 157.225 164.623 -4.05231e-17
62 1 106.858 111.728 -4.05231e-17
63 2 108.895 38.984 -4.05231e-17
64 1 28.1716 18.1159 -4.05231e-17
65 2 152.584 149.397 -4.05231e-17
66 2 13.0814 154.803 -4.05231e-17
67 2 182.972 107.379 -4.05231e-17
68 1 136.941 83.2545 -4.05231e-17
69 2 109.633 168.572 -4.05231e-17
70 1 141.922 98.118 -4.05231e-17
71 1 197.967 147.69 -4.05231e-17
72 2 44.9147 157.417 -4.05231e-17
73 2 191.924 179.513 -4.05231e-17
74 2 111.666 67.1438 -4.05231e-17
75 1 14.2645 136.742 -4.05231e-17
76 2 137.795 206.598 -4.05231e-17
77 2 168.645 15.797 -4.05231e-17
78 1 93.1367 208.174 -4.05231e-17
79 2 60.9177 75.8024 -4.05231e-17
80 1 49.9029 23.0961 -4.05231e-17
81 1 181.895 211.266 -4.05231e-17
82 1 173.105 41.1939 -4.05231e-17
83 1 71.133 91.2481 -4.05231e-17
84 2 141.017 179.667 -4.05231e-17
85 2 151.114 146.111 -4.05231e-17
86 2 51.0314 68.0655 -4.05231e-17
87 2 38.7063 75.7275 -4.05231e-17
88 1 80.5043 157.42 -4.05231e-17
89 2 199.814 105.222 -4.05231e-17
90 2 126.285 36.6217 -4.05231e-17
91 2 11.3789 182.675 -4.05231e-17
92 1 27.5679 215.49 -4.05231e-17
93 2 110.211 154.627 -4.05231e-17
94 2 112.554 144.285 -4.05231e-17
95 1 211.534 51.4753 -4.05231e-17
96 2 31.8497 54.62 -4.05231e-17
97 2 4.41518 211.699 -4.05231e-17
98 2 35.6606 185.548 -4.05231e-17
99 1 104.993 9.47723 -4.05231e-17
100 2 158.839 65.6486 -4.05231e-17
101 1 184.311 109.735 -4.05231e-17
102 1 66.3188 164.092 -4.05231e-17
103 2 204.966 100.092 -4.05231e-17
104 2 104.183 73.4588 -4.05231e-17
105 1 160.866 58.6957 -4.05231e-17
106 1 185.117 60.2839 -4.05231e-17
107 1 12.2395 107.051 -4.05231e-17
108 1 70.2001 210.047 -4.05231e-17
109 2 217.544 39.1303 -4.05231e-17
110 2 144.938 29.7056 -4.05231e-17
111 1 53.0131 92.5876 -4.05231e-17
112 2 8.51336 50.7612 -4.05231e-17
113 1 134.82 10.8673 -4.05231e-17
114 1 92.2207 86.7605 -4.05231e-17
115 2 32.3031 59.8655 -4.05231e-17
116 2 184.196 15.4582 -4.05231e-17
117 1 163.081 110.239 -4.05231e-17
118 1 82.7801 94.4615 -4.05231e-17
119 2 98.9649 139.439 -4.05231e-17
120 2 201.043 58.6784 -4.05231e-17
121 1 205.109 139.164 -4.05231e-17
122 2 143.36 129.836 -4.05231e-17
123 2 6.81662 129.642 -4.05231e-17
124 1 161.021 200.021 -4.05231e-17
125 1 88.293 192.962 -4.05231e-17
126 2 97.6345 83.8973 -4.05231e-17
127 2 208.902 110.748 -4.05231e-17
128 1 121.789 105.247 -4.05231e-17
129 1 144.232 194.511 -4.05231e-17
130 2 120.306 61.415 -4.05231e-17
131 1 133.91 60.3387 -4.05231e-17
132 1 139.344 22.0928 -4.05231e-17
133 1 181.009 105.355 -4.05231e-17
134 1 81.415 191.52 -4.05231e-17
135 2 177.661 61.2112 -4.05231e-17
136 1 190.52 118.634 -4.05231e-17
137 1 60.8212 7.59677 -4.05231e-17
138 2 156.264 159.009 -4.05231e-17
139 1 132.487 12.1117 -4.05231e-17
140 1 144.713 208.421 -4.05231e-17
141 1 51.2941 70.7594 -4.05231e-17
142 1 213.192 190.801 -4.05231e-17
143 1 26.3022 26.0997 -4.05231e-17
144 1 46.544 97.754 -4.05231e-17
145 2 193.245 80.0967 -4.05231e-17
146 1 153.571 125.945 -4.05231e-17
147 2 16.1985 134.595 -4.05231e-17
148 1 24.5442 133.234 -4.05231e-17
149 1 147.628 190.422 -4.05231e-17
150 2 65.6557 52.2343 -4.05231e-17
151 1 132.407 138.301 -4.05231e-17
152 1 164.109 163.515 -4.05231e-17
153 2 123.885 130.531 -4.05231e-17
154 1 183.92 52.8054 -4.05231e-17
155 2 203.197 39.9538 -4.05231e-17
156 2 109.372 196.728 -4.05231e-17
157 2 166.146 28.828 -4.05231e-17
158 2 27.78 7.64597 -4.05231e-17
159 2 12.0247 158.617 -4.05231e-17
160 2 120.695 54.9872 -4.05231e-17
161 2 129.774 138.675 -4.05231e-17
162 1 23.922 66.4191 -4.05231e-17
163 1 188.815 33.9082 -4.05231e-17
164 2 108.099 134.541 -4.05231e-17
165 1 49.2372 72.2949 -4.05231e-17
166 2 6.0673 200.049 -4.05231e-17
167 1 107.242 168.108 -4.05231e-17
168 1 211.143 102.655 -4.05231e-17
169 2 98.2338 199.727 -4.05231e-17
170 1 66.2734 206.49 -4.05231e-17
171 1 137.489 92.4578 -4.05231e-17
172 1 199.468 199.858 -4.05231e-17
173 1 38.9006 204.379 -4.05231e-17
174 2 38.5857 173.236 -4.05231e-17
175 2 49.951 200.088 -4.05231e-17
176 1 119.79 151.64 -4.05231e-17
177 2 105.051 15.1459 -4.05231e-17
178 1 25.2184 7.56277 -4.05231e-17
179 2 106.507 197.406 -4.05231e-17
180 1 47.5737 76.6691 -4.05231e-17
181 1 15.9582 119.424 -4.05231e-17
182 1 113.807 86.3952 -4.05231e-17
183 1 64.0022 168.604 -4.05231e-17
184 2 157.525 25.4364 -4.05231e-17
185 2 190.263 78.5996 -4.05231e-17
186 2 74.4333 206.161 -4.05231e-17
187 2 159.076 201.939 -4.05231e-17
188 2 60.4202 28.6256 -4.05231e-17
189 1 191.281 57.6815 -4.05231e-17
190 1 196.423 55.1133 -4.05231e-17
191 2 35.4028 104.494 -4.05231e-17
192 2 89.7066 60.118 -4.05231e-17
193 1 108.534 165.838 -4.05231e-17
194 1 26.7279 5.37527 -4.05231e-17
195 2 58.113 119.965 -4.05231e-17
196 1 0.0579844 218.79 -4.05231e-17
197 2 119.226 50.561 -4.05231e-17
198 2 206.17 27.2412 -4.05231e-17
199 2 99.5284 170.629 -4.05231e-17
200 2 99.1285 30.9513 -4.05231e-17
201 2 103.403 121.193 -4.05231e-17
202 1 43.5304 34.0637 -4.05231e-17
203 1 18.4303 42.9664 -4.05231e-17
204 2 45.3977 78.5872 -4.05231e-17
205 2 183.295 182.308 -4.05231e-17
206 2 170.574 127.151 -4.05231e-17
207 1 74.6001 189.181 -4.05231e-17
208 2 134.97 54.5996 -4.05231e-17
209 2 32.987 142.46 -4.05231e-17
210 1 182.233 113.012 -4.05231e-17
211 1 208.27 35.4888 -4.05231e-17
212 1 208.226 84.9204 -4.05231e-17
213 1 128.134 124.083 -4.05231e-17
214 2 12.2094 11.448 -4.05231e-17
215 1 5.35311 142.263 -4.05231e-17
216 1 54.8759 46.6506 -4.05231e-17
217 1 164.318 61.7743 -4.05231e-17
218 2 201.145 121.134 -4.05231e-17
219 2 136.298 189.651 -4.05231e-17
220 1 121.163 1.50197 -4.05231e-17
221 2 83.2556 7.01203 -4.05231e-17
222 1 158.404 157.499 -4.05231e-17
223 1 45.995 120.458 -4.05231e-17
224 2 146.052 71.1675 -4.05231e-17
225 2 168.986 164.151 -4.05231e-17
226 1 196.355 10.4752 -4.05231e-17
227 2 203.506 214.764 -4.05231e-17
228 2 117.979 63.6494 -4.05231e-17
229 1 47.3106 22.8979 -4.05231e-17
230 1 4.59817 56.8602 -4.05231e-17
231 2 137.808 160.963 -4.05231e-17
232 1 17.9487 212.728 -4.05231e-17
233 2 75.6819 195.712 -4.05231e-17
234 1 0.519433 59.6484 -4.05231e-17
235 1 150.095 106.219 -4.05231e-17
236 2 153.135 52.9674 -4.05231e-17
237 2 99.3753 204.346 -4.05231e-17
238 2 94.7276 140.419 -4.05231e-17
239 1 35.2674 216.981 -4.05231e-17
240 1 129.727 90.8666 -4.05231e-17
241 2 3.42717 124.279 -4.05231e-17
242 1 194.102 28.2935 -4.05231e-17
243 2 214.848 130.258 -4.05231e-17
244 2 35.832 191.1 -4.05231e-17
245 1 174.002 21.2915 -4.05231e-17
246 2 90.0152 85.2501 -4.05231e-17
247 2 198.612 150.522 -4.05231e-17
248 1 37.962 26.9012 -4.05231e-17
249 1 131.921 108.41 -4.05231e-17
250 1 134.6 28.0422 -4.05231e-17
251 2 102.104 43.3774 -4.05231e-17
252 1 111.017 157.081 -4.05231e-17
253 2 96.0362 97.9936 -4.05231e-17
254 2 179.288 205.344 -4.05231e-17
255 2 122.463 50.0753 -4.05231e-17
256 1 3.33795 180.208 -4.05231e-17
257 2 32.4849 195.342 -4.05231e-17
258 1 210.794 81.0651 -4.05231e-17
259 2 160.874 141.424 -4.05231e-17
260 1 40.2635 192.856 -4.05231e-17
261 2 143.049 177.253 -4.05231e-17
262 2 187.074 110.164 -4.05231e-17
263 2 94.2796 172.907 -4.05231e-17
264 1 199.249 36.3671 -4.05231e-17
265 1 157.565 187.149 -4.05231e-17
266 1 98.7385 197.111 -4.05231e-17
267 2 115.659 16.4118 -4.05231e-17
268 1 218.527 48.8336 -4.05231e-17
269 2 10.0057 113.587 -4.05231e-17
270 2 185.605 148.708 -4.05231e-17
271 2 187.537 94.7027 -4.05231e-17
272 1 59.3619 26.2065 -4.05231e-17
273 1 70.4501 83.6051 -4.05231e-17
274 1 38.1162 196.638 -4.05231e-17
275 1 147 110.223 -4.05231e-17
276 1 198.956 74.6029 -4.05231e-17
277 1 100.743 37.8657 -4.05231e-17
278 2 61.1369 145.643 -4.05231e-17
279 2 160.185 86.4891 -4.05231e-17
280 1 117.193 210.975 -4.05231e-17
281 2 170.076 182.27 -4.05231e-17
282 2 75.36 127.218 -4.05231e-17
283 2 218.729 151.121 -4.05231e-17
284 1 126.138 113.641 -4.05231e-17
285 1 73.4207 165.517 -4.05231e-17
286 2 30.2089 180.113 -4.05231e-17
287 2 93.4898 109.859 -4.05231e-17
288 1 104.534 123.675 -4.05231e-17
289 2 193.973 56.9045 -4.05231e-17
290 1 101.385 29.6135 -4.05231e-17
291 2 96.1669 186.239 -4.05231e-17
292 1 77.1055 125.392 -4.05231e-17
293 1 159.251 168.216 -4.05231e-17
294 1 29.8174 177.719 -4.05231e-17
295 2 46.7539 145.708 -4.05231e-17
296 1 197.058 176.622 -4.05231e-17
297 1 2.10337 18.1698 -4.05231e-17
298 2 30.6377 140.713 -4.05231e-17
299 1 177.18 55.9043 -4.05231e-17
300 2 190.42 192.881 -4.05231e-17
301 2 172.054 19.4715 -4.05231e-17
302 2 163.744 89.2655 -4.05231e-17
303 1 2.09682 151.638 -4.05231e-17
304 1 124.351 106.135 -4.05231e-17
305 1 92.0499 177.744 -4.05231e-17
306 2 84.0874 18.0337 -4.05231e-17
307 2 150.945 168.13 -4.05231e-17
308 2 142.048 22.5988 -4.05231e-17
309 1 71.1431 72.1729 -4.05231e-17
310 1 190.497 190.232 -4.05231e-17
311 1 150.998 108.749 -4.05231e-17
312 2 134.655 13.5276 -4.05231e-17
313 2 154.805 18.0163 -4.05231e-17
314 1 184.195 58.1526 -4.05231e-17
315 2 56.6776 107.723 -4.05231e-17
316 1 96.2909 30.9585 -4.05231e-17
317 1 132.985 176.131 -4.05231e-17
318 1 216.594 135.732 -4.05231e-17
319 2 74.4936 200.807 -4.05231e-17
320 1 213.898 47.8124 -4.05231e-17
321 1 52.4922 87.4806 -4.05231e-17
322 1 51.4594 148.019 -4.05231e-17
323 2 19.6817 138.516 -4.05231e-17
324 2 8.01595 95.3364 -4.05231e-17
325 2 216.14 13.502 -4.05231e-17
326 1 184.927 1.16613 -4.05231e-17
327 1 35.7281 45.9597 -4.05231e-17
328 2 32.7742 192.29 -4.05231e-17
329 2 28.717 83.5315 -4.05231e-17
330 2 153.472 38.9237 -4.05231e-17
331 2 187.944 67.7012 -4.05231e-17
332 2 121.604 114.631 -4.05231e-17
333 2 28.011 150.9 -4.05231e-17
334 2 215.869 17.8752 -4.05231e-17
335 1 167.086 211.158 -4.05231e-17
336 2 27.7033 141.704 -4.05231e-17
337 2 40.6692 9.7749 -4.05231e-17
338 1 203.244 90.2928 -4.05231e-17
339 2 14.9573 152.257 -4.05231e-17
340 2 177.009 214.642 -4.05231e-17
341 2 101.46 60.362 -4.05231e-17
342 2 173.44 166.633 -4.05231e-17
343 2 176.196 4.96211 -4.05231e-17
344 1 87.9122 105.718 -4.05231e-17
345 2 26.7741 213.13 -4.05231e-17
346 2 75.7643 72.6687 -4.05231e-17
347 1 147.798 98.4862 -4.05231e-17
348 1 181.325 3.9873 -4.05231e-17
349 2 173.439 70.2628 -4.05231e-17
350 2 77.8682 178.795 -4.05231e-17
351 1 174.913 141.74 -4.05231e-17
352 1 212.825 163.855 -4.05231e-17
353 2 141.141 131.648 -4.05231e-17
354 2 191.783 176.216 -4.05231e-17
355 1 215.791 157.305 -4.05231e-17
356 2 115.115 1.8618 -4.05231e-17
357 1 126.904 192.572 -4.05231e-17
358 1 78.2209 25.4087 -4.05231e-17
359 1 34.8338 144.125 -4.05231e-17
360 1 51.2638 8.58857 -4.05231e-17
361 2 196.268 68.1476 -4.05231e-17
362 2 172.297 94.6308 -4.05231e-17
363 1 78.8806 215.491 -4.05231e-17
364 2 216.769 46.6046 -4.05231e-17
365 1 5.85366 164.114 -4.05231e-17
366 1 82.7062 172.948 -4.05231e-17
367 1 161.322 103.94 -4.05231e-17
368 1 21.1308 164.421 -4.05231e-17
369 2 81.6604 143.639 -4.05231e-17
370 1 6.52444 132.355 -4.05231e-17
371 2 71.1067 111.688 -4.05231e-17
372 1 88.054 6.86858 -4.05231e-17
373 2 118.177 208.551 -4.05231e-17
374 2 176.921 101.636 -4.05231e-17
375 1 136.151 26.1969 -4.05231e-17
376 1 121.865 147.191 -4.05231e-17
377 2 95.2364 76.0324 -4.05231e-17
378 2 215.311 106.828 -4.05231e-17
379 2 169.375 187.376 -4.05231e-17
380 1 199.873 33.7169 -4.05231e-17
381 1 174.796 67.9554 -4.05231e-17
382 1 122.487 27.2659 -4.05231e-17
383 1 110.243 83.3998 -4.05231e-17
384 2 54.0979 101.176 -4.05231e-17
385 1 66.1328 148.76 -4.05231e-17
386 2 179.908 175.452 -4.05231e-17
387 1 34.5479 107.169 -4.05231e-17
388 1 143.984 164.182 -4.05231e-17
389 2 215.924 121.186 -4.05231e-17
390 1 104.972 65.9828 -4.05231e-17
391 1 203.211 217.385 -4.05231e-17
392 2 4.24841 100.397 -4.05231e-17
393 2 192.544 173.179 -4.05231e-17
394 1 36.3594 204.219 -4.05231e-17
395 1 19.2199 214.745 -4.05231e-17
396 2 75.5026 88.4169 -4.05231e-17
397 1 67.4618 41.7986 -4.05231e-17
398 2 165.801 110.782 -4.05231e-17
399 2 197.072 106.389 -4.05231e-17
400 2 123.711 69.0751 -4.05231e-17
401 2 84.1389 190.67 -4.05231e-17
402 1 84.346 42.9783 -4.05231e-17
403 1 69.4623 116.503 -4.05231e-17
404 2 113.213 13.7666 -4.05231e-17
405 1 49.1941 197.12 -4.05231e-17
406 2 216.994 95.2786 -4.05231e-17
407 1 123.748 78.7381 -4.05231e-17
408 1 130.206 29.6589 -4.05231e-17
409 2 214.149 116.147 -4.05231e-17
410 2 71.0392 159.113 -4.05231e-17
411 1 136.51 97.0509 -4.05231e-17
412 1 164.287 6.71541 -4.05231e-17
413 1 35.0261 85.9692 -4.05231e-17
414 2 193.393 202.547 -4.05231e-17
415 1 107.591 126.376 -4.05231e-17
416 1 175.958 51.8585 -4.05231e-17
417 2 107.175 128.939 -4.05231e-17
418 2 35.0081 179.678 -4.05231e-17
419 2 195.127 91.6828 -4.05231e-17
420 2 108.926 44.588 -4.05231e-17
421 1 70.3881 30.7247 -4.05231e-17
422 1 34.4181 58.4114 -4.05231e-17
423 2 116.66 125.147 -4.05231e-17
424 2 39.1161 24.7038 -4.05231e-17
425 2 117.22 150.561 -4.05231e-17
426 1 185.793 96.6918 -4.05231e-17
427 2 75.1262 60.5176 -4.05231e-17
428 1 29.4951 174.986 -4.05231e-17
429 2 131.42 150.19 -4.05231e-17
430 2 111.599 104.454 -4.05231e-17
431 1 13.4231 9.16307 -4.05231e-17
432 2 173.77 3.27384 -4.05231e-17
433 1 186.415 198.569 -4.05231e-17
434 1 20.2491 205.259 -4.05231e-17
435 1 149.939 85.2733 -4.05231e-17
436 2 85.5156 199.005 -4.05231e-17
437 2 181.346 82.5077 -4.05231e-17
438 2 194.529 177.515 -4.05231e-17
439 2 92.8248 10.41 -4.05231e-17
440 2 201.242 91.8084 -4.05231e-17
441 1 130.905 167.64 -4.05231e-17
442 1 37.9354 104.676 -4.05231e-17
443 2 79.0606 82.1749 -4.05231e-17
444 1 204.499 104.687 -4.05231e-17
445 1 169.192 133.02 -4.05231e-17
446 2 183.041 150.658 -4.05231e-17
447 2 40.1166 40.3246 -4.05231e-17
448 2 206.152 176.063 -4.05231e-17
449 1 41.228 177.269 -4.05231e-17
450 1 10.6089 126.309 -4.05231e-17
451 1 54.0187 209.273 -4.05231e-17
452 2 208.847 60.7984 -4.05231e-17
453 1 216.341 150.258 -4.05231e-17
454 1 3.11425 68.7302 -4.05231e-17
455 2 81.1562 131.223 -4.05231e-17
456 1 84.9916 1.82745 -4.05231e-17
457 2 140.697 145.332 -4.05231e-17
458 2 155.679 135.632 -4.05231e-17
459 2 133.333 51.6347 -4.05231e-17
460 1 197.43 170.007 -4.05231e-17
461 1 111.979 128.389 -4.05231e-17
462 1 104.189 196.216 -4.05231e-17
463 2 110.272 218.605 -4.05231e-17
464 2 13.9379 77.5212 -4.05231e-17
465 1 123.744 16.41 -4.05231e-17
466 2 150.768 126.308 -4.05231e-17
467 2 65.8915 133.036 -4.05231e-17
468 2 124.101 125.786 -4.05231e-17
469 2 58.3705 71.5615 -4.05231e-17
470 2 208.525 154.73 -4.05231e-17
471 2 211.969 211.524 -4.05231e-17
472 2 111.212 36.8965 -4.05231e-17
473 2 198.059 214.791 -4.05231e-17
474 2 85.0721 146.925 -4.05231e-17
475 1 164.255 183.194 -4.05231e-17
476 2 174.961 34.7575 -4.05231e-17
477 1 208.422 218.046 -4.05231e-17
478 1 46.2861 188.371 -4.05231e-17
479 2 0.864829 197.855 -4.05231e-17
480 1 83.0031 61.5829 -4.05231e-17
481 1 2.85963 209.381 -4.05231e-17
482 2 152.647 176.906 -4.05231e-17
483 1 134.418 209.348 -4.05231e-17
484 1 66.1267 135.885 -4.05231e-17
485 2 13.7078 173.618 -4.05231e-17
486 1 132.727 72.7431 -4.05231e-17
487 1 13.4254 202.196 -4.05231e-17
488 1 50.2292 83.8784 -4.05231e-17
489 1 70.321 109.281 -4.05231e-17
490 1 164.686 73.3053 -4.05231e-17
491 1 163.01 75.388 -4.05231e-17
492 2 209.128 15.5573 -4.05231e-17
493 1 93.9216 203.371 -4.05231e-17
494 2 78.1114 66.2714 -4.05231e-17
495 1 150.274 92.0877 -4.05231e-17
496 1 52.3123 123.885 -4.05231e-17
497 1 136.766 109.996 -4.05231e-17
498 2 145.381 39.3149 -4.05231e-17
499 2 177.814 118.767 -4.05231e-17
500 2 57.1555 32.637 -4.05231e-17
501 2 14.5252 139.519 -4.05231e-17
502 2 190.515 126.634 -4.05231e-17
503 2 57.4256 63.4909 -4.05231e-17
504 2 98.1857 50.5546 -4.05231e-17
505 2 112.434 214.115 -4.05231e-17
506 1 207.132 6.15753 -4.05231e-17
507 2 49.8078 182.195 -4.05231e-17
508 1 140.683 59.4373 -4.05231e-17
509 1 209.422 47.1158 -4.05231e-17
510 1 195.204 103.966 -4.05231e-17
511 2 108.273 179.233 -4.05231e-17
512 1 10.8996 42.5801 -4.05231e-17
513 2 87.7316 183.238 -4.05231e-17
514 2 15.1667 87.2642 -4.05231e-17
515 1 60.4173 98.6888 -4.05231e-17
516 2 100.959 74.0232 -4.05231e-17
517 1 32.2842 147.633 -4.05231e-17
518 2 10.3036 13.7948 -4.05231e-17
519 1 125.031 91.9831 -4.05231e-17
520 2 209.486 93.5815 -4.05231e-17
521 2 130.093 40.0643 -4.05231e-17
522 1 186.961 7.48696 -4.05231e-17
523 1 127.727 99.5251 -4.05231e-17
524 2 175.174 18.9453 -4.05231e-17
525 2 185.167 45.5914 -4.05231e-17
526 2 108.04 15.8912 -4.05231e-17
527 1 170.472 25.1097 -4.05231e-17
528 1 212.753 201.891 -4.05231e-17
529 2 104.464 176.321 -4.05231e-17
530 2 18.5247 88.138 -4.05231e-17
531 2 185.288 171.825 -4.05231e-17
532 1 81.3593 4.94225 -4.05231e-17
533 2 23.5374 158.077 -4.05231e-17
534 1 22.5495 168.347 -4.05231e-17
535 1 170.061 206.682 -4.05231e-17
536 2 17.8565 169.389 -4.05231e-17
537 1 142.41 29.2438 -4.05231e-17
538 1 68.6902 157.813 -4.05231e-17
539 2 80.9815 163.203 -4.05231e-17
540 1 35.2101 182.393 -4.05231e-17
541 1 104.492 129.193 -4.05231e-17
542 1 58.5068 126.697 -4.05231e-17
543 2 120.489 168.652 -4.05231e-17
544 1 217.794 211.21 -4.05231e-17
545 1 174.7 72.3456 -4.05231e-17
546 2 186.81 10.0272 -4.05231e-17
547 1 12.6806 71.5647 -4.05231e-17
548 1 29.651 5.58714 -4.05231e-17
549 2 35.243 152.673 -4.05231e-17
550 2 164.35 193.77 -4.05231e-17
551 2 38.8805 7.07407 -4.05231e-17
552 1 31.8666 51.9218 -4.05231e-17
553 2 207.042 196.779 -4.05231e-17
554 2 144.153 34.129 -4.05231e-17
555 2 177.825 134.469 -4.05231e-17
556 1 177.73 211.999 -4.05231e-17
557 1 211.224 53.9884 -4.05231e-17
558 1 60.2787 142.947 -4.05231e-17
559 2 106.35 91.3757 -4.05231e-17
560 2 57.2164 89.3826 -4.05231e-17
561 2 110.737 181.403 -4.05231e-17
562 2 99.4116 65.6882 -4.05231e-17
563 1 73.4297 168.11 -4.05231e-17
564 2 103.247 78.7742 -4.05231e-17
565 2 33.7389 65.1736 -4.05231e-17
566 2 64.2291 60.5028 -4.05231e-17
567 1 95.058 11.774 -4.05231e-17
568 1 22.7704 77.8452 -4.05231e-17
569 2 141.507 194.211 -4.05231e-17
570 2 11.6071 21.2174 -4.05231e-17
571 2 5.22173 61.9861 -4.05231e-17
572 1 115.305 108.058 -4.05231e-17
573 2 38.1444 89.7003 -4.05231e-17
574 2 179.121 170.175 -4.05231e-17
575 1 196.23 206.975 -4.05231e-17
576 1 25.896 68.3675 -4.05231e-17
577 1 127.79 74.9958 -4.05231e-17
578 1 183.852 114.761 -4.05231e-17
579 2 182.355 44.3104 -4.05231e-17
580 1 109.083 103.81 -4.05231e-17
581 1 91.7171 146.557 -4.05231e-17
582 2 125.763 101.344 -4.05231e-17
583 2 103.355 84.1134 -4.05231e-17
584 2 107.3 151.314 -4.05231e-17
585 1 181.953 102.967 -4.05231e-17
586 1 143.543 80.0537 -4.05231e-17
587 1 158.303 111.659 -4.05231e-17
588 2 64.2016 108.857 -4.05231e-17
589 1 210.716 59.1289 -4.05231e-17
590 2 181.53 58.2223 -4.05231e-17
591 2 178.942 16.6461 -4.05231e-17
592 1 203.958 128.542 -4.05231e-17
593 1 127.058 90.0732 -4.05231e-17
594 1 5.30902 70.1095 -4.05231e-17
595 1 33.1755 62.5274 -4.05231e-17
596 2 107.035 71.321 -4.05231e-17
597 2 63.7114 105.708 -4.05231e-17
598 2 136.075 87.6036 -4.05231e-17
599 2 96.778 165.954 -4.05231e-17
600 2 49.4043 98.9119 -4.05231e-17
601 1 145.868 107.934 -4.05231e-17
602 1 173.543 51.9607 -4.05231e-17
603 2 216.757 159.607 -4.05231e-17
604 1 45.9869 179.282 -4.05231e-17
605 2 140.229 100.567 -4.05231e-17
606 2 150.183 99.182 -4.05231e-17
607 2 47.9113 169.475 -4.05231e-17
608 2 128.301 31.3275 -4.05231e-17
609 1 77.7725 89.1637 -4.05231e-17
610 2 106.047 200.319 -4.05231e-17
611 1 1.42802 165.792 -4.05231e-17
612 1 207.024 117.691 -4.05231e-17
613 2 213.485 156.508 -4.05231e-17
614 1 202.715 30.4531 -4.05231e-17
615 1 152.03 104.408 -4.05231e-17
616 2 146.044 178.074 -4.05231e-17
617 1 168.784 0.854916 -4.05231e-17
618 1 136.869 216.536 -4.05231e-17
619 1 164.114 161.091 -4.05231e-17
620 2 43.0289 88.9614 -4.05231e-17
621 2 203.555 76.9335 -4.05231e-17
622 2 144.944 154.375 -4.05231e-17
623 2 108.616 147.157 -4.05231e-17
624 1 107.062 176.973 -4.05231e-17
625 2 208.679 79.404 -4.05231e-17
626 1 210.973 190.122 -4.05231e-17
627 2 195.313 193.031 -4.05231e-17
628 1 116.639 156.109 -4.05231e-17
629 1 30.0809 41.1252 -4.05231e-17
630 2 133.197 213.956 -4.05231e-17
631 2 144.611 115.267 -4.05231e-17
632 2 208.791 19.79 -4.05231e-17
633 2 60.8878 131.645 -4.05231e-17
634 2 191.349 67.4945 -4.05231e-17
635 2 80.3357 72.1105 -4.05231e-17
636 1 88.106 130.87 -4.05231e-17
637 1 216.951 152.876 -4.05231e-17
638 1 116.655 69.2328 -4.05231e-17
639 2 200.721 65.0991 -4.05231e-17
640 2 149.436 78.1793 -4.05231e-17
641 1 200.04 96.3193 -4.05231e-17
642 2 161.807 35.3685 -4.05231e-17
643 1 165.166 57.7597 -4.05231e-17
644 2 139.572 155.172 -4.05231e-17
645 2 5.66003 75.1742 -4.05231e-17
646 1 169.672 142.476 -4.05231e-17
647 2 129.334 148.192 -4.05231e-17
648 2 190.607 211.399 -4.05231e-17
649 1 63.693 145.386 -4.05231e-17
650 1 56.166 153.174 -4.05231e-17
651 1 112.397 130.837 -4.05231e-17
652 2 8.51494 214.082 -4.05231e-17
653 2 195.613 45.2198 -4.05231e-17
654 1 208.464 164.993 -4.05231e-17
655 1 63.3191 47.278 -4.05231e-17
656 1 199.039 10.4227 -4.05231e-17
657 1 125.177 120.651 -4.05231e-17
658 2 165.706 105.612 -4.05231e-17
659 2 101.528 137.524 -4.05231e-17
660 1 25.195 11.9269 -4.05231e-17
661 2 15.8241 36.6769 -4.05231e-17
662 2 135.836 117.001 -4.05231e-17
663 1 163.402 112.559 -4.05231e-17
664 1 79.9498 138.442 -4.05231e-17
665 1 135.721 144.111 -4.05231e-17
666 1 203.051 185.416 -4.05231e-17
667 1 0.199916 116.696 -4.05231e-17
668 1 134.385 156.874 -4.05231e-17
669 1 107.338 160.863 -4.05231e-17
670 2 211.988 161.021 -4.05231e-17
671 1 3.50046 15.9706 -4.05231e-17
672 1 193.459 141.393 -4.05231e-17
673 2 47.5902 84.749 -4.05231e-17
674 2 182.602 205.534 -4.05231e-17
675 2 152.382 2.14586 -4.05231e-17
676 1 180.698 160.149 -4.05231e-17
677 2 53.2518 53.2963 -4.05231e-17
678 1 86.6049 113.829 -4.05231e-17
679 1 87.4791 65.1264 -4.05231e-17
680 2 71.918 13.6105 -4.05231e-17
681 1 5.13475 9.00471 -4.05231e-17
682 1 141.556 172.04 -4.05231e-17
683 2 96.3139 123.374 -4.05231e-17
684 1 23.2719 180.214 -4.05231e-17
685 1 83.844 206.45 -4.05231e-17
686 1 142.874 159.792 -4.05231e-17
687 1 107.551 53.3351 -4.05231e-17
688 1 151.932 97.2936 -4.05231e-17
689 2 10.2563 139.331 -4.05231e-17
690 1 48.5521 120.845 -4.05231e-17
691 2 64.4784 115.156 -4.05231e-17
692 2 180.834 178.687 -4.05231e-17
693 1 161.479 96.1609 -4.05231e-17
694 2 147.284 149.924 -4.05231e-17
695 2 188.382 36.6134 -4.05231e-17
696 2 31.9095 82.4684 -4.05231e-17
697 1 104.403 35.5444 -4.05231e-17
698 2 41.1991 18.2328 -4.05231e-17
699 1 57.3262 202.873 -4.05231e-17
700 2 17.8914 126.354 -4.05231e-17
701 2 30.79 63.7469 -4.05231e-17
702 1 160.658 9.71378 -4.05231e-17
703 1 195.607 60.4321 -4.05231e-17
704 1 159.809 121.788 -4.05231e-17
705 1 43.553 120.462 -4.05231e-17
706 1 75.4902 161.52 -4.05231e-17
707 1 182.219 66.726 -4.05231e-17
708 2 195.328 101.239 -4.05231e-17
709 1 54.3243 160.263 -4.05231e-17
710 2 91.6745 16.2382 -4.05231e-17
711 2 1.51845 139.256 -4.05231e-17
712 1 84.2741 213.768 -4.05231e-17
713 1 4.67236 152.428 -4.05231e-17
714 2 145.122 147.735 -4.05231e-17
715 2 133.231 86.9607 -4.05231e-17
716 1 87.3039 60.8603 -4.05231e-17
717 1 14.913 61.1262 -4.05231e-17
718 2 78.7633 99.8583 -4.05231e-17
719 1 68.6312 202.852 -4.05231e-17
720 2 51.7532 197.681 -4.05231e-17
721 2 44.0465 213.443 -4.05231e-17
722 2 65.3771 138.342 -4.05231e-17
723 2 15.6649 165.534 -4.05231e-17
724 2 202.385 106.854 -4.05231e-17
725 2 21.6042 50.2209 -4.05231e-17
726 2 177.931 123.663 -4.05231e-17
727 2 35.3097 109.759 -4.05231e-17
728 1 176.569 77.2317 -4.05231e-17
729 2 167.088 131.43 -4.05231e-17
730 2 175.232 94.3546 -4.05231e-17
731 1 10.2179 23.518 -4.05231e-17
732 2 98.0147 87.2705 -4.05231e-17
733 2 148.067 146.86 -4.05231e-17
734 2 59.1247 191.882 -4.05231e-17
735 2 149.232 72.0364 -4.05231e-17
736 1 182.413 176.687 -4.05231e-17
737 2 48.6256 39.6264 -4.05231e-17
738 2 71.2794 207.681 -4.05231e-17
739 2 185.844 131.182 -4.05231e-17
740 2 40.5567 115.655 -4.05231e-17
741 2 200.643 113.755 -4.05231e-17
742 1 71.694 99.0095 -4.05231e-17
743 2 78.7421 76.1082 -4.05231e-17
744 1 146.801 50.2008 -4.05231e-17
745 2 16.0676 75.4768 -4.05231e-17
746 1 218.684 121.33 -4.05231e-17
747 1 98.4569 163.071 -4.05231e-17
748 2 70.1865 197.957 -4.05231e-17
749 1 213.541 166.41 -4.05231e-17
750 1 139.468 148.027 -4.05231e-17
751 1 143.061 89.0606 -4.05231e-17
752 2 195.254 168.475 -4.05231e-17
753 1 37.3821 180.629 -4.05231e-17
754 2 66.0881 81.0452 -4.05231e-17
755 1 6.35334 80.588 -4.05231e-17
756 2 178.298 58.3701 -4.05231e-17
757 1 110.845 15.1096 -4.05231e-17
758 2 99.636 27.8138 -4.05231e-17
759 1 95.6168 133.47 -4.05231e-17
760 1 171.081 61.5741 -4.05231e-17
761 2 213.248 100.885 -4.05231e-17
762 1 178.369 105.86 -4.05231e-17
763 2 6.25441 157.23 -4.05231e-17
764 2 43.5485 188.436 -4.05231e-17
765 1 21.7046 159.936 -4.05231e-17
766 2 100.17 48.1793 -4.05231e-17
767 2 206.253 148.669 -4.05231e-17
768 2 72.2311 62.2265 -4.05231e-17
769 2 188.06 98.3302 -4.05231e-17
770 1 133.8 18.5202 -4.05231e-17
771 1 64.4431 63.1627 -4.05231e-17
772 1 129.015 0.733604 -4.05231e-17
773 2 166.48 172.311 -4.05231e-17
774 1 88.3105 87.3763 -4.05231e-17
775 1 102.527 76.091 -4.05231e-17
776 2 192.67 102.978 -4.05231e-17
777 2 42.5649 79.9048 -4.05231e-17
778 1 83.4627 12.9816 -4.05231e-17
779 1 47.8495 61.6975 -4.05231e-17
780 2 83.3396 49.6838 -4.05231e-17
781 1 25.8728 171.521 -4.05231e-17
782 2 123.174 170.255 -4.05231e-17
783 1 74.6839 63.1077 -4.05231e-17
784 2 96.8424 110.51 -4.05231e-17
785 1 204.403 82.0754 -4.05231e-17
786 1 41.5048 7.02872 -4.05231e-17
787 2 38.1078 208.852 -4.05231e-17
788 2 165.174 180.722 -4.05231e-17
789 2 18.5017 147.04 -4.05231e-17
790 2 77.4183 7.80705 -4.05231e-17
791 2 186.466 53.6994 -4.05231e-17
792 1 212.971 132.258 -4.05231e-17
793 1 96.8057 171.716 -4.05231e-17
794 2 209.738 6.37933 -4.05231e-17
795 2 10.7189 191.823 -4.05231e-17
796 1 69.2081 215.226 -4.05231e-17
797 1 46.0297 32.8097 -4.05231e-17
798 1 213.32 55.7091 -4.05231e-17
799 2 105.775 155.633 -4.05231e-17
800 1 56.6106 37.1273 -4.05231e-17
801 2 68.1285 84.9052 -4.05231e-17
802 1 91.057 216.677 -4.05231e-17
803 1 143.063 24.9456 -4.05231e-17
804 1 210.206 124.802 -4.05231e-17
805 2 183.74 117.545 -4.05231e-17
806 2 178.662 158.306 -4.05231e-17
807 2 208.334 29.4871 -4.05231e-17
808 2 76.3069 144.535 -4.05231e-17
809 1 175.866 63.0353 -4.05231e-17
810 2 23.969 173.406 -4.05231e-17
811 2 179.819 55.8001 -4.05231e-17
812 1 121.896 184.777 -4.05231e-17
813 1 21.9903 95.8841 -4.05231e-17
814 1 3.03194 204.807 -4.05231e-17
815 1 145.853 32.226 -4.05231e-17
816 1 206.818 50.987 -4.05231e-17
817 2 63.3767 71.0223 -4.05231e-17
818 2 29.4726 122.773 -4.05231e-17
819 2 210.927 67.7588 -4.05231e-17
820 1 9.514 59.0396 -4.05231e-17
821 1 65.0656 57.8486 -4.05231e-17
822 2 131.328 34.8934 -4.05231e-17
823 1 183.728 90.1278 -4.05231e-17
824 1 175.846 89.4885 -4.05231e-17
825 1 160.392 191.026 -4.05231e-17
826 2 178.665 81.8869 -4.05231e-17
827 2 102.526 26.806 -4.05231e-17
828 1 50.602 91.51 -4.05231e-17
829 2 127.648 92.6825 -4.05231e-17
830 1 3.65539 156.85 -4.05231e-17
831 2 183.32 218.077 -4.05231e-17
832 2 26.8974 52.0905 -4.05231e-17
833 2 96.5969 42.1661 -4.05231e-17
834 1 71.027 164.26 -4.05231e-17
835 1 184.843 141.191 -4.05231e-17
836 1 153.243 69.5182 -4.05231e-17
837 2 168.035 92.1833 -4.05231e-17
838 2 92.2359 26.4344 -4.05231e-17
839 1 38.6941 32.0757 -4.05231e-17
840 2 13.7991 117.198 -4.05231e-17
841 2 201.582 10.6028 -4.05231e-17
842 1 172.828 159.58 -4.05231e-17
843 1 205.325 29.6481 -4.05231e-17
844 2 8.62146 25.5821 -4.05231e-17
845 1 46.8623 150.992 -4.05231e-17
846 2 127.56 211.196 -4.05231e-17
847 1 88.4842 143.199 -4.05231e-17
848 2 112.72 8.78168 -4.05231e-17
849 1 24.9007 32.8401 -4.05231e-17
850 2 60.0656 67.5145 -4.05231e-17
851 2 216.535 30.3174 -4.05231e-17
852 1 137.185 183.098 -4.05231e-17
853 1 185.714 105.021 -4.05231e-17
854 2 103.95 144.878 -4.05231e-17
855 2 165.584 120.722 -4.05231e-17
856 1 77.5121 160.226 -4.05231e-17
857 2 78.5811 119.837 -4.05231e-17