ITEM: TIMESTEP
0
ITEM: NUMBER OF ATOMS
7200
ITEM: BOX BOUNDS xy xz yz pp pp pp
0.0000000000000000e+00 2.1900000000000000e+02 0.0000000000000000e+00
0.0000000000000000e+00 2.1900000000000000e+02 0.0000000000000000e+00
-3.6499999999999999e-01 3.6499999999999999e-01 0.0000000000000000e+00
ITEM: ATOMS id type x y z
1 1 191.687 39.6486 -4.05231e-17
2 2 196.271 210.123 -4.05231e-17
3 2 132.231 187.631 -4.05231e-17
4 1 121.665 102.466 -4.05231e-17
5 1 74.2818 113.163 -4.05231e-17
6 1 133.458 6.38977 -4.05231e-17
7 2 178.112 160.15 -4.05231e-17
8 2 102.648 12.9988 -4.05231e-17
9 1 17.9178 209.053 -4.05231e-17
10 2 45.3479 180.792 -4.05231e-17
11 2 182.169 129.839 -4.05231e-17
12 1 46.4291 183.372 -4.05231e-17
13 2 201.262 79.4774 -4.05231e-17
14 1 67.3744 188.907 -4.05231e-17
15 2 202.194 13.7399 -4.05231e-17
16 2 2.86335 103.352 -4.05231e-17
17 1 73.7776 44.876 -4.05231e-17
18 2 14.5802 171.161 -4.05231e-17
19 1 80.4366 119.646 -4.05231e-17
20 1 122.05 4.80613 -4.05231e-17
21 1 150.025 162.678 -4.05231e-17
22 2 35.9554 206.796 -4.05231e-17
23 2 37.8971 196.133 -4.05231e-17
24 2 35.2358 116.262 -4.05231e-17
25 2 6.27328 206.064 -4.05231e-17
26 2 122.071 188.462 -4.05231e-17
27 1 1.42199 164.359 -4.05231e-17
28 2 47.3975 157.575 -4.05231e-17
29 2 102.097 39.6109 -4.05231e-17
30 2 127.062 40.8014 -4.05231e-17
31 2 160.841 85.0887 -4.05231e-17
32 1 62.1598 121.663 -4.05231e-17
33 2 149.514 86.0149 -4.05231e-17
34 2 42.8668 103.994 -4.05231e-17
35 2 105.244 39.4478 -4.05231e-17
36 1 157.916 143.33 -4.05231e-17
37 1 121.881 178.261 -4.05231e-17
38 2 214.621 160.152 -4.05231e-17
39 1 4.58791 51.3572 -4.05231e-17
40 2 171.295 114.856 -4.05231e-17
41 1 198.707 64.8936 -4.05231e-17
42 1 85.7464 23.5035 -4.05231e-17
43 1 177.14 153.181 -4.05231e-17
44 1 158.075 173.921 -4.05231e-17
45 2 133.249 39.5082 -4.05231e-17
46 1 112.242 191.203 -4.05231e-17
47 2 161.319 59.5446 -4.05231e-17
48 2 176.895 131.015 -4.05231e-17
49 1 193.73 218.205 -4.05231e-17
50 2 33.272 69.8223 -4.05231e-17
51 1 162.78 21.2673 -4.05231e-17
52 1 95.5128 29.1381 -4.05231e-17
53 2 102.815 190.643 -4.05231e-17
54 1 45.478 217.384 -4.05231e-17
55 2 49.6533 136.651 -4.05231e-17
56 1 32.1113 131.163 -4.05231e-17
57 2 45.5372 119.341 -4.05231e-17
58 1 180.23 39.7576 -4.05231e-17
59 1 160.777 87.6293 -4.05231e-17
60 2 204.43 79.38 -4.05231e-17
61 1 132.867 174.79 -4.05231e-17
62 1 100.203 110.672 -4.05231e-17
63 2 85.4051 192.128 -4.05231e-17
64 1 22.9626 35.3117 -4.05231e-17
65 2 171.755 111.727 -4.05231e-17
66 2 15.676 161.453 -4.05231e-17
67 2 199.647 97.549 -4.05231e-17
68 1 142.61 80.5938 -4.05231e-17
69 2 135.636 179.963 -4.05231e-17
70 1 143.138 96.0374 -4.05231e-17
71 1 186.188 127.44 -4.05231e-17
72 2 47.0782 162.955 -4.05231e-17
73 2 0.363199 180.44 -4.05231e-17
74 2 123.899 15.3202 -4.05231e-17
75 1 48.8551 108.66 -4.05231e-17
76 2 159.005 181.115 -4.05231e-17
77 2 191.197 0.0432135 -4.05231e-17
78 1 116.709 191.109 -4.05231e-17
79 2 62.1721 62.2513 -4.05231e-17
80 1 51.0991 50.9752 -4.05231e-17
81 1 151.698 172.201 -4.05231e-17
82 1 186.435 76.7193 -4.05231e-17
83 1 76.5005 82.0784 -4.05231e-17
84 2 132.904 205.54 -4.05231e-17
85 2 160.14 178.256 -4.05231e-17
86 2 33.2844 49.4379 -4.05231e-17
87 2 21.4552 129.645 -4.05231e-17
88 1 71.9571 165.95 -4.05231e-17
89 2 177.72 140.781 -4.05231e-17
90 2 135.909 56.1665 -4.05231e-17
91 2 11.0206 207.3 -4.05231e-17
92 1 9.21703 1.82251 -4.05231e-17
93 2 100.074 147.232 -4.05231e-17
94 2 143.18 130.723 -4.05231e-17
95 1 207.32 61.9682 -4.05231e-17
96 2 21.047 58.943 -4.05231e-17
97 2 1.67803 211.29 -4.05231e-17
98 2 26.9794 213.248 -4.05231e-17
99 1 115.114 40.2594 -4.05231e-17
100 2 171.182 38.3064 -4.05231e-17
101 1 179.708 131.414 -4.05231e-17
102 1 68.9956 162.409 -4.05231e-17
103 2 204.796 113.804 -4.05231e-17
104 2 73.1787 48.8461 -4.05231e-17
105 1 189.126 26.6962 -4.05231e-17
106 1 193.785 82.6112 -4.05231e-17
107 1 173.964 104.92 -4.05231e-17
108 1 55.9055 216.153 -4.05231e-17
109 2 20.5787 48.84 -4.05231e-17
110 2 148.476 8.02725 -4.05231e-17
111 1 30.8909 88.0301 -4.05231e-17
112 2 0.399388 69.314 -4.05231e-17
113 1 144.229 17.5369 -4.05231e-17
114 1 64.8737 96.0744 -4.05231e-17
115 2 8.39481 87.5413 -4.05231e-17
116 2 173.319 21.3334 -4.05231e-17
117 1 132.046 124.992 -4.05231e-17
118 1 107.968 97.3396 -4.05231e-17
119 2 87.3197 131.624 -4.05231e-17
120 2 187.969 74.4558 -4.05231e-17
121 1 200.598 134.514 -4.05231e-17
122 2 179.191 128.809 -4.05231e-17
123 2 218.581 149.113 -4.05231e-17
124 1 138.092 194.515 -4.05231e-17
125 1 146.151 156.167 -4.05231e-17
126 2 76.6252 64.9224 -4.05231e-17
127 2 19.5632 53.7539 -4.05231e-17
128 1 122.1 97.3545 -4.05231e-17
129 1 141.219 162.32 -4.05231e-17
130 2 152.286 211.917 -4.05231e-17
131 1 165.958 44.0174 -4.05231e-17
132 1 169.917 216.079 -4.05231e-17
133 1 217.181 101.771 -4.05231e-17
134 1 105.195 190.467 -4.05231e-17
135 2 196.347 81.8461 -4.05231e-17
136 1 161.857 149.137 -4.05231e-17
137 1 55.2105 218.658 -4.05231e-17
138 2 141.628 120.09 -4.05231e-17
139 1 132.148 4.18603 -4.05231e-17
140 1 164.166 189.938 -4.05231e-17
141 1 49.6244 43.8333 -4.05231e-17
142 1 210.234 3.92129 -4.05231e-17
143 1 32.2683 21.0556 -4.05231e-17
144 1 18.426 70.996 -4.05231e-17
145 2 216.709 74.0931 -4.05231e-17
146 1 216.068 114.866 -4.05231e-17
147 2 4.20655 117.906 -4.05231e-17
148 1 12.0293 93.8246 -4.05231e-17
149 1 186.68 159.099 -4.05231e-17
150 2 88.3705 75.3657 -4.05231e-17
151 1 115.932 115.708 -4.05231e-17
152 1 195.348 181.057 -4.05231e-17
153 2 93.8875 127.071 -4.05231e-17
154 1 188.639 43.6356 -4.05231e-17
155 2 209.937 61.7971 -4.05231e-17
156 2 110.07 158.995 -4.05231e-17
157 2 162.486 16.4957 -4.05231e-17
158 2 49.7703 3.94518 -4.05231e-17
159 2 21.8454 162.795 -4.05231e-17
160 2 64.7887 58.0854 -4.05231e-17
161 2 106.962 113.785 -4.05231e-17
162 1 214.4 57.7021 -4.05231e-17
163 1 28.9418 63.1575 -4.05231e-17
164 2 102.299 138.177 -4.05231e-17
165 1 10.9168 82.1476 -4.05231e-17
166 2 217.92 210.522 -4.05231e-17
167 1 116.703 180.039 -4.05231e-17
168 1 190.516 174.136 -4.05231e-17
169 2 53.5552 185.828 -4.05231e-17
170 1 77.1296 212 -4.05231e-17
171 1 140.086 89.3 -4.05231e-17
172 1 8.58159 185.96 -4.05231e-17
173 1 61.4399 166.666 -4.05231e-17
174 2 39.7279 169.853 -4.05231e-17
175 2 108.715 3.07513 -4.05231e-17
176 1 101.226 153.088 -4.05231e-17
177 2 74.4033 4.92189 -4.05231e-17
178 1 34.784 13.6097 -4.05231e-17
179 2 121.249 216.699 -4.05231e-17
180 1 64.5079 115.04 -4.05231e-17
181 1 215.929 144.458 -4.05231e-17
182 1 109.909 101.225 -4.05231e-17
183 1 57.5102 157.941 -4.05231e-17
184 2 181.005 4.51981 -4.05231e-17
185 2 168.836 110.597 -4.05231e-17
186 2 80.716 207.083 -4.05231e-17
187 2 131.057 201.368 -4.05231e-17
188 2 35.219 215.239 -4.05231e-17
189 1 196.231 57.8747 -4.05231e-17
190 1 150.021 56.0915 -4.05231e-17
191 2 21.9129 109.466 -4.05231e-17
192 2 62.9491 40.6958 -4.05231e-17
193 1 124.789 187.631 -4.05231e-17
194 1 44.653 37.2928 -4.05231e-17
195 2 63.746 112.2 -4.05231e-17
196 1 4.95315 7.94578 -4.05231e-17
197 2 76.5836 100.603 -4.05231e-17
198 2 202.993 40.6157 -4.05231e-17
199 2 96.7883 158.431 -4.05231e-17
200 2 97.5641 63.3218 -4.05231e-17
201 2 110.711 125.895 -4.05231e-17
202 1 103.55 17.9594 -4.05231e-17
203 1 32.8559 67.1013 -4.05231e-17
204 2 36.5684 63.4301 -4.05231e-17
205 2 7.14344 190.31 -4.05231e-17
206 2 174.208 162.54 -4.05231e-17
207 1 58.7376 195.961 -4.05231e-17
208 2 139.787 55.8718 -4.05231e-17
209 2 15.4754 140.641 -4.05231e-17
210 1 60.0564 81.6198 -4.05231e-17
211 1 207.402 67.6938 -4.05231e-17
212 1 29.5162 76.7629 -4.05231e-17
213 1 123.312 116.815 -4.05231e-17
214 2 17.5016 15.1681 -4.05231e-17
215 1 7.32663 152.104 -4.05231e-17
216 1 93.2632 19.9168 -4.05231e-17
217 1 183.277 16.1255 -4.05231e-17
218 2 176.768 145.52 -4.05231e-17
219 2 157.311 183.635 -4.05231e-17
220 1 106.19 217.55 -4.05231e-17
221 2 60.6721 67.2036 -4.05231e-17
222 1 163.63 117.471 -4.05231e-17
223 1 8.74285 105.782 -4.05231e-17
224 2 150.014 68.3575 -4.05231e-17
225 2 117.461 155.664 -4.05231e-17
226 1 205.502 4.85107 -4.05231e-17
227 2 204.95 12.1857 -4.05231e-17
228 2 74.1529 80.7938 -4.05231e-17
229 1 16.4183 3.67805 -4.05231e-17
230 1 41.3012 48.7104 -4.05231e-17
231 2 158.753 122.424 -4.05231e-17
232 1 19.4377 7.7588 -4.05231e-17
233 2 64.6966 208.587 -4.05231e-17
234 1 191.235 47.339 -4.05231e-17
235 1 157.126 106.42 -4.05231e-17
236 2 156.223 25.1764 -4.05231e-17
237 2 101.708 168.235 -4.05231e-17
238 2 84.4334 133.373 -4.05231e-17
239 1 60.2825 185.723 -4.05231e-17
240 1 133.317 82.8461 -4.05231e-17
241 2 217.425 109.133 -4.05231e-17
242 1 166.705 58.1445 -4.05231e-17
243 2 194.348 159.561 -4.05231e-17
244 2 20.8952 204.321 -4.05231e-17
245 1 171.625 16.0709 -4.05231e-17
246 2 109.666 92.8178 -4.05231e-17
247 2 126.871 127.756 -4.05231e-17
248 1 55.8126 33.0477 -4.05231e-17
249 1 130.688 102.732 -4.05231e-17
250 1 150.772 51.3691 -4.05231e-17
251 2 133.598 72.3622 -4.05231e-17
252 1 104.417 149.594 -4.05231e-17
253 2 96.0023 102.804 -4.05231e-17
254 2 202.386 217.56 -4.05231e-17
255 2 118.71 60.2195 -4.05231e-17
256 1 3.98424 210.013 -4.05231e-17
257 2 47.9614 194.842 -4.05231e-17
258 1 4.43271 83.5729 -4.05231e-17
259 2 172.236 142.623 -4.05231e-17
260 1 36.8369 156.856 -4.05231e-17
261 2 155.756 180.858 -4.05231e-17
262 2 185.132 118.149 -4.05231e-17
263 2 99.3437 163.491 -4.05231e-17
264 1 153.175 72.3513 -4.05231e-17
265 1 129.405 211.625 -4.05231e-17
266 1 48.2558 171.364 -4.05231e-17
267 2 86.241 207.893 -4.05231e-17
268 1 20.1532 56.2849 -4.05231e-17
269 2 20.0424 106.976 -4.05231e-17
270 2 210.483 177.579 -4.05231e-17
271 2 185.779 94.0455 -4.05231e-17
272 1 96.6905 17.9098 -4.05231e-17
273 1 53.9585 69.0314 -4.05231e-17
274 1 6.40696 213.806 -4.05231e-17
275 1 137.384 114.497 -4.05231e-17
276 1 205.048 86.3515 -4.05231e-17
277 1 117.157 0.0936081 -4.05231e-17
278 2 67.7777 156.797 -4.05231e-17
279 2 163.091 88.9095 -4.05231e-17
280 1 126.855 215.221 -4.05231e-17
281 2 110.927 131.21 -4.05231e-17
282 2 68.8328 118.94 -4.05231e-17
283 2 218.442 154.281 -4.05231e-17
284 1 124.057 106.425 -4.05231e-17
285 1 66.299 165.166 -4.05231e-17
286 2 35.2751 203.63 -4.05231e-17
287 2 103.686 71.2426 -4.05231e-17
288 1 89.2436 114.711 -4.05231e-17
289 2 191.13 52.5861 -4.05231e-17
290 1 136.578 48.8765 -4.05231e-17
291 2 129.869 185.067 -4.05231e-17
292 1 88.7307 104.109 -4.05231e-17
293 1 141.919 117.64 -4.05231e-17
294 1 34.6982 186.696 -4.05231e-17
295 2 44.1114 142.286 -4.05231e-17
296 1 176.008 171.6 -4.05231e-17
297 1 10.9834 25.525 -4.05231e-17
298 2 4.94835 133.209 -4.05231e-17
299 1 189.478 72.4654 -4.05231e-17
300 2 186.218 196.946 -4.05231e-17
301 2 177.615 11.2478 -4.05231e-17
302 2 165.197 92.6898 -4.05231e-17
303 1 6.0776 153.711 -4.05231e-17
304 1 124.284 98.3661 -4.05231e-17
305 1 93.65 157.61 -4.05231e-17
306 2 72.4558 2.56449 -4.05231e-17
307 2 136.417 144.812 -4.05231e-17
308 2 170.273 11.0229 -4.05231e-17
309 1 115.427 67.0049 -4.05231e-17
310 1 181.779 147.286 -4.05231e-17
311 1 144.596 111.123 -4.05231e-17
312 2 113.693 56.4242 -4.05231e-17
313 2 180.355 55.2569 -4.05231e-17
314 1 147.187 110.118 -4.05231e-17
315 2 38.0196 116.521 -4.05231e-17
316 1 105.624 36.7983 -4.05231e-17
317 1 147.705 200.089 -4.05231e-17
318 1 210.783 174.991 -4.05231e-17
319 2 97.6583 195.861 -4.05231e-17
320 1 217 53.2769 -4.05231e-17
321 1 35.1179 80.6961 -4.05231e-17
322 1 49.2527 143.228 -4.05231e-17
323 2 27.5928 156.529 -4.05231e-17
324 2 16.4154 86.0857 -4.05231e-17
325 2 5.06189 22.0452 -4.05231e-17
326 1 201.896 35.8594 -4.05231e-17
327 1 8.09672 45.5126 -4.05231e-17
328 2 27.9574 5.84168 -4.05231e-17
329 2 46.9852 86.2082 -4.05231e-17
330 2 131.608 64.5636 -4.05231e-17
331 2 179.27 65.7317 -4.05231e-17
332 2 118.855 106.287 -4.05231e-17
333 2 20.8533 142.569 -4.05231e-17
334 2 6.00357 26.5866 -4.05231e-17
335 1 152.201 188.834 -4.05231e-17
336 2 23.6049 141.754 -4.05231e-17
337 2 75.6769 214.351 -4.05231e-17
338 1 185.478 125.03 -4.05231e-17
339 2 35.5305 173.09 -4.05231e-17
340 2 184.166 6.0675 -4.05231e-17
341 2 100.272 77.8167 -4.05231e-17
342 2 157.337 127.595 -4.05231e-17
343 2 189.799 5.83706 -4.05231e-17
344 1 114.967 90.7587 -4.05231e-17
345 2 23.348 193.22 -4.05231e-17
346 2 92.9575 46.369 -4.05231e-17
347 1 156.814 98.6654 -4.05231e-17
348 1 176.975 1.97719 -4.05231e-17
349 2 176.229 80.8711 -4.05231e-17
350 2 63.7332 181.608 -4.05231e-17
351 1 189.611 83.7496 -4.05231e-17
352 1 215.649 165.369 -4.05231e-17
353 2 147.964 104.25 -4.05231e-17
354 2 192.814 181.337 -4.05231e-17
355 1 3.26897 162.343 -4.05231e-17
356 2 133.749 215.293 -4.05231e-17
357 1 105.47 202.04 -4.05231e-17
358 1 126.728 38.5702 -4.05231e-17
359 1 15.9931 133.14 -4.05231e-17
360 1 50.3843 197.377 -4.05231e-17
361 2 181.783 50.8493 -4.05231e-17
362 2 175.556 95.0254 -4.05231e-17
363 1 125.732 1.27692 -4.05231e-17
364 2 9.28683 52.4287 -4.05231e-17
365 1 9.14152 166.732 -4.05231e-17
366 1 75.823 190.952 -4.05231e-17
367 1 188.802 81.3544 -4.05231e-17
368 1 30.2261 167.883 -4.05231e-17
369 2 73.074 134.499 -4.05231e-17
370 1 196.308 121.446 -4.05231e-17
371 2 54.0035 107.516 -4.05231e-17
372 1 75.8271 216.968 -4.05231e-17
373 2 102.769 202.801 -4.05231e-17
374 2 191.406 104.421 -4.05231e-17
375 1 101 59.4976 -4.05231e-17
376 1 101.768 145.053 -4.05231e-17
377 2 100.719 27.0731 -4.05231e-17
378 2 174.121 130.469 -4.05231e-17
379 2 179.943 211.593 -4.05231e-17
380 1 178.824 29.8999 -4.05231e-17
381 1 173.338 3.85348 -4.05231e-17
382 1 155.191 65.9369 -4.05231e-17
383 1 78.7714 66.5449 -4.05231e-17
384 2 37.6842 104.741 -4.05231e-17
385 1 19.8335 121.562 -4.05231e-17
386 2 171.763 177.412 -4.05231e-17
387 1 25.8915 79.8691 -4.05231e-17
388 1 133.097 169.231 -4.05231e-17
389 2 163.51 96.8708 -4.05231e-17
390 1 109.426 5.74111 -4.05231e-17
391 1 214.561 14.6535 -4.05231e-17
392 2 40.0308 103.065 -4.05231e-17
393 2 186.638 192.685 -4.05231e-17
394 1 1.69822 185.966 -4.05231e-17
395 1 27.705 216.012 -4.05231e-17
396 2 102.645 96.7486 -4.05231e-17
397 1 53.4737 15.6284 -4.05231e-17
398 2 134.369 124.012 -4.05231e-17
399 2 196.725 97.1621 -4.05231e-17
400 2 120.565 68.6041 -4.05231e-17
401 2 71.9836 199.583 -4.05231e-17
402 1 69.7518 3.11988 -4.05231e-17
403 1 54.4126 114.468 -4.05231e-17
404 2 121.08 14.6213 -4.05231e-17
405 1 102.679 178.69 -4.05231e-17
406 2 203.597 133.898 -4.05231e-17
407 1 146.359 74.5127 -4.05231e-17
408 1 138.482 60.5662 -4.05231e-17
409 2 213.946 134.231 -4.05231e-17
410 2 55.6183 130.598 -4.05231e-17
411 1 138.009 93.376 -4.05231e-17
412 1 157.797 20.0891 -4.05231e-17
413 1 22.6722 76.3113 -4.05231e-17
414 2 199.744 207.763 -4.05231e-17
415 1 84.3848 113.067 -4.05231e-17
416 1 168.881 58.7836 -4.05231e-17
417 2 103.878 134.449 -4.05231e-17
418 2 45.7682 170.79 -4.05231e-17
419 2 213.711 116.744 -4.05231e-17
420 2 107.019 49.1983 -4.05231e-17
421 1 67.2923 58.0109 -4.05231e-17
422 1 8.06421 123.224 -4.05231e-17
423 2 119.932 151.226 -4.05231e-17
424 2 22.8379 20.9598 -4.05231e-17
425 2 103.095 120.138 -4.05231e-17
426 1 191.919 134.962 -4.05231e-17
427 2 80.0351 58.0471 -4.05231e-17
428 1 31.3836 176.956 -4.05231e-17
429 2 184.962 112.928 -4.05231e-17
430 2 117 97.2844 -4.05231e-17
431 1 20.2122 14.5817 -4.05231e-17
432 2 174.416 50.9584 -4.05231e-17
433 1 163.037 202.645 -4.05231e-17
434 1 183.934 185.736 -4.05231e-17
435 1 154.172 83.9532 -4.05231e-17
436 2 18.0334 205.939 -4.05231e-17
437 2 180.198 68.6641 -4.05231e-17
438 2 177.273 169.198 -4.05231e-17
439 2 104.591 0.608144 -4.05231e-17
440 2 48.5018 76.1792 -4.05231e-17
441 1 123.753 160.806 -4.05231e-17
442 1 38.6546 124.623 -4.05231e-17
443 2 72.214 70.871 -4.05231e-17
444 1 207.931 95.7434 -4.05231e-17
445 1 198.218 198.097 -4.05231e-17
446 2 155.874 150.032 -4.05231e-17
447 2 53.1107 33.2313 -4.05231e-17
448 2 161.933 181.172 -4.05231e-17
449 1 79.8767 194.297 -4.05231e-17
450 1 199.872 117.317 -4.05231e-17
451 1 66.5866 203.581 -4.05231e-17
452 2 187.914 79.2295 -4.05231e-17
453 1 192.031 144.46 -4.05231e-17
454 1 194.571 77.0671 -4.05231e-17
455 2 59.1901 135.896 -4.05231e-17
456 1 91.984 183.256 -4.05231e-17
457 2 159.568 125.677 -4.05231e-17
458 2 123.742 146.41 -4.05231e-17
459 2 140.549 61.8767 -4.05231e-17
460 1 211.6 180.242 -4.05231e-17
461 1 89.0735 201.06 -4.05231e-17
462 1 77.4693 175.199 -4.05231e-17
463 2 105.456 204.702 -4.05231e-17
464 2 40.7476 33.3592 -4.05231e-17
465 1 129.706 26.1391 -4.05231e-17
466 2 193.888 142.768 -4.05231e-17
467 2 45.3272 160.076 -4.05231e-17
468 2 173.506 127.747 -4.05231e-17
469 2 47.1064 70.2988 -4.05231e-17
470 2 169.441 140.866 -4.05231e-17
471 2 202.787 207.406 -4.05231e-17
472 2 115.245 2.27639 -4.05231e-17
473 2 198.997 19.1251 -4.05231e-17
474 2 74.7274 139.752 -4.05231e-17
475 1 125.92 199.922 -4.05231e-17
476 2 188.065 52.6072 -4.05231e-17
477 1 7.03065 2.49736 -4.05231e-17
478 1 41.12 184.281 -4.05231e-17
479 2 60.3293 208.098 -4.05231e-17
480 1 83.1132 67.5365 -4.05231e-17
481 1 41.7508 174.638 -4.05231e-17
482 2 181.927 203.935 -4.05231e-17
483 1 148.887 202.043 -4.05231e-17
484 1 47.1935 128.759 -4.05231e-17
485 2 13.0884 185.234 -4.05231e-17
486 1 66.4195 45.0732 -4.05231e-17
487 1 28.3742 207.23 -4.05231e-17
488 1 24.3497 84.2175 -4.05231e-17
489 1 77.2649 106.221 -4.05231e-17
490 1 172.045 78.0578 -4.05231e-17
491 1 169.483 79.5481 -4.05231e-17
492 2 217.595 25.1299 -4.05231e-17
493 1 74.4885 27.6759 -4.05231e-17
494 2 85.5985 46.7429 -4.05231e-17
495 1 151.735 90.3332 -4.05231e-17
496 1 62.7421 97.3114 -4.05231e-17
497 1 135.514 105.444 -4.05231e-17
498 2 157.719 34.5109 -4.05231e-17
499 2 124.644 213.789 -4.05231e-17
500 2 101.117 24.0891 -4.05231e-17
501 2 211.18 141.472 -4.05231e-17
502 2 167.867 159.645 -4.05231e-17
503 2 68.9001 45.0637 -4.05231e-17
504 2 79.4788 44.607 -4.05231e-17
505 2 95.816 177.075 -4.05231e-17
506 1 200.486 21.0747 -4.05231e-17
507 2 62.7628 187.435 -4.05231e-17
508 1 124.311 62.9278 -4.05231e-17
509 1 200.1 39.9046 -4.05231e-17
510 1 195.928 89.7591 -4.05231e-17
511 2 91.2491 185.874 -4.05231e-17
512 1 51.6122 57.9964 -4.05231e-17
513 2 94.4991 210.241 -4.05231e-17
514 2 214.408 101.65 -4.05231e-17
515 1 71.837 99.8689 -4.05231e-17
516 2 81.6844 98.7757 -4.05231e-17
517 1 4.67686 155.996 -4.05231e-17
518 2 18.0095 19.1507 -4.05231e-17
519 1 125.69 81.5064 -4.05231e-17
520 2 59.3068 62.3349 -4.05231e-17
521 2 172.519 24.3152 -4.05231e-17
522 1 195.461 22.5536 -4.05231e-17
523 1 128.947 92.9744 -4.05231e-17
524 2 201.87 27.8942 -4.05231e-17
525 2 173.261 40.5129 -4.05231e-17
526 2 120.91 17.4879 -4.05231e-17
527 1 172.911 174.629 -4.05231e-17
528 1 2.47957 193.941 -4.05231e-17
529 2 73.9784 188.855 -4.05231e-17
530 2 4.23664 64.0724 -4.05231e-17
531 2 150.828 150.536 -4.05231e-17
532 1 53.4738 45.9628 -4.05231e-17
533 2 30.4995 157.891 -4.05231e-17
534 1 18.3401 152.807 -4.05231e-17
535 1 199.574 214.349 -4.05231e-17
536 2 13.0024 175.526 -4.05231e-17
537 1 155.537 68.1383 -4.05231e-17
538 1 67.236 175.725 -4.05231e-17
539 2 69.4129 170.153 -4.05231e-17
540 1 17.2454 195.337 -4.05231e-17
541 1 103.272 128.844 -4.05231e-17
542 1 26.9778 84.9648 -4.05231e-17
543 2 116.489 158.48 -4.05231e-17
544 1 9.62038 191.442 -4.05231e-17
545 1 176.415 70.6237 -4.05231e-17
546 2 193.604 27.8397 -4.05231e-17
547 1 51.9726 71.5354 -4.05231e-17
548 1 53.3759 23.6174 -4.05231e-17
549 2 42.0578 156.736 -4.05231e-17
550 2 194.822 3.87997 -4.05231e-17
551 2 18.9241 42.3546 -4.05231e-17
552 1 27.579 38.408 -4.05231e-17
553 2 206.48 193.159 -4.05231e-17
554 2 159.665 17.6003 -4.05231e-17
555 2 161.061 162.218 -4.05231e-17
556 1 183.42 21.5035 -4.05231e-17
557 1 3.02394 56.096 -4.05231e-17
558 1 51.2588 134.506 -4.05231e-17
559 2 109.861 104.094 -4.05231e-17
560 2 58.9022 88.9631 -4.05231e-17
561 2 101.197 155.986 -4.05231e-17
562 2 81.5744 87.5758 -4.05231e-17
563 1 61.6752 148.446 -4.05231e-17
564 2 112.392 63.7503 -4.05231e-17
565 2 5.32761 67.0964 -4.05231e-17
566 2 13.4816 68.9366 -4.05231e-17
567 1 123.895 216.278 -4.05231e-17
568 1 81.2673 76.2815 -4.05231e-17
569 2 149.09 177.209 -4.05231e-17
570 2 29.2181 24.2465 -4.05231e-17
571 2 200.515 72.6408 -4.05231e-17
572 1 107.728 108.151 -4.05231e-17
573 2 24.8053 37.3053 -4.05231e-17
574 2 154.226 158.243 -4.05231e-17
575 1 191.914 216.427 -4.05231e-17
576 1 77.7928 54.5247 -4.05231e-17
577 1 105.934 89.9634 -4.05231e-17
578 1 188.114 187.481 -4.05231e-17
579 2 188.032 118.098 -4.05231e-17
580 1 93.2562 106.611 -4.05231e-17
581 1 81.4154 139.631 -4.05231e-17
582 2 126.629 94.2527 -4.05231e-17
583 2 112.457 72.9647 -4.05231e-17
584 2 96.7627 143.692 -4.05231e-17
585 1 194.559 151.613 -4.05231e-17
586 1 155.885 79.6551 -4.05231e-17
587 1 185.288 78.866 -4.05231e-17
588 2 10.9671 79.1879 -4.05231e-17
589 1 23.9239 51.9846 -4.05231e-17
590 2 176.414 64.6538 -4.05231e-17
591 2 173.762 34.7637 -4.05231e-17
592 1 186.669 132.952 -4.05231e-17
593 1 137.882 87.9651 -4.05231e-17
594 1 217.931 76.3571 -4.05231e-17
595 1 10.709 68.0326 -4.05231e-17
596 2 100.531 94.3659 -4.05231e-17
597 2 73.8673 110.515 -4.05231e-17
598 2 140.111 84.0587 -4.05231e-17
599 2 86.7947 168.256 -4.05231e-17
600 2 43.8361 121.853 -4.05231e-17
601 1 147.55 101.389 -4.05231e-17
602 1 169.636 61.603 -4.05231e-17
603 2 5.32244 161.141 -4.05231e-17
604 1 44.9025 165.252 -4.05231e-17
605 2 140.941 97.6259 -4.05231e-17
606 2 158.918 99.7988 -4.05231e-17
607 2 33.8442 181.571 -4.05231e-17
608 2 118.333 70.9273 -4.05231e-17
609 1 119.596 57.7915 -4.05231e-17
610 2 136.983 159.165 -4.05231e-17
611 1 4.5897 167.614 -4.05231e-17
612 1 202.44 112.624 -4.05231e-17
613 2 217.039 158.542 -4.05231e-17
614 1 179.934 45.1574 -4.05231e-17
615 1 149.601 102.558 -4.05231e-17
616 2 106.256 160.974 -4.05231e-17
617 1 193.903 193.479 -4.05231e-17
618 1 119.749 42.653 -4.05231e-17
619 1 122.469 129.621 -4.05231e-17
620 2 53.8951 63.0553 -4.05231e-17
621 2 193.483 74.5622 -4.05231e-17
622 2 153.98 147.627 -4.05231e-17
623 2 120.541 127.635 -4.05231e-17
624 1 87.4209 181.58 -4.05231e-17
625 2 1.47789 126.977 -4.05231e-17
626 1 13.2019 206.112 -4.05231e-17
627 2 205.267 184.443 -4.05231e-17
628 1 144.592 146.021 -4.05231e-17
629 1 31.7856 23.3306 -4.05231e-17
630 2 159.198 24.4244 -4.05231e-17
631 2 142.428 112.66 -4.05231e-17
632 2 218.468 29.5787 -4.05231e-17
633 2 48.2733 92.7062 -4.05231e-17
634 2 216.537 99.1907 -4.05231e-17
635 2 77.5658 69.3171 -4.05231e-17
636 1 76.5145 125.087 -4.05231e-17
637 1 215.877 153.104 -4.05231e-17
638 1 89.1907 53.0994 -4.05231e-17
639 2 187.896 91.6577 -4.05231e-17
640 2 153.22 78.1829 -4.05231e-17
641 1 205.396 96.3425 -4.05231e-17
642 2 136.953 51.694 -4.05231e-17
643 1 115.017 71.7572 -4.05231e-17
644 2 127.347 142.177 -4.05231e-17
645 2 22.0578 83.4334 -4.05231e-17
646 1 193.101 106.905 -4.05231e-17
647 2 118.487 123.269 -4.05231e-17
648 2 206.387 29.9881 -4.05231e-17
649 1 49.5674 122.408 -4.05231e-17
650 1 41.5142 162.846 -4.05231e-17
651 1 104.944 112.305 -4.05231e-17
652 2 210.717 210.32 -4.05231e-17
653 2 174.246 16.2016 -4.05231e-17
654 1 208.593 161.99 -4.05231e-17
655 1 112.118 31.4115 -4.05231e-17
656 1 203.421 6.50683 -4.05231e-17
657 1 121.043 113.091 -4.05231e-17
658 2 194.358 116.517 -4.05231e-17
659 2 113.377 159.185 -4.05231e-17
660 1 35.2667 18.1401 -4.05231e-17
661 2 12.0821 53.6709 -4.05231e-17
662 2 133.025 111.755 -4.05231e-17
663 1 169.535 124.557 -4.05231e-17
664 1 78.6095 121.044 -4.05231e-17
665 1 119.168 153.632 -4.05231e-17
666 1 164.042 140.563 -4.05231e-17
667 1 21.9553 94.4062 -4.05231e-17
668 1 112.203 165.697 -4.05231e-17
669 1 96.8912 153.471 -4.05231e-17
670 2 202.637 175.474 -4.05231e-17
671 1 11.5889 23.1681 -4.05231e-17
672 1 205.945 187.471 -4.05231e-17
673 2 29.3029 121.116 -4.05231e-17
674 2 157.533 215.88 -4.05231e-17
675 2 160.081 217.999 -4.05231e-17
676 1 161.355 130.906 -4.05231e-17
677 2 49.376 61.9323 -4.05231e-17
678 1 87.0248 70.1373 -4.05231e-17
679 1 97.9023 212.645 -4.05231e-17
680 2 80.4542 23.1291 -4.05231e-17
681 1 12.1177 15.7852 -4.05231e-17
682 1 142.118 200.294 -4.05231e-17
683 2 100.308 127.61 -4.05231e-17
684 1 26.9161 185.903 -4.05231e-17
685 1 64.4586 214.308 -4.05231e-17
686 1 106.512 144.387 -4.05231e-17
687 1 94.7487 95.5758 -4.05231e-17
688 1 154.157 91.5873 -4.05231e-17
689 2 190.017 163.948 -4.05231e-17
690 1 67.3666 100.001 -4.05231e-17
691 2 63.8911 117.63 -4.05231e-17
692 2 213.621 178.65 -4.05231e-17
693 1 163.678 99.5023 -4.05231e-17
694 2 155.088 117.812 -4.05231e-17
695 2 154.639 62.6739 -4.05231e-17
696 2 202.585 96.6365 -4.05231e-17
697 1 124.908 45.3802 -4.05231e-17
698 2 51.5465 28.8344 -4.05231e-17
699 1 93.8412 187.39 -4.05231e-17
700 2 15.3801 146.088 -4.05231e-17
701 2 49.7293 84.6766 -4.05231e-17
702 1 137.431 8.25202 -4.05231e-17
703 1 210.813 70.5588 -4.05231e-17
704 1 7.8473 95.3636 -4.05231e-17
705 1 28.0488 139.676 -4.05231e-17
706 1 102.871 193.422 -4.05231e-17
707 1 122.58 44.4046 -4.05231e-17
708 2 206.453 139.377 -4.05231e-17
709 1 52.7187 170.836 -4.05231e-17
710 2 75.4611 76.2757 -4.05231e-17
711 2 172.661 192.38 -4.05231e-17
712 1 119.944 47.9795 -4.05231e-17
713 1 12.8698 160.231 -4.05231e-17
714 2 110.173 138.993 -4.05231e-17
715 2 135.704 83.955 -4.05231e-17
716 1 121.159 59.6475 -4.05231e-17
717 1 19.5187 109.6 -4.05231e-17
718 2 74.049 98.9386 -4.05231e-17
719 1 74.9695 20.5462 -4.05231e-17
720 2 48.8668 174.026 -4.05231e-17
721 2 50.7569 202.081 -4.05231e-17
722 2 45.064 130.407 -4.05231e-17
723 2 37.1198 142.896 -4.05231e-17
724 2 5.36053 88.3909 -4.05231e-17
725 2 16.2074 80.0213 -4.05231e-17
726 2 152.674 152.872 -4.05231e-17
727 2 27.1859 109.218 -4.05231e-17
728 1 185.385 74.2548 -4.05231e-17
729 2 200.671 156.099 -4.05231e-17
730 2 153.517 115.365 -4.05231e-17
731 1 10.7481 61.1655 -4.05231e-17
732 2 93.511 97.9444 -4.05231e-17
733 2 147.423 169.937 -4.05231e-17
734 2 35.3648 191.723 -4.05231e-17
735 2 107.164 52.3006 -4.05231e-17
736 1 197.643 177.153 -4.05231e-17
737 2 48.1122 24.8481 -4.05231e-17
738 2 113.721 4.65372 -4.05231e-17
739 2 174.632 176.947 -4.05231e-17
740 2 24.8533 86.8423 -4.05231e-17
741 2 195.095 94.5807 -4.05231e-17
742 1 80.0012 55.4562 -4.05231e-17
743 2 110.094 82.1485 -4.05231e-17
744 1 161.865 19.1937 -4.05231e-17
745 2 13.5891 87.1455 -4.05231e-17
746 1 20.3474 115.393 -4.05231e-17
747 1 83.2439 163.762 -4.05231e-17
748 2 84.3062 188.959 -4.05231e-17
749 1 216.302 167.71 -4.05231e-17
750 1 149.78 99.9699 -4.05231e-17
751 1 146.914 87.6014 -4.05231e-17
752 2 191.067 141.673 -4.05231e-17
753 1 52.466 192.615 -4.05231e-17
754 2 57.6102 81.9348 -4.05231e-17
755 1 0.027149 89.3351 -4.05231e-17
756 2 209.94 66.8183 -4.05231e-17
757 1 139.762 22.458 -4.05231e-17
758 2 103.717 60.6852 -4.05231e-17
759 1 101.825 135.709 -4.05231e-17
760 1 135.81 58.6623 -4.05231e-17
761 2 11.9939 120.919 -4.05231e-17
762 1 172.322 132.491 -4.05231e-17
763 2 12.0699 157.947 -4.05231e-17
764 2 33.9318 165.174 -4.05231e-17
765 1 16.6979 171.771 -4.05231e-17
766 2 99.0291 72.4115 -4.05231e-17
767 2 3.83478 142.881 -4.05231e-17
768 2 90.991 18.6915 -4.05231e-17
769 2 201.32 151.436 -4.05231e-17
770 1 153.099 8.83407 -4.05231e-17
771 1 67.369 52.783 -4.05231e-17
772 1 99.1538 207.666 -4.05231e-17
773 2 130.678 145.146 -4.05231e-17
774 1 95.5752 58.935 -4.05231e-17
775 1 96.1422 61.161 -4.05231e-17
776 2 216.129 112.091 -4.05231e-17
777 2 56.6158 69.6763 -4.05231e-17
778 1 87.5091 3.00779 -4.05231e-17
779 1 57.0811 17.7009 -4.05231e-17
780 2 157.602 40.865 -4.05231e-17
781 1 31.5117 170.019 -4.05231e-17
782 2 132.88 142.752 -4.05231e-17
783 1 124.497 40.137 -4.05231e-17
784 2 92.7539 118.649 -4.05231e-17
785 1 173.734 109.916 -4.05231e-17
786 1 73.55 215.83 -4.05231e-17
787 2 47.3704 165.842 -4.05231e-17
788 2 154.977 176.989 -4.05231e-17
789 2 9.66351 150.779 -4.05231e-17
790 2 124.026 3.15803 -4.05231e-17
791 2 192.751 41.9186 -4.05231e-17
792 1 182.601 139.025 -4.05231e-17
793 1 89.393 172.014 -4.05231e-17
794 2 215.922 16.8567 -4.05231e-17
795 2 194.942 178.256 -4.05231e-17
796 1 104.73 158.917 -4.05231e-17
797 1 48.4005 46.4526 -4.05231e-17
798 1 22.4522 73.9739 -4.05231e-17
799 2 95.8162 148.467 -4.05231e-17
800 1 40.0412 56.3312 -4.05231e-17
801 2 94.3993 93.1582 -4.05231e-17
802 1 74.1925 22.8605 -4.05231e-17
803 1 164.448 36.3839 -4.05231e-17
804 1 207.777 160.004 -4.05231e-17
805 2 195.364 84.6851 -4.05231e-17
806 2 164.136 123.112 -4.05231e-17
807 2 205.393 42.4274 -4.05231e-17
808 2 54.859 145.308 -4.05231e-17
809 1 157.674 54.631 -4.05231e-17
810 2 31.5609 183.118 -4.05231e-17
811 2 177.849 40.9815 -4.05231e-17
812 1 105.194 163.372 -4.05231e-17
813 1 216.151 135.435 -4.05231e-17
814 1 10.2455 194.353 -4.05231e-17
815 1 161.005 1.65609 -4.05231e-17
816 1 188.943 115.954 -4.05231e-17
817 2 45.727 64.3543 -4.05231e-17
818 2 23.3095 96.9511 -4.05231e-17
819 2 208.483 77.4869 -4.05231e-17
820 1 31.6831 100.375 -4.05231e-17
821 1 82.625 51.8298 -4.05231e-17
822 2 107.785 13.5628 -4.05231e-17
823 1 210.871 112.783 -4.05231e-17
824 1 177.847 111.323 -4.05231e-17
825 1 146.512 160.641 -4.05231e-17
826 2 183.679 64.2099 -4.05231e-17
827 2 130.616 44.7594 -4.05231e-17
828 1 59.2427 83.9638 -4.05231e-17
829 2 133.35 85.4424 -4.05231e-17
830 1 2.05629 155.033 -4.05231e-17
831 2 180.974 21.4528 -4.05231e-17
832 2 60.4716 45.0485 -4.05231e-17
833 2 83.2852 209.007 -4.05231e-17
834 1 70.4695 157.763 -4.05231e-17
835 1 195.306 144.965 -4.05231e-17
836 1 162.828 72.7215 -4.05231e-17
837 2 175.173 98.0528 -4.05231e-17
838 2 131.414 69.649 -4.05231e-17
839 1 48.589 31.9194 -4.05231e-17
840 2 208.739 143.146 -4.05231e-17
841 2 208.763 22.5605 -4.05231e-17
842 1 201.683 103.348 -4.05231e-17
843 1 198.807 47.1416 -4.05231e-17
844 2 28.8598 33.6411 -4.05231e-17
845 1 45.8547 147.062 -4.05231e-17
846 2 170.986 184.045 -4.05231e-17
847 1 78.2763 136.231 -4.05231e-17
848 2 141.563 45.3361 -4.05231e-17
849 1 26.69 59.5352 -4.05231e-17
850 2 70.1407 34.6336 -4.05231e-17
851 2 14.0061 32.3269 -4.05231e-17
852 1 119.057 191.494 -4.05231e-17
853 1 182.866 104.51 -4.05231e-17
854 2 92.6504 137.856 -4.05231e-17
855 2 182.542 90.6236 -4.05231e-17
856 1 73.3364 161.345 -4.05231e-17
857 2 71.8341 114.547 -4.05231e-17