ITEM: TIMESTEP
0
ITEM: NUMBER OF ATOMS
7200
ITEM: BOX BOUNDS xy xz yz pp pp pp
0.0000000000000000e+00 2.1900000000000000e+02 0.0000000000000000e+00
0.0000000000000000e+00 2.1900000000000000e+02 0.0000000000000000e+00
-3.6499999999999999e-01 3.6499999999999999e-01 0.0000000000000000e+00
ITEM: ATOMS id type x y z
1 1 115.292 117.519 -4.05231e-17
2 2 148.342 137.135 -4.05231e-17
3 2 86.4318 101.339 -4.05231e-17
4 1 15.6062 163.927 -4.05231e-17
5 1 51.9505 105.264 -4.05231e-17
6 1 199.556 171.913 -4.05231e-17
7 2 215.112 175.924 -4.05231e-17
8 2 154.974 115.561 -4.05231e-17
9 1 51.0558 41.0345 -4.05231e-17
10 2 136.476 137.084 -4.05231e-17
11 2 77.6665 51.656 -4.05231e-17
12 1 143.291 2.07112 -4.05231e-17
13 2 90.3874 42.5516 -4.05231e-17
14 1 201.19 157.74 -4.05231e-17
15 2 212.63 195.98 -4.05231e-17
16 2 104.656 133.613 -4.05231e-17
17 1 136.584 40.6673 -4.05231e-17
18 2 188.845 160.893 -4.05231e-17
19 1 18.4726 89.0732 -4.05231e-17
20 1 150.926 22.245 -4.05231e-17
21 1 4.20171 185.546 -4.05231e-17
22 2 103.129 80.6742 -4.05231e-17
23 2 129.7 183.347 -4.05231e-17
24 2 135.068 42.4638 -4.05231e-17
25 2 23.3191 210.151 -4.05231e-17
26 2 78.9364 48.9777 -4.05231e-17
27 1 95.4968 175.319 -4.05231e-17
28 2 61.2554 144.657 -4.05231e-17
29 2 182.269 189.816 -4.05231e-17
30 2 84.3593 201.62 -4.05231e-17
31 2 101.433 93.2921 -4.05231e-17
32 1 66.499 99.6634 -4.05231e-17
33 2 143.099 54.8335 -4.05231e-17
34 2 35.5611 179.463 -4.05231e-17
35 2 120.701 178.313 -4.05231e-17
36 1 159.381 136.392 -4.05231e-17
37 1 218.839 206.331 -4.05231e-17
38 2 209.254 69.0521 -4.05231e-17
39 1 83.7638 199.048 -4.05231e-17
40 2 135.888 37.9147 -4.05231e-17
41 1 96.3336 2.61566 -4.05231e-17
42 1 73.5011 73.573 -4.05231e-17
43 1 4.74254 89.2696 -4.05231e-17
44 1 178.233 186.731 -4.05231e-17
45 2 0.34106 10.4669 -4.05231e-17
46 1 212.281 217.667 -4.05231e-17
47 2 173.547 39.2268 -4.05231e-17
48 2 45.6699 12.5609 -4.05231e-17
49 1 69.5777 169.228 -4.05231e-17
50 2 194.503 106.722 -4.05231e-17
51 1 212.897 131.906 -4.05231e-17
52 1 0.543684 103.991 -4.05231e-17
53 2 104.568 16.6368 -4.05231e-17
54 1 160.648 189.196 -4.05231e-17
55 2 195.814 84.3212 -4.05231e-17
56 1 211.505 207.292 -4.05231e-17
57 2 2.47947 202.969 -4.05231e-17
58 1 153.621 22.6628 -4.05231e-17
59 1 99.3237 146.735 -4.05231e-17
60 2 77.3036 28.5064 -4.05231e-17
61 1 108.299 51.9228 -4.05231e-17
62 1 52.4482 160.81 -4.05231e-17
63 2 114.295 84.8795 -4.05231e-17
64 1 215.548 153.692 -4.05231e-17
65 2 36.4572 131.085 -4.05231e-17
66 2 135.299 105.674 -4.05231e-17
67 2 125.741 163.014 -4.05231e-17
68 1 86.8873 126.15 -4.05231e-17
69 2 205.135 141.298 -4.05231e-17
70 1 183.245 35.5284 -4.05231e-17
71 1 23.8252 118.178 -4.05231e-17
72 2 127.864 194.646 -4.05231e-17
73 2 156.614 203.39 -4.05231e-17
74 2 122.764 174.58 -4.05231e-17
75 1 112.077 131.977 -4.05231e-17
76 2 191.109 58.5295 -4.05231e-17
77 2 185.992 40.5417 -4.05231e-17
78 1 180.711 165.874 -4.05231e-17
79 2 96.7803 150.918 -4.05231e-17
80 1 96.7855 31.4238 -4.05231e-17
81 1 140.557 157.233 -4.05231e-17
82 1 52.2835 46.0397 -4.05231e-17
83 1 164.511 180.426 -4.05231e-17
84 2 101.868 49.9593 -4.05231e-17
85 2 160.246 20.3652 -4.05231e-17
86 2 25.1259 148.083 -4.05231e-17
87 2 72.105 75.8748 -4.05231e-17
88 1 128.774 72.9265 -4.05231e-17
89 2 170.971 9.60336 -4.05231e-17
90 2 65.8566 155.019 -4.05231e-17
91 2 120.836 29.0621 -4.05231e-17
92 1 106.034 9.76339 -4.05231e-17
93 2 36.5344 186.881 -4.05231e-17
94 2 183.719 153.807 -4.05231e-17
95 1 33.4418 172.665 -4.05231e-17
96 2 173.421 109.721 -4.05231e-17
97 2 216.407 45.219 -4.05231e-17
98 2 127.115 108.637 -4.05231e-17
99 1 85.5271 170.69 -4.05231e-17
100 2 98.9831 160.154 -4.05231e-17
101 1 181.975 12.6338 -4.05231e-17
102 1 151.926 106.03 -4.05231e-17
103 2 119.274 157.187 -4.05231e-17
104 2 85.3573 15.3226 -4.05231e-17
105 1 162.069 171.037 -4.05231e-17
106 1 129.195 37.2717 -4.05231e-17
107 1 217.137 195.974 -4.05231e-17
108 1 204.402 187.921 -4.05231e-17
109 2 45.5866 40.3578 -4.05231e-17
110 2 38.2953 97.4456 -4.05231e-17
111 1 5.41986 81.2761 -4.05231e-17
112 2 174.7 140.181 -4.05231e-17
113 1 9.65289 139.042 -4.05231e-17
114 1 198.287 180.549 -4.05231e-17
115 2 50.2626 38.4913 -4.05231e-17
116 2 178.381 218.326 -4.05231e-17
117 1 196.374 116.023 -4.05231e-17
118 1 183.186 136.149 -4.05231e-17
119 2 148.039 91.4802 -4.05231e-17
120 2 78.4373 139.516 -4.05231e-17
121 1 95.5966 51.4349 -4.05231e-17
122 2 41.6812 0.224155 -4.05231e-17
123 2 174.753 115.024 -4.05231e-17
124 1 192.99 214.708 -4.05231e-17
125 1 0.0423636 127.958 -4.05231e-17
126 2 140.264 43.9776 -4.05231e-17
127 2 141.393 188.72 -4.05231e-17
128 1 113.528 206.36 -4.05231e-17
129 1 35.4491 22.7736 -4.05231e-17
130 2 212.106 83.9233 -4.05231e-17
131 1 3.71769 23.6657 -4.05231e-17
132 1 48.6881 205.994 -4.05231e-17
133 1 56.4278 19.7377 -4.05231e-17
134 1 155.694 206.068 -4.05231e-17
135 2 7.54578 121.224 -4.05231e-17
136 1 170.708 69.1083 -4.05231e-17
137 1 168.949 7.21021 -4.05231e-17
138 2 215.546 48.2875 -4.05231e-17
139 1 86.2245 69.7828 -4.05231e-17
140 1 166.828 134.924 -4.05231e-17
141 1 23.6218 42.4888 -4.05231e-17
142 1 147.001 7.07879 -4.05231e-17
143 1 146.821 67.0573 -4.05231e-17
144 1 97.5509 135.518 -4.05231e-17
145 2 152.204 83.2141 -4.05231e-17
146 1 150.27 197.424 -4.05231e-17
147 2 75.6921 72.3949 -4.05231e-17
148 1 137.164 9.04963 -4.05231e-17
149 1 20.0696 26.8482 -4.05231e-17
150 2 60.0121 60.2578 -4.05231e-17
151 1 83.7838 169.138 -4.05231e-17
152 1 59.27 168.967 -4.05231e-17
153 2 11.666 140.769 -4.05231e-17
154 1 8.21673 93.8132 -4.05231e-17
155 2 165.724 37.5666 -4.05231e-17
156 2 210.402 204.476 -4.05231e-17
157 2 158.584 7.78063 -4.05231e-17
158 2 66.8764 184.788 -4.05231e-17
159 2 36.2487 158.997 -4.05231e-17
160 2 116.04 137.845 -4.05231e-17
161 2 3.71972 26.2634 -4.05231e-17
162 1 126.646 59.0976 -4.05231e-17
163 1 100.692 83.8704 -4.05231e-17
164 2 120.694 167.737 -4.05231e-17
165 1 198.175 195.491 -4.05231e-17
166 2 70.774 130.219 -4.05231e-17
167 1 205.742 43.6816 -4.05231e-17
168 1 70.0377 151.99 -4.05231e-17
169 2 86.0379 133.2 -4.05231e-17
170 1 81.2915 63.1905 -4.05231e-17
171 1 3.14744 63.23 -4.05231e-17
172 1 214.387 10.0399 -4.05231e-17
173 1 86.043 207.496 -4.05231e-17
174 2 128.38 111.428 -4.05231e-17
175 2 215.724 142.526 -4.05231e-17
176 1 101.455 146.619 -4.05231e-17
177 2 180.281 7.9309 -4.05231e-17
178 1 66.2661 13.0272 -4.05231e-17
179 2 21.0047 145.245 -4.05231e-17
180 1 85.3213 162.045 -4.05231e-17
181 1 118.011 162.269 -4.05231e-17
182 1 75.5465 163.774 -4.05231e-17
183 1 163.309 90.0605 -4.05231e-17
184 2 103.129 64.5914 -4.05231e-17
185 2 108.805 25.8415 -4.05231e-17
186 2 87.2426 0.0138231 -4.05231e-17
187 2 155.799 180.654 -4.05231e-17
188 2 123.869 74.1099 -4.05231e-17
189 1 157.111 95.4214 -4.05231e-17
190 1 59.9346 70.5915 -4.05231e-17
191 2 168.177 65.3606 -4.05231e-17
192 2 82.5392 75.6365 -4.05231e-17
193 1 193.696 94.3395 -4.05231e-17
194 1 190.414 210.326 -4.05231e-17
195 2 21.9603 135.674 -4.05231e-17
196 1 147.85 88.5886 -4.05231e-17
197 2 73.9541 131.491 -4.05231e-17
198 2 143.463 204.542 -4.05231e-17
199 2 156.494 157.19 -4.05231e-17
200 2 105.929 128.522 -4.05231e-17
201 2 0.601958 191.914 -4.05231e-17
202 1 162.898 54.2608 -4.05231e-17
203 1 147.829 156.013 -4.05231e-17
204 2 5.19691 40.0814 -4.05231e-17
205 2 166.746 181.876 -4.05231e-17
206 2 34.3732 213.41 -4.05231e-17
207 1 189.955 143.423 -4.05231e-17
208 2 34.1405 51.7479 -4.05231e-17
209 2 93.4568 216.84 -4.05231e-17
210 1 71.8427 68.8529 -4.05231e-17
211 1 6.46204 20.1336 -4.05231e-17
212 1 43.5491 125.111 -4.05231e-17
213 1 84.58 19.8463 -4.05231e-17
214 2 149.012 20.6487 -4.05231e-17
215 1 35.1044 161.616 -4.05231e-17
216 1 116.885 209.956 -4.05231e-17
217 1 115.257 161.564 -4.05231e-17
218 2 62.1259 164.531 -4.05231e-17
219 2 49.6585 33.0684 -4.05231e-17
220 1 93.6208 2.33014 -4.05231e-17
221 2 123.102 198.043 -4.05231e-17
222 1 131.572 218.049 -4.05231e-17
223 1 18.8246 189.994 -4.05231e-17
224 2 49.5093 18.5875 -4.05231e-17
225 2 167.032 172.285 -4.05231e-17
226 1 54.2551 146.093 -4.05231e-17
227 2 133.014 80.5394 -4.05231e-17
228 2 42.0724 24.3968 -4.05231e-17
229 1 98.1678 7.80475 -4.05231e-17
230 1 134.205 56.5341 -4.05231e-17
231 2 37.5713 191.282 -4.05231e-17
232 1 55.1778 218.877 -4.05231e-17
233 2 159.777 98.9327 -4.05231e-17
234 1 91.5925 184.216 -4.05231e-17
235 1 187.213 48.5589 -4.05231e-17
236 2 173.447 14.188 -4.05231e-17
237 2 111.087 218.361 -4.05231e-17
238 2 167.043 194.728 -4.05231e-17
239 1 8.31659 98.4896 -4.05231e-17
240 1 211.986 170.802 -4.05231e-17
241 2 68.9067 176.256 -4.05231e-17
242 1 203.636 156.729 -4.05231e-17
243 2 23.7823 150.835 -4.05231e-17
244 2 42.7025 176.294 -4.05231e-17
245 1 165.43 174.045 -4.05231e-17
246 2 126.88 2.147 -4.05231e-17
247 2 28.3627 124.461 -4.05231e-17
248 1 67.1275 67.5358 -4.05231e-17
249 1 95.7252 58.704 -4.05231e-17
250 1 139.55 41.5157 -4.05231e-17
251 2 81.7473 101.429 -4.05231e-17
252 1 153.527 111.177 -4.05231e-17
253 2 144.932 133.046 -4.05231e-17
254 2 77.0769 126.08 -4.05231e-17
255 2 215.778 159.163 -4.05231e-17
256 1 106.57 191.579 -4.05231e-17
257 2 68.4555 211.017 -4.05231e-17
258 1 75.029 20.7224 -4.05231e-17
259 2 168.542 38.8843 -4.05231e-17
260 1 166.684 137.628 -4.05231e-17
261 2 25.817 40.9671 -4.05231e-17
262 2 132.09 58.2417 -4.05231e-17
263 2 162.42 43.1827 -4.05231e-17
264 1 124.516 34.8528 -4.05231e-17
265 1 42.0251 191.98 -4.05231e-17
266 1 106.441 38.3381 -4.05231e-17
267 2 148.741 48.1313 -4.05231e-17
268 1 30.3784 215.705 -4.05231e-17
269 2 206.414 89.6305 -4.05231e-17
270 2 73.3643 83.3553 -4.05231e-17
271 2 115.216 120.005 -4.05231e-17
272 1 112.018 40.1418 -4.05231e-17
273 1 61.1023 28.4787 -4.05231e-17
274 1 94.2482 19.7673 -4.05231e-17
275 1 67.8861 25.2583 -4.05231e-17
276 1 148.067 114.236 -4.05231e-17
277 1 167.005 139.899 -4.05231e-17
278 2 173.303 75.9954 -4.05231e-17
279 2 174.725 206.986 -4.05231e-17
280 1 177.713 146.684 -4.05231e-17
281 2 184.137 97.4567 -4.05231e-17
282 2 100.177 5.87096 -4.05231e-17
283 2 42.1548 130.128 -4.05231e-17
284 1 36.2268 6.54466 -4.05231e-17
285 1 68.1393 181.264 -4.05231e-17
286 2 152.881 46.7457 -4.05231e-17
287 2 22.8192 212.926 -4.05231e-17
288 1 213.173 158.304 -4.05231e-17
289 2 117.05 14.0254 -4.05231e-17
290 1 218.444 163.301 -4.05231e-17
291 2 182.727 40.611 -4.05231e-17
292 1 101.568 105.743 -4.05231e-17
293 1 119.065 15.9684 -4.05231e-17
294 1 29.3004 52.3352 -4.05231e-17
295 2 25.9703 27.9739 -4.05231e-17
296 1 137.802 43.1559 -4.05231e-17
297 1 153.836 79.056 -4.05231e-17
298 2 54.2345 130.698 -4.05231e-17
299 1 146.471 200.335 -4.05231e-17
300 2 92.8859 163.858 -4.05231e-17
301 2 67.8423 129.859 -4.05231e-17
302 2 174.506 28.2041 -4.05231e-17
303 1 130.074 170.516 -4.05231e-17
304 1 149.407 213.933 -4.05231e-17
305 1 168.386 177.19 -4.05231e-17
306 2 164.989 201.796 -4.05231e-17
307 2 94.4679 35.3208 -4.05231e-17
308 2 186.572 92.4557 -4.05231e-17
309 1 158.702 110.963 -4.05231e-17
310 1 158.336 138.763 -4.05231e-17
311 1 46.0454 68.0188 -4.05231e-17
312 2 71.0282 6.78676 -4.05231e-17
313 2 215.776 156.501 -4.05231e-17
314 1 208.824 47.8786 -4.05231e-17
315 2 115.569 53.3408 -4.05231e-17
316 1 188.412 9.93653 -4.05231e-17
317 1 61.2142 92.1899 -4.05231e-17
318 1 167.873 91.6696 -4.05231e-17
319 2 218.49 18.0809 -4.05231e-17
320 1 100.815 162.123 -4.05231e-17
321 1 115.107 56.1463 -4.05231e-17
322 1 33.6437 0.372786 -4.05231e-17
323 2 176.087 12.9642 -4.05231e-17
324 2 60.4828 99.1136 -4.05231e-17
325 2 17.4725 22.1377 -4.05231e-17
326 1 142.739 78.0672 -4.05231e-17
327 1 69.6911 132.401 -4.05231e-17
328 2 16.6744 19.1334 -4.05231e-17
329 2 50.5033 8.57407 -4.05231e-17
330 2 17.9789 25.2984 -4.05231e-17
331 2 164.673 22.3803 -4.05231e-17
332 2 95.2193 128.238 -4.05231e-17
333 2 132.104 172.34 -4.05231e-17
334 2 15.4954 39.003 -4.05231e-17
335 1 97.0758 53.0976 -4.05231e-17
336 2 96.2309 133.397 -4.05231e-17
337 2 40.1837 208.219 -4.05231e-17
338 1 216.332 128.781 -4.05231e-17
339 2 79.7678 196.731 -4.05231e-17
340 2 117.703 167.177 -4.05231e-17
341 2 23.6893 165.643 -4.05231e-17
342 2 154.143 104.118 -4.05231e-17
343 2 201.389 68.5054 -4.05231e-17
344 1 104.448 11.8429 -4.05231e-17
345 2 19.4281 182.043 -4.05231e-17
346 2 99.2352 212.545 -4.05231e-17
347 1 97.2133 104.679 -4.05231e-17
348 1 46.2326 29.3866 -4.05231e-17
349 2 22.1354 127.141 -4.05231e-17
350 2 165.134 4.18924 -4.05231e-17
351 1 192.802 12.025 -4.05231e-17
352 1 24.7419 7.1667 -4.05231e-17
353 2 96.48 37.6556 -4.05231e-17
354 2 172.432 149.295 -4.05231e-17
355 1 166.846 106.226 -4.05231e-17
356 2 169.971 93.1212 -4.05231e-17
357 1 132.391 134.246 -4.05231e-17
358 1 93.4732 130.296 -4.05231e-17
359 1 38.0082 178.361 -4.05231e-17
360 1 210.226 127.2 -4.05231e-17
361 2 31.9656 185.202 -4.05231e-17
362 2 38.9261 57.3324 -4.05231e-17
363 1 75.2566 171.465 -4.05231e-17
364 2 179.56 26.934 -4.05231e-17
365 1 166.084 184.327 -4.05231e-17
366 1 111.786 13.3124 -4.05231e-17
367 1 143.68 183.477 -4.05231e-17
368 1 173.395 23.0141 -4.05231e-17
369 2 107.845 28.7889 -4.05231e-17
370 1 127.244 118.858 -4.05231e-17
371 2 200.074 43.5319 -4.05231e-17
372 1 46.7593 110.555 -4.05231e-17
373 2 10.5737 151.083 -4.05231e-17
374 2 109.774 113.052 -4.05231e-17
375 1 161.897 127.977 -4.05231e-17
376 1 165.19 149.311 -4.05231e-17
377 2 5.85507 34.8401 -4.05231e-17
378 2 196.421 21.3124 -4.05231e-17
379 2 92.4822 6.98407 -4.05231e-17
380 1 18.3757 145.173 -4.05231e-17
381 1 160.457 207.724 -4.05231e-17
382 1 103.264 153.064 -4.05231e-17
383 1 185.636 6.6892 -4.05231e-17
384 2 209.062 182.241 -4.05231e-17
385 1 123.279 28.4641 -4.05231e-17
386 2 54.7174 31.9202 -4.05231e-17
387 1 114.969 214.803 -4.05231e-17
388 1 110.261 108.868 -4.05231e-17
389 2 113.854 72.9159 -4.05231e-17
390 1 178.549 173.712 -4.05231e-17
391 1 164.258 32.7896 -4.05231e-17
392 2 38.3024 93.6906 -4.05231e-17
393 2 200.012 59.8225 -4.05231e-17
394 1 51.3571 53.2795 -4.05231e-17
395 1 158.871 176.816 -4.05231e-17
396 2 166.409 144.369 -4.05231e-17
397 1 48.2824 203.494 -4.05231e-17
398 2 52.7339 192.786 -4.05231e-17
399 2 178.149 63.0468 -4.05231e-17
400 2 164.562 104.776 -4.05231e-17
401 2 185.432 148.442 -4.05231e-17
402 1 112.479 161.578 -4.05231e-17
403 1 134.126 110.402 -4.05231e-17
404 2 129.374 156.945 -4.05231e-17
405 1 46.6112 205.151 -4.05231e-17
406 2 150.569 164.612 -4.05231e-17
407 1 137.994 93.2727 -4.05231e-17
408 1 159.481 32.5467 -4.05231e-17
409 2 207.483 92.5767 -4.05231e-17
410 2 202.407 79.9612 -4.05231e-17
411 1 167.538 114.395 -4.05231e-17
412 1 105.685 79.7484 -4.05231e-17
413 1 108.535 178.386 -4.05231e-17
414 2 204.665 53.3223 -4.05231e-17
415 1 203.724 116.982 -4.05231e-17
416 1 7.05155 211.561 -4.05231e-17
417 2 173.899 186.11 -4.05231e-17
418 2 36.7382 103.439 -4.05231e-17
419 2 4.27067 132.455 -4.05231e-17
420 2 208.694 75.1952 -4.05231e-17
421 1 90.383 194.669 -4.05231e-17
422 1 82.4864 106.609 -4.05231e-17
423 2 161.463 7.88638 -4.05231e-17
424 2 27.9043 39.5069 -4.05231e-17
425 2 4.24986 177.251 -4.05231e-17
426 1 58.241 192.459 -4.05231e-17
427 2 64.998 63.105 -4.05231e-17
428 1 209.316 41.0722 -4.05231e-17
429 2 36.1444 38.6008 -4.05231e-17
430 2 47.4295 99.6416 -4.05231e-17
431 1 121.373 38.6815 -4.05231e-17
432 2 136.71 15.7891 -4.05231e-17
433 1 122.889 105.12 -4.05231e-17
434 1 197.237 86.6523 -4.05231e-17
435 1 199.793 40.0782 -4.05231e-17
436 2 103.647 180.479 -4.05231e-17
437 2 37.0518 120.565 -4.05231e-17
438 2 37.0587 62.616 -4.05231e-17
439 2 23.2084 121.118 -4.05231e-17
440 2 14.5585 171.307 -4.05231e-17
441 1 25.0118 111.787 -4.05231e-17
442 1 149.335 104.705 -4.05231e-17
443 2 212.315 8.62161 -4.05231e-17
444 1 151.402 133.955 -4.05231e-17
445 1 210.194 66.8113 -4.05231e-17
446 2 134.894 96.9015 -4.05231e-17
447 2 47.0954 164.041 -4.05231e-17
448 2 153.848 65.4195 -4.05231e-17
449 1 186.21 38.0056 -4.05231e-17
450 1 209.945 140.57 -4.05231e-17
451 1 159.112 185.384 -4.05231e-17
452 2 119.757 198.677 -4.05231e-17
453 1 186.234 177.56 -4.05231e-17
454 1 16.0036 115.801 -4.05231e-17
455 2 98.0584 72.7212 -4.05231e-17
456 1 214.784 7.47533 -4.05231e-17
457 2 135.053 49.7179 -4.05231e-17
458 2 156.678 82.745 -4.05231e-17
459 2 202.966 5.54256 -4.05231e-17
460 1 48.8718 83.2247 -4.05231e-17
461 1 174.557 96.721 -4.05231e-17
462 1 207.783 5.68359 -4.05231e-17
463 2 34.5226 170.022 -4.05231e-17
464 2 169.458 107.047 -4.05231e-17
465 1 13.3642 215.326 -4.05231e-17
466 2 22.0077 0.174842 -4.05231e-17
467 2 100.91 167.439 -4.05231e-17
468 2 151.354 72.699 -4.05231e-17
469 2 95.93 155.955 -4.05231e-17
470 2 18.5331 212.708 -4.05231e-17
471 2 107.964 115.669 -4.05231e-17
472 2 80.9366 28.2054 -4.05231e-17
473 2 161.799 23.1 -4.05231e-17
474 2 162.484 119.327 -4.05231e-17
475 1 174.615 78.553 -4.05231e-17
476 2 120.233 61.4591 -4.05231e-17
477 1 216.896 6.45202 -4.05231e-17
478 1 48.739 127.697 -4.05231e-17
479 2 11.3062 113.544 -4.05231e-17
480 1 178.404 104.388 -4.05231e-17
481 1 36.8885 24.8813 -4.05231e-17
482 2 14.9071 178.602 -4.05231e-17
483 1 99.6207 155.559 -4.05231e-17
484 1 10.5869 156.485 -4.05231e-17
485 2 160.067 121.194 -4.05231e-17
486 1 132.629 77.7069 -4.05231e-17
487 1 176.875 208.719 -4.05231e-17
488 1 49.4301 6.22863 -4.05231e-17
489 1 4.53176 212.073 -4.05231e-17
490 1 83.9808 140.893 -4.05231e-17
491 1 212.481 3.54034 -4.05231e-17
492 2 82.0614 174.087 -4.05231e-17
493 1 92.3576 76.8738 -4.05231e-17
494 2 17.3956 117.868 -4.05231e-17
495 1 176.183 154.915 -4.05231e-17
496 1 216.993 81.7798 -4.05231e-17
497 1 39.0901 102.447 -4.05231e-17
498 2 163.014 161.152 -4.05231e-17
499 2 24.706 175.917 -4.05231e-17
500 2 41.4233 199.393 -4.05231e-17
501 2 50.8757 194.764 -4.05231e-17
502 2 142.691 83.63 -4.05231e-17
503 2 112.772 31.3484 -4.05231e-17
504 2 61.5676 108.467 -4.05231e-17
505 2 104.663 143.116 -4.05231e-17
506 1 12.4433 81.2923 -4.05231e-17
507 2 70.7348 174.332 -4.05231e-17
508 1 77.2744 37.2935 -4.05231e-17
509 1 81.1448 185.737 -4.05231e-17
510 1 85.9991 10.6554 -4.05231e-17
511 2 57.4807 153.463 -4.05231e-17
512 1 58.9685 186.065 -4.05231e-17
513 2 124.753 106.779 -4.05231e-17
514 2 104.627 55.1022 -4.05231e-17
515 1 54.1674 49.9017 -4.05231e-17
516 2 31.5673 2.27244 -4.05231e-17
517 1 48.8257 108.757 -4.05231e-17
518 2 103.023 22.2436 -4.05231e-17
519 1 125.717 41.2574 -4.05231e-17
520 2 142.949 155.538 -4.05231e-17
521 2 94.9368 29.4003 -4.05231e-17
522 1 13.8328 46.8225 -4.05231e-17
523 1 110.639 143.219 -4.05231e-17
524 2 80.3453 135.461 -4.05231e-17
525 2 194.026 49.2945 -4.05231e-17
526 2 114.611 112.177 -4.05231e-17
527 1 187.223 62.66 -4.05231e-17
528 1 186.829 98.6985 -4.05231e-17
529 2 51.6707 184.139 -4.05231e-17
530 2 22.4348 18.4813 -4.05231e-17
531 2 99.0237 2.99634 -4.05231e-17
532 1 13.4959 165.368 -4.05231e-17
533 2 19.8132 69.9558 -4.05231e-17
534 1 204.366 20.2088 -4.05231e-17
535 1 4.70185 162.203 -4.05231e-17
536 2 2.43727 87.8127 -4.05231e-17
537 1 110.999 58.5266 -4.05231e-17
538 1 12.0651 4.86035 -4.05231e-17
539 2 36.8895 137.949 -4.05231e-17
540 1 163.593 67.3144 -4.05231e-17
541 1 120.15 176.127 -4.05231e-17
542 1 151.52 75.3831 -4.05231e-17
543 2 69.3027 38.028 -4.05231e-17
544 1 42.6403 31.3374 -4.05231e-17
545 1 0.287624 194.389 -4.05231e-17
546 2 2.84401 137.357 -4.05231e-17
547 1 140.624 191.068 -4.05231e-17
548 1 13.8853 8.96468 -4.05231e-17
549 2 29.0798 188.832 -4.05231e-17
550 2 196.49 154.547 -4.05231e-17
551 2 197.817 121.045 -4.05231e-17
552 1 52.2855 200.349 -4.05231e-17
553 2 102.861 88.1094 -4.05231e-17
554 2 217.312 136.121 -4.05231e-17
555 2 103.856 140.008 -4.05231e-17
556 1 144.005 166.231 -4.05231e-17
557 1 124.536 109.27 -4.05231e-17
558 1 212.472 126.468 -4.05231e-17
559 2 8.29971 182.315 -4.05231e-17
560 2 69.797 3.60652 -4.05231e-17
561 2 41.4973 118.428 -4.05231e-17
562 2 52.6923 66.643 -4.05231e-17
563 1 209.526 52.375 -4.05231e-17
564 2 160.436 36.7133 -4.05231e-17
565 2 31.4456 103.294 -4.05231e-17
566 2 159.053 93.5857 -4.05231e-17
567 1 137.04 60.2075 -4.05231e-17
568 1 87.6215 64.0717 -4.05231e-17
569 2 66.9254 159.516 -4.05231e-17
570 2 85.8462 157.068 -4.05231e-17
571 2 171.829 88.314 -4.05231e-17
572 1 106.599 145.022 -4.05231e-17
573 2 170.848 36.9029 -4.05231e-17
574 2 114.337 12.6941 -4.05231e-17
575 1 15.1933 92.2456 -4.05231e-17
576 1 156.404 93.2499 -4.05231e-17
577 1 118.307 172.136 -4.05231e-17
578 1 103.407 194.399 -4.05231e-17
579 2 41.5603 157.81 -4.05231e-17
580 1 199.429 154.12 -4.05231e-17
581 1 130.464 161.717 -4.05231e-17
582 2 211.829 190.567 -4.05231e-17
583 2 66.3369 38.615 -4.05231e-17
584 2 216.704 180.868 -4.05231e-17
585 1 154.871 32.8943 -4.05231e-17
586 1 209.041 77.6948 -4.05231e-17
587 1 110.917 168.793 -4.05231e-17
588 2 11.7195 74.1229 -4.05231e-17
589 1 212.544 135.92 -4.05231e-17
590 2 36.3687 109.364 -4.05231e-17
591 2 19.3859 46.3599 -4.05231e-17
592 1 46.047 185.964 -4.05231e-17
593 1 21.7999 65.2455 -4.05231e-17
594 1 28.3356 211.367 -4.05231e-17
595 1 48.3953 94.0036 -4.05231e-17
596 2 28.4349 45.3829 -4.05231e-17
597 2 110.713 15.5266 -4.05231e-17
598 2 110.853 116.412 -4.05231e-17
599 2 168.903 127.358 -4.05231e-17
600 2 99.1132 79.7544 -4.05231e-17
601 1 171.686 192.692 -4.05231e-17
602 1 156.87 41.1588 -4.05231e-17
603 2 201.515 189.137 -4.05231e-17
604 1 64.9085 168.759 -4.05231e-17
605 2 66.6831 150.293 -4.05231e-17
606 2 31.6823 36.4331 -4.05231e-17
607 2 201.538 54.1327 -4.05231e-17
608 2 66.6397 200.401 -4.05231e-17
609 1 94.7361 172.908 -4.05231e-17
610 2 186.356 16.5328 -4.05231e-17
611 1 73.7998 184.592 -4.05231e-17
612 1 57.6709 78.9801 -4.05231e-17
613 2 82.8405 61.4746 -4.05231e-17
614 1 218.51 171.79 -4.05231e-17
615 1 98.5362 187.143 -4.05231e-17
616 2 167.164 84.2351 -4.05231e-17
617 1 38.759 6.63209 -4.05231e-17
618 1 148.972 187.357 -4.05231e-17
619 1 194.624 160.819 -4.05231e-17
620 2 157.684 174.138 -4.05231e-17
621 2 191.61 111.507 -4.05231e-17
622 2 169.073 79.8498 -4.05231e-17
623 2 72.9911 164.904 -4.05231e-17
624 1 116.156 42.9368 -4.05231e-17
625 2 97.3413 34.6062 -4.05231e-17
626 1 33.1068 15.6217 -4.05231e-17
627 2 1.64422 147.175 -4.05231e-17
628 1 16.478 137.819 -4.05231e-17
629 1 128.493 10.1666 -4.05231e-17
630 2 117.232 109.961 -4.05231e-17
631 2 211.369 164.885 -4.05231e-17
632 2 7.69774 82.6133 -4.05231e-17
633 2 91.0052 166.045 -4.05231e-17
634 2 18.5286 156.773 -4.05231e-17
635 2 116.556 1.82464 -4.05231e-17
636 1 35.4379 201.174 -4.05231e-17
637 1 68.5852 110.671 -4.05231e-17
638 1 76.7293 61.0495 -4.05231e-17
639 2 1.86877 30.8087 -4.05231e-17
640 2 37.1941 29.8825 -4.05231e-17
641 1 204.532 14.738 -4.05231e-17
642 2 155.674 153.947 -4.05231e-17
643 1 144.763 76.9705 -4.05231e-17
644 2 14.6328 158.69 -4.05231e-17
645 2 105.891 72.7276 -4.05231e-17
646 1 105.166 66.1837 -4.05231e-17
647 2 50.7321 204.53 -4.05231e-17
648 2 163.009 59.2017 -4.05231e-17
649 1 46.4053 173.266 -4.05231e-17
650 1 152.992 211.271 -4.05231e-17
651 1 11.8742 211.353 -4.05231e-17
652 2 0.948434 119.176 -4.05231e-17
653 2 45.704 195.44 -4.05231e-17
654 1 39.586 152.915 -4.05231e-17
655 1 161.75 184.83 -4.05231e-17
656 1 160.984 186.961 -4.05231e-17
657 1 79.2524 123.995 -4.05231e-17
658 2 60.3849 78.7946 -4.05231e-17
659 2 77.2232 24.4259 -4.05231e-17
660 1 36.2619 215.171 -4.05231e-17
661 2 57.4889 217.585 -4.05231e-17
662 2 37.7951 83.3582 -4.05231e-17
663 1 24.468 12.5943 -4.05231e-17
664 1 97.1164 87.4667 -4.05231e-17
665 1 97.9838 43.4947 -4.05231e-17
666 1 130.503 206.862 -4.05231e-17
667 1 213.403 215.505 -4.05231e-17
668 1 218.999 45.2407 -4.05231e-17
669 1 173.613 168.547 -4.05231e-17
670 2 179.435 87.2693 -4.05231e-17
671 1 175.066 122.303 -4.05231e-17
672 1 90.9655 22.2437 -4.05231e-17
673 2 86.052 211.865 -4.05231e-17
674 2 19.132 106.506 -4.05231e-17
675 2 144.811 29.2839 -4.05231e-17
676 1 5.89456 51.1432 -4.05231e-17
677 2 60.6109 184.297 -4.05231e-17
678 1 204.421 78.2481 -4.05231e-17
679 1 201.912 129.52 -4.05231e-17
680 2 1.44787 177.145 -4.05231e-17
681 1 152.527 172.441 -4.05231e-17
682 1 192.84 38.6418 -4.05231e-17
683 2 150.898 69.5407 -4.05231e-17
684 1 64.3217 214.164 -4.05231e-17
685 1 188.402 211.895 -4.05231e-17
686 1 90.1135 112.285 -4.05231e-17
687 1 188.145 33.7288 -4.05231e-17
688 1 50.825 1.24993 -4.05231e-17
689 2 146.43 158.735 -4.05231e-17
690 1 191.648 99.8888 -4.05231e-17
691 2 18.8822 136.166 -4.05231e-17
692 2 51.6257 110.832 -4.05231e-17
693 1 172.252 83.4279 -4.05231e-17
694 2 157.911 213.031 -4.05231e-17
695 2 113.802 3.13494 -4.05231e-17
696 2 123.587 79.2338 -4.05231e-17
697 1 129.705 165.438 -4.05231e-17
698 2 154.146 62.4511 -4.05231e-17
699 1 70.7239 147.394 -4.05231e-17
700 2 103.822 91.1959 -4.05231e-17
701 2 43.5166 77.5054 -4.05231e-17
702 1 80.4702 137.953 -4.05231e-17
703 1 200.696 174.471 -4.05231e-17
704 1 53.2497 156.138 -4.05231e-17
705 1 147.091 131.071 -4.05231e-17
706 1 175.365 148.01 -4.05231e-17
707 1 140.835 148.241 -4.05231e-17
708 2 78.7982 146.227 -4.05231e-17
709 1 69.0127 149.527 -4.05231e-17
710 2 180.582 158.005 -4.05231e-17
711 2 19.9935 161.722 -4.05231e-17
712 1 121.544 19.398 -4.05231e-17
713 1 179.917 31.8403 -4.05231e-17
714 2 11.5197 159.127 -4.05231e-17
715 2 151.502 5.26383 -4.05231e-17
716 1 199.021 123.338 -4.05231e-17
717 1 211.016 107.961 -4.05231e-17
718 2 122.897 115.979 -4.05231e-17
719 1 164.037 75.1482 -4.05231e-17
720 2 172.481 212.484 -4.05231e-17
721 2 198.966 22.5251 -4.05231e-17
722 2 79.925 126.966 -4.05231e-17
723 2 71.3036 96.6408 -4.05231e-17
724 2 171.962 59.542 -4.05231e-17
725 2 154.931 163.465 -4.05231e-17
726 2 118.535 5.77178 -4.05231e-17
727 2 80.1558 95.5322 -4.05231e-17
728 1 111.093 192.276 -4.05231e-17
729 2 107.724 89.9767 -4.05231e-17
730 2 168.436 70.6693 -4.05231e-17
731 1 73.958 91.6395 -4.05231e-17
732 2 11.6656 171.916 -4.05231e-17
733 2 172.315 34.1432 -4.05231e-17
734 2 158.547 123.829 -4.05231e-17
735 2 139.12 14.051 -4.05231e-17
736 1 203.384 89.9051 -4.05231e-17
737 2 100.308 207.925 -4.05231e-17
738 2 46.2383 120.524 -4.05231e-17
739 2 196.271 191.328 -4.05231e-17
740 2 213.399 205.636 -4.05231e-17
741 2 190.748 174.837 -4.05231e-17
742 1 216.191 19.4617 -4.05231e-17
743 2 186.586 105.469 -4.05231e-17
744 1 163.124 149.77 -4.05231e-17
745 2 135.547 100.07 -4.05231e-17
746 1 158.05 30.3425 -4.05231e-17
747 1 114.614 122.242 -4.05231e-17
748 2 199.233 176.558 -4.05231e-17
749 1 105.286 89.2018 -4.05231e-17
750 1 63.7779 39.5801 -4.05231e-17
751 1 60.2408 176.704 -4.05231e-17
752 2 61.5075 199.656 -4.05231e-17
753 1 76.1599 101.318 -4.05231e-17
754 2 21.0158 140.375 -4.05231e-17
755 1 20.0048 38.6433 -4.05231e-17
756 2 113.731 42.1406 -4.05231e-17
757 1 48.3551 198.902 -4.05231e-17
758 2 181.787 194.729 -4.05231e-17
759 1 158.453 51.8463 -4.05231e-17
760 1 143.313 190.921 -4.05231e-17
761 2 63.7566 98.7918 -4.05231e-17
762 1 211.013 162.336 -4.05231e-17
763 2 85.0091 77.213 -4.05231e-17
764 2 128.509 216.381 -4.05231e-17
765 1 172.487 151.724 -4.05231e-17
766 2 10.5952 192.627 -4.05231e-17
767 2 134.558 10.4611 -4.05231e-17
768 2 195.301 96.4802 -4.05231e-17
769 2 46.4879 131.991 -4.05231e-17
770 1 24.2224 1.96101 -4.05231e-17
771 1 129.839 47.7657 -4.05231e-17
772 1 132.668 22.8277 -4.05231e-17
773 2 211.535 39.2422 -4.05231e-17
774 1 14.2329 6.47225 -4.05231e-17
775 1 14.7407 148.262 -4.05231e-17
776 2 60.7845 205.996 -4.05231e-17
777 2 72.4266 65.8806 -4.05231e-17
778 1 214.175 130.073 -4.05231e-17
779 1 49.2648 147.298 -4.05231e-17
780 2 48.8911 21.5571 -4.05231e-17
781 1 21.6185 33.7813 -4.05231e-17
782 2 165.756 79.2235 -4.05231e-17
783 1 203.466 28.1958 -4.05231e-17
784 2 127.299 43.7719 -4.05231e-17
785 1 192.692 173.149 -4.05231e-17
786 1 45.1953 175.489 -4.05231e-17
787 2 102.801 6.20593 -4.05231e-17
788 2 37.5143 212.388 -4.05231e-17
789 2 128.04 102.603 -4.05231e-17
790 2 9.96758 44.1833 -4.05231e-17
791 2 85.8573 216.207 -4.05231e-17
792 1 22.4285 142.648 -4.05231e-17
793 1 130.256 130.246 -4.05231e-17
794 2 61.6151 103.158 -4.05231e-17
795 2 207.623 8.17866 -4.05231e-17
796 1 67.1058 103.317 -4.05231e-17
797 1 110.102 35.4669 -4.05231e-17
798 1 130.92 174.881 -4.05231e-17
799 2 20.3852 118.744 -4.05231e-17
800 1 207.996 158.602 -4.05231e-17
801 2 187.177 193.53 -4.05231e-17
802 1 8.75141 108.207 -4.05231e-17
803 1 144.098 11.4105 -4.05231e-17
804 1 61.9257 96.9256 -4.05231e-17
805 2 129.079 172.961 -4.05231e-17
806 2 74.8888 139.936 -4.05231e-17
807 2 79.0359 193.478 -4.05231e-17
808 2 39.1888 128.354 -4.05231e-17
809 1 65.8716 208.813 -4.05231e-17
810 2 137.304 67.5346 -4.05231e-17
811 2 192.844 137.198 -4.05231e-17
812 1 120.65 105.905 -4.05231e-17
813 1 210.14 192.426 -4.05231e-17
814 1 150.085 171.58 -4.05231e-17
815 1 122.958 96.9222 -4.05231e-17
816 1 13.1148 205.038 -4.05231e-17
817 2 59.4554 120.045 -4.05231e-17
818 2 127.918 201.716 -4.05231e-17
819 2 22.7424 84.4978 -4.05231e-17
820 1 49.5756 80.7299 -4.05231e-17
821 1 107.249 188.864 -4.05231e-17
822 2 212.256 199.053 -4.05231e-17
823 1 32.691 154.899 -4.05231e-17
824 1 39.7329 176.54 -4.05231e-17
825 1 157.576 162.22 -4.05231e-17
826 2 169.729 82.8633 -4.05231e-17
827 2 3.39491 217.577 -4.05231e-17
828 1 157.272 210.369 -4.05231e-17
829 2 159.068 87.3213 -4.05231e-17
830 1 210.318 50.1311 -4.05231e-17
831 2 35.6642 15.8963 -4.05231e-17
832 2 194.953 142.127 -4.05231e-17
833 2 105.864 178.416 -4.05231e-17
834 1 38.5881 34.6401 -4.05231e-17
835 1 25.9979 192.102 -4.05231e-17
836 1 53.6165 10.174 -4.05231e-17
837 2 195.846 59.0274 -4.05231e-17
838 2 101.983 155.538 -4.05231e-17
839 1 200.476 166.755 -4.05231e-17
840 2 69.5143 66.8232 -4.05231e-17
841 2 145.32 149.069 -4.05231e-17
842 1 85.3592 55.0299 -4.05231e-17
843 1 212.494 150.208 -4.05231e-17
844 2 125.386 30.064 -4.05231e-17
845 1 142.893 149.206 -4.05231e-17
846 2 73.6351 55.8759 -4.05231e-17
847 1 13.8022 14.4852 -4.05231e-17
848 2 70.6658 114.018 -4.05231e-17
849 1 196.962 136.612 -4.05231e-17
850 2 133.111 206.548 -4.05231e-17
851 2 120.566 26.2902 -4.05231e-17
852 1 176.851 113.469 -4.05231e-17
853 1 11.3032 46.7529 -4.05231e-17
854 2 53.1705 58.6921 -4.05231e-17
855 2 159.586 49.5577 -4.05231e-17