ITEM: TIMESTEP
0
ITEM: NUMBER OF ATOMS
7200
ITEM: BOX BOUNDS xy xz yz pp pp pp
0.0000000000000000e+00 2.1900000000000000e+02 0.0000000000000000e+00
0.0000000000000000e+00 2.1900000000000000e+02 0.0000000000000000e+00
-3.6499999999999999e-01 3.6499999999999999e-01 0.0000000000000000e+00
ITEM: ATOMS id type x y z
1 1 182.911 13.0129 -4.05231e-17
2 2 188.214 183.442 -4.05231e-17
3 2 144.723 189.523 -4.05231e-17
4 1 122.8 110.428 -4.05231e-17
5 1 101.195 122.789 -4.05231e-17
6 1 104.619 25.5222 -4.05231e-17
7 2 158.778 128.791 -4.05231e-17
8 2 69.9505 25.6985 -4.05231e-17
9 1 22.0964 214.778 -4.05231e-17
10 2 52.2294 166.662 -4.05231e-17
11 2 210.161 100.237 -4.05231e-17
12 1 33.6688 197.76 -4.05231e-17
13 2 194.344 53.5271 -4.05231e-17
14 1 57.5234 184.274 -4.05231e-17
15 2 193.323 0.131481 -4.05231e-17
16 2 218.38 85.685 -4.05231e-17
17 1 67.4529 74.3242 -4.05231e-17
18 2 10.3285 172.292 -4.05231e-17
19 1 92.8645 130.212 -4.05231e-17
20 1 72.3343 10.9558 -4.05231e-17
21 1 156.478 7.17854 -4.05231e-17
22 2 31.7247 212.394 -4.05231e-17
23 2 43.3727 208.305 -4.05231e-17
24 2 218.767 102.728 -4.05231e-17
25 2 30.1 207.545 -4.05231e-17
26 2 149.389 27.9066 -4.05231e-17
27 1 217.257 162.095 -4.05231e-17
28 2 54.3211 154.746 -4.05231e-17
29 2 83.6727 3.73741 -4.05231e-17
30 2 132.237 37.5902 -4.05231e-17
31 2 156.847 83.9103 -4.05231e-17
32 1 48.4622 108.74 -4.05231e-17
33 2 145.4 87.6822 -4.05231e-17
34 2 16.2837 95.8909 -4.05231e-17
35 2 127.138 11.4228 -4.05231e-17
36 1 160.285 146.61 -4.05231e-17
37 1 133.37 185.181 -4.05231e-17
38 2 209.06 157.698 -4.05231e-17
39 1 7.86969 38.1288 -4.05231e-17
40 2 196.524 73.753 -4.05231e-17
41 1 192.532 73.225 -4.05231e-17
42 1 54.8827 58.6828 -4.05231e-17
43 1 210.12 131.965 -4.05231e-17
44 1 155.424 188.843 -4.05231e-17
45 2 159.325 61.2696 -4.05231e-17
46 1 124.457 192.826 -4.05231e-17
47 2 89.3355 80.4589 -4.05231e-17
48 2 150.685 129.892 -4.05231e-17
49 1 194.477 200.072 -4.05231e-17
50 2 29.0368 47.395 -4.05231e-17
51 1 186.604 3.14308 -4.05231e-17
52 1 115.56 48.1095 -4.05231e-17
53 2 55.0753 200.735 -4.05231e-17
54 1 38.8278 16.5885 -4.05231e-17
55 2 53.3806 141.305 -4.05231e-17
56 1 31.1891 132.592 -4.05231e-17
57 2 58.5376 133.804 -4.05231e-17
58 1 183.664 33.6726 -4.05231e-17
59 1 157.742 86.3363 -4.05231e-17
60 2 206.052 59.4123 -4.05231e-17
61 1 157.264 164.543 -4.05231e-17
62 1 106.819 111.679 -4.05231e-17
63 2 108.848 39.043 -4.05231e-17
64 1 28.0589 17.9466 -4.05231e-17
65 2 152.337 149.505 -4.05231e-17
66 2 13.1833 154.699 -4.05231e-17
67 2 183.102 107.653 -4.05231e-17
68 1 136.976 83.211 -4.05231e-17
69 2 109.59 168.827 -4.05231e-17
70 1 141.475 98.251 -4.05231e-17
71 1 198.064 147.356 -4.05231e-17
72 2 45.1006 157.309 -4.05231e-17
73 2 191.779 179.565 -4.05231e-17
74 2 111.43 67.0898 -4.05231e-17
75 1 14.789 136.58 -4.05231e-17
76 2 138.06 206.682 -4.05231e-17
77 2 168.89 15.8224 -4.05231e-17
78 1 93.252 207.988 -4.05231e-17
79 2 60.4234 75.9154 -4.05231e-17
80 1 50.2513 22.7696 -4.05231e-17
81 1 181.921 211.218 -4.05231e-17
82 1 173 41.4643 -4.05231e-17
83 1 71.0679 91.009 -4.05231e-17
84 2 140.995 179.657 -4.05231e-17
85 2 151.183 146.487 -4.05231e-17
86 2 50.8045 67.6966 -4.05231e-17
87 2 38.2835 75.4689 -4.05231e-17
88 1 80.9254 157.545 -4.05231e-17
89 2 199.761 105.546 -4.05231e-17
90 2 126.185 36.5431 -4.05231e-17
91 2 11.2047 182.12 -4.05231e-17
92 1 27.6117 215.279 -4.05231e-17
93 2 110.249 154.497 -4.05231e-17
94 2 112.741 144.32 -4.05231e-17
95 1 211.295 51.6379 -4.05231e-17
96 2 31.862 54.2548 -4.05231e-17
97 2 4.48388 211.618 -4.05231e-17
98 2 35.65 185.146 -4.05231e-17
99 1 105.026 9.81671 -4.05231e-17
100 2 159.013 66.012 -4.05231e-17
101 1 184.385 109.934 -4.05231e-17
102 1 66.3383 164.141 -4.05231e-17
103 2 205.091 100.038 -4.05231e-17
104 2 104.191 73.2851 -4.05231e-17
105 1 160.668 58.9735 -4.05231e-17
106 1 185.051 60.586 -4.05231e-17
107 1 12.3397 106.738 -4.05231e-17
108 1 69.975 210.213 -4.05231e-17
109 2 217.138 39.0865 -4.05231e-17
110 2 145.085 29.7354 -4.05231e-17
111 1 53.0612 92.4409 -4.05231e-17
112 2 8.61033 50.7018 -4.05231e-17
113 1 134.973 10.9321 -4.05231e-17
114 1 92.4356 86.8251 -4.05231e-17
115 2 32.2843 59.6816 -4.05231e-17
116 2 184.323 15.454 -4.05231e-17
117 1 163.208 110.827 -4.05231e-17
118 1 82.7159 94.3122 -4.05231e-17
119 2 99.0756 139.519 -4.05231e-17
120 2 201.12 58.6907 -4.05231e-17
121 1 205.095 138.772 -4.05231e-17
122 2 143.281 130.179 -4.05231e-17
123 2 6.8787 129.544 -4.05231e-17
124 1 161.469 200.098 -4.05231e-17
125 1 88.1246 192.944 -4.05231e-17
126 2 97.8915 84.4735 -4.05231e-17
127 2 208.734 110.667 -4.05231e-17
128 1 121.644 105.319 -4.05231e-17
129 1 144.376 194.772 -4.05231e-17
130 2 119.882 61.6554 -4.05231e-17
131 1 133.841 60.5055 -4.05231e-17
132 1 139.515 22.1308 -4.05231e-17
133 1 181.201 105.471 -4.05231e-17
134 1 81.1136 191.579 -4.05231e-17
135 2 177.873 61.2486 -4.05231e-17
136 1 190.454 118.691 -4.05231e-17
137 1 60.5665 7.49896 -4.05231e-17
138 2 156.374 159.141 -4.05231e-17
139 1 132.707 12.0135 -4.05231e-17
140 1 145.114 208.463 -4.05231e-17
141 1 50.9622 70.5185 -4.05231e-17
142 1 213.063 190.833 -4.05231e-17
143 1 26.1951 26.2071 -4.05231e-17
144 1 46.6255 97.7732 -4.05231e-17
145 2 193.143 80.0911 -4.05231e-17
146 1 153.362 125.901 -4.05231e-17
147 2 16.4397 134.53 -4.05231e-17
148 1 24.5015 133.058 -4.05231e-17
149 1 147.469 190.402 -4.05231e-17
150 2 65.6239 52.3594 -4.05231e-17
151 1 132.382 138.128 -4.05231e-17
152 1 163.988 163.636 -4.05231e-17
153 2 124.158 130.399 -4.05231e-17
154 1 184.053 52.9112 -4.05231e-17
155 2 203.19 40.1253 -4.05231e-17
156 2 109.475 197.141 -4.05231e-17
157 2 166.258 29.2066 -4.05231e-17
158 2 27.6917 7.73079 -4.05231e-17
159 2 11.8599 158.688 -4.05231e-17
160 2 120.764 54.9169 -4.05231e-17
161 2 129.917 138.95 -4.05231e-17
162 1 23.8142 66.5676 -4.05231e-17
163 1 188.539 34.087 -4.05231e-17
164 2 108.176 134.895 -4.05231e-17
165 1 48.6932 72.1105 -4.05231e-17
166 2 6.00556 199.537 -4.05231e-17
167 1 107.008 167.692 -4.05231e-17
168 1 211.458 102.792 -4.05231e-17
169 2 98.2227 199.226 -4.05231e-17
170 1 66.2433 206.303 -4.05231e-17
171 1 137.405 92.4702 -4.05231e-17
172 1 199.535 199.665 -4.05231e-17
173 1 39.0146 204.149 -4.05231e-17
174 2 38.3646 172.988 -4.05231e-17
175 2 49.845 199.439 -4.05231e-17
176 1 119.88 151.779 -4.05231e-17
177 2 105.21 15.3872 -4.05231e-17
178 1 25.1699 7.50921 -4.05231e-17
179 2 106.28 197.316 -4.05231e-17
180 1 47.1255 76.5462 -4.05231e-17
181 1 16.0645 119.219 -4.05231e-17
182 1 113.764 87.0541 -4.05231e-17
183 1 64.0059 168.301 -4.05231e-17
184 2 157.533 25.7088 -4.05231e-17
185 2 190.135 78.6594 -4.05231e-17
186 2 74.3873 206.235 -4.05231e-17
187 2 159.33 201.987 -4.05231e-17
188 2 60.3809 28.5608 -4.05231e-17
189 1 191.308 57.6772 -4.05231e-17
190 1 196.329 55.4455 -4.05231e-17
191 2 35.4905 104.649 -4.05231e-17
192 2 89.2246 60.1803 -4.05231e-17
193 1 108.81 165.993 -4.05231e-17
194 1 26.6432 5.29776 -4.05231e-17
195 2 58.4805 119.938 -4.05231e-17
196 1 0.00305643 218.756 -4.05231e-17
197 2 119.045 50.7559 -4.05231e-17
198 2 206.038 27.3008 -4.05231e-17
199 2 99.9565 170.481 -4.05231e-17
200 2 98.7217 31.0465 -4.05231e-17
201 2 103.254 121.055 -4.05231e-17
202 1 43.807 34.0329 -4.05231e-17
203 1 18.0794 42.9143 -4.05231e-17
204 2 45.0908 78.3005 -4.05231e-17
205 2 182.835 181.874 -4.05231e-17
206 2 170.596 127.133 -4.05231e-17
207 1 74.5807 189.098 -4.05231e-17
208 2 134.994 54.7321 -4.05231e-17
209 2 32.8169 142.344 -4.05231e-17
210 1 182.131 113.154 -4.05231e-17
211 1 208.142 35.4419 -4.05231e-17
212 1 208.362 85.0621 -4.05231e-17
213 1 128.215 123.872 -4.05231e-17
214 2 12.0369 11.3494 -4.05231e-17
215 1 5.25152 142.211 -4.05231e-17
216 1 54.9825 46.5941 -4.05231e-17
217 1 164.447 61.7757 -4.05231e-17
218 2 201.433 120.866 -4.05231e-17
219 2 136.38 189.763 -4.05231e-17
220 1 121.166 1.50337 -4.05231e-17
221 2 83.0876 6.69461 -4.05231e-17
222 1 158.609 157.448 -4.05231e-17
223 1 46.0641 120.354 -4.05231e-17
224 2 146.136 71.1925 -4.05231e-17
225 2 169.009 164.214 -4.05231e-17
226 1 196.414 10.1382 -4.05231e-17
227 2 203.339 214.494 -4.05231e-17
228 2 117.541 63.8577 -4.05231e-17
229 1 47.7055 22.6301 -4.05231e-17
230 1 4.67661 56.685 -4.05231e-17
231 2 137.724 160.806 -4.05231e-17
232 1 17.9849 212.284 -4.05231e-17
233 2 75.3426 195.673 -4.05231e-17
234 1 0.502657 59.8153 -4.05231e-17
235 1 150.297 106.248 -4.05231e-17
236 2 153.025 53.1895 -4.05231e-17
237 2 99.4001 204 -4.05231e-17
238 2 94.7934 140.6 -4.05231e-17
239 1 35.2762 216.888 -4.05231e-17
240 1 129.74 91.0068 -4.05231e-17
241 2 3.46522 124.363 -4.05231e-17
242 1 194.075 28.6364 -4.05231e-17
243 2 214.901 130.08 -4.05231e-17
244 2 35.4689 190.905 -4.05231e-17
245 1 174.013 21.2518 -4.05231e-17
246 2 90.2468 85.3116 -4.05231e-17
247 2 198.856 150.28 -4.05231e-17
248 1 37.9366 26.8625 -4.05231e-17
249 1 131.733 108.538 -4.05231e-17
250 1 134.708 28.1706 -4.05231e-17
251 2 101.887 43.3376 -4.05231e-17
252 1 110.97 156.965 -4.05231e-17
253 2 95.4835 97.7461 -4.05231e-17
254 2 179.436 205.241 -4.05231e-17
255 2 122.463 50.5145 -4.05231e-17
256 1 2.91866 179.974 -4.05231e-17
257 2 32.45 195.232 -4.05231e-17
258 1 210.844 81.4078 -4.05231e-17
259 2 160.96 141.401 -4.05231e-17
260 1 40.2689 192.715 -4.05231e-17
261 2 142.911 177.01 -4.05231e-17
262 2 186.873 110.47 -4.05231e-17
263 2 94.426 172.831 -4.05231e-17
264 1 199.049 36.5832 -4.05231e-17
265 1 157.688 187.222 -4.05231e-17
266 1 98.863 196.583 -4.05231e-17
267 2 115.591 16.5968 -4.05231e-17
268 1 218.426 48.766 -4.05231e-17
269 2 10.0638 113.449 -4.05231e-17
270 2 185.401 148.434 -4.05231e-17
271 2 187.713 94.9339 -4.05231e-17
272 1 59.1679 26.1621 -4.05231e-17
273 1 70.4475 83.1242 -4.05231e-17
274 1 37.8944 196.387 -4.05231e-17
275 1 146.798 110.23 -4.05231e-17
276 1 199.239 74.7124 -4.05231e-17
277 1 100.674 37.788 -4.05231e-17
278 2 60.7546 145.108 -4.05231e-17
279 2 160.403 86.6151 -4.05231e-17
280 1 117.247 210.887 -4.05231e-17
281 2 169.898 182.544 -4.05231e-17
282 2 75.4283 127.209 -4.05231e-17
283 2 218.924 150.952 -4.05231e-17
284 1 126.024 113.873 -4.05231e-17
285 1 73.3377 165.524 -4.05231e-17
286 2 30.1748 180.137 -4.05231e-17
287 2 93.3444 109.873 -4.05231e-17
288 1 104.197 123.619 -4.05231e-17
289 2 193.696 56.6553 -4.05231e-17
290 1 101.236 29.7713 -4.05231e-17
291 2 96.3752 186.027 -4.05231e-17
292 1 77.3803 125.371 -4.05231e-17
293 1 159.158 168.316 -4.05231e-17
294 1 29.5303 177.523 -4.05231e-17
295 2 46.6882 145.676 -4.05231e-17
296 1 196.818 176.668 -4.05231e-17
297 1 2.10437 18.1055 -4.05231e-17
298 2 30.4006 140.633 -4.05231e-17
299 1 177.357 55.4944 -4.05231e-17
300 2 190.376 192.79 -4.05231e-17
301 2 171.959 19.5886 -4.05231e-17
302 2 164.02 89.5294 -4.05231e-17
303 1 2.47808 151.568 -4.05231e-17
304 1 124.215 106.261 -4.05231e-17
305 1 92.3536 177.594 -4.05231e-17
306 2 83.9588 17.5584 -4.05231e-17
307 2 150.576 168.216 -4.05231e-17
308 2 142.09 22.637 -4.05231e-17
309 1 70.8413 72.0257 -4.05231e-17
310 1 190.62 190.188 -4.05231e-17
311 1 151.118 108.63 -4.05231e-17
312 2 134.825 13.6898 -4.05231e-17
313 2 155.231 18.2714 -4.05231e-17
314 1 184.416 58.3472 -4.05231e-17
315 2 57.1237 107.754 -4.05231e-17
316 1 95.9118 31.0908 -4.05231e-17
317 1 132.878 176.109 -4.05231e-17
318 1 216.49 135.445 -4.05231e-17
319 2 74.1021 201.054 -4.05231e-17
320 1 213.845 48.07 -4.05231e-17
321 1 52.4655 87.3876 -4.05231e-17
322 1 51.3455 148.004 -4.05231e-17
323 2 20.1176 138.536 -4.05231e-17
324 2 8.13029 95.2667 -4.05231e-17
325 2 216.076 13.49 -4.05231e-17
326 1 184.992 1.01598 -4.05231e-17
327 1 35.7112 45.9971 -4.05231e-17
328 2 32.4681 192.273 -4.05231e-17
329 2 28.6474 83.1789 -4.05231e-17
330 2 153.216 39.0622 -4.05231e-17
331 2 187.989 67.8016 -4.05231e-17
332 2 121.444 114.939 -4.05231e-17
333 2 27.8219 151.126 -4.05231e-17
334 2 215.791 18.0016 -4.05231e-17
335 1 167.331 211.128 -4.05231e-17
336 2 27.7327 141.886 -4.05231e-17
337 2 40.6612 9.61648 -4.05231e-17
338 1 203.443 90.4325 -4.05231e-17
339 2 15.0344 152.204 -4.05231e-17
340 2 177.007 214.386 -4.05231e-17
341 2 101.152 60.3424 -4.05231e-17
342 2 173.647 166.797 -4.05231e-17
343 2 176.223 5.18154 -4.05231e-17
344 1 88.0291 105.69 -4.05231e-17
345 2 26.7234 212.927 -4.05231e-17
346 2 75.208 72.757 -4.05231e-17
347 1 147.883 98.9128 -4.05231e-17
348 1 181.288 3.82181 -4.05231e-17
349 2 173.138 70.0499 -4.05231e-17
350 2 77.8982 178.962 -4.05231e-17
351 1 174.914 141.667 -4.05231e-17
352 1 212.809 163.368 -4.05231e-17
353 2 140.84 131.882 -4.05231e-17
354 2 191.571 176.349 -4.05231e-17
355 1 215.794 157.158 -4.05231e-17
356 2 114.886 1.49678 -4.05231e-17
357 1 127.142 192.648 -4.05231e-17
358 1 77.8288 25.2596 -4.05231e-17
359 1 34.8867 144.035 -4.05231e-17
360 1 51.3382 8.21607 -4.05231e-17
361 2 196.33 68.5205 -4.05231e-17
362 2 172.21 94.7095 -4.05231e-17
363 1 78.9371 215.023 -4.05231e-17
364 2 216.74 46.7172 -4.05231e-17
365 1 5.71546 164.247 -4.05231e-17
366 1 82.8004 173.098 -4.05231e-17
367 1 161.166 103.985 -4.05231e-17
368 1 20.6886 164.6 -4.05231e-17
369 2 81.5666 143.708 -4.05231e-17
370 1 6.47777 132.335 -4.05231e-17
371 2 71.4698 111.314 -4.05231e-17
372 1 87.8987 6.46986 -4.05231e-17
373 2 118.284 208.411 -4.05231e-17
374 2 177.035 101.493 -4.05231e-17
375 1 136.307 26.1965 -4.05231e-17
376 1 122.188 147.434 -4.05231e-17
377 2 95.0778 76.1904 -4.05231e-17
378 2 215.562 106.667 -4.05231e-17
379 2 169.632 187.379 -4.05231e-17
380 1 199.669 33.9122 -4.05231e-17
381 1 174.648 67.8776 -4.05231e-17
382 1 122.636 27.1623 -4.05231e-17
383 1 110.28 83.3885 -4.05231e-17
384 2 54.1188 100.91 -4.05231e-17
385 1 66.2456 149.103 -4.05231e-17
386 2 179.807 175.698 -4.05231e-17
387 1 34.893 107.257 -4.05231e-17
388 1 144.042 164.229 -4.05231e-17
389 2 216.13 121.289 -4.05231e-17
390 1 104.772 65.7891 -4.05231e-17
391 1 203.276 217.399 -4.05231e-17
392 2 4.07043 100.323 -4.05231e-17
393 2 192.603 173.291 -4.05231e-17
394 1 36.6024 204.045 -4.05231e-17
395 1 19.4492 215.01 -4.05231e-17
396 2 75.399 88.2749 -4.05231e-17
397 1 67.66 41.9345 -4.05231e-17
398 2 165.901 110.86 -4.05231e-17
399 2 197.058 106.513 -4.05231e-17
400 2 123.438 69.1827 -4.05231e-17
401 2 83.9726 190.673 -4.05231e-17
402 1 84.4328 42.9074 -4.05231e-17
403 1 69.7777 116.464 -4.05231e-17
404 2 113.27 13.9736 -4.05231e-17
405 1 49.14 196.739 -4.05231e-17
406 2 216.954 95.6099 -4.05231e-17
407 1 123.559 78.7421 -4.05231e-17
408 1 130.096 29.7532 -4.05231e-17
409 2 214.448 115.767 -4.05231e-17
410 2 70.8983 159.118 -4.05231e-17
411 1 136.188 96.9937 -4.05231e-17
412 1 164.536 6.90394 -4.05231e-17
413 1 34.7574 85.9281 -4.05231e-17
414 2 193.28 202.53 -4.05231e-17
415 1 107.441 126.695 -4.05231e-17
416 1 175.931 51.7918 -4.05231e-17
417 2 107.68 129.486 -4.05231e-17
418 2 34.6376 179.424 -4.05231e-17
419 2 195.369 91.9613 -4.05231e-17
420 2 108.712 44.606 -4.05231e-17
421 1 70.4048 30.7989 -4.05231e-17
422 1 34.6701 58.1242 -4.05231e-17
423 2 116.595 125.352 -4.05231e-17
424 2 39.218 24.5311 -4.05231e-17
425 2 117.471 150.518 -4.05231e-17
426 1 185.826 96.8398 -4.05231e-17
427 2 74.9361 60.5506 -4.05231e-17
428 1 28.9998 174.897 -4.05231e-17
429 2 131.628 150.242 -4.05231e-17
430 2 111.7 104.492 -4.05231e-17
431 1 13.2513 8.84957 -4.05231e-17
432 2 173.831 3.2903 -4.05231e-17
433 1 186.678 198.689 -4.05231e-17
434 1 20.2759 205.001 -4.05231e-17
435 1 149.866 85.3337 -4.05231e-17
436 2 85.1055 198.66 -4.05231e-17
437 2 180.932 82.6603 -4.05231e-17
438 2 194.126 177.4 -4.05231e-17
439 2 93.1804 10.2252 -4.05231e-17
440 2 201.359 92.1243 -4.05231e-17
441 1 131.041 167.446 -4.05231e-17
442 1 38.2219 104.562 -4.05231e-17
443 2 79.1751 82.0015 -4.05231e-17
444 1 204.672 104.774 -4.05231e-17
445 1 169.056 133.169 -4.05231e-17
446 2 182.993 150.705 -4.05231e-17
447 2 39.9063 40.2114 -4.05231e-17
448 2 205.799 175.857 -4.05231e-17
449 1 41.164 177.022 -4.05231e-17
450 1 10.4371 126.35 -4.05231e-17
451 1 53.7538 209.025 -4.05231e-17
452 2 208.459 60.9138 -4.05231e-17
453 1 216.393 150.266 -4.05231e-17
454 1 2.94505 68.6964 -4.05231e-17
455 2 81.3133 131.151 -4.05231e-17
456 1 85.1898 1.56917 -4.05231e-17
457 2 140.677 145.142 -4.05231e-17
458 2 155.731 135.808 -4.05231e-17
459 2 133.593 51.7096 -4.05231e-17
460 1 197.385 170.152 -4.05231e-17
461 1 112.123 128.804 -4.05231e-17
462 1 103.805 196.158 -4.05231e-17
463 2 110.362 218.389 -4.05231e-17
464 2 13.7223 77.6939 -4.05231e-17
465 1 124.048 16.3439 -4.05231e-17
466 2 150.671 126.543 -4.05231e-17
467 2 65.8953 133.329 -4.05231e-17
468 2 124.003 125.732 -4.05231e-17
469 2 57.9792 71.5526 -4.05231e-17
470 2 208.644 154.401 -4.05231e-17
471 2 212.034 211.453 -4.05231e-17
472 2 111.403 36.671 -4.05231e-17
473 2 198.147 214.551 -4.05231e-17
474 2 85.3073 147.113 -4.05231e-17
475 1 163.892 183.095 -4.05231e-17
476 2 174.786 34.8465 -4.05231e-17
477 1 208.966 217.861 -4.05231e-17
478 1 46.0128 188.135 -4.05231e-17
479 2 0.692069 197.476 -4.05231e-17
480 1 82.8489 61.7119 -4.05231e-17
481 1 2.87527 209.278 -4.05231e-17
482 2 152.632 176.793 -4.05231e-17
483 1 134.738 209.294 -4.05231e-17
484 1 66.047 135.781 -4.05231e-17
485 2 13.3021 173.695 -4.05231e-17
486 1 132.598 73.2291 -4.05231e-17
487 1 13.2576 201.859 -4.05231e-17
488 1 49.9298 83.767 -4.05231e-17
489 1 70.4251 108.98 -4.05231e-17
490 1 164.65 73.5168 -4.05231e-17
491 1 163.156 75.5422 -4.05231e-17
492 2 209.037 15.4026 -4.05231e-17
493 1 93.9375 203.176 -4.05231e-17
494 2 77.7876 66.1441 -4.05231e-17
495 1 150.271 92.4113 -4.05231e-17
496 1 52.1684 123.489 -4.05231e-17
497 1 136.608 110.22 -4.05231e-17
498 2 145.327 39.2194 -4.05231e-17
499 2 177.686 118.882 -4.05231e-17
500 2 57.4629 32.5971 -4.05231e-17
501 2 14.559 139.393 -4.05231e-17
502 2 190.935 126.277 -4.05231e-17
503 2 57.564 63.3809 -4.05231e-17
504 2 97.8243 50.2412 -4.05231e-17
505 2 112.322 213.801 -4.05231e-17
506 1 207.009 6.24725 -4.05231e-17
507 2 49.7498 181.83 -4.05231e-17
508 1 140.619 59.5294 -4.05231e-17
509 1 209.3 47.3133 -4.05231e-17
510 1 195.495 104.039 -4.05231e-17
511 2 108.601 179.162 -4.05231e-17
512 1 10.6485 42.4749 -4.05231e-17
513 2 87.8249 182.979 -4.05231e-17
514 2 15.3424 87.2451 -4.05231e-17
515 1 60.6439 98.4964 -4.05231e-17
516 2 101.135 73.8566 -4.05231e-17
517 1 32.3587 147.571 -4.05231e-17
518 2 10.2065 13.5724 -4.05231e-17
519 1 124.931 92.2239 -4.05231e-17
520 2 209.455 93.4475 -4.05231e-17
521 2 130.095 40.2468 -4.05231e-17
522 1 187.041 7.51249 -4.05231e-17
523 1 127.357 99.5197 -4.05231e-17
524 2 175.071 18.9309 -4.05231e-17
525 2 184.852 45.6817 -4.05231e-17
526 2 108.363 16.4618 -4.05231e-17
527 1 170.439 25.2609 -4.05231e-17
528 1 212.977 201.715 -4.05231e-17
529 2 104.6 176.423 -4.05231e-17
530 2 18.6172 88.1776 -4.05231e-17
531 2 184.904 171.977 -4.05231e-17
532 1 81.1171 5.02199 -4.05231e-17
533 2 23.2813 158.353 -4.05231e-17
534 1 22.5025 168.509 -4.05231e-17
535 1 170.42 206.844 -4.05231e-17
536 2 17.9205 169.589 -4.05231e-17
537 1 142.48 29.3089 -4.05231e-17
538 1 68.5122 157.97 -4.05231e-17
539 2 81.0477 163.432 -4.05231e-17
540 1 35.092 182.075 -4.05231e-17
541 1 105.162 128.959 -4.05231e-17
542 1 58.3992 126.653 -4.05231e-17
543 2 120.515 168.81 -4.05231e-17
544 1 217.849 211.36 -4.05231e-17
545 1 174.899 72.0551 -4.05231e-17
546 2 186.848 9.8986 -4.05231e-17
547 1 12.6425 71.5978 -4.05231e-17
548 1 29.4079 5.56672 -4.05231e-17
549 2 35.2469 152.386 -4.05231e-17
550 2 164.544 193.864 -4.05231e-17
551 2 38.5457 7.25532 -4.05231e-17
552 1 31.7183 51.6734 -4.05231e-17
553 2 207.142 196.624 -4.05231e-17
554 2 144.173 34.2003 -4.05231e-17
555 2 177.649 134.67 -4.05231e-17
556 1 178.013 211.883 -4.05231e-17
557 1 210.927 54.009 -4.05231e-17
558 1 60.2355 142.668 -4.05231e-17
559 2 106.25 91.562 -4.05231e-17
560 2 57.2925 89.2726 -4.05231e-17
561 2 110.714 181.593 -4.05231e-17
562 2 99.1179 65.8748 -4.05231e-17
563 1 73.1476 168.129 -4.05231e-17
564 2 103.364 78.8873 -4.05231e-17
565 2 33.4893 64.828 -4.05231e-17
566 2 64.3145 60.4742 -4.05231e-17
567 1 95.3512 11.6987 -4.05231e-17
568 1 22.6236 77.8675 -4.05231e-17
569 2 141.906 194.683 -4.05231e-17
570 2 11.5933 21.1792 -4.05231e-17
571 2 5.10735 61.8614 -4.05231e-17
572 1 115.159 107.672 -4.05231e-17
573 2 38.1458 89.517 -4.05231e-17
574 2 178.846 170.39 -4.05231e-17
575 1 196.347 206.972 -4.05231e-17
576 1 25.7708 68.0566 -4.05231e-17
577 1 127.536 75.0257 -4.05231e-17
578 1 183.686 115.038 -4.05231e-17
579 2 181.874 44.5207 -4.05231e-17
580 1 109.158 103.905 -4.05231e-17
581 1 91.6683 146.742 -4.05231e-17
582 2 125.487 101.426 -4.05231e-17
583 2 103.436 84.0703 -4.05231e-17
584 2 107.225 151.272 -4.05231e-17
585 1 181.981 103.093 -4.05231e-17
586 1 143.552 80.449 -4.05231e-17
587 1 158.285 112.035 -4.05231e-17
588 2 64.6719 108.763 -4.05231e-17
589 1 210.737 59.402 -4.05231e-17
590 2 181.584 58.2515 -4.05231e-17
591 2 179.065 16.5463 -4.05231e-17
592 1 204.232 128.373 -4.05231e-17
593 1 127.238 90.1793 -4.05231e-17
594 1 5.15017 70.0258 -4.05231e-17
595 1 32.7179 62.069 -4.05231e-17
596 2 106.697 71.3285 -4.05231e-17
597 2 63.6986 105.75 -4.05231e-17
598 2 136.231 87.5694 -4.05231e-17
599 2 97.0684 166.082 -4.05231e-17
600 2 49.2614 98.8867 -4.05231e-17
601 1 145.85 107.93 -4.05231e-17
602 1 173.427 51.9221 -4.05231e-17
603 2 216.704 159.531 -4.05231e-17
604 1 45.9719 179.106 -4.05231e-17
605 2 139.866 100.627 -4.05231e-17
606 2 150.385 99.2935 -4.05231e-17
607 2 47.5496 169.372 -4.05231e-17
608 2 128.353 31.5234 -4.05231e-17
609 1 77.9086 89.1809 -4.05231e-17
610 2 106.029 200.347 -4.05231e-17
611 1 1.29645 165.513 -4.05231e-17
612 1 207.548 117.524 -4.05231e-17
613 2 213.404 156.267 -4.05231e-17
614 1 202.521 30.7507 -4.05231e-17
615 1 152.241 104.381 -4.05231e-17
616 2 146.016 178.113 -4.05231e-17
617 1 168.792 1.03565 -4.05231e-17
618 1 137.466 216.487 -4.05231e-17
619 1 164.097 161.004 -4.05231e-17
620 2 42.929 88.7541 -4.05231e-17
621 2 203.63 77.1598 -4.05231e-17
622 2 144.919 154.704 -4.05231e-17
623 2 108.663 147.04 -4.05231e-17
624 1 107.221 177.032 -4.05231e-17
625 2 208.636 79.7029 -4.05231e-17
626 1 210.736 190.026 -4.05231e-17
627 2 195.327 192.943 -4.05231e-17
628 1 116.798 156.05 -4.05231e-17
629 1 30.3055 40.9797 -4.05231e-17
630 2 133.732 213.984 -4.05231e-17
631 2 144.615 115.235 -4.05231e-17
632 2 208.801 19.9197 -4.05231e-17
633 2 60.8403 131.553 -4.05231e-17
634 2 191.24 67.7762 -4.05231e-17
635 2 79.9902 72.5932 -4.05231e-17
636 1 88.2279 131.073 -4.05231e-17
637 1 217.104 152.738 -4.05231e-17
638 1 116.463 69.4262 -4.05231e-17
639 2 200.537 65.5407 -4.05231e-17
640 2 149.61 78.2942 -4.05231e-17
641 1 200.117 96.6002 -4.05231e-17
642 2 161.721 35.64 -4.05231e-17
643 1 165.29 57.9116 -4.05231e-17
644 2 139.692 155.285 -4.05231e-17
645 2 5.62152 75.2483 -4.05231e-17
646 1 169.484 142.357 -4.05231e-17
647 2 129.351 148.451 -4.05231e-17
648 2 190.702 211.744 -4.05231e-17
649 1 63.6246 145.678 -4.05231e-17
650 1 56.2851 152.972 -4.05231e-17
651 1 112.42 131.246 -4.05231e-17
652 2 8.40043 213.664 -4.05231e-17
653 2 195.423 45.0938 -4.05231e-17
654 1 208.387 164.802 -4.05231e-17
655 1 63.3297 47.3036 -4.05231e-17
656 1 198.872 10.3948 -4.05231e-17
657 1 125.083 120.813 -4.05231e-17
658 2 165.907 105.702 -4.05231e-17
659 2 101.404 137.576 -4.05231e-17
660 1 24.9183 11.9274 -4.05231e-17
661 2 15.765 36.9115 -4.05231e-17
662 2 135.932 117.024 -4.05231e-17
663 1 163.587 113.036 -4.05231e-17
664 1 79.9208 138.52 -4.05231e-17
665 1 135.625 144.154 -4.05231e-17
666 1 202.986 185.199 -4.05231e-17
667 1 0.577621 116.664 -4.05231e-17
668 1 134.396 157.079 -4.05231e-17
669 1 107.455 160.781 -4.05231e-17
670 2 211.88 160.92 -4.05231e-17
671 1 3.56683 15.9305 -4.05231e-17
672 1 193.548 141.458 -4.05231e-17
673 2 47.4242 84.608 -4.05231e-17
674 2 182.515 205.568 -4.05231e-17
675 2 152.516 2.05613 -4.05231e-17
676 1 180.496 160.183 -4.05231e-17
677 2 53.408 53.2343 -4.05231e-17
678 1 86.7271 113.617 -4.05231e-17
679 1 87.1586 65.4646 -4.05231e-17
680 2 71.7609 13.4106 -4.05231e-17
681 1 5.32493 8.95736 -4.05231e-17
682 1 141.542 171.886 -4.05231e-17
683 2 96.2396 123.612 -4.05231e-17
684 1 23.1697 180.209 -4.05231e-17
685 1 83.5764 206.282 -4.05231e-17
686 1 143.107 160.129 -4.05231e-17
687 1 107.185 53.3745 -4.05231e-17
688 1 152.094 97.265 -4.05231e-17
689 2 10.2785 139.233 -4.05231e-17
690 1 48.402 120.654 -4.05231e-17
691 2 65.112 115.179 -4.05231e-17
692 2 180.642 178.896 -4.05231e-17
693 1 161.637 96.0565 -4.05231e-17
694 2 147.097 150.042 -4.05231e-17
695 2 188.049 36.694 -4.05231e-17
696 2 31.851 82.3446 -4.05231e-17
697 1 104.33 35.703 -4.05231e-17
698 2 41.0321 18.2747 -4.05231e-17
699 1 57.3327 202.602 -4.05231e-17
700 2 17.6506 126.078 -4.05231e-17
701 2 30.7209 63.6517 -4.05231e-17
702 1 160.642 9.85913 -4.05231e-17
703 1 195.837 60.6954 -4.05231e-17
704 1 159.88 121.906 -4.05231e-17
705 1 43.6036 120.302 -4.05231e-17
706 1 75.6157 161.604 -4.05231e-17
707 1 182.374 66.7502 -4.05231e-17
708 2 195.435 101.538 -4.05231e-17
709 1 54.2643 160.126 -4.05231e-17
710 2 91.8752 16.3406 -4.05231e-17
711 2 1.11648 139.158 -4.05231e-17
712 1 84.2104 213.889 -4.05231e-17
713 1 4.97364 152.191 -4.05231e-17
714 2 145.112 147.574 -4.05231e-17
715 2 133.319 86.9685 -4.05231e-17
716 1 86.8142 61.2114 -4.05231e-17
717 1 14.9147 60.9993 -4.05231e-17
718 2 78.6585 99.6914 -4.05231e-17
719 1 68.8869 202.867 -4.05231e-17
720 2 51.795 197.201 -4.05231e-17
721 2 43.8986 213.193 -4.05231e-17
722 2 65.3132 138.312 -4.05231e-17
723 2 15.4281 165.587 -4.05231e-17
724 2 202.477 106.946 -4.05231e-17
725 2 21.5696 49.9147 -4.05231e-17
726 2 178.001 123.904 -4.05231e-17
727 2 35.5039 109.713 -4.05231e-17
728 1 176.537 77.0044 -4.05231e-17
729 2 167.293 131.429 -4.05231e-17
730 2 175.104 94.5584 -4.05231e-17
731 1 9.88009 23.1829 -4.05231e-17
732 2 98.0165 87.5169 -4.05231e-17
733 2 147.973 146.758 -4.05231e-17
734 2 59.0362 192.012 -4.05231e-17
735 2 149.122 72.2156 -4.05231e-17
736 1 182.337 176.659 -4.05231e-17
737 2 48.7919 39.8113 -4.05231e-17
738 2 71.1753 207.895 -4.05231e-17
739 2 185.913 131.087 -4.05231e-17
740 2 40.6406 115.518 -4.05231e-17
741 2 201.055 113.678 -4.05231e-17
742 1 71.7264 98.8817 -4.05231e-17
743 2 78.6972 75.9295 -4.05231e-17
744 1 146.879 50.3476 -4.05231e-17
745 2 15.7791 75.54 -4.05231e-17
746 1 218.92 121.337 -4.05231e-17
747 1 98.7004 163.176 -4.05231e-17
748 2 69.9612 197.681 -4.05231e-17
749 1 213.43 165.992 -4.05231e-17
750 1 139.382 147.761 -4.05231e-17
751 1 143.321 89.3131 -4.05231e-17
752 2 195.173 168.404 -4.05231e-17
753 1 37.0228 180.383 -4.05231e-17
754 2 65.8152 80.929 -4.05231e-17
755 1 6.47452 80.7586 -4.05231e-17
756 2 178.401 58.2141 -4.05231e-17
757 1 110.644 15.415 -4.05231e-17
758 2 99.43 28.0026 -4.05231e-17
759 1 95.7307 133.517 -4.05231e-17
760 1 171.119 61.4998 -4.05231e-17
761 2 213.38 101.041 -4.05231e-17
762 1 178.636 105.963 -4.05231e-17
763 2 6.09041 157.231 -4.05231e-17
764 2 43.117 188.145 -4.05231e-17
765 1 21.6937 160.246 -4.05231e-17
766 2 99.8012 47.8607 -4.05231e-17
767 2 206.1 148.659 -4.05231e-17
768 2 72.0935 62.2671 -4.05231e-17
769 2 188.201 98.24 -4.05231e-17
770 1 133.985 18.7409 -4.05231e-17
771 1 64.7735 63.1841 -4.05231e-17
772 1 129.336 0.348379 -4.05231e-17
773 2 166.64 172.429 -4.05231e-17
774 1 88.2468 87.1628 -4.05231e-17
775 1 102.604 76.1004 -4.05231e-17
776 2 192.843 103.33 -4.05231e-17
777 2 42.445 79.6262 -4.05231e-17
778 1 83.5226 12.6883 -4.05231e-17
779 1 47.9761 61.347 -4.05231e-17
780 2 83.1787 49.8637 -4.05231e-17
781 1 25.7565 171.641 -4.05231e-17
782 2 123.06 170.459 -4.05231e-17
783 1 74.4593 63.1653 -4.05231e-17
784 2 96.7568 110.701 -4.05231e-17
785 1 204.378 82.544 -4.05231e-17
786 1 41.1328 6.88045 -4.05231e-17
787 2 38.3299 208.747 -4.05231e-17
788 2 164.992 180.761 -4.05231e-17
789 2 18.3389 147.143 -4.05231e-17
790 2 77.3053 7.9859 -4.05231e-17
791 2 186.504 53.8619 -4.05231e-17
792 1 213.025 132.381 -4.05231e-17
793 1 97.1658 171.696 -4.05231e-17
794 2 209.563 6.54774 -4.05231e-17
795 2 10.7587 191.395 -4.05231e-17
796 1 69.0428 215.277 -4.05231e-17
797 1 46.0205 32.8167 -4.05231e-17
798 1 213.432 55.6073 -4.05231e-17
799 2 105.959 155.642 -4.05231e-17
800 1 56.7772 37.2208 -4.05231e-17
801 2 68.3417 84.5783 -4.05231e-17
802 1 91.1702 216.188 -4.05231e-17
803 1 143.166 24.9956 -4.05231e-17
804 1 210.18 124.741 -4.05231e-17
805 2 183.568 117.812 -4.05231e-17
806 2 178.809 158.139 -4.05231e-17
807 2 208.177 29.5685 -4.05231e-17
808 2 76.3136 144.749 -4.05231e-17
809 1 175.779 63.0848 -4.05231e-17
810 2 23.9916 173.419 -4.05231e-17
811 2 180.085 55.6829 -4.05231e-17
812 1 122.104 185.069 -4.05231e-17
813 1 22.2256 95.7107 -4.05231e-17
814 1 3.06694 204.552 -4.05231e-17
815 1 145.884 32.2404 -4.05231e-17
816 1 206.696 51.0975 -4.05231e-17
817 2 62.9624 70.7383 -4.05231e-17
818 2 29.4954 122.845 -4.05231e-17
819 2 210.778 68.0197 -4.05231e-17
820 1 9.55973 58.8076 -4.05231e-17
821 1 65.2021 58.0002 -4.05231e-17
822 2 131.521 34.7572 -4.05231e-17
823 1 183.947 90.487 -4.05231e-17
824 1 175.78 90.073 -4.05231e-17
825 1 160.352 191.112 -4.05231e-17
826 2 178.304 81.737 -4.05231e-17
827 2 102.575 27.1315 -4.05231e-17
828 1 50.6157 91.502 -4.05231e-17
829 2 127.597 92.6553 -4.05231e-17
830 1 3.72204 156.646 -4.05231e-17
831 2 183.55 217.896 -4.05231e-17
832 2 26.7215 52.0926 -4.05231e-17
833 2 96.4798 41.8449 -4.05231e-17
834 1 70.9891 164.093 -4.05231e-17
835 1 184.693 141.132 -4.05231e-17
836 1 153.139 69.6883 -4.05231e-17
837 2 168.004 92.301 -4.05231e-17
838 2 92.0096 26.488 -4.05231e-17
839 1 38.9896 31.8765 -4.05231e-17
840 2 13.8738 117.181 -4.05231e-17
841 2 201.502 10.3721 -4.05231e-17
842 1 172.883 159.324 -4.05231e-17
843 1 205.047 29.9159 -4.05231e-17
844 2 8.62904 25.2859 -4.05231e-17
845 1 47.0756 150.78 -4.05231e-17
846 2 128.008 211.328 -4.05231e-17
847 1 88.4717 143.326 -4.05231e-17
848 2 112.798 8.91111 -4.05231e-17
849 1 24.5798 32.8995 -4.05231e-17
850 2 59.719 67.1906 -4.05231e-17
851 2 216.381 30.3382 -4.05231e-17
852 1 137.137 183.052 -4.05231e-17
853 1 186.147 104.975 -4.05231e-17
854 2 103.949 144.995 -4.05231e-17
855 2 165.581 120.928 -4.05231e-17
856 1 77.8052 160.263 -4.05231e-17
857 2 78.9145 119.715 -4.05231e-17