ITEM: TIMESTEP
0
ITEM: NUMBER OF ATOMS
7200
ITEM: BOX BOUNDS xy xz yz pp pp pp
0.0000000000000000e+00 2.1900000000000000e+02 0.0000000000000000e+00
0.0000000000000000e+00 2.1900000000000000e+02 0.0000000000000000e+00
-3.6499999999999999e-01 3.6499999999999999e-01 0.0000000000000000e+00
ITEM: ATOMS id type x y z
1 1 183.208 12.822 -4.05231e-17
2 2 188.006 183.423 -4.05231e-17
3 2 144.6 189.448 -4.05231e-17
4 1 122.803 110.154 -4.05231e-17
5 1 101.136 122.579 -4.05231e-17
6 1 104.997 25.4424 -4.05231e-17
7 2 160.415 128.765 -4.05231e-17
8 2 70.0812 25.7867 -4.05231e-17
9 1 21.8757 215.169 -4.05231e-17
10 2 51.9898 166.962 -4.05231e-17
11 2 210.007 100.347 -4.05231e-17
12 1 33.9835 197.917 -4.05231e-17
13 2 194.63 53.9583 -4.05231e-17
14 1 57.4162 184.665 -4.05231e-17
15 2 193.24 218.991 -4.05231e-17
16 2 218.215 85.8493 -4.05231e-17
17 1 67.2537 74.1733 -4.05231e-17
18 2 10.3264 172.26 -4.05231e-17
19 1 92.7355 130.221 -4.05231e-17
20 1 72.6091 11.3636 -4.05231e-17
21 1 156.934 7.77305 -4.05231e-17
22 2 31.5188 212.78 -4.05231e-17
23 2 43.2529 208.304 -4.05231e-17
24 2 218.462 103.235 -4.05231e-17
25 2 29.9419 207.624 -4.05231e-17
26 2 149.422 27.9683 -4.05231e-17
27 1 217.361 162.061 -4.05231e-17
28 2 54.3543 155.456 -4.05231e-17
29 2 83.6673 4.42345 -4.05231e-17
30 2 132.39 37.7228 -4.05231e-17
31 2 156.564 83.4494 -4.05231e-17
32 1 48.2993 109.174 -4.05231e-17
33 2 145.253 87.5373 -4.05231e-17
34 2 16.0137 96.5545 -4.05231e-17
35 2 127.248 11.4378 -4.05231e-17
36 1 160.578 146.722 -4.05231e-17
37 1 133.682 185.06 -4.05231e-17
38 2 209.098 157.673 -4.05231e-17
39 1 8.25807 38.2727 -4.05231e-17
40 2 196.696 73.4479 -4.05231e-17
41 1 192.534 73.0721 -4.05231e-17
42 1 54.0022 58.8746 -4.05231e-17
43 1 210.135 132.365 -4.05231e-17
44 1 155.232 188.506 -4.05231e-17
45 2 159.372 61.0181 -4.05231e-17
46 1 124.742 192.644 -4.05231e-17
47 2 88.4225 78.7304 -4.05231e-17
48 2 150.423 129.572 -4.05231e-17
49 1 194.385 199.922 -4.05231e-17
50 2 28.9428 47.5249 -4.05231e-17
51 1 186.698 2.9145 -4.05231e-17
52 1 115.914 48.3591 -4.05231e-17
53 2 55.1537 200.742 -4.05231e-17
54 1 39.2445 16.7182 -4.05231e-17
55 2 53.7134 141.516 -4.05231e-17
56 1 31.3316 132.691 -4.05231e-17
57 2 58.6333 133.859 -4.05231e-17
58 1 185.52 37.3121 -4.05231e-17
59 1 157.449 85.8611 -4.05231e-17
60 2 206.145 59.4338 -4.05231e-17
61 1 157.653 164.138 -4.05231e-17
62 1 106.682 111.913 -4.05231e-17
63 2 109.026 39.1698 -4.05231e-17
64 1 28.2327 18.231 -4.05231e-17
65 2 152.824 149.189 -4.05231e-17
66 2 13.2968 154.545 -4.05231e-17
67 2 183.059 107.49 -4.05231e-17
68 1 136.656 83.0819 -4.05231e-17
69 2 109.634 168.876 -4.05231e-17
70 1 141.194 97.8802 -4.05231e-17
71 1 198.092 147.687 -4.05231e-17
72 2 44.7134 157.538 -4.05231e-17
73 2 192.04 179.314 -4.05231e-17
74 2 111.744 67.3971 -4.05231e-17
75 1 14.772 136.567 -4.05231e-17
76 2 138.023 206.606 -4.05231e-17
77 2 169.225 15.8979 -4.05231e-17
78 1 93.4743 208.157 -4.05231e-17
79 2 60.4086 75.9335 -4.05231e-17
80 1 49.8737 23.2564 -4.05231e-17
81 1 181.67 210.974 -4.05231e-17
82 1 173.656 41.5958 -4.05231e-17
83 1 70.7987 90.8396 -4.05231e-17
84 2 140.959 179.545 -4.05231e-17
85 2 151.448 146.146 -4.05231e-17
86 2 50.6823 68.0357 -4.05231e-17
87 2 37.5257 75.8525 -4.05231e-17
88 1 80.6098 157.543 -4.05231e-17
89 2 199.554 105.34 -4.05231e-17
90 2 126.699 36.0959 -4.05231e-17
91 2 11.3033 182.175 -4.05231e-17
92 1 27.2596 215.426 -4.05231e-17
93 2 110.212 154.726 -4.05231e-17
94 2 112.45 144.736 -4.05231e-17
95 1 211.766 51.6676 -4.05231e-17
96 2 31.8853 54.4077 -4.05231e-17
97 2 4.43862 211.575 -4.05231e-17
98 2 35.5357 185.731 -4.05231e-17
99 1 104.729 9.55479 -4.05231e-17
100 2 158.811 65.619 -4.05231e-17
101 1 184.461 109.933 -4.05231e-17
102 1 66.4897 164.384 -4.05231e-17
103 2 204.722 100.282 -4.05231e-17
104 2 103.7 73.4058 -4.05231e-17
105 1 160.772 58.6418 -4.05231e-17
106 1 185.686 60.5416 -4.05231e-17
107 1 10.1758 105.402 -4.05231e-17
108 1 69.7646 210.477 -4.05231e-17
109 2 217.782 38.9479 -4.05231e-17
110 2 144.956 29.4216 -4.05231e-17
111 1 52.9601 92.8526 -4.05231e-17
112 2 8.64514 50.8735 -4.05231e-17
113 1 134.955 11.1082 -4.05231e-17
114 1 92.7825 84.3623 -4.05231e-17
115 2 31.2195 58.9927 -4.05231e-17
116 2 184.482 15.3347 -4.05231e-17
117 1 163.233 110.525 -4.05231e-17
118 1 82.8329 93.436 -4.05231e-17
119 2 99.1906 139.509 -4.05231e-17
120 2 201.327 58.4969 -4.05231e-17
121 1 205.256 138.684 -4.05231e-17
122 2 143.476 129.749 -4.05231e-17
123 2 6.75832 129.87 -4.05231e-17
124 1 162.025 199.696 -4.05231e-17
125 1 88.3559 193.009 -4.05231e-17
126 2 97.7352 83.9439 -4.05231e-17
127 2 208.757 110.948 -4.05231e-17
128 1 121.742 105.08 -4.05231e-17
129 1 144.438 194.559 -4.05231e-17
130 2 120.026 61.709 -4.05231e-17
131 1 133.95 60.2196 -4.05231e-17
132 1 139.399 22.0688 -4.05231e-17
133 1 181.231 105.291 -4.05231e-17
134 1 81.2775 191.913 -4.05231e-17
135 2 178.161 60.7578 -4.05231e-17
136 1 190.677 118.941 -4.05231e-17
137 1 60.7517 7.53475 -4.05231e-17
138 2 156.121 158.867 -4.05231e-17
139 1 132.715 12.1141 -4.05231e-17
140 1 145.065 208.539 -4.05231e-17
141 1 50.7452 70.6832 -4.05231e-17
142 1 213.334 190.456 -4.05231e-17
143 1 26.4229 25.9289 -4.05231e-17
144 1 46.4384 98.0946 -4.05231e-17
145 2 192.849 79.8136 -4.05231e-17
146 1 152.582 128.006 -4.05231e-17
147 2 16.746 134.501 -4.05231e-17
148 1 24.6678 133.576 -4.05231e-17
149 1 147.352 190.259 -4.05231e-17
150 2 65.4784 52.1433 -4.05231e-17
151 1 132.232 138.334 -4.05231e-17
152 1 164.305 163.53 -4.05231e-17
153 2 123.965 130.461 -4.05231e-17
154 1 184.629 52.6423 -4.05231e-17
155 2 203.572 39.9911 -4.05231e-17
156 2 109.482 196.799 -4.05231e-17
157 2 167.916 25.5843 -4.05231e-17
158 2 27.7039 7.95998 -4.05231e-17
159 2 12.021 158.689 -4.05231e-17
160 2 120.432 54.3082 -4.05231e-17
161 2 129.647 138.936 -4.05231e-17
162 1 23.907 66.5248 -4.05231e-17
163 1 188.707 34.2369 -4.05231e-17
164 2 108.46 134.932 -4.05231e-17
165 1 48.8717 72.0647 -4.05231e-17
166 2 6.06817 199.806 -4.05231e-17
167 1 107.1 168.088 -4.05231e-17
168 1 211.054 102.851 -4.05231e-17
169 2 98.0647 199.663 -4.05231e-17
170 1 66.034 206.664 -4.05231e-17
171 1 137.318 92.4391 -4.05231e-17
172 1 199.563 199.379 -4.05231e-17
173 1 38.9622 204.232 -4.05231e-17
174 2 38.5286 173.416 -4.05231e-17
175 2 50.1709 199.64 -4.05231e-17
176 1 119.784 151.546 -4.05231e-17
177 2 105.218 15.2599 -4.05231e-17
178 1 25.1008 7.77032 -4.05231e-17
179 2 106.321 197.251 -4.05231e-17
180 1 47.0519 76.1227 -4.05231e-17
181 1 16.1109 119.051 -4.05231e-17
182 1 113.373 86.8494 -4.05231e-17
183 1 64.1481 168.218 -4.05231e-17
184 2 157.82 25.6448 -4.05231e-17
185 2 190.027 78.4648 -4.05231e-17
186 2 73.7402 206.68 -4.05231e-17
187 2 159.277 201.377 -4.05231e-17
188 2 60.4491 28.6074 -4.05231e-17
189 1 190.643 61.7471 -4.05231e-17
190 1 196.837 55.5181 -4.05231e-17
191 2 35.2234 104.148 -4.05231e-17
192 2 90.0625 60.7757 -4.05231e-17
193 1 108.628 166.36 -4.05231e-17
194 1 26.3907 5.67485 -4.05231e-17
195 2 58.8193 120.066 -4.05231e-17
196 1 218.709 218.77 -4.05231e-17
197 2 118.559 49.0206 -4.05231e-17
198 2 206.056 27.2689 -4.05231e-17
199 2 99.9335 170.576 -4.05231e-17
200 2 98.9567 30.9922 -4.05231e-17
201 2 103.349 121.051 -4.05231e-17
202 1 43.8323 34.0763 -4.05231e-17
203 1 18.4158 42.9228 -4.05231e-17
204 2 45.3835 78.6378 -4.05231e-17
205 2 183.02 182 -4.05231e-17
206 2 169.203 126.968 -4.05231e-17
207 1 74.6926 189.073 -4.05231e-17
208 2 134.924 54.4533 -4.05231e-17
209 2 33.0644 142.591 -4.05231e-17
210 1 182.104 112.998 -4.05231e-17
211 1 208.645 35.3232 -4.05231e-17
212 1 208.463 85.2384 -4.05231e-17
213 1 128.2 123.731 -4.05231e-17
214 2 12.2 11.5499 -4.05231e-17
215 1 5.21607 142.074 -4.05231e-17
216 1 54.8177 46.4403 -4.05231e-17
217 1 164.412 61.5917 -4.05231e-17
218 2 201.353 121.029 -4.05231e-17
219 2 136.377 189.576 -4.05231e-17
220 1 121.064 1.24395 -4.05231e-17
221 2 82.9159 7.40373 -4.05231e-17
222 1 158.569 157.242 -4.05231e-17
223 1 46.083 120.702 -4.05231e-17
224 2 146.02 70.5611 -4.05231e-17
225 2 169.149 164.043 -4.05231e-17
226 1 196.385 10.1758 -4.05231e-17
227 2 203.175 214.716 -4.05231e-17
228 2 117.604 63.9358 -4.05231e-17
229 1 47.5003 22.6044 -4.05231e-17
230 1 4.85275 57.0664 -4.05231e-17
231 2 137.418 160.786 -4.05231e-17
232 1 17.6606 212.805 -4.05231e-17
233 2 75.2878 195.695 -4.05231e-17
234 1 0.693198 59.8618 -4.05231e-17
235 1 150.19 105.963 -4.05231e-17
236 2 153.287 52.9134 -4.05231e-17
237 2 99.7189 204.034 -4.05231e-17
238 2 94.9215 140.443 -4.05231e-17
239 1 34.9574 216.955 -4.05231e-17
240 1 129.371 90.9097 -4.05231e-17
241 2 3.702 124.711 -4.05231e-17
242 1 193.94 28.3503 -4.05231e-17
243 2 214.782 130.217 -4.05231e-17
244 2 35.3664 191.051 -4.05231e-17
245 1 174.175 21.1715 -4.05231e-17
246 2 90.0134 84.6006 -4.05231e-17
247 2 198.886 150.196 -4.05231e-17
248 1 38.4196 26.9276 -4.05231e-17
249 1 131.581 108.402 -4.05231e-17
250 1 134.223 28.0839 -4.05231e-17
251 2 102.209 43.7318 -4.05231e-17
252 1 111.029 157.331 -4.05231e-17
253 2 94.2303 97.1023 -4.05231e-17
254 2 179.502 204.873 -4.05231e-17
255 2 121.333 51.2634 -4.05231e-17
256 1 3.36931 179.925 -4.05231e-17
257 2 32.6857 195.623 -4.05231e-17
258 1 210.748 81.213 -4.05231e-17
259 2 161.321 141.618 -4.05231e-17
260 1 40.066 193.036 -4.05231e-17
261 2 143.041 176.626 -4.05231e-17
262 2 186.877 110.6 -4.05231e-17
263 2 94.2921 172.878 -4.05231e-17
264 1 199.478 36.4308 -4.05231e-17
265 1 157.578 186.862 -4.05231e-17
266 1 98.7426 196.987 -4.05231e-17
267 2 115.719 16.398 -4.05231e-17
268 1 218.87 48.8514 -4.05231e-17
269 2 10.0612 113.51 -4.05231e-17
270 2 185.603 148.736 -4.05231e-17
271 2 187.573 94.7091 -4.05231e-17
272 1 59.16 26.121 -4.05231e-17
273 1 69.9255 83.2121 -4.05231e-17
274 1 38.185 196.596 -4.05231e-17
275 1 146.718 109.778 -4.05231e-17
276 1 199.057 74.6204 -4.05231e-17
277 1 100.342 38.4603 -4.05231e-17
278 2 60.6348 145.636 -4.05231e-17
279 2 160.065 86.2847 -4.05231e-17
280 1 117.236 210.526 -4.05231e-17
281 2 170.177 182.266 -4.05231e-17
282 2 74.9976 127.253 -4.05231e-17
283 2 218.99 150.689 -4.05231e-17
284 1 125.952 113.584 -4.05231e-17
285 1 73.5222 165.475 -4.05231e-17
286 2 30.0425 180.826 -4.05231e-17
287 2 93.0897 109.762 -4.05231e-17
288 1 104.675 123.392 -4.05231e-17
289 2 194.486 56.8979 -4.05231e-17
290 1 101.712 29.3433 -4.05231e-17
291 2 96.228 185.882 -4.05231e-17
292 1 76.918 125.638 -4.05231e-17
293 1 159.312 167.955 -4.05231e-17
294 1 29.5065 178.037 -4.05231e-17
295 2 46.795 146.03 -4.05231e-17
296 1 197.116 176.616 -4.05231e-17
297 1 2.14823 18.2691 -4.05231e-17
298 2 30.6916 140.834 -4.05231e-17
299 1 177.931 55.8711 -4.05231e-17
300 2 190.17 192.99 -4.05231e-17
301 2 172.188 19.7874 -4.05231e-17
302 2 163.693 89.3752 -4.05231e-17
303 1 2.61418 151.45 -4.05231e-17
304 1 124.255 106.126 -4.05231e-17
305 1 92.175 177.6 -4.05231e-17
306 2 83.7447 17.8536 -4.05231e-17
307 2 150.434 167.898 -4.05231e-17
308 2 142.036 22.5056 -4.05231e-17
309 1 70.5427 72.0428 -4.05231e-17
310 1 190.414 190.307 -4.05231e-17
311 1 151.142 108.607 -4.05231e-17
312 2 134.865 13.7202 -4.05231e-17
313 2 154.432 17.7277 -4.05231e-17
314 1 184.808 58.275 -4.05231e-17
315 2 56.8273 108.048 -4.05231e-17
316 1 96.0738 31.0862 -4.05231e-17
317 1 133.161 175.736 -4.05231e-17
318 1 216.439 135.253 -4.05231e-17
319 2 74.1591 201.008 -4.05231e-17
320 1 214.226 47.8618 -4.05231e-17
321 1 52.5969 87.5433 -4.05231e-17
322 1 51.5132 148.493 -4.05231e-17
323 2 20.0521 138.7 -4.05231e-17
324 2 7.43296 95.9105 -4.05231e-17
325 2 216.236 13.6675 -4.05231e-17
326 1 185.047 0.838973 -4.05231e-17
327 1 35.7693 46.1941 -4.05231e-17
328 2 32.5076 192.436 -4.05231e-17
329 2 28.9144 82.6263 -4.05231e-17
330 2 153.693 38.3529 -4.05231e-17
331 2 187.566 67.8196 -4.05231e-17
332 2 121.279 114.584 -4.05231e-17
333 2 28.0123 151.376 -4.05231e-17
334 2 215.77 18.0998 -4.05231e-17
335 1 167.376 211.022 -4.05231e-17
336 2 27.8958 142.09 -4.05231e-17
337 2 40.7742 9.76706 -4.05231e-17
338 1 203.142 90.416 -4.05231e-17
339 2 15.1901 152.097 -4.05231e-17
340 2 177.041 214.279 -4.05231e-17
341 2 101.343 60.5388 -4.05231e-17
342 2 173.743 166.892 -4.05231e-17
343 2 175.999 4.9429 -4.05231e-17
344 1 87.5112 105.732 -4.05231e-17
345 2 26.4925 213.061 -4.05231e-17
346 2 75.5068 71.824 -4.05231e-17
347 1 147.661 98.3352 -4.05231e-17
348 1 181.415 3.73195 -4.05231e-17
349 2 173.058 69.7364 -4.05231e-17
350 2 78.086 179.038 -4.05231e-17
351 1 172.641 139.196 -4.05231e-17
352 1 212.918 163.432 -4.05231e-17
353 2 140.985 131.667 -4.05231e-17
354 2 191.659 176.077 -4.05231e-17
355 1 215.758 157.026 -4.05231e-17
356 2 114.639 1.75179 -4.05231e-17
357 1 127.326 192.713 -4.05231e-17
358 1 78.0759 25.5227 -4.05231e-17
359 1 34.9785 144.151 -4.05231e-17
360 1 53.7057 7.07617 -4.05231e-17
361 2 196.913 68.1705 -4.05231e-17
362 2 172.128 94.4006 -4.05231e-17
363 1 78.667 215.201 -4.05231e-17
364 2 217.166 46.6733 -4.05231e-17
365 1 5.83938 163.902 -4.05231e-17
366 1 82.8592 173.048 -4.05231e-17
367 1 161.253 103.937 -4.05231e-17
368 1 20.92 164.997 -4.05231e-17
369 2 81.3915 144.057 -4.05231e-17
370 1 6.14926 132.391 -4.05231e-17
371 2 71.8896 111.033 -4.05231e-17
372 1 87.6483 6.75327 -4.05231e-17
373 2 118.278 208.286 -4.05231e-17
374 2 177.15 101.225 -4.05231e-17
375 1 136.082 26.1327 -4.05231e-17
376 1 122.248 147.321 -4.05231e-17
377 2 95.0325 75.8654 -4.05231e-17
378 2 215.423 107.019 -4.05231e-17
379 2 169.852 187.522 -4.05231e-17
380 1 199.755 33.9802 -4.05231e-17
381 1 174.843 67.5352 -4.05231e-17
382 1 122.527 27.3863 -4.05231e-17
383 1 110.308 83.0726 -4.05231e-17
384 2 54.0215 101.14 -4.05231e-17
385 1 66.03 149.112 -4.05231e-17
386 2 180.07 175.75 -4.05231e-17
387 1 34.8824 106.853 -4.05231e-17
388 1 143.889 163.969 -4.05231e-17
389 2 216.256 121.345 -4.05231e-17
390 1 104.841 65.8636 -4.05231e-17
391 1 203.262 217.348 -4.05231e-17
392 2 3.76466 100.466 -4.05231e-17
393 2 192.719 173.069 -4.05231e-17
394 1 36.4998 204.227 -4.05231e-17
395 1 18.9596 215.239 -4.05231e-17
396 2 75.3739 87.9818 -4.05231e-17
397 1 67.5906 41.926 -4.05231e-17
398 2 166.065 110.743 -4.05231e-17
399 2 196.72 106.533 -4.05231e-17
400 2 123.579 69.1682 -4.05231e-17
401 2 84.0175 191.171 -4.05231e-17
402 1 84.5169 43.0082 -4.05231e-17
403 1 69.9002 116.433 -4.05231e-17
404 2 113.392 13.8665 -4.05231e-17
405 1 49.4584 196.769 -4.05231e-17
406 2 216.659 96.1599 -4.05231e-17
407 1 123.666 79.0375 -4.05231e-17
408 1 129.927 29.4481 -4.05231e-17
409 2 214.488 116.26 -4.05231e-17
410 2 70.9455 159.095 -4.05231e-17
411 1 136.149 96.7776 -4.05231e-17
412 1 164.613 7.17471 -4.05231e-17
413 1 34.7325 86.0624 -4.05231e-17
414 2 193.364 202.453 -4.05231e-17
415 1 107.448 126.833 -4.05231e-17
416 1 176.289 51.9497 -4.05231e-17
417 2 107.895 129.554 -4.05231e-17
418 2 34.6566 180.092 -4.05231e-17
419 2 195.024 91.8469 -4.05231e-17
420 2 108.793 44.7959 -4.05231e-17
421 1 70.217 30.8353 -4.05231e-17
422 1 35.3186 60.9755 -4.05231e-17
423 2 116.547 125.115 -4.05231e-17
424 2 39.2282 24.621 -4.05231e-17
425 2 117.254 150.399 -4.05231e-17
426 1 185.761 96.599 -4.05231e-17
427 2 73.2333 58.8791 -4.05231e-17
428 1 28.9824 175.332 -4.05231e-17
429 2 131.668 150.173 -4.05231e-17
430 2 111.437 104.265 -4.05231e-17
431 1 13.2563 9.19781 -4.05231e-17
432 2 173.929 3.2646 -4.05231e-17
433 1 186.736 198.609 -4.05231e-17
434 1 20.1914 205.233 -4.05231e-17
435 1 149.673 85.3347 -4.05231e-17
436 2 85.1387 198.959 -4.05231e-17
437 2 180.935 82.483 -4.05231e-17
438 2 194.541 177.281 -4.05231e-17
439 2 92.8766 10.3212 -4.05231e-17
440 2 200.818 91.808 -4.05231e-17
441 1 130.965 167.443 -4.05231e-17
442 1 37.8393 104.92 -4.05231e-17
443 2 78.4323 81.1947 -4.05231e-17
444 1 204.16 104.805 -4.05231e-17
445 1 171.213 135.162 -4.05231e-17
446 2 183.054 150.704 -4.05231e-17
447 2 40.2477 40.1281 -4.05231e-17
448 2 205.906 175.764 -4.05231e-17
449 1 40.8897 177.649 -4.05231e-17
450 1 10.5139 126.226 -4.05231e-17
451 1 54.0459 209.059 -4.05231e-17
452 2 208.626 60.651 -4.05231e-17
453 1 216.455 150.26 -4.05231e-17
454 1 3.38151 68.8221 -4.05231e-17
455 2 81.345 131.304 -4.05231e-17
456 1 84.6781 1.94938 -4.05231e-17
457 2 140.928 145.037 -4.05231e-17
458 2 155.396 135.772 -4.05231e-17
459 2 133.309 51.4927 -4.05231e-17
460 1 197.511 169.78 -4.05231e-17
461 1 112.245 128.605 -4.05231e-17
462 1 104.125 195.998 -4.05231e-17
463 2 109.868 218.653 -4.05231e-17
464 2 13.557 78.3104 -4.05231e-17
465 1 123.96 16.2535 -4.05231e-17
466 2 150.249 126.449 -4.05231e-17
467 2 65.9039 133.258 -4.05231e-17
468 2 124.087 125.369 -4.05231e-17
469 2 57.7727 71.364 -4.05231e-17
470 2 208.756 154.571 -4.05231e-17
471 2 212.263 211.436 -4.05231e-17
472 2 111.43 36.8379 -4.05231e-17
473 2 198.134 214.4 -4.05231e-17
474 2 84.9358 147.146 -4.05231e-17
475 1 164.284 183.155 -4.05231e-17
476 2 174.27 34.8407 -4.05231e-17
477 1 208.379 217.735 -4.05231e-17
478 1 46.0574 188.194 -4.05231e-17
479 2 0.89913 197.299 -4.05231e-17
480 1 83.5172 62.0668 -4.05231e-17
481 1 2.68768 209.313 -4.05231e-17
482 2 152.998 176.427 -4.05231e-17
483 1 134.669 209.189 -4.05231e-17
484 1 66.1622 136.154 -4.05231e-17
485 2 13.5084 173.474 -4.05231e-17
486 1 132.689 72.9896 -4.05231e-17
487 1 13.0476 202.094 -4.05231e-17
488 1 50.0266 84.1187 -4.05231e-17
489 1 70.7204 108.728 -4.05231e-17
490 1 164.633 73.1429 -4.05231e-17
491 1 163.033 75.2717 -4.05231e-17
492 2 208.908 15.2164 -4.05231e-17
493 1 94.1403 203.511 -4.05231e-17
494 2 77.1906 65.1221 -4.05231e-17
495 1 150.091 92.1483 -4.05231e-17
496 1 52.2236 123.788 -4.05231e-17
497 1 136.608 109.96 -4.05231e-17
498 2 145.646 38.9872 -4.05231e-17
499 2 177.749 119.517 -4.05231e-17
500 2 57.3468 32.6033 -4.05231e-17
501 2 14.8686 139.491 -4.05231e-17
502 2 191.033 126.658 -4.05231e-17
503 2 57.023 63.2864 -4.05231e-17
504 2 98.0172 50.6342 -4.05231e-17
505 2 112.246 213.664 -4.05231e-17
506 1 207.148 6.0155 -4.05231e-17
507 2 49.6009 181.934 -4.05231e-17
508 1 140.824 59.3157 -4.05231e-17
509 1 209.887 47.4846 -4.05231e-17
510 1 195.274 104.134 -4.05231e-17
511 2 108.461 179.218 -4.05231e-17
512 1 10.8532 42.8761 -4.05231e-17
513 2 87.8858 183.214 -4.05231e-17
514 2 14.8597 88.1442 -4.05231e-17
515 1 60.5725 98.9372 -4.05231e-17
516 2 100.682 73.6841 -4.05231e-17
517 1 32.4536 147.837 -4.05231e-17
518 2 10.3528 13.7203 -4.05231e-17
519 1 124.872 91.9134 -4.05231e-17
520 2 209.301 93.6318 -4.05231e-17
521 2 130.284 39.8712 -4.05231e-17
522 1 187.14 7.26945 -4.05231e-17
523 1 127.159 99.468 -4.05231e-17
524 2 175.355 18.7442 -4.05231e-17
525 2 186.079 45.8757 -4.05231e-17
526 2 108.395 15.9931 -4.05231e-17
527 1 169.627 23.576 -4.05231e-17
528 1 212.884 201.549 -4.05231e-17
529 2 104.501 176.399 -4.05231e-17
530 2 18.1713 88.8563 -4.05231e-17
531 2 184.933 171.826 -4.05231e-17
532 1 81.1934 5.16928 -4.05231e-17
533 2 23.725 158.211 -4.05231e-17
534 1 23.1037 168.639 -4.05231e-17
535 1 170.224 206.717 -4.05231e-17
536 2 18.2255 169.478 -4.05231e-17
537 1 142.366 29.0777 -4.05231e-17
538 1 68.3829 158.222 -4.05231e-17
539 2 80.8553 163.379 -4.05231e-17
540 1 34.9681 182.486 -4.05231e-17
541 1 105.447 128.401 -4.05231e-17
542 1 58.6923 126.696 -4.05231e-17
543 2 120.604 168.664 -4.05231e-17
544 1 217.782 211.475 -4.05231e-17
545 1 174.291 71.8225 -4.05231e-17
546 2 187.343 9.96875 -4.05231e-17
547 1 12.9893 71.8667 -4.05231e-17
548 1 29.3206 5.83572 -4.05231e-17
549 2 35.4463 152.748 -4.05231e-17
550 2 165.142 193.191 -4.05231e-17
551 2 38.4668 7.43019 -4.05231e-17
552 1 31.7114 51.6706 -4.05231e-17
553 2 207.327 196.371 -4.05231e-17
554 2 144.287 33.9693 -4.05231e-17
555 2 176.454 134.138 -4.05231e-17
556 1 177.805 211.763 -4.05231e-17
557 1 211.402 54.2851 -4.05231e-17
558 1 60.3786 142.924 -4.05231e-17
559 2 104.955 91.8953 -4.05231e-17
560 2 57.0169 89.5654 -4.05231e-17
561 2 110.919 181.449 -4.05231e-17
562 2 99.3386 66.0135 -4.05231e-17
563 1 73.4084 168.091 -4.05231e-17
564 2 102.818 78.4554 -4.05231e-17
565 2 32.7818 61.4853 -4.05231e-17
566 2 63.7902 60.4842 -4.05231e-17
567 1 95.036 11.4751 -4.05231e-17
568 1 22.3298 78.7675 -4.05231e-17
569 2 141.702 194.388 -4.05231e-17
570 2 11.6913 21.5934 -4.05231e-17
571 2 5.41565 62.1105 -4.05231e-17
572 1 115.239 107.667 -4.05231e-17
573 2 38.0704 89.4022 -4.05231e-17
574 2 178.94 171.038 -4.05231e-17
575 1 196.236 206.938 -4.05231e-17
576 1 23.3975 70.6907 -4.05231e-17
577 1 127.687 74.6441 -4.05231e-17
578 1 183.632 115.026 -4.05231e-17
579 2 182.609 46.2442 -4.05231e-17
580 1 108.876 103.761 -4.05231e-17
581 1 91.7826 146.788 -4.05231e-17
582 2 125.367 101.298 -4.05231e-17
583 2 103.327 83.8436 -4.05231e-17
584 2 107.318 151.454 -4.05231e-17
585 1 181.923 102.615 -4.05231e-17
586 1 143.656 80.1924 -4.05231e-17
587 1 158.222 111.566 -4.05231e-17
588 2 64.5677 108.424 -4.05231e-17
589 1 210.88 59.5414 -4.05231e-17
590 2 182.163 57.87 -4.05231e-17
591 2 179.054 16.5916 -4.05231e-17
592 1 204.414 128.467 -4.05231e-17
593 1 126.98 90.2203 -4.05231e-17
594 1 5.45125 70.3078 -4.05231e-17
595 1 30.5163 62.7218 -4.05231e-17
596 2 106.836 71.1875 -4.05231e-17
597 2 63.834 105.416 -4.05231e-17
598 2 135.631 87.2998 -4.05231e-17
599 2 97.0533 165.974 -4.05231e-17
600 2 49.0233 99.2644 -4.05231e-17
601 1 145.872 107.329 -4.05231e-17
602 1 173.818 51.8675 -4.05231e-17
603 2 216.775 159.43 -4.05231e-17
604 1 45.9039 179.14 -4.05231e-17
605 2 139.926 100.36 -4.05231e-17
606 2 150.21 98.8857 -4.05231e-17
607 2 47.4956 169.72 -4.05231e-17
608 2 128.113 31.3286 -4.05231e-17
609 1 77.7474 88.6687 -4.05231e-17
610 2 106.265 200.052 -4.05231e-17
611 1 1.36887 165.267 -4.05231e-17
612 1 207.378 117.494 -4.05231e-17
613 2 213.367 156.176 -4.05231e-17
614 1 202.592 30.5292 -4.05231e-17
615 1 152.242 104.023 -4.05231e-17
616 2 146.054 178.213 -4.05231e-17
617 1 168.96 0.861925 -4.05231e-17
618 1 137.056 216.763 -4.05231e-17
619 1 164.188 161.041 -4.05231e-17
620 2 43.053 89.1062 -4.05231e-17
621 2 203.515 76.9584 -4.05231e-17
622 2 145.147 154.437 -4.05231e-17
623 2 108.499 147.282 -4.05231e-17
624 1 106.983 177.071 -4.05231e-17
625 2 208.64 79.8944 -4.05231e-17
626 1 210.551 189.513 -4.05231e-17
627 2 195.311 193.056 -4.05231e-17
628 1 116.912 156.245 -4.05231e-17
629 1 30.207 41.1737 -4.05231e-17
630 2 133.484 213.859 -4.05231e-17
631 2 144.494 114.875 -4.05231e-17
632 2 209.181 19.9123 -4.05231e-17
633 2 60.8796 131.755 -4.05231e-17
634 2 191.982 67.5938 -4.05231e-17
635 2 80.0931 71.6901 -4.05231e-17
636 1 88.1105 131.433 -4.05231e-17
637 1 217.37 152.692 -4.05231e-17
638 1 116.655 69.7441 -4.05231e-17
639 2 200.484 64.6148 -4.05231e-17
640 2 149.177 78.2781 -4.05231e-17
641 1 199.759 96.6606 -4.05231e-17
642 2 162.237 35.0942 -4.05231e-17
643 1 165.399 57.6841 -4.05231e-17
644 2 139.657 155.314 -4.05231e-17
645 2 5.42698 75.4567 -4.05231e-17
646 1 170.291 142.785 -4.05231e-17
647 2 129.321 148.279 -4.05231e-17
648 2 190.62 211.666 -4.05231e-17
649 1 63.431 145.611 -4.05231e-17
650 1 56.2844 153.714 -4.05231e-17
651 1 112.482 131.148 -4.05231e-17
652 2 8.22924 214.072 -4.05231e-17
653 2 195.669 44.9004 -4.05231e-17
654 1 208.595 164.561 -4.05231e-17
655 1 63.2677 47.2603 -4.05231e-17
656 1 199.169 10.2385 -4.05231e-17
657 1 124.969 120.521 -4.05231e-17
658 2 165.993 105.758 -4.05231e-17
659 2 101.504 137.389 -4.05231e-17
660 1 25.0109 12.4274 -4.05231e-17
661 2 15.9697 36.9872 -4.05231e-17
662 2 135.779 116.786 -4.05231e-17
663 1 163.784 112.844 -4.05231e-17
664 1 79.94 138.723 -4.05231e-17
665 1 135.919 143.958 -4.05231e-17
666 1 203.102 185.207 -4.05231e-17
667 1 0.400326 116.765 -4.05231e-17
668 1 134.217 156.972 -4.05231e-17
669 1 107.514 161.216 -4.05231e-17
670 2 212.275 160.933 -4.05231e-17
671 1 3.4738 16.1316 -4.05231e-17
672 1 193.384 141.58 -4.05231e-17
673 2 47.5445 84.9895 -4.05231e-17
674 2 182.597 205.379 -4.05231e-17
675 2 152.909 2.12711 -4.05231e-17
676 1 180.587 160.058 -4.05231e-17
677 2 53.093 53.2088 -4.05231e-17
678 1 86.9139 113.532 -4.05231e-17
679 1 87.5369 61.4762 -4.05231e-17
680 2 71.7417 13.8199 -4.05231e-17
681 1 5.23762 8.93541 -4.05231e-17
682 1 141.598 171.72 -4.05231e-17
683 2 96.298 123.665 -4.05231e-17
684 1 22.9568 180.502 -4.05231e-17
685 1 83.3806 206.561 -4.05231e-17
686 1 143.084 159.653 -4.05231e-17
687 1 107.405 53.7626 -4.05231e-17
688 1 151.813 97.0063 -4.05231e-17
689 2 9.53587 138.563 -4.05231e-17
690 1 48.8704 120.909 -4.05231e-17
691 2 65.1841 115.158 -4.05231e-17
692 2 180.733 179.074 -4.05231e-17
693 1 161.791 96.4475 -4.05231e-17
694 2 147.267 149.88 -4.05231e-17
695 2 188.296 36.7937 -4.05231e-17
696 2 31.9968 82.2568 -4.05231e-17
697 1 103.973 35.9703 -4.05231e-17
698 2 41.3731 18.1554 -4.05231e-17
699 1 56.8785 202.611 -4.05231e-17
700 2 17.767 126.357 -4.05231e-17
701 2 29.6536 65.6293 -4.05231e-17
702 1 160.888 9.75994 -4.05231e-17
703 1 194.558 63.6913 -4.05231e-17
704 1 159.804 121.794 -4.05231e-17
705 1 43.5506 120.6 -4.05231e-17
706 1 75.5989 161.505 -4.05231e-17
707 1 182.008 66.4461 -4.05231e-17
708 2 195.323 101.627 -4.05231e-17
709 1 54.2083 160.628 -4.05231e-17
710 2 91.7143 16.2304 -4.05231e-17
711 2 218.57 140.977 -4.05231e-17
712 1 84.0013 213.354 -4.05231e-17
713 1 4.79387 152.145 -4.05231e-17
714 2 145.255 147.696 -4.05231e-17
715 2 132.932 86.8703 -4.05231e-17
716 1 87.2166 59.1103 -4.05231e-17
717 1 14.756 61.657 -4.05231e-17
718 2 78.8388 99.126 -4.05231e-17
719 1 68.9348 203.417 -4.05231e-17
720 2 51.7295 196.874 -4.05231e-17
721 2 43.769 213.135 -4.05231e-17
722 2 65.187 138.571 -4.05231e-17
723 2 15.8286 165.6 -4.05231e-17
724 2 202.197 107.167 -4.05231e-17
725 2 21.6808 50.2831 -4.05231e-17
726 2 177.717 123.357 -4.05231e-17
727 2 35.2288 109.643 -4.05231e-17
728 1 176.311 76.9606 -4.05231e-17
729 2 164.149 135.877 -4.05231e-17
730 2 175.198 94.1666 -4.05231e-17
731 1 9.75296 23.1762 -4.05231e-17
732 2 98.0038 87.124 -4.05231e-17
733 2 148.128 146.626 -4.05231e-17
734 2 59.2947 192.012 -4.05231e-17
735 2 148.833 71.7221 -4.05231e-17
736 1 182.466 176.778 -4.05231e-17
737 2 48.4254 39.7642 -4.05231e-17
738 2 70.9044 208.087 -4.05231e-17
739 2 185.647 131.216 -4.05231e-17
740 2 40.7136 115.816 -4.05231e-17
741 2 200.482 113.739 -4.05231e-17
742 1 72.0662 98.5533 -4.05231e-17
743 2 77.6319 75.3796 -4.05231e-17
744 1 146.818 49.9944 -4.05231e-17
745 2 15.7508 75.943 -4.05231e-17
746 1 218.827 121.472 -4.05231e-17
747 1 98.6913 163.457 -4.05231e-17
748 2 69.7904 197.974 -4.05231e-17
749 1 213.597 166.01 -4.05231e-17
750 1 139.766 147.927 -4.05231e-17
751 1 143.138 88.8863 -4.05231e-17
752 2 195.228 168.269 -4.05231e-17
753 1 36.9625 180.846 -4.05231e-17
754 2 65.3118 81.1086 -4.05231e-17
755 1 6.26884 80.8489 -4.05231e-17
756 2 179.094 58.1024 -4.05231e-17
757 1 110.867 15.1847 -4.05231e-17
758 2 99.5868 27.9135 -4.05231e-17
759 1 95.8958 133.609 -4.05231e-17
760 1 171.219 61.2928 -4.05231e-17
761 2 213.168 101.035 -4.05231e-17
762 1 178.058 105.879 -4.05231e-17
763 2 6.31542 157.11 -4.05231e-17
764 2 43.1691 188.475 -4.05231e-17
765 1 22.152 160.224 -4.05231e-17
766 2 100.203 48.3168 -4.05231e-17
767 2 206.634 148.638 -4.05231e-17
768 2 71.9496 61.9828 -4.05231e-17
769 2 187.723 98.0344 -4.05231e-17
770 1 133.872 18.4989 -4.05231e-17
771 1 63.8584 63.4014 -4.05231e-17
772 1 129.025 0.484943 -4.05231e-17
773 2 166.511 172.325 -4.05231e-17
774 1 87.3555 86.107 -4.05231e-17
775 1 102.187 75.9865 -4.05231e-17
776 2 192.386 103.215 -4.05231e-17
777 2 42.6496 80.0482 -4.05231e-17
778 1 83.209 12.9853 -4.05231e-17
779 1 46.9467 61.464 -4.05231e-17
780 2 83.5527 49.9553 -4.05231e-17
781 1 25.6973 171.655 -4.05231e-17
782 2 123.432 170.177 -4.05231e-17
783 1 74.2151 61.1767 -4.05231e-17
784 2 95.8516 110.788 -4.05231e-17
785 1 204.47 82.5232 -4.05231e-17
786 1 40.9725 7.13449 -4.05231e-17
787 2 37.9499 208.725 -4.05231e-17
788 2 164.983 180.675 -4.05231e-17
789 2 18.6105 147.098 -4.05231e-17
790 2 77.4884 8.22214 -4.05231e-17
791 2 187.129 53.6343 -4.05231e-17
792 1 212.896 132.544 -4.05231e-17
793 1 97.1201 171.591 -4.05231e-17
794 2 209.771 6.35773 -4.05231e-17
795 2 10.5065 191.357 -4.05231e-17
796 1 68.9704 215.614 -4.05231e-17
797 1 46.3644 32.3826 -4.05231e-17
798 1 213.69 55.9333 -4.05231e-17
799 2 105.767 155.695 -4.05231e-17
800 1 56.5365 37.4846 -4.05231e-17
801 2 67.715 84.8707 -4.05231e-17
802 1 90.6482 216.373 -4.05231e-17
803 1 143.172 24.8835 -4.05231e-17
804 1 210.322 125.047 -4.05231e-17
805 2 183.644 117.559 -4.05231e-17
806 2 178.698 158.123 -4.05231e-17
807 2 208.419 29.3751 -4.05231e-17
808 2 76.2282 144.917 -4.05231e-17
809 1 175.96 62.7833 -4.05231e-17
810 2 23.9696 173.843 -4.05231e-17
811 2 180.729 55.4321 -4.05231e-17
812 1 122.133 185.121 -4.05231e-17
813 1 22.1405 95.9695 -4.05231e-17
814 1 2.99528 204.539 -4.05231e-17
815 1 145.823 32.0488 -4.05231e-17
816 1 207.148 51.0909 -4.05231e-17
817 2 62.8309 70.7368 -4.05231e-17
818 2 29.8306 123.153 -4.05231e-17
819 2 210.889 68.1971 -4.05231e-17
820 1 9.84136 59.1511 -4.05231e-17
821 1 64.4542 57.7864 -4.05231e-17
822 2 131.843 34.5523 -4.05231e-17
823 1 183.683 90.1377 -4.05231e-17
824 1 175.515 89.7739 -4.05231e-17
825 1 160.349 190.739 -4.05231e-17
826 2 178.236 81.6198 -4.05231e-17
827 2 102.927 26.983 -4.05231e-17
828 1 50.6332 91.6935 -4.05231e-17
829 2 127.353 92.8283 -4.05231e-17
830 1 3.79326 156.45 -4.05231e-17
831 2 183.412 217.705 -4.05231e-17
832 2 26.6952 52.2907 -4.05231e-17
833 2 96.2553 42.1832 -4.05231e-17
834 1 71.2623 164.185 -4.05231e-17
835 1 184.263 141.342 -4.05231e-17
836 1 153.178 69.7429 -4.05231e-17
837 2 167.811 91.9362 -4.05231e-17
838 2 92.2071 26.5528 -4.05231e-17
839 1 39.1122 31.9554 -4.05231e-17
840 2 14.0095 117.137 -4.05231e-17
841 2 201.515 10.5246 -4.05231e-17
842 1 174.16 157.169 -4.05231e-17
843 1 204.977 29.7632 -4.05231e-17
844 2 8.5947 25.4599 -4.05231e-17
845 1 47.1397 151.14 -4.05231e-17
846 2 127.693 210.981 -4.05231e-17
847 1 88.6309 143.361 -4.05231e-17
848 2 112.69 8.95355 -4.05231e-17
849 1 25.0163 33.2006 -4.05231e-17
850 2 59.3696 67.1614 -4.05231e-17
851 2 216.55 30.664 -4.05231e-17
852 1 137.383 182.803 -4.05231e-17
853 1 185.978 105.197 -4.05231e-17
854 2 103.958 144.793 -4.05231e-17
855 2 165.311 120.603 -4.05231e-17
856 1 77.4647 160.11 -4.05231e-17