ITEM: TIMESTEP
0
ITEM: NUMBER OF ATOMS
7200
ITEM: BOX BOUNDS xy xz yz pp pp pp
0.0000000000000000e+00 2.1900000000000000e+02 0.0000000000000000e+00
0.0000000000000000e+00 2.1900000000000000e+02 0.0000000000000000e+00
-3.6499999999999999e-01 3.6499999999999999e-01 0.0000000000000000e+00
ITEM: ATOMS id type x y z
1 1 183.13 12.7345 -4.05231e-17
2 2 188.321 183.325 -4.05231e-17
3 2 144.565 189.539 -4.05231e-17
4 1 122.855 110.144 -4.05231e-17
5 1 101.246 122.48 -4.05231e-17
6 1 104.529 25.0226 -4.05231e-17
7 2 158.923 128.662 -4.05231e-17
8 2 70.0095 25.8463 -4.05231e-17
9 1 21.881 215.039 -4.05231e-17
10 2 52.4468 166.858 -4.05231e-17
11 2 210.207 100.369 -4.05231e-17
12 1 33.7381 197.768 -4.05231e-17
13 2 194.416 53.8009 -4.05231e-17
14 1 57.1739 184.525 -4.05231e-17
15 2 193.307 0.128938 -4.05231e-17
16 2 218.454 85.681 -4.05231e-17
17 1 67.7269 74.2179 -4.05231e-17
18 2 10.4847 172.589 -4.05231e-17
19 1 93.3502 130.45 -4.05231e-17
20 1 72.4577 10.9232 -4.05231e-17
21 1 156.605 7.086 -4.05231e-17
22 2 31.5179 212.588 -4.05231e-17
23 2 43.5031 208.399 -4.05231e-17
24 2 218.822 102.862 -4.05231e-17
25 2 30.2777 207.568 -4.05231e-17
26 2 149.112 27.8556 -4.05231e-17
27 1 217.24 162.149 -4.05231e-17
28 2 54.2934 155.145 -4.05231e-17
29 2 83.793 3.7984 -4.05231e-17
30 2 132.25 37.5838 -4.05231e-17
31 2 156.541 83.8727 -4.05231e-17
32 1 48.4392 108.65 -4.05231e-17
33 2 144.91 87.6956 -4.05231e-17
34 2 16.1994 96.0731 -4.05231e-17
35 2 127.333 11.4665 -4.05231e-17
36 1 160.164 146.637 -4.05231e-17
37 1 133.57 185.06 -4.05231e-17
38 2 208.997 157.53 -4.05231e-17
39 1 7.86516 38.1818 -4.05231e-17
40 2 196.657 73.8484 -4.05231e-17
41 1 192.759 73.2199 -4.05231e-17
42 1 55.0034 58.4873 -4.05231e-17
43 1 210.34 131.916 -4.05231e-17
44 1 155.202 188.857 -4.05231e-17
45 2 159.45 61.5053 -4.05231e-17
46 1 124.429 192.683 -4.05231e-17
47 2 89.2123 80.5775 -4.05231e-17
48 2 150.841 129.424 -4.05231e-17
49 1 194.291 200.308 -4.05231e-17
50 2 29.1833 47.415 -4.05231e-17
51 1 186.629 3.11239 -4.05231e-17
52 1 115.219 48.0103 -4.05231e-17
53 2 54.9372 200.88 -4.05231e-17
54 1 38.8688 16.7537 -4.05231e-17
55 2 53.7626 141.409 -4.05231e-17
56 1 31.3346 132.417 -4.05231e-17
57 2 58.3433 133.539 -4.05231e-17
58 1 183.775 33.7329 -4.05231e-17
59 1 157.56 86.2124 -4.05231e-17
60 2 206.687 59.4389 -4.05231e-17
61 1 157.18 164.4 -4.05231e-17
62 1 106.802 111.552 -4.05231e-17
63 2 108.901 38.612 -4.05231e-17
64 1 28.5208 17.9332 -4.05231e-17
65 2 152.359 149.312 -4.05231e-17
66 2 13.2817 154.805 -4.05231e-17
67 2 182.95 107.809 -4.05231e-17
68 1 136.629 83.2401 -4.05231e-17
69 2 109.527 168.99 -4.05231e-17
70 1 141.341 97.7741 -4.05231e-17
71 1 198.308 147.595 -4.05231e-17
72 2 44.9249 157.639 -4.05231e-17
73 2 192.037 179.543 -4.05231e-17
74 2 109.829 70.0365 -4.05231e-17
75 1 14.7772 136.586 -4.05231e-17
76 2 138.188 206.611 -4.05231e-17
77 2 168.682 15.5564 -4.05231e-17
78 1 93.3845 207.961 -4.05231e-17
79 2 60.4506 76.096 -4.05231e-17
80 1 49.8542 23.165 -4.05231e-17
81 1 181.878 211.301 -4.05231e-17
82 1 173.11 41.4044 -4.05231e-17
83 1 71.0891 90.9333 -4.05231e-17
84 2 141.196 179.562 -4.05231e-17
85 2 151.08 146.092 -4.05231e-17
86 2 50.9547 68.056 -4.05231e-17
87 2 38.6393 75.5106 -4.05231e-17
88 1 80.8504 157.538 -4.05231e-17
89 2 199.668 105.376 -4.05231e-17
90 2 126.13 36.1201 -4.05231e-17
91 2 11.2107 182.192 -4.05231e-17
92 1 27.5806 215.417 -4.05231e-17
93 2 110.238 154.659 -4.05231e-17
94 2 112.879 144.241 -4.05231e-17
95 1 211.297 51.6447 -4.05231e-17
96 2 32.0595 54.4769 -4.05231e-17
97 2 4.38161 211.833 -4.05231e-17
98 2 35.6219 185.518 -4.05231e-17
99 1 104.698 9.5848 -4.05231e-17
100 2 158.975 66.0265 -4.05231e-17
101 1 184.207 110.14 -4.05231e-17
102 1 66.1331 164.147 -4.05231e-17
103 2 204.787 100.539 -4.05231e-17
104 2 104.307 73.2477 -4.05231e-17
105 1 160.658 59.0234 -4.05231e-17
106 1 185.374 61.0062 -4.05231e-17
107 1 12.6087 106.702 -4.05231e-17
108 1 70.1924 210.158 -4.05231e-17
109 2 217.316 39.237 -4.05231e-17
110 2 144.871 29.6917 -4.05231e-17
111 1 53.1683 92.4606 -4.05231e-17
112 2 8.49078 50.8273 -4.05231e-17
113 1 135.078 11.1591 -4.05231e-17
114 1 92.3549 87.0465 -4.05231e-17
115 2 32.085 60.1245 -4.05231e-17
116 2 183.762 15.4116 -4.05231e-17
117 1 163.048 110.616 -4.05231e-17
118 1 82.5702 94.2177 -4.05231e-17
119 2 99.3722 139.466 -4.05231e-17
120 2 201.573 58.4049 -4.05231e-17
121 1 205.021 138.881 -4.05231e-17
122 2 143.415 129.803 -4.05231e-17
123 2 7.09216 129.479 -4.05231e-17
124 1 161.704 200.208 -4.05231e-17
125 1 88.1184 192.634 -4.05231e-17
126 2 97.6926 84.3747 -4.05231e-17
127 2 209.075 110.628 -4.05231e-17
128 1 121.856 105.105 -4.05231e-17
129 1 144.424 194.596 -4.05231e-17
130 2 119.787 61.2737 -4.05231e-17
131 1 133.621 59.9988 -4.05231e-17
132 1 139.47 22.1281 -4.05231e-17
133 1 180.965 105.756 -4.05231e-17
134 1 80.975 191.691 -4.05231e-17
135 2 177.941 61.4895 -4.05231e-17
136 1 190.486 119.103 -4.05231e-17
137 1 60.8189 7.3215 -4.05231e-17
138 2 156.092 159.087 -4.05231e-17
139 1 132.832 12.0243 -4.05231e-17
140 1 145.143 208.508 -4.05231e-17
141 1 51.2179 70.6559 -4.05231e-17
142 1 213.162 191.243 -4.05231e-17
143 1 26.2694 25.9798 -4.05231e-17
144 1 46.9634 97.8759 -4.05231e-17
145 2 193.095 80.2083 -4.05231e-17
146 1 153.614 125.742 -4.05231e-17
147 2 16.5363 134.357 -4.05231e-17
148 1 24.5209 133.231 -4.05231e-17
149 1 147.547 190.627 -4.05231e-17
150 2 65.5447 52.6663 -4.05231e-17
151 1 132.251 137.738 -4.05231e-17
152 1 164.043 163.571 -4.05231e-17
153 2 124.232 130.14 -4.05231e-17
154 1 184.259 53.0057 -4.05231e-17
155 2 203.174 40.0604 -4.05231e-17
156 2 109.912 197.434 -4.05231e-17
157 2 166.323 29.3938 -4.05231e-17
158 2 27.6728 7.68115 -4.05231e-17
159 2 12.0806 158.668 -4.05231e-17
160 2 120.197 54.6639 -4.05231e-17
161 2 129.841 138.676 -4.05231e-17
162 1 23.8262 66.3864 -4.05231e-17
163 1 188.632 34.2624 -4.05231e-17
164 2 108.391 134.735 -4.05231e-17
165 1 48.8911 72.3222 -4.05231e-17
166 2 6.09805 200.308 -4.05231e-17
167 1 107.122 167.849 -4.05231e-17
168 1 211.415 103.041 -4.05231e-17
169 2 98.4111 199.521 -4.05231e-17
170 1 66.2626 206.674 -4.05231e-17
171 1 137.139 92.3216 -4.05231e-17
172 1 199.373 199.792 -4.05231e-17
173 1 39.0675 204.245 -4.05231e-17
174 2 38.6061 173.383 -4.05231e-17
175 2 49.7717 199.706 -4.05231e-17
176 1 119.686 151.841 -4.05231e-17
177 2 104.51 15.122 -4.05231e-17
178 1 25.0434 7.4984 -4.05231e-17
179 2 106.526 197.813 -4.05231e-17
180 1 47.2847 76.5398 -4.05231e-17
181 1 16.1952 119.374 -4.05231e-17
182 1 113.767 86.7835 -4.05231e-17
183 1 64.1024 168.338 -4.05231e-17
184 2 157.53 25.9773 -4.05231e-17
185 2 190.394 78.6551 -4.05231e-17
186 2 74.2993 206.146 -4.05231e-17
187 2 159.277 201.748 -4.05231e-17
188 2 60.4191 28.5155 -4.05231e-17
189 1 191.259 57.8247 -4.05231e-17
190 1 196.416 55.5226 -4.05231e-17
191 2 35.7847 104.432 -4.05231e-17
192 2 90.8885 61.1682 -4.05231e-17
193 1 108.827 165.851 -4.05231e-17
194 1 26.8242 5.28911 -4.05231e-17
195 2 58.3287 120.22 -4.05231e-17
196 1 0.0584185 218.8 -4.05231e-17
197 2 118.763 50.3377 -4.05231e-17
198 2 206.255 27.3059 -4.05231e-17
199 2 99.8434 170.514 -4.05231e-17
200 2 98.4074 31.2054 -4.05231e-17
201 2 103.169 120.775 -4.05231e-17
202 1 43.882 34.1674 -4.05231e-17
203 1 18.2324 42.921 -4.05231e-17
204 2 44.9395 78.3119 -4.05231e-17
205 2 183.338 182.368 -4.05231e-17
206 2 170.898 127.6 -4.05231e-17
207 1 74.3559 189.513 -4.05231e-17
208 2 134.996 54.443 -4.05231e-17
209 2 33.1165 142.345 -4.05231e-17
210 1 182.22 113.456 -4.05231e-17
211 1 208.094 35.3395 -4.05231e-17
212 1 208.489 85.2577 -4.05231e-17
213 1 128.069 123.73 -4.05231e-17
214 2 11.8818 11.3299 -4.05231e-17
215 1 5.43116 142.401 -4.05231e-17
216 1 55.161 46.6087 -4.05231e-17
217 1 164.304 61.9086 -4.05231e-17
218 2 200.747 121.081 -4.05231e-17
219 2 136.451 189.613 -4.05231e-17
220 1 120.998 1.44583 -4.05231e-17
221 2 82.9471 6.76877 -4.05231e-17
222 1 158.322 157.536 -4.05231e-17
223 1 45.9498 120.181 -4.05231e-17
224 2 145.693 71.1333 -4.05231e-17
225 2 168.932 164.195 -4.05231e-17
226 1 196.562 10.4555 -4.05231e-17
227 2 203.067 214.777 -4.05231e-17
228 2 117.768 63.5503 -4.05231e-17
229 1 47.3354 22.8643 -4.05231e-17
230 1 4.97399 56.6538 -4.05231e-17
231 2 137.281 160.712 -4.05231e-17
232 1 18.0124 212.763 -4.05231e-17
233 2 75.5037 195.893 -4.05231e-17
234 1 0.731649 59.7125 -4.05231e-17
235 1 150.453 106.053 -4.05231e-17
236 2 153.085 53.1485 -4.05231e-17
237 2 99.4672 204.189 -4.05231e-17
238 2 94.9838 140.484 -4.05231e-17
239 1 35.3572 216.943 -4.05231e-17
240 1 129.625 90.8928 -4.05231e-17
241 2 3.59662 124.422 -4.05231e-17
242 1 194.099 28.3202 -4.05231e-17
243 2 214.884 130.114 -4.05231e-17
244 2 35.453 190.842 -4.05231e-17
245 1 173.899 21.2153 -4.05231e-17
246 2 90.2941 85.3423 -4.05231e-17
247 2 198.762 150.344 -4.05231e-17
248 1 37.8884 27.3947 -4.05231e-17
249 1 131.835 108.584 -4.05231e-17
250 1 134.327 28.0901 -4.05231e-17
251 2 102.064 43.1755 -4.05231e-17
252 1 111.036 157.19 -4.05231e-17
253 2 95.6155 97.4978 -4.05231e-17
254 2 179.69 204.952 -4.05231e-17
255 2 122.205 50.2749 -4.05231e-17
256 1 3.202 180.056 -4.05231e-17
257 2 32.5481 195.301 -4.05231e-17
258 1 211.096 81.329 -4.05231e-17
259 2 161.109 141.555 -4.05231e-17
260 1 40.1093 192.667 -4.05231e-17
261 2 142.979 176.905 -4.05231e-17
262 2 186.791 110.631 -4.05231e-17
263 2 94.0953 172.744 -4.05231e-17
264 1 199.108 36.4713 -4.05231e-17
265 1 157.624 187.182 -4.05231e-17
266 1 98.8728 196.904 -4.05231e-17
267 2 115.664 16.0688 -4.05231e-17
268 1 218.526 48.7835 -4.05231e-17
269 2 10.198 113.207 -4.05231e-17
270 2 185.346 148.841 -4.05231e-17
271 2 187.699 95.0989 -4.05231e-17
272 1 59.2604 25.9297 -4.05231e-17
273 1 70.7246 83.2692 -4.05231e-17
274 1 37.9815 196.382 -4.05231e-17
275 1 146.914 110.046 -4.05231e-17
276 1 199.059 74.978 -4.05231e-17
277 1 100.393 37.6017 -4.05231e-17
278 2 61.058 145.424 -4.05231e-17
279 2 160.139 86.4666 -4.05231e-17
280 1 117.245 210.803 -4.05231e-17
281 2 169.826 182.507 -4.05231e-17
282 2 75.2367 127.344 -4.05231e-17
283 2 0.122356 150.769 -4.05231e-17
284 1 125.994 113.539 -4.05231e-17
285 1 73.197 165.194 -4.05231e-17
286 2 30.2659 180.309 -4.05231e-17
287 2 93.44 109.636 -4.05231e-17
288 1 104.223 123.37 -4.05231e-17
289 2 194.071 56.707 -4.05231e-17
290 1 101.319 30.4691 -4.05231e-17
291 2 96.427 186.12 -4.05231e-17
292 1 77.2889 125.751 -4.05231e-17
293 1 159.124 168.157 -4.05231e-17
294 1 29.7478 177.665 -4.05231e-17
295 2 46.9885 145.713 -4.05231e-17
296 1 197.065 176.526 -4.05231e-17
297 1 2.05056 18.3124 -4.05231e-17
298 2 30.6411 140.663 -4.05231e-17
299 1 177.33 55.8775 -4.05231e-17
300 2 190.224 193.007 -4.05231e-17
301 2 171.947 19.2828 -4.05231e-17
302 2 163.685 89.683 -4.05231e-17
303 1 2.59159 151.582 -4.05231e-17
304 1 124.364 105.82 -4.05231e-17
305 1 92.3263 177.701 -4.05231e-17
306 2 83.7821 17.6908 -4.05231e-17
307 2 150.386 167.526 -4.05231e-17
308 2 142.221 22.38 -4.05231e-17
309 1 70.3959 71.8376 -4.05231e-17
310 1 190.494 190.303 -4.05231e-17
311 1 151.073 108.478 -4.05231e-17
312 2 135.187 13.8003 -4.05231e-17
313 2 155.274 18.6255 -4.05231e-17
314 1 184.545 58.7951 -4.05231e-17
315 2 56.8767 107.891 -4.05231e-17
316 1 95.759 30.6781 -4.05231e-17
317 1 132.924 175.89 -4.05231e-17
318 1 216.488 135.567 -4.05231e-17
319 2 73.9281 201.06 -4.05231e-17
320 1 213.881 47.9168 -4.05231e-17
321 1 52.4222 87.1899 -4.05231e-17
322 1 51.4397 148.408 -4.05231e-17
323 2 19.9349 138.585 -4.05231e-17
324 2 7.98773 95.1427 -4.05231e-17
325 2 215.926 13.6147 -4.05231e-17
326 1 184.951 1.23674 -4.05231e-17
327 1 35.7329 46.2869 -4.05231e-17
328 2 32.5726 192.201 -4.05231e-17
329 2 28.4677 83.1816 -4.05231e-17
330 2 153.173 39.1861 -4.05231e-17
331 2 187.991 67.5569 -4.05231e-17
332 2 121.459 114.427 -4.05231e-17
333 2 28.1073 151.182 -4.05231e-17
334 2 215.876 17.925 -4.05231e-17
335 1 167.421 211.263 -4.05231e-17
336 2 27.8961 141.838 -4.05231e-17
337 2 40.7085 9.75749 -4.05231e-17
338 1 203.348 90.442 -4.05231e-17
339 2 15.2623 152.045 -4.05231e-17
340 2 176.794 214.336 -4.05231e-17
341 2 101.58 60.2922 -4.05231e-17
342 2 173.485 166.665 -4.05231e-17
343 2 176.354 5.11449 -4.05231e-17
344 1 87.93 105.727 -4.05231e-17
345 2 26.5073 213.021 -4.05231e-17
346 2 75.2043 72.9574 -4.05231e-17
347 1 147.791 98.7671 -4.05231e-17
348 1 181.444 3.86422 -4.05231e-17
349 2 173.262 70.3296 -4.05231e-17
350 2 78.0131 178.694 -4.05231e-17
351 1 174.582 141.587 -4.05231e-17
352 1 212.802 163.312 -4.05231e-17
353 2 140.962 131.669 -4.05231e-17
354 2 192.055 176.05 -4.05231e-17
355 1 216.044 156.898 -4.05231e-17
356 2 115.151 1.62865 -4.05231e-17
357 1 127.121 192.578 -4.05231e-17
358 1 77.7479 25.7359 -4.05231e-17
359 1 35.0832 143.815 -4.05231e-17
360 1 51.3801 8.08779 -4.05231e-17
361 2 196.662 68.744 -4.05231e-17
362 2 172.336 94.6445 -4.05231e-17
363 1 79.1025 215.181 -4.05231e-17
364 2 217.022 46.4549 -4.05231e-17
365 1 5.88243 164.182 -4.05231e-17
366 1 82.7725 173.018 -4.05231e-17
367 1 161.297 103.794 -4.05231e-17
368 1 20.9022 164.33 -4.05231e-17
369 2 81.5365 143.898 -4.05231e-17
370 1 6.49851 132.184 -4.05231e-17
371 2 71.68 111.458 -4.05231e-17
372 1 87.7601 6.67764 -4.05231e-17
373 2 118.418 208.555 -4.05231e-17
374 2 176.973 101.579 -4.05231e-17
375 1 136.171 26.1762 -4.05231e-17
376 1 121.987 147.569 -4.05231e-17
377 2 94.9955 75.8001 -4.05231e-17
378 2 215.704 106.994 -4.05231e-17
379 2 169.531 187.234 -4.05231e-17
380 1 199.615 33.733 -4.05231e-17
381 1 175.086 68.1169 -4.05231e-17
382 1 122.481 27.1035 -4.05231e-17
383 1 110.364 83.1768 -4.05231e-17
384 2 54.425 100.95 -4.05231e-17
385 1 66.1142 149.026 -4.05231e-17
386 2 179.863 175.353 -4.05231e-17
387 1 35.066 107.071 -4.05231e-17
388 1 143.632 164.062 -4.05231e-17
389 2 215.999 121.085 -4.05231e-17
390 1 104.712 66.0171 -4.05231e-17
391 1 203.051 217.459 -4.05231e-17
392 2 4.33394 100.487 -4.05231e-17
393 2 192.648 173.048 -4.05231e-17
394 1 36.4716 203.812 -4.05231e-17
395 1 19.1522 214.984 -4.05231e-17
396 2 75.4431 88.1705 -4.05231e-17
397 1 67.703 41.9919 -4.05231e-17
398 2 165.655 110.961 -4.05231e-17
399 2 196.918 106.658 -4.05231e-17
400 2 123.32 68.9526 -4.05231e-17
401 2 83.9721 190.53 -4.05231e-17
402 1 84.1981 43.0135 -4.05231e-17
403 1 69.9013 116.8 -4.05231e-17
404 2 113.46 13.7257 -4.05231e-17
405 1 49.0359 196.953 -4.05231e-17
406 2 216.993 95.8774 -4.05231e-17
407 1 123.494 78.6204 -4.05231e-17
408 1 129.804 29.3885 -4.05231e-17
409 2 214.209 116.194 -4.05231e-17
410 2 70.8878 158.75 -4.05231e-17
411 1 136.139 97.0001 -4.05231e-17
412 1 164.645 6.89185 -4.05231e-17
413 1 34.9772 85.9009 -4.05231e-17
414 2 193.119 202.438 -4.05231e-17
415 1 107.381 126.665 -4.05231e-17
416 1 176.189 51.916 -4.05231e-17
417 2 107.714 129.329 -4.05231e-17
418 2 34.7953 179.666 -4.05231e-17
419 2 195.075 92.1383 -4.05231e-17
420 2 108.642 43.9596 -4.05231e-17
421 1 70.2864 30.7584 -4.05231e-17
422 1 34.5545 58.1975 -4.05231e-17
423 2 116.717 125.366 -4.05231e-17
424 2 39.1566 24.7444 -4.05231e-17
425 2 117.172 150.719 -4.05231e-17
426 1 185.894 96.8826 -4.05231e-17
427 2 74.9311 60.4378 -4.05231e-17
428 1 29.2449 175.239 -4.05231e-17
429 2 131.509 150.03 -4.05231e-17
430 2 111.317 104.437 -4.05231e-17
431 1 13.1908 9.05397 -4.05231e-17
432 2 174.012 3.25402 -4.05231e-17
433 1 186.527 198.633 -4.05231e-17
434 1 20.2141 205.287 -4.05231e-17
435 1 149.669 85.2868 -4.05231e-17
436 2 85.3652 198.611 -4.05231e-17
437 2 181.165 82.674 -4.05231e-17
438 2 194.497 177.516 -4.05231e-17
439 2 92.5658 10.286 -4.05231e-17
440 2 201.135 91.9074 -4.05231e-17
441 1 131.045 167.369 -4.05231e-17
442 1 38.3214 104.72 -4.05231e-17
443 2 79.3875 81.8902 -4.05231e-17
444 1 204.214 105.267 -4.05231e-17
445 1 169.302 133.076 -4.05231e-17
446 2 182.962 150.832 -4.05231e-17
447 2 40.0721 40.2399 -4.05231e-17
448 2 206.181 175.845 -4.05231e-17
449 1 41.1096 177.444 -4.05231e-17
450 1 10.5563 126.16 -4.05231e-17
451 1 54.0652 209.215 -4.05231e-17
452 2 209.226 60.9711 -4.05231e-17
453 1 216.56 149.995 -4.05231e-17
454 1 3.20589 68.8849 -4.05231e-17
455 2 81.5114 131.533 -4.05231e-17
456 1 85.2595 1.70148 -4.05231e-17
457 2 140.596 144.59 -4.05231e-17
458 2 155.534 135.718 -4.05231e-17
459 2 133.115 51.4046 -4.05231e-17
460 1 197.337 169.899 -4.05231e-17
461 1 111.976 128.509 -4.05231e-17
462 1 104.235 196.316 -4.05231e-17
463 2 110.444 218.518 -4.05231e-17
464 2 13.7797 77.7728 -4.05231e-17
465 1 123.834 16.1393 -4.05231e-17
466 2 150.773 126.276 -4.05231e-17
467 2 65.8552 133.19 -4.05231e-17
468 2 123.909 125.38 -4.05231e-17
469 2 58.1557 71.6264 -4.05231e-17
470 2 208.811 154.278 -4.05231e-17
471 2 211.844 211.575 -4.05231e-17
472 2 111.234 36.7186 -4.05231e-17
473 2 197.931 214.566 -4.05231e-17
474 2 85.2852 147.121 -4.05231e-17
475 1 163.874 182.969 -4.05231e-17
476 2 175.086 34.6495 -4.05231e-17
477 1 208.639 217.903 -4.05231e-17
478 1 46.0572 188.341 -4.05231e-17
479 2 1.02546 197.644 -4.05231e-17
480 1 82.586 61.5784 -4.05231e-17
481 1 2.83514 209.589 -4.05231e-17
482 2 152.528 176.716 -4.05231e-17
483 1 134.873 209.324 -4.05231e-17
484 1 66.2625 135.759 -4.05231e-17
485 2 13.6319 173.641 -4.05231e-17
486 1 132.724 72.8446 -4.05231e-17
487 1 13.1747 202.117 -4.05231e-17
488 1 50.0105 83.438 -4.05231e-17
489 1 70.5787 109.028 -4.05231e-17
490 1 164.578 73.3607 -4.05231e-17
491 1 162.92 75.4519 -4.05231e-17
492 2 208.951 15.5489 -4.05231e-17
493 1 94.0203 203.275 -4.05231e-17
494 2 77.8129 66.213 -4.05231e-17
495 1 149.999 92.177 -4.05231e-17
496 1 51.9824 123.572 -4.05231e-17
497 1 136.849 110.197 -4.05231e-17
498 2 145.265 39.2132 -4.05231e-17
499 2 177.542 119.272 -4.05231e-17
500 2 57.1152 32.1104 -4.05231e-17
501 2 14.6193 139.308 -4.05231e-17
502 2 190.56 126.625 -4.05231e-17
503 2 57.4745 63.5335 -4.05231e-17
504 2 98.1556 50.145 -4.05231e-17
505 2 112.349 213.855 -4.05231e-17
506 1 206.99 6.00878 -4.05231e-17
507 2 49.5755 182.348 -4.05231e-17
508 1 140.335 59.3465 -4.05231e-17
509 1 209.369 47.2368 -4.05231e-17
510 1 195.231 104.19 -4.05231e-17
511 2 108.177 179.721 -4.05231e-17
512 1 10.9195 42.4065 -4.05231e-17
513 2 87.9079 183.214 -4.05231e-17
514 2 15.0913 87.1941 -4.05231e-17
515 1 60.7059 98.6164 -4.05231e-17
516 2 100.975 74.1484 -4.05231e-17
517 1 32.4962 147.507 -4.05231e-17
518 2 10.0989 13.5851 -4.05231e-17
519 1 125.003 92.1597 -4.05231e-17
520 2 209.451 93.8731 -4.05231e-17
521 2 130.107 39.8947 -4.05231e-17
522 1 187.262 7.53751 -4.05231e-17
523 1 127.595 99.5753 -4.05231e-17
524 2 175.071 18.829 -4.05231e-17
525 2 185.271 45.731 -4.05231e-17
526 2 107.954 15.7717 -4.05231e-17
527 1 170.605 25.1872 -4.05231e-17
528 1 212.988 201.902 -4.05231e-17
529 2 104.572 176.296 -4.05231e-17
530 2 18.7913 88.1774 -4.05231e-17
531 2 184.915 172.073 -4.05231e-17
532 1 81.2088 4.96323 -4.05231e-17
533 2 23.4068 157.89 -4.05231e-17
534 1 23.1389 168.094 -4.05231e-17
535 1 170.445 206.893 -4.05231e-17
536 2 18.3891 169.592 -4.05231e-17
537 1 142.371 29.3225 -4.05231e-17
538 1 68.4733 157.697 -4.05231e-17
539 2 81.031 163.108 -4.05231e-17
540 1 34.9634 182.311 -4.05231e-17
541 1 105.361 128.458 -4.05231e-17
542 1 58.68 126.631 -4.05231e-17
543 2 120.378 168.655 -4.05231e-17
544 1 217.546 211.526 -4.05231e-17
545 1 174.848 72.2884 -4.05231e-17
546 2 186.98 10.06 -4.05231e-17
547 1 12.8645 71.5943 -4.05231e-17
548 1 29.5316 5.71873 -4.05231e-17
549 2 35.3714 152.393 -4.05231e-17
550 2 164.633 193.417 -4.05231e-17
551 2 38.8048 7.43225 -4.05231e-17
552 1 31.7884 52.0157 -4.05231e-17
553 2 207.079 196.684 -4.05231e-17
554 2 144.076 34.0601 -4.05231e-17
555 2 177.834 134.631 -4.05231e-17
556 1 177.709 211.739 -4.05231e-17
557 1 211.125 54.1519 -4.05231e-17
558 1 60.265 142.855 -4.05231e-17
559 2 106.307 91.377 -4.05231e-17
560 2 57.3956 89.1808 -4.05231e-17
561 2 110.664 181.704 -4.05231e-17
562 2 97.8401 64.9258 -4.05231e-17
563 1 73.2317 168.102 -4.05231e-17
564 2 103.298 78.7843 -4.05231e-17
565 2 33.5241 65.2892 -4.05231e-17
566 2 64.2651 60.5028 -4.05231e-17
567 1 94.7835 11.812 -4.05231e-17
568 1 22.616 78.008 -4.05231e-17
569 2 141.89 194.319 -4.05231e-17
570 2 11.4153 21.1115 -4.05231e-17
571 2 5.25028 62.1147 -4.05231e-17
572 1 115.13 107.64 -4.05231e-17
573 2 38.1015 89.3457 -4.05231e-17
574 2 179.335 169.999 -4.05231e-17
575 1 196.061 206.798 -4.05231e-17
576 1 25.6052 68.3117 -4.05231e-17
577 1 127.397 74.5632 -4.05231e-17
578 1 183.92 115.323 -4.05231e-17
579 2 182.2 44.762 -4.05231e-17
580 1 108.731 103.819 -4.05231e-17
581 1 91.73 146.549 -4.05231e-17
582 2 125.551 101.138 -4.05231e-17
583 2 103.159 83.9823 -4.05231e-17
584 2 107.454 151.477 -4.05231e-17
585 1 181.904 103.202 -4.05231e-17
586 1 143.433 80.2357 -4.05231e-17
587 1 158.38 111.896 -4.05231e-17
588 2 64.4851 108.764 -4.05231e-17
589 1 211.095 59.3292 -4.05231e-17
590 2 182.008 58.129 -4.05231e-17
591 2 179.002 16.7002 -4.05231e-17
592 1 204.203 128.537 -4.05231e-17
593 1 127.085 90.2764 -4.05231e-17
594 1 5.22108 70.0217 -4.05231e-17
595 1 33.3935 62.7019 -4.05231e-17
596 2 106.961 71.0352 -4.05231e-17
597 2 63.7827 105.695 -4.05231e-17
598 2 135.684 87.544 -4.05231e-17
599 2 97.211 166.022 -4.05231e-17
600 2 49.7638 98.5401 -4.05231e-17
601 1 145.815 107.757 -4.05231e-17
602 1 173.738 52.2287 -4.05231e-17
603 2 216.818 159.314 -4.05231e-17
604 1 45.8876 179.308 -4.05231e-17
605 2 139.859 100.425 -4.05231e-17
606 2 150.25 99.0477 -4.05231e-17
607 2 47.7285 169.582 -4.05231e-17
608 2 128.081 31.1057 -4.05231e-17
609 1 77.6444 89.2539 -4.05231e-17
610 2 105.943 200.392 -4.05231e-17
611 1 1.45715 165.453 -4.05231e-17
612 1 207.031 117.771 -4.05231e-17
613 2 213.455 156.411 -4.05231e-17
614 1 202.647 30.6385 -4.05231e-17
615 1 152.199 104.111 -4.05231e-17
616 2 146.371 177.837 -4.05231e-17
617 1 168.735 1.18003 -4.05231e-17
618 1 137.28 216.675 -4.05231e-17
619 1 164.087 161.152 -4.05231e-17
620 2 42.9349 88.5578 -4.05231e-17
621 2 203.737 77.3678 -4.05231e-17
622 2 144.778 154.115 -4.05231e-17
623 2 109.002 147.278 -4.05231e-17
624 1 107.12 177.295 -4.05231e-17
625 2 208.705 80.0137 -4.05231e-17
626 1 210.559 190.213 -4.05231e-17
627 2 195.29 193.179 -4.05231e-17
628 1 116.708 156.413 -4.05231e-17
629 1 30.1637 41.2158 -4.05231e-17
630 2 133.636 213.881 -4.05231e-17
631 2 144.645 115.269 -4.05231e-17
632 2 209.076 20.1045 -4.05231e-17
633 2 60.9074 131.677 -4.05231e-17
634 2 191.443 67.6008 -4.05231e-17
635 2 80.1252 72.4444 -4.05231e-17
636 1 88.563 131.539 -4.05231e-17
637 1 217.198 152.466 -4.05231e-17
638 1 116.639 69.23 -4.05231e-17
639 2 200.968 65.7158 -4.05231e-17
640 2 149.149 78.0737 -4.05231e-17
641 1 200.086 96.9162 -4.05231e-17
642 2 161.661 35.7829 -4.05231e-17
643 1 165.386 58.0765 -4.05231e-17
644 2 139.722 154.785 -4.05231e-17
645 2 5.65553 75.2381 -4.05231e-17
646 1 169.48 142.484 -4.05231e-17
647 2 129.236 148.151 -4.05231e-17
648 2 190.512 211.844 -4.05231e-17
649 1 63.6682 145.551 -4.05231e-17
650 1 56.4536 153.257 -4.05231e-17
651 1 112.536 131.07 -4.05231e-17
652 2 8.31047 214.23 -4.05231e-17
653 2 195.435 45.2877 -4.05231e-17
654 1 208.559 164.599 -4.05231e-17
655 1 63.4684 47.3959 -4.05231e-17
656 1 199.113 10.3997 -4.05231e-17
657 1 124.888 120.447 -4.05231e-17
658 2 165.993 105.53 -4.05231e-17
659 2 101.921 137.516 -4.05231e-17
660 1 25.043 12.104 -4.05231e-17
661 2 15.534 36.9407 -4.05231e-17
662 2 135.847 117.019 -4.05231e-17
663 1 163.824 113.018 -4.05231e-17
664 1 80.0908 138.77 -4.05231e-17
665 1 135.561 143.813 -4.05231e-17
666 1 203.195 185.176 -4.05231e-17
667 1 0.373322 116.763 -4.05231e-17
668 1 134.179 156.903 -4.05231e-17
669 1 107.268 160.832 -4.05231e-17
670 2 212.053 160.728 -4.05231e-17
671 1 3.2435 16.1884 -4.05231e-17
672 1 193.371 141.659 -4.05231e-17
673 2 47.4638 84.5918 -4.05231e-17
674 2 182.838 205.424 -4.05231e-17
675 2 152.536 2.1607 -4.05231e-17
676 1 180.611 160.027 -4.05231e-17
677 2 53.2442 53.2245 -4.05231e-17
678 1 86.785 113.829 -4.05231e-17
679 1 86.8315 64.9834 -4.05231e-17
680 2 71.6939 13.4604 -4.05231e-17
681 1 5.19893 9.11786 -4.05231e-17
682 1 141.379 171.683 -4.05231e-17
683 2 96.3384 123.595 -4.05231e-17
684 1 23.349 180.366 -4.05231e-17
685 1 83.7062 206.325 -4.05231e-17
686 1 142.754 159.604 -4.05231e-17
687 1 107.368 53.2917 -4.05231e-17
688 1 151.861 96.9781 -4.05231e-17
689 2 10.8132 139.308 -4.05231e-17
690 1 48.4421 120.556 -4.05231e-17
691 2 65.1062 115.467 -4.05231e-17
692 2 180.45 178.768 -4.05231e-17
693 1 161.488 96.2032 -4.05231e-17
694 2 147.193 149.645 -4.05231e-17
695 2 188.443 36.8307 -4.05231e-17
696 2 31.4793 82.1155 -4.05231e-17
697 1 104.211 35.4882 -4.05231e-17
698 2 41.0196 18.1779 -4.05231e-17
699 1 57.233 202.591 -4.05231e-17
700 2 17.8713 126.236 -4.05231e-17
701 2 30.8484 63.5664 -4.05231e-17
702 1 160.584 9.87753 -4.05231e-17
703 1 196.033 60.7863 -4.05231e-17
704 1 159.862 122.072 -4.05231e-17
705 1 43.4734 120.164 -4.05231e-17
706 1 75.421 161.46 -4.05231e-17
707 1 182.287 66.7504 -4.05231e-17
708 2 195.226 101.703 -4.05231e-17
709 1 54.2035 160.426 -4.05231e-17
710 2 91.6098 16.4368 -4.05231e-17
711 2 1.54036 139.247 -4.05231e-17
712 1 84.4325 213.681 -4.05231e-17
713 1 5.05383 152.403 -4.05231e-17
714 2 145.115 147.359 -4.05231e-17
715 2 133.154 86.7908 -4.05231e-17
716 1 88.6728 59.7717 -4.05231e-17
717 1 14.7652 61.219 -4.05231e-17
718 2 78.7701 99.77 -4.05231e-17
719 1 68.7354 202.963 -4.05231e-17
720 2 51.6524 197.03 -4.05231e-17
721 2 44.1291 213.291 -4.05231e-17
722 2 65.3466 138.382 -4.05231e-17
723 2 15.7973 165.614 -4.05231e-17
724 2 202.122 107.288 -4.05231e-17
725 2 21.8213 50.0712 -4.05231e-17
726 2 177.571 124.125 -4.05231e-17
727 2 35.534 109.57 -4.05231e-17
728 1 176.417 77.1333 -4.05231e-17
729 2 167.309 131.513 -4.05231e-17
730 2 175.182 94.4572 -4.05231e-17
731 1 9.86799 23.1901 -4.05231e-17
732 2 97.9164 87.4961 -4.05231e-17
733 2 147.824 146.63 -4.05231e-17
734 2 59.0309 191.751 -4.05231e-17
735 2 148.963 71.8411 -4.05231e-17
736 1 182.339 176.783 -4.05231e-17
737 2 48.8522 39.5768 -4.05231e-17
738 2 71.3339 207.65 -4.05231e-17
739 2 186.062 131.223 -4.05231e-17
740 2 40.5865 115.563 -4.05231e-17
741 2 200.523 113.862 -4.05231e-17
742 1 71.6088 98.7176 -4.05231e-17
743 2 79.0619 75.8207 -4.05231e-17
744 1 146.985 50.1948 -4.05231e-17
745 2 15.9029 75.6481 -4.05231e-17
746 1 218.643 121.463 -4.05231e-17
747 1 98.5488 163.321 -4.05231e-17
748 2 69.662 197.765 -4.05231e-17
749 1 213.591 165.92 -4.05231e-17
750 1 139.292 147.31 -4.05231e-17
751 1 142.801 89.1209 -4.05231e-17
752 2 195.246 168.383 -4.05231e-17
753 1 37.0976 180.69 -4.05231e-17
754 2 66.2341 80.9137 -4.05231e-17
755 1 6.39709 80.6385 -4.05231e-17
756 2 178.449 58.5074 -4.05231e-17
757 1 110.78 14.5603 -4.05231e-17
758 2 99.8185 28.4166 -4.05231e-17
759 1 96.1645 133.682 -4.05231e-17
760 1 171.269 61.7004 -4.05231e-17
761 2 213.301 101.127 -4.05231e-17
762 1 178.57 106.086 -4.05231e-17
763 2 6.31755 157.388 -4.05231e-17
764 2 43.2066 188.132 -4.05231e-17
765 1 22.0588 159.973 -4.05231e-17
766 2 99.9089 47.8812 -4.05231e-17
767 2 206.391 148.64 -4.05231e-17
768 2 72.1281 62.2396 -4.05231e-17
769 2 188.229 98.4779 -4.05231e-17
770 1 134.062 18.2898 -4.05231e-17
771 1 64.4614 63.2462 -4.05231e-17
772 1 129.046 0.66816 -4.05231e-17
773 2 166.379 172.359 -4.05231e-17
774 1 88.1736 87.2464 -4.05231e-17
775 1 102.724 76.0997 -4.05231e-17
776 2 192.491 103.37 -4.05231e-17
777 2 42.1942 79.6281 -4.05231e-17
778 1 82.9696 12.8579 -4.05231e-17
779 1 48.0414 61.2428 -4.05231e-17
780 2 83.115 49.9533 -4.05231e-17
781 1 25.8648 171.794 -4.05231e-17
782 2 122.856 170.405 -4.05231e-17
783 1 74.5697 63.1225 -4.05231e-17
784 2 96.5006 110.45 -4.05231e-17
785 1 204.421 82.7492 -4.05231e-17
786 1 41.3459 7.01201 -4.05231e-17
787 2 38.2013 208.564 -4.05231e-17
788 2 164.732 180.371 -4.05231e-17
789 2 18.6474 146.96 -4.05231e-17
790 2 77.3537 7.94724 -4.05231e-17
791 2 186.77 54.0604 -4.05231e-17
792 1 213.106 132.304 -4.05231e-17
793 1 96.8431 171.646 -4.05231e-17
794 2 209.527 6.51939 -4.05231e-17
795 2 10.3701 191.625 -4.05231e-17
796 1 69.1149 215.365 -4.05231e-17
797 1 46.2313 32.4588 -4.05231e-17
798 1 213.348 55.8178 -4.05231e-17
799 2 105.839 155.839 -4.05231e-17
800 1 56.5095 36.9647 -4.05231e-17
801 2 68.3717 84.7478 -4.05231e-17
802 1 91.2033 216.313 -4.05231e-17
803 1 142.989 24.816 -4.05231e-17
804 1 209.947 124.877 -4.05231e-17
805 2 183.589 117.949 -4.05231e-17
806 2 178.76 158.051 -4.05231e-17
807 2 208.466 29.6107 -4.05231e-17
808 2 76.3617 144.574 -4.05231e-17
809 1 175.834 63.3546 -4.05231e-17
810 2 23.9624 173.341 -4.05231e-17
811 2 180.141 56.1 -4.05231e-17
812 1 121.938 184.897 -4.05231e-17
813 1 22.1112 95.6848 -4.05231e-17
814 1 2.92449 204.882 -4.05231e-17
815 1 145.721 32.1277 -4.05231e-17
816 1 206.956 51.0885 -4.05231e-17
817 2 62.7906 70.8415 -4.05231e-17
818 2 29.7012 122.996 -4.05231e-17
819 2 210.883 67.9907 -4.05231e-17
820 1 9.58286 58.8508 -4.05231e-17
821 1 64.9441 58.0625 -4.05231e-17
822 2 131.465 34.9696 -4.05231e-17
823 1 184 90.2626 -4.05231e-17
824 1 175.794 89.8713 -4.05231e-17
825 1 160.182 190.896 -4.05231e-17
826 2 178.474 81.9596 -4.05231e-17
827 2 102.499 27.0458 -4.05231e-17
828 1 50.7002 91.2537 -4.05231e-17
829 2 127.585 92.7218 -4.05231e-17
830 1 3.6791 156.649 -4.05231e-17
831 2 183.302 218.059 -4.05231e-17
832 2 26.8447 52.1358 -4.05231e-17
833 2 96.6009 41.9226 -4.05231e-17
834 1 70.8139 163.967 -4.05231e-17
835 1 185.065 141.432 -4.05231e-17
836 1 153.058 69.6296 -4.05231e-17
837 2 168.043 92.329 -4.05231e-17
838 2 92.1072 26.5309 -4.05231e-17
839 1 38.9505 32.1797 -4.05231e-17
840 2 13.9483 117.022 -4.05231e-17
841 2 201.751 10.4208 -4.05231e-17
842 1 172.872 159.572 -4.05231e-17
843 1 205.291 29.9145 -4.05231e-17
844 2 8.84678 25.4651 -4.05231e-17
845 1 46.9873 151.062 -4.05231e-17
846 2 128.163 211.242 -4.05231e-17
847 1 88.7959 143.27 -4.05231e-17
848 2 112.085 9.1711 -4.05231e-17
849 1 24.7797 32.8496 -4.05231e-17
850 2 59.9649 67.1691 -4.05231e-17
851 2 216.478 30.5123 -4.05231e-17
852 1 137.388 182.913 -4.05231e-17
853 1 185.799 105.376 -4.05231e-17
854 2 104.412 144.831 -4.05231e-17
855 2 165.542 120.976 -4.05231e-17
856 1 77.5881 160.288 -4.05231e-17