ITEM: TIMESTEP
0
ITEM: NUMBER OF ATOMS
7200
ITEM: BOX BOUNDS xy xz yz pp pp pp
0.0000000000000000e+00 2.1900000000000000e+02 0.0000000000000000e+00
0.0000000000000000e+00 2.1900000000000000e+02 0.0000000000000000e+00
-3.6499999999999999e-01 3.6499999999999999e-01 0.0000000000000000e+00
ITEM: ATOMS id type x y z
1 1 182.805 25.4703 -4.05231e-17
2 2 186.682 186.344 -4.05231e-17
3 2 147.46 190.562 -4.05231e-17
4 1 120.154 105.889 -4.05231e-17
5 1 90.6387 122.616 -4.05231e-17
6 1 111.449 206.359 -4.05231e-17
7 2 169.318 151.309 -4.05231e-17
8 2 71.04 215.808 -4.05231e-17
9 1 23.1008 0.725745 -4.05231e-17
10 2 49.6103 166.28 -4.05231e-17
11 2 214.037 89.1514 -4.05231e-17
12 1 41.939 188.212 -4.05231e-17
13 2 204.525 61.2169 -4.05231e-17
14 1 54.4973 171.377 -4.05231e-17
15 2 194.233 1.71324 -4.05231e-17
16 2 211.136 107.796 -4.05231e-17
17 1 69.1484 75.4552 -4.05231e-17
18 2 10.6496 169.291 -4.05231e-17
19 1 93.7893 128.972 -4.05231e-17
20 1 47.7855 36.6372 -4.05231e-17
21 1 155.754 205.619 -4.05231e-17
22 2 34.3165 4.21572 -4.05231e-17
23 2 31.7271 210.509 -4.05231e-17
24 2 4.37658 90.1858 -4.05231e-17
25 2 9.40514 190.54 -4.05231e-17
26 2 149.562 5.07004 -4.05231e-17
27 1 217.758 161.021 -4.05231e-17
28 2 51.9026 153.525 -4.05231e-17
29 2 102.469 3.99793 -4.05231e-17
30 2 127.837 41.0901 -4.05231e-17
31 2 155.54 81.7975 -4.05231e-17
32 1 43.9204 123.646 -4.05231e-17
33 2 143.505 84.1315 -4.05231e-17
34 2 25.6851 109.181 -4.05231e-17
35 2 102.647 37.0446 -4.05231e-17
36 1 166.423 156.758 -4.05231e-17
37 1 140.684 178.296 -4.05231e-17
38 2 212.556 156.449 -4.05231e-17
39 1 1.54389 40.681 -4.05231e-17
40 2 196.796 80.944 -4.05231e-17
41 1 187.866 72.3747 -4.05231e-17
42 1 96.0667 49.4718 -4.05231e-17
43 1 189.619 147.601 -4.05231e-17
44 1 164.207 205.059 -4.05231e-17
45 2 158.639 61.9021 -4.05231e-17
46 1 126.549 195.316 -4.05231e-17
47 2 109.468 31.8795 -4.05231e-17
48 2 149.35 118.923 -4.05231e-17
49 1 195.776 206.081 -4.05231e-17
50 2 38.482 44.6791 -4.05231e-17
51 1 191.339 8.23277 -4.05231e-17
52 1 77.1634 63.936 -4.05231e-17
53 2 59.3102 189.061 -4.05231e-17
54 1 40.7813 216.606 -4.05231e-17
55 2 52.0759 140.075 -4.05231e-17
56 1 29.1706 133.403 -4.05231e-17
57 2 57.3713 123.474 -4.05231e-17
58 1 189.987 48.5551 -4.05231e-17
59 1 156.191 84.2237 -4.05231e-17
60 2 204.892 72.0024 -4.05231e-17
61 1 161.365 175.59 -4.05231e-17
62 1 108.018 113.995 -4.05231e-17
63 2 91.649 215.98 -4.05231e-17
64 1 28.0639 38.9031 -4.05231e-17
65 2 145.368 131.867 -4.05231e-17
66 2 11.7383 156.674 -4.05231e-17
67 2 177.507 103.965 -4.05231e-17
68 1 135.617 79.3607 -4.05231e-17
69 2 105.544 174.372 -4.05231e-17
70 1 139.895 95.1255 -4.05231e-17
71 1 194.723 139.285 -4.05231e-17
72 2 42.6717 155.894 -4.05231e-17
73 2 198.182 192.042 -4.05231e-17
74 2 109.975 65.6749 -4.05231e-17
75 1 10.3929 132.06 -4.05231e-17
76 2 144.661 209.683 -4.05231e-17
77 2 161.56 17.7576 -4.05231e-17
78 1 76.4447 214.39 -4.05231e-17
79 2 59.3849 74.9642 -4.05231e-17
80 1 61.7535 29.4537 -4.05231e-17
81 1 182.037 210.399 -4.05231e-17
82 1 180.669 70.2747 -4.05231e-17
83 1 72.5482 88.4603 -4.05231e-17
84 2 139.489 180.434 -4.05231e-17
85 2 147.172 149.899 -4.05231e-17
86 2 49.3086 68.9837 -4.05231e-17
87 2 14.9128 100.549 -4.05231e-17
88 1 75.336 157.072 -4.05231e-17
89 2 166.936 134.076 -4.05231e-17
90 2 127.059 55.2091 -4.05231e-17
91 2 6.54017 189.064 -4.05231e-17
92 1 19.1716 218.163 -4.05231e-17
93 2 110.035 154.564 -4.05231e-17
94 2 126.598 137.473 -4.05231e-17
95 1 214.04 58.4153 -4.05231e-17
96 2 30.9626 51.2494 -4.05231e-17
97 2 10.0745 211.478 -4.05231e-17
98 2 39.8756 189.773 -4.05231e-17
99 1 127.235 33.5077 -4.05231e-17
100 2 158.142 65.4225 -4.05231e-17
101 1 160.369 108.939 -4.05231e-17
102 1 63.8381 161.23 -4.05231e-17
103 2 185.959 89.8369 -4.05231e-17
104 2 93.411 51.1914 -4.05231e-17
105 1 194.493 41.3944 -4.05231e-17
106 1 199.737 69.426 -4.05231e-17
107 1 193.14 93.1719 -4.05231e-17
108 1 70.6847 218.445 -4.05231e-17
109 2 11.0144 55.4894 -4.05231e-17
110 2 136.794 37.6206 -4.05231e-17
111 1 54.8575 92.7584 -4.05231e-17
112 2 22.9804 54.1537 -4.05231e-17
113 1 131.332 7.25838 -4.05231e-17
114 1 87.4852 85.5525 -4.05231e-17
115 2 42.6899 72.4369 -4.05231e-17
116 2 185.709 20.8103 -4.05231e-17
117 1 143.883 140.482 -4.05231e-17
118 1 83.6999 92.9317 -4.05231e-17
119 2 99.84 137.934 -4.05231e-17
120 2 193.998 80.3467 -4.05231e-17
121 1 209.107 127.229 -4.05231e-17
122 2 133.353 133.192 -4.05231e-17
123 2 3.96469 132.371 -4.05231e-17
124 1 155.634 208.061 -4.05231e-17
125 1 95.1463 186.47 -4.05231e-17
126 2 78.0914 56.858 -4.05231e-17
127 2 203.268 99.069 -4.05231e-17
128 1 119.428 101.002 -4.05231e-17
129 1 151.599 177.961 -4.05231e-17
130 2 137.479 53.7146 -4.05231e-17
131 1 107.269 42.4491 -4.05231e-17
132 1 141.07 18.9778 -4.05231e-17
133 1 195.705 127.094 -4.05231e-17
134 1 91.9035 183.322 -4.05231e-17
135 2 185.183 78.3995 -4.05231e-17
136 1 150.944 143.677 -4.05231e-17
137 1 62.2229 10.6636 -4.05231e-17
138 2 127.65 145.625 -4.05231e-17
139 1 112.459 11.4537 -4.05231e-17
140 1 163.034 209.795 -4.05231e-17
141 1 49.7471 71.4724 -4.05231e-17
142 1 206.012 198.859 -4.05231e-17
143 1 34.7806 14.7189 -4.05231e-17
144 1 32.4527 80.5711 -4.05231e-17
145 2 190.546 80.7785 -4.05231e-17
146 1 175.622 105.991 -4.05231e-17
147 2 12.6342 133.549 -4.05231e-17
148 1 17.2461 125.092 -4.05231e-17
149 1 173.906 188.498 -4.05231e-17
150 2 104.979 43.6742 -4.05231e-17
151 1 130.986 134.487 -4.05231e-17
152 1 190.268 170.891 -4.05231e-17
153 2 112.933 123.669 -4.05231e-17
154 1 180.357 49.5568 -4.05231e-17
155 2 210.696 49.7512 -4.05231e-17
156 2 102.974 187.889 -4.05231e-17
157 2 162.071 22.9208 -4.05231e-17
158 2 34.1165 9.79689 -4.05231e-17
159 2 12.5371 159.803 -4.05231e-17
160 2 93.4632 42.1398 -4.05231e-17
161 2 119.734 121.347 -4.05231e-17
162 1 14.0236 63.3708 -4.05231e-17
163 1 0.198033 45.5385 -4.05231e-17
164 2 106.705 126.542 -4.05231e-17
165 1 49.4031 78.24 -4.05231e-17
166 2 14.4105 188.64 -4.05231e-17
167 1 99.9721 169.761 -4.05231e-17
168 1 210.751 136.126 -4.05231e-17
169 2 102.373 206.991 -4.05231e-17
170 1 46.0267 210.727 -4.05231e-17
171 1 135.56 89.0893 -4.05231e-17
172 1 201.376 205.473 -4.05231e-17
173 1 31.9166 213.397 -4.05231e-17
174 2 39.1959 182.061 -4.05231e-17
175 2 60.355 202.145 -4.05231e-17
176 1 111.197 166.126 -4.05231e-17
177 2 110.883 213.87 -4.05231e-17
178 1 28.4429 11.4929 -4.05231e-17
179 2 115.066 184.131 -4.05231e-17
180 1 46.14 95.1072 -4.05231e-17
181 1 6.34138 115.696 -4.05231e-17
182 1 98.7779 107.077 -4.05231e-17
183 1 61.6944 164.655 -4.05231e-17
184 2 173.98 18.3965 -4.05231e-17
185 2 171.507 99.9114 -4.05231e-17
186 2 64.5169 208.644 -4.05231e-17
187 2 165.147 3.95171 -4.05231e-17
188 2 58.3564 2.00816 -4.05231e-17
189 1 179.158 62.3827 -4.05231e-17
190 1 182.551 68.584 -4.05231e-17
191 2 21.8081 118.494 -4.05231e-17
192 2 86.8558 70.2545 -4.05231e-17
193 1 105.723 164.589 -4.05231e-17
194 1 31.5846 8.79432 -4.05231e-17
195 2 63.2123 118.13 -4.05231e-17
196 1 2.24753 2.7555 -4.05231e-17
197 2 98.5386 53.5959 -4.05231e-17
198 2 210.171 39.6037 -4.05231e-17
199 2 98.6472 167.482 -4.05231e-17
200 2 124.787 33.1445 -4.05231e-17
201 2 103.157 122.921 -4.05231e-17
202 1 62.5801 32.1662 -4.05231e-17
203 1 19.012 61.3342 -4.05231e-17
204 2 45.986 88.3587 -4.05231e-17
205 2 202.402 183.584 -4.05231e-17
206 2 165.284 146.238 -4.05231e-17
207 1 65.0133 190.359 -4.05231e-17
208 2 131.485 48.1682 -4.05231e-17
209 2 16.5604 144.842 -4.05231e-17
210 1 202.378 104.687 -4.05231e-17
211 1 199.656 57.9711 -4.05231e-17
212 1 17.5463 115.725 -4.05231e-17
213 1 124.55 119.997 -4.05231e-17
214 2 13.8401 10.9517 -4.05231e-17
215 1 7.01892 139.26 -4.05231e-17
216 1 78.6807 59.5375 -4.05231e-17
217 1 169.266 61.8738 -4.05231e-17
218 2 208.744 122.045 -4.05231e-17
219 2 143.339 187.495 -4.05231e-17
220 1 108.998 192.923 -4.05231e-17
221 2 81.4352 70.1573 -4.05231e-17
222 1 138.181 141.489 -4.05231e-17
223 1 63.645 120.55 -4.05231e-17
224 2 147.701 71.5736 -4.05231e-17
225 2 140.243 154.443 -4.05231e-17
226 1 200.359 16.8135 -4.05231e-17
227 2 203.136 1.01432 -4.05231e-17
228 2 121.617 33.1168 -4.05231e-17
229 1 39.9512 5.1225 -4.05231e-17
230 1 215.817 62.2319 -4.05231e-17
231 2 157.283 146.607 -4.05231e-17
232 1 17.9507 1.13493 -4.05231e-17
233 2 76.0557 216.828 -4.05231e-17
234 1 6.3838 52.3506 -4.05231e-17
235 1 147.513 103.876 -4.05231e-17
236 2 170.188 47.3078 -4.05231e-17
237 2 100.707 185.75 -4.05231e-17
238 2 95.5059 138.948 -4.05231e-17
239 1 44.9657 6.91032 -4.05231e-17
240 1 129.849 85.1348 -4.05231e-17
241 2 6.74742 125.295 -4.05231e-17
242 1 178.649 36.9354 -4.05231e-17
243 2 211.087 140.065 -4.05231e-17
244 2 22.4681 207.057 -4.05231e-17
245 1 167.074 23.5183 -4.05231e-17
246 2 89.0408 78.1014 -4.05231e-17
247 2 152.32 137.862 -4.05231e-17
248 1 40.8488 40.0318 -4.05231e-17
249 1 129.392 104.637 -4.05231e-17
250 1 136.696 25.6442 -4.05231e-17
251 2 111.431 70.8849 -4.05231e-17
252 1 110.832 157.158 -4.05231e-17
253 2 90.2517 85.694 -4.05231e-17
254 2 184.248 214.372 -4.05231e-17
255 2 134.709 32.7154 -4.05231e-17
256 1 2.3177 198.22 -4.05231e-17
257 2 32.1581 189.443 -4.05231e-17
258 1 211.011 81.8745 -4.05231e-17
259 2 157.249 104.433 -4.05231e-17
260 1 58.8357 179.449 -4.05231e-17
261 2 148.631 193.347 -4.05231e-17
262 2 167.503 111.5 -4.05231e-17
263 2 93.7204 173.486 -4.05231e-17
264 1 177.877 41.4561 -4.05231e-17
265 1 133.206 183.392 -4.05231e-17
266 1 68.3797 192.475 -4.05231e-17
267 2 93.0145 213.274 -4.05231e-17
268 1 9.69537 61.3445 -4.05231e-17
269 2 15.9379 113.497 -4.05231e-17
270 2 195.285 134.489 -4.05231e-17
271 2 192.679 85.7047 -4.05231e-17
272 1 71.5849 9.11534 -4.05231e-17
273 1 70.7921 80.4527 -4.05231e-17
274 1 20.624 209.289 -4.05231e-17
275 1 144.093 107.469 -4.05231e-17
276 1 203.598 78.9986 -4.05231e-17
277 1 106.614 24.2864 -4.05231e-17
278 2 66.435 151.198 -4.05231e-17
279 2 158.825 84.7733 -4.05231e-17
280 1 89.1238 206.639 -4.05231e-17
281 2 163.69 183.136 -4.05231e-17
282 2 76.1443 121.584 -4.05231e-17
283 2 1.74257 150.141 -4.05231e-17
284 1 122.912 109.366 -4.05231e-17
285 1 71.2632 162.455 -4.05231e-17
286 2 29.8043 182.553 -4.05231e-17
287 2 95.6733 85.1562 -4.05231e-17
288 1 101.287 114.555 -4.05231e-17
289 2 190.721 46.0151 -4.05231e-17
290 1 105.688 18.989 -4.05231e-17
291 2 122.069 176.422 -4.05231e-17
292 1 87.0008 97.5314 -4.05231e-17
293 1 150.415 130.58 -4.05231e-17
294 1 29.4932 179.952 -4.05231e-17
295 2 45.0766 144.103 -4.05231e-17
296 1 178.71 189.232 -4.05231e-17
297 1 6.63637 20.9284 -4.05231e-17
298 2 32.2991 137.303 -4.05231e-17
299 1 188.916 65.6044 -4.05231e-17
300 2 198.172 201.465 -4.05231e-17
301 2 150.865 21.5968 -4.05231e-17
302 2 161.873 88.0304 -4.05231e-17
303 1 4.02631 151.297 -4.05231e-17
304 1 122.124 101.701 -4.05231e-17
305 1 91.3407 174.886 -4.05231e-17
306 2 84.8029 13.3157 -4.05231e-17
307 2 143.903 137.863 -4.05231e-17
308 2 143.813 18.9891 -4.05231e-17
309 1 83.0372 41.9847 -4.05231e-17
310 1 180.868 190.934 -4.05231e-17
311 1 148.185 106.347 -4.05231e-17
312 2 128.759 12.9475 -4.05231e-17
313 2 157.704 30.0972 -4.05231e-17
314 1 184.639 95.176 -4.05231e-17
315 2 59.9656 104.78 -4.05231e-17
316 1 112.453 42.7911 -4.05231e-17
317 1 134.082 176.068 -4.05231e-17
318 1 206.484 137.321 -4.05231e-17
319 2 82.0288 196.753 -4.05231e-17
320 1 213.435 42.4126 -4.05231e-17
321 1 53.488 87.7431 -4.05231e-17
322 1 49.6099 146.862 -4.05231e-17
323 2 26.3506 155.943 -4.05231e-17
324 2 31.1841 87.8613 -4.05231e-17
325 2 1.27968 17.0092 -4.05231e-17
326 1 186.14 4.73473 -4.05231e-17
327 1 5.42755 44.5334 -4.05231e-17
328 2 20.8583 215.398 -4.05231e-17
329 2 41.5441 91.0235 -4.05231e-17
330 2 158.287 17.6595 -4.05231e-17
331 2 196.41 62.3494 -4.05231e-17
332 2 118.319 110.299 -4.05231e-17
333 2 15.2279 149.908 -4.05231e-17
334 2 1.73543 21.6265 -4.05231e-17
335 1 167.231 5.45706 -4.05231e-17
336 2 24.8315 138.817 -4.05231e-17
337 2 46.1869 217.973 -4.05231e-17
338 1 178.953 127.856 -4.05231e-17
339 2 13.1793 152.256 -4.05231e-17
340 2 176.472 217.984 -4.05231e-17
341 2 86.3506 83.3516 -4.05231e-17
342 2 163.882 174.787 -4.05231e-17
343 2 175.782 20.9726 -4.05231e-17
344 1 108.361 95.0033 -4.05231e-17
345 2 48.2727 207.613 -4.05231e-17
346 2 106.852 66.4937 -4.05231e-17
347 1 145.284 95.7542 -4.05231e-17
348 1 188.836 9.04423 -4.05231e-17
349 2 169.742 73.6208 -4.05231e-17
350 2 72.7223 177.28 -4.05231e-17
351 1 173.826 113.541 -4.05231e-17
352 1 213.165 161.946 -4.05231e-17
353 2 141.136 122.089 -4.05231e-17
354 2 199.693 194.42 -4.05231e-17
355 1 217.003 155.962 -4.05231e-17
356 2 108.052 3.01324 -4.05231e-17
357 1 133.807 187.873 -4.05231e-17
358 1 99.2223 26.7283 -4.05231e-17
359 1 35.9925 142.75 -4.05231e-17
360 1 50.6032 7.02645 -4.05231e-17
361 2 196.79 34.9817 -4.05231e-17
362 2 175.105 88.833 -4.05231e-17
363 1 86.757 194.191 -4.05231e-17
364 2 7.6598 42.856 -4.05231e-17
365 1 5.77817 164.559 -4.05231e-17
366 1 79.9963 171.007 -4.05231e-17
367 1 173.197 83.4542 -4.05231e-17
368 1 23.6026 172.552 -4.05231e-17
369 2 83.0157 137.134 -4.05231e-17
370 1 200.252 125.558 -4.05231e-17
371 2 62.252 115.315 -4.05231e-17
372 1 82.711 11.7293 -4.05231e-17
373 2 107.764 182.465 -4.05231e-17
374 2 175.133 111.302 -4.05231e-17
375 1 138.077 23.4974 -4.05231e-17
376 1 113.293 157.795 -4.05231e-17
377 2 84.9464 44.0571 -4.05231e-17
378 2 204.417 106.344 -4.05231e-17
379 2 187.631 181.148 -4.05231e-17
380 1 197.349 24.2108 -4.05231e-17
381 1 187.397 39.6694 -4.05231e-17
382 1 125.612 48.7556 -4.05231e-17
383 1 99.2797 91.0958 -4.05231e-17
384 2 47.1659 100.559 -4.05231e-17
385 1 57.6388 132.236 -4.05231e-17
386 2 190.302 152.928 -4.05231e-17
387 1 2.45746 92.0524 -4.05231e-17
388 1 145.975 173.094 -4.05231e-17
389 2 208.113 114.155 -4.05231e-17
390 1 117.8 46.3533 -4.05231e-17
391 1 204.413 3.12389 -4.05231e-17
392 2 13.341 111.679 -4.05231e-17
393 2 189.762 186.873 -4.05231e-17
394 1 24.2116 199.897 -4.05231e-17
395 1 15.2807 1.43331 -4.05231e-17
396 2 76.3544 84.6858 -4.05231e-17
397 1 56.0491 35.5388 -4.05231e-17
398 2 149.805 125.49 -4.05231e-17
399 2 180.173 98.5562 -4.05231e-17
400 2 116.556 71.1093 -4.05231e-17
401 2 82.8817 182.667 -4.05231e-17
402 1 73.1724 13.5238 -4.05231e-17
403 1 51.2733 114.714 -4.05231e-17
404 2 115.962 215.191 -4.05231e-17
405 1 56.7658 193.596 -4.05231e-17
406 2 210.619 100.18 -4.05231e-17
407 1 127.597 74.6566 -4.05231e-17
408 1 132.335 27.576 -4.05231e-17
409 2 215.008 111.628 -4.05231e-17
410 2 72.1315 152.927 -4.05231e-17
411 1 134.968 93.7147 -4.05231e-17
412 1 154.887 4.99869 -4.05231e-17
413 1 48.3717 87.0494 -4.05231e-17
414 2 194.829 208.473 -4.05231e-17
415 1 99.5188 109.643 -4.05231e-17
416 1 190.607 43.0917 -4.05231e-17
417 2 109.352 128.063 -4.05231e-17
418 2 34.4934 182.426 -4.05231e-17
419 2 201.142 112.883 -4.05231e-17
420 2 95.0974 62.6336 -4.05231e-17
421 1 80.4681 57.4337 -4.05231e-17
422 1 17.1792 71.9736 -4.05231e-17
423 2 124.427 135.769 -4.05231e-17
424 2 32.6422 21.9268 -4.05231e-17
425 2 124.964 122.468 -4.05231e-17
426 1 174.399 125.367 -4.05231e-17
427 2 83.696 54.486 -4.05231e-17
428 1 29.2256 177.386 -4.05231e-17
429 2 149.24 138.541 -4.05231e-17
430 2 111.762 98.6374 -4.05231e-17
431 1 16.4107 10.6193 -4.05231e-17
432 2 159.797 28.1062 -4.05231e-17
433 1 182.426 180.514 -4.05231e-17
434 1 4.59834 197.459 -4.05231e-17
435 1 149.046 82.5765 -4.05231e-17
436 2 51.8265 181.447 -4.05231e-17
437 2 170.595 82.9246 -4.05231e-17
438 2 200.407 176.542 -4.05231e-17
439 2 92.8748 22.3771 -4.05231e-17
440 2 20.8677 101.728 -4.05231e-17
441 1 117.864 170.521 -4.05231e-17
442 1 15.578 103.268 -4.05231e-17
443 2 76.1706 81.8404 -4.05231e-17
444 1 182.908 96.7959 -4.05231e-17
445 1 184.493 138.498 -4.05231e-17
446 2 165.314 130.888 -4.05231e-17
447 2 52.3185 51.2451 -4.05231e-17
448 2 183.832 163.79 -4.05231e-17
449 1 50.4043 179.165 -4.05231e-17
450 1 9.39491 124.29 -4.05231e-17
451 1 68.6324 217.147 -4.05231e-17
452 2 201.579 62.1425 -4.05231e-17
453 1 208.676 141.575 -4.05231e-17
454 1 1.89996 70.7754 -4.05231e-17
455 2 65.2535 131.131 -4.05231e-17
456 1 80.0721 204.792 -4.05231e-17
457 2 152.342 132.681 -4.05231e-17
458 2 138.623 139.029 -4.05231e-17
459 2 144.325 63.8181 -4.05231e-17
460 1 187.987 155 -4.05231e-17
461 1 122.385 134.374 -4.05231e-17
462 1 89.3407 178.748 -4.05231e-17
463 2 114.015 207.21 -4.05231e-17
464 2 34.0956 57.7207 -4.05231e-17
465 1 126.688 8.50494 -4.05231e-17
466 2 178.202 119.503 -4.05231e-17
467 2 63.9914 143.462 -4.05231e-17
468 2 146.48 139.853 -4.05231e-17
469 2 56.8207 70.9756 -4.05231e-17
470 2 202.171 140.056 -4.05231e-17
471 2 213.346 216.358 -4.05231e-17
472 2 95.0989 17.3879 -4.05231e-17
473 2 198.943 3.24702 -4.05231e-17
474 2 85.5269 145.094 -4.05231e-17
475 1 182.707 195.014 -4.05231e-17
476 2 192.105 40.5426 -4.05231e-17
477 1 210.606 3.81543 -4.05231e-17
478 1 51.6232 204.072 -4.05231e-17
479 2 32.9193 208.054 -4.05231e-17
480 1 56.0309 56.6019 -4.05231e-17
481 1 15.5137 210.509 -4.05231e-17
482 2 180.666 196.203 -4.05231e-17
483 1 129.561 198.317 -4.05231e-17
484 1 74.6555 132.09 -4.05231e-17
485 2 9.49035 176.031 -4.05231e-17
486 1 83.7648 83.4519 -4.05231e-17
487 1 25.7868 197.798 -4.05231e-17
488 1 49.4773 80.5239 -4.05231e-17
489 1 78.5135 120.131 -4.05231e-17
490 1 164.695 72.0474 -4.05231e-17
491 1 162.683 73.857 -4.05231e-17
492 2 213.813 20.2735 -4.05231e-17
493 1 103.577 22.9346 -4.05231e-17
494 2 88.3328 74.8491 -4.05231e-17
495 1 148.352 89.9505 -4.05231e-17
496 1 57.2038 129.996 -4.05231e-17
497 1 134.255 106.833 -4.05231e-17
498 2 151.677 38.5601 -4.05231e-17
499 2 136.363 134.402 -4.05231e-17
500 2 58.6089 42.1281 -4.05231e-17
501 2 16.6423 139.789 -4.05231e-17
502 2 201.448 143.007 -4.05231e-17
503 2 54.7218 63.1431 -4.05231e-17
504 2 111.52 39.8498 -4.05231e-17
505 2 100.898 192.848 -4.05231e-17
506 1 209.829 11.2864 -4.05231e-17
507 2 56.5264 187.9 -4.05231e-17
508 1 123.682 73.7887 -4.05231e-17
509 1 214.095 46.6286 -4.05231e-17
510 1 183.219 88.3554 -4.05231e-17
511 2 84.4995 195.459 -4.05231e-17
512 1 47.2532 52.6815 -4.05231e-17
513 2 97.5133 184.826 -4.05231e-17
514 2 10.4873 91.035 -4.05231e-17
515 1 66.1998 98.074 -4.05231e-17
516 2 100.173 88.3403 -4.05231e-17
517 1 23.3865 143.545 -4.05231e-17
518 2 14.216 15.2627 -4.05231e-17
519 1 122.644 85.5026 -4.05231e-17
520 2 24.7613 114.079 -4.05231e-17
521 2 144.049 36.0506 -4.05231e-17
522 1 193.859 11.8236 -4.05231e-17
523 1 125.61 95.6197 -4.05231e-17
524 2 169.968 11.7656 -4.05231e-17
525 2 193.271 63.9212 -4.05231e-17
526 2 93.8304 8.97025 -4.05231e-17
527 1 165.387 13.2939 -4.05231e-17
528 1 3.66492 207.023 -4.05231e-17
529 2 112.186 185.411 -4.05231e-17
530 2 29.9155 84.8948 -4.05231e-17
531 2 172.473 169.563 -4.05231e-17
532 1 114.251 21.6818 -4.05231e-17
533 2 18.5171 153.153 -4.05231e-17
534 1 25.436 164.128 -4.05231e-17
535 1 174.007 206.299 -4.05231e-17
536 2 18.31 170.678 -4.05231e-17
537 1 144.904 38.4451 -4.05231e-17
538 1 57.133 154.058 -4.05231e-17
539 2 78.4557 161.289 -4.05231e-17
540 1 34.7439 184.946 -4.05231e-17
541 1 118.418 136.614 -4.05231e-17
542 1 54.4686 113.941 -4.05231e-17
543 2 124.495 172.239 -4.05231e-17
544 1 218.862 214.792 -4.05231e-17
545 1 172.899 67.7826 -4.05231e-17
546 2 191.612 16.4006 -4.05231e-17
547 1 17.26 90.8902 -4.05231e-17
548 1 33.3048 7.05119 -4.05231e-17
549 2 25.7405 161.753 -4.05231e-17
550 2 185.547 199.758 -4.05231e-17
551 2 38.1923 28.1959 -4.05231e-17
552 1 16.8877 67.7209 -4.05231e-17
553 2 217.326 178.902 -4.05231e-17
554 2 150.445 44.4369 -4.05231e-17
555 2 170.809 148.508 -4.05231e-17
556 1 164.413 6.48115 -4.05231e-17
557 1 215.629 64.5634 -4.05231e-17
558 1 56.6094 143.117 -4.05231e-17
559 2 108.672 97.4514 -4.05231e-17
560 2 58.6324 89.0812 -4.05231e-17
561 2 99.6827 172.426 -4.05231e-17
562 2 78.1253 79.3752 -4.05231e-17
563 1 71.3658 165.067 -4.05231e-17
564 2 87.9095 51.5306 -4.05231e-17
565 2 28.7787 57.5622 -4.05231e-17
566 2 49.4079 51.6015 -4.05231e-17
567 1 104.2 197.744 -4.05231e-17
568 1 40.0186 72.0927 -4.05231e-17
569 2 143.64 182.984 -4.05231e-17
570 2 14.6319 20.4214 -4.05231e-17
571 2 1.96289 64.7746 -4.05231e-17
572 1 110.574 105.278 -4.05231e-17
573 2 15.8129 65.3683 -4.05231e-17
574 2 176.593 187.432 -4.05231e-17
575 1 197.439 212.649 -4.05231e-17
576 1 32.8409 85.803 -4.05231e-17
577 1 112.278 80.4283 -4.05231e-17
578 1 192.882 153.911 -4.05231e-17
579 2 206.415 64.5274 -4.05231e-17
580 1 94.4611 87.2676 -4.05231e-17
581 1 92.1858 144.875 -4.05231e-17
582 2 123.574 97.3431 -4.05231e-17
583 2 105.525 85.6205 -4.05231e-17
584 2 107.31 150.677 -4.05231e-17
585 1 188.013 97.2888 -4.05231e-17
586 1 149.527 78.9025 -4.05231e-17
587 1 160.084 104.381 -4.05231e-17
588 2 55.4875 106.783 -4.05231e-17
589 1 201.898 68.0109 -4.05231e-17
590 2 195.361 48.4882 -4.05231e-17
591 2 176.727 17.8492 -4.05231e-17
592 1 207.891 131.54 -4.05231e-17
593 1 128.6 87.1055 -4.05231e-17
594 1 3.86819 71.5608 -4.05231e-17
595 1 20.4707 78.3754 -4.05231e-17
596 2 117.635 74.2444 -4.05231e-17
597 2 76.8943 108.92 -4.05231e-17
598 2 134.653 83.8766 -4.05231e-17
599 2 90.686 166.412 -4.05231e-17
600 2 57.0199 112.791 -4.05231e-17
601 1 143.313 104.98 -4.05231e-17
602 1 147.356 59.4823 -4.05231e-17
603 2 217.505 158.604 -4.05231e-17
604 1 44.7869 171.652 -4.05231e-17
605 2 137.95 97.3366 -4.05231e-17
606 2 147.889 96.8132 -4.05231e-17
607 2 35.2848 172.667 -4.05231e-17
608 2 120.268 47.2043 -4.05231e-17
609 1 78.9504 84.9008 -4.05231e-17
610 2 99.1998 190.467 -4.05231e-17
611 1 1.0677 164.711 -4.05231e-17
612 1 200.91 109.987 -4.05231e-17
613 2 214.697 154.234 -4.05231e-17
614 1 204.105 30.4212 -4.05231e-17
615 1 149.445 101.879 -4.05231e-17
616 2 157.323 177.96 -4.05231e-17
617 1 156.608 212.048 -4.05231e-17
618 1 117.426 1.24359 -4.05231e-17
619 1 142.77 120.001 -4.05231e-17
620 2 43.7049 75.2299 -4.05231e-17
621 2 194.128 77.3445 -4.05231e-17
622 2 128.669 140.67 -4.05231e-17
623 2 113.043 145.634 -4.05231e-17
624 1 97.1922 195.724 -4.05231e-17
625 2 209.67 85.9699 -4.05231e-17
626 1 203.315 189.735 -4.05231e-17
627 2 202.675 195.007 -4.05231e-17
628 1 116.198 140.648 -4.05231e-17
629 1 19.8726 19.1405 -4.05231e-17
630 2 138.154 9.519 -4.05231e-17
631 2 142.019 112.249 -4.05231e-17
632 2 214.288 24.8257 -4.05231e-17
633 2 60.9353 123.081 -4.05231e-17
634 2 201.624 80.4723 -4.05231e-17
635 2 91.0578 60.8006 -4.05231e-17
636 1 89.2917 129.671 -4.05231e-17
637 1 218.623 151.573 -4.05231e-17
638 1 133.302 65.1853 -4.05231e-17
639 2 194.309 74.0424 -4.05231e-17
640 2 152.499 75.2646 -4.05231e-17
641 1 199.573 94.7138 -4.05231e-17
642 2 147.106 36.9854 -4.05231e-17
643 1 162.126 57.5149 -4.05231e-17
644 2 131.362 161.41 -4.05231e-17
645 2 5.26909 76.7703 -4.05231e-17
646 1 167.09 162.054 -4.05231e-17
647 2 131.213 129.2 -4.05231e-17
648 2 191.937 216.647 -4.05231e-17
649 1 52.5146 134.743 -4.05231e-17
650 1 54.5644 152.505 -4.05231e-17
651 1 108.806 116.985 -4.05231e-17
652 2 9.85599 216.136 -4.05231e-17
653 2 187.425 36.8011 -4.05231e-17
654 1 208.04 156.864 -4.05231e-17
655 1 65.1378 56.1463 -4.05231e-17
656 1 199.152 19.0889 -4.05231e-17
657 1 121.769 116.244 -4.05231e-17
658 2 163.214 107.981 -4.05231e-17
659 2 108.377 134.288 -4.05231e-17
660 1 27.3915 13.8067 -4.05231e-17
661 2 22.5797 29.8274 -4.05231e-17
662 2 132.871 113.692 -4.05231e-17
663 1 162.337 110.568 -4.05231e-17
664 1 85.7944 123.516 -4.05231e-17
665 1 130.854 144.968 -4.05231e-17
666 1 185.803 150.843 -4.05231e-17
667 1 7.2571 128.012 -4.05231e-17
668 1 128.966 143.14 -4.05231e-17
669 1 106.879 160.487 -4.05231e-17
670 2 203.018 154.64 -4.05231e-17
671 1 7.66861 18.8219 -4.05231e-17
672 1 192.282 169.053 -4.05231e-17
673 2 50.8248 87.4987 -4.05231e-17
674 2 174.76 209.23 -4.05231e-17
675 2 164.527 200.482 -4.05231e-17
676 1 183.432 155.086 -4.05231e-17
677 2 61.0737 57.0373 -4.05231e-17
678 1 100.597 105.02 -4.05231e-17
679 1 72.3422 30.2678 -4.05231e-17
680 2 54.1256 19.9921 -4.05231e-17
681 1 8.24984 11.4545 -4.05231e-17
682 1 142.166 175.709 -4.05231e-17
683 2 102.063 117.065 -4.05231e-17
684 1 23.0573 182.103 -4.05231e-17
685 1 64.4844 211.235 -4.05231e-17
686 1 140.768 165.713 -4.05231e-17
687 1 91.5667 52.9059 -4.05231e-17
688 1 149.453 94.7805 -4.05231e-17
689 2 216 128.237 -4.05231e-17
690 1 50.7478 117.453 -4.05231e-17
691 2 73.6272 119.092 -4.05231e-17
692 2 188.712 194.076 -4.05231e-17
693 1 159.627 94.9652 -4.05231e-17
694 2 153.54 152.658 -4.05231e-17
695 2 175.976 31.0104 -4.05231e-17
696 2 0.695016 99.4947 -4.05231e-17
697 1 111.825 34.1482 -4.05231e-17
698 2 41.5123 34.7879 -4.05231e-17
699 1 64.4842 216.725 -4.05231e-17
700 2 9.78093 126.877 -4.05231e-17
701 2 26.7806 68.0458 -4.05231e-17
702 1 135.64 4.12343 -4.05231e-17
703 1 204.274 66.5677 -4.05231e-17
704 1 174.009 100.61 -4.05231e-17
705 1 33.8577 126.093 -4.05231e-17
706 1 73.1386 158.184 -4.05231e-17
707 1 169.701 64.2961 -4.05231e-17
708 2 188.015 127.019 -4.05231e-17
709 1 52.3761 156.182 -4.05231e-17
710 2 120.212 30.1729 -4.05231e-17
711 2 206.414 140.134 -4.05231e-17
712 1 75.2587 20.7929 -4.05231e-17
713 1 6.33994 152.016 -4.05231e-17
714 2 129.905 147.501 -4.05231e-17
715 2 131.471 80.6368 -4.05231e-17
716 1 116.85 68.3733 -4.05231e-17
717 1 7.33334 94.7876 -4.05231e-17
718 2 98.4558 85.4947 -4.05231e-17
719 1 81.656 199.386 -4.05231e-17
720 2 64.676 199.956 -4.05231e-17
721 2 45.4941 192.431 -4.05231e-17
722 2 57.156 134.862 -4.05231e-17
723 2 27.9018 150.833 -4.05231e-17
724 2 212.608 86.4181 -4.05231e-17
725 2 28.1396 60.5877 -4.05231e-17
726 2 178.856 159.041 -4.05231e-17
727 2 28.332 117.897 -4.05231e-17
728 1 174.918 75.558 -4.05231e-17
729 2 186.606 133.917 -4.05231e-17
730 2 165.341 106.143 -4.05231e-17
731 1 13.4775 30.2101 -4.05231e-17
732 2 104.732 90.5905 -4.05231e-17
733 2 166.202 159.657 -4.05231e-17
734 2 56.3123 205.37 -4.05231e-17
735 2 148.51 62.1112 -4.05231e-17
736 1 182.744 177.819 -4.05231e-17
737 2 33.5203 25.416 -4.05231e-17
738 2 83.9833 201.351 -4.05231e-17
739 2 206.355 161.176 -4.05231e-17
740 2 36.3338 102.225 -4.05231e-17
741 2 183.586 105.729 -4.05231e-17
742 1 75.213 95.6805 -4.05231e-17
743 2 84.4379 80.6718 -4.05231e-17
744 1 170.642 42.0741 -4.05231e-17
745 2 7.92159 97.08 -4.05231e-17
746 1 204.416 124.755 -4.05231e-17
747 1 95.9711 163.273 -4.05231e-17
748 2 66.7913 202.052 -4.05231e-17
749 1 213.631 164.631 -4.05231e-17
750 1 157.041 124.363 -4.05231e-17
751 1 141.498 85.7633 -4.05231e-17
752 2 183.633 166.847 -4.05231e-17
753 1 41.2978 180.458 -4.05231e-17
754 2 65.5859 79.1361 -4.05231e-17
755 1 24.2528 97.3112 -4.05231e-17
756 2 192.106 68.5953 -4.05231e-17
757 1 132.772 0.874794 -4.05231e-17
758 2 122.523 12.4898 -4.05231e-17
759 1 110.907 133.463 -4.05231e-17
760 1 175.835 50.8473 -4.05231e-17
761 2 217.381 95.655 -4.05231e-17
762 1 190.287 118.227 -4.05231e-17
763 2 7.04824 157.731 -4.05231e-17
764 2 56.806 181.415 -4.05231e-17
765 1 25.0724 168.575 -4.05231e-17
766 2 105.645 63.6053 -4.05231e-17
767 2 208.919 138.386 -4.05231e-17
768 2 88.183 42.8689 -4.05231e-17
769 2 180.768 107.407 -4.05231e-17
770 1 133.438 18.5712 -4.05231e-17
771 1 78.5297 50.0664 -4.05231e-17
772 1 117.74 6.41242 -4.05231e-17
773 2 160.57 182.462 -4.05231e-17
774 1 92.7206 70.9728 -4.05231e-17
775 1 101.05 85.6539 -4.05231e-17
776 2 194.179 108.395 -4.05231e-17
777 2 39.4877 93.1938 -4.05231e-17
778 1 81.3211 214.653 -4.05231e-17
779 1 49.7117 61.6537 -4.05231e-17
780 2 107.057 33.3444 -4.05231e-17
781 1 26.2225 173.778 -4.05231e-17
782 2 128.103 161.52 -4.05231e-17
783 1 119.605 34.8329 -4.05231e-17
784 2 112.279 120.695 -4.05231e-17
785 1 187.339 87.7516 -4.05231e-17
786 1 39.8242 2.81592 -4.05231e-17
787 2 44.4527 189.31 -4.05231e-17
788 2 154.762 188.146 -4.05231e-17
789 2 22.3161 141.181 -4.05231e-17
790 2 89.4899 2.59303 -4.05231e-17
791 2 189.089 55.1942 -4.05231e-17
792 1 176.724 131.806 -4.05231e-17
793 1 89.0231 170.86 -4.05231e-17
794 2 212.551 11.0706 -4.05231e-17
795 2 210.972 195.58 -4.05231e-17
796 1 79.491 210.297 -4.05231e-17
797 1 39.8262 37.5701 -4.05231e-17
798 1 208.876 60.6701 -4.05231e-17
799 2 105.735 154.952 -4.05231e-17
800 1 39.9145 32.5677 -4.05231e-17
801 2 68.7745 82.5646 -4.05231e-17
802 1 71.4771 28.2022 -4.05231e-17
803 1 144.908 21.3615 -4.05231e-17
804 1 192.517 141.53 -4.05231e-17
805 2 200.343 100.102 -4.05231e-17
806 2 150.868 154.561 -4.05231e-17
807 2 209.431 36.7251 -4.05231e-17
808 2 66.9524 143.891 -4.05231e-17
809 1 179.794 64.9929 -4.05231e-17
810 2 24.2666 175.119 -4.05231e-17
811 2 198.448 29.7952 -4.05231e-17
812 1 122.3 173.871 -4.05231e-17
813 1 216.964 82.8207 -4.05231e-17
814 1 8.88865 205.738 -4.05231e-17
815 1 149.175 38.9792 -4.05231e-17
816 1 197.562 67.9418 -4.05231e-17
817 2 65.9554 70.8823 -4.05231e-17
818 2 28.8616 120.916 -4.05231e-17
819 2 209.413 71.5331 -4.05231e-17
820 1 19.8346 82.8561 -4.05231e-17
821 1 76.9001 35.9892 -4.05231e-17
822 2 128.569 44.6964 -4.05231e-17
823 1 187.521 92.0382 -4.05231e-17
824 1 167.19 96.5902 -4.05231e-17
825 1 161.965 192.569 -4.05231e-17
826 2 177.468 76.6075 -4.05231e-17
827 2 111.062 44.9519 -4.05231e-17
828 1 48.7799 89.4359 -4.05231e-17
829 2 126.33 88.6499 -4.05231e-17
830 1 4.75091 156.466 -4.05231e-17
831 2 181.009 7.32854 -4.05231e-17
832 2 36.243 70.1613 -4.05231e-17
833 2 99.2803 16.4934 -4.05231e-17
834 1 68.6785 161.23 -4.05231e-17
835 1 192.397 124.902 -4.05231e-17
836 1 149.28 69.1625 -4.05231e-17
837 2 169.283 95.1465 -4.05231e-17
838 2 103.089 47.131 -4.05231e-17
839 1 32.0126 37.0386 -4.05231e-17
840 2 11.0466 115.817 -4.05231e-17
841 2 205.591 16.9609 -4.05231e-17
842 1 191.337 136.681 -4.05231e-17
843 1 211.813 37.6803 -4.05231e-17
844 2 15.7348 37.1191 -4.05231e-17
845 1 44.8886 149.107 -4.05231e-17
846 2 154.245 215.807 -4.05231e-17
847 1 89.1749 141.584 -4.05231e-17
848 2 112.072 16.1277 -4.05231e-17
849 1 18.463 36.8776 -4.05231e-17
850 2 58.7091 68.6962 -4.05231e-17
851 2 5.36736 31.1487 -4.05231e-17
852 1 138.45 194.87 -4.05231e-17
853 1 176.387 93.7069 -4.05231e-17
854 2 104.714 143.942 -4.05231e-17
855 2 158.637 125.914 -4.05231e-17
856 1 74.7161 153.669 -4.05231e-17