ITEM: TIMESTEP
0
ITEM: NUMBER OF ATOMS
7200
ITEM: BOX BOUNDS xy xz yz pp pp pp
0.0000000000000000e+00 2.1900000000000000e+02 0.0000000000000000e+00
0.0000000000000000e+00 2.1900000000000000e+02 0.0000000000000000e+00
-3.6499999999999999e-01 3.6499999999999999e-01 0.0000000000000000e+00
ITEM: ATOMS id type x y z
1 1 182.883 12.8464 -4.05231e-17
2 2 188.003 183.695 -4.05231e-17
3 2 144.706 189.372 -4.05231e-17
4 1 123.012 110.379 -4.05231e-17
5 1 101.189 122.737 -4.05231e-17
6 1 104.521 25.2664 -4.05231e-17
7 2 158.353 129.003 -4.05231e-17
8 2 70.4895 25.8202 -4.05231e-17
9 1 21.9805 215.178 -4.05231e-17
10 2 52.6204 166.791 -4.05231e-17
11 2 210.176 100.479 -4.05231e-17
12 1 33.5337 197.845 -4.05231e-17
13 2 194.339 53.6645 -4.05231e-17
14 1 57.5022 184.409 -4.05231e-17
15 2 193.45 0.11334 -4.05231e-17
16 2 218.483 85.4562 -4.05231e-17
17 1 67.4261 74.577 -4.05231e-17
18 2 10.3582 172.758 -4.05231e-17
19 1 92.7909 130.248 -4.05231e-17
20 1 72.7695 11.0675 -4.05231e-17
21 1 156.432 7.43561 -4.05231e-17
22 2 31.6045 212.266 -4.05231e-17
23 2 43.4038 208.232 -4.05231e-17
24 2 218.646 102.918 -4.05231e-17
25 2 30.1287 207.413 -4.05231e-17
26 2 149.628 27.6505 -4.05231e-17
27 1 217.571 162.569 -4.05231e-17
28 2 54.1727 154.805 -4.05231e-17
29 2 84.0792 4.01188 -4.05231e-17
30 2 131.811 37.7024 -4.05231e-17
31 2 156.865 83.8573 -4.05231e-17
32 1 48.302 108.605 -4.05231e-17
33 2 145.21 87.481 -4.05231e-17
34 2 16.1709 95.8845 -4.05231e-17
35 2 127.211 11.6781 -4.05231e-17
36 1 160.32 146.464 -4.05231e-17
37 1 133.384 185.141 -4.05231e-17
38 2 209.354 157.863 -4.05231e-17
39 1 8.1916 38.2081 -4.05231e-17
40 2 196.852 73.7538 -4.05231e-17
41 1 193.162 73.2497 -4.05231e-17
42 1 55.1487 58.9789 -4.05231e-17
43 1 210.566 132.231 -4.05231e-17
44 1 155.427 188.596 -4.05231e-17
45 2 159.653 60.8915 -4.05231e-17
46 1 124.404 192.809 -4.05231e-17
47 2 89.0657 80.6109 -4.05231e-17
48 2 150.382 129.56 -4.05231e-17
49 1 194.155 199.907 -4.05231e-17
50 2 29.3255 47.4876 -4.05231e-17
51 1 186.757 3.18826 -4.05231e-17
52 1 115.825 48.4802 -4.05231e-17
53 2 54.9303 200.938 -4.05231e-17
54 1 39.0573 16.6124 -4.05231e-17
55 2 53.6988 141.481 -4.05231e-17
56 1 31.3216 132.275 -4.05231e-17
57 2 58.2754 133.797 -4.05231e-17
58 1 185.575 33.0916 -4.05231e-17
59 1 157.73 86.3313 -4.05231e-17
60 2 206.058 59.2463 -4.05231e-17
61 1 157.064 164.389 -4.05231e-17
62 1 106.561 111.475 -4.05231e-17
63 2 108.789 39.132 -4.05231e-17
64 1 28.7576 18.1728 -4.05231e-17
65 2 152.23 149.069 -4.05231e-17
66 2 13.3838 154.521 -4.05231e-17
67 2 182.78 107.939 -4.05231e-17
68 1 136.801 83.2359 -4.05231e-17
69 2 109.427 168.866 -4.05231e-17
70 1 141.475 97.8359 -4.05231e-17
71 1 198.261 147.373 -4.05231e-17
72 2 44.7861 157.492 -4.05231e-17
73 2 191.431 179.553 -4.05231e-17
74 2 111.339 67.4494 -4.05231e-17
75 1 14.7208 136.721 -4.05231e-17
76 2 137.915 206.624 -4.05231e-17
77 2 168.727 15.3302 -4.05231e-17
78 1 93.1629 207.895 -4.05231e-17
79 2 60.3446 75.8278 -4.05231e-17
80 1 50.4156 22.6652 -4.05231e-17
81 1 181.882 211.273 -4.05231e-17
82 1 172.481 38.6935 -4.05231e-17
83 1 71.1316 91.3331 -4.05231e-17
84 2 140.845 179.683 -4.05231e-17
85 2 151.035 146.138 -4.05231e-17
86 2 50.9285 68.2092 -4.05231e-17
87 2 38.4035 75.342 -4.05231e-17
88 1 80.9038 157.668 -4.05231e-17
89 2 199.7 105.31 -4.05231e-17
90 2 126.026 36.4941 -4.05231e-17
91 2 11.0959 182.689 -4.05231e-17
92 1 27.6209 215.37 -4.05231e-17
93 2 110.312 154.9 -4.05231e-17
94 2 112.528 144.242 -4.05231e-17
95 1 211.357 51.6523 -4.05231e-17
96 2 32.2055 54.3757 -4.05231e-17
97 2 4.27265 211.524 -4.05231e-17
98 2 35.7483 185.136 -4.05231e-17
99 1 105.173 9.88573 -4.05231e-17
100 2 159.148 65.8436 -4.05231e-17
101 1 184.2 110.168 -4.05231e-17
102 1 66.2459 164.14 -4.05231e-17
103 2 204.939 100.407 -4.05231e-17
104 2 104.105 73.3963 -4.05231e-17
105 1 160.879 58.5824 -4.05231e-17
106 1 185.2 60.8163 -4.05231e-17
107 1 12.3306 106.815 -4.05231e-17
108 1 70.0853 210.031 -4.05231e-17
109 2 217.257 39.1724 -4.05231e-17
110 2 145.027 29.2922 -4.05231e-17
111 1 52.9034 92.6448 -4.05231e-17
112 2 8.55343 50.3253 -4.05231e-17
113 1 134.755 10.9967 -4.05231e-17
114 1 92.2829 86.8811 -4.05231e-17
115 2 32.2234 59.9789 -4.05231e-17
116 2 184.21 15.4599 -4.05231e-17
117 1 162.961 110.712 -4.05231e-17
118 1 82.7993 94.7019 -4.05231e-17
119 2 99.1359 139.56 -4.05231e-17
120 2 200.962 58.5379 -4.05231e-17
121 1 205.282 138.996 -4.05231e-17
122 2 142.785 130.228 -4.05231e-17
123 2 6.99462 129.671 -4.05231e-17
124 1 161.23 199.671 -4.05231e-17
125 1 88.0787 192.901 -4.05231e-17
126 2 97.8707 84.1871 -4.05231e-17
127 2 208.777 110.829 -4.05231e-17
128 1 121.69 105.2 -4.05231e-17
129 1 144.319 194.551 -4.05231e-17
130 2 120.184 61.7328 -4.05231e-17
131 1 133.638 60.1254 -4.05231e-17
132 1 139.481 21.6563 -4.05231e-17
133 1 181.228 105.785 -4.05231e-17
134 1 81.1453 191.659 -4.05231e-17
135 2 177.758 61.2595 -4.05231e-17
136 1 190.587 118.925 -4.05231e-17
137 1 60.9417 7.37882 -4.05231e-17
138 2 156.001 158.854 -4.05231e-17
139 1 132.428 12.0651 -4.05231e-17
140 1 144.918 208.479 -4.05231e-17
141 1 51.0153 70.6425 -4.05231e-17
142 1 213 190.821 -4.05231e-17
143 1 26.4875 26.2709 -4.05231e-17
144 1 46.4664 97.7212 -4.05231e-17
145 2 193.301 80.1509 -4.05231e-17
146 1 153.257 125.965 -4.05231e-17
147 2 16.5006 134.671 -4.05231e-17
148 1 24.5054 133.208 -4.05231e-17
149 1 147.523 190.371 -4.05231e-17
150 2 65.7541 52.1874 -4.05231e-17
151 1 131.864 138.3 -4.05231e-17
152 1 164.089 163.578 -4.05231e-17
153 2 123.821 130.644 -4.05231e-17
154 1 184.083 53.133 -4.05231e-17
155 2 203.119 40.3007 -4.05231e-17
156 2 109.637 197.12 -4.05231e-17
157 2 166.507 28.8368 -4.05231e-17
158 2 27.9486 7.66832 -4.05231e-17
159 2 12.1744 159.002 -4.05231e-17
160 2 120.916 54.9679 -4.05231e-17
161 2 129.409 139.229 -4.05231e-17
162 1 23.6643 66.7763 -4.05231e-17
163 1 189.45 33.3866 -4.05231e-17
164 2 107.963 134.872 -4.05231e-17
165 1 48.9953 72.1222 -4.05231e-17
166 2 5.9047 200.02 -4.05231e-17
167 1 106.958 167.662 -4.05231e-17
168 1 211.055 102.969 -4.05231e-17
169 2 98.2136 199.433 -4.05231e-17
170 1 66.2449 206.444 -4.05231e-17
171 1 137.51 92.258 -4.05231e-17
172 1 199.446 199.521 -4.05231e-17
173 1 39.0679 204.195 -4.05231e-17
174 2 38.296 173.43 -4.05231e-17
175 2 49.7874 199.583 -4.05231e-17
176 1 119.684 151.697 -4.05231e-17
177 2 104.941 15.5139 -4.05231e-17
178 1 25.3972 7.68633 -4.05231e-17
179 2 106.418 197.35 -4.05231e-17
180 1 46.921 76.5811 -4.05231e-17
181 1 15.9779 119.184 -4.05231e-17
182 1 113.65 87.0754 -4.05231e-17
183 1 63.7637 168.533 -4.05231e-17
184 2 157.749 25.5307 -4.05231e-17
185 2 190.392 78.8298 -4.05231e-17
186 2 74.3972 206.2 -4.05231e-17
187 2 159.121 201.782 -4.05231e-17
188 2 60.6134 28.8671 -4.05231e-17
189 1 191.484 57.8923 -4.05231e-17
190 1 196.352 55.6161 -4.05231e-17
191 2 35.5857 104.668 -4.05231e-17
192 2 90.8034 61.4269 -4.05231e-17
193 1 108.718 166.044 -4.05231e-17
194 1 26.7608 5.44323 -4.05231e-17
195 2 58.0478 119.708 -4.05231e-17
196 1 218.912 218.839 -4.05231e-17
197 2 118.915 50.9194 -4.05231e-17
198 2 206.063 27.0977 -4.05231e-17
199 2 99.3529 170.525 -4.05231e-17
200 2 98.7224 31.2247 -4.05231e-17
201 2 103.254 121.008 -4.05231e-17
202 1 43.9633 34.2594 -4.05231e-17
203 1 18.6461 42.7095 -4.05231e-17
204 2 44.8888 78.4638 -4.05231e-17
205 2 182.635 181.701 -4.05231e-17
206 2 170.513 127.231 -4.05231e-17
207 1 74.5421 189.167 -4.05231e-17
208 2 135.023 54.8427 -4.05231e-17
209 2 33.1801 142.373 -4.05231e-17
210 1 182.077 113.339 -4.05231e-17
211 1 208.113 35.1697 -4.05231e-17
212 1 208.496 85.0028 -4.05231e-17
213 1 128.056 123.876 -4.05231e-17
214 2 12.1392 11.4019 -4.05231e-17
215 1 5.46551 142.415 -4.05231e-17
216 1 54.8757 46.6383 -4.05231e-17
217 1 164.443 61.6014 -4.05231e-17
218 2 200.751 121.199 -4.05231e-17
219 2 136.541 189.5 -4.05231e-17
220 1 120.93 1.34701 -4.05231e-17
221 2 83.2406 6.91552 -4.05231e-17
222 1 158.343 157.405 -4.05231e-17
223 1 45.898 120.382 -4.05231e-17
224 2 146.461 71.0895 -4.05231e-17
225 2 168.769 163.821 -4.05231e-17
226 1 196.54 10.1852 -4.05231e-17
227 2 202.951 214.62 -4.05231e-17
228 2 118.079 63.8457 -4.05231e-17
229 1 47.6977 22.5256 -4.05231e-17
230 1 4.96757 56.4977 -4.05231e-17
231 2 137.32 160.807 -4.05231e-17
232 1 18.2585 212.764 -4.05231e-17
233 2 75.5787 195.76 -4.05231e-17
234 1 0.615399 59.5264 -4.05231e-17
235 1 150.197 106.27 -4.05231e-17
236 2 153.072 53.1135 -4.05231e-17
237 2 99.6144 203.824 -4.05231e-17
238 2 94.8067 140.416 -4.05231e-17
239 1 35.1471 216.927 -4.05231e-17
240 1 129.618 90.939 -4.05231e-17
241 2 3.59046 124.694 -4.05231e-17
242 1 193.941 28.6006 -4.05231e-17
243 2 215.057 130.266 -4.05231e-17
244 2 35.384 190.796 -4.05231e-17
245 1 173.945 21.1135 -4.05231e-17
246 2 90.24 85.284 -4.05231e-17
247 2 198.897 150.189 -4.05231e-17
248 1 38.412 26.9683 -4.05231e-17
249 1 131.842 108.283 -4.05231e-17
250 1 134.469 27.8274 -4.05231e-17
251 2 102.414 43.5932 -4.05231e-17
252 1 111.138 157.318 -4.05231e-17
253 2 95.6004 97.8002 -4.05231e-17
254 2 179.344 205.178 -4.05231e-17
255 2 122.518 50.4485 -4.05231e-17
256 1 2.97581 180.299 -4.05231e-17
257 2 32.2636 195.356 -4.05231e-17
258 1 211.027 81.2935 -4.05231e-17
259 2 160.929 141.542 -4.05231e-17
260 1 40.1895 192.551 -4.05231e-17
261 2 143.004 176.936 -4.05231e-17
262 2 186.757 110.438 -4.05231e-17
263 2 94.4554 172.931 -4.05231e-17
264 1 198.912 36.5393 -4.05231e-17
265 1 157.745 187.11 -4.05231e-17
266 1 98.8124 196.518 -4.05231e-17
267 2 115.153 16.3093 -4.05231e-17
268 1 218.498 48.4312 -4.05231e-17
269 2 10.0302 113.471 -4.05231e-17
270 2 185.706 148.576 -4.05231e-17
271 2 187.878 95.0367 -4.05231e-17
272 1 59.5688 26.2344 -4.05231e-17
273 1 70.5198 83.5047 -4.05231e-17
274 1 37.8723 196.24 -4.05231e-17
275 1 146.618 110.276 -4.05231e-17
276 1 199.421 74.9145 -4.05231e-17
277 1 100.7 38.0318 -4.05231e-17
278 2 61.0111 145.265 -4.05231e-17
279 2 160.271 86.5202 -4.05231e-17
280 1 116.999 210.818 -4.05231e-17
281 2 169.856 182.339 -4.05231e-17
282 2 74.8967 127.211 -4.05231e-17
283 2 0.153203 151.006 -4.05231e-17
284 1 126.087 113.608 -4.05231e-17
285 1 73.1267 165.145 -4.05231e-17
286 2 30.1303 180.43 -4.05231e-17
287 2 93.0732 110.093 -4.05231e-17
288 1 104.402 123.461 -4.05231e-17
289 2 193.993 56.9739 -4.05231e-17
290 1 101.43 30.1293 -4.05231e-17
291 2 96.1948 185.816 -4.05231e-17
292 1 76.8024 125.778 -4.05231e-17
293 1 159.112 167.997 -4.05231e-17
294 1 29.7663 177.858 -4.05231e-17
295 2 46.7741 145.577 -4.05231e-17
296 1 196.752 176.709 -4.05231e-17
297 1 2.32419 18.5818 -4.05231e-17
298 2 30.8748 140.622 -4.05231e-17
299 1 177.388 55.8574 -4.05231e-17
300 2 190.288 192.773 -4.05231e-17
301 2 172.041 19.3497 -4.05231e-17
302 2 163.858 89.38 -4.05231e-17
303 1 2.71647 151.634 -4.05231e-17
304 1 124.286 105.711 -4.05231e-17
305 1 91.9535 177.511 -4.05231e-17
306 2 84.2719 17.9392 -4.05231e-17
307 2 150.584 167.551 -4.05231e-17
308 2 142.112 22.1402 -4.05231e-17
309 1 70.5844 72.1024 -4.05231e-17
310 1 190.539 190.288 -4.05231e-17
311 1 150.981 108.786 -4.05231e-17
312 2 134.632 13.6585 -4.05231e-17
313 2 155.168 17.8986 -4.05231e-17
314 1 184.547 58.4267 -4.05231e-17
315 2 56.803 107.623 -4.05231e-17
316 1 95.8597 31.0242 -4.05231e-17
317 1 133.149 175.888 -4.05231e-17
318 1 216.82 135.712 -4.05231e-17
319 2 74.1636 200.913 -4.05231e-17
320 1 213.728 47.7857 -4.05231e-17
321 1 52.6678 87.244 -4.05231e-17
322 1 51.41 147.998 -4.05231e-17
323 2 20.0314 138.773 -4.05231e-17
324 2 7.89037 95.4471 -4.05231e-17
325 2 216.344 13.4943 -4.05231e-17
326 1 185.097 1.06629 -4.05231e-17
327 1 35.9835 46.1604 -4.05231e-17
328 2 32.4203 192.279 -4.05231e-17
329 2 28.4468 83.2627 -4.05231e-17
330 2 153.194 38.6608 -4.05231e-17
331 2 188.129 67.9222 -4.05231e-17
332 2 121.389 114.847 -4.05231e-17
333 2 28.0523 151.259 -4.05231e-17
334 2 215.903 18.116 -4.05231e-17
335 1 167.126 210.974 -4.05231e-17
336 2 27.9441 141.844 -4.05231e-17
337 2 40.6994 9.62546 -4.05231e-17
338 1 203.733 90.5682 -4.05231e-17
339 2 15.3143 152.292 -4.05231e-17
340 2 177.2 214.218 -4.05231e-17
341 2 101.535 60.6354 -4.05231e-17
342 2 173.304 166.413 -4.05231e-17
343 2 176.302 4.72431 -4.05231e-17
344 1 87.6188 106.015 -4.05231e-17
345 2 26.6723 213.041 -4.05231e-17
346 2 74.8584 73.2437 -4.05231e-17
347 1 147.553 98.6601 -4.05231e-17
348 1 181.31 3.75451 -4.05231e-17
349 2 173.352 70.2126 -4.05231e-17
350 2 77.7835 178.84 -4.05231e-17
351 1 174.824 141.535 -4.05231e-17
352 1 212.928 163.516 -4.05231e-17
353 2 140.501 131.874 -4.05231e-17
354 2 191.24 176.312 -4.05231e-17
355 1 216.08 157.322 -4.05231e-17
356 2 114.789 1.70205 -4.05231e-17
357 1 126.998 192.582 -4.05231e-17
358 1 78.3964 25.4525 -4.05231e-17
359 1 34.7949 144.187 -4.05231e-17
360 1 51.346 7.95881 -4.05231e-17
361 2 196.725 68.5013 -4.05231e-17
362 2 172.569 94.7352 -4.05231e-17
363 1 78.8581 215.447 -4.05231e-17
364 2 216.76 46.3837 -4.05231e-17
365 1 5.81526 164.591 -4.05231e-17
366 1 82.4584 173.176 -4.05231e-17
367 1 161.293 104.043 -4.05231e-17
368 1 20.8527 164.607 -4.05231e-17
369 2 81.59 143.794 -4.05231e-17
370 1 6.56285 132.251 -4.05231e-17
371 2 71.4205 111.586 -4.05231e-17
372 1 88.2396 6.7613 -4.05231e-17
373 2 118 208.57 -4.05231e-17
374 2 177.123 102.055 -4.05231e-17
375 1 136.338 26.0342 -4.05231e-17
376 1 121.916 147.294 -4.05231e-17
377 2 94.9723 76.2951 -4.05231e-17
378 2 215.435 107.056 -4.05231e-17
379 2 169.494 187.165 -4.05231e-17
380 1 199.479 33.807 -4.05231e-17
381 1 174.844 67.9018 -4.05231e-17
382 1 122.152 27.186 -4.05231e-17
383 1 110.38 83.3455 -4.05231e-17
384 2 54.2009 100.943 -4.05231e-17
385 1 66.1655 148.951 -4.05231e-17
386 2 179.825 175.509 -4.05231e-17
387 1 34.603 107.169 -4.05231e-17
388 1 143.967 163.988 -4.05231e-17
389 2 216.026 121.32 -4.05231e-17
390 1 104.834 66.2908 -4.05231e-17
391 1 203.296 217.295 -4.05231e-17
392 2 4.2824 100.301 -4.05231e-17
393 2 192.606 173.386 -4.05231e-17
394 1 36.2999 203.931 -4.05231e-17
395 1 19.3007 215.075 -4.05231e-17
396 2 75.4358 88.422 -4.05231e-17
397 1 67.7837 42.0764 -4.05231e-17
398 2 165.701 111.142 -4.05231e-17
399 2 196.904 106.658 -4.05231e-17
400 2 123.712 69.0417 -4.05231e-17
401 2 83.9161 190.819 -4.05231e-17
402 1 84.5169 42.8961 -4.05231e-17
403 1 69.5853 116.278 -4.05231e-17
404 2 112.806 13.9689 -4.05231e-17
405 1 49.1778 196.902 -4.05231e-17
406 2 217.059 95.7479 -4.05231e-17
407 1 123.903 78.7808 -4.05231e-17
408 1 130.083 29.4129 -4.05231e-17
409 2 214.349 116.024 -4.05231e-17
410 2 70.7123 158.768 -4.05231e-17
411 1 136.345 96.8549 -4.05231e-17
412 1 164.532 6.85391 -4.05231e-17
413 1 34.7194 85.7927 -4.05231e-17
414 2 193.091 202.503 -4.05231e-17
415 1 107.299 126.62 -4.05231e-17
416 1 175.938 51.9007 -4.05231e-17
417 2 107.268 129.146 -4.05231e-17
418 2 34.6898 179.734 -4.05231e-17
419 2 195.268 92.0916 -4.05231e-17
420 2 108.85 44.8958 -4.05231e-17
421 1 70.5439 31.0781 -4.05231e-17
422 1 34.5618 58.4237 -4.05231e-17
423 2 116.342 125.403 -4.05231e-17
424 2 39.4375 24.741 -4.05231e-17
425 2 117.095 150.531 -4.05231e-17
426 1 186.113 97.088 -4.05231e-17
427 2 74.575 60.4868 -4.05231e-17
428 1 29.2754 175.154 -4.05231e-17
429 2 131.259 150.165 -4.05231e-17
430 2 111.66 104.346 -4.05231e-17
431 1 13.2523 8.8359 -4.05231e-17
432 2 173.949 3.14034 -4.05231e-17
433 1 186.51 198.449 -4.05231e-17
434 1 20.1664 205.277 -4.05231e-17
435 1 149.97 85.4936 -4.05231e-17
436 2 85.0294 198.817 -4.05231e-17
437 2 181.279 82.6677 -4.05231e-17
438 2 194.052 177.519 -4.05231e-17
439 2 92.7629 10.4594 -4.05231e-17
440 2 201.327 92.0553 -4.05231e-17
441 1 131.043 167.567 -4.05231e-17
442 1 38.2332 104.667 -4.05231e-17
443 2 79.1265 81.9638 -4.05231e-17
444 1 204.617 104.974 -4.05231e-17
445 1 169.377 132.787 -4.05231e-17
446 2 183.278 150.584 -4.05231e-17
447 2 40.1542 40.0856 -4.05231e-17
448 2 205.845 175.869 -4.05231e-17
449 1 41.1955 177.146 -4.05231e-17
450 1 10.6625 126.309 -4.05231e-17
451 1 53.7987 208.96 -4.05231e-17
452 2 208.438 60.8642 -4.05231e-17
453 1 216.63 150.347 -4.05231e-17
454 1 3.34642 68.6546 -4.05231e-17
455 2 81.3466 131.486 -4.05231e-17
456 1 85.0054 1.63614 -4.05231e-17
457 2 140.455 144.983 -4.05231e-17
458 2 155.492 135.713 -4.05231e-17
459 2 133.44 51.6881 -4.05231e-17
460 1 197.196 169.721 -4.05231e-17
461 1 111.721 128.532 -4.05231e-17
462 1 104.128 196.062 -4.05231e-17
463 2 110.369 218.526 -4.05231e-17
464 2 13.4908 77.7576 -4.05231e-17
465 1 123.78 16.0684 -4.05231e-17
466 2 150.296 126.464 -4.05231e-17
467 2 65.7174 133.049 -4.05231e-17
468 2 123.901 125.539 -4.05231e-17
469 2 58.0069 71.2704 -4.05231e-17
470 2 208.959 154.718 -4.05231e-17
471 2 211.963 211.326 -4.05231e-17
472 2 111.267 36.9324 -4.05231e-17
473 2 198.029 214.515 -4.05231e-17
474 2 84.921 147.096 -4.05231e-17
475 1 164.051 182.894 -4.05231e-17
476 2 174.964 34.6031 -4.05231e-17
477 1 208.652 217.992 -4.05231e-17
478 1 46.3337 188.11 -4.05231e-17
479 2 0.619464 197.638 -4.05231e-17
480 1 82.4189 61.7784 -4.05231e-17
481 1 2.64977 209.304 -4.05231e-17
482 2 152.648 176.436 -4.05231e-17
483 1 134.477 209.399 -4.05231e-17
484 1 66.1063 135.787 -4.05231e-17
485 2 13.388 173.956 -4.05231e-17
486 1 132.76 72.7175 -4.05231e-17
487 1 12.9796 202.152 -4.05231e-17
488 1 50.0907 83.7586 -4.05231e-17
489 1 70.424 109.069 -4.05231e-17
490 1 164.748 73.5154 -4.05231e-17
491 1 163.303 75.7876 -4.05231e-17
492 2 209.131 15.4463 -4.05231e-17
493 1 93.9115 203.066 -4.05231e-17
494 2 77.7397 66.4241 -4.05231e-17
495 1 150.268 92.2529 -4.05231e-17
496 1 52.3171 123.688 -4.05231e-17
497 1 136.731 109.954 -4.05231e-17
498 2 145.328 39.0035 -4.05231e-17
499 2 177.61 119.258 -4.05231e-17
500 2 57.4996 32.6264 -4.05231e-17
501 2 14.7762 139.475 -4.05231e-17
502 2 190.845 126.44 -4.05231e-17
503 2 57.589 63.5627 -4.05231e-17
504 2 98.2092 50.7427 -4.05231e-17
505 2 112.042 213.777 -4.05231e-17
506 1 207.295 6.42444 -4.05231e-17
507 2 49.6468 181.932 -4.05231e-17
508 1 140.922 59.591 -4.05231e-17
509 1 209.315 47.4915 -4.05231e-17
510 1 195.15 104.364 -4.05231e-17
511 2 108.213 179.46 -4.05231e-17
512 1 11.3047 42.316 -4.05231e-17
513 2 87.6388 183.27 -4.05231e-17
514 2 15.0578 87.4536 -4.05231e-17
515 1 60.623 98.4342 -4.05231e-17
516 2 101.027 74.4304 -4.05231e-17
517 1 32.4295 147.546 -4.05231e-17
518 2 10.3221 13.736 -4.05231e-17
519 1 124.909 92.1335 -4.05231e-17
520 2 209.286 93.7907 -4.05231e-17
521 2 129.808 40.0909 -4.05231e-17
522 1 187.356 7.63966 -4.05231e-17
523 1 127.321 99.4613 -4.05231e-17
524 2 175.119 18.7307 -4.05231e-17
525 2 185.041 46.1126 -4.05231e-17
526 2 107.97 16.3424 -4.05231e-17
527 1 170.596 24.9803 -4.05231e-17
528 1 212.883 201.89 -4.05231e-17
529 2 104.425 176.161 -4.05231e-17
530 2 18.4464 88.0086 -4.05231e-17
531 2 184.766 171.826 -4.05231e-17
532 1 81.4319 5.03796 -4.05231e-17
533 2 23.3545 158.332 -4.05231e-17
534 1 22.9003 168.769 -4.05231e-17
535 1 170.345 206.554 -4.05231e-17
536 2 18.0679 169.737 -4.05231e-17
537 1 142.404 28.8997 -4.05231e-17
538 1 68.3271 157.786 -4.05231e-17
539 2 80.8854 163.33 -4.05231e-17
540 1 35.2661 182.237 -4.05231e-17
541 1 104.582 128.935 -4.05231e-17
542 1 58.3086 126.446 -4.05231e-17
543 2 120.235 168.866 -4.05231e-17
544 1 217.695 211.641 -4.05231e-17
545 1 174.936 72.2259 -4.05231e-17
546 2 186.826 10.2651 -4.05231e-17
547 1 12.9148 71.645 -4.05231e-17
548 1 29.4564 5.55836 -4.05231e-17
549 2 35.1321 152.672 -4.05231e-17
550 2 164.586 193.715 -4.05231e-17
551 2 38.6453 7.30945 -4.05231e-17
552 1 32.1284 51.8768 -4.05231e-17
553 2 206.973 196.544 -4.05231e-17
554 2 144.03 33.9186 -4.05231e-17
555 2 177.974 134.674 -4.05231e-17
556 1 178.034 211.636 -4.05231e-17
557 1 211.096 54.1832 -4.05231e-17
558 1 60.2593 142.555 -4.05231e-17
559 2 106.201 91.6475 -4.05231e-17
560 2 57.2584 89.3792 -4.05231e-17
561 2 110.638 181.784 -4.05231e-17
562 2 98.2121 64.8551 -4.05231e-17
563 1 73.0242 167.919 -4.05231e-17
564 2 103.426 79.0578 -4.05231e-17
565 2 33.7573 65.2311 -4.05231e-17
566 2 64.7206 60.3627 -4.05231e-17
567 1 95.178 11.8384 -4.05231e-17
568 1 22.1807 77.8486 -4.05231e-17
569 2 141.519 194.384 -4.05231e-17
570 2 11.8228 21.377 -4.05231e-17
571 2 5.28193 61.6775 -4.05231e-17
572 1 115.234 107.51 -4.05231e-17
573 2 38.0891 89.6173 -4.05231e-17
574 2 178.959 170.215 -4.05231e-17
575 1 196.259 206.661 -4.05231e-17
576 1 25.5154 68.587 -4.05231e-17
577 1 127.859 74.8721 -4.05231e-17
578 1 183.669 115.133 -4.05231e-17
579 2 182.003 44.5732 -4.05231e-17
580 1 109.051 103.872 -4.05231e-17
581 1 91.6059 146.602 -4.05231e-17
582 2 125.248 101.341 -4.05231e-17
583 2 103.274 84.0959 -4.05231e-17
584 2 107.45 151.461 -4.05231e-17
585 1 181.988 103.444 -4.05231e-17
586 1 143.555 79.9292 -4.05231e-17
587 1 158.219 111.454 -4.05231e-17
588 2 64.428 108.716 -4.05231e-17
589 1 210.66 59.5995 -4.05231e-17
590 2 181.904 58.1812 -4.05231e-17
591 2 179.118 16.4483 -4.05231e-17
592 1 204.255 128.885 -4.05231e-17
593 1 127.163 90.238 -4.05231e-17
594 1 5.78855 69.8406 -4.05231e-17
595 1 32.9452 62.6489 -4.05231e-17
596 2 107.241 71.3597 -4.05231e-17
597 2 63.4943 105.741 -4.05231e-17
598 2 135.785 87.4927 -4.05231e-17
599 2 96.6877 165.722 -4.05231e-17
600 2 49.1552 98.8352 -4.05231e-17
601 1 145.761 107.639 -4.05231e-17
602 1 173.554 52.1139 -4.05231e-17
603 2 216.931 159.878 -4.05231e-17
604 1 45.8269 179.066 -4.05231e-17
605 2 139.939 100.338 -4.05231e-17
606 2 150.186 98.9529 -4.05231e-17
607 2 47.5998 169.377 -4.05231e-17
608 2 128.345 31.2659 -4.05231e-17
609 1 77.7078 89.5929 -4.05231e-17
610 2 105.754 200.267 -4.05231e-17
611 1 1.68821 165.775 -4.05231e-17
612 1 207.032 117.849 -4.05231e-17
613 2 213.608 156.543 -4.05231e-17
614 1 202.564 30.5483 -4.05231e-17
615 1 152.213 104.258 -4.05231e-17
616 2 145.962 178.038 -4.05231e-17
617 1 168.687 0.852703 -4.05231e-17
618 1 137.115 216.748 -4.05231e-17
619 1 163.938 160.68 -4.05231e-17
620 2 42.8445 88.7732 -4.05231e-17
621 2 203.823 77.2725 -4.05231e-17
622 2 144.665 154.062 -4.05231e-17
623 2 108.823 147.221 -4.05231e-17
624 1 106.802 177.222 -4.05231e-17
625 2 208.983 79.6467 -4.05231e-17
626 1 210.682 189.871 -4.05231e-17
627 2 195.141 193.085 -4.05231e-17
628 1 116.794 156.342 -4.05231e-17
629 1 30.3268 41.4743 -4.05231e-17
630 2 133.251 214.04 -4.05231e-17
631 2 144.566 115.223 -4.05231e-17
632 2 209.03 19.9833 -4.05231e-17
633 2 60.7216 131.492 -4.05231e-17
634 2 191.432 67.7497 -4.05231e-17
635 2 80.0242 72.5476 -4.05231e-17
636 1 88.2494 131.194 -4.05231e-17
637 1 217.356 152.815 -4.05231e-17
638 1 116.879 69.2961 -4.05231e-17
639 2 200.798 65.4031 -4.05231e-17
640 2 149.856 78.1105 -4.05231e-17
641 1 200.108 96.8794 -4.05231e-17
642 2 161.874 35.3202 -4.05231e-17
643 1 165.398 57.6234 -4.05231e-17
644 2 139.271 155.008 -4.05231e-17
645 2 5.59074 75.2044 -4.05231e-17
646 1 169.635 142.122 -4.05231e-17
647 2 128.898 148.268 -4.05231e-17
648 2 190.739 211.695 -4.05231e-17
649 1 63.649 145.27 -4.05231e-17
650 1 56.3943 153.207 -4.05231e-17
651 1 112.329 131.057 -4.05231e-17
652 2 8.51229 214.028 -4.05231e-17
653 2 195.181 45.4296 -4.05231e-17
654 1 208.58 164.761 -4.05231e-17
655 1 63.3242 47.1623 -4.05231e-17
656 1 199.125 10.314 -4.05231e-17
657 1 125.14 120.529 -4.05231e-17
658 2 165.781 105.723 -4.05231e-17
659 2 101.289 137.383 -4.05231e-17
660 1 25.0768 11.8505 -4.05231e-17
661 2 15.9866 36.802 -4.05231e-17
662 2 135.932 116.987 -4.05231e-17
663 1 163.454 113.063 -4.05231e-17
664 1 79.9941 138.802 -4.05231e-17
665 1 135.538 144.131 -4.05231e-17
666 1 202.824 185.081 -4.05231e-17
667 1 0.455889 116.924 -4.05231e-17
668 1 134.103 157.059 -4.05231e-17
669 1 107.326 160.861 -4.05231e-17
670 2 212.231 161.036 -4.05231e-17
671 1 3.61928 16.1889 -4.05231e-17
672 1 193.654 141.613 -4.05231e-17
673 2 47.3821 84.9842 -4.05231e-17
674 2 182.513 205.569 -4.05231e-17
675 2 152.681 1.79796 -4.05231e-17
676 1 180.802 159.759 -4.05231e-17
677 2 53.2985 53.6204 -4.05231e-17
678 1 86.5891 114.008 -4.05231e-17
679 1 86.5596 65.1578 -4.05231e-17
680 2 72.14 13.4915 -4.05231e-17
681 1 5.08724 9.13601 -4.05231e-17
682 1 141.827 171.743 -4.05231e-17
683 2 96.2537 123.532 -4.05231e-17
684 1 23.432 180.526 -4.05231e-17
685 1 83.7778 206.349 -4.05231e-17
686 1 142.705 159.677 -4.05231e-17
687 1 107.398 53.7497 -4.05231e-17
688 1 151.918 97.222 -4.05231e-17
689 2 10.6159 139.537 -4.05231e-17
690 1 48.4929 120.642 -4.05231e-17
691 2 64.4977 114.864 -4.05231e-17
692 2 180.352 178.771 -4.05231e-17
693 1 161.594 96.0186 -4.05231e-17
694 2 146.814 149.364 -4.05231e-17
695 2 187.873 36.833 -4.05231e-17
696 2 31.3065 82.1999 -4.05231e-17
697 1 104.237 35.5927 -4.05231e-17
698 2 41.2748 18.0897 -4.05231e-17
699 1 56.9573 202.494 -4.05231e-17
700 2 17.8471 126.285 -4.05231e-17
701 2 30.88 63.7713 -4.05231e-17
702 1 160.75 9.84579 -4.05231e-17
703 1 195.822 60.595 -4.05231e-17
704 1 159.758 121.86 -4.05231e-17
705 1 43.3781 120.414 -4.05231e-17
706 1 75.5725 161.549 -4.05231e-17
707 1 182.223 66.7046 -4.05231e-17
708 2 195.794 101.599 -4.05231e-17
709 1 54.4112 160.016 -4.05231e-17
710 2 92.0936 16.3694 -4.05231e-17
711 2 1.48573 139.172 -4.05231e-17
712 1 84.0051 213.926 -4.05231e-17
713 1 5.19402 152.614 -4.05231e-17
714 2 144.992 147.094 -4.05231e-17
715 2 133.198 86.8811 -4.05231e-17
716 1 88.6694 59.9112 -4.05231e-17
717 1 15.0638 61.0617 -4.05231e-17
718 2 78.722 100.166 -4.05231e-17
719 1 68.5189 202.896 -4.05231e-17
720 2 51.7921 197.179 -4.05231e-17
721 2 44.0782 213.191 -4.05231e-17
722 2 65.2311 138.301 -4.05231e-17
723 2 15.5241 165.734 -4.05231e-17
724 2 202.425 107.329 -4.05231e-17
725 2 22.0332 50.0407 -4.05231e-17
726 2 178.015 124.032 -4.05231e-17
727 2 35.4066 109.592 -4.05231e-17
728 1 176.872 76.9007 -4.05231e-17
729 2 167.139 131.509 -4.05231e-17
730 2 175.375 94.6909 -4.05231e-17
731 1 9.95046 23.0453 -4.05231e-17
732 2 97.9467 87.4322 -4.05231e-17
733 2 147.855 146.417 -4.05231e-17
734 2 58.9348 191.774 -4.05231e-17
735 2 149.671 72.1047 -4.05231e-17
736 1 182.334 176.67 -4.05231e-17
737 2 48.6651 39.7616 -4.05231e-17
738 2 71.2855 207.609 -4.05231e-17
739 2 185.991 131.448 -4.05231e-17
740 2 40.5394 115.788 -4.05231e-17
741 2 200.632 113.881 -4.05231e-17
742 1 71.8324 98.8907 -4.05231e-17
743 2 78.7732 75.9572 -4.05231e-17
744 1 146.689 49.9179 -4.05231e-17
745 2 15.6737 75.677 -4.05231e-17
746 1 218.981 121.57 -4.05231e-17
747 1 98.1713 163.325 -4.05231e-17
748 2 69.9686 197.79 -4.05231e-17
749 1 213.626 166.187 -4.05231e-17
750 1 139.388 147.855 -4.05231e-17
751 1 143.247 89.0347 -4.05231e-17
752 2 194.964 168.237 -4.05231e-17
753 1 37.2057 180.536 -4.05231e-17
754 2 65.7546 81.1989 -4.05231e-17
755 1 6.35666 80.498 -4.05231e-17
756 2 178.496 58.3197 -4.05231e-17
757 1 110.498 15.365 -4.05231e-17
758 2 99.5946 28.2947 -4.05231e-17
759 1 95.6605 133.471 -4.05231e-17
760 1 171.208 61.7242 -4.05231e-17
761 2 213.414 101.038 -4.05231e-17
762 1 178.49 106.288 -4.05231e-17
763 2 6.50694 157.46 -4.05231e-17
764 2 43.343 188.12 -4.05231e-17
765 1 21.6583 160.185 -4.05231e-17
766 2 100.096 48.179 -4.05231e-17
767 2 206.419 148.867 -4.05231e-17
768 2 72.273 62.4299 -4.05231e-17
769 2 188.316 98.4076 -4.05231e-17
770 1 133.796 18.4831 -4.05231e-17
771 1 64.7608 63.194 -4.05231e-17
772 1 128.834 0.647522 -4.05231e-17
773 2 166.635 172.18 -4.05231e-17
774 1 88.233 87.2068 -4.05231e-17
775 1 102.629 76.3149 -4.05231e-17
776 2 192.53 103.232 -4.05231e-17
777 2 42.0765 79.8529 -4.05231e-17
778 1 83.3547 12.9416 -4.05231e-17
779 1 47.9608 61.4125 -4.05231e-17
780 2 83.3741 50.0829 -4.05231e-17
781 1 25.697 171.767 -4.05231e-17
782 2 122.991 170.4 -4.05231e-17
783 1 74.5841 63.2791 -4.05231e-17
784 2 96.6767 110.524 -4.05231e-17
785 1 204.532 82.546 -4.05231e-17
786 1 41.2939 6.97913 -4.05231e-17
787 2 38.0545 208.612 -4.05231e-17
788 2 164.808 180.511 -4.05231e-17
789 2 18.5003 146.909 -4.05231e-17
790 2 77.7037 7.89384 -4.05231e-17
791 2 186.585 53.9921 -4.05231e-17
792 1 213.545 132.547 -4.05231e-17
793 1 96.8629 171.667 -4.05231e-17
794 2 209.836 6.45568 -4.05231e-17
795 2 10.2376 191.77 -4.05231e-17
796 1 69.0971 215.092 -4.05231e-17
797 1 46.3725 32.6429 -4.05231e-17
798 1 213.307 55.5734 -4.05231e-17
799 2 105.837 155.615 -4.05231e-17
800 1 56.7959 37.4261 -4.05231e-17
801 2 68.3704 84.8814 -4.05231e-17
802 1 90.9705 216.241 -4.05231e-17
803 1 143.098 24.4843 -4.05231e-17
804 1 210.227 125.003 -4.05231e-17
805 2 183.759 117.774 -4.05231e-17
806 2 178.683 158.081 -4.05231e-17
807 2 208.045 29.4455 -4.05231e-17
808 2 76.2514 144.64 -4.05231e-17
809 1 175.889 63.3597 -4.05231e-17
810 2 23.8405 173.795 -4.05231e-17
811 2 180.16 55.8762 -4.05231e-17
812 1 121.875 184.937 -4.05231e-17
813 1 21.9025 95.6543 -4.05231e-17
814 1 2.74829 204.883 -4.05231e-17
815 1 145.875 31.7793 -4.05231e-17
816 1 206.782 51.1699 -4.05231e-17
817 2 63.0418 70.7967 -4.05231e-17
818 2 29.5686 122.753 -4.05231e-17
819 2 211.091 67.8765 -4.05231e-17
820 1 9.69869 58.8627 -4.05231e-17
821 1 65.2831 57.7956 -4.05231e-17
822 2 131.596 34.6704 -4.05231e-17
823 1 184.297 90.4627 -4.05231e-17
824 1 176.09 90.1402 -4.05231e-17
825 1 160.198 191.03 -4.05231e-17
826 2 178.691 81.6614 -4.05231e-17
827 2 102.54 27.3898 -4.05231e-17
828 1 50.4622 91.3421 -4.05231e-17
829 2 127.539 92.6866 -4.05231e-17
830 1 4.02906 156.87 -4.05231e-17
831 2 183.514 217.798 -4.05231e-17
832 2 27.098 52.436 -4.05231e-17
833 2 96.9353 42.0648 -4.05231e-17
834 1 70.8423 163.811 -4.05231e-17
835 1 185.08 141.325 -4.05231e-17
836 1 153.507 69.2825 -4.05231e-17
837 2 168.202 91.9745 -4.05231e-17
838 2 92.1893 26.5698 -4.05231e-17
839 1 39.2436 31.8646 -4.05231e-17
840 2 13.9684 117.167 -4.05231e-17
841 2 201.626 10.5467 -4.05231e-17
842 1 173.02 159.167 -4.05231e-17
843 1 205.114 29.6418 -4.05231e-17
844 2 8.76377 25.6055 -4.05231e-17
845 1 47.0314 150.774 -4.05231e-17
846 2 127.585 211.177 -4.05231e-17
847 1 88.4473 143.245 -4.05231e-17
848 2 112.597 8.78747 -4.05231e-17
849 1 25.1736 33.0305 -4.05231e-17
850 2 60.2318 67.0336 -4.05231e-17
851 2 216.397 30.6716 -4.05231e-17
852 1 137.357 182.98 -4.05231e-17
853 1 186.099 105.101 -4.05231e-17
854 2 103.938 144.851 -4.05231e-17
855 2 165.443 120.991 -4.05231e-17
856 1 77.6195 159.95 -4.05231e-17