ITEM: TIMESTEP
0
ITEM: NUMBER OF ATOMS
7200
ITEM: BOX BOUNDS xy xz yz pp pp pp
0.0000000000000000e+00 2.1900000000000000e+02 0.0000000000000000e+00
0.0000000000000000e+00 2.1900000000000000e+02 0.0000000000000000e+00
-3.6499999999999999e-01 3.6499999999999999e-01 0.0000000000000000e+00
ITEM: ATOMS id type x y z
1 1 183.049 12.6404 -4.05231e-17
2 2 188.152 183.513 -4.05231e-17
3 2 144.722 189.295 -4.05231e-17
4 1 123.092 110.25 -4.05231e-17
5 1 101.012 122.74 -4.05231e-17
6 1 104.424 25.4062 -4.05231e-17
7 2 158.766 128.822 -4.05231e-17
8 2 69.9874 25.7334 -4.05231e-17
9 1 21.9068 215.084 -4.05231e-17
10 2 52.3909 166.772 -4.05231e-17
11 2 209.997 100.216 -4.05231e-17
12 1 33.9957 197.881 -4.05231e-17
13 2 194.314 53.861 -4.05231e-17
14 1 57.2998 184.541 -4.05231e-17
15 2 193.232 0.177242 -4.05231e-17
16 2 218.39 85.9449 -4.05231e-17
17 1 67.48 74.4215 -4.05231e-17
18 2 10.5676 172.719 -4.05231e-17
19 1 92.9358 130.247 -4.05231e-17
20 1 72.4827 10.877 -4.05231e-17
21 1 156.64 7.4084 -4.05231e-17
22 2 31.6153 212.511 -4.05231e-17
23 2 43.0932 208.28 -4.05231e-17
24 2 218.561 102.986 -4.05231e-17
25 2 29.9273 207.882 -4.05231e-17
26 2 149.485 27.4365 -4.05231e-17
27 1 217.31 162.338 -4.05231e-17
28 2 54.6852 154.863 -4.05231e-17
29 2 83.953 3.8475 -4.05231e-17
30 2 131.932 37.1857 -4.05231e-17
31 2 156.4 84.0894 -4.05231e-17
32 1 48.1809 108.82 -4.05231e-17
33 2 145.049 87.4177 -4.05231e-17
34 2 16.1428 96.0807 -4.05231e-17
35 2 127.062 11.2669 -4.05231e-17
36 1 160.021 146.595 -4.05231e-17
37 1 133.061 185.1 -4.05231e-17
38 2 209.214 157.799 -4.05231e-17
39 1 7.79471 38.1409 -4.05231e-17
40 2 196.344 73.7722 -4.05231e-17
41 1 192.452 73.5687 -4.05231e-17
42 1 55.2841 58.9695 -4.05231e-17
43 1 210.663 132.498 -4.05231e-17
44 1 155.477 188.66 -4.05231e-17
45 2 159.264 60.8686 -4.05231e-17
46 1 124.07 192.707 -4.05231e-17
47 2 89.4993 80.5033 -4.05231e-17
48 2 150.339 129.657 -4.05231e-17
49 1 194.301 200.102 -4.05231e-17
50 2 29.0856 47.6876 -4.05231e-17
51 1 186.51 3.02477 -4.05231e-17
52 1 115.498 47.871 -4.05231e-17
53 2 54.8466 200.879 -4.05231e-17
54 1 38.8525 16.5563 -4.05231e-17
55 2 53.8076 141.515 -4.05231e-17
56 1 31.2255 132.576 -4.05231e-17
57 2 58.6845 133.941 -4.05231e-17
58 1 186.429 33.5722 -4.05231e-17
59 1 157.493 86.4687 -4.05231e-17
60 2 205.923 59.3727 -4.05231e-17
61 1 157.194 164.444 -4.05231e-17
62 1 106.726 111.727 -4.05231e-17
63 2 108.709 38.9651 -4.05231e-17
64 1 28.0078 18.2388 -4.05231e-17
65 2 152.45 149.083 -4.05231e-17
66 2 13.4911 154.337 -4.05231e-17
67 2 182.953 107.74 -4.05231e-17
68 1 136.928 83.2579 -4.05231e-17
69 2 109.715 168.802 -4.05231e-17
70 1 141.488 97.6807 -4.05231e-17
71 1 198.121 147.704 -4.05231e-17
72 2 44.862 157.415 -4.05231e-17
73 2 191.952 179.577 -4.05231e-17
74 2 111.867 66.7818 -4.05231e-17
75 1 14.728 136.69 -4.05231e-17
76 2 137.99 206.781 -4.05231e-17
77 2 168.84 15.0909 -4.05231e-17
78 1 92.9828 208.044 -4.05231e-17
79 2 60.5738 76.1655 -4.05231e-17
80 1 50.1404 22.8134 -4.05231e-17
81 1 181.617 211.476 -4.05231e-17
82 1 173.335 41.1391 -4.05231e-17
83 1 70.9263 91.0685 -4.05231e-17
84 2 140.731 179.659 -4.05231e-17
85 2 151.11 146.078 -4.05231e-17
86 2 51.3569 68.3094 -4.05231e-17
87 2 38.5546 75.5249 -4.05231e-17
88 1 80.3791 157.726 -4.05231e-17
89 2 199.865 105.814 -4.05231e-17
90 2 126.151 36.0665 -4.05231e-17
91 2 11.105 182.521 -4.05231e-17
92 1 27.4469 215.472 -4.05231e-17
93 2 110.308 154.751 -4.05231e-17
94 2 112.662 144.307 -4.05231e-17
95 1 211.332 51.5709 -4.05231e-17
96 2 31.8219 54.4334 -4.05231e-17
97 2 4.42768 211.632 -4.05231e-17
98 2 35.7199 185.285 -4.05231e-17
99 1 105.155 9.68486 -4.05231e-17
100 2 158.715 65.5081 -4.05231e-17
101 1 184.465 109.908 -4.05231e-17
102 1 66.2125 164.364 -4.05231e-17
103 2 204.766 100.218 -4.05231e-17
104 2 104.269 72.881 -4.05231e-17
105 1 160.85 58.5702 -4.05231e-17
106 1 185.252 60.5422 -4.05231e-17
107 1 12.2607 106.957 -4.05231e-17
108 1 69.7602 209.795 -4.05231e-17
109 2 217.469 38.8901 -4.05231e-17
110 2 145.16 29.1823 -4.05231e-17
111 1 52.9872 92.6113 -4.05231e-17
112 2 8.32934 50.5818 -4.05231e-17
113 1 134.614 10.7825 -4.05231e-17
114 1 92.4603 87.0414 -4.05231e-17
115 2 32.2486 59.8596 -4.05231e-17
116 2 184 15.141 -4.05231e-17
117 1 163.25 110.703 -4.05231e-17
118 1 82.6083 94.31 -4.05231e-17
119 2 99.2352 139.762 -4.05231e-17
120 2 201.153 58.6539 -4.05231e-17
121 1 205.386 139.083 -4.05231e-17
122 2 143.31 129.477 -4.05231e-17
123 2 7.00233 129.317 -4.05231e-17
124 1 161.322 199.566 -4.05231e-17
125 1 88.0846 192.504 -4.05231e-17
126 2 97.708 84.1815 -4.05231e-17
127 2 209.156 110.856 -4.05231e-17
128 1 121.583 105.321 -4.05231e-17
129 1 144.072 194.291 -4.05231e-17
130 2 120.546 61.3691 -4.05231e-17
131 1 134.075 59.9657 -4.05231e-17
132 1 139.441 21.5098 -4.05231e-17
133 1 181.292 105.877 -4.05231e-17
134 1 80.9605 191.34 -4.05231e-17
135 2 177.604 61.25 -4.05231e-17
136 1 190.583 119.077 -4.05231e-17
137 1 60.4495 7.56343 -4.05231e-17
138 2 156.132 159.011 -4.05231e-17
139 1 132.556 11.8748 -4.05231e-17
140 1 144.79 208.495 -4.05231e-17
141 1 51.4479 70.9503 -4.05231e-17
142 1 213.038 190.754 -4.05231e-17
143 1 26.2943 26.0586 -4.05231e-17
144 1 46.4124 98.0864 -4.05231e-17
145 2 193.148 80.4299 -4.05231e-17
146 1 153.339 126.083 -4.05231e-17
147 2 16.4913 134.735 -4.05231e-17
148 1 24.564 133.11 -4.05231e-17
149 1 147.272 190.319 -4.05231e-17
150 2 65.946 52.8391 -4.05231e-17
151 1 132.203 137.637 -4.05231e-17
152 1 164.08 163.618 -4.05231e-17
153 2 124.006 130.319 -4.05231e-17
154 1 183.931 52.8943 -4.05231e-17
155 2 203.04 40.1464 -4.05231e-17
156 2 109.535 196.818 -4.05231e-17
157 2 166.534 28.5962 -4.05231e-17
158 2 27.6557 7.99377 -4.05231e-17
159 2 12.3139 159.029 -4.05231e-17
160 2 120.875 54.7813 -4.05231e-17
161 2 129.676 138.278 -4.05231e-17
162 1 23.781 67.1763 -4.05231e-17
163 1 188.938 33.6723 -4.05231e-17
164 2 108.477 134.733 -4.05231e-17
165 1 48.9474 72.3951 -4.05231e-17
166 2 6.02294 199.992 -4.05231e-17
167 1 106.943 167.867 -4.05231e-17
168 1 211.169 102.836 -4.05231e-17
169 2 97.984 198.847 -4.05231e-17
170 1 65.7787 206.301 -4.05231e-17
171 1 137.392 92.4248 -4.05231e-17
172 1 199.482 199.679 -4.05231e-17
173 1 38.8757 204.345 -4.05231e-17
174 2 38.586 173.544 -4.05231e-17
175 2 49.972 199.923 -4.05231e-17
176 1 119.822 151.546 -4.05231e-17
177 2 104.917 15.4791 -4.05231e-17
178 1 25.1084 7.89877 -4.05231e-17
179 2 106.524 197.029 -4.05231e-17
180 1 47.2156 76.5487 -4.05231e-17
181 1 16.3305 119.278 -4.05231e-17
182 1 113.864 86.7933 -4.05231e-17
183 1 63.8261 168.922 -4.05231e-17
184 2 157.606 25.403 -4.05231e-17
185 2 190.104 78.8276 -4.05231e-17
186 2 74.129 206.223 -4.05231e-17
187 2 159.304 201.917 -4.05231e-17
188 2 60.4053 28.8072 -4.05231e-17
189 1 191.335 57.7715 -4.05231e-17
190 1 196.605 55.3426 -4.05231e-17
191 2 35.5785 104.558 -4.05231e-17
192 2 89.2888 60.3273 -4.05231e-17
193 1 108.632 165.938 -4.05231e-17
194 1 26.7862 5.45519 -4.05231e-17
195 2 58.4454 119.96 -4.05231e-17
196 1 0.199502 218.974 -4.05231e-17
197 2 117.921 48.1938 -4.05231e-17
198 2 205.995 27.4095 -4.05231e-17
199 2 99.3397 170.56 -4.05231e-17
200 2 98.7587 31.179 -4.05231e-17
201 2 103.329 121.258 -4.05231e-17
202 1 43.9283 34.1173 -4.05231e-17
203 1 18.6492 42.8739 -4.05231e-17
204 2 45.0316 78.5024 -4.05231e-17
205 2 183.066 182.216 -4.05231e-17
206 2 170.563 127.181 -4.05231e-17
207 1 74.4011 189.168 -4.05231e-17
208 2 135.174 54.1382 -4.05231e-17
209 2 33.1437 142.44 -4.05231e-17
210 1 182.666 113.384 -4.05231e-17
211 1 208.231 35.6127 -4.05231e-17
212 1 208.133 85.1051 -4.05231e-17
213 1 128.117 123.667 -4.05231e-17
214 2 11.9053 11.5273 -4.05231e-17
215 1 5.5466 142.458 -4.05231e-17
216 1 54.9947 46.8563 -4.05231e-17
217 1 164.535 61.7471 -4.05231e-17
218 2 201.158 121.384 -4.05231e-17
219 2 136.333 189.64 -4.05231e-17
220 1 120.537 1.22806 -4.05231e-17
221 2 83.0414 6.71894 -4.05231e-17
222 1 158.537 157.486 -4.05231e-17
223 1 46.0589 120.509 -4.05231e-17
224 2 146.017 70.5989 -4.05231e-17
225 2 168.995 163.971 -4.05231e-17
226 1 196.299 10.1657 -4.05231e-17
227 2 203.158 214.601 -4.05231e-17
228 2 118.25 63.4462 -4.05231e-17
229 1 47.5272 22.6191 -4.05231e-17
230 1 4.47217 56.6197 -4.05231e-17
231 2 137.389 160.468 -4.05231e-17
232 1 17.7722 212.508 -4.05231e-17
233 2 75.4549 195.87 -4.05231e-17
234 1 0.527924 59.9222 -4.05231e-17
235 1 150.046 106.27 -4.05231e-17
236 2 153.218 52.8017 -4.05231e-17
237 2 99.4845 203.55 -4.05231e-17
238 2 95.0367 140.668 -4.05231e-17
239 1 34.9596 217.178 -4.05231e-17
240 1 129.865 91.0028 -4.05231e-17
241 2 3.62737 124.716 -4.05231e-17
242 1 194.019 28.5051 -4.05231e-17
243 2 215.078 130.309 -4.05231e-17
244 2 35.6966 190.998 -4.05231e-17
245 1 174.205 21.0516 -4.05231e-17
246 2 90.4563 85.4482 -4.05231e-17
247 2 198.837 150.59 -4.05231e-17
248 1 37.8623 26.9417 -4.05231e-17
249 1 131.598 108.367 -4.05231e-17
250 1 134.705 27.621 -4.05231e-17
251 2 101.883 43.4941 -4.05231e-17
252 1 111.286 157.191 -4.05231e-17
253 2 95.6577 97.743 -4.05231e-17
254 2 179.145 205.051 -4.05231e-17
255 2 121.122 51.8064 -4.05231e-17
256 1 3.20844 180.047 -4.05231e-17
257 2 32.483 195.459 -4.05231e-17
258 1 210.879 81.3593 -4.05231e-17
259 2 160.886 141.457 -4.05231e-17
260 1 40.6094 192.856 -4.05231e-17
261 2 142.805 177.073 -4.05231e-17
262 2 187.183 110.332 -4.05231e-17
263 2 94.1904 173.156 -4.05231e-17
264 1 198.719 36.6142 -4.05231e-17
265 1 157.68 187.053 -4.05231e-17
266 1 98.9247 196.328 -4.05231e-17
267 2 115.322 16.5633 -4.05231e-17
268 1 218.563 48.5878 -4.05231e-17
269 2 10.1768 113.665 -4.05231e-17
270 2 185.684 148.82 -4.05231e-17
271 2 187.419 95.1127 -4.05231e-17
272 1 59.4657 26.2689 -4.05231e-17
273 1 70.3816 83.5063 -4.05231e-17
274 1 38.1227 196.425 -4.05231e-17
275 1 146.78 110.074 -4.05231e-17
276 1 198.923 74.7466 -4.05231e-17
277 1 100.689 37.9488 -4.05231e-17
278 2 61.2614 145.457 -4.05231e-17
279 2 160.056 86.657 -4.05231e-17
280 1 116.609 210.533 -4.05231e-17
281 2 169.98 182.447 -4.05231e-17
282 2 75.5814 127.194 -4.05231e-17
283 2 0.0525928 150.932 -4.05231e-17
284 1 126.118 113.709 -4.05231e-17
285 1 73.5088 165.46 -4.05231e-17
286 2 30.2932 180.429 -4.05231e-17
287 2 93.1865 109.804 -4.05231e-17
288 1 104.881 123.633 -4.05231e-17
289 2 193.899 56.9711 -4.05231e-17
290 1 101.458 30.0192 -4.05231e-17
291 2 96.5988 186.009 -4.05231e-17
292 1 77.3419 125.233 -4.05231e-17
293 1 159.199 168.385 -4.05231e-17
294 1 29.7157 177.635 -4.05231e-17
295 2 47.0698 145.898 -4.05231e-17
296 1 197.094 177.019 -4.05231e-17
297 1 2.28726 18.6013 -4.05231e-17
298 2 30.578 140.906 -4.05231e-17
299 1 177.248 55.9105 -4.05231e-17
300 2 190.341 192.74 -4.05231e-17
301 2 172.197 19.2436 -4.05231e-17
302 2 163.729 89.507 -4.05231e-17
303 1 2.65819 151.693 -4.05231e-17
304 1 124.269 106.085 -4.05231e-17
305 1 91.9994 177.675 -4.05231e-17
306 2 83.98 17.4157 -4.05231e-17
307 2 150.643 168.371 -4.05231e-17
308 2 142.157 22.1126 -4.05231e-17
309 1 70.7749 72.0898 -4.05231e-17
310 1 190.493 190.197 -4.05231e-17
311 1 150.933 108.801 -4.05231e-17
312 2 134.754 13.5145 -4.05231e-17
313 2 155.196 17.6284 -4.05231e-17
314 1 184.239 58.4367 -4.05231e-17
315 2 56.8656 107.977 -4.05231e-17
316 1 96.0941 31.207 -4.05231e-17
317 1 132.782 175.89 -4.05231e-17
318 1 216.536 135.552 -4.05231e-17
319 2 73.8103 201.024 -4.05231e-17
320 1 214.02 47.9936 -4.05231e-17
321 1 52.3872 87.4143 -4.05231e-17
322 1 51.4715 148.2 -4.05231e-17
323 2 20.0142 138.63 -4.05231e-17
324 2 7.75167 95.3674 -4.05231e-17
325 2 216.211 13.6396 -4.05231e-17
326 1 184.761 0.928789 -4.05231e-17
327 1 35.73 45.8107 -4.05231e-17
328 2 32.6115 192.409 -4.05231e-17
329 2 28.6825 83.5202 -4.05231e-17
330 2 153.189 38.6526 -4.05231e-17
331 2 187.88 68.1148 -4.05231e-17
332 2 121.23 114.395 -4.05231e-17
333 2 27.9969 151.169 -4.05231e-17
334 2 215.695 17.9759 -4.05231e-17
335 1 166.999 211.102 -4.05231e-17
336 2 27.8985 141.876 -4.05231e-17
337 2 40.6634 9.4824 -4.05231e-17
338 1 203.184 90.33 -4.05231e-17
339 2 15.2086 151.84 -4.05231e-17
340 2 176.725 214.376 -4.05231e-17
341 2 101.312 60.5836 -4.05231e-17
342 2 173.69 166.417 -4.05231e-17
343 2 176.296 4.89363 -4.05231e-17
344 1 87.931 105.669 -4.05231e-17
345 2 26.6777 213.1 -4.05231e-17
346 2 75.4187 72.9082 -4.05231e-17
347 1 147.692 98.6223 -4.05231e-17
348 1 181.447 3.85281 -4.05231e-17
349 2 172.995 70.0673 -4.05231e-17
350 2 77.961 178.738 -4.05231e-17
351 1 174.913 141.745 -4.05231e-17
352 1 212.872 163.848 -4.05231e-17
353 2 141.293 131.986 -4.05231e-17
354 2 192.125 176.297 -4.05231e-17
355 1 216.148 157.167 -4.05231e-17
356 2 114.549 1.258 -4.05231e-17
357 1 126.817 192.702 -4.05231e-17
358 1 78.148 25.3649 -4.05231e-17
359 1 35.2082 144.162 -4.05231e-17
360 1 51.1814 8.21086 -4.05231e-17
361 2 196.704 68.2897 -4.05231e-17
362 2 172.28 94.6945 -4.05231e-17
363 1 78.6891 215.154 -4.05231e-17
364 2 216.82 46.5724 -4.05231e-17
365 1 5.73664 164.365 -4.05231e-17
366 1 82.5725 173.063 -4.05231e-17
367 1 161.128 103.903 -4.05231e-17
368 1 20.8229 164.483 -4.05231e-17
369 2 81.5526 143.844 -4.05231e-17
370 1 6.75714 132.069 -4.05231e-17
371 2 71.4125 111.243 -4.05231e-17
372 1 87.8654 6.75343 -4.05231e-17
373 2 117.784 208.274 -4.05231e-17
374 2 177.003 101.857 -4.05231e-17
375 1 136.341 25.5392 -4.05231e-17
376 1 121.842 146.95 -4.05231e-17
377 2 95.7362 75.8395 -4.05231e-17
378 2 215.539 106.76 -4.05231e-17
379 2 169.574 187.433 -4.05231e-17
380 1 199.478 34.1157 -4.05231e-17
381 1 174.83 67.9814 -4.05231e-17
382 1 122.259 26.7762 -4.05231e-17
383 1 110.461 83.176 -4.05231e-17
384 2 54.0214 101.456 -4.05231e-17
385 1 66.1882 148.85 -4.05231e-17
386 2 179.83 175.728 -4.05231e-17
387 1 34.9095 107.241 -4.05231e-17
388 1 143.841 164.391 -4.05231e-17
389 2 216.026 121.237 -4.05231e-17
390 1 104.54 64.641 -4.05231e-17
391 1 203.313 217.361 -4.05231e-17
392 2 3.90944 100.289 -4.05231e-17
393 2 192.703 173.33 -4.05231e-17
394 1 36.36 204.057 -4.05231e-17
395 1 19.3415 214.988 -4.05231e-17
396 2 75.3784 88.2967 -4.05231e-17
397 1 67.8002 41.9089 -4.05231e-17
398 2 165.841 110.724 -4.05231e-17
399 2 197.026 106.718 -4.05231e-17
400 2 123.938 68.8723 -4.05231e-17
401 2 83.9873 190.333 -4.05231e-17
402 1 84.4433 42.9146 -4.05231e-17
403 1 69.8794 116.42 -4.05231e-17
404 2 113.048 14.0367 -4.05231e-17
405 1 49.0512 197.093 -4.05231e-17
406 2 216.719 95.6255 -4.05231e-17
407 1 124.029 78.7627 -4.05231e-17
408 1 130.325 29.3119 -4.05231e-17
409 2 214.366 115.969 -4.05231e-17
410 2 70.574 158.947 -4.05231e-17
411 1 136.205 97.0221 -4.05231e-17
412 1 164.426 6.44984 -4.05231e-17
413 1 34.8162 86.073 -4.05231e-17
414 2 193.166 202.673 -4.05231e-17
415 1 107.75 126.556 -4.05231e-17
416 1 175.977 52.0457 -4.05231e-17
417 2 107.484 129.187 -4.05231e-17
418 2 34.7465 179.627 -4.05231e-17
419 2 195.077 92.346 -4.05231e-17
420 2 108.647 44.4114 -4.05231e-17
421 1 70.3757 30.9966 -4.05231e-17
422 1 34.3369 58.2581 -4.05231e-17
423 2 116.463 125.238 -4.05231e-17
424 2 39.1118 24.6109 -4.05231e-17
425 2 117.198 150.515 -4.05231e-17
426 1 185.695 97.0991 -4.05231e-17
427 2 75.2741 60.5488 -4.05231e-17
428 1 29.2027 175.125 -4.05231e-17
429 2 131.275 150.043 -4.05231e-17
430 2 111.832 104.511 -4.05231e-17
431 1 13.1582 9.07214 -4.05231e-17
432 2 173.877 3.0433 -4.05231e-17
433 1 186.683 199.101 -4.05231e-17
434 1 20.2158 205.334 -4.05231e-17
435 1 149.419 85.2953 -4.05231e-17
436 2 85.1287 198.589 -4.05231e-17
437 2 180.953 82.4928 -4.05231e-17
438 2 194.492 177.808 -4.05231e-17
439 2 92.635 10.1971 -4.05231e-17
440 2 201.223 92.0326 -4.05231e-17
441 1 131.07 167.183 -4.05231e-17
442 1 38.0852 104.704 -4.05231e-17
443 2 79.3549 82.0186 -4.05231e-17
444 1 204.578 104.945 -4.05231e-17
445 1 169.512 133.205 -4.05231e-17
446 2 183.029 150.769 -4.05231e-17
447 2 40.411 40.2664 -4.05231e-17
448 2 205.904 176.024 -4.05231e-17
449 1 40.9988 177.559 -4.05231e-17
450 1 10.7297 126.265 -4.05231e-17
451 1 53.943 209.263 -4.05231e-17
452 2 208.569 61.0078 -4.05231e-17
453 1 216.61 150.365 -4.05231e-17
454 1 3.09031 68.8556 -4.05231e-17
455 2 81.4817 131.331 -4.05231e-17
456 1 85.1678 1.56389 -4.05231e-17
457 2 140.467 144.837 -4.05231e-17
458 2 155.378 135.461 -4.05231e-17
459 2 133.477 51.1885 -4.05231e-17
460 1 197.507 170.225 -4.05231e-17
461 1 111.911 128.2 -4.05231e-17
462 1 103.962 195.838 -4.05231e-17
463 2 110.127 218.311 -4.05231e-17
464 2 13.547 77.7377 -4.05231e-17
465 1 123.823 15.8315 -4.05231e-17
466 2 150.685 126.866 -4.05231e-17
467 2 66.079 133.127 -4.05231e-17
468 2 123.86 125.37 -4.05231e-17
469 2 58.1434 71.775 -4.05231e-17
470 2 208.882 154.482 -4.05231e-17
471 2 212.103 211.545 -4.05231e-17
472 2 111.159 36.869 -4.05231e-17
473 2 197.85 214.586 -4.05231e-17
474 2 85.024 147.09 -4.05231e-17
475 1 164.305 183.103 -4.05231e-17
476 2 174.962 34.3722 -4.05231e-17
477 1 208.652 218.17 -4.05231e-17
478 1 45.9854 188.106 -4.05231e-17
479 2 0.994873 197.845 -4.05231e-17
480 1 82.8346 61.9531 -4.05231e-17
481 1 2.91425 209.46 -4.05231e-17
482 2 152.589 176.592 -4.05231e-17
483 1 134.295 209.111 -4.05231e-17
484 1 66.5666 135.936 -4.05231e-17
485 2 13.5519 173.835 -4.05231e-17
486 1 133.077 73.0314 -4.05231e-17
487 1 13.2374 202.186 -4.05231e-17
488 1 49.7267 83.9121 -4.05231e-17
489 1 70.4022 108.993 -4.05231e-17
490 1 164.92 73.2966 -4.05231e-17
491 1 163.153 75.4079 -4.05231e-17
492 2 209.211 15.4732 -4.05231e-17
493 1 93.8946 203.124 -4.05231e-17
494 2 78.2184 66.3465 -4.05231e-17
495 1 150.247 92.1113 -4.05231e-17
496 1 52.1816 123.607 -4.05231e-17
497 1 136.799 109.891 -4.05231e-17
498 2 145.51 39.0674 -4.05231e-17
499 2 177.458 118.812 -4.05231e-17
500 2 57.3431 32.5696 -4.05231e-17
501 2 14.9276 139.465 -4.05231e-17
502 2 190.786 126.597 -4.05231e-17
503 2 58.1448 63.7283 -4.05231e-17
504 2 98.1248 50.512 -4.05231e-17
505 2 111.864 213.471 -4.05231e-17
506 1 207.23 6.14341 -4.05231e-17
507 2 49.6736 182.041 -4.05231e-17
508 1 140.634 59.3094 -4.05231e-17
509 1 209.495 47.469 -4.05231e-17
510 1 195.371 104.584 -4.05231e-17
511 2 108.231 179.143 -4.05231e-17
512 1 10.976 42.2763 -4.05231e-17
513 2 87.9116 183.245 -4.05231e-17
514 2 14.9907 87.2334 -4.05231e-17
515 1 60.4816 98.6857 -4.05231e-17
516 2 101.183 73.707 -4.05231e-17
517 1 32.3385 147.933 -4.05231e-17
518 2 10.3629 13.8579 -4.05231e-17
519 1 125.083 92.2295 -4.05231e-17
520 2 209.076 93.7779 -4.05231e-17
521 2 130.189 39.7142 -4.05231e-17
522 1 187.07 7.34327 -4.05231e-17
523 1 127.533 99.5871 -4.05231e-17
524 2 175.278 18.7651 -4.05231e-17
525 2 185.302 46.0193 -4.05231e-17
526 2 108.102 16.3642 -4.05231e-17
527 1 170.925 24.7544 -4.05231e-17
528 1 212.81 202.026 -4.05231e-17
529 2 104.389 176.098 -4.05231e-17
530 2 18.3037 88.2714 -4.05231e-17
531 2 184.618 171.831 -4.05231e-17
532 1 81.0846 4.82613 -4.05231e-17
533 2 23.5995 158.106 -4.05231e-17
534 1 23.2154 168.272 -4.05231e-17
535 1 169.794 206.563 -4.05231e-17
536 2 18.5281 169.795 -4.05231e-17
537 1 142.543 28.78 -4.05231e-17
538 1 68.3173 157.834 -4.05231e-17
539 2 80.6217 163.317 -4.05231e-17
540 1 35.0978 182.595 -4.05231e-17
541 1 104.851 128.816 -4.05231e-17
542 1 58.5353 126.622 -4.05231e-17
543 2 120.467 168.568 -4.05231e-17
544 1 217.754 211.402 -4.05231e-17
545 1 174.493 72.062 -4.05231e-17
546 2 186.764 9.93549 -4.05231e-17
547 1 12.8112 71.5306 -4.05231e-17
548 1 29.349 5.94493 -4.05231e-17
549 2 35.4068 152.69 -4.05231e-17
550 2 164.706 193.327 -4.05231e-17
551 2 38.4841 7.22 -4.05231e-17
552 1 31.6989 51.6034 -4.05231e-17
553 2 206.955 196.972 -4.05231e-17
554 2 144.153 33.9382 -4.05231e-17
555 2 177.869 134.817 -4.05231e-17
556 1 177.731 211.973 -4.05231e-17
557 1 211.183 53.9652 -4.05231e-17
558 1 60.3984 143.104 -4.05231e-17
559 2 106.038 91.484 -4.05231e-17
560 2 57.3069 89.691 -4.05231e-17
561 2 110.432 181.437 -4.05231e-17
562 2 99.1501 65.7039 -4.05231e-17
563 1 73.3157 168.136 -4.05231e-17
564 2 103.422 78.5845 -4.05231e-17
565 2 33.8577 65.3553 -4.05231e-17
566 2 64.8206 61.1089 -4.05231e-17
567 1 94.9423 11.5644 -4.05231e-17
568 1 22.5851 78.1261 -4.05231e-17
569 2 141.524 194.458 -4.05231e-17
570 2 11.636 21.1932 -4.05231e-17
571 2 5.09431 61.8321 -4.05231e-17
572 1 115.279 107.5 -4.05231e-17
573 2 38.0632 89.7751 -4.05231e-17
574 2 179.066 170.936 -4.05231e-17
575 1 196.206 206.789 -4.05231e-17
576 1 25.8394 68.5271 -4.05231e-17
577 1 127.961 75.0078 -4.05231e-17
578 1 184.064 115.278 -4.05231e-17
579 2 182.262 46.8735 -4.05231e-17
580 1 109.261 103.972 -4.05231e-17
581 1 91.8574 146.669 -4.05231e-17
582 2 125.515 101.458 -4.05231e-17
583 2 103.38 83.9282 -4.05231e-17
584 2 107.291 151.366 -4.05231e-17
585 1 181.765 103.406 -4.05231e-17
586 1 144.007 79.8404 -4.05231e-17
587 1 158.519 111.685 -4.05231e-17
588 2 64.5662 109.037 -4.05231e-17
589 1 210.697 59.3333 -4.05231e-17
590 2 181.781 58.2183 -4.05231e-17
591 2 178.863 16.373 -4.05231e-17
592 1 204.106 128.915 -4.05231e-17
593 1 127.316 89.7591 -4.05231e-17
594 1 5.32639 70.2867 -4.05231e-17
595 1 33.3681 62.7071 -4.05231e-17
596 2 107.125 71.0925 -4.05231e-17
597 2 63.4813 106.063 -4.05231e-17
598 2 135.778 87.573 -4.05231e-17
599 2 96.7529 165.76 -4.05231e-17
600 2 49.3242 99.0881 -4.05231e-17
601 1 145.753 107.675 -4.05231e-17
602 1 173.592 51.7475 -4.05231e-17
603 2 216.872 159.699 -4.05231e-17
604 1 45.8573 178.83 -4.05231e-17
605 2 140.014 100.307 -4.05231e-17
606 2 150.119 99.3792 -4.05231e-17
607 2 47.8402 169.412 -4.05231e-17
608 2 128.195 31.0703 -4.05231e-17
609 1 77.7721 89.3373 -4.05231e-17
610 2 106.023 199.994 -4.05231e-17
611 1 1.4564 165.711 -4.05231e-17
612 1 207.258 117.773 -4.05231e-17
613 2 213.794 156.309 -4.05231e-17
614 1 202.464 30.8275 -4.05231e-17
615 1 152.038 104.254 -4.05231e-17
616 2 145.795 178.143 -4.05231e-17
617 1 168.605 0.954465 -4.05231e-17
618 1 136.708 216.709 -4.05231e-17
619 1 164.132 160.936 -4.05231e-17
620 2 42.8561 89.1676 -4.05231e-17
621 2 203.791 77.2191 -4.05231e-17
622 2 145.146 154.35 -4.05231e-17
623 2 108.893 147.141 -4.05231e-17
624 1 106.698 177.055 -4.05231e-17
625 2 208.74 79.8464 -4.05231e-17
626 1 210.773 190.177 -4.05231e-17
627 2 195.173 193.036 -4.05231e-17
628 1 116.906 156.181 -4.05231e-17
629 1 30.3474 41.1629 -4.05231e-17
630 2 133.074 213.911 -4.05231e-17
631 2 144.451 115.063 -4.05231e-17
632 2 208.847 19.9723 -4.05231e-17
633 2 60.712 131.359 -4.05231e-17
634 2 191.421 67.9117 -4.05231e-17
635 2 80.3207 72.3369 -4.05231e-17
636 1 88.5429 131.232 -4.05231e-17
637 1 217.393 152.76 -4.05231e-17
638 1 116.965 69.0466 -4.05231e-17
639 2 200.63 65.0264 -4.05231e-17
640 2 149.496 77.824 -4.05231e-17
641 1 199.871 96.9849 -4.05231e-17
642 2 161.921 35.1947 -4.05231e-17
643 1 165.256 57.6165 -4.05231e-17
644 2 139.965 155.123 -4.05231e-17
645 2 5.5887 75.2303 -4.05231e-17
646 1 169.504 142.196 -4.05231e-17
647 2 129.296 147.949 -4.05231e-17
648 2 190.751 211.734 -4.05231e-17
649 1 63.926 145.366 -4.05231e-17
650 1 56.7734 153.233 -4.05231e-17
651 1 112.126 130.732 -4.05231e-17
652 2 8.22145 214.134 -4.05231e-17
653 2 195.519 45.1178 -4.05231e-17
654 1 208.647 164.76 -4.05231e-17
655 1 63.9618 47.9371 -4.05231e-17
656 1 198.862 10.5305 -4.05231e-17
657 1 124.984 120.483 -4.05231e-17
658 2 165.938 105.501 -4.05231e-17
659 2 101.464 137.68 -4.05231e-17
660 1 24.9704 12.2039 -4.05231e-17
661 2 15.6999 37.1561 -4.05231e-17
662 2 135.875 116.835 -4.05231e-17
663 1 163.873 112.924 -4.05231e-17
664 1 80.2874 138.771 -4.05231e-17
665 1 135.191 143.701 -4.05231e-17
666 1 203.057 185.523 -4.05231e-17
667 1 0.432497 116.72 -4.05231e-17
668 1 134.43 156.792 -4.05231e-17
669 1 107.483 160.88 -4.05231e-17
670 2 212.073 161.106 -4.05231e-17
671 1 3.50795 16.3427 -4.05231e-17
672 1 193.504 141.588 -4.05231e-17
673 2 47.132 85.1353 -4.05231e-17
674 2 182.345 205.78 -4.05231e-17
675 2 152.447 1.88006 -4.05231e-17
676 1 180.392 159.752 -4.05231e-17
677 2 53.2855 53.4412 -4.05231e-17
678 1 86.7378 113.769 -4.05231e-17
679 1 87.1704 65.4467 -4.05231e-17
680 2 71.6184 13.138 -4.05231e-17
681 1 5.421 9.29745 -4.05231e-17
682 1 141.44 171.677 -4.05231e-17
683 2 96.2014 123.499 -4.05231e-17
684 1 23.2154 180.55 -4.05231e-17
685 1 83.5854 206.306 -4.05231e-17
686 1 142.896 159.748 -4.05231e-17
687 1 107.572 53.0865 -4.05231e-17
688 1 151.847 97.2934 -4.05231e-17
689 2 10.3192 139.408 -4.05231e-17
690 1 48.4746 120.866 -4.05231e-17
691 2 64.8501 115.474 -4.05231e-17
692 2 180.969 178.852 -4.05231e-17
693 1 161.65 95.9548 -4.05231e-17
694 2 147.195 149.803 -4.05231e-17
695 2 187.527 36.4762 -4.05231e-17
696 2 31.6841 82.3989 -4.05231e-17
697 1 104.093 35.7076 -4.05231e-17
698 2 40.7964 18.0089 -4.05231e-17
699 1 56.879 202.524 -4.05231e-17
700 2 18.1921 126.236 -4.05231e-17
701 2 30.853 63.6343 -4.05231e-17
702 1 160.715 9.40906 -4.05231e-17
703 1 195.614 60.5863 -4.05231e-17
704 1 159.876 121.987 -4.05231e-17
705 1 43.5625 120.535 -4.05231e-17
706 1 75.2204 161.526 -4.05231e-17
707 1 182.041 66.4708 -4.05231e-17
708 2 195.427 101.774 -4.05231e-17
709 1 54.3206 160.298 -4.05231e-17
710 2 91.955 16.1612 -4.05231e-17
711 2 1.02835 139.254 -4.05231e-17
712 1 84.1865 213.557 -4.05231e-17
713 1 5.23428 152.211 -4.05231e-17
714 2 144.876 147.626 -4.05231e-17
715 2 133.279 86.9511 -4.05231e-17
716 1 86.8293 60.954 -4.05231e-17
717 1 14.8682 61.0488 -4.05231e-17
718 2 78.5934 99.6901 -4.05231e-17
719 1 68.4363 202.636 -4.05231e-17
720 2 51.5816 197.164 -4.05231e-17
721 2 43.9803 213.052 -4.05231e-17
722 2 65.2842 138.124 -4.05231e-17
723 2 15.9174 165.916 -4.05231e-17
724 2 202.683 107.329 -4.05231e-17
725 2 21.6689 50.3834 -4.05231e-17
726 2 178.131 123.897 -4.05231e-17
727 2 35.3743 109.833 -4.05231e-17
728 1 176.502 76.9282 -4.05231e-17
729 2 167.261 131.683 -4.05231e-17
730 2 174.986 94.5677 -4.05231e-17
731 1 10.5608 23.4825 -4.05231e-17
732 2 98.0614 87.3272 -4.05231e-17
733 2 147.834 146.932 -4.05231e-17
734 2 59.0425 192.018 -4.05231e-17
735 2 149.043 71.586 -4.05231e-17
736 1 182.479 176.757 -4.05231e-17
737 2 48.7514 40.0227 -4.05231e-17
738 2 71.0235 207.64 -4.05231e-17
739 2 185.945 131.343 -4.05231e-17
740 2 40.3464 115.727 -4.05231e-17
741 2 200.962 114.315 -4.05231e-17
742 1 71.6488 98.6951 -4.05231e-17
743 2 78.8093 76.3291 -4.05231e-17
744 1 146.803 49.6853 -4.05231e-17
745 2 15.6795 75.6336 -4.05231e-17
746 1 218.779 121.424 -4.05231e-17
747 1 98.4309 163.233 -4.05231e-17
748 2 69.9343 197.502 -4.05231e-17
749 1 213.751 166.315 -4.05231e-17
750 1 139.133 147.095 -4.05231e-17
751 1 143.262 89.025 -4.05231e-17
752 2 195.221 168.578 -4.05231e-17
753 1 36.9014 180.664 -4.05231e-17
754 2 65.6645 80.9923 -4.05231e-17
755 1 6.53209 80.7572 -4.05231e-17
756 2 178.13 58.4979 -4.05231e-17
757 1 110.605 15.0619 -4.05231e-17
758 2 99.5555 28.2884 -4.05231e-17
759 1 96.3305 133.477 -4.05231e-17
760 1 170.882 61.5814 -4.05231e-17
761 2 212.989 100.904 -4.05231e-17
762 1 178.337 106.153 -4.05231e-17
763 2 6.44112 157.463 -4.05231e-17
764 2 43.5067 188.064 -4.05231e-17
765 1 21.9867 160.07 -4.05231e-17
766 2 100.052 48.0999 -4.05231e-17
767 2 206.436 148.909 -4.05231e-17
768 2 72.5007 62.2604 -4.05231e-17
769 2 187.935 98.5536 -4.05231e-17
770 1 133.994 18.1934 -4.05231e-17
771 1 65.108 63.9718 -4.05231e-17
772 1 128.22 1.10971 -4.05231e-17
773 2 167.052 172.182 -4.05231e-17
774 1 88.3696 87.1725 -4.05231e-17
775 1 102.543 75.7473 -4.05231e-17
776 2 192.939 103.759 -4.05231e-17
777 2 42.4763 79.7716 -4.05231e-17
778 1 83.3324 12.5816 -4.05231e-17
779 1 48.3263 61.5348 -4.05231e-17
780 2 83.4274 49.706 -4.05231e-17
781 1 25.9974 171.9 -4.05231e-17
782 2 123.136 170.13 -4.05231e-17
783 1 74.6598 63.215 -4.05231e-17
784 2 96.7528 110.557 -4.05231e-17
785 1 204.521 82.5703 -4.05231e-17
786 1 41.1326 7.00331 -4.05231e-17
787 2 38.128 208.785 -4.05231e-17
788 2 165.202 180.287 -4.05231e-17
789 2 18.4711 147 -4.05231e-17
790 2 77.1829 7.61339 -4.05231e-17
791 2 186.595 53.9774 -4.05231e-17
792 1 213.121 132.673 -4.05231e-17
793 1 96.6327 171.868 -4.05231e-17
794 2 209.748 6.49373 -4.05231e-17
795 2 10.5158 191.776 -4.05231e-17
796 1 69.1991 214.891 -4.05231e-17
797 1 46.2909 32.5778 -4.05231e-17
798 1 213.379 55.8376 -4.05231e-17
799 2 105.946 155.873 -4.05231e-17
800 1 56.5089 37.4343 -4.05231e-17
801 2 68.1851 84.8244 -4.05231e-17
802 1 90.8091 216.396 -4.05231e-17
803 1 143.347 24.4565 -4.05231e-17
804 1 210.505 125.119 -4.05231e-17
805 2 183.588 117.916 -4.05231e-17
806 2 178.59 157.976 -4.05231e-17
807 2 208.335 29.391 -4.05231e-17
808 2 76.1965 144.848 -4.05231e-17
809 1 175.745 63.2072 -4.05231e-17
810 2 23.8242 173.693 -4.05231e-17
811 2 179.965 55.8417 -4.05231e-17
812 1 121.722 184.835 -4.05231e-17
813 1 21.9176 95.7273 -4.05231e-17
814 1 3.09567 204.742 -4.05231e-17
815 1 145.881 31.6571 -4.05231e-17
816 1 206.954 51.11 -4.05231e-17
817 2 62.9369 71.1929 -4.05231e-17
818 2 29.8743 123.018 -4.05231e-17
819 2 210.608 67.7865 -4.05231e-17
820 1 9.36639 59.0921 -4.05231e-17
821 1 65.2195 58.4872 -4.05231e-17
822 2 131.358 34.3971 -4.05231e-17
823 1 183.79 90.2915 -4.05231e-17
824 1 175.371 89.7855 -4.05231e-17
825 1 160.319 191.167 -4.05231e-17
826 2 178.372 81.7226 -4.05231e-17
827 2 102.301 27.2767 -4.05231e-17
828 1 50.3652 91.5262 -4.05231e-17
829 2 127.785 92.6015 -4.05231e-17
830 1 3.98991 156.824 -4.05231e-17
831 2 183.267 217.751 -4.05231e-17
832 2 26.7493 52.4761 -4.05231e-17
833 2 96.4212 42.2052 -4.05231e-17
834 1 70.7501 164.215 -4.05231e-17
835 1 184.894 141.559 -4.05231e-17
836 1 152.956 69.6277 -4.05231e-17
837 2 168.183 92.1845 -4.05231e-17
838 2 91.9656 26.7145 -4.05231e-17
839 1 39.2125 32.1566 -4.05231e-17
840 2 13.9404 117.287 -4.05231e-17
841 2 201.674 10.454 -4.05231e-17
842 1 174.259 156.922 -4.05231e-17
843 1 205.103 30.0606 -4.05231e-17
844 2 8.72797 25.4664 -4.05231e-17
845 1 47.2482 151.039 -4.05231e-17
846 2 127.381 211.026 -4.05231e-17
847 1 88.5578 143.364 -4.05231e-17
848 2 112.632 8.80724 -4.05231e-17
849 1 24.832 33.2081 -4.05231e-17
850 2 60.1404 67.1512 -4.05231e-17
851 2 216.007 30.7046 -4.05231e-17
852 1 136.963 182.881 -4.05231e-17
853 1 186.088 105.023 -4.05231e-17
854 2 104.241 145.117 -4.05231e-17
855 2 165.356 120.773 -4.05231e-17
856 1 77.3211 160.17 -4.05231e-17
857 2 79.2187 119.89 -4.05231e-17