ITEM: TIMESTEP
0
ITEM: NUMBER OF ATOMS
7200
ITEM: BOX BOUNDS xy xz yz pp pp pp
0.0000000000000000e+00 2.1900000000000000e+02 0.0000000000000000e+00
0.0000000000000000e+00 2.1900000000000000e+02 0.0000000000000000e+00
-3.6499999999999999e-01 3.6499999999999999e-01 0.0000000000000000e+00
ITEM: ATOMS id type x y z
1 1 183.018 12.6414 -4.05231e-17
2 2 187.963 183.399 -4.05231e-17
3 2 144.569 189.45 -4.05231e-17
4 1 123.002 110.095 -4.05231e-17
5 1 101.349 122.551 -4.05231e-17
6 1 104.292 25.4517 -4.05231e-17
7 2 158.897 129.11 -4.05231e-17
8 2 70.0764 26.0411 -4.05231e-17
9 1 22.2549 214.864 -4.05231e-17
10 2 52.4235 166.929 -4.05231e-17
11 2 210.403 100.31 -4.05231e-17
12 1 34.0808 197.759 -4.05231e-17
13 2 194.485 53.7914 -4.05231e-17
14 1 57.3924 184.524 -4.05231e-17
15 2 193.479 218.717 -4.05231e-17
16 2 218.448 85.705 -4.05231e-17
17 1 67.5059 74.5866 -4.05231e-17
18 2 10.3465 172.684 -4.05231e-17
19 1 93.1473 130.061 -4.05231e-17
20 1 72.6825 11.1742 -4.05231e-17
21 1 156.636 7.02803 -4.05231e-17
22 2 31.747 212.636 -4.05231e-17
23 2 43.6783 208.34 -4.05231e-17
24 2 218.854 102.882 -4.05231e-17
25 2 30.357 207.717 -4.05231e-17
26 2 149.445 27.7834 -4.05231e-17
27 1 217.408 162.419 -4.05231e-17
28 2 54.151 154.926 -4.05231e-17
29 2 83.7325 4.21203 -4.05231e-17
30 2 132.156 37.3701 -4.05231e-17
31 2 156.775 83.5653 -4.05231e-17
32 1 48.1192 108.82 -4.05231e-17
33 2 145.375 87.2247 -4.05231e-17
34 2 16.3839 96.0068 -4.05231e-17
35 2 126.939 11.4087 -4.05231e-17
36 1 160.198 146.948 -4.05231e-17
37 1 133.225 185.336 -4.05231e-17
38 2 209.109 158.001 -4.05231e-17
39 1 8.00224 37.8805 -4.05231e-17
40 2 196.687 73.5842 -4.05231e-17
41 1 192.895 73.0497 -4.05231e-17
42 1 55.1407 58.8092 -4.05231e-17
43 1 210.033 132.103 -4.05231e-17
44 1 155.261 188.548 -4.05231e-17
45 2 159.416 61.1675 -4.05231e-17
46 1 124.327 192.811 -4.05231e-17
47 2 89.3889 80.4151 -4.05231e-17
48 2 150.692 129.765 -4.05231e-17
49 1 194.598 199.821 -4.05231e-17
50 2 29.2563 47.3321 -4.05231e-17
51 1 186.56 2.93428 -4.05231e-17
52 1 115.737 47.9528 -4.05231e-17
53 2 55.0067 200.929 -4.05231e-17
54 1 38.738 16.5502 -4.05231e-17
55 2 53.2713 141.451 -4.05231e-17
56 1 31.1911 132.63 -4.05231e-17
57 2 58.5696 133.764 -4.05231e-17
58 1 183.965 33.4603 -4.05231e-17
59 1 157.776 86.1052 -4.05231e-17
60 2 206.244 59.2472 -4.05231e-17
61 1 156.961 164.548 -4.05231e-17
62 1 106.895 111.676 -4.05231e-17
63 2 108.914 38.9501 -4.05231e-17
64 1 28.3506 17.7537 -4.05231e-17
65 2 152.253 149.219 -4.05231e-17
66 2 13.1691 154.75 -4.05231e-17
67 2 182.975 107.644 -4.05231e-17
68 1 136.98 82.9576 -4.05231e-17
69 2 109.255 169.011 -4.05231e-17
70 1 142.056 97.7965 -4.05231e-17
71 1 198.08 147.681 -4.05231e-17
72 2 44.7773 157.445 -4.05231e-17
73 2 191.856 179.602 -4.05231e-17
74 2 111.554 66.9002 -4.05231e-17
75 1 14.3993 136.844 -4.05231e-17
76 2 137.894 206.756 -4.05231e-17
77 2 168.736 15.6967 -4.05231e-17
78 1 93.3343 208.016 -4.05231e-17
79 2 60.5186 76.1356 -4.05231e-17
80 1 50.2197 22.7217 -4.05231e-17
81 1 182.1 211.038 -4.05231e-17
82 1 173.066 41.1779 -4.05231e-17
83 1 71.1978 91.1625 -4.05231e-17
84 2 140.587 179.535 -4.05231e-17
85 2 151.02 146.131 -4.05231e-17
86 2 51.0794 68.0008 -4.05231e-17
87 2 38.5402 75.5391 -4.05231e-17
88 1 80.5438 157.475 -4.05231e-17
89 2 199.878 105.607 -4.05231e-17
90 2 125.891 36.378 -4.05231e-17
91 2 11.3336 182.388 -4.05231e-17
92 1 27.6433 215.482 -4.05231e-17
93 2 109.863 154.577 -4.05231e-17
94 2 112.521 144.458 -4.05231e-17
95 1 211.579 51.6424 -4.05231e-17
96 2 32.1623 54.2496 -4.05231e-17
97 2 4.51775 211.585 -4.05231e-17
98 2 35.6424 185.365 -4.05231e-17
99 1 105.111 9.55035 -4.05231e-17
100 2 158.85 65.733 -4.05231e-17
101 1 184.376 109.773 -4.05231e-17
102 1 66.1956 164.133 -4.05231e-17
103 2 204.931 100.377 -4.05231e-17
104 2 104.347 73.1884 -4.05231e-17
105 1 160.837 58.8613 -4.05231e-17
106 1 185.243 60.6138 -4.05231e-17
107 1 12.3569 106.983 -4.05231e-17
108 1 70.0651 210.399 -4.05231e-17
109 2 217.636 39.3744 -4.05231e-17
110 2 145.117 29.5099 -4.05231e-17
111 1 53.0097 92.6235 -4.05231e-17
112 2 8.68351 50.7115 -4.05231e-17
113 1 134.809 10.9301 -4.05231e-17
114 1 92.5583 86.801 -4.05231e-17
115 2 32.472 59.8486 -4.05231e-17
116 2 184.169 15.1988 -4.05231e-17
117 1 163.019 110.523 -4.05231e-17
118 1 82.7581 94.2515 -4.05231e-17
119 2 99.0263 139.284 -4.05231e-17
120 2 201.419 58.7648 -4.05231e-17
121 1 205.088 138.943 -4.05231e-17
122 2 143.249 129.945 -4.05231e-17
123 2 7.00406 129.587 -4.05231e-17
124 1 161.398 199.883 -4.05231e-17
125 1 88.1962 192.912 -4.05231e-17
126 2 97.9834 84.0232 -4.05231e-17
127 2 209.033 110.872 -4.05231e-17
128 1 121.849 105.124 -4.05231e-17
129 1 144.029 194.392 -4.05231e-17
130 2 120.058 61.661 -4.05231e-17
131 1 133.861 60.0998 -4.05231e-17
132 1 139.479 21.7001 -4.05231e-17
133 1 181.215 105.638 -4.05231e-17
134 1 81.0431 191.415 -4.05231e-17
135 2 177.806 61.2893 -4.05231e-17
136 1 190.299 118.938 -4.05231e-17
137 1 60.7743 7.63929 -4.05231e-17
138 2 156.002 158.917 -4.05231e-17
139 1 132.644 11.9029 -4.05231e-17
140 1 144.834 208.289 -4.05231e-17
141 1 51.1644 70.6481 -4.05231e-17
142 1 213.268 190.775 -4.05231e-17
143 1 26.3923 26.3586 -4.05231e-17
144 1 46.6126 97.9319 -4.05231e-17
145 2 193.335 80.098 -4.05231e-17
146 1 153.289 126.002 -4.05231e-17
147 2 16.3412 134.713 -4.05231e-17
148 1 24.3866 133.506 -4.05231e-17
149 1 147.344 190.341 -4.05231e-17
150 2 65.6686 52.6102 -4.05231e-17
151 1 132.072 138.394 -4.05231e-17
152 1 164.091 163.79 -4.05231e-17
153 2 124.118 130.565 -4.05231e-17
154 1 184.037 52.9604 -4.05231e-17
155 2 203.22 40.1173 -4.05231e-17
156 2 109.354 197.11 -4.05231e-17
157 2 166.514 29.029 -4.05231e-17
158 2 27.9801 7.68132 -4.05231e-17
159 2 12.0924 158.939 -4.05231e-17
160 2 120.883 54.8843 -4.05231e-17
161 2 129.597 139.451 -4.05231e-17
162 1 23.867 66.7129 -4.05231e-17
163 1 188.49 33.9184 -4.05231e-17
164 2 108.382 134.8 -4.05231e-17
165 1 48.9616 72.2824 -4.05231e-17
166 2 5.88397 200.126 -4.05231e-17
167 1 107.008 167.809 -4.05231e-17
168 1 211.503 102.983 -4.05231e-17
169 2 98.2205 199.155 -4.05231e-17
170 1 66.3922 206.512 -4.05231e-17
171 1 137.611 92.483 -4.05231e-17
172 1 199.642 199.494 -4.05231e-17
173 1 39.201 204.123 -4.05231e-17
174 2 38.2083 173.345 -4.05231e-17
175 2 49.8854 199.646 -4.05231e-17
176 1 119.571 151.766 -4.05231e-17
177 2 104.871 15.2954 -4.05231e-17
178 1 25.366 7.54343 -4.05231e-17
179 2 106.397 197.308 -4.05231e-17
180 1 46.9473 76.6181 -4.05231e-17
181 1 15.9934 119.497 -4.05231e-17
182 1 113.903 86.6964 -4.05231e-17
183 1 63.9802 168.202 -4.05231e-17
184 2 157.834 25.3833 -4.05231e-17
185 2 190.148 78.5948 -4.05231e-17
186 2 74.3814 206.42 -4.05231e-17
187 2 159.154 201.81 -4.05231e-17
188 2 60.2927 28.5697 -4.05231e-17
189 1 191.126 57.6407 -4.05231e-17
190 1 196.337 55.5447 -4.05231e-17
191 2 35.3093 104.618 -4.05231e-17
192 2 89.1765 60.2328 -4.05231e-17
193 1 108.622 166.007 -4.05231e-17
194 1 26.8354 5.41225 -4.05231e-17
195 2 58.211 119.853 -4.05231e-17
196 1 0.19625 218.824 -4.05231e-17
197 2 119.215 50.3904 -4.05231e-17
198 2 206.038 27.5382 -4.05231e-17
199 2 99.5281 170.383 -4.05231e-17
200 2 98.6317 31.1938 -4.05231e-17
201 2 103.407 120.79 -4.05231e-17
202 1 44.0501 33.9153 -4.05231e-17
203 1 18.4286 43.1373 -4.05231e-17
204 2 44.8136 78.4768 -4.05231e-17
205 2 182.873 181.945 -4.05231e-17
206 2 170.551 127.018 -4.05231e-17
207 1 74.5779 189.354 -4.05231e-17
208 2 135.05 54.4766 -4.05231e-17
209 2 32.9971 142.59 -4.05231e-17
210 1 182.396 113.307 -4.05231e-17
211 1 208.387 35.1683 -4.05231e-17
212 1 208.64 85.0394 -4.05231e-17
213 1 128.198 123.669 -4.05231e-17
214 2 12.0071 11.3297 -4.05231e-17
215 1 5.15258 142.333 -4.05231e-17
216 1 55.3213 46.6187 -4.05231e-17
217 1 164.352 61.703 -4.05231e-17
218 2 201.106 121.242 -4.05231e-17
219 2 135.931 189.763 -4.05231e-17
220 1 120.979 1.55888 -4.05231e-17
221 2 82.937 7.17837 -4.05231e-17
222 1 158.306 157.489 -4.05231e-17
223 1 45.8126 120.472 -4.05231e-17
224 2 146.139 70.8275 -4.05231e-17
225 2 168.913 164.25 -4.05231e-17
226 1 196.596 10.1938 -4.05231e-17
227 2 203.4 214.984 -4.05231e-17
228 2 117.522 63.6981 -4.05231e-17
229 1 47.7913 22.5172 -4.05231e-17
230 1 5.01121 56.4718 -4.05231e-17
231 2 137.249 160.924 -4.05231e-17
232 1 18.2964 212.523 -4.05231e-17
233 2 75.7626 195.803 -4.05231e-17
234 1 0.594305 59.6332 -4.05231e-17
235 1 150.284 106.134 -4.05231e-17
236 2 153.195 53.0431 -4.05231e-17
237 2 99.4241 203.855 -4.05231e-17
238 2 94.8303 140.366 -4.05231e-17
239 1 35.7128 216.918 -4.05231e-17
240 1 129.816 90.8794 -4.05231e-17
241 2 3.46909 124.787 -4.05231e-17
242 1 194.117 28.2171 -4.05231e-17
243 2 214.78 130.377 -4.05231e-17
244 2 35.7643 190.985 -4.05231e-17
245 1 174.12 21.1898 -4.05231e-17
246 2 90.2379 85.3496 -4.05231e-17
247 2 198.931 150.325 -4.05231e-17
248 1 38.0578 27.0597 -4.05231e-17
249 1 131.878 108.345 -4.05231e-17
250 1 134.62 27.8263 -4.05231e-17
251 2 102.125 43.4866 -4.05231e-17
252 1 110.779 157.101 -4.05231e-17
253 2 95.7748 97.4415 -4.05231e-17
254 2 179.587 205.083 -4.05231e-17
255 2 122.625 50.1863 -4.05231e-17
256 1 3.15762 180.193 -4.05231e-17
257 2 32.6224 195.576 -4.05231e-17
258 1 211.093 81.1659 -4.05231e-17
259 2 160.949 141.771 -4.05231e-17
260 1 40.5769 192.873 -4.05231e-17
261 2 142.463 176.881 -4.05231e-17
262 2 187.093 110.286 -4.05231e-17
263 2 94.2334 172.743 -4.05231e-17
264 1 199.313 36.5135 -4.05231e-17
265 1 157.414 187.138 -4.05231e-17
266 1 98.81 196.365 -4.05231e-17
267 2 115.193 16.5053 -4.05231e-17
268 1 218.675 48.692 -4.05231e-17
269 2 10.0858 113.494 -4.05231e-17
270 2 185.424 148.882 -4.05231e-17
271 2 187.99 94.988 -4.05231e-17
272 1 59.2703 26.1128 -4.05231e-17
273 1 70.5038 83.3828 -4.05231e-17
274 1 38.1638 196.428 -4.05231e-17
275 1 146.946 110.046 -4.05231e-17
276 1 199.249 74.7724 -4.05231e-17
277 1 100.507 38.1063 -4.05231e-17
278 2 60.9273 145.363 -4.05231e-17
279 2 160.337 86.5274 -4.05231e-17
280 1 116.965 210.976 -4.05231e-17
281 2 169.825 182.441 -4.05231e-17
282 2 75.1626 126.997 -4.05231e-17
283 2 218.875 150.885 -4.05231e-17
284 1 126.081 113.553 -4.05231e-17
285 1 73.2264 165.421 -4.05231e-17
286 2 30.1515 180.474 -4.05231e-17
287 2 93.6268 109.754 -4.05231e-17
288 1 103.979 123.47 -4.05231e-17
289 2 193.786 56.7692 -4.05231e-17
290 1 101.04 29.9073 -4.05231e-17
291 2 96.1037 185.802 -4.05231e-17
292 1 76.903 125.134 -4.05231e-17
293 1 158.937 168.196 -4.05231e-17
294 1 29.7038 177.901 -4.05231e-17
295 2 46.6423 145.754 -4.05231e-17
296 1 196.958 176.574 -4.05231e-17
297 1 2.09377 18.3791 -4.05231e-17
298 2 30.4924 140.797 -4.05231e-17
299 1 177.364 55.7721 -4.05231e-17
300 2 190.276 192.673 -4.05231e-17
301 2 172.117 19.4678 -4.05231e-17
302 2 163.958 89.1065 -4.05231e-17
303 1 2.29539 151.806 -4.05231e-17
304 1 124.302 105.914 -4.05231e-17
305 1 91.855 177.631 -4.05231e-17
306 2 83.88 17.9225 -4.05231e-17
307 2 150.296 167.958 -4.05231e-17
308 2 142.036 22.3349 -4.05231e-17
309 1 70.4997 72.0915 -4.05231e-17
310 1 190.384 190.153 -4.05231e-17
311 1 151.051 108.556 -4.05231e-17
312 2 134.648 13.6036 -4.05231e-17
313 2 154.93 17.9561 -4.05231e-17
314 1 184.352 58.2822 -4.05231e-17
315 2 56.728 107.684 -4.05231e-17
316 1 95.9062 31.0416 -4.05231e-17
317 1 132.692 175.993 -4.05231e-17
318 1 216.615 135.661 -4.05231e-17
319 2 74.344 200.916 -4.05231e-17
320 1 213.851 47.9685 -4.05231e-17
321 1 52.6082 87.3165 -4.05231e-17
322 1 51.2919 148.271 -4.05231e-17
323 2 19.7074 138.964 -4.05231e-17
324 2 8.24137 95.2429 -4.05231e-17
325 2 216.256 13.6431 -4.05231e-17
326 1 185.081 0.879272 -4.05231e-17
327 1 35.8309 45.7883 -4.05231e-17
328 2 32.9264 192.348 -4.05231e-17
329 2 28.6116 83.3388 -4.05231e-17
330 2 153.431 38.7415 -4.05231e-17
331 2 187.957 67.9162 -4.05231e-17
332 2 121.687 114.45 -4.05231e-17
333 2 27.9752 151.264 -4.05231e-17
334 2 215.892 18.2771 -4.05231e-17
335 1 167.02 211.01 -4.05231e-17
336 2 27.8933 142.135 -4.05231e-17
337 2 40.8363 9.70304 -4.05231e-17
338 1 203.568 90.3664 -4.05231e-17
339 2 15.0302 152.524 -4.05231e-17
340 2 177.046 214.091 -4.05231e-17
341 2 101.249 60.3803 -4.05231e-17
342 2 173.307 166.956 -4.05231e-17
343 2 176.094 4.77622 -4.05231e-17
344 1 88 105.523 -4.05231e-17
345 2 26.8025 213.082 -4.05231e-17
346 2 74.992 72.9871 -4.05231e-17
347 1 148.041 98.5694 -4.05231e-17
348 1 181.325 3.69938 -4.05231e-17
349 2 173.23 69.8979 -4.05231e-17
350 2 77.7326 178.66 -4.05231e-17
351 1 174.69 141.255 -4.05231e-17
352 1 212.704 163.571 -4.05231e-17
353 2 140.861 132.022 -4.05231e-17
354 2 191.769 176.311 -4.05231e-17
355 1 216.032 157.286 -4.05231e-17
356 2 114.841 1.62251 -4.05231e-17
357 1 126.843 192.799 -4.05231e-17
358 1 77.9125 25.9495 -4.05231e-17
359 1 35.0138 144.196 -4.05231e-17
360 1 51.4337 8.04453 -4.05231e-17
361 2 196.633 68.3985 -4.05231e-17
362 2 172.534 94.5952 -4.05231e-17
363 1 79.0726 215.217 -4.05231e-17
364 2 217.158 46.5057 -4.05231e-17
365 1 5.83899 164.302 -4.05231e-17
366 1 82.4662 173.057 -4.05231e-17
367 1 161.222 104.006 -4.05231e-17
368 1 20.6141 164.638 -4.05231e-17
369 2 81.479 143.619 -4.05231e-17
370 1 6.40963 132.357 -4.05231e-17
371 2 71.3599 111.386 -4.05231e-17
372 1 87.9004 6.7616 -4.05231e-17
373 2 117.972 208.658 -4.05231e-17
374 2 177.094 101.553 -4.05231e-17
375 1 136.286 25.9873 -4.05231e-17
376 1 121.777 147.519 -4.05231e-17
377 2 95.2851 76.0864 -4.05231e-17
378 2 215.512 107.002 -4.05231e-17
379 2 169.49 187.473 -4.05231e-17
380 1 199.602 34.0621 -4.05231e-17
381 1 175.081 67.8043 -4.05231e-17
382 1 122.346 26.8788 -4.05231e-17
383 1 110.504 83.0631 -4.05231e-17
384 2 54.2345 100.994 -4.05231e-17
385 1 66.0628 148.821 -4.05231e-17
386 2 179.794 175.465 -4.05231e-17
387 1 34.5764 107.371 -4.05231e-17
388 1 143.755 164.26 -4.05231e-17
389 2 215.987 121.465 -4.05231e-17
390 1 104.844 66.1482 -4.05231e-17
391 1 203.426 217.514 -4.05231e-17
392 2 4.27357 100.526 -4.05231e-17
393 2 192.625 173.455 -4.05231e-17
394 1 36.5777 203.928 -4.05231e-17
395 1 19.444 215.025 -4.05231e-17
396 2 75.4084 88.3177 -4.05231e-17
397 1 67.6117 41.9103 -4.05231e-17
398 2 165.717 110.948 -4.05231e-17
399 2 197.244 106.856 -4.05231e-17
400 2 123.731 69.042 -4.05231e-17
401 2 84.0514 190.693 -4.05231e-17
402 1 84.4147 43.051 -4.05231e-17
403 1 69.681 116.367 -4.05231e-17
404 2 112.82 13.8866 -4.05231e-17
405 1 49.1801 196.978 -4.05231e-17
406 2 217.125 95.5255 -4.05231e-17
407 1 123.884 78.692 -4.05231e-17
408 1 130.163 29.2743 -4.05231e-17
409 2 214.425 116.162 -4.05231e-17
410 2 70.5275 158.95 -4.05231e-17
411 1 136.606 96.9758 -4.05231e-17
412 1 164.486 6.49045 -4.05231e-17
413 1 34.7323 85.9445 -4.05231e-17
414 2 193.267 202.202 -4.05231e-17
415 1 107.439 126.579 -4.05231e-17
416 1 176.058 51.7883 -4.05231e-17
417 2 107.629 129.297 -4.05231e-17
418 2 34.7009 179.767 -4.05231e-17
419 2 195.497 91.9606 -4.05231e-17
420 2 108.639 44.3228 -4.05231e-17
421 1 70.38 31.1148 -4.05231e-17
422 1 34.747 58.1661 -4.05231e-17
423 2 116.671 125.096 -4.05231e-17
424 2 39.23 24.691 -4.05231e-17
425 2 116.982 150.568 -4.05231e-17
426 1 186.041 96.873 -4.05231e-17
427 2 75.0337 60.7566 -4.05231e-17
428 1 29.3504 175.325 -4.05231e-17
429 2 131.145 150.36 -4.05231e-17
430 2 111.984 104.418 -4.05231e-17
431 1 13.3624 9.02401 -4.05231e-17
432 2 173.779 2.9714 -4.05231e-17
433 1 186.646 198.322 -4.05231e-17
434 1 20.3651 205.187 -4.05231e-17
435 1 149.973 85.1005 -4.05231e-17
436 2 85.1185 198.663 -4.05231e-17
437 2 181.196 82.5695 -4.05231e-17
438 2 194.42 177.412 -4.05231e-17
439 2 92.8863 10.5043 -4.05231e-17
440 2 201.435 92.0725 -4.05231e-17
441 1 130.712 167.563 -4.05231e-17
442 1 37.8336 104.821 -4.05231e-17
443 2 79.2534 82.0863 -4.05231e-17
444 1 204.754 105.209 -4.05231e-17
445 1 169.129 133.361 -4.05231e-17
446 2 182.956 150.877 -4.05231e-17
447 2 40.4491 40.217 -4.05231e-17
448 2 205.975 175.832 -4.05231e-17
449 1 41.154 177.184 -4.05231e-17
450 1 10.5734 126.495 -4.05231e-17
451 1 54.1179 209.408 -4.05231e-17
452 2 208.83 60.8988 -4.05231e-17
453 1 216.39 150.197 -4.05231e-17
454 1 3.26167 68.5952 -4.05231e-17
455 2 81.289 130.987 -4.05231e-17
456 1 85.0408 1.94469 -4.05231e-17
457 2 140.643 145.338 -4.05231e-17
458 2 155.784 135.788 -4.05231e-17
459 2 133.368 51.5188 -4.05231e-17
460 1 197.441 170.018 -4.05231e-17
461 1 112.108 128.562 -4.05231e-17
462 1 103.939 195.978 -4.05231e-17
463 2 110.137 218.525 -4.05231e-17
464 2 13.825 77.7936 -4.05231e-17
465 1 123.755 16.2893 -4.05231e-17
466 2 150.619 126.575 -4.05231e-17
467 2 65.9982 133.082 -4.05231e-17
468 2 124.165 125.361 -4.05231e-17
469 2 58.0491 71.7391 -4.05231e-17
470 2 208.758 154.755 -4.05231e-17
471 2 212.167 211.486 -4.05231e-17
472 2 111.155 36.6276 -4.05231e-17
473 2 198.078 214.644 -4.05231e-17
474 2 85.0189 146.773 -4.05231e-17
475 1 163.919 183.1 -4.05231e-17
476 2 174.924 34.6966 -4.05231e-17
477 1 208.538 217.788 -4.05231e-17
478 1 46.0782 188.086 -4.05231e-17
479 2 0.660537 197.688 -4.05231e-17
480 1 83.0473 62.0831 -4.05231e-17
481 1 2.97277 209.476 -4.05231e-17
482 2 152.496 176.865 -4.05231e-17
483 1 134.707 209.379 -4.05231e-17
484 1 66.1627 135.873 -4.05231e-17
485 2 13.4803 174.125 -4.05231e-17
486 1 132.669 72.8631 -4.05231e-17
487 1 13.0889 202.148 -4.05231e-17
488 1 49.883 83.865 -4.05231e-17
489 1 70.328 108.949 -4.05231e-17
490 1 164.618 73.2729 -4.05231e-17
491 1 163.159 75.3872 -4.05231e-17
492 2 208.946 15.5616 -4.05231e-17
493 1 94.0071 202.935 -4.05231e-17
494 2 77.9193 66.4032 -4.05231e-17
495 1 150.257 91.9857 -4.05231e-17
496 1 52.1797 123.646 -4.05231e-17
497 1 137.019 109.951 -4.05231e-17
498 2 145.428 39.029 -4.05231e-17
499 2 177.596 118.817 -4.05231e-17
500 2 57.2626 32.7785 -4.05231e-17
501 2 14.0432 139.512 -4.05231e-17
502 2 190.653 126.47 -4.05231e-17
503 2 57.8304 63.7714 -4.05231e-17
504 2 98.2267 50.4334 -4.05231e-17
505 2 111.991 213.924 -4.05231e-17
506 1 207.164 6.19496 -4.05231e-17
507 2 49.6078 181.868 -4.05231e-17
508 1 140.802 59.2409 -4.05231e-17
509 1 209.415 47.4505 -4.05231e-17
510 1 195.516 104.002 -4.05231e-17
511 2 108.083 179.534 -4.05231e-17
512 1 11.1171 42.326 -4.05231e-17
513 2 87.6779 183.075 -4.05231e-17
514 2 15.3186 87.377 -4.05231e-17
515 1 60.569 98.5986 -4.05231e-17
516 2 101.151 74.0416 -4.05231e-17
517 1 32.3707 147.857 -4.05231e-17
518 2 10.4145 13.8026 -4.05231e-17
519 1 125.268 91.8644 -4.05231e-17
520 2 209.524 93.7158 -4.05231e-17
521 2 130.12 39.7054 -4.05231e-17
522 1 187.052 7.16773 -4.05231e-17
523 1 127.67 99.5109 -4.05231e-17
524 2 175.274 18.6838 -4.05231e-17
525 2 185.234 45.6019 -4.05231e-17
526 2 107.893 16.2312 -4.05231e-17
527 1 170.666 25.1172 -4.05231e-17
528 1 213.097 202.017 -4.05231e-17
529 2 104.275 176.43 -4.05231e-17
530 2 18.7317 88.1623 -4.05231e-17
531 2 184.651 171.762 -4.05231e-17
532 1 81.3611 5.13283 -4.05231e-17
533 2 23.3268 158.038 -4.05231e-17
534 1 22.509 168.612 -4.05231e-17
535 1 169.976 206.762 -4.05231e-17
536 2 18.0144 169.849 -4.05231e-17
537 1 142.561 29.1804 -4.05231e-17
538 1 68.2063 157.887 -4.05231e-17
539 2 80.9636 162.93 -4.05231e-17
540 1 35.2451 182.348 -4.05231e-17
541 1 105.052 128.624 -4.05231e-17
542 1 58.4975 126.496 -4.05231e-17
543 2 120.13 168.639 -4.05231e-17
544 1 217.83 211.388 -4.05231e-17
545 1 174.835 72.1308 -4.05231e-17
546 2 186.983 9.92012 -4.05231e-17
547 1 12.773 71.5282 -4.05231e-17
548 1 29.5831 5.53514 -4.05231e-17
549 2 35.2361 152.631 -4.05231e-17
550 2 164.599 193.601 -4.05231e-17
551 2 38.8218 7.21926 -4.05231e-17
552 1 31.904 51.7051 -4.05231e-17
553 2 207.167 196.793 -4.05231e-17
554 2 144.258 33.9892 -4.05231e-17
555 2 177.836 134.362 -4.05231e-17
556 1 177.962 211.632 -4.05231e-17
557 1 211.215 54.3129 -4.05231e-17
558 1 60.1519 142.779 -4.05231e-17
559 2 106.33 91.7076 -4.05231e-17
560 2 57.3047 89.3476 -4.05231e-17
561 2 110.613 181.602 -4.05231e-17
562 2 99.106 66.0061 -4.05231e-17
563 1 73.154 167.892 -4.05231e-17
564 2 103.375 78.8319 -4.05231e-17
565 2 33.8087 65.1547 -4.05231e-17
566 2 64.5083 60.6511 -4.05231e-17
567 1 95.1241 11.8715 -4.05231e-17
568 1 22.4819 78.0996 -4.05231e-17
569 2 141.429 194.558 -4.05231e-17
570 2 11.5563 21.3098 -4.05231e-17
571 2 5.31801 61.8815 -4.05231e-17
572 1 115.43 107.625 -4.05231e-17
573 2 38.0793 89.5799 -4.05231e-17
574 2 178.698 170.468 -4.05231e-17
575 1 196.261 206.631 -4.05231e-17
576 1 25.6812 68.408 -4.05231e-17
577 1 127.796 74.8427 -4.05231e-17
578 1 183.957 114.982 -4.05231e-17
579 2 182.408 44.4946 -4.05231e-17
580 1 109.324 104.052 -4.05231e-17
581 1 91.4057 146.408 -4.05231e-17
582 2 125.653 101.218 -4.05231e-17
583 2 103.375 84.118 -4.05231e-17
584 2 106.86 151.375 -4.05231e-17
585 1 182.152 103.169 -4.05231e-17
586 1 143.684 79.8914 -4.05231e-17
587 1 158.217 111.807 -4.05231e-17
588 2 64.4316 108.883 -4.05231e-17
589 1 210.997 59.3839 -4.05231e-17
590 2 181.688 58.0675 -4.05231e-17
591 2 178.881 16.3332 -4.05231e-17
592 1 203.981 128.945 -4.05231e-17
593 1 127.304 90.1431 -4.05231e-17
594 1 5.36882 70.0329 -4.05231e-17
595 1 33.3192 62.3787 -4.05231e-17
596 2 107.083 71.3933 -4.05231e-17
597 2 63.7069 105.802 -4.05231e-17
598 2 136.068 87.5875 -4.05231e-17
599 2 96.9473 165.901 -4.05231e-17
600 2 49.3409 98.9839 -4.05231e-17
601 1 145.922 107.683 -4.05231e-17
602 1 173.724 51.9035 -4.05231e-17
603 2 216.639 159.83 -4.05231e-17
604 1 45.7826 178.991 -4.05231e-17
605 2 140.189 100.408 -4.05231e-17
606 2 150.452 98.9421 -4.05231e-17
607 2 47.4648 169.451 -4.05231e-17
608 2 128.123 30.9919 -4.05231e-17
609 1 77.8584 89.3372 -4.05231e-17
610 2 105.892 200.229 -4.05231e-17
611 1 1.56132 165.404 -4.05231e-17
612 1 207.136 117.877 -4.05231e-17
613 2 213.469 156.687 -4.05231e-17
614 1 202.601 30.5791 -4.05231e-17
615 1 152.472 104.1 -4.05231e-17
616 2 145.43 177.984 -4.05231e-17
617 1 168.603 0.904506 -4.05231e-17
618 1 137.01 216.702 -4.05231e-17
619 1 164.088 161.134 -4.05231e-17
620 2 42.8451 89.0598 -4.05231e-17
621 2 203.817 77.1677 -4.05231e-17
622 2 144.639 154.678 -4.05231e-17
623 2 108.336 147.113 -4.05231e-17
624 1 106.796 177.254 -4.05231e-17
625 2 208.843 79.7018 -4.05231e-17
626 1 210.874 189.975 -4.05231e-17
627 2 195.288 192.852 -4.05231e-17
628 1 116.456 156.041 -4.05231e-17
629 1 30.4395 40.9321 -4.05231e-17
630 2 133.236 214.206 -4.05231e-17
631 2 144.585 115.242 -4.05231e-17
632 2 208.927 20.0303 -4.05231e-17
633 2 60.9111 131.743 -4.05231e-17
634 2 191.472 67.78 -4.05231e-17
635 2 80.1231 72.499 -4.05231e-17
636 1 88.2546 130.94 -4.05231e-17
637 1 216.984 152.874 -4.05231e-17
638 1 116.522 69.3447 -4.05231e-17
639 2 200.767 65.4103 -4.05231e-17
640 2 149.369 77.9992 -4.05231e-17
641 1 200.342 96.7557 -4.05231e-17
642 2 161.671 35.4159 -4.05231e-17
643 1 165.5 57.7123 -4.05231e-17
644 2 139.293 155.016 -4.05231e-17
645 2 5.62548 75.3971 -4.05231e-17
646 1 169.672 142.713 -4.05231e-17
647 2 128.901 148.239 -4.05231e-17
648 2 190.456 211.505 -4.05231e-17
649 1 63.5889 145.39 -4.05231e-17
650 1 56.083 153.253 -4.05231e-17
651 1 112.371 130.939 -4.05231e-17
652 2 8.51871 214.076 -4.05231e-17
653 2 195.394 45.2615 -4.05231e-17
654 1 208.489 164.715 -4.05231e-17
655 1 63.5967 47.593 -4.05231e-17
656 1 199.115 10.447 -4.05231e-17
657 1 125.148 120.381 -4.05231e-17
658 2 165.984 105.584 -4.05231e-17
659 2 101.486 137.47 -4.05231e-17
660 1 25.1621 11.9613 -4.05231e-17
661 2 15.9407 36.9031 -4.05231e-17
662 2 135.919 116.88 -4.05231e-17
663 1 163.705 112.88 -4.05231e-17
664 1 79.978 138.297 -4.05231e-17
665 1 135.718 144.186 -4.05231e-17
666 1 203.115 185.324 -4.05231e-17
667 1 0.467029 117.062 -4.05231e-17
668 1 134.023 157.13 -4.05231e-17
669 1 107.115 160.866 -4.05231e-17
670 2 211.893 161.055 -4.05231e-17
671 1 3.47664 16.0077 -4.05231e-17
672 1 193.096 141.694 -4.05231e-17
673 2 47.4246 85.0452 -4.05231e-17
674 2 182.737 205.305 -4.05231e-17
675 2 152.406 2.13091 -4.05231e-17
676 1 180.408 160.176 -4.05231e-17
677 2 53.4529 53.2193 -4.05231e-17
678 1 86.777 113.45 -4.05231e-17
679 1 87.3289 65.5159 -4.05231e-17
680 2 71.8653 13.9201 -4.05231e-17
681 1 5.37394 9.04821 -4.05231e-17
682 1 141.588 171.817 -4.05231e-17
683 2 96.3587 123.371 -4.05231e-17
684 1 23.1895 180.642 -4.05231e-17
685 1 83.7314 206.313 -4.05231e-17
686 1 142.728 159.776 -4.05231e-17
687 1 107.985 53.1885 -4.05231e-17
688 1 152.166 97.0229 -4.05231e-17
689 2 10.2417 139.573 -4.05231e-17
690 1 48.3626 120.837 -4.05231e-17
691 2 64.737 115.296 -4.05231e-17
692 2 180.463 178.626 -4.05231e-17
693 1 161.701 96.0232 -4.05231e-17
694 2 146.964 149.857 -4.05231e-17
695 2 188.014 36.7269 -4.05231e-17
696 2 31.5383 82.3648 -4.05231e-17
697 1 104.11 35.925 -4.05231e-17
698 2 40.8915 18.2008 -4.05231e-17
699 1 57.2069 202.742 -4.05231e-17
700 2 17.9372 126.458 -4.05231e-17
701 2 30.999 63.7336 -4.05231e-17
702 1 160.706 9.68362 -4.05231e-17
703 1 196.061 60.7441 -4.05231e-17
704 1 159.702 121.892 -4.05231e-17
705 1 43.3575 120.572 -4.05231e-17
706 1 75.241 161.68 -4.05231e-17
707 1 182.318 66.6421 -4.05231e-17
708 2 195.468 101.411 -4.05231e-17
709 1 54.1055 160.28 -4.05231e-17
710 2 91.7396 16.5374 -4.05231e-17
711 2 1.37594 139.418 -4.05231e-17
712 1 84.4267 213.717 -4.05231e-17
713 1 4.95052 152.274 -4.05231e-17
714 2 145.109 147.454 -4.05231e-17
715 2 133.309 86.9699 -4.05231e-17
716 1 87.0044 61.3036 -4.05231e-17
717 1 15.0341 61.2397 -4.05231e-17
718 2 78.6152 99.7518 -4.05231e-17
719 1 68.7636 203.038 -4.05231e-17
720 2 51.778 197.031 -4.05231e-17
721 2 44.0694 213.17 -4.05231e-17
722 2 65.5036 138.313 -4.05231e-17
723 2 15.5058 166.017 -4.05231e-17
724 2 202.547 107.088 -4.05231e-17
725 2 21.9397 50.1822 -4.05231e-17
726 2 177.737 123.685 -4.05231e-17
727 2 35.2352 109.823 -4.05231e-17
728 1 176.56 77.0212 -4.05231e-17
729 2 167.308 131.454 -4.05231e-17
730 2 175.513 94.3681 -4.05231e-17
731 1 9.8813 23.3748 -4.05231e-17
732 2 98.4069 87.249 -4.05231e-17
733 2 147.87 146.589 -4.05231e-17
734 2 59.2804 191.789 -4.05231e-17
735 2 149.267 71.8164 -4.05231e-17
736 1 182.163 176.573 -4.05231e-17
737 2 48.5855 39.7373 -4.05231e-17
738 2 71.3855 207.888 -4.05231e-17
739 2 185.818 131.116 -4.05231e-17
740 2 40.5238 115.747 -4.05231e-17
741 2 200.669 114.044 -4.05231e-17
742 1 71.6942 98.8495 -4.05231e-17
743 2 78.6416 76.0067 -4.05231e-17
744 1 147.039 49.9564 -4.05231e-17
745 2 15.7521 75.6295 -4.05231e-17
746 1 218.628 121.807 -4.05231e-17
747 1 98.4529 163.374 -4.05231e-17
748 2 70.1341 197.971 -4.05231e-17
749 1 213.528 166.005 -4.05231e-17
750 1 139.533 148.063 -4.05231e-17
751 1 143.423 88.9247 -4.05231e-17
752 2 195.195 168.491 -4.05231e-17
753 1 36.9806 180.652 -4.05231e-17
754 2 65.9004 81.0313 -4.05231e-17
755 1 6.55646 80.6001 -4.05231e-17
756 2 178.426 58.2487 -4.05231e-17
757 1 110.404 15.1302 -4.05231e-17
758 2 99.4853 28.1398 -4.05231e-17
759 1 95.8629 133.573 -4.05231e-17
760 1 171.263 61.4695 -4.05231e-17
761 2 213.457 101.006 -4.05231e-17
762 1 178.683 105.876 -4.05231e-17
763 2 6.25445 157.325 -4.05231e-17
764 2 43.3701 188.278 -4.05231e-17
765 1 21.8171 160.154 -4.05231e-17
766 2 100.139 48.1459 -4.05231e-17
767 2 206.179 148.824 -4.05231e-17
768 2 72.3987 62.5422 -4.05231e-17
769 2 188.284 98.2825 -4.05231e-17
770 1 133.834 18.2384 -4.05231e-17
771 1 64.6655 63.59 -4.05231e-17
772 1 128.667 0.882028 -4.05231e-17
773 2 166.222 172.178 -4.05231e-17
774 1 88.339 87.0984 -4.05231e-17
775 1 102.776 76.0454 -4.05231e-17
776 2 192.857 103.351 -4.05231e-17
777 2 42.2744 80.0038 -4.05231e-17
778 1 83.34 12.9989 -4.05231e-17
779 1 47.992 61.3353 -4.05231e-17
780 2 83.4151 49.885 -4.05231e-17
781 1 25.892 171.87 -4.05231e-17
782 2 122.744 170.388 -4.05231e-17
783 1 74.6988 63.2184 -4.05231e-17
784 2 96.6704 110.465 -4.05231e-17
785 1 204.648 82.598 -4.05231e-17
786 1 41.4789 6.95674 -4.05231e-17
787 2 38.5622 208.591 -4.05231e-17
788 2 164.814 180.615 -4.05231e-17
789 2 18.1701 147.013 -4.05231e-17
790 2 77.4457 8.09962 -4.05231e-17
791 2 186.597 53.8259 -4.05231e-17
792 1 212.957 132.587 -4.05231e-17
793 1 96.6989 171.814 -4.05231e-17
794 2 209.594 6.58102 -4.05231e-17
795 2 10.5952 191.681 -4.05231e-17
796 1 69.3799 215.526 -4.05231e-17
797 1 46.395 32.5503 -4.05231e-17
798 1 213.53 55.7769 -4.05231e-17
799 2 105.419 155.685 -4.05231e-17
800 1 56.6676 37.5193 -4.05231e-17
801 2 68.3966 84.8566 -4.05231e-17
802 1 91.0066 216.447 -4.05231e-17
803 1 143.039 24.6945 -4.05231e-17
804 1 210.226 125.174 -4.05231e-17
805 2 183.84 117.774 -4.05231e-17
806 2 178.46 158.276 -4.05231e-17
807 2 208.492 29.3487 -4.05231e-17
808 2 76.2231 144.616 -4.05231e-17
809 1 175.893 63.1995 -4.05231e-17
810 2 24.2122 173.767 -4.05231e-17
811 2 179.995 55.7546 -4.05231e-17
812 1 121.652 185.009 -4.05231e-17
813 1 22.1678 95.7873 -4.05231e-17
814 1 3.00463 204.805 -4.05231e-17
815 1 146.099 32.0267 -4.05231e-17
816 1 206.857 51.1609 -4.05231e-17
817 2 62.7838 71.3405 -4.05231e-17
818 2 29.3817 123.193 -4.05231e-17
819 2 210.915 67.9678 -4.05231e-17
820 1 9.97546 58.9225 -4.05231e-17
821 1 65.2101 58.1613 -4.05231e-17
822 2 131.336 34.4856 -4.05231e-17
823 1 184.382 90.0913 -4.05231e-17
824 1 175.989 89.7426 -4.05231e-17
825 1 160.297 191.045 -4.05231e-17
826 2 178.472 81.7314 -4.05231e-17
827 2 102.417 27.3286 -4.05231e-17
828 1 50.6268 91.4998 -4.05231e-17
829 2 127.865 92.654 -4.05231e-17
830 1 3.75682 156.65 -4.05231e-17
831 2 183.404 217.854 -4.05231e-17
832 2 26.8803 52.2267 -4.05231e-17
833 2 96.4259 41.9278 -4.05231e-17
834 1 70.7666 164.086 -4.05231e-17
835 1 184.787 141.262 -4.05231e-17
836 1 153.115 69.4529 -4.05231e-17
837 2 168.228 92.1123 -4.05231e-17
838 2 91.7594 26.5711 -4.05231e-17
839 1 39.2429 31.8536 -4.05231e-17
840 2 13.8895 117.348 -4.05231e-17
841 2 201.76 10.238 -4.05231e-17
842 1 172.877 159.811 -4.05231e-17
843 1 204.99 29.9457 -4.05231e-17
844 2 8.72259 25.8047 -4.05231e-17
845 1 47.0601 150.875 -4.05231e-17
846 2 127.631 211.329 -4.05231e-17
847 1 88.418 143.023 -4.05231e-17
848 2 112.558 8.83539 -4.05231e-17
849 1 24.8132 32.8626 -4.05231e-17
850 2 59.989 67.5142 -4.05231e-17
851 2 216.119 30.8331 -4.05231e-17
852 1 136.896 182.978 -4.05231e-17
853 1 186.107 104.976 -4.05231e-17
854 2 104.036 144.824 -4.05231e-17
855 2 165.727 120.832 -4.05231e-17
856 1 77.4193 160.301 -4.05231e-17