ITEM: TIMESTEP
0
ITEM: NUMBER OF ATOMS
7200
ITEM: BOX BOUNDS xy xz yz pp pp pp
0.0000000000000000e+00 2.1900000000000000e+02 0.0000000000000000e+00
0.0000000000000000e+00 2.1900000000000000e+02 0.0000000000000000e+00
-3.6499999999999999e-01 3.6499999999999999e-01 0.0000000000000000e+00
ITEM: ATOMS id type x y z
1 1 194.395 217.418 -4.05231e-17
2 2 215.505 5.13979 -4.05231e-17
3 2 107.089 170.2 -4.05231e-17
4 1 123.364 113.642 -4.05231e-17
5 1 70.4941 101.399 -4.05231e-17
6 1 144.88 13.2244 -4.05231e-17
7 2 181.479 167.29 -4.05231e-17
8 2 119.345 18.238 -4.05231e-17
9 1 17.8773 198.269 -4.05231e-17
10 2 37.6625 177.876 -4.05231e-17
11 2 164.162 104.903 -4.05231e-17
12 1 31.0647 201.385 -4.05231e-17
13 2 190.794 75.2132 -4.05231e-17
14 1 73.31 162.984 -4.05231e-17
15 2 201.631 6.15314 -4.05231e-17
16 2 212.344 112.102 -4.05231e-17
17 1 56.2601 34.0044 -4.05231e-17
18 2 20.4637 161.368 -4.05231e-17
19 1 52.8145 127.6 -4.05231e-17
20 1 103.64 17.948 -4.05231e-17
21 1 168.462 148.971 -4.05231e-17
22 2 38.0074 16.8294 -4.05231e-17
23 2 44.1572 179.303 -4.05231e-17
24 2 1.60501 117.968 -4.05231e-17
25 2 15.9538 188.442 -4.05231e-17
26 2 108.806 194.658 -4.05231e-17
27 1 5.99991 158.81 -4.05231e-17
28 2 36.0548 137.561 -4.05231e-17
29 2 111.089 44.7022 -4.05231e-17
30 2 140.629 71.6014 -4.05231e-17
31 2 156.011 86.2244 -4.05231e-17
32 1 54.0906 125.102 -4.05231e-17
33 2 147.668 89.4766 -4.05231e-17
34 2 63.1428 104.013 -4.05231e-17
35 2 88.8289 59.3953 -4.05231e-17
36 1 150.316 147.885 -4.05231e-17
37 1 160.709 167.541 -4.05231e-17
38 2 3.41753 154.003 -4.05231e-17
39 1 1.88057 57.2218 -4.05231e-17
40 2 198.335 103.201 -4.05231e-17
41 1 192.701 50.2905 -4.05231e-17
42 1 126.181 51.434 -4.05231e-17
43 1 179.133 155.582 -4.05231e-17
44 1 166.498 144.046 -4.05231e-17
45 2 91.82 21.624 -4.05231e-17
46 1 144.461 181.496 -4.05231e-17
47 2 184.666 22.8479 -4.05231e-17
48 2 203.548 132.66 -4.05231e-17
49 1 194.07 0.714302 -4.05231e-17
50 2 30.7726 89.628 -4.05231e-17
51 1 184.349 216.577 -4.05231e-17
52 1 143.106 70.6363 -4.05231e-17
53 2 114.77 195.914 -4.05231e-17
54 1 30.9987 28.6594 -4.05231e-17
55 2 55.9899 132.127 -4.05231e-17
56 1 27.9476 126.671 -4.05231e-17
57 2 217.99 87.676 -4.05231e-17
58 1 208.94 47.3763 -4.05231e-17
59 1 156.909 88.559 -4.05231e-17
60 2 195.021 73.1005 -4.05231e-17
61 1 161.595 143.177 -4.05231e-17
62 1 105.42 124.056 -4.05231e-17
63 2 73.7452 204.569 -4.05231e-17
64 1 24.4536 34.523 -4.05231e-17
65 2 166.959 113.086 -4.05231e-17
66 2 16.348 125.21 -4.05231e-17
67 2 170.96 91.1235 -4.05231e-17
68 1 139.705 87.6512 -4.05231e-17
69 2 162.979 163.273 -4.05231e-17
70 1 142.002 102.213 -4.05231e-17
71 1 196.186 111.712 -4.05231e-17
72 2 39.7734 144.806 -4.05231e-17
73 2 16.3943 177.141 -4.05231e-17
74 2 107.974 14.9213 -4.05231e-17
75 1 75.8712 100.874 -4.05231e-17
76 2 150.28 157.261 -4.05231e-17
77 2 199.588 200.468 -4.05231e-17
78 1 119.598 178.169 -4.05231e-17
79 2 53.7361 56.1855 -4.05231e-17
80 1 17.2456 66.0763 -4.05231e-17
81 1 164.257 170.119 -4.05231e-17
82 1 171.891 70.1463 -4.05231e-17
83 1 53.7427 45.9573 -4.05231e-17
84 2 136.738 6.72135 -4.05231e-17
85 2 159.86 184.919 -4.05231e-17
86 2 18.9518 38.1624 -4.05231e-17
87 2 35.0417 101.24 -4.05231e-17
88 1 71.3795 142.558 -4.05231e-17
89 2 141.353 141.26 -4.05231e-17
90 2 160.48 55.9893 -4.05231e-17
91 2 39.9885 199.612 -4.05231e-17
92 1 0.969658 217.165 -4.05231e-17
93 2 104.774 168.448 -4.05231e-17
94 2 163.112 109.646 -4.05231e-17
95 1 199.993 38.3058 -4.05231e-17
96 2 5.53301 51.3573 -4.05231e-17
97 2 17.0314 214.691 -4.05231e-17
98 2 35.0702 24.8941 -4.05231e-17
99 1 89.4396 47.1953 -4.05231e-17
100 2 181.254 22.894 -4.05231e-17
101 1 186.154 149.676 -4.05231e-17
102 1 47.1569 158.673 -4.05231e-17
103 2 13.129 103.96 -4.05231e-17
104 2 30.9933 67.1538 -4.05231e-17
105 1 200.696 1.31939 -4.05231e-17
106 1 188.041 75.2963 -4.05231e-17
107 1 179.179 132.408 -4.05231e-17
108 1 59.1569 8.82268 -4.05231e-17
109 2 66.5056 23.2093 -4.05231e-17
110 2 139.982 214.152 -4.05231e-17
111 1 12.6685 72.8994 -4.05231e-17
112 2 2.14063 105.387 -4.05231e-17
113 1 143.553 7.91295 -4.05231e-17
114 1 52.7576 104.93 -4.05231e-17
115 2 12.0357 78.6589 -4.05231e-17
116 2 139.17 23.8703 -4.05231e-17
117 1 125.242 136.096 -4.05231e-17
118 1 108.19 105.296 -4.05231e-17
119 2 70.5312 127.708 -4.05231e-17
120 2 173.96 74.9798 -4.05231e-17
121 1 7.59574 122.769 -4.05231e-17
122 2 140.763 150.932 -4.05231e-17
123 2 20.4389 136.784 -4.05231e-17
124 1 130.804 193.594 -4.05231e-17
125 1 131.165 158.362 -4.05231e-17
126 2 69.1086 79.212 -4.05231e-17
127 2 29.8574 50.5221 -4.05231e-17
128 1 121.686 108.442 -4.05231e-17
129 1 127.036 163.573 -4.05231e-17
130 2 148.729 205.513 -4.05231e-17
131 1 128.253 82.8076 -4.05231e-17
132 1 140.823 196.083 -4.05231e-17
133 1 211.97 129.401 -4.05231e-17
134 1 91.9589 185.887 -4.05231e-17
135 2 175.681 31.8245 -4.05231e-17
136 1 148.152 151.781 -4.05231e-17
137 1 83.7539 206.467 -4.05231e-17
138 2 143.625 122.692 -4.05231e-17
139 1 106.702 48.1275 -4.05231e-17
140 1 159.651 212.283 -4.05231e-17
141 1 54.1849 38.7555 -4.05231e-17
142 1 2.67521 204.358 -4.05231e-17
143 1 16.6644 35.6871 -4.05231e-17
144 1 13.228 67.9119 -4.05231e-17
145 2 217.508 40.1723 -4.05231e-17
146 1 207.002 117.445 -4.05231e-17
147 2 19.4959 87.2984 -4.05231e-17
148 1 3.26927 78.3896 -4.05231e-17
149 1 201.734 142.082 -4.05231e-17
150 2 79.6401 89.6353 -4.05231e-17
151 1 117.136 129.235 -4.05231e-17
152 1 209.304 180.214 -4.05231e-17
153 2 89.452 134.121 -4.05231e-17
154 1 168.978 35.7755 -4.05231e-17
155 2 199.353 66.6866 -4.05231e-17
156 2 105.189 165.537 -4.05231e-17
157 2 192.438 193.981 -4.05231e-17
158 2 79.5719 213.789 -4.05231e-17
159 2 48.9869 164.533 -4.05231e-17
160 2 37.9335 71.6054 -4.05231e-17
161 2 111.647 115.155 -4.05231e-17
162 1 205.324 82.6593 -4.05231e-17
163 1 42.004 58.051 -4.05231e-17
164 2 108.701 150.57 -4.05231e-17
165 1 216.679 69.8633 -4.05231e-17
166 2 13.1005 211.241 -4.05231e-17
167 1 97.349 185.413 -4.05231e-17
168 1 196.669 190.47 -4.05231e-17
169 2 48.573 190.082 -4.05231e-17
170 1 109.151 201.848 -4.05231e-17
171 1 137.527 96.3452 -4.05231e-17
172 1 22.4793 184.916 -4.05231e-17
173 1 54.0967 149.021 -4.05231e-17
174 2 49.1476 176.56 -4.05231e-17
175 2 120.239 47.7437 -4.05231e-17
176 1 100.516 162.013 -4.05231e-17
177 2 120.343 3.337 -4.05231e-17
178 1 26.1278 21.4411 -4.05231e-17
179 2 112.453 11.3768 -4.05231e-17
180 1 26.3216 124.897 -4.05231e-17
181 1 16.0042 107.541 -4.05231e-17
182 1 95.6434 138.024 -4.05231e-17
183 1 31.5947 139.273 -4.05231e-17
184 2 169.324 207.362 -4.05231e-17
185 2 209.646 89.8292 -4.05231e-17
186 2 72.8339 210.825 -4.05231e-17
187 2 150.512 181.15 -4.05231e-17
188 2 27.5198 211.79 -4.05231e-17
189 1 169.32 25.5892 -4.05231e-17
190 1 140.8 52.1498 -4.05231e-17
191 2 0.0942275 107.665 -4.05231e-17
192 2 80.9024 60.5396 -4.05231e-17
193 1 165.618 163.77 -4.05231e-17
194 1 39.8482 62.2606 -4.05231e-17
195 2 58.8666 91.981 -4.05231e-17
196 1 11.7613 195.453 -4.05231e-17
197 2 85.4456 104.451 -4.05231e-17
198 2 195.966 31.8898 -4.05231e-17
199 2 83.1303 159.371 -4.05231e-17
200 2 30.4785 47.363 -4.05231e-17
201 2 124.755 164.914 -4.05231e-17
202 1 145.29 71.5669 -4.05231e-17
203 1 46.6888 46.2709 -4.05231e-17
204 2 3.36952 108.431 -4.05231e-17
205 2 6.60036 196.331 -4.05231e-17
206 2 192.445 147.293 -4.05231e-17
207 1 39.7495 196.981 -4.05231e-17
208 2 133.137 17.4698 -4.05231e-17
209 2 19.3293 147.365 -4.05231e-17
210 1 7.94889 63.1521 -4.05231e-17
211 1 197.721 50.4376 -4.05231e-17
212 1 57.9373 89.4347 -4.05231e-17
213 1 128.013 127.181 -4.05231e-17
214 2 8.93447 19.2906 -4.05231e-17
215 1 37.5479 139.628 -4.05231e-17
216 1 110.503 42.2708 -4.05231e-17
217 1 181.852 14.7651 -4.05231e-17
218 2 205.035 163.267 -4.05231e-17
219 2 153.053 191.675 -4.05231e-17
220 1 123.654 29.4686 -4.05231e-17
221 2 46.1484 69.8286 -4.05231e-17
222 1 178.634 124.572 -4.05231e-17
223 1 1.77248 131.074 -4.05231e-17
224 2 141.994 65.4 -4.05231e-17
225 2 125.65 186.881 -4.05231e-17
226 1 2.27775 9.03024 -4.05231e-17
227 2 212.511 218.598 -4.05231e-17
228 2 82.8109 89.481 -4.05231e-17
229 1 16.8916 9.2646 -4.05231e-17
230 1 26.7972 83.3155 -4.05231e-17
231 2 164.488 138.679 -4.05231e-17
232 1 15.0215 12.2411 -4.05231e-17
233 2 64.0547 15.0185 -4.05231e-17
234 1 155.008 27.4902 -4.05231e-17
235 1 161.311 111.892 -4.05231e-17
236 2 145.586 43.5671 -4.05231e-17
237 2 114.791 171.172 -4.05231e-17
238 2 110.448 117.866 -4.05231e-17
239 1 34.2274 210.535 -4.05231e-17
240 1 129.113 91.7233 -4.05231e-17
241 2 7.89014 117.169 -4.05231e-17
242 1 164.208 38.2698 -4.05231e-17
243 2 205.877 170.64 -4.05231e-17
244 2 22.9707 12.2711 -4.05231e-17
245 1 190.214 195.507 -4.05231e-17
246 2 113.13 106.422 -4.05231e-17
247 2 135.647 139.114 -4.05231e-17
248 1 88.001 29.1822 -4.05231e-17
249 1 132.026 111.406 -4.05231e-17
250 1 146.592 31.0195 -4.05231e-17
251 2 99.9648 63.3038 -4.05231e-17
252 1 125.642 184.137 -4.05231e-17
253 2 52.7635 115.182 -4.05231e-17
254 2 217.245 202.453 -4.05231e-17
255 2 93.6075 79.0687 -4.05231e-17
256 1 37.0512 203.449 -4.05231e-17
257 2 46.2568 184.001 -4.05231e-17
258 1 195.575 99.3997 -4.05231e-17
259 2 180.921 130.74 -4.05231e-17
260 1 18.348 134.841 -4.05231e-17
261 2 121.067 168.102 -4.05231e-17
262 2 197.105 97.2155 -4.05231e-17
263 2 112.02 190.293 -4.05231e-17
264 1 139.418 68.9922 -4.05231e-17
265 1 118.028 204.624 -4.05231e-17
266 1 46.9099 178.374 -4.05231e-17
267 2 126.45 10.014 -4.05231e-17
268 1 2.46828 64.6402 -4.05231e-17
269 2 30.443 86.3341 -4.05231e-17
270 2 11.213 174.884 -4.05231e-17
271 2 182.751 79.7578 -4.05231e-17
272 1 87.4011 209.486 -4.05231e-17
273 1 31.6911 79.576 -4.05231e-17
274 1 216.52 172.351 -4.05231e-17
275 1 141.185 121.722 -4.05231e-17
276 1 195.932 80.0143 -4.05231e-17
277 1 93.9441 17.2845 -4.05231e-17
278 2 53.4122 144.142 -4.05231e-17
279 2 159.645 88.911 -4.05231e-17
280 1 115.545 213.302 -4.05231e-17
281 2 93.6711 135.685 -4.05231e-17
282 2 42.9533 144.21 -4.05231e-17
283 2 216.785 148.981 -4.05231e-17
284 1 126.306 116.727 -4.05231e-17
285 1 72.1278 155.54 -4.05231e-17
286 2 54.3638 10.403 -4.05231e-17
287 2 115.355 63.4876 -4.05231e-17
288 1 98.4779 108.277 -4.05231e-17
289 2 148.512 29.3464 -4.05231e-17
290 1 140.505 34.6177 -4.05231e-17
291 2 162.729 188.911 -4.05231e-17
292 1 81.2567 71.0032 -4.05231e-17
293 1 150.32 119.032 -4.05231e-17
294 1 32.574 173.157 -4.05231e-17
295 2 38.674 132.503 -4.05231e-17
296 1 172.806 158.042 -4.05231e-17
297 1 3.53354 44.0784 -4.05231e-17
298 2 213.507 124.559 -4.05231e-17
299 1 175.725 58.3312 -4.05231e-17
300 2 160.959 195.181 -4.05231e-17
301 2 217.863 214.969 -4.05231e-17
302 2 163.06 91.7678 -4.05231e-17
303 1 56.6914 157.013 -4.05231e-17
304 1 124.142 109.278 -4.05231e-17
305 1 89.8562 167.863 -4.05231e-17
306 2 59.701 218.793 -4.05231e-17
307 2 135.74 181.806 -4.05231e-17
308 2 157.139 213.16 -4.05231e-17
309 1 140.504 73.8982 -4.05231e-17
310 1 186.864 154.505 -4.05231e-17
311 1 147.682 128.567 -4.05231e-17
312 2 80.4601 63.6449 -4.05231e-17
313 2 190.17 49.4218 -4.05231e-17
314 1 153.672 121.39 -4.05231e-17
315 2 42.7893 79.8624 -4.05231e-17
316 1 149.362 47.3436 -4.05231e-17
317 1 106.295 188.072 -4.05231e-17
318 1 212.627 177.193 -4.05231e-17
319 2 114.291 188.423 -4.05231e-17
320 1 207.723 43.472 -4.05231e-17
321 1 213.277 73.9476 -4.05231e-17
322 1 41.1173 127.529 -4.05231e-17
323 2 75.4372 180.673 -4.05231e-17
324 2 11.3374 57.0387 -4.05231e-17
325 2 215.767 22.5678 -4.05231e-17
326 1 182.543 5.3004 -4.05231e-17
327 1 13.3537 43.3135 -4.05231e-17
328 2 28.1251 6.139 -4.05231e-17
329 2 73.9258 105.234 -4.05231e-17
330 2 131.621 68.93 -4.05231e-17
331 2 181.468 27.1479 -4.05231e-17
332 2 121.079 132.028 -4.05231e-17
333 2 6.88805 132.803 -4.05231e-17
334 2 207.945 27.124 -4.05231e-17
335 1 142.688 201.296 -4.05231e-17
336 2 7.67278 141.628 -4.05231e-17
337 2 111.002 199.539 -4.05231e-17
338 1 177.131 146.054 -4.05231e-17
339 2 36.6923 182.79 -4.05231e-17
340 2 204.14 167.837 -4.05231e-17
341 2 75.8687 103.378 -4.05231e-17
342 2 124.685 146.495 -4.05231e-17
343 2 213.825 191.063 -4.05231e-17
344 1 110.334 105.765 -4.05231e-17
345 2 53.7802 5.45066 -4.05231e-17
346 2 41.4378 93.6694 -4.05231e-17
347 1 151.931 101.563 -4.05231e-17
348 1 194.783 214.885 -4.05231e-17
349 2 169.57 77.1232 -4.05231e-17
350 2 34.6571 152.68 -4.05231e-17
351 1 187.207 68.1072 -4.05231e-17
352 1 3.4358 158.443 -4.05231e-17
353 2 149.612 113.413 -4.05231e-17
354 2 10.3297 193.15 -4.05231e-17
355 1 7.32956 156.246 -4.05231e-17
356 2 121.643 210.207 -4.05231e-17
357 1 99.2999 181.598 -4.05231e-17
358 1 130.783 48.9964 -4.05231e-17
359 1 8.89715 130.886 -4.05231e-17
360 1 17.9492 212.376 -4.05231e-17
361 2 185.596 65.7803 -4.05231e-17
362 2 179.769 113.568 -4.05231e-17
363 1 79.4032 199.35 -4.05231e-17
364 2 27.9441 45.6676 -4.05231e-17
365 1 13.7665 158.796 -4.05231e-17
366 1 52.972 12.4196 -4.05231e-17
367 1 189.883 68.3712 -4.05231e-17
368 1 47.102 172.145 -4.05231e-17
369 2 85.781 119.726 -4.05231e-17
370 1 155.012 105.053 -4.05231e-17
371 2 57.949 105.797 -4.05231e-17
372 1 101.474 17.358 -4.05231e-17
373 2 92.1381 207.957 -4.05231e-17
374 2 193.022 106.424 -4.05231e-17
375 1 49.975 85.7174 -4.05231e-17
376 1 99.8519 170.825 -4.05231e-17
377 2 106.217 74.3279 -4.05231e-17
378 2 163.859 120.407 -4.05231e-17
379 2 182.573 214.513 -4.05231e-17
380 1 173.47 46.2881 -4.05231e-17
381 1 183.288 202.654 -4.05231e-17
382 1 147.467 63.4777 -4.05231e-17
383 1 83.7151 92.4879 -4.05231e-17
384 2 34.371 78.8811 -4.05231e-17
385 1 187.671 89.2091 -4.05231e-17
386 2 181.693 155.106 -4.05231e-17
387 1 217.954 75.1279 -4.05231e-17
388 1 144.43 125.086 -4.05231e-17
389 2 161.167 94.2912 -4.05231e-17
390 1 110.302 15.751 -4.05231e-17
391 1 202.105 18.8134 -4.05231e-17
392 2 49.5893 111.735 -4.05231e-17
393 2 6.25308 218.946 -4.05231e-17
394 1 18.6843 182.215 -4.05231e-17
395 1 28.5253 3.46007 -4.05231e-17
396 2 96.67 89.6501 -4.05231e-17
397 1 43.9005 32.4324 -4.05231e-17
398 2 141.269 134.07 -4.05231e-17
399 2 186.675 86.8837 -4.05231e-17
400 2 73.2998 85.2068 -4.05231e-17
401 2 65.7914 152.656 -4.05231e-17
402 1 44.2485 207.875 -4.05231e-17
403 1 3.71456 90.2657 -4.05231e-17
404 2 88.342 56.4082 -4.05231e-17
405 1 107.975 173.184 -4.05231e-17
406 2 0.55673 129.015 -4.05231e-17
407 1 157.331 69.9839 -4.05231e-17
408 1 157.234 26.126 -4.05231e-17
409 2 191.482 117.069 -4.05231e-17
410 2 76.7962 106.522 -4.05231e-17
411 1 136.693 101.061 -4.05231e-17
412 1 141.425 0.195078 -4.05231e-17
413 1 51.7884 84.0799 -4.05231e-17
414 2 196.32 203.552 -4.05231e-17
415 1 125.995 75.3229 -4.05231e-17
416 1 144.09 30.4601 -4.05231e-17
417 2 112.95 152.023 -4.05231e-17
418 2 57.09 172.079 -4.05231e-17
419 2 204.599 150.027 -4.05231e-17
420 2 97.4599 92.3945 -4.05231e-17
421 1 122.539 82.1493 -4.05231e-17
422 1 32.9554 99.6747 -4.05231e-17
423 2 110.38 180.558 -4.05231e-17
424 2 12.7161 25.5987 -4.05231e-17
425 2 113.369 160.104 -4.05231e-17
426 1 216.242 85.5278 -4.05231e-17
427 2 48.2947 71.3476 -4.05231e-17
428 1 28.8442 175.857 -4.05231e-17
429 2 199.479 113.995 -4.05231e-17
430 2 112.13 110.94 -4.05231e-17
431 1 11.7399 19.224 -4.05231e-17
432 2 172.861 43.8219 -4.05231e-17
433 1 155.435 217.952 -4.05231e-17
434 1 8.62982 175.155 -4.05231e-17
435 1 149.248 87.4083 -4.05231e-17
436 2 49.2338 4.37239 -4.05231e-17
437 2 171.714 67.4556 -4.05231e-17
438 2 189.583 162.853 -4.05231e-17
439 2 105.662 206.398 -4.05231e-17
440 2 76.6703 123.486 -4.05231e-17
441 1 133.466 157.442 -4.05231e-17
442 1 33.0581 115.211 -4.05231e-17
443 2 60.7429 59.5467 -4.05231e-17
444 1 197.313 82.3795 -4.05231e-17
445 1 206.731 187.37 -4.05231e-17
446 2 133.415 144.56 -4.05231e-17
447 2 58.3499 29.7436 -4.05231e-17
448 2 144.448 199.353 -4.05231e-17
449 1 111.172 193.017 -4.05231e-17
450 1 213.839 106.696 -4.05231e-17
451 1 81.1204 19.0091 -4.05231e-17
452 2 172.027 48.8074 -4.05231e-17
453 1 3.56559 144.131 -4.05231e-17
454 1 196.702 66.332 -4.05231e-17
455 2 48.4036 133.647 -4.05231e-17
456 1 120.038 170.776 -4.05231e-17
457 2 158.947 123.755 -4.05231e-17
458 2 175.475 162.389 -4.05231e-17
459 2 150.13 26.7802 -4.05231e-17
460 1 214.153 175.486 -4.05231e-17
461 1 102.021 186.015 -4.05231e-17
462 1 65.7865 177.646 -4.05231e-17
463 2 90.2148 215.483 -4.05231e-17
464 2 35.9382 32.1723 -4.05231e-17
465 1 154.568 36.3758 -4.05231e-17
466 2 200.403 125.373 -4.05231e-17
467 2 47.1015 141.206 -4.05231e-17
468 2 166.057 92.314 -4.05231e-17
469 2 22.7845 75.0155 -4.05231e-17
470 2 195.758 162.245 -4.05231e-17
471 2 203.055 207.509 -4.05231e-17
472 2 98.4205 55.4017 -4.05231e-17
473 2 165.109 22.1205 -4.05231e-17
474 2 75.1764 114.67 -4.05231e-17
475 1 122.341 191.325 -4.05231e-17
476 2 139.753 27.8442 -4.05231e-17
477 1 215.864 213.476 -4.05231e-17
478 1 43.825 210.19 -4.05231e-17
479 2 76.4685 218.805 -4.05231e-17
480 1 52.9227 72.0898 -4.05231e-17
481 1 61.1559 178.054 -4.05231e-17
482 2 152.811 211.783 -4.05231e-17
483 1 154.47 200.217 -4.05231e-17
484 1 43.4912 127.236 -4.05231e-17
485 2 20.1155 170.637 -4.05231e-17
486 1 34.5265 34.0292 -4.05231e-17
487 1 59.1185 21.3674 -4.05231e-17
488 1 30.5234 64.4773 -4.05231e-17
489 1 81.0119 128.135 -4.05231e-17
490 1 164.314 76.041 -4.05231e-17
491 1 162.647 78.1433 -4.05231e-17
492 2 207.626 22.8691 -4.05231e-17
493 1 91.4347 87.5946 -4.05231e-17
494 2 137.624 59.3545 -4.05231e-17
495 1 149.141 94.2763 -4.05231e-17
496 1 44.9405 94.4474 -4.05231e-17
497 1 137.417 112.955 -4.05231e-17
498 2 139.279 217.686 -4.05231e-17
499 2 119.911 202.858 -4.05231e-17
500 2 122.795 26.7379 -4.05231e-17
501 2 204.503 142.413 -4.05231e-17
502 2 169.16 130.044 -4.05231e-17
503 2 53.4899 28.608 -4.05231e-17
504 2 67.4817 44.9669 -4.05231e-17
505 2 94.6251 184.713 -4.05231e-17
506 1 175.864 212.954 -4.05231e-17
507 2 61.1355 199.137 -4.05231e-17
508 1 112.728 63.4644 -4.05231e-17
509 1 200.446 16.8798 -4.05231e-17
510 1 178.669 86.0251 -4.05231e-17
511 2 94.4041 165.945 -4.05231e-17
512 1 81.3274 84.9145 -4.05231e-17
513 2 97.6739 208.272 -4.05231e-17
514 2 209.672 86.7915 -4.05231e-17
515 1 59.4407 64.4327 -4.05231e-17
516 2 76.5681 91.0197 -4.05231e-17
517 1 25.9588 142.475 -4.05231e-17
518 2 7.56436 22.179 -4.05231e-17
519 1 121.555 92.0905 -4.05231e-17
520 2 16.6147 75.913 -4.05231e-17
521 2 172.283 0.500838 -4.05231e-17
522 1 190.175 11.0789 -4.05231e-17
523 1 127.938 103.038 -4.05231e-17
524 2 203.156 52.4568 -4.05231e-17
525 2 162.591 23.261 -4.05231e-17
526 2 66.9592 216.443 -4.05231e-17
527 1 189.197 177.629 -4.05231e-17
528 1 210.724 212.35 -4.05231e-17
529 2 70.9102 198.954 -4.05231e-17
530 2 204.915 49.8493 -4.05231e-17
531 2 159.808 164.744 -4.05231e-17
532 1 65.8793 46.9723 -4.05231e-17
533 2 28.6348 171.254 -4.05231e-17
534 1 30.074 154.581 -4.05231e-17
535 1 166.277 215.529 -4.05231e-17
536 2 20.4454 165.811 -4.05231e-17
537 1 82.4048 73.5986 -4.05231e-17
538 1 67.5385 185.51 -4.05231e-17
539 2 79.9238 192.079 -4.05231e-17
540 1 33.6847 5.95182 -4.05231e-17
541 1 112.145 137.985 -4.05231e-17
542 1 18.1827 60.9656 -4.05231e-17
543 2 116.254 158.918 -4.05231e-17
544 1 12.8885 193.377 -4.05231e-17
545 1 161.793 68.3169 -4.05231e-17
546 2 183.659 211.72 -4.05231e-17
547 1 66.6056 84.4282 -4.05231e-17
548 1 66.3356 36.8686 -4.05231e-17
549 2 46.6184 166.444 -4.05231e-17
550 2 210.441 190.419 -4.05231e-17
551 2 23.3918 66.7519 -4.05231e-17
552 1 215.374 62.0605 -4.05231e-17
553 2 211.563 179.418 -4.05231e-17
554 2 157.145 200.496 -4.05231e-17
555 2 153.119 137.042 -4.05231e-17
556 1 185.078 209.464 -4.05231e-17
557 1 207.545 45.6735 -4.05231e-17
558 1 44.5519 124.643 -4.05231e-17
559 2 103.16 138.396 -4.05231e-17
560 2 65.7923 73.1804 -4.05231e-17
561 2 85.8832 156.998 -4.05231e-17
562 2 94.2049 91.7533 -4.05231e-17
563 1 83.5063 156.77 -4.05231e-17
564 2 53.7607 91.6105 -4.05231e-17
565 2 193.363 30.3736 -4.05231e-17
566 2 58.0626 108.967 -4.05231e-17
567 1 112.855 206.167 -4.05231e-17
568 1 29.1942 96.143 -4.05231e-17
569 2 170.6 159.402 -4.05231e-17
570 2 15.9799 30.9405 -4.05231e-17
571 2 204.737 66.6814 -4.05231e-17
572 1 89.3144 141.032 -4.05231e-17
573 2 26.9788 60.8351 -4.05231e-17
574 2 130.505 140.056 -4.05231e-17
575 1 196.941 213.748 -4.05231e-17
576 1 53.8148 69.7625 -4.05231e-17
577 1 120.8 125.244 -4.05231e-17
578 1 171.19 172.601 -4.05231e-17
579 2 203.612 108.679 -4.05231e-17
580 1 99.896 110.562 -4.05231e-17
581 1 79.2937 123.061 -4.05231e-17
582 2 125.335 104.069 -4.05231e-17
583 2 87.7797 96.4313 -4.05231e-17
584 2 99.0362 148.434 -4.05231e-17
585 1 199.419 134.168 -4.05231e-17
586 1 152.445 78.1001 -4.05231e-17
587 1 174.737 77.3414 -4.05231e-17
588 2 210.574 62.8536 -4.05231e-17
589 1 69.2052 42.9123 -4.05231e-17
590 2 189.171 203.465 -4.05231e-17
591 2 171.54 41.1082 -4.05231e-17
592 1 215.881 151.311 -4.05231e-17
593 1 135.128 96.0448 -4.05231e-17
594 1 208.875 51.7652 -4.05231e-17
595 1 202.068 39.692 -4.05231e-17
596 2 98.7281 87.7312 -4.05231e-17
597 2 92.1488 101.094 -4.05231e-17
598 2 135.894 91.2439 -4.05231e-17
599 2 63.1065 154.286 -4.05231e-17
600 2 25.3622 116.855 -4.05231e-17
601 1 144.098 107.139 -4.05231e-17
602 1 147.661 26.9312 -4.05231e-17
603 2 8.75112 154.006 -4.05231e-17
604 1 44.9022 173.587 -4.05231e-17
605 2 140.301 104.309 -4.05231e-17
606 2 157.317 95.691 -4.05231e-17
607 2 51.5936 188.981 -4.05231e-17
608 2 137.595 70.601 -4.05231e-17
609 1 120.399 84.0139 -4.05231e-17
610 2 154.802 163.402 -4.05231e-17
611 1 9.80446 161.393 -4.05231e-17
612 1 198.904 89.7014 -4.05231e-17
613 2 13.2334 147.105 -4.05231e-17
614 1 162.977 20.3762 -4.05231e-17
615 1 147.509 103.042 -4.05231e-17
616 2 117.662 171.382 -4.05231e-17
617 1 32.3063 197.531 -4.05231e-17
618 1 106.067 4.1921 -4.05231e-17
619 1 118.253 160.718 -4.05231e-17
620 2 34.3732 58.1481 -4.05231e-17
621 2 185.485 62.0188 -4.05231e-17
622 2 155.864 154.838 -4.05231e-17
623 2 107.559 122.243 -4.05231e-17
624 1 66.387 169.847 -4.05231e-17
625 2 12.3734 122.587 -4.05231e-17
626 1 30.4401 18.1274 -4.05231e-17
627 2 216.181 199.813 -4.05231e-17
628 1 176.985 148.098 -4.05231e-17
629 1 10.7292 32.2768 -4.05231e-17
630 2 142.039 216.535 -4.05231e-17
631 2 148.368 131.188 -4.05231e-17
632 2 216.385 27.2448 -4.05231e-17
633 2 78.2771 71.2972 -4.05231e-17
634 2 5.90149 79.4844 -4.05231e-17
635 2 61.8852 82.8027 -4.05231e-17
636 1 64.9471 92.2586 -4.05231e-17
637 1 202.904 125.691 -4.05231e-17
638 1 106.478 45.8527 -4.05231e-17
639 2 190.429 89.3529 -4.05231e-17
640 2 148.596 80.4912 -4.05231e-17
641 1 216.908 130.051 -4.05231e-17
642 2 178.396 33.3969 -4.05231e-17
643 1 121.083 89.7187 -4.05231e-17
644 2 139.161 143.418 -4.05231e-17
645 2 56.0115 93.6599 -4.05231e-17
646 1 172.657 101.878 -4.05231e-17
647 2 117.629 146.064 -4.05231e-17
648 2 194.831 35.2387 -4.05231e-17
649 1 102.191 110.333 -4.05231e-17
650 1 27.5022 147.496 -4.05231e-17
651 1 117.908 138.542 -4.05231e-17
652 2 31.8978 176.077 -4.05231e-17
653 2 163.96 196.252 -4.05231e-17
654 1 184.773 176.493 -4.05231e-17
655 1 98.4161 20.1504 -4.05231e-17
656 1 198.149 17.1464 -4.05231e-17
657 1 125.209 123.983 -4.05231e-17
658 2 173.339 83.7162 -4.05231e-17
659 2 95.2958 168.929 -4.05231e-17
660 1 23.7063 29.7024 -4.05231e-17
661 2 8.24761 60.6102 -4.05231e-17
662 2 136.114 120.447 -4.05231e-17
663 1 165.67 110.652 -4.05231e-17
664 1 79.9828 73.2726 -4.05231e-17
665 1 122.883 162.823 -4.05231e-17
666 1 175.43 104.659 -4.05231e-17
667 1 218.308 104.754 -4.05231e-17
668 1 121.788 158.458 -4.05231e-17
669 1 89.1546 148.912 -4.05231e-17
670 2 12.5292 177.832 -4.05231e-17
671 1 3.65176 24.9869 -4.05231e-17
672 1 212.913 168.394 -4.05231e-17
673 2 206.374 97.1029 -4.05231e-17
674 2 137.221 213.194 -4.05231e-17
675 2 164.835 5.88519 -4.05231e-17
676 1 150.12 136.029 -4.05231e-17
677 2 65.5715 97.3737 -4.05231e-17
678 1 109.926 21.4905 -4.05231e-17
679 1 89.3868 33.5784 -4.05231e-17
680 2 78.2748 46.2311 -4.05231e-17
681 1 3.02506 15.1779 -4.05231e-17
682 1 157.681 156.618 -4.05231e-17
683 2 73.7939 141.336 -4.05231e-17
684 1 32.388 204.994 -4.05231e-17
685 1 34.8291 204.061 -4.05231e-17
686 1 110.527 152.281 -4.05231e-17
687 1 88.1168 91.7728 -4.05231e-17
688 1 151.625 94.6977 -4.05231e-17
689 2 207.502 168.069 -4.05231e-17
690 1 86.2739 87.76 -4.05231e-17
691 2 104.789 111.66 -4.05231e-17
692 2 201.88 178.067 -4.05231e-17
693 1 153.377 106.611 -4.05231e-17
694 2 186.509 117.076 -4.05231e-17
695 2 144.37 81.9014 -4.05231e-17
696 2 189.871 130.508 -4.05231e-17
697 1 129.873 0.517301 -4.05231e-17
698 2 55.6037 31.1304 -4.05231e-17
699 1 78.1954 206.327 -4.05231e-17
700 2 5.21722 124.534 -4.05231e-17
701 2 47.3043 95.4529 -4.05231e-17
702 1 112.844 25.5089 -4.05231e-17
703 1 183.827 44.5981 -4.05231e-17
704 1 6.50867 114.969 -4.05231e-17
705 1 16.3962 127.848 -4.05231e-17
706 1 101.369 203.985 -4.05231e-17
707 1 95.7757 56.5833 -4.05231e-17
708 2 199.274 136.617 -4.05231e-17
709 1 23.6193 176.001 -4.05231e-17
710 2 61.4262 69.8641 -4.05231e-17
711 2 151.204 7.32949 -4.05231e-17
712 1 130.341 84.0789 -4.05231e-17
713 1 204.273 135.036 -4.05231e-17
714 2 136.226 184.532 -4.05231e-17
715 2 132.01 92.8392 -4.05231e-17
716 1 123.314 47.7568 -4.05231e-17
717 1 49.2775 102.197 -4.05231e-17
718 2 63.6281 85.0547 -4.05231e-17
719 1 72.3812 87.957 -4.05231e-17
720 2 64.9377 149.812 -4.05231e-17
721 2 45.9396 217.587 -4.05231e-17
722 2 46.9647 124.087 -4.05231e-17
723 2 29.5584 157.192 -4.05231e-17
724 2 2.9109 62.0189 -4.05231e-17
725 2 5.33301 76.8121 -4.05231e-17
726 2 168.21 157.61 -4.05231e-17
727 2 8.80408 78.7861 -4.05231e-17
728 1 158.677 67.7773 -4.05231e-17
729 2 195.81 136.616 -4.05231e-17
730 2 156.171 122.441 -4.05231e-17
731 1 204.812 36.8315 -4.05231e-17
732 2 86.3001 108.785 -4.05231e-17
733 2 148.717 167.421 -4.05231e-17
734 2 19.061 188.846 -4.05231e-17
735 2 103.751 40.9095 -4.05231e-17
736 1 212.614 170.861 -4.05231e-17
737 2 45.8809 26.3593 -4.05231e-17
738 2 78.0871 9.54352 -4.05231e-17
739 2 154.247 145.011 -4.05231e-17
740 2 214.337 78.617 -4.05231e-17
741 2 203.986 128.267 -4.05231e-17
742 1 97.5398 58.227 -4.05231e-17
743 2 112.624 81.2005 -4.05231e-17
744 1 158.537 19.1576 -4.05231e-17
745 2 211.693 79.9311 -4.05231e-17
746 1 5.81954 70.9641 -4.05231e-17
747 1 66.8577 141.757 -4.05231e-17
748 2 63.6358 173.549 -4.05231e-17
749 1 1.91863 165.292 -4.05231e-17
750 1 153.636 109.15 -4.05231e-17
751 1 145.584 91.3526 -4.05231e-17
752 2 195.795 141.736 -4.05231e-17
753 1 29.5404 192.721 -4.05231e-17
754 2 65.2025 101.938 -4.05231e-17
755 1 201.423 80.2082 -4.05231e-17
756 2 3.91259 37.8211 -4.05231e-17
757 1 127.714 15.5794 -4.05231e-17
758 2 139.243 44.7341 -4.05231e-17
759 1 111.346 149.809 -4.05231e-17
760 1 148.962 72.8037 -4.05231e-17
761 2 8.80702 107.016 -4.05231e-17
762 1 202.235 114.657 -4.05231e-17
763 2 32.6656 155.404 -4.05231e-17
764 2 13.6169 173.294 -4.05231e-17
765 1 25.7382 135.31 -4.05231e-17
766 2 108.671 107.795 -4.05231e-17
767 2 16.1734 146.905 -4.05231e-17
768 2 95.1919 25.1492 -4.05231e-17
769 2 213.02 150.925 -4.05231e-17
770 1 184.012 182.792 -4.05231e-17
771 1 47.3755 41.7775 -4.05231e-17
772 1 98.1442 29.6435 -4.05231e-17
773 2 171.96 107.334 -4.05231e-17
774 1 47.5355 87.8032 -4.05231e-17
775 1 90.6061 116.469 -4.05231e-17
776 2 188.899 138.122 -4.05231e-17
777 2 0.874663 79.5997 -4.05231e-17
778 1 108.568 205.806 -4.05231e-17
779 1 28.5552 206.239 -4.05231e-17
780 2 133.473 26.8177 -4.05231e-17
781 1 44.2054 165.412 -4.05231e-17
782 2 146.127 139.288 -4.05231e-17
783 1 149.244 61.4305 -4.05231e-17
784 2 86.0764 84.7898 -4.05231e-17
785 1 187.136 107.387 -4.05231e-17
786 1 97.1681 210.88 -4.05231e-17
787 2 45.2699 176.288 -4.05231e-17
788 2 160.894 200.495 -4.05231e-17
789 2 20.8419 152.172 -4.05231e-17
790 2 127.566 53.7749 -4.05231e-17
791 2 171.299 18.9592 -4.05231e-17
792 1 188.252 167.609 -4.05231e-17
793 1 81.5206 194.573 -4.05231e-17
794 2 205.633 11.0006 -4.05231e-17
795 2 0.66379 167.416 -4.05231e-17
796 1 153.609 197.166 -4.05231e-17
797 1 38.8731 51.3206 -4.05231e-17
798 1 10.6691 59.4451 -4.05231e-17
799 2 110.226 154.767 -4.05231e-17
800 1 59.5451 57.0167 -4.05231e-17
801 2 90.6008 123.631 -4.05231e-17
802 1 66.4523 56.3452 -4.05231e-17
803 1 164.984 28.4779 -4.05231e-17
804 1 165.759 97.1076 -4.05231e-17
805 2 204.688 103.93 -4.05231e-17
806 2 178.294 100.827 -4.05231e-17
807 2 179.102 65.4487 -4.05231e-17
808 2 64.7386 143.542 -4.05231e-17
809 1 105.212 52.3997 -4.05231e-17
810 2 34.8245 177.621 -4.05231e-17
811 2 176.467 201.408 -4.05231e-17
812 1 92.0622 178.281 -4.05231e-17
813 1 214.868 136.711 -4.05231e-17
814 1 2.68127 181.873 -4.05231e-17
815 1 163.536 3.53818 -4.05231e-17
816 1 209.322 129.065 -4.05231e-17
817 2 44.2628 64.9287 -4.05231e-17
818 2 22.843 80.3894 -4.05231e-17
819 2 198.986 71.1949 -4.05231e-17
820 1 60.9464 114.541 -4.05231e-17
821 1 104.177 11.3697 -4.05231e-17
822 2 79.1896 20.991 -4.05231e-17
823 1 216.679 116.239 -4.05231e-17
824 1 182.125 140.125 -4.05231e-17
825 1 172.838 160.967 -4.05231e-17
826 2 182.455 66.3736 -4.05231e-17
827 2 138.08 15.954 -4.05231e-17
828 1 49.8051 52.603 -4.05231e-17
829 2 129.73 94.4123 -4.05231e-17
830 1 26.1079 152.738 -4.05231e-17
831 2 195.182 10.7387 -4.05231e-17
832 2 119.179 56.1562 -4.05231e-17
833 2 71.4144 6.11578 -4.05231e-17
834 1 83.29 170.166 -4.05231e-17
835 1 210.961 141.203 -4.05231e-17
836 1 152.269 65.0487 -4.05231e-17
837 2 162.523 100.72 -4.05231e-17
838 2 118.227 88.4983 -4.05231e-17
839 1 51.5932 22.147 -4.05231e-17
840 2 13.8199 141.771 -4.05231e-17
841 2 176.386 52.8106 -4.05231e-17
842 1 183.071 100.308 -4.05231e-17
843 1 192.073 25.1138 -4.05231e-17
844 2 17.2448 63.3729 -4.05231e-17
845 1 87.72 138.866 -4.05231e-17
846 2 148.994 154.233 -4.05231e-17
847 1 63.1329 141.595 -4.05231e-17
848 2 147.44 55.9816 -4.05231e-17
849 1 6.59085 41.6501 -4.05231e-17
850 2 83.8256 19.5727 -4.05231e-17
851 2 212.167 29.193 -4.05231e-17
852 1 118.278 180.246 -4.05231e-17
853 1 144.748 136.967 -4.05231e-17
854 2 96.0483 149.784 -4.05231e-17
855 2 186.615 82.324 -4.05231e-17
856 1 77.9401 145.34 -4.05231e-17