ITEM: TIMESTEP
0
ITEM: NUMBER OF ATOMS
7200
ITEM: BOX BOUNDS xy xz yz pp pp pp
0.0000000000000000e+00 2.1900000000000000e+02 0.0000000000000000e+00
0.0000000000000000e+00 2.1900000000000000e+02 0.0000000000000000e+00
-3.6499999999999999e-01 3.6499999999999999e-01 0.0000000000000000e+00
ITEM: ATOMS id type x y z
1 1 91.5475 154.353 -4.05231e-17
2 2 66.0592 29.229 -4.05231e-17
3 2 12.4058 172.239 -4.05231e-17
4 1 146.226 148.448 -4.05231e-17
5 1 77.7936 141.607 -4.05231e-17
6 1 0.297015 39.149 -4.05231e-17
7 2 208.262 30.3303 -4.05231e-17
8 2 93.2619 79.8841 -4.05231e-17
9 1 91.4436 203.611 -4.05231e-17
10 2 5.92365 75.532 -4.05231e-17
11 2 206.735 70.9298 -4.05231e-17
12 1 52.3617 79.203 -4.05231e-17
13 2 149.617 57.4139 -4.05231e-17
14 1 134.865 48.8481 -4.05231e-17
15 2 39.3864 16.1812 -4.05231e-17
16 2 174.778 153.108 -4.05231e-17
17 1 20.5313 166.294 -4.05231e-17
18 2 191.66 105.483 -4.05231e-17
19 1 193.75 90.2029 -4.05231e-17
20 1 66.4817 173.053 -4.05231e-17
21 1 6.23086 1.09448 -4.05231e-17
22 2 112.551 131.355 -4.05231e-17
23 2 35.9079 192.315 -4.05231e-17
24 2 125.225 205.789 -4.05231e-17
25 2 29.6114 7.88952 -4.05231e-17
26 2 183.71 12.6322 -4.05231e-17
27 1 205.461 190.733 -4.05231e-17
28 2 125.315 172.229 -4.05231e-17
29 2 141.555 4.43794 -4.05231e-17
30 2 106.12 88.9004 -4.05231e-17
31 2 151.573 88.328 -4.05231e-17
32 1 8.94982 178.297 -4.05231e-17
33 2 142.774 91.7183 -4.05231e-17
34 2 59.3315 64.5794 -4.05231e-17
35 2 181.861 21.4454 -4.05231e-17
36 1 132.922 198.19 -4.05231e-17
37 1 53.8731 113.254 -4.05231e-17
38 2 156.463 82.1695 -4.05231e-17
39 1 18.0508 18.9318 -4.05231e-17
40 2 202.887 145.737 -4.05231e-17
41 1 64.3282 15.3353 -4.05231e-17
42 1 103.242 63.4124 -4.05231e-17
43 1 188.817 176.556 -4.05231e-17
44 1 182.856 196.969 -4.05231e-17
45 2 108.614 68.8266 -4.05231e-17
46 1 113.434 74.6772 -4.05231e-17
47 2 115.628 25.2266 -4.05231e-17
48 2 33.6576 96.5996 -4.05231e-17
49 1 92.8225 193.317 -4.05231e-17
50 2 55.2754 75.395 -4.05231e-17
51 1 212.331 187.636 -4.05231e-17
52 1 30.1618 50.0781 -4.05231e-17
53 2 106.501 23.1789 -4.05231e-17
54 1 116.283 112.575 -4.05231e-17
55 2 125.626 176.96 -4.05231e-17
56 1 82.0926 175.198 -4.05231e-17
57 2 218.152 33.724 -4.05231e-17
58 1 186.091 157.714 -4.05231e-17
59 1 152.434 90.8328 -4.05231e-17
60 2 24.5768 144.964 -4.05231e-17
61 1 143.809 189.487 -4.05231e-17
62 1 85.2784 7.04848 -4.05231e-17
63 2 133.874 171.822 -4.05231e-17
64 1 49.0749 119.194 -4.05231e-17
65 2 161.866 159.983 -4.05231e-17
66 2 19.2727 123.691 -4.05231e-17
67 2 200.851 49.2722 -4.05231e-17
68 1 144.642 120.991 -4.05231e-17
69 2 147.898 155.393 -4.05231e-17
70 1 87.498 130.04 -4.05231e-17
71 1 89.7738 118.799 -4.05231e-17
72 2 41.0084 112.912 -4.05231e-17
73 2 157.023 47.8375 -4.05231e-17
74 2 193.934 5.94476 -4.05231e-17
75 1 214.393 162.974 -4.05231e-17
76 2 186.945 123.573 -4.05231e-17
77 2 8.3122 143.677 -4.05231e-17
78 1 24.5052 65.768 -4.05231e-17
79 2 139.648 20.487 -4.05231e-17
80 1 38.6668 73.8237 -4.05231e-17
81 1 143.475 193.655 -4.05231e-17
82 1 190.887 120.227 -4.05231e-17
83 1 201.722 122.243 -4.05231e-17
84 2 115.33 28.2393 -4.05231e-17
85 2 201.716 175.648 -4.05231e-17
86 2 36.1745 73.5416 -4.05231e-17
87 2 93.2003 74.6168 -4.05231e-17
88 1 114.4 145.509 -4.05231e-17
89 2 178.5 53.4634 -4.05231e-17
90 2 192.063 78.0774 -4.05231e-17
91 2 7.89572 201.875 -4.05231e-17
92 1 194.051 3.4111 -4.05231e-17
93 2 174.392 157.68 -4.05231e-17
94 2 184.438 105.096 -4.05231e-17
95 1 156.593 163.312 -4.05231e-17
96 2 204.928 66.7815 -4.05231e-17
97 2 81.4574 199.272 -4.05231e-17
98 2 196.846 140.749 -4.05231e-17
99 1 118.718 212.868 -4.05231e-17
100 2 215.659 207.62 -4.05231e-17
101 1 158.535 87.0998 -4.05231e-17
102 1 36.8003 164.625 -4.05231e-17
103 2 109.566 119.749 -4.05231e-17
104 2 35.2471 205.57 -4.05231e-17
105 1 166.004 65.4905 -4.05231e-17
106 1 108.826 13.3493 -4.05231e-17
107 1 175.784 14.6634 -4.05231e-17
108 1 195.481 201.839 -4.05231e-17
109 2 116.389 147.111 -4.05231e-17
110 2 92.7905 24.8055 -4.05231e-17
111 1 194.194 123.993 -4.05231e-17
112 2 186.41 23.4615 -4.05231e-17
113 1 20.4703 216.644 -4.05231e-17
114 1 186.634 173.41 -4.05231e-17
115 2 194.175 103.727 -4.05231e-17
116 2 28.7517 17.6542 -4.05231e-17
117 1 165.095 175.208 -4.05231e-17
118 1 136.001 8.20431 -4.05231e-17
119 2 37.1179 113.29 -4.05231e-17
120 2 159.42 179.217 -4.05231e-17
121 1 135.359 40.609 -4.05231e-17
122 2 155.292 172.821 -4.05231e-17
123 2 31.3717 128.517 -4.05231e-17
124 1 193.372 145.484 -4.05231e-17
125 1 8.66211 76.4416 -4.05231e-17
126 2 60.6193 82.4851 -4.05231e-17
127 2 193.813 58.9749 -4.05231e-17
128 1 126.244 141.062 -4.05231e-17
129 1 14.0346 62.7971 -4.05231e-17
130 2 184.38 194.65 -4.05231e-17
131 1 63.3491 94.4661 -4.05231e-17
132 1 167.475 190.515 -4.05231e-17
133 1 208.134 159.01 -4.05231e-17
134 1 157.1 96.4934 -4.05231e-17
135 2 194.794 79.5807 -4.05231e-17
136 1 71.5091 27.9479 -4.05231e-17
137 1 138.217 26.235 -4.05231e-17
138 2 124.925 112.88 -4.05231e-17
139 1 143.895 68.6677 -4.05231e-17
140 1 127.223 160.414 -4.05231e-17
141 1 25.2872 158.821 -4.05231e-17
142 1 9.36456 138.026 -4.05231e-17
143 1 75.2686 120.174 -4.05231e-17
144 1 88.1478 76.9504 -4.05231e-17
145 2 137.152 12.8093 -4.05231e-17
146 1 114.352 124.744 -4.05231e-17
147 2 18.1291 98.4976 -4.05231e-17
148 1 117.769 37.764 -4.05231e-17
149 1 58.3134 150.313 -4.05231e-17
150 2 216.437 121.681 -4.05231e-17
151 1 142.779 164.491 -4.05231e-17
152 1 14.7389 24.7383 -4.05231e-17
153 2 105.7 80.6016 -4.05231e-17
154 1 87.426 88.7595 -4.05231e-17
155 2 162.845 12.5691 -4.05231e-17
156 2 80.7235 182.343 -4.05231e-17
157 2 105.219 147.513 -4.05231e-17
158 2 50.3069 39.8963 -4.05231e-17
159 2 35.1494 156.35 -4.05231e-17
160 2 181.222 194.879 -4.05231e-17
161 2 113.327 122.363 -4.05231e-17
162 1 171.321 34.2848 -4.05231e-17
163 1 43.9595 52.8341 -4.05231e-17
164 2 113.372 177.258 -4.05231e-17
165 1 213.427 22.1653 -4.05231e-17
166 2 87.2064 208.392 -4.05231e-17
167 1 161.848 115.946 -4.05231e-17
168 1 36.7366 197.944 -4.05231e-17
169 2 50.1975 117.189 -4.05231e-17
170 1 41.1838 213.261 -4.05231e-17
171 1 68.8555 98.5021 -4.05231e-17
172 1 18.1767 117.331 -4.05231e-17
173 1 209.171 76.9938 -4.05231e-17
174 2 102.573 107.399 -4.05231e-17
175 2 45.1806 204.898 -4.05231e-17
176 1 17.7166 110.142 -4.05231e-17
177 2 98.38 41.7082 -4.05231e-17
178 1 49.3326 65.4692 -4.05231e-17
179 2 117.753 4.05944 -4.05231e-17
180 1 85.9267 121.416 -4.05231e-17
181 1 63.4398 143.606 -4.05231e-17
182 1 122.27 129.625 -4.05231e-17
183 1 28.6412 101.675 -4.05231e-17
184 2 151.537 123.635 -4.05231e-17
185 2 147.946 109.365 -4.05231e-17
186 2 68.4792 45.7544 -4.05231e-17
187 2 173.224 209.008 -4.05231e-17
188 2 20.4969 160.363 -4.05231e-17
189 1 88.0105 197.315 -4.05231e-17
190 1 143.041 65.9264 -4.05231e-17
191 2 25.3385 50.5915 -4.05231e-17
192 2 81.9023 44.71 -4.05231e-17
193 1 81.9963 177.711 -4.05231e-17
194 1 28.126 215.648 -4.05231e-17
195 2 86.6612 42.6121 -4.05231e-17
196 1 16.9465 104.158 -4.05231e-17
197 2 161.65 75.6901 -4.05231e-17
198 2 203.948 56.2074 -4.05231e-17
199 2 154.634 119.937 -4.05231e-17
200 2 65.2859 206.131 -4.05231e-17
201 2 125.252 42.7033 -4.05231e-17
202 1 81.698 135.23 -4.05231e-17
203 1 47.3976 1.45214 -4.05231e-17
204 2 181.237 2.65828 -4.05231e-17
205 2 199.743 142.296 -4.05231e-17
206 2 178.036 187.944 -4.05231e-17
207 1 12.1342 98.2134 -4.05231e-17
208 2 174.499 37.5015 -4.05231e-17
209 2 83.2702 41.8433 -4.05231e-17
210 1 67.463 92.0737 -4.05231e-17
211 1 51.5298 92.6672 -4.05231e-17
212 1 66.1549 109.305 -4.05231e-17
213 1 1.12804 204.375 -4.05231e-17
214 2 101.852 193.069 -4.05231e-17
215 1 165.581 60.4207 -4.05231e-17
216 1 130.499 83.9407 -4.05231e-17
217 1 82.4004 35.8462 -4.05231e-17
218 2 146.558 101.713 -4.05231e-17
219 2 114.561 49.9498 -4.05231e-17
220 1 213.231 30.683 -4.05231e-17
221 2 58.8501 201.861 -4.05231e-17
222 1 156.755 121.559 -4.05231e-17
223 1 201.226 93.9156 -4.05231e-17
224 2 41.3349 107.555 -4.05231e-17
225 2 87.7017 157.042 -4.05231e-17
226 1 39.121 1.55346 -4.05231e-17
227 2 22.2942 205.379 -4.05231e-17
228 2 121.453 88.9199 -4.05231e-17
229 1 212.17 89.1425 -4.05231e-17
230 1 186.785 37.6895 -4.05231e-17
231 2 114.573 102.981 -4.05231e-17
232 1 214.778 78.1777 -4.05231e-17
233 2 55.3864 82.7809 -4.05231e-17
234 1 64.615 160.987 -4.05231e-17
235 1 143.99 100.985 -4.05231e-17
236 2 90.8856 140.141 -4.05231e-17
237 2 80.3346 75.9957 -4.05231e-17
238 2 109.295 168.685 -4.05231e-17
239 1 147.453 49.7118 -4.05231e-17
240 1 58.112 109.947 -4.05231e-17
241 2 172.933 25.2895 -4.05231e-17
242 1 121.48 175.023 -4.05231e-17
243 2 125.308 190.592 -4.05231e-17
244 2 204.4 154.346 -4.05231e-17
245 1 92.3388 63.0024 -4.05231e-17
246 2 137.99 139.891 -4.05231e-17
247 2 145.652 26.4674 -4.05231e-17
248 1 68.2465 180.994 -4.05231e-17
249 1 5.63626 103.36 -4.05231e-17
250 1 101.327 105.186 -4.05231e-17
251 2 104.121 169.778 -4.05231e-17
252 1 197.373 150.225 -4.05231e-17
253 2 203.381 120.449 -4.05231e-17
254 2 13.816 167.655 -4.05231e-17
255 2 191.1 135.53 -4.05231e-17
256 1 5.96752 209.339 -4.05231e-17
257 2 29.1867 131.026 -4.05231e-17
258 1 211.46 180.905 -4.05231e-17
259 2 123.434 27.8884 -4.05231e-17
260 1 19.494 135.532 -4.05231e-17
261 2 139.969 118.976 -4.05231e-17
262 2 209.38 153.849 -4.05231e-17
263 2 125.152 66.6452 -4.05231e-17
264 1 46.0583 112.856 -4.05231e-17
265 1 99.9476 200.036 -4.05231e-17
266 1 41.2756 140.599 -4.05231e-17
267 2 138.284 28.7069 -4.05231e-17
268 1 165.457 150.718 -4.05231e-17
269 2 92.0433 179.77 -4.05231e-17
270 2 164.717 218.032 -4.05231e-17
271 2 185.244 47.6144 -4.05231e-17
272 1 106.127 67.3648 -4.05231e-17
273 1 17.3529 66.3785 -4.05231e-17
274 1 3.88262 181.012 -4.05231e-17
275 1 32.9918 173.311 -4.05231e-17
276 1 155.163 39.9005 -4.05231e-17
277 1 84.5923 1.67218 -4.05231e-17
278 2 13.5281 190.352 -4.05231e-17
279 2 154.99 91.134 -4.05231e-17
280 1 159.55 37.7803 -4.05231e-17
281 2 24.932 167.783 -4.05231e-17
282 2 193.506 61.9994 -4.05231e-17
283 2 24.5739 163.297 -4.05231e-17
284 1 199.37 164.459 -4.05231e-17
285 1 24.9541 68.2795 -4.05231e-17
286 2 105.761 143.079 -4.05231e-17
287 2 103.349 27.8512 -4.05231e-17
288 1 38.179 162.64 -4.05231e-17
289 2 92.7233 88.1501 -4.05231e-17
290 1 106.769 50.1628 -4.05231e-17
291 2 121.769 50.1002 -4.05231e-17
292 1 129.029 32.6602 -4.05231e-17
293 1 195.906 60.1905 -4.05231e-17
294 1 167.196 102.561 -4.05231e-17
295 2 207.042 14.8652 -4.05231e-17
296 1 132.185 153.889 -4.05231e-17
297 1 103.571 183.521 -4.05231e-17
298 2 157.647 189.136 -4.05231e-17
299 1 40.5897 52.6361 -4.05231e-17
300 2 136.975 0.347703 -4.05231e-17
301 2 41.6427 2.69353 -4.05231e-17
302 2 198.369 58.8247 -4.05231e-17
303 1 201.747 109.639 -4.05231e-17
304 1 142.828 118.673 -4.05231e-17
305 1 70.138 179.115 -4.05231e-17
306 2 179.827 48.6365 -4.05231e-17
307 2 194.415 166.434 -4.05231e-17
308 2 162.757 32.7152 -4.05231e-17
309 1 101.761 140.362 -4.05231e-17
310 1 168.117 2.99059 -4.05231e-17
311 1 210.597 214.087 -4.05231e-17
312 2 89.3755 146.962 -4.05231e-17
313 2 204.313 192.686 -4.05231e-17
314 1 168.084 33.795 -4.05231e-17
315 2 75.6355 5.23695 -4.05231e-17
316 1 110.021 27.003 -4.05231e-17
317 1 40.1621 42.1057 -4.05231e-17
318 1 197.132 79.6947 -4.05231e-17
319 2 90.7276 27.2554 -4.05231e-17
320 1 3.3327 75.3796 -4.05231e-17
321 1 67.2912 204.761 -4.05231e-17
322 1 17.8272 212.797 -4.05231e-17
323 2 105.966 28.9601 -4.05231e-17
324 2 27.5777 202.615 -4.05231e-17
325 2 213.617 11.0529 -4.05231e-17
326 1 5.37583 54.6654 -4.05231e-17
327 1 139.696 84.0532 -4.05231e-17
328 2 61.5312 74.7315 -4.05231e-17
329 2 2.73541 87.6169 -4.05231e-17
330 2 101.884 121.337 -4.05231e-17
331 2 26.0355 111.269 -4.05231e-17
332 2 87.2422 211.332 -4.05231e-17
333 2 201.85 83.3501 -4.05231e-17
334 2 48.5553 45.9317 -4.05231e-17
335 1 33.3019 26.7321 -4.05231e-17
336 2 20.484 179.37 -4.05231e-17
337 2 96.4156 215.614 -4.05231e-17
338 1 2.30815 165.917 -4.05231e-17
339 2 73.8561 197.623 -4.05231e-17
340 2 207.762 144.303 -4.05231e-17
341 2 75.9152 112.9 -4.05231e-17
342 2 107.684 126.596 -4.05231e-17
343 2 210.018 174.039 -4.05231e-17
344 1 136.496 171.175 -4.05231e-17
345 2 39.8569 135.931 -4.05231e-17
346 2 82.0378 60.6778 -4.05231e-17
347 1 142.984 123.43 -4.05231e-17
348 1 35.7582 203.018 -4.05231e-17
349 2 113.436 210.648 -4.05231e-17
350 2 218.408 119.321 -4.05231e-17
351 1 152.773 115.166 -4.05231e-17
352 1 139.556 47.1145 -4.05231e-17
353 2 164.188 125.916 -4.05231e-17
354 2 3.71225 130.586 -4.05231e-17
355 1 17.6449 1.70444 -4.05231e-17
356 2 76.8286 201.65 -4.05231e-17
357 1 118.514 12.5897 -4.05231e-17
358 1 121.957 55.6511 -4.05231e-17
359 1 10.78 93.9698 -4.05231e-17
360 1 65.5329 39.0201 -4.05231e-17
361 2 79.82 97.7533 -4.05231e-17
362 2 154.18 131.372 -4.05231e-17
363 1 43.848 90.8413 -4.05231e-17
364 2 90.3207 79.0271 -4.05231e-17
365 1 67.3157 96.363 -4.05231e-17
366 1 111.547 49.2306 -4.05231e-17
367 1 108.767 45.5526 -4.05231e-17
368 1 26.2662 151.75 -4.05231e-17
369 2 55.6898 100.913 -4.05231e-17
370 1 132.579 102.888 -4.05231e-17
371 2 36.0767 103.034 -4.05231e-17
372 1 100.006 36.7259 -4.05231e-17
373 2 96.1488 197.017 -4.05231e-17
374 2 190.587 114.869 -4.05231e-17
375 1 127.039 107.566 -4.05231e-17
376 1 86.4539 19.4832 -4.05231e-17
377 2 60.4334 102.03 -4.05231e-17
378 2 142.733 38.1779 -4.05231e-17
379 2 202.155 44.3239 -4.05231e-17
380 1 213.105 35.9738 -4.05231e-17
381 1 140.193 174.691 -4.05231e-17
382 1 73.0457 0.930706 -4.05231e-17
383 1 194.878 32.3126 -4.05231e-17
384 2 51.7531 66.3915 -4.05231e-17
385 1 168.604 70.1259 -4.05231e-17
386 2 159.159 214.136 -4.05231e-17
387 1 209.128 13.3966 -4.05231e-17
388 1 25.7462 161.152 -4.05231e-17
389 2 154.351 95.6042 -4.05231e-17
390 1 4.89862 19.6844 -4.05231e-17
391 1 133.947 192.995 -4.05231e-17
392 2 52.129 27.1455 -4.05231e-17
393 2 155.538 147.515 -4.05231e-17
394 1 33.1243 213.477 -4.05231e-17
395 1 40.5804 174.36 -4.05231e-17
396 2 10.5533 194.54 -4.05231e-17
397 1 111.606 3.85855 -4.05231e-17
398 2 181.842 109.119 -4.05231e-17
399 2 32.479 58.0165 -4.05231e-17
400 2 13.8591 119.132 -4.05231e-17
401 2 46.334 97.0561 -4.05231e-17
402 1 91.9461 208.641 -4.05231e-17
403 1 44.9239 22.0177 -4.05231e-17
404 2 179.777 56.2817 -4.05231e-17
405 1 42.709 51.0764 -4.05231e-17
406 2 101.488 209.743 -4.05231e-17
407 1 50.2772 207.486 -4.05231e-17
408 1 118.214 170.799 -4.05231e-17
409 2 170.11 166.758 -4.05231e-17
410 2 7.67511 48.2041 -4.05231e-17
411 1 120.836 141.282 -4.05231e-17
412 1 74.1583 41.658 -4.05231e-17
413 1 35.937 127.637 -4.05231e-17
414 2 181.476 26.6993 -4.05231e-17
415 1 149.241 21.7699 -4.05231e-17
416 1 22.2134 2.04442 -4.05231e-17
417 2 102.777 178.072 -4.05231e-17
418 2 22.2638 124.856 -4.05231e-17
419 2 186.003 20.338 -4.05231e-17
420 2 41.0217 87.9076 -4.05231e-17
421 1 138.549 81.7866 -4.05231e-17
422 1 14.6564 82.1352 -4.05231e-17
423 2 176.027 208.322 -4.05231e-17
424 2 98.8717 171.221 -4.05231e-17
425 2 206.092 121.071 -4.05231e-17
426 1 8.70286 94.9585 -4.05231e-17
427 2 71.3319 51.9365 -4.05231e-17
428 1 164.245 50.4942 -4.05231e-17
429 2 194.371 46.4879 -4.05231e-17
430 2 78.1742 100.785 -4.05231e-17
431 1 32.6618 29.0916 -4.05231e-17
432 2 175.064 203.423 -4.05231e-17
433 1 156.278 218.737 -4.05231e-17
434 1 161.171 152.056 -4.05231e-17
435 1 139.427 95.6464 -4.05231e-17
436 2 81.5727 105.053 -4.05231e-17
437 2 84.761 9.68156 -4.05231e-17
438 2 153.044 57.4401 -4.05231e-17
439 2 71.5881 147.921 -4.05231e-17
440 2 185.957 28.3456 -4.05231e-17
441 1 90.5359 198.092 -4.05231e-17
442 1 209.339 88.7485 -4.05231e-17
443 2 56.267 9.07392 -4.05231e-17
444 1 151.485 141.798 -4.05231e-17
445 1 134.881 190.561 -4.05231e-17
446 2 161.732 97.537 -4.05231e-17
447 2 91.38 60.5327 -4.05231e-17
448 2 53.8281 191.212 -4.05231e-17
449 1 121.546 117.692 -4.05231e-17
450 1 206.875 180.038 -4.05231e-17
451 1 143.129 6.4291 -4.05231e-17
452 2 169.697 172.528 -4.05231e-17
453 1 192.689 41.2298 -4.05231e-17
454 1 83.6196 106.858 -4.05231e-17
455 2 183.62 102.291 -4.05231e-17
456 1 24.0762 187.319 -4.05231e-17
457 2 95.3413 159.434 -4.05231e-17
458 2 12.3215 185.828 -4.05231e-17
459 2 210.653 52.055 -4.05231e-17
460 1 177.953 203.413 -4.05231e-17
461 1 133.389 167.037 -4.05231e-17
462 1 74.0449 143.858 -4.05231e-17
463 2 105.323 0.857894 -4.05231e-17
464 2 153.798 67.6581 -4.05231e-17
465 1 100.046 81.5596 -4.05231e-17
466 2 210.72 208.206 -4.05231e-17
467 2 207.711 79.0399 -4.05231e-17
468 2 167.45 145.647 -4.05231e-17
469 2 217.261 124.367 -4.05231e-17
470 2 167.759 72.5206 -4.05231e-17
471 2 176.199 92.1713 -4.05231e-17
472 2 180.566 198.165 -4.05231e-17
473 2 34.0517 198.437 -4.05231e-17
474 2 106.084 11.7934 -4.05231e-17
475 1 199.632 154.221 -4.05231e-17
476 2 20.9501 117.813 -4.05231e-17
477 1 175.962 1.42379 -4.05231e-17
478 1 43.4595 190.608 -4.05231e-17
479 2 129.435 43.5759 -4.05231e-17
480 1 119.322 89.9954 -4.05231e-17
481 1 141.214 125.663 -4.05231e-17
482 2 183.543 17.3171 -4.05231e-17
483 1 106.731 31.6567 -4.05231e-17
484 1 6.12773 214.941 -4.05231e-17
485 2 155.611 182.735 -4.05231e-17
486 1 28.1754 78.221 -4.05231e-17
487 1 49.7875 138.877 -4.05231e-17
488 1 213.646 15.7962 -4.05231e-17
489 1 111.795 215.502 -4.05231e-17
490 1 196.813 23.1784 -4.05231e-17
491 1 122.866 65.4223 -4.05231e-17
492 2 111.99 170.112 -4.05231e-17
493 1 114.206 143.308 -4.05231e-17
494 2 199.437 72.9697 -4.05231e-17
495 1 144.689 96.4415 -4.05231e-17
496 1 89.9212 95.9618 -4.05231e-17
497 1 128.893 104.332 -4.05231e-17
498 2 218.079 106.56 -4.05231e-17
499 2 90.7055 38.9248 -4.05231e-17
500 2 24.4777 206.858 -4.05231e-17
501 2 123.292 146.604 -4.05231e-17
502 2 161.936 166.341 -4.05231e-17
503 2 34.5357 166.015 -4.05231e-17
504 2 111.247 70.5923 -4.05231e-17
505 2 17.487 89.3042 -4.05231e-17
506 1 133.244 33.8051 -4.05231e-17
507 2 49.3449 18.8891 -4.05231e-17
508 1 191.348 36.0476 -4.05231e-17
509 1 196.862 107.035 -4.05231e-17
510 1 148.226 106.765 -4.05231e-17
511 2 112.16 51.6933 -4.05231e-17
512 1 186.303 120.875 -4.05231e-17
513 2 134.073 31.2067 -4.05231e-17
514 2 214.796 134.787 -4.05231e-17
515 1 66.564 111.356 -4.05231e-17
516 2 41.7471 95.7316 -4.05231e-17
517 1 98.0704 83.0431 -4.05231e-17
518 2 173.798 205.96 -4.05231e-17
519 1 79.5183 68.9692 -4.05231e-17
520 2 108.164 157.493 -4.05231e-17
521 2 122.162 213.587 -4.05231e-17
522 1 18.421 40.7474 -4.05231e-17
523 1 49.4478 182.54 -4.05231e-17
524 2 152.432 117.673 -4.05231e-17
525 2 173.646 41.9335 -4.05231e-17
526 2 8.59187 89.1856 -4.05231e-17
527 1 190.839 191.822 -4.05231e-17
528 1 38.4758 174.062 -4.05231e-17
529 2 13.0855 4.93545 -4.05231e-17
530 2 100.793 73.9077 -4.05231e-17
531 2 162.242 190.764 -4.05231e-17
532 1 110.968 152.647 -4.05231e-17
533 2 177.359 163.488 -4.05231e-17
534 1 121.699 47.1833 -4.05231e-17
535 1 15.2653 18.492 -4.05231e-17
536 2 53.9783 46.8229 -4.05231e-17
537 1 70.9913 171.754 -4.05231e-17
538 1 60.9102 209.388 -4.05231e-17
539 2 58.8858 192.302 -4.05231e-17
540 1 24.8729 139.279 -4.05231e-17
541 1 76.7452 149.188 -4.05231e-17
542 1 37.79 48.4747 -4.05231e-17
543 2 181.595 176.034 -4.05231e-17
544 1 145.824 180.374 -4.05231e-17
545 1 125.739 79.3889 -4.05231e-17
546 2 196.617 209.311 -4.05231e-17
547 1 8.43734 188.053 -4.05231e-17
548 1 203.162 105.083 -4.05231e-17
549 2 44.8293 34.9524 -4.05231e-17
550 2 153.872 54.5435 -4.05231e-17
551 2 72.816 91.2766 -4.05231e-17
552 1 172.097 80.2569 -4.05231e-17
553 2 11.2966 151.623 -4.05231e-17
554 2 84.3989 217.992 -4.05231e-17
555 2 203.38 135.952 -4.05231e-17
556 1 56.4125 113.451 -4.05231e-17
557 1 87.5992 83.9933 -4.05231e-17
558 1 183.587 81.4115 -4.05231e-17
559 2 89.5498 142.651 -4.05231e-17
560 2 79.6172 17.6307 -4.05231e-17
561 2 122.925 110.625 -4.05231e-17
562 2 191.866 38.6096 -4.05231e-17
563 1 98.7451 67.3911 -4.05231e-17
564 2 82.9646 86.8714 -4.05231e-17
565 2 45.288 86.4218 -4.05231e-17
566 2 113.686 19.4623 -4.05231e-17
567 1 69.8204 26.0014 -4.05231e-17
568 1 90.5217 13.3659 -4.05231e-17
569 2 206.099 167.207 -4.05231e-17
570 2 104.709 109.295 -4.05231e-17
571 2 140.6 72.2856 -4.05231e-17
572 1 156.38 130.777 -4.05231e-17
573 2 87.0239 35.4312 -4.05231e-17
574 2 183.842 95.0339 -4.05231e-17
575 1 137.168 47.9556 -4.05231e-17
576 1 99.1205 209.409 -4.05231e-17
577 1 108.118 93.5322 -4.05231e-17
578 1 44.3798 119.137 -4.05231e-17
579 2 8.69873 70.8935 -4.05231e-17
580 1 102.936 128.637 -4.05231e-17
581 1 19.4878 139.951 -4.05231e-17
582 2 130.852 71.2652 -4.05231e-17
583 2 113.341 201.303 -4.05231e-17
584 2 62.6081 32.4739 -4.05231e-17
585 1 166.872 182.015 -4.05231e-17
586 1 143.948 75.2956 -4.05231e-17
587 1 194.197 11.607 -4.05231e-17
588 2 7.46333 51.3677 -4.05231e-17
589 1 39.5265 83.1256 -4.05231e-17
590 2 83.1484 99.1685 -4.05231e-17
591 2 127.224 0.660662 -4.05231e-17
592 1 54.205 80.6777 -4.05231e-17
593 1 181.927 136.366 -4.05231e-17
594 1 49.4835 57.069 -4.05231e-17
595 1 206.127 81.2806 -4.05231e-17
596 2 48.9729 92.0876 -4.05231e-17
597 2 108.507 81.6917 -4.05231e-17
598 2 119.339 108.327 -4.05231e-17
599 2 210.673 135.795 -4.05231e-17
600 2 215.6 194.091 -4.05231e-17
601 1 155.738 107.346 -4.05231e-17
602 1 121.965 58.8555 -4.05231e-17
603 2 166.355 130.701 -4.05231e-17
604 1 165.654 118.689 -4.05231e-17
605 2 162.111 186.284 -4.05231e-17
606 2 183.462 73.6039 -4.05231e-17
607 2 10.5649 174.327 -4.05231e-17
608 2 58.2973 71.3771 -4.05231e-17
609 1 103.976 145.147 -4.05231e-17
610 2 111.991 115.075 -4.05231e-17
611 1 215.959 23.6679 -4.05231e-17
612 1 88.9115 22.723 -4.05231e-17
613 2 177.156 174.715 -4.05231e-17
614 1 174.523 44.5287 -4.05231e-17
615 1 134.835 102.508 -4.05231e-17
616 2 35.797 195.4 -4.05231e-17
617 1 98.6881 168.584 -4.05231e-17
618 1 94.2697 85.8169 -4.05231e-17
619 1 158.938 68.9466 -4.05231e-17
620 2 133.205 174.611 -4.05231e-17
621 2 164.856 107.214 -4.05231e-17
622 2 186.097 180.694 -4.05231e-17
623 2 96.1147 135.149 -4.05231e-17
624 1 68.9781 50.2409 -4.05231e-17
625 2 57.0776 51.1942 -4.05231e-17
626 1 72.5224 212.361 -4.05231e-17
627 2 167.912 18.6676 -4.05231e-17
628 1 128.28 155.927 -4.05231e-17
629 1 29.6061 14.8949 -4.05231e-17
630 2 92.9018 6.35057 -4.05231e-17
631 2 214.935 187.713 -4.05231e-17
632 2 48.4103 89.2789 -4.05231e-17
633 2 78.8048 78.9276 -4.05231e-17
634 2 185.762 100.637 -4.05231e-17
635 2 11.7374 64.0524 -4.05231e-17
636 1 82.8306 25.8817 -4.05231e-17
637 1 2.63583 84.6566 -4.05231e-17
638 1 148.4 31.2335 -4.05231e-17
639 2 205.922 53.87 -4.05231e-17
640 2 140.839 111.54 -4.05231e-17
641 1 189.341 1.51126 -4.05231e-17
642 2 128.005 207.043 -4.05231e-17
643 1 169.221 103.535 -4.05231e-17
644 2 107.841 192.875 -4.05231e-17
645 2 29.7595 139.003 -4.05231e-17
646 1 166.281 40.3354 -4.05231e-17
647 2 88.4943 169.929 -4.05231e-17
648 2 149.686 134.699 -4.05231e-17
649 1 208.382 187.231 -4.05231e-17
650 1 62.0081 160.299 -4.05231e-17
651 1 166.759 81.9113 -4.05231e-17
652 2 79.143 126.426 -4.05231e-17
653 2 146.854 158.296 -4.05231e-17
654 1 192.739 189.756 -4.05231e-17
655 1 140.306 24.9196 -4.05231e-17
656 1 182.754 32.3595 -4.05231e-17
657 1 173.668 101.242 -4.05231e-17
658 2 192.149 215.516 -4.05231e-17
659 2 209.338 150.234 -4.05231e-17
660 1 25.0732 172.027 -4.05231e-17
661 2 44.7908 28.0648 -4.05231e-17
662 2 161.709 147.37 -4.05231e-17
663 1 118.807 112.893 -4.05231e-17
664 1 175.956 150.58 -4.05231e-17
665 1 172.412 165.435 -4.05231e-17
666 1 163.23 188.498 -4.05231e-17
667 1 163.345 135.619 -4.05231e-17
668 1 72.5659 155.318 -4.05231e-17
669 1 80.8506 185.087 -4.05231e-17
670 2 53.7511 183.665 -4.05231e-17
671 1 79.7628 1.74289 -4.05231e-17
672 1 127.649 41.6771 -4.05231e-17
673 2 75.0916 150.834 -4.05231e-17
674 2 147.315 78.4402 -4.05231e-17
675 2 137.594 41.7616 -4.05231e-17
676 1 129.708 14.7259 -4.05231e-17
677 2 38.9538 25.8752 -4.05231e-17
678 1 76.0356 102.698 -4.05231e-17
679 1 178.779 193.44 -4.05231e-17
680 2 129.091 24.7953 -4.05231e-17
681 1 115.536 206.136 -4.05231e-17
682 1 133.014 206.456 -4.05231e-17
683 2 16.0353 144.414 -4.05231e-17
684 1 212.004 102.898 -4.05231e-17
685 1 160.507 216.269 -4.05231e-17
686 1 160.65 61.8169 -4.05231e-17
687 1 9.06115 125.6 -4.05231e-17
688 1 147.235 96.6895 -4.05231e-17
689 2 112.076 36.5952 -4.05231e-17
690 1 46.005 167.718 -4.05231e-17
691 2 34.4346 91.4954 -4.05231e-17
692 2 167.674 168.763 -4.05231e-17
693 1 8.076 103.798 -4.05231e-17
694 2 32.2153 64.7066 -4.05231e-17
695 2 90.2623 51.6338 -4.05231e-17
696 2 30.0139 126.013 -4.05231e-17
697 1 200.348 51.7554 -4.05231e-17
698 2 25.8826 87.8473 -4.05231e-17
699 1 49.5367 196.334 -4.05231e-17
700 2 30.3936 173.697 -4.05231e-17
701 2 162.215 38.2035 -4.05231e-17
702 1 103.509 118.762 -4.05231e-17
703 1 10.1891 112.122 -4.05231e-17
704 1 210.055 132.938 -4.05231e-17
705 1 59.429 49.7574 -4.05231e-17
706 1 81.6751 33.1152 -4.05231e-17
707 1 63.9045 129.415 -4.05231e-17
708 2 192.036 94.7466 -4.05231e-17
709 1 56.2197 46.1089 -4.05231e-17
710 2 135.876 57.8696 -4.05231e-17
711 2 213.637 38.5649 -4.05231e-17
712 1 182.368 106.744 -4.05231e-17
713 1 80.1947 7.89647 -4.05231e-17
714 2 99.0375 196.552 -4.05231e-17
715 2 149.649 116.547 -4.05231e-17
716 1 123.306 104.89 -4.05231e-17
717 1 84.9466 158.614 -4.05231e-17
718 2 109.702 104.276 -4.05231e-17
719 1 217.007 133.239 -4.05231e-17
720 2 183.265 70.2825 -4.05231e-17
721 2 82.4473 196.351 -4.05231e-17
722 2 7.0644 138.85 -4.05231e-17
723 2 180.929 133.665 -4.05231e-17
724 2 10.6681 217.081 -4.05231e-17
725 2 195.346 126.398 -4.05231e-17
726 2 79.1447 148.304 -4.05231e-17
727 2 42.6703 32.8194 -4.05231e-17
728 1 190.392 49.77 -4.05231e-17
729 2 2.27975 127.8 -4.05231e-17
730 2 102.505 180.891 -4.05231e-17
731 1 122.993 21.0353 -4.05231e-17
732 2 217.339 130.711 -4.05231e-17
733 2 135.352 183.457 -4.05231e-17
734 2 186.606 11.6068 -4.05231e-17
735 2 70.7866 68.3529 -4.05231e-17
736 1 129.678 161.048 -4.05231e-17
737 2 98.9271 166.127 -4.05231e-17
738 2 64.5745 7.98379 -4.05231e-17
739 2 85.4746 152.052 -4.05231e-17
740 2 169.616 148.083 -4.05231e-17
741 2 181.044 208.239 -4.05231e-17
742 1 34.2462 88.815 -4.05231e-17
743 2 140.086 12.6257 -4.05231e-17
744 1 44.1392 149.671 -4.05231e-17
745 2 2.3206 34.7769 -4.05231e-17
746 1 177.623 74.5124 -4.05231e-17
747 1 0.789741 146.556 -4.05231e-17
748 2 35.9784 169.035 -4.05231e-17
749 1 112.039 145.788 -4.05231e-17
750 1 5.14048 110.767 -4.05231e-17
751 1 141.04 93.7025 -4.05231e-17
752 2 184.25 175.265 -4.05231e-17
753 1 13.328 94.3458 -4.05231e-17
754 2 1.56536 91.0654 -4.05231e-17
755 1 107.708 79.0879 -4.05231e-17
756 2 34.3576 1.76334 -4.05231e-17
757 1 88.8057 44.0088 -4.05231e-17
758 2 120.331 41.2662 -4.05231e-17
759 1 24.1384 113.152 -4.05231e-17
760 1 173.663 87.5543 -4.05231e-17
761 2 201.355 36.3434 -4.05231e-17
762 1 43.9066 116.911 -4.05231e-17
763 2 48.2439 201.18 -4.05231e-17
764 2 154.13 141.994 -4.05231e-17
765 1 200.025 124.142 -4.05231e-17
766 2 147.106 152.627 -4.05231e-17
767 2 171.848 128.111 -4.05231e-17
768 2 36.1779 209.953 -4.05231e-17
769 2 144.045 178.455 -4.05231e-17
770 1 213.227 203.621 -4.05231e-17
771 1 127.073 123.257 -4.05231e-17
772 1 146.132 32.0016 -4.05231e-17
773 2 217.563 147.847 -4.05231e-17
774 1 215.144 160.46 -4.05231e-17
775 1 91.0006 100.282 -4.05231e-17
776 2 200.005 156.943 -4.05231e-17
777 2 6.35757 178.975 -4.05231e-17
778 1 54.0672 65.1788 -4.05231e-17
779 1 65.9847 216.772 -4.05231e-17
780 2 64.5183 59.2463 -4.05231e-17
781 1 28.6869 104.399 -4.05231e-17
782 2 218 103.41 -4.05231e-17
783 1 197.03 66.8255 -4.05231e-17
784 2 75.0772 32.334 -4.05231e-17
785 1 49.3486 82.4861 -4.05231e-17
786 1 70.9782 5.08883 -4.05231e-17
787 2 17.6772 106.895 -4.05231e-17
788 2 95.0794 17.2437 -4.05231e-17
789 2 83.8697 20.1034 -4.05231e-17
790 2 120.269 189.263 -4.05231e-17
791 2 41.6303 216.102 -4.05231e-17
792 1 217.657 186.61 -4.05231e-17
793 1 107.118 140.518 -4.05231e-17
794 2 173.023 216.345 -4.05231e-17
795 2 10.4066 197.74 -4.05231e-17
796 1 102.278 4.75169 -4.05231e-17
797 1 69.5376 193.961 -4.05231e-17
798 1 206.504 126.4 -4.05231e-17
799 2 128.146 114.735 -4.05231e-17
800 1 1.43809 215.019 -4.05231e-17
801 2 163.443 156.854 -4.05231e-17
802 1 133.327 201.25 -4.05231e-17
803 1 132.783 183.843 -4.05231e-17
804 1 41.1002 130.693 -4.05231e-17
805 2 195.156 160.53 -4.05231e-17
806 2 5.25156 98.5008 -4.05231e-17
807 2 193.612 43.646 -4.05231e-17
808 2 117.244 40.39 -4.05231e-17
809 1 46.7826 207.416 -4.05231e-17
810 2 56.5501 97.3561 -4.05231e-17
811 2 140.131 215.631 -4.05231e-17
812 1 144.223 157.675 -4.05231e-17
813 1 189.737 73.3236 -4.05231e-17
814 1 176.866 139.695 -4.05231e-17
815 1 30.1709 207.966 -4.05231e-17
816 1 88.1447 93.141 -4.05231e-17
817 2 55.1303 178.347 -4.05231e-17
818 2 76.388 206.829 -4.05231e-17
819 2 199.241 68.622 -4.05231e-17
820 1 26.782 35.0298 -4.05231e-17
821 1 2.313 29.621 -4.05231e-17
822 2 54.7269 163.456 -4.05231e-17
823 1 192.009 88.645 -4.05231e-17
824 1 153.21 146.753 -4.05231e-17
825 1 16.0352 195.73 -4.05231e-17
826 2 195.184 138.393 -4.05231e-17
827 2 91.3139 173.501 -4.05231e-17
828 1 87.3566 10.6445 -4.05231e-17
829 2 141.315 116.306 -4.05231e-17
830 1 79.3156 109.296 -4.05231e-17
831 2 196.832 177.041 -4.05231e-17
832 2 17.853 46.2298 -4.05231e-17
833 2 89.7427 63.4927 -4.05231e-17
834 1 114.243 196.962 -4.05231e-17
835 1 164.25 128.611 -4.05231e-17
836 1 25.6354 77.4995 -4.05231e-17
837 2 170.097 91.4355 -4.05231e-17
838 2 87.8732 25.2876 -4.05231e-17
839 1 76.0376 74.9675 -4.05231e-17
840 2 183.993 44.5948 -4.05231e-17
841 2 177.055 68.5515 -4.05231e-17
842 1 159.087 194.061 -4.05231e-17
843 1 210.336 199.83 -4.05231e-17
844 2 27.7286 40.5735 -4.05231e-17
845 1 148.703 111.851 -4.05231e-17
846 2 88.9407 205.266 -4.05231e-17
847 1 87.4498 79.2078 -4.05231e-17
848 2 124.812 10.0792 -4.05231e-17
849 1 193.645 168.892 -4.05231e-17
850 2 170.886 155.14 -4.05231e-17
851 2 115.973 100.088 -4.05231e-17
852 1 52.8268 49.2713 -4.05231e-17
853 1 41.4996 189.305 -4.05231e-17
854 2 37.8072 40.6098 -4.05231e-17
855 2 37.043 8.82387 -4.05231e-17
856 1 45.6993 172.514 -4.05231e-17
857 2 69.9144 48.0988 -4.05231e-17