ITEM: TIMESTEP
0
ITEM: NUMBER OF ATOMS
7200
ITEM: BOX BOUNDS xy xz yz pp pp pp
0.0000000000000000e+00 2.1900000000000000e+02 0.0000000000000000e+00
0.0000000000000000e+00 2.1900000000000000e+02 0.0000000000000000e+00
-3.6499999999999999e-01 3.6499999999999999e-01 0.0000000000000000e+00
ITEM: ATOMS id type x y z
1 1 183.593 14.2672 -4.05231e-17
2 2 190.597 185.269 -4.05231e-17
3 2 144.478 189.673 -4.05231e-17
4 1 122.638 110.183 -4.05231e-17
5 1 99.6108 125.123 -4.05231e-17
6 1 103.916 26.7503 -4.05231e-17
7 2 157.899 125.995 -4.05231e-17
8 2 70.7726 24.7932 -4.05231e-17
9 1 21.7947 212.554 -4.05231e-17
10 2 57.0869 166.238 -4.05231e-17
11 2 210.327 100.679 -4.05231e-17
12 1 34.158 191.43 -4.05231e-17
13 2 193.515 56.0202 -4.05231e-17
14 1 54.5955 182.551 -4.05231e-17
15 2 193.774 1.77269 -4.05231e-17
16 2 215.66 87.9752 -4.05231e-17
17 1 68.4815 73.5913 -4.05231e-17
18 2 9.7808 172.458 -4.05231e-17
19 1 91.9383 129.015 -4.05231e-17
20 1 71.8851 13.7278 -4.05231e-17
21 1 158.705 8.91236 -4.05231e-17
22 2 26.0985 210.23 -4.05231e-17
23 2 42.3886 208.977 -4.05231e-17
24 2 216.228 102.377 -4.05231e-17
25 2 20.0894 200.334 -4.05231e-17
26 2 148.285 27.4957 -4.05231e-17
27 1 216.841 162.504 -4.05231e-17
28 2 54.1907 155.281 -4.05231e-17
29 2 83.1276 4.16209 -4.05231e-17
30 2 132.031 43.1899 -4.05231e-17
31 2 156.495 84.2766 -4.05231e-17
32 1 41.9662 118.498 -4.05231e-17
33 2 144.889 88.5142 -4.05231e-17
34 2 10.2027 96.9705 -4.05231e-17
35 2 126.677 9.20657 -4.05231e-17
36 1 161.213 147.711 -4.05231e-17
37 1 133.193 184.696 -4.05231e-17
38 2 208.041 158.331 -4.05231e-17
39 1 9.45974 38.9368 -4.05231e-17
40 2 196.833 67.8582 -4.05231e-17
41 1 197.433 70.8743 -4.05231e-17
42 1 55.1052 59.2065 -4.05231e-17
43 1 210.01 132.149 -4.05231e-17
44 1 151.894 187.718 -4.05231e-17
45 2 158.403 61.8901 -4.05231e-17
46 1 124.465 192.719 -4.05231e-17
47 2 86.7555 73.2715 -4.05231e-17
48 2 150.244 127.124 -4.05231e-17
49 1 194.712 201.029 -4.05231e-17
50 2 26.5151 49.8948 -4.05231e-17
51 1 187.219 4.75758 -4.05231e-17
52 1 114.662 43.4908 -4.05231e-17
53 2 56.4704 194.573 -4.05231e-17
54 1 41.7625 5.38314 -4.05231e-17
55 2 52.6564 141.642 -4.05231e-17
56 1 30.5275 132.881 -4.05231e-17
57 2 57.1563 133.481 -4.05231e-17
58 1 186.315 42.0572 -4.05231e-17
59 1 157.31 86.8633 -4.05231e-17
60 2 207.094 60.3416 -4.05231e-17
61 1 161.068 163.879 -4.05231e-17
62 1 108.353 112.756 -4.05231e-17
63 2 109.318 38.1805 -4.05231e-17
64 1 31.6835 19.0578 -4.05231e-17
65 2 156.047 149.902 -4.05231e-17
66 2 12.3882 155.352 -4.05231e-17
67 2 179.848 105.078 -4.05231e-17
68 1 137.022 83.811 -4.05231e-17
69 2 108.728 167.543 -4.05231e-17
70 1 141.131 98.3804 -4.05231e-17
71 1 196.864 145.757 -4.05231e-17
72 2 44.7028 157.904 -4.05231e-17
73 2 193.149 186.925 -4.05231e-17
74 2 113.819 61.1391 -4.05231e-17
75 1 14.0497 136.681 -4.05231e-17
76 2 138.793 206.05 -4.05231e-17
77 2 165.194 14.8854 -4.05231e-17
78 1 91.7255 211.287 -4.05231e-17
79 2 61.8405 75.2994 -4.05231e-17
80 1 52.8119 32.2652 -4.05231e-17
81 1 182.371 212.9 -4.05231e-17
82 1 172.468 41.2763 -4.05231e-17
83 1 72.7385 90.2648 -4.05231e-17
84 2 142.068 180.448 -4.05231e-17
85 2 149.237 143.324 -4.05231e-17
86 2 52.0317 68.294 -4.05231e-17
87 2 31.3357 83.4191 -4.05231e-17
88 1 77.5842 159.213 -4.05231e-17
89 2 199.921 107.148 -4.05231e-17
90 2 125.785 34.8257 -4.05231e-17
91 2 10.7287 182.395 -4.05231e-17
92 1 24.3312 215.617 -4.05231e-17
93 2 110.116 153.552 -4.05231e-17
94 2 114.372 145.148 -4.05231e-17
95 1 212.748 52.4593 -4.05231e-17
96 2 30.5361 61.8828 -4.05231e-17
97 2 4.47241 212.429 -4.05231e-17
98 2 35.7204 184.465 -4.05231e-17
99 1 110.137 7.91625 -4.05231e-17
100 2 157.92 66.3811 -4.05231e-17
101 1 176.072 107.819 -4.05231e-17
102 1 66.3621 163.639 -4.05231e-17
103 2 204.922 100.268 -4.05231e-17
104 2 102.617 71.4291 -4.05231e-17
105 1 163.518 54.8945 -4.05231e-17
106 1 185.525 56.5617 -4.05231e-17
107 1 2.63434 106.425 -4.05231e-17
108 1 70.3113 209.556 -4.05231e-17
109 2 0.0403768 40.3828 -4.05231e-17
110 2 143.775 28.9826 -4.05231e-17
111 1 55.0476 92.1317 -4.05231e-17
112 2 5.54979 48.9021 -4.05231e-17
113 1 135.741 10.0281 -4.05231e-17
114 1 90.4071 79.9381 -4.05231e-17
115 2 38.2932 72.4059 -4.05231e-17
116 2 184.329 16.9995 -4.05231e-17
117 1 154.46 115.172 -4.05231e-17
118 1 85.0877 92.5802 -4.05231e-17
119 2 99.075 138.236 -4.05231e-17
120 2 202.295 58.9288 -4.05231e-17
121 1 204.38 139.011 -4.05231e-17
122 2 143.274 129.747 -4.05231e-17
123 2 4.02077 133.259 -4.05231e-17
124 1 162.553 201.932 -4.05231e-17
125 1 85.6252 192.796 -4.05231e-17
126 2 93.2679 83.8234 -4.05231e-17
127 2 208.419 110.789 -4.05231e-17
128 1 121.15 105.364 -4.05231e-17
129 1 144.24 194.186 -4.05231e-17
130 2 125.637 55.0109 -4.05231e-17
131 1 122.048 46.7295 -4.05231e-17
132 1 138.853 21.4022 -4.05231e-17
133 1 178.622 102.855 -4.05231e-17
134 1 79.1759 190.001 -4.05231e-17
135 2 176.256 65.8422 -4.05231e-17
136 1 190.791 120.906 -4.05231e-17
137 1 58.5437 14.5958 -4.05231e-17
138 2 152.473 159.523 -4.05231e-17
139 1 133.668 11.6224 -4.05231e-17
140 1 145.796 207.911 -4.05231e-17
141 1 52.2927 70.7543 -4.05231e-17
142 1 216.348 196.41 -4.05231e-17
143 1 27.3747 24.889 -4.05231e-17
144 1 48.6459 97.6269 -4.05231e-17
145 2 192.335 79.3451 -4.05231e-17
146 1 160.92 135.039 -4.05231e-17
147 2 15.873 134.543 -4.05231e-17
148 1 23.7255 133.623 -4.05231e-17
149 1 147.091 189.829 -4.05231e-17
150 2 65.6004 51.0943 -4.05231e-17
151 1 131.649 136.074 -4.05231e-17
152 1 155.505 158.985 -4.05231e-17
153 2 120.136 131.039 -4.05231e-17
154 1 188.189 53.1887 -4.05231e-17
155 2 204.15 40.8198 -4.05231e-17
156 2 106.872 189.3 -4.05231e-17
157 2 170.179 25.0689 -4.05231e-17
158 2 28.4475 7.74668 -4.05231e-17
159 2 11.6983 158.964 -4.05231e-17
160 2 115.673 50.1541 -4.05231e-17
161 2 129.899 138.47 -4.05231e-17
162 1 17.6909 72.7584 -4.05231e-17
163 1 182.084 35.7064 -4.05231e-17
164 2 109.278 129.945 -4.05231e-17
165 1 50.243 72.3786 -4.05231e-17
166 2 8.33643 205.154 -4.05231e-17
167 1 105.902 167.006 -4.05231e-17
168 1 211.166 103.12 -4.05231e-17
169 2 102.506 203.111 -4.05231e-17
170 1 66.2853 205.94 -4.05231e-17
171 1 136.977 92.8064 -4.05231e-17
172 1 199.896 200.833 -4.05231e-17
173 1 34.7307 203.314 -4.05231e-17
174 2 38.3554 173.319 -4.05231e-17
175 2 50.0574 204.098 -4.05231e-17
176 1 119.966 151.586 -4.05231e-17
177 2 108.199 11.9639 -4.05231e-17
178 1 25.742 7.85559 -4.05231e-17
179 2 112.06 193.569 -4.05231e-17
180 1 48.0418 73.7415 -4.05231e-17
181 1 15.8006 119.459 -4.05231e-17
182 1 110.336 95.9484 -4.05231e-17
183 1 64.3009 167.966 -4.05231e-17
184 2 155.523 23.97 -4.05231e-17
185 2 189.496 78.53 -4.05231e-17
186 2 74.272 206.001 -4.05231e-17
187 2 164.608 203.597 -4.05231e-17
188 2 60.5285 33.4473 -4.05231e-17
189 1 167.286 57.0955 -4.05231e-17
190 1 195.755 54.7788 -4.05231e-17
191 2 35.8155 105.151 -4.05231e-17
192 2 90.7605 61.1026 -4.05231e-17
193 1 108.34 164.735 -4.05231e-17
194 1 27.0841 5.52563 -4.05231e-17
195 2 56.9179 120.152 -4.05231e-17
196 1 0.152366 1.15781 -4.05231e-17
197 2 119.37 46.813 -4.05231e-17
198 2 207.73 29.2872 -4.05231e-17
199 2 97.4491 172.54 -4.05231e-17
200 2 99.7154 30.3318 -4.05231e-17
201 2 102.051 125.777 -4.05231e-17
202 1 48.4631 31.4356 -4.05231e-17
203 1 19.6165 48.429 -4.05231e-17
204 2 43.0672 79.3846 -4.05231e-17
205 2 179.763 180.015 -4.05231e-17
206 2 167.246 126.773 -4.05231e-17
207 1 71.5312 188.984 -4.05231e-17
208 2 130.63 61.1429 -4.05231e-17
209 2 32.0168 142.666 -4.05231e-17
210 1 179.838 110.439 -4.05231e-17
211 1 209.329 36.4058 -4.05231e-17
212 1 208.606 85.6196 -4.05231e-17
213 1 128.062 124.255 -4.05231e-17
214 2 12.6812 12.2302 -4.05231e-17
215 1 2.83631 140.908 -4.05231e-17
216 1 49.7748 46.7774 -4.05231e-17
217 1 163.316 62.1349 -4.05231e-17
218 2 200.787 120.913 -4.05231e-17
219 2 136.41 189.369 -4.05231e-17
220 1 119.45 216.923 -4.05231e-17
221 2 82.746 7.12934 -4.05231e-17
222 1 151.485 155.413 -4.05231e-17
223 1 44.3441 114.368 -4.05231e-17
224 2 145.107 72.2568 -4.05231e-17
225 2 172.043 169.732 -4.05231e-17
226 1 196.914 11.8021 -4.05231e-17
227 2 203.335 216.689 -4.05231e-17
228 2 116.352 45.5176 -4.05231e-17
229 1 39.9529 17.1607 -4.05231e-17
230 1 5.83724 57.6824 -4.05231e-17
231 2 137.23 160.685 -4.05231e-17
232 1 14.5191 205.172 -4.05231e-17
233 2 81.8269 196.366 -4.05231e-17
234 1 1.66338 61.0347 -4.05231e-17
235 1 149.956 106.723 -4.05231e-17
236 2 153.493 51.854 -4.05231e-17
237 2 99.6968 201.736 -4.05231e-17
238 2 94.333 139.431 -4.05231e-17
239 1 35.9304 212.486 -4.05231e-17
240 1 129.357 90.9961 -4.05231e-17
241 2 3.13078 125.182 -4.05231e-17
242 1 194.965 29.3403 -4.05231e-17
243 2 214.583 130.517 -4.05231e-17
244 2 37.0283 190.676 -4.05231e-17
245 1 173.848 22.132 -4.05231e-17
246 2 90.8143 82.5543 -4.05231e-17
247 2 196.86 148.396 -4.05231e-17
248 1 39.5256 25.0444 -4.05231e-17
249 1 131.312 108.179 -4.05231e-17
250 1 133.461 26.5934 -4.05231e-17
251 2 103.185 43.7986 -4.05231e-17
252 1 111.051 156.196 -4.05231e-17
253 2 95.5466 100.499 -4.05231e-17
254 2 180.032 206.867 -4.05231e-17
255 2 124.51 48.8277 -4.05231e-17
256 1 2.72846 180.078 -4.05231e-17
257 2 29.2258 192.741 -4.05231e-17
258 1 211.765 81.8862 -4.05231e-17
259 2 162.022 142.611 -4.05231e-17
260 1 50.4441 194.326 -4.05231e-17
261 2 142.976 177.545 -4.05231e-17
262 2 185.231 104.685 -4.05231e-17
263 2 94.4247 171.136 -4.05231e-17
264 1 200.131 37.0181 -4.05231e-17
265 1 148.595 185.663 -4.05231e-17
266 1 93.0061 194.541 -4.05231e-17
267 2 107.978 15.2027 -4.05231e-17
268 1 1.27538 49.6886 -4.05231e-17
269 2 9.81392 114.028 -4.05231e-17
270 2 180.012 146.748 -4.05231e-17
271 2 188.188 94.054 -4.05231e-17
272 1 58.8217 26.2504 -4.05231e-17
273 1 71.7989 82.523 -4.05231e-17
274 1 35.1059 189.105 -4.05231e-17
275 1 146.258 110.991 -4.05231e-17
276 1 199.968 74.3158 -4.05231e-17
277 1 98.5457 35.8911 -4.05231e-17
278 2 60.007 145.257 -4.05231e-17
279 2 159.796 86.8218 -4.05231e-17
280 1 117.004 213.911 -4.05231e-17
281 2 163.998 176.983 -4.05231e-17
282 2 70.3676 124.13 -4.05231e-17
283 2 218.174 151.134 -4.05231e-17
284 1 125.771 113.73 -4.05231e-17
285 1 73.0463 164.61 -4.05231e-17
286 2 29.8534 180.467 -4.05231e-17
287 2 97.6006 103.765 -4.05231e-17
288 1 108.815 124.045 -4.05231e-17
289 2 185.762 54.0014 -4.05231e-17
290 1 94.3678 22.7654 -4.05231e-17
291 2 97.4991 188.279 -4.05231e-17
292 1 70.9716 127.049 -4.05231e-17
293 1 160.297 161.353 -4.05231e-17
294 1 29.2972 177.746 -4.05231e-17
295 2 46.1407 146.156 -4.05231e-17
296 1 188.528 174.656 -4.05231e-17
297 1 2.66311 19.3788 -4.05231e-17
298 2 29.7363 141.119 -4.05231e-17
299 1 172.019 58.28 -4.05231e-17
300 2 187.019 195.869 -4.05231e-17
301 2 171.798 19.9908 -4.05231e-17
302 2 163.618 89.374 -4.05231e-17
303 1 1.61289 151.71 -4.05231e-17
304 1 123.698 106.042 -4.05231e-17
305 1 92.6321 176.941 -4.05231e-17
306 2 81.9385 19.9111 -4.05231e-17
307 2 149.543 170.346 -4.05231e-17
308 2 141.531 21.8331 -4.05231e-17
309 1 71.8856 70.8058 -4.05231e-17
310 1 188.634 183.6 -4.05231e-17
311 1 150.57 109.286 -4.05231e-17
312 2 136.012 12.8335 -4.05231e-17
313 2 157.373 16.5348 -4.05231e-17
314 1 191.002 56.9123 -4.05231e-17
315 2 59.1135 102.388 -4.05231e-17
316 1 94.4241 36.1408 -4.05231e-17
317 1 132.787 176.53 -4.05231e-17
318 1 215.73 135.955 -4.05231e-17
319 2 73.5473 198.923 -4.05231e-17
320 1 215.284 49.1554 -4.05231e-17
321 1 54.3987 87.303 -4.05231e-17
322 1 51.1211 148.651 -4.05231e-17
323 2 19.2942 138.725 -4.05231e-17
324 2 10.4806 100.151 -4.05231e-17
325 2 216.556 14.9243 -4.05231e-17
326 1 185.801 2.72981 -4.05231e-17
327 1 33.9967 46.1181 -4.05231e-17
328 2 22.0273 193.347 -4.05231e-17
329 2 25.4989 82.2204 -4.05231e-17
330 2 152.33 36.1939 -4.05231e-17
331 2 188.937 68.8618 -4.05231e-17
332 2 120.842 114.78 -4.05231e-17
333 2 27.1079 151.767 -4.05231e-17
334 2 216.538 19.4009 -4.05231e-17
335 1 167.361 212.458 -4.05231e-17
336 2 27.1057 142.331 -4.05231e-17
337 2 43.2981 7.56482 -4.05231e-17
338 1 208.264 95.5179 -4.05231e-17
339 2 14.3814 152.912 -4.05231e-17
340 2 177.46 216.246 -4.05231e-17
341 2 105.216 65.5384 -4.05231e-17
342 2 178.654 174.803 -4.05231e-17
343 2 176.892 6.45732 -4.05231e-17
344 1 85.552 109.957 -4.05231e-17
345 2 30.1489 213.247 -4.05231e-17
346 2 76.3861 71.2373 -4.05231e-17
347 1 147.689 98.9298 -4.05231e-17
348 1 181.963 5.55898 -4.05231e-17
349 2 172.367 70.2576 -4.05231e-17
350 2 76.7282 179.266 -4.05231e-17
351 1 171.472 138.316 -4.05231e-17
352 1 212.037 163.715 -4.05231e-17
353 2 140.7 131.418 -4.05231e-17
354 2 192.335 178.83 -4.05231e-17
355 1 215.21 157.253 -4.05231e-17
356 2 113.664 217.209 -4.05231e-17
357 1 127.171 192.548 -4.05231e-17
358 1 78.2482 23.7875 -4.05231e-17
359 1 33.7359 144.299 -4.05231e-17
360 1 61.041 13.7546 -4.05231e-17
361 2 199.898 66.6898 -4.05231e-17
362 2 172.01 94.382 -4.05231e-17
363 1 78.8149 214.892 -4.05231e-17
364 2 218.572 47.4198 -4.05231e-17
365 1 5.26737 164.34 -4.05231e-17
366 1 83.0001 172.335 -4.05231e-17
367 1 164.824 105.988 -4.05231e-17
368 1 20.6121 164.559 -4.05231e-17
369 2 81.201 143.121 -4.05231e-17
370 1 6.86018 134.824 -4.05231e-17
371 2 69.9457 109.76 -4.05231e-17
372 1 87.6943 6.62555 -4.05231e-17
373 2 115.459 205.717 -4.05231e-17
374 2 175.92 102.777 -4.05231e-17
375 1 135.256 24.8449 -4.05231e-17
376 1 121.313 147.148 -4.05231e-17
377 2 96.3267 71.3824 -4.05231e-17
378 2 215.098 106.773 -4.05231e-17
379 2 171.629 183.678 -4.05231e-17
380 1 196.184 33.3121 -4.05231e-17
381 1 171.284 67.6286 -4.05231e-17
382 1 121.485 25.5546 -4.05231e-17
383 1 108.47 83.6464 -4.05231e-17
384 2 56.4054 100.853 -4.05231e-17
385 1 65.7491 139.404 -4.05231e-17
386 2 179.306 166.401 -4.05231e-17
387 1 33.4458 107.272 -4.05231e-17
388 1 143.552 164.855 -4.05231e-17
389 2 215.462 121.619 -4.05231e-17
390 1 107.316 64.1164 -4.05231e-17
391 1 203.55 0.346421 -4.05231e-17
392 2 0.950262 98.5089 -4.05231e-17
393 2 189.843 177.127 -4.05231e-17
394 1 34.3307 205.77 -4.05231e-17
395 1 19.2515 215.704 -4.05231e-17
396 2 77.0291 87.2157 -4.05231e-17
397 1 67.3469 36.0069 -4.05231e-17
398 2 162.515 110.095 -4.05231e-17
399 2 196.626 106.525 -4.05231e-17
400 2 121.846 70.7247 -4.05231e-17
401 2 88.8361 185.729 -4.05231e-17
402 1 84.5427 41.5787 -4.05231e-17
403 1 60.4272 107.898 -4.05231e-17
404 2 114.763 10.0816 -4.05231e-17
405 1 56.5775 191.502 -4.05231e-17
406 2 1.01934 95.4766 -4.05231e-17
407 1 124.25 79.366 -4.05231e-17
408 1 128.995 27.8942 -4.05231e-17
409 2 214.23 116.394 -4.05231e-17
410 2 70.775 157.939 -4.05231e-17
411 1 136.02 97.3102 -4.05231e-17
412 1 166.215 5.44471 -4.05231e-17
413 1 31.9441 90.1336 -4.05231e-17
414 2 193.916 203.632 -4.05231e-17
415 1 101.424 123.137 -4.05231e-17
416 1 174.272 55.3439 -4.05231e-17
417 2 106.875 128.136 -4.05231e-17
418 2 34.4374 179.485 -4.05231e-17
419 2 195.376 91.4409 -4.05231e-17
420 2 112.064 48.6128 -4.05231e-17
421 1 72.881 29.8522 -4.05231e-17
422 1 37.5134 62.2097 -4.05231e-17
423 2 113.354 124.15 -4.05231e-17
424 2 39.807 21.9791 -4.05231e-17
425 2 117.01 150.676 -4.05231e-17
426 1 185.859 96.4283 -4.05231e-17
427 2 74.1891 57.8237 -4.05231e-17
428 1 28.6657 175.154 -4.05231e-17
429 2 131.211 150.119 -4.05231e-17
430 2 108.985 106.88 -4.05231e-17
431 1 13.807 9.85236 -4.05231e-17
432 2 174.521 4.5677 -4.05231e-17
433 1 179.031 194.833 -4.05231e-17
434 1 15.8707 203.042 -4.05231e-17
435 1 149.569 86.2182 -4.05231e-17
436 2 78.0475 199.119 -4.05231e-17
437 2 180.837 82.6315 -4.05231e-17
438 2 194.934 176.7 -4.05231e-17
439 2 90.9261 10.1426 -4.05231e-17
440 2 205.894 95.2286 -4.05231e-17
441 1 130.544 167.328 -4.05231e-17
442 1 39.985 102.667 -4.05231e-17
443 2 80.4013 80.8312 -4.05231e-17
444 1 204.062 104.978 -4.05231e-17
445 1 169.299 139.663 -4.05231e-17
446 2 184.772 159.569 -4.05231e-17
447 2 39.141 40.4669 -4.05231e-17
448 2 205.534 176.715 -4.05231e-17
449 1 45.3398 174.912 -4.05231e-17
450 1 10.0147 126.518 -4.05231e-17
451 1 50.3365 210.089 -4.05231e-17
452 2 209.455 61.7425 -4.05231e-17
453 1 215.452 150.542 -4.05231e-17
454 1 4.34376 69.6791 -4.05231e-17
455 2 76.1942 126.575 -4.05231e-17
456 1 84.396 1.8982 -4.05231e-17
457 2 142.876 143.323 -4.05231e-17
458 2 155.666 136.918 -4.05231e-17
459 2 133.234 52.2446 -4.05231e-17
460 1 198.719 168.962 -4.05231e-17
461 1 111.056 125.415 -4.05231e-17
462 1 95.3506 181.674 -4.05231e-17
463 2 108.841 217.917 -4.05231e-17
464 2 14.452 80.7856 -4.05231e-17
465 1 125.93 14.3083 -4.05231e-17
466 2 155.486 127.703 -4.05231e-17
467 2 64.4831 133.712 -4.05231e-17
468 2 123.888 126.034 -4.05231e-17
469 2 59.32 70.984 -4.05231e-17
470 2 207.681 155.079 -4.05231e-17
471 2 212.065 212.962 -4.05231e-17
472 2 111.411 36.2137 -4.05231e-17
473 2 198.098 216.19 -4.05231e-17
474 2 84.6219 146.287 -4.05231e-17
475 1 164.034 182.159 -4.05231e-17
476 2 173.92 34.2654 -4.05231e-17
477 1 209.097 0.815802 -4.05231e-17
478 1 45.8119 192.111 -4.05231e-17
479 2 1.48841 198.503 -4.05231e-17
480 1 83.6905 58.2828 -4.05231e-17
481 1 2.51489 210.643 -4.05231e-17
482 2 152.798 177.226 -4.05231e-17
483 1 134.847 208.855 -4.05231e-17
484 1 66.7152 135.109 -4.05231e-17
485 2 12.8772 173.527 -4.05231e-17
486 1 132.994 72.5179 -4.05231e-17
487 1 11.7188 201.066 -4.05231e-17
488 1 51.5699 83.8278 -4.05231e-17
489 1 67.6632 108.66 -4.05231e-17
490 1 164.057 73.5844 -4.05231e-17
491 1 162.4 75.819 -4.05231e-17
492 2 209.634 17.0528 -4.05231e-17
493 1 92.5207 208.864 -4.05231e-17
494 2 77.918 64.2289 -4.05231e-17
495 1 150.215 92.791 -4.05231e-17
496 1 51.4167 123.96 -4.05231e-17
497 1 136.229 109.96 -4.05231e-17
498 2 143.495 38.4322 -4.05231e-17
499 2 179.995 128.657 -4.05231e-17
500 2 59.9807 38.8777 -4.05231e-17
501 2 13.8724 139.437 -4.05231e-17
502 2 193.918 126.444 -4.05231e-17
503 2 58.1888 63.4891 -4.05231e-17
504 2 98.6618 48.4297 -4.05231e-17
505 2 108.985 207.55 -4.05231e-17
506 1 207.664 7.94567 -4.05231e-17
507 2 50.0069 182.463 -4.05231e-17
508 1 140.792 54.0176 -4.05231e-17
509 1 210.614 48.0534 -4.05231e-17
510 1 193.355 102.916 -4.05231e-17
511 2 110.412 176.754 -4.05231e-17
512 1 20.4529 44.5818 -4.05231e-17
513 2 88.1215 182.161 -4.05231e-17
514 2 16.381 89.9031 -4.05231e-17
515 1 62.8213 98.3823 -4.05231e-17
516 2 102.274 76.6313 -4.05231e-17
517 1 31.5044 148.079 -4.05231e-17
518 2 11.0747 14.9843 -4.05231e-17
519 1 124.568 91.973 -4.05231e-17
520 2 211.111 89.5838 -4.05231e-17
521 2 129.442 41.6111 -4.05231e-17
522 1 187.392 9.0939 -4.05231e-17
523 1 126.958 99.6628 -4.05231e-17
524 2 174.758 19.6306 -4.05231e-17
525 2 190.559 54.3715 -4.05231e-17
526 2 104.118 18.9386 -4.05231e-17
527 1 165.351 28.9913 -4.05231e-17
528 1 212.539 203.076 -4.05231e-17
529 2 109.747 173.471 -4.05231e-17
530 2 22.5055 90.1916 -4.05231e-17
531 2 184.32 177.937 -4.05231e-17
532 1 80.5646 5.1412 -4.05231e-17
533 2 22.9287 158.117 -4.05231e-17
534 1 22.4706 168.554 -4.05231e-17
535 1 170.97 208.276 -4.05231e-17
536 2 18.1581 169.979 -4.05231e-17
537 1 141.365 28.5186 -4.05231e-17
538 1 68.2076 156.942 -4.05231e-17
539 2 80.2948 163.263 -4.05231e-17
540 1 35.2101 181.854 -4.05231e-17
541 1 108.84 126.556 -4.05231e-17
542 1 57.4447 126.791 -4.05231e-17
543 2 117.826 170.313 -4.05231e-17
544 1 217.719 212.62 -4.05231e-17
545 1 174.038 72.3682 -4.05231e-17
546 2 187.827 11.4267 -4.05231e-17
547 1 23.8807 80.0819 -4.05231e-17
548 1 29.9341 5.58602 -4.05231e-17
549 2 34.9425 152.286 -4.05231e-17
550 2 168.851 190.82 -4.05231e-17
551 2 40.0291 7.67577 -4.05231e-17
552 1 26.2855 52.6878 -4.05231e-17
553 2 208.312 196.614 -4.05231e-17
554 2 142.795 33.3147 -4.05231e-17
555 2 173.592 140.311 -4.05231e-17
556 1 178.218 213.83 -4.05231e-17
557 1 212.413 55.1133 -4.05231e-17
558 1 59.4114 142.693 -4.05231e-17
559 2 104.907 94.8622 -4.05231e-17
560 2 59.2631 89.1818 -4.05231e-17
561 2 107.768 176.371 -4.05231e-17
562 2 100.624 64.5226 -4.05231e-17
563 1 73.1801 167.549 -4.05231e-17
564 2 109.221 77.5644 -4.05231e-17
565 2 27.8703 57.1776 -4.05231e-17
566 2 64.3912 59.8111 -4.05231e-17
567 1 90.0809 21.0031 -4.05231e-17
568 1 24.4029 70.8022 -4.05231e-17
569 2 141.695 194.204 -4.05231e-17
570 2 12.4458 22.1586 -4.05231e-17
571 2 6.30562 62.812 -4.05231e-17
572 1 114.553 107.606 -4.05231e-17
573 2 40.2224 89.8298 -4.05231e-17
574 2 169.378 171.255 -4.05231e-17
575 1 196.559 208.02 -4.05231e-17
576 1 24.3863 75.5048 -4.05231e-17
577 1 126.192 74.6318 -4.05231e-17
578 1 186.304 114.057 -4.05231e-17
579 2 182.5 48.5786 -4.05231e-17
580 1 100.148 99.8944 -4.05231e-17
581 1 91.0023 145.584 -4.05231e-17
582 2 124.949 101.503 -4.05231e-17
583 2 99.4443 86.0493 -4.05231e-17
584 2 106.93 150.393 -4.05231e-17
585 1 177.452 100.45 -4.05231e-17
586 1 145.191 80.1552 -4.05231e-17
587 1 158.209 111.678 -4.05231e-17
588 2 65.6374 107.225 -4.05231e-17
589 1 211.78 60.2541 -4.05231e-17
590 2 186.796 58.9363 -4.05231e-17
591 2 179.342 17.721 -4.05231e-17
592 1 203.9 128.48 -4.05231e-17
593 1 126.991 90.1961 -4.05231e-17
594 1 6.23321 71.0082 -4.05231e-17
595 1 30.375 64.7022 -4.05231e-17
596 2 107.918 66.8711 -4.05231e-17
597 2 64.0627 104.19 -4.05231e-17
598 2 135.794 87.9344 -4.05231e-17
599 2 96.2682 163.885 -4.05231e-17
600 2 52.0335 101.377 -4.05231e-17
601 1 145.57 108.105 -4.05231e-17
602 1 169.653 57.5347 -4.05231e-17
603 2 215.92 159.768 -4.05231e-17
604 1 48.8307 177.879 -4.05231e-17
605 2 139.763 100.627 -4.05231e-17
606 2 150.242 99.6357 -4.05231e-17
607 2 47.9914 169.912 -4.05231e-17
608 2 127.209 29.6893 -4.05231e-17
609 1 79.6576 87.9158 -4.05231e-17
610 2 101.902 190.94 -4.05231e-17
611 1 0.985288 165.616 -4.05231e-17
612 1 206.972 117.76 -4.05231e-17
613 2 212.493 156.832 -4.05231e-17
614 1 203.513 31.3644 -4.05231e-17
615 1 151.649 104.664 -4.05231e-17
616 2 146.98 178.525 -4.05231e-17
617 1 169.25 2.30358 -4.05231e-17
618 1 141.426 214.048 -4.05231e-17
619 1 155.81 154.948 -4.05231e-17
620 2 44.6189 89.0495 -4.05231e-17
621 2 204.638 75.533 -4.05231e-17
622 2 144.818 151.868 -4.05231e-17
623 2 108.047 146.053 -4.05231e-17
624 1 117.495 176.059 -4.05231e-17
625 2 209.481 80.5139 -4.05231e-17
626 1 211.037 191.368 -4.05231e-17
627 2 195.727 194.107 -4.05231e-17
628 1 118.984 155.974 -4.05231e-17
629 1 32.6352 36.6662 -4.05231e-17
630 2 133.3 214.645 -4.05231e-17
631 2 143.863 115.318 -4.05231e-17
632 2 209.224 21.5749 -4.05231e-17
633 2 59.5744 131.529 -4.05231e-17
634 2 192.468 70.3102 -4.05231e-17
635 2 81.181 70.8473 -4.05231e-17
636 1 87.595 130.275 -4.05231e-17
637 1 216.379 152.837 -4.05231e-17
638 1 119.861 66.7682 -4.05231e-17
639 2 200.018 63.8577 -4.05231e-17
640 2 147.713 80.9481 -4.05231e-17
641 1 200.496 96.7698 -4.05231e-17
642 2 163.038 33.4885 -4.05231e-17
643 1 159.444 59.3837 -4.05231e-17
644 2 141.355 158.101 -4.05231e-17
645 2 6.32802 76.4061 -4.05231e-17
646 1 170.917 144.266 -4.05231e-17
647 2 129.286 148.187 -4.05231e-17
648 2 191.073 212.894 -4.05231e-17
649 1 62.7888 144.854 -4.05231e-17
650 1 56.3974 153.307 -4.05231e-17
651 1 104.633 129.838 -4.05231e-17
652 2 8.36005 214.967 -4.05231e-17
653 2 195.911 44.2026 -4.05231e-17
654 1 207.884 165.212 -4.05231e-17
655 1 60.9087 48.2624 -4.05231e-17
656 1 199.712 11.8889 -4.05231e-17
657 1 124.724 121.007 -4.05231e-17
658 2 165.543 108.737 -4.05231e-17
659 2 100.682 135.556 -4.05231e-17
660 1 25.9306 12.1 -4.05231e-17
661 2 14.5045 36.7315 -4.05231e-17
662 2 135.187 117.067 -4.05231e-17
663 1 164.185 115.307 -4.05231e-17
664 1 78.5592 136.142 -4.05231e-17
665 1 138.043 143.967 -4.05231e-17
666 1 203.109 183.459 -4.05231e-17
667 1 0.0976074 117.43 -4.05231e-17
668 1 134.064 157.105 -4.05231e-17
669 1 107.295 159.794 -4.05231e-17
670 2 211.265 161.422 -4.05231e-17
671 1 4.09004 17.1855 -4.05231e-17
672 1 192.774 144.367 -4.05231e-17
673 2 49.0974 84.8484 -4.05231e-17
674 2 182.812 207.308 -4.05231e-17
675 2 151.329 2.04926 -4.05231e-17
676 1 182.833 157.546 -4.05231e-17
677 2 53.0313 53.805 -4.05231e-17
678 1 88.6717 107.914 -4.05231e-17
679 1 87.1852 61.6875 -4.05231e-17
680 2 67.7056 10.7622 -4.05231e-17
681 1 5.85214 10.3359 -4.05231e-17
682 1 141.474 172.444 -4.05231e-17
683 2 94.76 120.713 -4.05231e-17
684 1 23.1524 180.651 -4.05231e-17
685 1 83.9217 205.971 -4.05231e-17
686 1 143.102 156.321 -4.05231e-17
687 1 116.024 60.0558 -4.05231e-17
688 1 151.79 97.741 -4.05231e-17
689 2 12.355 142.698 -4.05231e-17
690 1 47.0418 123.453 -4.05231e-17
691 2 62.7725 115.382 -4.05231e-17
692 2 173.777 177.481 -4.05231e-17
693 1 161.638 96.531 -4.05231e-17
694 2 141.585 150.768 -4.05231e-17
695 2 184.113 33.6739 -4.05231e-17
696 2 29.3312 86.1116 -4.05231e-17
697 1 102.562 30.0512 -4.05231e-17
698 2 41.5095 19.2824 -4.05231e-17
699 1 55.8771 199.798 -4.05231e-17
700 2 17.0835 126.377 -4.05231e-17
701 2 33.1324 65.5674 -4.05231e-17
702 1 153.757 6.94344 -4.05231e-17
703 1 197.742 65.2601 -4.05231e-17
704 1 154.731 125.239 -4.05231e-17
705 1 41.5045 116.023 -4.05231e-17
706 1 75.2237 160.573 -4.05231e-17
707 1 181.206 66.4972 -4.05231e-17
708 2 195.237 101.236 -4.05231e-17
709 1 54.0216 160.781 -4.05231e-17
710 2 94.9959 16.1145 -4.05231e-17
711 2 0.561359 141.869 -4.05231e-17
712 1 83.6478 213.542 -4.05231e-17
713 1 3.93917 152.214 -4.05231e-17
714 2 145.728 143.961 -4.05231e-17
715 2 133.026 87.1756 -4.05231e-17
716 1 88.5785 59.6954 -4.05231e-17
717 1 18.8846 61.9325 -4.05231e-17
718 2 81.1 98.2356 -4.05231e-17
719 1 67.8247 195.188 -4.05231e-17
720 2 54.4587 202.45 -4.05231e-17
721 2 43.7852 211.422 -4.05231e-17
722 2 64.5208 136.838 -4.05231e-17
723 2 15.0105 166.132 -4.05231e-17
724 2 201.656 104.507 -4.05231e-17
725 2 22.2758 49.8028 -4.05231e-17
726 2 170.219 127.353 -4.05231e-17
727 2 33.2907 109.755 -4.05231e-17
728 1 176.326 77.3387 -4.05231e-17
729 2 158.412 136.003 -4.05231e-17
730 2 175.13 95.0172 -4.05231e-17
731 1 10.2662 23.6717 -4.05231e-17
732 2 110.064 90.4466 -4.05231e-17
733 2 149.492 140.132 -4.05231e-17
734 2 59.0411 192.969 -4.05231e-17
735 2 148.095 72.5444 -4.05231e-17
736 1 170.783 178.161 -4.05231e-17
737 2 46.661 42.2933 -4.05231e-17
738 2 71.3566 207.177 -4.05231e-17
739 2 186.462 133.377 -4.05231e-17
740 2 36.593 113.251 -4.05231e-17
741 2 200.506 113.656 -4.05231e-17
742 1 74.0282 97.8468 -4.05231e-17
743 2 79.3015 74.6895 -4.05231e-17
744 1 147.673 49.1494 -4.05231e-17
745 2 14.3597 77.5497 -4.05231e-17
746 1 218.121 122.042 -4.05231e-17
747 1 98.4635 162.188 -4.05231e-17
748 2 66.0771 193.211 -4.05231e-17
749 1 212.883 166.227 -4.05231e-17
750 1 135.856 144.603 -4.05231e-17
751 1 142.808 89.7213 -4.05231e-17
752 2 194.473 171.003 -4.05231e-17
753 1 36.9061 180.458 -4.05231e-17
754 2 67.247 80.1752 -4.05231e-17
755 1 9.52965 82.9747 -4.05231e-17
756 2 176.234 60.9083 -4.05231e-17
757 1 111.923 21.7377 -4.05231e-17
758 2 97.2261 23.2676 -4.05231e-17
759 1 95.0421 132.325 -4.05231e-17
760 1 167.607 65.1945 -4.05231e-17
761 2 213.245 101.366 -4.05231e-17
762 1 165.655 113.323 -4.05231e-17
763 2 5.67256 157.414 -4.05231e-17
764 2 43.3365 191.474 -4.05231e-17
765 1 21.696 160.372 -4.05231e-17
766 2 104.045 46.4911 -4.05231e-17
767 2 205.311 149.039 -4.05231e-17
768 2 72.8615 61.1173 -4.05231e-17
769 2 188.202 97.4421 -4.05231e-17
770 1 133.531 17.1589 -4.05231e-17
771 1 65.1567 62.5663 -4.05231e-17
772 1 130.641 2.63671 -4.05231e-17
773 2 164.231 170.877 -4.05231e-17
774 1 88.5066 84.1771 -4.05231e-17
775 1 104.79 76.6911 -4.05231e-17
776 2 190.873 105.092 -4.05231e-17
777 2 42.6836 84.5296 -4.05231e-17
778 1 76.4605 15.921 -4.05231e-17
779 1 48.6655 62.1077 -4.05231e-17
780 2 84.6506 48.6457 -4.05231e-17
781 1 25.2733 171.808 -4.05231e-17
782 2 120.877 170.558 -4.05231e-17
783 1 75.2867 60.336 -4.05231e-17
784 2 95.9869 114.542 -4.05231e-17
785 1 204.534 81.2408 -4.05231e-17
786 1 47.1306 2.71568 -4.05231e-17
787 2 38.2456 207.227 -4.05231e-17
788 2 166.343 180.809 -4.05231e-17
789 2 17.2961 147.326 -4.05231e-17
790 2 76.8415 8.55743 -4.05231e-17
791 2 184.043 51.1803 -4.05231e-17
792 1 212.734 132.551 -4.05231e-17
793 1 96.7068 169.696 -4.05231e-17
794 2 210.198 8.14982 -4.05231e-17
795 2 8.33971 188.793 -4.05231e-17
796 1 69.0043 214.649 -4.05231e-17
797 1 50.9211 30.5933 -4.05231e-17
798 1 214.433 56.5188 -4.05231e-17
799 2 105.641 154.534 -4.05231e-17
800 1 53.5879 41.8606 -4.05231e-17
801 2 69.7066 83.8111 -4.05231e-17
802 1 91.4458 216.227 -4.05231e-17
803 1 142.272 24.2261 -4.05231e-17
804 1 209.573 125.027 -4.05231e-17
805 2 182.323 110.66 -4.05231e-17
806 2 181.565 154.403 -4.05231e-17
807 2 210.244 30.5111 -4.05231e-17
808 2 77.1928 150.231 -4.05231e-17
809 1 177.709 63.4125 -4.05231e-17
810 2 23.6733 173.823 -4.05231e-17
811 2 182.583 55.915 -4.05231e-17
812 1 121.714 185.016 -4.05231e-17
813 1 19.1027 83.9558 -4.05231e-17
814 1 2.32568 205.938 -4.05231e-17
815 1 144.333 31.3679 -4.05231e-17
816 1 208.152 51.6529 -4.05231e-17
817 2 63.9736 70.4045 -4.05231e-17
818 2 29.3452 123.585 -4.05231e-17
819 2 211.819 68.5962 -4.05231e-17
820 1 10.6378 59.9741 -4.05231e-17
821 1 64.8005 57.2459 -4.05231e-17
822 2 130.678 33.6759 -4.05231e-17
823 1 184.323 89.5177 -4.05231e-17
824 1 175.629 90.0819 -4.05231e-17
825 1 155.666 196.402 -4.05231e-17
826 2 177.753 82.2248 -4.05231e-17
827 2 105.761 24.7833 -4.05231e-17
828 1 52.4349 91.3988 -4.05231e-17
829 2 127.2 92.654 -4.05231e-17
830 1 3.09706 156.861 -4.05231e-17
831 2 184.317 0.722275 -4.05231e-17
832 2 19.9082 54.197 -4.05231e-17
833 2 96.7906 40.4392 -4.05231e-17
834 1 70.8176 163.184 -4.05231e-17
835 1 180.947 139.817 -4.05231e-17
836 1 152.227 70.3895 -4.05231e-17
837 2 167.651 92.327 -4.05231e-17
838 2 91.6258 23.5118 -4.05231e-17
839 1 41.2676 29.7447 -4.05231e-17
840 2 13.5635 117.177 -4.05231e-17
841 2 202.293 12.0026 -4.05231e-17
842 1 174.753 157.856 -4.05231e-17
843 1 205.832 30.944 -4.05231e-17
844 2 9.54187 26.2271 -4.05231e-17
845 1 46.6572 151.411 -4.05231e-17
846 2 128.37 211.484 -4.05231e-17
847 1 88.1579 142.241 -4.05231e-17
848 2 114.579 4.5879 -4.05231e-17
849 1 26.3651 32.7567 -4.05231e-17
850 2 60.7914 66.8287 -4.05231e-17
851 2 217.489 32.0876 -4.05231e-17
852 1 137.432 183.043 -4.05231e-17
853 1 188.111 105.097 -4.05231e-17
854 2 103.613 143.561 -4.05231e-17
855 2 158.763 121.514 -4.05231e-17
856 1 75.1303 154.815 -4.05231e-17