ITEM: TIMESTEP
0
ITEM: NUMBER OF ATOMS
7200
ITEM: BOX BOUNDS xy xz yz pp pp pp
0.0000000000000000e+00 2.1900000000000000e+02 0.0000000000000000e+00
0.0000000000000000e+00 2.1900000000000000e+02 0.0000000000000000e+00
-3.6499999999999999e-01 3.6499999999999999e-01 0.0000000000000000e+00
ITEM: ATOMS id type x y z
1 1 182.974 12.7381 -4.05231e-17
2 2 188.12 183.649 -4.05231e-17
3 2 144.693 189.36 -4.05231e-17
4 1 123.059 110.118 -4.05231e-17
5 1 101.5 122.536 -4.05231e-17
6 1 104.491 25.1049 -4.05231e-17
7 2 158.814 128.958 -4.05231e-17
8 2 69.8743 25.5644 -4.05231e-17
9 1 21.8643 214.911 -4.05231e-17
10 2 52.4981 166.561 -4.05231e-17
11 2 210.205 100.21 -4.05231e-17
12 1 33.8334 197.63 -4.05231e-17
13 2 194.324 53.8904 -4.05231e-17
14 1 57.5198 184.179 -4.05231e-17
15 2 193.228 0.0475874 -4.05231e-17
16 2 218.464 85.6197 -4.05231e-17
17 1 67.4958 74.3641 -4.05231e-17
18 2 10.1475 172.878 -4.05231e-17
19 1 93.2322 130.113 -4.05231e-17
20 1 72.1948 10.8375 -4.05231e-17
21 1 156.887 8.0161 -4.05231e-17
22 2 31.6514 212.498 -4.05231e-17
23 2 43.3263 208.336 -4.05231e-17
24 2 218.771 103.066 -4.05231e-17
25 2 30.078 207.522 -4.05231e-17
26 2 149.5 27.7181 -4.05231e-17
27 1 217.414 162.786 -4.05231e-17
28 2 54.4895 154.672 -4.05231e-17
29 2 83.6757 3.9701 -4.05231e-17
30 2 132.023 37.3741 -4.05231e-17
31 2 156.54 83.66 -4.05231e-17
32 1 48.4827 108.727 -4.05231e-17
33 2 145.18 87.4245 -4.05231e-17
34 2 16.1106 96.0933 -4.05231e-17
35 2 127.179 11.3156 -4.05231e-17
36 1 160.4 146.739 -4.05231e-17
37 1 133.398 185.283 -4.05231e-17
38 2 209.079 158.015 -4.05231e-17
39 1 7.91829 38.1702 -4.05231e-17
40 2 196.426 73.7553 -4.05231e-17
41 1 192.63 73.21 -4.05231e-17
42 1 54.7288 58.7015 -4.05231e-17
43 1 210.234 132.341 -4.05231e-17
44 1 155.067 188.706 -4.05231e-17
45 2 159.175 61.1061 -4.05231e-17
46 1 124.459 192.651 -4.05231e-17
47 2 89.215 80.4455 -4.05231e-17
48 2 150.932 129.616 -4.05231e-17
49 1 194.122 200.144 -4.05231e-17
50 2 29.112 47.4215 -4.05231e-17
51 1 186.504 3.09417 -4.05231e-17
52 1 115.676 47.7637 -4.05231e-17
53 2 54.897 200.728 -4.05231e-17
54 1 38.9416 16.792 -4.05231e-17
55 2 53.4816 141.331 -4.05231e-17
56 1 31.2041 132.504 -4.05231e-17
57 2 58.4833 133.95 -4.05231e-17
58 1 183.894 33.5415 -4.05231e-17
59 1 157.467 86.0308 -4.05231e-17
60 2 206.164 59.6143 -4.05231e-17
61 1 157.276 164.512 -4.05231e-17
62 1 106.662 111.65 -4.05231e-17
63 2 109.041 38.7142 -4.05231e-17
64 1 28.2503 17.9302 -4.05231e-17
65 2 152.632 149.249 -4.05231e-17
66 2 13.1995 154.953 -4.05231e-17
67 2 182.939 107.747 -4.05231e-17
68 1 136.846 83.0943 -4.05231e-17
69 2 109.484 168.577 -4.05231e-17
70 1 141.693 97.7176 -4.05231e-17
71 1 198.229 147.859 -4.05231e-17
72 2 45.2289 157.323 -4.05231e-17
73 2 191.941 179.759 -4.05231e-17
74 2 111.582 66.9938 -4.05231e-17
75 1 14.8282 136.92 -4.05231e-17
76 2 138.115 206.575 -4.05231e-17
77 2 168.709 16.1269 -4.05231e-17
78 1 93.1372 208.104 -4.05231e-17
79 2 60.5394 75.8333 -4.05231e-17
80 1 49.8456 22.814 -4.05231e-17
81 1 181.611 211.272 -4.05231e-17
82 1 173.138 41.4569 -4.05231e-17
83 1 71.0904 91.1695 -4.05231e-17
84 2 140.943 179.679 -4.05231e-17
85 2 151.183 146.235 -4.05231e-17
86 2 50.8869 67.9596 -4.05231e-17
87 2 38.6639 75.6418 -4.05231e-17
88 1 80.8077 157.48 -4.05231e-17
89 2 199.728 105.624 -4.05231e-17
90 2 126.075 36.3518 -4.05231e-17
91 2 11.1271 182.591 -4.05231e-17
92 1 27.5055 215.312 -4.05231e-17
93 2 110.255 154.39 -4.05231e-17
94 2 113.147 144.325 -4.05231e-17
95 1 211.205 51.7567 -4.05231e-17
96 2 31.8645 54.3839 -4.05231e-17
97 2 4.31347 211.686 -4.05231e-17
98 2 35.6982 185.428 -4.05231e-17
99 1 104.76 9.64338 -4.05231e-17
100 2 158.927 65.7891 -4.05231e-17
101 1 184.272 110.034 -4.05231e-17
102 1 66.4643 164.201 -4.05231e-17
103 2 204.803 100.335 -4.05231e-17
104 2 104.235 72.9815 -4.05231e-17
105 1 160.772 58.8993 -4.05231e-17
106 1 185.109 60.6569 -4.05231e-17
107 1 12.1866 106.976 -4.05231e-17
108 1 69.9577 210.105 -4.05231e-17
109 2 217.497 39.3768 -4.05231e-17
110 2 145.161 29.8348 -4.05231e-17
111 1 52.9111 92.3445 -4.05231e-17
112 2 8.30654 50.8874 -4.05231e-17
113 1 134.911 10.8613 -4.05231e-17
114 1 92.3795 86.8891 -4.05231e-17
115 2 32.0775 59.85 -4.05231e-17
116 2 184.012 15.3624 -4.05231e-17
117 1 163.03 110.647 -4.05231e-17
118 1 82.8245 94.5107 -4.05231e-17
119 2 99.2239 139.451 -4.05231e-17
120 2 201.2 58.6609 -4.05231e-17
121 1 205.19 139.066 -4.05231e-17
122 2 143.463 129.733 -4.05231e-17
123 2 6.84772 129.711 -4.05231e-17
124 1 161.173 199.895 -4.05231e-17
125 1 88.2888 193.062 -4.05231e-17
126 2 97.7454 84.0206 -4.05231e-17
127 2 208.844 110.923 -4.05231e-17
128 1 121.748 105.19 -4.05231e-17
129 1 144.254 194.415 -4.05231e-17
130 2 119.957 61.1875 -4.05231e-17
131 1 133.819 60.3304 -4.05231e-17
132 1 139.621 22.0044 -4.05231e-17
133 1 181.089 105.687 -4.05231e-17
134 1 81.2491 191.502 -4.05231e-17
135 2 177.741 61.2932 -4.05231e-17
136 1 190.516 119.059 -4.05231e-17
137 1 60.5092 7.599 -4.05231e-17
138 2 156.295 158.864 -4.05231e-17
139 1 132.636 11.7316 -4.05231e-17
140 1 145.058 208.406 -4.05231e-17
141 1 51.213 70.6305 -4.05231e-17
142 1 212.882 191.128 -4.05231e-17
143 1 26.2064 26.1612 -4.05231e-17
144 1 46.4213 97.6384 -4.05231e-17
145 2 193.178 80.1593 -4.05231e-17
146 1 153.814 125.765 -4.05231e-17
147 2 16.5453 134.682 -4.05231e-17
148 1 24.494 133.416 -4.05231e-17
149 1 147.374 190.364 -4.05231e-17
150 2 65.6617 52.4166 -4.05231e-17
151 1 132.567 138.003 -4.05231e-17
152 1 164.033 163.518 -4.05231e-17
153 2 124.122 130.328 -4.05231e-17
154 1 184.164 52.9951 -4.05231e-17
155 2 203.306 40.1001 -4.05231e-17
156 2 109.598 197.09 -4.05231e-17
157 2 166.404 29.1466 -4.05231e-17
158 2 27.8528 7.64128 -4.05231e-17
159 2 12.1397 159.431 -4.05231e-17
160 2 120.546 54.7489 -4.05231e-17
161 2 130.146 138.843 -4.05231e-17
162 1 23.7919 66.4502 -4.05231e-17
163 1 188.821 33.9605 -4.05231e-17
164 2 108.627 134.871 -4.05231e-17
165 1 48.9122 72.0328 -4.05231e-17
166 2 6.06662 200.124 -4.05231e-17
167 1 107.095 167.603 -4.05231e-17
168 1 211.253 103.01 -4.05231e-17
169 2 98.1406 199.465 -4.05231e-17
170 1 66.2647 206.39 -4.05231e-17
171 1 137.348 92.2419 -4.05231e-17
172 1 199.279 200.016 -4.05231e-17
173 1 38.9434 204.222 -4.05231e-17
174 2 38.4534 172.881 -4.05231e-17
175 2 49.7057 199.602 -4.05231e-17
176 1 119.989 151.604 -4.05231e-17
177 2 104.856 15.2116 -4.05231e-17
178 1 25.1617 7.49632 -4.05231e-17
179 2 106.555 197.324 -4.05231e-17
180 1 47.1709 76.5312 -4.05231e-17
181 1 16.0211 119.476 -4.05231e-17
182 1 113.762 86.7133 -4.05231e-17
183 1 64.0348 168.348 -4.05231e-17
184 2 157.591 25.6468 -4.05231e-17
185 2 189.997 78.7973 -4.05231e-17
186 2 74.1805 206.181 -4.05231e-17
187 2 158.999 201.983 -4.05231e-17
188 2 60.1954 28.4077 -4.05231e-17
189 1 191.457 57.8001 -4.05231e-17
190 1 196.404 55.48 -4.05231e-17
191 2 35.5478 104.621 -4.05231e-17
192 2 89.2347 59.9495 -4.05231e-17
193 1 108.582 165.616 -4.05231e-17
194 1 26.8014 5.29991 -4.05231e-17
195 2 58.3482 119.905 -4.05231e-17
196 1 0.091681 0.196122 -4.05231e-17
197 2 119.048 50.4676 -4.05231e-17
198 2 206.204 27.3794 -4.05231e-17
199 2 99.89 170.525 -4.05231e-17
200 2 98.7393 30.9712 -4.05231e-17
201 2 103.428 120.942 -4.05231e-17
202 1 43.6738 34.2792 -4.05231e-17
203 1 18.1977 42.6217 -4.05231e-17
204 2 44.9245 78.5124 -4.05231e-17
205 2 183.023 182.382 -4.05231e-17
206 2 170.761 127.634 -4.05231e-17
207 1 74.6168 189.217 -4.05231e-17
208 2 134.949 54.3204 -4.05231e-17
209 2 32.9587 142.368 -4.05231e-17
210 1 182.277 113.358 -4.05231e-17
211 1 208.441 35.4415 -4.05231e-17
212 1 208.418 85.2437 -4.05231e-17
213 1 128.231 123.662 -4.05231e-17
214 2 12.001 11.3926 -4.05231e-17
215 1 5.66212 142.687 -4.05231e-17
216 1 54.8644 46.5417 -4.05231e-17
217 1 164.326 61.8709 -4.05231e-17
218 2 201.135 121.326 -4.05231e-17
219 2 136.254 189.821 -4.05231e-17
220 1 121.227 1.49164 -4.05231e-17
221 2 82.8497 7.12687 -4.05231e-17
222 1 158.881 157.489 -4.05231e-17
223 1 46.0082 120.608 -4.05231e-17
224 2 146.023 70.8619 -4.05231e-17
225 2 168.8 164.217 -4.05231e-17
226 1 196.617 10.3919 -4.05231e-17
227 2 203.285 214.609 -4.05231e-17
228 2 117.65 63.4651 -4.05231e-17
229 1 47.4932 22.5864 -4.05231e-17
230 1 4.5054 56.8634 -4.05231e-17
231 2 137.536 160.859 -4.05231e-17
232 1 17.9169 212.573 -4.05231e-17
233 2 75.551 195.622 -4.05231e-17
234 1 0.472299 59.8941 -4.05231e-17
235 1 150.312 105.991 -4.05231e-17
236 2 153.128 53.1994 -4.05231e-17
237 2 99.4838 203.944 -4.05231e-17
238 2 94.8947 140.516 -4.05231e-17
239 1 35.3704 216.824 -4.05231e-17
240 1 129.679 90.573 -4.05231e-17
241 2 3.5756 124.833 -4.05231e-17
242 1 194.117 28.3971 -4.05231e-17
243 2 214.967 130.484 -4.05231e-17
244 2 35.661 190.905 -4.05231e-17
245 1 174.08 21.4994 -4.05231e-17
246 2 90.2207 85.3932 -4.05231e-17
247 2 198.795 150.602 -4.05231e-17
248 1 38.0245 27.0023 -4.05231e-17
249 1 131.919 108.207 -4.05231e-17
250 1 134.621 27.8163 -4.05231e-17
251 2 101.942 43.1155 -4.05231e-17
252 1 110.556 156.893 -4.05231e-17
253 2 95.7646 97.6531 -4.05231e-17
254 2 179.272 205.234 -4.05231e-17
255 2 122.532 50.3469 -4.05231e-17
256 1 2.86852 180.325 -4.05231e-17
257 2 32.5098 195.261 -4.05231e-17
258 1 210.859 81.4866 -4.05231e-17
259 2 161.087 141.686 -4.05231e-17
260 1 40.284 192.674 -4.05231e-17
261 2 142.704 176.986 -4.05231e-17
262 2 186.847 110.57 -4.05231e-17
263 2 94.4077 172.849 -4.05231e-17
264 1 199.33 36.3264 -4.05231e-17
265 1 157.403 187.257 -4.05231e-17
266 1 98.7721 196.883 -4.05231e-17
267 2 115.655 16.3192 -4.05231e-17
268 1 218.529 49.0293 -4.05231e-17
269 2 10.026 113.591 -4.05231e-17
270 2 185.616 149.004 -4.05231e-17
271 2 187.78 95.0838 -4.05231e-17
272 1 59.015 26.0317 -4.05231e-17
273 1 70.4317 83.2551 -4.05231e-17
274 1 38.013 196.339 -4.05231e-17
275 1 146.81 109.899 -4.05231e-17
276 1 199.016 75.0532 -4.05231e-17
277 1 100.637 37.705 -4.05231e-17
278 2 61.0515 145.28 -4.05231e-17
279 2 160.068 86.407 -4.05231e-17
280 1 117.35 210.865 -4.05231e-17
281 2 169.774 182.658 -4.05231e-17
282 2 75.5749 127.197 -4.05231e-17
283 2 0.0656851 151.227 -4.05231e-17
284 1 126.013 113.278 -4.05231e-17
285 1 73.3226 165.384 -4.05231e-17
286 2 30.3529 180.29 -4.05231e-17
287 2 93.425 109.85 -4.05231e-17
288 1 104.42 123.324 -4.05231e-17
289 2 193.9 56.915 -4.05231e-17
290 1 101.176 29.7709 -4.05231e-17
291 2 96.3031 185.952 -4.05231e-17
292 1 77.3514 125.356 -4.05231e-17
293 1 159.195 168.302 -4.05231e-17
294 1 29.9137 177.709 -4.05231e-17
295 2 46.7319 145.638 -4.05231e-17
296 1 196.971 176.817 -4.05231e-17
297 1 2.121 18.5335 -4.05231e-17
298 2 30.3502 140.666 -4.05231e-17
299 1 177.361 55.8047 -4.05231e-17
300 2 190.184 193.079 -4.05231e-17
301 2 172.068 19.5796 -4.05231e-17
302 2 163.876 89.3379 -4.05231e-17
303 1 2.55516 152.079 -4.05231e-17
304 1 124.445 105.842 -4.05231e-17
305 1 92.1858 177.786 -4.05231e-17
306 2 83.7021 17.9727 -4.05231e-17
307 2 150.656 167.939 -4.05231e-17
308 2 142.217 22.4483 -4.05231e-17
309 1 70.7157 71.8713 -4.05231e-17
310 1 190.616 190.461 -4.05231e-17
311 1 150.84 108.631 -4.05231e-17
312 2 134.762 13.5015 -4.05231e-17
313 2 155.045 17.9937 -4.05231e-17
314 1 184.287 58.4057 -4.05231e-17
315 2 56.7169 107.571 -4.05231e-17
316 1 95.8887 30.796 -4.05231e-17
317 1 133.082 175.837 -4.05231e-17
318 1 216.636 135.955 -4.05231e-17
319 2 74.2467 200.83 -4.05231e-17
320 1 213.857 48.0424 -4.05231e-17
321 1 52.6358 87.2202 -4.05231e-17
322 1 51.5517 147.936 -4.05231e-17
323 2 19.949 138.892 -4.05231e-17
324 2 7.82594 95.3176 -4.05231e-17
325 2 216.233 13.6624 -4.05231e-17
326 1 184.845 1.11361 -4.05231e-17
327 1 35.7082 46.0073 -4.05231e-17
328 2 32.6187 192.086 -4.05231e-17
329 2 28.5108 83.1567 -4.05231e-17
330 2 153.34 39.0229 -4.05231e-17
331 2 187.935 67.8643 -4.05231e-17
332 2 121.397 114.609 -4.05231e-17
333 2 28.0969 151.092 -4.05231e-17
334 2 215.911 18.2969 -4.05231e-17
335 1 167.071 211.278 -4.05231e-17
336 2 27.6379 141.874 -4.05231e-17
337 2 40.8515 9.78948 -4.05231e-17
338 1 203.371 90.6265 -4.05231e-17
339 2 14.9395 152.509 -4.05231e-17
340 2 176.846 214.479 -4.05231e-17
341 2 101.295 60.1108 -4.05231e-17
342 2 173.494 167.028 -4.05231e-17
343 2 176.218 4.99943 -4.05231e-17
344 1 87.9917 105.679 -4.05231e-17
345 2 26.5373 212.871 -4.05231e-17
346 2 75.0412 72.8824 -4.05231e-17
347 1 147.923 98.3346 -4.05231e-17
348 1 181.312 3.91814 -4.05231e-17
349 2 173.232 70.2113 -4.05231e-17
350 2 77.8483 178.989 -4.05231e-17
351 1 175.146 141.791 -4.05231e-17
352 1 212.942 163.827 -4.05231e-17
353 2 140.958 131.606 -4.05231e-17
354 2 191.764 176.448 -4.05231e-17
355 1 215.987 157.528 -4.05231e-17
356 2 114.923 1.52168 -4.05231e-17
357 1 127.013 192.541 -4.05231e-17
358 1 77.9499 25.3666 -4.05231e-17
359 1 34.9219 143.971 -4.05231e-17
360 1 51.4234 7.90942 -4.05231e-17
361 2 196.463 68.6526 -4.05231e-17
362 2 172.409 94.5573 -4.05231e-17
363 1 78.7988 215.465 -4.05231e-17
364 2 216.939 46.8061 -4.05231e-17
365 1 5.70148 164.576 -4.05231e-17
366 1 82.6894 173.033 -4.05231e-17
367 1 161.151 103.972 -4.05231e-17
368 1 20.9035 164.802 -4.05231e-17
369 2 81.933 143.442 -4.05231e-17
370 1 6.87422 132.404 -4.05231e-17
371 2 71.5287 111.403 -4.05231e-17
372 1 87.819 6.67655 -4.05231e-17
373 2 118.103 208.361 -4.05231e-17
374 2 177.051 101.518 -4.05231e-17
375 1 136.394 25.7853 -4.05231e-17
376 1 122.227 147.337 -4.05231e-17
377 2 95.3169 75.9638 -4.05231e-17
378 2 215.594 107.015 -4.05231e-17
379 2 169.717 187.732 -4.05231e-17
380 1 199.74 33.7782 -4.05231e-17
381 1 175.013 67.9915 -4.05231e-17
382 1 122.471 26.7887 -4.05231e-17
383 1 110.363 82.9971 -4.05231e-17
384 2 54.021 100.828 -4.05231e-17
385 1 66.3023 148.735 -4.05231e-17
386 2 179.727 175.554 -4.05231e-17
387 1 34.7687 107.348 -4.05231e-17
388 1 143.935 164.153 -4.05231e-17
389 2 216.029 121.599 -4.05231e-17
390 1 104.859 65.7642 -4.05231e-17
391 1 203.556 217.41 -4.05231e-17
392 2 4.14112 100.645 -4.05231e-17
393 2 192.662 173.508 -4.05231e-17
394 1 36.3104 203.841 -4.05231e-17
395 1 19.1469 214.959 -4.05231e-17
396 2 75.4141 88.3583 -4.05231e-17
397 1 67.5481 41.8372 -4.05231e-17
398 2 165.708 111.059 -4.05231e-17
399 2 196.976 106.88 -4.05231e-17
400 2 123.494 68.9006 -4.05231e-17
401 2 84.1335 190.711 -4.05231e-17
402 1 84.2407 42.871 -4.05231e-17
403 1 69.7573 116.551 -4.05231e-17
404 2 113.388 13.829 -4.05231e-17
405 1 49.1076 196.715 -4.05231e-17
406 2 217.031 95.9373 -4.05231e-17
407 1 123.785 78.4967 -4.05231e-17
408 1 130.065 29.0564 -4.05231e-17
409 2 214.345 116.404 -4.05231e-17
410 2 70.7676 159.024 -4.05231e-17
411 1 136.327 96.8504 -4.05231e-17
412 1 164.438 6.92947 -4.05231e-17
413 1 34.737 85.9266 -4.05231e-17
414 2 192.989 202.717 -4.05231e-17
415 1 107.482 126.926 -4.05231e-17
416 1 175.949 51.9296 -4.05231e-17
417 2 107.77 129.532 -4.05231e-17
418 2 34.7006 179.722 -4.05231e-17
419 2 195.168 92.1321 -4.05231e-17
420 2 108.478 44.0247 -4.05231e-17
421 1 70.4035 30.965 -4.05231e-17
422 1 34.3006 58.2576 -4.05231e-17
423 2 116.659 125.159 -4.05231e-17
424 2 39.0288 24.6316 -4.05231e-17
425 2 117.423 150.491 -4.05231e-17
426 1 185.981 96.9389 -4.05231e-17
427 2 74.8312 60.3241 -4.05231e-17
428 1 29.4025 175.096 -4.05231e-17
429 2 131.484 149.902 -4.05231e-17
430 2 111.823 104.28 -4.05231e-17
431 1 13.3405 9.19651 -4.05231e-17
432 2 173.803 3.31431 -4.05231e-17
433 1 186.52 198.769 -4.05231e-17
434 1 20.1989 204.977 -4.05231e-17
435 1 149.711 85.2415 -4.05231e-17
436 2 85.0246 198.719 -4.05231e-17
437 2 180.906 82.8938 -4.05231e-17
438 2 194.361 177.633 -4.05231e-17
439 2 92.5787 10.3837 -4.05231e-17
440 2 201.172 92.1896 -4.05231e-17
441 1 131.165 167.378 -4.05231e-17
442 1 38.133 104.675 -4.05231e-17
443 2 79.2972 81.9815 -4.05231e-17
444 1 204.534 105.124 -4.05231e-17
445 1 169.619 133.238 -4.05231e-17
446 2 183.092 150.968 -4.05231e-17
447 2 39.9101 40.2616 -4.05231e-17
448 2 205.789 176.15 -4.05231e-17
449 1 41.2826 177.084 -4.05231e-17
450 1 10.6702 126.62 -4.05231e-17
451 1 54.0029 208.841 -4.05231e-17
452 2 208.63 61.0453 -4.05231e-17
453 1 216.565 150.442 -4.05231e-17
454 1 3.09352 69.0403 -4.05231e-17
455 2 81.6145 131.029 -4.05231e-17
456 1 85.1701 1.84704 -4.05231e-17
457 2 140.889 145.085 -4.05231e-17
458 2 155.706 135.799 -4.05231e-17
459 2 133.455 51.3537 -4.05231e-17
460 1 197.358 169.997 -4.05231e-17
461 1 112.111 128.514 -4.05231e-17
462 1 103.867 196.37 -4.05231e-17
463 2 110.445 218.358 -4.05231e-17
464 2 13.8778 77.852 -4.05231e-17
465 1 123.966 15.9364 -4.05231e-17
466 2 150.873 126.405 -4.05231e-17
467 2 66.0364 133.192 -4.05231e-17
468 2 124.101 125.352 -4.05231e-17
469 2 58.1653 71.4709 -4.05231e-17
470 2 208.749 154.849 -4.05231e-17
471 2 211.978 211.505 -4.05231e-17
472 2 111.453 36.4384 -4.05231e-17
473 2 197.984 214.719 -4.05231e-17
474 2 84.9955 146.796 -4.05231e-17
475 1 164.15 183.265 -4.05231e-17
476 2 174.982 34.6441 -4.05231e-17
477 1 208.978 218.076 -4.05231e-17
478 1 46.0569 188.055 -4.05231e-17
479 2 0.731707 197.741 -4.05231e-17
480 1 82.7811 61.7343 -4.05231e-17
481 1 2.75225 209.418 -4.05231e-17
482 2 152.752 176.661 -4.05231e-17
483 1 134.555 209.229 -4.05231e-17
484 1 66.2605 135.81 -4.05231e-17
485 2 13.3496 174.406 -4.05231e-17
486 1 132.642 72.7718 -4.05231e-17
487 1 13.2398 202.271 -4.05231e-17
488 1 50.0518 83.6763 -4.05231e-17
489 1 70.3932 109.012 -4.05231e-17
490 1 164.585 73.3614 -4.05231e-17
491 1 163.002 75.4763 -4.05231e-17
492 2 209.103 15.3634 -4.05231e-17
493 1 93.8501 203.222 -4.05231e-17
494 2 77.9354 66.4001 -4.05231e-17
495 1 150.277 92.109 -4.05231e-17
496 1 52.2449 123.559 -4.05231e-17
497 1 136.828 109.902 -4.05231e-17
498 2 145.183 39.0714 -4.05231e-17
499 2 177.853 119 -4.05231e-17
500 2 57.1811 32.4033 -4.05231e-17
501 2 14.4921 139.64 -4.05231e-17
502 2 190.333 127.068 -4.05231e-17
503 2 57.3886 63.3995 -4.05231e-17
504 2 98.004 50.3481 -4.05231e-17
505 2 112.332 213.756 -4.05231e-17
506 1 207.038 6.26335 -4.05231e-17
507 2 49.5928 181.826 -4.05231e-17
508 1 140.598 59.2495 -4.05231e-17
509 1 209.341 47.5086 -4.05231e-17
510 1 195.408 104.219 -4.05231e-17
511 2 108.431 179.447 -4.05231e-17
512 1 11.0229 42.5978 -4.05231e-17
513 2 88.0135 183.312 -4.05231e-17
514 2 15.1917 87.3656 -4.05231e-17
515 1 60.4771 98.6566 -4.05231e-17
516 2 101.16 73.6113 -4.05231e-17
517 1 32.2918 147.694 -4.05231e-17
518 2 10.2971 13.8143 -4.05231e-17
519 1 125.158 91.7945 -4.05231e-17
520 2 209.488 93.8309 -4.05231e-17
521 2 129.929 39.7512 -4.05231e-17
522 1 187.011 7.3507 -4.05231e-17
523 1 127.522 99.4774 -4.05231e-17
524 2 174.969 18.798 -4.05231e-17
525 2 185.175 45.6577 -4.05231e-17
526 2 108.191 16.0175 -4.05231e-17
527 1 170.689 25.4482 -4.05231e-17
528 1 212.84 201.951 -4.05231e-17
529 2 104.652 176.396 -4.05231e-17
530 2 18.4303 88.1295 -4.05231e-17
531 2 184.86 172.02 -4.05231e-17
532 1 80.897 5.26306 -4.05231e-17
533 2 23.4564 158.242 -4.05231e-17
534 1 22.518 168.59 -4.05231e-17
535 1 169.867 206.888 -4.05231e-17
536 2 17.8921 169.818 -4.05231e-17
537 1 142.617 29.1558 -4.05231e-17
538 1 68.5072 157.866 -4.05231e-17
539 2 80.8445 163.298 -4.05231e-17
540 1 35.1343 182.283 -4.05231e-17
541 1 105.33 128.623 -4.05231e-17
542 1 58.5956 126.641 -4.05231e-17
543 2 120.319 168.54 -4.05231e-17
544 1 217.559 211.365 -4.05231e-17
545 1 174.833 72.2956 -4.05231e-17
546 2 186.938 10.0247 -4.05231e-17
547 1 12.6471 71.313 -4.05231e-17
548 1 29.6232 5.47893 -4.05231e-17
549 2 35.3141 152.373 -4.05231e-17
550 2 164.434 193.671 -4.05231e-17
551 2 38.61 7.3548 -4.05231e-17
552 1 31.5842 51.7675 -4.05231e-17
553 2 207.106 196.911 -4.05231e-17
554 2 144.136 34.1715 -4.05231e-17
555 2 178.196 134.929 -4.05231e-17
556 1 177.737 211.807 -4.05231e-17
557 1 211.103 54.4034 -4.05231e-17
558 1 60.3273 142.824 -4.05231e-17
559 2 106.447 91.4344 -4.05231e-17
560 2 57.2792 89.3364 -4.05231e-17
561 2 110.781 181.414 -4.05231e-17
562 2 99.1142 65.5016 -4.05231e-17
563 1 73.5115 167.974 -4.05231e-17
564 2 103.366 78.3796 -4.05231e-17
565 2 33.3816 64.9974 -4.05231e-17
566 2 64.2323 60.4881 -4.05231e-17
567 1 94.7096 11.7645 -4.05231e-17
568 1 22.3499 77.9745 -4.05231e-17
569 2 141.696 194.45 -4.05231e-17
570 2 11.5844 21.3547 -4.05231e-17
571 2 5.17533 62.1507 -4.05231e-17
572 1 115.47 107.807 -4.05231e-17
573 2 37.9665 89.7298 -4.05231e-17
574 2 179.103 170.489 -4.05231e-17
575 1 195.916 206.97 -4.05231e-17
576 1 25.5023 68.1805 -4.05231e-17
577 1 127.693 74.6024 -4.05231e-17
578 1 183.744 115.356 -4.05231e-17
579 2 182.07 44.5037 -4.05231e-17
580 1 109.26 103.795 -4.05231e-17
581 1 91.5994 146.405 -4.05231e-17
582 2 125.568 101.119 -4.05231e-17
583 2 103.42 83.872 -4.05231e-17
584 2 107.461 151.004 -4.05231e-17
585 1 181.867 103.228 -4.05231e-17
586 1 143.563 80.0577 -4.05231e-17
587 1 158.369 111.882 -4.05231e-17
588 2 64.5424 108.853 -4.05231e-17
589 1 210.814 59.6926 -4.05231e-17
590 2 181.626 58.2646 -4.05231e-17
591 2 178.658 16.4647 -4.05231e-17
592 1 204.099 128.887 -4.05231e-17
593 1 127.121 89.9932 -4.05231e-17
594 1 5.21435 70.4289 -4.05231e-17
595 1 32.6706 62.4314 -4.05231e-17
596 2 107.062 70.9927 -4.05231e-17
597 2 63.5275 105.858 -4.05231e-17
598 2 135.979 87.3208 -4.05231e-17
599 2 96.9359 166.027 -4.05231e-17
600 2 49.0201 98.8109 -4.05231e-17
601 1 145.849 107.455 -4.05231e-17
602 1 173.577 51.9921 -4.05231e-17
603 2 216.788 160.069 -4.05231e-17
604 1 45.9586 178.871 -4.05231e-17
605 2 140.196 100.219 -4.05231e-17
606 2 150.324 99.0294 -4.05231e-17
607 2 47.8566 169.189 -4.05231e-17
608 2 128.133 31.1117 -4.05231e-17
609 1 77.8599 89.4993 -4.05231e-17
610 2 106.071 200.218 -4.05231e-17
611 1 1.43964 165.873 -4.05231e-17
612 1 207.156 117.829 -4.05231e-17
613 2 213.512 156.902 -4.05231e-17
614 1 202.837 30.4903 -4.05231e-17
615 1 152.188 104.147 -4.05231e-17
616 2 145.843 178.059 -4.05231e-17
617 1 168.689 1.11866 -4.05231e-17
618 1 137.069 216.49 -4.05231e-17
619 1 164.102 160.93 -4.05231e-17
620 2 42.7053 88.8206 -4.05231e-17
621 2 203.548 77.2646 -4.05231e-17
622 2 144.943 154.276 -4.05231e-17
623 2 108.875 146.766 -4.05231e-17
624 1 107.146 177.108 -4.05231e-17
625 2 208.639 79.9249 -4.05231e-17
626 1 210.493 190.378 -4.05231e-17
627 2 195.229 193.277 -4.05231e-17
628 1 117.025 156.141 -4.05231e-17
629 1 30.1247 41.1355 -4.05231e-17
630 2 133.653 213.798 -4.05231e-17
631 2 144.61 115.002 -4.05231e-17
632 2 209.158 20.0432 -4.05231e-17
633 2 60.772 131.775 -4.05231e-17
634 2 191.302 67.7334 -4.05231e-17
635 2 80.1298 72.3143 -4.05231e-17
636 1 88.4942 130.958 -4.05231e-17
637 1 217.162 153.051 -4.05231e-17
638 1 116.581 68.991 -4.05231e-17
639 2 200.685 65.7953 -4.05231e-17
640 2 149.277 77.9982 -4.05231e-17
641 1 200.158 96.8218 -4.05231e-17
642 2 161.862 35.5108 -4.05231e-17
643 1 165.216 57.91 -4.05231e-17
644 2 139.541 155.092 -4.05231e-17
645 2 5.51414 75.5774 -4.05231e-17
646 1 169.776 142.379 -4.05231e-17
647 2 129.279 147.887 -4.05231e-17
648 2 190.335 211.791 -4.05231e-17
649 1 63.7901 145.227 -4.05231e-17
650 1 56.6443 153.007 -4.05231e-17
651 1 112.595 131.08 -4.05231e-17
652 2 8.2297 214.177 -4.05231e-17
653 2 195.324 45.3237 -4.05231e-17
654 1 208.447 164.895 -4.05231e-17
655 1 63.4467 47.4575 -4.05231e-17
656 1 199.048 10.3935 -4.05231e-17
657 1 124.955 120.43 -4.05231e-17
658 2 165.933 105.727 -4.05231e-17
659 2 101.513 137.304 -4.05231e-17
660 1 24.8469 11.9604 -4.05231e-17
661 2 15.7174 36.9413 -4.05231e-17
662 2 135.854 116.748 -4.05231e-17
663 1 163.556 112.951 -4.05231e-17
664 1 80.2471 138.513 -4.05231e-17
665 1 135.871 143.867 -4.05231e-17
666 1 203.142 185.266 -4.05231e-17
667 1 0.406492 117.107 -4.05231e-17
668 1 134.187 156.839 -4.05231e-17
669 1 107.119 160.663 -4.05231e-17
670 2 212.03 161.314 -4.05231e-17
671 1 3.45179 16.2992 -4.05231e-17
672 1 193.553 141.777 -4.05231e-17
673 2 47.6031 84.7092 -4.05231e-17
674 2 182.466 205.601 -4.05231e-17
675 2 152.496 2.33568 -4.05231e-17
676 1 180.676 160.159 -4.05231e-17
677 2 53.1295 53.2273 -4.05231e-17
678 1 86.7888 113.507 -4.05231e-17
679 1 87.1095 65.2106 -4.05231e-17
680 2 71.561 13.5251 -4.05231e-17
681 1 5.28947 9.36413 -4.05231e-17
682 1 141.561 171.844 -4.05231e-17
683 2 96.4621 123.524 -4.05231e-17
684 1 23.2186 180.302 -4.05231e-17
685 1 83.6783 206.441 -4.05231e-17
686 1 142.843 159.679 -4.05231e-17
687 1 107.716 53.1701 -4.05231e-17
688 1 152.105 97.0646 -4.05231e-17
689 2 10.8225 139.713 -4.05231e-17
690 1 48.4897 120.772 -4.05231e-17
691 2 64.809 115.203 -4.05231e-17
692 2 180.519 178.873 -4.05231e-17
693 1 161.491 96.0351 -4.05231e-17
694 2 147.326 149.683 -4.05231e-17
695 2 188.352 36.5347 -4.05231e-17
696 2 31.5905 82.4609 -4.05231e-17
697 1 104.448 35.513 -4.05231e-17
698 2 40.9363 18.4564 -4.05231e-17
699 1 56.9349 202.478 -4.05231e-17
700 2 17.9427 126.279 -4.05231e-17
701 2 30.5314 63.8021 -4.05231e-17
702 1 160.687 10.1298 -4.05231e-17
703 1 195.864 60.7481 -4.05231e-17
704 1 160.056 121.996 -4.05231e-17
705 1 43.3316 120.463 -4.05231e-17
706 1 75.5033 161.506 -4.05231e-17
707 1 182.276 66.8385 -4.05231e-17
708 2 195.335 101.614 -4.05231e-17
709 1 54.4855 160.063 -4.05231e-17
710 2 91.62 16.3301 -4.05231e-17
711 2 1.84766 139.44 -4.05231e-17
712 1 84.2871 213.875 -4.05231e-17
713 1 5.05656 152.701 -4.05231e-17
714 2 145.218 147.352 -4.05231e-17
715 2 133.181 86.8099 -4.05231e-17
716 1 86.8228 61.0341 -4.05231e-17
717 1 14.8734 61.1084 -4.05231e-17
718 2 78.5606 99.7819 -4.05231e-17
719 1 68.6887 202.842 -4.05231e-17
720 2 51.6545 196.972 -4.05231e-17
721 2 44.1763 213.168 -4.05231e-17
722 2 65.4606 138.185 -4.05231e-17
723 2 15.4199 165.902 -4.05231e-17
724 2 202.6 107.201 -4.05231e-17
725 2 21.5891 49.9712 -4.05231e-17
726 2 177.67 123.854 -4.05231e-17
727 2 35.589 109.714 -4.05231e-17
728 1 176.436 77.2041 -4.05231e-17
729 2 167.451 131.939 -4.05231e-17
730 2 175.194 94.6111 -4.05231e-17
731 1 9.98622 23.4519 -4.05231e-17
732 2 98.0955 87.1918 -4.05231e-17
733 2 148.048 146.669 -4.05231e-17
734 2 58.9234 191.301 -4.05231e-17
735 2 148.973 71.8597 -4.05231e-17
736 1 182.216 176.669 -4.05231e-17
737 2 48.7437 39.6474 -4.05231e-17
738 2 71.3349 207.765 -4.05231e-17
739 2 186.083 131.295 -4.05231e-17
740 2 40.6764 115.535 -4.05231e-17
741 2 200.847 113.972 -4.05231e-17
742 1 71.6847 98.9064 -4.05231e-17
743 2 78.6478 75.9751 -4.05231e-17
744 1 146.871 49.9236 -4.05231e-17
745 2 15.6685 75.46 -4.05231e-17
746 1 218.741 121.603 -4.05231e-17
747 1 98.2074 163.278 -4.05231e-17
748 2 69.8765 197.66 -4.05231e-17
749 1 213.547 166.455 -4.05231e-17
750 1 139.565 147.795 -4.05231e-17
751 1 143.178 89.0154 -4.05231e-17
752 2 195.124 168.588 -4.05231e-17
753 1 37.1201 180.247 -4.05231e-17
754 2 65.7525 80.9844 -4.05231e-17
755 1 6.48996 80.8139 -4.05231e-17
756 2 178.438 58.4455 -4.05231e-17
757 1 110.737 14.946 -4.05231e-17
758 2 99.5237 27.928 -4.05231e-17
759 1 95.9728 133.342 -4.05231e-17
760 1 171.089 61.5025 -4.05231e-17
761 2 213.292 101.175 -4.05231e-17
762 1 178.502 106.084 -4.05231e-17
763 2 6.20275 157.814 -4.05231e-17
764 2 43.3128 187.832 -4.05231e-17
765 1 22.0157 160.305 -4.05231e-17
766 2 99.9252 47.8984 -4.05231e-17
767 2 206.375 149.012 -4.05231e-17
768 2 72.1948 62.153 -4.05231e-17
769 2 188.208 98.5758 -4.05231e-17
770 1 134.032 18.1227 -4.05231e-17
771 1 64.4486 63.2429 -4.05231e-17
772 1 128.943 0.254163 -4.05231e-17
773 2 166.61 172.364 -4.05231e-17
774 1 88.2255 87.1644 -4.05231e-17
775 1 102.719 75.6085 -4.05231e-17
776 2 192.61 103.486 -4.05231e-17
777 2 42.3152 79.7737 -4.05231e-17
778 1 83.1936 12.9288 -4.05231e-17
779 1 47.9285 61.2369 -4.05231e-17
780 2 83.2708 49.761 -4.05231e-17
781 1 25.7715 171.618 -4.05231e-17
782 2 123.069 170.158 -4.05231e-17
783 1 74.7222 63.0699 -4.05231e-17
784 2 96.8582 110.38 -4.05231e-17
785 1 204.373 82.5701 -4.05231e-17
786 1 41.2122 6.91574 -4.05231e-17
787 2 38.2047 208.712 -4.05231e-17
788 2 164.942 180.758 -4.05231e-17
789 2 18.3653 147.236 -4.05231e-17
790 2 77.2521 8.19363 -4.05231e-17
791 2 186.547 54.0385 -4.05231e-17
792 1 213.371 132.739 -4.05231e-17
793 1 97.1828 171.818 -4.05231e-17
794 2 209.655 6.49371 -4.05231e-17
795 2 10.6085 191.785 -4.05231e-17
796 1 69.0925 215.023 -4.05231e-17
797 1 46.2099 32.744 -4.05231e-17
798 1 213.291 55.8451 -4.05231e-17
799 2 105.879 155.404 -4.05231e-17
800 1 56.8086 37.0541 -4.05231e-17
801 2 68.2928 84.7123 -4.05231e-17
802 1 90.9653 216.5 -4.05231e-17
803 1 143.208 24.7501 -4.05231e-17
804 1 210.141 125.126 -4.05231e-17
805 2 183.765 117.895 -4.05231e-17
806 2 178.566 158.407 -4.05231e-17
807 2 208.279 29.4892 -4.05231e-17
808 2 76.5135 144.655 -4.05231e-17
809 1 175.908 63.2746 -4.05231e-17
810 2 23.9728 173.56 -4.05231e-17
811 2 179.967 55.8138 -4.05231e-17
812 1 122.064 184.741 -4.05231e-17
813 1 21.8736 95.9329 -4.05231e-17
814 1 2.90817 204.765 -4.05231e-17
815 1 145.953 32.2442 -4.05231e-17
816 1 206.747 51.1806 -4.05231e-17
817 2 62.8556 70.7247 -4.05231e-17
818 2 29.5603 122.837 -4.05231e-17
819 2 210.872 68.2176 -4.05231e-17
820 1 9.35262 59.2501 -4.05231e-17
821 1 64.8107 57.9937 -4.05231e-17
822 2 131.133 34.58 -4.05231e-17
823 1 184.09 90.3719 -4.05231e-17
824 1 175.961 89.9497 -4.05231e-17
825 1 160.132 190.997 -4.05231e-17
826 2 178.261 81.8997 -4.05231e-17
827 2 102.419 26.8139 -4.05231e-17
828 1 50.5571 91.4559 -4.05231e-17
829 2 127.658 92.491 -4.05231e-17
830 1 3.66298 157.086 -4.05231e-17
831 2 183.218 217.983 -4.05231e-17
832 2 26.5495 52.0854 -4.05231e-17
833 2 96.5877 41.9713 -4.05231e-17
834 1 70.9829 164.059 -4.05231e-17
835 1 185.212 141.613 -4.05231e-17
836 1 153.153 69.5002 -4.05231e-17
837 2 168.093 92.1538 -4.05231e-17
838 2 92.0629 26.562 -4.05231e-17
839 1 39.0331 31.8006 -4.05231e-17
840 2 13.847 117.345 -4.05231e-17
841 2 201.576 10.4851 -4.05231e-17
842 1 172.994 159.757 -4.05231e-17
843 1 205.364 29.8617 -4.05231e-17
844 2 8.55122 25.727 -4.05231e-17
845 1 47.1884 150.751 -4.05231e-17
846 2 127.729 211.106 -4.05231e-17
847 1 88.6278 143.1 -4.05231e-17
848 2 111.995 9.30728 -4.05231e-17
849 1 24.7197 32.8756 -4.05231e-17
850 2 60.0558 67.1265 -4.05231e-17
851 2 216.233 30.9331 -4.05231e-17
852 1 137.197 183.189 -4.05231e-17
853 1 186.023 105.194 -4.05231e-17
854 2 104.284 144.604 -4.05231e-17
855 2 165.681 121.272 -4.05231e-17
856 1 77.6836 160.126 -4.05231e-17