ITEM: TIMESTEP
0
ITEM: NUMBER OF ATOMS
7200
ITEM: BOX BOUNDS xy xz yz pp pp pp
0.0000000000000000e+00 2.1900000000000000e+02 0.0000000000000000e+00
0.0000000000000000e+00 2.1900000000000000e+02 0.0000000000000000e+00
-3.6499999999999999e-01 3.6499999999999999e-01 0.0000000000000000e+00
ITEM: ATOMS id type x y z
1 1 129.224 12.3498 -4.05231e-17
2 2 4.78016 199.782 -4.05231e-17
3 2 202.796 151.918 -4.05231e-17
4 1 159.94 130.466 -4.05231e-17
5 1 35.2794 96.5849 -4.05231e-17
6 1 180.467 14.3821 -4.05231e-17
7 2 206.299 25.6291 -4.05231e-17
8 2 93.1961 108.773 -4.05231e-17
9 1 52.3901 203.259 -4.05231e-17
10 2 43.7796 153.596 -4.05231e-17
11 2 9.80247 90.1667 -4.05231e-17
12 1 32.3331 7.44589 -4.05231e-17
13 2 96.7581 73.8939 -4.05231e-17
14 1 121.741 8.66825 -4.05231e-17
15 2 1.99874 15.1161 -4.05231e-17
16 2 196.991 61.2884 -4.05231e-17
17 1 104.364 19.1242 -4.05231e-17
18 2 23.1675 157.118 -4.05231e-17
19 1 25.2098 97.108 -4.05231e-17
20 1 61.2187 215.06 -4.05231e-17
21 1 181.86 81.814 -4.05231e-17
22 2 69.7983 184.347 -4.05231e-17
23 2 35.7414 190.943 -4.05231e-17
24 2 177.669 33.7615 -4.05231e-17
25 2 1.28584 194.985 -4.05231e-17
26 2 142.674 47.7362 -4.05231e-17
27 1 13.7198 195.21 -4.05231e-17
28 2 98.5495 121.579 -4.05231e-17
29 2 67.9925 56.0758 -4.05231e-17
30 2 53.0704 63.879 -4.05231e-17
31 2 134.116 90.6604 -4.05231e-17
32 1 24.6184 124.534 -4.05231e-17
33 2 132.852 99.5986 -4.05231e-17
34 2 7.35954 78.2233 -4.05231e-17
35 2 121.004 48.1349 -4.05231e-17
36 1 129.931 197.492 -4.05231e-17
37 1 84.6483 175.223 -4.05231e-17
38 2 183.792 105.729 -4.05231e-17
39 1 28.1737 62.8344 -4.05231e-17
40 2 198.8 81.1724 -4.05231e-17
41 1 55.7282 206.227 -4.05231e-17
42 1 61.5902 81.8262 -4.05231e-17
43 1 183.973 140.613 -4.05231e-17
44 1 201.387 87.8144 -4.05231e-17
45 2 96.6525 62.0845 -4.05231e-17
46 1 136.847 18.3951 -4.05231e-17
47 2 105.532 63.639 -4.05231e-17
48 2 43.6732 95.6209 -4.05231e-17
49 1 119.242 209.973 -4.05231e-17
50 2 10.2958 45.0674 -4.05231e-17
51 1 164.557 181.676 -4.05231e-17
52 1 56.3395 122.471 -4.05231e-17
53 2 134.483 150.341 -4.05231e-17
54 1 27.9902 30.8663 -4.05231e-17
55 2 6.33078 146.949 -4.05231e-17
56 1 90.5678 4.07817 -4.05231e-17
57 2 203.588 35.0285 -4.05231e-17
58 1 179.078 49.4476 -4.05231e-17
59 1 136.605 91.0392 -4.05231e-17
60 2 203.819 83.9352 -4.05231e-17
61 1 164.926 119.788 -4.05231e-17
62 1 89.4491 94.6618 -4.05231e-17
63 2 105.314 207.741 -4.05231e-17
64 1 44.0897 76.6033 -4.05231e-17
65 2 170.994 109.476 -4.05231e-17
66 2 18.4891 129.718 -4.05231e-17
67 2 189.205 104.245 -4.05231e-17
68 1 110.379 113.676 -4.05231e-17
69 2 159.635 182.493 -4.05231e-17
70 1 161.022 100.356 -4.05231e-17
71 1 40.1291 127.027 -4.05231e-17
72 2 94.2747 99.5467 -4.05231e-17
73 2 201.702 211.139 -4.05231e-17
74 2 205.954 36.8864 -4.05231e-17
75 1 3.85124 109.285 -4.05231e-17
76 2 194.042 125.61 -4.05231e-17
77 2 212.965 115.306 -4.05231e-17
78 1 178.829 159.083 -4.05231e-17
79 2 136.876 199.43 -4.05231e-17
80 1 30.5186 76.478 -4.05231e-17
81 1 185.694 14.6033 -4.05231e-17
82 1 175.692 80.1731 -4.05231e-17
83 1 69.6897 63.1999 -4.05231e-17
84 2 148.059 59.8087 -4.05231e-17
85 2 167.123 205.823 -4.05231e-17
86 2 83.6922 21.5696 -4.05231e-17
87 2 32.8951 151.913 -4.05231e-17
88 1 59.7342 130.922 -4.05231e-17
89 2 170.036 79.7703 -4.05231e-17
90 2 188.939 36.7471 -4.05231e-17
91 2 7.31178 209.024 -4.05231e-17
92 1 202.662 216.884 -4.05231e-17
93 2 69.6496 153.659 -4.05231e-17
94 2 166.276 110.021 -4.05231e-17
95 1 168.262 185.459 -4.05231e-17
96 2 218.541 77.9932 -4.05231e-17
97 2 52.3838 5.17827 -4.05231e-17
98 2 25.618 94.6477 -4.05231e-17
99 1 67.8388 207.523 -4.05231e-17
100 2 32.4202 210.073 -4.05231e-17
101 1 151.424 97.2191 -4.05231e-17
102 1 208.676 152.931 -4.05231e-17
103 2 25.4938 91.6696 -4.05231e-17
104 2 91.5801 44.8706 -4.05231e-17
105 1 199.208 62.939 -4.05231e-17
106 1 51.478 53.6424 -4.05231e-17
107 1 202.829 196.347 -4.05231e-17
108 1 134.088 200.328 -4.05231e-17
109 2 116.926 3.10427 -4.05231e-17
110 2 171.392 12.5142 -4.05231e-17
111 1 184.497 83.0974 -4.05231e-17
112 2 206.306 58.7324 -4.05231e-17
113 1 21.6021 23.0313 -4.05231e-17
114 1 158.935 140.923 -4.05231e-17
115 2 22.9517 80.3968 -4.05231e-17
116 2 214.187 42.7202 -4.05231e-17
117 1 172.219 137.367 -4.05231e-17
118 1 108.518 116.1 -4.05231e-17
119 2 92.7261 161.784 -4.05231e-17
120 2 140.156 55.013 -4.05231e-17
121 1 211.113 58.4099 -4.05231e-17
122 2 178.806 138.369 -4.05231e-17
123 2 41.7778 55.1457 -4.05231e-17
124 1 206.766 127.462 -4.05231e-17
125 1 30.4574 129.167 -4.05231e-17
126 2 61.3995 212.226 -4.05231e-17
127 2 132.548 62.9607 -4.05231e-17
128 1 162.784 134.665 -4.05231e-17
129 1 8.18368 142.454 -4.05231e-17
130 2 169.644 213.004 -4.05231e-17
131 1 38.9569 138.646 -4.05231e-17
132 1 155.113 154.015 -4.05231e-17
133 1 185.651 153.829 -4.05231e-17
134 1 92.4059 11.7348 -4.05231e-17
135 2 99.4536 198.707 -4.05231e-17
136 1 105.444 152.405 -4.05231e-17
137 1 133.563 213.486 -4.05231e-17
138 2 142.382 125.823 -4.05231e-17
139 1 79.1908 57.6525 -4.05231e-17
140 1 134.287 188.384 -4.05231e-17
141 1 188.79 192.841 -4.05231e-17
142 1 29.7444 152.89 -4.05231e-17
143 1 85.3579 65.3463 -4.05231e-17
144 1 101.144 110.449 -4.05231e-17
145 2 159.205 193.251 -4.05231e-17
146 1 50.3641 119.572 -4.05231e-17
147 2 68.2323 52.7401 -4.05231e-17
148 1 78.4985 15.3686 -4.05231e-17
149 1 38.1098 157.755 -4.05231e-17
150 2 5.93178 151.982 -4.05231e-17
151 1 108.819 162.684 -4.05231e-17
152 1 209.471 18.6962 -4.05231e-17
153 2 125.875 120.07 -4.05231e-17
154 1 12.7103 85.5206 -4.05231e-17
155 2 174.209 58.1673 -4.05231e-17
156 2 100.701 201.68 -4.05231e-17
157 2 161.063 150.608 -4.05231e-17
158 2 60.3709 4.99177 -4.05231e-17
159 2 107.394 210.615 -4.05231e-17
160 2 4.92439 213.622 -4.05231e-17
161 2 132.542 116.812 -4.05231e-17
162 1 178.285 19.1789 -4.05231e-17
163 1 22.3461 85.0331 -4.05231e-17
164 2 129.299 169.361 -4.05231e-17
165 1 213.153 26.1838 -4.05231e-17
166 2 57.3537 208.129 -4.05231e-17
167 1 190.04 106.814 -4.05231e-17
168 1 29.6267 201.822 -4.05231e-17
169 2 26.4265 163.513 -4.05231e-17
170 1 153.488 164.48 -4.05231e-17
171 1 90.6623 104.019 -4.05231e-17
172 1 40.0105 107.305 -4.05231e-17
173 1 3.98381 173.4 -4.05231e-17
174 2 69.4095 129.278 -4.05231e-17
175 2 83.2929 35.9471 -4.05231e-17
176 1 65.5739 171.615 -4.05231e-17
177 2 134.221 22.2389 -4.05231e-17
178 1 17.2724 39.153 -4.05231e-17
179 2 114.986 22.5526 -4.05231e-17
180 1 42.6639 68.1954 -4.05231e-17
181 1 113.791 121.028 -4.05231e-17
182 1 130.018 189.353 -4.05231e-17
183 1 49.178 84.5066 -4.05231e-17
184 2 148.373 101.935 -4.05231e-17
185 2 139.966 130.011 -4.05231e-17
186 2 76.5006 202.187 -4.05231e-17
187 2 2.6562 202.044 -4.05231e-17
188 2 21.8281 44.8102 -4.05231e-17
189 1 31.3611 19.5834 -4.05231e-17
190 1 107.629 62.6005 -4.05231e-17
191 2 15.4508 121.204 -4.05231e-17
192 2 51.9942 22.0329 -4.05231e-17
193 1 95.6667 189.327 -4.05231e-17
194 1 94.915 200.387 -4.05231e-17
195 2 64.1661 71.3747 -4.05231e-17
196 1 40.6588 136.932 -4.05231e-17
197 2 159.711 46.4835 -4.05231e-17
198 2 3.37878 211.446 -4.05231e-17
199 2 130.899 175.12 -4.05231e-17
200 2 33.6214 9.8543 -4.05231e-17
201 2 90.7918 202.93 -4.05231e-17
202 1 139.658 142.34 -4.05231e-17
203 1 15.5832 25.9068 -4.05231e-17
204 2 169.063 178.388 -4.05231e-17
205 2 202.155 146.913 -4.05231e-17
206 2 186.551 141.621 -4.05231e-17
207 1 38.2153 184.369 -4.05231e-17
208 2 185.157 11.9793 -4.05231e-17
209 2 58.1116 74.8056 -4.05231e-17
210 1 22.601 42.413 -4.05231e-17
211 1 43.2997 70.7838 -4.05231e-17
212 1 66.0077 54.2754 -4.05231e-17
213 1 171.996 132.041 -4.05231e-17
214 2 116.167 216.321 -4.05231e-17
215 1 196.847 2.10562 -4.05231e-17
216 1 110.422 89.2407 -4.05231e-17
217 1 109.964 48.2552 -4.05231e-17
218 2 206.186 88.8555 -4.05231e-17
219 2 166.734 71.0889 -4.05231e-17
220 1 154.819 54.4373 -4.05231e-17
221 2 84.1913 177.746 -4.05231e-17
222 1 161.589 95.4958 -4.05231e-17
223 1 1.3418 187.565 -4.05231e-17
224 2 68.4541 72.6027 -4.05231e-17
225 2 88.048 156.498 -4.05231e-17
226 1 17.6202 72.5406 -4.05231e-17
227 2 14.6699 197.737 -4.05231e-17
228 2 88.2799 103.274 -4.05231e-17
229 1 30.2499 78.8942 -4.05231e-17
230 1 81.5792 73.0491 -4.05231e-17
231 2 101 169.342 -4.05231e-17
232 1 39.0807 71.5046 -4.05231e-17
233 2 65.8904 21.6359 -4.05231e-17
234 1 92.3293 21.4593 -4.05231e-17
235 1 169.336 115.097 -4.05231e-17
236 2 99.1864 80.2021 -4.05231e-17
237 2 120.301 104.71 -4.05231e-17
238 2 82.2406 16.6301 -4.05231e-17
239 1 19.3112 195.615 -4.05231e-17
240 1 80.8798 144.592 -4.05231e-17
241 2 190.934 171.45 -4.05231e-17
242 1 147.034 150.422 -4.05231e-17
243 2 123.814 10.5369 -4.05231e-17
244 2 151.996 188.621 -4.05231e-17
245 1 96.7996 198.466 -4.05231e-17
246 2 98.2776 143.366 -4.05231e-17
247 2 140.115 149.373 -4.05231e-17
248 1 71.6868 31.5167 -4.05231e-17
249 1 171.412 97.8688 -4.05231e-17
250 1 128.853 112.459 -4.05231e-17
251 2 108.687 126.384 -4.05231e-17
252 1 179.423 104.2 -4.05231e-17
253 2 23.121 132.063 -4.05231e-17
254 2 211.359 122.922 -4.05231e-17
255 2 39.1015 77.6093 -4.05231e-17
256 1 196.822 203.397 -4.05231e-17
257 2 48.5155 166.548 -4.05231e-17
258 1 165.289 27.1749 -4.05231e-17
259 2 175.994 179.945 -4.05231e-17
260 1 49.9193 161.142 -4.05231e-17
261 2 138.493 162.222 -4.05231e-17
262 2 17.4624 82.5064 -4.05231e-17
263 2 108.147 218.531 -4.05231e-17
264 1 136.825 31.3105 -4.05231e-17
265 1 137.938 8.13818 -4.05231e-17
266 1 50.4509 179.122 -4.05231e-17
267 2 94.9769 1.97204 -4.05231e-17
268 1 156.183 83.6933 -4.05231e-17
269 2 74.238 51.3295 -4.05231e-17
270 2 198.008 201.098 -4.05231e-17
271 2 186.96 32.4051 -4.05231e-17
272 1 153.755 50.6411 -4.05231e-17
273 1 4.50577 69.3477 -4.05231e-17
274 1 214.706 212.289 -4.05231e-17
275 1 163.675 192.081 -4.05231e-17
276 1 126.004 34.096 -4.05231e-17
277 1 97.4193 2.87033 -4.05231e-17
278 2 188.61 133.882 -4.05231e-17
279 2 138.058 88.7725 -4.05231e-17
280 1 148.679 175.057 -4.05231e-17
281 2 96.3605 195.529 -4.05231e-17
282 2 14.5046 150.963 -4.05231e-17
283 2 213.895 123.552 -4.05231e-17
284 1 172.175 121.96 -4.05231e-17
285 1 70.0469 91.1372 -4.05231e-17
286 2 109.201 123.395 -4.05231e-17
287 2 99.0549 216.545 -4.05231e-17
288 1 21.7401 117.328 -4.05231e-17
289 2 100.25 38.4023 -4.05231e-17
290 1 137.07 35.8201 -4.05231e-17
291 2 148.55 181.395 -4.05231e-17
292 1 105.582 36.0799 -4.05231e-17
293 1 154.026 90.4386 -4.05231e-17
294 1 90.7449 157.312 -4.05231e-17
295 2 16.0921 18.9654 -4.05231e-17
296 1 201.536 115.966 -4.05231e-17
297 1 62.8017 188.958 -4.05231e-17
298 2 214.315 166.68 -4.05231e-17
299 1 216.19 13.2994 -4.05231e-17
300 2 187.057 3.89152 -4.05231e-17
301 2 72.6093 29.0537 -4.05231e-17
302 2 175.039 77.4747 -4.05231e-17
303 1 37.6009 140.892 -4.05231e-17
304 1 133.2 133.476 -4.05231e-17
305 1 94.4452 182.351 -4.05231e-17
306 2 98.6666 93.4819 -4.05231e-17
307 2 173.293 173.016 -4.05231e-17
308 2 164.376 19.9823 -4.05231e-17
309 1 153.852 106.754 -4.05231e-17
310 1 206.023 4.24935 -4.05231e-17
311 1 201.411 157.847 -4.05231e-17
312 2 64.9036 45.6644 -4.05231e-17
313 2 144.067 182.341 -4.05231e-17
314 1 153.119 35.2427 -4.05231e-17
315 2 16.3047 200.305 -4.05231e-17
316 1 151.91 23.5781 -4.05231e-17
317 1 14.2277 48.673 -4.05231e-17
318 1 11.6796 174.952 -4.05231e-17
319 2 105.163 167.588 -4.05231e-17
320 1 167.549 79.6092 -4.05231e-17
321 1 120.301 25.6729 -4.05231e-17
322 1 65.3149 43.0181 -4.05231e-17
323 2 72.8723 97.5948 -4.05231e-17
324 2 30.4247 5.2321 -4.05231e-17
325 2 208.68 195.993 -4.05231e-17
326 1 182.554 30.8614 -4.05231e-17
327 1 106.358 85.8958 -4.05231e-17
328 2 58.262 100.746 -4.05231e-17
329 2 28.1627 133.812 -4.05231e-17
330 2 104.173 124.816 -4.05231e-17
331 2 36.417 200.584 -4.05231e-17
332 2 142.416 155.226 -4.05231e-17
333 2 3.35336 104.083 -4.05231e-17
334 2 211.485 61.0382 -4.05231e-17
335 1 201.673 77.2553 -4.05231e-17
336 2 42.351 177.248 -4.05231e-17
337 2 141.857 186.84 -4.05231e-17
338 1 21.2641 182.44 -4.05231e-17
339 2 39.9881 189.255 -4.05231e-17
340 2 11.6402 149.989 -4.05231e-17
341 2 71.8082 110.575 -4.05231e-17
342 2 151.917 140.892 -4.05231e-17
343 2 9.55497 192.003 -4.05231e-17
344 1 134.099 170.646 -4.05231e-17
345 2 75.9748 189.233 -4.05231e-17
346 2 79.2041 73.9379 -4.05231e-17
347 1 153.585 102.048 -4.05231e-17
348 1 200.702 201.419 -4.05231e-17
349 2 162.399 17.7739 -4.05231e-17
350 2 41.0925 158.127 -4.05231e-17
351 1 144.95 86.8614 -4.05231e-17
352 1 118.313 35.9051 -4.05231e-17
353 2 159.959 86.1848 -4.05231e-17
354 2 17.3843 149.973 -4.05231e-17
355 1 12.9254 25.5211 -4.05231e-17
356 2 19.8237 31.9859 -4.05231e-17
357 1 133.835 1.68093 -4.05231e-17
358 1 93.3178 31.1202 -4.05231e-17
359 1 2.21131 171.58 -4.05231e-17
360 1 63.6627 205.762 -4.05231e-17
361 2 117.722 90.2597 -4.05231e-17
362 2 181.861 109.195 -4.05231e-17
363 1 40.0301 15.9568 -4.05231e-17
364 2 78.2224 99.5754 -4.05231e-17
365 1 21.2815 4.57319 -4.05231e-17
366 1 118.478 1.07032 -4.05231e-17
367 1 110.88 58.3074 -4.05231e-17
368 1 31.5499 163.994 -4.05231e-17
369 2 52.0966 162.741 -4.05231e-17
370 1 154.206 97.6369 -4.05231e-17
371 2 59.3518 108.077 -4.05231e-17
372 1 87.4237 196.034 -4.05231e-17
373 2 114.753 111.436 -4.05231e-17
374 2 160.252 81.9777 -4.05231e-17
375 1 57.2888 109.397 -4.05231e-17
376 1 169.387 195.871 -4.05231e-17
377 2 31.4418 34.0913 -4.05231e-17
378 2 187.847 187.509 -4.05231e-17
379 2 178.531 12.1752 -4.05231e-17
380 1 208.637 57.2707 -4.05231e-17
381 1 178.695 175.023 -4.05231e-17
382 1 102.509 9.07533 -4.05231e-17
383 1 114.938 30.0812 -4.05231e-17
384 2 21.4365 61.9807 -4.05231e-17
385 1 162.428 86.5781 -4.05231e-17
386 2 154.357 181.369 -4.05231e-17
387 1 47.5766 35.9127 -4.05231e-17
388 1 4.43299 141.693 -4.05231e-17
389 2 141.623 91.3613 -4.05231e-17
390 1 214.849 40.1101 -4.05231e-17
391 1 128.839 187.578 -4.05231e-17
392 2 22.2058 37.2673 -4.05231e-17
393 2 187.604 0.955326 -4.05231e-17
394 1 208.431 206.877 -4.05231e-17
395 1 91.6004 170.062 -4.05231e-17
396 2 23.0515 180.455 -4.05231e-17
397 1 36.681 19.6602 -4.05231e-17
398 2 163.515 88.8858 -4.05231e-17
399 2 206.8 46.728 -4.05231e-17
400 2 78.9421 189.438 -4.05231e-17
401 2 29.2378 162.475 -4.05231e-17
402 1 48.635 200.158 -4.05231e-17
403 1 71.0318 5.53843 -4.05231e-17
404 2 105.744 66.4998 -4.05231e-17
405 1 98.2711 151.295 -4.05231e-17
406 2 205.432 139.583 -4.05231e-17
407 1 68.3589 8.30121 -4.05231e-17
408 1 154.49 189.47 -4.05231e-17
409 2 177.03 82.4984 -4.05231e-17
410 2 26.2946 112.218 -4.05231e-17
411 1 131.254 119.142 -4.05231e-17
412 1 70.5806 74.4804 -4.05231e-17
413 1 56.1268 107.443 -4.05231e-17
414 2 196.859 217.762 -4.05231e-17
415 1 94.5941 141.658 -4.05231e-17
416 1 89.7596 218.819 -4.05231e-17
417 2 38.3698 135.848 -4.05231e-17
418 2 54.9443 145.983 -4.05231e-17
419 2 148.953 205.082 -4.05231e-17
420 2 58.6357 121.164 -4.05231e-17
421 1 115.985 99.9674 -4.05231e-17
422 1 21.5387 111.619 -4.05231e-17
423 2 126.877 19.1941 -4.05231e-17
424 2 63.2543 193.542 -4.05231e-17
425 2 183.275 122.697 -4.05231e-17
426 1 23.7934 112.416 -4.05231e-17
427 2 48.0492 70.2329 -4.05231e-17
428 1 41.4751 72.7417 -4.05231e-17
429 2 30.4271 108.566 -4.05231e-17
430 2 61.5769 117.372 -4.05231e-17
431 1 8.49287 53.4398 -4.05231e-17
432 2 149.641 43.2419 -4.05231e-17
433 1 182.195 21.3635 -4.05231e-17
434 1 146.945 1.55638 -4.05231e-17
435 1 131.083 101.634 -4.05231e-17
436 2 94.7922 89.1703 -4.05231e-17
437 2 177.836 37.0624 -4.05231e-17
438 2 181.325 7.30616 -4.05231e-17
439 2 53.1121 127.283 -4.05231e-17
440 2 192.091 174.103 -4.05231e-17
441 1 112.273 208.259 -4.05231e-17
442 1 183.911 49.8174 -4.05231e-17
443 2 56.2448 45.184 -4.05231e-17
444 1 186.861 74.5596 -4.05231e-17
445 1 142.657 148.739 -4.05231e-17
446 2 174.255 87.5238 -4.05231e-17
447 2 97.2858 53.5022 -4.05231e-17
448 2 18.1495 214.111 -4.05231e-17
449 1 115.707 165.474 -4.05231e-17
450 1 198.867 120.274 -4.05231e-17
451 1 163.863 3.78119 -4.05231e-17
452 2 208.321 215.28 -4.05231e-17
453 1 154.299 79.1001 -4.05231e-17
454 1 19.7731 81.4745 -4.05231e-17
455 2 13.0922 130.658 -4.05231e-17
456 1 209.124 144.857 -4.05231e-17
457 2 194.594 3.88228 -4.05231e-17
458 2 211.273 133.429 -4.05231e-17
459 2 41.0931 49.3375 -4.05231e-17
460 1 7.72366 199.377 -4.05231e-17
461 1 108.301 120.832 -4.05231e-17
462 1 67.2017 121.496 -4.05231e-17
463 2 96.5101 181.059 -4.05231e-17
464 2 138.995 16.7445 -4.05231e-17
465 1 57.5816 68.8104 -4.05231e-17
466 2 53.0074 150.981 -4.05231e-17
467 2 41.5445 118.836 -4.05231e-17
468 2 181.57 48.3893 -4.05231e-17
469 2 52.4917 114.467 -4.05231e-17
470 2 146.333 191.958 -4.05231e-17
471 2 18.0287 162.202 -4.05231e-17
472 2 126.786 0.510996 -4.05231e-17
473 2 5.10515 16.4785 -4.05231e-17
474 2 50.0981 19.7759 -4.05231e-17
475 1 218.404 9.74278 -4.05231e-17
476 2 61.1104 125.731 -4.05231e-17
477 1 145.138 3.2912 -4.05231e-17
478 1 216.464 2.73434 -4.05231e-17
479 2 86.7029 170.095 -4.05231e-17
480 1 94.043 67.5733 -4.05231e-17
481 1 146.877 108.401 -4.05231e-17
482 2 152.536 199.438 -4.05231e-17
483 1 67.4192 23.4539 -4.05231e-17
484 1 37.4879 203.431 -4.05231e-17
485 2 142.326 216.535 -4.05231e-17
486 1 33.3301 51.4211 -4.05231e-17
487 1 71.9539 1.42754 -4.05231e-17
488 1 39.9801 98.4015 -4.05231e-17
489 1 133.946 203.039 -4.05231e-17
490 1 110.642 72.6816 -4.05231e-17
491 1 149.993 72.1986 -4.05231e-17
492 2 89.1463 198.316 -4.05231e-17
493 1 71.0125 134.706 -4.05231e-17
494 2 79.0912 68.8593 -4.05231e-17
495 1 137.967 100.345 -4.05231e-17
496 1 125.072 115.171 -4.05231e-17
497 1 124.118 107.591 -4.05231e-17
498 2 53.36 130.801 -4.05231e-17
499 2 85.5222 28.3354 -4.05231e-17
500 2 106.019 188.473 -4.05231e-17
501 2 152.543 178.769 -4.05231e-17
502 2 211.521 125.754 -4.05231e-17
503 2 49.7838 202.691 -4.05231e-17
504 2 75.1479 102.121 -4.05231e-17
505 2 15.1433 133.861 -4.05231e-17
506 1 161.579 196.747 -4.05231e-17
507 2 59.6286 189.929 -4.05231e-17
508 1 84.8748 33.7803 -4.05231e-17
509 1 30.0916 46.9727 -4.05231e-17
510 1 151.687 78.6086 -4.05231e-17
511 2 133.328 109.388 -4.05231e-17
512 1 206.746 122.641 -4.05231e-17
513 2 151.986 196.99 -4.05231e-17
514 2 199.974 139.986 -4.05231e-17
515 1 78.181 29.9028 -4.05231e-17
516 2 94.0702 92.121 -4.05231e-17
517 1 33.6573 49.0731 -4.05231e-17
518 2 21.8384 20.1954 -4.05231e-17
519 1 105.595 108.488 -4.05231e-17
520 2 83.9048 74.604 -4.05231e-17
521 2 176.041 203.207 -4.05231e-17
522 1 32.5639 106.714 -4.05231e-17
523 1 61.4657 109.475 -4.05231e-17
524 2 123.732 77.3455 -4.05231e-17
525 2 143.458 72.6381 -4.05231e-17
526 2 80.4201 136.615 -4.05231e-17
527 1 194.345 216.932 -4.05231e-17
528 1 206.556 194.332 -4.05231e-17
529 2 148.163 194.748 -4.05231e-17
530 2 11.7302 37.7156 -4.05231e-17
531 2 162.842 137.32 -4.05231e-17
532 1 217.062 186.674 -4.05231e-17
533 2 193.858 89.4835 -4.05231e-17
534 1 180.379 209.049 -4.05231e-17
535 1 194.398 32.3612 -4.05231e-17
536 2 58.0208 158.076 -4.05231e-17
537 1 85.8 142.65 -4.05231e-17
538 1 51.2084 181.45 -4.05231e-17
539 2 67.4889 0.840095 -4.05231e-17
540 1 56.8619 103.399 -4.05231e-17
541 1 136.316 164.175 -4.05231e-17
542 1 47.5128 38.3719 -4.05231e-17
543 2 196.016 206.02 -4.05231e-17
544 1 25.6346 180.678 -4.05231e-17
545 1 129.36 72.4432 -4.05231e-17
546 2 176.901 9.76236 -4.05231e-17
547 1 21.3079 169.062 -4.05231e-17
548 1 191.276 135.24 -4.05231e-17
549 2 68.9461 80.5163 -4.05231e-17
550 2 112.473 201.452 -4.05231e-17
551 2 39.4329 56.9394 -4.05231e-17
552 1 8.51852 83.5552 -4.05231e-17
553 2 215.992 197.15 -4.05231e-17
554 2 116.691 7.89254 -4.05231e-17
555 2 190.224 118.825 -4.05231e-17
556 1 5.87315 30.9999 -4.05231e-17
557 1 27.8595 79.753 -4.05231e-17
558 1 45.1401 151.344 -4.05231e-17
559 2 151.223 145.903 -4.05231e-17
560 2 22.5838 13.8969 -4.05231e-17
561 2 106.435 141.245 -4.05231e-17
562 2 128.506 56.0968 -4.05231e-17
563 1 132.153 125.659 -4.05231e-17
564 2 24.6278 86.494 -4.05231e-17
565 2 67.0294 63.7232 -4.05231e-17
566 2 112.673 56.0109 -4.05231e-17
567 1 104.961 9.01192 -4.05231e-17
568 1 52.3109 56.0812 -4.05231e-17
569 2 176.338 159.919 -4.05231e-17
570 2 34.4586 32.6827 -4.05231e-17
571 2 115.775 49.0021 -4.05231e-17
572 1 9.81861 97.0098 -4.05231e-17
573 2 45.7445 48.7281 -4.05231e-17
574 2 204.149 75.7852 -4.05231e-17
575 1 176.944 185.36 -4.05231e-17
576 1 80.969 53.6534 -4.05231e-17
577 1 102.656 160.134 -4.05231e-17
578 1 74.24 176.217 -4.05231e-17
579 2 209.527 48.1174 -4.05231e-17
580 1 69.0525 188.932 -4.05231e-17
581 1 100.428 161.462 -4.05231e-17
582 2 81.2068 50.8789 -4.05231e-17
583 2 91.055 124.162 -4.05231e-17
584 2 56.0347 14.0336 -4.05231e-17
585 1 187.554 175.285 -4.05231e-17
586 1 126.052 90.8191 -4.05231e-17
587 1 205.596 44.2254 -4.05231e-17
588 2 6.54334 71.2034 -4.05231e-17
589 1 50.2264 14.0917 -4.05231e-17
590 2 17.3606 1.52848 -4.05231e-17
591 2 174.24 190.414 -4.05231e-17
592 1 171.64 205.405 -4.05231e-17
593 1 157.538 126.538 -4.05231e-17
594 1 35.2663 45.3967 -4.05231e-17
595 1 133.726 57.9096 -4.05231e-17
596 2 48.3264 133.043 -4.05231e-17
597 2 75.6346 123.11 -4.05231e-17
598 2 93.5336 116.107 -4.05231e-17
599 2 205.864 125.156 -4.05231e-17
600 2 218.909 125.906 -4.05231e-17
601 1 155.703 95.2723 -4.05231e-17
602 1 167.261 34.7925 -4.05231e-17
603 2 165.475 103.094 -4.05231e-17
604 1 95.7144 170.799 -4.05231e-17
605 2 141.59 137.028 -4.05231e-17
606 2 146.308 84.9218 -4.05231e-17
607 2 39.1165 193.978 -4.05231e-17
608 2 82.4636 94.2921 -4.05231e-17
609 1 96.0706 97.6409 -4.05231e-17
610 2 122.474 134.371 -4.05231e-17
611 1 10.5473 92.5084 -4.05231e-17
612 1 16.8816 60.5123 -4.05231e-17
613 2 19.2896 200.27 -4.05231e-17
614 1 125.505 50.3814 -4.05231e-17
615 1 137.298 104.895 -4.05231e-17
616 2 2.93941 6.70826 -4.05231e-17
617 1 73.5582 135.698 -4.05231e-17
618 1 70.9774 117.676 -4.05231e-17
619 1 164.77 194.297 -4.05231e-17
620 2 86.5405 20.7929 -4.05231e-17
621 2 194.201 86.195 -4.05231e-17
622 2 172.203 24.1126 -4.05231e-17
623 2 86.3588 150.882 -4.05231e-17
624 1 73.1267 33.048 -4.05231e-17
625 2 48.585 78.6388 -4.05231e-17
626 1 205.578 185.827 -4.05231e-17
627 2 172.119 0.94384 -4.05231e-17
628 1 161.692 156.135 -4.05231e-17
629 1 32.139 39.2667 -4.05231e-17
630 2 157.276 59.7144 -4.05231e-17
631 2 204.84 129.606 -4.05231e-17
632 2 19.7808 34.9055 -4.05231e-17
633 2 78.1171 24.1276 -4.05231e-17
634 2 55.1784 75.3788 -4.05231e-17
635 2 19.5308 59.7118 -4.05231e-17
636 1 87.275 128.267 -4.05231e-17
637 1 34.707 76.4976 -4.05231e-17
638 1 124.565 25.9692 -4.05231e-17
639 2 186.655 67.3153 -4.05231e-17
640 2 131.811 104.086 -4.05231e-17
641 1 160.712 33.9878 -4.05231e-17
642 2 49.9662 37.4201 -4.05231e-17
643 1 38.0563 114.162 -4.05231e-17
644 2 130.832 182.554 -4.05231e-17
645 2 5.3777 156.471 -4.05231e-17
646 1 177.368 116.382 -4.05231e-17
647 2 60.7066 171.431 -4.05231e-17
648 2 177.125 88.6581 -4.05231e-17
649 1 156.213 139.651 -4.05231e-17
650 1 48.8451 121.575 -4.05231e-17
651 1 164.378 91.2022 -4.05231e-17
652 2 47.112 153.119 -4.05231e-17
653 2 176.521 215.183 -4.05231e-17
654 1 217.962 174.864 -4.05231e-17
655 1 126.732 29.9295 -4.05231e-17
656 1 126.246 210.668 -4.05231e-17
657 1 169.639 128.238 -4.05231e-17
658 2 176.737 40.072 -4.05231e-17
659 2 146.846 153.019 -4.05231e-17
660 1 66.0625 139.796 -4.05231e-17
661 2 41.0988 28.8863 -4.05231e-17
662 2 181.162 126.967 -4.05231e-17
663 1 150.348 117.537 -4.05231e-17
664 1 46.4299 104.784 -4.05231e-17
665 1 164.715 114.792 -4.05231e-17
666 1 166.06 89.1402 -4.05231e-17
667 1 147.758 117.496 -4.05231e-17
668 1 62.3026 175.908 -4.05231e-17
669 1 81.6823 154.277 -4.05231e-17
670 2 31.9268 187.93 -4.05231e-17
671 1 166.693 203.21 -4.05231e-17
672 1 191.197 211.45 -4.05231e-17
673 2 30.573 97.298 -4.05231e-17
674 2 103.665 79.0433 -4.05231e-17
675 2 141.432 205.882 -4.05231e-17
676 1 191.393 179.05 -4.05231e-17
677 2 54.9487 56.9582 -4.05231e-17
678 1 93.8563 78.1162 -4.05231e-17
679 1 134.611 178.359 -4.05231e-17
680 2 85.4124 13.1145 -4.05231e-17
681 1 66.675 10.0928 -4.05231e-17
682 1 119.746 163.333 -4.05231e-17
683 2 65.0777 130.998 -4.05231e-17
684 1 55.4436 132.293 -4.05231e-17
685 1 201.52 194.472 -4.05231e-17
686 1 62.7655 100.839 -4.05231e-17
687 1 202.495 128.388 -4.05231e-17
688 1 139.523 98.2232 -4.05231e-17
689 2 70.9463 60.974 -4.05231e-17
690 1 127.277 129.447 -4.05231e-17
691 2 68.6578 147.808 -4.05231e-17
692 2 182.039 147.499 -4.05231e-17
693 1 8.33869 87.8085 -4.05231e-17
694 2 152.58 67.3507 -4.05231e-17
695 2 113.908 44.208 -4.05231e-17
696 2 201.412 107.096 -4.05231e-17
697 1 174.613 33.1033 -4.05231e-17
698 2 23.0108 71.0921 -4.05231e-17
699 1 58.2436 187.628 -4.05231e-17
700 2 20.2207 157.408 -4.05231e-17
701 2 162.224 52.0961 -4.05231e-17
702 1 106.898 99.8607 -4.05231e-17
703 1 193.666 73.2381 -4.05231e-17
704 1 216.857 179.615 -4.05231e-17
705 1 51.2216 142.796 -4.05231e-17
706 1 93.2584 215.042 -4.05231e-17
707 1 59.1869 22.7173 -4.05231e-17
708 2 26.0816 141.027 -4.05231e-17
709 1 210.307 188.236 -4.05231e-17
710 2 140.292 50.1557 -4.05231e-17
711 2 193.344 37.1935 -4.05231e-17
712 1 119.189 154.456 -4.05231e-17
713 1 31.0176 52.0049 -4.05231e-17
714 2 117.889 21.0609 -4.05231e-17
715 2 149.471 136.338 -4.05231e-17
716 1 140.973 116.339 -4.05231e-17
717 1 33.8583 122.513 -4.05231e-17
718 2 39.646 102.734 -4.05231e-17
719 1 39.9745 140.96 -4.05231e-17
720 2 8.80804 108.738 -4.05231e-17
721 2 89.5639 16.7823 -4.05231e-17
722 2 49.7038 158.652 -4.05231e-17
723 2 168.311 102.081 -4.05231e-17
724 2 216.844 41.8276 -4.05231e-17
725 2 164.08 49.3696 -4.05231e-17
726 2 174.255 205.424 -4.05231e-17
727 2 30.5044 69.783 -4.05231e-17
728 1 161.981 47.6631 -4.05231e-17
729 2 188.406 127.848 -4.05231e-17
730 2 197.652 163.341 -4.05231e-17
731 1 153.801 39.8765 -4.05231e-17
732 2 26.0222 172.647 -4.05231e-17
733 2 141.614 151.762 -4.05231e-17
734 2 159.253 215.087 -4.05231e-17
735 2 65.9769 193.615 -4.05231e-17
736 1 24.187 196.074 -4.05231e-17
737 2 111.448 26.4777 -4.05231e-17
738 2 109.954 31.8864 -4.05231e-17
739 2 165.067 125.067 -4.05231e-17
740 2 203.939 72.8538 -4.05231e-17
741 2 181.125 191.031 -4.05231e-17
742 1 63.7677 180.859 -4.05231e-17
743 2 91.8545 134.937 -4.05231e-17
744 1 106.419 1.67074 -4.05231e-17
745 2 4.60185 57.2516 -4.05231e-17
746 1 5.31305 94.8254 -4.05231e-17
747 1 206.395 117.551 -4.05231e-17
748 2 7.5518 135.934 -4.05231e-17
749 1 181.958 144.857 -4.05231e-17
750 1 116.468 116.244 -4.05231e-17
751 1 133.988 102.032 -4.05231e-17
752 2 109.485 7.5453 -4.05231e-17
753 1 199.184 46.9451 -4.05231e-17
754 2 18.4707 108.017 -4.05231e-17
755 1 139.831 111.769 -4.05231e-17
756 2 14.8552 23.5671 -4.05231e-17
757 1 65.2946 61.3481 -4.05231e-17
758 2 124.985 83.4507 -4.05231e-17
759 1 77.4166 168.602 -4.05231e-17
760 1 87.4513 64.2136 -4.05231e-17
761 2 184.28 74.7132 -4.05231e-17
762 1 55.6496 166.186 -4.05231e-17
763 2 60.6611 62.0389 -4.05231e-17
764 2 163.384 179.03 -4.05231e-17
765 1 12.9077 135.658 -4.05231e-17
766 2 138.939 144.902 -4.05231e-17
767 2 206.041 96.5909 -4.05231e-17
768 2 56.6538 8.47718 -4.05231e-17
769 2 208.087 142.059 -4.05231e-17
770 1 168.094 146.225 -4.05231e-17
771 1 123.81 146.16 -4.05231e-17
772 1 122.723 36.8056 -4.05231e-17
773 2 201.696 155.188 -4.05231e-17
774 1 187.678 117.614 -4.05231e-17
775 1 72.201 92.4472 -4.05231e-17
776 2 161.851 57.356 -4.05231e-17
777 2 28.4391 192.502 -4.05231e-17
778 1 77.9366 216.86 -4.05231e-17
779 1 43.2643 36.7503 -4.05231e-17
780 2 81.4889 84.7316 -4.05231e-17
781 1 85.746 157.658 -4.05231e-17
782 2 72.4903 168.854 -4.05231e-17
783 1 193.871 34.6623 -4.05231e-17
784 2 104.988 32.9071 -4.05231e-17
785 1 39.1207 47.2562 -4.05231e-17
786 1 100.227 17.1313 -4.05231e-17
787 2 36.1444 152.362 -4.05231e-17
788 2 127.284 185.112 -4.05231e-17
789 2 204.989 215.8 -4.05231e-17
790 2 97.3997 201 -4.05231e-17
791 2 169.415 2.04452 -4.05231e-17
792 1 214.112 174.156 -4.05231e-17
793 1 108.644 131.873 -4.05231e-17
794 2 199.017 3.28166 -4.05231e-17
795 2 21.8908 152.14 -4.05231e-17
796 1 112.478 17.3899 -4.05231e-17
797 1 76.4819 10.662 -4.05231e-17
798 1 191.081 74.5252 -4.05231e-17
799 2 116.033 122.041 -4.05231e-17
800 1 15.347 218.906 -4.05231e-17
801 2 164.91 133.526 -4.05231e-17
802 1 91.4308 197.028 -4.05231e-17
803 1 34.4153 66.6184 -4.05231e-17
804 1 135.222 180.719 -4.05231e-17
805 2 176.266 134.512 -4.05231e-17
806 2 18.4569 144.029 -4.05231e-17
807 2 188.414 44.4089 -4.05231e-17
808 2 151.205 181.501 -4.05231e-17
809 1 53.1035 51.7006 -4.05231e-17
810 2 79.6405 104.387 -4.05231e-17
811 2 113.709 214.722 -4.05231e-17
812 1 138.991 137.812 -4.05231e-17
813 1 166.702 163.397 -4.05231e-17
814 1 183.222 120.188 -4.05231e-17
815 1 81.4007 204.103 -4.05231e-17
816 1 45.0315 126.886 -4.05231e-17
817 2 53.1193 100.111 -4.05231e-17
818 2 14.8168 41.4737 -4.05231e-17
819 2 174.483 63.062 -4.05231e-17
820 1 217.148 102.224 -4.05231e-17
821 1 188.808 39.1728 -4.05231e-17
822 2 100.385 165.964 -4.05231e-17
823 1 207.242 110.934 -4.05231e-17
824 1 170.795 155.227 -4.05231e-17
825 1 32.9768 120.362 -4.05231e-17
826 2 180.361 88.6036 -4.05231e-17
827 2 97.5906 114.422 -4.05231e-17
828 1 6.17361 37.4264 -4.05231e-17
829 2 154.836 109.138 -4.05231e-17
830 1 72.2108 95.1362 -4.05231e-17
831 2 210.573 25.3828 -4.05231e-17
832 2 190.239 48.9671 -4.05231e-17
833 2 127.643 22.4802 -4.05231e-17
834 1 108.218 181.841 -4.05231e-17
835 1 3.55034 106.583 -4.05231e-17
836 1 63.4497 73.8617 -4.05231e-17
837 2 145.7 89.6234 -4.05231e-17
838 2 78.7296 86.1743 -4.05231e-17
839 1 63.9005 78.1529 -4.05231e-17
840 2 7.22803 161.551 -4.05231e-17
841 2 140.878 70.8922 -4.05231e-17
842 1 167.498 142.685 -4.05231e-17
843 1 204.031 2.52731 -4.05231e-17
844 2 5.37662 44.9056 -4.05231e-17
845 1 35.1243 118.36 -4.05231e-17
846 2 131.192 167.223 -4.05231e-17
847 1 55.9494 73.0395 -4.05231e-17
848 2 65.4944 48.4737 -4.05231e-17
849 1 127.203 47.7394 -4.05231e-17
850 2 122.907 158.78 -4.05231e-17
851 2 109.213 82.3185 -4.05231e-17
852 1 84.8288 171.422 -4.05231e-17
853 1 174.133 161.398 -4.05231e-17
854 2 22.8248 93.2027 -4.05231e-17
855 2 12.7762 192.505 -4.05231e-17