ITEM: TIMESTEP
0
ITEM: NUMBER OF ATOMS
7200
ITEM: BOX BOUNDS xy xz yz pp pp pp
0.0000000000000000e+00 2.1900000000000000e+02 0.0000000000000000e+00
0.0000000000000000e+00 2.1900000000000000e+02 0.0000000000000000e+00
-3.6499999999999999e-01 3.6499999999999999e-01 0.0000000000000000e+00
ITEM: ATOMS id type x y z
1 1 96.0516 198.843 -4.05231e-17
2 2 44.1778 36.72 -4.05231e-17
3 2 211.841 115.697 -4.05231e-17
4 1 137.266 143.13 -4.05231e-17
5 1 76.2049 100.701 -4.05231e-17
6 1 178.484 42.5833 -4.05231e-17
7 2 206.569 31.6039 -4.05231e-17
8 2 86.1771 137.796 -4.05231e-17
9 1 49.3397 9.83025 -4.05231e-17
10 2 29.9747 125.874 -4.05231e-17
11 2 25.6926 61.3701 -4.05231e-17
12 1 34.4309 39.6074 -4.05231e-17
13 2 163.974 50.937 -4.05231e-17
14 1 136.167 21.6698 -4.05231e-17
15 2 16.3105 24.3362 -4.05231e-17
16 2 193.983 66.9125 -4.05231e-17
17 1 48.3904 150.701 -4.05231e-17
18 2 43.6891 117.321 -4.05231e-17
19 1 31.5605 111.274 -4.05231e-17
20 1 66.3909 179.445 -4.05231e-17
21 1 5.11191 51.6606 -4.05231e-17
22 2 112.12 179.435 -4.05231e-17
23 2 19.1153 181.347 -4.05231e-17
24 2 172.593 19.763 -4.05231e-17
25 2 23.0836 216.622 -4.05231e-17
26 2 156.49 18.3595 -4.05231e-17
27 1 6.29741 204.713 -4.05231e-17
28 2 107.965 155.423 -4.05231e-17
29 2 91.0935 42.863 -4.05231e-17
30 2 66.5245 66.4392 -4.05231e-17
31 2 131.69 91.9184 -4.05231e-17
32 1 11.3052 157.069 -4.05231e-17
33 2 125.625 98.988 -4.05231e-17
34 2 35.2342 58.8363 -4.05231e-17
35 2 131.122 20.8728 -4.05231e-17
36 1 152.322 175.315 -4.05231e-17
37 1 51.1544 114.385 -4.05231e-17
38 2 149.018 64.5044 -4.05231e-17
39 1 26.1316 41.6749 -4.05231e-17
40 2 190.795 88.393 -4.05231e-17
41 1 29.1277 206.678 -4.05231e-17
42 1 112.396 62.9234 -4.05231e-17
43 1 169.424 170.548 -4.05231e-17
44 1 214.142 40.1318 -4.05231e-17
45 2 118.905 47.2164 -4.05231e-17
46 1 125.071 34.7356 -4.05231e-17
47 2 112.089 26.258 -4.05231e-17
48 2 56.7952 102.136 -4.05231e-17
49 1 126.009 8.1913 -4.05231e-17
50 2 50.1033 59.9056 -4.05231e-17
51 1 177.01 132.563 -4.05231e-17
52 1 29.4633 117.763 -4.05231e-17
53 2 132.949 189.625 -4.05231e-17
54 1 98.342 48.0652 -4.05231e-17
55 2 45.5809 142.959 -4.05231e-17
56 1 103.127 0.268349 -4.05231e-17
57 2 26.4638 76.9378 -4.05231e-17
58 1 194.78 78.2575 -4.05231e-17
59 1 133.869 93.4443 -4.05231e-17
60 2 218.353 94.1421 -4.05231e-17
61 1 165.03 157.875 -4.05231e-17
62 1 106.138 70.5307 -4.05231e-17
63 2 125.358 171.557 -4.05231e-17
64 1 60.8125 80.3441 -4.05231e-17
65 2 163.686 119.781 -4.05231e-17
66 2 52.3237 129.931 -4.05231e-17
67 2 190.97 74.5491 -4.05231e-17
68 1 88.5934 144.271 -4.05231e-17
69 2 170.826 150.271 -4.05231e-17
70 1 132.284 122.919 -4.05231e-17
71 1 70.3247 94.7835 -4.05231e-17
72 2 100.202 78.5932 -4.05231e-17
73 2 178.335 32.9609 -4.05231e-17
74 2 6.16771 65.5718 -4.05231e-17
75 1 204.149 135.906 -4.05231e-17
76 2 179.952 132.676 -4.05231e-17
77 2 22.9606 140.012 -4.05231e-17
78 1 27.0337 119.295 -4.05231e-17
79 2 87.7785 203.91 -4.05231e-17
80 1 34.4363 83.1094 -4.05231e-17
81 1 208.894 217.169 -4.05231e-17
82 1 192.058 54.5853 -4.05231e-17
83 1 33.6343 144.071 -4.05231e-17
84 2 146.87 39.4077 -4.05231e-17
85 2 193.571 179.098 -4.05231e-17
86 2 52.6176 57.5988 -4.05231e-17
87 2 46.7784 140.189 -4.05231e-17
88 1 75.5007 114.176 -4.05231e-17
89 2 163.25 54.1633 -4.05231e-17
90 2 195.846 44.2503 -4.05231e-17
91 2 8.48928 198.186 -4.05231e-17
92 1 198.22 6.73617 -4.05231e-17
93 2 129.475 150.753 -4.05231e-17
94 2 157.58 119.156 -4.05231e-17
95 1 166.883 159.756 -4.05231e-17
96 2 215.829 82.6932 -4.05231e-17
97 2 64.1347 18.2357 -4.05231e-17
98 2 216.757 121.622 -4.05231e-17
99 1 54.4803 10.0623 -4.05231e-17
100 2 187.672 201.384 -4.05231e-17
101 1 147.239 111.459 -4.05231e-17
102 1 211.213 125.927 -4.05231e-17
103 2 75.9317 93.8706 -4.05231e-17
104 2 78.007 19.6884 -4.05231e-17
105 1 192.368 90.4369 -4.05231e-17
106 1 80.0183 42.5228 -4.05231e-17
107 1 199.308 210.263 -4.05231e-17
108 1 187.109 7.1324 -4.05231e-17
109 2 99.7148 154.207 -4.05231e-17
110 2 182.229 0.719186 -4.05231e-17
111 1 187.256 78.6058 -4.05231e-17
112 2 3.4905 61.6921 -4.05231e-17
113 1 25.8179 48.5324 -4.05231e-17
114 1 177.548 151.091 -4.05231e-17
115 2 15.4888 95.5365 -4.05231e-17
116 2 3.03329 64.7469 -4.05231e-17
117 1 179.805 146.074 -4.05231e-17
118 1 90.4677 171.606 -4.05231e-17
119 2 95.2738 191.043 -4.05231e-17
120 2 166.764 50.0893 -4.05231e-17
121 1 152.01 63.9994 -4.05231e-17
122 2 163.816 170.713 -4.05231e-17
123 2 63.6627 84.4721 -4.05231e-17
124 1 193.44 117.744 -4.05231e-17
125 1 28.2609 93.8798 -4.05231e-17
126 2 68.9819 34.792 -4.05231e-17
127 2 145.689 21.9505 -4.05231e-17
128 1 136.44 134.092 -4.05231e-17
129 1 19.9635 118.134 -4.05231e-17
130 2 195.615 204.06 -4.05231e-17
131 1 72.3013 147.976 -4.05231e-17
132 1 173.859 146.79 -4.05231e-17
133 1 193.4 148.577 -4.05231e-17
134 1 132.057 60.6711 -4.05231e-17
135 2 51.9645 177.887 -4.05231e-17
136 1 112.395 200.757 -4.05231e-17
137 1 130.735 187.895 -4.05231e-17
138 2 112.402 118.936 -4.05231e-17
139 1 135.888 63.6368 -4.05231e-17
140 1 137.186 164.905 -4.05231e-17
141 1 184.455 182.542 -4.05231e-17
142 1 11.2997 150.479 -4.05231e-17
143 1 62.3496 123.086 -4.05231e-17
144 1 91.6515 87.7934 -4.05231e-17
145 2 127.06 178.386 -4.05231e-17
146 1 88.0485 80.6289 -4.05231e-17
147 2 68.3191 54.6081 -4.05231e-17
148 1 111.773 13.9603 -4.05231e-17
149 1 69.0555 134.732 -4.05231e-17
150 2 189.584 131.529 -4.05231e-17
151 1 132.937 169.755 -4.05231e-17
152 1 2.99318 50.5024 -4.05231e-17
153 2 114.494 113.685 -4.05231e-17
154 1 74.0908 96.2063 -4.05231e-17
155 2 165.427 30.136 -4.05231e-17
156 2 69.8636 216.073 -4.05231e-17
157 2 136.983 153.056 -4.05231e-17
158 2 47.0785 32.6505 -4.05231e-17
159 2 87.3263 185.713 -4.05231e-17
160 2 18.2794 195.844 -4.05231e-17
161 2 103.727 114.028 -4.05231e-17
162 1 197.892 27.0599 -4.05231e-17
163 1 32.6995 73.2558 -4.05231e-17
164 2 55.9634 190.785 -4.05231e-17
165 1 10.8304 28.6175 -4.05231e-17
166 2 49.1791 205.43 -4.05231e-17
167 1 163.862 112.527 -4.05231e-17
168 1 36.6606 206.98 -4.05231e-17
169 2 29.6796 163.564 -4.05231e-17
170 1 215.545 207.52 -4.05231e-17
171 1 79.7776 84.9768 -4.05231e-17
172 1 52.7792 96.0045 -4.05231e-17
173 1 9.86799 126.032 -4.05231e-17
174 2 101.164 106.945 -4.05231e-17
175 2 42.9079 23.4221 -4.05231e-17
176 1 60.7828 152.399 -4.05231e-17
177 2 121.641 24.3775 -4.05231e-17
178 1 30.8919 68.3563 -4.05231e-17
179 2 124.898 201.149 -4.05231e-17
180 1 59.1423 82.7573 -4.05231e-17
181 1 78.8942 152.025 -4.05231e-17
182 1 90.4323 192.096 -4.05231e-17
183 1 45.8645 98.7411 -4.05231e-17
184 2 140.443 110.844 -4.05231e-17
185 2 133.138 125.315 -4.05231e-17
186 2 64.5499 0.758786 -4.05231e-17
187 2 214.135 35.0452 -4.05231e-17
188 2 63.136 78.1266 -4.05231e-17
189 1 4.54422 24.6385 -4.05231e-17
190 1 140.919 24.9599 -4.05231e-17
191 2 0.662166 85.6646 -4.05231e-17
192 2 84.9178 203.805 -4.05231e-17
193 1 50.1124 157.646 -4.05231e-17
194 1 69.1188 23.1071 -4.05231e-17
195 2 114.353 55.2747 -4.05231e-17
196 1 62.2943 106.955 -4.05231e-17
197 2 148.281 27.0893 -4.05231e-17
198 2 190.852 42.0595 -4.05231e-17
199 2 142.654 153.027 -4.05231e-17
200 2 52.8147 14.7758 -4.05231e-17
201 2 136.951 210.743 -4.05231e-17
202 1 120.79 146.1 -4.05231e-17
203 1 23.7656 18.9455 -4.05231e-17
204 2 193.156 195.602 -4.05231e-17
205 2 189.79 100.194 -4.05231e-17
206 2 189.751 183.409 -4.05231e-17
207 1 11.862 111.047 -4.05231e-17
208 2 183.003 28.9285 -4.05231e-17
209 2 108.73 100.834 -4.05231e-17
210 1 86.3671 87.4838 -4.05231e-17
211 1 74.2378 73.777 -4.05231e-17
212 1 77.4396 50.521 -4.05231e-17
213 1 180.532 150.691 -4.05231e-17
214 2 35.9447 195.601 -4.05231e-17
215 1 172.642 50.1389 -4.05231e-17
216 1 100.615 134.581 -4.05231e-17
217 1 105.644 6.57765 -4.05231e-17
218 2 158.375 109.922 -4.05231e-17
219 2 152.568 32.816 -4.05231e-17
220 1 185.065 61.8627 -4.05231e-17
221 2 54.7689 199.79 -4.05231e-17
222 1 163.222 104.256 -4.05231e-17
223 1 14.8728 153.535 -4.05231e-17
224 2 60.4546 88.4012 -4.05231e-17
225 2 80.0096 178.517 -4.05231e-17
226 1 28.8575 62.1004 -4.05231e-17
227 2 17.559 202.636 -4.05231e-17
228 2 90.1085 114.859 -4.05231e-17
229 1 40.838 107.008 -4.05231e-17
230 1 140.781 55.9258 -4.05231e-17
231 2 71.1158 140.195 -4.05231e-17
232 1 45.181 103.288 -4.05231e-17
233 2 72.0055 32.9242 -4.05231e-17
234 1 74.3192 11.6017 -4.05231e-17
235 1 142.468 126.534 -4.05231e-17
236 2 67.8364 116.531 -4.05231e-17
237 2 113.807 101.202 -4.05231e-17
238 2 128.522 186.516 -4.05231e-17
239 1 213.954 191.935 -4.05231e-17
240 1 86.2116 132.382 -4.05231e-17
241 2 164.99 184.598 -4.05231e-17
242 1 146.086 143.632 -4.05231e-17
243 2 129.218 180.445 -4.05231e-17
244 2 174.907 151.721 -4.05231e-17
245 1 122.257 202.532 -4.05231e-17
246 2 137.148 157.678 -4.05231e-17
247 2 154.025 210.98 -4.05231e-17
248 1 40.4963 22.3719 -4.05231e-17
249 1 185.346 93.6835 -4.05231e-17
250 1 102.678 89.9448 -4.05231e-17
251 2 107.865 152.258 -4.05231e-17
252 1 188.085 122.851 -4.05231e-17
253 2 25.7413 107.127 -4.05231e-17
254 2 11.9019 162.437 -4.05231e-17
255 2 52.3825 103.05 -4.05231e-17
256 1 5.04778 202.644 -4.05231e-17
257 2 79.3612 166 -4.05231e-17
258 1 191.823 218.853 -4.05231e-17
259 2 148.336 198.818 -4.05231e-17
260 1 49.8868 146.855 -4.05231e-17
261 2 132.412 144.254 -4.05231e-17
262 2 175.144 130.518 -4.05231e-17
263 2 127.645 48.901 -4.05231e-17
264 1 75.1055 50.2799 -4.05231e-17
265 1 83.5167 0.130192 -4.05231e-17
266 1 43.0662 174.638 -4.05231e-17
267 2 105.765 1.62609 -4.05231e-17
268 1 155.697 109.713 -4.05231e-17
269 2 73.2701 8.48439 -4.05231e-17
270 2 200.661 205.767 -4.05231e-17
271 2 176.886 61.3651 -4.05231e-17
272 1 127.483 43.8864 -4.05231e-17
273 1 45.4034 58.8523 -4.05231e-17
274 1 204.384 30.5363 -4.05231e-17
275 1 193.549 130.604 -4.05231e-17
276 1 132.295 202.957 -4.05231e-17
277 1 43.3698 217.855 -4.05231e-17
278 2 196.136 142.906 -4.05231e-17
279 2 136.006 92.334 -4.05231e-17
280 1 129.82 11.9962 -4.05231e-17
281 2 64.2045 168.924 -4.05231e-17
282 2 25.8574 132.494 -4.05231e-17
283 2 217.04 113.631 -4.05231e-17
284 1 178.328 134.563 -4.05231e-17
285 1 39.0729 99.322 -4.05231e-17
286 2 75.2135 155.816 -4.05231e-17
287 2 73.1981 41.4058 -4.05231e-17
288 1 197.732 85.5023 -4.05231e-17
289 2 107.957 60.394 -4.05231e-17
290 1 118.521 44.4754 -4.05231e-17
291 2 127.266 13.2721 -4.05231e-17
292 1 134.962 36.2902 -4.05231e-17
293 1 152.44 98.5381 -4.05231e-17
294 1 123.367 166.714 -4.05231e-17
295 2 20.1836 47.8482 -4.05231e-17
296 1 182.07 133.863 -4.05231e-17
297 1 102.753 210.814 -4.05231e-17
298 2 207.387 175.639 -4.05231e-17
299 1 0.563556 49.6947 -4.05231e-17
300 2 160.516 215.146 -4.05231e-17
301 2 35.9283 37.2271 -4.05231e-17
302 2 189.271 69.7787 -4.05231e-17
303 1 5.00179 118.087 -4.05231e-17
304 1 132.651 116.619 -4.05231e-17
305 1 73.9862 193.189 -4.05231e-17
306 2 134.058 50.8441 -4.05231e-17
307 2 182.758 211.588 -4.05231e-17
308 2 147.668 8.34477 -4.05231e-17
309 1 123.811 118.981 -4.05231e-17
310 1 194.03 17.572 -4.05231e-17
311 1 198.202 156.965 -4.05231e-17
312 2 81.3991 196.029 -4.05231e-17
313 2 193.744 176.133 -4.05231e-17
314 1 156.288 28.2316 -4.05231e-17
315 2 209.544 4.06516 -4.05231e-17
316 1 158.012 204.904 -4.05231e-17
317 1 41.2145 48.6596 -4.05231e-17
318 1 32.9405 133.426 -4.05231e-17
319 2 105.192 187.972 -4.05231e-17
320 1 210.379 70.6022 -4.05231e-17
321 1 95.7879 1.32359 -4.05231e-17
322 1 28.7189 9.90139 -4.05231e-17
323 2 82.4751 51.6487 -4.05231e-17
324 2 31.6468 187.85 -4.05231e-17
325 2 25.9927 17.3388 -4.05231e-17
326 1 197.833 34.4553 -4.05231e-17
327 1 112.544 93.6236 -4.05231e-17
328 2 80.973 94.3524 -4.05231e-17
329 2 35.6398 107.944 -4.05231e-17
330 2 96.7731 95.3244 -4.05231e-17
331 2 57.9631 169.618 -4.05231e-17
332 2 140.213 190.009 -4.05231e-17
333 2 6.02029 74.7628 -4.05231e-17
334 2 1.58711 77.2062 -4.05231e-17
335 1 4.68437 80.355 -4.05231e-17
336 2 10.1181 145.204 -4.05231e-17
337 2 126.297 214.334 -4.05231e-17
338 1 216.185 160.828 -4.05231e-17
339 2 22.97 179.264 -4.05231e-17
340 2 156.973 88.3633 -4.05231e-17
341 2 77.928 110.259 -4.05231e-17
342 2 127.891 128.403 -4.05231e-17
343 2 218.019 162.945 -4.05231e-17
344 1 108.343 172.793 -4.05231e-17
345 2 58.4621 164.562 -4.05231e-17
346 2 85.747 75.5094 -4.05231e-17
347 1 125.457 113.517 -4.05231e-17
348 1 13.799 215.717 -4.05231e-17
349 2 87.9738 14.7063 -4.05231e-17
350 2 32.5258 130.79 -4.05231e-17
351 1 142.359 94.4058 -4.05231e-17
352 1 133.578 25.935 -4.05231e-17
353 2 158.193 102.379 -4.05231e-17
354 2 202.122 113.709 -4.05231e-17
355 1 16.1717 21.9368 -4.05231e-17
356 2 41.607 20.1857 -4.05231e-17
357 1 99.9698 26.8254 -4.05231e-17
358 1 157.788 207.975 -4.05231e-17
359 1 212.741 163.655 -4.05231e-17
360 1 54.3102 216.777 -4.05231e-17
361 2 105.712 86.7786 -4.05231e-17
362 2 142.516 128.96 -4.05231e-17
363 1 81.5905 49.1143 -4.05231e-17
364 2 89.5489 71.0297 -4.05231e-17
365 1 61.0209 62.0268 -4.05231e-17
366 1 119.358 23.2867 -4.05231e-17
367 1 147.729 61.7512 -4.05231e-17
368 1 21.723 158.452 -4.05231e-17
369 2 45.5615 167.206 -4.05231e-17
370 1 139.698 113.232 -4.05231e-17
371 2 77.9244 78.1857 -4.05231e-17
372 1 83.9574 36.3004 -4.05231e-17
373 2 111.59 167.416 -4.05231e-17
374 2 149.381 88.0293 -4.05231e-17
375 1 91.6102 100.302 -4.05231e-17
376 1 133.849 215.287 -4.05231e-17
377 2 62.535 64.1987 -4.05231e-17
378 2 151.054 214.802 -4.05231e-17
379 2 189.74 36.9759 -4.05231e-17
380 1 216.431 89.3422 -4.05231e-17
381 1 145.641 191.664 -4.05231e-17
382 1 139.161 217.162 -4.05231e-17
383 1 144.219 40.3037 -4.05231e-17
384 2 28.0852 52.3716 -4.05231e-17
385 1 157.22 104.737 -4.05231e-17
386 2 149.063 201.657 -4.05231e-17
387 1 18.9283 24.0565 -4.05231e-17
388 1 29.3281 156.343 -4.05231e-17
389 2 137.521 96.7275 -4.05231e-17
390 1 215.486 48.5603 -4.05231e-17
391 1 120.85 159.898 -4.05231e-17
392 2 50.9017 45.0518 -4.05231e-17
393 2 167.844 186.044 -4.05231e-17
394 1 20.7859 42.5415 -4.05231e-17
395 1 80.9262 173.742 -4.05231e-17
396 2 14.5934 167.003 -4.05231e-17
397 1 114.155 30.4291 -4.05231e-17
398 2 153.205 111 -4.05231e-17
399 2 211.362 31.3893 -4.05231e-17
400 2 54.6254 160.138 -4.05231e-17
401 2 47.3718 135.38 -4.05231e-17
402 1 35.0951 182.673 -4.05231e-17
403 1 37.121 217.515 -4.05231e-17
404 2 148.892 59.3785 -4.05231e-17
405 1 73.7341 118.158 -4.05231e-17
406 2 149.115 213.214 -4.05231e-17
407 1 59.6264 16.3193 -4.05231e-17
408 1 161.274 197.848 -4.05231e-17
409 2 199.164 72.4787 -4.05231e-17
410 2 209.717 60.1032 -4.05231e-17
411 1 112.703 142.703 -4.05231e-17
412 1 101.943 76.6407 -4.05231e-17
413 1 55.356 117.232 -4.05231e-17
414 2 179.025 205.575 -4.05231e-17
415 1 122.93 188.074 -4.05231e-17
416 1 71.9546 1.37365 -4.05231e-17
417 2 93.716 162.965 -4.05231e-17
418 2 65.4896 154.112 -4.05231e-17
419 2 192.535 213.007 -4.05231e-17
420 2 56.4038 112.289 -4.05231e-17
421 1 108.234 90.9299 -4.05231e-17
422 1 29.9174 92.0917 -4.05231e-17
423 2 174.463 210.021 -4.05231e-17
424 2 53.9716 188.116 -4.05231e-17
425 2 165.085 132.589 -4.05231e-17
426 1 32.6832 101.602 -4.05231e-17
427 2 93.8128 84.1704 -4.05231e-17
428 1 197.422 78.2441 -4.05231e-17
429 2 9.50157 112.232 -4.05231e-17
430 2 93.6455 94.9135 -4.05231e-17
431 1 25.8485 34.3086 -4.05231e-17
432 2 146.473 52.1489 -4.05231e-17
433 1 196.091 8.0146 -4.05231e-17
434 1 129.842 177.911 -4.05231e-17
435 1 123.168 99.8716 -4.05231e-17
436 2 81.4385 98.8187 -4.05231e-17
437 2 170.872 35.1537 -4.05231e-17
438 2 183.382 37.2407 -4.05231e-17
439 2 46.179 114.905 -4.05231e-17
440 2 172.389 0.94516 -4.05231e-17
441 1 77.597 167.99 -4.05231e-17
442 1 181.634 64.0602 -4.05231e-17
443 2 18.6256 21.2216 -4.05231e-17
444 1 153.611 122.054 -4.05231e-17
445 1 162.497 166.002 -4.05231e-17
446 2 159.629 84.4664 -4.05231e-17
447 2 85.9141 34.0804 -4.05231e-17
448 2 36.5323 8.63296 -4.05231e-17
449 1 110.852 159.223 -4.05231e-17
450 1 211.907 144.129 -4.05231e-17
451 1 191.03 31.2499 -4.05231e-17
452 2 189.103 8.50305 -4.05231e-17
453 1 154.745 83.5792 -4.05231e-17
454 1 91.8896 82.6542 -4.05231e-17
455 2 213.807 109.513 -4.05231e-17
456 1 29.7424 160.822 -4.05231e-17
457 2 100.623 1.51924 -4.05231e-17
458 2 213.127 151.627 -4.05231e-17
459 2 36.468 80.9224 -4.05231e-17
460 1 203.543 187.162 -4.05231e-17
461 1 110.389 151.568 -4.05231e-17
462 1 60.6303 121.596 -4.05231e-17
463 2 131.427 182.68 -4.05231e-17
464 2 152.237 46.3976 -4.05231e-17
465 1 99.1074 67.9283 -4.05231e-17
466 2 5.78272 185.224 -4.05231e-17
467 2 23.5505 95.2891 -4.05231e-17
468 2 194.786 85.3392 -4.05231e-17
469 2 59.3982 131.318 -4.05231e-17
470 2 139.88 10.8471 -4.05231e-17
471 2 12.1546 159.556 -4.05231e-17
472 2 182.052 9.41552 -4.05231e-17
473 2 2.648 12.7202 -4.05231e-17
474 2 58.5193 28.6243 -4.05231e-17
475 1 195.563 164.35 -4.05231e-17
476 2 33.1344 141.577 -4.05231e-17
477 1 199.349 200.471 -4.05231e-17
478 1 20.5016 215.349 -4.05231e-17
479 2 112.272 182.232 -4.05231e-17
480 1 110.649 89.6918 -4.05231e-17
481 1 127.73 130.766 -4.05231e-17
482 2 149.436 179.715 -4.05231e-17
483 1 67.6712 37.0233 -4.05231e-17
484 1 15.759 217.483 -4.05231e-17
485 2 157.472 0.509012 -4.05231e-17
486 1 41.885 80.1627 -4.05231e-17
487 1 78.2128 205.758 -4.05231e-17
488 1 6.96418 79.6922 -4.05231e-17
489 1 142.529 176.357 -4.05231e-17
490 1 148.801 41.987 -4.05231e-17
491 1 145.811 79.0594 -4.05231e-17
492 2 51.6473 200.894 -4.05231e-17
493 1 90.9577 151.155 -4.05231e-17
494 2 80.5948 56.1686 -4.05231e-17
495 1 129.686 102.529 -4.05231e-17
496 1 86.3078 99.9142 -4.05231e-17
497 1 118.693 101.543 -4.05231e-17
498 2 49.8395 131.541 -4.05231e-17
499 2 110.131 7.23495 -4.05231e-17
500 2 49.8268 198.84 -4.05231e-17
501 2 140.339 174.914 -4.05231e-17
502 2 171.809 133.176 -4.05231e-17
503 2 37.7997 189.914 -4.05231e-17
504 2 108.096 93.976 -4.05231e-17
505 2 34.2301 114.808 -4.05231e-17
506 1 172.705 212.194 -4.05231e-17
507 2 41.8068 208.258 -4.05231e-17
508 1 143.673 63.3369 -4.05231e-17
509 1 65.2145 90.1251 -4.05231e-17
510 1 165.077 99.1645 -4.05231e-17
511 2 110.7 104.529 -4.05231e-17
512 1 157.113 83.4931 -4.05231e-17
513 2 124.722 176.707 -4.05231e-17
514 2 16.1193 131.02 -4.05231e-17
515 1 74.506 91.639 -4.05231e-17
516 2 48.5822 89.0017 -4.05231e-17
517 1 78.3286 52.7749 -4.05231e-17
518 2 15.9146 214.922 -4.05231e-17
519 1 71.6722 102.205 -4.05231e-17
520 2 89.0832 156.142 -4.05231e-17
521 2 174.369 3.57703 -4.05231e-17
522 1 172.044 94.0641 -4.05231e-17
523 1 38.7477 122.556 -4.05231e-17
524 2 138.92 79.0562 -4.05231e-17
525 2 154.208 29.5548 -4.05231e-17
526 2 57.5362 161.038 -4.05231e-17
527 1 0.991539 8.12429 -4.05231e-17
528 1 217.209 195.31 -4.05231e-17
529 2 12.3061 12.8601 -4.05231e-17
530 2 79.5533 45.109 -4.05231e-17
531 2 160.254 145.169 -4.05231e-17
532 1 195.648 177.874 -4.05231e-17
533 2 153.193 116.483 -4.05231e-17
534 1 194.844 211.104 -4.05231e-17
535 1 199.923 30.6384 -4.05231e-17
536 2 74.3238 98.7712 -4.05231e-17
537 1 54.719 177.771 -4.05231e-17
538 1 34.2936 171.208 -4.05231e-17
539 2 81.2494 217.534 -4.05231e-17
540 1 90.896 137.841 -4.05231e-17
541 1 79.8495 181.117 -4.05231e-17
542 1 47.27 49.5972 -4.05231e-17
543 2 185.914 206.275 -4.05231e-17
544 1 213.144 127.617 -4.05231e-17
545 1 123.091 36.178 -4.05231e-17
546 2 196.084 216.096 -4.05231e-17
547 1 19.1575 168.866 -4.05231e-17
548 1 205.188 104.142 -4.05231e-17
549 2 44.9305 96.2256 -4.05231e-17
550 2 86.6508 182.565 -4.05231e-17
551 2 83.1727 59.7373 -4.05231e-17
552 1 37.1932 100.941 -4.05231e-17
553 2 186.592 177.096 -4.05231e-17
554 2 121.114 208.619 -4.05231e-17
555 2 186.141 124.876 -4.05231e-17
556 1 54.8598 66.4854 -4.05231e-17
557 1 65.587 92.7925 -4.05231e-17
558 1 10.8535 135.422 -4.05231e-17
559 2 122.158 148.374 -4.05231e-17
560 2 40.9763 4.3069 -4.05231e-17
561 2 114.896 136.851 -4.05231e-17
562 2 157.371 80.9689 -4.05231e-17
563 1 95.92 99.6659 -4.05231e-17
564 2 67.9027 108.797 -4.05231e-17
565 2 71.3169 82.7153 -4.05231e-17
566 2 88.7229 35.3839 -4.05231e-17
567 1 65.6473 25.2726 -4.05231e-17
568 1 74.395 46.1616 -4.05231e-17
569 2 206.925 167.084 -4.05231e-17
570 2 56.2824 91.8433 -4.05231e-17
571 2 127.636 73.7159 -4.05231e-17
572 1 213.827 90.5818 -4.05231e-17
573 2 69.9998 69.8037 -4.05231e-17
574 2 157.208 92.9362 -4.05231e-17
575 1 149.523 193.196 -4.05231e-17
576 1 90.0535 28.8609 -4.05231e-17
577 1 78.2805 163.773 -4.05231e-17
578 1 52.2983 151.185 -4.05231e-17
579 2 21.6503 64.2771 -4.05231e-17
580 1 56.8546 176.054 -4.05231e-17
581 1 56.5681 149.264 -4.05231e-17
582 2 122.164 62.8348 -4.05231e-17
583 2 90.6347 158.696 -4.05231e-17
584 2 48.8363 37.4579 -4.05231e-17
585 1 196.401 199.429 -4.05231e-17
586 1 125.001 89.2252 -4.05231e-17
587 1 213.584 73.6422 -4.05231e-17
588 2 16.8722 54.5154 -4.05231e-17
589 1 59.7373 49.9559 -4.05231e-17
590 2 51.1225 166.935 -4.05231e-17
591 2 177.028 171.984 -4.05231e-17
592 1 125.952 192.789 -4.05231e-17
593 1 134.021 148.131 -4.05231e-17
594 1 68.0659 30.0392 -4.05231e-17
595 1 156.248 95.4058 -4.05231e-17
596 2 37.5664 133.319 -4.05231e-17
597 2 85.0432 90.1653 -4.05231e-17
598 2 93.4132 125.453 -4.05231e-17
599 2 189.009 107.824 -4.05231e-17
600 2 192.416 132.804 -4.05231e-17
601 1 147.628 104.272 -4.05231e-17
602 1 150.354 3.84764 -4.05231e-17
603 2 142.838 135.311 -4.05231e-17
604 1 142.203 158.195 -4.05231e-17
605 2 175.387 138.014 -4.05231e-17
606 2 145.372 96.7658 -4.05231e-17
607 2 22.9913 184.178 -4.05231e-17
608 2 101.518 67.1793 -4.05231e-17
609 1 87.161 110.963 -4.05231e-17
610 2 110.212 131.418 -4.05231e-17
611 1 3.64608 56.3668 -4.05231e-17
612 1 90.1212 53.0349 -4.05231e-17
613 2 0.573769 185.855 -4.05231e-17
614 1 149.814 9.94998 -4.05231e-17
615 1 127.059 106.073 -4.05231e-17
616 2 21.6383 8.77551 -4.05231e-17
617 1 86.5089 149.489 -4.05231e-17
618 1 93.7105 99.4279 -4.05231e-17
619 1 145.822 6.52125 -4.05231e-17
620 2 58.0747 198.708 -4.05231e-17
621 2 165.104 106.392 -4.05231e-17
622 2 185.019 19.9835 -4.05231e-17
623 2 96.1495 146.638 -4.05231e-17
624 1 108.683 41.0649 -4.05231e-17
625 2 83.112 54.4844 -4.05231e-17
626 1 162.706 195.235 -4.05231e-17
627 2 203.252 16.0825 -4.05231e-17
628 1 158.684 163.805 -4.05231e-17
629 1 5.01989 33.8266 -4.05231e-17
630 2 135.808 8.74449 -4.05231e-17
631 2 25.5875 138.967 -4.05231e-17
632 2 58.9511 47.4706 -4.05231e-17
633 2 67.6636 44.2245 -4.05231e-17
634 2 34.9121 100.209 -4.05231e-17
635 2 11.5837 46.4047 -4.05231e-17
636 1 84.8647 184.698 -4.05231e-17
637 1 35.0993 102.806 -4.05231e-17
638 1 119.541 192.051 -4.05231e-17
639 2 200.9 62.6221 -4.05231e-17
640 2 123.082 102.647 -4.05231e-17
641 1 178.241 28.1944 -4.05231e-17
642 2 85.2003 211.913 -4.05231e-17
643 1 201.526 76.932 -4.05231e-17
644 2 111.835 176.321 -4.05231e-17
645 2 8.22878 135.606 -4.05231e-17
646 1 169.795 23.9681 -4.05231e-17
647 2 79.0713 175.376 -4.05231e-17
648 2 168.22 103.842 -4.05231e-17
649 1 158.666 147.903 -4.05231e-17
650 1 42.9452 167.579 -4.05231e-17
651 1 154.621 105.553 -4.05231e-17
652 2 44.7665 148.19 -4.05231e-17
653 2 167.448 4.44184 -4.05231e-17
654 1 210.712 208.074 -4.05231e-17
655 1 154.25 16.6468 -4.05231e-17
656 1 159.534 49.861 -4.05231e-17
657 1 156.763 155.46 -4.05231e-17
658 2 196.406 52.0957 -4.05231e-17
659 2 142.678 171.32 -4.05231e-17
660 1 24.9019 167.632 -4.05231e-17
661 2 23.2904 47.9664 -4.05231e-17
662 2 165.464 137.127 -4.05231e-17
663 1 95.4981 126.865 -4.05231e-17
664 1 210.524 93.9732 -4.05231e-17
665 1 145.381 136.54 -4.05231e-17
666 1 155.437 117.71 -4.05231e-17
667 1 136.077 124.929 -4.05231e-17
668 1 33.1749 168.73 -4.05231e-17
669 1 64.1621 176.433 -4.05231e-17
670 2 9.34524 188.861 -4.05231e-17
671 1 152.922 172.832 -4.05231e-17
672 1 153.075 2.6816 -4.05231e-17
673 2 82.654 114.125 -4.05231e-17
674 2 129.06 77.9402 -4.05231e-17
675 2 164.805 212.371 -4.05231e-17
676 1 147.157 181.503 -4.05231e-17
677 2 78.458 25.3906 -4.05231e-17
678 1 111.252 69.9648 -4.05231e-17
679 1 176.99 210.683 -4.05231e-17
680 2 98.1527 21.9965 -4.05231e-17
681 1 62.1969 218.899 -4.05231e-17
682 1 122.632 177.843 -4.05231e-17
683 2 6.59349 151.669 -4.05231e-17
684 1 38.3578 117.53 -4.05231e-17
685 1 168.949 209.709 -4.05231e-17
686 1 120.818 45.5806 -4.05231e-17
687 1 211.425 141.611 -4.05231e-17
688 1 131.98 101.216 -4.05231e-17
689 2 87.1314 24.1747 -4.05231e-17
690 1 111.624 121.435 -4.05231e-17
691 2 45.2363 132.217 -4.05231e-17
692 2 180.678 143.456 -4.05231e-17
693 1 18.261 103.369 -4.05231e-17
694 2 214.304 63.6537 -4.05231e-17
695 2 70.0055 9.22761 -4.05231e-17
696 2 190.965 110.278 -4.05231e-17
697 1 168.409 52.2594 -4.05231e-17
698 2 55.9587 79.1561 -4.05231e-17
699 1 44.5809 176.732 -4.05231e-17
700 2 10.1655 137.894 -4.05231e-17
701 2 163.233 24.8812 -4.05231e-17
702 1 112.104 111.833 -4.05231e-17
703 1 18.8018 107.503 -4.05231e-17
704 1 9.90142 169.307 -4.05231e-17
705 1 60.0516 142.989 -4.05231e-17
706 1 105.628 217.707 -4.05231e-17
707 1 63.1211 13.8314 -4.05231e-17
708 2 10.8501 104.713 -4.05231e-17
709 1 163.244 190.395 -4.05231e-17
710 2 131.872 4.36524 -4.05231e-17
711 2 200.334 43.9874 -4.05231e-17
712 1 138.459 140.967 -4.05231e-17
713 1 79.5124 65.3101 -4.05231e-17
714 2 92.9413 192.804 -4.05231e-17
715 2 146.803 124.732 -4.05231e-17
716 1 116.522 111.785 -4.05231e-17
717 1 47.8452 138.014 -4.05231e-17
718 2 75.0475 56.0842 -4.05231e-17
719 1 16.9117 168.027 -4.05231e-17
720 2 205.024 86.1163 -4.05231e-17
721 2 34.9597 0.342859 -4.05231e-17
722 2 50.3209 152.795 -4.05231e-17
723 2 162.132 106.881 -4.05231e-17
724 2 2.68569 33.3204 -4.05231e-17
725 2 9.16813 75.105 -4.05231e-17
726 2 179.238 200.095 -4.05231e-17
727 2 31.1258 97.3792 -4.05231e-17
728 1 177.66 93.0296 -4.05231e-17
729 2 209.554 120.987 -4.05231e-17
730 2 109.221 178.021 -4.05231e-17
731 1 151.181 14.2766 -4.05231e-17
732 2 12.0178 165.512 -4.05231e-17
733 2 147.916 156.355 -4.05231e-17
734 2 175.818 205.204 -4.05231e-17
735 2 69.3935 128.66 -4.05231e-17
736 1 184.922 191.888 -4.05231e-17
737 2 106.917 23.1695 -4.05231e-17
738 2 105.884 215.15 -4.05231e-17
739 2 145.221 151.452 -4.05231e-17
740 2 203.336 83.6496 -4.05231e-17
741 2 182.316 192.735 -4.05231e-17
742 1 48.5506 172.246 -4.05231e-17
743 2 96.1982 150.217 -4.05231e-17
744 1 37.64 187.174 -4.05231e-17
745 2 32.6542 85.0434 -4.05231e-17
746 1 180.25 88.4698 -4.05231e-17
747 1 191.344 129.796 -4.05231e-17
748 2 206.614 121.513 -4.05231e-17
749 1 185.816 156.77 -4.05231e-17
750 1 73.1989 110.364 -4.05231e-17
751 1 125.445 101.643 -4.05231e-17
752 2 127.091 199.542 -4.05231e-17
753 1 203.778 58.7442 -4.05231e-17
754 2 4.27221 92.2647 -4.05231e-17
755 1 123.303 112.072 -4.05231e-17
756 2 33.5875 20.8575 -4.05231e-17
757 1 112.606 65.053 -4.05231e-17
758 2 157.935 63.1057 -4.05231e-17
759 1 80.1954 200.646 -4.05231e-17
760 1 136.966 69.0723 -4.05231e-17
761 2 189.587 53.1182 -4.05231e-17
762 1 58.5881 140.872 -4.05231e-17
763 2 46.9599 3.29175 -4.05231e-17
764 2 175.899 148.995 -4.05231e-17
765 1 25.7311 104.391 -4.05231e-17
766 2 150.017 176.737 -4.05231e-17
767 2 177.574 112.96 -4.05231e-17
768 2 46.212 189.893 -4.05231e-17
769 2 179.328 169.672 -4.05231e-17
770 1 182.017 159.621 -4.05231e-17
771 1 123.205 130.681 -4.05231e-17
772 1 150.224 6.96114 -4.05231e-17
773 2 203.715 122.628 -4.05231e-17
774 1 174.319 133.258 -4.05231e-17
775 1 90.5262 89.9324 -4.05231e-17
776 2 168.325 80.0676 -4.05231e-17
777 2 6.29314 200.563 -4.05231e-17
778 1 46.428 38.034 -4.05231e-17
779 1 39.1977 216.064 -4.05231e-17
780 2 72.5058 57.7702 -4.05231e-17
781 1 52.2982 183.13 -4.05231e-17
782 2 45.0667 137.626 -4.05231e-17
783 1 200.357 41.5838 -4.05231e-17
784 2 83.1564 18.0338 -4.05231e-17
785 1 42.0787 55.9566 -4.05231e-17
786 1 70.4593 181.593 -4.05231e-17
787 2 38.1988 106.255 -4.05231e-17
788 2 90.0161 188.748 -4.05231e-17
789 2 118.542 210.995 -4.05231e-17
790 2 104.792 170.44 -4.05231e-17
791 2 126.23 210.988 -4.05231e-17
792 1 1.42975 183.194 -4.05231e-17
793 1 112.64 138.247 -4.05231e-17
794 2 170.074 5.59677 -4.05231e-17
795 2 8.72512 156.765 -4.05231e-17
796 1 104.545 29.858 -4.05231e-17
797 1 43.7284 178.942 -4.05231e-17
798 1 170.573 105.205 -4.05231e-17
799 2 117.76 114.139 -4.05231e-17
800 1 213.754 37.9244 -4.05231e-17
801 2 147.679 145.828 -4.05231e-17
802 1 113.805 211.657 -4.05231e-17
803 1 52.6753 211.431 -4.05231e-17
804 1 47.3161 153.107 -4.05231e-17
805 2 169.855 145.266 -4.05231e-17
806 2 26.9907 109.892 -4.05231e-17
807 2 193.841 48.4663 -4.05231e-17
808 2 127.446 205.935 -4.05231e-17
809 1 45.244 30.6569 -4.05231e-17
810 2 59.0021 111.42 -4.05231e-17
811 2 165.323 209.527 -4.05231e-17
812 1 160.861 156.605 -4.05231e-17
813 1 17.6273 114.005 -4.05231e-17
814 1 161.934 89.5535 -4.05231e-17
815 1 33.9182 35.3983 -4.05231e-17
816 1 37.5232 93.9383 -4.05231e-17
817 2 68.1712 180.989 -4.05231e-17
818 2 79.8408 16.6656 -4.05231e-17
819 2 159.171 79.097 -4.05231e-17
820 1 212.369 78.6411 -4.05231e-17
821 1 195.984 46.849 -4.05231e-17
822 2 71.048 186.426 -4.05231e-17
823 1 217.54 99.704 -4.05231e-17
824 1 163.406 163.039 -4.05231e-17
825 1 8.54605 133.23 -4.05231e-17
826 2 167.484 116.741 -4.05231e-17
827 2 72.5004 168.058 -4.05231e-17
828 1 51.6403 27.0233 -4.05231e-17
829 2 141.575 114.993 -4.05231e-17
830 1 91.0614 107.718 -4.05231e-17
831 2 214.29 29.7526 -4.05231e-17
832 2 206.214 68.412 -4.05231e-17
833 2 89.5241 63.6151 -4.05231e-17
834 1 86.0101 192.458 -4.05231e-17
835 1 178.235 98.5323 -4.05231e-17
836 1 47.0888 72.074 -4.05231e-17
837 2 142.276 96.8426 -4.05231e-17
838 2 95.3332 62.0517 -4.05231e-17
839 1 62.9632 89.2114 -4.05231e-17
840 2 218.338 70.9154 -4.05231e-17
841 2 179.358 57.0213 -4.05231e-17
842 1 141.625 145.204 -4.05231e-17
843 1 205.564 178.047 -4.05231e-17
844 2 23.8033 32.3045 -4.05231e-17
845 1 183.003 88.5725 -4.05231e-17
846 2 103.125 164.454 -4.05231e-17
847 1 73.384 48.5509 -4.05231e-17
848 2 105.065 12.6278 -4.05231e-17
849 1 166.993 12.3448 -4.05231e-17
850 2 126.871 155.427 -4.05231e-17
851 2 101.112 69.9333 -4.05231e-17
852 1 124.943 205.882 -4.05231e-17
853 1 23.0429 160.768 -4.05231e-17
854 2 14.2398 77.7283 -4.05231e-17
855 2 41.0306 12.48 -4.05231e-17
856 1 92.9003 175.636 -4.05231e-17