ITEM: TIMESTEP
0
ITEM: NUMBER OF ATOMS
7200
ITEM: BOX BOUNDS xy xz yz pp pp pp
0.0000000000000000e+00 2.1900000000000000e+02 0.0000000000000000e+00
0.0000000000000000e+00 2.1900000000000000e+02 0.0000000000000000e+00
-3.6499999999999999e-01 3.6499999999999999e-01 0.0000000000000000e+00
ITEM: ATOMS id type x y z
1 1 129.525 22.9639 -4.05231e-17
2 2 22.6111 212.683 -4.05231e-17
3 2 178.802 157.286 -4.05231e-17
4 1 136.131 124.466 -4.05231e-17
5 1 44.8832 71.9906 -4.05231e-17
6 1 169.542 11.5943 -4.05231e-17
7 2 186.087 6.4937 -4.05231e-17
8 2 99.0139 61.0315 -4.05231e-17
9 1 40.8033 207.841 -4.05231e-17
10 2 44.9932 124.464 -4.05231e-17
11 2 198.527 87.6282 -4.05231e-17
12 1 60.0706 8.71355 -4.05231e-17
13 2 150.643 47.3483 -4.05231e-17
14 1 120.416 175.189 -4.05231e-17
15 2 212.07 29.1613 -4.05231e-17
16 2 190.619 84.9347 -4.05231e-17
17 1 73.4876 70.3111 -4.05231e-17
18 2 10.2061 130.751 -4.05231e-17
19 1 214.281 104.406 -4.05231e-17
20 1 97.694 23.4231 -4.05231e-17
21 1 172.721 100.583 -4.05231e-17
22 2 64.8509 211.277 -4.05231e-17
23 2 46.402 191.373 -4.05231e-17
24 2 155.965 50.4358 -4.05231e-17
25 2 33.3991 208.683 -4.05231e-17
26 2 155.358 12.5537 -4.05231e-17
27 1 14.016 197.43 -4.05231e-17
28 2 37.856 86.22 -4.05231e-17
29 2 86.0532 68.8337 -4.05231e-17
30 2 83.2028 86.3753 -4.05231e-17
31 2 133.782 82.6538 -4.05231e-17
32 1 41.6207 152.077 -4.05231e-17
33 2 127.949 89.6819 -4.05231e-17
34 2 6.6652 132.768 -4.05231e-17
35 2 124.11 45.1707 -4.05231e-17
36 1 184.681 171.913 -4.05231e-17
37 1 118.675 218.382 -4.05231e-17
38 2 178.642 113.145 -4.05231e-17
39 1 216.952 46.3361 -4.05231e-17
40 2 191.669 97.0402 -4.05231e-17
41 1 68.0942 34.1666 -4.05231e-17
42 1 33.9504 35.6433 -4.05231e-17
43 1 191.795 153.678 -4.05231e-17
44 1 153.52 112.854 -4.05231e-17
45 2 38.3984 54.3626 -4.05231e-17
46 1 174.829 23.2831 -4.05231e-17
47 2 129.366 72.2281 -4.05231e-17
48 2 2.47864 104.795 -4.05231e-17
49 1 180.955 200.814 -4.05231e-17
50 2 215.973 13.3047 -4.05231e-17
51 1 6.42625 165.59 -4.05231e-17
52 1 41.425 106.119 -4.05231e-17
53 2 118.417 189.039 -4.05231e-17
54 1 85.0904 43.4124 -4.05231e-17
55 2 42.3222 124.015 -4.05231e-17
56 1 79.7903 27.599 -4.05231e-17
57 2 198.185 44.0415 -4.05231e-17
58 1 204.494 55.041 -4.05231e-17
59 1 135.669 84.108 -4.05231e-17
60 2 187.739 103.233 -4.05231e-17
61 1 145.494 109.736 -4.05231e-17
62 1 106.406 126.915 -4.05231e-17
63 2 128.314 206.694 -4.05231e-17
64 1 12.395 61.9364 -4.05231e-17
65 2 152.798 122.912 -4.05231e-17
66 2 212.658 114.739 -4.05231e-17
67 2 195.427 125.832 -4.05231e-17
68 1 117.142 96.0601 -4.05231e-17
69 2 160.055 132.473 -4.05231e-17
70 1 160.246 115.739 -4.05231e-17
71 1 28.2962 82.213 -4.05231e-17
72 2 42.1366 89.5488 -4.05231e-17
73 2 201.143 202.384 -4.05231e-17
74 2 195.382 48.6911 -4.05231e-17
75 1 1.43855 123.606 -4.05231e-17
76 2 187.083 162.228 -4.05231e-17
77 2 203.366 114.911 -4.05231e-17
78 1 206.77 193.935 -4.05231e-17
79 2 115.168 208.394 -4.05231e-17
80 1 26.1077 90.4135 -4.05231e-17
81 1 184.506 196.789 -4.05231e-17
82 1 153.623 89.305 -4.05231e-17
83 1 51.7568 22.6627 -4.05231e-17
84 2 175.255 15.7948 -4.05231e-17
85 2 167.462 191.132 -4.05231e-17
86 2 60.3929 36.3054 -4.05231e-17
87 2 0.627367 154.513 -4.05231e-17
88 1 75.3977 154.192 -4.05231e-17
89 2 170.716 128.202 -4.05231e-17
90 2 186.758 35.6538 -4.05231e-17
91 2 214.801 191.314 -4.05231e-17
92 1 13.8547 2.7739 -4.05231e-17
93 2 112.542 190.701 -4.05231e-17
94 2 156.02 117.01 -4.05231e-17
95 1 194.81 196.615 -4.05231e-17
96 2 205.683 46.443 -4.05231e-17
97 2 36.868 14.1242 -4.05231e-17
98 2 29.9518 46.8553 -4.05231e-17
99 1 66.6752 201.064 -4.05231e-17
100 2 214.2 208.559 -4.05231e-17
101 1 145.656 92.557 -4.05231e-17
102 1 11.8496 150.285 -4.05231e-17
103 2 17.7843 111.091 -4.05231e-17
104 2 41.6423 57.9304 -4.05231e-17
105 1 211.508 60.87 -4.05231e-17
106 1 199.19 69.4564 -4.05231e-17
107 1 206.503 208.188 -4.05231e-17
108 1 108.684 209.939 -4.05231e-17
109 2 113.147 212.672 -4.05231e-17
110 2 178.354 217.167 -4.05231e-17
111 1 180.594 61.9549 -4.05231e-17
112 2 193.99 98.957 -4.05231e-17
113 1 203.865 26.626 -4.05231e-17
114 1 110.12 135.324 -4.05231e-17
115 2 6.22792 65.7047 -4.05231e-17
116 2 205.342 36.2691 -4.05231e-17
117 1 143.959 142.503 -4.05231e-17
118 1 90.455 104.162 -4.05231e-17
119 2 88.6984 141.734 -4.05231e-17
120 2 172.291 32.829 -4.05231e-17
121 1 9.75113 55.4114 -4.05231e-17
122 2 200.264 166.263 -4.05231e-17
123 2 13.1583 59.5486 -4.05231e-17
124 1 155.327 133.672 -4.05231e-17
125 1 153.02 151.049 -4.05231e-17
126 2 88.2695 8.11873 -4.05231e-17
127 2 103.432 73.7455 -4.05231e-17
128 1 135.114 121.587 -4.05231e-17
129 1 196.986 138.915 -4.05231e-17
130 2 183.516 194.309 -4.05231e-17
131 1 94.9768 138.54 -4.05231e-17
132 1 132.355 182.155 -4.05231e-17
133 1 7.49828 145.372 -4.05231e-17
134 1 99.623 213.699 -4.05231e-17
135 2 79.0693 44.1992 -4.05231e-17
136 1 114.37 163.991 -4.05231e-17
137 1 127.473 177.084 -4.05231e-17
138 2 135.373 108.736 -4.05231e-17
139 1 37.771 70.0736 -4.05231e-17
140 1 146.935 201.579 -4.05231e-17
141 1 4.41759 181.705 -4.05231e-17
142 1 207.071 128.355 -4.05231e-17
143 1 16.0496 59.2116 -4.05231e-17
144 1 45.2215 97.5693 -4.05231e-17
145 2 15.6351 202.363 -4.05231e-17
146 1 34.4273 130.85 -4.05231e-17
147 2 217.094 103.447 -4.05231e-17
148 1 72.5482 54.1395 -4.05231e-17
149 1 23.9399 133.87 -4.05231e-17
150 2 204.442 138.76 -4.05231e-17
151 1 143.379 165.371 -4.05231e-17
152 1 210.413 2.37712 -4.05231e-17
153 2 85.9583 112.415 -4.05231e-17
154 1 208.169 92.523 -4.05231e-17
155 2 164.119 64.0018 -4.05231e-17
156 2 97.7724 183.653 -4.05231e-17
157 2 183.131 176.086 -4.05231e-17
158 2 66.8391 5.11738 -4.05231e-17
159 2 86.7294 194.313 -4.05231e-17
160 2 12.5301 17.1997 -4.05231e-17
161 2 122.18 135.374 -4.05231e-17
162 1 180.038 84.1461 -4.05231e-17
163 1 43.5005 76.9364 -4.05231e-17
164 2 118.703 167.952 -4.05231e-17
165 1 203.608 34.4722 -4.05231e-17
166 2 41.6875 205.202 -4.05231e-17
167 1 156.317 147.926 -4.05231e-17
168 1 28.6413 196.392 -4.05231e-17
169 2 46.2982 178.556 -4.05231e-17
170 1 128.607 167.298 -4.05231e-17
171 1 117.804 108.6 -4.05231e-17
172 1 6.32808 100.628 -4.05231e-17
173 1 25.3144 163.05 -4.05231e-17
174 2 92.9593 126.404 -4.05231e-17
175 2 90.701 28.3446 -4.05231e-17
176 1 85.219 187.319 -4.05231e-17
177 2 131.265 24.8174 -4.05231e-17
178 1 9.13878 4.92411 -4.05231e-17
179 2 125.38 50.4613 -4.05231e-17
180 1 53.6395 84.0947 -4.05231e-17
181 1 75.9711 158.439 -4.05231e-17
182 1 116.878 160.479 -4.05231e-17
183 1 31.6245 114.518 -4.05231e-17
184 2 168.338 103.675 -4.05231e-17
185 2 165.921 122.714 -4.05231e-17
186 2 98.9559 191.539 -4.05231e-17
187 2 0.506167 213.235 -4.05231e-17
188 2 37.8182 25.2731 -4.05231e-17
189 1 84.2537 30.3639 -4.05231e-17
190 1 64.5083 75.2436 -4.05231e-17
191 2 14.7095 133.204 -4.05231e-17
192 2 78.6503 70.6596 -4.05231e-17
193 1 155.905 27.5592 -4.05231e-17
194 1 72.1468 193.613 -4.05231e-17
195 2 104.609 125.258 -4.05231e-17
196 1 27.4687 161.882 -4.05231e-17
197 2 182.013 60.0131 -4.05231e-17
198 2 17.5151 215.44 -4.05231e-17
199 2 144.971 158.788 -4.05231e-17
200 2 43.0921 17.6116 -4.05231e-17
201 2 101.19 193.407 -4.05231e-17
202 1 131.438 132.384 -4.05231e-17
203 1 41.8078 217.151 -4.05231e-17
204 2 4.46814 194.728 -4.05231e-17
205 2 171.674 136.156 -4.05231e-17
206 2 209.36 145.348 -4.05231e-17
207 1 50.0453 185.305 -4.05231e-17
208 2 178.739 20.2626 -4.05231e-17
209 2 71.3666 119.56 -4.05231e-17
210 1 7.88325 53.2408 -4.05231e-17
211 1 12.5667 37.6627 -4.05231e-17
212 1 52.7736 54.2076 -4.05231e-17
213 1 142.56 137.473 -4.05231e-17
214 2 199.937 196.22 -4.05231e-17
215 1 218.672 177.164 -4.05231e-17
216 1 116.465 51.0141 -4.05231e-17
217 1 142.712 48.3795 -4.05231e-17
218 2 171.773 115.907 -4.05231e-17
219 2 146.827 24.2664 -4.05231e-17
220 1 158.44 3.44929 -4.05231e-17
221 2 84.9665 12.7231 -4.05231e-17
222 1 156.617 126.329 -4.05231e-17
223 1 24.9899 203.733 -4.05231e-17
224 2 67.9677 62.7483 -4.05231e-17
225 2 91.9575 171.858 -4.05231e-17
226 1 201.288 84.2964 -4.05231e-17
227 2 31.2969 177.474 -4.05231e-17
228 2 40.9784 86.8495 -4.05231e-17
229 1 28.7749 44.2555 -4.05231e-17
230 1 56.0331 83.0867 -4.05231e-17
231 2 102.544 161.402 -4.05231e-17
232 1 31.1456 26.2698 -4.05231e-17
233 2 93.2395 26.764 -4.05231e-17
234 1 119.129 73.3497 -4.05231e-17
235 1 179.347 115.498 -4.05231e-17
236 2 138.093 66.5024 -4.05231e-17
237 2 92.9543 129.172 -4.05231e-17
238 2 77.8864 53.7825 -4.05231e-17
239 1 38.0768 202.662 -4.05231e-17
240 1 95.8068 118.694 -4.05231e-17
241 2 21.8798 168.678 -4.05231e-17
242 1 142.295 210.985 -4.05231e-17
243 2 144.109 217.706 -4.05231e-17
244 2 176.37 188.037 -4.05231e-17
245 1 157.256 209.871 -4.05231e-17
246 2 84.8933 155.453 -4.05231e-17
247 2 132.667 149.022 -4.05231e-17
248 1 84.5416 216.317 -4.05231e-17
249 1 145.158 121.66 -4.05231e-17
250 1 117.068 83.9161 -4.05231e-17
251 2 100.199 139.728 -4.05231e-17
252 1 139.498 105.207 -4.05231e-17
253 2 30.3088 135.048 -4.05231e-17
254 2 198.946 152.422 -4.05231e-17
255 2 23.6352 93.7883 -4.05231e-17
256 1 25.9034 188.926 -4.05231e-17
257 2 51.1042 157.51 -4.05231e-17
258 1 179.187 60.2137 -4.05231e-17
259 2 196.069 159.831 -4.05231e-17
260 1 67.5057 166.697 -4.05231e-17
261 2 162.222 140.639 -4.05231e-17
262 2 204.682 104.357 -4.05231e-17
263 2 122.653 216.499 -4.05231e-17
264 1 128.466 18.2357 -4.05231e-17
265 1 92.4563 198.783 -4.05231e-17
266 1 63.6442 183.45 -4.05231e-17
267 2 98.9271 17.7383 -4.05231e-17
268 1 164.83 75.5704 -4.05231e-17
269 2 29.1539 67.8582 -4.05231e-17
270 2 11.2609 189.815 -4.05231e-17
271 2 175.448 37.8716 -4.05231e-17
272 1 123.465 17.1237 -4.05231e-17
273 1 197.899 83.0127 -4.05231e-17
274 1 204.866 192.113 -4.05231e-17
275 1 164.118 146.151 -4.05231e-17
276 1 140.883 46.8215 -4.05231e-17
277 1 132.105 22.4338 -4.05231e-17
278 2 212.082 143.714 -4.05231e-17
279 2 138.005 83.1075 -4.05231e-17
280 1 106.757 182.81 -4.05231e-17
281 2 97.3179 212.402 -4.05231e-17
282 2 50.0591 137.302 -4.05231e-17
283 2 197.541 149.102 -4.05231e-17
284 1 139.629 127.241 -4.05231e-17
285 1 95.4524 125.429 -4.05231e-17
286 2 72.5439 89.9851 -4.05231e-17
287 2 91.0324 61.9434 -4.05231e-17
288 1 76.3226 110.95 -4.05231e-17
289 2 109.47 13.4697 -4.05231e-17
290 1 115.826 22.5185 -4.05231e-17
291 2 176.366 185.195 -4.05231e-17
292 1 103.877 38.0174 -4.05231e-17
293 1 147.719 96.3675 -4.05231e-17
294 1 66.7134 162.015 -4.05231e-17
295 2 26.2397 27.9649 -4.05231e-17
296 1 191.192 115.826 -4.05231e-17
297 1 69.239 205.687 -4.05231e-17
298 2 29.2426 179.912 -4.05231e-17
299 1 200.13 16.1661 -4.05231e-17
300 2 195.34 6.65235 -4.05231e-17
301 2 54.995 11.1418 -4.05231e-17
302 2 159.024 91.5894 -4.05231e-17
303 1 58.1733 151.37 -4.05231e-17
304 1 126.696 138.827 -4.05231e-17
305 1 82.7622 186.716 -4.05231e-17
306 2 117.067 63.2563 -4.05231e-17
307 2 190.563 179.583 -4.05231e-17
308 2 208.012 23.9283 -4.05231e-17
309 1 118.623 99.9996 -4.05231e-17
310 1 178.108 210.047 -4.05231e-17
311 1 157.313 128.526 -4.05231e-17
312 2 84.0303 23.1843 -4.05231e-17
313 2 188.121 211.768 -4.05231e-17
314 1 163.9 32.9503 -4.05231e-17
315 2 22.9057 205.461 -4.05231e-17
316 1 114.719 63.6929 -4.05231e-17
317 1 214.222 11.064 -4.05231e-17
318 1 204.643 157.091 -4.05231e-17
319 2 116.262 193.887 -4.05231e-17
320 1 178.295 65.8634 -4.05231e-17
321 1 127.75 11.0875 -4.05231e-17
322 1 20.9662 42.7135 -4.05231e-17
323 2 87.6046 138.904 -4.05231e-17
324 2 64.9089 43.2665 -4.05231e-17
325 2 24.3676 201.386 -4.05231e-17
326 1 183.295 26.7907 -4.05231e-17
327 1 35.9627 59.6514 -4.05231e-17
328 2 98.9226 87.5499 -4.05231e-17
329 2 46.3278 147.834 -4.05231e-17
330 2 109.209 123.078 -4.05231e-17
331 2 30.5283 9.5509 -4.05231e-17
332 2 118.004 196.91 -4.05231e-17
333 2 217.054 116.674 -4.05231e-17
334 2 204.55 49.2662 -4.05231e-17
335 1 184.423 96.975 -4.05231e-17
336 2 61.4359 177.821 -4.05231e-17
337 2 170.916 166.763 -4.05231e-17
338 1 8.10192 177.999 -4.05231e-17
339 2 50.7191 190.817 -4.05231e-17
340 2 196.065 136.476 -4.05231e-17
341 2 80.4813 92.3031 -4.05231e-17
342 2 132.827 163.162 -4.05231e-17
343 2 217.565 198.759 -4.05231e-17
344 1 111.48 167.996 -4.05231e-17
345 2 111.768 7.42564 -4.05231e-17
346 2 45.5039 62.0169 -4.05231e-17
347 1 155.769 106.032 -4.05231e-17
348 1 23.3 215.036 -4.05231e-17
349 2 158.884 52.0627 -4.05231e-17
350 2 55.1208 167.006 -4.05231e-17
351 1 144.569 85.3851 -4.05231e-17
352 1 156.31 198.139 -4.05231e-17
353 2 162.369 108.33 -4.05231e-17
354 2 40.2032 174.651 -4.05231e-17
355 1 214.931 179.992 -4.05231e-17
356 2 11.2922 22.1669 -4.05231e-17
357 1 106.321 214.995 -4.05231e-17
358 1 103.977 13.3474 -4.05231e-17
359 1 31.7898 188.143 -4.05231e-17
360 1 71.3587 30.9268 -4.05231e-17
361 2 106.621 69.7287 -4.05231e-17
362 2 146.628 107.163 -4.05231e-17
363 1 58.7961 18.6881 -4.05231e-17
364 2 104.854 55.0451 -4.05231e-17
365 1 9.61333 2.33604 -4.05231e-17
366 1 62.2688 211.147 -4.05231e-17
367 1 131.823 58.1857 -4.05231e-17
368 1 48.6644 148.687 -4.05231e-17
369 2 57.804 145.988 -4.05231e-17
370 1 150.933 107.735 -4.05231e-17
371 2 28.4271 84.7199 -4.05231e-17
372 1 75.7889 9.14227 -4.05231e-17
373 2 86.1854 152.746 -4.05231e-17
374 2 154.621 84.8208 -4.05231e-17
375 1 67.2595 74.7313 -4.05231e-17
376 1 115.2 180.03 -4.05231e-17
377 2 80.7057 46.8561 -4.05231e-17
378 2 185.144 165.983 -4.05231e-17
379 2 185.147 213.259 -4.05231e-17
380 1 192.384 91.56 -4.05231e-17
381 1 158.608 186.4 -4.05231e-17
382 1 127.902 42.1222 -4.05231e-17
383 1 92.1069 50.9184 -4.05231e-17
384 2 20.3967 54.3143 -4.05231e-17
385 1 170.718 105.067 -4.05231e-17
386 2 186.474 194.707 -4.05231e-17
387 1 19.9338 44.905 -4.05231e-17
388 1 160.015 151.786 -4.05231e-17
389 2 139.558 87.3455 -4.05231e-17
390 1 195.289 23.7618 -4.05231e-17
391 1 175.907 199.811 -4.05231e-17
392 2 214.911 33.2782 -4.05231e-17
393 2 191.132 5.70826 -4.05231e-17
394 1 16.8353 160.08 -4.05231e-17
395 1 79.9523 183.472 -4.05231e-17
396 2 25.8461 147.721 -4.05231e-17
397 1 54.914 55.7606 -4.05231e-17
398 2 181.726 116.073 -4.05231e-17
399 2 192.25 55.5917 -4.05231e-17
400 2 67.4547 216.261 -4.05231e-17
401 2 60.9404 174.754 -4.05231e-17
402 1 56.8642 203.602 -4.05231e-17
403 1 87.1659 44.4257 -4.05231e-17
404 2 120.064 60.001 -4.05231e-17
405 1 96.4303 159.585 -4.05231e-17
406 2 207.025 133.841 -4.05231e-17
407 1 107.543 34.251 -4.05231e-17
408 1 143.258 215.141 -4.05231e-17
409 2 170.519 83.0571 -4.05231e-17
410 2 17.5361 126.475 -4.05231e-17
411 1 122.247 111.357 -4.05231e-17
412 1 84.914 83.7757 -4.05231e-17
413 1 56.5502 102.149 -4.05231e-17
414 2 9.82357 218.642 -4.05231e-17
415 1 104.326 128.06 -4.05231e-17
416 1 96.6061 63.1402 -4.05231e-17
417 2 42.9148 131.593 -4.05231e-17
418 2 69.1288 137.841 -4.05231e-17
419 2 159.634 172.897 -4.05231e-17
420 2 93.7212 120.527 -4.05231e-17
421 1 89.1559 81.5126 -4.05231e-17
422 1 25.3315 118.714 -4.05231e-17
423 2 113.181 216.055 -4.05231e-17
424 2 47.2054 23.4754 -4.05231e-17
425 2 154.382 128.85 -4.05231e-17
426 1 3.89667 93.1424 -4.05231e-17
427 2 1.91107 82.4288 -4.05231e-17
428 1 210.329 58.5284 -4.05231e-17
429 2 10.424 76.6678 -4.05231e-17
430 2 96.0255 122.895 -4.05231e-17
431 1 13.0534 47.8119 -4.05231e-17
432 2 164.452 25.804 -4.05231e-17
433 1 164.257 11.1491 -4.05231e-17
434 1 180.058 198.302 -4.05231e-17
435 1 125.635 91.055 -4.05231e-17
436 2 81.5269 97.2044 -4.05231e-17
437 2 157.982 55.173 -4.05231e-17
438 2 196.851 195.375 -4.05231e-17
439 2 78.7067 148.015 -4.05231e-17
440 2 191.936 156.369 -4.05231e-17
441 1 127.187 180.006 -4.05231e-17
442 1 214.094 55.9512 -4.05231e-17
443 2 33.2692 77.796 -4.05231e-17
444 1 186.315 65.7882 -4.05231e-17
445 1 166.052 189.049 -4.05231e-17
446 2 178.636 108.482 -4.05231e-17
447 2 128.883 32.3039 -4.05231e-17
448 2 6.44636 204.414 -4.05231e-17
449 1 108.721 171.83 -4.05231e-17
450 1 200.876 120.991 -4.05231e-17
451 1 179.482 202.739 -4.05231e-17
452 2 188.213 22.2075 -4.05231e-17
453 1 151.05 90.4964 -4.05231e-17
454 1 1.24584 52.0854 -4.05231e-17
455 2 9.8478 140.029 -4.05231e-17
456 1 141.46 150.748 -4.05231e-17
457 2 1.51728 205.223 -4.05231e-17
458 2 174.259 138.834 -4.05231e-17
459 2 210.149 43.0098 -4.05231e-17
460 1 40.2325 198.404 -4.05231e-17
461 1 112.471 147.622 -4.05231e-17
462 1 53.1051 141.245 -4.05231e-17
463 2 76.4422 169.846 -4.05231e-17
464 2 117.914 213.892 -4.05231e-17
465 1 52.7743 100.294 -4.05231e-17
466 2 62.7592 170.481 -4.05231e-17
467 2 8.42773 85.9423 -4.05231e-17
468 2 155.153 56.0668 -4.05231e-17
469 2 47.3046 107.137 -4.05231e-17
470 2 134.816 199.001 -4.05231e-17
471 2 7.67596 162.536 -4.05231e-17
472 2 125.27 2.12147 -4.05231e-17
473 2 194.229 26.1208 -4.05231e-17
474 2 86.49 10.4383 -4.05231e-17
475 1 198.723 21.0992 -4.05231e-17
476 2 58.8673 97.8741 -4.05231e-17
477 1 202.849 22.7345 -4.05231e-17
478 1 23.1653 6.15915 -4.05231e-17
479 2 95.1549 185.277 -4.05231e-17
480 1 84.6763 71.1526 -4.05231e-17
481 1 124.562 128.593 -4.05231e-17
482 2 131.546 205.06 -4.05231e-17
483 1 109.188 201.083 -4.05231e-17
484 1 55.5399 8.39219 -4.05231e-17
485 2 197.57 176.214 -4.05231e-17
486 1 8.71473 10.2461 -4.05231e-17
487 1 80.9956 39.7522 -4.05231e-17
488 1 22.6507 88.4373 -4.05231e-17
489 1 180.147 190.841 -4.05231e-17
490 1 112.324 70.2129 -4.05231e-17
491 1 149.16 64.8683 -4.05231e-17
492 2 65.233 2.82115 -4.05231e-17
493 1 73.4387 124.032 -4.05231e-17
494 2 73.968 82.039 -4.05231e-17
495 1 131.588 92.9391 -4.05231e-17
496 1 119.375 104.515 -4.05231e-17
497 1 142.45 113.773 -4.05231e-17
498 2 89.958 113.212 -4.05231e-17
499 2 110.285 45.0287 -4.05231e-17
500 2 101.037 1.17868 -4.05231e-17
501 2 0.590696 184.816 -4.05231e-17
502 2 205.305 118.804 -4.05231e-17
503 2 61.6445 15.6824 -4.05231e-17
504 2 94.0858 79.3713 -4.05231e-17
505 2 38.6102 159.054 -4.05231e-17
506 1 163.544 182.792 -4.05231e-17
507 2 65.425 196.332 -4.05231e-17
508 1 47.8223 33.7942 -4.05231e-17
509 1 52.0763 71.3704 -4.05231e-17
510 1 168.156 84.094 -4.05231e-17
511 2 97.3268 140.203 -4.05231e-17
512 1 209.933 119.836 -4.05231e-17
513 2 146.517 182.115 -4.05231e-17
514 2 176.193 129.048 -4.05231e-17
515 1 75.736 34.2731 -4.05231e-17
516 2 49.7696 87.8373 -4.05231e-17
517 1 33.785 56.8279 -4.05231e-17
518 2 46.2004 10.8748 -4.05231e-17
519 1 98.3857 103.591 -4.05231e-17
520 2 26.9758 66.0037 -4.05231e-17
521 2 174.002 12.8153 -4.05231e-17
522 1 8.75637 97.2654 -4.05231e-17
523 1 95.1851 128.072 -4.05231e-17
524 2 150.854 71.4553 -4.05231e-17
525 2 141.623 54.535 -4.05231e-17
526 2 90.3339 184.415 -4.05231e-17
527 1 212.538 210.739 -4.05231e-17
528 1 212.915 189.852 -4.05231e-17
529 2 131.655 199.952 -4.05231e-17
530 2 201.756 25.0083 -4.05231e-17
531 2 145.778 148.138 -4.05231e-17
532 1 44.0204 161.727 -4.05231e-17
533 2 200.21 126.975 -4.05231e-17
534 1 20.2413 147.343 -4.05231e-17
535 1 145.285 12.657 -4.05231e-17
536 2 50.5572 129.687 -4.05231e-17
537 1 88.9681 119.364 -4.05231e-17
538 1 63.9708 186.209 -4.05231e-17
539 2 90.6605 205.068 -4.05231e-17
540 1 48.8342 93.1382 -4.05231e-17
541 1 139.894 143.652 -4.05231e-17
542 1 32.5969 31.1362 -4.05231e-17
543 2 205.297 189.284 -4.05231e-17
544 1 39.3809 147.754 -4.05231e-17
545 1 158.791 25.167 -4.05231e-17
546 2 169.934 169.811 -4.05231e-17
547 1 27.6388 149.717 -4.05231e-17
548 1 142.22 177.616 -4.05231e-17
549 2 37.0826 118.499 -4.05231e-17
550 2 141.207 216.346 -4.05231e-17
551 2 42.9044 25.1074 -4.05231e-17
552 1 32.9738 112.502 -4.05231e-17
553 2 38.0557 200.035 -4.05231e-17
554 2 174.024 218.506 -4.05231e-17
555 2 178.863 126.629 -4.05231e-17
556 1 210.477 31.4412 -4.05231e-17
557 1 11.0057 57.6681 -4.05231e-17
558 1 55.4959 142.405 -4.05231e-17
559 2 130.434 144.153 -4.05231e-17
560 2 19.8794 26.0959 -4.05231e-17
561 2 118.357 152.727 -4.05231e-17
562 2 114.433 71.797 -4.05231e-17
563 1 94.5056 131.315 -4.05231e-17
564 2 24.2616 121.126 -4.05231e-17
565 2 49.7773 75.2579 -4.05231e-17
566 2 112.417 62.0729 -4.05231e-17
567 1 133.735 4.1917 -4.05231e-17
568 1 52.6876 38.6327 -4.05231e-17
569 2 168.142 158.253 -4.05231e-17
570 2 38.1461 19.8096 -4.05231e-17
571 2 137.319 50.183 -4.05231e-17
572 1 0.00547048 105.335 -4.05231e-17
573 2 202.793 46.594 -4.05231e-17
574 2 195.173 106.232 -4.05231e-17
575 1 150.991 203.227 -4.05231e-17
576 1 5.04562 95.4399 -4.05231e-17
577 1 86.1476 141.181 -4.05231e-17
578 1 85.0455 199.12 -4.05231e-17
579 2 7.14176 55.8605 -4.05231e-17
580 1 77.5507 197.638 -4.05231e-17
581 1 62.4635 164.778 -4.05231e-17
582 2 98.2898 90.5204 -4.05231e-17
583 2 100.209 116.09 -4.05231e-17
584 2 89.174 15.6848 -4.05231e-17
585 1 205.039 169.102 -4.05231e-17
586 1 129.49 79.3552 -4.05231e-17
587 1 206.649 29.2772 -4.05231e-17
588 2 33.8852 38.2613 -4.05231e-17
589 1 56.0749 15.4994 -4.05231e-17
590 2 191.576 210.998 -4.05231e-17
591 2 12.3667 171.823 -4.05231e-17
592 1 196.506 151.513 -4.05231e-17
593 1 115.889 100.982 -4.05231e-17
594 1 43.9782 35.7615 -4.05231e-17
595 1 134.482 57.8864 -4.05231e-17
596 2 24.886 113.705 -4.05231e-17
597 2 61.9174 124.315 -4.05231e-17
598 2 109.063 58.4142 -4.05231e-17
599 2 24.9186 136.368 -4.05231e-17
600 2 28.4087 110.114 -4.05231e-17
601 1 157.379 111.413 -4.05231e-17
602 1 168.108 40.5788 -4.05231e-17
603 2 162.079 102.616 -4.05231e-17
604 1 91.8644 174.484 -4.05231e-17
605 2 117.883 114.245 -4.05231e-17
606 2 147.654 81.6239 -4.05231e-17
607 2 49.2218 194.9 -4.05231e-17
608 2 97.5372 114.282 -4.05231e-17
609 1 111.932 67.9877 -4.05231e-17
610 2 129.444 178.957 -4.05231e-17
611 1 34.0852 114.647 -4.05231e-17
612 1 206.967 60.9424 -4.05231e-17
613 2 15.7911 186.19 -4.05231e-17
614 1 136.698 0.0836248 -4.05231e-17
615 1 129.237 96.645 -4.05231e-17
616 2 151.593 185.952 -4.05231e-17
617 1 57.0816 165.238 -4.05231e-17
618 1 66.2885 120.526 -4.05231e-17
619 1 194.115 163.786 -4.05231e-17
620 2 45.7826 67.6184 -4.05231e-17
621 2 195.268 103.095 -4.05231e-17
622 2 202.89 176.368 -4.05231e-17
623 2 80.6943 163.083 -4.05231e-17
624 1 86.843 34.2725 -4.05231e-17
625 2 38.7628 59.1422 -4.05231e-17
626 1 17.8281 212.893 -4.05231e-17
627 2 162.869 168.1 -4.05231e-17
628 1 168.263 142.743 -4.05231e-17
629 1 17.5218 49.001 -4.05231e-17
630 2 163.867 58.4382 -4.05231e-17
631 2 198.806 158.45 -4.05231e-17
632 2 57.8014 9.80544 -4.05231e-17
633 2 97.6518 30.906 -4.05231e-17
634 2 63.7244 119.259 -4.05231e-17
635 2 25.9993 71.3511 -4.05231e-17
636 1 117.9 129.806 -4.05231e-17
637 1 31.4947 106.3 -4.05231e-17
638 1 97.2489 186.769 -4.05231e-17
639 2 162.742 115.138 -4.05231e-17
640 2 124.988 93.6148 -4.05231e-17
641 1 158.394 74.7708 -4.05231e-17
642 2 29.1695 28.5578 -4.05231e-17
643 1 75.3303 98.306 -4.05231e-17
644 2 149.455 161.098 -4.05231e-17
645 2 27.2412 144.488 -4.05231e-17
646 1 130.731 115.853 -4.05231e-17
647 2 73.5111 176.608 -4.05231e-17
648 2 209.665 65.7412 -4.05231e-17
649 1 157.288 145.837 -4.05231e-17
650 1 51.1367 102.425 -4.05231e-17
651 1 168.871 106.595 -4.05231e-17
652 2 46.6809 136.642 -4.05231e-17
653 2 158.791 203.559 -4.05231e-17
654 1 173.496 143.349 -4.05231e-17
655 1 139.872 42.3946 -4.05231e-17
656 1 181.643 19.7419 -4.05231e-17
657 1 139.095 134.142 -4.05231e-17
658 2 166.069 22.6366 -4.05231e-17
659 2 124.347 166.253 -4.05231e-17
660 1 61.8585 69.5432 -4.05231e-17
661 2 55.2385 39.3172 -4.05231e-17
662 2 149.679 130.066 -4.05231e-17
663 1 165.276 120.065 -4.05231e-17
664 1 48.8828 135.054 -4.05231e-17
665 1 174.262 114.707 -4.05231e-17
666 1 171.992 125.797 -4.05231e-17
667 1 149.167 106.501 -4.05231e-17
668 1 74.7277 181.77 -4.05231e-17
669 1 85.8685 106.926 -4.05231e-17
670 2 21.3623 187.452 -4.05231e-17
671 1 213.208 187.681 -4.05231e-17
672 1 190.262 218.901 -4.05231e-17
673 2 26.3524 98.1847 -4.05231e-17
674 2 121.429 49.5834 -4.05231e-17
675 2 178.195 5.11026 -4.05231e-17
676 1 168.817 129.912 -4.05231e-17
677 2 43.3646 40.8057 -4.05231e-17
678 1 119.812 55.1085 -4.05231e-17
679 1 125.428 173.179 -4.05231e-17
680 2 93.095 45.1766 -4.05231e-17
681 1 69.3227 44.8732 -4.05231e-17
682 1 136.05 173.024 -4.05231e-17
683 2 62.5448 142.417 -4.05231e-17
684 1 36.2028 140.508 -4.05231e-17
685 1 4.94236 217.083 -4.05231e-17
686 1 30.793 99.8036 -4.05231e-17
687 1 16.0023 135.549 -4.05231e-17
688 1 134.258 92.2323 -4.05231e-17
689 2 13.5584 30.108 -4.05231e-17
690 1 85.5495 128.495 -4.05231e-17
691 2 74.8514 115.473 -4.05231e-17
692 2 159.572 193.339 -4.05231e-17
693 1 207.398 103.635 -4.05231e-17
694 2 153.222 91.8717 -4.05231e-17
695 2 114.364 68.4208 -4.05231e-17
696 2 187.423 150.903 -4.05231e-17
697 1 176.609 40.3206 -4.05231e-17
698 2 48.7014 18.9255 -4.05231e-17
699 1 73.3773 186.573 -4.05231e-17
700 2 44.0333 142.479 -4.05231e-17
701 2 180.41 75.0526 -4.05231e-17
702 1 144.244 43.6824 -4.05231e-17
703 1 157.575 93.8482 -4.05231e-17
704 1 9.75196 111.434 -4.05231e-17
705 1 51.3406 134.425 -4.05231e-17
706 1 102.491 181.506 -4.05231e-17
707 1 79.6903 72.9898 -4.05231e-17
708 2 25.2007 160.202 -4.05231e-17
709 1 23.4684 172.963 -4.05231e-17
710 2 113.181 31.4459 -4.05231e-17
711 2 190.577 33.2001 -4.05231e-17
712 1 117.237 134.739 -4.05231e-17
713 1 8.70155 64.9489 -4.05231e-17
714 2 134.519 23.5671 -4.05231e-17
715 2 135.478 145.233 -4.05231e-17
716 1 109.326 98.8606 -4.05231e-17
717 1 49.1567 122.415 -4.05231e-17
718 2 77.2324 100.242 -4.05231e-17
719 1 34.7488 174.281 -4.05231e-17
720 2 14.365 137.383 -4.05231e-17
721 2 81.559 1.82057 -4.05231e-17
722 2 46.1274 157.408 -4.05231e-17
723 2 160.198 100.623 -4.05231e-17
724 2 201.636 54.0517 -4.05231e-17
725 2 163.46 67.0112 -4.05231e-17
726 2 180.944 182.679 -4.05231e-17
727 2 13.8583 90.3564 -4.05231e-17
728 1 170.426 50.6557 -4.05231e-17
729 2 184.144 109.688 -4.05231e-17
730 2 176.027 144.731 -4.05231e-17
731 1 158.536 71.4749 -4.05231e-17
732 2 37.7888 137.965 -4.05231e-17
733 2 148.8 180.984 -4.05231e-17
734 2 1.35386 189.039 -4.05231e-17
735 2 80.9316 188.65 -4.05231e-17
736 1 26.0462 199.686 -4.05231e-17
737 2 109.388 47.6877 -4.05231e-17
738 2 133.619 20.2402 -4.05231e-17
739 2 140.897 109.884 -4.05231e-17
740 2 193.895 80.769 -4.05231e-17
741 2 173.853 174.253 -4.05231e-17
742 1 92.107 3.48804 -4.05231e-17
743 2 77.7451 93.8198 -4.05231e-17
744 1 140.957 30.7449 -4.05231e-17
745 2 207.518 41.0246 -4.05231e-17
746 1 15.3672 111.249 -4.05231e-17
747 1 0.352013 109.932 -4.05231e-17
748 2 214.5 134.668 -4.05231e-17
749 1 195.221 175.256 -4.05231e-17
750 1 118.109 124.773 -4.05231e-17
751 1 127.403 92.5761 -4.05231e-17
752 2 218.295 203.203 -4.05231e-17
753 1 209.488 21.2529 -4.05231e-17
754 2 18.6518 74.4734 -4.05231e-17
755 1 154.973 101.941 -4.05231e-17
756 2 53.1597 36.0943 -4.05231e-17
757 1 65.6559 81.6854 -4.05231e-17
758 2 132.302 72.6435 -4.05231e-17
759 1 76.6199 167.2 -4.05231e-17
760 1 132.344 67.093 -4.05231e-17
761 2 180.38 91.2804 -4.05231e-17
762 1 27.5519 135.618 -4.05231e-17
763 2 14.0716 73.4179 -4.05231e-17
764 2 174.473 155.929 -4.05231e-17
765 1 22.8782 102.391 -4.05231e-17
766 2 124.7 155.554 -4.05231e-17
767 2 179.351 137.824 -4.05231e-17
768 2 63.1976 59.2459 -4.05231e-17
769 2 169.107 138.233 -4.05231e-17
770 1 172.267 164.53 -4.05231e-17
771 1 64.694 143.909 -4.05231e-17
772 1 110.076 216.308 -4.05231e-17
773 2 162.237 143.538 -4.05231e-17
774 1 203.215 117.392 -4.05231e-17
775 1 106.517 111.398 -4.05231e-17
776 2 178.746 82.2035 -4.05231e-17
777 2 30.3051 6.71848 -4.05231e-17
778 1 92.0263 216.499 -4.05231e-17
779 1 36.5463 216.136 -4.05231e-17
780 2 44.0636 87.1499 -4.05231e-17
781 1 73.151 128.037 -4.05231e-17
782 2 93.0314 176.826 -4.05231e-17
783 1 188.802 31.1911 -4.05231e-17
784 2 68.0411 57.3281 -4.05231e-17
785 1 1.02177 59.7987 -4.05231e-17
786 1 106.917 47.7682 -4.05231e-17
787 2 52.5676 165.071 -4.05231e-17
788 2 84.0099 207.435 -4.05231e-17
789 2 20.2358 185.166 -4.05231e-17
790 2 93.4573 53.2944 -4.05231e-17
791 2 184.204 15.421 -4.05231e-17
792 1 172.921 176.754 -4.05231e-17
793 1 90.9204 164.403 -4.05231e-17
794 2 15.9805 177.13 -4.05231e-17
795 2 54.6483 134.452 -4.05231e-17
796 1 172.346 209.512 -4.05231e-17
797 1 89.0449 77.4586 -4.05231e-17
798 1 207.652 70.6547 -4.05231e-17
799 2 113.517 154.391 -4.05231e-17
800 1 35.5 19.9931 -4.05231e-17
801 2 134.252 126.458 -4.05231e-17
802 1 114.272 205.704 -4.05231e-17
803 1 216.406 55.5996 -4.05231e-17
804 1 165.156 150.494 -4.05231e-17
805 2 157.332 131.779 -4.05231e-17
806 2 218.682 159.051 -4.05231e-17
807 2 190.96 42.2709 -4.05231e-17
808 2 216.974 193.542 -4.05231e-17
809 1 43.6508 81.5647 -4.05231e-17
810 2 96.8334 130.114 -4.05231e-17
811 2 135.408 195.967 -4.05231e-17
812 1 124.292 133.524 -4.05231e-17
813 1 205.653 164.278 -4.05231e-17
814 1 189.053 119.213 -4.05231e-17
815 1 109.868 19.3616 -4.05231e-17
816 1 3.22734 114.01 -4.05231e-17
817 2 19.5542 63.6079 -4.05231e-17
818 2 4.26373 16.4188 -4.05231e-17
819 2 171.409 70.9661 -4.05231e-17
820 1 213.594 107.031 -4.05231e-17
821 1 188.181 37.8846 -4.05231e-17
822 2 107.308 164.908 -4.05231e-17
823 1 198.44 117.669 -4.05231e-17
824 1 186.717 197.391 -4.05231e-17
825 1 214.287 127.968 -4.05231e-17
826 2 185.393 90.7654 -4.05231e-17
827 2 98.2005 157.83 -4.05231e-17
828 1 204.192 87.7369 -4.05231e-17
829 2 124.553 113.142 -4.05231e-17
830 1 34.9947 116.947 -4.05231e-17
831 2 197.983 13.541 -4.05231e-17
832 2 195.074 44.2692 -4.05231e-17
833 2 149.403 201.199 -4.05231e-17
834 1 70.9346 2.84139 -4.05231e-17
835 1 212.609 102.879 -4.05231e-17
836 1 109.639 87.0149 -4.05231e-17
837 2 144.134 88.0098 -4.05231e-17
838 2 101.247 131.15 -4.05231e-17
839 1 125.314 20.7608 -4.05231e-17
840 2 12.0568 168.789 -4.05231e-17
841 2 136.167 59.9332 -4.05231e-17
842 1 173.718 127.137 -4.05231e-17
843 1 171.076 199.357 -4.05231e-17
844 2 0.876696 36.6844 -4.05231e-17
845 1 4.09115 158.754 -4.05231e-17
846 2 159.051 197.9 -4.05231e-17
847 1 1.92101 79.754 -4.05231e-17
848 2 41.2443 47.2361 -4.05231e-17
849 1 85.5298 46.0019 -4.05231e-17
850 2 108.711 174.865 -4.05231e-17
851 2 17.3637 70.4028 -4.05231e-17
852 1 86.4696 180.857 -4.05231e-17
853 1 147.543 154.275 -4.05231e-17
854 2 54.8607 127.496 -4.05231e-17
855 2 12.5648 147.872 -4.05231e-17
856 1 76.3631 144.331 -4.05231e-17