ITEM: TIMESTEP
0
ITEM: NUMBER OF ATOMS
7200
ITEM: BOX BOUNDS xy xz yz pp pp pp
0.0000000000000000e+00 2.1900000000000000e+02 0.0000000000000000e+00
0.0000000000000000e+00 2.1900000000000000e+02 0.0000000000000000e+00
-3.6499999999999999e-01 3.6499999999999999e-01 0.0000000000000000e+00
ITEM: ATOMS id type x y z
1 1 183.147 12.9244 -4.05231e-17
2 2 186.894 186.382 -4.05231e-17
3 2 144.059 189.44 -4.05231e-17
4 1 123.199 110.07 -4.05231e-17
5 1 101.669 122.824 -4.05231e-17
6 1 104.421 24.9405 -4.05231e-17
7 2 160.512 128.578 -4.05231e-17
8 2 70.4033 26.8359 -4.05231e-17
9 1 22.6145 214.988 -4.05231e-17
10 2 52.7742 166.991 -4.05231e-17
11 2 209.632 99.998 -4.05231e-17
12 1 33.845 197.596 -4.05231e-17
13 2 194.035 53.7072 -4.05231e-17
14 1 58.123 184.046 -4.05231e-17
15 2 193.311 218.729 -4.05231e-17
16 2 218.819 85.504 -4.05231e-17
17 1 68.2075 74.6958 -4.05231e-17
18 2 10.2106 171.956 -4.05231e-17
19 1 93.212 130.385 -4.05231e-17
20 1 71.9491 11.4951 -4.05231e-17
21 1 157.262 8.37243 -4.05231e-17
22 2 32.6123 213.055 -4.05231e-17
23 2 42.136 208.189 -4.05231e-17
24 2 218.181 102.797 -4.05231e-17
25 2 29.3737 204.851 -4.05231e-17
26 2 149.516 27.5948 -4.05231e-17
27 1 217.166 161.975 -4.05231e-17
28 2 54.5856 154.836 -4.05231e-17
29 2 83.003 4.60538 -4.05231e-17
30 2 131.773 37.5402 -4.05231e-17
31 2 156.691 83.7731 -4.05231e-17
32 1 47.7947 108.711 -4.05231e-17
33 2 144.988 87.3522 -4.05231e-17
34 2 14.9209 98.6033 -4.05231e-17
35 2 127.002 11.3113 -4.05231e-17
36 1 160.622 146.703 -4.05231e-17
37 1 133.063 185.085 -4.05231e-17
38 2 208.68 157.364 -4.05231e-17
39 1 7.52654 37.7821 -4.05231e-17
40 2 196.794 73.384 -4.05231e-17
41 1 192.537 72.7989 -4.05231e-17
42 1 54.8843 59.0331 -4.05231e-17
43 1 209.926 131.751 -4.05231e-17
44 1 154.802 187.915 -4.05231e-17
45 2 159.274 61.1748 -4.05231e-17
46 1 124.213 192.85 -4.05231e-17
47 2 89.7894 78.9746 -4.05231e-17
48 2 155.452 128.297 -4.05231e-17
49 1 194.959 200.056 -4.05231e-17
50 2 27.4254 44.5345 -4.05231e-17
51 1 186.476 2.68184 -4.05231e-17
52 1 113.368 49.2264 -4.05231e-17
53 2 55.5213 201.239 -4.05231e-17
54 1 37.5834 11.3398 -4.05231e-17
55 2 53.6137 141.519 -4.05231e-17
56 1 31.2706 132.222 -4.05231e-17
57 2 58.389 133.839 -4.05231e-17
58 1 182.031 36.0633 -4.05231e-17
59 1 157.658 86.2166 -4.05231e-17
60 2 206.204 59.4731 -4.05231e-17
61 1 157.268 165.019 -4.05231e-17
62 1 107.08 111.78 -4.05231e-17
63 2 108.852 38.9832 -4.05231e-17
64 1 30.9084 20.1546 -4.05231e-17
65 2 152.786 149.693 -4.05231e-17
66 2 13.382 154.143 -4.05231e-17
67 2 182.634 107.456 -4.05231e-17
68 1 136.814 82.9159 -4.05231e-17
69 2 109.586 168.829 -4.05231e-17
70 1 141.795 97.8593 -4.05231e-17
71 1 197.994 147.906 -4.05231e-17
72 2 45.2448 157.298 -4.05231e-17
73 2 190.984 183.21 -4.05231e-17
74 2 109.531 66.73 -4.05231e-17
75 1 14.4 136.013 -4.05231e-17
76 2 137.92 206.942 -4.05231e-17
77 2 169.007 15.8622 -4.05231e-17
78 1 92.2474 208.826 -4.05231e-17
79 2 61.1438 76.3137 -4.05231e-17
80 1 50.6202 23.8025 -4.05231e-17
81 1 181.788 210.935 -4.05231e-17
82 1 173.511 41.2761 -4.05231e-17
83 1 71.2767 91.729 -4.05231e-17
84 2 140.552 179.75 -4.05231e-17
85 2 151.241 146.445 -4.05231e-17
86 2 51.3234 68.7257 -4.05231e-17
87 2 35.5817 80.8834 -4.05231e-17
88 1 80.8307 157.544 -4.05231e-17
89 2 199.498 105.819 -4.05231e-17
90 2 126.292 36.5263 -4.05231e-17
91 2 11.1382 181.955 -4.05231e-17
92 1 27.9145 215.659 -4.05231e-17
93 2 110.684 154.579 -4.05231e-17
94 2 113.369 144.46 -4.05231e-17
95 1 210.836 51.5508 -4.05231e-17
96 2 32.9246 51.917 -4.05231e-17
97 2 4.81675 211.309 -4.05231e-17
98 2 35.7543 184.89 -4.05231e-17
99 1 104.219 9.25646 -4.05231e-17
100 2 158.63 65.8525 -4.05231e-17
101 1 184.225 109.787 -4.05231e-17
102 1 66.7401 163.978 -4.05231e-17
103 2 204.327 100.009 -4.05231e-17
104 2 104.721 72.4042 -4.05231e-17
105 1 160.404 58.6903 -4.05231e-17
106 1 189.371 53.7098 -4.05231e-17
107 1 9.68251 106.382 -4.05231e-17
108 1 69.1734 210.986 -4.05231e-17
109 2 217.2 39.2305 -4.05231e-17
110 2 144.581 29.6227 -4.05231e-17
111 1 53.1132 92.5257 -4.05231e-17
112 2 8.55356 50.7248 -4.05231e-17
113 1 134.918 10.4121 -4.05231e-17
114 1 93.3636 82.5047 -4.05231e-17
115 2 32.5886 61.3614 -4.05231e-17
116 2 183.842 15.4088 -4.05231e-17
117 1 163.132 110.659 -4.05231e-17
118 1 83.0486 94.844 -4.05231e-17
119 2 99.4772 139.504 -4.05231e-17
120 2 201.5 58.7928 -4.05231e-17
121 1 205.097 138.566 -4.05231e-17
122 2 143.055 129.806 -4.05231e-17
123 2 6.57084 129.829 -4.05231e-17
124 1 160.219 200.566 -4.05231e-17
125 1 88.1351 192.45 -4.05231e-17
126 2 94.692 85.0681 -4.05231e-17
127 2 208.504 110.738 -4.05231e-17
128 1 122.211 104.958 -4.05231e-17
129 1 144.031 194.511 -4.05231e-17
130 2 119.674 61.26 -4.05231e-17
131 1 133.826 60.0554 -4.05231e-17
132 1 139.477 21.9095 -4.05231e-17
133 1 180.604 105.463 -4.05231e-17
134 1 80.8835 191.514 -4.05231e-17
135 2 177.395 60.783 -4.05231e-17
136 1 190.366 118.546 -4.05231e-17
137 1 57.3009 10.4414 -4.05231e-17
138 2 156.654 159.411 -4.05231e-17
139 1 132.697 11.4462 -4.05231e-17
140 1 144.782 208.372 -4.05231e-17
141 1 51.6243 71.2197 -4.05231e-17
142 1 213.309 191.548 -4.05231e-17
143 1 26.5219 26.3552 -4.05231e-17
144 1 46.3021 97.7358 -4.05231e-17
145 2 193.629 79.6993 -4.05231e-17
146 1 157.98 129.302 -4.05231e-17
147 2 16.5426 133.862 -4.05231e-17
148 1 24.5124 132.991 -4.05231e-17
149 1 146.812 190.31 -4.05231e-17
150 2 66.3176 53.4299 -4.05231e-17
151 1 132.102 138.323 -4.05231e-17
152 1 164.165 163.935 -4.05231e-17
153 2 124.399 130.287 -4.05231e-17
154 1 183.947 52.3078 -4.05231e-17
155 2 203.303 39.8219 -4.05231e-17
156 2 109.214 197.512 -4.05231e-17
157 2 167.91 26.1878 -4.05231e-17
158 2 27.7913 7.74992 -4.05231e-17
159 2 12.0862 158.651 -4.05231e-17
160 2 120.858 54.7847 -4.05231e-17
161 2 129.669 139.208 -4.05231e-17
162 1 21.7808 65.1129 -4.05231e-17
163 1 189.206 33.9708 -4.05231e-17
164 2 108.679 135.121 -4.05231e-17
165 1 49.2936 72.3323 -4.05231e-17
166 2 5.89816 200.025 -4.05231e-17
167 1 107.216 167.576 -4.05231e-17
168 1 210.641 102.547 -4.05231e-17
169 2 98.3728 198.027 -4.05231e-17
170 1 65.7917 207.209 -4.05231e-17
171 1 137.519 92.1464 -4.05231e-17
172 1 199.909 199.788 -4.05231e-17
173 1 40.7179 201.005 -4.05231e-17
174 2 38.3763 172.539 -4.05231e-17
175 2 50.876 199.051 -4.05231e-17
176 1 120.306 151.855 -4.05231e-17
177 2 104.617 15.3154 -4.05231e-17
178 1 25.093 7.77218 -4.05231e-17
179 2 106.223 197.708 -4.05231e-17
180 1 47.3779 73.9791 -4.05231e-17
181 1 15.8139 118.942 -4.05231e-17
182 1 111.274 88.9743 -4.05231e-17
183 1 64.3906 168.537 -4.05231e-17
184 2 157.622 25.461 -4.05231e-17
185 2 190.609 78.3857 -4.05231e-17
186 2 73.6807 206.745 -4.05231e-17
187 2 161.967 202.672 -4.05231e-17
188 2 60.3579 28.9887 -4.05231e-17
189 1 190.486 62.1326 -4.05231e-17
190 1 196.045 55.5687 -4.05231e-17
191 2 35.0189 104.575 -4.05231e-17
192 2 89.2586 61.2846 -4.05231e-17
193 1 109.03 165.949 -4.05231e-17
194 1 26.7886 5.41992 -4.05231e-17
195 2 58.3649 119.864 -4.05231e-17
196 1 0.346329 218.731 -4.05231e-17
197 2 120.256 48.866 -4.05231e-17
198 2 206.133 27.0811 -4.05231e-17
199 2 99.3435 173.067 -4.05231e-17
200 2 98.4522 31.03 -4.05231e-17
201 2 103.848 121.027 -4.05231e-17
202 1 44.1683 33.9827 -4.05231e-17
203 1 17.4623 42.419 -4.05231e-17
204 2 47.2191 76.3904 -4.05231e-17
205 2 181.93 178.802 -4.05231e-17
206 2 169.479 127.246 -4.05231e-17
207 1 74.4285 189.235 -4.05231e-17
208 2 135.162 54.2291 -4.05231e-17
209 2 32.8076 142.07 -4.05231e-17
210 1 181.707 112.76 -4.05231e-17
211 1 208.357 35.252 -4.05231e-17
212 1 208.839 84.9341 -4.05231e-17
213 1 128.615 123.59 -4.05231e-17
214 2 12.3088 11.3694 -4.05231e-17
215 1 3.20954 139.569 -4.05231e-17
216 1 54.7585 47.6523 -4.05231e-17
217 1 164.265 61.4894 -4.05231e-17
218 2 200.77 120.925 -4.05231e-17
219 2 136.133 189.785 -4.05231e-17
220 1 120.379 1.52334 -4.05231e-17
221 2 82.5016 7.3698 -4.05231e-17
222 1 158.726 157.874 -4.05231e-17
223 1 45.8933 120.737 -4.05231e-17
224 2 145.788 70.9228 -4.05231e-17
225 2 169.192 164.184 -4.05231e-17
226 1 196.537 10.5894 -4.05231e-17
227 2 202.93 215.018 -4.05231e-17
228 2 117.599 63.4304 -4.05231e-17
229 1 48.263 23.0056 -4.05231e-17
230 1 4.55072 56.5227 -4.05231e-17
231 2 137.507 160.963 -4.05231e-17
232 1 18.4565 212.599 -4.05231e-17
233 2 75.3346 195.706 -4.05231e-17
234 1 0.777425 59.6562 -4.05231e-17
235 1 150.685 106.304 -4.05231e-17
236 2 152.949 53.0378 -4.05231e-17
237 2 98.6784 204.283 -4.05231e-17
238 2 95.3152 140.654 -4.05231e-17
239 1 36.5824 216.247 -4.05231e-17
240 1 129.738 90.6668 -4.05231e-17
241 2 3.28464 124.297 -4.05231e-17
242 1 194.056 28.3957 -4.05231e-17
243 2 214.687 129.804 -4.05231e-17
244 2 35.2188 190.609 -4.05231e-17
245 1 174.017 21.2325 -4.05231e-17
246 2 89.6787 85.3816 -4.05231e-17
247 2 199.005 150.349 -4.05231e-17
248 1 38.5911 26.3878 -4.05231e-17
249 1 132.15 108.063 -4.05231e-17
250 1 134.449 27.6301 -4.05231e-17
251 2 102.281 43.3682 -4.05231e-17
252 1 111.408 157.101 -4.05231e-17
253 2 95.401 99.7929 -4.05231e-17
254 2 179.102 205.113 -4.05231e-17
255 2 120.921 51.7987 -4.05231e-17
256 1 3.01456 179.835 -4.05231e-17
257 2 32.4516 195.011 -4.05231e-17
258 1 211.278 81.0484 -4.05231e-17
259 2 161.395 141.726 -4.05231e-17
260 1 39.6931 192.008 -4.05231e-17
261 2 142.65 177.436 -4.05231e-17
262 2 186.876 110.09 -4.05231e-17
263 2 94.551 172.416 -4.05231e-17
264 1 199.241 36.354 -4.05231e-17
265 1 157.016 186.847 -4.05231e-17
266 1 97.8298 195.289 -4.05231e-17
267 2 115.329 16.0747 -4.05231e-17
268 1 218.284 49.2088 -4.05231e-17
269 2 10.0254 113.121 -4.05231e-17
270 2 185.696 149.282 -4.05231e-17
271 2 187.685 94.6415 -4.05231e-17
272 1 59.4006 26.4033 -4.05231e-17
273 1 70.5819 83.7275 -4.05231e-17
274 1 38.1002 196.625 -4.05231e-17
275 1 146.795 110.266 -4.05231e-17
276 1 199.568 74.4289 -4.05231e-17
277 1 100.394 37.4842 -4.05231e-17
278 2 61.1631 145.604 -4.05231e-17
279 2 160.213 86.4456 -4.05231e-17
280 1 116.886 210.933 -4.05231e-17
281 2 170.169 181.431 -4.05231e-17
282 2 75.3199 127.31 -4.05231e-17
283 2 218.817 150.787 -4.05231e-17
284 1 126.514 113.371 -4.05231e-17
285 1 73.4638 165.335 -4.05231e-17
286 2 30.2299 180.234 -4.05231e-17
287 2 93.5231 110.252 -4.05231e-17
288 1 104.877 123.44 -4.05231e-17
289 2 193.937 56.8859 -4.05231e-17
290 1 100.986 29.7482 -4.05231e-17
291 2 97.0092 186.974 -4.05231e-17
292 1 77.3319 125.276 -4.05231e-17
293 1 159.27 168.969 -4.05231e-17
294 1 29.5049 177.669 -4.05231e-17
295 2 46.8617 145.733 -4.05231e-17
296 1 192.746 178.892 -4.05231e-17
297 1 2.28775 18.0573 -4.05231e-17
298 2 30.4112 140.318 -4.05231e-17
299 1 177.267 55.369 -4.05231e-17
300 2 186.613 193.389 -4.05231e-17
301 2 172.306 19.3568 -4.05231e-17
302 2 163.752 89.0689 -4.05231e-17
303 1 2.36556 151.3 -4.05231e-17
304 1 124.672 105.738 -4.05231e-17
305 1 92.4686 177.529 -4.05231e-17
306 2 83.5059 18.2102 -4.05231e-17
307 2 150.409 167.6 -4.05231e-17
308 2 142.046 22.6376 -4.05231e-17
309 1 71.5073 72.3621 -4.05231e-17
310 1 187.409 188.912 -4.05231e-17
311 1 151.271 108.947 -4.05231e-17
312 2 134.581 13.1951 -4.05231e-17
313 2 155.071 17.9463 -4.05231e-17
314 1 186.782 58.392 -4.05231e-17
315 2 56.0924 108.175 -4.05231e-17
316 1 95.4715 30.9133 -4.05231e-17
317 1 132.978 176.019 -4.05231e-17
318 1 216.743 135.302 -4.05231e-17
319 2 73.773 200.875 -4.05231e-17
320 1 213.333 47.8598 -4.05231e-17
321 1 52.9092 87.4957 -4.05231e-17
322 1 51.7219 148.039 -4.05231e-17
323 2 19.6129 138.333 -4.05231e-17
324 2 7.37223 95.011 -4.05231e-17
325 2 216.25 13.3327 -4.05231e-17
326 1 184.582 0.697204 -4.05231e-17
327 1 35.0013 47.9083 -4.05231e-17
328 2 32.5624 191.984 -4.05231e-17
329 2 28.1064 77.0851 -4.05231e-17
330 2 153.265 38.7922 -4.05231e-17
331 2 187.662 67.6118 -4.05231e-17
332 2 121.897 114.506 -4.05231e-17
333 2 27.8903 150.767 -4.05231e-17
334 2 216.126 17.9595 -4.05231e-17
335 1 166.782 211.43 -4.05231e-17
336 2 27.6274 141.454 -4.05231e-17
337 2 42.9605 11.5511 -4.05231e-17
338 1 203.302 89.933 -4.05231e-17
339 2 15.2051 151.846 -4.05231e-17
340 2 176.815 214.231 -4.05231e-17
341 2 100.877 61.0577 -4.05231e-17
342 2 173.7 167.024 -4.05231e-17
343 2 176.44 5.1381 -4.05231e-17
344 1 88.1176 106.484 -4.05231e-17
345 2 27.5812 213.124 -4.05231e-17
346 2 76.2333 72.9548 -4.05231e-17
347 1 148.185 98.6196 -4.05231e-17
348 1 181.39 3.51728 -4.05231e-17
349 2 173.238 70.154 -4.05231e-17
350 2 78.2435 179.039 -4.05231e-17
351 1 173.023 139.575 -4.05231e-17
352 1 212.503 162.971 -4.05231e-17
353 2 140.699 131.448 -4.05231e-17
354 2 190.322 179.999 -4.05231e-17
355 1 215.697 156.757 -4.05231e-17
356 2 114.195 1.48866 -4.05231e-17
357 1 126.871 192.663 -4.05231e-17
358 1 77.927 25.7319 -4.05231e-17
359 1 34.6403 143.801 -4.05231e-17
360 1 54.3061 7.29713 -4.05231e-17
361 2 196.49 68.217 -4.05231e-17
362 2 172.336 94.5022 -4.05231e-17
363 1 78.0967 215.809 -4.05231e-17
364 2 216.81 46.8073 -4.05231e-17
365 1 5.62168 164.033 -4.05231e-17
366 1 82.7726 172.918 -4.05231e-17
367 1 161.116 104.058 -4.05231e-17
368 1 20.6319 164.145 -4.05231e-17
369 2 82.0567 143.567 -4.05231e-17
370 1 9.08355 135.759 -4.05231e-17
371 2 70.7689 111.578 -4.05231e-17
372 1 87.4452 6.89634 -4.05231e-17
373 2 117.963 208.438 -4.05231e-17
374 2 176.94 101.247 -4.05231e-17
375 1 136.126 25.8896 -4.05231e-17
376 1 122.239 147.176 -4.05231e-17
377 2 96.2652 75.0357 -4.05231e-17
378 2 215.258 106.709 -4.05231e-17
379 2 168.721 186.963 -4.05231e-17
380 1 199.507 33.5494 -4.05231e-17
381 1 174.807 67.7106 -4.05231e-17
382 1 122.547 26.765 -4.05231e-17
383 1 109.735 84.0465 -4.05231e-17
384 2 53.5524 101.247 -4.05231e-17
385 1 65.9871 148.85 -4.05231e-17
386 2 180.998 175.001 -4.05231e-17
387 1 34.4052 107.413 -4.05231e-17
388 1 144.135 164.145 -4.05231e-17
389 2 215.927 121.413 -4.05231e-17
390 1 104.27 64.794 -4.05231e-17
391 1 203.058 217.754 -4.05231e-17
392 2 3.81018 101.708 -4.05231e-17
393 2 196.304 175.606 -4.05231e-17
394 1 36.1463 203.871 -4.05231e-17
395 1 19.617 214.934 -4.05231e-17
396 2 75.6719 88.6534 -4.05231e-17
397 1 67.7778 42.3393 -4.05231e-17
398 2 165.714 110.836 -4.05231e-17
399 2 196.355 106.507 -4.05231e-17
400 2 123.429 68.8817 -4.05231e-17
401 2 83.7715 190.728 -4.05231e-17
402 1 84.6132 43.4807 -4.05231e-17
403 1 69.6728 116.357 -4.05231e-17
404 2 112.927 13.9866 -4.05231e-17
405 1 52.2884 191.113 -4.05231e-17
406 2 216.746 94.5403 -4.05231e-17
407 1 123.853 78.1313 -4.05231e-17
408 1 129.98 29.2005 -4.05231e-17
409 2 214.014 116.216 -4.05231e-17
410 2 71.1323 158.761 -4.05231e-17
411 1 136.367 96.6081 -4.05231e-17
412 1 164.668 6.59322 -4.05231e-17
413 1 30.159 83.6644 -4.05231e-17
414 2 193.505 202.264 -4.05231e-17
415 1 107.903 127.027 -4.05231e-17
416 1 175.648 51.8174 -4.05231e-17
417 2 108.275 129.973 -4.05231e-17
418 2 34.571 179.31 -4.05231e-17
419 2 195.031 91.738 -4.05231e-17
420 2 108.421 44.0861 -4.05231e-17
421 1 70.028 31.6511 -4.05231e-17
422 1 33.4025 58.9297 -4.05231e-17
423 2 117.123 125.044 -4.05231e-17
424 2 38.4004 23.5288 -4.05231e-17
425 2 117.938 150.623 -4.05231e-17
426 1 185.759 96.796 -4.05231e-17
427 2 74.1372 59.7045 -4.05231e-17
428 1 29.104 174.805 -4.05231e-17
429 2 131.743 150.129 -4.05231e-17
430 2 111.745 104.076 -4.05231e-17
431 1 13.3141 9.14897 -4.05231e-17
432 2 173.903 3.31892 -4.05231e-17
433 1 181.631 193.788 -4.05231e-17
434 1 20.5549 205.28 -4.05231e-17
435 1 149.833 85.389 -4.05231e-17
436 2 85.5773 198.294 -4.05231e-17
437 2 181.419 82.4753 -4.05231e-17
438 2 194.807 180.92 -4.05231e-17
439 2 92.3251 10.6037 -4.05231e-17
440 2 201.029 91.3673 -4.05231e-17
441 1 131.353 167.327 -4.05231e-17
442 1 37.7136 104.702 -4.05231e-17
443 2 79.8902 82.5866 -4.05231e-17
444 1 204.508 105.011 -4.05231e-17
445 1 171.367 135.951 -4.05231e-17
446 2 183.194 150.883 -4.05231e-17
447 2 40.0916 39.786 -4.05231e-17
448 2 206.277 176.039 -4.05231e-17
449 1 41.14 176.764 -4.05231e-17
450 1 10.174 125.712 -4.05231e-17
451 1 53.911 209.001 -4.05231e-17
452 2 209.179 60.8594 -4.05231e-17
453 1 216.357 149.853 -4.05231e-17
454 1 2.97037 68.8304 -4.05231e-17
455 2 81.6439 131.015 -4.05231e-17
456 1 84.2179 2.19488 -4.05231e-17
457 2 141.49 144.078 -4.05231e-17
458 2 154.147 133.819 -4.05231e-17
459 2 133.473 51.4287 -4.05231e-17
460 1 197.394 170.025 -4.05231e-17
461 1 112.762 128.434 -4.05231e-17
462 1 103.85 199.215 -4.05231e-17
463 2 109.393 218.491 -4.05231e-17
464 2 16.738 78.1085 -4.05231e-17
465 1 123.847 15.7583 -4.05231e-17
466 2 150.5 126.734 -4.05231e-17
467 2 66.1128 133.461 -4.05231e-17
468 2 124.274 125.386 -4.05231e-17
469 2 58.7112 72.0946 -4.05231e-17
470 2 208.559 154.231 -4.05231e-17
471 2 212.298 212.024 -4.05231e-17
472 2 111.157 36.4213 -4.05231e-17
473 2 198.177 214.85 -4.05231e-17
474 2 85.5601 146.933 -4.05231e-17
475 1 164.646 183.593 -4.05231e-17
476 2 174.003 34.7306 -4.05231e-17
477 1 208.52 218.38 -4.05231e-17
478 1 45.943 188.009 -4.05231e-17
479 2 0.0529645 196.965 -4.05231e-17
480 1 84.53 62.1891 -4.05231e-17
481 1 2.92558 209.228 -4.05231e-17
482 2 152.341 176.473 -4.05231e-17
483 1 134.514 209.746 -4.05231e-17
484 1 66.4715 136.19 -4.05231e-17
485 2 13.5618 173.561 -4.05231e-17
486 1 132.636 72.7197 -4.05231e-17
487 1 13.2677 202.133 -4.05231e-17
488 1 50.1736 83.4948 -4.05231e-17
489 1 69.9018 109.271 -4.05231e-17
490 1 164.471 73.2253 -4.05231e-17
491 1 162.828 75.4739 -4.05231e-17
492 2 209.082 15.587 -4.05231e-17
493 1 93.6487 203.576 -4.05231e-17
494 2 77.8591 65.7143 -4.05231e-17
495 1 150.274 92.0527 -4.05231e-17
496 1 52.3605 123.99 -4.05231e-17
497 1 137.081 109.91 -4.05231e-17
498 2 145.411 39.055 -4.05231e-17
499 2 177.51 119.317 -4.05231e-17
500 2 57.5027 33.0486 -4.05231e-17
501 2 14.4743 138.922 -4.05231e-17
502 2 190.257 126.487 -4.05231e-17
503 2 57.7149 64.3617 -4.05231e-17
504 2 98.7741 49.8936 -4.05231e-17
505 2 111.832 214.193 -4.05231e-17
506 1 207.106 6.46659 -4.05231e-17
507 2 50.4608 182.487 -4.05231e-17
508 1 140.328 59.5002 -4.05231e-17
509 1 208.969 47.1554 -4.05231e-17
510 1 195.009 104.385 -4.05231e-17
511 2 106.894 180.479 -4.05231e-17
512 1 10.6686 41.9233 -4.05231e-17
513 2 87.8132 183.179 -4.05231e-17
514 2 15.5224 87.7064 -4.05231e-17
515 1 60.4187 98.7297 -4.05231e-17
516 2 102.141 74.3332 -4.05231e-17
517 1 32.1164 147.282 -4.05231e-17
518 2 10.5859 13.6076 -4.05231e-17
519 1 125.147 91.9055 -4.05231e-17
520 2 209.122 93.4519 -4.05231e-17
521 2 129.745 39.9043 -4.05231e-17
522 1 187.207 7.35785 -4.05231e-17
523 1 127.618 99.4663 -4.05231e-17
524 2 175.155 18.7698 -4.05231e-17
525 2 185.508 45.6373 -4.05231e-17
526 2 107.882 16.1333 -4.05231e-17
527 1 169.134 23.8152 -4.05231e-17
528 1 212.688 202.144 -4.05231e-17
529 2 105.209 175.758 -4.05231e-17
530 2 20.287 87.9649 -4.05231e-17
531 2 188.869 174.58 -4.05231e-17
532 1 80.2626 5.64706 -4.05231e-17
533 2 23.6253 157.875 -4.05231e-17
534 1 22.8776 168.024 -4.05231e-17
535 1 170.286 206.955 -4.05231e-17
536 2 18.1965 169.665 -4.05231e-17
537 1 142.068 29.3455 -4.05231e-17
538 1 68.68 157.858 -4.05231e-17
539 2 81.5664 163.055 -4.05231e-17
540 1 35.1496 182.024 -4.05231e-17
541 1 106.015 128.68 -4.05231e-17
542 1 58.735 126.711 -4.05231e-17
543 2 120.644 168.864 -4.05231e-17
544 1 218.126 211.246 -4.05231e-17
545 1 175.005 72.1305 -4.05231e-17
546 2 187.018 9.75702 -4.05231e-17
547 1 12.8631 71.1488 -4.05231e-17
548 1 29.8397 5.69791 -4.05231e-17
549 2 35.1564 151.96 -4.05231e-17
550 2 163.674 193.978 -4.05231e-17
551 2 38.297 6.66546 -4.05231e-17
552 1 29.716 52.0684 -4.05231e-17
553 2 208.84 195.606 -4.05231e-17
554 2 144.016 34.0852 -4.05231e-17
555 2 176.378 134.041 -4.05231e-17
556 1 177.512 211.593 -4.05231e-17
557 1 210.758 53.9627 -4.05231e-17
558 1 60.3178 143.175 -4.05231e-17
559 2 104.025 89.6358 -4.05231e-17
560 2 57.3827 89.7321 -4.05231e-17
561 2 110.659 181.675 -4.05231e-17
562 2 98.5172 66.0611 -4.05231e-17
563 1 73.7525 168.044 -4.05231e-17
564 2 107.528 76.8363 -4.05231e-17
565 2 26.8261 61.962 -4.05231e-17
566 2 64.0391 61.0139 -4.05231e-17
567 1 94.7608 11.5935 -4.05231e-17
568 1 23.039 76.6311 -4.05231e-17
569 2 141.446 194.369 -4.05231e-17
570 2 11.7412 21.2084 -4.05231e-17
571 2 4.95988 62.1801 -4.05231e-17
572 1 115.607 107.507 -4.05231e-17
573 2 37.7246 89.5372 -4.05231e-17
574 2 180.632 169.979 -4.05231e-17
575 1 196.195 206.594 -4.05231e-17
576 1 25.148 68.6904 -4.05231e-17
577 1 127.821 74.2882 -4.05231e-17
578 1 183.55 114.727 -4.05231e-17
579 2 182.491 46.4303 -4.05231e-17
580 1 109.23 103.811 -4.05231e-17
581 1 92.0578 146.67 -4.05231e-17
582 2 125.652 101.238 -4.05231e-17
583 2 100.721 81.4226 -4.05231e-17
584 2 108.052 151.271 -4.05231e-17
585 1 181.485 103.039 -4.05231e-17
586 1 143.542 79.9851 -4.05231e-17
587 1 158.249 112.028 -4.05231e-17
588 2 63.8189 108.767 -4.05231e-17
589 1 210.968 58.7587 -4.05231e-17
590 2 181.722 57.4576 -4.05231e-17
591 2 178.944 16.5681 -4.05231e-17
592 1 203.833 128.454 -4.05231e-17
593 1 127.046 90.001 -4.05231e-17
594 1 5.0138 70.1155 -4.05231e-17
595 1 28.5893 60.3257 -4.05231e-17
596 2 104.718 69.6891 -4.05231e-17
597 2 62.8999 105.484 -4.05231e-17
598 2 135.866 87.2681 -4.05231e-17
599 2 97.2885 165.526 -4.05231e-17
600 2 48.9936 99.1028 -4.05231e-17
601 1 146.068 107.706 -4.05231e-17
602 1 173.294 51.8333 -4.05231e-17
603 2 216.482 159.334 -4.05231e-17
604 1 46.845 179.468 -4.05231e-17
605 2 140.057 100.331 -4.05231e-17
606 2 150.593 99.0305 -4.05231e-17
607 2 48.0359 169.723 -4.05231e-17
608 2 127.808 30.9121 -4.05231e-17
609 1 78.0772 89.7196 -4.05231e-17
610 2 105.789 200.739 -4.05231e-17
611 1 1.0425 165.304 -4.05231e-17
612 1 207.266 117.599 -4.05231e-17
613 2 213.357 155.784 -4.05231e-17
614 1 202.664 30.5182 -4.05231e-17
615 1 152.506 104.42 -4.05231e-17
616 2 145.669 178.369 -4.05231e-17
617 1 168.758 1.03783 -4.05231e-17
618 1 137.222 216.538 -4.05231e-17
619 1 164.237 161.441 -4.05231e-17
620 2 43.1557 88.967 -4.05231e-17
621 2 203.672 77.0016 -4.05231e-17
622 2 145.149 154.557 -4.05231e-17
623 2 109.25 147.128 -4.05231e-17
624 1 107.455 177.697 -4.05231e-17
625 2 209.005 79.7061 -4.05231e-17
626 1 211.301 190.396 -4.05231e-17
627 2 196.157 192.689 -4.05231e-17
628 1 117.094 156.316 -4.05231e-17
629 1 28.4282 39.8492 -4.05231e-17
630 2 132.697 214.851 -4.05231e-17
631 2 144.882 115.025 -4.05231e-17
632 2 209.29 19.9205 -4.05231e-17
633 2 61.0244 131.847 -4.05231e-17
634 2 191.095 67.4009 -4.05231e-17
635 2 81.2739 72.7312 -4.05231e-17
636 1 88.8715 131.304 -4.05231e-17
637 1 217.009 152.387 -4.05231e-17
638 1 115.785 70.0107 -4.05231e-17
639 2 200.583 64.7535 -4.05231e-17
640 2 149.239 78.3904 -4.05231e-17
641 1 199.687 96.6444 -4.05231e-17
642 2 161.972 35.4011 -4.05231e-17
643 1 165.114 57.7572 -4.05231e-17
644 2 141.065 157.456 -4.05231e-17
645 2 5.956 75.2629 -4.05231e-17
646 1 170.362 143.279 -4.05231e-17
647 2 129.396 148.374 -4.05231e-17
648 2 190.435 211.29 -4.05231e-17
649 1 63.9318 145.438 -4.05231e-17
650 1 56.6408 153.283 -4.05231e-17
651 1 112.694 130.931 -4.05231e-17
652 2 8.81104 214.093 -4.05231e-17
653 2 195.442 45.2929 -4.05231e-17
654 1 208.308 164.328 -4.05231e-17
655 1 63.7663 48.3464 -4.05231e-17
656 1 199.131 10.5175 -4.05231e-17
657 1 125.425 120.465 -4.05231e-17
658 2 165.84 105.32 -4.05231e-17
659 2 101.855 137.657 -4.05231e-17
660 1 24.9955 12.1383 -4.05231e-17
661 2 15.7349 36.9525 -4.05231e-17
662 2 136.209 116.796 -4.05231e-17
663 1 163.626 112.922 -4.05231e-17
664 1 80.3869 138.425 -4.05231e-17
665 1 136.208 143.827 -4.05231e-17
666 1 203.314 182.608 -4.05231e-17
667 1 0.381995 116.783 -4.05231e-17
668 1 134.697 157.039 -4.05231e-17
669 1 107.527 160.61 -4.05231e-17
670 2 211.416 160.572 -4.05231e-17
671 1 3.52109 15.985 -4.05231e-17
672 1 193.379 141.311 -4.05231e-17
673 2 48.0136 84.7342 -4.05231e-17
674 2 182.12 205.439 -4.05231e-17
675 2 152.615 2.26871 -4.05231e-17
676 1 181.064 160.275 -4.05231e-17
677 2 53.2873 53.9785 -4.05231e-17
678 1 86.9766 114.114 -4.05231e-17
679 1 87.149 62.6667 -4.05231e-17
680 2 71.389 14.1416 -4.05231e-17
681 1 5.19334 9.11999 -4.05231e-17
682 1 141.728 171.662 -4.05231e-17
683 2 96.7172 123.572 -4.05231e-17
684 1 23.3407 180.163 -4.05231e-17
685 1 83.0282 206.194 -4.05231e-17
686 1 143.136 159.734 -4.05231e-17
687 1 108.089 53.9118 -4.05231e-17
688 1 152.215 96.9788 -4.05231e-17
689 2 12.8668 141.523 -4.05231e-17
690 1 48.259 120.878 -4.05231e-17
691 2 64.4686 115.448 -4.05231e-17
692 2 185.111 178.532 -4.05231e-17
693 1 161.461 95.9521 -4.05231e-17
694 2 147.38 149.893 -4.05231e-17
695 2 188.479 36.6626 -4.05231e-17
696 2 26.1209 80.723 -4.05231e-17
697 1 104.05 35.3453 -4.05231e-17
698 2 39.4737 19.0755 -4.05231e-17
699 1 57.3898 203.197 -4.05231e-17
700 2 17.799 125.956 -4.05231e-17
701 2 28.7021 64.2665 -4.05231e-17
702 1 160.984 9.71788 -4.05231e-17
703 1 194.63 63.8823 -4.05231e-17
704 1 159.921 122.132 -4.05231e-17
705 1 43.4466 120.437 -4.05231e-17
706 1 75.7014 161.513 -4.05231e-17
707 1 182.084 66.3692 -4.05231e-17
708 2 195.28 101.825 -4.05231e-17
709 1 54.6033 160.251 -4.05231e-17
710 2 91.4581 16.4328 -4.05231e-17
711 2 1.59099 141.525 -4.05231e-17
712 1 83.2888 214.318 -4.05231e-17
713 1 5.02786 152.006 -4.05231e-17
714 2 145.487 146.747 -4.05231e-17
715 2 132.992 86.6623 -4.05231e-17
716 1 88.1134 58.6896 -4.05231e-17
717 1 14.3566 61.1461 -4.05231e-17
718 2 78.5209 100.306 -4.05231e-17
719 1 68.8157 203.449 -4.05231e-17
720 2 53.3682 196.517 -4.05231e-17
721 2 43.7311 212.357 -4.05231e-17
722 2 65.8547 138.524 -4.05231e-17
723 2 15.7255 165.412 -4.05231e-17
724 2 202.719 107.095 -4.05231e-17
725 2 20.3232 47.4304 -4.05231e-17
726 2 177.447 123.176 -4.05231e-17
727 2 35.4098 109.602 -4.05231e-17
728 1 176.379 77.1068 -4.05231e-17
729 2 164.288 136.153 -4.05231e-17
730 2 175.211 94.1032 -4.05231e-17
731 1 10.2725 23.242 -4.05231e-17
732 2 98.3275 88.7852 -4.05231e-17
733 2 148.213 146.832 -4.05231e-17
734 2 59.3551 191.956 -4.05231e-17
735 2 149.3 72.0515 -4.05231e-17
736 1 183.36 176.403 -4.05231e-17
737 2 48.7855 40.1928 -4.05231e-17
738 2 70.6858 208.488 -4.05231e-17
739 2 185.574 131.482 -4.05231e-17
740 2 40.7954 115.535 -4.05231e-17
741 2 200.465 113.883 -4.05231e-17
742 1 71.7634 99.4767 -4.05231e-17
743 2 79.3034 76.4316 -4.05231e-17
744 1 146.844 49.8904 -4.05231e-17
745 2 16.2126 74.9741 -4.05231e-17
746 1 218.708 121.6 -4.05231e-17
747 1 99.0005 163.434 -4.05231e-17
748 2 69.4858 198.152 -4.05231e-17
749 1 213.425 165.653 -4.05231e-17
750 1 140.162 147.8 -4.05231e-17
751 1 142.985 88.9546 -4.05231e-17
752 2 196.516 167.413 -4.05231e-17
753 1 37.1266 179.898 -4.05231e-17
754 2 66.1353 81.5845 -4.05231e-17
755 1 8.68563 79.1032 -4.05231e-17
756 2 178.235 57.908 -4.05231e-17
757 1 110.476 15.2732 -4.05231e-17
758 2 99.1452 27.8358 -4.05231e-17
759 1 96.2769 133.374 -4.05231e-17
760 1 170.949 61.685 -4.05231e-17
761 2 212.715 101.005 -4.05231e-17
762 1 177.69 105.922 -4.05231e-17
763 2 6.06845 157.324 -4.05231e-17
764 2 43.1327 188.635 -4.05231e-17
765 1 21.9746 159.701 -4.05231e-17
766 2 101.074 48.1563 -4.05231e-17
767 2 206.126 148.343 -4.05231e-17
768 2 72.9735 62.7054 -4.05231e-17
769 2 188.062 98.2059 -4.05231e-17
770 1 133.896 17.8994 -4.05231e-17
771 1 64.358 63.8055 -4.05231e-17
772 1 129.971 3.36616 -4.05231e-17
773 2 166.527 172.029 -4.05231e-17
774 1 87.3542 86.8078 -4.05231e-17
775 1 104.934 78.3338 -4.05231e-17
776 2 192.485 103.164 -4.05231e-17
777 2 42.5783 78.5538 -4.05231e-17
778 1 82.9316 13.0879 -4.05231e-17
779 1 48.0702 62.526 -4.05231e-17
780 2 84.0673 50.326 -4.05231e-17
781 1 25.8843 171.58 -4.05231e-17
782 2 123.26 170.133 -4.05231e-17
783 1 75.4375 62.3161 -4.05231e-17
784 2 97.057 113.711 -4.05231e-17
785 1 204.649 82.5109 -4.05231e-17
786 1 46.0547 3.07695 -4.05231e-17
787 2 37.3435 206.556 -4.05231e-17
788 2 164.772 180.202 -4.05231e-17
789 2 18.4555 146.763 -4.05231e-17
790 2 76.9707 8.80965 -4.05231e-17
791 2 186.584 53.5097 -4.05231e-17
792 1 212.912 132.007 -4.05231e-17
793 1 97.3177 171.379 -4.05231e-17
794 2 209.785 6.45055 -4.05231e-17
795 2 10.6008 191.715 -4.05231e-17
796 1 68.865 215.899 -4.05231e-17
797 1 46.4419 32.615 -4.05231e-17
798 1 213.806 55.3144 -4.05231e-17
799 2 106.122 155.536 -4.05231e-17
800 1 56.8878 37.4656 -4.05231e-17
801 2 68.5555 85.4469 -4.05231e-17
802 1 90.1813 216.369 -4.05231e-17
803 1 143.173 24.9516 -4.05231e-17
804 1 209.622 124.95 -4.05231e-17
805 2 183.505 117.338 -4.05231e-17
806 2 178.483 159.17 -4.05231e-17
807 2 208.08 29.3279 -4.05231e-17
808 2 76.6283 144.932 -4.05231e-17
809 1 175.827 62.8254 -4.05231e-17
810 2 24.0044 173.221 -4.05231e-17
811 2 179.911 55.3311 -4.05231e-17
812 1 121.424 185.021 -4.05231e-17
813 1 22.7679 92.4038 -4.05231e-17
814 1 2.82722 204.287 -4.05231e-17
815 1 146.029 32.0556 -4.05231e-17
816 1 206.467 51.1421 -4.05231e-17
817 2 63.6622 71.2773 -4.05231e-17
818 2 29.4559 122.734 -4.05231e-17
819 2 210.926 67.8148 -4.05231e-17
820 1 9.44118 58.8547 -4.05231e-17
821 1 64.7439 58.7431 -4.05231e-17
822 2 131.159 34.6336 -4.05231e-17
823 1 184.266 90.181 -4.05231e-17
824 1 175.994 89.5167 -4.05231e-17
825 1 158.931 190.925 -4.05231e-17
826 2 178.504 81.651 -4.05231e-17
827 2 102.183 26.9045 -4.05231e-17
828 1 50.478 91.533 -4.05231e-17
829 2 127.603 92.3479 -4.05231e-17
830 1 3.53584 156.505 -4.05231e-17
831 2 183.131 217.466 -4.05231e-17
832 2 26.6516 47.6402 -4.05231e-17
833 2 96.594 42.0882 -4.05231e-17
834 1 71.0351 164.078 -4.05231e-17
835 1 184.659 141.658 -4.05231e-17
836 1 153.115 69.4572 -4.05231e-17
837 2 167.911 91.9862 -4.05231e-17
838 2 91.8287 26.5715 -4.05231e-17
839 1 39.3339 31.7507 -4.05231e-17
840 2 13.7127 117.092 -4.05231e-17
841 2 201.674 10.6326 -4.05231e-17
842 1 173.066 160.205 -4.05231e-17
843 1 205.21 29.7476 -4.05231e-17
844 2 8.95234 25.4219 -4.05231e-17
845 1 46.9604 150.866 -4.05231e-17
846 2 127.534 211.641 -4.05231e-17
847 1 88.7407 143.102 -4.05231e-17
848 2 112.245 8.82233 -4.05231e-17
849 1 25.0589 33.1025 -4.05231e-17
850 2 60.4902 67.9374 -4.05231e-17
851 2 216.049 30.6136 -4.05231e-17
852 1 136.918 183.264 -4.05231e-17
853 1 185.589 104.855 -4.05231e-17
854 2 105.18 144.553 -4.05231e-17
855 2 165.312 120.911 -4.05231e-17
856 1 77.6767 160.137 -4.05231e-17