ITEM: TIMESTEP
0
ITEM: NUMBER OF ATOMS
7200
ITEM: BOX BOUNDS xy xz yz pp pp pp
0.0000000000000000e+00 2.1900000000000000e+02 0.0000000000000000e+00
0.0000000000000000e+00 2.1900000000000000e+02 0.0000000000000000e+00
-3.6499999999999999e-01 3.6499999999999999e-01 0.0000000000000000e+00
ITEM: ATOMS id type x y z
1 1 182.884 12.947 -4.05231e-17
2 2 188.062 183.516 -4.05231e-17
3 2 144.788 189.358 -4.05231e-17
4 1 122.871 110.081 -4.05231e-17
5 1 101.351 122.673 -4.05231e-17
6 1 104.545 25.2341 -4.05231e-17
7 2 158.77 128.809 -4.05231e-17
8 2 70.0229 25.5638 -4.05231e-17
9 1 21.9488 215.011 -4.05231e-17
10 2 52.5612 166.46 -4.05231e-17
11 2 209.987 100.236 -4.05231e-17
12 1 33.8863 197.618 -4.05231e-17
13 2 194.284 53.6534 -4.05231e-17
14 1 57.4799 184.612 -4.05231e-17
15 2 193.308 0.0597681 -4.05231e-17
16 2 218.488 85.7945 -4.05231e-17
17 1 67.2822 74.3013 -4.05231e-17
18 2 10.701 172.64 -4.05231e-17
19 1 92.9077 130.051 -4.05231e-17
20 1 72.3175 10.8921 -4.05231e-17
21 1 156.863 7.46097 -4.05231e-17
22 2 31.7442 212.541 -4.05231e-17
23 2 43.4058 208.394 -4.05231e-17
24 2 218.505 103.092 -4.05231e-17
25 2 30.1992 207.452 -4.05231e-17
26 2 149.249 27.7263 -4.05231e-17
27 1 217.369 162.608 -4.05231e-17
28 2 54.4221 154.759 -4.05231e-17
29 2 83.6875 3.77656 -4.05231e-17
30 2 131.789 37.5518 -4.05231e-17
31 2 156.747 83.6616 -4.05231e-17
32 1 48.2381 108.821 -4.05231e-17
33 2 145.371 87.2715 -4.05231e-17
34 2 16.1822 96.3334 -4.05231e-17
35 2 127.217 11.3877 -4.05231e-17
36 1 160.255 146.546 -4.05231e-17
37 1 133.599 185.046 -4.05231e-17
38 2 209.136 157.956 -4.05231e-17
39 1 7.86097 38.2771 -4.05231e-17
40 2 196.401 73.6644 -4.05231e-17
41 1 192.828 73.1351 -4.05231e-17
42 1 54.679 58.7621 -4.05231e-17
43 1 210.077 132.401 -4.05231e-17
44 1 155.466 188.596 -4.05231e-17
45 2 159.451 61.0067 -4.05231e-17
46 1 124.285 192.588 -4.05231e-17
47 2 89.2225 80.5001 -4.05231e-17
48 2 150.726 129.562 -4.05231e-17
49 1 194.367 200.148 -4.05231e-17
50 2 29.0491 47.6007 -4.05231e-17
51 1 186.46 3.022 -4.05231e-17
52 1 115.633 48.1055 -4.05231e-17
53 2 55.0422 201.074 -4.05231e-17
54 1 38.7903 16.8769 -4.05231e-17
55 2 53.2901 141.515 -4.05231e-17
56 1 31.1336 132.64 -4.05231e-17
57 2 58.3242 133.929 -4.05231e-17
58 1 183.858 33.5429 -4.05231e-17
59 1 157.63 86.064 -4.05231e-17
60 2 206.318 59.642 -4.05231e-17
61 1 157.357 164.246 -4.05231e-17
62 1 106.765 111.608 -4.05231e-17
63 2 108.741 38.961 -4.05231e-17
64 1 28.0577 17.8997 -4.05231e-17
65 2 152.358 149.212 -4.05231e-17
66 2 13.2768 154.972 -4.05231e-17
67 2 182.943 107.718 -4.05231e-17
68 1 136.816 83.0653 -4.05231e-17
69 2 109.44 168.852 -4.05231e-17
70 1 141.575 97.7529 -4.05231e-17
71 1 198.228 147.839 -4.05231e-17
72 2 45.0481 157.485 -4.05231e-17
73 2 191.881 179.596 -4.05231e-17
74 2 111.578 66.8033 -4.05231e-17
75 1 14.6972 136.955 -4.05231e-17
76 2 138.115 206.504 -4.05231e-17
77 2 168.77 15.6164 -4.05231e-17
78 1 93.589 208.05 -4.05231e-17
79 2 60.2807 75.9212 -4.05231e-17
80 1 50.1114 22.669 -4.05231e-17
81 1 181.849 211.19 -4.05231e-17
82 1 173.316 41.2171 -4.05231e-17
83 1 71.0347 91.029 -4.05231e-17
84 2 140.949 179.376 -4.05231e-17
85 2 151.025 146.083 -4.05231e-17
86 2 50.8832 68.0694 -4.05231e-17
87 2 38.4163 75.8706 -4.05231e-17
88 1 80.6317 157.483 -4.05231e-17
89 2 199.468 105.511 -4.05231e-17
90 2 125.813 36.3142 -4.05231e-17
91 2 11.4239 182.734 -4.05231e-17
92 1 27.5961 215.414 -4.05231e-17
93 2 110.206 154.636 -4.05231e-17
94 2 112.816 144.212 -4.05231e-17
95 1 211.327 51.6649 -4.05231e-17
96 2 31.9126 54.3854 -4.05231e-17
97 2 4.42942 211.794 -4.05231e-17
98 2 35.6536 185.294 -4.05231e-17
99 1 105.308 9.85578 -4.05231e-17
100 2 159.14 65.6346 -4.05231e-17
101 1 184.254 110.044 -4.05231e-17
102 1 66.3306 164.169 -4.05231e-17
103 2 204.771 100.309 -4.05231e-17
104 2 104.139 73.1702 -4.05231e-17
105 1 160.785 58.6194 -4.05231e-17
106 1 185.196 60.6088 -4.05231e-17
107 1 12.0703 107.025 -4.05231e-17
108 1 70.0172 209.981 -4.05231e-17
109 2 217.463 39.3474 -4.05231e-17
110 2 144.803 29.592 -4.05231e-17
111 1 52.9944 92.7049 -4.05231e-17
112 2 8.48391 50.9691 -4.05231e-17
113 1 135.197 10.8115 -4.05231e-17
114 1 92.3928 86.9619 -4.05231e-17
115 2 32.2496 59.7019 -4.05231e-17
116 2 184.166 15.5207 -4.05231e-17
117 1 163.038 110.518 -4.05231e-17
118 1 82.7622 94.4567 -4.05231e-17
119 2 98.9932 139.409 -4.05231e-17
120 2 201.246 58.4627 -4.05231e-17
121 1 205.081 139.106 -4.05231e-17
122 2 143.267 129.721 -4.05231e-17
123 2 6.8325 129.784 -4.05231e-17
124 1 161.42 200.058 -4.05231e-17
125 1 88.4131 192.681 -4.05231e-17
126 2 97.8906 83.9691 -4.05231e-17
127 2 208.681 110.85 -4.05231e-17
128 1 121.793 105.154 -4.05231e-17
129 1 144.209 194.386 -4.05231e-17
130 2 120.26 61.5325 -4.05231e-17
131 1 134.198 60.2757 -4.05231e-17
132 1 139.474 21.9279 -4.05231e-17
133 1 181.099 105.62 -4.05231e-17
134 1 81.3577 191.416 -4.05231e-17
135 2 177.843 61.173 -4.05231e-17
136 1 190.432 118.937 -4.05231e-17
137 1 60.7521 7.53617 -4.05231e-17
138 2 155.997 158.818 -4.05231e-17
139 1 132.993 12.0137 -4.05231e-17
140 1 144.989 208.251 -4.05231e-17
141 1 51.0793 70.664 -4.05231e-17
142 1 213.251 191.136 -4.05231e-17
143 1 26.2797 26.3279 -4.05231e-17
144 1 46.5066 97.8916 -4.05231e-17
145 2 193.084 80.023 -4.05231e-17
146 1 153.424 125.772 -4.05231e-17
147 2 16.5346 134.873 -4.05231e-17
148 1 24.4466 133.409 -4.05231e-17
149 1 147.722 190.253 -4.05231e-17
150 2 65.7762 52.5828 -4.05231e-17
151 1 132.41 138.385 -4.05231e-17
152 1 164.136 163.437 -4.05231e-17
153 2 124.057 130.572 -4.05231e-17
154 1 184.086 52.8991 -4.05231e-17
155 2 203.232 39.9673 -4.05231e-17
156 2 109.407 196.908 -4.05231e-17
157 2 166.321 29.0492 -4.05231e-17
158 2 27.7106 7.78488 -4.05231e-17
159 2 12.2459 159.042 -4.05231e-17
160 2 120.885 54.9327 -4.05231e-17
161 2 129.83 138.976 -4.05231e-17
162 1 23.7978 66.8096 -4.05231e-17
163 1 188.515 34.005 -4.05231e-17
164 2 108.322 134.748 -4.05231e-17
165 1 48.9748 72.129 -4.05231e-17
166 2 5.98147 200.006 -4.05231e-17
167 1 107.154 167.777 -4.05231e-17
168 1 211.137 102.831 -4.05231e-17
169 2 98.261 199.415 -4.05231e-17
170 1 66.1994 206.45 -4.05231e-17
171 1 137.489 92.3917 -4.05231e-17
172 1 199.317 199.735 -4.05231e-17
173 1 38.9682 204.191 -4.05231e-17
174 2 38.5878 173.162 -4.05231e-17
175 2 49.9887 199.911 -4.05231e-17
176 1 119.794 151.633 -4.05231e-17
177 2 105.09 15.5262 -4.05231e-17
178 1 25.1121 7.73526 -4.05231e-17
179 2 106.391 197.073 -4.05231e-17
180 1 47.3207 76.7157 -4.05231e-17
181 1 15.8295 119.575 -4.05231e-17
182 1 113.919 86.9266 -4.05231e-17
183 1 64.1524 168.406 -4.05231e-17
184 2 157.807 25.4612 -4.05231e-17
185 2 189.961 78.6811 -4.05231e-17
186 2 74.4791 206.017 -4.05231e-17
187 2 159.214 202.001 -4.05231e-17
188 2 60.3032 28.2641 -4.05231e-17
189 1 191.225 57.6546 -4.05231e-17
190 1 196.524 55.4136 -4.05231e-17
191 2 35.5604 104.731 -4.05231e-17
192 2 89.4762 60.1186 -4.05231e-17
193 1 108.733 165.843 -4.05231e-17
194 1 26.6321 5.46799 -4.05231e-17
195 2 58.3026 119.845 -4.05231e-17
196 1 0.248194 218.917 -4.05231e-17
197 2 119.126 50.5531 -4.05231e-17
198 2 206.071 27.3892 -4.05231e-17
199 2 99.5066 170.15 -4.05231e-17
200 2 98.6039 30.9172 -4.05231e-17
201 2 103.256 120.807 -4.05231e-17
202 1 43.8503 34.1998 -4.05231e-17
203 1 18.2367 43.0951 -4.05231e-17
204 2 45.1542 78.583 -4.05231e-17
205 2 182.84 181.9 -4.05231e-17
206 2 170.579 127.182 -4.05231e-17
207 1 74.7502 189.166 -4.05231e-17
208 2 135.287 54.5819 -4.05231e-17
209 2 32.7831 142.472 -4.05231e-17
210 1 182.144 113.323 -4.05231e-17
211 1 208.482 35.3456 -4.05231e-17
212 1 208.397 85.1895 -4.05231e-17
213 1 128.232 123.698 -4.05231e-17
214 2 11.9451 11.4869 -4.05231e-17
215 1 5.49595 142.779 -4.05231e-17
216 1 55.1599 46.5895 -4.05231e-17
217 1 164.489 61.7291 -4.05231e-17
218 2 200.944 121.165 -4.05231e-17
219 2 136.323 189.6 -4.05231e-17
220 1 121.092 1.41004 -4.05231e-17
221 2 83.1292 6.72964 -4.05231e-17
222 1 158.52 157.454 -4.05231e-17
223 1 45.8691 120.563 -4.05231e-17
224 2 146.204 70.8695 -4.05231e-17
225 2 168.914 163.881 -4.05231e-17
226 1 196.664 10.4875 -4.05231e-17
227 2 203.332 215.031 -4.05231e-17
228 2 118.008 63.7091 -4.05231e-17
229 1 47.663 22.4655 -4.05231e-17
230 1 4.77537 56.9009 -4.05231e-17
231 2 137.694 160.562 -4.05231e-17
232 1 18.2603 212.723 -4.05231e-17
233 2 75.8994 195.586 -4.05231e-17
234 1 0.612588 59.6717 -4.05231e-17
235 1 150.111 105.956 -4.05231e-17
236 2 153.284 52.7978 -4.05231e-17
237 2 99.5646 204.004 -4.05231e-17
238 2 94.6391 140.388 -4.05231e-17
239 1 35.2836 216.961 -4.05231e-17
240 1 129.728 90.7599 -4.05231e-17
241 2 3.3562 124.898 -4.05231e-17
242 1 194.099 28.6147 -4.05231e-17
243 2 214.927 130.5 -4.05231e-17
244 2 35.5542 190.761 -4.05231e-17
245 1 173.959 21.1894 -4.05231e-17
246 2 90.1491 85.5694 -4.05231e-17
247 2 198.87 150.75 -4.05231e-17
248 1 38.0213 27.1345 -4.05231e-17
249 1 131.637 108.273 -4.05231e-17
250 1 134.459 28.0319 -4.05231e-17
251 2 101.843 43.4428 -4.05231e-17
252 1 111.362 157.069 -4.05231e-17
253 2 95.9556 97.6126 -4.05231e-17
254 2 179.403 205.131 -4.05231e-17
255 2 122.632 50.4108 -4.05231e-17
256 1 3.24231 180.149 -4.05231e-17
257 2 32.5865 195.345 -4.05231e-17
258 1 210.805 81.368 -4.05231e-17
259 2 160.959 141.626 -4.05231e-17
260 1 40.4966 192.717 -4.05231e-17
261 2 143.049 176.695 -4.05231e-17
262 2 186.772 110.677 -4.05231e-17
263 2 94.2091 172.611 -4.05231e-17
264 1 199.17 36.413 -4.05231e-17
265 1 157.788 187.119 -4.05231e-17
266 1 98.7337 196.67 -4.05231e-17
267 2 115.585 16.3836 -4.05231e-17
268 1 218.626 48.9789 -4.05231e-17
269 2 10.0111 113.617 -4.05231e-17
270 2 185.43 148.865 -4.05231e-17
271 2 187.618 95.0418 -4.05231e-17
272 1 59.3081 25.9071 -4.05231e-17
273 1 70.4718 83.2969 -4.05231e-17
274 1 38.3191 196.525 -4.05231e-17
275 1 146.666 109.963 -4.05231e-17
276 1 198.957 74.9017 -4.05231e-17
277 1 100.313 37.9455 -4.05231e-17
278 2 61.0093 145.328 -4.05231e-17
279 2 160.258 86.3592 -4.05231e-17
280 1 116.944 210.792 -4.05231e-17
281 2 169.69 182.326 -4.05231e-17
282 2 75.121 127.087 -4.05231e-17
283 2 218.963 151.136 -4.05231e-17
284 1 125.995 113.652 -4.05231e-17
285 1 73.3006 165.46 -4.05231e-17
286 2 30.3382 180.096 -4.05231e-17
287 2 93.4163 110.04 -4.05231e-17
288 1 104.083 123.264 -4.05231e-17
289 2 193.929 56.8363 -4.05231e-17
290 1 101.184 29.8257 -4.05231e-17
291 2 96.3801 185.716 -4.05231e-17
292 1 76.9931 125.304 -4.05231e-17
293 1 159.147 168.074 -4.05231e-17
294 1 29.8378 177.531 -4.05231e-17
295 2 46.6594 145.871 -4.05231e-17
296 1 196.769 176.941 -4.05231e-17
297 1 1.9485 18.3451 -4.05231e-17
298 2 30.5476 140.726 -4.05231e-17
299 1 177.37 55.7067 -4.05231e-17
300 2 190.076 192.894 -4.05231e-17
301 2 172.133 19.2404 -4.05231e-17
302 2 163.831 89.1216 -4.05231e-17
303 1 2.51038 151.883 -4.05231e-17
304 1 124.248 105.875 -4.05231e-17
305 1 92.2138 177.328 -4.05231e-17
306 2 83.9256 17.5373 -4.05231e-17
307 2 150.492 167.702 -4.05231e-17
308 2 142.085 22.4709 -4.05231e-17
309 1 70.385 71.7023 -4.05231e-17
310 1 190.316 190.221 -4.05231e-17
311 1 151.018 108.61 -4.05231e-17
312 2 135.085 13.6672 -4.05231e-17
313 2 155.2 17.704 -4.05231e-17
314 1 184.228 58.287 -4.05231e-17
315 2 56.7382 107.718 -4.05231e-17
316 1 95.9212 30.8526 -4.05231e-17
317 1 133.169 175.709 -4.05231e-17
318 1 216.501 135.922 -4.05231e-17
319 2 74.3075 200.808 -4.05231e-17
320 1 214.047 47.9827 -4.05231e-17
321 1 52.3256 87.5322 -4.05231e-17
322 1 51.3562 148.155 -4.05231e-17
323 2 20.0705 139.059 -4.05231e-17
324 2 7.91757 95.5116 -4.05231e-17
325 2 216.074 13.5002 -4.05231e-17
326 1 184.938 1.02517 -4.05231e-17
327 1 35.6846 46.2279 -4.05231e-17
328 2 32.7833 192.293 -4.05231e-17
329 2 28.6036 83.5104 -4.05231e-17
330 2 153.453 38.6417 -4.05231e-17
331 2 187.996 67.9038 -4.05231e-17
332 2 121.439 114.52 -4.05231e-17
333 2 27.9043 151.176 -4.05231e-17
334 2 215.732 18.1647 -4.05231e-17
335 1 167.183 211.492 -4.05231e-17
336 2 27.6381 141.963 -4.05231e-17
337 2 40.5772 9.58435 -4.05231e-17
338 1 203.458 90.519 -4.05231e-17
339 2 15.1775 152.561 -4.05231e-17
340 2 177.189 214.217 -4.05231e-17
341 2 101.305 60.53 -4.05231e-17
342 2 173.56 166.589 -4.05231e-17
343 2 176.291 4.85638 -4.05231e-17
344 1 88.1389 105.683 -4.05231e-17
345 2 26.8569 212.923 -4.05231e-17
346 2 74.7762 72.8264 -4.05231e-17
347 1 147.846 98.4703 -4.05231e-17
348 1 181.427 3.84685 -4.05231e-17
349 2 173.23 70.152 -4.05231e-17
350 2 77.9692 178.856 -4.05231e-17
351 1 175.16 141.374 -4.05231e-17
352 1 212.835 163.769 -4.05231e-17
353 2 140.866 131.608 -4.05231e-17
354 2 191.596 176.446 -4.05231e-17
355 1 216.107 157.509 -4.05231e-17
356 2 114.974 1.7481 -4.05231e-17
357 1 126.947 192.446 -4.05231e-17
358 1 78.0027 25.2928 -4.05231e-17
359 1 34.8475 143.971 -4.05231e-17
360 1 51.4753 8.11023 -4.05231e-17
361 2 196.586 68.4278 -4.05231e-17
362 2 172.274 94.5197 -4.05231e-17
363 1 78.9029 215.303 -4.05231e-17
364 2 216.822 46.7721 -4.05231e-17
365 1 6.06037 164.666 -4.05231e-17
366 1 82.8266 172.815 -4.05231e-17
367 1 161.218 103.934 -4.05231e-17
368 1 20.9417 164.587 -4.05231e-17
369 2 81.5297 143.588 -4.05231e-17
370 1 6.56665 132.323 -4.05231e-17
371 2 71.3865 111.716 -4.05231e-17
372 1 87.9588 6.58746 -4.05231e-17
373 2 118.129 208.553 -4.05231e-17
374 2 177.042 101.736 -4.05231e-17
375 1 136.044 26.0701 -4.05231e-17
376 1 121.831 147.484 -4.05231e-17
377 2 95.2344 76.0103 -4.05231e-17
378 2 215.36 106.999 -4.05231e-17
379 2 169.54 187.272 -4.05231e-17
380 1 199.648 33.8544 -4.05231e-17
381 1 174.92 67.8257 -4.05231e-17
382 1 122.378 27.0508 -4.05231e-17
383 1 110.462 83.3017 -4.05231e-17
384 2 54.1577 101.065 -4.05231e-17
385 1 66.3052 148.77 -4.05231e-17
386 2 179.549 175.526 -4.05231e-17
387 1 34.7365 107.344 -4.05231e-17
388 1 143.938 164.147 -4.05231e-17
389 2 215.808 121.47 -4.05231e-17
390 1 104.761 65.9797 -4.05231e-17
391 1 203.16 217.691 -4.05231e-17
392 2 4.08027 100.705 -4.05231e-17
393 2 192.69 173.526 -4.05231e-17
394 1 36.4424 203.919 -4.05231e-17
395 1 19.3923 215.094 -4.05231e-17
396 2 75.4284 88.2527 -4.05231e-17
397 1 67.6942 42.0259 -4.05231e-17
398 2 165.512 111.123 -4.05231e-17
399 2 196.914 106.843 -4.05231e-17
400 2 123.765 69.0394 -4.05231e-17
401 2 84.045 190.706 -4.05231e-17
402 1 84.201 42.9418 -4.05231e-17
403 1 69.7756 116.64 -4.05231e-17
404 2 113.046 14.0721 -4.05231e-17
405 1 49.3908 196.898 -4.05231e-17
406 2 216.812 95.7548 -4.05231e-17
407 1 123.706 78.5888 -4.05231e-17
408 1 129.988 29.3737 -4.05231e-17
409 2 214.04 116.257 -4.05231e-17
410 2 70.88 158.821 -4.05231e-17
411 1 136.427 96.79 -4.05231e-17
412 1 164.478 6.85457 -4.05231e-17
413 1 34.7878 86.2055 -4.05231e-17
414 2 193.176 202.58 -4.05231e-17
415 1 107.391 126.726 -4.05231e-17
416 1 175.857 51.7992 -4.05231e-17
417 2 107.624 129.444 -4.05231e-17
418 2 34.8049 179.593 -4.05231e-17
419 2 195.272 91.8127 -4.05231e-17
420 2 108.54 44.4519 -4.05231e-17
421 1 70.1129 30.7721 -4.05231e-17
422 1 34.3727 57.9915 -4.05231e-17
423 2 116.528 125.153 -4.05231e-17
424 2 39.1482 24.8807 -4.05231e-17
425 2 117.032 150.678 -4.05231e-17
426 1 185.884 96.8801 -4.05231e-17
427 2 74.9488 60.5182 -4.05231e-17
428 1 29.359 175.103 -4.05231e-17
429 2 131.247 150.101 -4.05231e-17
430 2 111.734 104.447 -4.05231e-17
431 1 13.2558 9.06537 -4.05231e-17
432 2 173.826 3.09749 -4.05231e-17
433 1 186.497 198.61 -4.05231e-17
434 1 20.3987 205.308 -4.05231e-17
435 1 149.818 85.0779 -4.05231e-17
436 2 85.2559 198.759 -4.05231e-17
437 2 181.077 82.7255 -4.05231e-17
438 2 194.227 177.629 -4.05231e-17
439 2 92.9378 10.0804 -4.05231e-17
440 2 201.134 92.1175 -4.05231e-17
441 1 130.888 167.124 -4.05231e-17
442 1 38.1776 104.705 -4.05231e-17
443 2 79.0695 81.8923 -4.05231e-17
444 1 204.315 105.122 -4.05231e-17
445 1 169.116 133.151 -4.05231e-17
446 2 183.097 150.868 -4.05231e-17
447 2 40.1272 40.3586 -4.05231e-17
448 2 205.895 176.215 -4.05231e-17
449 1 41.5273 177.305 -4.05231e-17
450 1 10.3212 126.485 -4.05231e-17
451 1 53.9542 209.259 -4.05231e-17
452 2 208.732 61.0345 -4.05231e-17
453 1 216.49 150.423 -4.05231e-17
454 1 3.0945 68.753 -4.05231e-17
455 2 81.3073 131.203 -4.05231e-17
456 1 85.1863 1.44862 -4.05231e-17
457 2 140.788 144.968 -4.05231e-17
458 2 155.666 135.618 -4.05231e-17
459 2 133.651 51.6761 -4.05231e-17
460 1 197.362 170.019 -4.05231e-17
461 1 111.918 128.555 -4.05231e-17
462 1 103.961 195.921 -4.05231e-17
463 2 110.364 218.566 -4.05231e-17
464 2 13.7316 77.7449 -4.05231e-17
465 1 124.014 16.1569 -4.05231e-17
466 2 150.692 126.524 -4.05231e-17
467 2 65.8103 133.165 -4.05231e-17
468 2 124.007 125.692 -4.05231e-17
469 2 57.9154 71.5878 -4.05231e-17
470 2 208.975 154.684 -4.05231e-17
471 2 212.121 211.601 -4.05231e-17
472 2 111.106 36.8673 -4.05231e-17
473 2 198.148 214.83 -4.05231e-17
474 2 85.0829 146.893 -4.05231e-17
475 1 164.18 182.824 -4.05231e-17
476 2 175.075 34.5489 -4.05231e-17
477 1 208.831 218 -4.05231e-17
478 1 46.0168 188.237 -4.05231e-17
479 2 0.934482 197.696 -4.05231e-17
480 1 83.0133 61.6981 -4.05231e-17
481 1 2.82343 209.617 -4.05231e-17
482 2 152.719 176.22 -4.05231e-17
483 1 134.679 209.275 -4.05231e-17
484 1 66.3196 135.703 -4.05231e-17
485 2 13.6435 174.152 -4.05231e-17
486 1 132.835 72.9192 -4.05231e-17
487 1 13.3573 202.335 -4.05231e-17
488 1 49.8589 84.0021 -4.05231e-17
489 1 70.5068 109.181 -4.05231e-17
490 1 164.719 73.2809 -4.05231e-17
491 1 163.068 75.31 -4.05231e-17
492 2 209.087 15.344 -4.05231e-17
493 1 94.2463 203.011 -4.05231e-17
494 2 77.8332 66.3003 -4.05231e-17
495 1 150.285 91.9125 -4.05231e-17
496 1 52.2637 123.501 -4.05231e-17
497 1 136.586 110.042 -4.05231e-17
498 2 145.264 39.0198 -4.05231e-17
499 2 177.631 118.935 -4.05231e-17
500 2 57.1932 32.2958 -4.05231e-17
501 2 14.7144 139.83 -4.05231e-17
502 2 190.74 126.739 -4.05231e-17
503 2 57.3881 63.6683 -4.05231e-17
504 2 98.1522 50.3916 -4.05231e-17
505 2 112.248 213.823 -4.05231e-17
506 1 206.986 6.20791 -4.05231e-17
507 2 49.7095 182.133 -4.05231e-17
508 1 140.692 59.3956 -4.05231e-17
509 1 209.502 47.426 -4.05231e-17
510 1 195.166 104.323 -4.05231e-17
511 2 108.372 179.433 -4.05231e-17
512 1 10.8199 42.7989 -4.05231e-17
513 2 87.7937 182.954 -4.05231e-17
514 2 15.0893 87.5239 -4.05231e-17
515 1 60.6077 98.6116 -4.05231e-17
516 2 101.157 73.9395 -4.05231e-17
517 1 32.3082 147.529 -4.05231e-17
518 2 10.1356 13.7673 -4.05231e-17
519 1 125.195 91.9981 -4.05231e-17
520 2 209.187 93.7851 -4.05231e-17
521 2 129.848 39.935 -4.05231e-17
522 1 187.184 7.539 -4.05231e-17
523 1 127.485 99.6281 -4.05231e-17
524 2 175.175 18.6904 -4.05231e-17
525 2 185.27 45.7328 -4.05231e-17
526 2 108.186 16.5959 -4.05231e-17
527 1 170.361 25.1644 -4.05231e-17
528 1 212.937 202.11 -4.05231e-17
529 2 104.676 175.828 -4.05231e-17
530 2 18.3381 88.3712 -4.05231e-17
531 2 184.854 172.04 -4.05231e-17
532 1 81.0696 5.02501 -4.05231e-17
533 2 23.6926 158.276 -4.05231e-17
534 1 23.1093 168.399 -4.05231e-17
535 1 169.955 206.94 -4.05231e-17
536 2 18.5301 170.018 -4.05231e-17
537 1 142.217 29.237 -4.05231e-17
538 1 68.5195 157.822 -4.05231e-17
539 2 80.912 162.873 -4.05231e-17
540 1 35.229 182.264 -4.05231e-17
541 1 105.255 128.461 -4.05231e-17
542 1 58.5937 126.567 -4.05231e-17
543 2 120.45 168.53 -4.05231e-17
544 1 217.803 211.422 -4.05231e-17
545 1 174.885 72.0738 -4.05231e-17
546 2 186.771 10.0703 -4.05231e-17
547 1 12.7605 71.7011 -4.05231e-17
548 1 29.3495 5.62012 -4.05231e-17
549 2 35.1688 152.395 -4.05231e-17
550 2 164.623 193.531 -4.05231e-17
551 2 38.5879 7.26585 -4.05231e-17
552 1 31.7985 51.9117 -4.05231e-17
553 2 207.058 196.668 -4.05231e-17
554 2 144.133 34.0901 -4.05231e-17
555 2 177.861 134.511 -4.05231e-17
556 1 178.024 211.647 -4.05231e-17
557 1 210.98 54.2973 -4.05231e-17
558 1 60.3447 142.748 -4.05231e-17
559 2 106.347 91.6077 -4.05231e-17
560 2 57.193 89.4336 -4.05231e-17
561 2 110.862 181.49 -4.05231e-17
562 2 99.0114 65.847 -4.05231e-17
563 1 73.5026 168.104 -4.05231e-17
564 2 103.431 78.5759 -4.05231e-17
565 2 33.3455 65.0787 -4.05231e-17
566 2 64.433 60.5798 -4.05231e-17
567 1 95.2457 11.6843 -4.05231e-17
568 1 22.5277 78.1141 -4.05231e-17
569 2 141.725 194.238 -4.05231e-17
570 2 11.6355 21.139 -4.05231e-17
571 2 5.20097 62.1381 -4.05231e-17
572 1 115.473 107.853 -4.05231e-17
573 2 38.0458 89.6773 -4.05231e-17
574 2 179.069 170.275 -4.05231e-17
575 1 196.152 206.838 -4.05231e-17
576 1 25.7569 68.4766 -4.05231e-17
577 1 127.576 74.6237 -4.05231e-17
578 1 183.767 115.345 -4.05231e-17
579 2 182.309 44.5133 -4.05231e-17
580 1 109.174 103.764 -4.05231e-17
581 1 91.6614 146.509 -4.05231e-17
582 2 125.512 101.319 -4.05231e-17
583 2 103.478 83.9144 -4.05231e-17
584 2 107.192 151.253 -4.05231e-17
585 1 181.896 103.314 -4.05231e-17
586 1 143.518 80.0004 -4.05231e-17
587 1 158.114 111.648 -4.05231e-17
588 2 64.6023 108.76 -4.05231e-17
589 1 210.751 59.4171 -4.05231e-17
590 2 181.671 58.0592 -4.05231e-17
591 2 179 16.4338 -4.05231e-17
592 1 204.307 128.775 -4.05231e-17
593 1 127.296 90.2042 -4.05231e-17
594 1 5.45805 70.1034 -4.05231e-17
595 1 32.8437 62.288 -4.05231e-17
596 2 107.034 71.2619 -4.05231e-17
597 2 63.6251 105.633 -4.05231e-17
598 2 135.893 87.4188 -4.05231e-17
599 2 96.8962 165.55 -4.05231e-17
600 2 49.2998 98.9148 -4.05231e-17
601 1 145.764 107.647 -4.05231e-17
602 1 173.518 51.9739 -4.05231e-17
603 2 216.847 160.008 -4.05231e-17
604 1 46.2567 179.188 -4.05231e-17
605 2 140.019 100.372 -4.05231e-17
606 2 150.353 98.99 -4.05231e-17
607 2 47.7923 169.175 -4.05231e-17
608 2 128.289 31.3144 -4.05231e-17
609 1 77.8076 89.4035 -4.05231e-17
610 2 106.125 200.02 -4.05231e-17
611 1 1.61421 165.694 -4.05231e-17
612 1 206.974 117.67 -4.05231e-17
613 2 213.547 156.764 -4.05231e-17
614 1 202.553 30.6004 -4.05231e-17
615 1 151.998 103.902 -4.05231e-17
616 2 146.09 177.867 -4.05231e-17
617 1 168.726 0.828224 -4.05231e-17
618 1 137.305 216.384 -4.05231e-17
619 1 164.116 160.828 -4.05231e-17
620 2 42.8306 89.1222 -4.05231e-17
621 2 203.592 77.0419 -4.05231e-17
622 2 145.119 154.321 -4.05231e-17
623 2 108.869 147.125 -4.05231e-17
624 1 107.074 177.025 -4.05231e-17
625 2 208.595 79.7858 -4.05231e-17
626 1 210.898 190.303 -4.05231e-17
627 2 195.209 192.969 -4.05231e-17
628 1 116.816 156.243 -4.05231e-17
629 1 30.3322 41.227 -4.05231e-17
630 2 133.542 213.867 -4.05231e-17
631 2 144.702 114.996 -4.05231e-17
632 2 208.961 20.0261 -4.05231e-17
633 2 60.5661 131.816 -4.05231e-17
634 2 191.483 67.6122 -4.05231e-17
635 2 79.9181 72.4667 -4.05231e-17
636 1 88.1001 130.934 -4.05231e-17
637 1 217.187 152.965 -4.05231e-17
638 1 116.553 69.1343 -4.05231e-17
639 2 200.567 65.4682 -4.05231e-17
640 2 149.479 77.9935 -4.05231e-17
641 1 199.889 96.6867 -4.05231e-17
642 2 161.813 35.3136 -4.05231e-17
643 1 165.174 57.7773 -4.05231e-17
644 2 139.593 154.924 -4.05231e-17
645 2 5.5475 75.323 -4.05231e-17
646 1 169.773 142.592 -4.05231e-17
647 2 129.157 148.161 -4.05231e-17
648 2 190.643 211.739 -4.05231e-17
649 1 63.827 145.314 -4.05231e-17
650 1 56.4954 153.028 -4.05231e-17
651 1 112.473 131.002 -4.05231e-17
652 2 8.31122 214.049 -4.05231e-17
653 2 195.563 45.0873 -4.05231e-17
654 1 208.48 164.969 -4.05231e-17
655 1 63.408 47.78 -4.05231e-17
656 1 199.12 10.4658 -4.05231e-17
657 1 124.997 120.65 -4.05231e-17
658 2 165.858 105.533 -4.05231e-17
659 2 101.287 137.396 -4.05231e-17
660 1 24.9642 12.0305 -4.05231e-17
661 2 15.5361 36.7803 -4.05231e-17
662 2 135.889 116.756 -4.05231e-17
663 1 163.434 112.978 -4.05231e-17
664 1 80.1003 138.463 -4.05231e-17
665 1 135.834 143.9 -4.05231e-17
666 1 202.997 185.325 -4.05231e-17
667 1 0.107196 116.945 -4.05231e-17
668 1 134.276 156.862 -4.05231e-17
669 1 107.432 160.614 -4.05231e-17
670 2 212.105 161.202 -4.05231e-17
671 1 3.46056 16.2152 -4.05231e-17
672 1 193.409 141.684 -4.05231e-17
673 2 47.491 84.937 -4.05231e-17
674 2 182.627 205.4 -4.05231e-17
675 2 152.52 1.93221 -4.05231e-17
676 1 180.686 160.134 -4.05231e-17
677 2 53.2098 53.1905 -4.05231e-17
678 1 86.7335 113.663 -4.05231e-17
679 1 87.1497 65.2573 -4.05231e-17
680 2 71.542 13.5712 -4.05231e-17
681 1 5.19358 9.18879 -4.05231e-17
682 1 141.556 171.671 -4.05231e-17
683 2 96.3794 123.451 -4.05231e-17
684 1 23.3155 180.535 -4.05231e-17
685 1 83.7243 206.491 -4.05231e-17
686 1 142.929 159.694 -4.05231e-17
687 1 107.564 53.2801 -4.05231e-17
688 1 152.005 96.9851 -4.05231e-17
689 2 10.378 139.709 -4.05231e-17
690 1 48.3926 120.683 -4.05231e-17
691 2 64.6974 115.222 -4.05231e-17
692 2 180.544 178.674 -4.05231e-17
693 1 161.626 95.9782 -4.05231e-17
694 2 147.127 149.69 -4.05231e-17
695 2 188.309 36.7112 -4.05231e-17
696 2 31.5372 82.5688 -4.05231e-17
697 1 104.039 35.7133 -4.05231e-17
698 2 40.8301 18.5116 -4.05231e-17
699 1 57.2601 202.627 -4.05231e-17
700 2 17.7346 126.505 -4.05231e-17
701 2 30.6339 63.7491 -4.05231e-17
702 1 160.67 9.86923 -4.05231e-17
703 1 195.673 60.4738 -4.05231e-17
704 1 159.767 121.881 -4.05231e-17
705 1 43.4928 120.472 -4.05231e-17
706 1 75.4914 161.432 -4.05231e-17
707 1 182.294 66.744 -4.05231e-17
708 2 195.367 101.673 -4.05231e-17
709 1 54.413 160.115 -4.05231e-17
710 2 91.8003 16.1324 -4.05231e-17
711 2 1.52009 139.33 -4.05231e-17
712 1 84.2995 213.705 -4.05231e-17
713 1 5.06693 152.711 -4.05231e-17
714 2 145.215 147.203 -4.05231e-17
715 2 133.167 86.7582 -4.05231e-17
716 1 87.1434 61.06 -4.05231e-17
717 1 14.8291 61.2139 -4.05231e-17
718 2 78.6415 99.8056 -4.05231e-17
719 1 68.738 202.79 -4.05231e-17
720 2 51.762 197.426 -4.05231e-17
721 2 44.117 213.324 -4.05231e-17
722 2 65.3244 138.219 -4.05231e-17
723 2 15.9028 165.88 -4.05231e-17
724 2 202.219 107.131 -4.05231e-17
725 2 21.6815 50.1442 -4.05231e-17
726 2 178.001 123.797 -4.05231e-17
727 2 35.4019 109.726 -4.05231e-17
728 1 176.523 77.0291 -4.05231e-17
729 2 167.156 131.488 -4.05231e-17
730 2 175.193 94.5585 -4.05231e-17
731 1 9.77585 22.9954 -4.05231e-17
732 2 98.0991 87.0507 -4.05231e-17
733 2 147.995 146.58 -4.05231e-17
734 2 59.1351 192.089 -4.05231e-17
735 2 149.346 71.9301 -4.05231e-17
736 1 182.118 176.493 -4.05231e-17
737 2 48.8633 39.8146 -4.05231e-17
738 2 71.3729 207.727 -4.05231e-17
739 2 185.984 131.192 -4.05231e-17
740 2 40.4205 115.61 -4.05231e-17
741 2 200.52 113.843 -4.05231e-17
742 1 71.7639 98.8009 -4.05231e-17
743 2 78.6727 75.7058 -4.05231e-17
744 1 146.945 49.7455 -4.05231e-17
745 2 15.7979 75.6941 -4.05231e-17
746 1 218.405 121.685 -4.05231e-17
747 1 98.5759 162.881 -4.05231e-17
748 2 70.0664 197.523 -4.05231e-17
749 1 213.569 166.277 -4.05231e-17
750 1 139.617 147.607 -4.05231e-17
751 1 143.132 88.6323 -4.05231e-17
752 2 195.061 168.554 -4.05231e-17
753 1 37.3255 180.556 -4.05231e-17
754 2 66.0039 80.9464 -4.05231e-17
755 1 6.48875 80.8527 -4.05231e-17
756 2 178.415 58.2235 -4.05231e-17
757 1 110.658 15.3923 -4.05231e-17
758 2 99.3642 28.0197 -4.05231e-17
759 1 96.0083 133.403 -4.05231e-17
760 1 171.091 61.5147 -4.05231e-17
761 2 213.146 100.915 -4.05231e-17
762 1 178.422 106.056 -4.05231e-17
763 2 6.41596 157.712 -4.05231e-17
764 2 43.3099 188.262 -4.05231e-17
765 1 21.9098 160.187 -4.05231e-17
766 2 99.9887 47.9974 -4.05231e-17
767 2 206.398 148.872 -4.05231e-17
768 2 71.963 62.0858 -4.05231e-17
769 2 188.163 98.3709 -4.05231e-17
770 1 134.08 18.4507 -4.05231e-17
771 1 64.5709 63.2409 -4.05231e-17
772 1 129.033 0.612702 -4.05231e-17
773 2 166.692 172.17 -4.05231e-17
774 1 88.0641 87.2185 -4.05231e-17
775 1 102.602 76.0569 -4.05231e-17
776 2 192.692 103.569 -4.05231e-17
777 2 42.5845 80.0612 -4.05231e-17
778 1 83.4024 12.5028 -4.05231e-17
779 1 47.7328 61.5516 -4.05231e-17
780 2 83.2645 49.8057 -4.05231e-17
781 1 25.9916 171.685 -4.05231e-17
782 2 123.127 170.125 -4.05231e-17
783 1 74.4833 63.0508 -4.05231e-17
784 2 96.6974 110.554 -4.05231e-17
785 1 204.267 82.4977 -4.05231e-17
786 1 41.2053 7.00911 -4.05231e-17
787 2 38.3305 208.794 -4.05231e-17
788 2 164.813 180.432 -4.05231e-17
789 2 18.3174 147.336 -4.05231e-17
790 2 77.2454 8.02059 -4.05231e-17
791 2 186.653 53.786 -4.05231e-17
792 1 213.263 132.654 -4.05231e-17
793 1 96.8075 171.547 -4.05231e-17
794 2 209.646 6.5031 -4.05231e-17
795 2 10.563 191.779 -4.05231e-17
796 1 69.2106 215.141 -4.05231e-17
797 1 46.0827 32.7365 -4.05231e-17
798 1 213.276 55.911 -4.05231e-17
799 2 105.799 155.642 -4.05231e-17
800 1 56.7304 37.0085 -4.05231e-17
801 2 68.3429 84.8293 -4.05231e-17
802 1 91.097 216.368 -4.05231e-17
803 1 142.944 24.725 -4.05231e-17
804 1 210.109 125.097 -4.05231e-17
805 2 183.547 118.112 -4.05231e-17
806 2 178.808 158.21 -4.05231e-17
807 2 208.243 29.4613 -4.05231e-17
808 2 76.2628 144.579 -4.05231e-17
809 1 175.866 63.1222 -4.05231e-17
810 2 24.0757 173.541 -4.05231e-17
811 2 180.058 55.6519 -4.05231e-17
812 1 121.966 184.883 -4.05231e-17
813 1 21.7577 96.0012 -4.05231e-17
814 1 3.13431 204.913 -4.05231e-17
815 1 145.718 32.0262 -4.05231e-17
816 1 206.884 51.0993 -4.05231e-17
817 2 62.6025 71.0058 -4.05231e-17
818 2 29.3055 123.052 -4.05231e-17
819 2 210.782 68.0754 -4.05231e-17
820 1 9.6496 59.2506 -4.05231e-17
821 1 64.9651 58.0439 -4.05231e-17
822 2 131.429 34.7182 -4.05231e-17
823 1 183.752 90.3529 -4.05231e-17
824 1 175.68 89.9534 -4.05231e-17
825 1 160.425 191.136 -4.05231e-17
826 2 178.406 81.7722 -4.05231e-17
827 2 102.344 27.1289 -4.05231e-17
828 1 50.5061 91.6563 -4.05231e-17
829 2 127.681 92.672 -4.05231e-17
830 1 3.85482 156.906 -4.05231e-17
831 2 183.523 217.85 -4.05231e-17
832 2 26.6348 52.5116 -4.05231e-17
833 2 96.4826 41.9128 -4.05231e-17
834 1 71.0113 164.214 -4.05231e-17
835 1 184.843 141.318 -4.05231e-17
836 1 153.266 69.3864 -4.05231e-17
837 2 167.959 91.9324 -4.05231e-17
838 2 91.8059 26.3824 -4.05231e-17
839 1 39.2252 32.0287 -4.05231e-17
840 2 13.5547 117.507 -4.05231e-17
841 2 201.714 10.4625 -4.05231e-17
842 1 172.897 159.476 -4.05231e-17
843 1 205.042 29.8032 -4.05231e-17
844 2 8.48246 25.3283 -4.05231e-17
845 1 47.0396 150.931 -4.05231e-17
846 2 127.817 211.252 -4.05231e-17
847 1 88.5503 143.111 -4.05231e-17
848 2 112.7 8.95833 -4.05231e-17
849 1 24.9461 33.1976 -4.05231e-17
850 2 59.8865 67.3043 -4.05231e-17
851 2 216.243 30.7304 -4.05231e-17
852 1 137.363 182.896 -4.05231e-17
853 1 186.073 105.107 -4.05231e-17
854 2 104.184 144.879 -4.05231e-17
855 2 165.617 121.157 -4.05231e-17
856 1 77.5347 159.865 -4.05231e-17