ITEM: TIMESTEP
0
ITEM: NUMBER OF ATOMS
7200
ITEM: BOX BOUNDS xy xz yz pp pp pp
0.0000000000000000e+00 2.1900000000000000e+02 0.0000000000000000e+00
0.0000000000000000e+00 2.1900000000000000e+02 0.0000000000000000e+00
-3.6499999999999999e-01 3.6499999999999999e-01 0.0000000000000000e+00
ITEM: ATOMS id type x y z
1 1 182.957 12.7458 -4.05231e-17
2 2 188.223 183.444 -4.05231e-17
3 2 144.537 189.389 -4.05231e-17
4 1 123.01 110.115 -4.05231e-17
5 1 101.38 122.346 -4.05231e-17
6 1 104.224 25.3186 -4.05231e-17
7 2 158.764 129.257 -4.05231e-17
8 2 70.0062 25.8934 -4.05231e-17
9 1 21.8884 215.039 -4.05231e-17
10 2 52.3268 166.948 -4.05231e-17
11 2 210.253 100.033 -4.05231e-17
12 1 33.7462 197.966 -4.05231e-17
13 2 194.381 53.5467 -4.05231e-17
14 1 57.6177 184.866 -4.05231e-17
15 2 193.208 0.0872475 -4.05231e-17
16 2 218.39 85.5998 -4.05231e-17
17 1 67.5074 74.4859 -4.05231e-17
18 2 10.4141 172.626 -4.05231e-17
19 1 93.1461 129.971 -4.05231e-17
20 1 72.5445 11.0344 -4.05231e-17
21 1 156.625 7.25102 -4.05231e-17
22 2 31.5119 212.861 -4.05231e-17
23 2 43.1949 208.748 -4.05231e-17
24 2 218.786 102.95 -4.05231e-17
25 2 30.2327 208.069 -4.05231e-17
26 2 149.106 27.6938 -4.05231e-17
27 1 217.454 162.153 -4.05231e-17
28 2 54.2332 154.941 -4.05231e-17
29 2 83.7482 4.07948 -4.05231e-17
30 2 131.865 37.4023 -4.05231e-17
31 2 156.61 83.7204 -4.05231e-17
32 1 48.293 108.825 -4.05231e-17
33 2 145.385 87.6459 -4.05231e-17
34 2 16.2162 96.0193 -4.05231e-17
35 2 127.078 11.2689 -4.05231e-17
36 1 160.327 146.819 -4.05231e-17
37 1 133.441 185.071 -4.05231e-17
38 2 209.114 157.939 -4.05231e-17
39 1 7.99396 38.1678 -4.05231e-17
40 2 196.611 73.6046 -4.05231e-17
41 1 192.886 73.0471 -4.05231e-17
42 1 54.966 58.714 -4.05231e-17
43 1 210.125 132.127 -4.05231e-17
44 1 155.385 188.545 -4.05231e-17
45 2 159.314 60.9492 -4.05231e-17
46 1 124.533 192.727 -4.05231e-17
47 2 89.4137 80.8159 -4.05231e-17
48 2 150.348 129.711 -4.05231e-17
49 1 194.362 200.228 -4.05231e-17
50 2 29.2185 47.4377 -4.05231e-17
51 1 186.183 2.84667 -4.05231e-17
52 1 115.511 48.2259 -4.05231e-17
53 2 54.6615 201.354 -4.05231e-17
54 1 38.6456 16.9823 -4.05231e-17
55 2 53.189 141.562 -4.05231e-17
56 1 31.3592 132.575 -4.05231e-17
57 2 58.6195 133.998 -4.05231e-17
58 1 183.906 33.3089 -4.05231e-17
59 1 157.642 86.1154 -4.05231e-17
60 2 206.338 59.7096 -4.05231e-17
61 1 157.487 164.413 -4.05231e-17
62 1 106.797 111.361 -4.05231e-17
63 2 108.581 38.8938 -4.05231e-17
64 1 28.0394 18.0394 -4.05231e-17
65 2 152.22 149.563 -4.05231e-17
66 2 13.139 154.786 -4.05231e-17
67 2 183.248 107.53 -4.05231e-17
68 1 136.887 83.056 -4.05231e-17
69 2 109.39 168.713 -4.05231e-17
70 1 141.629 98.1136 -4.05231e-17
71 1 198.448 147.494 -4.05231e-17
72 2 44.9022 157.486 -4.05231e-17
73 2 191.564 179.408 -4.05231e-17
74 2 111.67 66.7989 -4.05231e-17
75 1 14.8527 136.793 -4.05231e-17
76 2 137.833 206.552 -4.05231e-17
77 2 168.764 15.7683 -4.05231e-17
78 1 93.3736 207.757 -4.05231e-17
79 2 60.5345 75.7118 -4.05231e-17
80 1 50.1616 22.7267 -4.05231e-17
81 1 181.514 211 -4.05231e-17
82 1 172.959 41.1756 -4.05231e-17
83 1 71.1381 91.2805 -4.05231e-17
84 2 141.1 179.306 -4.05231e-17
85 2 151.011 146.482 -4.05231e-17
86 2 51.0953 67.876 -4.05231e-17
87 2 38.4719 75.6238 -4.05231e-17
88 1 80.6464 157.404 -4.05231e-17
89 2 199.827 105.481 -4.05231e-17
90 2 126.209 36.0756 -4.05231e-17
91 2 11.1972 182.602 -4.05231e-17
92 1 27.5419 215.708 -4.05231e-17
93 2 110.215 154.73 -4.05231e-17
94 2 113.005 144.182 -4.05231e-17
95 1 211.339 51.6719 -4.05231e-17
96 2 31.6227 54.277 -4.05231e-17
97 2 4.23785 211.593 -4.05231e-17
98 2 35.7096 185.485 -4.05231e-17
99 1 104.893 9.36743 -4.05231e-17
100 2 158.986 65.5371 -4.05231e-17
101 1 184.527 109.841 -4.05231e-17
102 1 66.26 164.352 -4.05231e-17
103 2 205.034 100.102 -4.05231e-17
104 2 104.305 73.0615 -4.05231e-17
105 1 160.966 58.5046 -4.05231e-17
106 1 185.364 60.4341 -4.05231e-17
107 1 12.3437 107.023 -4.05231e-17
108 1 69.9976 210.358 -4.05231e-17
109 2 217.457 39.4295 -4.05231e-17
110 2 144.902 29.2193 -4.05231e-17
111 1 53.0363 92.5056 -4.05231e-17
112 2 8.43451 51.1252 -4.05231e-17
113 1 134.831 10.9126 -4.05231e-17
114 1 92.4906 87.1282 -4.05231e-17
115 2 32.294 59.9428 -4.05231e-17
116 2 184.262 15.2806 -4.05231e-17
117 1 163.293 111.032 -4.05231e-17
118 1 82.5534 94.4758 -4.05231e-17
119 2 99.1531 139.555 -4.05231e-17
120 2 201.234 58.2122 -4.05231e-17
121 1 205.102 138.733 -4.05231e-17
122 2 143.233 129.774 -4.05231e-17
123 2 7.06831 129.703 -4.05231e-17
124 1 161.475 200.256 -4.05231e-17
125 1 88.3337 192.796 -4.05231e-17
126 2 97.5272 84.0158 -4.05231e-17
127 2 208.851 110.662 -4.05231e-17
128 1 121.573 105.085 -4.05231e-17
129 1 144.329 194.707 -4.05231e-17
130 2 120.255 61.6368 -4.05231e-17
131 1 133.881 60.2267 -4.05231e-17
132 1 139.579 21.8144 -4.05231e-17
133 1 181.202 105.695 -4.05231e-17
134 1 81.2232 191.379 -4.05231e-17
135 2 177.755 60.9074 -4.05231e-17
136 1 190.676 118.816 -4.05231e-17
137 1 60.6785 7.53684 -4.05231e-17
138 2 156.484 158.986 -4.05231e-17
139 1 132.486 11.9107 -4.05231e-17
140 1 144.828 208.637 -4.05231e-17
141 1 51.2357 70.3765 -4.05231e-17
142 1 213.296 191.11 -4.05231e-17
143 1 26.0164 25.8185 -4.05231e-17
144 1 46.6821 97.9823 -4.05231e-17
145 2 192.995 79.9955 -4.05231e-17
146 1 153.494 126.013 -4.05231e-17
147 2 16.4821 134.641 -4.05231e-17
148 1 24.5473 133.294 -4.05231e-17
149 1 147.191 190.383 -4.05231e-17
150 2 65.7708 52.5612 -4.05231e-17
151 1 132.407 138.344 -4.05231e-17
152 1 164.588 163.626 -4.05231e-17
153 2 124.32 130.157 -4.05231e-17
154 1 184.243 52.7637 -4.05231e-17
155 2 203.502 40.0446 -4.05231e-17
156 2 109.571 197.252 -4.05231e-17
157 2 166.122 28.8136 -4.05231e-17
158 2 27.6853 7.95398 -4.05231e-17
159 2 11.8668 158.983 -4.05231e-17
160 2 120.708 54.9708 -4.05231e-17
161 2 129.92 139.124 -4.05231e-17
162 1 23.8507 66.7375 -4.05231e-17
163 1 188.892 33.8345 -4.05231e-17
164 2 108.197 134.181 -4.05231e-17
165 1 48.8996 72.2562 -4.05231e-17
166 2 6.08471 200.012 -4.05231e-17
167 1 107.144 167.62 -4.05231e-17
168 1 211.604 102.677 -4.05231e-17
169 2 98.2531 199.154 -4.05231e-17
170 1 66.222 206.937 -4.05231e-17
171 1 137.484 92.5221 -4.05231e-17
172 1 199.469 199.823 -4.05231e-17
173 1 39.1369 204.673 -4.05231e-17
174 2 38.6152 173.625 -4.05231e-17
175 2 49.8617 199.918 -4.05231e-17
176 1 119.758 151.734 -4.05231e-17
177 2 105.088 15.3042 -4.05231e-17
178 1 24.8962 7.65019 -4.05231e-17
179 2 106.452 197.312 -4.05231e-17
180 1 47.1258 76.4194 -4.05231e-17
181 1 16.1194 119.452 -4.05231e-17
182 1 113.761 86.9173 -4.05231e-17
183 1 64.0154 168.4 -4.05231e-17
184 2 157.477 25.5849 -4.05231e-17
185 2 190.264 78.5835 -4.05231e-17
186 2 73.8642 206.417 -4.05231e-17
187 2 159.041 202.164 -4.05231e-17
188 2 60.5934 28.5563 -4.05231e-17
189 1 191.275 57.5334 -4.05231e-17
190 1 196.366 55.4201 -4.05231e-17
191 2 35.6005 104.657 -4.05231e-17
192 2 89.3264 60.27 -4.05231e-17
193 1 108.744 165.879 -4.05231e-17
194 1 26.5476 5.65915 -4.05231e-17
195 2 58.3568 120.013 -4.05231e-17
196 1 218.916 218.675 -4.05231e-17
197 2 119.036 50.3901 -4.05231e-17
198 2 206.19 27.2236 -4.05231e-17
199 2 99.6351 170.472 -4.05231e-17
200 2 98.6179 31.0736 -4.05231e-17
201 2 103.517 121.005 -4.05231e-17
202 1 43.837 34.0079 -4.05231e-17
203 1 18.1382 43.0557 -4.05231e-17
204 2 45.014 78.5603 -4.05231e-17
205 2 183.062 181.869 -4.05231e-17
206 2 170.587 127.372 -4.05231e-17
207 1 74.6738 189.429 -4.05231e-17
208 2 134.904 54.1657 -4.05231e-17
209 2 32.945 142.589 -4.05231e-17
210 1 182.103 113.251 -4.05231e-17
211 1 208.683 35.3028 -4.05231e-17
212 1 208.303 85.0766 -4.05231e-17
213 1 128.23 123.575 -4.05231e-17
214 2 11.8013 11.2609 -4.05231e-17
215 1 5.5335 142.342 -4.05231e-17
216 1 54.9891 46.4933 -4.05231e-17
217 1 164.612 61.5936 -4.05231e-17
218 2 201.162 121.02 -4.05231e-17
219 2 136.511 189.412 -4.05231e-17
220 1 120.818 1.33218 -4.05231e-17
221 2 83.1428 7.1241 -4.05231e-17
222 1 158.668 157.563 -4.05231e-17
223 1 46.0353 120.425 -4.05231e-17
224 2 146.004 71.0074 -4.05231e-17
225 2 169.345 163.997 -4.05231e-17
226 1 196.382 10.2819 -4.05231e-17
227 2 203.053 214.645 -4.05231e-17
228 2 117.778 63.6353 -4.05231e-17
229 1 47.6291 22.7045 -4.05231e-17
230 1 4.77173 56.9839 -4.05231e-17
231 2 137.757 161.041 -4.05231e-17
232 1 17.7998 212.749 -4.05231e-17
233 2 75.5882 195.891 -4.05231e-17
234 1 0.594151 59.9154 -4.05231e-17
235 1 150.498 106.367 -4.05231e-17
236 2 153.309 52.836 -4.05231e-17
237 2 99.6183 203.895 -4.05231e-17
238 2 94.7011 140.463 -4.05231e-17
239 1 35.3892 217.279 -4.05231e-17
240 1 129.8 90.9124 -4.05231e-17
241 2 3.62679 124.566 -4.05231e-17
242 1 194.136 28.3266 -4.05231e-17
243 2 214.995 130.034 -4.05231e-17
244 2 35.6179 191.189 -4.05231e-17
245 1 173.819 21.2503 -4.05231e-17
246 2 90.0725 85.5303 -4.05231e-17
247 2 198.983 150.375 -4.05231e-17
248 1 37.9483 26.9573 -4.05231e-17
249 1 131.931 107.952 -4.05231e-17
250 1 134.465 27.79 -4.05231e-17
251 2 101.844 43.4634 -4.05231e-17
252 1 111.421 157.237 -4.05231e-17
253 2 96.1268 97.5924 -4.05231e-17
254 2 179.369 205.15 -4.05231e-17
255 2 122.225 50.1283 -4.05231e-17
256 1 2.97539 180.037 -4.05231e-17
257 2 32.5244 195.436 -4.05231e-17
258 1 210.897 81.2477 -4.05231e-17
259 2 160.638 141.727 -4.05231e-17
260 1 40.3231 193.027 -4.05231e-17
261 2 142.872 176.895 -4.05231e-17
262 2 187.024 110.638 -4.05231e-17
263 2 94.2899 172.77 -4.05231e-17
264 1 199.475 36.4347 -4.05231e-17
265 1 157.684 187.039 -4.05231e-17
266 1 98.8012 196.593 -4.05231e-17
267 2 115.375 16.2318 -4.05231e-17
268 1 218.526 48.766 -4.05231e-17
269 2 10.1006 113.651 -4.05231e-17
270 2 185.8 148.908 -4.05231e-17
271 2 187.909 94.9858 -4.05231e-17
272 1 59.3295 26.1587 -4.05231e-17
273 1 70.6241 83.4847 -4.05231e-17
274 1 37.9494 196.666 -4.05231e-17
275 1 146.915 110.125 -4.05231e-17
276 1 199.097 74.7664 -4.05231e-17
277 1 100.252 37.9981 -4.05231e-17
278 2 61.0395 145.379 -4.05231e-17
279 2 160.171 86.4186 -4.05231e-17
280 1 116.95 210.727 -4.05231e-17
281 2 169.916 182.454 -4.05231e-17
282 2 75.3578 127.261 -4.05231e-17
283 2 218.981 150.656 -4.05231e-17
284 1 125.908 113.399 -4.05231e-17
285 1 73.1915 165.377 -4.05231e-17
286 2 30.3519 180.41 -4.05231e-17
287 2 93.2578 109.893 -4.05231e-17
288 1 104.633 123.46 -4.05231e-17
289 2 193.92 56.5595 -4.05231e-17
290 1 101.098 30.0995 -4.05231e-17
291 2 96.5258 185.809 -4.05231e-17
292 1 77.275 125.457 -4.05231e-17
293 1 159.394 168.145 -4.05231e-17
294 1 29.7592 177.886 -4.05231e-17
295 2 46.7677 145.955 -4.05231e-17
296 1 196.784 176.539 -4.05231e-17
297 1 2.06972 18.1589 -4.05231e-17
298 2 30.6488 140.906 -4.05231e-17
299 1 177.343 55.4497 -4.05231e-17
300 2 190.437 192.954 -4.05231e-17
301 2 172.051 19.276 -4.05231e-17
302 2 163.943 89.1766 -4.05231e-17
303 1 2.51813 151.314 -4.05231e-17
304 1 124.285 105.826 -4.05231e-17
305 1 92.15 177.428 -4.05231e-17
306 2 83.7533 17.7308 -4.05231e-17
307 2 150.811 168.088 -4.05231e-17
308 2 142.17 22.3325 -4.05231e-17
309 1 70.835 71.9558 -4.05231e-17
310 1 190.744 190.258 -4.05231e-17
311 1 150.987 108.714 -4.05231e-17
312 2 134.708 13.5267 -4.05231e-17
313 2 155.073 17.8474 -4.05231e-17
314 1 184.223 58.3933 -4.05231e-17
315 2 56.6258 107.72 -4.05231e-17
316 1 95.8862 31.003 -4.05231e-17
317 1 132.902 175.695 -4.05231e-17
318 1 216.522 135.386 -4.05231e-17
319 2 74.1712 201.083 -4.05231e-17
320 1 213.754 47.9301 -4.05231e-17
321 1 52.6655 87.1926 -4.05231e-17
322 1 51.3746 148.294 -4.05231e-17
323 2 20.2274 138.852 -4.05231e-17
324 2 8.08578 95.2441 -4.05231e-17
325 2 215.996 13.2906 -4.05231e-17
326 1 184.719 0.925728 -4.05231e-17
327 1 35.858 46.0549 -4.05231e-17
328 2 32.9141 192.477 -4.05231e-17
329 2 28.6572 83.3012 -4.05231e-17
330 2 153.29 38.7469 -4.05231e-17
331 2 188.132 67.4481 -4.05231e-17
332 2 121.551 114.5 -4.05231e-17
333 2 28.0792 151.319 -4.05231e-17
334 2 215.943 17.8436 -4.05231e-17
335 1 166.991 211.231 -4.05231e-17
336 2 27.7758 141.946 -4.05231e-17
337 2 40.3448 9.98861 -4.05231e-17
338 1 203.34 90.2373 -4.05231e-17
339 2 15.0525 152.269 -4.05231e-17
340 2 176.934 214.277 -4.05231e-17
341 2 101.263 60.3433 -4.05231e-17
342 2 173.86 166.883 -4.05231e-17
343 2 176.195 5.07367 -4.05231e-17
344 1 87.9793 105.673 -4.05231e-17
345 2 26.5188 213.307 -4.05231e-17
346 2 75.4032 72.9263 -4.05231e-17
347 1 148.174 98.5714 -4.05231e-17
348 1 181.374 3.74429 -4.05231e-17
349 2 173.296 70.1094 -4.05231e-17
350 2 78.0047 178.782 -4.05231e-17
351 1 175.344 141.574 -4.05231e-17
352 1 212.994 163.591 -4.05231e-17
353 2 140.971 132.05 -4.05231e-17
354 2 191.297 176.298 -4.05231e-17
355 1 215.995 156.96 -4.05231e-17
356 2 114.557 1.39354 -4.05231e-17
357 1 127.039 192.655 -4.05231e-17
358 1 78.1057 25.8514 -4.05231e-17
359 1 34.7866 144.294 -4.05231e-17
360 1 51.1157 8.41403 -4.05231e-17
361 2 196.709 68.2036 -4.05231e-17
362 2 172.511 94.633 -4.05231e-17
363 1 79.0891 215.053 -4.05231e-17
364 2 216.74 46.815 -4.05231e-17
365 1 5.59738 164.45 -4.05231e-17
366 1 82.5939 172.922 -4.05231e-17
367 1 161.313 104.27 -4.05231e-17
368 1 20.7314 164.741 -4.05231e-17
369 2 81.395 143.917 -4.05231e-17
370 1 6.70088 132.321 -4.05231e-17
371 2 71.4249 111.624 -4.05231e-17
372 1 88.0075 6.80694 -4.05231e-17
373 2 117.955 208.345 -4.05231e-17
374 2 176.956 101.772 -4.05231e-17
375 1 136.184 25.5764 -4.05231e-17
376 1 121.812 147.278 -4.05231e-17
377 2 95.4007 75.9445 -4.05231e-17
378 2 215.746 106.924 -4.05231e-17
379 2 169.683 187.22 -4.05231e-17
380 1 199.798 33.865 -4.05231e-17
381 1 174.912 67.6034 -4.05231e-17
382 1 122.393 27.0312 -4.05231e-17
383 1 110.401 83.0181 -4.05231e-17
384 2 54.351 101.047 -4.05231e-17
385 1 66.309 148.905 -4.05231e-17
386 2 179.948 175.593 -4.05231e-17
387 1 34.8573 107.213 -4.05231e-17
388 1 144.066 164.382 -4.05231e-17
389 2 216.082 121.359 -4.05231e-17
390 1 104.936 65.7855 -4.05231e-17
391 1 203.041 217.308 -4.05231e-17
392 2 4.13279 100.537 -4.05231e-17
393 2 192.581 173.417 -4.05231e-17
394 1 36.5017 204.311 -4.05231e-17
395 1 19.2235 215.159 -4.05231e-17
396 2 75.4576 88.4504 -4.05231e-17
397 1 67.8005 42.0043 -4.05231e-17
398 2 165.916 111.108 -4.05231e-17
399 2 197.101 106.392 -4.05231e-17
400 2 123.666 69.0983 -4.05231e-17
401 2 84.1969 190.464 -4.05231e-17
402 1 84.2118 42.92 -4.05231e-17
403 1 69.9584 116.633 -4.05231e-17
404 2 112.893 13.8183 -4.05231e-17
405 1 49.162 197.28 -4.05231e-17
406 2 217.041 95.6398 -4.05231e-17
407 1 124.009 78.796 -4.05231e-17
408 1 130.001 29.1265 -4.05231e-17
409 2 214.43 116.181 -4.05231e-17
410 2 70.7698 159.093 -4.05231e-17
411 1 136.613 96.9097 -4.05231e-17
412 1 164.539 7.23994 -4.05231e-17
413 1 34.9452 86.0579 -4.05231e-17
414 2 193.028 202.633 -4.05231e-17
415 1 107.704 126.266 -4.05231e-17
416 1 176.176 51.7729 -4.05231e-17
417 2 107.44 128.852 -4.05231e-17
418 2 34.9011 179.663 -4.05231e-17
419 2 195.34 91.8149 -4.05231e-17
420 2 108.404 44.257 -4.05231e-17
421 1 70.2885 30.7874 -4.05231e-17
422 1 34.1289 58.1759 -4.05231e-17
423 2 116.67 125.113 -4.05231e-17
424 2 39.0932 24.6433 -4.05231e-17
425 2 117.264 150.613 -4.05231e-17
426 1 186.029 96.943 -4.05231e-17
427 2 75.0684 60.4713 -4.05231e-17
428 1 29.3343 175.478 -4.05231e-17
429 2 131.421 150.279 -4.05231e-17
430 2 111.853 104.165 -4.05231e-17
431 1 13.0548 8.98088 -4.05231e-17
432 2 173.744 3.26037 -4.05231e-17
433 1 186.53 198.723 -4.05231e-17
434 1 20.2728 205.4 -4.05231e-17
435 1 149.872 85.1613 -4.05231e-17
436 2 85.1957 198.697 -4.05231e-17
437 2 181.114 82.6287 -4.05231e-17
438 2 194.126 177.261 -4.05231e-17
439 2 92.6171 10.3028 -4.05231e-17
440 2 201.217 92.0359 -4.05231e-17
441 1 130.869 167.599 -4.05231e-17
442 1 38.1721 104.816 -4.05231e-17
443 2 79.2618 82.2163 -4.05231e-17
444 1 204.615 104.926 -4.05231e-17
445 1 169.517 133.472 -4.05231e-17
446 2 183.415 150.664 -4.05231e-17
447 2 40.1228 40.1487 -4.05231e-17
448 2 205.867 175.976 -4.05231e-17
449 1 41.469 177.616 -4.05231e-17
450 1 10.6824 126.308 -4.05231e-17
451 1 53.8249 209.613 -4.05231e-17
452 2 208.738 60.978 -4.05231e-17
453 1 216.337 150.189 -4.05231e-17
454 1 3.31874 68.7796 -4.05231e-17
455 2 81.2089 131.262 -4.05231e-17
456 1 84.8285 1.60367 -4.05231e-17
457 2 140.42 145.225 -4.05231e-17
458 2 155.401 135.839 -4.05231e-17
459 2 133.351 51.4932 -4.05231e-17
460 1 197.377 169.811 -4.05231e-17
461 1 112.008 128.139 -4.05231e-17
462 1 104.114 196.17 -4.05231e-17
463 2 110.063 218.449 -4.05231e-17
464 2 13.7183 77.7327 -4.05231e-17
465 1 123.906 16.0229 -4.05231e-17
466 2 150.472 126.47 -4.05231e-17
467 2 65.8934 133.231 -4.05231e-17
468 2 123.887 125.532 -4.05231e-17
469 2 58.2895 71.0954 -4.05231e-17
470 2 208.824 154.565 -4.05231e-17
471 2 211.716 211.527 -4.05231e-17
472 2 111.098 36.7619 -4.05231e-17
473 2 197.554 214.667 -4.05231e-17
474 2 85.0248 146.946 -4.05231e-17
475 1 164.058 183.036 -4.05231e-17
476 2 174.93 34.6327 -4.05231e-17
477 1 208.642 217.992 -4.05231e-17
478 1 46.3393 188.442 -4.05231e-17
479 2 0.580216 197.73 -4.05231e-17
480 1 82.8448 61.8485 -4.05231e-17
481 1 2.34741 209.375 -4.05231e-17
482 2 153.145 176.656 -4.05231e-17
483 1 134.514 209.203 -4.05231e-17
484 1 66.3377 135.865 -4.05231e-17
485 2 13.4091 173.838 -4.05231e-17
486 1 132.879 72.861 -4.05231e-17
487 1 13.3268 202.115 -4.05231e-17
488 1 49.977 83.6517 -4.05231e-17
489 1 70.2493 109.238 -4.05231e-17
490 1 164.871 73.189 -4.05231e-17
491 1 163.27 75.2076 -4.05231e-17
492 2 209.2 15.2202 -4.05231e-17
493 1 94.1152 202.911 -4.05231e-17
494 2 77.9249 66.3735 -4.05231e-17
495 1 150.411 92.3697 -4.05231e-17
496 1 52.249 123.633 -4.05231e-17
497 1 136.834 110.067 -4.05231e-17
498 2 145.136 38.9843 -4.05231e-17
499 2 177.423 118.981 -4.05231e-17
500 2 57.0354 32.387 -4.05231e-17
501 2 14.96 139.662 -4.05231e-17
502 2 190.398 126.592 -4.05231e-17
503 2 57.7408 63.551 -4.05231e-17
504 2 97.7598 50.4379 -4.05231e-17
505 2 111.989 213.939 -4.05231e-17
506 1 206.81 5.83494 -4.05231e-17
507 2 49.7376 182.456 -4.05231e-17
508 1 140.639 59.2929 -4.05231e-17
509 1 209.334 47.469 -4.05231e-17
510 1 195.411 104.034 -4.05231e-17
511 2 108.297 179.262 -4.05231e-17
512 1 10.8639 42.5994 -4.05231e-17
513 2 87.6626 183.011 -4.05231e-17
514 2 15.1034 87.3015 -4.05231e-17
515 1 60.3998 98.2921 -4.05231e-17
516 2 101.128 73.9072 -4.05231e-17
517 1 32.381 147.958 -4.05231e-17
518 2 10.1764 13.66 -4.05231e-17
519 1 125.142 92.2956 -4.05231e-17
520 2 209.345 93.4106 -4.05231e-17
521 2 129.965 39.796 -4.05231e-17
522 1 186.865 7.34684 -4.05231e-17
523 1 127.565 99.3552 -4.05231e-17
524 2 175.081 18.9142 -4.05231e-17
525 2 185.231 45.3871 -4.05231e-17
526 2 108.032 16.1391 -4.05231e-17
527 1 170.444 25.1674 -4.05231e-17
528 1 212.828 201.813 -4.05231e-17
529 2 104.471 176.412 -4.05231e-17
530 2 18.3567 87.7852 -4.05231e-17
531 2 184.44 171.519 -4.05231e-17
532 1 81.1731 5.17762 -4.05231e-17
533 2 23.4933 158.176 -4.05231e-17
534 1 22.5776 168.709 -4.05231e-17
535 1 169.55 206.679 -4.05231e-17
536 2 17.9853 169.647 -4.05231e-17
537 1 142.239 29.0311 -4.05231e-17
538 1 68.6365 157.744 -4.05231e-17
539 2 80.7327 163.223 -4.05231e-17
540 1 35.364 182.337 -4.05231e-17
541 1 104.611 128.768 -4.05231e-17
542 1 58.5281 126.71 -4.05231e-17
543 2 120.313 168.651 -4.05231e-17
544 1 217.515 211.363 -4.05231e-17
545 1 174.972 72.156 -4.05231e-17
546 2 186.877 9.90092 -4.05231e-17
547 1 12.8159 71.5958 -4.05231e-17
548 1 29.1017 5.83618 -4.05231e-17
549 2 35.2192 152.749 -4.05231e-17
550 2 165.034 193.572 -4.05231e-17
551 2 38.6173 7.42929 -4.05231e-17
552 1 31.7617 51.7442 -4.05231e-17
553 2 206.975 196.528 -4.05231e-17
554 2 143.944 33.9342 -4.05231e-17
555 2 178.044 134.66 -4.05231e-17
556 1 177.645 211.674 -4.05231e-17
557 1 211.142 54.3746 -4.05231e-17
558 1 60.2385 142.851 -4.05231e-17
559 2 106.138 91.3943 -4.05231e-17
560 2 57.2918 89.2272 -4.05231e-17
561 2 110.738 181.645 -4.05231e-17
562 2 99.1252 65.6529 -4.05231e-17
563 1 73.3335 168.033 -4.05231e-17
564 2 103.281 78.687 -4.05231e-17
565 2 33.6061 65.3371 -4.05231e-17
566 2 64.4687 60.4525 -4.05231e-17
567 1 95.0415 11.7033 -4.05231e-17
568 1 22.6194 78.0138 -4.05231e-17
569 2 141.647 194.4 -4.05231e-17
570 2 11.2356 21.2847 -4.05231e-17
571 2 5.33067 62.0202 -4.05231e-17
572 1 115.39 107.582 -4.05231e-17
573 2 38.2157 89.4944 -4.05231e-17
574 2 178.7 170.43 -4.05231e-17
575 1 196.126 206.91 -4.05231e-17
576 1 25.8725 68.0219 -4.05231e-17
577 1 127.815 74.8871 -4.05231e-17
578 1 183.625 115.239 -4.05231e-17
579 2 182.169 44.2153 -4.05231e-17
580 1 109.338 103.59 -4.05231e-17
581 1 91.7246 146.507 -4.05231e-17
582 2 125.7 101.204 -4.05231e-17
583 2 103.407 83.806 -4.05231e-17
584 2 107.21 151.516 -4.05231e-17
585 1 181.785 103.322 -4.05231e-17
586 1 143.904 80.1862 -4.05231e-17
587 1 158.386 112.151 -4.05231e-17
588 2 64.3938 108.987 -4.05231e-17
589 1 210.891 59.7163 -4.05231e-17
590 2 181.692 57.8671 -4.05231e-17
591 2 179.012 16.6107 -4.05231e-17
592 1 204.014 128.556 -4.05231e-17
593 1 127.297 90.2969 -4.05231e-17
594 1 5.30183 70.2106 -4.05231e-17
595 1 33.4034 62.5109 -4.05231e-17
596 2 107.204 71.1359 -4.05231e-17
597 2 63.4959 105.822 -4.05231e-17
598 2 135.936 87.6135 -4.05231e-17
599 2 96.8136 165.919 -4.05231e-17
600 2 49.209 98.9573 -4.05231e-17
601 1 146.169 107.674 -4.05231e-17
602 1 173.685 51.9387 -4.05231e-17
603 2 216.878 159.481 -4.05231e-17
604 1 46.1121 179.673 -4.05231e-17
605 2 140.019 100.578 -4.05231e-17
606 2 150.653 99.1545 -4.05231e-17
607 2 47.637 169.623 -4.05231e-17
608 2 127.995 30.9612 -4.05231e-17
609 1 77.9635 89.4952 -4.05231e-17
610 2 105.981 200.189 -4.05231e-17
611 1 1.59433 165.696 -4.05231e-17
612 1 207.421 117.566 -4.05231e-17
613 2 213.504 156.428 -4.05231e-17
614 1 202.629 30.5325 -4.05231e-17
615 1 152.389 104.471 -4.05231e-17
616 2 146.061 178.199 -4.05231e-17
617 1 168.62 0.859638 -4.05231e-17
618 1 136.826 216.306 -4.05231e-17
619 1 164.601 160.809 -4.05231e-17
620 2 42.7239 88.795 -4.05231e-17
621 2 203.594 76.8761 -4.05231e-17
622 2 144.864 154.561 -4.05231e-17
623 2 109.2 147.206 -4.05231e-17
624 1 106.898 177.171 -4.05231e-17
625 2 208.707 79.7049 -4.05231e-17
626 1 211.11 190.094 -4.05231e-17
627 2 195.357 193.044 -4.05231e-17
628 1 117.102 156.409 -4.05231e-17
629 1 30.3893 41.147 -4.05231e-17
630 2 133.322 213.607 -4.05231e-17
631 2 144.689 115.177 -4.05231e-17
632 2 208.893 19.721 -4.05231e-17
633 2 60.9275 131.767 -4.05231e-17
634 2 191.585 67.3728 -4.05231e-17
635 2 80.2954 72.4836 -4.05231e-17
636 1 88.3273 131.098 -4.05231e-17
637 1 216.959 152.538 -4.05231e-17
638 1 116.68 69.2205 -4.05231e-17
639 2 200.709 65.3812 -4.05231e-17
640 2 149.617 78.0909 -4.05231e-17
641 1 200.125 96.6207 -4.05231e-17
642 2 161.564 35.461 -4.05231e-17
643 1 165.28 57.4501 -4.05231e-17
644 2 139.692 155.351 -4.05231e-17
645 2 5.77798 75.0728 -4.05231e-17
646 1 169.725 142.465 -4.05231e-17
647 2 129.308 148.432 -4.05231e-17
648 2 190.34 211.38 -4.05231e-17
649 1 63.714 145.53 -4.05231e-17
650 1 56.3972 153.337 -4.05231e-17
651 1 112.639 130.7 -4.05231e-17
652 2 8.18623 214.024 -4.05231e-17
653 2 195.466 44.9743 -4.05231e-17
654 1 208.556 164.677 -4.05231e-17
655 1 63.6711 47.591 -4.05231e-17
656 1 198.879 10.4027 -4.05231e-17
657 1 125.133 120.39 -4.05231e-17
658 2 165.843 105.998 -4.05231e-17
659 2 101.491 137.25 -4.05231e-17
660 1 24.5871 12.1073 -4.05231e-17
661 2 15.5892 36.9872 -4.05231e-17
662 2 136.007 116.753 -4.05231e-17
663 1 163.707 113.585 -4.05231e-17
664 1 79.9776 138.767 -4.05231e-17
665 1 135.645 144.235 -4.05231e-17
666 1 202.883 185.176 -4.05231e-17
667 1 0.432394 116.918 -4.05231e-17
668 1 134.466 156.939 -4.05231e-17
669 1 107.296 160.841 -4.05231e-17
670 2 212.2 160.973 -4.05231e-17
671 1 3.27856 15.9456 -4.05231e-17
672 1 193.552 141.8 -4.05231e-17
673 2 47.5322 84.7688 -4.05231e-17
674 2 182.466 205.226 -4.05231e-17
675 2 152.405 2.36664 -4.05231e-17
676 1 180.74 159.853 -4.05231e-17
677 2 53.4346 52.9667 -4.05231e-17
678 1 86.8011 113.401 -4.05231e-17
679 1 87.1626 65.467 -4.05231e-17
680 2 71.8015 13.7994 -4.05231e-17
681 1 4.95499 8.93106 -4.05231e-17
682 1 141.642 171.988 -4.05231e-17
683 2 96.5182 123.482 -4.05231e-17
684 1 23.3143 180.455 -4.05231e-17
685 1 83.8058 206.343 -4.05231e-17
686 1 143.045 159.876 -4.05231e-17
687 1 107.575 53.2836 -4.05231e-17
688 1 152.19 97.2535 -4.05231e-17
689 2 10.6589 139.511 -4.05231e-17
690 1 48.307 120.608 -4.05231e-17
691 2 64.698 115.515 -4.05231e-17
692 2 180.646 178.942 -4.05231e-17
693 1 161.762 96.2138 -4.05231e-17
694 2 146.948 149.814 -4.05231e-17
695 2 188.335 36.5317 -4.05231e-17
696 2 31.6464 82.2335 -4.05231e-17
697 1 103.889 35.802 -4.05231e-17
698 2 41.0204 18.6542 -4.05231e-17
699 1 56.9839 202.816 -4.05231e-17
700 2 17.9607 126.42 -4.05231e-17
701 2 30.9513 63.8522 -4.05231e-17
702 1 160.809 10.0077 -4.05231e-17
703 1 195.954 60.4423 -4.05231e-17
704 1 159.712 121.994 -4.05231e-17
705 1 43.4711 120.27 -4.05231e-17
706 1 75.2998 161.641 -4.05231e-17
707 1 182.377 66.4897 -4.05231e-17
708 2 195.582 101.292 -4.05231e-17
709 1 54.2189 160.314 -4.05231e-17
710 2 91.6514 16.2768 -4.05231e-17
711 2 1.35981 139.003 -4.05231e-17
712 1 84.4974 213.33 -4.05231e-17
713 1 4.93977 152.112 -4.05231e-17
714 2 145.109 147.483 -4.05231e-17
715 2 133.333 87.0644 -4.05231e-17
716 1 86.9584 61.1792 -4.05231e-17
717 1 14.7665 61.0615 -4.05231e-17
718 2 78.5608 99.8374 -4.05231e-17
719 1 68.8082 203.436 -4.05231e-17
720 2 51.6272 197.377 -4.05231e-17
721 2 43.942 213.644 -4.05231e-17
722 2 65.4823 138.203 -4.05231e-17
723 2 15.577 165.775 -4.05231e-17
724 2 202.493 107.186 -4.05231e-17
725 2 21.81 49.8906 -4.05231e-17
726 2 178.062 123.914 -4.05231e-17
727 2 35.4075 109.842 -4.05231e-17
728 1 176.613 77.0108 -4.05231e-17
729 2 167.504 131.851 -4.05231e-17
730 2 175.444 94.3403 -4.05231e-17
731 1 9.63002 23.3723 -4.05231e-17
732 2 98.182 87.2501 -4.05231e-17
733 2 147.934 146.691 -4.05231e-17
734 2 59.3386 192.446 -4.05231e-17
735 2 149.22 71.8003 -4.05231e-17
736 1 182.383 176.829 -4.05231e-17
737 2 48.5348 39.4564 -4.05231e-17
738 2 71.2398 208.08 -4.05231e-17
739 2 185.999 131.111 -4.05231e-17
740 2 40.5821 115.534 -4.05231e-17
741 2 200.788 113.796 -4.05231e-17
742 1 71.7719 98.9384 -4.05231e-17
743 2 78.8484 76.3294 -4.05231e-17
744 1 146.889 49.801 -4.05231e-17
745 2 15.6861 75.5454 -4.05231e-17
746 1 218.61 121.723 -4.05231e-17
747 1 98.1531 163.083 -4.05231e-17
748 2 70.1499 198.015 -4.05231e-17
749 1 213.739 165.96 -4.05231e-17
750 1 139.473 148.211 -4.05231e-17
751 1 143.469 89.1473 -4.05231e-17
752 2 195.018 168.562 -4.05231e-17
753 1 37.2807 180.683 -4.05231e-17
754 2 66.0259 80.9505 -4.05231e-17
755 1 6.50153 80.5321 -4.05231e-17
756 2 178.421 58.0149 -4.05231e-17
757 1 110.648 15.0154 -4.05231e-17
758 2 99.3358 27.9816 -4.05231e-17
759 1 95.7989 133.631 -4.05231e-17
760 1 171.086 61.4755 -4.05231e-17
761 2 213.422 100.726 -4.05231e-17
762 1 178.658 106.12 -4.05231e-17
763 2 6.11854 157.493 -4.05231e-17
764 2 43.4506 188.438 -4.05231e-17
765 1 21.95 160.285 -4.05231e-17
766 2 99.8528 48.0483 -4.05231e-17
767 2 206.474 148.757 -4.05231e-17
768 2 72.3104 62.1489 -4.05231e-17
769 2 188.4 98.2592 -4.05231e-17
770 1 133.974 18.2717 -4.05231e-17
771 1 64.644 63.2133 -4.05231e-17
772 1 128.789 0.624896 -4.05231e-17
773 2 166.841 172.257 -4.05231e-17
774 1 88.2085 87.317 -4.05231e-17
775 1 102.681 75.9768 -4.05231e-17
776 2 192.916 103.086 -4.05231e-17
777 2 42.354 79.6138 -4.05231e-17
778 1 83.1639 13.0157 -4.05231e-17
779 1 47.9354 61.5127 -4.05231e-17
780 2 83.2225 49.8402 -4.05231e-17
781 1 25.7832 171.946 -4.05231e-17
782 2 123.101 170.306 -4.05231e-17
783 1 74.7264 63.1013 -4.05231e-17
784 2 96.8397 110.302 -4.05231e-17
785 1 204.453 82.3695 -4.05231e-17
786 1 41.2388 7.51746 -4.05231e-17
787 2 38.3163 209.224 -4.05231e-17
788 2 164.983 180.469 -4.05231e-17
789 2 18.4085 147.151 -4.05231e-17
790 2 77.3799 7.85505 -4.05231e-17
791 2 186.624 53.7841 -4.05231e-17
792 1 213.265 132.245 -4.05231e-17
793 1 96.9981 171.699 -4.05231e-17
794 2 209.378 6.2984 -4.05231e-17
795 2 10.5769 191.71 -4.05231e-17
796 1 69.1862 215.388 -4.05231e-17
797 1 45.8791 32.362 -4.05231e-17
798 1 213.419 55.7602 -4.05231e-17
799 2 105.871 155.809 -4.05231e-17
800 1 56.3458 37.0487 -4.05231e-17
801 2 68.3351 84.813 -4.05231e-17
802 1 90.9317 216.374 -4.05231e-17
803 1 143.098 24.479 -4.05231e-17
804 1 210.079 125.016 -4.05231e-17
805 2 183.684 118.048 -4.05231e-17
806 2 178.744 157.992 -4.05231e-17
807 2 208.566 29.375 -4.05231e-17
808 2 76.3956 144.917 -4.05231e-17
809 1 176.057 63.0628 -4.05231e-17
810 2 23.925 173.781 -4.05231e-17
811 2 180.043 55.4579 -4.05231e-17
812 1 121.888 185.027 -4.05231e-17
813 1 22.1571 95.74 -4.05231e-17
814 1 2.85501 204.727 -4.05231e-17
815 1 145.607 31.8355 -4.05231e-17
816 1 206.82 51.1982 -4.05231e-17
817 2 63.2305 70.7484 -4.05231e-17
818 2 29.5419 122.744 -4.05231e-17
819 2 210.851 67.9297 -4.05231e-17
820 1 9.63999 59.1567 -4.05231e-17
821 1 65.084 57.9102 -4.05231e-17
822 2 131.359 34.5095 -4.05231e-17
823 1 184.146 90.3785 -4.05231e-17
824 1 175.925 89.7589 -4.05231e-17
825 1 160.426 190.969 -4.05231e-17
826 2 178.283 81.8658 -4.05231e-17
827 2 102.33 27.3496 -4.05231e-17
828 1 50.6027 91.4164 -4.05231e-17
829 2 127.642 92.9253 -4.05231e-17
830 1 3.6924 156.509 -4.05231e-17
831 2 183.117 217.608 -4.05231e-17
832 2 26.7977 51.918 -4.05231e-17
833 2 96.1179 42.1046 -4.05231e-17
834 1 70.7828 164.289 -4.05231e-17
835 1 185.074 141.297 -4.05231e-17
836 1 153.231 69.4653 -4.05231e-17
837 2 168.284 91.984 -4.05231e-17
838 2 91.8577 26.2917 -4.05231e-17
839 1 39.0941 31.8907 -4.05231e-17
840 2 13.9441 117.401 -4.05231e-17
841 2 201.568 10.3344 -4.05231e-17
842 1 173.235 159.445 -4.05231e-17
843 1 205.268 29.6622 -4.05231e-17
844 2 8.36984 25.4872 -4.05231e-17
845 1 46.8983 150.977 -4.05231e-17
846 2 127.404 211.149 -4.05231e-17
847 1 88.482 143.192 -4.05231e-17
848 2 112.803 8.78901 -4.05231e-17
849 1 24.9129 33.071 -4.05231e-17
850 2 60.2269 67.1962 -4.05231e-17
851 2 216.18 30.6777 -4.05231e-17
852 1 137.205 182.638 -4.05231e-17
853 1 186.139 105.058 -4.05231e-17
854 2 104.682 144.608 -4.05231e-17
855 2 165.705 121.197 -4.05231e-17
856 1 77.6448 160.193 -4.05231e-17
857 2 79.0384 120.001 -4.05231e-17