ITEM: TIMESTEP
0
ITEM: NUMBER OF ATOMS
7200
ITEM: BOX BOUNDS xy xz yz pp pp pp
0.0000000000000000e+00 2.1900000000000000e+02 0.0000000000000000e+00
0.0000000000000000e+00 2.1900000000000000e+02 0.0000000000000000e+00
-3.6499999999999999e-01 3.6499999999999999e-01 0.0000000000000000e+00
ITEM: ATOMS id type x y z
1 1 183.028 12.7629 -4.05231e-17
2 2 188.184 183.557 -4.05231e-17
3 2 144.57 189.314 -4.05231e-17
4 1 123.168 110.224 -4.05231e-17
5 1 101.431 122.464 -4.05231e-17
6 1 104.632 25.3757 -4.05231e-17
7 2 158.582 129.242 -4.05231e-17
8 2 70.0355 25.7403 -4.05231e-17
9 1 22.1947 214.969 -4.05231e-17
10 2 52.476 166.715 -4.05231e-17
11 2 210.142 100.09 -4.05231e-17
12 1 33.9787 197.713 -4.05231e-17
13 2 194.237 53.6579 -4.05231e-17
14 1 57.4857 184.446 -4.05231e-17
15 2 193.29 218.926 -4.05231e-17
16 2 218.288 85.7407 -4.05231e-17
17 1 67.5632 74.5745 -4.05231e-17
18 2 10.3894 172.526 -4.05231e-17
19 1 92.9514 129.978 -4.05231e-17
20 1 72.6412 11.1901 -4.05231e-17
21 1 156.609 7.15885 -4.05231e-17
22 2 32.0439 212.542 -4.05231e-17
23 2 43.5905 208.481 -4.05231e-17
24 2 218.672 102.978 -4.05231e-17
25 2 30.1676 207.645 -4.05231e-17
26 2 149.464 27.7614 -4.05231e-17
27 1 217.285 162.485 -4.05231e-17
28 2 54.3424 154.724 -4.05231e-17
29 2 83.7744 3.99209 -4.05231e-17
30 2 132.314 37.5924 -4.05231e-17
31 2 156.709 83.8245 -4.05231e-17
32 1 48.3389 108.552 -4.05231e-17
33 2 145.107 87.346 -4.05231e-17
34 2 16.0031 96.1182 -4.05231e-17
35 2 127.284 11.6343 -4.05231e-17
36 1 160.294 146.779 -4.05231e-17
37 1 133.287 185.202 -4.05231e-17
38 2 209.385 157.944 -4.05231e-17
39 1 8.04045 38.0387 -4.05231e-17
40 2 196.193 73.4612 -4.05231e-17
41 1 192.668 72.9986 -4.05231e-17
42 1 55.2086 58.5942 -4.05231e-17
43 1 210.379 132.162 -4.05231e-17
44 1 155.232 188.624 -4.05231e-17
45 2 159.265 61.2603 -4.05231e-17
46 1 124.275 192.662 -4.05231e-17
47 2 89.2135 80.6632 -4.05231e-17
48 2 150.391 129.8 -4.05231e-17
49 1 194.438 200.007 -4.05231e-17
50 2 29.1321 47.4467 -4.05231e-17
51 1 186.668 3.08877 -4.05231e-17
52 1 115.73 48.0661 -4.05231e-17
53 2 55.1245 200.997 -4.05231e-17
54 1 39.0277 16.5938 -4.05231e-17
55 2 53.3194 140.982 -4.05231e-17
56 1 31.0613 132.501 -4.05231e-17
57 2 58.2981 133.853 -4.05231e-17
58 1 183.759 33.3295 -4.05231e-17
59 1 157.672 86.2218 -4.05231e-17
60 2 206.129 59.41 -4.05231e-17
61 1 157.242 164.524 -4.05231e-17
62 1 106.696 111.554 -4.05231e-17
63 2 108.785 38.9112 -4.05231e-17
64 1 28.2632 18.0529 -4.05231e-17
65 2 152.418 149.471 -4.05231e-17
66 2 13.3028 154.753 -4.05231e-17
67 2 183.008 107.666 -4.05231e-17
68 1 136.761 83.2978 -4.05231e-17
69 2 109.458 168.853 -4.05231e-17
70 1 141.734 98.2301 -4.05231e-17
71 1 198.066 147.775 -4.05231e-17
72 2 45.1103 157.164 -4.05231e-17
73 2 191.926 179.681 -4.05231e-17
74 2 111.595 67.1565 -4.05231e-17
75 1 14.913 136.757 -4.05231e-17
76 2 137.842 206.543 -4.05231e-17
77 2 168.721 15.6174 -4.05231e-17
78 1 93.182 208.187 -4.05231e-17
79 2 60.314 75.5332 -4.05231e-17
80 1 49.8669 22.8646 -4.05231e-17
81 1 181.672 211.23 -4.05231e-17
82 1 173.495 41.2853 -4.05231e-17
83 1 71.0004 91.1985 -4.05231e-17
84 2 140.906 179.412 -4.05231e-17
85 2 150.925 146.413 -4.05231e-17
86 2 51.06 67.8775 -4.05231e-17
87 2 38.3221 75.785 -4.05231e-17
88 1 80.8334 157.55 -4.05231e-17
89 2 199.635 105.49 -4.05231e-17
90 2 126.24 36.4667 -4.05231e-17
91 2 11.1124 182.527 -4.05231e-17
92 1 28.0475 215.137 -4.05231e-17
93 2 110.055 154.741 -4.05231e-17
94 2 112.757 144.35 -4.05231e-17
95 1 211.318 51.5536 -4.05231e-17
96 2 31.9094 54.477 -4.05231e-17
97 2 4.60163 211.647 -4.05231e-17
98 2 35.7388 185.361 -4.05231e-17
99 1 105.404 9.81514 -4.05231e-17
100 2 158.914 65.9421 -4.05231e-17
101 1 184.264 110.009 -4.05231e-17
102 1 66.2281 164.246 -4.05231e-17
103 2 204.881 100.21 -4.05231e-17
104 2 104.061 73.0956 -4.05231e-17
105 1 160.83 58.9524 -4.05231e-17
106 1 184.953 60.5118 -4.05231e-17
107 1 12.2869 106.923 -4.05231e-17
108 1 70.2797 210.156 -4.05231e-17
109 2 217.434 39.1725 -4.05231e-17
110 2 145.022 29.7236 -4.05231e-17
111 1 52.8437 92.3267 -4.05231e-17
112 2 8.48023 50.8436 -4.05231e-17
113 1 134.862 10.8734 -4.05231e-17
114 1 92.4038 86.8972 -4.05231e-17
115 2 32.4502 60.146 -4.05231e-17
116 2 184.089 15.3138 -4.05231e-17
117 1 162.963 110.863 -4.05231e-17
118 1 82.6734 94.3334 -4.05231e-17
119 2 99.0553 139.377 -4.05231e-17
120 2 201.19 58.6985 -4.05231e-17
121 1 205.117 139.146 -4.05231e-17
122 2 143.431 130.127 -4.05231e-17
123 2 6.95651 129.696 -4.05231e-17
124 1 161.262 199.831 -4.05231e-17
125 1 88.2244 193.182 -4.05231e-17
126 2 97.7823 84.1866 -4.05231e-17
127 2 208.829 110.706 -4.05231e-17
128 1 121.811 105.132 -4.05231e-17
129 1 144.051 194.468 -4.05231e-17
130 2 120.244 61.6237 -4.05231e-17
131 1 134.099 60.4051 -4.05231e-17
132 1 139.919 22.1592 -4.05231e-17
133 1 181.165 105.836 -4.05231e-17
134 1 81.1836 191.499 -4.05231e-17
135 2 177.677 61.1708 -4.05231e-17
136 1 190.444 119.033 -4.05231e-17
137 1 60.5477 7.34074 -4.05231e-17
138 2 156.295 158.985 -4.05231e-17
139 1 132.853 12.0005 -4.05231e-17
140 1 144.77 208.455 -4.05231e-17
141 1 51.1854 70.4959 -4.05231e-17
142 1 213.079 190.955 -4.05231e-17
143 1 26.2061 26.1264 -4.05231e-17
144 1 46.5364 97.6348 -4.05231e-17
145 2 193.009 79.944 -4.05231e-17
146 1 153.527 126.175 -4.05231e-17
147 2 16.3052 134.528 -4.05231e-17
148 1 24.3974 133.159 -4.05231e-17
149 1 147.324 190.281 -4.05231e-17
150 2 65.6918 52.476 -4.05231e-17
151 1 132.104 138.319 -4.05231e-17
152 1 164.139 163.468 -4.05231e-17
153 2 123.968 130.38 -4.05231e-17
154 1 184.014 52.6556 -4.05231e-17
155 2 203.297 40.0739 -4.05231e-17
156 2 109.173 196.969 -4.05231e-17
157 2 166.264 29.0313 -4.05231e-17
158 2 27.8215 7.64008 -4.05231e-17
159 2 12.329 158.942 -4.05231e-17
160 2 120.677 55.0697 -4.05231e-17
161 2 129.595 138.762 -4.05231e-17
162 1 23.9136 66.4916 -4.05231e-17
163 1 188.472 33.9864 -4.05231e-17
164 2 108.363 134.682 -4.05231e-17
165 1 49.055 72.0454 -4.05231e-17
166 2 6.02212 199.756 -4.05231e-17
167 1 107.049 167.898 -4.05231e-17
168 1 211.284 102.753 -4.05231e-17
169 2 98.2196 199.601 -4.05231e-17
170 1 66.2856 206.509 -4.05231e-17
171 1 137.511 92.4993 -4.05231e-17
172 1 199.333 199.665 -4.05231e-17
173 1 39.3121 204.059 -4.05231e-17
174 2 38.2192 173.184 -4.05231e-17
175 2 50.0553 199.694 -4.05231e-17
176 1 119.822 151.728 -4.05231e-17
177 2 105.268 15.4706 -4.05231e-17
178 1 25.3088 7.52692 -4.05231e-17
179 2 106.234 197.174 -4.05231e-17
180 1 47.0652 76.3768 -4.05231e-17
181 1 15.9924 119.454 -4.05231e-17
182 1 113.897 86.6858 -4.05231e-17
183 1 63.9611 168.487 -4.05231e-17
184 2 157.637 25.7734 -4.05231e-17
185 2 190.044 78.7702 -4.05231e-17
186 2 74.4447 206.427 -4.05231e-17
187 2 159.044 201.669 -4.05231e-17
188 2 60.1437 28.351 -4.05231e-17
189 1 191.108 57.6727 -4.05231e-17
190 1 196.223 55.3168 -4.05231e-17
191 2 35.6202 104.606 -4.05231e-17
192 2 89.307 60.1221 -4.05231e-17
193 1 108.57 166.067 -4.05231e-17
194 1 26.8908 5.20728 -4.05231e-17
195 2 58.1674 119.678 -4.05231e-17
196 1 0.215645 218.626 -4.05231e-17
197 2 119.101 50.6239 -4.05231e-17
198 2 206.191 27.2405 -4.05231e-17
199 2 99.4461 170.388 -4.05231e-17
200 2 98.6335 30.9579 -4.05231e-17
201 2 103.46 120.906 -4.05231e-17
202 1 43.6926 34.285 -4.05231e-17
203 1 18.1068 43.0393 -4.05231e-17
204 2 45.0356 78.5257 -4.05231e-17
205 2 183.171 182.331 -4.05231e-17
206 2 170.677 127.501 -4.05231e-17
207 1 74.5587 189.371 -4.05231e-17
208 2 135.018 54.5436 -4.05231e-17
209 2 32.7268 142.289 -4.05231e-17
210 1 182.254 113.621 -4.05231e-17
211 1 208.323 35.5196 -4.05231e-17
212 1 208.132 85.1783 -4.05231e-17
213 1 128.168 123.658 -4.05231e-17
214 2 12.1552 11.3147 -4.05231e-17
215 1 5.3689 142.657 -4.05231e-17
216 1 55.0245 46.8281 -4.05231e-17
217 1 164.431 61.9522 -4.05231e-17
218 2 201.012 121.287 -4.05231e-17
219 2 136.316 189.468 -4.05231e-17
220 1 121.039 1.34029 -4.05231e-17
221 2 83.0318 6.92503 -4.05231e-17
222 1 158.692 157.455 -4.05231e-17
223 1 45.8989 120.48 -4.05231e-17
224 2 145.901 70.9486 -4.05231e-17
225 2 169.093 164.133 -4.05231e-17
226 1 196.52 10.3548 -4.05231e-17
227 2 203.297 214.992 -4.05231e-17
228 2 117.886 63.6251 -4.05231e-17
229 1 47.35 22.6334 -4.05231e-17
230 1 4.72469 56.7809 -4.05231e-17
231 2 137.543 160.906 -4.05231e-17
232 1 18.1836 212.631 -4.05231e-17
233 2 75.9776 195.858 -4.05231e-17
234 1 0.562171 59.7332 -4.05231e-17
235 1 150.395 106.243 -4.05231e-17
236 2 153.215 53.2188 -4.05231e-17
237 2 99.4256 204.016 -4.05231e-17
238 2 94.7375 140.266 -4.05231e-17
239 1 35.6061 216.811 -4.05231e-17
240 1 129.894 91.1287 -4.05231e-17
241 2 3.56276 124.47 -4.05231e-17
242 1 193.955 28.371 -4.05231e-17
243 2 214.996 130.281 -4.05231e-17
244 2 35.7135 190.993 -4.05231e-17
245 1 174.031 21.1452 -4.05231e-17
246 2 90.218 85.5039 -4.05231e-17
247 2 198.781 150.452 -4.05231e-17
248 1 38.1932 26.962 -4.05231e-17
249 1 132.089 108.418 -4.05231e-17
250 1 134.709 27.8905 -4.05231e-17
251 2 102.251 43.6092 -4.05231e-17
252 1 110.969 156.978 -4.05231e-17
253 2 95.917 97.6638 -4.05231e-17
254 2 179.306 205.046 -4.05231e-17
255 2 122.64 50.4273 -4.05231e-17
256 1 2.8473 180.16 -4.05231e-17
257 2 32.628 195.227 -4.05231e-17
258 1 210.744 81.2276 -4.05231e-17
259 2 160.812 141.639 -4.05231e-17
260 1 40.5023 192.716 -4.05231e-17
261 2 142.715 176.901 -4.05231e-17
262 2 186.721 110.666 -4.05231e-17
263 2 94.1209 172.947 -4.05231e-17
264 1 199.346 36.5694 -4.05231e-17
265 1 157.395 187.029 -4.05231e-17
266 1 98.7157 196.832 -4.05231e-17
267 2 115.803 16.3385 -4.05231e-17
268 1 218.651 48.6903 -4.05231e-17
269 2 9.85328 113.417 -4.05231e-17
270 2 185.616 148.871 -4.05231e-17
271 2 187.635 95.2085 -4.05231e-17
272 1 59.0344 26.0482 -4.05231e-17
273 1 70.6163 83.3824 -4.05231e-17
274 1 38.1277 196.279 -4.05231e-17
275 1 147.047 110.155 -4.05231e-17
276 1 198.81 74.513 -4.05231e-17
277 1 100.177 38.177 -4.05231e-17
278 2 61.0912 145.515 -4.05231e-17
279 2 160.329 86.5703 -4.05231e-17
280 1 117.078 210.967 -4.05231e-17
281 2 169.971 182.302 -4.05231e-17
282 2 75.0964 127.083 -4.05231e-17
283 2 0.124443 150.896 -4.05231e-17
284 1 126.162 113.546 -4.05231e-17
285 1 73.181 165.555 -4.05231e-17
286 2 30.1736 180.3 -4.05231e-17
287 2 93.4482 109.667 -4.05231e-17
288 1 104.169 123.491 -4.05231e-17
289 2 193.78 56.8501 -4.05231e-17
290 1 101.146 29.4247 -4.05231e-17
291 2 95.9693 185.892 -4.05231e-17
292 1 77.0455 125.548 -4.05231e-17
293 1 158.943 167.971 -4.05231e-17
294 1 29.5762 177.786 -4.05231e-17
295 2 46.9214 145.42 -4.05231e-17
296 1 197.13 176.949 -4.05231e-17
297 1 2.23916 18.2503 -4.05231e-17
298 2 30.41 140.518 -4.05231e-17
299 1 177.209 55.6033 -4.05231e-17
300 2 190.245 192.879 -4.05231e-17
301 2 172.216 19.1497 -4.05231e-17
302 2 164.013 89.5372 -4.05231e-17
303 1 2.55132 151.605 -4.05231e-17
304 1 124.317 106.005 -4.05231e-17
305 1 91.7453 177.737 -4.05231e-17
306 2 83.7965 17.4796 -4.05231e-17
307 2 150.442 167.809 -4.05231e-17
308 2 142.356 22.5106 -4.05231e-17
309 1 70.8206 72.1222 -4.05231e-17
310 1 190.582 190.311 -4.05231e-17
311 1 151.259 108.668 -4.05231e-17
312 2 134.898 13.6777 -4.05231e-17
313 2 155.168 17.9905 -4.05231e-17
314 1 184.22 58.3542 -4.05231e-17
315 2 56.8894 107.686 -4.05231e-17
316 1 95.7724 30.9741 -4.05231e-17
317 1 132.908 175.764 -4.05231e-17
318 1 216.78 135.766 -4.05231e-17
319 2 74.3911 201.224 -4.05231e-17
320 1 214.044 47.7784 -4.05231e-17
321 1 52.5213 87.0024 -4.05231e-17
322 1 51.6083 147.761 -4.05231e-17
323 2 20.1118 138.769 -4.05231e-17
324 2 7.87938 95.4352 -4.05231e-17
325 2 216.31 13.4185 -4.05231e-17
326 1 185.118 0.96821 -4.05231e-17
327 1 35.7398 46.0048 -4.05231e-17
328 2 32.7328 192.285 -4.05231e-17
329 2 28.4306 83.2871 -4.05231e-17
330 2 153.494 38.8664 -4.05231e-17
331 2 187.849 67.7345 -4.05231e-17
332 2 121.535 114.6 -4.05231e-17
333 2 28.1632 150.989 -4.05231e-17
334 2 215.97 18.0024 -4.05231e-17
335 1 167.166 211.041 -4.05231e-17
336 2 27.6665 141.706 -4.05231e-17
337 2 40.7848 9.61439 -4.05231e-17
338 1 203.255 90.2177 -4.05231e-17
339 2 15.057 152.308 -4.05231e-17
340 2 176.803 214.353 -4.05231e-17
341 2 101.386 60.365 -4.05231e-17
342 2 173.603 166.751 -4.05231e-17
343 2 176.231 4.61059 -4.05231e-17
344 1 88.0648 105.743 -4.05231e-17
345 2 26.8986 212.656 -4.05231e-17
346 2 75.1883 72.9922 -4.05231e-17
347 1 147.806 98.7951 -4.05231e-17
348 1 181.409 3.8414 -4.05231e-17
349 2 173.259 70.0431 -4.05231e-17
350 2 77.5289 178.871 -4.05231e-17
351 1 174.953 141.587 -4.05231e-17
352 1 212.857 163.529 -4.05231e-17
353 2 141.057 132.033 -4.05231e-17
354 2 191.501 176.545 -4.05231e-17
355 1 216.177 157.2 -4.05231e-17
356 2 115.033 1.66284 -4.05231e-17
357 1 126.854 192.468 -4.05231e-17
358 1 78.0193 25.6132 -4.05231e-17
359 1 34.8412 143.84 -4.05231e-17
360 1 51.5958 8.08806 -4.05231e-17
361 2 196.509 68.1388 -4.05231e-17
362 2 172.313 94.7023 -4.05231e-17
363 1 79.0931 215.487 -4.05231e-17
364 2 216.993 46.5322 -4.05231e-17
365 1 5.90356 164.433 -4.05231e-17
366 1 82.5271 172.959 -4.05231e-17
367 1 161.103 104.019 -4.05231e-17
368 1 20.8477 164.437 -4.05231e-17
369 2 81.7387 143.743 -4.05231e-17
370 1 6.64734 132.319 -4.05231e-17
371 2 71.5016 111.656 -4.05231e-17
372 1 87.9122 6.42955 -4.05231e-17
373 2 117.876 208.519 -4.05231e-17
374 2 177.056 101.898 -4.05231e-17
375 1 136.512 26.0272 -4.05231e-17
376 1 122.102 147.241 -4.05231e-17
377 2 95.0632 76.1946 -4.05231e-17
378 2 215.45 106.881 -4.05231e-17
379 2 169.516 187.239 -4.05231e-17
380 1 199.859 33.8847 -4.05231e-17
381 1 175.15 67.848 -4.05231e-17
382 1 122.499 27.193 -4.05231e-17
383 1 110.428 83.0265 -4.05231e-17
384 2 54.032 100.743 -4.05231e-17
385 1 66.2779 148.78 -4.05231e-17
386 2 179.848 175.599 -4.05231e-17
387 1 34.8139 107.291 -4.05231e-17
388 1 143.697 164.39 -4.05231e-17
389 2 215.943 121.243 -4.05231e-17
390 1 105.068 65.922 -4.05231e-17
391 1 203.388 217.671 -4.05231e-17
392 2 4.05462 100.634 -4.05231e-17
393 2 192.661 173.711 -4.05231e-17
394 1 36.6854 203.956 -4.05231e-17
395 1 19.3579 214.797 -4.05231e-17
396 2 75.3893 88.2887 -4.05231e-17
397 1 67.641 41.9901 -4.05231e-17
398 2 165.687 111.071 -4.05231e-17
399 2 196.829 106.619 -4.05231e-17
400 2 123.883 69.0121 -4.05231e-17
401 2 83.9432 190.578 -4.05231e-17
402 1 84.2886 43.0697 -4.05231e-17
403 1 69.5797 116.635 -4.05231e-17
404 2 113.252 13.9484 -4.05231e-17
405 1 49.2437 196.813 -4.05231e-17
406 2 216.875 95.6876 -4.05231e-17
407 1 123.832 78.8251 -4.05231e-17
408 1 130.203 29.3085 -4.05231e-17
409 2 214.119 116.19 -4.05231e-17
410 2 70.6555 159.078 -4.05231e-17
411 1 136.359 96.9774 -4.05231e-17
412 1 164.535 6.56319 -4.05231e-17
413 1 34.8292 85.9352 -4.05231e-17
414 2 193.155 202.323 -4.05231e-17
415 1 107.298 126.692 -4.05231e-17
416 1 176.034 51.6697 -4.05231e-17
417 2 107.543 129.367 -4.05231e-17
418 2 34.7922 179.703 -4.05231e-17
419 2 195.198 91.9671 -4.05231e-17
420 2 108.743 44.2679 -4.05231e-17
421 1 70.4136 30.8877 -4.05231e-17
422 1 34.5826 58.3066 -4.05231e-17
423 2 116.753 124.852 -4.05231e-17
424 2 39.3784 24.6717 -4.05231e-17
425 2 117.388 150.799 -4.05231e-17
426 1 185.83 97.1592 -4.05231e-17
427 2 75.3268 60.6385 -4.05231e-17
428 1 29.0261 175.158 -4.05231e-17
429 2 131.267 150.365 -4.05231e-17
430 2 111.663 104.288 -4.05231e-17
431 1 13.3751 9.01025 -4.05231e-17
432 2 173.814 3.12104 -4.05231e-17
433 1 186.496 198.549 -4.05231e-17
434 1 20.2882 205.109 -4.05231e-17
435 1 149.836 85.369 -4.05231e-17
436 2 85.13 198.815 -4.05231e-17
437 2 180.981 82.7809 -4.05231e-17
438 2 194.222 177.462 -4.05231e-17
439 2 93.0088 10.3055 -4.05231e-17
440 2 201.236 91.752 -4.05231e-17
441 1 130.852 167.498 -4.05231e-17
442 1 38.1335 104.549 -4.05231e-17
443 2 79.2128 81.9222 -4.05231e-17
444 1 204.465 104.881 -4.05231e-17
445 1 169.202 133.28 -4.05231e-17
446 2 183.195 150.681 -4.05231e-17
447 2 40.2183 40.3214 -4.05231e-17
448 2 205.996 175.799 -4.05231e-17
449 1 41.1922 176.913 -4.05231e-17
450 1 10.4135 126.307 -4.05231e-17
451 1 54.0235 209.039 -4.05231e-17
452 2 208.65 60.8849 -4.05231e-17
453 1 216.572 150.257 -4.05231e-17
454 1 3.10681 68.7079 -4.05231e-17
455 2 81.3844 131.131 -4.05231e-17
456 1 85.2791 1.70144 -4.05231e-17
457 2 140.454 145.26 -4.05231e-17
458 2 155.632 135.987 -4.05231e-17
459 2 133.154 51.5524 -4.05231e-17
460 1 197.207 170.082 -4.05231e-17
461 1 112.064 128.44 -4.05231e-17
462 1 103.759 196.342 -4.05231e-17
463 2 110.428 218.45 -4.05231e-17
464 2 13.5939 77.6487 -4.05231e-17
465 1 124.111 16.3941 -4.05231e-17
466 2 150.506 126.632 -4.05231e-17
467 2 65.6642 133.139 -4.05231e-17
468 2 124.068 125.619 -4.05231e-17
469 2 58.0603 71.4162 -4.05231e-17
470 2 209.008 154.55 -4.05231e-17
471 2 211.969 211.601 -4.05231e-17
472 2 110.952 36.9064 -4.05231e-17
473 2 198.126 214.9 -4.05231e-17
474 2 85.1314 146.821 -4.05231e-17
475 1 164.104 182.936 -4.05231e-17
476 2 174.953 34.5404 -4.05231e-17
477 1 208.932 218.113 -4.05231e-17
478 1 46.1847 188.007 -4.05231e-17
479 2 0.820385 197.578 -4.05231e-17
480 1 83.1102 61.7705 -4.05231e-17
481 1 2.93749 209.338 -4.05231e-17
482 2 152.819 176.73 -4.05231e-17
483 1 134.568 209.204 -4.05231e-17
484 1 66.2871 135.716 -4.05231e-17
485 2 13.474 173.933 -4.05231e-17
486 1 132.786 73.0498 -4.05231e-17
487 1 13.1217 202.134 -4.05231e-17
488 1 50.0049 83.2477 -4.05231e-17
489 1 70.2715 109.208 -4.05231e-17
490 1 164.725 73.4836 -4.05231e-17
491 1 163.119 75.4976 -4.05231e-17
492 2 209.189 15.3311 -4.05231e-17
493 1 93.9685 203.228 -4.05231e-17
494 2 78.02 66.3769 -4.05231e-17
495 1 150.199 92.2557 -4.05231e-17
496 1 52.2342 123.468 -4.05231e-17
497 1 136.845 110.112 -4.05231e-17
498 2 145.364 39.1225 -4.05231e-17
499 2 177.974 118.936 -4.05231e-17
500 2 57.2836 32.4576 -4.05231e-17
501 2 14.5935 139.571 -4.05231e-17
502 2 190.758 126.666 -4.05231e-17
503 2 57.7602 63.5659 -4.05231e-17
504 2 98.1171 50.2956 -4.05231e-17
505 2 112.176 213.708 -4.05231e-17
506 1 207.106 6.34214 -4.05231e-17
507 2 49.535 181.857 -4.05231e-17
508 1 140.772 59.4271 -4.05231e-17
509 1 209.677 47.2781 -4.05231e-17
510 1 195.403 104.272 -4.05231e-17
511 2 108.088 179.346 -4.05231e-17
512 1 11.0089 42.2951 -4.05231e-17
513 2 87.3438 183.09 -4.05231e-17
514 2 14.8707 87.2533 -4.05231e-17
515 1 60.4044 98.467 -4.05231e-17
516 2 101.264 74.0417 -4.05231e-17
517 1 32.1731 147.506 -4.05231e-17
518 2 10.3497 13.6566 -4.05231e-17
519 1 125.098 92.1304 -4.05231e-17
520 2 209.446 93.7101 -4.05231e-17
521 2 130.177 40.035 -4.05231e-17
522 1 186.986 7.28055 -4.05231e-17
523 1 127.464 99.5532 -4.05231e-17
524 2 175.171 18.5052 -4.05231e-17
525 2 185.148 45.6152 -4.05231e-17
526 2 108.126 16.3976 -4.05231e-17
527 1 170.701 25.2342 -4.05231e-17
528 1 213.026 202.111 -4.05231e-17
529 2 104.203 176.293 -4.05231e-17
530 2 18.1344 88.1724 -4.05231e-17
531 2 184.745 171.956 -4.05231e-17
532 1 80.9588 5.09772 -4.05231e-17
533 2 23.5466 158.306 -4.05231e-17
534 1 22.6099 168.44 -4.05231e-17
535 1 170.205 206.537 -4.05231e-17
536 2 18.0215 169.784 -4.05231e-17
537 1 142.55 29.4325 -4.05231e-17
538 1 68.1872 157.865 -4.05231e-17
539 2 80.7558 163.236 -4.05231e-17
540 1 35.1011 182.394 -4.05231e-17
541 1 105.135 128.643 -4.05231e-17
542 1 58.3743 126.448 -4.05231e-17
543 2 120.058 168.827 -4.05231e-17
544 1 217.976 211.815 -4.05231e-17
545 1 174.683 72.1716 -4.05231e-17
546 2 186.78 9.98307 -4.05231e-17
547 1 12.8599 71.8931 -4.05231e-17
548 1 29.3783 5.5443 -4.05231e-17
549 2 35.1699 152.254 -4.05231e-17
550 2 164.446 193.406 -4.05231e-17
551 2 38.8295 7.19916 -4.05231e-17
552 1 31.6807 51.9113 -4.05231e-17
553 2 207.014 196.84 -4.05231e-17
554 2 144.387 34.2596 -4.05231e-17
555 2 177.918 134.723 -4.05231e-17
556 1 177.582 211.806 -4.05231e-17
557 1 211.259 54.1809 -4.05231e-17
558 1 60.2955 142.902 -4.05231e-17
559 2 106.185 91.2378 -4.05231e-17
560 2 57.2178 89.2691 -4.05231e-17
561 2 110.441 181.512 -4.05231e-17
562 2 99.1857 65.8503 -4.05231e-17
563 1 73.2825 168.155 -4.05231e-17
564 2 103.535 78.5636 -4.05231e-17
565 2 33.7828 65.3079 -4.05231e-17
566 2 64.6084 60.5243 -4.05231e-17
567 1 95.3432 11.7432 -4.05231e-17
568 1 22.4403 77.8688 -4.05231e-17
569 2 141.504 194.351 -4.05231e-17
570 2 11.8047 21.1917 -4.05231e-17
571 2 5.21593 61.9819 -4.05231e-17
572 1 115.427 107.595 -4.05231e-17
573 2 37.9685 89.7054 -4.05231e-17
574 2 179.06 170.31 -4.05231e-17
575 1 196.185 206.748 -4.05231e-17
576 1 25.6269 68.3092 -4.05231e-17
577 1 127.784 74.7817 -4.05231e-17
578 1 183.694 115.549 -4.05231e-17
579 2 181.924 44.56 -4.05231e-17
580 1 109.098 103.626 -4.05231e-17
581 1 91.5594 146.371 -4.05231e-17
582 2 125.341 101.213 -4.05231e-17
583 2 103.486 83.8788 -4.05231e-17
584 2 107.139 151.345 -4.05231e-17
585 1 181.802 103.361 -4.05231e-17
586 1 143.643 80.0571 -4.05231e-17
587 1 158.234 112.03 -4.05231e-17
588 2 64.3397 108.701 -4.05231e-17
589 1 210.982 59.3525 -4.05231e-17
590 2 181.537 58.0632 -4.05231e-17
591 2 179.005 16.3707 -4.05231e-17
592 1 204.227 128.875 -4.05231e-17
593 1 127.073 90.2125 -4.05231e-17
594 1 5.38968 70.0611 -4.05231e-17
595 1 33.3777 62.6475 -4.05231e-17
596 2 106.964 71.3109 -4.05231e-17
597 2 63.6646 105.544 -4.05231e-17
598 2 135.843 87.7725 -4.05231e-17
599 2 96.7009 165.897 -4.05231e-17
600 2 48.9648 98.8376 -4.05231e-17
601 1 145.958 108.069 -4.05231e-17
602 1 173.477 51.9791 -4.05231e-17
603 2 216.897 159.804 -4.05231e-17
604 1 45.9237 179.061 -4.05231e-17
605 2 140.027 100.753 -4.05231e-17
606 2 150.383 99.1902 -4.05231e-17
607 2 47.6879 169.234 -4.05231e-17
608 2 128.322 31.2629 -4.05231e-17
609 1 77.8496 89.3311 -4.05231e-17
610 2 105.94 200.214 -4.05231e-17
611 1 1.66989 165.553 -4.05231e-17
612 1 207.109 117.806 -4.05231e-17
613 2 213.688 156.346 -4.05231e-17
614 1 202.671 30.5418 -4.05231e-17
615 1 152.087 104.235 -4.05231e-17
616 2 146.059 177.891 -4.05231e-17
617 1 168.911 0.798724 -4.05231e-17
618 1 137.089 216.614 -4.05231e-17
619 1 164.258 160.901 -4.05231e-17
620 2 42.8072 88.8621 -4.05231e-17
621 2 203.301 76.7836 -4.05231e-17
622 2 144.975 154.431 -4.05231e-17
623 2 108.699 147.15 -4.05231e-17
624 1 106.904 176.992 -4.05231e-17
625 2 208.415 79.8212 -4.05231e-17
626 1 210.807 190.143 -4.05231e-17
627 2 195.11 193.083 -4.05231e-17
628 1 116.545 156.34 -4.05231e-17
629 1 30.2152 40.9181 -4.05231e-17
630 2 133.397 213.907 -4.05231e-17
631 2 144.706 115.432 -4.05231e-17
632 2 209.294 19.8824 -4.05231e-17
633 2 60.6433 131.557 -4.05231e-17
634 2 191.302 67.5354 -4.05231e-17
635 2 80.2339 72.364 -4.05231e-17
636 1 88.31 130.928 -4.05231e-17
637 1 217.281 152.728 -4.05231e-17
638 1 116.697 69.2733 -4.05231e-17
639 2 200.647 65.1971 -4.05231e-17
640 2 149.33 78.2767 -4.05231e-17
641 1 199.961 96.6468 -4.05231e-17
642 2 162.006 35.5326 -4.05231e-17
643 1 165.349 57.8448 -4.05231e-17
644 2 139.399 155.165 -4.05231e-17
645 2 5.49778 75.1331 -4.05231e-17
646 1 169.607 142.631 -4.05231e-17
647 2 129.17 148.447 -4.05231e-17
648 2 190.505 211.746 -4.05231e-17
649 1 63.7431 145.342 -4.05231e-17
650 1 56.4121 153.086 -4.05231e-17
651 1 112.373 131.053 -4.05231e-17
652 2 8.73182 213.977 -4.05231e-17
653 2 195.612 45.2853 -4.05231e-17
654 1 208.452 164.733 -4.05231e-17
655 1 63.4966 47.8031 -4.05231e-17
656 1 199.093 10.3589 -4.05231e-17
657 1 125.065 120.386 -4.05231e-17
658 2 165.63 105.689 -4.05231e-17
659 2 101.472 137.325 -4.05231e-17
660 1 25.0766 11.9245 -4.05231e-17
661 2 15.7329 36.7209 -4.05231e-17
662 2 135.924 117.134 -4.05231e-17
663 1 163.547 113.03 -4.05231e-17
664 1 80.088 138.556 -4.05231e-17
665 1 135.586 144.276 -4.05231e-17
666 1 202.948 185.374 -4.05231e-17
667 1 0.229258 117.054 -4.05231e-17
668 1 134.08 157.175 -4.05231e-17
669 1 107.21 160.824 -4.05231e-17
670 2 211.913 160.985 -4.05231e-17
671 1 3.67871 16.1593 -4.05231e-17
672 1 193.555 141.735 -4.05231e-17
673 2 47.546 84.6628 -4.05231e-17
674 2 182.392 205.57 -4.05231e-17
675 2 152.74 1.89766 -4.05231e-17
676 1 180.805 159.863 -4.05231e-17
677 2 53.4384 53.3703 -4.05231e-17
678 1 86.8177 113.804 -4.05231e-17
679 1 87.2011 65.5166 -4.05231e-17
680 2 71.7835 13.7617 -4.05231e-17
681 1 5.156 9.07346 -4.05231e-17
682 1 141.45 171.922 -4.05231e-17
683 2 96.4932 123.321 -4.05231e-17
684 1 23.202 180.447 -4.05231e-17
685 1 83.6979 206.54 -4.05231e-17
686 1 142.917 159.612 -4.05231e-17
687 1 107.675 53.3839 -4.05231e-17
688 1 152.11 97.1046 -4.05231e-17
689 2 10.6078 139.456 -4.05231e-17
690 1 48.4363 120.76 -4.05231e-17
691 2 64.7576 114.906 -4.05231e-17
692 2 180.691 178.843 -4.05231e-17
693 1 161.423 96.0363 -4.05231e-17
694 2 147.001 150.062 -4.05231e-17
695 2 188.154 36.6786 -4.05231e-17
696 2 31.3805 82.3844 -4.05231e-17
697 1 103.956 35.8894 -4.05231e-17
698 2 41.1166 18.2612 -4.05231e-17
699 1 57.2736 202.828 -4.05231e-17
700 2 17.8603 126.2 -4.05231e-17
701 2 30.9363 63.7479 -4.05231e-17
702 1 160.659 9.65124 -4.05231e-17
703 1 195.615 60.4511 -4.05231e-17
704 1 160.002 122.239 -4.05231e-17
705 1 43.4413 120.354 -4.05231e-17
706 1 75.4289 161.67 -4.05231e-17
707 1 182.129 66.5211 -4.05231e-17
708 2 195.271 101.614 -4.05231e-17
709 1 54.2272 160.237 -4.05231e-17
710 2 91.9903 16.0825 -4.05231e-17
711 2 1.47846 139.263 -4.05231e-17
712 1 84.2827 213.885 -4.05231e-17
713 1 5.05862 152.307 -4.05231e-17
714 2 144.965 147.797 -4.05231e-17
715 2 133.208 87.1075 -4.05231e-17
716 1 86.9484 61.2261 -4.05231e-17
717 1 14.7869 61.2874 -4.05231e-17
718 2 78.6469 99.6756 -4.05231e-17
719 1 68.7462 202.965 -4.05231e-17
720 2 51.8817 196.981 -4.05231e-17
721 2 44.1902 213.154 -4.05231e-17
722 2 65.2735 138.11 -4.05231e-17
723 2 15.6941 165.677 -4.05231e-17
724 2 202.349 107.038 -4.05231e-17
725 2 21.6102 50.1109 -4.05231e-17
726 2 177.68 124.212 -4.05231e-17
727 2 35.6046 109.627 -4.05231e-17
728 1 176.514 77.0222 -4.05231e-17
729 2 167.183 131.731 -4.05231e-17
730 2 175.212 94.6952 -4.05231e-17
731 1 10.338 23.1705 -4.05231e-17
732 2 98.1634 87.3036 -4.05231e-17
733 2 147.75 147.059 -4.05231e-17
734 2 59.0311 191.898 -4.05231e-17
735 2 149.167 71.8718 -4.05231e-17
736 1 182.303 176.721 -4.05231e-17
737 2 48.7654 39.9388 -4.05231e-17
738 2 71.3888 207.962 -4.05231e-17
739 2 185.937 131.276 -4.05231e-17
740 2 40.6568 115.486 -4.05231e-17
741 2 200.593 113.728 -4.05231e-17
742 1 71.7823 98.9553 -4.05231e-17
743 2 78.7241 76.0261 -4.05231e-17
744 1 147.008 49.9754 -4.05231e-17
745 2 15.6632 75.5495 -4.05231e-17
746 1 218.67 121.485 -4.05231e-17
747 1 98.6118 163.293 -4.05231e-17
748 2 70.4404 197.825 -4.05231e-17
749 1 213.454 165.956 -4.05231e-17
750 1 139.409 148.034 -4.05231e-17
751 1 143.413 89.0376 -4.05231e-17
752 2 194.838 168.682 -4.05231e-17
753 1 37.1685 180.545 -4.05231e-17
754 2 65.9272 81.0037 -4.05231e-17
755 1 6.18587 80.5116 -4.05231e-17
756 2 178.332 58.0764 -4.05231e-17
757 1 110.761 15.3206 -4.05231e-17
758 2 99.2595 27.7678 -4.05231e-17
759 1 95.7581 133.495 -4.05231e-17
760 1 171.05 61.7837 -4.05231e-17
761 2 213.233 101.002 -4.05231e-17
762 1 178.508 106.347 -4.05231e-17
763 2 6.44229 157.44 -4.05231e-17
764 2 43.3777 188.054 -4.05231e-17
765 1 22.069 160.237 -4.05231e-17
766 2 100.187 48.0713 -4.05231e-17
767 2 206.467 148.871 -4.05231e-17
768 2 72.4165 62.2087 -4.05231e-17
769 2 188.142 98.6416 -4.05231e-17
770 1 134.233 18.5198 -4.05231e-17
771 1 64.8415 63.3157 -4.05231e-17
772 1 128.927 0.462608 -4.05231e-17
773 2 166.708 172.204 -4.05231e-17
774 1 88.1965 87.1908 -4.05231e-17
775 1 102.674 76.0324 -4.05231e-17
776 2 192.717 103.232 -4.05231e-17
777 2 42.3928 79.9436 -4.05231e-17
778 1 83.4863 12.5382 -4.05231e-17
779 1 48.0834 61.3605 -4.05231e-17
780 2 83.3529 49.6775 -4.05231e-17
781 1 25.8214 171.376 -4.05231e-17
782 2 122.726 170.363 -4.05231e-17
783 1 74.904 63.139 -4.05231e-17
784 2 96.8538 110.355 -4.05231e-17
785 1 204.272 82.2252 -4.05231e-17
786 1 41.4593 6.96409 -4.05231e-17
787 2 38.2299 208.708 -4.05231e-17
788 2 165.048 180.507 -4.05231e-17
789 2 18.3161 146.964 -4.05231e-17
790 2 77.3914 7.96764 -4.05231e-17
791 2 186.72 53.7724 -4.05231e-17
792 1 213.254 132.453 -4.05231e-17
793 1 96.8241 171.846 -4.05231e-17
794 2 209.664 6.39407 -4.05231e-17
795 2 10.4017 191.533 -4.05231e-17
796 1 69.1566 215.188 -4.05231e-17
797 1 46.0029 32.9219 -4.05231e-17
798 1 213.442 55.488 -4.05231e-17
799 2 105.521 155.601 -4.05231e-17
800 1 56.6022 37.1871 -4.05231e-17
801 2 68.3433 84.8967 -4.05231e-17
802 1 91.288 216.57 -4.05231e-17
803 1 143.402 25.0359 -4.05231e-17
804 1 210.213 125.003 -4.05231e-17
805 2 183.677 118.216 -4.05231e-17
806 2 178.911 158.096 -4.05231e-17
807 2 208.404 29.436 -4.05231e-17
808 2 76.4877 144.582 -4.05231e-17
809 1 175.801 63.2064 -4.05231e-17
810 2 24.2433 173.539 -4.05231e-17
811 2 180.027 55.5804 -4.05231e-17
812 1 121.857 184.806 -4.05231e-17
813 1 21.8807 95.9412 -4.05231e-17
814 1 2.99761 204.8 -4.05231e-17
815 1 146.029 32.1298 -4.05231e-17
816 1 206.973 51.0149 -4.05231e-17
817 2 63.2293 70.9457 -4.05231e-17
818 2 29.5943 122.913 -4.05231e-17
819 2 210.744 67.9525 -4.05231e-17
820 1 9.43871 58.9357 -4.05231e-17
821 1 65.2496 58.0812 -4.05231e-17
822 2 131.455 34.6499 -4.05231e-17
823 1 184.06 90.6421 -4.05231e-17
824 1 175.798 90.0366 -4.05231e-17
825 1 160.324 190.907 -4.05231e-17
826 2 178.46 81.6496 -4.05231e-17
827 2 102.413 27.0894 -4.05231e-17
828 1 50.3302 91.1873 -4.05231e-17
829 2 127.636 92.6969 -4.05231e-17
830 1 3.96806 156.756 -4.05231e-17
831 2 183.674 217.866 -4.05231e-17
832 2 26.6716 52.1831 -4.05231e-17
833 2 96.1608 41.9282 -4.05231e-17
834 1 70.8193 164.278 -4.05231e-17
835 1 185.02 141.474 -4.05231e-17
836 1 153.247 69.6241 -4.05231e-17
837 2 168.053 92.2603 -4.05231e-17
838 2 91.9054 26.3253 -4.05231e-17
839 1 39.2236 32.0698 -4.05231e-17
840 2 13.7843 117.293 -4.05231e-17
841 2 201.668 10.3632 -4.05231e-17
842 1 173.082 159.474 -4.05231e-17
843 1 205.119 29.8302 -4.05231e-17
844 2 8.66525 25.3632 -4.05231e-17
845 1 47.0213 150.666 -4.05231e-17
846 2 127.635 211.072 -4.05231e-17
847 1 88.6437 143.179 -4.05231e-17
848 2 112.764 8.76165 -4.05231e-17
849 1 24.9045 32.9807 -4.05231e-17
850 2 60.0815 67.2047 -4.05231e-17
851 2 216.509 30.7397 -4.05231e-17
852 1 137.147 182.846 -4.05231e-17
853 1 186.111 105.418 -4.05231e-17
854 2 103.711 144.832 -4.05231e-17
855 2 165.542 121.065 -4.05231e-17