ITEM: TIMESTEP
0
ITEM: NUMBER OF ATOMS
32000
ITEM: BOX BOUNDS pp pp pp
-35.4018 35.4018
-35.4018 35.4018
-35.4018 35.4018
ITEM: ATOMS id type x y z 
1 1 6.87758 -0.100676 -25.3847 
2 1 1.87301 25.3394 -3.6257 
3 1 -4.17215 33.4857 -10.4193 
4 1 28.1852 20.6785 32.3236 
5 1 35.0301 29.9783 -17.1455 
6 2 -24.0935 13.2308 -16.5385 
7 1 -23.207 -27.1174 26.1493 
8 1 7.18457 -2.96426 -32.6592 
9 1 7.55823 18.9504 17.1035 
10 1 -4.68002 23.4425 2.39108 
11 2 -10.9789 24.8768 6.42681 
12 1 -15.2594 12.0682 26.7648 
13 1 30.4122 -10.7273 -21.3428 
14 1 -23.6528 -33.6032 -16.1007 
15 1 -11.4035 -15.5911 -5.02568 
16 1 -2.65827 25.6902 -32.7732 
17 2 -17.0914 -12.9243 33.2371 
18 1 -7.12414 -28.9663 -19.4765 
19 1 -4.18724 34.0669 -33.4734 
20 1 -1.4956 -8.29623 -12.9246 
21 2 -30.323 -2.43732 -0.932805 
22 2 -17.7275 24.7205 20.5714 
23 1 -20.9351 -26.4669 -4.72497 
24 1 22.0536 -11.9968 -33.2395 
25 1 -12.4723 -33.4079 -24.9378 
26 1 -26.5607 -17.1929 -9.62387 
27 1 15.063 29.7364 -25.4303 
28 1 2.99429 -7.67364 -16.0884 
29 1 12.6767 -22.8118 27.9599 
30 1 -12.2099 26.279 -7.80252 
31 1 33.7026 -32.5887 -21.3437 
32 1 5.52385 31.2081 27.168 
33 1 9.38679 17.7023 -13.5851 
34 2 -16.5746 -23.0052 -21.9121 
35 1 4.91227 28.7175 -32.3475 
36 2 -30.9054 -6.37944 -19.204 
37 2 34.4513 -0.534916 12.5698 
38 1 -25.9356 26.89 9.99775 
39 1 29.3313 -1.79521 5.51253 
40 1 12.7308 -8.69821 31.366 
41 2 17.5447 -34.2227 19.0894 
42 1 -31.0759 -0.129483 -32.9707 
43 1 -1.48848 -26.8838 -26.5582 
44 1 11.7768 23.2091 -26.7984 
45 1 33.2426 -3.13683 -8.61832 
46 1 34.5257 31.7423 -25.6195 
47 1 7.47783 9.1433 -24.8379 
48 1 -16.9382 -22.3611 16.1772 
49 1 15.2823 -4.87715 2.86032 
50 1 17.666 12.1148 35.016 
51 2 -12.9275 15.9883 7.34231 
52 1 -27.8479 -9.9756 -1.52689 
53 1 8.03403 28.6887 -4.75205 
54 1 -30.4418 -0.539787 14.3061 
55 1 -20.879 -0.65156 15.541 
56 2 -31.9693 -15.1262 -19.163 
57 1 -32.4184 -0.894916 -28.6356 
58 1 -23.5793 2.99992 -18.9197 
59 1 3.32184 -15.3686 -12.6273 
60 2 26.4727 9.25472 1.74109 
61 2 16.8727 30.6472 -6.33385 
62 1 -8.5225 10.8507 -3.02959 
63 1 -21.8324 21.1414 -0.778551 
64 1 10.2648 -28.2715 26.7122 
65 1 -13.5823 -5.33225 -24.1791 
66 1 33.7343 22.1605 25.6099 
67 1 22.806 -1.03863 31.2788 
68 1 -20.8412 23.0909 -10.7992 
69 1 -3.22697 4.86719 -26.8975 
70 1 -0.524461 -11.364 -5.60868 
71 2 -9.64599 -25.1191 10.1372 
72 1 7.14815 -13.0105 -17.1987 
73 2 7.28534 -31.4512 10.9547 
74 1 -13.695 11.1742 -29.6076 
75 1 -29.8331 23.5606 -7.4746 
76 1 32.8852 -21.9303 23.3157 
77 1 7.99552 23.5052 21.0047 
78 1 31.7203 15.1794 26.9452 
79 1 24.8882 -10.7853 -8.10275 
80 1 -11.1783 -5.42238 -22.5945 
81 1 -0.431576 14.7079 6.41952 
82 1 6.4957 6.70699 -6.29831 
83 2 0.687944 7.40068 -11.8946 
84 2 -31.31 10.9672 7.97244 
85 1 5.59855 0.860905 4.9387 
86 1 9.02907 -17.8241 24.6592 
87 1 23.0786 10.6596 17.0217 
88 1 16.3355 3.50027 -24.5749 
89 1 -4.86967 14.3764 1.20898 
90 2 12.2711 -26.2981 -33.0545 
91 2 24.3379 35.0535 -29.9882 
92 1 -31.7969 14.7509 -15.6721 
93 1 -25.2747 7.19428 -32.8478 
94 1 28.7229 -31.7531 1.74654 
95 2 -18.5073 1.50074 -4.96915 
96 1 -3.79994 22.9709 -13.5804 
97 1 -21.5271 13.6452 11.1957 
98 2 -15.3019 -22.4506 -33.8833 
99 2 -25.0909 31.3772 18.7823 
100 1 21.6444 -31.4841 -0.504191 
101 1 -31.2068 -26.5232 23.2998 
102 2 27.8647 20.1903 10.2195 
103 1 9.35851 23.0031 -19.6254 
104 1 -15.5417 -3.10394 -0.220454 
105 1 12.26 -26.5513 -20.3263 
106 1 -18.4807 -8.94117 33.6881 
107 1 11.5798 -25.25 34.0573 
108 1 33.4435 -12.9348 19.4028 
109 2 10.4941 -26.9764 0.280664 
110 2 -16.0417 13.9664 -8.48008 
111 1 -5.33294 12.2623 21.0696 
112 1 26.45 21.2562 -9.03568 
113 1 1.54861 -3.17405 14.3314 
114 1 -22.8956 -6.29155 34.4976 
115 2 -24.4603 31.8673 34.9625 
116 1 24.5315 32.085 -24.5699 
117 1 17.2592 -25.4687 15.501 
118 1 10.9329 0.82649 -7.33589 
119 1 -22.9895 -10.1125 -21.3085 
120 1 -5.82682 34.7543 -25.446 
121 2 -2.44841 4.43527 -9.25493 
122 2 3.41564 32.6664 17.0287 
123 1 -16.0143 -10.9596 33.0825 
124 1 -9.0944 -9.02394 -16.791 
125 1 7.9548 35.2233 8.85208 
126 1 -18.7491 -34.6402 -8.84614 
127 1 30.1384 28.6569 31.949 
128 2 14.4421 10.7767 4.26887 
129 1 13.3132 -25.9795 -35.0743 
130 2 -25.1957 24.9164 19.88 
131 1 31.6376 12.8332 -20.3417 
132 1 18.5333 16.2614 35.0958 
133 1 -11.9001 -19.1696 25.7209 
134 2 15.8896 30.2046 6.64052 
135 1 -23.8573 -17.1856 -1.565 
136 1 -33.3711 -35.203 31.7742 
137 1 17.2731 21.5885 29.9458 
138 2 -26.4346 -9.88834 9.4487 
139 1 -18.0196 -27.4611 -20.2374 
140 2 31.3464 24.9567 8.38534 
141 1 -21.9737 28.14 29.5211 
142 1 -27.792 -11.5094 -29.902 
143 1 -6.82119 15.461 14.5534 
144 1 -31.1353 -16.6894 24.5024 
145 1 33.3407 -30.065 -9.99403 
146 1 29.0682 -28.9038 22.0333 
147 1 -20.8982 13.189 -13.7734 
148 1 -3.70771 -5.34668 -15.285 
149 2 -19.7807 12.4884 19.6157 
150 1 -22.5137 -9.06673 16.934 
151 1 32.2587 -1.21841 -22.8514 
152 1 21.897 -33.3714 -20.5198 
153 1 11.6755 10.5262 33.5576 
154 1 2.14851 17.7892 -22.5066 
155 1 29.9107 -10.2651 -10.9487 
156 2 -2.56752 -9.76436 24.0212 
157 1 33.7322 -2.32589 8.53566 
158 2 27.1205 34.2322 -15.2971 
159 1 5.87603 -28.5769 -10.6767 
160 1 -9.07528 -2.3777 -0.228782 
161 1 12.7838 -17.277 -26.4741 
162 1 28.8203 -7.30061 -24.066 
163 2 19.7726 31.0986 32.7517 
164 1 20.944 -5.93818 -25.2892 
165 1 -26.9758 32.885 4.38766 
166 1 9.35742 -30.5898 27.3582 
167 1 -33.9107 2.73772 12.803 
168 2 33.446 4.76009 11.3386 
169 1 -11.4805 -20.556 23.7899 
170 1 -25.5981 18.7017 -30.0647 
171 2 5.35206 16.0383 19.5508 
172 1 -17.3471 27.8524 -20.8872 
173 1 13.4993 3.69153 -6.15406 
174 1 -32.366 -7.49626 6.45096 
175 1 -20.8585 -32.2753 23.4464 
176 2 11.1379 15.5333 -28.6107 
177 2 32.7302 9.54239 -21.4326 
178 1 -8.77189 -3.24774 22.5011 
179 1 5.33689 0.569204 -15.9461 
180 1 -1.24857 3.7103 -3.26692 
181 1 -6.42678 33.4294 31.7266 
182 2 -16.9914 -8.07806 -6.89185 
183 1 -8.73055 24.3639 22.8359 
184 2 -9.22682 -14.8284 21.7681 
185 1 22.7288 -7.25798 -21.765 
186 1 28.5389 -32.9079 15.2936 
187 1 20.464 -23.0812 -19.3489 
188 1 -23.1999 20.2782 -2.59474 
189 2 21.0979 -10.0923 22.5583 
190 2 26.439 5.87245 3.79035 
191 1 15.3751 19.4502 -10.4318 
192 1 -20.0598 28.0826 0.990285 
193 1 13.5342 5.73366 17.9445 
194 1 -33.5116 5.94529 -27.8083 
195 1 -21.7569 -19.1736 25.5249 
196 2 19.7493 -18.9828 -29.9394 
197 1 -13.1455 -20.5599 27.3138 
198 2 -26.192 12.5172 -12.4974 
199 1 -1.28778 33.1435 29.1785 
200 1 5.61101 16.5234 -5.33518 
201 1 -9.89559 -21.9596 -31.5271 
202 1 -1.94016 -29.9158 27.3331 
203 2 2.41229 22.9074 22.2463 
204 1 -31.0783 -30.2221 -14.2088 
205 1 18.455 -13.8019 -32.5953 
206 1 -27.0327 -16.0118 -28.3306 
207 1 32.0169 -17.114 -27.5455 
208 1 -6.87198 13.6321 6.51115 
209 2 2.92315 8.12603 15.2941 
210 2 11.7413 12.2109 29.2873 
211 1 -4.37721 -11.5499 -15.1671 
212 1 -24.7543 -12.8198 -3.95759 
213 1 -28.9912 24.5702 21.2559 
214 1 -34.7988 6.54223 28.9729 
215 1 -6.13114 -1.89004 -7.93439 
216 1 -12.0536 -16.0707 23.3089 
217 1 -22.4457 -22.6237 -33.6621 
218 1 25.3345 -27.0542 21.347 
219 1 19.5461 -14.6249 29.4037 
220 1 17.1137 4.76845 -14.2648 
221 1 -35.0359 -21.0284 10.6844 
222 2 3.93702 -29.4207 -19.5796 
223 1 18.1827 20.9044 6.8112 
224 1 -25.5986 32.1309 24.5829 
225 1 -0.517591 -2.84762 -10.3599 
226 1 19.8969 -34.3681 -34.2782 
227 1 -19.0583 -6.16469 34.4492 
228 1 -28.8143 -31.9739 -22.1352 
229 2 -24.0429 -28.4631 -28.8426 
230 1 26.121 32.1849 -14.5739 
231 1 13.1469 -31.8073 22.2935 
232 1 -11.8349 27.9413 -19.816 
233 1 13.5623 -14.0624 29.6525 
234 1 -1.63753 -23.4874 -0.435945 
235 1 6.54172 13.9882 7.55601 
236 1 -25.3551 -30.4923 -2.33003 
237 1 17.8384 27.0468 3.66246 
238 1 -33.0363 19.6125 33.8884 
239 1 2.98678 13.7462 30.7135 
240 1 32.9158 -2.63746 -21.1139 
241 1 -14.5053 -22.039 -19.5333 
242 2 0.0362795 -27.236 -30.0133 
243 1 30.5953 33.6039 7.32244 
244 1 -5.79586 -14.6638 -35.2411 
245 1 11.9295 32.0422 -23.7626 
246 1 -1.23802 -19.8522 4.11037 
247 1 -20.8262 14.8048 5.58721 
248 1 -20.8649 26.1821 -8.96641 
249 1 11.8561 31.6982 -2.97925 
250 1 -18.2553 34.5779 -28.3492 
251 1 22.749 6.49752 21.3259 
252 1 23.9028 -11.3991 9.87149 
253 1 34.6837 -19.4674 -23.9729 
254 1 -9.12051 -9.71318 -10.3333 
255 1 -35.3833 -22.3676 -18.1007 
256 1 -13.8541 27.036 -30.2745 
257 2 -4.65621 -26.2058 -4.82666 
258 1 18.9001 18.4105 -14.9996 
259 1 -29.2829 5.92124 26.826 
260 2 32.9882 2.33377 -14.4566 
261 1 17.062 -28.13 -30.5167 
262 1 -32.2956 28.45 14.1128 
263 2 20.2287 32.8029 17.8594 
264 1 15.9429 14.7499 -4.00461 
265 1 23.0481 -10.9041 21.7822 
266 1 6.64972 -21.022 -10.3777 
267 1 -4.58586 -21.7491 -25.3653 
268 1 -29.5928 12.5089 -20.7957 
269 1 20.8976 30.5597 -34.4081 
270 2 3.70592 8.34837 21.0467 
271 1 13.1686 -18.8173 9.8511 
272 1 14.7996 11.6656 24.6679 
273 1 -9.31385 17.1747 31.4787 
274 2 31.8845 -0.824118 -17.1179 
275 1 32.8091 -12.6125 -34.4905 
276 1 4.76501 18.0424 10.8327 
277 1 5.13767 25.0403 -21.8777 
278 2 26.7009 -8.67116 -31.3624 
279 1 -15.5738 9.70815 -5.07599 
280 1 -27.9921 -28.8284 -30.5502 
281 2 -1.5921 17.3419 -27.2788 
282 1 3.12311 -14.5301 -16.8259 
283 1 4.64076 -34.8286 -4.86375 
284 1 -6.03443 30.784 -28.2948 
285 2 16.8511 20.2571 -5.91819 
286 1 -23.2262 33.615 -18.799 
287 2 21.7009 -24.3263 -33.5838 
288 1 19.9591 -10.8413 -34.0328 
289 1 -8.97096 -7.51267 8.07095 
290 2 11.9108 34.4774 19.669 
291 1 0.824102 20.1787 12.5306 
292 1 17.4714 34.5208 20.3293 
293 1 -29.1332 4.71333 -25.9713 
294 1 -32.7612 15.0531 -5.61089 
295 2 -33.602 19.0756 -11.9298 
296 2 27.8602 34.6299 -31.2496 
297 2 8.99963 -2.44948 -27.3043 
298 1 -14.7311 18.4735 10.0127 
299 1 1.31259 -33.6694 28.5649 
300 1 20.3084 -26.997 -17.541 
301 2 -12.0912 22.3113 -26.3631 
302 2 -30.6706 28.4944 -33.9614 
303 1 -21.1162 -7.09313 -14.1079 
304 1 -5.29328 -23.2629 15.2002 
305 2 29.9518 6.07672 28.423 
306 1 -24.1863 2.05626 -23.0802 
307 1 -35.0671 -25.6973 -32.8358 
308 2 14.2628 -2.96518 12.0551 
309 1 15.7533 -23.763 16.6739 
310 1 -16.1901 -9.68401 -32.2844 
311 1 27.9828 30.1112 1.39553 
312 2 3.55111 -25.7903 3.64329 
313 1 -14.9898 11.2369 -27.511 
314 1 -10.8441 -21.738 -1.26277 
315 1 -15.668 10.7937 13.1353 
316 1 16.3304 -10.1866 -11.7712 
317 1 -15.0927 18.0956 29.791 
318 1 34.6486 23.1439 16.6361 
319 1 13.8066 -5.44633 -10.9098 
320 1 2.33034 -33.8962 -8.65681 
321 1 -33.6007 21.2365 -12.1186 
322 1 34.0956 -0.739568 -2.39777 
323 1 13.3684 -13.0117 -22.1997 
324 1 -3.12727 -7.02462 30.0957 
325 1 4.98117 -14.567 -20.9071 
326 1 2.59427 -28.1931 -31.0245 
327 1 33.9515 -3.20979 18.2626 
328 1 15.5657 -1.66567 28.7467 
329 1 35.076 14.6227 -7.17768 
330 2 15.6981 -0.567991 -7.01765 
331 1 29.2384 2.26465 8.69114 
332 1 -19.2387 -18.307 15.0829 
333 1 -15.0465 -2.40006 5.73229 
334 1 26.4378 -3.51758 15.9492 
335 2 20.5179 12.4907 23.7641 
336 1 21.0338 23.4394 28.2274 
337 1 31.897 -14.2799 -14.9302 
338 1 21.2262 -11.662 -26.9453 
339 2 15.1098 -10.6635 13.8575 
340 1 33.3377 -34.2718 -34.6888 
341 1 3.4147 -18.7391 -18.9941 
342 1 -3.06368 -1.04789 2.39996 
343 1 33.5033 9.19943 13.521 
344 1 -25.4891 -3.99761 2.83697 
345 1 12.2667 34.6869 7.63232 
346 1 -27.3463 -25.403 -18.4343 
347 1 -10.1935 27.0515 -18.3269 
348 1 -33.4025 -32.9749 -14.8678 
349 1 -19.4558 10.931 0.799597 
350 1 -20.6846 -15.1633 12.3732 
351 1 11.2702 -2.68448 -26.5455 
352 1 22.7452 23.9677 24.8829 
353 1 4.72874 -31.5101 28.1495 
354 2 -27.222 25.56 34.16 
355 1 -23.683 13.4514 -14.0891 
356 1 -21.5584 9.04042 20.6278 
357 1 -1.09527 30.8994 -32.5207 
358 1 -2.21006 28.5629 11.7755 
359 1 34.5378 -29.3581 4.44907 
360 1 11.4519 -16.5686 32.5126 
361 1 15.0922 2.41327 -4.85136 
362 1 30.0608 15.0311 28.6481 
363 2 -15.1119 -8.70153 -25.5916 
364 1 -19.2287 24.6343 10.2356 
365 1 23.9385 13.088 -24.1938 
366 1 -21.9505 -26.683 32.3655 
367 1 17.2653 14.9497 4.59043 
368 1 23.4749 -19.7774 7.70738 
369 1 -16.6332 -10.4206 8.13613 
370 1 32.5052 3.57665 -31.8475 
371 1 11.2173 -32.0826 -17.1611 
372 1 29.929 10.6102 -4.9196 
373 1 33.5373 23.0935 -10.8413 
374 1 25.7005 -6.64658 -16.0112 
375 1 -9.47125 9.14362 6.69518 
376 1 27.3053 5.62351 8.02463 
377 2 14.6078 -8.29952 -33.732 
378 2 -28.927 -6.50347 11.5885 
379 2 -10.666 -21.9119 14.6318 
380 2 1.60149 -22.6473 6.06377 
381 1 -3.58538 13.0492 -18.4223 
382 2 31.7776 -34.1263 -10.0566 
383 1 2.89923 -18.9462 22.2702 
384 1 -0.118591 19.8593 -16.6432 
385 1 -10.0906 -22.4013 -14.9378 
386 1 -1.01852 30.9631 -0.418384 
387 1 -8.64944 25.8329 20.8015 
388 2 -21.8366 -5.66282 11.2193 
389 1 -1.40406 -19.2678 -8.51756 
390 2 25.9111 -35.1058 6.52527 
391 1 20.7981 6.90773 6.21363 
392 1 -0.28496 19.0272 -1.72702 
393 2 -17.0235 5.89916 23.4788 
394 2 -33.7277 -18.5351 27.2056 
395 2 -31.6945 -30.0305 -20.8412 
396 1 19.7618 24.0308 -10.8045 
397 1 16.3945 -1.30072 26.6399 
398 2 14.4907 23.0443 33.4594 
399 2 -18.8535 -16.6534 19.2712 
400 1 -19.6348 -24.7894 11.2702 
401 1 -19.1347 -20.0484 22.7545 
402 1 27.6885 -20.8821 -13.5031 
403 1 33.8084 -1.46109 -4.54905 
404 1 -1.21452 -21.8283 30.2075 
405 1 -17.5414 -20.2174 20.5868 
406 1 -28.0184 -0.616381 -28.6885 
407 2 -16.4339 -22.0333 27.8313 
408 2 19.5983 -12.3536 28.7492 
409 2 17.2096 -34.2985 -31.1162 
410 1 -2.53344 -6.15362 -1.49607 
411 1 16.6503 26.514 26.8021 
412 1 -4.48127 7.80295 -2.37109 
413 1 27.1967 23.9246 -21.4496 
414 1 4.99385 -6.51167 -34.7244 
415 1 -16.6531 13.558 8.10911 
416 1 -33.0956 -17.236 -29.9406 
417 1 19.3971 1.61776 -4.62681 
418 1 27.9919 -29.4189 -20.1998 
419 1 -7.57803 15.9871 32.9224 
420 1 -32.5451 -10.5259 27.4131 
421 2 -8.94073 -32.257 16.3284 
422 1 -28.371 -32.209 29.1444 
423 1 13.1064 2.67036 32.6491 
424 1 -15.6245 -34.8981 8.92969 
425 2 -15.833 6.07208 -31.1811 
426 1 17.8266 15.0921 -14.4651 
427 1 -25.9809 -25.4151 31.5481 
428 1 -14.2972 8.7389 -17.6267 
429 1 6.08411 -32.4324 35.3744 
430 1 25.9202 -11.766 11.3009 
431 1 -14.4235 1.76223 10.6418 
432 1 -12.3569 -0.732037 17.3879 
433 1 -4.8334 2.45059 8.1115 
434 2 1.08852 -31.3933 -23.0427 
435 2 18.283 14.1263 -29.9473 
436 1 11.0952 -19.8321 -26.2301 
437 1 16.1816 -34.0167 34.2209 
438 1 26.2403 32.9156 19.5114 
439 2 -34.9201 -6.38874 -12.0527 
440 2 3.20009 -23.1743 -16.1772 
441 1 28.9097 -16.5163 32.4567 
442 1 16.8042 10.829 32.9775 
443 1 -22.7275 12.8278 -29.6544 
444 2 -1.28283 -14.7677 22.4254 
445 1 -20.9949 12.5197 6.3941 
446 1 32.3466 -6.34689 -1.76636 
447 2 -19.6789 21.1263 7.18715 
448 2 -18.6069 -2.1262 11.9144 
449 1 -12.4593 21.7308 21.4514 
450 1 -23.9237 31.3474 -24.1173 
451 1 -25.3403 17.8887 -34.7023 
452 1 8.81041 11.8365 -1.76333 
453 1 -9.15555 13.2134 -32.763 
454 1 34.6578 -7.9467 -25.9017 
455 1 29.4873 -26.6489 21.1579 
456 2 9.83874 5.85506 8.54976 
457 1 -20.658 6.90016 32.4423 
458 1 19.8974 11.5457 6.16312 
459 1 26.5182 -26.9236 -17.7293 
460 1 -7.2184 35.2907 -30.0487 
461 2 28.1893 25.9255 33.5839 
462 2 34.0043 -25.8502 -29.344 
463 1 29.6177 25.1964 -29.0845 
464 1 -23.002 22.4341 -20.8904 
465 1 5.97467 -1.55711 1.18499 
466 1 -4.92495 14.3175 22.1397 
467 1 -33.8519 -20.7607 -11.9062 
468 1 0.475757 -32.2398 -12.8914 
469 2 9.5184 23.9351 14.2887 
470 1 -19.0295 2.2177 8.7864 
471 1 -30.4691 -13.0799 -12.4284 
472 1 19.3434 -15.6379 19.8026 
473 2 26.6062 16.9884 -18.9854 
474 1 -25.3557 -6.92656 9.34352 
475 1 2.60407 -16.7072 11.1164 
476 2 33.0544 26.1963 -24.6489 
477 1 10.0029 3.74805 30.1891 
478 1 34.5901 21.1791 15.052 
479 1 30.1752 8.16783 11.3046 
480 2 11.5893 -15.6347 21.2716 
481 2 -30.9549 34.5045 32.3569 
482 2 -3.19577 24.693 32.5248 
483 1 25.8555 -6.04645 -18.4221 
484 1 7.28132 24.6229 15.1757 
485 1 -26.1207 -22.0991 -26.6528 
486 1 -23.2962 21.7081 23.4925 
487 2 -21.1931 -24.0027 15.0801 
488 1 -8.71652 21.3597 16.5379 
489 2 -30.7652 11.4712 -5.96624 
490 2 -27.6417 -34.2164 -6.78038 
491 2 -24.8614 5.3405 -10.1336 
492 1 -31.3989 30.1999 -29.9405 
493 1 -20.218 -23.6599 -11.104 
494 1 8.70368 20.0924 -31.6282 
495 1 7.12774 8.16769 -14.3938 
496 1 -12.182 -16.3073 -29.9645 
497 2 -11.2483 -15.8473 5.55092 
498 1 3.22729 -1.40033 -11.7356 
499 1 -11.0401 26.7322 34.3407 
500 1 -6.64018 21.5738 -34.9184 
501 1 -6.52477 -6.19164 24.3071 
502 2 27.4329 26.4461 -26.0434 
503 1 3.1982 29.185 -11.2802 
504 1 -10.1432 -11.018 -12.32 
505 2 21.8111 -21.442 -19.8442 
506 1 24.9897 -1.2968 5.3137 
507 1 -28.8308 -0.528355 10.2335 
508 1 -21.303 18.34 -2.96133 
509 2 1.16068 11.7112 -28.0016 
510 1 7.19846 -12.4564 -0.000852011 
511 1 33.6721 -27.3171 5.52262 
512 1 -16.3936 12.3704 31.7985 
513 1 22.9228 -9.2564 -14.4953 
514 1 -27.7485 8.41007 -6.62397 
515 1 15.5175 22.7717 0.0293361 
516 1 -4.33361 -29.5281 35.2016 
517 1 3.56985 -28.5326 -3.79414 
518 1 -16.6912 -20.2541 -25.4493 
519 2 29.3609 27.0606 -21.325 
520 1 17.1466 -33.7327 -8.93886 
521 1 25.1827 -33.8326 -29.3333 
522 2 -5.65425 -31.1726 -34.8112 
523 1 -16.2163 24.7679 24.2238 
524 1 0.634757 19.2085 -18.8135 
525 1 11.1594 21.0016 -15.2051 
526 1 25.1056 32.8905 3.58022 
527 1 -16.2711 -12.8096 -31.3926 
528 1 -9.54695 -2.84273 5.3751 
529 1 -11.1243 18.3172 -16.7006 
530 1 -26.8674 21.744 18.2321 
531 1 5.09802 21.842 28.0604 
532 2 30.4787 6.53547 -24.2148 
533 1 20.3679 14.9389 31.806 
534 1 -14.5126 25.446 19.8217 
535 1 -6.16079 -11.4344 18.2567 
536 2 -17.6395 22.5734 -8.53303 
537 2 7.08552 -13.322 -7.61592 
538 1 -6.98823 28.9464 -14.0145 
539 2 15.3118 -28.6161 6.63414 
540 1 -5.50944 6.1767 30.4384 
541 1 22.4057 32.6418 27.7706 
542 2 -20.312 -12.7188 -3.07805 
543 1 10.553 34.2006 28.3285 
544 1 6.10205 -29.3944 15.1983 
545 2 31.4063 -13.5614 7.90186 
546 1 31.1087 -13.1212 -21.7791 
547 1 33.356 3.0502 31.8464 
548 2 -32.2626 -32.2942 18.0987 
549 1 14.6416 -25.3028 10.1812 
550 2 11.3643 0.541297 -17.0612 
551 1 -26.7044 27.009 -11.4395 
552 1 22.4536 31.0549 -12.6589 
553 1 26.7917 -18.6782 10.6405 
554 1 -4.58182 7.71153 7.49339 
555 1 22.8984 7.51034 -31.2591 
556 1 -17.5802 -10.2124 -7.28069 
557 1 -35.2452 22.8336 27.1358 
558 1 -32.821 17.5957 -24.4307 
559 2 -11.1976 34.8236 35.1041 
560 1 -20.1221 15.336 -27.4436 
561 1 11.6182 -0.973546 1.46125 
562 1 -23.4067 20.5669 8.04246 
563 1 -22.5184 32.6559 15.867 
564 1 -5.70208 14.0326 -30.7445 
565 1 15.0839 -15.9446 -19.637 
566 1 31.7086 -33.3488 29.0225 
567 2 32.8931 4.58247 -10.2259 
568 1 -31.0862 -14.5962 4.66282 
569 2 -6.55702 -13.7413 -27.0938 
570 1 -34.5087 -2.34241 34.9041 
571 1 -10.7845 -26.7032 -13.2669 
572 1 32.4635 -0.109246 -28.1425 
573 1 -4.87924 -17.7822 19.4817 
574 1 25.8621 -33.48 4.36212 
575 2 -8.62702 -26.0932 -26.9227 
576 1 -23.2657 -0.0197386 -22.69 
577 2 -7.9492 -8.4541 6.35604 
578 1 -18.5048 15.9878 -16.2199 
579 1 22.8959 23.3275 -2.95582 
580 1 -11.4395 -9.2293 24.5766 
581 2 14.2877 3.92445 -30.7548 
582 1 13.3362 -28.5606 -20.9379 
583 2 -10.4798 -13.9554 -3.82035 
584 1 -33.8256 16.4662 12.1435 
585 2 34.2858 8.27348 -25.3307 
586 2 11.6728 -23.1757 -25.0587 
587 1 28.1312 -1.54525 -14.6498 
588 2 18.7796 32.0342 -3.27791 
589 1 31.1501 -0.143938 0.84656 
590 1 24.4447 -22.3647 0.548929 
591 1 25.4557 -20.825 -24.7132 
592 1 31.0067 -15.6509 3.12917 
593 2 -33.707 -10.3916 3.62962 
594 1 -22.4863 27.5066 -7.74704 
595 2 22.9444 24.3239 14.2306 
596 2 -19.5908 -34.73 -24.2298 
597 1 32.6821 8.03695 -12.9118 
598 1 18.516 15.7663 -19.3602 
599 2 33.1961 -16.9661 2.81908 
600 1 -19.0079 -18.6749 33.8979 
601 1 18.2178 9.28484 15.8157 
602 1 21.5889 -19.8524 -22.0888 
603 1 12.2663 27.0097 -25.0065 
604 1 -13.0186 -24.446 12.0539 
605 1 24.4017 -30.1847 11.2281 
606 1 -14.3845 13.1211 6.65841 
607 1 -8.03496 -14.9372 7.93471 
608 2 34.8583 29.6834 -26.4699 
609 1 -24.027 -13.3061 -29.972 
610 1 35.3482 6.0053 10.3819 
611 1 11.4244 -17.5258 30.2228 
612 1 -23.2261 -6.97286 -29.1692 
613 2 -9.01135 16.7921 -1.61966 
614 1 34.3971 -16.4348 -17.5192 
615 1 2.43162 19.0459 17.8835 
616 1 7.13947 -19.2154 23.5177 
617 2 -17.6814 16.6455 32.7767 
618 1 -19.6946 -18.0378 -5.05544 
619 1 30.7404 -4.58229 -30.0194 
620 1 28.1169 -1.7067 -7.1557 
621 1 17.7425 -23.1259 -33.5478 
622 2 -20.8114 16.902 8.28244 
623 1 21.9726 27.6099 2.09753 
624 1 -19.9661 -34.941 -20.1776 
625 1 23.3395 31.6221 -28.5164 
626 1 -27.0537 -11.892 23.7087 
627 1 12.0146 -3.31824 -22.8042 
628 1 -23.2609 -0.96241 6.00876 
629 1 33.4357 -19.3845 14.4145 
630 2 -1.86635 18.0604 16.648 
631 1 17.7218 1.54442 -24.0734 
632 1 -8.95372 -10.1104 -6.17328 
633 1 27.8334 -34.0446 -2.43554 
634 1 -27.5489 31.7634 -11.0831 
635 1 16.4596 32.7852 16.5529 
636 1 14.0909 7.24619 -19.0405 
637 1 -6.23669 27.0729 14.1227 
638 2 5.39264 -3.59785 -28.8912 
639 1 -16.662 -35.2862 0.983812 
640 1 0.639331 -20.6598 -4.35733 
641 1 -12.0762 -11.5865 -30.0215 
642 1 -2.84174 33.1233 -27.1664 
643 1 0.196621 -22.6633 -22.101 
644 1 11.7847 22.5821 -31.0982 
645 1 29.789 25.4899 -9.20438 
646 1 -13.3437 25.9106 -20.1566 
647 2 32.7097 6.33703 -14.4419 
648 1 6.07583 22.2777 -19.7241 
649 2 8.13842 12.485 7.5822 
650 1 -18.2318 -4.12582 10.6355 
651 2 -0.540635 -11.5108 -16.8126 
652 1 -17.9998 -21.3405 5.6286 
653 1 32.0583 -12.1168 26.2991 
654 2 17.7953 31.5515 4.22594 
655 1 -13.7633 -15.1803 -5.60466 
656 2 -18.5239 -8.77128 17.9925 
657 2 33.6991 17.6814 -12.1403 
658 1 -20.5497 10.2575 -20.2718 
659 1 16.2629 -13.5333 28.8898 
660 1 -32.9355 9.79053 31.7428 
661 1 3.09572 -0.394583 -16.2918 
662 1 -7.08457 -4.6583 15.7373 
663 1 -19.2425 -26.7573 -24.0746 
664 2 -28.5598 29.0022 -26.8839 
665 1 23.963 16.1136 -27.5357 
666 1 18.7812 22.8892 33.7747 
667 2 4.83754 -18.2401 2.14165 
668 1 25.132 31.6487 -20.5193 
669 1 -28.4917 -19.1035 21.5304 
670 1 3.8098 30.3891 -16.1399 
671 2 -21.1817 14.0866 28.542 
672 1 -5.99372 -4.39066 8.1849 
673 2 24.9986 -15.8432 12.583 
674 2 28.4545 10.1222 21.2677 
675 2 1.88641 0.0149296 -3.10437 
676 1 12.2296 -9.25036 -34.7458 
677 1 15.7335 -31.4108 -15.6135 
678 1 19.1031 12.5633 15.3391 
679 1 3.81011 -21.6983 11.5904 
680 2 15.7507 -18.8732 -10.5234 
681 1 27.2405 -6.76404 -30.2985 
682 1 16.913 33.3076 11.8731 
683 1 1.21193 11.6494 -22.088 
684 1 -9.50897 -27.9844 -19.4647 
685 1 -25.6013 -26.2767 29.4486 
686 1 -8.43284 -12.7357 25.4309 
687 1 33.6267 33.7054 23.6696 
688 1 -1.85345 -13.1284 -30.7446 
689 1 10.6602 -18.7831 0.647862 
690 1 -27.679 19.1446 -3.55621 
691 1 6.21637 -30.7556 4.99271 
692 2 -20.8168 -5.83422 18.6696 
693 2 1.80397 4.64482 -29.9432 
694 1 -24.1177 -34.0144 17.8695 
695 1 25.3053 -31.2608 13.8334 
696 2 -0.913639 28.0879 22.327 
697 2 2.18024 26.5017 0.618415 
698 1 -15.1697 15.6664 -33.6112 
699 1 22.898 32.9305 -20.7254 
700 1 15.6742 -25.8163 31.2459 
701 1 -5.17085 14.946 12.8987 
702 1 -5.78955 15.1682 -1.0466 
703 2 14.5809 -35.2859 -25.2415 
704 1 21.8846 16.7169 18.7582 
705 1 -34.4665 -0.205693 32.091 
706 1 -4.67391 -16.0523 -4.90181 
707 1 -5.63426 -20.9072 -23.1103 
708 2 -33.6929 -13.2619 -22.0418 
709 1 -3.84647 -14.1596 13.428 
710 1 -15.8741 -11.5274 3.42736 
711 1 30.4318 -19.5801 29.4735 
712 1 -19.8101 22.2563 22.3308 
713 2 9.48842 12.3995 20.3063 
714 1 -0.413837 32.3604 24.3614 
715 1 -8.30238 7.92477 -35.1517 
716 1 5.90951 20.096 10.1117 
717 1 11.0169 -33.846 7.3688 
718 1 -19.0183 -20.3541 16.3489 
719 1 26.8612 25.0188 -29.1398 
720 1 -10.5692 26.5451 30.2591 
721 1 -17.9488 21.043 -2.76731 
722 1 17.1909 -11.4165 14.2923 
723 1 6.89987 -27.1029 22.8348 
724 1 33.2171 22.5638 28.0192 
725 1 1.57505 -8.37646 26.1476 
726 1 20.7731 -8.4009 -1.22715 
727 1 -6.1642 16.3667 -33.6146 
728 1 -34.1391 25.1096 1.5384 
729 2 -20.0502 -15.9352 -1.68471 
730 1 34.1227 -24.8611 9.19092 
731 1 -16.874 7.15371 -21.7955 
732 1 31.9553 -25.1954 5.67935 
733 1 20.1714 25.9454 -4.12085 
734 1 34.1227 -9.62725 11.0679 
735 2 -10.7075 -32.3527 0.54852 
736 1 13.3857 -12.6128 -25.1877 
737 1 0.996206 7.25018 30.546 
738 1 -6.69922 -28.0327 9.09177 
739 1 -22.0339 20.3305 26.6918 
740 1 13.6317 -8.1091 -1.65641 
741 2 26.6637 -9.19124 24.2166 
742 1 -12.2545 -21.7254 18.5922 
743 1 25.2852 29.1975 -21.0174 
744 1 -27.0981 26.2233 -6.54424 
745 2 -5.11937 -5.56409 -22.6303 
746 1 29.5744 26.2308 9.1126 
747 1 -20.469 -20.6426 -15.6001 
748 1 6.7939 -33.513 16.5142 
749 2 3.19098 21.8868 -31.0239 
750 2 4.24977 -25.8586 -13.1604 
751 1 -13.9487 -10.7661 -9.38079 
752 1 -6.58394 16.4107 28.9324 
753 1 -27.2815 1.44633 -35.0063 
754 1 0.818936 -0.977387 1.50642 
755 1 -31.4839 -30.6727 3.64566 
756 1 -35.296 -14.8953 -3.19026 
757 1 2.78114 -2.01554 22.6928 
758 1 12.66 0.20698 6.72533 
759 2 10.2942 -6.3223 5.67644 
760 1 32.4725 16.4014 4.58901 
761 1 0.685442 25.8512 17.2055 
762 1 -31.4064 6.08401 14.3104 
763 1 21.682 -30.5955 -34.6091 
764 1 31.3274 -31.822 -9.91324 
765 1 -25.0107 14.4421 -12.2747 
766 2 0.841869 2.7271 -8.59174 
767 1 11.054 -7.80849 -18.8945 
768 1 29.2726 -26.2807 -0.502094 
769 1 -3.37672 33.9938 19.2215 
770 1 -20.3751 -10.1092 17.7106 
771 1 -19.2983 -22.237 24.0233 
772 1 -13.5658 -12.3644 12.9659 
773 1 -12.5911 -19.5858 19.3197 
774 2 -21.5431 -33.5888 25.2383 
775 1 17.3918 21.4042 -3.13162 
776 1 -14.5369 33.686 -25.8837 
777 2 -32.2961 28.2969 1.36056 
778 1 16.7479 -7.55394 -32.8705 
779 1 24.7682 -30.3417 -27.4649 
780 1 -25.0765 -1.59899 -0.889637 
781 1 -30.7217 32.0444 24.0722 
782 1 -33.411 -28.974 31.5667 
783 1 -22.603 14.437 -17.9996 
784 1 20.7045 11.979 -20.0966 
785 2 20.6742 1.96301 16.8686 
786 1 -19.2372 27.0772 -17.0257 
787 2 -20.7915 7.25712 -23.9858 
788 1 -5.94835 30.0117 -20.7946 
789 2 14.2541 -9.09942 32.9486 
790 1 12.2144 -30.1955 -10.2011 
791 2 9.80987 -0.453568 -34.6958 
792 1 -22.5652 1.99001 -14.2605 
793 2 -35.3289 -14.7257 9.32741 
794 2 -22.8865 -19.215 9.92182 
795 2 3.43888 16.1347 -6.19691 
796 1 31.4322 15.3254 -27.2087 
797 2 25.9289 18.425 -0.31999 
798 1 6.80324 -1.38339 -6.02313 
799 2 -9.23601 -21.6023 26.7316 
800 2 -12.476 -5.64072 -1.67576 
801 1 33.8673 -33.9771 4.90784 
802 1 13.2152 25.1947 -15.2363 
803 1 21.9362 3.51183 -0.435759 
804 1 7.29427 -28.4091 -1.14145 
805 1 -15.1062 -23.8924 16.7104 
806 1 -16.5662 28.1132 -12.001 
807 1 23.1608 20.9539 -3.06633 
808 1 32.1314 -7.3827 29.7415 
809 2 -16.6367 8.35004 -23.7156 
810 1 -6.99708 30.4569 23.1302 
811 2 31.1187 -26.5785 -26.9182 
812 1 28.0567 -28.1583 26.261 
813 1 12.9928 33.6537 32.8568 
814 1 26.8519 -0.76916 21.5337 
815 1 -16.1345 26.2146 -7.87357 
816 1 -6.17427 0.437022 -23.6073 
817 2 -2.08969 -5.95513 10.1246 
818 1 1.60813 -18.3784 -35.0787 
819 1 -13.6366 12.0881 -10.6691 
820 1 31.668 -3.00564 28.8867 
821 1 15.7071 0.104716 -21.1714 
822 1 1.62565 -12.4649 -24.0035 
823 1 -26.41 -16.1577 -6.81443 
824 2 -5.91935 -33.072 -21.6073 
825 2 -13.9995 -7.86916 29.5934 
826 1 19.0311 0.455721 11.1809 
827 1 22.3671 15.0161 16.8135 
828 1 21.2111 32.7795 -30.0823 
829 1 34.0732 0.107933 -11.6011 
830 1 -32.0768 20.4492 3.38475 
831 1 -32.417 -10.691 1.75739 
832 1 -4.76837 -12.9543 -6.08918 
833 1 16.5228 4.99576 -0.825029 
834 1 22.0868 -8.03829 -24.573 
835 1 -10.9669 -19.0232 -16.507 
836 1 -28.2654 -16.8564 -34.3639 
837 1 19.5579 -4.2201 -2.07885 
838 1 -12.2066 -23.8289 19.9651 
839 1 0.46296 15.8741 2.06501 
840 1 20.5218 -11.7756 -13.6767 
841 1 25.9896 13.2947 -2.68068 
842 1 14.0879 31.1455 -23.4815 
843 1 10.8615 -14.6813 34.0673 
844 1 8.15816 15.7083 -17.6037 
845 1 29.3991 26.7053 -11.2875 
846 1 -15.1041 -12.6537 -13.3837 
847 2 25.1101 -10.5446 -28.622 
848 1 13.4047 20.1846 26.7133 
849 1 -13.4303 -17.4799 8.47511 
850 1 -29.731 -10.8767 6.88399 
851 1 -13.9056 31.6965 10.8659 
852 1 -33.9849 29.2609 31.8482 
853 1 -20.3638 21.0245 -5.62149 
854 1 16.627 27.2589 -17.2823 
855 2 -19.5265 -23.14 26.0918 
856 1 22.2058 27.1295 31.0864 
857 1 -8.67443 7.16722 1.17865 
858 1 14.2613 -6.50583 -22.6198 
859 2 -2.27442 -28.6488 -27.8882 
860 1 -30.6469 33.6606 -5.64421 
861 1 -16.099 -10.5187 -1.02448 
862 1 -15.2602 20.1254 16.7038 
863 1 4.10708 14.5569 27.4011 
864 1 17.0063 -30.1714 20.141 
865 1 18.9079 21.9718 -9.88708 
866 2 24.0135 19.8371 8.42706 
867 2 20.7231 7.52805 -30.4745 
868 1 21.3963 34.659 17.4589 
869 1 -23.1638 27.7278 4.45156 
870 2 -9.96955 34.1356 -20.2378 
871 1 24.9919 10.7371 -33.7213 
872 1 13.1982 0.737005 -11.6509 
873 1 7.65337 -21.3358 -25.8539 
874 1 -11.7653 25.1893 -26.162 
875 1 -8.16068 2.73896 23.8543 
876 1 30.0309 31.0997 -34.7653 
877 1 -13.1776 -1.28033 26.4646 
878 2 27.2957 -31.8668 7.65359 
879 1 -32.5584 3.8626 -14.536 
880 1 17.8178 3.78445 -29.4457 
881 2 31.9379 25.3264 -19.6387 
882 1 13.4074 -2.30147 -33.7081 
883 1 26.1419 7.10855 9.45745 
884 1 -27.5759 26.82 12.1681 
885 1 24.5666 15.9158 -19.4796 
886 2 29.9726 28.6681 -12.2508 
887 1 -23.5821 -18.3188 -11.6381 
888 1 31.6307 -10.583 -17.1714 
889 2 25.2431 34.7487 2.55604 
890 1 25.2137 15.4674 -29.607 
891 2 -14.2826 17.4502 -14.8534 
892 1 -25.5142 -3.55001 -34.0121 
893 2 21.5273 16.1837 2.82075 
894 1 22.9633 -18.0007 33.8678 
895 1 24.5282 -27.6193 34.8164 
896 2 7.10216 20.4922 8.05461 
897 2 -7.65669 20.9937 -1.85098 
898 2 11.4342 34.8145 23.5172 
899 2 23.228 -13.8254 -18.7438 
900 1 29.1396 -21.9239 30.8188 
901 2 -33.3318 34.9972 -31.3685 
902 1 20.9846 10.9496 25.965 
903 1 -13.8809 5.17588 14.8653 
904 1 17.2559 -20.3065 14.6367 
905 1 -12.519 7.49629 -2.2366 
906 1 -7.82835 4.27275 -18.8679 
907 1 34.7649 13.8336 -22.9523 
908 2 24.2228 27.5451 1.17463 
909 1 4.99212 -16.7936 4.15423 
910 2 -6.59295 26.5045 1.17315 
911 1 -21.7402 8.77066 -28.197 
912 1 -12.7996 29.9632 32.2074 
913 1 13.5249 29.514 3.55179 
914 1 -9.65728 -3.49429 -2.48927 
915 2 -28.9286 -22.015 2.80759 
916 2 -25.1628 -7.06272 11.5525 
917 1 -2.10236 19.1444 -11.5763 
918 1 -1.30343 -14.6701 3.91812 
919 2 0.103243 9.6521 27.458 
920 1 -27.6409 34.1277 -29.0269 
921 1 15.5616 -33.7093 27.3499 
922 2 -18.16 -29.2857 34.0785 
923 1 12.7879 -4.00099 26.3078 
924 1 26.2597 -19.7554 31.9219 
925 1 -16.3263 -2.24202 11.9914 
926 2 4.07109 31.2621 -21.5014 
927 1 -26.8733 23.3771 20.5293 
928 1 -6.92841 8.93731 22.4285 