ITEM: TIMESTEP
0
ITEM: NUMBER OF ATOMS
32000
ITEM: BOX BOUNDS pp pp pp
-35.3583 35.3583
-35.3583 35.3583
-35.3583 35.3583
ITEM: ATOMS id type x y z 
1 1 6.9321 -0.19375 -25.5315 
2 1 2.06427 25.3637 -3.62978 
3 1 -4.52195 33.467 -10.5008 
4 1 28.0737 20.5728 32.2727 
5 1 34.9806 29.9482 -17.2443 
6 2 -24.0405 13.0168 -16.5273 
7 1 -23.2254 -26.9104 26.0944 
8 1 7.44999 -2.90529 -32.7468 
9 1 7.74955 18.9677 16.9828 
10 1 -4.70144 23.1514 2.37168 
11 2 -10.9391 24.8311 6.57497 
12 1 -14.8489 11.9689 26.7256 
13 1 30.4447 -10.7356 -21.3633 
14 1 -23.5062 -33.4919 -15.9553 
15 1 -11.3971 -15.5051 -4.92881 
16 1 -2.62322 25.4785 -32.4792 
17 2 -17.2929 -12.9316 33.2748 
18 1 -7.00629 -28.8893 -19.3726 
19 1 -4.28526 34.2902 -33.4435 
20 1 -1.41753 -8.28436 -12.9954 
21 2 -30.0878 -2.29561 -0.818075 
22 2 -17.5769 24.7105 20.5512 
23 1 -21.0049 -26.2028 -4.77348 
24 1 21.9538 -12.0694 -33.1923 
25 1 -12.4865 -33.3989 -24.7624 
26 1 -26.7402 -17.1587 -9.5431 
27 1 14.8905 29.6319 -25.4549 
28 1 2.86113 -7.74702 -16.1458 
29 1 12.432 -22.682 28.0846 
30 1 -12.165 26.1492 -7.89822 
31 1 33.5933 -32.5993 -21.2816 
32 1 5.48976 31.191 27.296 
33 1 9.57525 17.6033 -13.539 
34 2 -16.6102 -23.0313 -21.9911 
35 1 4.63627 28.6117 -32.4127 
36 2 -30.6935 -6.40902 -19.3371 
37 2 34.153 -0.394204 12.5573 
38 1 -25.8812 26.7133 10.0806 
39 1 29.1478 -1.59823 5.5018 
40 1 12.5822 -8.4878 31.5916 
41 2 17.4628 -33.8475 19.1188 
42 1 -30.7312 -1.01082 -35.0602 
43 1 -1.56664 -26.6345 -26.6526 
44 1 11.8053 22.8879 -26.7286 
45 1 33.2092 -2.91534 -8.54699 
46 1 34.5946 31.4179 -25.4327 
47 1 7.39124 9.06217 -24.9521 
48 1 -16.8509 -22.3279 16.1382 
49 1 15.285 -4.81504 2.88395 
50 1 17.865 12.1263 35.0387 
51 2 -13.015 15.9063 7.26845 
52 1 -27.7527 -9.99686 -1.63133 
53 1 7.92174 28.5598 -4.93375 
54 1 -30.4298 -0.447752 14.3112 
55 1 -21.0171 -0.398762 15.4578 
56 2 -31.9711 -15.2035 -19.0078 
57 1 -32.3128 -0.643785 -28.5676 
58 1 -23.646 2.98414 -18.9562 
59 1 3.15174 -15.1453 -12.7428 
60 2 26.4952 9.19384 1.40313 
61 2 16.7624 30.3879 -6.41339 
62 1 -8.50724 10.7924 -2.98589 
63 1 -21.7552 21.0553 -0.899484 
64 1 10.4046 -28.0524 26.5065 
65 1 -13.5685 -5.21615 -24.0364 
66 1 33.548 22.211 25.6905 
67 1 22.8049 -1.08914 31.7678 
68 1 -20.8972 23.0198 -10.8644 
69 1 -3.38027 4.60487 -26.8822 
70 1 -0.587386 -11.2879 -5.38611 
71 2 -9.10539 -24.9116 9.93537 
72 1 7.20622 -13.0236 -16.995 
73 2 7.03247 -31.3408 10.7579 
74 1 -13.715 11.2556 -29.6833 
75 1 -29.8749 23.285 -7.38823 
76 1 32.8038 -21.9286 23.3167 
77 1 8.18242 23.3159 21.0022 
78 1 31.7787 15.0828 26.8984 
79 1 25.0215 -10.8135 -8.24559 
80 1 -11.1596 -5.58489 -22.4694 
81 1 -0.439332 14.738 6.38261 
82 1 6.47244 6.87854 -6.6781 
83 2 0.720335 7.26475 -11.889 
84 2 -31.267 10.8471 8.01638 
85 1 5.70697 0.947232 4.79866 
86 1 8.93586 -17.8742 24.8454 
87 1 23.1964 10.6179 16.6886 
88 1 16.5277 3.53619 -24.7424 
89 1 -4.86548 14.5177 0.953457 
90 2 12.3901 -26.594 -32.9464 
91 2 24.3477 34.8529 -29.9246 
92 1 -31.5526 14.7911 -15.6334 
93 1 -25.3729 7.10365 -32.8502 
94 1 28.8339 -31.8291 1.61048 
95 2 -18.3271 1.56621 -4.95851 
96 1 -3.88805 22.9129 -13.5046 
97 1 -21.6145 13.7193 11.1316 
98 2 -15.2798 -22.5367 -34.0356 
99 2 -25.1783 31.4538 18.8451 
100 1 21.6929 -31.3298 -0.471087 
101 1 -30.7624 -26.3492 22.9457 
102 2 27.7909 20.2308 10.2947 
103 1 9.27612 22.8071 -19.5099 
104 1 -15.4988 -3.00416 -0.244238 
105 1 12.2117 -26.6646 -20.378 
106 1 -18.2449 -10.7267 35.1411 
107 1 11.7661 -25.4662 33.9446 
108 1 33.406 -12.9725 19.5536 
109 2 10.7546 -26.8215 0.102817 
110 2 -16.029 14.1061 -8.53274 
111 1 -5.21655 12.4159 20.996 
112 1 26.2371 21.0781 -8.9161 
113 1 1.86375 -3.15399 14.3459 
114 1 -23.0297 -6.37555 34.5693 
115 2 -24.564 31.838 35.0096 
116 1 24.4308 31.9502 -24.601 
117 1 17.1725 -25.536 15.3083 
118 1 11.2019 0.434355 -7.42061 
119 1 -22.8217 -10.0794 -21.5323 
120 1 -5.95382 35.0059 -25.3328 
121 2 -2.42388 4.34136 -9.31592 
122 2 3.34315 32.6046 17.0881 
123 1 -16.1796 -11.0101 33.4712 
124 1 -9.1748 -8.83656 -16.8642 
125 1 7.81946 35.1844 8.98366 
126 1 -18.863 -34.6525 -8.71739 
127 1 30.0566 28.5758 31.8851 
128 2 14.0704 10.6852 4.32099 
129 1 13.2399 -25.9919 -34.8988 
130 2 -25.2675 24.7438 19.9602 
131 1 31.3821 12.7443 -20.2761 
132 1 18.5112 16.3088 34.9997 
133 1 -11.9798 -19.2003 25.665 
134 2 15.7638 30.1035 6.56693 
135 1 -23.6139 -17.5544 -1.54885 
136 1 -33.419 -35.177 31.4395 
137 1 17.6465 21.5108 30.2214 
138 2 -26.4473 -9.80141 9.43243 
139 1 -17.9688 -27.2839 -20.2008 
140 2 31.2634 25.3994 8.53155 
141 1 -22.1848 28.1721 29.5537 
142 1 -27.8532 -11.5936 -29.7286 
143 1 -6.71579 15.5458 14.6587 
144 1 -31.3031 -16.6368 24.5272 
145 1 32.8077 -29.945 -9.91935 
146 1 28.9194 -28.8704 22.0676 
147 1 -20.6699 13.1773 -13.6828 
148 1 -3.82569 -5.24473 -15.4705 
149 2 -19.5012 12.5005 19.736 
150 1 -22.4222 -8.76759 16.9588 
151 1 31.9464 -1.1792 -22.8898 
152 1 21.8111 -33.6476 -20.5325 
153 1 11.6612 10.2851 33.37 
154 1 2.16235 17.7712 -22.5333 
155 1 29.9373 -10.3413 -10.9558 
156 2 -2.84648 -10.0068 23.856 
157 1 33.7315 -1.99982 8.51484 
158 2 27.0697 34.0174 -15.2865 
159 1 5.89006 -28.7446 -10.5274 
160 1 -9.07827 -2.35973 -0.189864 
161 1 12.6422 -17.2787 -26.2542 
162 1 28.9369 -7.23056 -23.9199 
163 2 19.8284 31.1363 32.6331 
164 1 21.0287 -5.94256 -25.1497 
165 1 -26.9595 32.7794 4.22065 
166 1 9.564 -30.4185 27.318 
167 1 -34.0217 2.60965 12.7737 
168 2 33.386 4.78687 11.2756 
169 1 -11.3802 -20.5787 23.6735 
170 1 -25.6062 18.5691 -29.9688 
171 2 5.38543 16.0649 19.5557 
172 1 -17.2453 27.9045 -20.8482 
173 1 13.4279 3.72844 -6.06505 
174 1 -32.3126 -7.54739 6.60572 
175 1 -20.7928 -32.1719 23.3872 
176 2 11.1584 15.4703 -28.4597 
177 2 32.6673 9.37609 -21.3936 
178 1 -8.55345 -3.07732 22.6317 
179 1 5.60646 0.676346 -16.0133 
180 1 -1.25435 3.82893 -3.26072 
181 1 -6.30301 33.2896 31.5746 
182 2 -16.9806 -8.02968 -7.02261 
183 1 -8.6394 24.6251 22.7546 
184 2 -9.08762 -14.9849 21.7854 
185 1 22.5668 -7.20133 -21.6146 
186 1 28.6115 -32.7902 15.2208 
187 1 20.3476 -22.9405 -19.4956 
188 1 -23.1678 20.3294 -2.72264 
189 2 21.0916 -10.0691 22.4776 
190 2 26.2187 5.82582 3.66423 
191 1 15.25 19.2585 -10.1947 
192 1 -20.125 27.8333 0.995106 
193 1 13.2444 5.63038 17.7995 
194 1 -33.6061 6.07101 -27.7868 
195 1 -21.8094 -19.0802 25.7892 
196 2 19.6387 -19.0179 -29.8493 
197 1 -12.848 -20.613 27.4168 
198 2 -26.2724 12.6817 -12.3707 
199 1 -1.22853 33.0595 29.0634 
200 1 5.63161 16.6946 -5.14256 
201 1 -10.0574 -21.5866 -31.4131 
202 1 -2.06962 -29.9658 27.5185 
203 2 2.4656 22.6874 22.2076 
204 1 -31.0174 -30.1909 -14.2414 
205 1 18.3096 -13.7431 -32.5173 
206 1 -26.7979 -16.1836 -28.2117 
207 1 31.8615 -17.1069 -27.6081 
208 1 -6.98823 13.459 6.40639 
209 2 2.84307 8.20523 15.2348 
210 2 12.0878 11.9638 29.1129 
211 1 -4.49154 -11.4345 -15.2418 
212 1 -24.6921 -12.8717 -3.95756 
213 1 -28.8952 24.2848 21.1192 
214 1 -34.5563 6.35503 29.2271 
215 1 -6.18928 -1.80927 -7.91659 
216 1 -12.0887 -15.9753 23.2573 
217 1 -22.4899 -22.4775 -33.5158 
218 1 25.3612 -26.7023 21.4112 
219 1 19.8676 -14.5305 29.3115 
220 1 17.1895 4.7571 -14.0939 
221 1 -35.311 -20.8495 10.5382 
222 2 3.73061 -29.2709 -19.5731 
223 1 17.9249 20.9682 6.81429 
224 1 -25.5014 32.1874 24.6652 
225 1 -0.734822 -2.98723 -10.3855 
226 1 19.9237 -34.2361 -34.4848 
227 1 -18.9349 -6.18044 34.4421 
228 1 -28.7532 -31.902 -22.0472 
229 2 -24.1123 -28.3249 -28.934 
230 1 26.0576 32.2128 -14.4098 
231 1 13.0616 -31.6618 22.0245 
232 1 -11.8896 27.9223 -19.9098 
233 1 13.6877 -14.1536 29.5757 
234 1 -1.61318 -23.2603 -0.17928 
235 1 6.70129 13.9674 7.3967 
236 1 -25.1852 -30.5735 -2.28034 
237 1 17.8358 27.3515 3.84003 
238 1 -33.9135 19.5341 34.1838 
239 1 3.07095 13.562 30.7567 
240 1 32.9828 -2.778 -20.9773 
241 1 -14.2919 -22.1171 -19.6857 
242 2 0.24015 -27.3775 -29.9842 
243 1 30.7019 33.5462 7.28816 
244 1 -6.02379 -14.6562 -35.1377 
245 1 11.9017 32.0658 -23.3468 
246 1 -1.09731 -19.8276 4.15943 
247 1 -20.9341 14.6748 5.30325 
248 1 -20.9462 25.7826 -9.02899 
249 1 11.4585 31.6162 -2.9201 
250 1 -18.0931 34.3904 -28.2907 
251 1 22.9785 6.35764 21.2679 
252 1 23.8602 -11.3452 9.67323 
253 1 34.5049 -19.5011 -24.1553 
254 1 -8.99722 -9.58747 -10.1992 
255 1 -35.3473 -22.4115 -17.8952 
256 1 -14.1044 26.735 -30.1702 
257 2 -4.62017 -26.1742 -4.83779 
258 1 18.6468 18.5874 -14.9936 
259 1 -29.1236 5.81583 26.9542 
260 2 32.9629 2.19297 -14.6996 
261 1 16.9901 -28.1092 -30.5396 
262 1 -32.237 28.3933 14.079 
263 2 20.1984 32.6626 17.7341 
264 1 15.8946 14.5909 -3.99195 
265 1 23.2293 -10.8148 21.7453 
266 1 6.37756 -20.9646 -10.3542 
267 1 -4.3504 -21.6626 -25.4189 
268 1 -29.627 12.196 -20.8861 
269 1 20.5031 30.4862 -34.1608 
270 2 3.78554 8.28107 20.9809 
271 1 13.1275 -18.2928 9.96197 
272 1 14.7657 11.4492 24.7076 
273 1 -9.26593 17.2023 31.3491 
274 2 31.9252 -0.792962 -17.1965 
275 1 32.9224 -12.6603 -34.2338 
276 1 4.5562 18.015 10.8322 
277 1 5.27685 24.9637 -21.942 
278 2 26.5505 -8.69585 -31.2108 
279 1 -15.4707 9.75845 -5.04693 
280 1 -28.0685 -28.6084 -30.5887 
281 2 -1.92283 17.1184 -27.1834 
282 1 3.11477 -14.3516 -16.9729 
283 1 4.47137 -34.6645 -4.86125 
284 1 -5.91714 30.9699 -27.8565 
285 2 16.8674 20.0191 -5.83261 
286 1 -23.2476 33.6667 -18.4569 
287 2 21.6829 -24.3787 -33.465 
288 1 20.0632 -10.9478 -33.9756 
289 1 -8.54426 -7.53249 8.40788 
290 2 11.5562 34.4896 19.8106 
291 1 0.901785 20.2638 12.4596 
292 1 17.2476 34.4093 20.2434 
293 1 -29.2015 4.62927 -26.1707 
294 1 -32.9879 15.2424 -5.55232 
295 2 -33.5291 18.8921 -11.7294 
296 2 27.9395 34.614 -31.026 
297 2 9.12295 -2.30042 -27.2209 
298 1 -14.8051 18.7577 9.82914 
299 1 1.32335 -33.902 28.6573 
300 1 20.4754 -26.7995 -17.4799 
301 2 -12.0071 22.4866 -26.1694 
302 2 -30.721 28.1574 -33.8042 
303 1 -21.122 -7.24606 -14.1966 
304 1 -5.28753 -23.3585 15.1496 
305 2 30.0251 6.12922 28.468 
306 1 -24.1927 1.96542 -23.0406 
307 1 -35.1532 -25.7459 -32.8959 
308 2 14.1453 -2.90713 11.9809 
309 1 15.8316 -23.8222 16.6249 
310 1 -16.1517 -9.99143 -32.3496 
311 1 27.6927 30.1337 1.27108 
312 2 3.44967 -25.692 3.5482 
313 1 -14.9409 11.2621 -27.4779 
314 1 -10.7976 -21.733 -1.14867 
315 1 -15.9483 10.7261 13.2891 
316 1 16.5372 -10.4091 -11.7362 
317 1 -15.15 17.9571 30.1335 
318 1 34.5265 22.8992 16.9399 
319 1 13.6264 -5.44251 -10.8051 
320 1 2.27913 -33.6505 -8.66427 
321 1 -33.3674 21.1781 -12.0995 
322 1 33.8491 -0.661059 -2.33865 
323 1 13.4489 -12.8765 -22.183 
324 1 -3.07113 -7.15478 29.7304 
325 1 4.95133 -14.6536 -20.8087 
326 1 2.69302 -28.0354 -30.9005 
327 1 33.7479 -3.19836 18.3794 
328 1 15.5982 -1.90557 28.7743 
329 1 34.9415 14.8929 -7.1398 
330 2 15.8624 -0.498997 -7.04465 
331 1 29.1819 2.32709 8.5609 
332 1 -19.2084 -18.4348 15.0401 
333 1 -14.7831 -2.57757 5.61074 
334 1 26.3027 -3.60026 15.8127 
335 2 20.4105 12.4891 23.6999 
336 1 21.3216 23.586 28.5056 
337 1 31.6542 -14.3627 -14.6165 
338 1 21.1403 -11.5621 -26.8154 
339 2 15.1682 -10.76 13.6152 
340 1 33.3464 -34.4588 -34.5518 
341 1 3.52855 -18.6241 -18.9396 
342 1 -2.96426 -1.02576 2.40716 
343 1 33.4686 9.52376 13.6757 
344 1 -25.5927 -4.09079 2.96344 
345 1 12.4072 34.4779 7.62028 
346 1 -27.4648 -25.6108 -18.5445 
347 1 -10.4437 26.9974 -17.8593 
348 1 -33.4081 -32.8377 -14.8188 
349 1 -19.577 10.8234 0.641285 
350 1 -20.6395 -14.9628 12.1185 
351 1 11.256 -2.75731 -26.5958 
352 1 22.8277 24.0224 24.6423 
353 1 4.62875 -31.587 28.1022 
354 2 -27.3428 25.5853 34.247 
355 1 -23.6178 13.6059 -14.066 
356 1 -21.6455 9.23107 20.7463 
357 1 -1.44488 30.8567 -32.5207 
358 1 -2.12477 28.5691 12.0059 
359 1 34.4338 -29.481 4.57989 
360 1 11.354 -16.5402 32.5671 
361 1 15.165 2.41968 -4.68819 
362 1 29.9306 14.9541 28.4932 
363 2 -15.0218 -8.76466 -25.5957 
364 1 -19.1534 24.5487 10.4034 
365 1 24.1249 13.2174 -23.9351 
366 1 -21.8007 -26.7423 32.0644 
367 1 17.2013 14.8973 4.49534 
368 1 23.387 -19.6962 7.76968 
369 1 -16.3832 -10.3585 7.87463 
370 1 32.3776 3.53108 -31.7488 
371 1 11.3127 -32.1566 -17.1798 
372 1 29.8515 10.573 -5.06338 
373 1 33.5684 23.1551 -11.1008 
374 1 25.8016 -6.77385 -16.115 
375 1 -9.55104 9.34414 6.52398 
376 1 27.2183 5.39581 7.92554 
377 2 14.3967 -8.59125 -33.8918 
378 2 -28.8745 -6.36602 11.6141 
379 2 -10.6398 -21.745 14.299 
380 2 1.71248 -22.7056 6.11428 
381 1 -3.5183 12.988 -18.6196 
382 2 31.6528 -34.3487 -10.2317 
383 1 3.19913 -19.0785 22.0526 
384 1 -0.0354934 19.8432 -16.779 
385 1 -10.17 -22.5455 -14.767 
386 1 -1.03038 30.9122 -0.417573 
387 1 -8.7185 25.8275 20.5346 
388 2 -21.6958 -5.45071 11.4293 
389 1 -1.21622 -19.1923 -8.41153 
390 2 26.1849 -34.9567 6.8086 
391 1 20.8191 6.8046 6.01102 
392 1 -0.462781 18.8162 -1.68725 
393 2 -17.0362 5.89143 23.4347 
394 2 -33.6266 -18.2609 27.1694 
395 2 -31.6445 -30.1062 -20.7389 
396 1 19.836 24.0408 -10.9796 
397 1 16.5123 -1.21372 26.6396 
398 2 14.4503 22.8497 33.3232 
399 2 -18.6107 -16.4631 19.1962 
400 1 -19.4686 -24.4263 11.2558 
401 1 -19.1176 -19.8959 22.5544 
402 1 27.6901 -20.9434 -13.4822 
403 1 33.9616 -1.43082 -4.55653 
404 1 -1.28652 -21.9507 30.0217 
405 1 -17.6293 -20.1761 20.3683 
406 1 -28.2445 -0.667896 -28.6156 
407 2 -16.5932 -21.7052 27.9418 
408 2 19.5571 -12.3645 28.9339 
409 2 17.1029 -34.2859 -31.0475 
410 1 -2.51341 -5.94565 -1.38619 
411 1 16.5358 26.2482 26.9784 
412 1 -4.47871 7.72883 -2.55243 
413 1 27.2206 23.8866 -21.5049 
414 1 4.87432 -6.4399 -34.7498 
415 1 -16.7553 13.5908 8.00997 
416 1 -32.9986 -17.2818 -29.6491 
417 1 19.2706 1.69785 -4.91726 
418 1 28.0163 -29.4304 -20.2503 
419 1 -7.69332 16.2033 32.9054 
420 1 -32.46 -10.4733 27.3857 
421 2 -8.87579 -31.9748 16.2419 
422 1 -28.4768 -32.0646 29.0053 
423 1 13.2229 2.69879 32.691 
424 1 -15.587 -34.3902 8.76691 
425 2 -16.0069 5.93767 -31.1202 
426 1 18.0125 15.0232 -14.3637 
427 1 -25.6946 -25.4814 31.474 
428 1 -14.8978 8.1586 -18.188 
429 1 6.05175 -32.5167 35.2875 
430 1 25.6864 -12.0332 11.1877 
431 1 -14.2282 1.86709 10.8679 
432 1 -12.3989 -0.467228 17.5177 
433 1 -5.01524 2.63825 8.04174 
434 2 0.95303 -31.2226 -23.0888 
435 2 18.2303 14.0093 -29.9055 
436 1 11.0456 -20.0662 -26.2349 
437 1 16.0215 -33.9593 34.0316 
438 1 26.236 32.7713 19.6646 
439 2 -35.125 -6.27428 -11.9667 
440 2 3.16153 -22.9428 -16.1589 
441 1 28.9421 -16.4037 32.1795 
442 1 16.7921 10.7699 32.8828 
443 1 -22.7947 12.7916 -29.286 
444 2 -1.31734 -14.9179 22.2438 
445 1 -20.838 12.3181 6.42387 
446 1 32.3104 -6.22463 -1.55526 
447 2 -19.6027 21.062 6.93383 
448 2 -18.463 -1.93314 11.8925 
449 1 -12.176 21.7624 21.6616 
450 1 -23.7376 31.2398 -23.9693 
451 1 -25.3377 17.9593 -34.5507 
452 1 8.78852 11.7456 -1.76618 
453 1 -9.34539 13.1879 -32.6719 
454 1 34.7718 -8.03389 -25.8995 
455 1 29.5415 -26.6579 21.3684 
456 2 9.75717 5.75024 8.62802 
457 1 -20.671 6.98912 32.5983 
458 1 19.8485 11.6033 6.24709 
459 1 26.3246 -26.9745 -17.7072 
460 1 -7.30443 35.1283 -30.1487 
461 2 27.6782 25.734 33.6168 
462 2 33.8674 -26.1221 -29.3616 
463 1 29.6737 25.0607 -28.9828 
464 1 -23.0421 22.7399 -21.0721 
465 1 5.78324 -1.40379 1.11905 
466 1 -4.68316 14.5804 22.0013 
467 1 -33.8738 -20.4262 -11.9134 
468 1 0.413197 -32.3404 -12.8702 
469 2 9.46451 24.0555 14.4208 
470 1 -19.1043 2.3522 8.85047 
471 1 -30.527 -13.1509 -12.4722 
472 1 19.4113 -15.5575 20.0153 
473 2 26.5348 17.0071 -19.0484 
474 1 -25.4461 -6.81495 9.52062 
475 1 2.60076 -17.0151 10.7783 
476 2 33.0727 26.0535 -24.4999 
477 1 10.1436 3.45904 30.2484 
478 1 34.7458 20.8552 14.8852 
479 1 30.1449 8.0724 11.2194 
480 2 11.5223 -15.6093 21.1965 
481 2 -30.8415 34.557 32.2893 
482 2 -3.14519 24.8272 32.4672 
483 1 25.9066 -6.16055 -18.391 
484 1 7.42772 24.5653 15.3191 
485 1 -26.1788 -21.9697 -26.4227 
486 1 -23.2766 21.7342 23.485 
487 2 -21.3608 -24.1945 15.1289 
488 1 -8.80343 21.3547 16.5005 
489 2 -30.5548 11.5871 -5.93689 
490 2 -27.6034 -34.1579 -6.74524 
491 2 -24.9299 5.36916 -9.93081 
492 1 -31.4058 30.2528 -30.0255 
493 1 -19.8995 -23.6052 -11.1137 
494 1 8.59426 19.551 -31.6362 
495 1 7.32176 8.25711 -14.5135 
496 1 -12.0592 -16.4358 -29.8683 
497 2 -11.2722 -15.7833 5.54795 
498 1 3.05137 -1.3674 -11.9367 
499 1 -11.0571 26.7524 34.2698 
500 1 -6.96079 21.3883 -34.9341 
501 1 -6.41433 -6.03368 24.0405 
502 2 27.2647 26.4623 -26.1179 
503 1 2.97752 29.2605 -11.2557 
504 1 -10.0008 -11.0992 -12.4389 
505 2 21.7708 -21.2596 -19.9579 
506 1 24.9066 -1.33633 5.25978 
507 1 -29.2084 -0.368657 10.1583 
508 1 -21.2547 18.2827 -3.10827 
509 2 1.62922 11.4088 -27.9208 
510 1 7.20703 -12.4146 0.237903 
511 1 33.5893 -27.3905 5.73088 
512 1 -16.4013 12.3034 31.7257 
513 1 22.8232 -9.21929 -14.2617 
514 1 -27.7921 8.58254 -6.73671 
515 1 15.6583 22.5907 0.10002 
516 1 -4.28208 -29.3299 35.0061 
517 1 3.46633 -28.8706 -4.18455 
518 1 -16.8383 -19.8535 -25.3715 
519 2 29.155 27.0869 -21.134 
520 1 17.0701 -33.8687 -9.14384 
521 1 25.1612 -33.8458 -29.2905 
522 2 -5.61447 -31.0889 -34.7781 
523 1 -15.9785 24.7302 24.2267 
524 1 0.855761 19.1862 -18.8507 
525 1 11.2358 20.9275 -15.0392 
526 1 25.3076 32.8424 3.53188 
527 1 -16.3387 -12.6612 -31.3424 
528 1 -9.47234 -2.74781 5.51435 
529 1 -11.1484 18.1716 -16.9897 
530 1 -26.6917 21.8064 18.3653 
531 1 5.43044 21.7828 28.2228 
532 2 30.3844 6.37668 -23.9953 
533 1 20.3626 14.8382 31.655 
534 1 -14.4185 25.4002 19.8598 
535 1 -6.08357 -11.4786 18.2235 
536 2 -17.6931 22.4121 -8.66546 
537 2 6.61303 -13.5401 -7.72566 
538 1 -7.01197 28.8092 -14.0483 
539 2 15.0467 -28.4311 6.72837 
540 1 -5.32381 6.20449 30.3534 
541 1 22.2486 32.5958 27.7938 
542 2 -20.2266 -12.7338 -2.8516 
543 1 10.6251 33.9209 27.978 
544 1 5.96852 -29.3279 15.2958 
545 2 31.6847 -13.6177 7.77513 
546 1 30.9534 -12.972 -21.6968 
547 1 33.4943 2.97517 31.8626 
548 2 -32.2402 -32.2641 18.1269 
549 1 14.8049 -25.1765 10.2885 
550 2 11.526 0.466001 -17.0256 
551 1 -26.7995 27.0714 -11.7495 
552 1 22.5608 31.0525 -12.523 
553 1 26.6346 -18.6637 10.7048 
554 1 -4.47658 7.69556 7.57102 
555 1 22.9527 7.73039 -31.3876 
556 1 -17.4218 -10.2581 -7.1454 
557 1 -35.3529 22.6088 27.2813 
558 1 -32.772 17.4556 -24.3411 
559 2 -10.9856 35.0058 35.235 
560 1 -19.8837 15.3298 -27.3304 
561 1 11.8337 -1.10056 1.29553 
562 1 -23.5294 20.511 8.02822 
563 1 -22.5544 32.7242 15.753 
564 1 -5.69198 13.8863 -30.7177 
565 1 14.7956 -15.9612 -19.9284 
566 1 31.7165 -33.3805 29.0168 
567 2 32.907 4.56138 -10.2441 
568 1 -30.8324 -14.5012 4.72618 
569 2 -6.49219 -13.4287 -27.1114 
570 1 -34.4392 -2.15231 35.2904 
571 1 -10.8863 -26.662 -13.6273 
572 1 32.0418 0.0691405 -26.5819 
573 1 -4.89955 -17.6774 19.201 
574 1 25.9558 -33.279 4.27314 
575 2 -8.54102 -25.9762 -26.9931 
576 1 -23.2166 -0.139352 -22.7362 
577 2 -7.82053 -8.46161 6.25668 
578 1 -18.6028 15.6603 -16.285 
579 1 22.7453 23.2803 -3.30572 
580 1 -11.5632 -9.35142 24.4432 
581 2 14.4003 3.83444 -30.5733 
582 1 13.5804 -28.6537 -20.9069 
583 2 -10.6238 -13.8419 -3.7464 
584 1 -33.8444 16.4857 11.94 
585 2 33.9214 8.20132 -25.291 
586 2 11.7221 -23.0652 -24.9787 
587 1 28.2066 -1.61919 -14.7199 
588 2 18.9036 32.1237 -3.22404 
589 1 31.3315 -0.228849 1.04466 
590 1 24.4124 -22.3294 0.459072 
591 1 25.4425 -21.1626 -24.7816 
592 1 31.1822 -15.8196 3.06705 
593 2 -33.8856 -10.4495 3.42118 
594 1 -22.5695 27.1125 -7.70585 
595 2 22.9717 24.4919 14.2186 
596 2 -19.3541 -34.7259 -24.1962 
597 1 32.935 7.8155 -12.8442 
598 1 18.3079 15.5449 -19.192 
599 2 33.216 -16.9804 2.80267 
600 1 -18.8787 -18.658 33.9357 
601 1 18.234 9.14888 15.7048 
602 1 21.4377 -19.8537 -22.0255 
603 1 12.1986 27.0095 -24.9088 
604 1 -12.9353 -24.3472 11.9833 
605 1 24.5322 -30.2985 11.2721 
606 1 -14.4483 13.2871 6.59629 
607 1 -8.2251 -14.5424 7.93845 
608 2 34.7681 29.4728 -26.3449 
609 1 -24.029 -13.3928 -29.7526 
610 1 35.1457 5.8777 10.5255 
611 1 11.3437 -17.6713 30.471 
612 1 -23.1785 -7.0779 -29.1078 
613 2 -9.22118 16.6761 -1.89712 
614 1 34.1319 -16.8081 -16.9426 
615 1 2.57477 19.201 17.8677 
616 1 7.34415 -19.2707 23.6562 
617 2 -17.5894 16.7148 32.8352 
618 1 -19.6341 -18.0413 -5.13573 
619 1 30.5634 -4.60311 -29.957 
620 1 28.0693 -2.15888 -7.10147 
621 1 17.8227 -23.223 -33.4122 
622 2 -20.8603 16.8164 8.21669 
623 1 21.9038 27.495 2.19001 
624 1 -19.8255 -34.9963 -20.0213 
625 1 23.1197 31.4578 -28.4579 
626 1 -27.0195 -12.1659 23.1724 
627 1 11.85 -3.40962 -22.8717 
628 1 -23.1405 -0.987678 5.94632 
629 1 33.3013 -19.5026 14.4497 
630 2 -1.75642 18.1516 16.5446 
631 1 17.8484 1.52038 -24.1863 
632 1 -8.94151 -10.2057 -6.21417 
633 1 27.7406 -33.9878 -2.54201 
634 1 -27.1601 32.1017 -11.1538 
635 1 16.6716 32.6379 16.5937 
636 1 14.2567 7.32638 -19.0717 
637 1 -6.15537 26.934 14.2605 
638 2 5.57267 -3.5698 -28.7119 
639 1 -16.7535 35.3568 0.90642 
640 1 0.637295 -20.4452 -4.3138 
641 1 -12.0097 -11.5204 -30.0615 
642 1 -2.71225 32.9062 -27.151 
643 1 0.283213 -23.0022 -22.0627 
644 1 11.8176 22.5077 -30.8806 
645 1 29.9457 25.3953 -8.93618 
646 1 -13.2988 25.8808 -20.2275 
647 2 32.6022 6.20812 -14.548 
648 1 6.01416 22.0474 -19.6945 
649 2 8.3891 12.3147 7.69033 
650 1 -18.4434 -4.3362 10.4834 
651 2 -0.487451 -11.4188 -16.7425 
652 1 -17.6169 -21.15 5.46024 
653 1 32.0227 -11.9877 26.2738 
654 2 17.732 31.5973 4.02066 
655 1 -13.803 -15.3789 -5.62236 
656 2 -18.4218 -8.83239 17.8 
657 2 33.7232 17.5931 -12.1428 
658 1 -20.6259 10.1371 -20.3789 
659 1 16.0832 -13.5423 28.7637 
660 1 -33.0999 9.85298 31.5351 
661 1 3.32427 -0.413387 -16.2189 
662 1 -7.27711 -4.51463 15.6155 
663 1 -19.0596 -26.7498 -24.0957 
664 2 -28.5109 29.0249 -26.9594 
665 1 23.7022 16.3134 -27.6181 
666 1 18.8386 22.6312 34.1102 
667 2 4.49479 -18.1344 1.94514 
668 1 25.0711 31.532 -20.5099 
669 1 -28.3946 -19.014 21.6471 
670 1 3.71331 30.3183 -16.1126 
671 2 -21.1031 14.0959 28.6914 
672 1 -6.09677 -4.39375 7.88667 
673 2 25.0662 -15.8058 12.6461 
674 2 28.2697 10.0662 21.4905 
675 2 1.71369 0.180301 -3.34946 
676 1 12.328 -9.12534 -34.6221 
677 1 15.9008 -31.3693 -15.5221 
678 1 19.0796 12.6692 15.1524 
679 1 3.93648 -21.7867 11.8277 
680 2 16.1136 -19.0566 -10.3507 
681 1 27.0858 -6.68984 -30.2089 
682 1 16.7166 33.103 11.7259 
683 1 1.32379 11.7797 -22.1962 
684 1 -9.18297 -27.8558 -19.3649 
685 1 -25.6142 -26.2883 29.1057 
686 1 -8.38891 -12.683 25.3443 
687 1 33.5862 33.7076 23.8212 
688 1 -1.66714 -13.2351 -30.7514 
689 1 10.5684 -18.6488 0.755505 
690 1 -27.6864 19.0884 -3.59939 
691 1 6.13847 -30.4396 5.04056 
692 2 -20.7408 -5.62278 18.7519 
693 2 1.76852 4.4947 -29.9992 
694 1 -24.0187 -34.0457 17.7138 
695 1 25.4714 -31.2897 13.6978 
696 2 -0.659198 28.2085 22.3108 
697 2 2.2174 26.3547 0.596236 
698 1 -15.0632 15.8086 -33.5616 
699 1 22.7303 32.8197 -20.6479 
700 1 15.65 -25.924 31.1941 
701 1 -5.13812 14.7857 12.8378 
702 1 -5.91868 15.1895 -1.21842 
703 2 14.3759 -35.3061 -25.1626 
704 1 21.7976 17.0526 18.9537 
705 1 -34.1926 -0.150169 32.115 
706 1 -4.62327 -15.979 -4.9027 
707 1 -5.61085 -21.013 -23.0107 
708 2 -33.7388 -13.382 -22.1714 
709 1 -3.67955 -14.0425 13.3531 
710 1 -15.9456 -11.4458 3.26586 
711 1 30.5395 -19.5032 29.4607 
712 1 -19.7667 22.4138 22.2581 
713 2 9.34922 12.345 20.3773 
714 1 -0.502193 32.3801 24.2289 
715 1 -8.39443 8.03848 -35.1464 
716 1 5.92373 20.0208 10.1507 
717 1 10.8681 -33.7464 7.486 
718 1 -18.9909 -20.7145 16.1298 
719 1 26.8653 25.0003 -29.0045 
720 1 -10.7022 26.4655 30.141 
721 1 -17.9392 21.0877 -2.9066 
722 1 17.2475 -11.3211 14.1868 
723 1 6.7975 -27.1123 22.8087 
724 1 33.041 22.6289 28.3215 
725 1 1.39102 -8.22378 26.1488 
726 1 20.6289 -8.32519 -1.21472 
727 1 -6.17001 16.1843 -33.7679 
728 1 -34.186 25.0854 1.43432 
729 2 -20.057 -16.1792 -1.68069 
730 1 34.2252 -25.0026 9.33964 
731 1 -17.0475 6.98635 -22.0661 
732 1 32.0118 -25.3228 5.68827 
733 1 19.9186 25.7957 -4.14595 
734 1 33.8887 -9.66891 11.1721 
735 2 -10.6545 -32.5324 0.498892 
736 1 13.3506 -12.669 -25.0281 
737 1 1.14637 7.24033 30.5495 
738 1 -6.55551 -27.8588 9.02289 
739 1 -21.8144 20.8274 26.6722 
740 1 13.6121 -8.09712 -1.83679 
741 2 26.7482 -9.18662 24.117 
742 1 -12.304 -21.4166 18.4997 
743 1 25.0263 28.9988 -20.9784 
744 1 -27.2372 26.2053 -6.47272 
745 2 -5.30323 -5.94177 -22.8278 
746 1 29.312 26.232 9.13914 
747 1 -20.5067 -20.7753 -15.3887 
748 1 6.64164 -33.3062 16.4985 
749 2 2.8537 21.9733 -30.9261 
750 2 4.17171 -25.8638 -13.1902 
751 1 -13.9524 -10.7389 -9.64594 
752 1 -6.47317 16.4462 28.9908 
753 1 -27.2018 1.5765 -34.8762 
754 1 0.927025 -0.817129 1.57151 
755 1 -31.3102 -30.437 3.33167 
756 1 -35.0812 -14.8131 -3.1207 
757 1 2.62066 -2.09744 22.8863 
758 1 12.8458 0.169568 6.84533 
759 2 10.1489 -6.43421 5.66221 
760 1 32.2514 16.3925 4.62015 
761 1 0.780907 25.8269 17.1229 
762 1 -31.3896 6.18411 14.3969 
763 1 21.4057 -30.3429 -34.4218 
764 1 31.1555 -31.7086 -9.69646 
765 1 -25.0704 14.5638 -12.2383 
766 2 0.633635 2.74425 -8.72565 
767 1 11.0738 -7.34458 -18.8154 
768 1 29.1649 -26.295 -0.327627 
769 1 -3.16992 34.0923 19.0364 
770 1 -20.5525 -10.1474 17.806 
771 1 -19.276 -22.1019 23.98 
772 1 -13.475 -12.2247 12.9102 
773 1 -12.5856 -19.3362 19.7267 
774 2 -21.5497 -33.5834 25.1133 
775 1 17.4876 21.2053 -3.35989 
776 1 -14.4857 33.5939 -25.7196 
777 2 -32.2771 28.1694 1.81054 
778 1 16.9526 -7.67396 -32.6644 
779 1 24.8663 -30.2973 -27.2878 
780 1 -24.9677 -1.59511 -0.903476 
781 1 -30.6813 32.1743 23.9415 
782 1 -33.3723 -28.7029 31.4756 
783 1 -22.6088 14.1664 -17.9705 
784 1 20.6647 11.9562 -19.9485 
785 2 20.6373 2.05047 16.6462 
786 1 -19.206 27.3815 -17.0781 
787 2 -20.9351 7.3096 -24.0945 
788 1 -6.01163 29.9071 -20.6792 
789 2 14.3324 -9.11358 33.021 
790 1 12.2749 -30.0166 -10.2412 
791 2 9.92776 -0.369265 -34.628 
792 1 -22.5929 2.09094 -14.2812 
793 2 -35.3068 -14.6872 9.28355 
794 2 -22.5418 -19.0777 9.90384 
795 2 3.60973 16.1108 -5.91192 
796 1 31.3473 15.2435 -26.9678 
797 2 25.8428 18.3958 -0.285978 
798 1 6.88338 -1.59024 -6.04419 
799 2 -9.07818 -21.4704 26.6322 
800 2 -12.3558 -5.52867 -1.82173 
801 1 34.0619 -33.9007 4.84628 
802 1 13.2739 25.1141 -15.0259 
803 1 22.0975 3.53148 -0.599341 
804 1 7.28132 -28.2747 -1.14318 
805 1 -15.1589 -23.9349 16.8415 
806 1 -16.5209 28.37 -12.043 
807 1 23.0393 20.9225 -3.11169 
808 1 32.1166 -7.22915 29.5086 
809 2 -16.4404 8.25569 -23.8216 
810 1 -6.83865 30.6247 23.2888 
811 2 30.7327 -26.5245 -26.9602 
812 1 28.0946 -28.2057 26.129 
813 1 13.0279 33.6058 32.7973 
814 1 26.7908 -0.725994 21.2767 
815 1 -16.1146 26.2893 -7.85977 
816 1 -6.15655 0.458248 -23.571 
817 2 -1.89553 -5.89681 10.0731 
818 1 1.46875 -18.4965 -35.0747 
819 1 -13.5549 12.0219 -10.5516 
820 1 31.8456 -3.16471 28.6703 
821 1 15.6075 -0.0632905 -21.1109 
822 1 1.49889 -12.5553 -23.7559 
823 1 -26.6364 -16.1898 -6.75165 
824 2 -5.93101 -32.8422 -21.4615 
825 2 -13.9644 -7.81082 29.3917 
826 1 18.7748 0.557572 11.2292 
827 1 22.1925 14.9681 16.6673 
828 1 21.2026 32.6147 -29.881 
829 1 34.0892 -0.0221518 -11.4451 
830 1 -31.9658 20.373 3.1782 
831 1 -32.3882 -10.7087 1.71011 
832 1 -4.87982 -12.8116 -5.90617 
833 1 16.6026 5.24122 -0.983933 
834 1 22.0407 -7.96742 -24.5513 
835 1 -10.9316 -18.948 -16.5629 
836 1 -28.5508 -16.8598 -34.3959 
837 1 19.7417 -4.26114 -2.34267 
838 1 -12.1789 -23.6114 19.9987 
839 1 0.421235 15.8348 2.02306 
840 1 20.5962 -11.8932 -13.8251 
841 1 25.9937 13.3175 -2.91212 
842 1 14.0411 31.0556 -23.2531 
843 1 10.9209 -14.5134 34.0189 
844 1 8.06997 15.7897 -17.6344 
845 1 29.2953 26.4335 -11.1515 
846 1 -15.1361 -12.6547 -13.4193 
847 2 24.8389 -10.5471 -28.5256 
848 1 13.1093 20.0984 26.7709 
849 1 -13.2716 -17.33 8.83176 
850 1 -29.6572 -10.7649 6.81943 
851 1 -13.7918 31.5088 10.8031 
852 1 -33.6793 29.2519 31.9057 
853 1 -20.4126 21.1427 -5.79274 
854 1 16.7412 27.178 -17.9338 
855 2 -19.5742 -23.0114 26.104 
856 1 21.9633 27.1708 31.0665 
857 1 -8.55802 7.16394 1.18736 
858 1 13.9886 -6.76484 -22.6262 
859 2 -2.53057 -28.4827 -27.796 
860 1 -30.5244 33.734 -5.58102 
861 1 -16.1665 -10.371 -1.00136 
862 1 -15.2212 19.9653 16.6485 
863 1 4.21452 14.5376 27.3625 
864 1 17.0379 -29.9415 20.2005 
865 1 18.9912 21.9107 -9.79585 
866 2 23.8958 20.058 8.35444 
867 2 20.6919 7.56803 -30.6006 
868 1 21.0313 34.7258 17.5847 
869 1 -23.3231 27.6439 4.38637 
870 2 -10.1048 34.0382 -20.1151 
871 1 25.2365 10.727 -33.6458 
872 1 13.1998 0.773625 -11.6791 
873 1 7.82855 -21.3107 -25.8086 
874 1 -11.8318 24.9806 -26.2001 
875 1 -8.23187 2.64602 24.2658 
876 1 29.96 31.0725 -34.7472 
877 1 -13.137 -1.30943 26.2717 
878 2 27.3193 -31.7046 7.85139 
879 1 -32.5946 3.76482 -14.7172 
880 1 18.0413 3.96364 -29.2956 
881 2 31.8786 25.1842 -19.4247 
882 1 13.4204 -2.27305 -33.7448 
883 1 26.0803 7.16272 9.31743 
884 1 -27.1126 26.979 12.1248 
885 1 24.4886 16.0099 -19.2973 
886 2 29.9555 28.357 -12.1598 
887 1 -23.6639 -18.101 -11.5762 
888 1 31.5073 -10.5769 -17.2021 
889 2 25.2631 34.7979 2.56705 
890 1 25.2184 15.6366 -29.5782 
891 2 -14.4046 17.4116 -15.142 
892 1 -25.5152 -3.19386 -34.0367 
893 2 21.4732 16.2377 2.7423 
894 1 22.8303 -17.9388 33.93 
895 1 24.4308 -27.587 34.8827 
896 2 7.06142 20.3733 8.22342 
897 2 -7.47036 20.8044 -1.98299 
898 2 11.1604 34.8173 23.6934 
899 2 23.2233 -13.9111 -18.7197 
900 1 29.3979 -21.9941 31.0331 
901 2 -33.0449 34.6281 -30.9926 
902 1 21.0621 10.552 25.719 
903 1 -14 5.06642 14.7641 
904 1 17.6265 -20.7209 14.5793 
905 1 -12.7007 7.39274 -2.22784 
906 1 -7.7595 4.23683 -18.7218 
907 1 34.6573 13.5847 -22.9566 
908 2 24.1743 27.4798 1.19868 
909 1 5.09412 -16.6167 3.97102 
910 2 -6.57335 26.5472 1.13607 
911 1 -21.8831 8.48706 -27.9932 
912 1 -12.5851 29.8833 32.1686 
913 1 13.5061 29.4696 3.29889 
914 1 -9.44067 -3.45072 -2.38464 
915 2 -28.8265 -21.99 3.1293 
916 2 -25.2436 -7.04734 11.6518 
917 1 -2.0786 19.1686 -11.6577 
918 1 -0.984929 -14.2506 3.94445 
919 2 0.15771 9.6323 27.3239 
920 1 -27.5787 33.9844 -28.9121 
921 1 15.706 -33.499 27.2386 
922 2 -18.0187 -28.7907 34.0982 
923 1 12.8466 -3.88702 26.412 
924 1 26.2263 -19.8816 31.9919 
925 1 -16.2233 -2.01988 12.0467 
926 2 3.99263 31.1474 -21.4603 
927 1 -26.7551 23.3164 20.7542 
928 1 -6.77212 9.02012 22.4549 