ITEM: TIMESTEP
0
ITEM: NUMBER OF ATOMS
32000
ITEM: BOX BOUNDS pp pp pp
-35.3723 35.3723
-35.3723 35.3723
-35.3723 35.3723
ITEM: ATOMS id type x y z 
1 1 6.89591 -0.047805 -25.6328 
2 1 1.91598 25.2465 -3.82791 
3 1 -4.34938 33.6118 -10.3147 
4 1 28.1643 20.6058 32.4281 
5 1 35.1043 29.9478 -17.2339 
6 2 -24.147 13.3618 -16.5073 
7 1 -23.2908 -26.902 26.1208 
8 1 7.28888 -2.83464 -32.6721 
9 1 7.69416 18.964 17.1516 
10 1 -4.64825 23.291 2.4582 
11 2 -10.9227 24.9198 6.56646 
12 1 -15.0454 12.0769 26.6173 
13 1 30.512 -10.696 -21.3414 
14 1 -23.7609 -33.5798 -16.1711 
15 1 -11.3961 -15.3945 -4.99789 
16 1 -2.6357 25.2662 -32.5011 
17 2 -17.4052 -12.874 33.2733 
18 1 -7.13611 -28.7673 -19.5331 
19 1 -4.36534 34.2647 -33.3158 
20 1 -1.61292 -8.17953 -12.9552 
21 2 -30.2652 -2.25019 -0.962609 
22 2 -17.8285 24.7753 20.5966 
23 1 -20.995 -26.5568 -4.88128 
24 1 21.9551 -11.9939 -33.1473 
25 1 -12.5827 -33.371 -24.9417 
26 1 -26.7516 -17.2446 -9.43193 
27 1 14.9289 29.8391 -25.467 
28 1 2.77564 -7.72714 -16.1145 
29 1 13.5478 -23.2868 28.0949 
30 1 -12.2272 26.3652 -7.92584 
31 1 33.6026 -32.6691 -21.3205 
32 1 5.47097 31.333 27.0882 
33 1 9.44157 17.7112 -13.6675 
34 2 -16.738 -22.881 -21.889 
35 1 4.87184 28.4415 -32.4276 
36 2 -30.979 -6.40506 -19.4065 
37 2 34.3039 -0.365656 12.5121 
38 1 -25.7221 26.7315 9.93371 
39 1 29.3515 -1.73717 5.56305 
40 1 12.3943 -8.47679 31.6205 
41 2 17.3361 -34.234 19.3474 
42 1 -30.8104 -0.827863 -35.1718 
43 1 -1.63801 -26.6199 -26.711 
44 1 11.6301 22.7661 -26.8245 
45 1 33.0793 -3.07614 -8.76984 
46 1 34.553 31.2586 -25.1222 
47 1 7.40142 9.09233 -24.8689 
48 1 -16.6485 -22.1575 15.9797 
49 1 15.351 -4.88464 2.57605 
50 1 17.7429 12.2089 34.9526 
51 2 -12.941 16.0542 7.30697 
52 1 -27.6435 -10.0464 -1.32503 
53 1 8.01269 28.4536 -4.7969 
54 1 -30.3652 -0.491652 14.2803 
55 1 -21.0642 -0.545782 15.4052 
56 2 -32.0114 -15.2044 -19.1508 
57 1 -32.4604 -0.86195 -28.5824 
58 1 -23.6407 2.75604 -18.8735 
59 1 3.0157 -15.1954 -12.6509 
60 2 26.4809 9.28415 1.55588 
61 2 16.7376 30.4828 -6.34403 
62 1 -8.5471 10.7251 -3.06541 
63 1 -21.4983 20.9597 -0.836763 
64 1 10.2139 -28.2936 26.5796 
65 1 -13.7288 -5.18723 -24.2208 
66 1 33.6574 22.1628 25.7001 
67 1 22.8711 -0.881166 32.2575 
68 1 -20.8648 22.9488 -10.7547 
69 1 -3.40147 4.62464 -26.9571 
70 1 -0.594685 -11.2299 -5.58649 
71 2 -9.35116 -24.9675 9.86596 
72 1 7.19873 -13.0825 -17.0585 
73 2 7.1368 -31.2903 10.9822 
74 1 -13.64 11.2882 -29.6083 
75 1 -29.7273 23.08 -7.57846 
76 1 33.3829 -22.2182 23.6969 
77 1 8.08075 23.2685 20.8157 
78 1 31.9553 15.1918 26.9286 
79 1 25.0557 -10.6876 -8.34357 
80 1 -11.1768 -5.44725 -22.5249 
81 1 -0.47318 14.8665 6.44078 
82 1 6.26636 6.71517 -6.31293 
83 2 0.701852 7.38645 -11.9148 
84 2 -31.3027 10.8888 7.8946 
85 1 5.78762 0.889995 4.77414 
86 1 9.05918 -17.9043 24.541 
87 1 23.2249 10.741 16.7659 
88 1 16.6322 3.43243 -24.7162 
89 1 -4.90274 14.6254 1.1645 
90 2 12.3992 -26.6284 -32.9945 
91 2 24.4792 34.8172 -29.9746 
92 1 -31.6425 14.7851 -15.6329 
93 1 -25.5409 6.99156 -32.9618 
94 1 28.7523 -31.8311 1.82171 
95 2 -18.4112 1.51104 -4.8419 
96 1 -3.6212 23.0535 -13.6093 
97 1 -21.5338 13.497 11.0967 
98 2 -15.3002 -22.5444 -34.015 
99 2 -25.2451 31.4319 18.72 
100 1 21.6003 -31.4288 -0.382063 
101 1 -30.8853 -26.4778 23.0654 
102 2 27.7292 20.0497 10.4241 
103 1 9.48492 22.7631 -19.764 
104 1 -15.5806 -2.88655 -0.428696 
105 1 12.3842 -26.6069 -20.3227 
106 1 -18.4798 -10.9225 32.8466 
107 1 11.9443 -25.4154 33.9589 
108 1 33.4323 -13.237 19.4937 
109 2 10.6003 -26.8735 0.0700235 
110 2 -16.1617 14.0593 -8.44678 
111 1 -5.35162 12.1688 20.9906 
112 1 26.1744 21.0671 -8.91874 
113 1 1.95585 -2.9529 14.4476 
114 1 -22.9257 -6.34413 34.514 
115 2 -24.5529 31.8029 34.8709 
116 1 24.4749 31.8942 -24.5312 
117 1 17.2402 -25.5491 15.4422 
118 1 11.14 0.52913 -7.27976 
119 1 -22.9011 -10.275 -21.4624 
120 1 -5.99028 34.8451 -25.2356 
121 2 -2.4475 4.50481 -9.33566 
122 2 3.57187 32.6427 16.9815 
123 1 -16.0822 -11.0603 33.3838 
124 1 -9.25512 -8.84052 -16.7116 
125 1 7.91851 35.2247 9.06936 
126 1 -18.928 -34.6899 -8.71236 
127 1 30.1784 28.6918 31.7692 
128 2 14.2814 10.8048 4.30185 
129 1 13.3836 -25.9916 -34.9033 
130 2 -25.1928 24.965 19.9467 
131 1 31.5386 12.7668 -20.3168 
132 1 18.3974 16.1859 35.0409 
133 1 -11.8622 -19.0045 25.7927 
134 2 15.8185 30.1191 6.53413 
135 1 -23.7898 -17.2395 -1.60064 
136 1 -33.2749 -35.1846 31.6712 
137 1 17.4873 21.5875 30.1296 
138 2 -26.3023 -9.98602 9.39801 
139 1 -18.0306 -27.3393 -20.3178 
140 2 31.6015 25.2153 8.4731 
141 1 -22.1064 28.2966 29.4888 
142 1 -27.7564 -11.5857 -29.5874 
143 1 -6.88494 15.5523 14.4919 
144 1 -31.2289 -16.66 24.5444 
145 1 32.6718 -29.9335 -9.84908 
146 1 28.7432 -28.7778 22.0259 
147 1 -20.9734 13.2299 -13.5871 
148 1 -3.68863 -5.28765 -15.2498 
149 2 -19.7191 12.443 19.6023 
150 1 -22.0303 -8.91067 16.939 
151 1 31.9835 -1.07923 -22.6518 
152 1 21.8224 -33.4752 -20.4635 
153 1 11.7385 10.4605 33.3964 
154 1 1.98889 17.8174 -22.4712 
155 1 29.6119 -10.4458 -10.6796 
156 2 -2.80453 -9.86998 23.9443 
157 1 33.7066 -1.9804 8.57888 
158 2 26.9846 34.2705 -15.1458 
159 1 6.02735 -28.4426 -10.683 
160 1 -9.07296 -2.47601 -0.0567593 
161 1 12.6907 -17.3035 -26.2427 
162 1 28.9153 -6.99778 -23.8287 
163 2 19.9129 30.9951 32.6928 
164 1 20.9137 -5.69783 -25.0526 
165 1 -27.1373 32.736 4.32194 
166 1 9.64683 -30.6581 27.3937 
167 1 -34.0044 2.61065 12.8473 
168 2 33.3797 4.95553 11.2964 
169 1 -11.304 -20.328 23.7315 
170 1 -25.4437 18.5177 -30.023 
171 2 5.55851 15.9488 19.5122 
172 1 -17.3065 27.9151 -20.8626 
173 1 13.5365 3.72756 -6.02372 
174 1 -32.4661 -7.26998 6.54334 
175 1 -20.805 -32.0787 23.4574 
176 2 10.8826 15.4271 -28.3628 
177 2 32.6599 9.62947 -21.3857 
178 1 -8.52933 -3.08401 22.5673 
179 1 5.43976 0.645463 -16.0738 
180 1 -1.26947 3.73101 -3.24026 
181 1 -6.33544 33.2742 31.7964 
182 2 -17.1976 -8.08938 -7.15708 
183 1 -8.57518 24.6186 22.8786 
184 2 -9.08757 -15.0471 21.7338 
185 1 22.7169 -7.17911 -21.6174 
186 1 28.5509 -32.71 15.1455 
187 1 20.3411 -23.0421 -19.3151 
188 1 -22.9104 20.2477 -2.69397 
189 2 21.1607 -10.2496 22.5087 
190 2 26.4272 6.0999 3.76038 
191 1 15.262 19.324 -10.189 
192 1 -20.1217 27.8359 0.786607 
193 1 13.4918 5.74443 18.0038 
194 1 -33.6219 6.03852 -27.7547 
195 1 -21.7726 -19.03 25.6382 
196 2 19.8443 -18.8564 -29.8493 
197 1 -12.8972 -20.3506 27.3577 
198 2 -26.3248 12.8921 -12.3741 
199 1 -1.34544 33.3552 28.9373 
200 1 5.71858 16.7689 -5.08006 
201 1 -9.97855 -21.8001 -31.4174 
202 1 -2.13312 -30.0149 27.4025 
203 2 2.5701 22.82 22.3962 
204 1 -31.1465 -30.2253 -14.326 
205 1 18.4365 -13.8828 -32.5438 
206 1 -26.9854 -16.0783 -28.312 
207 1 31.8138 -17.1605 -27.6671 
208 1 -6.97057 13.568 6.30853 
209 2 2.88281 8.29638 15.3092 
210 2 12.0957 12.0842 29.0596 
211 1 -4.39842 -11.371 -15.0676 
212 1 -24.7908 -12.9328 -3.82321 
213 1 -28.9255 24.3743 21.1336 
214 1 -34.5296 6.54419 29.1465 
215 1 -6.23903 -1.69399 -7.78266 
216 1 -12.1396 -16.0641 23.2486 
217 1 -22.5542 -22.5145 -33.7159 
218 1 25.246 -26.6793 21.4045 
219 1 19.725 -14.6123 29.4034 
220 1 17.2263 4.74894 -14.0272 
221 1 -35.1305 -20.9267 10.4521 
222 2 3.77033 -29.063 -19.6875 
223 1 18.1044 21.0668 6.84064 
224 1 -25.6058 32.1165 24.5778 
225 1 -0.564888 -2.76499 -10.3483 
226 1 19.8407 -34.2515 -34.4933 
227 1 -18.9599 -6.10896 34.2976 
228 1 -28.9387 -32.0015 -22.3609 
229 2 -24.0668 -28.4315 -29.093 
230 1 25.9891 32.3506 -14.3254 
231 1 12.981 -31.8555 22.5134 
232 1 -11.8369 27.9126 -19.9185 
233 1 13.7747 -14.1851 29.6395 
234 1 -1.64126 -23.3023 -0.241512 
235 1 6.5965 14.0458 7.69703 
236 1 -25.4017 -30.8274 -2.25868 
237 1 17.8955 27.2207 3.78277 
238 1 -34.0467 19.5216 34.163 
239 1 3.18174 13.6061 30.7061 
240 1 33.1153 -2.5928 -20.8283 
241 1 -14.4382 -22.082 -19.6124 
242 2 0.141112 -27.5582 -29.6812 
243 1 30.6661 33.5724 7.62961 
244 1 -5.9355 -14.7616 -35.2543 
245 1 12.0406 32.1027 -23.5519 
246 1 -0.766207 -19.8914 4.3089 
247 1 -20.8969 14.8592 5.34799 
248 1 -20.9459 26.1169 -9.00488 
249 1 11.7062 31.5545 -2.839 
250 1 -18.1651 34.3789 -28.4002 
251 1 22.8271 6.51647 21.3957 
252 1 23.9461 -11.298 9.81729 
253 1 34.5189 -19.4837 -24.04 
254 1 -8.96382 -9.68113 -10.1472 
255 1 -35.3584 -22.4859 -17.8088 
256 1 -13.9253 26.8542 -30.3209 
257 2 -4.7258 -26.0339 -4.80559 
258 1 18.856 18.3063 -15.0113 
259 1 -29.1287 6.19832 27.017 
260 2 33.1049 2.23142 -14.5239 
261 1 17.3966 -28.2665 -30.5447 
262 1 -32.4079 28.4702 14.1284 
263 2 20.1827 32.4631 17.855 
264 1 15.9305 14.857 -4.00883 
265 1 23.2357 -11.0881 21.8099 
266 1 6.23935 -20.9524 -10.5584 
267 1 -4.41956 -21.6892 -25.4123 
268 1 -29.5803 12.2468 -20.859 
269 1 20.8139 30.5667 -34.3844 
270 2 3.8091 8.12519 20.9339 
271 1 13.0486 -18.5288 9.75744 
272 1 14.8551 11.3658 24.7112 
273 1 -9.41558 17.2989 31.181 
274 2 32.0191 -0.782169 -17.1732 
275 1 32.9848 -12.496 -34.2242 
276 1 4.61136 17.9338 10.6849 
277 1 5.14122 25.1336 -21.8405 
278 2 26.5435 -8.67393 -31.3278 
279 1 -15.457 9.72612 -5.10044 
280 1 -27.8121 -28.6601 -30.5377 
281 2 -1.91921 17.3003 -27.2111 
282 1 3.21062 -14.4352 -16.9586 
283 1 4.47308 -34.6859 -4.99969 
284 1 -6.20929 30.761 -28.2157 
285 2 16.9026 20.1248 -5.77853 
286 1 -23.127 33.6994 -18.6319 
287 2 21.6069 -24.2987 -33.4482 
288 1 19.9272 -10.8564 -33.9676 
289 1 -8.88064 -7.56432 8.01924 
290 2 11.5486 34.4983 19.9173 
291 1 0.824648 20.2269 12.5511 
292 1 17.4916 34.4303 20.316 
293 1 -29.292 4.64492 -26.2723 
294 1 -32.6449 15.0356 -5.66225 
295 2 -33.4029 18.9796 -12.0018 
296 2 27.9634 34.5634 -31.1126 
297 2 8.93616 -2.48047 -27.3415 
298 1 -14.8177 18.6219 9.70399 
299 1 1.23069 -33.7053 28.6352 
300 1 20.3631 -27.0065 -17.4818 
301 2 -12.0033 22.313 -26.4382 
302 2 -30.8558 28.1655 -33.7578 
303 1 -21.2298 -7.08474 -14.2284 
304 1 -5.36928 -23.3636 15.0543 
305 2 30.0503 6.10062 28.5424 
306 1 -24.3149 1.99757 -23.0962 
307 1 -35.0902 -25.6143 -32.8365 
308 2 14.0863 -2.8864 12.0159 
309 1 16.0034 -23.8494 16.7922 
310 1 -16.1019 -9.98502 -32.599 
311 1 27.7627 30.1853 1.47416 
312 2 3.48136 -25.6689 3.42021 
313 1 -15.053 11.2128 -27.6269 
314 1 -10.6777 -21.4861 -1.28515 
315 1 -15.7112 10.882 13.2138 
316 1 16.4891 -10.3391 -11.6054 
317 1 -14.9771 18.0286 29.384 
318 1 34.4842 22.8588 16.977 
319 1 13.6428 -5.23211 -10.7441 
320 1 2.27255 -33.751 -8.84587 
321 1 -33.5501 21.1776 -12.2341 
322 1 33.9035 -0.665711 -2.3665 
323 1 13.3034 -12.7775 -22.0747 
324 1 -3.01473 -7.05053 29.8462 
325 1 4.86417 -14.3264 -20.7209 
326 1 2.57786 -28.1521 -31.068 
327 1 33.9414 -3.37152 18.2583 
328 1 15.5783 -1.78025 28.7228 
329 1 34.9964 14.7833 -7.33743 
330 2 15.6214 -0.551581 -6.80271 
331 1 29.0817 2.26019 8.65912 
332 1 -19.2063 -18.3936 15.0009 
333 1 -14.847 -2.42915 5.10403 
334 1 26.5037 -3.613 15.7419 
335 2 20.456 12.409 23.8041 
336 1 21.5343 23.7094 28.5432 
337 1 31.6498 -14.3257 -14.6139 
338 1 21.2616 -11.5488 -26.922 
339 2 15.204 -10.7625 13.6434 
340 1 33.2306 -34.5096 -34.5212 
341 1 3.5485 -18.7419 -19.4365 
342 1 -3.02455 -0.842958 2.41965 
343 1 33.5366 9.20671 13.5241 
344 1 -25.8261 -4.07244 2.73742 
345 1 12.2644 34.6335 7.57728 
346 1 -27.354 -25.4703 -18.6652 
347 1 -10.2421 27.0064 -18.1524 
348 1 -33.5631 -32.725 -15.0002 
349 1 -19.3946 10.8556 0.737899 
350 1 -20.4064 -15.1578 12.2873 
351 1 11.1422 -2.85405 -26.7672 
352 1 22.665 23.9396 24.7572 
353 1 4.68104 -31.6727 28.1484 
354 2 -27.2502 25.5625 34.2979 
355 1 -23.7226 13.5615 -14.0343 
356 1 -21.5312 9.21114 20.8965 
357 1 -1.38424 30.7319 -32.4211 
358 1 -2.089 28.5622 11.9134 
359 1 34.4141 -29.3824 4.50796 
360 1 11.3267 -16.8252 32.4556 
361 1 15.1097 2.35134 -4.89012 
362 1 29.9794 14.9565 28.5239 
363 2 -15.1564 -8.58763 -25.5354 
364 1 -19.2184 24.738 10.3708 
365 1 23.871 13.0433 -24.1184 
366 1 -21.8969 -26.7136 32.1072 
367 1 17.0874 15.0594 4.57544 
368 1 23.2626 -19.8605 7.58248 
369 1 -16.5736 -10.6566 7.72502 
370 1 32.3782 3.57195 -31.5412 
371 1 11.2678 -31.9533 -17.2696 
372 1 29.7647 10.6025 -4.94616 
373 1 33.3427 23.1798 -10.8057 
374 1 25.8002 -6.66715 -15.889 
375 1 -9.44269 9.14252 6.75714 
376 1 27.3017 5.66162 7.68394 
377 2 14.2921 -8.65947 -33.939 
378 2 -28.9777 -6.45819 11.4362 
379 2 -10.6245 -21.681 14.4517 
380 2 1.79831 -22.7511 6.12537 
381 1 -3.59447 13.0161 -18.538 
382 2 31.4953 -34.3297 -10.1754 
383 1 3.32019 -19.1237 22.2268 
384 1 -0.0677711 20.0414 -16.7329 
385 1 -10.3055 -22.4137 -14.8731 
386 1 -1.01913 30.9106 -0.345235 
387 1 -8.78852 25.7616 20.6764 
388 2 -21.5911 -5.63252 11.1944 
389 1 -1.29466 -19.1272 -8.4142 
390 2 26.1334 -35.0017 6.80098 
391 1 20.9209 6.9566 6.09014 
392 1 -0.149846 19.0512 -1.46807 
393 2 -17.155 5.97916 23.4646 
394 2 -33.5475 -18.5338 27.2521 
395 2 -31.7887 -30.1539 -20.7766 
396 1 19.7619 23.9931 -10.843 
397 1 16.6812 -1.14441 26.6527 
398 2 14.4731 22.8619 33.4157 
399 2 -18.6931 -16.6098 19.1521 
400 1 -19.4141 -24.5394 11.2828 
401 1 -19.0346 -19.927 22.5402 
402 1 27.6423 -21.0374 -13.6484 
403 1 33.9682 -1.4834 -4.694 
404 1 -1.27657 -21.8551 29.9538 
405 1 -17.5655 -20.2112 20.2577 
406 1 -28.1955 -0.782555 -28.7215 
407 2 -16.414 -21.8463 27.9052 
408 2 19.6266 -12.3586 28.8335 
409 2 17.1007 -34.3278 -31.1613 
410 1 -2.47666 -6.01324 -1.45321 
411 1 16.5025 26.2743 27.0307 
412 1 -4.32129 7.83822 -2.41793 
413 1 27.1486 24.0356 -21.5284 
414 1 4.69416 -6.38601 -34.5316 
415 1 -16.6906 13.5707 8.00156 
416 1 -33.0192 -17.3874 -30.0227 
417 1 19.3775 1.75494 -4.68167 
418 1 27.9744 -29.3048 -20.2595 
419 1 -7.65421 16.0543 32.9293 
420 1 -32.4054 -10.4369 27.3682 
421 2 -8.65378 -31.8409 16.403 
422 1 -28.4124 -32.1764 28.9038 
423 1 13.3073 2.73996 32.538 
424 1 -15.731 -34.4663 8.9774 
425 2 -15.9349 5.79068 -31.28 
426 1 18.005 14.8602 -14.1179 
427 1 -25.9847 -25.5123 31.4453 
428 1 -15.0731 8.2855 -18.3494 
429 1 6.04773 -32.4729 35.3451 
430 1 25.9272 -11.9965 11.2502 
431 1 -14.3898 1.85739 10.7567 
432 1 -12.2259 -0.322135 17.5006 
433 1 -4.85113 2.60095 8.06588 
434 2 1.0535 -31.2029 -22.8369 
435 2 18.0356 13.9901 -29.958 
436 1 11.0595 -19.9984 -25.9155 
437 1 16.2582 -34.0319 33.9687 
438 1 26.2615 32.8126 19.7323 
439 2 -35.1002 -6.42343 -11.8846 
440 2 3.24275 -23.1333 -16.1719 
441 1 28.7771 -16.3821 32.2492 
442 1 16.8615 10.7231 33.1184 
443 1 -22.7735 12.8072 -29.5719 
444 2 -1.1163 -14.9841 22.3076 
445 1 -20.9301 12.44 6.38458 
446 1 32.3166 -6.11802 -1.52696 
447 2 -19.6804 21.2324 7.10895 
448 2 -18.4352 -1.79881 11.9084 
449 1 -12.2383 21.7495 21.5209 
450 1 -23.7457 31.1331 -24.1232 
451 1 -25.3654 17.757 -34.7292 
452 1 8.8431 11.7474 -1.96343 
453 1 -9.25818 12.9602 -32.9421 
454 1 34.6136 -7.89232 -25.9392 
455 1 29.3778 -26.5004 21.1084 
456 2 9.87149 5.7564 8.3716 
457 1 -20.7539 6.70957 32.7151 
458 1 20.2115 11.5418 5.97232 
459 1 26.3436 -26.9702 -17.6403 
460 1 -7.24014 35.1939 -30.067 
461 2 27.8735 25.917 33.6084 
462 2 34.2339 -25.987 -29.4069 
463 1 29.5326 24.9922 -29.1657 
464 1 -23.1912 22.3711 -21.0999 
465 1 5.861 -1.45447 1.24012 
466 1 -4.74457 14.4592 21.8692 
467 1 -33.8011 -20.562 -11.8846 
468 1 0.397439 -32.1587 -13.0734 
469 2 9.25929 24.0146 14.5549 
470 1 -19.2886 2.37959 8.82284 
471 1 -30.4188 -13.0056 -12.3564 
472 1 19.457 -15.614 20.061 
473 2 26.5765 16.9944 -18.8701 
474 1 -25.2455 -6.85226 9.33296 
475 1 2.53891 -16.8966 11.0823 
476 2 32.9867 26.2069 -24.5822 
477 1 10.0983 3.63997 30.1605 
478 1 34.7723 20.8517 14.8615 
479 1 30.0036 8.01125 11.2415 
480 2 11.6325 -15.8051 21.0395 
481 2 -30.7611 34.5354 32.2345 
482 2 -3.22428 24.6784 32.5234 
483 1 25.8033 -5.8909 -18.3804 
484 1 7.23368 24.7303 15.1434 
485 1 -26.1297 -22.2519 -26.5527 
486 1 -23.3145 21.7196 23.3304 
487 2 -21.1281 -23.9559 15.0216 
488 1 -8.89801 21.1392 16.413 
489 2 -30.6939 11.3205 -6.05463 
490 2 -27.7004 -34.1978 -6.86346 
491 2 -24.928 5.32847 -10.0484 
492 1 -31.5296 30.2426 -29.8628 
493 1 -19.9184 -23.4706 -11.0865 
494 1 8.72316 19.7047 -31.6584 
495 1 7.29767 8.29266 -14.3668 
496 1 -12.1914 -16.2442 -30.0088 
497 2 -11.1153 -15.6315 5.63539 
498 1 3.16385 -1.32759 -11.794 
499 1 -11.1277 26.7368 34.061 
500 1 -6.82888 21.3243 -34.9244 
501 1 -6.30519 -6.21541 24.0916 
502 2 27.301 26.3635 -26.1183 
503 1 3.32226 29.0927 -11.4973 
504 1 -10.0597 -11.1685 -12.2234 
505 2 21.8002 -21.2222 -19.8581 
506 1 25.1108 -1.22469 5.28679 
507 1 -29.0937 -0.444315 10.0947 
508 1 -21.0172 18.2507 -2.98207 
509 2 1.30006 11.4565 -27.8243 
510 1 7.29159 -12.6181 0.192171 
511 1 33.6 -27.3217 5.6844 
512 1 -16.3503 12.4887 32.091 
513 1 22.7583 -9.11591 -14.4281 
514 1 -27.9339 8.23403 -6.74525 
515 1 15.6069 22.5094 0.110779 
516 1 -4.37646 -29.3972 35.0654 
517 1 3.43068 -28.7434 -4.02548 
518 1 -16.7794 -20.2325 -25.4224 
519 2 29.0709 27.2141 -21.2445 
520 1 17.0419 -33.7693 -9.15332 
521 1 25.1972 -33.8199 -29.3255 
522 2 -5.70235 -31.1617 -34.8461 
523 1 -16.131 24.6664 24.1293 
524 1 0.714323 19.1614 -18.7769 
525 1 11.194 20.9033 -15.1014 
526 1 25.2613 32.7214 3.54164 
527 1 -16.0872 -12.5303 -31.2668 
528 1 -9.5421 -2.71015 5.48222 
529 1 -11.3295 18.1162 -16.927 
530 1 -26.7066 21.8328 18.2886 
531 1 5.27722 21.8787 28.0022 
532 2 30.5841 6.56273 -24.2186 
533 1 20.4892 14.9324 31.4676 
534 1 -14.3888 25.3051 19.813 
535 1 -6.19131 -11.4881 18.3203 
536 2 -17.5401 22.5804 -8.62435 
537 2 6.75887 -13.4398 -7.66866 
538 1 -7.02258 29.0107 -14.0147 
539 2 15.1149 -28.4866 6.58507 
540 1 -5.36317 6.12489 30.4008 
541 1 22.3107 32.7156 27.8505 
542 2 -20.263 -12.7232 -2.9574 
543 1 10.3452 34.0179 28.318 
544 1 6.17186 -29.4116 15.2206 
545 2 31.4411 -13.5501 7.89526 
546 1 30.9071 -13.1169 -21.86 
547 1 33.4411 2.88219 31.9482 
548 2 -32.3534 -32.2592 18.0523 
549 1 14.5434 -25.3769 10.1586 
550 2 11.442 0.573337 -17.0707 
551 1 -26.6617 27.1585 -11.7445 
552 1 22.4237 30.8885 -12.5301 
553 1 26.4521 -18.65 10.5969 
554 1 -4.67894 7.68339 7.4564 
555 1 22.983 7.60588 -31.4674 
556 1 -17.6007 -10.192 -7.2227 
557 1 -35.2281 22.6873 27.1131 
558 1 -32.7092 17.3897 -24.402 
559 2 -11.0849 34.9659 35.1704 
560 1 -20.0292 15.1796 -27.2918 
561 1 11.8397 -1.22786 1.43813 
562 1 -23.2931 20.6726 8.04377 
563 1 -22.6629 32.8802 15.8338 
564 1 -5.59224 13.9441 -30.7297 
565 1 14.8803 -16.0855 -19.7638 
566 1 31.7504 -33.1928 29.1504 
567 2 32.8648 4.7801 -10.2832 
568 1 -30.8888 -14.5193 4.68929 
569 2 -6.31982 -13.7123 -27.1554 
570 1 -34.5558 -2.26559 -35.2742 
571 1 -10.8164 -26.7317 -13.5495 
572 1 32.2656 0.134509 -27.8668 
573 1 -4.95896 -17.4561 19.2443 
574 1 25.8324 -33.2638 4.3672 
575 2 -8.69693 -26.1202 -26.9364 
576 1 -23.4396 -0.157864 -22.7407 
577 2 -7.83234 -8.60997 6.17798 
578 1 -18.6369 15.5057 -16.419 
579 1 22.6482 23.0919 -3.21857 
580 1 -11.5732 -9.07596 24.6064 
581 2 14.4739 3.88538 -30.7374 
582 1 13.4771 -28.5464 -20.8927 
583 2 -10.6073 -13.6709 -3.80409 
584 1 -33.8575 16.3798 11.906 
585 2 33.983 8.26831 -25.2389 
586 2 11.662 -22.9222 -25.0673 
587 1 28.1228 -1.73844 -14.7457 
588 2 18.7199 31.9573 -3.26441 
589 1 31.2328 -0.0573171 0.885059 
590 1 24.4468 -22.3957 0.543413 
591 1 25.5416 -21.1411 -24.7532 
592 1 31.0529 -15.7504 3.1232 
593 2 -33.8422 -10.569 3.40763 
594 1 -22.7943 27.4061 -7.81675 
595 2 22.9118 24.3247 14.1862 
596 2 -19.5365 -34.6896 -24.2867 
597 1 32.7752 8.16 -12.8236 
598 1 18.3828 15.631 -19.3423 
599 2 33.1817 -17.0693 2.78241 
600 1 -19.0185 -18.6319 33.8428 
601 1 18.2738 9.29256 15.7269 
602 1 21.3867 -19.9512 -22.1638 
603 1 12.0856 27.1548 -24.8786 
604 1 -12.8921 -24.478 11.8081 
605 1 24.3645 -30.2363 10.9129 
606 1 -14.254 13.32 6.60327 
607 1 -8.11607 -14.4199 7.95305 
608 2 34.8419 29.6214 -26.55 
609 1 -23.9357 -13.4235 -29.6352 
610 1 35.2859 6.0264 10.4112 
611 1 11.6131 -17.686 30.1257 
612 1 -23.4305 -7.04461 -29.1881 
613 2 -9.11236 16.7651 -1.96462 
614 1 34.0764 -16.6984 -17.1169 
615 1 2.4095 19.0494 18.0618 
616 1 7.41231 -19.3854 23.6035 
617 2 -17.6733 16.7975 32.8991 
618 1 -19.6387 -17.83 -5.04779 
619 1 30.7946 -4.58662 -29.963 
620 1 28.3341 -2.00566 -7.00352 
621 1 17.8105 -23.0837 -33.2541 
622 2 -20.7467 16.9022 8.33325 
623 1 21.7886 27.4055 2.10012 
624 1 -19.7317 -35.0604 -20.1161 
625 1 23.3316 31.4854 -28.2545 
626 1 -26.9309 -12.0722 23.4324 
627 1 12.1198 -3.43457 -22.8163 
628 1 -23.1968 -0.931301 5.99961 
629 1 33.5043 -19.5653 14.3381 
630 2 -1.67619 17.8307 16.8427 
631 1 17.7076 1.3097 -24.2327 
632 1 -8.98962 -10.2013 -5.8496 
633 1 27.7531 -34.0136 -2.31302 
634 1 -27.3459 31.9647 -11.3209 
635 1 16.4615 32.6946 16.9567 
636 1 14.21 7.33039 -19.0761 
637 1 -6.20322 27.0124 14.2267 
638 2 5.64712 -3.50046 -28.895 
639 1 -16.7726 -35.301 0.959132 
640 1 0.798753 -20.5249 -4.28721 
641 1 -11.9628 -11.6045 -30.0946 
642 1 -2.80011 32.9389 -27.1736 
643 1 0.33961 -22.7837 -22.1376 
644 1 11.7019 22.371 -31.1682 
645 1 29.6888 25.6512 -8.83731 
646 1 -13.3026 25.7695 -20.133 
647 2 32.5361 6.34626 -14.4338 
648 1 6.1199 22.1125 -19.7477 
649 2 8.27937 12.5487 7.81048 
650 1 -18.3053 -4.27048 10.6303 
651 2 -0.490685 -11.5593 -16.7441 
652 1 -17.7565 -21.1974 5.48138 
653 1 32.1689 -12.1648 26.1387 
654 2 17.7159 31.5715 4.27232 
655 1 -13.5992 -15.0694 -5.65546 
656 2 -18.4855 -8.78849 17.9916 
657 2 33.5609 17.6229 -12.1147 
658 1 -20.8214 10.1947 -20.1637 
659 1 16.0088 -13.613 28.705 
660 1 -33.1199 9.74303 31.523 
661 1 3.32223 -0.363289 -16.1839 
662 1 -7.16667 -4.41125 15.5972 
663 1 -18.9172 -26.9516 -24.1401 
664 2 -28.4226 28.8323 -27.0978 
665 1 23.9167 16.0499 -27.603 
666 1 18.6475 22.4641 34.1238 
667 2 4.7452 -18.2242 2.17378 
668 1 25.0543 31.585 -20.4763 
669 1 -28.476 -18.9105 21.4037 
670 1 3.64042 30.4585 -16.0287 
671 2 -21.0334 14.0905 28.5603 
672 1 -6.23521 -4.41521 8.20463 
673 2 25.2719 -15.7109 12.5171 
674 2 28.3123 10.0216 21.5437 
675 2 1.94066 -0.0179845 -3.15461 
676 1 12.1697 -9.30006 -34.7557 
677 1 15.8771 -31.4437 -15.5838 
678 1 19.0516 12.7328 15.1558 
679 1 3.86717 -21.7397 11.3995 
680 2 15.9476 -19.1007 -10.2836 
681 1 27.0533 -6.73445 -30.1259 
682 1 16.7872 33.0449 11.8082 
683 1 1.11473 11.5816 -22.097 
684 1 -9.40391 -27.9126 -19.4179 
685 1 -25.8109 -26.4232 29.2007 
686 1 -8.38143 -12.5379 25.3876 
687 1 33.3971 33.7175 23.6358 
688 1 -1.6104 -13.1134 -30.873 
689 1 10.4547 -18.7642 0.859833 
690 1 -27.5156 18.905 -3.48262 
691 1 5.90278 -30.6506 4.77686 
692 2 -20.7336 -5.55305 18.5525 
693 2 1.54138 4.42388 -29.9411 
694 1 -23.8745 -33.8477 17.8467 
695 1 25.3477 -31.4702 13.8425 
696 2 -0.719799 28.0523 22.3135 
697 2 2.0843 26.4662 0.519265 
698 1 -14.8362 15.7968 -33.5923 
699 1 22.531 32.942 -20.7359 
700 1 15.6064 -25.9588 31.2562 
701 1 -5.27506 14.9584 12.8094 
702 1 -5.79412 15.0481 -1.08731 
703 2 14.4538 -35.0948 -25.0503 
704 1 21.7254 16.7423 18.9758 
705 1 -34.3764 0.0239322 32.2488 
706 1 -4.41122 -16.1331 -4.954 
707 1 -5.45461 -20.8231 -23.0988 
708 2 -33.7165 -13.2567 -22.0874 
709 1 -3.7331 -14.0416 13.3754 
710 1 -15.7917 -11.6611 3.37694 
711 1 30.4305 -19.7928 29.5878 
712 1 -19.8994 22.3671 22.4411 
713 2 9.393 12.3399 20.294 
714 1 -0.476105 32.2361 24.3673 
715 1 -8.23215 7.83634 -35.0837 
716 1 5.84923 20.0579 10.158 
717 1 10.9007 -33.6409 7.41106 
718 1 -18.8702 -20.5806 16.0676 
719 1 26.759 25.0388 -28.8155 
720 1 -10.6048 26.68 30.0875 
721 1 -17.8946 20.8716 -2.96588 
722 1 17.2273 -11.5591 14.2053 
723 1 6.83066 -27.0492 22.9048 
724 1 33.2254 22.346 28.1318 
725 1 1.61173 -8.32519 26.1302 
726 1 20.9389 -8.17267 -1.33172 
727 1 -6.28987 16.2207 -33.9881 
728 1 -34.156 25.0983 1.36729 
729 2 -20.2115 -16.1669 -1.43509 
730 1 34.0704 -24.9191 9.22383 
731 1 -17.0124 7.2535 -21.9736 
732 1 31.8364 -25.3736 5.8343 
733 1 20.1227 25.9717 -4.04643 
734 1 34.0882 -9.73085 10.9794 
735 2 -10.7116 -32.4204 0.517916 
736 1 13.3943 -12.6866 -25.1182 
737 1 1.20862 7.12566 30.4772 
738 1 -6.68191 -27.8595 8.93096 
739 1 -21.8303 20.429 26.6289 
740 1 13.7054 -8.18511 -1.81509 
741 2 26.6521 -9.06602 24.1133 
742 1 -12.1376 -21.6522 18.6499 
743 1 24.9309 28.8507 -20.7282 
744 1 -27.2497 26.1054 -6.6382 
745 2 -5.23931 -5.65981 -22.6638 
746 1 29.2172 26.07 9.162 
747 1 -20.5186 -20.7796 -15.4639 
748 1 6.61042 -33.6217 16.5946 
749 2 2.84069 21.7732 -31.0121 
750 2 4.23547 -25.754 -13.1751 
751 1 -14.0498 -10.704 -9.65025 
752 1 -6.18561 16.3533 28.8453 
753 1 -27.206 1.5836 -35.14 
754 1 0.861609 -0.906984 1.66543 
755 1 -31.457 -30.5697 3.5127 
756 1 -35.2847 -14.8504 -3.03782 
757 1 2.81683 -2.28628 22.8413 
758 1 12.6668 0.221018 6.77992 
759 2 10.3264 -6.30989 5.86814 
760 1 32.3618 16.4841 4.54896 
761 1 0.564086 25.7736 17.1819 
762 1 -31.3529 6.04364 14.3435 
763 1 21.5312 -30.5313 -34.1748 
764 1 31.2778 -31.8608 -9.77343 
765 1 -24.9336 14.6935 -12.1629 
766 2 0.752442 2.87353 -8.8717 
767 1 11.0619 -7.59139 -19.0033 
768 1 29.3002 -26.371 -0.327524 
769 1 -3.21205 33.9167 19.157 
770 1 -20.2161 -10.3156 17.9688 
771 1 -19.1973 -22.0635 23.7534 
772 1 -13.4999 -12.1007 12.7952 
773 1 -12.5644 -19.4125 19.8241 
774 2 -21.6109 -33.5967 25.1447 
775 1 17.5021 21.1255 -3.23482 
776 1 -14.5162 33.5301 -25.8844 
777 2 -32.0736 28.1505 1.26686 
778 1 16.8802 -7.59834 -32.7519 
779 1 24.7288 -30.4875 -27.2854 
780 1 -24.888 -1.57585 -1.0064 
781 1 -30.682 32.1351 24.1426 
782 1 -33.5654 -28.9175 31.4841 
783 1 -22.5348 14.2771 -17.9531 
784 1 20.7109 11.9646 -20.0582 
785 2 20.6928 2.07211 16.7161 
786 1 -19.0727 27.1349 -17.1784 
787 2 -20.9118 7.16371 -23.8748 
788 1 -5.8568 29.716 -20.7994 
789 2 14.3233 -9.19787 32.9612 
790 1 12.2697 -30.1846 -10.5446 
791 2 9.84167 -0.603254 -34.9308 
792 1 -22.5979 1.9849 -14.215 
793 2 -35.2478 -14.8404 9.22593 
794 2 -22.5236 -19.07 9.91459 
795 2 3.74774 16.1669 -5.94668 
796 1 31.3593 15.4216 -27.2084 
797 2 25.8013 18.3728 -0.360656 
798 1 6.85334 -1.20283 -6.23865 
799 2 -9.04929 -21.4205 26.6182 
800 2 -12.5443 -5.53525 -1.90914 
801 1 34.0735 -34.0142 4.91368 
802 1 13.131 25.094 -14.9929 
803 1 21.8895 3.53762 -0.462884 
804 1 7.30227 -28.3433 -1.05874 
805 1 -14.8931 -23.8869 16.7257 
806 1 -16.6788 28.1437 -12.2492 
807 1 23.2283 20.8183 -3.11586 
808 1 32.1631 -7.43788 29.7113 
809 2 -16.6104 8.26775 -24.0057 
810 1 -6.97983 30.5873 23.2777 
811 2 31.2744 -26.5072 -26.815 
812 1 27.8983 -28.0354 26.3387 
813 1 12.8595 33.5333 32.8114 
814 1 26.6928 -0.473407 21.1901 
815 1 -16.1857 26.3271 -7.758 
816 1 -6.09375 0.36492 -23.4222 
817 2 -1.93865 -5.76501 10.1142 
818 1 1.61524 -18.4017 -35.2684 
819 1 -13.5884 12.1622 -10.5403 
820 1 31.8765 -3.15548 28.6915 
821 1 15.5695 -0.166547 -21.0653 
822 1 1.68202 -12.618 -24.1386 
823 1 -26.394 -16.1583 -6.6949 
824 2 -5.85136 -32.9197 -21.4031 
825 2 -13.8675 -7.60968 29.4015 
826 1 19.0317 0.549348 11.2211 
827 1 22.381 15.0742 16.7579 
828 1 21.247 32.5491 -29.9775 
829 1 34.1789 0.118841 -11.6838 
830 1 -31.8931 20.2876 3.22107 
831 1 -32.3929 -10.7972 1.60741 
832 1 -4.69946 -13.0081 -5.99557 
833 1 16.6185 5.26307 -0.753024 
834 1 22.1537 -8.11864 -24.4987 
835 1 -10.8733 -18.9365 -16.5099 
836 1 -28.3913 -16.7318 -34.6292 
837 1 19.5387 -4.109 -2.0642 
838 1 -12.1513 -23.7309 20.0767 
839 1 0.543279 15.933 1.94377 
840 1 20.494 -11.9097 -13.8898 
841 1 26.1202 13.3269 -2.79244 
842 1 14.2535 31.1798 -23.2474 
843 1 10.8915 -14.842 33.8886 
844 1 8.04817 15.7381 -17.4218 
845 1 29.2245 26.5092 -11.2157 
846 1 -15.05 -12.4685 -13.3729 
847 2 24.9043 -10.5901 -28.7535 
848 1 13.3532 20.138 26.8328 
849 1 -13.4592 -17.2239 8.77219 
850 1 -29.7259 -10.4636 6.81767 
851 1 -13.7268 31.7468 11.0037 
852 1 -33.9523 29.2316 31.8511 
853 1 -20.1361 21.2311 -5.65474 
854 1 16.5156 27.0476 -17.5008 
855 2 -19.6234 -22.8684 25.8732 
856 1 22.1435 26.9145 31.2733 
857 1 -8.599 7.2116 1.07664 
858 1 14.1144 -6.60994 -22.6304 
859 2 -2.31824 -28.6373 -27.8147 
860 1 -30.4393 33.7044 -5.61209 
861 1 -16.1867 -10.4262 -0.930207 
862 1 -15.2217 19.8773 16.7342 
863 1 4.2766 14.5126 27.3224 
864 1 17.1605 -30.135 20.4316 
865 1 18.8761 21.8412 -9.73894 
866 2 23.8414 20.0308 8.43538 
867 2 20.7072 7.37401 -30.6928 
868 1 21.2322 34.4468 17.5902 
869 1 -23.1272 27.6852 4.54873 
870 2 -10.1038 33.9429 -19.9844 
871 1 25.114 10.7287 -33.7085 
872 1 13.1647 0.853551 -11.5623 
873 1 7.66395 -21.2754 -25.8427 
874 1 -11.9299 25.2224 -26.228 
875 1 -8.09491 2.9267 24.1013 
876 1 29.9179 31.1282 -34.6398 
877 1 -13.0752 -1.25663 26.1601 
878 2 27.2811 -31.662 7.73859 
879 1 -32.5636 3.98491 -14.6485 
880 1 17.9297 4.07945 -29.44 
881 2 31.6999 25.4272 -19.7634 
882 1 13.4125 -2.30817 -33.8543 
883 1 26.1379 7.21716 9.34444 
884 1 -27.2122 26.9214 12.1496 
885 1 24.5246 16.0386 -19.252 
886 2 29.9216 28.44 -12.053 
887 1 -23.5366 -18.3167 -11.5376 
888 1 31.5005 -10.6264 -17.091 
889 2 25.1257 34.6892 2.6721 
890 1 25.0572 15.4892 -29.7264 
891 2 -14.3845 17.1821 -14.9458 
892 1 -25.3696 -3.3414 -34.0314 
893 2 21.5095 16.3511 2.86828 
894 1 22.9662 -17.9234 33.9465 
895 1 24.4268 -27.6184 34.8822 
896 2 7.07259 20.4238 8.30788 
897 2 -7.4945 20.9636 -2.24735 
898 2 11.3262 34.7389 23.6368 
899 2 23.1756 -13.8433 -18.8473 
900 1 28.8423 -21.958 30.859 
901 2 -33.1622 34.8655 -31.0764 
902 1 21.1189 10.7967 25.9378 
903 1 -14.0136 5.12018 14.4841 
904 1 17.6011 -20.8833 14.6623 
905 1 -12.6319 7.34962 -2.09707 
906 1 -7.79947 4.03442 -18.922 
907 1 34.6976 13.791 -22.8856 
908 2 24.1933 27.4896 1.26251 
909 1 5.04259 -16.6312 4.12031 
910 2 -6.43625 26.5265 1.20539 
911 1 -21.9903 8.60849 -28.1191 
912 1 -12.8405 29.9745 32.2048 
913 1 13.3884 29.4728 3.35251 
914 1 -9.57535 -3.42384 -2.2895 
915 2 -28.8817 -22.1582 2.93313 
916 2 -25.0753 -6.98929 11.5246 
917 1 -2.40271 19.2615 -11.6304 
918 1 -0.981121 -14.4914 3.78156 
919 2 0.295951 9.58212 27.2592 
920 1 -27.5931 34.0087 -29.1004 
921 1 15.8017 -33.7285 27.1595 
922 2 -17.9728 -28.7567 34.159 
923 1 12.8658 -4.00737 26.4906 
924 1 26.224 -19.7701 32.1108 
925 1 -15.8816 -2.11133 11.9578 
926 2 3.89178 31.203 -21.6054 
927 1 -26.6717 23.4152 20.4363 
928 1 -6.9145 8.77089 22.547 
929 2 7.70041 7.85954 -16.6568 