ITEM: TIMESTEP
0
ITEM: NUMBER OF ATOMS
32000
ITEM: BOX BOUNDS pp pp pp
-35.3916 35.3916
-35.3916 35.3916
-35.3916 35.3916
ITEM: ATOMS id type x y z 
1 1 6.8954 -0.0687647 -25.4676 
2 1 1.7787 25.2303 -3.56044 
3 1 -4.51617 33.3729 -10.4735 
4 1 28.1684 20.6035 32.5911 
5 1 35.1012 29.7276 -17.1168 
6 2 -23.979 13.2168 -16.6721 
7 1 -23.27 -27.0142 26.0582 
8 1 7.38048 -2.98816 -32.7292 
9 1 7.73473 19.1629 17.1387 
10 1 -4.70913 23.2728 2.43026 
11 2 -10.8986 25.0473 6.42384 
12 1 -14.9223 12.2031 26.4766 
13 1 30.0501 -10.8258 -21.7648 
14 1 -23.7989 -33.5957 -16.1557 
15 1 -11.4825 -15.5501 -5.01886 
16 1 -2.68068 25.3754 -32.7468 
17 2 -17.3357 -13.1375 33.2536 
18 1 -7.06555 -28.782 -19.3298 
19 1 -4.2227 34.1669 -33.4958 
20 1 -1.59347 -8.25568 -12.9747 
21 2 -29.9306 -2.81429 -1.09003 
22 2 -17.601 24.467 20.6499 
23 1 -20.9145 -26.4866 -4.78116 
24 1 22.0542 -11.8209 -33.1748 
25 1 -12.3594 -33.5625 -24.6868 
26 1 -26.5907 -16.9935 -9.32392 
27 1 15.0236 29.7476 -25.3032 
28 1 2.68676 -7.90833 -16.1014 
29 1 12.4287 -22.7057 28.0335 
30 1 -12.0737 26.6086 -8.02989 
31 1 33.4673 -32.6329 -21.1616 
32 1 5.56617 31.1198 27.2958 
33 1 9.43989 17.559 -13.7253 
34 2 -16.6171 -23.1038 -21.9668 
35 1 4.74006 28.6098 -32.4013 
36 2 -30.9367 -6.12545 -19.3886 
37 2 34.547 -0.502814 12.3698 
38 1 -25.9385 26.7471 10.1302 
39 1 29.319 -1.66627 5.37667 
40 1 12.8042 -8.44542 31.4825 
41 2 17.4542 -33.9757 19.3335 
42 1 -31.4086 -0.111852 -32.9148 
43 1 -1.48071 -26.5056 -26.7034 
44 1 11.671 23.0458 -26.8493 
45 1 33.3744 -2.9809 -8.62803 
46 1 34.2812 31.5346 -25.6258 
47 1 7.30146 9.05991 -24.8651 
48 1 -16.8081 -22.4694 16.2749 
49 1 15.3353 -4.96773 2.55754 
50 1 17.8022 12.0296 34.8277 
51 2 -12.8634 15.9891 7.25904 
52 1 -27.7109 -9.999 -1.62591 
53 1 7.99726 28.7819 -4.9113 
54 1 -30.3942 -0.471901 14.4664 
55 1 -20.96 -1.01363 15.0779 
56 2 -31.9797 -15.0632 -19.1695 
57 1 -32.5017 -0.620529 -28.5536 
58 1 -23.7409 2.94631 -18.8504 
59 1 3.13008 -15.3046 -12.8901 
60 2 26.5052 9.17133 1.60102 
61 2 16.7376 30.606 -6.25743 
62 1 -8.58978 10.8915 -3.01924 
63 1 -21.7012 20.9892 -0.891918 
64 1 10.3106 -28.0965 26.6092 
65 1 -13.6879 -5.09694 -24.3754 
66 1 33.5836 22.1599 25.639 
67 1 23.0099 -1.0235 31.6903 
68 1 -20.9843 23.1587 -10.7181 
69 1 -3.33678 4.76766 -26.922 
70 1 -0.505006 -11.2856 -5.63682 
71 2 -9.40404 -24.9153 9.93938 
72 1 7.20573 -12.8761 -17.3259 
73 2 7.16307 -31.2709 10.9819 
74 1 -13.4492 11.313 -29.6267 
75 1 -29.7743 23.079 -7.64002 
76 1 33.0597 -22.0624 23.5755 
77 1 7.99188 23.7545 20.9556 
78 1 31.9552 15.0545 27.0537 
79 1 24.9477 -10.7 -8.07328 
80 1 -11.0512 -5.44613 -22.4465 
81 1 -0.27801 14.9195 6.42757 
82 1 6.22443 6.75651 -6.34029 
83 2 0.549375 7.28965 -11.6989 
84 2 -31.2585 10.7087 7.97976 
85 1 5.65648 1.05163 4.62474 
86 1 8.96285 -17.7231 24.5805 
87 1 23.171 10.6311 16.7319 
88 1 16.5705 3.39143 -24.8843 
89 1 -4.96222 14.4617 1.04221 
90 2 12.399 -26.4063 -32.8927 
91 2 24.5007 34.9666 -29.8653 
92 1 -31.9769 14.7938 -15.7456 
93 1 -25.5142 7.09138 -32.9535 
94 1 28.7515 -31.7514 1.54223 
95 2 -18.3313 1.66934 -5.07964 
96 1 -3.73689 22.9912 -13.5242 
97 1 -21.55 13.4395 11.2644 
98 2 -15.0699 -22.6121 -33.904 
99 2 -25.3307 31.3273 18.9611 
100 1 21.7681 -31.5165 -0.327937 
101 1 -30.8952 -26.5901 22.987 
102 2 27.8572 20.0818 10.3265 
103 1 9.32343 22.8709 -19.4671 
104 1 -15.6265 -2.87379 -0.316334 
105 1 12.1176 -26.577 -20.3688 
106 1 -18.4326 -8.87219 33.4705 
107 1 11.6943 -25.6299 34.0473 
108 1 33.2333 -12.9518 19.4337 
109 2 11.0114 -27.2193 0.174156 
110 2 -16.1172 14.1242 -8.49978 
111 1 -5.19056 12.295 21.132 
112 1 26.2158 21.1628 -9.02763 
113 1 2.14091 -3.12776 14.1564 
114 1 -22.8069 -6.50269 34.5482 
115 2 -24.5653 31.7988 34.9065 
116 1 24.3996 32.041 -24.5837 
117 1 17.3101 -25.5552 15.4474 
118 1 10.9299 0.495668 -7.40349 
119 1 -22.9169 -9.94773 -21.5066 
120 1 -5.78702 34.8127 -25.4114 
121 2 -2.43332 4.45117 -9.21355 
122 2 3.54916 32.7408 17.0694 
123 1 -16.2331 -11.1064 33.2058 
124 1 -9.12571 -8.71061 -16.7875 
125 1 7.96513 -35.3411 9.0368 
126 1 -18.7788 -34.5733 -8.82644 
127 1 30.2455 28.8061 32.0888 
128 2 14.1506 10.7028 4.33304 
129 1 13.3428 -25.9649 -34.9108 
130 2 -25.2896 24.8928 20.1035 
131 1 31.4018 12.6941 -20.2628 
132 1 18.4912 16.2703 35.2732 
133 1 -11.988 -19.0928 25.9092 
134 2 15.9063 30.0585 6.50729 
135 1 -23.6501 -17.2556 -1.71677 
136 1 -33.3594 -35.1007 31.7447 
137 1 17.4538 21.4913 30.1011 
138 2 -26.3936 -10.0714 9.47655 
139 1 -17.9656 -27.4136 -20.5607 
140 2 31.7508 25.017 8.45262 
141 1 -22.1341 28.1368 29.5391 
142 1 -27.8019 -11.6163 -29.6293 
143 1 -6.67208 15.5761 14.6301 
144 1 -31.2433 -16.6056 24.5148 
145 1 33.0178 -30.0722 -9.91486 
146 1 28.8326 -29.0803 21.9364 
147 1 -20.5475 13.0982 -13.6704 
148 1 -3.818 -5.23763 -15.5645 
149 2 -19.645 12.3719 19.5268 
150 1 -22.2647 -8.88541 16.8941 
151 1 32.1074 -1.40605 -22.9587 
152 1 21.7631 -33.521 -20.5822 
153 1 11.9067 10.325 33.4912 
154 1 2.11984 17.9852 -22.3998 
155 1 29.8575 -10.1964 -10.8977 
156 2 -3.10759 -10.188 23.6774 
157 1 33.8543 -2.17632 8.46524 
158 2 27.1919 34.039 -15.2609 
159 1 6.01338 -28.553 -10.6532 
160 1 -9.06888 -2.15905 -0.203756 
161 1 12.708 -17.4084 -26.7194 
162 1 29.0356 -6.99041 -24.0335 
163 2 19.8786 31.0906 32.8315 
164 1 20.9856 -5.91511 -25.2101 
165 1 -27.151 32.7576 4.36662 
166 1 9.42351 -30.6898 27.5596 
167 1 -34.1268 2.6423 12.6196 
168 2 33.4644 4.84041 11.5008 
169 1 -11.424 -20.5206 23.9049 
170 1 -25.3406 18.58 -29.9083 
171 2 5.43067 16.0603 19.4481 
172 1 -17.1642 27.9386 -20.8801 
173 1 13.4452 3.69518 -6.12424 
174 1 -32.4044 -7.27679 6.70473 
175 1 -20.8739 -32.0736 23.3462 
176 2 11.0096 15.4213 -28.5155 
177 2 32.6187 9.61776 -21.6622 
178 1 -8.72758 -3.16778 22.7885 
179 1 5.36836 0.638472 -16.0539 
180 1 -1.31342 3.69582 -3.08649 
181 1 -6.47011 33.2896 31.8143 
182 2 -17.0317 -7.99682 -6.77742 
183 1 -8.65404 24.5407 22.6935 
184 2 -9.03721 -15.1145 21.7315 
185 1 22.4855 -7.15277 -21.8023 
186 1 28.495 -32.776 15.2988 
187 1 20.2361 -22.9833 -19.5815 
188 1 -23.1401 20.2104 -2.71114 
189 2 21.1505 -10.2653 22.4192 
190 2 26.4056 5.82002 3.71173 
191 1 15.4626 19.2257 -10.1973 
192 1 -20.0847 27.9178 1.08225 
193 1 13.4102 5.61493 17.9826 
194 1 -33.4209 5.95134 -27.6947 
195 1 -21.7723 -19.1567 25.5035 
196 2 19.8573 -19.0891 -29.8158 
197 1 -12.7951 -20.573 27.4101 
198 2 -26.0619 12.9426 -12.4974 
199 1 -1.24681 33.036 28.9976 
200 1 5.47541 16.6065 -5.24978 
201 1 -9.9118 -21.7109 -31.3348 
202 1 -2.03519 -30.0003 27.3823 
203 2 2.39045 22.4897 22.3288 
204 1 -31.1512 -30.1262 -14.2693 
205 1 18.4972 -13.913 -32.5371 
206 1 -27.0642 -15.9329 -28.3195 
207 1 31.8525 -16.9222 -27.5679 
208 1 -6.91396 13.6033 6.28995 
209 2 3.02015 8.38742 15.3369 
210 2 12.0889 12.1953 29.1804 
211 1 -4.62877 -11.4065 -15.1173 
212 1 -24.7738 -12.7706 -4.00214 
213 1 -28.8241 24.425 21.2738 
214 1 -34.5141 6.4581 28.9412 
215 1 -6.34981 -1.88771 -7.89187 
216 1 -12.53 -15.9141 23.43 
217 1 -22.6103 -22.6103 -33.5615 
218 1 25.5009 -26.6472 21.4872 
219 1 19.9859 -14.4524 29.2719 
220 1 17.2691 4.69615 -14.384 
221 1 -35.1962 -20.9918 10.5333 
222 2 3.61147 -29.4238 -19.5705 
223 1 18.3019 21.1154 6.92913 
224 1 -25.6355 32.1098 24.737 
225 1 -0.603656 -2.91354 -10.4412 
226 1 19.9549 -34.081 -34.6622 
227 1 -18.7661 -5.98534 34.5244 
228 1 -28.765 -31.9145 -21.9169 
229 2 -24.1672 -28.5677 -29.0483 
230 1 25.8065 32.4199 -14.4386 
231 1 13.0814 -31.8877 22.3843 
232 1 -11.7615 27.9132 -19.8919 
233 1 13.7386 -14.3582 29.5755 
234 1 -1.6756 -23.3825 -0.364098 
235 1 6.77893 14.1641 7.56108 
236 1 -25.5033 -30.6603 -2.34602 
237 1 17.8684 27.1374 3.66664 
238 1 -33.6237 19.5658 34.0744 
239 1 3.18879 13.6905 30.8256 
240 1 33.1776 -2.57989 -21.053 
241 1 -14.4349 -22.2017 -19.4369 
242 2 0.0710564 -27.4055 -29.8533 
243 1 30.5552 33.628 7.44155 
244 1 -6.04116 -14.6253 -35.076 
245 1 11.9276 32.2456 -23.4384 
246 1 -1.2662 -19.8044 3.9343 
247 1 -20.8021 14.8173 5.33675 
248 1 -21.0767 26.0201 -8.88196 
249 1 11.3425 32.0181 -2.89892 
250 1 -18.1853 34.3802 -28.4139 
251 1 22.9698 6.20624 21.358 
252 1 23.9477 -11.3572 9.54049 
253 1 34.704 -19.4686 -24.1235 
254 1 -9.36274 -9.78635 -10.2211 
255 1 35.2683 -22.3694 -18.1441 
256 1 -14.0286 26.8421 -30.1815 
257 2 -4.77218 -26.1543 -4.88983 
258 1 18.8756 18.4705 -14.9122 
259 1 -29.1139 5.68843 26.8736 
260 2 33.0101 2.16646 -14.4311 
261 1 17.3172 -28.0059 -30.5219 
262 1 -32.1988 28.2202 14.0085 
263 2 20.1951 32.7587 17.9708 
264 1 15.9784 14.9226 -3.93394 
265 1 23.3536 -10.8009 21.5001 
266 1 6.50632 -20.9397 -10.6864 
267 1 -4.5044 -21.6935 -25.4999 
268 1 -29.5928 12.1988 -21.0385 
269 1 21.1493 30.8047 -34.3451 
270 2 3.90454 8.32281 21.0697 
271 1 13.0535 -18.5412 9.78771 
272 1 14.803 11.4598 24.5857 
273 1 -9.06499 17.1221 31.2757 
274 2 31.7352 -0.802774 -17.1622 
275 1 32.8477 -12.4964 -34.3044 
276 1 4.80201 17.9728 10.5124 
277 1 5.23504 25.0111 -21.7588 
278 2 26.6224 -8.66691 -31.288 
279 1 -15.3074 9.86317 -5.15329 
280 1 -28.0207 -28.7529 -30.6726 
281 2 -2.04072 17.3873 -27.2457 
282 1 3.17563 -14.3398 -17.0484 
283 1 4.68201 -34.7088 -4.94918 
284 1 -5.94966 30.9713 -28.0319 
285 2 17.037 20.0433 -5.75919 
286 1 -23.2327 33.5764 -18.6157 
287 2 21.5488 -24.333 -33.4936 
288 1 19.9719 -10.9326 -33.9775 
289 1 -8.93626 -7.45708 7.98891 
290 2 11.5803 34.3467 19.9055 
291 1 0.948609 20.3058 12.5443 
292 1 17.4737 34.5505 20.3184 
293 1 -29.1857 4.71276 -26.2803 
294 1 -32.7904 15.1379 -5.52522 
295 2 -33.4453 19.0382 -12.1337 
296 2 27.7791 34.6289 -30.8678 
297 2 9.09162 -2.23307 -27.2036 
298 1 -14.6857 18.4393 9.93083 
299 1 1.40004 -33.8207 28.7606 
300 1 20.3694 -26.838 -17.3302 
301 2 -11.9116 22.33 -26.2952 
302 2 -30.7881 28.3034 -33.7796 
303 1 -21.2642 -7.13105 -14.2417 
304 1 -5.30266 -23.3187 15.0184 
305 2 30.1321 6.00336 28.3117 
306 1 -24.3172 2.15471 -23.0888 
307 1 -35.2049 -25.6794 -32.9304 
308 2 14.2616 -2.81684 11.9455 
309 1 15.8756 -23.801 16.7883 
310 1 -16.2969 -9.8688 -32.3664 
311 1 27.6447 30.2835 1.42037 
312 2 3.56285 -25.7286 3.69781 
313 1 -14.9955 11.374 -27.696 
314 1 -10.776 -21.6174 -1.21312 
315 1 -15.7243 10.7796 13.4018 
316 1 16.4703 -10.4379 -11.6408 
317 1 -14.9561 18.3605 29.791 
318 1 34.3826 23.0713 17.1129 
319 1 13.6883 -5.13081 -10.9437 
320 1 2.38937 -33.7288 -8.57773 
321 1 -33.6023 21.3338 -12.151 
322 1 33.8493 -0.547226 -2.37365 
323 1 13.2302 -13.0535 -22.359 
324 1 -2.97349 -6.86483 30.0124 
325 1 4.93639 -14.5231 -20.9181 
326 1 2.68731 -28.1219 -31.1744 
327 1 33.7782 -3.4453 18.185 
328 1 15.6071 -1.72413 28.7972 
329 1 34.7655 14.767 -7.27695 
330 2 15.7271 -0.626917 -7.12191 
331 1 29.1852 2.18611 8.50513 
332 1 -19.0079 -18.4098 14.9808 
333 1 -14.947 -2.41829 5.52316 
334 1 26.4247 -3.60302 15.7468 
335 2 20.5265 12.3631 23.7603 
336 1 20.8852 23.6925 27.6441 
337 1 31.7858 -14.2445 -14.6156 
338 1 21.2485 -11.721 -26.9993 
339 2 15.2403 -10.689 13.5983 
340 1 33.2691 -34.3529 -34.6229 
341 1 3.43228 -18.6298 -18.996 
342 1 -3.199 -1.10359 2.50099 
343 1 33.4117 9.3517 13.6553 
344 1 -25.6885 -3.98561 3.024 
345 1 12.4169 34.6166 7.81487 
346 1 -27.3689 -25.3105 -18.4205 
347 1 -10.3328 26.9684 -17.9145 
348 1 -33.3536 -33.0475 -14.899 
349 1 -19.5212 10.9029 0.635787 
350 1 -20.4248 -15.4003 12.1985 
351 1 11.2385 -2.77085 -26.6413 
352 1 22.7995 23.9795 25.1037 
353 1 4.67894 -31.3849 28.2959 
354 2 -27.4832 25.6431 34.3918 
355 1 -23.892 13.5276 -14.1094 
356 1 -21.5532 9.21551 20.8815 
357 1 -1.36031 30.8372 -32.4746 
358 1 -2.16641 28.7348 11.765 
359 1 34.4684 -29.6015 4.51637 
360 1 11.3636 -16.4995 32.5775 
361 1 15.138 2.39028 -4.84882 
362 1 29.9728 15.2577 28.4891 
363 2 -15.1375 -8.62496 -25.4848 
364 1 -18.9774 24.6724 10.2937 
365 1 24.0903 13.337 -24.0166 
366 1 -22.0819 -26.8774 32.243 
367 1 17.2275 14.9737 4.70237 
368 1 23.1941 -19.8787 7.67664 
369 1 -16.4704 -10.1952 8.07023 
370 1 32.416 3.64079 -31.8217 
371 1 11.0811 -32.1029 -17.3957 
372 1 30.0728 10.6581 -4.87398 
373 1 33.4734 23.2906 -10.8904 
374 1 25.7843 -6.71204 -16.2232 
375 1 -9.37979 9.354 6.78441 
376 1 27.0837 5.44636 8.10686 
377 2 14.5329 -8.41842 -33.7783 
378 2 -29.0558 -6.27189 11.4968 
379 2 -10.7637 -21.6507 14.4824 
380 2 1.78707 -22.6988 6.07344 
381 1 -3.52016 13.0646 -18.6331 
382 2 31.644 -34.4001 -10.3832 
383 1 3.37505 -19.1575 22.087 
384 1 -0.307478 19.8455 -16.5527 
385 1 -10.4172 -22.5377 -14.8524 
386 1 -1.03584 31.0431 -0.285415 
387 1 -8.63219 25.8839 20.5576 
388 2 -21.8061 -5.66323 11.1442 
389 1 -1.20427 -19.2188 -8.73082 
390 2 26.1933 -35.0387 6.96141 
391 1 20.8138 6.68666 6.0129 
392 1 -0.200051 19.0121 -1.72156 
393 2 -16.8687 6.03284 23.5719 
394 2 -33.6855 -18.3226 27.13 
395 2 -32.0151 -30.3123 -20.6905 
396 1 19.6917 24.0431 -10.9169 
397 1 16.654 -1.11711 26.6198 
398 2 14.422 22.948 33.3855 
399 2 -18.9396 -16.4701 19.213 
400 1 -19.484 -24.7369 11.385 
401 1 -19.0006 -20.1708 22.4428 
402 1 27.9256 -20.9748 -13.6361 
403 1 34.1196 -1.488 -4.64063 
404 1 -1.17927 -21.8926 29.9828 
405 1 -17.7749 -20.4228 20.4026 
406 1 -27.8189 -0.199218 -28.7757 
407 2 -16.5056 -21.9805 27.9934 
408 2 19.7018 -12.2547 28.8909 
409 2 17.1284 -34.3833 -31.221 
410 1 -2.74574 -5.94723 -1.56598 
411 1 16.541 26.2824 26.9913 
412 1 -4.34401 7.76836 -2.41609 
413 1 27.0829 24.0992 -21.5896 
414 1 5.08468 -6.31371 -34.6753 
415 1 -16.6138 13.3948 7.99944 
416 1 -33.0314 -17.3161 -29.7681 
417 1 19.2806 1.6054 -4.67915 
418 1 27.9217 -29.3353 -19.9369 
419 1 -7.48993 15.8757 32.8976 
420 1 -32.5479 -10.5016 27.5351 
421 2 -8.99964 -31.8641 16.2721 
422 1 -28.5143 -32.1062 29.0484 
423 1 13.2689 2.78197 32.5959 
424 1 -15.6951 -34.5849 8.72999 
425 2 -15.8887 5.92275 -31.2251 
426 1 18.0136 14.911 -14.4085 
427 1 -25.9366 -25.539 31.5069 
428 1 -14.9437 8.32985 -18.2978 
429 1 6.06684 -32.6857 -35.2475 
430 1 25.8921 -12.1792 11.1571 
431 1 -14.1886 1.8446 10.8947 
432 1 -12.4569 -0.47457 17.5953 
433 1 -4.81766 2.66681 8.12224 
434 2 0.899885 -31.1286 -22.999 
435 2 18.4786 14.2566 -30.0059 
436 1 10.9572 -19.9363 -26.4519 
437 1 16.0811 -34.0247 34.2247 
438 1 26.1504 32.8227 19.8185 
439 2 -35.1521 -6.23672 -11.9292 
440 2 3.19938 -23.1261 -16.2285 
441 1 28.7878 -16.5251 32.3775 
442 1 16.8198 10.6348 32.8002 
443 1 -22.4786 12.8324 -29.804 
444 2 -1.14577 -14.7502 22.2226 
445 1 -20.8455 12.433 6.45566 
446 1 32.2051 -6.34612 -1.59196 
447 2 -19.7989 20.852 7.24516 
448 2 -18.5197 -1.88218 11.7886 
449 1 -12.0683 21.7124 21.4736 
450 1 -23.694 31.2304 -23.9708 
451 1 -25.2988 17.8247 -34.7691 
452 1 8.85497 11.9355 -1.98579 
453 1 -9.02137 16.564 -31.986 
454 1 34.7568 -7.90494 -26.0242 
455 1 29.7572 -26.7999 20.8877 
456 2 9.91131 5.95964 8.32993 
457 1 -20.4865 6.88039 32.3998 
458 1 20.1279 11.502 6.14212 
459 1 26.4104 -27.0556 -17.6932 
460 1 -7.07788 35.1934 -30.3765 
461 2 27.7221 25.8586 33.5957 
462 2 34.0919 -26.0632 -29.2801 
463 1 29.6314 25.1082 -29.1589 
464 1 -23.1234 22.6295 -20.74 
465 1 5.80169 -1.55955 0.98361 
466 1 -4.82103 14.547 22.0367 
467 1 -33.8446 -20.8792 -11.7859 
468 1 0.495681 -32.3081 -12.9624 
469 2 9.35924 24.0859 14.4519 
470 1 -19.0685 2.12183 8.85906 
471 1 -30.3901 -12.9636 -12.4253 
472 1 19.4572 -15.6292 19.9042 
473 2 26.7097 16.8235 -19.0307 
474 1 -25.4718 -6.87805 9.2171 
475 1 2.51102 -16.9643 10.401 
476 2 33.0252 26.0721 -24.3782 
477 1 10.0181 3.77505 30.1234 
478 1 34.5022 21.0853 14.8795 
479 1 29.9835 8.04221 11.2479 
480 2 11.4901 -15.5817 21.0564 
481 2 -31.106 34.3515 32.3322 
482 2 -3.04724 24.7341 32.6671 
483 1 25.9198 -6.06784 -18.5033 
484 1 7.30695 24.639 15.364 
485 1 -26.1553 -22.4333 -26.4607 
486 1 -23.27 21.7686 23.4278 
487 2 -21.2522 -24.1794 15.1048 
488 1 -8.76476 21.2342 16.2921 
489 2 -30.6043 11.5167 -5.89532 
490 2 -27.6837 -34.3103 -6.76628 
491 2 -24.877 5.42254 -10.2069 
492 1 -31.4 30.4567 -29.8382 
493 1 -19.9267 -23.6713 -11.1527 
494 1 8.83435 19.8879 -31.5472 
495 1 7.18193 8.37648 -14.4527 
496 1 -12.346 -16.3055 -30.0951 
497 2 -11.1844 -15.8487 5.50914 
498 1 3.03151 -1.27644 -12.0799 
499 1 -11.0764 26.5899 34.1974 
500 1 -6.92821 21.689 -35.2749 
501 1 -6.44987 -6.2547 24.1389 
502 2 27.4131 26.545 -26.0887 
503 1 3.12782 29.1611 -11.3163 
504 1 -10.2464 -11.0709 -12.3067 
505 2 21.7979 -21.321 -19.9661 
506 1 25.1205 -1.14496 5.03663 
507 1 -29.1727 -0.280563 10.1293 
508 1 -21.1798 18.235 -3.06359 
509 2 1.55603 11.5618 -27.8536 
510 1 6.97146 -12.4336 -0.0441687 
511 1 33.5462 -27.2999 5.65319 
512 1 -16.3235 12.3927 31.9257 
513 1 22.8178 -9.18143 -14.3143 
514 1 -27.7937 8.44294 -6.33767 
515 1 15.5806 22.6856 -0.0481366 
516 1 -4.31916 -29.5605 35.109 
517 1 3.32639 -28.6173 -3.95769 
518 1 -16.7572 -20.1533 -25.588 
519 2 29.1944 27.1477 -21.1696 
520 1 17.0808 -34.0131 -9.22995 
521 1 25.1475 -33.747 -29.5235 
522 2 -5.63632 -31.3639 -35.0446 
523 1 -16.0014 24.7499 24.2384 
524 1 0.762502 19.091 -18.6582 
525 1 11.1318 21.0585 -15.1674 
526 1 25.155 32.7469 3.67209 
527 1 -16.2548 -12.5857 -31.3863 
528 1 -9.57445 -2.64958 5.64727 
529 1 -11.1474 18.2244 -16.9344 
530 1 -26.6752 21.8998 18.3886 
531 1 5.50637 21.9018 28.2208 
532 2 30.5857 6.45341 -24.1515 
533 1 20.425 15.0583 31.5638 
534 1 -14.5871 25.1339 19.7595 
535 1 -6.20873 -11.4535 18.226 
536 2 -17.626 22.584 -8.59219 
537 2 6.63923 -13.2871 -8.00609 
538 1 -6.98794 28.9504 -14.065 
539 2 14.9702 -28.4325 6.79978 
540 1 -5.61597 6.35254 30.461 
541 1 22.3509 32.5765 27.8531 
542 2 -20.1353 -12.5937 -3.00782 
543 1 10.5248 33.9301 28.3383 
544 1 6.10816 -29.3389 15.4896 
545 2 31.613 -13.5805 7.85797 
546 1 30.8827 -13.0392 -21.7017 
547 1 33.3975 2.98897 31.7329 
548 2 -32.2703 -32.2479 17.9705 
549 1 14.7861 -25.4042 10.3526 
550 2 11.4882 0.403589 -17.1982 
551 1 -26.8822 27.0826 -11.6138 
552 1 22.3638 31.0951 -12.657 
553 1 26.479 -18.6594 10.3774 
554 1 -4.57837 7.76105 7.70492 
555 1 22.9506 7.43946 -31.5226 
556 1 -17.7948 -10.1508 -6.95801 
557 1 -35.282 22.5654 26.9859 
558 1 -32.8011 17.4268 -24.2554 
559 2 -10.9719 34.8694 35.2833 
560 1 -19.9493 14.8838 -27.3013 
561 1 11.6661 -1.30874 1.18491 
562 1 -23.5766 20.5748 8.14859 
563 1 -23.0575 32.9356 16.0448 
564 1 -5.70004 13.9084 -30.7205 
565 1 14.7145 -16.1636 -19.887 
566 1 31.5849 -33.1986 29.096 
567 2 33.0313 4.54947 -10.2258 
568 1 -31.0225 -14.477 4.65763 
569 2 -6.34582 -13.6002 -27.1468 
570 1 -34.5614 -2.45883 35.3724 
571 1 -10.7523 -26.7315 -13.6564 
572 1 32.2424 0.0597701 -27.0015 
573 1 -4.93163 -17.5779 19.2138 
574 1 25.5832 -33.438 4.05876 
575 2 -8.67957 -26.1656 -26.9701 
576 1 -23.1584 0.00116575 -22.6411 
577 2 -7.80006 -8.37745 6.40592 
578 1 -18.5688 15.5371 -16.3409 
579 1 22.7802 23.3348 -3.16011 
580 1 -11.6001 -9.34753 24.5902 
581 2 14.425 3.93294 -30.8196 
582 1 13.5609 -28.4863 -20.9188 
583 2 -10.5368 -13.8819 -3.73705 
584 1 -33.974 16.5404 12.2029 
585 2 34.0039 8.49199 -25.352 
586 2 11.5378 -23.0868 -25.1652 
587 1 28.0328 -1.4159 -14.63 
588 2 18.8418 32.1055 -3.14283 
589 1 31.4313 -0.229715 0.783013 
590 1 24.242 -22.4963 0.481638 
591 1 25.3014 -21.0205 -24.8839 
592 1 31.1383 -15.7328 3.42448 
593 2 -33.6566 -10.4318 3.41187 
594 1 -22.6259 27.5103 -7.72163 
595 2 22.9461 24.5435 14.4435 
596 2 -19.4025 -34.9299 -24.2715 
597 1 32.8843 7.91046 -12.8381 
598 1 18.4023 15.6451 -19.1436 
599 2 33.4452 -16.9863 2.88324 
600 1 -19.0212 -18.9278 34.1335 
601 1 18.0801 9.32787 15.6793 
602 1 21.6074 -19.9526 -22.1762 
603 1 12.079 27.0888 -25.0979 
604 1 -12.7662 -24.4246 11.966 
605 1 24.4 -30.2306 11.0681 
606 1 -14.2445 13.3471 6.65841 
607 1 -8.31682 -14.4602 8.0045 
608 2 34.9064 29.6054 -26.3544 
609 1 -23.8932 -13.3162 -29.7905 
610 1 35.1805 6.03964 10.4918 
611 1 11.411 -17.4913 30.4475 
612 1 -23.3027 -7.06699 -29.2353 
613 2 -8.9778 16.9797 -1.77001 
614 1 34.2567 -16.3859 -17.3852 
615 1 2.4986 19.2779 17.9529 
616 1 7.41148 -19.332 23.568 
617 2 -17.7672 16.7677 32.8106 
618 1 -19.7231 -17.8512 -5.06101 
619 1 30.9065 -4.56534 -30.0072 
620 1 28.3368 -2.05073 -7.03996 
621 1 17.7453 -23.1406 -33.1678 
622 2 -20.9209 16.6843 8.36683 
623 1 22.0437 27.5237 2.46068 
624 1 -19.743 -34.994 -20.0671 
625 1 23.1436 31.4213 -28.2589 
626 1 -27.0562 -11.9974 23.449 
627 1 11.9017 -3.36223 -22.8165 
628 1 -23.2625 -0.753496 6.03863 
629 1 33.2087 -19.7477 14.3051 
630 2 -1.71152 18.1178 16.5203 
631 1 17.8526 1.2312 -24.2662 
632 1 -8.98494 -10.0141 -5.92472 
633 1 27.6682 -33.9631 -2.5447 
634 1 -27.3691 31.8572 -11.1936 
635 1 16.5241 32.6226 16.6786 
636 1 14.1797 7.39773 -19.1385 
637 1 -6.33432 27.065 14.3139 
638 2 5.38445 -3.36827 -28.941 
639 1 -16.7683 -35.223 0.844074 
640 1 0.688627 -20.4902 -4.41862 
641 1 -12.0301 -11.7211 -29.897 
642 1 -2.91551 33.1349 -27.1884 
643 1 0.266102 -22.6427 -22.0146 
644 1 11.8087 22.5283 -30.9131 
645 1 29.9219 25.3053 -9.21184 
646 1 -13.3402 25.9029 -20.4332 
647 2 32.6002 6.34941 -14.3999 
648 1 5.99492 22.3487 -19.736 
649 2 8.41735 12.5712 7.81012 
650 1 -18.3503 -4.38409 10.6369 
651 2 -0.448223 -11.5743 -16.8568 
652 1 -17.7803 -21.3475 5.6112 
653 1 32.0458 -12.1427 26.2659 
654 2 17.7232 31.5639 4.25841 
655 1 -13.9406 -14.9702 -5.75487 
656 2 -18.6195 -8.75425 17.9445 
657 2 33.7915 17.5997 -12.2118 
658 1 -20.9163 10.2931 -20.0673 
659 1 16.1284 -13.5702 28.9052 
660 1 -32.9989 9.91279 31.5566 
661 1 3.25403 -0.502648 -16.1759 
662 1 -7.18222 -4.37836 15.6914 
663 1 -19.1207 -26.9138 -24.2731 
664 2 -28.4523 28.8808 -26.8968 
665 1 23.9865 16.0851 -27.5594 
666 1 18.7646 22.4679 34.0384 
667 2 4.58703 -18.2322 1.97644 
668 1 25.0511 31.5944 -20.4189 
669 1 -28.6125 -19.0216 21.2703 
670 1 3.74372 30.2955 -16.179 
671 2 -20.9745 14.1096 28.6115 
672 1 -6.0515 -4.31213 8.01705 
673 2 25.2796 -16.0521 12.4028 
674 2 28.3046 9.92086 21.4226 
675 2 1.8551 0.197758 -3.07373 
676 1 12.5893 -9.29312 -34.7729 
677 1 15.7691 -31.35 -15.5694 
678 1 19.0431 12.4972 15.1762 
679 1 3.78675 -21.8531 11.7769 
680 2 15.9251 -18.9458 -10.4361 
681 1 27.19 -6.77594 -30.1359 
682 1 16.8657 32.9748 11.9413 
683 1 1.15317 11.8503 -22.1327 
684 1 -9.5564 -28.0461 -19.2869 
685 1 -25.4321 -26.1567 29.1963 
686 1 -8.41525 -12.7137 25.349 
687 1 33.4393 34.0478 23.6701 
688 1 -1.66999 -13.1932 -30.6504 
689 1 10.4447 -18.676 0.541986 
690 1 -27.7436 18.9171 -3.50272 
691 1 5.98308 -30.6427 4.93926 
692 2 -20.7387 -5.74883 18.5819 
693 2 1.64163 4.39315 -30.114 
694 1 -24.1354 -34.0127 17.683 
695 1 25.6127 -31.4469 13.7407 
696 2 -0.68104 28.106 22.1635 
697 2 2.28606 26.3834 0.725371 
698 1 -15.1079 15.8981 -33.6585 
699 1 22.8374 32.8121 -20.6252 
700 1 15.589 -26.0975 31.2458 
701 1 -5.09869 14.7594 12.7838 
702 1 -5.81279 15.204 -1.15999 
703 2 14.5387 -35.2641 -24.9285 
704 1 21.8061 16.8812 18.7591 
705 1 -34.2567 -0.0744041 32.2948 
706 1 -4.77129 -15.9852 -5.22734 
707 1 -5.7607 -21.0965 -23.1418 
708 2 -33.7078 -13.1197 -22.0683 
709 1 -3.62934 -13.8359 13.3983 
710 1 -15.9995 -11.4655 3.4131 
711 1 30.414 -19.763 29.5204 
712 1 -19.7042 22.8043 22.4085 
713 2 9.56179 12.4576 20.0584 
714 1 -0.599273 32.2076 24.3652 
715 1 -8.10356 7.9401 -35.3367 
716 1 6.01523 20.1315 10.0636 
717 1 10.9338 -33.8306 7.67108 
718 1 -18.8366 -20.6961 15.9668 
719 1 26.8868 24.9533 -28.9854 
720 1 -10.5122 26.7822 30.2468 
721 1 -18.045 21.1209 -2.83601 
722 1 17.3397 -11.341 14.1373 
723 1 6.85727 -27.0873 22.881 
724 1 33.2442 22.4518 28.071 
725 1 1.65198 -8.27837 26.196 
726 1 20.8848 -8.54535 -1.27924 
727 1 -6.13849 16.4424 -33.8378 
728 1 -34.223 25.165 1.40323 
729 2 -20.1962 -16.078 -1.79128 
730 1 34.18 -25.1084 9.29979 
731 1 -16.9138 7.10227 -21.9178 
732 1 32.1603 -25.2717 5.54961 
733 1 20.1085 25.9635 -4.07172 
734 1 34.0296 -9.61804 11.1712 
735 2 -10.7818 -32.6152 0.491639 
736 1 13.2063 -12.7629 -24.9432 
737 1 1.19999 7.20141 30.4385 
738 1 -6.64643 -27.7604 9.03233 
739 1 -21.8022 20.8245 26.68 
740 1 13.5568 -8.21504 -2.08733 
741 2 26.7239 -9.29586 24.0552 
742 1 -12.2458 -21.4674 18.5465 
743 1 25.1422 29.0129 -20.8297 
744 1 -27.137 26.1707 -6.5111 
745 2 -5.3454 -5.72823 -22.8227 
746 1 29.7267 25.6589 9.00993 
747 1 -20.4951 -20.8151 -15.5889 
748 1 6.66419 -33.4449 16.5405 
749 2 2.66374 21.7878 -31.1661 
750 2 4.34511 -25.6883 -13.2262 
751 1 -14.1246 -10.7097 -9.47831 
752 1 -6.27572 16.1692 28.8497 
753 1 -27.1982 1.77212 -35.0114 
754 1 0.867006 -1.06671 1.65894 
755 1 -31.4814 -30.633 3.61597 
756 1 -35.1685 -14.6986 -3.15941 
757 1 2.93722 -2.02017 22.9424 
758 1 12.6782 0.246257 6.72685 
759 2 10.1617 -6.30115 5.67899 
760 1 32.4794 16.197 4.66455 
761 1 0.709217 25.6339 16.8839 
762 1 -31.3531 6.31509 14.3848 
763 1 21.4684 -30.2878 -34.3052 
764 1 31.1808 -31.7512 -9.56351 
765 1 -24.566 14.6954 -12.0515 
766 2 0.833448 2.91921 -8.75868 
767 1 11.0925 -7.56654 -18.89 
768 1 28.99 -26.2003 -0.331058 
769 1 -3.24236 34.1604 19.1965 
770 1 -20.3666 -10.2592 17.9289 
771 1 -19.2169 -22.208 23.9608 
772 1 -13.487 -12.2936 12.877 
773 1 -12.5917 -19.4136 19.9504 
774 2 -21.5481 -33.4512 25.1863 
775 1 17.4716 21.1783 -3.42379 
776 1 -14.451 33.514 -25.8298 
777 2 -32.1354 28.1317 1.46286 
778 1 16.9929 -7.51998 -32.692 
779 1 24.6311 -30.3197 -27.2118 
780 1 -25.084 -1.73597 -0.928189 
781 1 -30.7449 32.2026 24.0501 
782 1 -33.3794 -28.7572 31.6139 
783 1 -22.5864 14.4487 -17.9121 
784 1 20.81 11.7935 -20.0476 
785 2 20.4242 2.03471 16.7155 
786 1 -19.1794 27.3583 -17.1079 
787 2 -21.0421 7.22381 -23.938 
788 1 -5.99365 29.858 -20.7348 
789 2 14.473 -9.03885 32.9681 
790 1 12.3488 -30.0209 -10.3092 
791 2 9.84165 -0.578039 -34.7903 
792 1 -22.6745 1.95385 -14.4398 
793 2 -35.0955 -14.67 9.33434 
794 2 -22.547 -18.9839 9.85033 
795 2 3.49708 16.1684 -6.26071 
796 1 31.3027 15.3479 -27.2865 
797 2 25.9863 18.6145 -0.299744 
798 1 6.76052 -1.41861 -6.28551 
799 2 -8.97315 -21.7332 26.6873 
800 2 -12.4698 -5.38894 -1.75634 
801 1 33.8478 -33.8919 4.74509 
802 1 13.0455 25.143 -15.2729 
803 1 21.8238 3.56608 -0.607436 
804 1 7.27142 -28.2164 -1.10719 
805 1 -15.022 -24.0049 16.7345 
806 1 -16.7773 28.0741 -12.2465 
807 1 23.1523 20.9318 -3.15628 
808 1 31.981 -7.34413 29.7748 
809 2 -16.6924 8.49452 -23.8145 
810 1 -6.80175 30.5912 23.1996 
811 2 31.3537 -26.5808 -26.8044 
812 1 28.0604 -28.3561 25.9118 
813 1 12.8964 33.5749 32.7981 
814 1 26.8233 -0.803715 21.4514 
815 1 -16.2604 26.5589 -7.92031 
816 1 -5.88883 0.408816 -23.3922 
817 2 -1.9265 -5.77032 10.308 
818 1 1.51736 -18.4697 35.3045 
819 1 -13.5133 12.0515 -10.695 
820 1 31.7891 -3.14449 28.6601 
821 1 15.6361 -0.194526 -21.0994 
822 1 1.51912 -12.6023 -24.1192 
823 1 -26.4967 -15.9132 -6.89591 
824 2 -5.98391 -33.1459 -21.3621 
825 2 -13.8392 -7.99952 29.6957 
826 1 18.7867 0.425364 11.2109 
827 1 22.3539 15.0324 16.8284 
828 1 21.2035 32.8203 -29.873 
829 1 34.1153 0.0908182 -11.5221 
830 1 -32.0298 20.2786 3.52258 
831 1 -32.361 -10.7633 1.65541 
832 1 -4.82395 -12.9016 -6.06427 
833 1 16.5699 5.08896 -1.12051 
834 1 22.1809 -8.21093 -24.7294 
835 1 -11.131 -19.0157 -16.6306 
836 1 -28.3698 -16.891 -34.5284 
837 1 19.6884 -4.13711 -2.01533 
838 1 -12.0801 -23.6986 19.953 
839 1 0.658505 15.7198 1.83797 
840 1 20.5879 -11.5294 -13.8121 
841 1 26.1764 13.4161 -2.87302 
842 1 14.1956 31.1397 -23.2778 
843 1 10.9689 -14.5438 34.0268 
844 1 8.1973 15.7871 -17.5783 
845 1 29.6107 26.583 -11.261 
846 1 -14.8314 -12.3421 -13.2144 
847 2 24.9786 -10.6379 -28.6207 
848 1 13.4197 20.2172 26.6857 
849 1 -13.5225 -17.2124 8.6935 
850 1 -29.6679 -10.4148 6.82025 
851 1 -13.911 31.6134 10.8718 
852 1 -33.7669 29.3635 31.8544 
853 1 -20.3076 21.0064 -5.68525 
854 1 16.6579 27.2771 -17.5403 
855 2 -19.6028 -23.0473 26.0707 
856 1 22.0984 27.0346 31.1414 
857 1 -8.46993 7.21682 1.0078 
858 1 14.1046 -6.73907 -22.5739 
859 2 -2.38787 -28.3882 -27.8514 
860 1 -30.5253 33.6678 -5.74379 
861 1 -16.1045 -10.3808 -1.09118 
862 1 -15.2539 19.8798 16.4049 
863 1 4.21078 14.5983 27.3696 
864 1 17.137 -30.1186 20.2317 
865 1 19.0192 21.9563 -9.70926 
866 2 23.8016 20.0232 8.30587 
867 2 20.8507 7.41397 -30.5931 
868 1 21.0562 34.8318 17.6634 
869 1 -23.3594 27.8182 4.53237 
870 2 -9.8864 34.271 -20.1019 
871 1 25.1451 10.6793 -33.7248 
872 1 13.0024 0.614586 -11.6475 
873 1 7.4624 -21.3389 -25.882 
874 1 -11.809 24.9504 -26.1278 
875 1 -8.05003 2.72175 23.8749 
876 1 30.0308 31.1677 -34.7458 
877 1 -13.3704 -1.21803 26.3074 
878 2 27.1912 -31.8275 7.53798 
879 1 -32.6086 3.81726 -14.5112 
880 1 18.0421 3.96541 -29.4858 
881 2 31.7183 25.3449 -19.4233 
882 1 13.3485 -2.25169 -33.7254 
883 1 26.0246 7.16043 9.4152 
884 1 -27.3626 27.0551 12.25 
885 1 24.5041 16.0477 -19.3747 
886 2 29.7987 28.6561 -12.1088 
887 1 -23.5599 -18.2083 -11.5328 
888 1 31.5755 -10.638 -17.197 
889 2 25.0827 34.8726 2.69044 
890 1 25.0568 15.6977 -29.7852 
891 2 -14.2475 17.3766 -15.0347 
892 1 -25.4244 -3.16107 -33.9395 
893 2 21.5316 16.1557 2.86373 
894 1 22.7883 -18.1224 34.264 
895 1 24.4015 -27.4547 35.0544 
896 2 7.20766 20.3702 8.14049 
897 2 -7.7017 21.0255 -1.84523 
898 2 11.2967 34.7459 23.6491 
899 2 23.2679 -13.9814 -18.7056 
900 1 29.2973 -22.1251 30.8419 
901 2 -33.1917 34.8071 -30.8915 
902 1 21.1408 10.5391 25.9372 
903 1 -13.9397 4.99656 14.4576 
904 1 17.6464 -20.7705 14.6878 
905 1 -12.4329 7.48537 -2.11015 
906 1 -7.68985 4.09275 -19.0583 
907 1 34.6773 13.6913 -23.0604 
908 2 24.1946 27.4108 1.3899 
909 1 4.92366 -16.6653 3.86249 
910 2 -6.50758 26.6405 1.18361 
911 1 -21.7605 8.71957 -28.1288 
912 1 -12.6612 29.6465 32.396 
913 1 13.6353 29.2845 3.21083 
914 1 -9.43554 -3.53141 -2.34547 
915 2 -28.8914 -22.3148 2.76939 
916 2 -25.2218 -6.96554 11.403 
917 1 -2.16172 19.218 -11.7298 
918 1 -1.21013 -14.6204 3.53271 
919 2 0.397848 9.71241 27.2835 
920 1 -27.5655 33.9822 -28.6706 
921 1 15.7009 -33.7646 27.4435 
922 2 -18.1923 -29.2738 34.1673 
923 1 12.6278 -3.99351 26.4602 
924 1 26.3291 -19.9675 31.9639 
925 1 -16.1606 -2.03989 12.1534 
926 2 4.04488 31.094 -21.4176 
927 1 -26.6762 23.1581 20.5356 
928 1 -6.90946 8.73833 22.4225 