ITEM: TIMESTEP
0
ITEM: NUMBER OF ATOMS
7200
ITEM: BOX BOUNDS xy xz yz pp pp pp
0.0000000000000000e+00 2.1900000000000000e+02 0.0000000000000000e+00
0.0000000000000000e+00 2.1900000000000000e+02 0.0000000000000000e+00
-3.6499999999999999e-01 3.6499999999999999e-01 0.0000000000000000e+00
ITEM: ATOMS id type x y z
1 1 183.212 12.4769 -4.05231e-17
2 2 186.955 186.011 -4.05231e-17
3 2 144.2 189.874 -4.05231e-17
4 1 123 110.236 -4.05231e-17
5 1 101.517 125.642 -4.05231e-17
6 1 109.049 29.7406 -4.05231e-17
7 2 158.6 127.068 -4.05231e-17
8 2 70.195 26.5534 -4.05231e-17
9 1 22.7856 215.201 -4.05231e-17
10 2 52.8406 166.711 -4.05231e-17
11 2 209.873 99.6835 -4.05231e-17
12 1 33.853 194.849 -4.05231e-17
13 2 191.992 54.406 -4.05231e-17
14 1 57.3339 183.542 -4.05231e-17
15 2 193.655 218.394 -4.05231e-17
16 2 218.718 84.7268 -4.05231e-17
17 1 68.4446 74.7922 -4.05231e-17
18 2 10.3842 171.638 -4.05231e-17
19 1 93.0366 130.151 -4.05231e-17
20 1 71.5667 13.3642 -4.05231e-17
21 1 158.771 10.9006 -4.05231e-17
22 2 29.4379 210.559 -4.05231e-17
23 2 41.7591 209.547 -4.05231e-17
24 2 218.06 102.129 -4.05231e-17
25 2 27.6286 206.03 -4.05231e-17
26 2 149.43 27.6791 -4.05231e-17
27 1 217.185 161.609 -4.05231e-17
28 2 54.5865 154.568 -4.05231e-17
29 2 83.1823 5.35966 -4.05231e-17
30 2 132.572 37.3935 -4.05231e-17
31 2 156.362 84.2584 -4.05231e-17
32 1 48.6657 108.773 -4.05231e-17
33 2 145.157 88.0128 -4.05231e-17
34 2 16.1415 96.8219 -4.05231e-17
35 2 127.059 11.3268 -4.05231e-17
36 1 162.355 146.884 -4.05231e-17
37 1 133.251 185.308 -4.05231e-17
38 2 208.885 157.721 -4.05231e-17
39 1 8.3685 37.4108 -4.05231e-17
40 2 194.848 71.7764 -4.05231e-17
41 1 192.021 71.3175 -4.05231e-17
42 1 54.4341 59.3721 -4.05231e-17
43 1 210.415 131.633 -4.05231e-17
44 1 154.507 187.967 -4.05231e-17
45 2 159.614 61.3267 -4.05231e-17
46 1 124.17 192.994 -4.05231e-17
47 2 86.3202 74.022 -4.05231e-17
48 2 153.495 127.481 -4.05231e-17
49 1 194.806 199.608 -4.05231e-17
50 2 25.6247 49.2993 -4.05231e-17
51 1 186.716 2.60649 -4.05231e-17
52 1 114.694 45.5948 -4.05231e-17
53 2 52.1973 196.919 -4.05231e-17
54 1 40.4205 6.94739 -4.05231e-17
55 2 53.5383 141.233 -4.05231e-17
56 1 31.2762 132.363 -4.05231e-17
57 2 58.6313 134.366 -4.05231e-17
58 1 185.376 39.0365 -4.05231e-17
59 1 157.266 86.5632 -4.05231e-17
60 2 205.871 58.8895 -4.05231e-17
61 1 157.978 165.09 -4.05231e-17
62 1 109.774 112.498 -4.05231e-17
63 2 109.409 39.0911 -4.05231e-17
64 1 31.8002 19.131 -4.05231e-17
65 2 156.07 151.718 -4.05231e-17
66 2 13.3337 154.969 -4.05231e-17
67 2 181.995 107.18 -4.05231e-17
68 1 136.892 83.248 -4.05231e-17
69 2 108.929 168.872 -4.05231e-17
70 1 141.578 97.9257 -4.05231e-17
71 1 197.926 146.175 -4.05231e-17
72 2 45.1939 157.574 -4.05231e-17
73 2 189.782 182.194 -4.05231e-17
74 2 116.842 62.5654 -4.05231e-17
75 1 14.5522 135.978 -4.05231e-17
76 2 137.723 207.093 -4.05231e-17
77 2 168.842 13.8168 -4.05231e-17
78 1 91.5364 212.119 -4.05231e-17
79 2 61.0867 76.112 -4.05231e-17
80 1 53.961 33.5519 -4.05231e-17
81 1 181.662 210.612 -4.05231e-17
82 1 176.147 45.0899 -4.05231e-17
83 1 71.519 91.0599 -4.05231e-17
84 2 140.807 179.679 -4.05231e-17
85 2 150.04 146.402 -4.05231e-17
86 2 51.1499 68.9485 -4.05231e-17
87 2 33.7146 83.68 -4.05231e-17
88 1 80.6704 158.044 -4.05231e-17
89 2 200.207 106.913 -4.05231e-17
90 2 126.823 35.9873 -4.05231e-17
91 2 11.5632 181.197 -4.05231e-17
92 1 28.5005 215.345 -4.05231e-17
93 2 109.849 155.077 -4.05231e-17
94 2 112.876 144.126 -4.05231e-17
95 1 211.121 50.9278 -4.05231e-17
96 2 30.6993 57.3697 -4.05231e-17
97 2 4.48147 211.323 -4.05231e-17
98 2 36.0861 184.423 -4.05231e-17
99 1 108.634 10.8968 -4.05231e-17
100 2 159.056 65.7909 -4.05231e-17
101 1 176.942 109.364 -4.05231e-17
102 1 66.0866 164.475 -4.05231e-17
103 2 204.787 99.394 -4.05231e-17
104 2 104.794 75.309 -4.05231e-17
105 1 160.904 59.0535 -4.05231e-17
106 1 189.992 52.7612 -4.05231e-17
107 1 4.7538 103.125 -4.05231e-17
108 1 70.7822 209.846 -4.05231e-17
109 2 217.781 39.0301 -4.05231e-17
110 2 145.168 29.5565 -4.05231e-17
111 1 53.6397 92.7816 -4.05231e-17
112 2 8.10495 50.6393 -4.05231e-17
113 1 134.336 10.8999 -4.05231e-17
114 1 92.4965 82.6803 -4.05231e-17
115 2 29.8789 63.3747 -4.05231e-17
116 2 184.324 14.9496 -4.05231e-17
117 1 158.258 111.439 -4.05231e-17
118 1 83.7367 93.5773 -4.05231e-17
119 2 99.4177 139.645 -4.05231e-17
120 2 201.248 56.9114 -4.05231e-17
121 1 204.887 138.379 -4.05231e-17
122 2 143.266 129.713 -4.05231e-17
123 2 5.16092 132.315 -4.05231e-17
124 1 160.227 200.574 -4.05231e-17
125 1 88.6943 195.647 -4.05231e-17
126 2 95.1076 83.9191 -4.05231e-17
127 2 208.631 110.29 -4.05231e-17
128 1 121.919 105.041 -4.05231e-17
129 1 143.934 194.745 -4.05231e-17
130 2 125.032 54.5065 -4.05231e-17
131 1 123.415 44.7686 -4.05231e-17
132 1 139.551 21.7886 -4.05231e-17
133 1 180.408 105.232 -4.05231e-17
134 1 81.0222 192.048 -4.05231e-17
135 2 176.771 63.3253 -4.05231e-17
136 1 191.499 120.95 -4.05231e-17
137 1 57.658 17.6515 -4.05231e-17
138 2 154.014 156.545 -4.05231e-17
139 1 132.315 11.8295 -4.05231e-17
140 1 144.53 208.524 -4.05231e-17
141 1 51.4743 71.5529 -4.05231e-17
142 1 216.89 195.21 -4.05231e-17
143 1 27.1596 25.8823 -4.05231e-17
144 1 47.0841 98.0447 -4.05231e-17
145 2 192.865 78.5604 -4.05231e-17
146 1 159.876 131.988 -4.05231e-17
147 2 16.5222 133.986 -4.05231e-17
148 1 24.3317 133.2 -4.05231e-17
149 1 147.056 190.513 -4.05231e-17
150 2 65.0423 52.6137 -4.05231e-17
151 1 132.157 138.082 -4.05231e-17
152 1 156.277 157.661 -4.05231e-17
153 2 124.515 130.537 -4.05231e-17
154 1 186.706 56.4541 -4.05231e-17
155 2 203.401 39.074 -4.05231e-17
156 2 109.06 194.138 -4.05231e-17
157 2 167.782 25.4894 -4.05231e-17
158 2 28.435 7.70095 -4.05231e-17
159 2 11.9136 158.525 -4.05231e-17
160 2 114.444 50.369 -4.05231e-17
161 2 129.865 138.808 -4.05231e-17
162 1 23.3398 67.1353 -4.05231e-17
163 1 189.154 33.0073 -4.05231e-17
164 2 108.742 134.553 -4.05231e-17
165 1 49.5098 72.974 -4.05231e-17
166 2 9.2296 204.008 -4.05231e-17
167 1 106.223 168.377 -4.05231e-17
168 1 211.203 102.595 -4.05231e-17
169 2 103.251 203.567 -4.05231e-17
170 1 66.5403 206.479 -4.05231e-17
171 1 137.043 92.3563 -4.05231e-17
172 1 199.849 199.54 -4.05231e-17
173 1 38.5918 201.693 -4.05231e-17
174 2 38.8917 172.74 -4.05231e-17
175 2 50.2991 205.92 -4.05231e-17
176 1 119.633 151.743 -4.05231e-17
177 2 107.583 13.5924 -4.05231e-17
178 1 25.6988 7.55773 -4.05231e-17
179 2 107.657 201.002 -4.05231e-17
180 1 47.6137 74.6355 -4.05231e-17
181 1 16.4641 118.236 -4.05231e-17
182 1 111.333 89.2617 -4.05231e-17
183 1 63.8936 168.351 -4.05231e-17
184 2 157.329 25.3028 -4.05231e-17
185 2 189.941 78.0645 -4.05231e-17
186 2 74.5421 206.116 -4.05231e-17
187 2 162.891 201.566 -4.05231e-17
188 2 59.7474 34.6218 -4.05231e-17
189 1 182.206 57.7176 -4.05231e-17
190 1 193.545 52.1772 -4.05231e-17
191 2 36.0758 104.836 -4.05231e-17
192 2 91.1235 61.9552 -4.05231e-17
193 1 108.465 166.161 -4.05231e-17
194 1 27.3193 5.36738 -4.05231e-17
195 2 59.0225 120.252 -4.05231e-17
196 1 0.553507 218.828 -4.05231e-17
197 2 117.82 45.5241 -4.05231e-17
198 2 206.539 27.269 -4.05231e-17
199 2 97.5945 173.719 -4.05231e-17
200 2 98.879 30.9181 -4.05231e-17
201 2 101.974 123.176 -4.05231e-17
202 1 47.6814 31.4563 -4.05231e-17
203 1 18.1032 42.3628 -4.05231e-17
204 2 47.2374 77.1093 -4.05231e-17
205 2 180.904 178.141 -4.05231e-17
206 2 172.659 131.455 -4.05231e-17
207 1 75.4158 187.135 -4.05231e-17
208 2 129.464 60.0506 -4.05231e-17
209 2 32.7496 142.139 -4.05231e-17
210 1 184.572 108.626 -4.05231e-17
211 1 208.364 34.7289 -4.05231e-17
212 1 208.508 84.4463 -4.05231e-17
213 1 128.292 123.45 -4.05231e-17
214 2 12.6569 11.517 -4.05231e-17
215 1 3.34341 139.894 -4.05231e-17
216 1 49.2973 48.6884 -4.05231e-17
217 1 164.635 62.1109 -4.05231e-17
218 2 201.186 120.753 -4.05231e-17
219 2 136.115 190.001 -4.05231e-17
220 1 119.701 1.38982 -4.05231e-17
221 2 82.1391 8.43838 -4.05231e-17
222 1 155.995 154.818 -4.05231e-17
223 1 46.4928 120.249 -4.05231e-17
224 2 146.066 71.1564 -4.05231e-17
225 2 172.66 169.113 -4.05231e-17
226 1 196.741 9.85822 -4.05231e-17
227 2 202.874 214.374 -4.05231e-17
228 2 115.966 47.9144 -4.05231e-17
229 1 41.1042 17.631 -4.05231e-17
230 1 4.35138 56.4961 -4.05231e-17
231 2 137.37 161.121 -4.05231e-17
232 1 15.1439 204.95 -4.05231e-17
233 2 76.1725 194.492 -4.05231e-17
234 1 0.128825 59.5393 -4.05231e-17
235 1 150.134 106.604 -4.05231e-17
236 2 153.224 53.102 -4.05231e-17
237 2 100.152 203.576 -4.05231e-17
238 2 94.8104 140.598 -4.05231e-17
239 1 36.5838 215.944 -4.05231e-17
240 1 129.466 90.9784 -4.05231e-17
241 2 3.68347 123.738 -4.05231e-17
242 1 193.774 29.556 -4.05231e-17
243 2 215.446 129.908 -4.05231e-17
244 2 36.6795 189.832 -4.05231e-17
245 1 173.958 20.287 -4.05231e-17
246 2 90.1781 84.0032 -4.05231e-17
247 2 197.222 148.854 -4.05231e-17
248 1 38.7102 26.2784 -4.05231e-17
249 1 131.978 108.225 -4.05231e-17
250 1 134.591 27.6739 -4.05231e-17
251 2 101.51 42.9806 -4.05231e-17
252 1 110.875 157.482 -4.05231e-17
253 2 97.1032 101.501 -4.05231e-17
254 2 178.85 204.872 -4.05231e-17
255 2 124.128 49.599 -4.05231e-17
256 1 3.29922 179.468 -4.05231e-17
257 2 31.5339 193.101 -4.05231e-17
258 1 210.914 80.4683 -4.05231e-17
259 2 163.22 141.446 -4.05231e-17
260 1 43.7508 189.622 -4.05231e-17
261 2 142.556 177.055 -4.05231e-17
262 2 186.142 104.115 -4.05231e-17
263 2 94.5991 172.506 -4.05231e-17
264 1 199.185 35.3214 -4.05231e-17
265 1 156.655 186.789 -4.05231e-17
266 1 94.5371 194.93 -4.05231e-17
267 2 107.361 16.7945 -4.05231e-17
268 1 218.11 48.4596 -4.05231e-17
269 2 10.3176 112.671 -4.05231e-17
270 2 180.813 147.394 -4.05231e-17
271 2 187.56 94.5464 -4.05231e-17
272 1 61.1528 32.4119 -4.05231e-17
273 1 71.0285 83.491 -4.05231e-17
274 1 37.269 192.315 -4.05231e-17
275 1 146.652 110.874 -4.05231e-17
276 1 198.795 74.3754 -4.05231e-17
277 1 97.75 36.9321 -4.05231e-17
278 2 61.2642 145.261 -4.05231e-17
279 2 159.965 87.015 -4.05231e-17
280 1 118.19 213.644 -4.05231e-17
281 2 165.88 176.63 -4.05231e-17
282 2 74.6341 126.879 -4.05231e-17
283 2 218.785 150.337 -4.05231e-17
284 1 125.854 113.514 -4.05231e-17
285 1 73.4628 166.011 -4.05231e-17
286 2 30.5492 179.401 -4.05231e-17
287 2 94.7506 110.733 -4.05231e-17
288 1 104.632 123.104 -4.05231e-17
289 2 189.146 55.4448 -4.05231e-17
290 1 98.579 24.0886 -4.05231e-17
291 2 97.6402 188.206 -4.05231e-17
292 1 77.0022 125.528 -4.05231e-17
293 1 157.872 167.201 -4.05231e-17
294 1 30.0086 177.023 -4.05231e-17
295 2 46.9703 145.604 -4.05231e-17
296 1 192.323 174.998 -4.05231e-17
297 1 2.60039 18.2429 -4.05231e-17
298 2 30.4963 140.546 -4.05231e-17
299 1 181.614 54.1166 -4.05231e-17
300 2 186.661 193.005 -4.05231e-17
301 2 171.962 18.6305 -4.05231e-17
302 2 163.648 89.6915 -4.05231e-17
303 1 2.32077 151.083 -4.05231e-17
304 1 124.433 106.069 -4.05231e-17
305 1 91.8633 177.818 -4.05231e-17
306 2 83.6746 18.2583 -4.05231e-17
307 2 149.409 167.64 -4.05231e-17
308 2 142.273 22.4668 -4.05231e-17
309 1 71.598 72.2333 -4.05231e-17
310 1 187.43 188.554 -4.05231e-17
311 1 151.055 109.355 -4.05231e-17
312 2 134.257 13.639 -4.05231e-17
313 2 155.083 17.4271 -4.05231e-17
314 1 191.455 57.2129 -4.05231e-17
315 2 57.5243 107.925 -4.05231e-17
316 1 93.8276 35.5095 -4.05231e-17
317 1 132.518 176.342 -4.05231e-17
318 1 216.974 135.389 -4.05231e-17
319 2 72.4609 201.713 -4.05231e-17
320 1 213.733 47.2575 -4.05231e-17
321 1 53.4864 87.4924 -4.05231e-17
322 1 51.5634 148.116 -4.05231e-17
323 2 19.8305 138.434 -4.05231e-17
324 2 8.798 97.0347 -4.05231e-17
325 2 216.79 13.3949 -4.05231e-17
326 1 185.14 0.344251 -4.05231e-17
327 1 33.7494 47.6294 -4.05231e-17
328 2 29.5251 190.42 -4.05231e-17
329 2 27.0538 79.3229 -4.05231e-17
330 2 153.909 38.767 -4.05231e-17
331 2 186.512 65.774 -4.05231e-17
332 2 121.321 114.581 -4.05231e-17
333 2 28.0041 150.531 -4.05231e-17
334 2 216.158 17.7329 -4.05231e-17
335 1 167.159 210.836 -4.05231e-17
336 2 27.3883 141.726 -4.05231e-17
337 2 43.4776 7.28709 -4.05231e-17
338 1 207.791 95.0364 -4.05231e-17
339 2 15.0335 152.394 -4.05231e-17
340 2 176.932 213.674 -4.05231e-17
341 2 101.532 63.9103 -4.05231e-17
342 2 177.813 170.112 -4.05231e-17
343 2 176.617 4.34075 -4.05231e-17
344 1 87.2993 107.478 -4.05231e-17
345 2 27.4712 212.859 -4.05231e-17
346 2 75.9462 72.1094 -4.05231e-17
347 1 147.861 98.5874 -4.05231e-17
348 1 181.672 3.14589 -4.05231e-17
349 2 172.933 71.0611 -4.05231e-17
350 2 78.1704 179.135 -4.05231e-17
351 1 172.572 137.739 -4.05231e-17
352 1 212.985 163.176 -4.05231e-17
353 2 141.044 131.661 -4.05231e-17
354 2 191.824 179.742 -4.05231e-17
355 1 215.792 156.586 -4.05231e-17
356 2 113.444 0.39612 -4.05231e-17
357 1 126.693 193.069 -4.05231e-17
358 1 77.3426 25.6202 -4.05231e-17
359 1 34.9259 143.759 -4.05231e-17
360 1 61.0312 15.6962 -4.05231e-17
361 2 197.738 66.8544 -4.05231e-17
362 2 172.03 94.7801 -4.05231e-17
363 1 78.6522 216.235 -4.05231e-17
364 2 216.634 46.1304 -4.05231e-17
365 1 5.45957 163.804 -4.05231e-17
366 1 82.9695 173.546 -4.05231e-17
367 1 166.623 107.249 -4.05231e-17
368 1 21.0596 164.409 -4.05231e-17
369 2 81.4921 143.85 -4.05231e-17
370 1 7.34846 133.917 -4.05231e-17
371 2 72.4258 111.357 -4.05231e-17
372 1 88.5415 6.3327 -4.05231e-17
373 2 118.038 208.648 -4.05231e-17
374 2 177.462 101.33 -4.05231e-17
375 1 136.348 25.6293 -4.05231e-17
376 1 121.629 147.495 -4.05231e-17
377 2 96.6074 73.4217 -4.05231e-17
378 2 215.498 106.451 -4.05231e-17
379 2 171.377 182.533 -4.05231e-17
380 1 199.658 33.0809 -4.05231e-17
381 1 174.45 68.7881 -4.05231e-17
382 1 122.574 27.344 -4.05231e-17
383 1 111.621 81.2899 -4.05231e-17
384 2 54.8033 101.206 -4.05231e-17
385 1 66.3083 149.082 -4.05231e-17
386 2 180.721 168.249 -4.05231e-17
387 1 35.3435 107.414 -4.05231e-17
388 1 143.308 164.698 -4.05231e-17
389 2 216.374 120.843 -4.05231e-17
390 1 101.45 66.719 -4.05231e-17
391 1 203.284 216.919 -4.05231e-17
392 2 0.718898 99.4591 -4.05231e-17
393 2 195.522 177.518 -4.05231e-17
394 1 34.3543 203.136 -4.05231e-17
395 1 20.128 214.77 -4.05231e-17
396 2 76.1521 88.119 -4.05231e-17
397 1 67.8626 40.4855 -4.05231e-17
398 2 163.151 110.845 -4.05231e-17
399 2 197.251 106.348 -4.05231e-17
400 2 122.943 68.5056 -4.05231e-17
401 2 83.7417 192.301 -4.05231e-17
402 1 84.5261 43.2533 -4.05231e-17
403 1 68.4245 115.616 -4.05231e-17
404 2 114.488 12.3039 -4.05231e-17
405 1 53.7719 191.586 -4.05231e-17
406 2 1.0076 96.3191 -4.05231e-17
407 1 123.499 78.9735 -4.05231e-17
408 1 130.181 29.0809 -4.05231e-17
409 2 214.367 115.456 -4.05231e-17
410 2 70.863 159.562 -4.05231e-17
411 1 136.246 96.8513 -4.05231e-17
412 1 168.056 5.86617 -4.05231e-17
413 1 30.855 83.2942 -4.05231e-17
414 2 193.82 201.926 -4.05231e-17
415 1 106.933 126.595 -4.05231e-17
416 1 176.659 52.0901 -4.05231e-17
417 2 107.287 129.428 -4.05231e-17
418 2 34.949 178.947 -4.05231e-17
419 2 194.944 91.7623 -4.05231e-17
420 2 111.39 49.4485 -4.05231e-17
421 1 72.4227 31.6175 -4.05231e-17
422 1 32.5759 63.4904 -4.05231e-17
423 2 116.87 125.691 -4.05231e-17
424 2 39.3298 23.3421 -4.05231e-17
425 2 117.073 150.871 -4.05231e-17
426 1 185.554 96.5347 -4.05231e-17
427 2 73.3277 59.0647 -4.05231e-17
428 1 29.2854 174.54 -4.05231e-17
429 2 131.434 150.176 -4.05231e-17
430 2 114.813 105.173 -4.05231e-17
431 1 13.7625 9.03588 -4.05231e-17
432 2 173.993 2.31853 -4.05231e-17
433 1 181.741 193.653 -4.05231e-17
434 1 19.4594 202.335 -4.05231e-17
435 1 149.779 86.2341 -4.05231e-17
436 2 84.4892 199.479 -4.05231e-17
437 2 181.632 82.6779 -4.05231e-17
438 2 194.745 180.436 -4.05231e-17
439 2 91.273 11.5425 -4.05231e-17
440 2 205.688 90.5683 -4.05231e-17
441 1 130.634 167.277 -4.05231e-17
442 1 38.7171 104.899 -4.05231e-17
443 2 79.9393 81.7856 -4.05231e-17
444 1 204.291 104.538 -4.05231e-17
445 1 168.231 137.407 -4.05231e-17
446 2 183.055 156.836 -4.05231e-17
447 2 38.4346 41.0079 -4.05231e-17
448 2 206.329 175.055 -4.05231e-17
449 1 41.5079 176.576 -4.05231e-17
450 1 10.6511 125.678 -4.05231e-17
451 1 52.5871 213.306 -4.05231e-17
452 2 208.239 60.4225 -4.05231e-17
453 1 216.241 149.629 -4.05231e-17
454 1 2.93945 68.2881 -4.05231e-17
455 2 81.476 131.305 -4.05231e-17
456 1 84.3561 2.85058 -4.05231e-17
457 2 141.5 147.571 -4.05231e-17
458 2 153.783 133.823 -4.05231e-17
459 2 132.776 51.9001 -4.05231e-17
460 1 197.707 170.463 -4.05231e-17
461 1 111.973 128.494 -4.05231e-17
462 1 95.5538 186.386 -4.05231e-17
463 2 108.468 0.946128 -4.05231e-17
464 2 15.6325 81.1585 -4.05231e-17
465 1 123.915 16.3705 -4.05231e-17
466 2 150.641 127.165 -4.05231e-17
467 2 65.9413 133.26 -4.05231e-17
468 2 124.195 125.607 -4.05231e-17
469 2 58.6506 71.8956 -4.05231e-17
470 2 208.391 154.364 -4.05231e-17
471 2 212.084 211.236 -4.05231e-17
472 2 111.399 36.8587 -4.05231e-17
473 2 197.788 214.183 -4.05231e-17
474 2 85.3779 147.363 -4.05231e-17
475 1 164.582 181.93 -4.05231e-17
476 2 174.403 35.7797 -4.05231e-17
477 1 209.183 217.689 -4.05231e-17
478 1 47.1951 191.438 -4.05231e-17
479 2 2.13811 196.997 -4.05231e-17
480 1 83.3894 59.7761 -4.05231e-17
481 1 2.71078 209.321 -4.05231e-17
482 2 153.461 180.012 -4.05231e-17
483 1 134.373 209.764 -4.05231e-17
484 1 66.4553 135.835 -4.05231e-17
485 2 13.648 173.358 -4.05231e-17
486 1 132.591 73.0403 -4.05231e-17
487 1 12.913 200.426 -4.05231e-17
488 1 50.3161 83.7646 -4.05231e-17
489 1 71.3318 108.929 -4.05231e-17
490 1 164.415 73.9173 -4.05231e-17
491 1 162.593 75.7019 -4.05231e-17
492 2 209.712 15.0659 -4.05231e-17
493 1 92.6703 209.556 -4.05231e-17
494 2 77.3586 65.7593 -4.05231e-17
495 1 150.301 92.7799 -4.05231e-17
496 1 52.158 123.68 -4.05231e-17
497 1 136.966 109.883 -4.05231e-17
498 2 145.709 39.0315 -4.05231e-17
499 2 183.25 123.697 -4.05231e-17
500 2 58.2239 40.4763 -4.05231e-17
501 2 14.5556 138.993 -4.05231e-17
502 2 194.342 126.049 -4.05231e-17
503 2 57.3133 64.3293 -4.05231e-17
504 2 98.2128 49.5719 -4.05231e-17
505 2 113.546 211.239 -4.05231e-17
506 1 207.816 5.49373 -4.05231e-17
507 2 50.6778 183.256 -4.05231e-17
508 1 140.952 59.8386 -4.05231e-17
509 1 209.247 46.8303 -4.05231e-17
510 1 193.613 102.904 -4.05231e-17
511 2 109.163 178.81 -4.05231e-17
512 1 11.0451 41.7462 -4.05231e-17
513 2 88.2242 183.915 -4.05231e-17
514 2 15.4524 91.7495 -4.05231e-17
515 1 61.2135 98.6004 -4.05231e-17
516 2 102.081 73.7934 -4.05231e-17
517 1 32.0349 147.094 -4.05231e-17
518 2 10.9762 13.9881 -4.05231e-17
519 1 124.902 92.2954 -4.05231e-17
520 2 211.516 88.4915 -4.05231e-17
521 2 130.446 39.4951 -4.05231e-17
522 1 187.365 6.74225 -4.05231e-17
523 1 127.337 99.5221 -4.05231e-17
524 2 175.151 18.1951 -4.05231e-17
525 2 187.941 51.022 -4.05231e-17
526 2 104.688 17.9402 -4.05231e-17
527 1 170.562 24.3737 -4.05231e-17
528 1 212.784 201.946 -4.05231e-17
529 2 105.825 179.007 -4.05231e-17
530 2 21.2884 90.8758 -4.05231e-17
531 2 185.399 175.042 -4.05231e-17
532 1 80.7694 6.29735 -4.05231e-17
533 2 23.9387 157.689 -4.05231e-17
534 1 22.6759 168.176 -4.05231e-17
535 1 170.166 206.125 -4.05231e-17
536 2 18.3431 169.376 -4.05231e-17
537 1 142.525 29.2497 -4.05231e-17
538 1 68.5118 158.265 -4.05231e-17
539 2 80.7413 163.812 -4.05231e-17
540 1 35.3667 181.496 -4.05231e-17
541 1 104.929 128.431 -4.05231e-17
542 1 57.8036 127.225 -4.05231e-17
543 2 120.088 168.642 -4.05231e-17
544 1 217.839 211.215 -4.05231e-17
545 1 174.662 73.0928 -4.05231e-17
546 2 187.384 9.36967 -4.05231e-17
547 1 16.6503 74.4688 -4.05231e-17
548 1 29.9864 5.99013 -4.05231e-17
549 2 35.2701 151.735 -4.05231e-17
550 2 166.318 191.016 -4.05231e-17
551 2 37.9122 7.03927 -4.05231e-17
552 1 26.7156 54.0259 -4.05231e-17
553 2 208.803 195.456 -4.05231e-17
554 2 144.422 33.9533 -4.05231e-17
555 2 175.037 139.169 -4.05231e-17
556 1 177.44 210.969 -4.05231e-17
557 1 210.815 54.0782 -4.05231e-17
558 1 60.4924 142.852 -4.05231e-17
559 2 104.837 89.9588 -4.05231e-17
560 2 58.0591 89.5561 -4.05231e-17
561 2 110.366 181.312 -4.05231e-17
562 2 99.0936 65.6222 -4.05231e-17
563 1 73.5713 168.548 -4.05231e-17
564 2 109.776 76.4369 -4.05231e-17
565 2 25.9017 59.6226 -4.05231e-17
566 2 63.8918 60.9766 -4.05231e-17
567 1 93.9833 11.4948 -4.05231e-17
568 1 24.852 74.3982 -4.05231e-17
569 2 141.424 194.812 -4.05231e-17
570 2 12.3114 21.3943 -4.05231e-17
571 2 4.92149 61.5214 -4.05231e-17
572 1 115.685 107.795 -4.05231e-17
573 2 38.4901 90.0978 -4.05231e-17
574 2 178.762 172.786 -4.05231e-17
575 1 196.136 206.27 -4.05231e-17
576 1 24.4704 78.8112 -4.05231e-17
577 1 127.087 74.7991 -4.05231e-17
578 1 187.577 111.753 -4.05231e-17
579 2 183.02 48.5545 -4.05231e-17
580 1 107.015 104.84 -4.05231e-17
581 1 91.9191 146.744 -4.05231e-17
582 2 125.329 101.239 -4.05231e-17
583 2 103.091 82.6092 -4.05231e-17
584 2 107.149 151.588 -4.05231e-17
585 1 177.907 98.7521 -4.05231e-17
586 1 143.137 80.2584 -4.05231e-17
587 1 155.985 110.938 -4.05231e-17
588 2 65.2549 108.967 -4.05231e-17
589 1 210.3 58.9756 -4.05231e-17
590 2 181.97 60.0459 -4.05231e-17
591 2 179.086 15.6557 -4.05231e-17
592 1 204.572 128.065 -4.05231e-17
593 1 126.841 90.4507 -4.05231e-17
594 1 4.98864 69.4323 -4.05231e-17
595 1 27.6066 61.5961 -4.05231e-17
596 2 108.997 67.9051 -4.05231e-17
597 2 64.3444 105.691 -4.05231e-17
598 2 135.718 87.4172 -4.05231e-17
599 2 96.4898 165.448 -4.05231e-17
600 2 49.5384 99.4454 -4.05231e-17
601 1 146.046 107.967 -4.05231e-17
602 1 174.44 53.5827 -4.05231e-17
603 2 216.645 158.967 -4.05231e-17
604 1 47.3447 179.389 -4.05231e-17
605 2 140.129 100.329 -4.05231e-17
606 2 150.363 99.7206 -4.05231e-17
607 2 47.843 169.153 -4.05231e-17
608 2 128.079 30.8846 -4.05231e-17
609 1 78.6047 88.9338 -4.05231e-17
610 2 102.998 194.62 -4.05231e-17
611 1 1.38277 165.106 -4.05231e-17
612 1 207.263 117.133 -4.05231e-17
613 2 213.283 156.035 -4.05231e-17
614 1 202.746 29.958 -4.05231e-17
615 1 152.079 104.779 -4.05231e-17
616 2 145.774 178.2 -4.05231e-17
617 1 168.976 0.281495 -4.05231e-17
618 1 137.132 216.914 -4.05231e-17
619 1 160.764 157.979 -4.05231e-17
620 2 43.6524 89.0108 -4.05231e-17
621 2 203.158 76.6518 -4.05231e-17
622 2 148.013 151.293 -4.05231e-17
623 2 108.347 147.459 -4.05231e-17
624 1 111.151 173.865 -4.05231e-17
625 2 208.414 79.1884 -4.05231e-17
626 1 211.579 190.054 -4.05231e-17
627 2 196.011 192.401 -4.05231e-17
628 1 116.597 156.32 -4.05231e-17
629 1 31.2477 37.3091 -4.05231e-17
630 2 132.754 215.104 -4.05231e-17
631 2 144.832 115.386 -4.05231e-17
632 2 209.33 19.4276 -4.05231e-17
633 2 60.4467 132.028 -4.05231e-17
634 2 189.73 66.5318 -4.05231e-17
635 2 80.7644 71.8967 -4.05231e-17
636 1 88.4331 131.197 -4.05231e-17
637 1 216.737 152.093 -4.05231e-17
638 1 121.09 66.6419 -4.05231e-17
639 2 199.746 64.4189 -4.05231e-17
640 2 148.947 78.5114 -4.05231e-17
641 1 200.036 96.3706 -4.05231e-17
642 2 162.006 35.7658 -4.05231e-17
643 1 165.496 58.1568 -4.05231e-17
644 2 140.765 157.512 -4.05231e-17
645 2 5.75014 74.9181 -4.05231e-17
646 1 172.043 142.922 -4.05231e-17
647 2 129.139 148.23 -4.05231e-17
648 2 190.406 211.07 -4.05231e-17
649 1 63.8531 145.569 -4.05231e-17
650 1 56.6354 153.137 -4.05231e-17
651 1 111.932 130.608 -4.05231e-17
652 2 8.65741 213.971 -4.05231e-17
653 2 195.132 42.2371 -4.05231e-17
654 1 208.62 164.388 -4.05231e-17
655 1 59.9488 49.4967 -4.05231e-17
656 1 199.313 9.8502 -4.05231e-17
657 1 124.997 120.407 -4.05231e-17
658 2 167.465 109.675 -4.05231e-17
659 2 101.28 137.689 -4.05231e-17
660 1 25.816 11.9105 -4.05231e-17
661 2 16.4339 36.5597 -4.05231e-17
662 2 135.863 116.594 -4.05231e-17
663 1 163.807 113.554 -4.05231e-17
664 1 80.0337 138.549 -4.05231e-17
665 1 135.338 143.965 -4.05231e-17
666 1 203.355 182.218 -4.05231e-17
667 1 0.712847 116.187 -4.05231e-17
668 1 133.883 157.162 -4.05231e-17
669 1 107.416 161.191 -4.05231e-17
670 2 211.864 160.569 -4.05231e-17
671 1 4.20183 16.0592 -4.05231e-17
672 1 193.521 144.527 -4.05231e-17
673 2 48.3737 85.5765 -4.05231e-17
674 2 182.092 205.063 -4.05231e-17
675 2 149.368 2.13119 -4.05231e-17
676 1 180.816 158.288 -4.05231e-17
677 2 51.6867 54.7217 -4.05231e-17
678 1 86.7515 113.337 -4.05231e-17
679 1 86.6769 62.8859 -4.05231e-17
680 2 70.1263 15.3503 -4.05231e-17
681 1 5.96322 9.3021 -4.05231e-17
682 1 140.979 172.069 -4.05231e-17
683 2 96.1501 123.397 -4.05231e-17
684 1 23.7732 179.987 -4.05231e-17
685 1 83.9495 206.347 -4.05231e-17
686 1 147.503 153.819 -4.05231e-17
687 1 118.027 57.5261 -4.05231e-17
688 1 152.071 97.6955 -4.05231e-17
689 2 13.0255 142.199 -4.05231e-17
690 1 48.8587 120.676 -4.05231e-17
691 2 65.7207 115.471 -4.05231e-17
692 2 178.755 180.293 -4.05231e-17
693 1 161.665 96.9506 -4.05231e-17
694 2 142.535 151.933 -4.05231e-17
695 2 188.606 35.5693 -4.05231e-17
696 2 27.097 86.4504 -4.05231e-17
697 1 104.794 35.715 -4.05231e-17
698 2 42.2982 19.8977 -4.05231e-17
699 1 54.9275 206.19 -4.05231e-17
700 2 18.0746 125.701 -4.05231e-17
701 2 26.8769 63.9402 -4.05231e-17
702 1 161.122 9.46286 -4.05231e-17
703 1 197.116 64.1221 -4.05231e-17
704 1 155.855 128.217 -4.05231e-17
705 1 43.9414 120.37 -4.05231e-17
706 1 75.4072 162.185 -4.05231e-17
707 1 180.713 66.0824 -4.05231e-17
708 2 194.877 100.802 -4.05231e-17
709 1 54.3713 160.253 -4.05231e-17
710 2 91.6575 16.8288 -4.05231e-17
711 2 1.14447 141.257 -4.05231e-17
712 1 83.7277 214.503 -4.05231e-17
713 1 5.06122 152.053 -4.05231e-17
714 2 145.33 144.198 -4.05231e-17
715 2 132.978 86.7583 -4.05231e-17
716 1 88.5676 61.3313 -4.05231e-17
717 1 17.4914 61.745 -4.05231e-17
718 2 79.6805 99.3282 -4.05231e-17
719 1 67.7729 201.234 -4.05231e-17
720 2 51.6456 202.877 -4.05231e-17
721 2 43.0583 212.32 -4.05231e-17
722 2 65.5147 138.283 -4.05231e-17
723 2 15.3988 165.389 -4.05231e-17
724 2 201.699 104.071 -4.05231e-17
725 2 21.3181 52.2546 -4.05231e-17
726 2 172.012 127.778 -4.05231e-17
727 2 36.0925 109.915 -4.05231e-17
728 1 176.445 77.8806 -4.05231e-17
729 2 158.504 139.26 -4.05231e-17
730 2 175.02 94.894 -4.05231e-17
731 1 10.347 23.0676 -4.05231e-17
732 2 98.1866 89.1913 -4.05231e-17
733 2 147.532 141.902 -4.05231e-17
734 2 58.0451 194.488 -4.05231e-17
735 2 149.185 72.2195 -4.05231e-17
736 1 180.45 170.909 -4.05231e-17
737 2 44.3856 40.8208 -4.05231e-17
738 2 71.8197 207.326 -4.05231e-17
739 2 187.171 132.298 -4.05231e-17
740 2 41.4162 115.707 -4.05231e-17
741 2 200.706 113.291 -4.05231e-17
742 1 72.5139 98.6882 -4.05231e-17
743 2 78.6212 75.7248 -4.05231e-17
744 1 147.151 50.0287 -4.05231e-17
745 2 14.4976 76.121 -4.05231e-17
746 1 0.0656082 120.76 -4.05231e-17
747 1 98.4367 163.569 -4.05231e-17
748 2 71.4429 196.962 -4.05231e-17
749 1 213.636 165.729 -4.05231e-17
750 1 138.943 147.805 -4.05231e-17
751 1 142.648 89.3544 -4.05231e-17
752 2 195.206 170.061 -4.05231e-17
753 1 37.356 179.883 -4.05231e-17
754 2 66.4423 81.1449 -4.05231e-17
755 1 8.78599 82.553 -4.05231e-17
756 2 177.268 57.8477 -4.05231e-17
757 1 115.202 18.1625 -4.05231e-17
758 2 96.6672 26.2146 -4.05231e-17
759 1 95.6957 133.685 -4.05231e-17
760 1 168.642 62.6202 -4.05231e-17
761 2 213.164 100.443 -4.05231e-17
762 1 170.008 109.798 -4.05231e-17
763 2 6.11638 156.923 -4.05231e-17
764 2 46.4053 189.108 -4.05231e-17
765 1 22.2813 159.775 -4.05231e-17
766 2 100.339 47.178 -4.05231e-17
767 2 206.136 148.562 -4.05231e-17
768 2 72.147 62.2087 -4.05231e-17
769 2 187.768 97.8926 -4.05231e-17
770 1 133.982 18.3411 -4.05231e-17
771 1 64.0487 63.7194 -4.05231e-17
772 1 131.395 2.47151 -4.05231e-17
773 2 163.532 171.039 -4.05231e-17
774 1 88.0316 85.3706 -4.05231e-17
775 1 104.058 78.0686 -4.05231e-17
776 2 191.32 105.072 -4.05231e-17
777 2 42.4217 79.5253 -4.05231e-17
778 1 82.5615 13.9067 -4.05231e-17
779 1 47.7303 63.0072 -4.05231e-17
780 2 83.7117 50.2554 -4.05231e-17
781 1 26.0172 171.251 -4.05231e-17
782 2 122.847 170.402 -4.05231e-17
783 1 74.7929 61.7582 -4.05231e-17
784 2 96.6813 114.016 -4.05231e-17
785 1 206.181 83.1435 -4.05231e-17
786 1 48.0678 6.01865 -4.05231e-17
787 2 35.6148 205.578 -4.05231e-17
788 2 165.952 179.82 -4.05231e-17
789 2 18.1333 146.752 -4.05231e-17
790 2 76.4705 8.6335 -4.05231e-17
791 2 184.95 50.8823 -4.05231e-17
792 1 213.3 131.665 -4.05231e-17
793 1 96.7248 171.063 -4.05231e-17
794 2 210.306 6.17043 -4.05231e-17
795 2 10.5816 191.009 -4.05231e-17
796 1 69.4617 215.08 -4.05231e-17
797 1 50.0933 30.3735 -4.05231e-17
798 1 212.809 55.1699 -4.05231e-17
799 2 105.662 156.164 -4.05231e-17
800 1 51.5488 39.9491 -4.05231e-17
801 2 69.0662 84.9623 -4.05231e-17
802 1 90.292 217.43 -4.05231e-17
803 1 143.437 24.6967 -4.05231e-17
804 1 210.393 124.552 -4.05231e-17
805 2 179.769 110.642 -4.05231e-17
806 2 179.899 155.788 -4.05231e-17
807 2 209.316 28.8946 -4.05231e-17
808 2 76.2628 144.963 -4.05231e-17
809 1 184.404 64.0736 -4.05231e-17
810 2 24.1985 173.285 -4.05231e-17
811 2 183.917 55.8898 -4.05231e-17
812 1 121.757 184.975 -4.05231e-17
813 1 16.4729 85.7753 -4.05231e-17
814 1 3.06575 204.682 -4.05231e-17
815 1 146.04 32.0523 -4.05231e-17
816 1 206.943 50.5155 -4.05231e-17
817 2 63.7012 71.5008 -4.05231e-17
818 2 29.9543 122.885 -4.05231e-17
819 2 210.178 67.3516 -4.05231e-17
820 1 9.38716 58.8913 -4.05231e-17
821 1 64.2502 58.2648 -4.05231e-17
822 2 132.031 34.4084 -4.05231e-17
823 1 183.637 90.1532 -4.05231e-17
824 1 175.554 90.2944 -4.05231e-17
825 1 159.455 189.985 -4.05231e-17
826 2 178.749 82.3771 -4.05231e-17
827 2 104.005 27.9815 -4.05231e-17
828 1 51.2581 91.6932 -4.05231e-17
829 2 127.35 92.9301 -4.05231e-17
830 1 3.53951 156.286 -4.05231e-17
831 2 183.692 217.265 -4.05231e-17
832 2 24.5121 52.5455 -4.05231e-17
833 2 96.2086 41.5487 -4.05231e-17
834 1 70.9251 164.532 -4.05231e-17
835 1 184.616 136.807 -4.05231e-17
836 1 153.082 69.7689 -4.05231e-17
837 2 167.716 92.4716 -4.05231e-17
838 2 91.0953 26.8201 -4.05231e-17
839 1 40.6631 31.1271 -4.05231e-17
840 2 14.4906 116.466 -4.05231e-17
841 2 201.961 10.0765 -4.05231e-17
842 1 173.136 159.318 -4.05231e-17
843 1 204.871 29.166 -4.05231e-17
844 2 8.9814 25.4476 -4.05231e-17
845 1 46.9605 150.896 -4.05231e-17
846 2 127.254 211.453 -4.05231e-17
847 1 88.7708 143.545 -4.05231e-17
848 2 113.6 7.6134 -4.05231e-17
849 1 25.6856 32.7745 -4.05231e-17
850 2 60.169 67.8133 -4.05231e-17
851 2 216.689 30.3437 -4.05231e-17
852 1 137.054 183.053 -4.05231e-17
853 1 188.82 103.08 -4.05231e-17
854 2 103.679 145.527 -4.05231e-17
855 2 162.041 120.101 -4.05231e-17
856 1 77.5728 160.514 -4.05231e-17