ITEM: TIMESTEP
0
ITEM: NUMBER OF ATOMS
7200
ITEM: BOX BOUNDS xy xz yz pp pp pp
0.0000000000000000e+00 2.1900000000000000e+02 0.0000000000000000e+00
0.0000000000000000e+00 2.1900000000000000e+02 0.0000000000000000e+00
-3.6499999999999999e-01 3.6499999999999999e-01 0.0000000000000000e+00
ITEM: ATOMS id type x y z
1 1 182.678 13.0427 -4.05231e-17
2 2 187.555 186.257 -4.05231e-17
3 2 144.107 189.443 -4.05231e-17
4 1 123.033 110.176 -4.05231e-17
5 1 101.963 125.043 -4.05231e-17
6 1 104.758 24.6734 -4.05231e-17
7 2 160.003 128.198 -4.05231e-17
8 2 69.923 26.6572 -4.05231e-17
9 1 21.7582 214.919 -4.05231e-17
10 2 52.5607 166.733 -4.05231e-17
11 2 209.782 100.298 -4.05231e-17
12 1 33.4442 197.488 -4.05231e-17
13 2 195.116 54.4007 -4.05231e-17
14 1 57.663 181.587 -4.05231e-17
15 2 193.148 0.139157 -4.05231e-17
16 2 218.547 86.1978 -4.05231e-17
17 1 68.5007 74.9224 -4.05231e-17
18 2 10.9436 173.106 -4.05231e-17
19 1 92.8924 130.06 -4.05231e-17
20 1 72.6213 12.1996 -4.05231e-17
21 1 156.944 7.59635 -4.05231e-17
22 2 31.8553 212.767 -4.05231e-17
23 2 41.1988 208.787 -4.05231e-17
24 2 218.204 102.824 -4.05231e-17
25 2 30.5624 207.312 -4.05231e-17
26 2 149.695 27.563 -4.05231e-17
27 1 217.793 162.3 -4.05231e-17
28 2 54.3632 154.927 -4.05231e-17
29 2 83.1334 4.68712 -4.05231e-17
30 2 132.41 37.2662 -4.05231e-17
31 2 156.363 83.5604 -4.05231e-17
32 1 48.2332 108.889 -4.05231e-17
33 2 145.113 87.6174 -4.05231e-17
34 2 15.7611 98.8875 -4.05231e-17
35 2 127.021 11.1608 -4.05231e-17
36 1 160.992 146.416 -4.05231e-17
37 1 133.142 185.166 -4.05231e-17
38 2 209.107 158.059 -4.05231e-17
39 1 7.77891 37.8998 -4.05231e-17
40 2 197.244 74.4728 -4.05231e-17
41 1 192.637 73.5459 -4.05231e-17
42 1 55.4423 59.4126 -4.05231e-17
43 1 210.209 132.228 -4.05231e-17
44 1 155.281 188.84 -4.05231e-17
45 2 159.566 60.8302 -4.05231e-17
46 1 124.35 192.669 -4.05231e-17
47 2 88.607 75.757 -4.05231e-17
48 2 155.097 127.433 -4.05231e-17
49 1 194.743 199.744 -4.05231e-17
50 2 27.7215 45.168 -4.05231e-17
51 1 186.385 2.74731 -4.05231e-17
52 1 110.252 47.3188 -4.05231e-17
53 2 55.3696 201.604 -4.05231e-17
54 1 37.9608 9.02841 -4.05231e-17
55 2 53.4203 141.267 -4.05231e-17
56 1 31.1179 132.144 -4.05231e-17
57 2 58.4807 133.376 -4.05231e-17
58 1 182.182 36.37 -4.05231e-17
59 1 157.594 85.8666 -4.05231e-17
60 2 206.48 59.5596 -4.05231e-17
61 1 157.344 164.607 -4.05231e-17
62 1 106.946 111.548 -4.05231e-17
63 2 109.277 39.1055 -4.05231e-17
64 1 30.8462 19.6647 -4.05231e-17
65 2 153.021 148.89 -4.05231e-17
66 2 13.6561 154.699 -4.05231e-17
67 2 182.793 107.51 -4.05231e-17
68 1 136.676 83.0503 -4.05231e-17
69 2 109.293 168.773 -4.05231e-17
70 1 141.701 97.9896 -4.05231e-17
71 1 197.923 147.03 -4.05231e-17
72 2 44.7222 157.21 -4.05231e-17
73 2 190.281 182.429 -4.05231e-17
74 2 108.953 67.8494 -4.05231e-17
75 1 14.5783 136.496 -4.05231e-17
76 2 137.181 206.06 -4.05231e-17
77 2 168.598 15.3162 -4.05231e-17
78 1 91.5721 208.496 -4.05231e-17
79 2 61.3373 76.1006 -4.05231e-17
80 1 50.2392 23.946 -4.05231e-17
81 1 181.527 210.886 -4.05231e-17
82 1 173.787 41.3118 -4.05231e-17
83 1 71.4814 91.2335 -4.05231e-17
84 2 140.73 179.215 -4.05231e-17
85 2 151.816 145.963 -4.05231e-17
86 2 51.7555 69.0782 -4.05231e-17
87 2 37.754 83.4673 -4.05231e-17
88 1 80.5282 157.433 -4.05231e-17
89 2 199.513 106.044 -4.05231e-17
90 2 126.747 35.5258 -4.05231e-17
91 2 11.3496 182.994 -4.05231e-17
92 1 27.0323 215.496 -4.05231e-17
93 2 109.631 154.563 -4.05231e-17
94 2 112.688 144.378 -4.05231e-17
95 1 211.441 51.501 -4.05231e-17
96 2 32.9494 52.6185 -4.05231e-17
97 2 4.30633 212.038 -4.05231e-17
98 2 36.2839 185.213 -4.05231e-17
99 1 106.829 9.57979 -4.05231e-17
100 2 158.907 65.4074 -4.05231e-17
101 1 184.315 109.535 -4.05231e-17
102 1 66.3861 164.293 -4.05231e-17
103 2 204.498 100.408 -4.05231e-17
104 2 104.606 75.4958 -4.05231e-17
105 1 161.142 58.5803 -4.05231e-17
106 1 189.746 53.9223 -4.05231e-17
107 1 9.70233 106.607 -4.05231e-17
108 1 68.9406 211.471 -4.05231e-17
109 2 217.246 39.4687 -4.05231e-17
110 2 145.536 29.4187 -4.05231e-17
111 1 53.0255 92.618 -4.05231e-17
112 2 8.57975 50.8615 -4.05231e-17
113 1 134.614 10.6358 -4.05231e-17
114 1 92.4042 83.1517 -4.05231e-17
115 2 33.066 61.9349 -4.05231e-17
116 2 183.836 15.4067 -4.05231e-17
117 1 163.08 110.872 -4.05231e-17
118 1 83.0505 94.0893 -4.05231e-17
119 2 99.2486 139.367 -4.05231e-17
120 2 201.88 58.5466 -4.05231e-17
121 1 205.188 138.994 -4.05231e-17
122 2 143.707 129.706 -4.05231e-17
123 2 6.40971 129.543 -4.05231e-17
124 1 159.866 200.763 -4.05231e-17
125 1 87.6639 192.682 -4.05231e-17
126 2 94.7917 83.5597 -4.05231e-17
127 2 208.833 110.761 -4.05231e-17
128 1 121.914 105.011 -4.05231e-17
129 1 143.866 194.459 -4.05231e-17
130 2 122.098 56.6722 -4.05231e-17
131 1 133.998 60.6323 -4.05231e-17
132 1 140.053 21.5268 -4.05231e-17
133 1 180.958 105.355 -4.05231e-17
134 1 80.4249 191.929 -4.05231e-17
135 2 176.445 62.8033 -4.05231e-17
136 1 190.627 119.13 -4.05231e-17
137 1 52.7577 20.179 -4.05231e-17
138 2 156.895 159.331 -4.05231e-17
139 1 132.453 11.5461 -4.05231e-17
140 1 144.934 208.183 -4.05231e-17
141 1 51.7229 71.6799 -4.05231e-17
142 1 214.5 195.798 -4.05231e-17
143 1 26.6059 26.0772 -4.05231e-17
144 1 46.7358 98.1023 -4.05231e-17
145 2 193.595 80.0216 -4.05231e-17
146 1 157.195 129.197 -4.05231e-17
147 2 16.1206 134.071 -4.05231e-17
148 1 24.5672 132.854 -4.05231e-17
149 1 146.764 190.125 -4.05231e-17
150 2 67.3949 49.5673 -4.05231e-17
151 1 132.944 137.818 -4.05231e-17
152 1 164.229 163.616 -4.05231e-17
153 2 124.354 130.335 -4.05231e-17
154 1 184.468 52.8665 -4.05231e-17
155 2 203.049 40.3442 -4.05231e-17
156 2 108.621 197.264 -4.05231e-17
157 2 167.979 25.7607 -4.05231e-17
158 2 27.4684 7.87006 -4.05231e-17
159 2 12.3698 158.987 -4.05231e-17
160 2 122.203 53.4622 -4.05231e-17
161 2 130.33 138.57 -4.05231e-17
162 1 21.9526 65.3281 -4.05231e-17
163 1 189.421 33.9392 -4.05231e-17
164 2 108.609 134.64 -4.05231e-17
165 1 49.7383 72.9395 -4.05231e-17
166 2 7.08499 202.254 -4.05231e-17
167 1 107.038 167.72 -4.05231e-17
168 1 210.929 102.523 -4.05231e-17
169 2 99.5262 201.257 -4.05231e-17
170 1 64.9918 207.865 -4.05231e-17
171 1 137.033 91.9339 -4.05231e-17
172 1 200.006 199.801 -4.05231e-17
173 1 40.1854 201.541 -4.05231e-17
174 2 38.4811 173.166 -4.05231e-17
175 2 50.3371 200.003 -4.05231e-17
176 1 119.408 151.476 -4.05231e-17
177 2 104.989 14.5276 -4.05231e-17
178 1 25.024 7.70702 -4.05231e-17
179 2 105.4 197.098 -4.05231e-17
180 1 47.803 74.162 -4.05231e-17
181 1 15.7737 119.182 -4.05231e-17
182 1 111.333 89.0985 -4.05231e-17
183 1 64.1361 168.345 -4.05231e-17
184 2 157.504 25.3344 -4.05231e-17
185 2 190.279 78.9038 -4.05231e-17
186 2 72.5559 207.119 -4.05231e-17
187 2 162.148 202.167 -4.05231e-17
188 2 60.5874 29.2026 -4.05231e-17
189 1 191.326 62.8041 -4.05231e-17
190 1 196.763 56.5963 -4.05231e-17
191 2 35.5696 104.93 -4.05231e-17
192 2 91.1177 61.8379 -4.05231e-17
193 1 108.853 165.865 -4.05231e-17
194 1 26.4831 5.46155 -4.05231e-17
195 2 58.1438 119.877 -4.05231e-17
196 1 0.0491299 0.278331 -4.05231e-17
197 2 117.119 47.2655 -4.05231e-17
198 2 206.078 27.8494 -4.05231e-17
199 2 98.5874 172.658 -4.05231e-17
200 2 99.1533 31.1152 -4.05231e-17
201 2 101.973 122.369 -4.05231e-17
202 1 43.6901 34.4408 -4.05231e-17
203 1 17.7755 42.8744 -4.05231e-17
204 2 46.7566 76.414 -4.05231e-17
205 2 181.936 178.451 -4.05231e-17
206 2 169.393 126.876 -4.05231e-17
207 1 73.6085 189.565 -4.05231e-17
208 2 134.727 56.0108 -4.05231e-17
209 2 32.8442 142.025 -4.05231e-17
210 1 182.054 112.984 -4.05231e-17
211 1 208.07 35.3614 -4.05231e-17
212 1 209.053 85.5246 -4.05231e-17
213 1 128.243 123.74 -4.05231e-17
214 2 11.6173 11.6017 -4.05231e-17
215 1 3.21607 139.182 -4.05231e-17
216 1 54.7787 47.2227 -4.05231e-17
217 1 164.526 61.4616 -4.05231e-17
218 2 201.1 121.456 -4.05231e-17
219 2 136.049 189.299 -4.05231e-17
220 1 119.24 0.91098 -4.05231e-17
221 2 82.8024 7.25549 -4.05231e-17
222 1 158.859 157.408 -4.05231e-17
223 1 45.6189 120.766 -4.05231e-17
224 2 146.093 70.3907 -4.05231e-17
225 2 171.331 165.519 -4.05231e-17
226 1 196.352 10.3748 -4.05231e-17
227 2 203.273 214.94 -4.05231e-17
228 2 121.458 65.0108 -4.05231e-17
229 1 45.017 23.2388 -4.05231e-17
230 1 4.74806 56.4791 -4.05231e-17
231 2 137.542 160.506 -4.05231e-17
232 1 17.8319 212.555 -4.05231e-17
233 2 74.1909 196.849 -4.05231e-17
234 1 0.518374 59.747 -4.05231e-17
235 1 150.239 106.098 -4.05231e-17
236 2 153.326 52.838 -4.05231e-17
237 2 98.0695 204.108 -4.05231e-17
238 2 94.6448 140.494 -4.05231e-17
239 1 35.3461 216.202 -4.05231e-17
240 1 129.284 90.6149 -4.05231e-17
241 2 3.53716 124.633 -4.05231e-17
242 1 193.932 28.4557 -4.05231e-17
243 2 214.71 130.246 -4.05231e-17
244 2 36.1497 190.839 -4.05231e-17
245 1 173.354 20.9791 -4.05231e-17
246 2 90.2224 84.4458 -4.05231e-17
247 2 199.111 149.667 -4.05231e-17
248 1 38.7187 26.5272 -4.05231e-17
249 1 131.705 108.182 -4.05231e-17
250 1 134.923 27.3343 -4.05231e-17
251 2 102.037 43.1539 -4.05231e-17
252 1 110.672 157.059 -4.05231e-17
253 2 95.6685 101.752 -4.05231e-17
254 2 179.562 205.143 -4.05231e-17
255 2 121.981 48.5818 -4.05231e-17
256 1 3.56149 180.131 -4.05231e-17
257 2 32.5788 195.072 -4.05231e-17
258 1 211.621 81.4308 -4.05231e-17
259 2 161.828 141.356 -4.05231e-17
260 1 40.6897 192.235 -4.05231e-17
261 2 142.745 176.764 -4.05231e-17
262 2 186.841 110.587 -4.05231e-17
263 2 93.9807 172.565 -4.05231e-17
264 1 199.099 36.5369 -4.05231e-17
265 1 157.247 187.207 -4.05231e-17
266 1 94.8139 194.812 -4.05231e-17
267 2 115.947 15.7442 -4.05231e-17
268 1 218.53 48.8804 -4.05231e-17
269 2 10.0905 113.439 -4.05231e-17
270 2 185.494 148.767 -4.05231e-17
271 2 187.89 94.9146 -4.05231e-17
272 1 59.3204 26.9931 -4.05231e-17
273 1 70.8556 83.6632 -4.05231e-17
274 1 38.0126 196.545 -4.05231e-17
275 1 146.62 109.841 -4.05231e-17
276 1 199.465 75.2732 -4.05231e-17
277 1 101.031 37.6129 -4.05231e-17
278 2 60.709 145.643 -4.05231e-17
279 2 160.501 86.3301 -4.05231e-17
280 1 116.159 210.231 -4.05231e-17
281 2 169.165 181.306 -4.05231e-17
282 2 74.0148 125.926 -4.05231e-17
283 2 0.329691 150.874 -4.05231e-17
284 1 126.004 113.431 -4.05231e-17
285 1 73.4221 165.434 -4.05231e-17
286 2 30.6732 180.662 -4.05231e-17
287 2 95.3119 110.538 -4.05231e-17
288 1 104.504 122.729 -4.05231e-17
289 2 194.068 57.525 -4.05231e-17
290 1 101.599 29.7543 -4.05231e-17
291 2 96.1072 187.189 -4.05231e-17
292 1 76.727 125.222 -4.05231e-17
293 1 158.427 167.985 -4.05231e-17
294 1 30.1895 177.681 -4.05231e-17
295 2 46.5887 145.675 -4.05231e-17
296 1 193.867 177.898 -4.05231e-17
297 1 2.12702 18.5255 -4.05231e-17
298 2 30.5421 140.153 -4.05231e-17
299 1 177.866 55.6963 -4.05231e-17
300 2 186.825 193.16 -4.05231e-17
301 2 171.599 19.0591 -4.05231e-17
302 2 163.924 89.2551 -4.05231e-17
303 1 2.70116 151.763 -4.05231e-17
304 1 124.447 105.712 -4.05231e-17
305 1 92.2517 177.278 -4.05231e-17
306 2 83.6897 18.318 -4.05231e-17
307 2 150.089 167.669 -4.05231e-17
308 2 142.64 22.1375 -4.05231e-17
309 1 71.7326 72.2434 -4.05231e-17
310 1 187.936 188.923 -4.05231e-17
311 1 151.074 108.791 -4.05231e-17
312 2 134.923 13.3356 -4.05231e-17
313 2 154.935 17.6678 -4.05231e-17
314 1 189.32 59.1394 -4.05231e-17
315 2 57.0873 107.963 -4.05231e-17
316 1 96.2238 30.8739 -4.05231e-17
317 1 133.023 175.515 -4.05231e-17
318 1 216.31 135.693 -4.05231e-17
319 2 72.7272 201.504 -4.05231e-17
320 1 213.932 47.7141 -4.05231e-17
321 1 52.7675 87.2864 -4.05231e-17
322 1 51.3401 147.975 -4.05231e-17
323 2 19.9883 138.252 -4.05231e-17
324 2 8.06638 95.4774 -4.05231e-17
325 2 215.882 14.1025 -4.05231e-17
326 1 184.885 0.771451 -4.05231e-17
327 1 35.5016 48.3167 -4.05231e-17
328 2 33.0314 191.926 -4.05231e-17
329 2 28.1352 78.3936 -4.05231e-17
330 2 153.757 38.5374 -4.05231e-17
331 2 188.012 67.7306 -4.05231e-17
332 2 121.564 114.379 -4.05231e-17
333 2 28.2081 150.826 -4.05231e-17
334 2 215.862 18.4698 -4.05231e-17
335 1 166.814 210.968 -4.05231e-17
336 2 27.9585 141.411 -4.05231e-17
337 2 42.3023 9.47139 -4.05231e-17
338 1 204.104 93.8506 -4.05231e-17
339 2 15.3238 151.913 -4.05231e-17
340 2 176.824 214.182 -4.05231e-17
341 2 101.889 61.3796 -4.05231e-17
342 2 176.753 167.786 -4.05231e-17
343 2 176.284 4.70687 -4.05231e-17
344 1 88.0582 108.274 -4.05231e-17
345 2 26.8139 212.913 -4.05231e-17
346 2 76.5855 72.3308 -4.05231e-17
347 1 147.885 98.2679 -4.05231e-17
348 1 181.37 3.79583 -4.05231e-17
349 2 173.547 70.248 -4.05231e-17
350 2 78.3344 178.956 -4.05231e-17
351 1 173.837 139.152 -4.05231e-17
352 1 213.434 163.637 -4.05231e-17
353 2 141.065 131.53 -4.05231e-17
354 2 192.014 179.543 -4.05231e-17
355 1 216.269 157.225 -4.05231e-17
356 2 113.447 1.43831 -4.05231e-17
357 1 126.745 192.542 -4.05231e-17
358 1 77.9481 26.1143 -4.05231e-17
359 1 34.6879 143.647 -4.05231e-17
360 1 57.4197 10.2328 -4.05231e-17
361 2 197.428 68.7476 -4.05231e-17
362 2 172.487 95.2559 -4.05231e-17
363 1 77.9277 215.863 -4.05231e-17
364 2 216.874 46.3597 -4.05231e-17
365 1 6.0984 164.405 -4.05231e-17
366 1 82.4534 173.272 -4.05231e-17
367 1 161.216 104.136 -4.05231e-17
368 1 20.7138 164.566 -4.05231e-17
369 2 81.3041 143.453 -4.05231e-17
370 1 10.1173 135.897 -4.05231e-17
371 2 71.6438 111.252 -4.05231e-17
372 1 87.6388 6.97048 -4.05231e-17
373 2 117.484 208.02 -4.05231e-17
374 2 176.922 101.434 -4.05231e-17
375 1 136.709 25.4479 -4.05231e-17
376 1 121.512 146.989 -4.05231e-17
377 2 96.1568 73.8211 -4.05231e-17
378 2 215.312 107.162 -4.05231e-17
379 2 169.089 186.112 -4.05231e-17
380 1 199.68 33.6802 -4.05231e-17
381 1 175.204 67.9427 -4.05231e-17
382 1 122.884 26.6492 -4.05231e-17
383 1 111.591 80.5165 -4.05231e-17
384 2 54.2253 101.138 -4.05231e-17
385 1 65.98 149.211 -4.05231e-17
386 2 180.395 175.858 -4.05231e-17
387 1 34.2644 107.081 -4.05231e-17
388 1 143.604 163.659 -4.05231e-17
389 2 215.922 121.545 -4.05231e-17
390 1 104.7 65.0734 -4.05231e-17
391 1 203.164 217.602 -4.05231e-17
392 2 3.85111 101.863 -4.05231e-17
393 2 195.565 175.714 -4.05231e-17
394 1 35.852 203.763 -4.05231e-17
395 1 19.0875 214.897 -4.05231e-17
396 2 75.733 88.3828 -4.05231e-17
397 1 66.1913 44.8769 -4.05231e-17
398 2 165.792 111.255 -4.05231e-17
399 2 196.781 106.972 -4.05231e-17
400 2 123.377 68.1391 -4.05231e-17
401 2 82.8679 191.184 -4.05231e-17
402 1 84.7644 43.0628 -4.05231e-17
403 1 69.7836 116.489 -4.05231e-17
404 2 113.785 13.3089 -4.05231e-17
405 1 53.3711 192.412 -4.05231e-17
406 2 217.395 94.5662 -4.05231e-17
407 1 123.794 78.6847 -4.05231e-17
408 1 130.659 28.8898 -4.05231e-17
409 2 214.484 116.395 -4.05231e-17
410 2 70.8262 158.965 -4.05231e-17
411 1 136.477 96.7906 -4.05231e-17
412 1 164.453 6.69083 -4.05231e-17
413 1 31.2176 85.8953 -4.05231e-17
414 2 193.662 202.187 -4.05231e-17
415 1 107.248 126.558 -4.05231e-17
416 1 176.251 51.9244 -4.05231e-17
417 2 107.665 129.173 -4.05231e-17
418 2 34.9487 179.713 -4.05231e-17
419 2 195.513 91.9449 -4.05231e-17
420 2 107.905 46.5667 -4.05231e-17
421 1 70.2393 31.6111 -4.05231e-17
422 1 33.1569 59.2397 -4.05231e-17
423 2 116.717 125.552 -4.05231e-17
424 2 40.1638 24.4711 -4.05231e-17
425 2 116.983 150.526 -4.05231e-17
426 1 186.023 96.8261 -4.05231e-17
427 2 73.5846 58.6451 -4.05231e-17
428 1 29.5458 174.921 -4.05231e-17
429 2 131.143 150.307 -4.05231e-17
430 2 111.881 104.082 -4.05231e-17
431 1 13.1855 9.01856 -4.05231e-17
432 2 173.683 3.03694 -4.05231e-17
433 1 182.013 193.858 -4.05231e-17
434 1 19.8533 204.947 -4.05231e-17
435 1 149.674 85.2069 -4.05231e-17
436 2 84.2811 198.783 -4.05231e-17
437 2 181.347 82.5697 -4.05231e-17
438 2 194.946 180.629 -4.05231e-17
439 2 92.6141 10.3643 -4.05231e-17
440 2 203.541 91.527 -4.05231e-17
441 1 130.67 167.411 -4.05231e-17
442 1 38.1612 104.726 -4.05231e-17
443 2 79.9312 82.246 -4.05231e-17
444 1 204.155 105.184 -4.05231e-17
445 1 171.794 135.402 -4.05231e-17
446 2 183.698 150.949 -4.05231e-17
447 2 40.0792 39.9671 -4.05231e-17
448 2 206.615 175.207 -4.05231e-17
449 1 41.6038 177.203 -4.05231e-17
450 1 10.4478 126.427 -4.05231e-17
451 1 52.7881 209.685 -4.05231e-17
452 2 209.077 60.7273 -4.05231e-17
453 1 216.738 150.465 -4.05231e-17
454 1 3.392 68.9153 -4.05231e-17
455 2 81.3165 130.878 -4.05231e-17
456 1 84.0241 2.17188 -4.05231e-17
457 2 141.446 145.409 -4.05231e-17
458 2 154.598 133.413 -4.05231e-17
459 2 133.863 50.6298 -4.05231e-17
460 1 196.847 170.332 -4.05231e-17
461 1 112.048 128.366 -4.05231e-17
462 1 103.115 195.656 -4.05231e-17
463 2 108.549 218.137 -4.05231e-17
464 2 16.4304 78.894 -4.05231e-17
465 1 123.906 15.8415 -4.05231e-17
466 2 150.31 127.021 -4.05231e-17
467 2 65.5917 133.446 -4.05231e-17
468 2 124.148 125.602 -4.05231e-17
469 2 58.5959 72.3163 -4.05231e-17
470 2 208.828 154.753 -4.05231e-17
471 2 212.209 211.949 -4.05231e-17
472 2 111.434 36.6597 -4.05231e-17
473 2 197.792 215.067 -4.05231e-17
474 2 84.8739 146.679 -4.05231e-17
475 1 163.344 182.424 -4.05231e-17
476 2 174.11 34.4448 -4.05231e-17
477 1 208.847 218.347 -4.05231e-17
478 1 46.1831 188.719 -4.05231e-17
479 2 3.31782 194.118 -4.05231e-17
480 1 83.3686 59.4688 -4.05231e-17
481 1 2.82218 209.71 -4.05231e-17
482 2 154.364 180.477 -4.05231e-17
483 1 134.118 209.194 -4.05231e-17
484 1 66.2403 136.129 -4.05231e-17
485 2 14.3818 173.644 -4.05231e-17
486 1 132.661 73.0204 -4.05231e-17
487 1 12.986 202.595 -4.05231e-17
488 1 49.9295 83.7375 -4.05231e-17
489 1 70.6205 108.929 -4.05231e-17
490 1 164.499 73.1046 -4.05231e-17
491 1 162.983 75.3342 -4.05231e-17
492 2 208.732 15.647 -4.05231e-17
493 1 93.0263 203.817 -4.05231e-17
494 2 77.3821 65.3537 -4.05231e-17
495 1 150.284 92.0018 -4.05231e-17
496 1 52.1839 123.531 -4.05231e-17
497 1 136.754 109.9 -4.05231e-17
498 2 145.51 38.8647 -4.05231e-17
499 2 178.001 118.36 -4.05231e-17
500 2 57.1361 33.1693 -4.05231e-17
501 2 14.8485 139.182 -4.05231e-17
502 2 190.241 126.801 -4.05231e-17
503 2 57.9521 64.2829 -4.05231e-17
504 2 98.8712 50.0268 -4.05231e-17
505 2 111.386 213.135 -4.05231e-17
506 1 206.909 6.79886 -4.05231e-17
507 2 50.233 182.751 -4.05231e-17
508 1 140.686 58.9708 -4.05231e-17
509 1 209.333 47.3303 -4.05231e-17
510 1 195.373 104.744 -4.05231e-17
511 2 105.462 178.99 -4.05231e-17
512 1 10.5409 42.3307 -4.05231e-17
513 2 88.807 183.034 -4.05231e-17
514 2 15.3491 88.0884 -4.05231e-17
515 1 60.8457 98.7245 -4.05231e-17
516 2 101.739 73.838 -4.05231e-17
517 1 32.3053 147.363 -4.05231e-17
518 2 10.2494 14.1564 -4.05231e-17
519 1 124.891 92.2105 -4.05231e-17
520 2 208.672 94.3295 -4.05231e-17
521 2 130.312 39.5498 -4.05231e-17
522 1 186.853 7.23816 -4.05231e-17
523 1 127.813 99.4905 -4.05231e-17
524 2 174.476 18.5965 -4.05231e-17
525 2 186.103 46.1103 -4.05231e-17
526 2 108.031 15.2283 -4.05231e-17
527 1 169.079 23.3282 -4.05231e-17
528 1 212.865 202.389 -4.05231e-17
529 2 104.837 176.019 -4.05231e-17
530 2 21.2271 87.323 -4.05231e-17
531 2 191.285 171.967 -4.05231e-17
532 1 80.6434 5.60135 -4.05231e-17
533 2 23.8305 157.739 -4.05231e-17
534 1 23.16 168.564 -4.05231e-17
535 1 169.978 206.686 -4.05231e-17
536 2 18.5204 169.13 -4.05231e-17
537 1 142.959 28.9755 -4.05231e-17
538 1 68.6352 157.896 -4.05231e-17
539 2 80.8447 163.264 -4.05231e-17
540 1 35.7038 182.226 -4.05231e-17
541 1 105.252 128.02 -4.05231e-17
542 1 58.7109 126.455 -4.05231e-17
543 2 120.513 168.734 -4.05231e-17
544 1 217.82 212.113 -4.05231e-17
545 1 175.028 72.3238 -4.05231e-17
546 2 186.533 10.1034 -4.05231e-17
547 1 12.8402 71.4382 -4.05231e-17
548 1 29.2207 5.89077 -4.05231e-17
549 2 35.4218 152.444 -4.05231e-17
550 2 163.766 193.895 -4.05231e-17
551 2 37.8278 6.27419 -4.05231e-17
552 1 29.9827 52.46 -4.05231e-17
553 2 209.219 195.489 -4.05231e-17
554 2 144.568 33.8731 -4.05231e-17
555 2 176.519 134.213 -4.05231e-17
556 1 177.337 211.516 -4.05231e-17
557 1 211.36 54.1042 -4.05231e-17
558 1 59.8542 143.094 -4.05231e-17
559 2 104.871 89.6588 -4.05231e-17
560 2 57.3931 89.6869 -4.05231e-17
561 2 110.347 181.861 -4.05231e-17
562 2 98.449 65.0494 -4.05231e-17
563 1 73.4056 167.954 -4.05231e-17
564 2 109.31 76.7452 -4.05231e-17
565 2 26.5394 62.067 -4.05231e-17
566 2 64.2835 60.9571 -4.05231e-17
567 1 94.8114 11.6214 -4.05231e-17
568 1 22.988 76.8585 -4.05231e-17
569 2 141.471 194.341 -4.05231e-17
570 2 11.8746 21.411 -4.05231e-17
571 2 5.29591 61.9719 -4.05231e-17
572 1 115.436 107.657 -4.05231e-17
573 2 38.1156 90.0834 -4.05231e-17
574 2 178.595 170.815 -4.05231e-17
575 1 195.981 206.722 -4.05231e-17
576 1 25.0183 68.8884 -4.05231e-17
577 1 127.353 74.3933 -4.05231e-17
578 1 183.86 114.922 -4.05231e-17
579 2 183.062 46.7063 -4.05231e-17
580 1 109.32 103.913 -4.05231e-17
581 1 91.3346 146.409 -4.05231e-17
582 2 125.675 101.136 -4.05231e-17
583 2 103.001 82.7319 -4.05231e-17
584 2 106.958 151.268 -4.05231e-17
585 1 181.851 103.021 -4.05231e-17
586 1 143.428 79.8519 -4.05231e-17
587 1 157.991 111.719 -4.05231e-17
588 2 64.583 108.818 -4.05231e-17
589 1 210.995 58.9955 -4.05231e-17
590 2 184.135 58.7735 -4.05231e-17
591 2 178.463 16.2661 -4.05231e-17
592 1 204.064 128.94 -4.05231e-17
593 1 126.883 89.9881 -4.05231e-17
594 1 5.5975 70.0314 -4.05231e-17
595 1 28.7074 61.0317 -4.05231e-17
596 2 104.618 70.3054 -4.05231e-17
597 2 63.8536 105.594 -4.05231e-17
598 2 135.458 87.1252 -4.05231e-17
599 2 96.7346 165.347 -4.05231e-17
600 2 49.2525 99.0677 -4.05231e-17
601 1 145.914 107.709 -4.05231e-17
602 1 173.999 52.1582 -4.05231e-17
603 2 217.011 159.779 -4.05231e-17
604 1 47.0307 179.23 -4.05231e-17
605 2 140.123 100.201 -4.05231e-17
606 2 150.396 98.8829 -4.05231e-17
607 2 47.877 169.377 -4.05231e-17
608 2 128.557 30.6445 -4.05231e-17
609 1 78.1144 89.4762 -4.05231e-17
610 2 104.746 200.12 -4.05231e-17
611 1 1.92501 165.566 -4.05231e-17
612 1 207.447 117.85 -4.05231e-17
613 2 213.6 156.811 -4.05231e-17
614 1 202.38 30.4527 -4.05231e-17
615 1 152.004 104.18 -4.05231e-17
616 2 145.713 178.11 -4.05231e-17
617 1 168.713 0.903845 -4.05231e-17
618 1 136.895 216.171 -4.05231e-17
619 1 164.482 161.317 -4.05231e-17
620 2 43.1732 89.1277 -4.05231e-17
621 2 204.293 77.5016 -4.05231e-17
622 2 146.303 153.688 -4.05231e-17
623 2 108.617 147.117 -4.05231e-17
624 1 107.576 177.01 -4.05231e-17
625 2 209.276 79.9872 -4.05231e-17
626 1 210.595 193.018 -4.05231e-17
627 2 196.426 192.765 -4.05231e-17
628 1 116.063 156.2 -4.05231e-17
629 1 27.9865 39.5757 -4.05231e-17
630 2 132.514 214.451 -4.05231e-17
631 2 144.428 114.969 -4.05231e-17
632 2 208.674 20.1964 -4.05231e-17
633 2 60.8432 131.775 -4.05231e-17
634 2 192.78 68.5318 -4.05231e-17
635 2 80.9918 71.9998 -4.05231e-17
636 1 88.053 130.964 -4.05231e-17
637 1 217.298 152.818 -4.05231e-17
638 1 117.624 67.5603 -4.05231e-17
639 2 201.279 65.25 -4.05231e-17
640 2 149.245 77.7617 -4.05231e-17
641 1 199.888 97.2152 -4.05231e-17
642 2 162.087 35.4184 -4.05231e-17
643 1 165.507 57.5412 -4.05231e-17
644 2 141.288 156.796 -4.05231e-17
645 2 5.85409 75.3751 -4.05231e-17
646 1 170.894 142.801 -4.05231e-17
647 2 128.764 148.426 -4.05231e-17
648 2 190.213 211.524 -4.05231e-17
649 1 63.5573 145.537 -4.05231e-17
650 1 56.3282 153.154 -4.05231e-17
651 1 112.512 130.67 -4.05231e-17
652 2 8.00245 214.096 -4.05231e-17
653 2 195.503 45.3149 -4.05231e-17
654 1 208.927 164.482 -4.05231e-17
655 1 62.5933 47.4756 -4.05231e-17
656 1 198.865 10.588 -4.05231e-17
657 1 125.372 120.428 -4.05231e-17
658 2 165.861 105.842 -4.05231e-17
659 2 101.474 137.389 -4.05231e-17
660 1 24.8084 12.118 -4.05231e-17
661 2 15.8433 36.8375 -4.05231e-17
662 2 135.686 117.084 -4.05231e-17
663 1 163.297 113.169 -4.05231e-17
664 1 79.7995 138.095 -4.05231e-17
665 1 135.197 143.944 -4.05231e-17
666 1 203.544 182.129 -4.05231e-17
667 1 0.357268 117.111 -4.05231e-17
668 1 134.359 156.898 -4.05231e-17
669 1 107.173 161.026 -4.05231e-17
670 2 212.632 161.07 -4.05231e-17
671 1 3.39925 16.4365 -4.05231e-17
672 1 193.037 141.464 -4.05231e-17
673 2 47.7558 85.1422 -4.05231e-17
674 2 182.679 205.423 -4.05231e-17
675 2 148.759 1.64869 -4.05231e-17
676 1 181.807 159.299 -4.05231e-17
677 2 52.7571 54.2411 -4.05231e-17
678 1 86.8652 113.516 -4.05231e-17
679 1 86.501 62.8544 -4.05231e-17
680 2 71.6544 14.6552 -4.05231e-17
681 1 5.15463 9.30808 -4.05231e-17
682 1 141.488 171.327 -4.05231e-17
683 2 96.3739 123.602 -4.05231e-17
684 1 23.7233 180.136 -4.05231e-17
685 1 82.1336 206.549 -4.05231e-17
686 1 143.039 158.693 -4.05231e-17
687 1 106.91 55.3424 -4.05231e-17
688 1 152.087 97.0485 -4.05231e-17
689 2 13.313 142.163 -4.05231e-17
690 1 48.3256 120.969 -4.05231e-17
691 2 64.9255 115.57 -4.05231e-17
692 2 184.558 179.893 -4.05231e-17
693 1 161.469 95.8921 -4.05231e-17
694 2 148.019 149.593 -4.05231e-17
695 2 188.657 36.4473 -4.05231e-17
696 2 26.2885 80.8708 -4.05231e-17
697 1 104.765 35.3966 -4.05231e-17
698 2 42.0594 18.2656 -4.05231e-17
699 1 56.6499 204.11 -4.05231e-17
700 2 17.9556 126.184 -4.05231e-17
701 2 28.7783 64.2482 -4.05231e-17
702 1 160.946 9.63033 -4.05231e-17
703 1 195.354 64.2443 -4.05231e-17
704 1 160.056 121.724 -4.05231e-17
705 1 43.2375 120.46 -4.05231e-17
706 1 75.3393 161.727 -4.05231e-17
707 1 182.397 66.4886 -4.05231e-17
708 2 195.06 102.183 -4.05231e-17
709 1 54.2031 160.145 -4.05231e-17
710 2 91.6394 16.4358 -4.05231e-17
711 2 2.11891 141.531 -4.05231e-17
712 1 82.7287 214.028 -4.05231e-17
713 1 5.18244 152.302 -4.05231e-17
714 2 145.7 147.752 -4.05231e-17
715 2 132.94 86.5205 -4.05231e-17
716 1 88.2282 61.1626 -4.05231e-17
717 1 14.622 61.543 -4.05231e-17
718 2 79.1421 99.5434 -4.05231e-17
719 1 67.8866 204.149 -4.05231e-17
720 2 52.3367 197.811 -4.05231e-17
721 2 43.0515 213.286 -4.05231e-17
722 2 65.4925 138.531 -4.05231e-17
723 2 16.0505 165.588 -4.05231e-17
724 2 202.368 107.183 -4.05231e-17
725 2 20.6006 47.563 -4.05231e-17
726 2 177.56 123.286 -4.05231e-17
727 2 35.372 109.56 -4.05231e-17
728 1 176.625 77.313 -4.05231e-17
729 2 164.834 135.593 -4.05231e-17
730 2 175.376 94.3978 -4.05231e-17
731 1 9.86192 23.3927 -4.05231e-17
732 2 97.9649 88.8854 -4.05231e-17
733 2 148.593 146.378 -4.05231e-17
734 2 58.3475 189.814 -4.05231e-17
735 2 149.179 71.6843 -4.05231e-17
736 1 186.99 178.362 -4.05231e-17
737 2 48.3977 40.2842 -4.05231e-17
738 2 69.8975 208.859 -4.05231e-17
739 2 185.803 131.39 -4.05231e-17
740 2 40.407 115.451 -4.05231e-17
741 2 201.143 114.163 -4.05231e-17
742 1 71.9421 98.9789 -4.05231e-17
743 2 79.6427 75.9693 -4.05231e-17
744 1 147.224 49.59 -4.05231e-17
745 2 15.9979 75.6559 -4.05231e-17
746 1 218.845 121.53 -4.05231e-17
747 1 98.1577 163.036 -4.05231e-17
748 2 68.174 198.537 -4.05231e-17
749 1 214.046 166.275 -4.05231e-17
750 1 139.099 147.02 -4.05231e-17
751 1 142.715 88.7726 -4.05231e-17
752 2 196.071 167.747 -4.05231e-17
753 1 37.5187 180.263 -4.05231e-17
754 2 66.1706 80.9459 -4.05231e-17
755 1 8.91442 78.7563 -4.05231e-17
756 2 178.624 58.3993 -4.05231e-17
757 1 111.278 14.3769 -4.05231e-17
758 2 99.9348 28.0701 -4.05231e-17
759 1 95.758 133.457 -4.05231e-17
760 1 171.271 61.4134 -4.05231e-17
761 2 213.106 101 -4.05231e-17
762 1 177.734 106.17 -4.05231e-17
763 2 6.61429 157.741 -4.05231e-17
764 2 43.567 188.066 -4.05231e-17
765 1 22.2138 160.111 -4.05231e-17
766 2 100.513 47.5243 -4.05231e-17
767 2 206.593 149.037 -4.05231e-17
768 2 72.577 61.8971 -4.05231e-17
769 2 188.107 98.4043 -4.05231e-17
770 1 134.545 18.2433 -4.05231e-17
771 1 64.6351 63.8133 -4.05231e-17
772 1 131.456 2.59545 -4.05231e-17
773 2 166.331 171.363 -4.05231e-17
774 1 88.1635 85.7855 -4.05231e-17
775 1 103.847 78.2905 -4.05231e-17
776 2 192.87 103.91 -4.05231e-17
777 2 42.2984 78.6903 -4.05231e-17
778 1 83.3181 13.5403 -4.05231e-17
779 1 48.6485 62.4734 -4.05231e-17
780 2 84.348 50.2886 -4.05231e-17
781 1 26.4782 171.873 -4.05231e-17
782 2 123.009 170.112 -4.05231e-17
783 1 74.9395 61.0743 -4.05231e-17
784 2 97.4785 114.621 -4.05231e-17
785 1 205.117 83.1055 -4.05231e-17
786 1 45.6849 0.45065 -4.05231e-17
787 2 36.9499 206.221 -4.05231e-17
788 2 164.318 180.15 -4.05231e-17
789 2 18.5619 146.507 -4.05231e-17
790 2 77.0007 8.62634 -4.05231e-17
791 2 187.011 53.9302 -4.05231e-17
792 1 213.075 132.537 -4.05231e-17
793 1 96.5555 171.259 -4.05231e-17
794 2 209.333 6.89963 -4.05231e-17
795 2 10.5455 190.859 -4.05231e-17
796 1 68.4484 216.532 -4.05231e-17
797 1 46.1723 32.9833 -4.05231e-17
798 1 213.565 55.4533 -4.05231e-17
799 2 105.56 155.557 -4.05231e-17
800 1 56.5636 37.7549 -4.05231e-17
801 2 68.6759 84.9497 -4.05231e-17
802 1 89.8178 216.67 -4.05231e-17
803 1 143.533 24.8318 -4.05231e-17
804 1 210.17 124.953 -4.05231e-17
805 2 183.772 117.726 -4.05231e-17
806 2 180.381 157.262 -4.05231e-17
807 2 208.523 29.3714 -4.05231e-17
808 2 76.2038 145.042 -4.05231e-17
809 1 178.927 63.2381 -4.05231e-17
810 2 24.5199 173.566 -4.05231e-17
811 2 180.593 55.9072 -4.05231e-17
812 1 121.522 184.746 -4.05231e-17
813 1 22.5283 89.6662 -4.05231e-17
814 1 2.62947 205.2 -4.05231e-17
815 1 146.341 31.8485 -4.05231e-17
816 1 206.782 51.2444 -4.05231e-17
817 2 63.6847 71.4814 -4.05231e-17
818 2 29.7871 122.582 -4.05231e-17
819 2 211.303 68.0428 -4.05231e-17
820 1 9.54422 59.1139 -4.05231e-17
821 1 65.164 58.2795 -4.05231e-17
822 2 131.985 34.3876 -4.05231e-17
823 1 183.987 90.1653 -4.05231e-17
824 1 175.762 89.6858 -4.05231e-17
825 1 159.867 190.799 -4.05231e-17
826 2 178.584 81.8371 -4.05231e-17
827 2 102.628 26.8148 -4.05231e-17
828 1 50.755 91.611 -4.05231e-17
829 2 127.531 92.6065 -4.05231e-17
830 1 4.1192 156.893 -4.05231e-17
831 2 183.287 217.833 -4.05231e-17
832 2 26.7569 48.0986 -4.05231e-17
833 2 96.9935 41.9029 -4.05231e-17
834 1 71.0317 164.392 -4.05231e-17
835 1 184.749 141.353 -4.05231e-17
836 1 153.25 69.4205 -4.05231e-17
837 2 168.29 91.7269 -4.05231e-17
838 2 92.4977 26.6919 -4.05231e-17
839 1 39.5387 31.5077 -4.05231e-17
840 2 13.8316 117.33 -4.05231e-17
841 2 201.473 10.5138 -4.05231e-17
842 1 171.058 160.101 -4.05231e-17
843 1 204.758 29.9616 -4.05231e-17
844 2 8.47173 25.8303 -4.05231e-17
845 1 47.0357 150.738 -4.05231e-17
846 2 127.104 211.439 -4.05231e-17
847 1 88.3495 142.997 -4.05231e-17
848 2 113.737 7.58696 -4.05231e-17
849 1 24.9691 32.9512 -4.05231e-17
850 2 60.496 67.6662 -4.05231e-17
851 2 216.016 30.8051 -4.05231e-17
852 1 137.018 182.838 -4.05231e-17
853 1 185.705 105.336 -4.05231e-17
854 2 103.488 145.021 -4.05231e-17
855 2 165.053 120.522 -4.05231e-17
856 1 77.334 160.565 -4.05231e-17