ITEM: TIMESTEP
0
ITEM: NUMBER OF ATOMS
7200
ITEM: BOX BOUNDS xy xz yz pp pp pp
0.0000000000000000e+00 2.1900000000000000e+02 0.0000000000000000e+00
0.0000000000000000e+00 2.1900000000000000e+02 0.0000000000000000e+00
-3.6499999999999999e-01 3.6499999999999999e-01 0.0000000000000000e+00
ITEM: ATOMS id type x y z
1 1 183.223 12.5088 -4.05231e-17
2 2 188.231 183.614 -4.05231e-17
3 2 144.453 189.119 -4.05231e-17
4 1 122.913 110.102 -4.05231e-17
5 1 101.249 122.624 -4.05231e-17
6 1 104.555 25.2292 -4.05231e-17
7 2 158.85 128.923 -4.05231e-17
8 2 70.0829 25.5803 -4.05231e-17
9 1 22.0134 215.138 -4.05231e-17
10 2 52.3774 166.582 -4.05231e-17
11 2 210.372 100.3 -4.05231e-17
12 1 33.9916 197.712 -4.05231e-17
13 2 194.396 53.918 -4.05231e-17
14 1 57.5324 184.736 -4.05231e-17
15 2 193.395 218.893 -4.05231e-17
16 2 218.506 85.5817 -4.05231e-17
17 1 67.5846 74.1951 -4.05231e-17
18 2 10.3509 172.787 -4.05231e-17
19 1 92.8102 130.036 -4.05231e-17
20 1 72.3916 10.9736 -4.05231e-17
21 1 157.168 7.2427 -4.05231e-17
22 2 31.4525 212.594 -4.05231e-17
23 2 43.201 208.545 -4.05231e-17
24 2 218.815 102.779 -4.05231e-17
25 2 30.0093 207.66 -4.05231e-17
26 2 149.588 27.8763 -4.05231e-17
27 1 217.226 162.507 -4.05231e-17
28 2 53.9969 154.461 -4.05231e-17
29 2 83.9273 3.97738 -4.05231e-17
30 2 132.3 37.4933 -4.05231e-17
31 2 156.551 83.7808 -4.05231e-17
32 1 48.3348 108.961 -4.05231e-17
33 2 145.294 87.521 -4.05231e-17
34 2 16.3492 95.8068 -4.05231e-17
35 2 127.321 11.6029 -4.05231e-17
36 1 160.33 146.709 -4.05231e-17
37 1 133.163 185.173 -4.05231e-17
38 2 209.265 157.785 -4.05231e-17
39 1 8.10732 38.3205 -4.05231e-17
40 2 196.649 73.8605 -4.05231e-17
41 1 192.516 73.1668 -4.05231e-17
42 1 54.7394 58.8512 -4.05231e-17
43 1 210.304 132.212 -4.05231e-17
44 1 155.479 188.324 -4.05231e-17
45 2 159.318 61.2259 -4.05231e-17
46 1 124.247 192.688 -4.05231e-17
47 2 89.2729 80.5099 -4.05231e-17
48 2 150.95 129.652 -4.05231e-17
49 1 194.371 200.264 -4.05231e-17
50 2 29.284 47.4167 -4.05231e-17
51 1 186.409 2.95273 -4.05231e-17
52 1 115.691 47.7576 -4.05231e-17
53 2 55.0395 201.291 -4.05231e-17
54 1 38.8326 16.6903 -4.05231e-17
55 2 53.2032 141.155 -4.05231e-17
56 1 31.1711 132.297 -4.05231e-17
57 2 58.5802 133.921 -4.05231e-17
58 1 183.774 33.4306 -4.05231e-17
59 1 157.412 86.3035 -4.05231e-17
60 2 206.384 59.3852 -4.05231e-17
61 1 156.855 164.328 -4.05231e-17
62 1 106.726 111.731 -4.05231e-17
63 2 108.858 38.9015 -4.05231e-17
64 1 27.9935 18.0335 -4.05231e-17
65 2 152.375 149.261 -4.05231e-17
66 2 13.2804 154.855 -4.05231e-17
67 2 183 107.813 -4.05231e-17
68 1 136.69 83.2527 -4.05231e-17
69 2 109.526 168.612 -4.05231e-17
70 1 141.617 97.9487 -4.05231e-17
71 1 198.45 147.867 -4.05231e-17
72 2 44.8404 157.179 -4.05231e-17
73 2 192.089 179.567 -4.05231e-17
74 2 111.742 66.7885 -4.05231e-17
75 1 14.6056 136.732 -4.05231e-17
76 2 137.944 206.763 -4.05231e-17
77 2 168.977 15.7102 -4.05231e-17
78 1 93.164 208.159 -4.05231e-17
79 2 60.4461 75.7295 -4.05231e-17
80 1 50.0238 22.9431 -4.05231e-17
81 1 181.598 211.13 -4.05231e-17
82 1 173.138 40.9704 -4.05231e-17
83 1 71.0101 91.1797 -4.05231e-17
84 2 140.69 179.393 -4.05231e-17
85 2 151.242 146.268 -4.05231e-17
86 2 50.6654 67.9038 -4.05231e-17
87 2 38.4475 75.5811 -4.05231e-17
88 1 80.5775 157.576 -4.05231e-17
89 2 199.788 105.512 -4.05231e-17
90 2 126.42 36.182 -4.05231e-17
91 2 11.3122 182.363 -4.05231e-17
92 1 27.5731 215.479 -4.05231e-17
93 2 110.093 154.585 -4.05231e-17
94 2 112.799 144.207 -4.05231e-17
95 1 211.46 51.7178 -4.05231e-17
96 2 32.1069 53.9831 -4.05231e-17
97 2 4.73198 211.838 -4.05231e-17
98 2 35.6621 185.356 -4.05231e-17
99 1 105.367 9.69087 -4.05231e-17
100 2 158.771 65.8296 -4.05231e-17
101 1 184.37 110.009 -4.05231e-17
102 1 66.0092 164.202 -4.05231e-17
103 2 205.09 100.286 -4.05231e-17
104 2 104.205 73.2545 -4.05231e-17
105 1 160.666 58.8636 -4.05231e-17
106 1 185.236 60.8022 -4.05231e-17
107 1 12.4028 106.79 -4.05231e-17
108 1 70.199 210.232 -4.05231e-17
109 2 217.475 39.2665 -4.05231e-17
110 2 145.125 29.387 -4.05231e-17
111 1 52.8234 92.3035 -4.05231e-17
112 2 8.49823 50.8739 -4.05231e-17
113 1 135.132 10.8591 -4.05231e-17
114 1 92.5189 87.098 -4.05231e-17
115 2 32.2532 59.5519 -4.05231e-17
116 2 184.021 14.9202 -4.05231e-17
117 1 163.34 110.774 -4.05231e-17
118 1 82.8033 94.5173 -4.05231e-17
119 2 99.0649 139.572 -4.05231e-17
120 2 201.099 58.3447 -4.05231e-17
121 1 205.322 139.128 -4.05231e-17
122 2 143.263 129.736 -4.05231e-17
123 2 6.87841 129.431 -4.05231e-17
124 1 161.001 199.756 -4.05231e-17
125 1 88.0502 192.984 -4.05231e-17
126 2 97.8188 84.1976 -4.05231e-17
127 2 208.826 110.826 -4.05231e-17
128 1 121.927 105.159 -4.05231e-17
129 1 144.182 194.25 -4.05231e-17
130 2 120.026 61.4034 -4.05231e-17
131 1 133.903 60.322 -4.05231e-17
132 1 139.838 21.9015 -4.05231e-17
133 1 181.076 105.874 -4.05231e-17
134 1 81.312 191.575 -4.05231e-17
135 2 177.865 61.1579 -4.05231e-17
136 1 190.59 118.993 -4.05231e-17
137 1 60.608 7.60518 -4.05231e-17
138 2 156.237 159.132 -4.05231e-17
139 1 133.071 12.0331 -4.05231e-17
140 1 144.783 208.297 -4.05231e-17
141 1 50.9459 70.5795 -4.05231e-17
142 1 213.373 191.184 -4.05231e-17
143 1 26.1525 26.2753 -4.05231e-17
144 1 46.5309 97.7442 -4.05231e-17
145 2 193.116 80.2 -4.05231e-17
146 1 153.579 125.921 -4.05231e-17
147 2 16.229 134.539 -4.05231e-17
148 1 24.2525 133.158 -4.05231e-17
149 1 147.169 190.102 -4.05231e-17
150 2 65.9049 52.254 -4.05231e-17
151 1 132.429 137.935 -4.05231e-17
152 1 164.034 163.387 -4.05231e-17
153 2 124.044 130.376 -4.05231e-17
154 1 184.134 52.9263 -4.05231e-17
155 2 203.214 40.332 -4.05231e-17
156 2 109.545 197.102 -4.05231e-17
157 2 166.309 29.1095 -4.05231e-17
158 2 27.7604 7.68331 -4.05231e-17
159 2 12.1355 158.901 -4.05231e-17
160 2 120.584 54.9269 -4.05231e-17
161 2 129.669 138.644 -4.05231e-17
162 1 23.7542 66.1357 -4.05231e-17
163 1 188.433 33.9768 -4.05231e-17
164 2 108.2 134.825 -4.05231e-17
165 1 48.7962 72.2082 -4.05231e-17
166 2 6.08491 200.277 -4.05231e-17
167 1 106.894 167.876 -4.05231e-17
168 1 211.395 103.045 -4.05231e-17
169 2 98.1486 199.408 -4.05231e-17
170 1 66.3159 206.764 -4.05231e-17
171 1 137.503 92.6307 -4.05231e-17
172 1 199.626 199.778 -4.05231e-17
173 1 39.0916 204.505 -4.05231e-17
174 2 38.5723 173.436 -4.05231e-17
175 2 50.0004 200.278 -4.05231e-17
176 1 119.83 151.561 -4.05231e-17
177 2 105.041 15.5025 -4.05231e-17
178 1 25.17 7.7273 -4.05231e-17
179 2 106.394 197.227 -4.05231e-17
180 1 46.9808 76.5372 -4.05231e-17
181 1 16.1959 119.181 -4.05231e-17
182 1 113.778 86.5833 -4.05231e-17
183 1 63.769 168.535 -4.05231e-17
184 2 157.675 25.6797 -4.05231e-17
185 2 190.058 78.8495 -4.05231e-17
186 2 74.3384 206.281 -4.05231e-17
187 2 158.774 201.844 -4.05231e-17
188 2 60.6143 28.4196 -4.05231e-17
189 1 191.606 57.9798 -4.05231e-17
190 1 196.529 55.6808 -4.05231e-17
191 2 35.5604 104.548 -4.05231e-17
192 2 89.1548 60.2079 -4.05231e-17
193 1 108.577 165.788 -4.05231e-17
194 1 26.6258 5.38469 -4.05231e-17
195 2 58.4161 119.743 -4.05231e-17
196 1 0.233753 218.909 -4.05231e-17
197 2 119.053 50.6143 -4.05231e-17
198 2 206.186 27.4409 -4.05231e-17
199 2 99.5929 170.76 -4.05231e-17
200 2 98.9088 30.9812 -4.05231e-17
201 2 103.289 120.794 -4.05231e-17
202 1 43.9691 34.2784 -4.05231e-17
203 1 18.5089 43.3034 -4.05231e-17
204 2 44.9584 78.6691 -4.05231e-17
205 2 183.169 182.221 -4.05231e-17
206 2 170.988 127.461 -4.05231e-17
207 1 74.3085 189.39 -4.05231e-17
208 2 135.067 54.5591 -4.05231e-17
209 2 32.7767 142.301 -4.05231e-17
210 1 182.314 113.461 -4.05231e-17
211 1 208.427 35.5184 -4.05231e-17
212 1 208.412 85.0933 -4.05231e-17
213 1 127.972 123.736 -4.05231e-17
214 2 11.8716 11.6057 -4.05231e-17
215 1 5.65427 142.708 -4.05231e-17
216 1 55.2763 46.4825 -4.05231e-17
217 1 164.404 61.9508 -4.05231e-17
218 2 201.202 121.198 -4.05231e-17
219 2 136.263 189.421 -4.05231e-17
220 1 121.012 1.60396 -4.05231e-17
221 2 83.307 7.07227 -4.05231e-17
222 1 158.464 157.547 -4.05231e-17
223 1 46.094 120.433 -4.05231e-17
224 2 145.875 70.9603 -4.05231e-17
225 2 169.01 163.914 -4.05231e-17
226 1 196.462 10.0614 -4.05231e-17
227 2 203.551 214.749 -4.05231e-17
228 2 117.84 63.5034 -4.05231e-17
229 1 47.5867 22.7064 -4.05231e-17
230 1 4.7647 56.6889 -4.05231e-17
231 2 137.412 160.856 -4.05231e-17
232 1 18.1479 212.591 -4.05231e-17
233 2 75.5517 195.93 -4.05231e-17
234 1 0.646652 59.6741 -4.05231e-17
235 1 150.41 106.318 -4.05231e-17
236 2 153.325 53.1012 -4.05231e-17
237 2 99.5388 204.105 -4.05231e-17
238 2 94.7674 140.544 -4.05231e-17
239 1 35.258 216.883 -4.05231e-17
240 1 129.963 90.9502 -4.05231e-17
241 2 3.56825 124.43 -4.05231e-17
242 1 194.072 28.4524 -4.05231e-17
243 2 214.923 130.262 -4.05231e-17
244 2 35.744 190.983 -4.05231e-17
245 1 174.227 21.1791 -4.05231e-17
246 2 90.1387 85.599 -4.05231e-17
247 2 199.001 150.727 -4.05231e-17
248 1 38.0637 26.8742 -4.05231e-17
249 1 131.829 108.332 -4.05231e-17
250 1 134.826 27.9166 -4.05231e-17
251 2 101.93 43.3525 -4.05231e-17
252 1 110.726 156.956 -4.05231e-17
253 2 95.6734 97.604 -4.05231e-17
254 2 179.227 205.085 -4.05231e-17
255 2 122.366 50.4117 -4.05231e-17
256 1 3.2488 180.125 -4.05231e-17
257 2 32.6861 195.303 -4.05231e-17
258 1 210.719 81.2321 -4.05231e-17
259 2 161.02 141.444 -4.05231e-17
260 1 40.5512 192.777 -4.05231e-17
261 2 142.782 176.848 -4.05231e-17
262 2 186.892 110.631 -4.05231e-17
263 2 94.2009 172.79 -4.05231e-17
264 1 199.035 36.4655 -4.05231e-17
265 1 157.647 187.034 -4.05231e-17
266 1 98.5922 196.765 -4.05231e-17
267 2 115.581 16.4038 -4.05231e-17
268 1 218.546 48.9085 -4.05231e-17
269 2 9.93237 113.252 -4.05231e-17
270 2 185.51 148.746 -4.05231e-17
271 2 187.853 95.101 -4.05231e-17
272 1 59.2152 25.9398 -4.05231e-17
273 1 70.5254 83.3301 -4.05231e-17
274 1 38.319 196.472 -4.05231e-17
275 1 146.828 110.105 -4.05231e-17
276 1 199.101 75.0153 -4.05231e-17
277 1 100.333 37.6888 -4.05231e-17
278 2 60.9592 145.359 -4.05231e-17
279 2 160.106 86.5183 -4.05231e-17
280 1 117.016 210.922 -4.05231e-17
281 2 170.006 182.538 -4.05231e-17
282 2 75.1458 127.255 -4.05231e-17
283 2 218.78 150.991 -4.05231e-17
284 1 125.932 113.567 -4.05231e-17
285 1 73.2395 165.453 -4.05231e-17
286 2 30.3635 180.164 -4.05231e-17
287 2 93.4062 109.807 -4.05231e-17
288 1 104.233 123.294 -4.05231e-17
289 2 194.013 56.9784 -4.05231e-17
290 1 101.387 29.821 -4.05231e-17
291 2 96.263 185.947 -4.05231e-17
292 1 77.092 125.397 -4.05231e-17
293 1 159.059 168.008 -4.05231e-17
294 1 30.026 177.734 -4.05231e-17
295 2 46.642 145.69 -4.05231e-17
296 1 197.221 176.872 -4.05231e-17
297 1 2.14307 18.3306 -4.05231e-17
298 2 30.3099 140.634 -4.05231e-17
299 1 177.505 55.7958 -4.05231e-17
300 2 190.377 192.906 -4.05231e-17
301 2 172.188 19.2747 -4.05231e-17
302 2 163.638 89.4561 -4.05231e-17
303 1 2.38652 151.532 -4.05231e-17
304 1 124.467 105.934 -4.05231e-17
305 1 92.0152 177.724 -4.05231e-17
306 2 83.7812 17.6908 -4.05231e-17
307 2 150.495 167.989 -4.05231e-17
308 2 142.368 22.3368 -4.05231e-17
309 1 70.2666 72.1102 -4.05231e-17
310 1 190.735 190.193 -4.05231e-17
311 1 151.123 108.798 -4.05231e-17
312 2 135.167 13.6001 -4.05231e-17
313 2 155.033 17.9693 -4.05231e-17
314 1 184.347 58.4371 -4.05231e-17
315 2 56.7231 107.528 -4.05231e-17
316 1 96.0551 30.953 -4.05231e-17
317 1 132.931 175.758 -4.05231e-17
318 1 216.629 135.561 -4.05231e-17
319 2 74.1454 201.145 -4.05231e-17
320 1 213.949 47.8358 -4.05231e-17
321 1 52.5617 87.0493 -4.05231e-17
322 1 51.2922 147.849 -4.05231e-17
323 2 19.9227 138.691 -4.05231e-17
324 2 7.96126 95.116 -4.05231e-17
325 2 216.073 13.6822 -4.05231e-17
326 1 184.902 0.9001 -4.05231e-17
327 1 35.7272 45.9275 -4.05231e-17
328 2 32.7159 192.276 -4.05231e-17
329 2 28.5531 83.3048 -4.05231e-17
330 2 153.349 38.9101 -4.05231e-17
331 2 187.894 67.6732 -4.05231e-17
332 2 121.539 114.69 -4.05231e-17
333 2 27.9273 151.107 -4.05231e-17
334 2 215.714 18.2813 -4.05231e-17
335 1 167.238 210.934 -4.05231e-17
336 2 27.7606 141.903 -4.05231e-17
337 2 40.7787 9.70535 -4.05231e-17
338 1 203.402 90.6167 -4.05231e-17
339 2 15.107 152.412 -4.05231e-17
340 2 176.801 214.149 -4.05231e-17
341 2 101.37 60.0031 -4.05231e-17
342 2 173.613 166.708 -4.05231e-17
343 2 176.305 4.91041 -4.05231e-17
344 1 88.2196 105.828 -4.05231e-17
345 2 26.5502 213.093 -4.05231e-17
346 2 75.1682 72.9512 -4.05231e-17
347 1 147.789 98.7151 -4.05231e-17
348 1 181.29 3.72365 -4.05231e-17
349 2 173.315 70.0517 -4.05231e-17
350 2 77.637 178.893 -4.05231e-17
351 1 175.302 141.932 -4.05231e-17
352 1 212.775 163.616 -4.05231e-17
353 2 141 131.795 -4.05231e-17
354 2 191.544 176.375 -4.05231e-17
355 1 216.045 157.219 -4.05231e-17
356 2 115.155 1.68216 -4.05231e-17
357 1 126.822 192.481 -4.05231e-17
358 1 78.3527 25.2307 -4.05231e-17
359 1 34.6769 144.131 -4.05231e-17
360 1 51.3667 8.34398 -4.05231e-17
361 2 196.62 68.5935 -4.05231e-17
362 2 172.291 94.6231 -4.05231e-17
363 1 78.9769 215.796 -4.05231e-17
364 2 216.983 46.746 -4.05231e-17
365 1 5.6997 164.499 -4.05231e-17
366 1 82.5554 172.926 -4.05231e-17
367 1 161.183 104.184 -4.05231e-17
368 1 20.8181 164.511 -4.05231e-17
369 2 81.4853 143.557 -4.05231e-17
370 1 6.67355 132.378 -4.05231e-17
371 2 71.3948 111.54 -4.05231e-17
372 1 87.9729 6.53582 -4.05231e-17
373 2 117.939 208.539 -4.05231e-17
374 2 176.798 101.608 -4.05231e-17
375 1 136.44 25.7967 -4.05231e-17
376 1 121.855 147.14 -4.05231e-17
377 2 95.2266 75.84 -4.05231e-17
378 2 215.371 106.763 -4.05231e-17
379 2 169.471 187.368 -4.05231e-17
380 1 199.689 33.9009 -4.05231e-17
381 1 174.857 67.865 -4.05231e-17
382 1 122.33 26.9427 -4.05231e-17
383 1 110.436 82.9942 -4.05231e-17
384 2 53.9656 100.764 -4.05231e-17
385 1 65.9223 148.694 -4.05231e-17
386 2 179.872 175.582 -4.05231e-17
387 1 34.7903 107.221 -4.05231e-17
388 1 143.805 164.111 -4.05231e-17
389 2 215.922 121.332 -4.05231e-17
390 1 105.069 65.7517 -4.05231e-17
391 1 203.354 217.489 -4.05231e-17
392 2 4.19039 100.44 -4.05231e-17
393 2 192.968 173.512 -4.05231e-17
394 1 36.6552 204.099 -4.05231e-17
395 1 19.3924 215.115 -4.05231e-17
396 2 75.3206 88.3359 -4.05231e-17
397 1 67.8331 41.8683 -4.05231e-17
398 2 165.861 111.163 -4.05231e-17
399 2 196.906 106.541 -4.05231e-17
400 2 123.56 68.8371 -4.05231e-17
401 2 83.9009 190.77 -4.05231e-17
402 1 84.2925 42.9246 -4.05231e-17
403 1 69.7382 116.5 -4.05231e-17
404 2 113.115 14.0024 -4.05231e-17
405 1 49.1849 197.091 -4.05231e-17
406 2 217.083 95.6807 -4.05231e-17
407 1 123.703 78.785 -4.05231e-17
408 1 130.175 29.1584 -4.05231e-17
409 2 214.297 116.12 -4.05231e-17
410 2 70.5492 158.906 -4.05231e-17
411 1 136.589 97.0534 -4.05231e-17
412 1 164.572 6.43915 -4.05231e-17
413 1 34.8692 85.9783 -4.05231e-17
414 2 193.174 202.627 -4.05231e-17
415 1 107.465 126.881 -4.05231e-17
416 1 176.001 51.7798 -4.05231e-17
417 2 107.83 129.634 -4.05231e-17
418 2 35.0472 179.861 -4.05231e-17
419 2 195.407 91.9783 -4.05231e-17
420 2 108.607 44.1478 -4.05231e-17
421 1 70.4047 30.7855 -4.05231e-17
422 1 34.5086 58.019 -4.05231e-17
423 2 116.64 125.001 -4.05231e-17
424 2 39.1634 24.4688 -4.05231e-17
425 2 117.376 150.597 -4.05231e-17
426 1 185.927 97.1957 -4.05231e-17
427 2 74.9873 60.5269 -4.05231e-17
428 1 29.4599 175.194 -4.05231e-17
429 2 131.061 149.856 -4.05231e-17
430 2 111.47 104.359 -4.05231e-17
431 1 13.168 9.35826 -4.05231e-17
432 2 173.999 3.19439 -4.05231e-17
433 1 186.631 198.643 -4.05231e-17
434 1 20.2155 205.26 -4.05231e-17
435 1 149.716 85.3178 -4.05231e-17
436 2 84.9796 198.802 -4.05231e-17
437 2 181.01 82.983 -4.05231e-17
438 2 194.386 177.35 -4.05231e-17
439 2 92.9319 10.0099 -4.05231e-17
440 2 201.357 92.236 -4.05231e-17
441 1 130.73 167.227 -4.05231e-17
442 1 38.1094 104.587 -4.05231e-17
443 2 79.0295 82.0142 -4.05231e-17
444 1 204.667 104.958 -4.05231e-17
445 1 169.322 133.089 -4.05231e-17
446 2 183.067 150.677 -4.05231e-17
447 2 40.0876 40.2163 -4.05231e-17
448 2 205.871 176.244 -4.05231e-17
449 1 41.3018 177.493 -4.05231e-17
450 1 10.524 126.298 -4.05231e-17
451 1 53.9117 209.363 -4.05231e-17
452 2 208.683 61.1886 -4.05231e-17
453 1 216.414 150.233 -4.05231e-17
454 1 3.10057 68.8182 -4.05231e-17
455 2 81.4222 131.179 -4.05231e-17
456 1 85.2472 1.75772 -4.05231e-17
457 2 140.565 145.036 -4.05231e-17
458 2 155.962 135.78 -4.05231e-17
459 2 133.108 51.6678 -4.05231e-17
460 1 197.501 170.171 -4.05231e-17
461 1 112.061 128.418 -4.05231e-17
462 1 103.901 196.046 -4.05231e-17
463 2 110.563 218.493 -4.05231e-17
464 2 13.9954 77.5906 -4.05231e-17
465 1 123.93 16.3259 -4.05231e-17
466 2 150.807 126.492 -4.05231e-17
467 2 65.9082 133.242 -4.05231e-17
468 2 124.115 125.595 -4.05231e-17
469 2 57.989 71.3422 -4.05231e-17
470 2 208.856 154.775 -4.05231e-17
471 2 212.169 211.701 -4.05231e-17
472 2 111.181 36.758 -4.05231e-17
473 2 198.286 214.459 -4.05231e-17
474 2 85.0308 146.829 -4.05231e-17
475 1 164.091 182.766 -4.05231e-17
476 2 175.014 34.4131 -4.05231e-17
477 1 208.728 218.223 -4.05231e-17
478 1 46.3245 188.313 -4.05231e-17
479 2 1.014 197.731 -4.05231e-17
480 1 82.7992 61.7004 -4.05231e-17
481 1 3.07923 209.554 -4.05231e-17
482 2 152.762 176.359 -4.05231e-17
483 1 134.462 209.375 -4.05231e-17
484 1 66.3624 135.866 -4.05231e-17
485 2 13.3412 173.932 -4.05231e-17
486 1 132.631 72.9009 -4.05231e-17
487 1 13.2863 202.397 -4.05231e-17
488 1 49.9287 83.7292 -4.05231e-17
489 1 70.4475 109.163 -4.05231e-17
490 1 164.703 73.5069 -4.05231e-17
491 1 163.022 75.6078 -4.05231e-17
492 2 209.042 15.5695 -4.05231e-17
493 1 93.8691 203.294 -4.05231e-17
494 2 77.8288 66.3758 -4.05231e-17
495 1 150.032 92.2721 -4.05231e-17
496 1 52.1873 123.53 -4.05231e-17
497 1 136.89 110.198 -4.05231e-17
498 2 145.49 38.9899 -4.05231e-17
499 2 177.761 118.848 -4.05231e-17
500 2 57.4153 32.306 -4.05231e-17
501 2 14.4889 139.619 -4.05231e-17
502 2 190.763 126.806 -4.05231e-17
503 2 57.4716 63.3616 -4.05231e-17
504 2 98.0462 50.147 -4.05231e-17
505 2 112.21 213.776 -4.05231e-17
506 1 207.068 6.38708 -4.05231e-17
507 2 49.6814 182.479 -4.05231e-17
508 1 140.501 59.2146 -4.05231e-17
509 1 209.526 47.4241 -4.05231e-17
510 1 195.405 104.44 -4.05231e-17
511 2 108.144 179.595 -4.05231e-17
512 1 11.149 42.7412 -4.05231e-17
513 2 87.6768 183.236 -4.05231e-17
514 2 15.3042 87.2515 -4.05231e-17
515 1 60.4049 98.5542 -4.05231e-17
516 2 100.923 73.869 -4.05231e-17
517 1 32.0602 147.644 -4.05231e-17
518 2 10.1945 13.8727 -4.05231e-17
519 1 125.327 92.0035 -4.05231e-17
520 2 209.339 93.4995 -4.05231e-17
521 2 130.375 39.9842 -4.05231e-17
522 1 187.115 7.10833 -4.05231e-17
523 1 127.596 99.6788 -4.05231e-17
524 2 175.365 18.7694 -4.05231e-17
525 2 185.06 45.7686 -4.05231e-17
526 2 108.122 16.3271 -4.05231e-17
527 1 170.892 24.9752 -4.05231e-17
528 1 213.052 201.969 -4.05231e-17
529 2 104.485 176.371 -4.05231e-17
530 2 18.6903 88.2633 -4.05231e-17
531 2 185.09 172.142 -4.05231e-17
532 1 81.4255 5.13576 -4.05231e-17
533 2 23.4578 158.283 -4.05231e-17
534 1 22.8 168.413 -4.05231e-17
535 1 170.034 206.56 -4.05231e-17
536 2 18.0229 169.667 -4.05231e-17
537 1 142.467 29.3007 -4.05231e-17
538 1 68.2408 157.995 -4.05231e-17
539 2 80.5582 163.24 -4.05231e-17
540 1 35.1768 182.413 -4.05231e-17
541 1 105.421 128.227 -4.05231e-17
542 1 58.523 126.639 -4.05231e-17
543 2 120.233 168.574 -4.05231e-17
544 1 217.851 211.751 -4.05231e-17
545 1 174.776 72.2928 -4.05231e-17
546 2 186.989 9.92678 -4.05231e-17
547 1 12.911 71.52 -4.05231e-17
548 1 29.5518 5.55411 -4.05231e-17
549 2 35.1043 152.489 -4.05231e-17
550 2 164.398 193.674 -4.05231e-17
551 2 38.4454 7.30856 -4.05231e-17
552 1 31.8366 51.4342 -4.05231e-17
553 2 207.213 196.86 -4.05231e-17
554 2 144.25 34.0761 -4.05231e-17
555 2 178.058 134.747 -4.05231e-17
556 1 177.739 211.64 -4.05231e-17
557 1 211.09 54.1147 -4.05231e-17
558 1 60.3153 142.726 -4.05231e-17
559 2 106.303 91.3932 -4.05231e-17
560 2 57.1529 89.3561 -4.05231e-17
561 2 110.778 181.571 -4.05231e-17
562 2 99.4207 65.5971 -4.05231e-17
563 1 73.3074 168.252 -4.05231e-17
564 2 103.148 78.5817 -4.05231e-17
565 2 33.4592 64.9462 -4.05231e-17
566 2 64.409 60.4028 -4.05231e-17
567 1 95.1487 11.6458 -4.05231e-17
568 1 22.6184 77.817 -4.05231e-17
569 2 141.489 194.273 -4.05231e-17
570 2 11.7149 21.4399 -4.05231e-17
571 2 5.25994 62.0841 -4.05231e-17
572 1 115.311 107.663 -4.05231e-17
573 2 38.0092 89.6807 -4.05231e-17
574 2 179.254 170.16 -4.05231e-17
575 1 196.1 206.792 -4.05231e-17
576 1 25.7086 68.2644 -4.05231e-17
577 1 127.539 74.5578 -4.05231e-17
578 1 183.821 115.271 -4.05231e-17
579 2 182.142 44.4275 -4.05231e-17
580 1 108.889 103.698 -4.05231e-17
581 1 91.7966 146.677 -4.05231e-17
582 2 125.475 101.245 -4.05231e-17
583 2 103.483 83.9014 -4.05231e-17
584 2 107.322 151.275 -4.05231e-17
585 1 181.676 103.246 -4.05231e-17
586 1 143.413 80.2098 -4.05231e-17
587 1 158.316 111.962 -4.05231e-17
588 2 64.3598 108.684 -4.05231e-17
589 1 210.846 59.5394 -4.05231e-17
590 2 181.807 58.1376 -4.05231e-17
591 2 179.044 16.2353 -4.05231e-17
592 1 204.179 128.916 -4.05231e-17
593 1 127.264 90.2183 -4.05231e-17
594 1 5.26672 70.1675 -4.05231e-17
595 1 32.8182 62.2822 -4.05231e-17
596 2 106.771 71.0566 -4.05231e-17
597 2 63.3599 105.623 -4.05231e-17
598 2 135.916 87.6469 -4.05231e-17
599 2 96.9091 165.956 -4.05231e-17
600 2 49.1579 98.749 -4.05231e-17
601 1 145.936 107.794 -4.05231e-17
602 1 173.671 51.9741 -4.05231e-17
603 2 216.81 159.639 -4.05231e-17
604 1 46.1054 179.289 -4.05231e-17
605 2 140.128 100.527 -4.05231e-17
606 2 150.382 99.2679 -4.05231e-17
607 2 47.6507 169.17 -4.05231e-17
608 2 128.53 31.235 -4.05231e-17
609 1 77.6231 89.5485 -4.05231e-17
610 2 106.048 200.206 -4.05231e-17
611 1 1.39059 165.643 -4.05231e-17
612 1 207.257 117.656 -4.05231e-17
613 2 213.582 156.645 -4.05231e-17
614 1 202.619 30.5797 -4.05231e-17
615 1 152.362 104.496 -4.05231e-17
616 2 145.802 177.914 -4.05231e-17
617 1 168.694 0.957924 -4.05231e-17
618 1 137.239 216.665 -4.05231e-17
619 1 164.086 160.904 -4.05231e-17
620 2 42.8946 88.8252 -4.05231e-17
621 2 203.593 76.8973 -4.05231e-17
622 2 144.912 154.276 -4.05231e-17
623 2 108.653 147.178 -4.05231e-17
624 1 106.849 177.182 -4.05231e-17
625 2 208.629 79.7535 -4.05231e-17
626 1 210.887 190.284 -4.05231e-17
627 2 195.308 192.937 -4.05231e-17
628 1 116.768 156.172 -4.05231e-17
629 1 30.398 41.1133 -4.05231e-17
630 2 133.357 213.889 -4.05231e-17
631 2 144.653 115.277 -4.05231e-17
632 2 208.867 20.0948 -4.05231e-17
633 2 60.8984 131.543 -4.05231e-17
634 2 191.446 67.8604 -4.05231e-17
635 2 80.1977 72.3542 -4.05231e-17
636 1 88.2932 131.33 -4.05231e-17
637 1 217.222 152.799 -4.05231e-17
638 1 116.799 69.0858 -4.05231e-17
639 2 200.681 65.5691 -4.05231e-17
640 2 149.025 78.1185 -4.05231e-17
641 1 200.101 96.8909 -4.05231e-17
642 2 161.609 35.5258 -4.05231e-17
643 1 165.317 57.9339 -4.05231e-17
644 2 139.515 154.949 -4.05231e-17
645 2 5.51229 75.243 -4.05231e-17
646 1 169.757 142.511 -4.05231e-17
647 2 129.108 147.893 -4.05231e-17
648 2 190.596 211.579 -4.05231e-17
649 1 63.7739 145.427 -4.05231e-17
650 1 56.1886 152.938 -4.05231e-17
651 1 112.333 131.033 -4.05231e-17
652 2 8.40701 214.094 -4.05231e-17
653 2 195.652 45.5 -4.05231e-17
654 1 208.654 164.862 -4.05231e-17
655 1 63.4198 47.4207 -4.05231e-17
656 1 198.957 10.2962 -4.05231e-17
657 1 125.136 120.487 -4.05231e-17
658 2 165.833 105.962 -4.05231e-17
659 2 101.327 137.275 -4.05231e-17
660 1 24.9696 12.1155 -4.05231e-17
661 2 15.6031 36.8959 -4.05231e-17
662 2 135.706 116.884 -4.05231e-17
663 1 163.789 113.145 -4.05231e-17
664 1 79.9494 138.298 -4.05231e-17
665 1 135.566 144.002 -4.05231e-17
666 1 203.253 185.547 -4.05231e-17
667 1 0.524239 116.836 -4.05231e-17
668 1 134.033 156.876 -4.05231e-17
669 1 107.06 160.649 -4.05231e-17
670 2 211.767 160.875 -4.05231e-17
671 1 3.57005 16.0932 -4.05231e-17
672 1 193.733 141.539 -4.05231e-17
673 2 47.3362 84.5989 -4.05231e-17
674 2 182.355 205.4 -4.05231e-17
675 2 152.62 1.86601 -4.05231e-17
676 1 180.867 159.9 -4.05231e-17
677 2 53.3031 53.2749 -4.05231e-17
678 1 86.654 113.592 -4.05231e-17
679 1 87.0779 65.2807 -4.05231e-17
680 2 71.7027 13.5961 -4.05231e-17
681 1 5.18339 9.13758 -4.05231e-17
682 1 141.354 171.737 -4.05231e-17
683 2 96.4804 123.521 -4.05231e-17
684 1 23.2979 180.242 -4.05231e-17
685 1 83.8989 206.711 -4.05231e-17
686 1 142.797 159.577 -4.05231e-17
687 1 107.638 53.1019 -4.05231e-17
688 1 151.919 97.2132 -4.05231e-17
689 2 10.5737 139.408 -4.05231e-17
690 1 48.4484 120.683 -4.05231e-17
691 2 64.8854 115.265 -4.05231e-17
692 2 180.452 178.672 -4.05231e-17
693 1 161.421 96.3171 -4.05231e-17
694 2 147.058 149.628 -4.05231e-17
695 2 188.055 36.8679 -4.05231e-17
696 2 31.4462 82.4006 -4.05231e-17
697 1 104.078 35.6793 -4.05231e-17
698 2 41.0783 18.2873 -4.05231e-17
699 1 57.1624 203.085 -4.05231e-17
700 2 17.7768 126.028 -4.05231e-17
701 2 30.6916 63.7748 -4.05231e-17
702 1 160.81 9.99784 -4.05231e-17
703 1 195.989 60.6918 -4.05231e-17
704 1 159.849 121.541 -4.05231e-17
705 1 43.4438 120.261 -4.05231e-17
706 1 75.3489 161.613 -4.05231e-17
707 1 182.082 66.7413 -4.05231e-17
708 2 195.347 101.63 -4.05231e-17
709 1 54.1358 159.831 -4.05231e-17
710 2 91.8274 16.2204 -4.05231e-17
711 2 1.46238 139.401 -4.05231e-17
712 1 84.3823 213.775 -4.05231e-17
713 1 4.89878 152.546 -4.05231e-17
714 2 144.994 147.335 -4.05231e-17
715 2 133.161 87.0006 -4.05231e-17
716 1 86.699 60.9846 -4.05231e-17
717 1 14.8559 61.2342 -4.05231e-17
718 2 78.7412 99.8655 -4.05231e-17
719 1 68.6874 202.974 -4.05231e-17
720 2 51.6141 197.727 -4.05231e-17
721 2 43.9591 213.31 -4.05231e-17
722 2 65.5069 138.142 -4.05231e-17
723 2 15.4108 165.576 -4.05231e-17
724 2 202.5 106.971 -4.05231e-17
725 2 21.7332 50.1422 -4.05231e-17
726 2 177.863 124.095 -4.05231e-17
727 2 35.4715 109.522 -4.05231e-17
728 1 176.382 77.3241 -4.05231e-17
729 2 167.26 131.475 -4.05231e-17
730 2 175.056 94.5165 -4.05231e-17
731 1 9.90971 23.4242 -4.05231e-17
732 2 98.1338 87.2262 -4.05231e-17
733 2 147.939 146.636 -4.05231e-17
734 2 59.1351 192.212 -4.05231e-17
735 2 149.101 72.0515 -4.05231e-17
736 1 182.372 176.994 -4.05231e-17
737 2 49.1158 39.7203 -4.05231e-17
738 2 71.3617 207.773 -4.05231e-17
739 2 186.085 131.116 -4.05231e-17
740 2 40.4838 115.682 -4.05231e-17
741 2 200.577 113.785 -4.05231e-17
742 1 71.8064 98.8127 -4.05231e-17
743 2 78.6479 76.1565 -4.05231e-17
744 1 146.944 49.9024 -4.05231e-17
745 2 15.9465 75.6281 -4.05231e-17
746 1 218.572 121.606 -4.05231e-17
747 1 98.3371 163.298 -4.05231e-17
748 2 69.8334 197.845 -4.05231e-17
749 1 213.658 166.106 -4.05231e-17
750 1 139.33 147.922 -4.05231e-17
751 1 143.034 88.9981 -4.05231e-17
752 2 195.335 168.478 -4.05231e-17
753 1 37.4418 180.713 -4.05231e-17
754 2 65.7921 80.9327 -4.05231e-17
755 1 6.48753 80.6479 -4.05231e-17
756 2 178.377 58.4229 -4.05231e-17
757 1 110.764 15.3493 -4.05231e-17
758 2 99.5829 27.9081 -4.05231e-17
759 1 95.8679 133.503 -4.05231e-17
760 1 171.208 61.3458 -4.05231e-17
761 2 213.294 100.889 -4.05231e-17
762 1 178.361 106.221 -4.05231e-17
763 2 6.1407 157.326 -4.05231e-17
764 2 43.3763 188.461 -4.05231e-17
765 1 21.9109 160.218 -4.05231e-17
766 2 100.024 47.8798 -4.05231e-17
767 2 206.364 149.089 -4.05231e-17
768 2 72.1907 62.2983 -4.05231e-17
769 2 188.341 98.6035 -4.05231e-17
770 1 134.274 18.4082 -4.05231e-17
771 1 64.609 63.2132 -4.05231e-17
772 1 129.148 0.33772 -4.05231e-17
773 2 166.656 172.243 -4.05231e-17
774 1 88.1037 87.3069 -4.05231e-17
775 1 102.422 75.8706 -4.05231e-17
776 2 192.768 103.454 -4.05231e-17
777 2 42.2764 79.9628 -4.05231e-17
778 1 83.5075 12.7692 -4.05231e-17
779 1 47.7208 61.4606 -4.05231e-17
780 2 83.4066 49.9169 -4.05231e-17
781 1 25.8136 171.644 -4.05231e-17
782 2 122.946 170.062 -4.05231e-17
783 1 74.5808 63.0685 -4.05231e-17
784 2 96.6945 110.46 -4.05231e-17
785 1 204.348 82.4273 -4.05231e-17
786 1 41.219 7.07258 -4.05231e-17
787 2 38.2342 209.054 -4.05231e-17
788 2 164.958 180.422 -4.05231e-17
789 2 18.2514 147.228 -4.05231e-17
790 2 77.5224 8.03281 -4.05231e-17
791 2 186.54 54.0973 -4.05231e-17
792 1 213.057 132.56 -4.05231e-17
793 1 96.8942 171.679 -4.05231e-17
794 2 209.591 6.72752 -4.05231e-17
795 2 10.9315 192.073 -4.05231e-17
796 1 69.2315 215.372 -4.05231e-17
797 1 46.3488 32.6649 -4.05231e-17
798 1 213.422 55.6773 -4.05231e-17
799 2 105.791 155.56 -4.05231e-17
800 1 56.9591 37.1383 -4.05231e-17
801 2 68.2031 84.7785 -4.05231e-17
802 1 91.0304 216.373 -4.05231e-17
803 1 143.267 24.694 -4.05231e-17
804 1 210.142 124.976 -4.05231e-17
805 2 183.746 117.947 -4.05231e-17
806 2 178.97 158.077 -4.05231e-17
807 2 208.496 29.5171 -4.05231e-17
808 2 76.3818 144.602 -4.05231e-17
809 1 175.731 63.0205 -4.05231e-17
810 2 24.0447 173.554 -4.05231e-17
811 2 179.996 55.8644 -4.05231e-17
812 1 121.974 184.989 -4.05231e-17
813 1 22.0301 95.6178 -4.05231e-17
814 1 2.9685 205.1 -4.05231e-17
815 1 146.015 31.9981 -4.05231e-17
816 1 206.815 51.1386 -4.05231e-17
817 2 62.7041 71.2522 -4.05231e-17
818 2 29.3473 122.652 -4.05231e-17
819 2 210.897 68.0075 -4.05231e-17
820 1 9.63818 58.9635 -4.05231e-17
821 1 65.0938 57.9365 -4.05231e-17
822 2 131.423 34.5692 -4.05231e-17
823 1 184.242 90.6322 -4.05231e-17
824 1 175.848 89.7903 -4.05231e-17
825 1 160.16 190.817 -4.05231e-17
826 2 178.202 82.1109 -4.05231e-17
827 2 102.423 27.0495 -4.05231e-17
828 1 50.4911 91.2922 -4.05231e-17
829 2 127.907 92.6237 -4.05231e-17
830 1 3.71747 156.792 -4.05231e-17
831 2 183.276 217.766 -4.05231e-17
832 2 26.7461 52.2156 -4.05231e-17
833 2 96.3162 41.8861 -4.05231e-17
834 1 70.8148 164.22 -4.05231e-17
835 1 185.087 141.533 -4.05231e-17
836 1 153.196 69.7912 -4.05231e-17
837 2 167.793 92.286 -4.05231e-17
838 2 92.0498 26.608 -4.05231e-17
839 1 39.16 31.9531 -4.05231e-17
840 2 13.917 116.922 -4.05231e-17
841 2 201.546 10.5536 -4.05231e-17
842 1 173.002 159.367 -4.05231e-17
843 1 205.236 29.9987 -4.05231e-17
844 2 8.5624 25.5306 -4.05231e-17
845 1 46.9231 150.737 -4.05231e-17
846 2 127.347 211.329 -4.05231e-17
847 1 88.4867 143.169 -4.05231e-17
848 2 112.735 8.96367 -4.05231e-17
849 1 24.8427 33.1097 -4.05231e-17
850 2 59.9593 67.272 -4.05231e-17
851 2 216.341 30.6771 -4.05231e-17
852 1 137.142 182.864 -4.05231e-17
853 1 185.784 105.098 -4.05231e-17
854 2 103.977 144.938 -4.05231e-17
855 2 165.687 121.055 -4.05231e-17
856 1 77.548 160.026 -4.05231e-17