ITEM: TIMESTEP
0
ITEM: NUMBER OF ATOMS
7200
ITEM: BOX BOUNDS xy xz yz pp pp pp
0.0000000000000000e+00 2.1900000000000000e+02 0.0000000000000000e+00
0.0000000000000000e+00 2.1900000000000000e+02 0.0000000000000000e+00
-3.6499999999999999e-01 3.6499999999999999e-01 0.0000000000000000e+00
ITEM: ATOMS id type x y z
1 1 182.952 12.4974 -4.05231e-17
2 2 188.121 183.755 -4.05231e-17
3 2 144.754 189.565 -4.05231e-17
4 1 123.212 110.046 -4.05231e-17
5 1 101.008 122.568 -4.05231e-17
6 1 104.487 25.3374 -4.05231e-17
7 2 158.791 129.019 -4.05231e-17
8 2 69.7004 25.8253 -4.05231e-17
9 1 22.0706 214.831 -4.05231e-17
10 2 52.4324 166.395 -4.05231e-17
11 2 210.022 100.27 -4.05231e-17
12 1 34.2325 197.442 -4.05231e-17
13 2 194.315 53.7985 -4.05231e-17
14 1 57.5875 184.432 -4.05231e-17
15 2 193.557 218.895 -4.05231e-17
16 2 218.32 85.8319 -4.05231e-17
17 1 67.4822 74.3252 -4.05231e-17
18 2 10.3298 172.629 -4.05231e-17
19 1 93.1281 130.06 -4.05231e-17
20 1 72.2752 10.9949 -4.05231e-17
21 1 157.171 7.66559 -4.05231e-17
22 2 31.7951 212.585 -4.05231e-17
23 2 43.1352 208.249 -4.05231e-17
24 2 218.877 102.731 -4.05231e-17
25 2 30.081 207.466 -4.05231e-17
26 2 149.529 27.8334 -4.05231e-17
27 1 217.243 162.414 -4.05231e-17
28 2 54.443 154.688 -4.05231e-17
29 2 83.38 3.75167 -4.05231e-17
30 2 132.017 37.435 -4.05231e-17
31 2 156.884 83.7453 -4.05231e-17
32 1 48.2522 108.678 -4.05231e-17
33 2 145.304 87.4686 -4.05231e-17
34 2 16.361 96.0958 -4.05231e-17
35 2 127.063 11.4977 -4.05231e-17
36 1 160.076 146.807 -4.05231e-17
37 1 133.285 185.261 -4.05231e-17
38 2 209.206 157.571 -4.05231e-17
39 1 8.15589 38.2963 -4.05231e-17
40 2 196.433 73.8439 -4.05231e-17
41 1 192.706 73.0946 -4.05231e-17
42 1 54.9157 58.6712 -4.05231e-17
43 1 210.248 132.112 -4.05231e-17
44 1 155.315 188.729 -4.05231e-17
45 2 159.257 61.2895 -4.05231e-17
46 1 124.07 192.546 -4.05231e-17
47 2 88.9942 80.0603 -4.05231e-17
48 2 150.76 129.714 -4.05231e-17
49 1 194.583 200.224 -4.05231e-17
50 2 28.9264 47.3458 -4.05231e-17
51 1 186.785 3.04397 -4.05231e-17
52 1 115.384 48.1872 -4.05231e-17
53 2 55.0323 201.09 -4.05231e-17
54 1 39.5217 16.9635 -4.05231e-17
55 2 53.569 141.138 -4.05231e-17
56 1 31.2373 132.608 -4.05231e-17
57 2 58.6884 133.795 -4.05231e-17
58 1 184.684 34.0232 -4.05231e-17
59 1 157.983 86.2286 -4.05231e-17
60 2 206.28 59.3237 -4.05231e-17
61 1 157.246 164.64 -4.05231e-17
62 1 106.708 111.487 -4.05231e-17
63 2 108.742 38.816 -4.05231e-17
64 1 28.7665 17.8986 -4.05231e-17
65 2 152.026 149.528 -4.05231e-17
66 2 13.1744 154.839 -4.05231e-17
67 2 182.629 107.827 -4.05231e-17
68 1 136.855 83.3762 -4.05231e-17
69 2 109.498 168.821 -4.05231e-17
70 1 141.839 97.9379 -4.05231e-17
71 1 198.231 147.576 -4.05231e-17
72 2 45.1707 157.361 -4.05231e-17
73 2 191.732 179.47 -4.05231e-17
74 2 109.555 69.7311 -4.05231e-17
75 1 14.5666 136.645 -4.05231e-17
76 2 138.09 206.575 -4.05231e-17
77 2 168.987 15.7923 -4.05231e-17
78 1 93.3954 208.03 -4.05231e-17
79 2 60.4687 75.9041 -4.05231e-17
80 1 49.8866 22.9572 -4.05231e-17
81 1 181.757 211.286 -4.05231e-17
82 1 172.472 39.0557 -4.05231e-17
83 1 71.1505 90.7901 -4.05231e-17
84 2 141.328 179.741 -4.05231e-17
85 2 150.807 146.518 -4.05231e-17
86 2 50.8557 68.1032 -4.05231e-17
87 2 38.8253 75.4834 -4.05231e-17
88 1 80.5649 157.555 -4.05231e-17
89 2 199.447 105.143 -4.05231e-17
90 2 126.145 36.5267 -4.05231e-17
91 2 11.2133 182.226 -4.05231e-17
92 1 27.5003 215.121 -4.05231e-17
93 2 110.156 154.556 -4.05231e-17
94 2 112.567 144.372 -4.05231e-17
95 1 211.325 51.5419 -4.05231e-17
96 2 31.9257 54.2651 -4.05231e-17
97 2 4.26842 211.669 -4.05231e-17
98 2 35.6231 185.509 -4.05231e-17
99 1 105.238 9.51933 -4.05231e-17
100 2 158.918 65.866 -4.05231e-17
101 1 184.126 110.138 -4.05231e-17
102 1 66.529 164.023 -4.05231e-17
103 2 204.968 100.169 -4.05231e-17
104 2 104.126 73.0816 -4.05231e-17
105 1 160.714 59.1675 -4.05231e-17
106 1 185.491 60.4405 -4.05231e-17
107 1 12.1447 106.834 -4.05231e-17
108 1 69.9057 210.048 -4.05231e-17
109 2 217.54 39.3091 -4.05231e-17
110 2 145.196 29.7735 -4.05231e-17
111 1 52.8494 92.2519 -4.05231e-17
112 2 8.26731 51.0622 -4.05231e-17
113 1 134.773 11.2393 -4.05231e-17
114 1 92.4144 86.4439 -4.05231e-17
115 2 32.084 59.5399 -4.05231e-17
116 2 183.774 15.2383 -4.05231e-17
117 1 163.201 110.736 -4.05231e-17
118 1 82.6511 94.0052 -4.05231e-17
119 2 98.8729 139.711 -4.05231e-17
120 2 201.254 58.2938 -4.05231e-17
121 1 205.144 139.016 -4.05231e-17
122 2 143.219 130.304 -4.05231e-17
123 2 6.93733 129.434 -4.05231e-17
124 1 161.688 200.478 -4.05231e-17
125 1 88.2067 192.898 -4.05231e-17
126 2 97.7559 84.2251 -4.05231e-17
127 2 209.112 110.547 -4.05231e-17
128 1 121.806 104.995 -4.05231e-17
129 1 144.018 194.66 -4.05231e-17
130 2 120.033 61.6004 -4.05231e-17
131 1 133.673 60.2337 -4.05231e-17
132 1 139.592 22.1049 -4.05231e-17
133 1 181.02 105.673 -4.05231e-17
134 1 81.1073 191.504 -4.05231e-17
135 2 177.73 60.8291 -4.05231e-17
136 1 190.687 118.624 -4.05231e-17
137 1 60.3323 7.63501 -4.05231e-17
138 2 156.356 159.235 -4.05231e-17
139 1 132.652 12.2115 -4.05231e-17
140 1 144.893 208.625 -4.05231e-17
141 1 50.9361 70.7445 -4.05231e-17
142 1 213.045 190.914 -4.05231e-17
143 1 26.1447 26.9091 -4.05231e-17
144 1 46.7086 98.0304 -4.05231e-17
145 2 192.964 80.0129 -4.05231e-17
146 1 153.348 125.858 -4.05231e-17
147 2 16.3256 134.633 -4.05231e-17
148 1 24.4271 133.457 -4.05231e-17
149 1 147.482 190.687 -4.05231e-17
150 2 65.6756 52.0437 -4.05231e-17
151 1 132.398 138.176 -4.05231e-17
152 1 164.258 163.588 -4.05231e-17
153 2 124.092 130.405 -4.05231e-17
154 1 183.946 52.6114 -4.05231e-17
155 2 203.572 39.8431 -4.05231e-17
156 2 109.235 197.109 -4.05231e-17
157 2 166.028 29.174 -4.05231e-17
158 2 27.819 7.86152 -4.05231e-17
159 2 12.102 158.812 -4.05231e-17
160 2 120.764 55.1164 -4.05231e-17
161 2 129.757 138.604 -4.05231e-17
162 1 24.0158 66.6062 -4.05231e-17
163 1 189.195 33.9974 -4.05231e-17
164 2 108.184 134.736 -4.05231e-17
165 1 48.9618 72.2606 -4.05231e-17
166 2 6.26262 199.642 -4.05231e-17
167 1 106.94 167.753 -4.05231e-17
168 1 211.313 102.73 -4.05231e-17
169 2 97.9773 199.616 -4.05231e-17
170 1 66.2205 206.446 -4.05231e-17
171 1 137.459 92.6605 -4.05231e-17
172 1 199.582 199.841 -4.05231e-17
173 1 39.1577 204.17 -4.05231e-17
174 2 38.6658 173.365 -4.05231e-17
175 2 50.0194 199.943 -4.05231e-17
176 1 119.791 151.727 -4.05231e-17
177 2 104.983 15.0443 -4.05231e-17
178 1 25.3118 7.44622 -4.05231e-17
179 2 106.2 197.256 -4.05231e-17
180 1 46.9347 76.5935 -4.05231e-17
181 1 16.1006 119.343 -4.05231e-17
182 1 113.812 87.2025 -4.05231e-17
183 1 64.1901 168.153 -4.05231e-17
184 2 157.587 25.7585 -4.05231e-17
185 2 190 78.7324 -4.05231e-17
186 2 74.3882 206.568 -4.05231e-17
187 2 159.197 201.93 -4.05231e-17
188 2 60.1162 28.4939 -4.05231e-17
189 1 191.512 57.7093 -4.05231e-17
190 1 196.4 55.4458 -4.05231e-17
191 2 35.2598 104.926 -4.05231e-17
192 2 90.9031 61.1815 -4.05231e-17
193 1 108.663 166.047 -4.05231e-17
194 1 26.9023 5.47504 -4.05231e-17
195 2 58.3945 119.757 -4.05231e-17
196 1 0.291641 218.935 -4.05231e-17
197 2 119.032 50.5598 -4.05231e-17
198 2 206.198 27.3939 -4.05231e-17
199 2 99.7361 170.489 -4.05231e-17
200 2 98.7276 31.1836 -4.05231e-17
201 2 103.422 121.228 -4.05231e-17
202 1 43.9811 34.2716 -4.05231e-17
203 1 18.1333 43.0525 -4.05231e-17
204 2 44.825 78.3082 -4.05231e-17
205 2 182.948 182.084 -4.05231e-17
206 2 170.756 127.495 -4.05231e-17
207 1 74.4412 189.4 -4.05231e-17
208 2 135.1 54.6206 -4.05231e-17
209 2 33.0111 142.532 -4.05231e-17
210 1 182.129 113.04 -4.05231e-17
211 1 208.558 35.0237 -4.05231e-17
212 1 208.486 85.2591 -4.05231e-17
213 1 128.062 123.66 -4.05231e-17
214 2 12.048 11.663 -4.05231e-17
215 1 5.3511 142.189 -4.05231e-17
216 1 55.0037 46.6966 -4.05231e-17
217 1 164.2 61.8075 -4.05231e-17
218 2 201.059 120.964 -4.05231e-17
219 2 136.173 189.635 -4.05231e-17
220 1 120.987 1.44366 -4.05231e-17
221 2 82.9081 6.95035 -4.05231e-17
222 1 158.693 157.732 -4.05231e-17
223 1 45.9965 120.304 -4.05231e-17
224 2 145.957 70.8911 -4.05231e-17
225 2 169.162 163.92 -4.05231e-17
226 1 196.711 10.3243 -4.05231e-17
227 2 203.271 214.627 -4.05231e-17
228 2 117.663 63.6388 -4.05231e-17
229 1 47.2186 23.002 -4.05231e-17
230 1 4.57665 56.7533 -4.05231e-17
231 2 137.452 160.838 -4.05231e-17
232 1 18.146 212.292 -4.05231e-17
233 2 75.4606 195.803 -4.05231e-17
234 1 0.434906 60.0556 -4.05231e-17
235 1 150.571 106.209 -4.05231e-17
236 2 153.099 53.3762 -4.05231e-17
237 2 99.4139 204.034 -4.05231e-17
238 2 94.5676 140.49 -4.05231e-17
239 1 34.9003 217.033 -4.05231e-17
240 1 129.8 90.7782 -4.05231e-17
241 2 3.45559 124.717 -4.05231e-17
242 1 194.102 28.1399 -4.05231e-17
243 2 214.856 130.352 -4.05231e-17
244 2 35.8252 190.773 -4.05231e-17
245 1 173.933 21.532 -4.05231e-17
246 2 89.9768 85.1762 -4.05231e-17
247 2 198.774 150.383 -4.05231e-17
248 1 37.7735 27.0445 -4.05231e-17
249 1 132.004 108.433 -4.05231e-17
250 1 134.607 27.973 -4.05231e-17
251 2 102.137 43.3162 -4.05231e-17
252 1 111.012 156.971 -4.05231e-17
253 2 95.5214 97.4482 -4.05231e-17
254 2 179.095 204.9 -4.05231e-17
255 2 122.503 50.6481 -4.05231e-17
256 1 2.94163 180.008 -4.05231e-17
257 2 32.6448 195.092 -4.05231e-17
258 1 210.839 81.2851 -4.05231e-17
259 2 160.927 141.814 -4.05231e-17
260 1 40.6213 192.453 -4.05231e-17
261 2 143.049 177.021 -4.05231e-17
262 2 186.797 110.433 -4.05231e-17
263 2 94.4928 173.155 -4.05231e-17
264 1 199.397 36.1013 -4.05231e-17
265 1 157.562 187.351 -4.05231e-17
266 1 98.6252 197.153 -4.05231e-17
267 2 115.574 16.9017 -4.05231e-17
268 1 218.552 48.8857 -4.05231e-17
269 2 10.1157 113.529 -4.05231e-17
270 2 185.425 148.779 -4.05231e-17
271 2 187.669 94.9323 -4.05231e-17
272 1 59.0382 26.0701 -4.05231e-17
273 1 70.4447 83.1057 -4.05231e-17
274 1 38.3451 196.105 -4.05231e-17
275 1 146.998 109.888 -4.05231e-17
276 1 198.946 74.8294 -4.05231e-17
277 1 100.762 37.8324 -4.05231e-17
278 2 61.0357 145.155 -4.05231e-17
279 2 160.498 86.6505 -4.05231e-17
280 1 116.897 210.891 -4.05231e-17
281 2 169.75 182.242 -4.05231e-17
282 2 75.2403 127.003 -4.05231e-17
283 2 218.957 150.894 -4.05231e-17
284 1 126.125 113.481 -4.05231e-17
285 1 73.5361 165.379 -4.05231e-17
286 2 30.2113 180.197 -4.05231e-17
287 2 93.1938 109.905 -4.05231e-17
288 1 105.034 123.385 -4.05231e-17
289 2 193.916 56.8146 -4.05231e-17
290 1 101.185 29.6374 -4.05231e-17
291 2 96.2612 185.996 -4.05231e-17
292 1 77.0083 125.27 -4.05231e-17
293 1 159.35 168.511 -4.05231e-17
294 1 29.7581 177.585 -4.05231e-17
295 2 47.0116 145.637 -4.05231e-17
296 1 196.811 176.932 -4.05231e-17
297 1 2.44833 18.4498 -4.05231e-17
298 2 30.5596 140.902 -4.05231e-17
299 1 177.609 55.8023 -4.05231e-17
300 2 190.145 192.987 -4.05231e-17
301 2 172.061 19.707 -4.05231e-17
302 2 164.208 89.5401 -4.05231e-17
303 1 2.35067 151.588 -4.05231e-17
304 1 124.275 105.841 -4.05231e-17
305 1 92.121 177.869 -4.05231e-17
306 2 83.6377 17.957 -4.05231e-17
307 2 150.525 168.1 -4.05231e-17
308 2 142.157 22.6572 -4.05231e-17
309 1 70.7202 71.7935 -4.05231e-17
310 1 190.346 190.357 -4.05231e-17
311 1 151.132 108.683 -4.05231e-17
312 2 134.767 13.8995 -4.05231e-17
313 2 155.308 17.9132 -4.05231e-17
314 1 184.54 58.1396 -4.05231e-17
315 2 56.6674 107.763 -4.05231e-17
316 1 95.8636 31.2266 -4.05231e-17
317 1 132.993 175.736 -4.05231e-17
318 1 216.797 135.586 -4.05231e-17
319 2 74.2309 201.233 -4.05231e-17
320 1 213.941 48.0343 -4.05231e-17
321 1 52.5645 87.1696 -4.05231e-17
322 1 51.5143 147.978 -4.05231e-17
323 2 19.7042 138.792 -4.05231e-17
324 2 8.16126 95.4061 -4.05231e-17
325 2 216.267 13.852 -4.05231e-17
326 1 185.137 1.16251 -4.05231e-17
327 1 35.6691 46.003 -4.05231e-17
328 2 32.8031 192.176 -4.05231e-17
329 2 28.7172 83.4043 -4.05231e-17
330 2 153.552 39.0139 -4.05231e-17
331 2 187.985 67.8415 -4.05231e-17
332 2 121.516 114.691 -4.05231e-17
333 2 28.0436 151.143 -4.05231e-17
334 2 216.112 18.397 -4.05231e-17
335 1 167.148 211.604 -4.05231e-17
336 2 27.8273 142.222 -4.05231e-17
337 2 40.5927 9.71504 -4.05231e-17
338 1 203.435 90.3863 -4.05231e-17
339 2 14.9148 152.559 -4.05231e-17
340 2 176.807 214.26 -4.05231e-17
341 2 101.529 60.0444 -4.05231e-17
342 2 173.556 166.656 -4.05231e-17
343 2 176.226 5.00275 -4.05231e-17
344 1 87.8989 105.565 -4.05231e-17
345 2 26.697 212.76 -4.05231e-17
346 2 75.0851 72.7438 -4.05231e-17
347 1 148.082 98.6679 -4.05231e-17
348 1 181.421 3.8731 -4.05231e-17
349 2 173.317 70.0035 -4.05231e-17
350 2 78.0287 178.804 -4.05231e-17
351 1 174.866 141.443 -4.05231e-17
352 1 212.865 163.525 -4.05231e-17
353 2 140.761 131.921 -4.05231e-17
354 2 191.61 176.331 -4.05231e-17
355 1 215.987 157.255 -4.05231e-17
356 2 115.061 1.81106 -4.05231e-17
357 1 126.47 192.556 -4.05231e-17
358 1 78.3912 25.2877 -4.05231e-17
359 1 35.0449 144.355 -4.05231e-17
360 1 51.2511 8.10073 -4.05231e-17
361 2 196.517 68.4179 -4.05231e-17
362 2 172.604 94.4046 -4.05231e-17
363 1 78.704 216.302 -4.05231e-17
364 2 216.901 46.7288 -4.05231e-17
365 1 5.56488 164.392 -4.05231e-17
366 1 82.7195 172.992 -4.05231e-17
367 1 161.473 103.956 -4.05231e-17
368 1 21.0862 164.127 -4.05231e-17
369 2 81.5387 143.458 -4.05231e-17
370 1 6.5247 132.174 -4.05231e-17
371 2 71.4895 111.361 -4.05231e-17
372 1 87.7075 6.59125 -4.05231e-17
373 2 117.855 208.407 -4.05231e-17
374 2 177.091 101.751 -4.05231e-17
375 1 136.141 25.841 -4.05231e-17
376 1 121.895 147.28 -4.05231e-17
377 2 95.0303 76.1359 -4.05231e-17
378 2 215.66 106.818 -4.05231e-17
379 2 169.789 187.22 -4.05231e-17
380 1 199.777 33.6597 -4.05231e-17
381 1 175.08 67.4453 -4.05231e-17
382 1 122.469 27.3237 -4.05231e-17
383 1 110.393 83.354 -4.05231e-17
384 2 54.0273 100.93 -4.05231e-17
385 1 66.1396 148.684 -4.05231e-17
386 2 179.894 175.661 -4.05231e-17
387 1 34.6717 107.535 -4.05231e-17
388 1 143.958 164.057 -4.05231e-17
389 2 216.031 121.152 -4.05231e-17
390 1 104.918 66.2018 -4.05231e-17
391 1 203.295 217.287 -4.05231e-17
392 2 4.42391 100.351 -4.05231e-17
393 2 192.539 173.355 -4.05231e-17
394 1 36.5614 203.57 -4.05231e-17
395 1 19.4291 214.843 -4.05231e-17
396 2 75.3749 88.05 -4.05231e-17
397 1 67.302 41.9962 -4.05231e-17
398 2 165.739 111.182 -4.05231e-17
399 2 196.824 106.537 -4.05231e-17
400 2 123.608 69.214 -4.05231e-17
401 2 83.8854 190.811 -4.05231e-17
402 1 84.1053 42.8948 -4.05231e-17
403 1 69.613 116.47 -4.05231e-17
404 2 113.146 13.675 -4.05231e-17
405 1 49.5561 197.109 -4.05231e-17
406 2 217.019 95.8111 -4.05231e-17
407 1 123.696 78.6944 -4.05231e-17
408 1 130.185 29.556 -4.05231e-17
409 2 214.376 115.915 -4.05231e-17
410 2 70.9264 158.833 -4.05231e-17
411 1 136.467 96.7556 -4.05231e-17
412 1 164.671 6.59935 -4.05231e-17
413 1 34.9516 85.7929 -4.05231e-17
414 2 193.4 202.635 -4.05231e-17
415 1 107.667 126.562 -4.05231e-17
416 1 175.789 51.9801 -4.05231e-17
417 2 107.426 129.169 -4.05231e-17
418 2 34.87 179.753 -4.05231e-17
419 2 195.204 91.8599 -4.05231e-17
420 2 108.424 44.4308 -4.05231e-17
421 1 70.5116 30.892 -4.05231e-17
422 1 34.4667 58.42 -4.05231e-17
423 2 116.73 125.19 -4.05231e-17
424 2 38.9723 24.9261 -4.05231e-17
425 2 117.306 150.376 -4.05231e-17
426 1 185.732 96.9542 -4.05231e-17
427 2 74.8666 60.3241 -4.05231e-17
428 1 29.3326 175.113 -4.05231e-17
429 2 131.552 150.163 -4.05231e-17
430 2 111.526 104.329 -4.05231e-17
431 1 13.4235 9.17562 -4.05231e-17
432 2 173.847 3.21639 -4.05231e-17
433 1 186.746 198.787 -4.05231e-17
434 1 20.2359 205.014 -4.05231e-17
435 1 149.846 85.2134 -4.05231e-17
436 2 85.0584 198.817 -4.05231e-17
437 2 181.182 82.4642 -4.05231e-17
438 2 194.267 177.617 -4.05231e-17
439 2 92.7168 10.1488 -4.05231e-17
440 2 201.271 92.0867 -4.05231e-17
441 1 130.854 167.553 -4.05231e-17
442 1 38.0446 104.804 -4.05231e-17
443 2 79.1317 81.4559 -4.05231e-17
444 1 204.013 105.05 -4.05231e-17
445 1 169.093 133.476 -4.05231e-17
446 2 182.964 150.464 -4.05231e-17
447 2 40.124 40.2253 -4.05231e-17
448 2 205.928 175.958 -4.05231e-17
449 1 41.5321 176.981 -4.05231e-17
450 1 10.6213 126.344 -4.05231e-17
451 1 53.8765 209.294 -4.05231e-17
452 2 208.597 60.7924 -4.05231e-17
453 1 216.405 150.128 -4.05231e-17
454 1 3.09423 68.9298 -4.05231e-17
455 2 81.3297 131.229 -4.05231e-17
456 1 85.078 1.6579 -4.05231e-17
457 2 140.541 145.297 -4.05231e-17
458 2 155.605 136.063 -4.05231e-17
459 2 133.369 51.3765 -4.05231e-17
460 1 197.404 170.256 -4.05231e-17
461 1 112.11 128.374 -4.05231e-17
462 1 103.633 195.917 -4.05231e-17
463 2 110.403 218.564 -4.05231e-17
464 2 13.8726 77.915 -4.05231e-17
465 1 123.933 16.4098 -4.05231e-17
466 2 150.684 126.481 -4.05231e-17
467 2 66.0733 133.127 -4.05231e-17
468 2 124.131 125.527 -4.05231e-17
469 2 57.9947 71.3044 -4.05231e-17
470 2 208.782 154.446 -4.05231e-17
471 2 212.219 211.385 -4.05231e-17
472 2 111.211 36.6778 -4.05231e-17
473 2 198.135 214.712 -4.05231e-17
474 2 85.028 146.937 -4.05231e-17
475 1 163.881 183.182 -4.05231e-17
476 2 175.019 34.6512 -4.05231e-17
477 1 209.021 217.949 -4.05231e-17
478 1 46.3082 188.155 -4.05231e-17
479 2 0.81756 197.695 -4.05231e-17
480 1 82.7149 61.6864 -4.05231e-17
481 1 3.07893 209.347 -4.05231e-17
482 2 152.793 176.686 -4.05231e-17
483 1 134.422 209.324 -4.05231e-17
484 1 66.3072 135.934 -4.05231e-17
485 2 13.5202 173.933 -4.05231e-17
486 1 132.642 73.3259 -4.05231e-17
487 1 13.0794 202.141 -4.05231e-17
488 1 49.8397 83.5745 -4.05231e-17
489 1 70.3105 109.152 -4.05231e-17
490 1 164.831 73.546 -4.05231e-17
491 1 163.191 75.4531 -4.05231e-17
492 2 209.027 15.6746 -4.05231e-17
493 1 93.9711 203.227 -4.05231e-17
494 2 77.9384 66.2971 -4.05231e-17
495 1 150.387 92.2156 -4.05231e-17
496 1 52.0641 123.777 -4.05231e-17
497 1 136.832 110.019 -4.05231e-17
498 2 145.345 39.3084 -4.05231e-17
499 2 177.677 118.986 -4.05231e-17
500 2 57.2903 32.6285 -4.05231e-17
501 2 14.7591 139.508 -4.05231e-17
502 2 190.769 126.35 -4.05231e-17
503 2 57.7434 63.4232 -4.05231e-17
504 2 97.8587 50.1226 -4.05231e-17
505 2 112.154 213.789 -4.05231e-17
506 1 207.141 6.28064 -4.05231e-17
507 2 49.7492 181.931 -4.05231e-17
508 1 140.49 59.5197 -4.05231e-17
509 1 209.559 47.1404 -4.05231e-17
510 1 195.148 104.164 -4.05231e-17
511 2 108.34 179.486 -4.05231e-17
512 1 10.858 43.069 -4.05231e-17
513 2 87.6349 183.255 -4.05231e-17
514 2 15.6045 87.7242 -4.05231e-17
515 1 60.5318 98.3133 -4.05231e-17
516 2 101.095 74.0224 -4.05231e-17
517 1 32.4338 147.668 -4.05231e-17
518 2 10.5316 14.0032 -4.05231e-17
519 1 124.991 91.972 -4.05231e-17
520 2 209.561 93.6617 -4.05231e-17
521 2 129.894 39.849 -4.05231e-17
522 1 187.168 7.43306 -4.05231e-17
523 1 127.692 99.5765 -4.05231e-17
524 2 175.182 18.934 -4.05231e-17
525 2 185.148 45.186 -4.05231e-17
526 2 108.118 16.1832 -4.05231e-17
527 1 170.247 25.3537 -4.05231e-17
528 1 212.967 201.977 -4.05231e-17
529 2 104.591 176.225 -4.05231e-17
530 2 18.6615 88.3549 -4.05231e-17
531 2 184.705 171.875 -4.05231e-17
532 1 80.9191 4.9553 -4.05231e-17
533 2 23.5184 158.058 -4.05231e-17
534 1 22.8629 168.235 -4.05231e-17
535 1 170.059 207.125 -4.05231e-17
536 2 18.2586 169.7 -4.05231e-17
537 1 142.662 29.2952 -4.05231e-17
538 1 68.3928 157.725 -4.05231e-17
539 2 80.9025 163.354 -4.05231e-17
540 1 35.2718 182.338 -4.05231e-17
541 1 104.9 128.844 -4.05231e-17
542 1 58.7454 126.346 -4.05231e-17
543 2 120.409 168.439 -4.05231e-17
544 1 217.815 211.507 -4.05231e-17
545 1 174.739 71.9972 -4.05231e-17
546 2 186.892 10.085 -4.05231e-17
547 1 12.7343 71.1145 -4.05231e-17
548 1 29.4625 5.753 -4.05231e-17
549 2 35.3105 152.417 -4.05231e-17
550 2 165.147 193.523 -4.05231e-17
551 2 38.6143 7.26846 -4.05231e-17
552 1 31.5243 51.6815 -4.05231e-17
553 2 207.326 196.716 -4.05231e-17
554 2 144.206 34.4947 -4.05231e-17
555 2 177.966 134.602 -4.05231e-17
556 1 177.671 211.774 -4.05231e-17
557 1 211.081 54.199 -4.05231e-17
558 1 60.3518 142.7 -4.05231e-17
559 2 106.32 91.4777 -4.05231e-17
560 2 57.2434 89.3853 -4.05231e-17
561 2 110.689 181.484 -4.05231e-17
562 2 98.0093 64.2949 -4.05231e-17
563 1 73.4825 167.993 -4.05231e-17
564 2 103.336 78.5535 -4.05231e-17
565 2 33.2636 65.0883 -4.05231e-17
566 2 64.4577 60.3059 -4.05231e-17
567 1 94.8741 11.6149 -4.05231e-17
568 1 22.5025 78.2227 -4.05231e-17
569 2 141.56 194.539 -4.05231e-17
570 2 11.8522 21.2384 -4.05231e-17
571 2 5.13326 61.9977 -4.05231e-17
572 1 115.336 107.835 -4.05231e-17
573 2 38.1347 89.9424 -4.05231e-17
574 2 178.728 170.932 -4.05231e-17
575 1 196.173 206.94 -4.05231e-17
576 1 25.7572 68.3949 -4.05231e-17
577 1 127.438 74.9007 -4.05231e-17
578 1 183.667 115.222 -4.05231e-17
579 2 182.354 46.9725 -4.05231e-17
580 1 108.855 103.708 -4.05231e-17
581 1 91.6554 146.569 -4.05231e-17
582 2 125.641 101.097 -4.05231e-17
583 2 103.377 83.8599 -4.05231e-17
584 2 107.225 151.504 -4.05231e-17
585 1 182.002 103.232 -4.05231e-17
586 1 144.017 79.9565 -4.05231e-17
587 1 158.151 111.807 -4.05231e-17
588 2 64.4611 108.462 -4.05231e-17
589 1 210.999 59.4339 -4.05231e-17
590 2 182.049 57.9421 -4.05231e-17
591 2 178.943 16.4488 -4.05231e-17
592 1 204.056 128.361 -4.05231e-17
593 1 127.064 90.1189 -4.05231e-17
594 1 5.22076 70.3625 -4.05231e-17
595 1 32.6135 62.247 -4.05231e-17
596 2 106.863 71.1577 -4.05231e-17
597 2 63.4759 105.471 -4.05231e-17
598 2 135.807 87.8465 -4.05231e-17
599 2 96.7779 166.134 -4.05231e-17
600 2 49.3355 98.8161 -4.05231e-17
601 1 145.891 107.498 -4.05231e-17
602 1 173.48 52.086 -4.05231e-17
603 2 216.499 159.745 -4.05231e-17
604 1 46.2552 178.95 -4.05231e-17
605 2 140.196 100.387 -4.05231e-17
606 2 150.409 99.3104 -4.05231e-17
607 2 47.6845 169.147 -4.05231e-17
608 2 128.373 31.4482 -4.05231e-17
609 1 77.7336 88.9915 -4.05231e-17
610 2 105.908 200.121 -4.05231e-17
611 1 1.29685 165.542 -4.05231e-17
612 1 207.301 117.612 -4.05231e-17
613 2 213.523 156.45 -4.05231e-17
614 1 202.606 30.4 -4.05231e-17
615 1 152.637 104.189 -4.05231e-17
616 2 146.286 178.061 -4.05231e-17
617 1 168.693 1.14649 -4.05231e-17
618 1 137.163 216.549 -4.05231e-17
619 1 164.327 161.161 -4.05231e-17
620 2 42.7956 89.0831 -4.05231e-17
621 2 203.583 77.0877 -4.05231e-17
622 2 144.843 154.723 -4.05231e-17
623 2 108.795 147.252 -4.05231e-17
624 1 107.052 177.156 -4.05231e-17
625 2 208.532 79.8066 -4.05231e-17
626 1 210.737 190.159 -4.05231e-17
627 2 195.32 193.13 -4.05231e-17
628 1 116.739 156.12 -4.05231e-17
629 1 30.3468 41.3124 -4.05231e-17
630 2 133.407 214.188 -4.05231e-17
631 2 144.703 115.188 -4.05231e-17
632 2 209.217 20.1265 -4.05231e-17
633 2 60.9178 131.377 -4.05231e-17
634 2 191.31 67.736 -4.05231e-17
635 2 80.1024 72.4516 -4.05231e-17
636 1 88.2304 130.599 -4.05231e-17
637 1 217.03 152.768 -4.05231e-17
638 1 116.662 69.3086 -4.05231e-17
639 2 200.707 65.4773 -4.05231e-17
640 2 149.309 78.0698 -4.05231e-17
641 1 200.048 96.3165 -4.05231e-17
642 2 161.609 35.5911 -4.05231e-17
643 1 165.271 57.8646 -4.05231e-17
644 2 139.369 155.192 -4.05231e-17
645 2 5.52273 75.5988 -4.05231e-17
646 1 169.596 142.506 -4.05231e-17
647 2 129.165 148.255 -4.05231e-17
648 2 190.412 211.498 -4.05231e-17
649 1 63.7761 145.37 -4.05231e-17
650 1 56.6492 153.137 -4.05231e-17
651 1 112.37 130.831 -4.05231e-17
652 2 8.5218 214.198 -4.05231e-17
653 2 195.612 45.0686 -4.05231e-17
654 1 208.248 164.699 -4.05231e-17
655 1 63.2532 47.5542 -4.05231e-17
656 1 199.383 10.2224 -4.05231e-17
657 1 125.493 120.451 -4.05231e-17
658 2 165.842 105.392 -4.05231e-17
659 2 101.583 137.526 -4.05231e-17
660 1 25.0411 12.0159 -4.05231e-17
661 2 15.3987 36.7141 -4.05231e-17
662 2 135.982 117.045 -4.05231e-17
663 1 163.575 113.005 -4.05231e-17
664 1 79.9928 138.203 -4.05231e-17
665 1 135.589 144.169 -4.05231e-17
666 1 202.781 185.269 -4.05231e-17
667 1 0.468268 116.82 -4.05231e-17
668 1 134.174 156.856 -4.05231e-17
669 1 107.425 160.761 -4.05231e-17
670 2 211.988 160.911 -4.05231e-17
671 1 3.87764 16.4661 -4.05231e-17
672 1 193.579 141.336 -4.05231e-17
673 2 47.271 84.6256 -4.05231e-17
674 2 182.345 205.192 -4.05231e-17
675 2 152.609 2.42429 -4.05231e-17
676 1 180.413 159.834 -4.05231e-17
677 2 53.3221 53.295 -4.05231e-17
678 1 86.608 113.605 -4.05231e-17
679 1 86.5773 64.8749 -4.05231e-17
680 2 71.2298 13.4669 -4.05231e-17
681 1 5.36661 9.37255 -4.05231e-17
682 1 141.387 171.726 -4.05231e-17
683 2 96.2419 123.369 -4.05231e-17
684 1 23.2869 180.125 -4.05231e-17
685 1 83.8717 206.503 -4.05231e-17
686 1 142.888 159.686 -4.05231e-17
687 1 107.343 53.203 -4.05231e-17
688 1 152.195 97.1773 -4.05231e-17
689 2 10.3648 139.529 -4.05231e-17
690 1 48.3585 120.68 -4.05231e-17
691 2 64.6302 115.045 -4.05231e-17
692 2 180.791 179.336 -4.05231e-17
693 1 161.795 96.1689 -4.05231e-17
694 2 146.911 149.962 -4.05231e-17
695 2 188.746 36.8583 -4.05231e-17
696 2 31.5528 82.2145 -4.05231e-17
697 1 104.371 35.6347 -4.05231e-17
698 2 41.2155 18.771 -4.05231e-17
699 1 57.1138 202.726 -4.05231e-17
700 2 17.6816 126.391 -4.05231e-17
701 2 30.5236 63.6983 -4.05231e-17
702 1 161.049 10.0679 -4.05231e-17
703 1 196.149 60.5627 -4.05231e-17
704 1 159.82 121.92 -4.05231e-17
705 1 43.4166 120.515 -4.05231e-17
706 1 75.6364 161.527 -4.05231e-17
707 1 182.007 66.2945 -4.05231e-17
708 2 195.441 101.312 -4.05231e-17
709 1 54.4956 160.197 -4.05231e-17
710 2 91.7814 16.129 -4.05231e-17
711 2 1.41692 139.126 -4.05231e-17
712 1 84.0629 213.891 -4.05231e-17
713 1 4.94308 152.371 -4.05231e-17
714 2 145.081 147.449 -4.05231e-17
715 2 133.027 86.7705 -4.05231e-17
716 1 88.9526 59.6379 -4.05231e-17
717 1 14.8683 61.3146 -4.05231e-17
718 2 78.5746 99.5911 -4.05231e-17
719 1 68.819 202.872 -4.05231e-17
720 2 52.0458 197.257 -4.05231e-17
721 2 43.878 213.011 -4.05231e-17
722 2 65.4321 138.31 -4.05231e-17
723 2 15.5806 165.58 -4.05231e-17
724 2 202.099 107.19 -4.05231e-17
725 2 21.665 50.2398 -4.05231e-17
726 2 178.075 123.849 -4.05231e-17
727 2 35.3263 110.029 -4.05231e-17
728 1 176.432 76.8182 -4.05231e-17
729 2 167.361 131.639 -4.05231e-17
730 2 175.384 94.3975 -4.05231e-17
731 1 10.2265 23.3241 -4.05231e-17
732 2 97.928 87.2663 -4.05231e-17
733 2 147.984 146.821 -4.05231e-17
734 2 59.2948 191.692 -4.05231e-17
735 2 149.092 71.7333 -4.05231e-17
736 1 182.274 177.01 -4.05231e-17
737 2 48.6845 39.7871 -4.05231e-17
738 2 71.5012 207.933 -4.05231e-17
739 2 185.807 131.076 -4.05231e-17
740 2 40.544 115.751 -4.05231e-17
741 2 200.851 113.799 -4.05231e-17
742 1 71.7974 98.6786 -4.05231e-17
743 2 78.941 75.664 -4.05231e-17
744 1 146.686 50.2596 -4.05231e-17
745 2 15.8074 75.5874 -4.05231e-17
746 1 218.858 121.345 -4.05231e-17
747 1 98.106 163.44 -4.05231e-17
748 2 69.8723 197.882 -4.05231e-17
749 1 213.497 166.158 -4.05231e-17
750 1 139.589 148.072 -4.05231e-17
751 1 142.959 89.0246 -4.05231e-17
752 2 195.321 168.406 -4.05231e-17
753 1 37.274 180.439 -4.05231e-17
754 2 65.7736 80.9269 -4.05231e-17
755 1 6.52687 80.6371 -4.05231e-17
756 2 179.001 58.1321 -4.05231e-17
757 1 110.84 15.3078 -4.05231e-17
758 2 99.3052 28.0633 -4.05231e-17
759 1 96.3263 133.583 -4.05231e-17
760 1 171.088 61.752 -4.05231e-17
761 2 213.31 100.832 -4.05231e-17
762 1 178.392 105.882 -4.05231e-17
763 2 6.17217 157.511 -4.05231e-17
764 2 43.4133 188.064 -4.05231e-17
765 1 21.9063 160.097 -4.05231e-17
766 2 99.9067 47.931 -4.05231e-17
767 2 206.263 148.817 -4.05231e-17
768 2 72.0991 62.2381 -4.05231e-17
769 2 188.09 98.3252 -4.05231e-17
770 1 134.203 18.5237 -4.05231e-17
771 1 64.7734 63.1647 -4.05231e-17
772 1 129.144 0.820791 -4.05231e-17
773 2 167.142 172.295 -4.05231e-17
774 1 87.8568 86.826 -4.05231e-17
775 1 102.669 75.992 -4.05231e-17
776 2 192.714 103.184 -4.05231e-17
777 2 42.319 79.7414 -4.05231e-17
778 1 83.3332 12.9103 -4.05231e-17
779 1 47.9649 61.5873 -4.05231e-17
780 2 83.4364 49.6651 -4.05231e-17
781 1 26.154 171.706 -4.05231e-17
782 2 123.094 170.077 -4.05231e-17
783 1 74.4582 62.9592 -4.05231e-17
784 2 96.6904 110.639 -4.05231e-17
785 1 204.541 82.5492 -4.05231e-17
786 1 41.4026 7.05632 -4.05231e-17
787 2 37.8842 208.59 -4.05231e-17
788 2 164.714 180.695 -4.05231e-17
789 2 18.2967 147.265 -4.05231e-17
790 2 77.0383 8.01605 -4.05231e-17
791 2 186.598 53.5874 -4.05231e-17
792 1 212.992 132.375 -4.05231e-17
793 1 96.9611 171.905 -4.05231e-17
794 2 209.604 6.74898 -4.05231e-17
795 2 10.5015 191.666 -4.05231e-17
796 1 69.1904 215.106 -4.05231e-17
797 1 46.2158 32.8807 -4.05231e-17
798 1 213.356 55.9108 -4.05231e-17
799 2 105.739 155.852 -4.05231e-17
800 1 56.5228 37.041 -4.05231e-17
801 2 68.2015 84.5285 -4.05231e-17
802 1 91.0156 216.216 -4.05231e-17
803 1 143.243 24.9808 -4.05231e-17
804 1 210.014 124.713 -4.05231e-17
805 2 183.606 117.758 -4.05231e-17
806 2 178.566 158.089 -4.05231e-17
807 2 208.821 29.2248 -4.05231e-17
808 2 76.2375 144.543 -4.05231e-17
809 1 176.035 62.893 -4.05231e-17
810 2 23.9572 173.368 -4.05231e-17
811 2 180.465 55.4278 -4.05231e-17
812 1 121.807 184.821 -4.05231e-17
813 1 22.1407 95.9892 -4.05231e-17
814 1 3.06848 204.883 -4.05231e-17
815 1 145.9 32.3384 -4.05231e-17
816 1 206.848 50.9382 -4.05231e-17
817 2 62.9913 71.0071 -4.05231e-17
818 2 29.4985 123.03 -4.05231e-17
819 2 210.595 67.8636 -4.05231e-17
820 1 9.50341 59.1829 -4.05231e-17
821 1 65.2994 57.7991 -4.05231e-17
822 2 131.269 34.4672 -4.05231e-17
823 1 183.89 90.3557 -4.05231e-17
824 1 175.881 89.8799 -4.05231e-17
825 1 160.499 191.292 -4.05231e-17
826 2 178.497 81.7621 -4.05231e-17
827 2 102.261 26.9564 -4.05231e-17
828 1 50.4223 91.1316 -4.05231e-17
829 2 127.593 92.5857 -4.05231e-17
830 1 3.58231 156.783 -4.05231e-17
831 2 183.304 218.05 -4.05231e-17
832 2 26.5136 52.2125 -4.05231e-17
833 2 96.5231 41.8754 -4.05231e-17
834 1 71.1528 164.113 -4.05231e-17
835 1 184.824 141.396 -4.05231e-17
836 1 153.231 69.6134 -4.05231e-17
837 2 168.381 92.1618 -4.05231e-17
838 2 91.8576 26.378 -4.05231e-17
839 1 39.1906 32.1926 -4.05231e-17
840 2 13.8614 117.422 -4.05231e-17
841 2 201.82 10.3621 -4.05231e-17
842 1 174.137 157.163 -4.05231e-17
843 1 205.111 29.7138 -4.05231e-17
844 2 8.75886 25.4451 -4.05231e-17
845 1 47.3216 150.816 -4.05231e-17
846 2 127.793 211.363 -4.05231e-17
847 1 88.4483 143.06 -4.05231e-17
848 2 113.116 8.90484 -4.05231e-17
849 1 24.7472 33.2167 -4.05231e-17
850 2 60.0049 67 -4.05231e-17
851 2 216.449 30.6862 -4.05231e-17
852 1 137.565 182.947 -4.05231e-17
853 1 186.212 104.902 -4.05231e-17
854 2 104.401 144.919 -4.05231e-17
855 2 165.696 121.085 -4.05231e-17
856 1 77.5415 160.025 -4.05231e-17
857 2 78.7731 119.71 -4.05231e-17