ITEM: TIMESTEP
0
ITEM: NUMBER OF ATOMS
7200
ITEM: BOX BOUNDS xy xz yz pp pp pp
0.0000000000000000e+00 2.1900000000000000e+02 0.0000000000000000e+00
0.0000000000000000e+00 2.1900000000000000e+02 0.0000000000000000e+00
-3.6499999999999999e-01 3.6499999999999999e-01 0.0000000000000000e+00
ITEM: ATOMS id type x y z
1 1 182.599 13.2866 -4.05231e-17
2 2 188.182 183.818 -4.05231e-17
3 2 144.704 189.19 -4.05231e-17
4 1 122.926 110.009 -4.05231e-17
5 1 101.218 122.393 -4.05231e-17
6 1 104.398 25.3219 -4.05231e-17
7 2 158.721 128.849 -4.05231e-17
8 2 69.7803 25.5914 -4.05231e-17
9 1 21.9418 214.902 -4.05231e-17
10 2 52.2247 166.656 -4.05231e-17
11 2 210.387 100.198 -4.05231e-17
12 1 33.9152 197.862 -4.05231e-17
13 2 194.381 53.9135 -4.05231e-17
14 1 57.5143 184.416 -4.05231e-17
15 2 193.226 218.985 -4.05231e-17
16 2 218.445 85.5609 -4.05231e-17
17 1 67.8774 74.5965 -4.05231e-17
18 2 10.3064 172.78 -4.05231e-17
19 1 93.0105 129.857 -4.05231e-17
20 1 72.4382 10.7609 -4.05231e-17
21 1 156.145 7.27645 -4.05231e-17
22 2 31.7208 212.534 -4.05231e-17
23 2 43.3314 208.159 -4.05231e-17
24 2 218.614 102.918 -4.05231e-17
25 2 29.9862 207.408 -4.05231e-17
26 2 149.143 28.1297 -4.05231e-17
27 1 217.432 162.571 -4.05231e-17
28 2 54.0016 154.907 -4.05231e-17
29 2 83.8061 3.82349 -4.05231e-17
30 2 132.22 37.5879 -4.05231e-17
31 2 156.866 84.0581 -4.05231e-17
32 1 47.9331 108.83 -4.05231e-17
33 2 145.316 87.6488 -4.05231e-17
34 2 16.1014 95.9832 -4.05231e-17
35 2 126.978 11.3402 -4.05231e-17
36 1 160.348 146.312 -4.05231e-17
37 1 133.453 185.069 -4.05231e-17
38 2 209.033 158.16 -4.05231e-17
39 1 8.12367 38.2505 -4.05231e-17
40 2 196.709 73.907 -4.05231e-17
41 1 192.928 73.3614 -4.05231e-17
42 1 55.0887 58.6329 -4.05231e-17
43 1 210.567 132.491 -4.05231e-17
44 1 155.372 188.62 -4.05231e-17
45 2 159.289 61.1955 -4.05231e-17
46 1 124.486 192.472 -4.05231e-17
47 2 89.3676 80.6126 -4.05231e-17
48 2 150.838 129.718 -4.05231e-17
49 1 194.161 200.105 -4.05231e-17
50 2 29.4305 47.2516 -4.05231e-17
51 1 186.3 3.19607 -4.05231e-17
52 1 115.241 48.1023 -4.05231e-17
53 2 55.1421 200.691 -4.05231e-17
54 1 38.5634 16.7831 -4.05231e-17
55 2 53.5135 141.447 -4.05231e-17
56 1 31.2303 132.49 -4.05231e-17
57 2 58.506 133.692 -4.05231e-17
58 1 183.701 33.5835 -4.05231e-17
59 1 158.046 86.3331 -4.05231e-17
60 2 206.217 59.5686 -4.05231e-17
61 1 157.311 164.325 -4.05231e-17
62 1 106.874 111.446 -4.05231e-17
63 2 108.684 38.883 -4.05231e-17
64 1 28.1103 17.6803 -4.05231e-17
65 2 152.276 149.043 -4.05231e-17
66 2 13.0584 154.92 -4.05231e-17
67 2 183.176 107.908 -4.05231e-17
68 1 136.901 83.0462 -4.05231e-17
69 2 109.766 168.946 -4.05231e-17
70 1 142.159 98.0206 -4.05231e-17
71 1 198.101 147.833 -4.05231e-17
72 2 44.8015 157.365 -4.05231e-17
73 2 191.859 179.842 -4.05231e-17
74 2 111.498 66.8278 -4.05231e-17
75 1 14.5947 136.713 -4.05231e-17
76 2 138.169 206.509 -4.05231e-17
77 2 168.406 15.8969 -4.05231e-17
78 1 93.3628 208.104 -4.05231e-17
79 2 60.8361 76.1053 -4.05231e-17
80 1 50.0526 22.3315 -4.05231e-17
81 1 181.774 211.241 -4.05231e-17
82 1 173.216 41.5357 -4.05231e-17
83 1 71.1933 91.3466 -4.05231e-17
84 2 140.776 179.353 -4.05231e-17
85 2 151.13 145.987 -4.05231e-17
86 2 51.1756 68.0683 -4.05231e-17
87 2 38.5929 75.6298 -4.05231e-17
88 1 80.6422 157.448 -4.05231e-17
89 2 199.958 105.843 -4.05231e-17
90 2 126.465 36.2494 -4.05231e-17
91 2 11.4915 182.568 -4.05231e-17
92 1 27.6691 215.374 -4.05231e-17
93 2 110.155 154.724 -4.05231e-17
94 2 112.808 144.385 -4.05231e-17
95 1 211.214 51.6564 -4.05231e-17
96 2 32.2663 54.4654 -4.05231e-17
97 2 4.43678 211.65 -4.05231e-17
98 2 35.7452 185.568 -4.05231e-17
99 1 105.504 9.83442 -4.05231e-17
100 2 158.933 65.7396 -4.05231e-17
101 1 184.467 110.324 -4.05231e-17
102 1 66.318 164.24 -4.05231e-17
103 2 205.095 100.44 -4.05231e-17
104 2 104.263 73.0845 -4.05231e-17
105 1 160.847 59.1977 -4.05231e-17
106 1 185.449 60.6636 -4.05231e-17
107 1 12.1938 106.602 -4.05231e-17
108 1 69.863 209.902 -4.05231e-17
109 2 217.349 39.4514 -4.05231e-17
110 2 144.717 29.7333 -4.05231e-17
111 1 53.1071 92.4262 -4.05231e-17
112 2 8.66029 50.6625 -4.05231e-17
113 1 134.869 10.742 -4.05231e-17
114 1 92.5674 87.0035 -4.05231e-17
115 2 32.6592 59.835 -4.05231e-17
116 2 183.8 15.5698 -4.05231e-17
117 1 163.234 110.827 -4.05231e-17
118 1 82.7775 94.7019 -4.05231e-17
119 2 99.2126 139.246 -4.05231e-17
120 2 201.174 58.6157 -4.05231e-17
121 1 205.198 139.284 -4.05231e-17
122 2 143.275 129.872 -4.05231e-17
123 2 6.58225 129.654 -4.05231e-17
124 1 161.522 200.299 -4.05231e-17
125 1 88.2896 192.951 -4.05231e-17
126 2 97.794 83.9427 -4.05231e-17
127 2 209.043 110.829 -4.05231e-17
128 1 121.751 104.987 -4.05231e-17
129 1 144.167 194.416 -4.05231e-17
130 2 120.021 61.209 -4.05231e-17
131 1 133.879 60.2329 -4.05231e-17
132 1 139.34 21.991 -4.05231e-17
133 1 181.238 105.852 -4.05231e-17
134 1 81.3943 191.466 -4.05231e-17
135 2 177.935 61.2106 -4.05231e-17
136 1 190.855 119.061 -4.05231e-17
137 1 60.4782 7.31953 -4.05231e-17
138 2 156.249 158.884 -4.05231e-17
139 1 132.617 11.7876 -4.05231e-17
140 1 144.977 208.221 -4.05231e-17
141 1 51.0902 70.7171 -4.05231e-17
142 1 213.014 190.988 -4.05231e-17
143 1 26.2767 26.272 -4.05231e-17
144 1 46.5272 97.7387 -4.05231e-17
145 2 193.367 80.1569 -4.05231e-17
146 1 153.517 125.873 -4.05231e-17
147 2 16.1877 134.437 -4.05231e-17
148 1 24.2303 133.079 -4.05231e-17
149 1 147.558 190.136 -4.05231e-17
150 2 66.0609 52.2339 -4.05231e-17
151 1 132.311 138.342 -4.05231e-17
152 1 164.058 163.423 -4.05231e-17
153 2 123.777 130.322 -4.05231e-17
154 1 184.093 52.9636 -4.05231e-17
155 2 203.389 40.1214 -4.05231e-17
156 2 109.611 197.065 -4.05231e-17
157 2 166.013 29.1959 -4.05231e-17
158 2 27.6624 7.56957 -4.05231e-17
159 2 12.011 158.967 -4.05231e-17
160 2 120.676 54.779 -4.05231e-17
161 2 129.738 138.831 -4.05231e-17
162 1 23.8789 66.5088 -4.05231e-17
163 1 188.584 34.0796 -4.05231e-17
164 2 108.133 134.507 -4.05231e-17
165 1 48.8557 72.3697 -4.05231e-17
166 2 6.06706 199.858 -4.05231e-17
167 1 107.178 168.394 -4.05231e-17
168 1 211.334 102.917 -4.05231e-17
169 2 98.2186 199.468 -4.05231e-17
170 1 66.1766 206.175 -4.05231e-17
171 1 137.658 92.4835 -4.05231e-17
172 1 199.447 199.99 -4.05231e-17
173 1 39.1289 204.205 -4.05231e-17
174 2 38.5145 173.314 -4.05231e-17
175 2 50.105 199.642 -4.05231e-17
176 1 119.944 151.537 -4.05231e-17
177 2 105.082 15.6019 -4.05231e-17
178 1 25.0522 7.36313 -4.05231e-17
179 2 106.437 197.457 -4.05231e-17
180 1 47.246 76.6498 -4.05231e-17
181 1 16.2084 119.114 -4.05231e-17
182 1 113.899 86.868 -4.05231e-17
183 1 63.9427 168.298 -4.05231e-17
184 2 157.425 25.9343 -4.05231e-17
185 2 190.209 78.9755 -4.05231e-17
186 2 74.4033 205.998 -4.05231e-17
187 2 159.247 201.852 -4.05231e-17
188 2 60.3756 28.253 -4.05231e-17
189 1 191.224 57.7088 -4.05231e-17
190 1 196.522 55.5396 -4.05231e-17
191 2 35.5276 104.527 -4.05231e-17
192 2 89.142 60.0819 -4.05231e-17
193 1 108.579 166.16 -4.05231e-17
194 1 26.603 5.35314 -4.05231e-17
195 2 58.0232 119.78 -4.05231e-17
196 1 218.973 218.887 -4.05231e-17
197 2 119.017 50.331 -4.05231e-17
198 2 206.199 27.2974 -4.05231e-17
199 2 99.7588 170.739 -4.05231e-17
200 2 98.4452 30.8733 -4.05231e-17
201 2 103.33 120.841 -4.05231e-17
202 1 44.038 34.1153 -4.05231e-17
203 1 18.3976 43.1863 -4.05231e-17
204 2 44.899 78.4383 -4.05231e-17
205 2 183.025 182.338 -4.05231e-17
206 2 170.871 127.226 -4.05231e-17
207 1 74.7079 188.941 -4.05231e-17
208 2 135.011 54.6823 -4.05231e-17
209 2 33.1036 142.409 -4.05231e-17
210 1 182.486 113.491 -4.05231e-17
211 1 208.21 35.5364 -4.05231e-17
212 1 208.438 85.369 -4.05231e-17
213 1 127.984 123.663 -4.05231e-17
214 2 11.9892 11.2013 -4.05231e-17
215 1 5.709 142.698 -4.05231e-17
216 1 55.153 46.456 -4.05231e-17
217 1 164.415 61.9392 -4.05231e-17
218 2 201.229 121.471 -4.05231e-17
219 2 136.372 189.548 -4.05231e-17
220 1 121.17 1.53175 -4.05231e-17
221 2 83.0295 6.73454 -4.05231e-17
222 1 158.264 157.185 -4.05231e-17
223 1 45.7629 120.453 -4.05231e-17
224 2 146.09 71.1052 -4.05231e-17
225 2 168.956 163.849 -4.05231e-17
226 1 196.259 10.3585 -4.05231e-17
227 2 203.385 215.055 -4.05231e-17
228 2 117.846 63.2482 -4.05231e-17
229 1 47.5769 22.1935 -4.05231e-17
230 1 4.77242 56.6726 -4.05231e-17
231 2 137.643 160.697 -4.05231e-17
232 1 18.2662 212.468 -4.05231e-17
233 2 75.9627 195.607 -4.05231e-17
234 1 0.577772 59.795 -4.05231e-17
235 1 150.664 106.216 -4.05231e-17
236 2 152.877 53.2781 -4.05231e-17
237 2 99.4247 204.122 -4.05231e-17
238 2 94.8554 140.267 -4.05231e-17
239 1 35.5117 217.011 -4.05231e-17
240 1 129.832 90.7213 -4.05231e-17
241 2 3.43876 124.664 -4.05231e-17
242 1 193.91 28.5426 -4.05231e-17
243 2 214.967 130.634 -4.05231e-17
244 2 35.8581 190.938 -4.05231e-17
245 1 173.838 21.3673 -4.05231e-17
246 2 90.2055 85.6718 -4.05231e-17
247 2 198.871 150.656 -4.05231e-17
248 1 37.9946 26.8812 -4.05231e-17
249 1 131.856 108.298 -4.05231e-17
250 1 134.435 27.9726 -4.05231e-17
251 2 101.873 43.4815 -4.05231e-17
252 1 110.812 157.2 -4.05231e-17
253 2 95.8961 97.4675 -4.05231e-17
254 2 179.095 205.225 -4.05231e-17
255 2 122.43 50.2385 -4.05231e-17
256 1 3.09061 180.314 -4.05231e-17
257 2 32.6857 195.229 -4.05231e-17
258 1 210.948 81.3449 -4.05231e-17
259 2 160.84 141.225 -4.05231e-17
260 1 40.4338 192.76 -4.05231e-17
261 2 142.642 176.781 -4.05231e-17
262 2 187.051 110.806 -4.05231e-17
263 2 94.2024 172.959 -4.05231e-17
264 1 199.22 36.3717 -4.05231e-17
265 1 157.518 187.219 -4.05231e-17
266 1 98.825 196.747 -4.05231e-17
267 2 115.491 16.5817 -4.05231e-17
268 1 218.52 48.6259 -4.05231e-17
269 2 10.2525 113.259 -4.05231e-17
270 2 185.273 148.815 -4.05231e-17
271 2 187.748 95.2181 -4.05231e-17
272 1 59.0623 25.9609 -4.05231e-17
273 1 70.7025 83.491 -4.05231e-17
274 1 38.0879 196.581 -4.05231e-17
275 1 147.061 110.027 -4.05231e-17
276 1 199.204 74.9742 -4.05231e-17
277 1 100.094 37.6311 -4.05231e-17
278 2 60.947 145.625 -4.05231e-17
279 2 160.602 86.4804 -4.05231e-17
280 1 117.011 210.788 -4.05231e-17
281 2 169.928 182.506 -4.05231e-17
282 2 75.3279 127.032 -4.05231e-17
283 2 218.86 151.118 -4.05231e-17
284 1 126.032 113.416 -4.05231e-17
285 1 73.0697 165.325 -4.05231e-17
286 2 30.2269 180.197 -4.05231e-17
287 2 93.7129 110.011 -4.05231e-17
288 1 104.227 123.297 -4.05231e-17
289 2 193.883 56.908 -4.05231e-17
290 1 101.027 29.7651 -4.05231e-17
291 2 96.263 186.22 -4.05231e-17
292 1 77.2156 125.267 -4.05231e-17
293 1 159.207 168.108 -4.05231e-17
294 1 29.7529 177.675 -4.05231e-17
295 2 46.5723 145.638 -4.05231e-17
296 1 196.938 176.882 -4.05231e-17
297 1 2.25295 18.2466 -4.05231e-17
298 2 30.4123 140.856 -4.05231e-17
299 1 177.558 55.7683 -4.05231e-17
300 2 189.928 193.095 -4.05231e-17
301 2 171.981 19.5106 -4.05231e-17
302 2 164.134 89.2124 -4.05231e-17
303 1 2.31857 151.872 -4.05231e-17
304 1 124.231 105.831 -4.05231e-17
305 1 91.9263 177.892 -4.05231e-17
306 2 83.5666 17.3689 -4.05231e-17
307 2 150.705 167.639 -4.05231e-17
308 2 141.92 22.6041 -4.05231e-17
309 1 70.7845 72.1323 -4.05231e-17
310 1 190.418 190.381 -4.05231e-17
311 1 151.312 108.739 -4.05231e-17
312 2 134.67 13.5701 -4.05231e-17
313 2 154.726 18.1047 -4.05231e-17
314 1 184.509 58.5142 -4.05231e-17
315 2 56.5378 107.642 -4.05231e-17
316 1 95.5435 30.7866 -4.05231e-17
317 1 132.889 175.782 -4.05231e-17
318 1 216.657 135.98 -4.05231e-17
319 2 74.2676 200.781 -4.05231e-17
320 1 213.954 47.9387 -4.05231e-17
321 1 52.5313 87.2828 -4.05231e-17
322 1 51.1302 148.312 -4.05231e-17
323 2 19.6406 138.542 -4.05231e-17
324 2 8.07961 95.3474 -4.05231e-17
325 2 216.129 13.689 -4.05231e-17
326 1 184.798 1.12361 -4.05231e-17
327 1 35.8745 46.1331 -4.05231e-17
328 2 32.8661 192.205 -4.05231e-17
329 2 28.4435 83.242 -4.05231e-17
330 2 153.243 39.1322 -4.05231e-17
331 2 188.029 67.8435 -4.05231e-17
332 2 121.388 114.59 -4.05231e-17
333 2 27.8478 151.278 -4.05231e-17
334 2 215.841 17.9936 -4.05231e-17
335 1 167.224 211.415 -4.05231e-17
336 2 27.7584 141.741 -4.05231e-17
337 2 40.2818 9.80042 -4.05231e-17
338 1 203.527 90.6821 -4.05231e-17
339 2 14.8512 152.421 -4.05231e-17
340 2 176.724 214.332 -4.05231e-17
341 2 101.074 60.3041 -4.05231e-17
342 2 173.452 166.679 -4.05231e-17
343 2 176.003 5.0877 -4.05231e-17
344 1 88.1876 105.651 -4.05231e-17
345 2 26.5464 212.887 -4.05231e-17
346 2 75.5376 73.1175 -4.05231e-17
347 1 147.912 98.5838 -4.05231e-17
348 1 181.332 4.04193 -4.05231e-17
349 2 173.528 70.1194 -4.05231e-17
350 2 77.9024 178.888 -4.05231e-17
351 1 174.996 141.632 -4.05231e-17
352 1 212.913 163.89 -4.05231e-17
353 2 140.855 131.867 -4.05231e-17
354 2 191.767 176.4 -4.05231e-17
355 1 215.819 157.278 -4.05231e-17
356 2 114.906 1.56965 -4.05231e-17
357 1 127.038 192.44 -4.05231e-17
358 1 77.8769 25.1569 -4.05231e-17
359 1 34.8841 144.429 -4.05231e-17
360 1 51.3363 7.85727 -4.05231e-17
361 2 196.647 68.7334 -4.05231e-17
362 2 172.452 94.78 -4.05231e-17
363 1 78.9907 214.903 -4.05231e-17
364 2 216.837 46.6691 -4.05231e-17
365 1 5.79627 164.635 -4.05231e-17
366 1 82.5695 172.994 -4.05231e-17
367 1 161.423 104.129 -4.05231e-17
368 1 20.8425 164.572 -4.05231e-17
369 2 81.7181 143.579 -4.05231e-17
370 1 6.64446 132.449 -4.05231e-17
371 2 71.3873 111.646 -4.05231e-17
372 1 88.036 6.37421 -4.05231e-17
373 2 118.154 208.487 -4.05231e-17
374 2 177.144 101.775 -4.05231e-17
375 1 136.11 26.0425 -4.05231e-17
376 1 121.662 146.994 -4.05231e-17
377 2 95.4868 75.8673 -4.05231e-17
378 2 215.645 106.939 -4.05231e-17
379 2 169.584 187.428 -4.05231e-17
380 1 199.647 33.934 -4.05231e-17
381 1 175.483 67.7215 -4.05231e-17
382 1 122.18 26.9509 -4.05231e-17
383 1 110.4 83.1369 -4.05231e-17
384 2 53.8533 101.08 -4.05231e-17
385 1 66.1793 148.663 -4.05231e-17
386 2 179.797 175.78 -4.05231e-17
387 1 34.642 107.073 -4.05231e-17
388 1 143.772 164.116 -4.05231e-17
389 2 216.122 121.507 -4.05231e-17
390 1 104.74 65.6185 -4.05231e-17
391 1 203.129 217.615 -4.05231e-17
392 2 4.06291 100.411 -4.05231e-17
393 2 192.441 173.419 -4.05231e-17
394 1 36.4237 203.963 -4.05231e-17
395 1 19.2001 214.775 -4.05231e-17
396 2 75.6477 88.4379 -4.05231e-17
397 1 67.6067 41.9073 -4.05231e-17
398 2 165.707 111.165 -4.05231e-17
399 2 197.088 107.044 -4.05231e-17
400 2 123.367 68.8394 -4.05231e-17
401 2 84.0923 190.741 -4.05231e-17
402 1 84.3931 42.9845 -4.05231e-17
403 1 69.3346 116.622 -4.05231e-17
404 2 112.836 14.0759 -4.05231e-17
405 1 49.4466 196.771 -4.05231e-17
406 2 217.054 95.5333 -4.05231e-17
407 1 123.895 78.7173 -4.05231e-17
408 1 129.975 29.4269 -4.05231e-17
409 2 214.459 116.249 -4.05231e-17
410 2 70.7136 158.971 -4.05231e-17
411 1 136.751 97.0447 -4.05231e-17
412 1 164.328 7.22118 -4.05231e-17
413 1 34.5705 85.7801 -4.05231e-17
414 2 193.072 202.524 -4.05231e-17
415 1 107.332 126.563 -4.05231e-17
416 1 176.111 52.0057 -4.05231e-17
417 2 107.604 129.249 -4.05231e-17
418 2 34.7239 179.588 -4.05231e-17
419 2 195.199 92.1443 -4.05231e-17
420 2 108.489 44.2353 -4.05231e-17
421 1 70.1723 31.0322 -4.05231e-17
422 1 34.7702 58.2932 -4.05231e-17
423 2 116.442 125.041 -4.05231e-17
424 2 39.0124 24.4884 -4.05231e-17
425 2 117.276 150.576 -4.05231e-17
426 1 185.835 97.1323 -4.05231e-17
427 2 74.947 60.8355 -4.05231e-17
428 1 29.0833 175.065 -4.05231e-17
429 2 131.201 149.892 -4.05231e-17
430 2 111.704 104.117 -4.05231e-17
431 1 13.2083 8.81888 -4.05231e-17
432 2 173.627 3.43797 -4.05231e-17
433 1 186.495 198.866 -4.05231e-17
434 1 20.0234 205.081 -4.05231e-17
435 1 150.135 85.494 -4.05231e-17
436 2 85.3114 198.727 -4.05231e-17
437 2 181.252 82.7899 -4.05231e-17
438 2 194.33 177.629 -4.05231e-17
439 2 92.8519 10.1641 -4.05231e-17
440 2 201.316 92.114 -4.05231e-17
441 1 130.916 167.137 -4.05231e-17
442 1 38.0991 104.562 -4.05231e-17
443 2 79.3184 82.3547 -4.05231e-17
444 1 204.625 105.128 -4.05231e-17
445 1 169.622 133.196 -4.05231e-17
446 2 182.959 150.705 -4.05231e-17
447 2 40.2454 40.2222 -4.05231e-17
448 2 205.759 176.178 -4.05231e-17
449 1 41.3788 177.505 -4.05231e-17
450 1 10.4468 126.25 -4.05231e-17
451 1 53.921 209.253 -4.05231e-17
452 2 208.823 61.1755 -4.05231e-17
453 1 216.234 150.384 -4.05231e-17
454 1 3.38618 68.5602 -4.05231e-17
455 2 81.3368 130.983 -4.05231e-17
456 1 85.092 1.56542 -4.05231e-17
457 2 140.742 144.643 -4.05231e-17
458 2 155.663 135.695 -4.05231e-17
459 2 133.235 51.6811 -4.05231e-17
460 1 197.286 170.122 -4.05231e-17
461 1 112.12 128.474 -4.05231e-17
462 1 104.037 196.439 -4.05231e-17
463 2 110.381 218.515 -4.05231e-17
464 2 13.8173 77.6287 -4.05231e-17
465 1 123.809 16.2991 -4.05231e-17
466 2 150.821 126.401 -4.05231e-17
467 2 65.8705 133.163 -4.05231e-17
468 2 123.782 125.554 -4.05231e-17
469 2 58.023 71.7225 -4.05231e-17
470 2 208.533 155.083 -4.05231e-17
471 2 212.087 211.504 -4.05231e-17
472 2 110.988 36.6701 -4.05231e-17
473 2 197.916 214.861 -4.05231e-17
474 2 84.9978 146.792 -4.05231e-17
475 1 164.123 182.976 -4.05231e-17
476 2 174.999 35.0395 -4.05231e-17
477 1 208.595 218.089 -4.05231e-17
478 1 46.1641 188.18 -4.05231e-17
479 2 0.718178 197.621 -4.05231e-17
480 1 82.855 61.5963 -4.05231e-17
481 1 2.89087 209.474 -4.05231e-17
482 2 152.606 176.458 -4.05231e-17
483 1 134.478 209.378 -4.05231e-17
484 1 66.1696 135.723 -4.05231e-17
485 2 13.2341 174.126 -4.05231e-17
486 1 132.647 72.5806 -4.05231e-17
487 1 13.2052 202.076 -4.05231e-17
488 1 50.0502 83.3621 -4.05231e-17
489 1 70.1712 109.149 -4.05231e-17
490 1 164.741 73.3179 -4.05231e-17
491 1 163.066 75.5271 -4.05231e-17
492 2 209.022 15.5781 -4.05231e-17
493 1 93.845 203.294 -4.05231e-17
494 2 77.7925 66.4014 -4.05231e-17
495 1 150.477 92.2354 -4.05231e-17
496 1 52.2085 123.617 -4.05231e-17
497 1 137.031 109.956 -4.05231e-17
498 2 145.217 39.2953 -4.05231e-17
499 2 177.748 119.093 -4.05231e-17
500 2 57.2348 32.1857 -4.05231e-17
501 2 14.4686 139.509 -4.05231e-17
502 2 190.92 126.827 -4.05231e-17
503 2 57.6509 63.9008 -4.05231e-17
504 2 98.0634 50.293 -4.05231e-17
505 2 112.189 213.703 -4.05231e-17
506 1 206.952 6.44342 -4.05231e-17
507 2 49.7115 182.133 -4.05231e-17
508 1 140.4 59.5525 -4.05231e-17
509 1 209.254 47.5429 -4.05231e-17
510 1 195.44 104.564 -4.05231e-17
511 2 108.192 179.395 -4.05231e-17
512 1 11.0395 42.7243 -4.05231e-17
513 2 87.7612 183.306 -4.05231e-17
514 2 15.1118 87.339 -4.05231e-17
515 1 60.3909 98.8646 -4.05231e-17
516 2 101.122 73.8029 -4.05231e-17
517 1 32.3186 147.885 -4.05231e-17
518 2 10.4714 13.6449 -4.05231e-17
519 1 125.431 92.0321 -4.05231e-17
520 2 209.35 93.7881 -4.05231e-17
521 2 130.04 39.8652 -4.05231e-17
522 1 186.935 7.56607 -4.05231e-17
523 1 127.913 99.6781 -4.05231e-17
524 2 175.095 18.9237 -4.05231e-17
525 2 185.125 45.5727 -4.05231e-17
526 2 108.024 16.3917 -4.05231e-17
527 1 170.217 25.2807 -4.05231e-17
528 1 212.955 202.065 -4.05231e-17
529 2 104.338 176.596 -4.05231e-17
530 2 18.2541 88.0053 -4.05231e-17
531 2 184.869 171.985 -4.05231e-17
532 1 81.2406 4.77265 -4.05231e-17
533 2 23.4408 158.243 -4.05231e-17
534 1 22.6601 168.635 -4.05231e-17
535 1 169.825 206.988 -4.05231e-17
536 2 18.003 169.794 -4.05231e-17
537 1 142.141 29.1024 -4.05231e-17
538 1 68.4983 157.705 -4.05231e-17
539 2 80.7935 163.113 -4.05231e-17
540 1 35.0789 182.245 -4.05231e-17
541 1 105.163 128.318 -4.05231e-17
542 1 58.4604 126.503 -4.05231e-17
543 2 120.484 168.556 -4.05231e-17
544 1 217.829 211.929 -4.05231e-17
545 1 174.94 72.3303 -4.05231e-17
546 2 186.819 10.1664 -4.05231e-17
547 1 13.0528 71.4728 -4.05231e-17
548 1 29.3687 5.6471 -4.05231e-17
549 2 35.3084 152.534 -4.05231e-17
550 2 164.59 193.273 -4.05231e-17
551 2 38.5035 7.31527 -4.05231e-17
552 1 31.9765 51.9172 -4.05231e-17
553 2 207.143 196.885 -4.05231e-17
554 2 143.79 34.426 -4.05231e-17
555 2 178.033 134.795 -4.05231e-17
556 1 177.717 211.536 -4.05231e-17
557 1 211.06 54.257 -4.05231e-17
558 1 60.2884 142.952 -4.05231e-17
559 2 106.354 91.3377 -4.05231e-17
560 2 57.3493 89.3176 -4.05231e-17
561 2 110.93 181.486 -4.05231e-17
562 2 99.1412 65.7399 -4.05231e-17
563 1 73.326 168.003 -4.05231e-17
564 2 103.212 78.5071 -4.05231e-17
565 2 33.6749 65.3376 -4.05231e-17
566 2 64.5192 60.6991 -4.05231e-17
567 1 95.1659 11.7088 -4.05231e-17
568 1 22.4705 77.8492 -4.05231e-17
569 2 141.721 194.328 -4.05231e-17
570 2 11.6595 21.1848 -4.05231e-17
571 2 5.20627 61.8542 -4.05231e-17
572 1 115.347 107.729 -4.05231e-17
573 2 37.9006 89.4628 -4.05231e-17
574 2 178.918 170.439 -4.05231e-17
575 1 196.298 206.992 -4.05231e-17
576 1 25.6664 68.1775 -4.05231e-17
577 1 127.664 74.768 -4.05231e-17
578 1 184.069 115.513 -4.05231e-17
579 2 182.121 44.397 -4.05231e-17
580 1 109.137 103.522 -4.05231e-17
581 1 91.586 146.456 -4.05231e-17
582 2 125.812 101.248 -4.05231e-17
583 2 103.638 83.9469 -4.05231e-17
584 2 107.181 151.557 -4.05231e-17
585 1 181.941 103.367 -4.05231e-17
586 1 143.722 80.2943 -4.05231e-17
587 1 158.444 111.991 -4.05231e-17
588 2 64.3077 108.913 -4.05231e-17
589 1 210.754 59.5737 -4.05231e-17
590 2 181.827 58.3308 -4.05231e-17
591 2 178.729 16.5291 -4.05231e-17
592 1 204.208 129.073 -4.05231e-17
593 1 127.278 90.1503 -4.05231e-17
594 1 5.49624 69.9911 -4.05231e-17
595 1 33.3427 62.5365 -4.05231e-17
596 2 107.049 70.9857 -4.05231e-17
597 2 63.5527 105.538 -4.05231e-17
598 2 135.92 87.6078 -4.05231e-17
599 2 96.8966 165.935 -4.05231e-17
600 2 49.2373 98.794 -4.05231e-17
601 1 146.125 107.806 -4.05231e-17
602 1 173.754 52.15 -4.05231e-17
603 2 216.726 159.876 -4.05231e-17
604 1 46.0088 179.23 -4.05231e-17
605 2 140.38 100.48 -4.05231e-17
606 2 150.495 99.1377 -4.05231e-17
607 2 47.6298 169.557 -4.05231e-17
608 2 128.115 31.1222 -4.05231e-17
609 1 78.0896 89.4106 -4.05231e-17
610 2 106.061 200.492 -4.05231e-17
611 1 1.48919 165.724 -4.05231e-17
612 1 207.241 118.075 -4.05231e-17
613 2 213.323 156.855 -4.05231e-17
614 1 202.547 30.692 -4.05231e-17
615 1 152.45 104.334 -4.05231e-17
616 2 145.824 177.698 -4.05231e-17
617 1 168.464 1.01442 -4.05231e-17
618 1 137.146 216.626 -4.05231e-17
619 1 164.041 160.797 -4.05231e-17
620 2 42.928 88.6661 -4.05231e-17
621 2 203.678 77.3193 -4.05231e-17
622 2 144.844 154.001 -4.05231e-17
623 2 108.813 147.397 -4.05231e-17
624 1 106.966 177.111 -4.05231e-17
625 2 208.718 80.0335 -4.05231e-17
626 1 210.725 190.232 -4.05231e-17
627 2 195.042 193.237 -4.05231e-17
628 1 116.836 156.111 -4.05231e-17
629 1 30.596 40.782 -4.05231e-17
630 2 133.512 213.9 -4.05231e-17
631 2 144.707 115.221 -4.05231e-17
632 2 208.775 20.0003 -4.05231e-17
633 2 60.7499 131.501 -4.05231e-17
634 2 191.47 67.9109 -4.05231e-17
635 2 80.3652 72.4381 -4.05231e-17
636 1 88.4589 131.027 -4.05231e-17
637 1 216.89 153.008 -4.05231e-17
638 1 116.814 68.8074 -4.05231e-17
639 2 200.624 65.5178 -4.05231e-17
640 2 149.253 78.2571 -4.05231e-17
641 1 200.228 97.0429 -4.05231e-17
642 2 161.703 35.7321 -4.05231e-17
643 1 165.676 58.167 -4.05231e-17
644 2 139.505 154.735 -4.05231e-17
645 2 5.6104 75.1197 -4.05231e-17
646 1 169.663 142.164 -4.05231e-17
647 2 128.924 148.168 -4.05231e-17
648 2 190.6 211.884 -4.05231e-17
649 1 63.5388 145.449 -4.05231e-17
650 1 56.209 153.279 -4.05231e-17
651 1 112.439 130.779 -4.05231e-17
652 2 8.56146 213.945 -4.05231e-17
653 2 195.454 45.1923 -4.05231e-17
654 1 208.594 165.152 -4.05231e-17
655 1 63.3716 47.4751 -4.05231e-17
656 1 198.876 10.5401 -4.05231e-17
657 1 125.005 120.6 -4.05231e-17
658 2 166.141 105.82 -4.05231e-17
659 2 101.791 137.443 -4.05231e-17
660 1 24.838 11.7944 -4.05231e-17
661 2 15.8681 36.9571 -4.05231e-17
662 2 135.954 116.857 -4.05231e-17
663 1 163.545 113.009 -4.05231e-17
664 1 80.0698 138.426 -4.05231e-17
665 1 135.72 143.843 -4.05231e-17
666 1 202.887 185.453 -4.05231e-17
667 1 0.506028 116.968 -4.05231e-17
668 1 134.377 156.71 -4.05231e-17
669 1 107.211 161.005 -4.05231e-17
670 2 212.033 161.392 -4.05231e-17
671 1 3.56256 16.0707 -4.05231e-17
672 1 193.507 141.709 -4.05231e-17
673 2 47.5203 84.788 -4.05231e-17
674 2 182.591 205.623 -4.05231e-17
675 2 152.529 2.04326 -4.05231e-17
676 1 180.361 160.192 -4.05231e-17
677 2 53.3323 53.243 -4.05231e-17
678 1 86.7421 113.375 -4.05231e-17
679 1 87.0227 65.2973 -4.05231e-17
680 2 71.4703 13.2364 -4.05231e-17
681 1 4.97835 9.03929 -4.05231e-17
682 1 141.557 171.584 -4.05231e-17
683 2 96.3347 123.332 -4.05231e-17
684 1 23.3323 180.489 -4.05231e-17
685 1 83.8569 206.404 -4.05231e-17
686 1 143.048 159.428 -4.05231e-17
687 1 107.335 53.0416 -4.05231e-17
688 1 152.178 97.1476 -4.05231e-17
689 2 10.9764 139.614 -4.05231e-17
690 1 48.1957 120.693 -4.05231e-17
691 2 64.633 115.369 -4.05231e-17
692 2 180.478 179.016 -4.05231e-17
693 1 161.763 96.1491 -4.05231e-17
694 2 147.077 149.632 -4.05231e-17
695 2 188.277 36.7728 -4.05231e-17
696 2 31.5005 82.2417 -4.05231e-17
697 1 103.93 35.5847 -4.05231e-17
698 2 40.7443 18.2275 -4.05231e-17
699 1 57.0743 202.543 -4.05231e-17
700 2 17.5653 126.242 -4.05231e-17
701 2 30.905 63.8373 -4.05231e-17
702 1 160.471 10.1297 -4.05231e-17
703 1 195.831 60.718 -4.05231e-17
704 1 159.762 121.966 -4.05231e-17
705 1 43.2096 120.428 -4.05231e-17
706 1 75.4662 161.382 -4.05231e-17
707 1 182.531 66.7755 -4.05231e-17
708 2 195.479 101.839 -4.05231e-17
709 1 54.1803 160.256 -4.05231e-17
710 2 91.6514 16.1356 -4.05231e-17
711 2 1.71121 139.55 -4.05231e-17
712 1 84.4664 213.582 -4.05231e-17
713 1 4.84893 152.616 -4.05231e-17
714 2 145.239 147.24 -4.05231e-17
715 2 133.233 86.9229 -4.05231e-17
716 1 86.8215 60.9627 -4.05231e-17
717 1 14.8013 61.1327 -4.05231e-17
718 2 78.4701 99.9759 -4.05231e-17
719 1 68.6437 202.636 -4.05231e-17
720 2 51.973 197.2 -4.05231e-17
721 2 43.9063 212.947 -4.05231e-17
722 2 65.2815 138.075 -4.05231e-17
723 2 15.458 165.882 -4.05231e-17
724 2 202.799 107.092 -4.05231e-17
725 2 22.0947 49.9666 -4.05231e-17
726 2 178.005 124.189 -4.05231e-17
727 2 35.3255 109.561 -4.05231e-17
728 1 176.668 76.9691 -4.05231e-17
729 2 167.48 131.487 -4.05231e-17
730 2 175.313 94.521 -4.05231e-17
731 1 10.0624 23.1079 -4.05231e-17
732 2 98.1289 86.9925 -4.05231e-17
733 2 147.98 146.498 -4.05231e-17
734 2 59.3983 191.609 -4.05231e-17
735 2 149.331 72.0507 -4.05231e-17
736 1 182.199 177.046 -4.05231e-17
737 2 49.05 39.6556 -4.05231e-17
738 2 71.2742 207.675 -4.05231e-17
739 2 185.948 131.417 -4.05231e-17
740 2 40.1863 115.863 -4.05231e-17
741 2 200.73 114.182 -4.05231e-17
742 1 71.7949 98.9423 -4.05231e-17
743 2 78.7377 76.3536 -4.05231e-17
744 1 146.777 50.2692 -4.05231e-17
745 2 15.8224 75.3814 -4.05231e-17
746 1 218.932 121.732 -4.05231e-17
747 1 98.4272 163.381 -4.05231e-17
748 2 70.2451 197.722 -4.05231e-17
749 1 213.798 166.637 -4.05231e-17
750 1 139.407 147.672 -4.05231e-17
751 1 143.161 88.9854 -4.05231e-17
752 2 195.043 168.758 -4.05231e-17
753 1 37.1202 180.611 -4.05231e-17
754 2 66.0186 81.1425 -4.05231e-17
755 1 6.38403 80.5614 -4.05231e-17
756 2 178.621 58.2012 -4.05231e-17
757 1 110.46 15.3543 -4.05231e-17
758 2 99.2776 27.8577 -4.05231e-17
759 1 96.0686 133.338 -4.05231e-17
760 1 171.332 61.8693 -4.05231e-17
761 2 213.364 101.083 -4.05231e-17
762 1 178.489 106.318 -4.05231e-17
763 2 5.93984 157.606 -4.05231e-17
764 2 43.257 188.129 -4.05231e-17
765 1 21.8192 160.218 -4.05231e-17
766 2 99.9133 47.8393 -4.05231e-17
767 2 206.252 149.226 -4.05231e-17
768 2 72.254 62.3179 -4.05231e-17
769 2 188.131 98.5656 -4.05231e-17
770 1 133.899 18.4246 -4.05231e-17
771 1 64.72 63.305 -4.05231e-17
772 1 129.059 0.645468 -4.05231e-17
773 2 166.554 172.215 -4.05231e-17
774 1 88.3047 87.4629 -4.05231e-17
775 1 102.613 75.8228 -4.05231e-17
776 2 192.962 103.579 -4.05231e-17
777 2 42.2282 79.7896 -4.05231e-17
778 1 83.2489 12.6235 -4.05231e-17
779 1 47.8025 61.4128 -4.05231e-17
780 2 83.3633 49.7807 -4.05231e-17
781 1 25.9396 171.773 -4.05231e-17
782 2 123.231 170.235 -4.05231e-17
783 1 74.4704 63.3569 -4.05231e-17
784 2 96.9022 110.317 -4.05231e-17
785 1 204.355 82.7689 -4.05231e-17
786 1 41.0812 6.96837 -4.05231e-17
787 2 37.9873 208.746 -4.05231e-17
788 2 164.794 180.407 -4.05231e-17
789 2 18.5526 147.215 -4.05231e-17
790 2 77.4383 7.6589 -4.05231e-17
791 2 186.548 53.804 -4.05231e-17
792 1 213.248 132.729 -4.05231e-17
793 1 96.8684 172.012 -4.05231e-17
794 2 209.557 6.70368 -4.05231e-17
795 2 10.5881 191.604 -4.05231e-17
796 1 69.2862 214.919 -4.05231e-17
797 1 46.3501 32.662 -4.05231e-17
798 1 213.262 55.8111 -4.05231e-17
799 2 105.73 155.816 -4.05231e-17
800 1 56.8304 37.2854 -4.05231e-17
801 2 68.3482 84.9181 -4.05231e-17
802 1 91.251 216.367 -4.05231e-17
803 1 143.082 24.946 -4.05231e-17
804 1 210.236 125.078 -4.05231e-17
805 2 183.864 118.182 -4.05231e-17
806 2 178.624 158.183 -4.05231e-17
807 2 208.368 29.466 -4.05231e-17
808 2 76.3479 144.732 -4.05231e-17
809 1 176.048 63.0031 -4.05231e-17
810 2 24.0169 173.607 -4.05231e-17
811 2 180.207 55.719 -4.05231e-17
812 1 121.962 184.825 -4.05231e-17
813 1 21.801 95.674 -4.05231e-17
814 1 2.9514 205.007 -4.05231e-17
815 1 145.324 32.4096 -4.05231e-17
816 1 206.835 51.2442 -4.05231e-17
817 2 63.1337 71.1274 -4.05231e-17
818 2 29.3466 122.864 -4.05231e-17
819 2 210.791 68.0542 -4.05231e-17
820 1 9.68391 58.7823 -4.05231e-17
821 1 65.1176 57.9371 -4.05231e-17
822 2 131.455 34.7245 -4.05231e-17
823 1 184.31 90.5724 -4.05231e-17
824 1 176.082 89.8812 -4.05231e-17
825 1 160.31 190.802 -4.05231e-17
826 2 178.576 81.76 -4.05231e-17
827 2 102.21 27.0476 -4.05231e-17
828 1 50.6257 91.594 -4.05231e-17
829 2 127.991 92.6002 -4.05231e-17
830 1 3.64093 156.738 -4.05231e-17
831 2 183.107 218.121 -4.05231e-17
832 2 27.0232 52.1902 -4.05231e-17
833 2 96.1236 41.7587 -4.05231e-17
834 1 70.8735 164.152 -4.05231e-17
835 1 185.034 141.459 -4.05231e-17
836 1 153.545 69.5675 -4.05231e-17
837 2 168.205 92.1551 -4.05231e-17
838 2 91.8971 26.3084 -4.05231e-17
839 1 39.3899 31.693 -4.05231e-17
840 2 13.8386 117.112 -4.05231e-17
841 2 201.524 10.6485 -4.05231e-17
842 1 172.998 159.523 -4.05231e-17
843 1 205.07 29.8312 -4.05231e-17
844 2 8.55582 25.2851 -4.05231e-17
845 1 46.8283 150.742 -4.05231e-17
846 2 127.789 211.257 -4.05231e-17
847 1 88.5758 142.9 -4.05231e-17
848 2 113.229 8.90836 -4.05231e-17
849 1 24.9919 33.1085 -4.05231e-17
850 2 60.0269 67.4003 -4.05231e-17
851 2 216.487 30.6252 -4.05231e-17
852 1 137.536 182.889 -4.05231e-17
853 1 186.046 105.319 -4.05231e-17
854 2 104.172 145.025 -4.05231e-17
855 2 165.773 121.131 -4.05231e-17
856 1 77.4312 160.119 -4.05231e-17