ITEM: TIMESTEP
0
ITEM: NUMBER OF ATOMS
7200
ITEM: BOX BOUNDS xy xz yz pp pp pp
0.0000000000000000e+00 2.1900000000000000e+02 0.0000000000000000e+00
0.0000000000000000e+00 2.1900000000000000e+02 0.0000000000000000e+00
-3.6499999999999999e-01 3.6499999999999999e-01 0.0000000000000000e+00
ITEM: ATOMS id type x y z
1 1 182.758 12.7848 -4.05231e-17
2 2 188.006 183.702 -4.05231e-17
3 2 144.695 189.427 -4.05231e-17
4 1 123.182 110.328 -4.05231e-17
5 1 101.102 122.569 -4.05231e-17
6 1 104.349 25.2146 -4.05231e-17
7 2 159.193 129.071 -4.05231e-17
8 2 69.7312 25.6542 -4.05231e-17
9 1 22.0039 215.245 -4.05231e-17
10 2 52.2746 167.006 -4.05231e-17
11 2 210.218 99.9098 -4.05231e-17
12 1 34.0305 197.767 -4.05231e-17
13 2 193.867 53.3671 -4.05231e-17
14 1 57.4723 184.425 -4.05231e-17
15 2 193.185 218.909 -4.05231e-17
16 2 218.577 85.2501 -4.05231e-17
17 1 67.5413 74.5876 -4.05231e-17
18 2 10.5194 172.732 -4.05231e-17
19 1 93.1503 130.186 -4.05231e-17
20 1 72.3331 11.0607 -4.05231e-17
21 1 156.1 7.11247 -4.05231e-17
22 2 31.7679 212.591 -4.05231e-17
23 2 43.322 208.699 -4.05231e-17
24 2 218.872 102.581 -4.05231e-17
25 2 30.451 207.518 -4.05231e-17
26 2 149.183 27.7362 -4.05231e-17
27 1 217.316 162.581 -4.05231e-17
28 2 54.3051 154.714 -4.05231e-17
29 2 83.5489 3.94653 -4.05231e-17
30 2 132.016 37.4133 -4.05231e-17
31 2 156.606 83.6898 -4.05231e-17
32 1 48.1271 108.593 -4.05231e-17
33 2 145.222 87.5679 -4.05231e-17
34 2 16.3035 95.9996 -4.05231e-17
35 2 126.925 11.3802 -4.05231e-17
36 1 160.242 146.797 -4.05231e-17
37 1 133.512 185.262 -4.05231e-17
38 2 209.276 157.902 -4.05231e-17
39 1 7.88511 38.4374 -4.05231e-17
40 2 196.326 73.328 -4.05231e-17
41 1 192.616 73.0727 -4.05231e-17
42 1 55.0193 58.7404 -4.05231e-17
43 1 210.421 131.926 -4.05231e-17
44 1 155.193 188.671 -4.05231e-17
45 2 159.258 61.2213 -4.05231e-17
46 1 124.296 192.754 -4.05231e-17
47 2 89.4625 80.1972 -4.05231e-17
48 2 151.09 129.723 -4.05231e-17
49 1 194.408 199.966 -4.05231e-17
50 2 29.1298 47.576 -4.05231e-17
51 1 186.342 3.02639 -4.05231e-17
52 1 115.434 47.8314 -4.05231e-17
53 2 55.2518 201.11 -4.05231e-17
54 1 38.6654 16.5308 -4.05231e-17
55 2 53.7244 141 -4.05231e-17
56 1 31.307 132.509 -4.05231e-17
57 2 58.5564 133.587 -4.05231e-17
58 1 184.365 33.9156 -4.05231e-17
59 1 157.583 86.1352 -4.05231e-17
60 2 206.326 59.2169 -4.05231e-17
61 1 157.229 164.745 -4.05231e-17
62 1 106.714 111.311 -4.05231e-17
63 2 108.635 38.7016 -4.05231e-17
64 1 28.2087 18.0889 -4.05231e-17
65 2 152.47 149.429 -4.05231e-17
66 2 13.5604 155.062 -4.05231e-17
67 2 182.844 107.823 -4.05231e-17
68 1 137.06 83.2862 -4.05231e-17
69 2 109.587 169.132 -4.05231e-17
70 1 142.057 97.9888 -4.05231e-17
71 1 198.288 147.59 -4.05231e-17
72 2 44.8411 157.313 -4.05231e-17
73 2 191.798 179.844 -4.05231e-17
74 2 110.1 70.0827 -4.05231e-17
75 1 15.0921 136.527 -4.05231e-17
76 2 138.003 206.646 -4.05231e-17
77 2 168.311 15.6187 -4.05231e-17
78 1 93.2638 208.46 -4.05231e-17
79 2 60.6717 75.5783 -4.05231e-17
80 1 49.9744 22.9004 -4.05231e-17
81 1 181.35 211.151 -4.05231e-17
82 1 172.569 38.9413 -4.05231e-17
83 1 71.1363 91.2183 -4.05231e-17
84 2 141.021 179.713 -4.05231e-17
85 2 150.945 146.189 -4.05231e-17
86 2 51.1021 68.1791 -4.05231e-17
87 2 38.417 75.3558 -4.05231e-17
88 1 80.7257 157.31 -4.05231e-17
89 2 199.919 105.204 -4.05231e-17
90 2 125.98 36.4137 -4.05231e-17
91 2 11.2459 182.407 -4.05231e-17
92 1 27.3859 215.456 -4.05231e-17
93 2 110.096 154.761 -4.05231e-17
94 2 112.678 144.456 -4.05231e-17
95 1 211.295 51.6075 -4.05231e-17
96 2 31.9946 54.0151 -4.05231e-17
97 2 4.5951 211.694 -4.05231e-17
98 2 35.7386 185.579 -4.05231e-17
99 1 105.056 9.70605 -4.05231e-17
100 2 158.929 65.914 -4.05231e-17
101 1 184.344 109.802 -4.05231e-17
102 1 66.1451 164.076 -4.05231e-17
103 2 204.843 100.072 -4.05231e-17
104 2 104.296 73.4062 -4.05231e-17
105 1 160.603 58.7561 -4.05231e-17
106 1 184.939 59.9044 -4.05231e-17
107 1 12.2528 106.618 -4.05231e-17
108 1 70.0612 209.998 -4.05231e-17
109 2 217.271 39.2282 -4.05231e-17
110 2 144.723 29.6266 -4.05231e-17
111 1 53.2518 92.3237 -4.05231e-17
112 2 8.62602 51.0742 -4.05231e-17
113 1 134.573 10.8663 -4.05231e-17
114 1 92.2758 86.8852 -4.05231e-17
115 2 32.0827 59.6273 -4.05231e-17
116 2 183.792 15.4528 -4.05231e-17
117 1 163.326 110.865 -4.05231e-17
118 1 82.9084 94.2283 -4.05231e-17
119 2 99.1485 139.613 -4.05231e-17
120 2 201.311 58.3243 -4.05231e-17
121 1 205.728 138.913 -4.05231e-17
122 2 143.421 130.078 -4.05231e-17
123 2 7.13062 129.532 -4.05231e-17
124 1 161.366 200.182 -4.05231e-17
125 1 88.1552 192.92 -4.05231e-17
126 2 97.9862 83.8949 -4.05231e-17
127 2 209.081 110.482 -4.05231e-17
128 1 121.974 105.252 -4.05231e-17
129 1 144.139 194.407 -4.05231e-17
130 2 119.988 61.5548 -4.05231e-17
131 1 133.613 60.2813 -4.05231e-17
132 1 139.445 22.0235 -4.05231e-17
133 1 181.114 105.865 -4.05231e-17
134 1 81.1167 191.366 -4.05231e-17
135 2 177.518 60.594 -4.05231e-17
136 1 190.977 118.72 -4.05231e-17
137 1 60.611 7.37106 -4.05231e-17
138 2 156.199 159.189 -4.05231e-17
139 1 132.552 11.778 -4.05231e-17
140 1 144.772 208.464 -4.05231e-17
141 1 51.3168 70.8268 -4.05231e-17
142 1 212.877 190.777 -4.05231e-17
143 1 25.9586 26.5616 -4.05231e-17
144 1 46.7226 97.8214 -4.05231e-17
145 2 193.133 80.0194 -4.05231e-17
146 1 153.817 126.099 -4.05231e-17
147 2 16.6884 134.46 -4.05231e-17
148 1 24.4636 132.892 -4.05231e-17
149 1 147.518 190.416 -4.05231e-17
150 2 65.7598 52.3634 -4.05231e-17
151 1 132.415 137.815 -4.05231e-17
152 1 164.195 163.539 -4.05231e-17
153 2 124.044 130.463 -4.05231e-17
154 1 183.819 52.4479 -4.05231e-17
155 2 203.271 39.8869 -4.05231e-17
156 2 109.286 197.041 -4.05231e-17
157 2 166.321 29.219 -4.05231e-17
158 2 27.7277 7.80068 -4.05231e-17
159 2 12.2182 159.235 -4.05231e-17
160 2 120.352 55.1545 -4.05231e-17
161 2 129.75 138.83 -4.05231e-17
162 1 23.7966 66.3948 -4.05231e-17
163 1 188.588 33.7559 -4.05231e-17
164 2 108.503 134.701 -4.05231e-17
165 1 49.0922 72.4444 -4.05231e-17
166 2 6.21616 199.803 -4.05231e-17
167 1 106.931 168.161 -4.05231e-17
168 1 211.379 102.515 -4.05231e-17
169 2 98.2153 199.622 -4.05231e-17
170 1 66.3661 206.406 -4.05231e-17
171 1 137.447 92.6621 -4.05231e-17
172 1 199.49 199.66 -4.05231e-17
173 1 39.3648 204.293 -4.05231e-17
174 2 38.5476 173.267 -4.05231e-17
175 2 50.1468 199.821 -4.05231e-17
176 1 119.624 152.117 -4.05231e-17
177 2 104.811 15.2021 -4.05231e-17
178 1 25.18 7.75498 -4.05231e-17
179 2 106.284 197.317 -4.05231e-17
180 1 47.2508 76.7596 -4.05231e-17
181 1 16.0425 119.37 -4.05231e-17
182 1 113.794 86.8495 -4.05231e-17
183 1 63.9089 168.106 -4.05231e-17
184 2 157.635 25.9801 -4.05231e-17
185 2 190.038 78.4765 -4.05231e-17
186 2 74.2624 206.136 -4.05231e-17
187 2 158.764 201.846 -4.05231e-17
188 2 59.9343 28.1934 -4.05231e-17
189 1 191.212 57.5329 -4.05231e-17
190 1 196.065 55.1407 -4.05231e-17
191 2 35.6054 104.609 -4.05231e-17
192 2 90.9716 61.4029 -4.05231e-17
193 1 108.625 166.35 -4.05231e-17
194 1 26.6454 5.57793 -4.05231e-17
195 2 58.4344 119.664 -4.05231e-17
196 1 0.196365 218.835 -4.05231e-17
197 2 118.993 50.1368 -4.05231e-17
198 2 206.136 27.2113 -4.05231e-17
199 2 99.3646 170.614 -4.05231e-17
200 2 98.3826 31.0829 -4.05231e-17
201 2 103.256 120.9 -4.05231e-17
202 1 43.5306 33.9915 -4.05231e-17
203 1 18.3252 43.0911 -4.05231e-17
204 2 45.0143 78.6434 -4.05231e-17
205 2 182.734 182.054 -4.05231e-17
206 2 170.896 127.485 -4.05231e-17
207 1 74.9153 189.067 -4.05231e-17
208 2 134.94 54.4083 -4.05231e-17
209 2 33.2784 142.309 -4.05231e-17
210 1 182.457 113.677 -4.05231e-17
211 1 208.487 35.2972 -4.05231e-17
212 1 208.187 84.7144 -4.05231e-17
213 1 128.209 123.866 -4.05231e-17
214 2 11.9836 11.4047 -4.05231e-17
215 1 5.7872 142.278 -4.05231e-17
216 1 54.92 46.5661 -4.05231e-17
217 1 164.452 61.7606 -4.05231e-17
218 2 201.421 120.868 -4.05231e-17
219 2 136.224 189.694 -4.05231e-17
220 1 120.957 1.43483 -4.05231e-17
221 2 82.8998 6.97918 -4.05231e-17
222 1 158.417 157.694 -4.05231e-17
223 1 46.0899 120.327 -4.05231e-17
224 2 145.782 70.9609 -4.05231e-17
225 2 168.895 164.091 -4.05231e-17
226 1 196.332 10.1069 -4.05231e-17
227 2 203.284 214.748 -4.05231e-17
228 2 117.428 63.574 -4.05231e-17
229 1 47.4137 22.7519 -4.05231e-17
230 1 4.70959 56.8533 -4.05231e-17
231 2 137.015 160.729 -4.05231e-17
232 1 18.1359 212.977 -4.05231e-17
233 2 75.8849 195.644 -4.05231e-17
234 1 0.531705 59.7914 -4.05231e-17
235 1 150.507 106.274 -4.05231e-17
236 2 153.091 52.9983 -4.05231e-17
237 2 99.4483 204.259 -4.05231e-17
238 2 94.9228 140.368 -4.05231e-17
239 1 35.1409 217.083 -4.05231e-17
240 1 129.675 90.9553 -4.05231e-17
241 2 3.71463 124.493 -4.05231e-17
242 1 193.864 28.2548 -4.05231e-17
243 2 215.316 130.226 -4.05231e-17
244 2 35.7245 191.14 -4.05231e-17
245 1 173.73 20.929 -4.05231e-17
246 2 90.1981 85.1501 -4.05231e-17
247 2 198.816 150.738 -4.05231e-17
248 1 37.6302 27.1737 -4.05231e-17
249 1 131.869 108.541 -4.05231e-17
250 1 134.475 28.1272 -4.05231e-17
251 2 101.694 43.3518 -4.05231e-17
252 1 111.033 157.2 -4.05231e-17
253 2 95.728 97.452 -4.05231e-17
254 2 179.073 205.339 -4.05231e-17
255 2 122.17 50.2877 -4.05231e-17
256 1 3.07015 180.087 -4.05231e-17
257 2 32.7687 195.353 -4.05231e-17
258 1 210.571 80.9931 -4.05231e-17
259 2 161.066 141.743 -4.05231e-17
260 1 40.6085 192.594 -4.05231e-17
261 2 142.71 176.947 -4.05231e-17
262 2 187.007 110.125 -4.05231e-17
263 2 94.1949 172.885 -4.05231e-17
264 1 199.195 36.1713 -4.05231e-17
265 1 157.363 187.127 -4.05231e-17
266 1 98.6357 197.084 -4.05231e-17
267 2 115.446 16.3397 -4.05231e-17
268 1 218.561 48.956 -4.05231e-17
269 2 10.1428 113.409 -4.05231e-17
270 2 185.646 148.722 -4.05231e-17
271 2 187.679 94.873 -4.05231e-17
272 1 59.0336 25.8039 -4.05231e-17
273 1 70.6349 83.3241 -4.05231e-17
274 1 38.3119 196.646 -4.05231e-17
275 1 147.138 110.456 -4.05231e-17
276 1 198.949 74.3989 -4.05231e-17
277 1 100.194 37.7249 -4.05231e-17
278 2 60.9794 145.16 -4.05231e-17
279 2 160.148 86.3462 -4.05231e-17
280 1 117.024 210.82 -4.05231e-17
281 2 169.874 182.509 -4.05231e-17
282 2 75.3049 127.165 -4.05231e-17
283 2 0.366079 151.044 -4.05231e-17
284 1 126.219 113.864 -4.05231e-17
285 1 73.3483 165.23 -4.05231e-17
286 2 30.35 180.448 -4.05231e-17
287 2 93.5044 109.691 -4.05231e-17
288 1 104.297 123.251 -4.05231e-17
289 2 193.674 56.4753 -4.05231e-17
290 1 100.872 29.8483 -4.05231e-17
291 2 96.1711 185.953 -4.05231e-17
292 1 77.2207 125.383 -4.05231e-17
293 1 159.462 168.163 -4.05231e-17
294 1 29.7057 177.919 -4.05231e-17
295 2 46.8638 145.477 -4.05231e-17
296 1 197.062 177.092 -4.05231e-17
297 1 1.99355 18.4265 -4.05231e-17
298 2 30.7874 140.398 -4.05231e-17
299 1 177.443 55.6821 -4.05231e-17
300 2 190.106 192.763 -4.05231e-17
301 2 171.797 19.235 -4.05231e-17
302 2 163.908 89.0079 -4.05231e-17
303 1 2.97141 151.752 -4.05231e-17
304 1 124.38 106.027 -4.05231e-17
305 1 92.1673 177.654 -4.05231e-17
306 2 83.537 17.9177 -4.05231e-17
307 2 150.467 167.768 -4.05231e-17
308 2 142.201 22.4603 -4.05231e-17
309 1 70.679 72.0983 -4.05231e-17
310 1 190.212 190.205 -4.05231e-17
311 1 151.375 108.733 -4.05231e-17
312 2 134.581 13.5274 -4.05231e-17
313 2 155.07 18.4502 -4.05231e-17
314 1 184.542 57.4121 -4.05231e-17
315 2 56.6384 107.583 -4.05231e-17
316 1 95.3407 31.0179 -4.05231e-17
317 1 132.951 176.107 -4.05231e-17
318 1 217.021 135.619 -4.05231e-17
319 2 74.1958 200.824 -4.05231e-17
320 1 213.634 47.8939 -4.05231e-17
321 1 52.9167 87.1989 -4.05231e-17
322 1 51.5767 147.988 -4.05231e-17
323 2 20.3693 138.54 -4.05231e-17
324 2 7.99581 95.3273 -4.05231e-17
325 2 216.193 13.5479 -4.05231e-17
326 1 184.795 1.22737 -4.05231e-17
327 1 35.6891 46.0343 -4.05231e-17
328 2 32.8646 192.456 -4.05231e-17
329 2 28.841 83.2745 -4.05231e-17
330 2 152.957 38.9756 -4.05231e-17
331 2 187.643 67.4622 -4.05231e-17
332 2 121.424 114.69 -4.05231e-17
333 2 28.0624 151.123 -4.05231e-17
334 2 215.717 18.1798 -4.05231e-17
335 1 166.627 211.153 -4.05231e-17
336 2 28.0975 141.613 -4.05231e-17
337 2 40.6244 9.81589 -4.05231e-17
338 1 203.521 90.2421 -4.05231e-17
339 2 15.064 152.512 -4.05231e-17
340 2 176.574 214.514 -4.05231e-17
341 2 101.597 60.2519 -4.05231e-17
342 2 173.737 166.801 -4.05231e-17
343 2 175.935 4.93644 -4.05231e-17
344 1 88.2668 105.688 -4.05231e-17
345 2 26.5017 212.749 -4.05231e-17
346 2 75.0587 72.9339 -4.05231e-17
347 1 148.053 99.0719 -4.05231e-17
348 1 181.223 3.91108 -4.05231e-17
349 2 173.32 69.5907 -4.05231e-17
350 2 77.9202 178.51 -4.05231e-17
351 1 175.112 141.635 -4.05231e-17
352 1 212.677 163.745 -4.05231e-17
353 2 141.093 131.926 -4.05231e-17
354 2 191.596 176.809 -4.05231e-17
355 1 216.137 157.033 -4.05231e-17
356 2 114.888 1.64673 -4.05231e-17
357 1 126.903 192.583 -4.05231e-17
358 1 78.0865 25.521 -4.05231e-17
359 1 35.1926 144.006 -4.05231e-17
360 1 51.1701 8.32192 -4.05231e-17
361 2 196.342 67.8858 -4.05231e-17
362 2 172.25 94.5514 -4.05231e-17
363 1 78.935 215.311 -4.05231e-17
364 2 216.813 46.6523 -4.05231e-17
365 1 5.7981 164.5 -4.05231e-17
366 1 82.6965 172.757 -4.05231e-17
367 1 161.318 104.298 -4.05231e-17
368 1 21.0681 164.832 -4.05231e-17
369 2 81.735 143.397 -4.05231e-17
370 1 6.62174 132.035 -4.05231e-17
371 2 71.5714 111.792 -4.05231e-17
372 1 87.8055 6.74378 -4.05231e-17
373 2 117.81 208.61 -4.05231e-17
374 2 176.971 101.76 -4.05231e-17
375 1 136.186 26.1592 -4.05231e-17
376 1 121.82 147.456 -4.05231e-17
377 2 95.0174 76.2592 -4.05231e-17
378 2 215.581 106.506 -4.05231e-17
379 2 169.374 187.393 -4.05231e-17
380 1 199.766 33.7158 -4.05231e-17
381 1 175.133 67.3057 -4.05231e-17
382 1 122.301 27.1399 -4.05231e-17
383 1 110.621 83.3212 -4.05231e-17
384 2 54.0944 100.882 -4.05231e-17
385 1 66.2338 148.795 -4.05231e-17
386 2 179.955 175.713 -4.05231e-17
387 1 34.7116 107.01 -4.05231e-17
388 1 143.657 164.413 -4.05231e-17
389 2 216.312 121.056 -4.05231e-17
390 1 104.837 66.023 -4.05231e-17
391 1 203.133 217.536 -4.05231e-17
392 2 4.26229 100.094 -4.05231e-17
393 2 192.791 173.947 -4.05231e-17
394 1 36.6725 203.986 -4.05231e-17
395 1 19.1262 215.237 -4.05231e-17
396 2 75.5353 88.1592 -4.05231e-17
397 1 67.3811 42.0769 -4.05231e-17
398 2 165.842 111.197 -4.05231e-17
399 2 197.031 106.384 -4.05231e-17
400 2 123.728 68.9709 -4.05231e-17
401 2 83.8725 190.74 -4.05231e-17
402 1 84.0399 43.1227 -4.05231e-17
403 1 69.8082 116.441 -4.05231e-17
404 2 112.96 13.9115 -4.05231e-17
405 1 49.399 196.951 -4.05231e-17
406 2 216.938 95.581 -4.05231e-17
407 1 124.145 78.5578 -4.05231e-17
408 1 129.908 29.2868 -4.05231e-17
409 2 214.668 115.849 -4.05231e-17
410 2 70.9001 158.903 -4.05231e-17
411 1 136.578 96.9462 -4.05231e-17
412 1 164.058 6.89735 -4.05231e-17
413 1 35.0537 85.6092 -4.05231e-17
414 2 193.031 202.361 -4.05231e-17
415 1 107.556 126.597 -4.05231e-17
416 1 175.759 52.0231 -4.05231e-17
417 2 107.567 129.253 -4.05231e-17
418 2 34.8704 179.586 -4.05231e-17
419 2 195.448 91.9319 -4.05231e-17
420 2 108.291 44.3671 -4.05231e-17
421 1 70.1208 30.7593 -4.05231e-17
422 1 34.3794 57.9854 -4.05231e-17
423 2 116.649 124.96 -4.05231e-17
424 2 38.9376 24.8154 -4.05231e-17
425 2 117.106 150.838 -4.05231e-17
426 1 185.964 96.9921 -4.05231e-17
427 2 74.8074 60.5176 -4.05231e-17
428 1 29.2476 175.306 -4.05231e-17
429 2 131.417 149.931 -4.05231e-17
430 2 111.984 104.246 -4.05231e-17
431 1 13.2433 9.19341 -4.05231e-17
432 2 173.621 3.19429 -4.05231e-17
433 1 186.603 198.849 -4.05231e-17
434 1 20.4455 205.204 -4.05231e-17
435 1 149.739 85.5701 -4.05231e-17
436 2 85.2288 198.724 -4.05231e-17
437 2 180.738 82.7349 -4.05231e-17
438 2 194.332 177.591 -4.05231e-17
439 2 92.5507 10.3596 -4.05231e-17
440 2 201.471 91.8793 -4.05231e-17
441 1 131.008 167.673 -4.05231e-17
442 1 38.076 104.784 -4.05231e-17
443 2 79.4063 81.9474 -4.05231e-17
444 1 204.718 105.002 -4.05231e-17
445 1 169.282 133.523 -4.05231e-17
446 2 183.102 150.829 -4.05231e-17
447 2 40.0129 40.108 -4.05231e-17
448 2 206.064 176.164 -4.05231e-17
449 1 41.4426 177.258 -4.05231e-17
450 1 10.8225 126.195 -4.05231e-17
451 1 54.1847 209.128 -4.05231e-17
452 2 208.619 60.8835 -4.05231e-17
453 1 216.903 150.376 -4.05231e-17
454 1 3.09398 68.8483 -4.05231e-17
455 2 81.1599 130.992 -4.05231e-17
456 1 85.0798 1.7374 -4.05231e-17
457 2 140.526 144.897 -4.05231e-17
458 2 155.954 135.703 -4.05231e-17
459 2 133.373 51.458 -4.05231e-17
460 1 197.115 170.205 -4.05231e-17
461 1 112.193 128.294 -4.05231e-17
462 1 103.739 196.113 -4.05231e-17
463 2 110.195 218.475 -4.05231e-17
464 2 13.9201 77.6543 -4.05231e-17
465 1 123.877 16.1019 -4.05231e-17
466 2 151.069 126.589 -4.05231e-17
467 2 65.9223 133.085 -4.05231e-17
468 2 123.845 125.686 -4.05231e-17
469 2 58.1258 71.2384 -4.05231e-17
470 2 208.86 154.764 -4.05231e-17
471 2 212.002 211.558 -4.05231e-17
472 2 110.984 36.7499 -4.05231e-17
473 2 197.833 214.531 -4.05231e-17
474 2 85.0601 146.73 -4.05231e-17
475 1 164.026 182.767 -4.05231e-17
476 2 174.82 34.7847 -4.05231e-17
477 1 208.664 218.21 -4.05231e-17
478 1 46.4145 187.961 -4.05231e-17
479 2 1.0012 197.591 -4.05231e-17
480 1 82.5816 61.927 -4.05231e-17
481 1 2.93949 209.414 -4.05231e-17
482 2 152.463 176.672 -4.05231e-17
483 1 134.466 209.401 -4.05231e-17
484 1 66.384 135.848 -4.05231e-17
485 2 13.4828 174.006 -4.05231e-17
486 1 132.641 72.927 -4.05231e-17
487 1 13.6519 202.395 -4.05231e-17
488 1 50.1945 83.6843 -4.05231e-17
489 1 70.6368 109.246 -4.05231e-17
490 1 164.683 73.4469 -4.05231e-17
491 1 163.102 75.3509 -4.05231e-17
492 2 209.177 15.5222 -4.05231e-17
493 1 93.9635 203.363 -4.05231e-17
494 2 77.6098 66.3858 -4.05231e-17
495 1 150.197 92.2656 -4.05231e-17
496 1 52.4446 122.94 -4.05231e-17
497 1 136.936 110.272 -4.05231e-17
498 2 145.108 39.2686 -4.05231e-17
499 2 177.992 118.88 -4.05231e-17
500 2 57.3257 32.4861 -4.05231e-17
501 2 14.6628 139.462 -4.05231e-17
502 2 191.098 126.612 -4.05231e-17
503 2 57.6526 63.6345 -4.05231e-17
504 2 97.7654 50.4658 -4.05231e-17
505 2 112.131 213.556 -4.05231e-17
506 1 206.883 6.08049 -4.05231e-17
507 2 49.7439 181.843 -4.05231e-17
508 1 140.468 59.2882 -4.05231e-17
509 1 209.317 47.3989 -4.05231e-17
510 1 195.061 104.164 -4.05231e-17
511 2 107.386 181.853 -4.05231e-17
512 1 10.8438 42.7732 -4.05231e-17
513 2 87.7479 183.15 -4.05231e-17
514 2 15.2942 87.3126 -4.05231e-17
515 1 60.7414 98.6897 -4.05231e-17
516 2 101.284 74.1643 -4.05231e-17
517 1 32.6268 147.693 -4.05231e-17
518 2 10.2357 13.9944 -4.05231e-17
519 1 125.206 92.0382 -4.05231e-17
520 2 209.287 93.4258 -4.05231e-17
521 2 129.953 39.8878 -4.05231e-17
522 1 187.026 7.55893 -4.05231e-17
523 1 128.014 99.6862 -4.05231e-17
524 2 174.9 18.4582 -4.05231e-17
525 2 184.9 44.9456 -4.05231e-17
526 2 108.145 16.191 -4.05231e-17
527 1 170.527 25.0716 -4.05231e-17
528 1 213.07 202.068 -4.05231e-17
529 2 104.53 176.386 -4.05231e-17
530 2 18.6127 88.1648 -4.05231e-17
531 2 185.007 172.074 -4.05231e-17
532 1 81.0733 5.26155 -4.05231e-17
533 2 23.4646 158.126 -4.05231e-17
534 1 22.8512 168.741 -4.05231e-17
535 1 169.844 206.682 -4.05231e-17
536 2 18.2597 169.85 -4.05231e-17
537 1 142.136 29.5285 -4.05231e-17
538 1 68.533 157.727 -4.05231e-17
539 2 81.0845 162.859 -4.05231e-17
540 1 35.1588 182.066 -4.05231e-17
541 1 104.95 128.59 -4.05231e-17
542 1 58.6413 126.443 -4.05231e-17
543 2 120.502 168.666 -4.05231e-17
544 1 217.681 211.354 -4.05231e-17
545 1 174.591 71.9916 -4.05231e-17
546 2 186.836 10.284 -4.05231e-17
547 1 12.9491 71.7951 -4.05231e-17
548 1 29.4663 5.60139 -4.05231e-17
549 2 35.2842 152.539 -4.05231e-17
550 2 164.541 193.899 -4.05231e-17
551 2 38.5744 7.49966 -4.05231e-17
552 1 31.7398 51.4797 -4.05231e-17
553 2 207.201 197.041 -4.05231e-17
554 2 144.072 33.9827 -4.05231e-17
555 2 178.202 134.572 -4.05231e-17
556 1 177.205 211.912 -4.05231e-17
557 1 211.082 54.1208 -4.05231e-17
558 1 60.5033 142.447 -4.05231e-17
559 2 106.509 91.2278 -4.05231e-17
560 2 57.5499 89.2852 -4.05231e-17
561 2 110.332 181.277 -4.05231e-17
562 2 98.201 64.8039 -4.05231e-17
563 1 73.4208 167.887 -4.05231e-17
564 2 103.601 78.7479 -4.05231e-17
565 2 33.5288 64.8873 -4.05231e-17
566 2 64.3478 60.3772 -4.05231e-17
567 1 94.9469 11.8082 -4.05231e-17
568 1 22.9498 77.996 -4.05231e-17
569 2 141.567 194.412 -4.05231e-17
570 2 11.8223 21.0934 -4.05231e-17
571 2 5.19243 62.0287 -4.05231e-17
572 1 115.263 107.815 -4.05231e-17
573 2 38.2053 89.6473 -4.05231e-17
574 2 178.961 170.381 -4.05231e-17
575 1 196.127 206.794 -4.05231e-17
576 1 25.6224 68.1419 -4.05231e-17
577 1 127.984 74.9222 -4.05231e-17
578 1 184.237 115.11 -4.05231e-17
579 2 182.267 46.7129 -4.05231e-17
580 1 109.516 103.724 -4.05231e-17
581 1 91.6734 146.198 -4.05231e-17
582 2 125.697 101.172 -4.05231e-17
583 2 103.484 83.9274 -4.05231e-17
584 2 107.192 151.357 -4.05231e-17
585 1 181.771 103.344 -4.05231e-17
586 1 143.898 80.0724 -4.05231e-17
587 1 158.482 111.882 -4.05231e-17
588 2 64.3991 108.51 -4.05231e-17
589 1 210.815 59.1724 -4.05231e-17
590 2 182.076 58.1027 -4.05231e-17
591 2 178.618 16.2954 -4.05231e-17
592 1 204.541 128.257 -4.05231e-17
593 1 127.172 90.2109 -4.05231e-17
594 1 5.37687 70.0629 -4.05231e-17
595 1 32.9912 62.2937 -4.05231e-17
596 2 107.052 71.3008 -4.05231e-17
597 2 63.7041 105.389 -4.05231e-17
598 2 135.969 87.6463 -4.05231e-17
599 2 96.8475 166.005 -4.05231e-17
600 2 49.4525 98.8377 -4.05231e-17
601 1 145.946 108.119 -4.05231e-17
602 1 173.426 52.2665 -4.05231e-17
603 2 216.671 159.677 -4.05231e-17
604 1 46.0288 179.134 -4.05231e-17
605 2 140.246 100.672 -4.05231e-17
606 2 150.534 99.2002 -4.05231e-17
607 2 47.6753 169.333 -4.05231e-17
608 2 127.976 31.1038 -4.05231e-17
609 1 77.8781 89.3017 -4.05231e-17
610 2 105.961 200.213 -4.05231e-17
611 1 1.49242 165.861 -4.05231e-17
612 1 207.486 117.533 -4.05231e-17
613 2 213.66 156.56 -4.05231e-17
614 1 202.559 30.6322 -4.05231e-17
615 1 152.343 104.228 -4.05231e-17
616 2 145.983 177.95 -4.05231e-17
617 1 168.215 1.32795 -4.05231e-17
618 1 136.891 216.636 -4.05231e-17
619 1 164.222 160.908 -4.05231e-17
620 2 43.0246 88.997 -4.05231e-17
621 2 203.317 77.0574 -4.05231e-17
622 2 144.971 154.841 -4.05231e-17
623 2 108.832 147.352 -4.05231e-17
624 1 106.992 177.262 -4.05231e-17
625 2 208.366 79.584 -4.05231e-17
626 1 210.194 190.188 -4.05231e-17
627 2 195.245 193.161 -4.05231e-17
628 1 116.94 156.641 -4.05231e-17
629 1 30.316 41.1637 -4.05231e-17
630 2 133.373 213.952 -4.05231e-17
631 2 144.908 115.412 -4.05231e-17
632 2 208.985 19.9591 -4.05231e-17
633 2 60.7464 131.294 -4.05231e-17
634 2 191.342 67.4699 -4.05231e-17
635 2 79.9093 72.7729 -4.05231e-17
636 1 88.3733 130.893 -4.05231e-17
637 1 217.426 152.791 -4.05231e-17
638 1 116.474 69.1164 -4.05231e-17
639 2 200.475 65.1711 -4.05231e-17
640 2 149.468 78.2502 -4.05231e-17
641 1 200.174 96.7348 -4.05231e-17
642 2 161.792 35.7863 -4.05231e-17
643 1 165.118 57.913 -4.05231e-17
644 2 139.863 154.768 -4.05231e-17
645 2 5.74594 75.1906 -4.05231e-17
646 1 169.93 142.999 -4.05231e-17
647 2 129.279 148.213 -4.05231e-17
648 2 190.456 211.606 -4.05231e-17
649 1 63.6225 145.575 -4.05231e-17
650 1 56.3354 152.99 -4.05231e-17
651 1 112.627 130.905 -4.05231e-17
652 2 8.76196 214.115 -4.05231e-17
653 2 195.32 45.0455 -4.05231e-17
654 1 208.3 164.908 -4.05231e-17
655 1 63.3018 47.5635 -4.05231e-17
656 1 198.92 10.4378 -4.05231e-17
657 1 125.007 120.721 -4.05231e-17
658 2 166.032 105.688 -4.05231e-17
659 2 101.633 137.448 -4.05231e-17
660 1 24.8839 12.0725 -4.05231e-17
661 2 15.5462 36.8959 -4.05231e-17
662 2 135.922 117.143 -4.05231e-17
663 1 163.916 113.135 -4.05231e-17
664 1 79.9344 138.516 -4.05231e-17
665 1 135.431 143.877 -4.05231e-17
666 1 202.974 185.366 -4.05231e-17
667 1 0.583413 116.773 -4.05231e-17
668 1 134.154 156.669 -4.05231e-17
669 1 107.37 160.999 -4.05231e-17
670 2 211.727 161.15 -4.05231e-17
671 1 3.2771 16.1123 -4.05231e-17
672 1 193.879 141.597 -4.05231e-17
673 2 47.6561 84.7489 -4.05231e-17
674 2 182.336 205.632 -4.05231e-17
675 2 152.304 2.18789 -4.05231e-17
676 1 180.525 160.027 -4.05231e-17
677 2 53.4348 53.4057 -4.05231e-17
678 1 87.0095 113.505 -4.05231e-17
679 1 86.7781 65.2259 -4.05231e-17
680 2 71.4579 13.7158 -4.05231e-17
681 1 4.89086 9.5885 -4.05231e-17
682 1 141.599 171.888 -4.05231e-17
683 2 96.3143 123.35 -4.05231e-17
684 1 23.4392 180.499 -4.05231e-17
685 1 83.8461 206.416 -4.05231e-17
686 1 142.44 160.017 -4.05231e-17
687 1 107.519 53.1564 -4.05231e-17
688 1 152.152 97.023 -4.05231e-17
689 2 10.9749 139.504 -4.05231e-17
690 1 48.4181 120.461 -4.05231e-17
691 2 64.8294 114.582 -4.05231e-17
692 2 180.561 179 -4.05231e-17
693 1 161.518 95.9252 -4.05231e-17
694 2 146.848 149.955 -4.05231e-17
695 2 188.45 36.5356 -4.05231e-17
696 2 31.7846 82.2688 -4.05231e-17
697 1 103.975 35.7447 -4.05231e-17
698 2 40.8834 18.016 -4.05231e-17
699 1 57.2282 202.698 -4.05231e-17
700 2 17.9227 126.275 -4.05231e-17
701 2 30.5829 63.5165 -4.05231e-17
702 1 160.153 9.93779 -4.05231e-17
703 1 195.786 60.3977 -4.05231e-17
704 1 160.152 121.961 -4.05231e-17
705 1 43.6123 120.119 -4.05231e-17
706 1 75.5406 161.384 -4.05231e-17
707 1 182.064 66.6806 -4.05231e-17
708 2 195.342 101.517 -4.05231e-17
709 1 54.3018 160.225 -4.05231e-17
710 2 91.5989 16.3104 -4.05231e-17
711 2 1.87183 139.358 -4.05231e-17
712 1 84.1092 213.796 -4.05231e-17
713 1 5.25264 152.646 -4.05231e-17
714 2 144.82 147.672 -4.05231e-17
715 2 133.477 86.8889 -4.05231e-17
716 1 88.8416 60.1887 -4.05231e-17
717 1 14.7215 61.2823 -4.05231e-17
718 2 78.7984 99.6991 -4.05231e-17
719 1 68.6822 202.612 -4.05231e-17
720 2 52.0191 197.211 -4.05231e-17
721 2 44.095 213.422 -4.05231e-17
722 2 65.5112 138.275 -4.05231e-17
723 2 15.7826 165.825 -4.05231e-17
724 2 202.48 106.984 -4.05231e-17
725 2 21.7577 50.1897 -4.05231e-17
726 2 178.214 124.04 -4.05231e-17
727 2 35.2141 109.565 -4.05231e-17
728 1 176.418 76.9939 -4.05231e-17
729 2 167.578 131.782 -4.05231e-17
730 2 175.167 94.4132 -4.05231e-17
731 1 10.4408 23.2708 -4.05231e-17
732 2 98.1256 87.0479 -4.05231e-17
733 2 147.768 146.611 -4.05231e-17
734 2 59.3272 191.697 -4.05231e-17
735 2 149.061 71.7419 -4.05231e-17
736 1 182.239 176.742 -4.05231e-17
737 2 48.7242 39.442 -4.05231e-17
738 2 71.3691 207.682 -4.05231e-17
739 2 186.044 131.359 -4.05231e-17
740 2 40.6257 115.523 -4.05231e-17
741 2 200.952 113.614 -4.05231e-17
742 1 72.0074 99.053 -4.05231e-17
743 2 78.9393 75.987 -4.05231e-17
744 1 146.487 49.927 -4.05231e-17
745 2 15.9535 75.6279 -4.05231e-17
746 1 0.133088 121.358 -4.05231e-17
747 1 98.4118 163.419 -4.05231e-17
748 2 70.0005 197.53 -4.05231e-17
749 1 213.517 166.226 -4.05231e-17
750 1 139.179 147.247 -4.05231e-17
751 1 143.106 89.1571 -4.05231e-17
752 2 195.249 168.661 -4.05231e-17
753 1 37.3059 180.409 -4.05231e-17
754 2 66.0671 80.9594 -4.05231e-17
755 1 6.43054 80.3819 -4.05231e-17
756 2 178.707 57.895 -4.05231e-17
757 1 110.704 15.2869 -4.05231e-17
758 2 99.3249 28.0599 -4.05231e-17
759 1 95.8965 133.527 -4.05231e-17
760 1 170.875 61.6316 -4.05231e-17
761 2 213.177 100.591 -4.05231e-17
762 1 178.561 106.339 -4.05231e-17
763 2 6.43003 157.653 -4.05231e-17
764 2 43.5716 188.036 -4.05231e-17
765 1 22.1047 160.375 -4.05231e-17
766 2 99.6637 48.0331 -4.05231e-17
767 2 206.497 149.032 -4.05231e-17
768 2 72.1118 62.2079 -4.05231e-17
769 2 188.222 98.3907 -4.05231e-17
770 1 133.781 18.4331 -4.05231e-17
771 1 64.6932 63.1292 -4.05231e-17
772 1 128.751 0.63203 -4.05231e-17
773 2 166.731 172.195 -4.05231e-17
774 1 88.0875 86.9345 -4.05231e-17
775 1 102.968 76.1551 -4.05231e-17
776 2 192.52 103.399 -4.05231e-17
777 2 42.3353 79.7901 -4.05231e-17
778 1 83.1938 12.9906 -4.05231e-17
779 1 47.838 61.3427 -4.05231e-17
780 2 83.2449 49.9974 -4.05231e-17
781 1 26.0446 171.861 -4.05231e-17
782 2 123.007 170.452 -4.05231e-17
783 1 74.3803 63.2475 -4.05231e-17
784 2 96.5598 110.176 -4.05231e-17
785 1 204.138 82.2472 -4.05231e-17
786 1 41.1484 7.15915 -4.05231e-17
787 2 38.0764 208.692 -4.05231e-17
788 2 164.877 180.306 -4.05231e-17
789 2 18.7715 146.937 -4.05231e-17
790 2 77.4632 8.49761 -4.05231e-17
791 2 186.325 53.4527 -4.05231e-17
792 1 213.475 132.408 -4.05231e-17
793 1 96.8561 171.802 -4.05231e-17
794 2 209.747 6.55221 -4.05231e-17
795 2 10.7377 191.624 -4.05231e-17
796 1 69.3073 215.289 -4.05231e-17
797 1 45.8303 32.3285 -4.05231e-17
798 1 213.345 55.5125 -4.05231e-17
799 2 105.776 155.738 -4.05231e-17
800 1 56.4852 36.9753 -4.05231e-17
801 2 68.5044 84.6884 -4.05231e-17
802 1 90.9683 216.676 -4.05231e-17
803 1 142.947 24.8616 -4.05231e-17
804 1 210.437 124.809 -4.05231e-17
805 2 183.86 117.92 -4.05231e-17
806 2 178.614 158.079 -4.05231e-17
807 2 208.254 29.4795 -4.05231e-17
808 2 76.4793 144.518 -4.05231e-17
809 1 175.624 62.733 -4.05231e-17
810 2 24.1656 173.839 -4.05231e-17
811 2 180.376 55.7204 -4.05231e-17
812 1 121.684 184.822 -4.05231e-17
813 1 22.0038 95.604 -4.05231e-17
814 1 3.00431 204.615 -4.05231e-17
815 1 145.924 32.0441 -4.05231e-17
816 1 206.6 51.1665 -4.05231e-17
817 2 63.2444 70.8318 -4.05231e-17
818 2 29.7792 122.75 -4.05231e-17
819 2 210.782 67.8283 -4.05231e-17
820 1 9.39105 59.1535 -4.05231e-17
821 1 64.957 57.9701 -4.05231e-17
822 2 131.085 34.6504 -4.05231e-17
823 1 183.772 90.2624 -4.05231e-17
824 1 175.753 89.8962 -4.05231e-17
825 1 160.361 190.873 -4.05231e-17
826 2 178.271 81.7091 -4.05231e-17
827 2 102.229 26.9853 -4.05231e-17
828 1 50.6332 91.3303 -4.05231e-17
829 2 127.784 92.8953 -4.05231e-17
830 1 3.81036 156.877 -4.05231e-17
831 2 183.287 218.085 -4.05231e-17
832 2 26.7698 52.2895 -4.05231e-17
833 2 96.2176 42.008 -4.05231e-17
834 1 71.0019 163.975 -4.05231e-17
835 1 185.055 141.365 -4.05231e-17
836 1 153.074 69.7177 -4.05231e-17
837 2 168.074 91.9293 -4.05231e-17
838 2 91.8035 26.803 -4.05231e-17
839 1 38.8423 32.0611 -4.05231e-17
840 2 13.8548 117.316 -4.05231e-17
841 2 201.51 10.4095 -4.05231e-17
842 1 173.045 159.424 -4.05231e-17
843 1 205.198 29.632 -4.05231e-17
844 2 8.75754 25.2127 -4.05231e-17
845 1 47.2553 150.85 -4.05231e-17
846 2 127.492 211.51 -4.05231e-17
847 1 88.5129 142.894 -4.05231e-17
848 2 112.517 8.94486 -4.05231e-17
849 1 24.722 33.2934 -4.05231e-17
850 2 60.0664 67.0849 -4.05231e-17
851 2 216.209 30.7299 -4.05231e-17
852 1 137.376 183.028 -4.05231e-17
853 1 185.811 104.867 -4.05231e-17
854 2 104.464 144.881 -4.05231e-17
855 2 165.92 121.221 -4.05231e-17
856 1 77.6463 159.958 -4.05231e-17