ITEM: TIMESTEP
0
ITEM: NUMBER OF ATOMS
7200
ITEM: BOX BOUNDS xy xz yz pp pp pp
0.0000000000000000e+00 2.1900000000000000e+02 0.0000000000000000e+00
0.0000000000000000e+00 2.1900000000000000e+02 0.0000000000000000e+00
-3.6499999999999999e-01 3.6499999999999999e-01 0.0000000000000000e+00
ITEM: ATOMS id type x y z
1 1 183.029 12.8112 -4.05231e-17
2 2 188.125 183.668 -4.05231e-17
3 2 144.765 189.398 -4.05231e-17
4 1 123.003 110.164 -4.05231e-17
5 1 100.961 122.439 -4.05231e-17
6 1 104.417 25.1291 -4.05231e-17
7 2 158.662 129.048 -4.05231e-17
8 2 69.9906 25.5439 -4.05231e-17
9 1 21.8874 215.098 -4.05231e-17
10 2 52.3658 166.864 -4.05231e-17
11 2 210.08 100.449 -4.05231e-17
12 1 33.8994 197.884 -4.05231e-17
13 2 194.495 54.0047 -4.05231e-17
14 1 57.4419 184.607 -4.05231e-17
15 2 193.496 218.915 -4.05231e-17
16 2 218.504 85.7952 -4.05231e-17
17 1 67.5588 74.3827 -4.05231e-17
18 2 10.3378 172.532 -4.05231e-17
19 1 92.6405 130.252 -4.05231e-17
20 1 72.5513 10.7445 -4.05231e-17
21 1 156.897 7.89549 -4.05231e-17
22 2 31.6896 212.609 -4.05231e-17
23 2 43.2821 208.387 -4.05231e-17
24 2 218.741 103.119 -4.05231e-17
25 2 30.0721 207.79 -4.05231e-17
26 2 149.512 27.8617 -4.05231e-17
27 1 217.287 162.623 -4.05231e-17
28 2 54.2578 154.956 -4.05231e-17
29 2 83.8154 3.53927 -4.05231e-17
30 2 131.93 37.3134 -4.05231e-17
31 2 156.782 83.7411 -4.05231e-17
32 1 48.0691 108.887 -4.05231e-17
33 2 145.165 87.013 -4.05231e-17
34 2 16.2156 96.0121 -4.05231e-17
35 2 127.237 11.4816 -4.05231e-17
36 1 160.315 146.549 -4.05231e-17
37 1 133.697 185.146 -4.05231e-17
38 2 209.128 158.095 -4.05231e-17
39 1 7.83555 38.4098 -4.05231e-17
40 2 196.455 73.9052 -4.05231e-17
41 1 192.997 73.4247 -4.05231e-17
42 1 55.0415 58.9329 -4.05231e-17
43 1 210.426 132.116 -4.05231e-17
44 1 155.403 188.746 -4.05231e-17
45 2 159.369 61.1196 -4.05231e-17
46 1 124.394 192.506 -4.05231e-17
47 2 89.2281 80.409 -4.05231e-17
48 2 150.483 129.521 -4.05231e-17
49 1 194.473 200.189 -4.05231e-17
50 2 29.2322 47.4423 -4.05231e-17
51 1 186.752 2.97081 -4.05231e-17
52 1 115.512 47.9013 -4.05231e-17
53 2 54.8519 200.991 -4.05231e-17
54 1 38.7932 16.6412 -4.05231e-17
55 2 53.5245 141.446 -4.05231e-17
56 1 31.2564 132.586 -4.05231e-17
57 2 58.2535 133.84 -4.05231e-17
58 1 183.927 33.6533 -4.05231e-17
59 1 157.698 86.2527 -4.05231e-17
60 2 206.496 59.7173 -4.05231e-17
61 1 157.081 164.576 -4.05231e-17
62 1 106.769 111.5 -4.05231e-17
63 2 108.767 38.8232 -4.05231e-17
64 1 28.123 17.9821 -4.05231e-17
65 2 152.457 149.431 -4.05231e-17
66 2 13.3982 154.834 -4.05231e-17
67 2 182.916 107.774 -4.05231e-17
68 1 136.672 83.0331 -4.05231e-17
69 2 109.443 168.594 -4.05231e-17
70 1 141.757 97.7972 -4.05231e-17
71 1 198.038 147.87 -4.05231e-17
72 2 44.8862 157.515 -4.05231e-17
73 2 191.985 179.68 -4.05231e-17
74 2 111.354 67.063 -4.05231e-17
75 1 14.7975 136.935 -4.05231e-17
76 2 138.202 206.444 -4.05231e-17
77 2 168.99 15.6101 -4.05231e-17
78 1 93.4556 207.786 -4.05231e-17
79 2 60.4143 76.0113 -4.05231e-17
80 1 50.0953 22.7161 -4.05231e-17
81 1 181.59 211.121 -4.05231e-17
82 1 173.284 41.2912 -4.05231e-17
83 1 71.063 91.1426 -4.05231e-17
84 2 140.82 179.53 -4.05231e-17
85 2 150.997 146.222 -4.05231e-17
86 2 50.9367 67.7945 -4.05231e-17
87 2 38.3342 75.6038 -4.05231e-17
88 1 80.6905 157.314 -4.05231e-17
89 2 199.632 105.606 -4.05231e-17
90 2 126.044 36.1147 -4.05231e-17
91 2 11.2345 182.406 -4.05231e-17
92 1 27.6244 215.31 -4.05231e-17
93 2 110.181 154.529 -4.05231e-17
94 2 112.916 143.985 -4.05231e-17
95 1 211.284 52.0082 -4.05231e-17
96 2 31.9098 54.4256 -4.05231e-17
97 2 4.59331 211.711 -4.05231e-17
98 2 35.6682 185.308 -4.05231e-17
99 1 105.146 9.43058 -4.05231e-17
100 2 159.087 65.8318 -4.05231e-17
101 1 184.1 110.1 -4.05231e-17
102 1 66.3519 164.313 -4.05231e-17
103 2 204.778 100.548 -4.05231e-17
104 2 104.063 72.9747 -4.05231e-17
105 1 160.658 58.8039 -4.05231e-17
106 1 185.336 60.6501 -4.05231e-17
107 1 12.4984 107.242 -4.05231e-17
108 1 69.9954 209.959 -4.05231e-17
109 2 217.41 39.4095 -4.05231e-17
110 2 145.05 29.5688 -4.05231e-17
111 1 52.9481 92.4396 -4.05231e-17
112 2 8.55143 50.9964 -4.05231e-17
113 1 135.107 10.8003 -4.05231e-17
114 1 92.1743 86.7386 -4.05231e-17
115 2 32.4288 59.8921 -4.05231e-17
116 2 184.004 15.3459 -4.05231e-17
117 1 162.92 110.723 -4.05231e-17
118 1 82.7658 94.4568 -4.05231e-17
119 2 99.1896 139.419 -4.05231e-17
120 2 201.456 58.8477 -4.05231e-17
121 1 205.184 139.287 -4.05231e-17
122 2 143.367 129.932 -4.05231e-17
123 2 6.86443 129.823 -4.05231e-17
124 1 161.88 200.136 -4.05231e-17
125 1 88.2764 192.614 -4.05231e-17
126 2 97.6007 84.0232 -4.05231e-17
127 2 208.881 110.996 -4.05231e-17
128 1 121.742 105.009 -4.05231e-17
129 1 144.311 194.397 -4.05231e-17
130 2 120.058 61.4774 -4.05231e-17
131 1 133.939 60.2784 -4.05231e-17
132 1 139.688 22.01 -4.05231e-17
133 1 181.03 105.647 -4.05231e-17
134 1 80.9246 191.416 -4.05231e-17
135 2 177.935 61.164 -4.05231e-17
136 1 190.606 118.975 -4.05231e-17
137 1 60.7619 7.39532 -4.05231e-17
138 2 156.311 158.957 -4.05231e-17
139 1 132.67 11.8538 -4.05231e-17
140 1 145.123 208.372 -4.05231e-17
141 1 51.2161 70.4587 -4.05231e-17
142 1 213.22 191.04 -4.05231e-17
143 1 26.2901 26.249 -4.05231e-17
144 1 46.6469 97.9056 -4.05231e-17
145 2 193.318 80.2898 -4.05231e-17
146 1 153.536 125.707 -4.05231e-17
147 2 16.5055 134.616 -4.05231e-17
148 1 24.3615 133.221 -4.05231e-17
149 1 147.556 190.25 -4.05231e-17
150 2 65.8308 52.2257 -4.05231e-17
151 1 132.366 137.939 -4.05231e-17
152 1 164.098 163.818 -4.05231e-17
153 2 124.149 130.241 -4.05231e-17
154 1 184.23 52.8313 -4.05231e-17
155 2 203.327 40.1691 -4.05231e-17
156 2 109.504 196.87 -4.05231e-17
157 2 166.595 29.2968 -4.05231e-17
158 2 27.6546 7.67409 -4.05231e-17
159 2 12.1981 159.15 -4.05231e-17
160 2 120.543 54.9925 -4.05231e-17
161 2 129.818 138.591 -4.05231e-17
162 1 23.6118 67.0662 -4.05231e-17
163 1 188.642 34.0437 -4.05231e-17
164 2 108.047 134.183 -4.05231e-17
165 1 48.988 72.113 -4.05231e-17
166 2 6.09678 199.974 -4.05231e-17
167 1 107.071 167.357 -4.05231e-17
168 1 211.312 103.079 -4.05231e-17
169 2 98.1134 198.992 -4.05231e-17
170 1 66.1659 206.341 -4.05231e-17
171 1 137.628 92.2621 -4.05231e-17
172 1 199.582 199.836 -4.05231e-17
173 1 39.0827 204.399 -4.05231e-17
174 2 38.5588 173.334 -4.05231e-17
175 2 49.9512 200.019 -4.05231e-17
176 1 119.865 151.571 -4.05231e-17
177 2 105.023 15.1503 -4.05231e-17
178 1 25.0506 7.49819 -4.05231e-17
179 2 106.423 197.164 -4.05231e-17
180 1 47.0277 76.3856 -4.05231e-17
181 1 15.9203 119.487 -4.05231e-17
182 1 113.503 86.713 -4.05231e-17
183 1 63.8345 168.723 -4.05231e-17
184 2 157.74 25.5785 -4.05231e-17
185 2 190.162 78.7471 -4.05231e-17
186 2 74.3087 206.044 -4.05231e-17
187 2 159.511 201.723 -4.05231e-17
188 2 60.3052 28.5529 -4.05231e-17
189 1 191.253 57.7652 -4.05231e-17
190 1 196.593 55.6375 -4.05231e-17
191 2 35.3117 104.802 -4.05231e-17
192 2 89.2477 59.8407 -4.05231e-17
193 1 108.766 165.755 -4.05231e-17
194 1 26.5031 5.38295 -4.05231e-17
195 2 58.2912 119.946 -4.05231e-17
196 1 218.912 218.87 -4.05231e-17
197 2 119.089 50.5462 -4.05231e-17
198 2 206.108 27.2555 -4.05231e-17
199 2 99.6624 170.58 -4.05231e-17
200 2 98.7722 30.9274 -4.05231e-17
201 2 103.348 121.099 -4.05231e-17
202 1 43.7825 34.0185 -4.05231e-17
203 1 18.3777 42.9058 -4.05231e-17
204 2 45.0225 78.5375 -4.05231e-17
205 2 183.087 182.212 -4.05231e-17
206 2 170.826 127.398 -4.05231e-17
207 1 74.6442 189.249 -4.05231e-17
208 2 134.814 54.4614 -4.05231e-17
209 2 32.9577 142.462 -4.05231e-17
210 1 182.083 113.416 -4.05231e-17
211 1 208.705 35.3504 -4.05231e-17
212 1 208.465 85.3149 -4.05231e-17
213 1 128.041 123.664 -4.05231e-17
214 2 11.9621 11.4684 -4.05231e-17
215 1 5.6773 142.555 -4.05231e-17
216 1 55.151 46.6278 -4.05231e-17
217 1 164.259 61.6952 -4.05231e-17
218 2 201.016 121.399 -4.05231e-17
219 2 136.311 189.638 -4.05231e-17
220 1 121.005 1.34032 -4.05231e-17
221 2 83.2297 6.65854 -4.05231e-17
222 1 158.712 157.619 -4.05231e-17
223 1 45.797 120.519 -4.05231e-17
224 2 146.04 70.6512 -4.05231e-17
225 2 168.852 163.973 -4.05231e-17
226 1 196.392 10.022 -4.05231e-17
227 2 203.191 214.776 -4.05231e-17
228 2 117.59 63.4245 -4.05231e-17
229 1 47.4694 22.4079 -4.05231e-17
230 1 4.74178 57.0205 -4.05231e-17
231 2 137.757 160.77 -4.05231e-17
232 1 18.0667 212.665 -4.05231e-17
233 2 75.8436 195.788 -4.05231e-17
234 1 0.79173 60.0821 -4.05231e-17
235 1 150.15 105.992 -4.05231e-17
236 2 153.341 52.9657 -4.05231e-17
237 2 99.4945 203.577 -4.05231e-17
238 2 94.8684 140.621 -4.05231e-17
239 1 35.2249 216.834 -4.05231e-17
240 1 129.755 90.8917 -4.05231e-17
241 2 3.53247 124.761 -4.05231e-17
242 1 194.25 28.4954 -4.05231e-17
243 2 215.171 130.433 -4.05231e-17
244 2 35.6287 190.982 -4.05231e-17
245 1 174.12 21.2714 -4.05231e-17
246 2 90.0478 85.4359 -4.05231e-17
247 2 198.721 150.683 -4.05231e-17
248 1 38.1162 26.8755 -4.05231e-17
249 1 131.832 108.333 -4.05231e-17
250 1 134.512 27.7846 -4.05231e-17
251 2 101.965 43.2093 -4.05231e-17
252 1 111.146 156.809 -4.05231e-17
253 2 95.7198 97.5 -4.05231e-17
254 2 179.368 205.334 -4.05231e-17
255 2 122.323 50.3278 -4.05231e-17
256 1 3.20867 180.181 -4.05231e-17
257 2 32.4803 195.386 -4.05231e-17
258 1 210.913 81.4423 -4.05231e-17
259 2 160.853 141.552 -4.05231e-17
260 1 40.2993 192.773 -4.05231e-17
261 2 142.873 176.841 -4.05231e-17
262 2 186.597 110.699 -4.05231e-17
263 2 94.2486 172.781 -4.05231e-17
264 1 199.265 36.6022 -4.05231e-17
265 1 157.573 187.222 -4.05231e-17
266 1 98.9954 196.476 -4.05231e-17
267 2 115.383 16.2588 -4.05231e-17
268 1 218.42 49.1051 -4.05231e-17
269 2 9.99587 113.675 -4.05231e-17
270 2 185.351 148.918 -4.05231e-17
271 2 187.761 95.0565 -4.05231e-17
272 1 59.1824 26.0233 -4.05231e-17
273 1 70.5082 83.1713 -4.05231e-17
274 1 38.1189 196.578 -4.05231e-17
275 1 146.812 109.959 -4.05231e-17
276 1 199.075 74.9328 -4.05231e-17
277 1 100.308 37.7712 -4.05231e-17
278 2 61.1807 145.476 -4.05231e-17
279 2 160.474 86.584 -4.05231e-17
280 1 117.034 210.555 -4.05231e-17
281 2 169.992 182.35 -4.05231e-17
282 2 74.944 126.984 -4.05231e-17
283 2 0.00773272 151.212 -4.05231e-17
284 1 125.991 113.543 -4.05231e-17
285 1 73.2378 165.384 -4.05231e-17
286 2 30.1603 180.151 -4.05231e-17
287 2 93.4249 109.938 -4.05231e-17
288 1 104.725 123.47 -4.05231e-17
289 2 194.028 56.9317 -4.05231e-17
290 1 101.167 29.7679 -4.05231e-17
291 2 96.5011 185.828 -4.05231e-17
292 1 77.0363 125.282 -4.05231e-17
293 1 158.925 168.113 -4.05231e-17
294 1 29.8151 177.635 -4.05231e-17
295 2 46.67 145.676 -4.05231e-17
296 1 196.989 176.946 -4.05231e-17
297 1 2.03713 18.494 -4.05231e-17
298 2 30.4672 140.966 -4.05231e-17
299 1 177.394 55.7609 -4.05231e-17
300 2 190.32 192.943 -4.05231e-17
301 2 172.221 19.3968 -4.05231e-17
302 2 163.762 89.2784 -4.05231e-17
303 1 2.54357 151.858 -4.05231e-17
304 1 124.378 105.772 -4.05231e-17
305 1 92.1892 177.465 -4.05231e-17
306 2 83.8961 17.3718 -4.05231e-17
307 2 150.343 167.653 -4.05231e-17
308 2 142.271 22.541 -4.05231e-17
309 1 70.575 71.7549 -4.05231e-17
310 1 190.421 190.35 -4.05231e-17
311 1 150.858 108.483 -4.05231e-17
312 2 134.859 13.5229 -4.05231e-17
313 2 155.453 17.7959 -4.05231e-17
314 1 184.367 58.4265 -4.05231e-17
315 2 56.7533 108.06 -4.05231e-17
316 1 95.8149 30.8017 -4.05231e-17
317 1 133.005 175.667 -4.05231e-17
318 1 216.813 135.748 -4.05231e-17
319 2 74.2477 200.819 -4.05231e-17
320 1 213.916 48.1975 -4.05231e-17
321 1 52.6523 87.2367 -4.05231e-17
322 1 51.3075 148.152 -4.05231e-17
323 2 20.0495 138.854 -4.05231e-17
324 2 8.09252 95.6988 -4.05231e-17
325 2 216.198 13.564 -4.05231e-17
326 1 185.006 1.12619 -4.05231e-17
327 1 35.6263 46.0761 -4.05231e-17
328 2 32.7647 192.378 -4.05231e-17
329 2 28.7388 83.5784 -4.05231e-17
330 2 153.399 38.7745 -4.05231e-17
331 2 187.86 67.9073 -4.05231e-17
332 2 121.374 114.541 -4.05231e-17
333 2 27.9789 151.466 -4.05231e-17
334 2 215.903 18.1687 -4.05231e-17
335 1 166.957 211.424 -4.05231e-17
336 2 27.7314 142.032 -4.05231e-17
337 2 40.6432 9.61538 -4.05231e-17
338 1 203.448 90.6482 -4.05231e-17
339 2 15.2225 152.541 -4.05231e-17
340 2 176.892 214.337 -4.05231e-17
341 2 101.292 60.3266 -4.05231e-17
342 2 173.446 166.707 -4.05231e-17
343 2 176.288 4.97889 -4.05231e-17
344 1 88.0492 105.774 -4.05231e-17
345 2 26.5887 213.087 -4.05231e-17
346 2 75.3855 72.7461 -4.05231e-17
347 1 147.885 98.4813 -4.05231e-17
348 1 181.53 3.8643 -4.05231e-17
349 2 173.375 70.054 -4.05231e-17
350 2 77.9275 178.866 -4.05231e-17
351 1 174.821 141.724 -4.05231e-17
352 1 212.912 163.899 -4.05231e-17
353 2 141.105 131.785 -4.05231e-17
354 2 191.321 176.571 -4.05231e-17
355 1 215.893 157.38 -4.05231e-17
356 2 115.006 1.40757 -4.05231e-17
357 1 127.024 192.351 -4.05231e-17
358 1 77.8612 25.3511 -4.05231e-17
359 1 34.9173 144.073 -4.05231e-17
360 1 51.1087 8.14754 -4.05231e-17
361 2 196.503 68.7485 -4.05231e-17
362 2 172.327 94.4806 -4.05231e-17
363 1 79.0649 214.921 -4.05231e-17
364 2 216.996 46.8202 -4.05231e-17
365 1 5.73615 164.455 -4.05231e-17
366 1 82.5085 172.728 -4.05231e-17
367 1 161.277 103.944 -4.05231e-17
368 1 20.9037 164.683 -4.05231e-17
369 2 81.7947 143.633 -4.05231e-17
370 1 6.42828 132.432 -4.05231e-17
371 2 71.4029 111.246 -4.05231e-17
372 1 88.0043 6.38436 -4.05231e-17
373 2 118.031 208.282 -4.05231e-17
374 2 176.954 101.633 -4.05231e-17
375 1 136.18 25.8945 -4.05231e-17
376 1 121.862 147.25 -4.05231e-17
377 2 95.2303 75.8732 -4.05231e-17
378 2 215.646 107.227 -4.05231e-17
379 2 169.731 187.155 -4.05231e-17
380 1 199.893 33.9982 -4.05231e-17
381 1 175.04 67.9047 -4.05231e-17
382 1 122.353 26.9545 -4.05231e-17
383 1 110.217 83.1092 -4.05231e-17
384 2 54.1971 100.993 -4.05231e-17
385 1 66.0455 148.632 -4.05231e-17
386 2 179.902 175.57 -4.05231e-17
387 1 34.5545 107.271 -4.05231e-17
388 1 143.9 164.311 -4.05231e-17
389 2 216.014 121.437 -4.05231e-17
390 1 104.837 65.8526 -4.05231e-17
391 1 203.209 217.382 -4.05231e-17
392 2 4.17682 100.511 -4.05231e-17
393 2 192.815 173.83 -4.05231e-17
394 1 36.454 204.13 -4.05231e-17
395 1 19.2361 215.135 -4.05231e-17
396 2 75.2814 88.1669 -4.05231e-17
397 1 67.4711 41.9505 -4.05231e-17
398 2 165.578 110.907 -4.05231e-17
399 2 196.973 106.883 -4.05231e-17
400 2 123.517 69.0136 -4.05231e-17
401 2 83.9887 190.567 -4.05231e-17
402 1 84.3331 42.7502 -4.05231e-17
403 1 69.7257 116.433 -4.05231e-17
404 2 112.981 13.8769 -4.05231e-17
405 1 49.2947 197.098 -4.05231e-17
406 2 217.072 96.0799 -4.05231e-17
407 1 123.663 78.632 -4.05231e-17
408 1 130.07 29.3689 -4.05231e-17
409 2 214.424 116.353 -4.05231e-17
410 2 70.6299 159.051 -4.05231e-17
411 1 136.514 96.721 -4.05231e-17
412 1 164.515 6.8569 -4.05231e-17
413 1 35.2657 85.9564 -4.05231e-17
414 2 193.332 202.585 -4.05231e-17
415 1 107.463 126.251 -4.05231e-17
416 1 176.133 51.8512 -4.05231e-17
417 2 107.074 128.894 -4.05231e-17
418 2 34.6321 179.745 -4.05231e-17
419 2 195.448 92.0663 -4.05231e-17
420 2 108.547 44.1667 -4.05231e-17
421 1 70.2458 30.7275 -4.05231e-17
422 1 34.5201 58.2843 -4.05231e-17
423 2 116.613 124.735 -4.05231e-17
424 2 39.096 24.4541 -4.05231e-17
425 2 117.137 150.397 -4.05231e-17
426 1 185.784 96.8726 -4.05231e-17
427 2 74.7589 60.4813 -4.05231e-17
428 1 29.4649 175.003 -4.05231e-17
429 2 131.702 149.906 -4.05231e-17
430 2 111.627 104.269 -4.05231e-17
431 1 13.0987 9.09007 -4.05231e-17
432 2 173.963 3.24412 -4.05231e-17
433 1 186.69 198.813 -4.05231e-17
434 1 20.2386 205.055 -4.05231e-17
435 1 149.938 85.1051 -4.05231e-17
436 2 85.2197 198.772 -4.05231e-17
437 2 181.124 82.8077 -4.05231e-17
438 2 194.131 177.606 -4.05231e-17
439 2 92.8399 10.4029 -4.05231e-17
440 2 201.39 92.1799 -4.05231e-17
441 1 131.012 167.442 -4.05231e-17
442 1 38.0209 104.707 -4.05231e-17
443 2 79.1791 81.883 -4.05231e-17
444 1 204.482 105.288 -4.05231e-17
445 1 169.365 133.098 -4.05231e-17
446 2 182.867 150.789 -4.05231e-17
447 2 40.1454 40.1847 -4.05231e-17
448 2 205.976 176.175 -4.05231e-17
449 1 41.0953 177.369 -4.05231e-17
450 1 10.3697 126.479 -4.05231e-17
451 1 54.0046 209.116 -4.05231e-17
452 2 208.805 61.2499 -4.05231e-17
453 1 216.468 150.416 -4.05231e-17
454 1 3.40224 68.9125 -4.05231e-17
455 2 81.3205 131.19 -4.05231e-17
456 1 85.3161 1.53828 -4.05231e-17
457 2 140.661 145.07 -4.05231e-17
458 2 155.542 135.627 -4.05231e-17
459 2 133.152 51.5672 -4.05231e-17
460 1 197.246 170.203 -4.05231e-17
461 1 112.006 128.173 -4.05231e-17
462 1 104.057 195.844 -4.05231e-17
463 2 110.413 218.353 -4.05231e-17
464 2 13.795 78.0773 -4.05231e-17
465 1 123.847 16.2052 -4.05231e-17
466 2 150.8 126.174 -4.05231e-17
467 2 65.7977 133.269 -4.05231e-17
468 2 123.84 125.378 -4.05231e-17
469 2 58.1293 71.3497 -4.05231e-17
470 2 208.686 154.897 -4.05231e-17
471 2 212.05 211.543 -4.05231e-17
472 2 110.905 36.7287 -4.05231e-17
473 2 197.907 214.514 -4.05231e-17
474 2 85.1284 146.986 -4.05231e-17
475 1 164.088 183.207 -4.05231e-17
476 2 175.053 34.754 -4.05231e-17
477 1 208.727 218.123 -4.05231e-17
478 1 45.9926 188.205 -4.05231e-17
479 2 0.862684 197.57 -4.05231e-17
480 1 82.8417 61.7824 -4.05231e-17
481 1 3.05322 209.594 -4.05231e-17
482 2 152.829 176.763 -4.05231e-17
483 1 134.668 209.373 -4.05231e-17
484 1 66.1604 135.866 -4.05231e-17
485 2 13.5394 174 -4.05231e-17
486 1 132.611 72.9942 -4.05231e-17
487 1 13.3538 202.205 -4.05231e-17
488 1 50.0958 83.7111 -4.05231e-17
489 1 70.3689 108.929 -4.05231e-17
490 1 164.773 73.2016 -4.05231e-17
491 1 163.327 75.3109 -4.05231e-17
492 2 209.099 15.5148 -4.05231e-17
493 1 94.0471 202.888 -4.05231e-17
494 2 77.7693 66.2368 -4.05231e-17
495 1 150.105 91.9031 -4.05231e-17
496 1 52.0959 123.691 -4.05231e-17
497 1 136.874 109.925 -4.05231e-17
498 2 145.204 39.1508 -4.05231e-17
499 2 177.582 119.03 -4.05231e-17
500 2 56.9296 32.4097 -4.05231e-17
501 2 14.6807 139.568 -4.05231e-17
502 2 190.726 126.931 -4.05231e-17
503 2 57.7668 63.4962 -4.05231e-17
504 2 98.0778 50.2162 -4.05231e-17
505 2 112.259 213.539 -4.05231e-17
506 1 207.19 6.26099 -4.05231e-17
507 2 49.3632 182.277 -4.05231e-17
508 1 140.683 59.3507 -4.05231e-17
509 1 209.325 47.5517 -4.05231e-17
510 1 195.215 104.498 -4.05231e-17
511 2 108.337 179.232 -4.05231e-17
512 1 10.9011 42.8399 -4.05231e-17
513 2 87.9672 183.124 -4.05231e-17
514 2 15.2021 87.5757 -4.05231e-17
515 1 60.3833 98.7795 -4.05231e-17
516 2 100.963 73.6972 -4.05231e-17
517 1 32.5106 147.951 -4.05231e-17
518 2 10.0975 13.8301 -4.05231e-17
519 1 125.19 91.9607 -4.05231e-17
520 2 209.366 94.0644 -4.05231e-17
521 2 129.868 40.1304 -4.05231e-17
522 1 187.346 7.63375 -4.05231e-17
523 1 127.517 99.5867 -4.05231e-17
524 2 175.215 18.7942 -4.05231e-17
525 2 185.276 45.5654 -4.05231e-17
526 2 108.065 15.8729 -4.05231e-17
527 1 170.7 25.1477 -4.05231e-17
528 1 213.03 201.937 -4.05231e-17
529 2 104.796 176.084 -4.05231e-17
530 2 18.4644 88.4511 -4.05231e-17
531 2 184.85 171.827 -4.05231e-17
532 1 81.2855 4.83434 -4.05231e-17
533 2 23.4365 158.232 -4.05231e-17
534 1 22.5796 168.463 -4.05231e-17
535 1 169.805 206.911 -4.05231e-17
536 2 18.1589 169.696 -4.05231e-17
537 1 142.479 29.1832 -4.05231e-17
538 1 68.1988 157.88 -4.05231e-17
539 2 80.9012 163.221 -4.05231e-17
540 1 35.0474 182.39 -4.05231e-17
541 1 104.066 128.719 -4.05231e-17
542 1 58.4129 126.521 -4.05231e-17
543 2 120.405 168.438 -4.05231e-17
544 1 217.764 211.469 -4.05231e-17
545 1 174.828 72.275 -4.05231e-17
546 2 186.938 10.0757 -4.05231e-17
547 1 12.9175 71.9311 -4.05231e-17
548 1 29.3025 5.54323 -4.05231e-17
549 2 35.2077 152.696 -4.05231e-17
550 2 165.002 193.328 -4.05231e-17
551 2 38.6488 7.12955 -4.05231e-17
552 1 31.7617 51.8394 -4.05231e-17
553 2 207.164 196.741 -4.05231e-17
554 2 144.172 34.061 -4.05231e-17
555 2 177.867 134.798 -4.05231e-17
556 1 177.477 211.875 -4.05231e-17
557 1 211.186 54.4329 -4.05231e-17
558 1 60.2683 142.873 -4.05231e-17
559 2 106.013 91.2646 -4.05231e-17
560 2 57.2749 89.3386 -4.05231e-17
561 2 110.9 181.307 -4.05231e-17
562 2 98.969 65.656 -4.05231e-17
563 1 73.2422 168.038 -4.05231e-17
564 2 103.319 78.4619 -4.05231e-17
565 2 33.4772 65.2792 -4.05231e-17
566 2 64.3941 60.3395 -4.05231e-17
567 1 95.3225 11.546 -4.05231e-17
568 1 22.6898 78.0568 -4.05231e-17
569 2 141.695 194.313 -4.05231e-17
570 2 11.7526 21.3146 -4.05231e-17
571 2 5.47748 62.1216 -4.05231e-17
572 1 115.464 107.817 -4.05231e-17
573 2 38.1818 89.6994 -4.05231e-17
574 2 178.853 170.189 -4.05231e-17
575 1 196.194 206.802 -4.05231e-17
576 1 25.4451 68.6554 -4.05231e-17
577 1 127.622 74.688 -4.05231e-17
578 1 183.751 115.172 -4.05231e-17
579 2 182.399 44.4257 -4.05231e-17
580 1 108.964 103.639 -4.05231e-17
581 1 91.8184 146.598 -4.05231e-17
582 2 125.393 101.196 -4.05231e-17
583 2 103.264 83.644 -4.05231e-17
584 2 107.226 151.155 -4.05231e-17
585 1 181.828 103.183 -4.05231e-17
586 1 144.029 79.8423 -4.05231e-17
587 1 158.214 111.725 -4.05231e-17
588 2 64.3493 108.787 -4.05231e-17
589 1 210.837 59.7001 -4.05231e-17
590 2 181.749 58.2217 -4.05231e-17
591 2 178.97 16.6436 -4.05231e-17
592 1 204.179 129.099 -4.05231e-17
593 1 127.164 90.1659 -4.05231e-17
594 1 5.54852 70.2582 -4.05231e-17
595 1 33.1407 62.459 -4.05231e-17
596 2 107.035 71.2169 -4.05231e-17
597 2 63.4807 105.943 -4.05231e-17
598 2 135.887 87.516 -4.05231e-17
599 2 96.9512 165.851 -4.05231e-17
600 2 49.1994 99.0441 -4.05231e-17
601 1 145.934 107.556 -4.05231e-17
602 1 173.678 52.0166 -4.05231e-17
603 2 216.745 159.966 -4.05231e-17
604 1 45.4653 179.461 -4.05231e-17
605 2 140.098 100.305 -4.05231e-17
606 2 150.304 98.9279 -4.05231e-17
607 2 47.5786 169.393 -4.05231e-17
608 2 128.154 31.1547 -4.05231e-17
609 1 77.6762 89.0694 -4.05231e-17
610 2 106.07 199.929 -4.05231e-17
611 1 1.48483 165.73 -4.05231e-17
612 1 207.169 117.912 -4.05231e-17
613 2 213.425 156.678 -4.05231e-17
614 1 202.692 30.6076 -4.05231e-17
615 1 152.131 104.122 -4.05231e-17
616 2 146.072 177.925 -4.05231e-17
617 1 168.69 0.996723 -4.05231e-17
618 1 137.212 216.629 -4.05231e-17
619 1 164.02 161.055 -4.05231e-17
620 2 43.0684 89.0287 -4.05231e-17
621 2 203.789 77.2408 -4.05231e-17
622 2 144.717 154.264 -4.05231e-17
623 2 109.086 147.059 -4.05231e-17
624 1 107.126 176.837 -4.05231e-17
625 2 208.719 79.9414 -4.05231e-17
626 1 210.863 190.044 -4.05231e-17
627 2 195.309 193.247 -4.05231e-17
628 1 116.825 156.028 -4.05231e-17
629 1 30.3514 41.0494 -4.05231e-17
630 2 133.573 213.948 -4.05231e-17
631 2 144.501 115.125 -4.05231e-17
632 2 208.957 19.8516 -4.05231e-17
633 2 60.6715 131.822 -4.05231e-17
634 2 191.296 67.9224 -4.05231e-17
635 2 80.207 72.2211 -4.05231e-17
636 1 88.2238 131.145 -4.05231e-17
637 1 216.913 152.869 -4.05231e-17
638 1 116.673 69.1581 -4.05231e-17
639 2 200.643 65.7108 -4.05231e-17
640 2 149.523 77.9792 -4.05231e-17
641 1 199.973 96.857 -4.05231e-17
642 2 161.906 35.6178 -4.05231e-17
643 1 165.322 57.9387 -4.05231e-17
644 2 139.409 155.098 -4.05231e-17
645 2 5.82806 75.2666 -4.05231e-17
646 1 169.547 142.373 -4.05231e-17
647 2 129.31 148.198 -4.05231e-17
648 2 190.532 211.672 -4.05231e-17
649 1 63.8487 145.263 -4.05231e-17
650 1 56.2047 153.274 -4.05231e-17
651 1 112.288 130.616 -4.05231e-17
652 2 8.58552 214.031 -4.05231e-17
653 2 195.586 45.3545 -4.05231e-17
654 1 208.364 165.029 -4.05231e-17
655 1 63.4052 47.388 -4.05231e-17
656 1 198.981 10.1995 -4.05231e-17
657 1 125.11 120.369 -4.05231e-17
658 2 165.778 105.47 -4.05231e-17
659 2 101.3 137.174 -4.05231e-17
660 1 24.8413 11.9519 -4.05231e-17
661 2 15.5729 37.0619 -4.05231e-17
662 2 135.752 116.709 -4.05231e-17
663 1 163.687 113.027 -4.05231e-17
664 1 80.1589 138.668 -4.05231e-17
665 1 135.659 143.951 -4.05231e-17
666 1 202.979 185.556 -4.05231e-17
667 1 0.332871 117.13 -4.05231e-17
668 1 134.245 156.978 -4.05231e-17
669 1 107.263 160.539 -4.05231e-17
670 2 211.763 161.336 -4.05231e-17
671 1 3.46912 16.4091 -4.05231e-17
672 1 193.35 141.899 -4.05231e-17
673 2 47.6255 84.5577 -4.05231e-17
674 2 182.323 205.715 -4.05231e-17
675 2 152.539 2.23685 -4.05231e-17
676 1 180.595 159.888 -4.05231e-17
677 2 53.3844 53.3626 -4.05231e-17
678 1 86.4567 113.559 -4.05231e-17
679 1 86.9977 65.1013 -4.05231e-17
680 2 71.6362 13.4409 -4.05231e-17
681 1 5.15559 9.24216 -4.05231e-17
682 1 141.681 171.643 -4.05231e-17
683 2 96.0974 123.519 -4.05231e-17
684 1 23.3822 180.649 -4.05231e-17
685 1 83.6174 206.445 -4.05231e-17
686 1 142.96 159.646 -4.05231e-17
687 1 107.58 53.2256 -4.05231e-17
688 1 151.928 96.8343 -4.05231e-17
689 2 10.8313 139.741 -4.05231e-17
690 1 48.2783 120.849 -4.05231e-17
691 2 64.6266 115.133 -4.05231e-17
692 2 180.666 178.871 -4.05231e-17
693 1 161.52 96.1705 -4.05231e-17
694 2 147.098 149.773 -4.05231e-17
695 2 188.401 36.682 -4.05231e-17
696 2 31.8414 82.5624 -4.05231e-17
697 1 104.077 35.5923 -4.05231e-17
698 2 40.9957 18.2409 -4.05231e-17
699 1 57.1017 202.599 -4.05231e-17
700 2 17.8332 126.483 -4.05231e-17
701 2 30.7409 63.8077 -4.05231e-17
702 1 160.786 9.85755 -4.05231e-17
703 1 195.913 60.8735 -4.05231e-17
704 1 159.809 121.917 -4.05231e-17
705 1 43.3033 120.481 -4.05231e-17
706 1 75.3866 161.508 -4.05231e-17
707 1 182.133 66.733 -4.05231e-17
708 2 195.4 101.696 -4.05231e-17
709 1 54.1716 160.147 -4.05231e-17
710 2 91.8703 15.9936 -4.05231e-17
711 2 1.50863 139.393 -4.05231e-17
712 1 84.6266 213.586 -4.05231e-17
713 1 4.90945 152.521 -4.05231e-17
714 2 145.136 147.113 -4.05231e-17
715 2 133.038 87.055 -4.05231e-17
716 1 86.8128 60.8629 -4.05231e-17
717 1 15.1585 61.3405 -4.05231e-17
718 2 78.581 99.6472 -4.05231e-17
719 1 68.5898 202.657 -4.05231e-17
720 2 51.8125 197.39 -4.05231e-17
721 2 44.1178 213.076 -4.05231e-17
722 2 65.3962 138.193 -4.05231e-17
723 2 15.4916 165.546 -4.05231e-17
724 2 202.304 107.462 -4.05231e-17
725 2 21.7476 50.0803 -4.05231e-17
726 2 177.66 124.173 -4.05231e-17
727 2 35.3051 109.691 -4.05231e-17
728 1 176.634 77.1997 -4.05231e-17
729 2 167.222 131.693 -4.05231e-17
730 2 175.229 94.406 -4.05231e-17
731 1 10.175 23.3292 -4.05231e-17
732 2 97.8558 87.0568 -4.05231e-17
733 2 148.018 146.743 -4.05231e-17
734 2 59.1964 192.087 -4.05231e-17
735 2 149.292 71.808 -4.05231e-17
736 1 182.447 176.807 -4.05231e-17
737 2 48.6957 39.7104 -4.05231e-17
738 2 71.3632 207.578 -4.05231e-17
739 2 185.897 131.399 -4.05231e-17
740 2 40.4746 115.632 -4.05231e-17
741 2 200.653 114.07 -4.05231e-17
742 1 71.5874 98.7202 -4.05231e-17
743 2 78.7347 75.9919 -4.05231e-17
744 1 147.235 49.8831 -4.05231e-17
745 2 15.8574 75.8428 -4.05231e-17
746 1 218.768 121.733 -4.05231e-17
747 1 98.5896 163.059 -4.05231e-17
748 2 70.0206 197.687 -4.05231e-17
749 1 213.612 166.334 -4.05231e-17
750 1 139.543 147.807 -4.05231e-17
751 1 143.242 88.7623 -4.05231e-17
752 2 195.038 168.643 -4.05231e-17
753 1 36.9581 180.668 -4.05231e-17
754 2 65.7459 80.9453 -4.05231e-17
755 1 6.52057 80.801 -4.05231e-17
756 2 178.492 58.2153 -4.05231e-17
757 1 110.715 15.0423 -4.05231e-17
758 2 99.2823 28.0858 -4.05231e-17
759 1 95.7435 133.421 -4.05231e-17
760 1 171.225 61.456 -4.05231e-17
761 2 213.383 101.293 -4.05231e-17
762 1 178.483 106.084 -4.05231e-17
763 2 6.29474 157.482 -4.05231e-17
764 2 43.3409 188.304 -4.05231e-17
765 1 21.9931 160.245 -4.05231e-17
766 2 99.8879 47.8271 -4.05231e-17
767 2 206.529 148.954 -4.05231e-17
768 2 72.0736 62.1851 -4.05231e-17
769 2 188.04 98.3321 -4.05231e-17
770 1 134.025 18.4823 -4.05231e-17
771 1 64.578 63.2588 -4.05231e-17
772 1 128.968 0.648676 -4.05231e-17
773 2 166.385 172.346 -4.05231e-17
774 1 88.0963 87.1802 -4.05231e-17
775 1 102.432 75.8829 -4.05231e-17
776 2 192.645 103.437 -4.05231e-17
777 2 42.2826 80.0414 -4.05231e-17
778 1 83.4806 12.3724 -4.05231e-17
779 1 47.972 61.1774 -4.05231e-17
780 2 83.3884 49.7588 -4.05231e-17
781 1 25.8643 171.635 -4.05231e-17
782 2 122.877 170.15 -4.05231e-17
783 1 74.4773 63.1792 -4.05231e-17
784 2 96.7524 110.516 -4.05231e-17
785 1 204.595 82.6822 -4.05231e-17
786 1 41.3449 6.81767 -4.05231e-17
787 2 38.3275 208.892 -4.05231e-17
788 2 164.928 180.656 -4.05231e-17
789 2 18.4372 147.194 -4.05231e-17
790 2 77.5533 7.52599 -4.05231e-17
791 2 186.606 53.8594 -4.05231e-17
792 1 213.218 132.546 -4.05231e-17
793 1 96.9029 171.888 -4.05231e-17
794 2 209.785 6.73765 -4.05231e-17
795 2 10.37 191.666 -4.05231e-17
796 1 69.0886 214.998 -4.05231e-17
797 1 46.0676 32.6149 -4.05231e-17
798 1 213.465 56.0145 -4.05231e-17
799 2 105.755 155.548 -4.05231e-17
800 1 56.4812 36.9706 -4.05231e-17
801 2 68.3197 84.5701 -4.05231e-17
802 1 91.3905 216.09 -4.05231e-17
803 1 143.203 24.8586 -4.05231e-17
804 1 210.08 125.074 -4.05231e-17
805 2 183.557 117.91 -4.05231e-17
806 2 178.602 158.189 -4.05231e-17
807 2 208.231 29.2892 -4.05231e-17
808 2 76.3303 144.69 -4.05231e-17
809 1 175.889 63.0413 -4.05231e-17
810 2 24.0615 173.671 -4.05231e-17
811 2 180.147 55.6795 -4.05231e-17
812 1 121.909 184.782 -4.05231e-17
813 1 22.2243 95.81 -4.05231e-17
814 1 3.00659 204.739 -4.05231e-17
815 1 145.969 32.0893 -4.05231e-17
816 1 206.756 51.291 -4.05231e-17
817 2 62.7804 71.0468 -4.05231e-17
818 2 29.5616 123.05 -4.05231e-17
819 2 211.053 68.1443 -4.05231e-17
820 1 9.70722 59.0942 -4.05231e-17
821 1 65.1254 57.7636 -4.05231e-17
822 2 131.321 34.5044 -4.05231e-17
823 1 183.882 90.4879 -4.05231e-17
824 1 175.849 89.9886 -4.05231e-17
825 1 160.319 191.113 -4.05231e-17
826 2 178.592 81.8893 -4.05231e-17
827 2 102.34 27.0043 -4.05231e-17
828 1 50.7255 91.4508 -4.05231e-17
829 2 127.653 92.6506 -4.05231e-17
830 1 3.6785 156.894 -4.05231e-17
831 2 183.437 217.988 -4.05231e-17
832 2 26.7373 52.2577 -4.05231e-17
833 2 96.3106 41.7106 -4.05231e-17
834 1 70.793 164.088 -4.05231e-17
835 1 184.891 141.522 -4.05231e-17
836 1 153.302 69.621 -4.05231e-17
837 2 167.832 92.0905 -4.05231e-17
838 2 91.7341 26.1108 -4.05231e-17
839 1 39.1615 31.8927 -4.05231e-17
840 2 13.8606 117.225 -4.05231e-17
841 2 201.556 10.3396 -4.05231e-17
842 1 172.847 159.622 -4.05231e-17
843 1 205.141 29.8346 -4.05231e-17
844 2 8.76849 25.5208 -4.05231e-17
845 1 46.9781 150.889 -4.05231e-17
846 2 127.561 211.19 -4.05231e-17
847 1 88.68 143.254 -4.05231e-17
848 2 112.736 8.70408 -4.05231e-17
849 1 24.8947 33.0242 -4.05231e-17
850 2 60.0891 67.2517 -4.05231e-17
851 2 216.234 30.9121 -4.05231e-17
852 1 137.254 182.791 -4.05231e-17
853 1 186.076 105.293 -4.05231e-17
854 2 104.484 144.583 -4.05231e-17
855 2 165.574 121.103 -4.05231e-17
856 1 77.5144 160.134 -4.05231e-17