ITEM: TIMESTEP
0
ITEM: NUMBER OF ATOMS
7200
ITEM: BOX BOUNDS xy xz yz pp pp pp
0.0000000000000000e+00 2.1900000000000000e+02 0.0000000000000000e+00
0.0000000000000000e+00 2.1900000000000000e+02 0.0000000000000000e+00
-3.6499999999999999e-01 3.6499999999999999e-01 0.0000000000000000e+00
ITEM: ATOMS id type x y z
1 1 183.152 13.0503 -4.05231e-17
2 2 187.803 183.332 -4.05231e-17
3 2 144.517 189.13 -4.05231e-17
4 1 122.78 109.973 -4.05231e-17
5 1 101.479 122.656 -4.05231e-17
6 1 104.298 25.3384 -4.05231e-17
7 2 158.558 128.933 -4.05231e-17
8 2 70.1573 25.4675 -4.05231e-17
9 1 22.1419 214.902 -4.05231e-17
10 2 52.2904 166.599 -4.05231e-17
11 2 210.119 100.301 -4.05231e-17
12 1 33.7932 197.58 -4.05231e-17
13 2 194.493 53.9434 -4.05231e-17
14 1 57.6761 184.408 -4.05231e-17
15 2 193.191 0.19563 -4.05231e-17
16 2 218.441 85.6086 -4.05231e-17
17 1 67.878 74.5132 -4.05231e-17
18 2 10.1764 173.097 -4.05231e-17
19 1 93.1353 130.215 -4.05231e-17
20 1 72.5915 10.6944 -4.05231e-17
21 1 156.747 7.72918 -4.05231e-17
22 2 31.641 212.214 -4.05231e-17
23 2 43.1735 208.374 -4.05231e-17
24 2 218.956 102.804 -4.05231e-17
25 2 30.1613 207.604 -4.05231e-17
26 2 149.426 27.7734 -4.05231e-17
27 1 217.346 162.612 -4.05231e-17
28 2 54.137 154.795 -4.05231e-17
29 2 83.8718 3.69385 -4.05231e-17
30 2 132.259 37.3599 -4.05231e-17
31 2 156.729 83.493 -4.05231e-17
32 1 48.2629 108.584 -4.05231e-17
33 2 145.2 87.3184 -4.05231e-17
34 2 16.1529 95.8315 -4.05231e-17
35 2 126.927 11.1551 -4.05231e-17
36 1 160.213 146.604 -4.05231e-17
37 1 133.488 185.19 -4.05231e-17
38 2 209.069 157.829 -4.05231e-17
39 1 8.04134 38.4067 -4.05231e-17
40 2 196.693 73.7865 -4.05231e-17
41 1 192.506 73.2353 -4.05231e-17
42 1 55.0193 58.892 -4.05231e-17
43 1 210.694 132.104 -4.05231e-17
44 1 155.112 188.543 -4.05231e-17
45 2 159.369 61.1375 -4.05231e-17
46 1 124.407 192.6 -4.05231e-17
47 2 89.3511 80.6875 -4.05231e-17
48 2 150.413 129.442 -4.05231e-17
49 1 194.029 200.061 -4.05231e-17
50 2 29.4876 47.5818 -4.05231e-17
51 1 186.666 3.08067 -4.05231e-17
52 1 115.673 47.7814 -4.05231e-17
53 2 54.9372 200.929 -4.05231e-17
54 1 38.9972 16.9063 -4.05231e-17
55 2 53.329 141.342 -4.05231e-17
56 1 31.3878 132.631 -4.05231e-17
57 2 58.5984 134.073 -4.05231e-17
58 1 184.211 33.5997 -4.05231e-17
59 1 157.601 86.0167 -4.05231e-17
60 2 206.231 59.6799 -4.05231e-17
61 1 157.062 164.402 -4.05231e-17
62 1 106.727 111.574 -4.05231e-17
63 2 108.816 38.6459 -4.05231e-17
64 1 28.4983 17.9283 -4.05231e-17
65 2 152.189 149.302 -4.05231e-17
66 2 13.0948 154.803 -4.05231e-17
67 2 182.941 107.806 -4.05231e-17
68 1 136.938 82.8372 -4.05231e-17
69 2 109.671 168.681 -4.05231e-17
70 1 141.912 97.6801 -4.05231e-17
71 1 198.252 147.553 -4.05231e-17
72 2 44.4841 157.446 -4.05231e-17
73 2 191.594 179.212 -4.05231e-17
74 2 111.569 66.8968 -4.05231e-17
75 1 14.882 136.829 -4.05231e-17
76 2 137.991 206.708 -4.05231e-17
77 2 168.973 15.8214 -4.05231e-17
78 1 93.024 207.923 -4.05231e-17
79 2 60.6529 76.0863 -4.05231e-17
80 1 50.0584 22.8203 -4.05231e-17
81 1 181.59 211.264 -4.05231e-17
82 1 172.583 38.6676 -4.05231e-17
83 1 71.1138 91.2788 -4.05231e-17
84 2 140.822 179.286 -4.05231e-17
85 2 150.853 146.148 -4.05231e-17
86 2 51.1901 67.9559 -4.05231e-17
87 2 37.8594 75.8982 -4.05231e-17
88 1 80.5609 157.698 -4.05231e-17
89 2 199.654 105.383 -4.05231e-17
90 2 125.9 36.333 -4.05231e-17
91 2 10.8552 182.755 -4.05231e-17
92 1 27.6321 215.265 -4.05231e-17
93 2 110.172 154.653 -4.05231e-17
94 2 112.595 144.466 -4.05231e-17
95 1 211.57 51.8807 -4.05231e-17
96 2 32.2389 54.337 -4.05231e-17
97 2 4.39662 211.797 -4.05231e-17
98 2 35.6589 185.423 -4.05231e-17
99 1 105.045 9.43239 -4.05231e-17
100 2 159.034 65.6259 -4.05231e-17
101 1 184.27 109.933 -4.05231e-17
102 1 66.1378 164.37 -4.05231e-17
103 2 204.893 100.248 -4.05231e-17
104 2 104.004 72.9074 -4.05231e-17
105 1 160.619 58.659 -4.05231e-17
106 1 185.19 60.7342 -4.05231e-17
107 1 12.5725 107.116 -4.05231e-17
108 1 70.0832 209.931 -4.05231e-17
109 2 217.623 39.4786 -4.05231e-17
110 2 144.905 29.5695 -4.05231e-17
111 1 52.916 92.4588 -4.05231e-17
112 2 8.66055 51.0543 -4.05231e-17
113 1 134.937 10.9264 -4.05231e-17
114 1 92.4145 86.9121 -4.05231e-17
115 2 32.485 59.8697 -4.05231e-17
116 2 184.133 15.6047 -4.05231e-17
117 1 163.193 110.662 -4.05231e-17
118 1 82.8687 94.4531 -4.05231e-17
119 2 99.0326 139.409 -4.05231e-17
120 2 201.462 58.3614 -4.05231e-17
121 1 205.209 138.72 -4.05231e-17
122 2 143.18 129.824 -4.05231e-17
123 2 6.75804 129.475 -4.05231e-17
124 1 161.5 200.247 -4.05231e-17
125 1 88.0435 192.651 -4.05231e-17
126 2 97.9399 84.1257 -4.05231e-17
127 2 209.024 110.537 -4.05231e-17
128 1 121.543 104.932 -4.05231e-17
129 1 144.088 194.464 -4.05231e-17
130 2 120.2 61.0282 -4.05231e-17
131 1 133.911 60.2889 -4.05231e-17
132 1 139.42 21.7965 -4.05231e-17
133 1 180.835 105.835 -4.05231e-17
134 1 81.2408 191.366 -4.05231e-17
135 2 177.811 61.0137 -4.05231e-17
136 1 190.604 118.892 -4.05231e-17
137 1 60.7966 7.40234 -4.05231e-17
138 2 156.303 159.05 -4.05231e-17
139 1 132.656 11.8777 -4.05231e-17
140 1 144.802 208.335 -4.05231e-17
141 1 51.4249 70.7176 -4.05231e-17
142 1 212.689 190.817 -4.05231e-17
143 1 26.486 26.146 -4.05231e-17
144 1 46.661 97.7282 -4.05231e-17
145 2 193.272 80.2478 -4.05231e-17
146 1 153.395 125.836 -4.05231e-17
147 2 16.5401 134.606 -4.05231e-17
148 1 24.4325 133.251 -4.05231e-17
149 1 147.229 190.489 -4.05231e-17
150 2 65.9054 52.4486 -4.05231e-17
151 1 132.149 137.906 -4.05231e-17
152 1 164.101 163.314 -4.05231e-17
153 2 123.796 130.292 -4.05231e-17
154 1 184.292 52.629 -4.05231e-17
155 2 203.432 40.1783 -4.05231e-17
156 2 109.507 197.125 -4.05231e-17
157 2 166.11 29.0524 -4.05231e-17
158 2 27.8388 7.76543 -4.05231e-17
159 2 11.8088 159.338 -4.05231e-17
160 2 120.466 54.7321 -4.05231e-17
161 2 129.655 138.566 -4.05231e-17
162 1 24.1019 66.4758 -4.05231e-17
163 1 189.083 34.1143 -4.05231e-17
164 2 108.151 134.717 -4.05231e-17
165 1 49.3539 72.2905 -4.05231e-17
166 2 5.8465 200.002 -4.05231e-17
167 1 107.108 167.926 -4.05231e-17
168 1 211.351 102.869 -4.05231e-17
169 2 98.0548 199.162 -4.05231e-17
170 1 66.0707 206.326 -4.05231e-17
171 1 137.447 92.3126 -4.05231e-17
172 1 199.297 199.808 -4.05231e-17
173 1 39.0518 204.283 -4.05231e-17
174 2 38.3927 173.468 -4.05231e-17
175 2 49.8949 199.425 -4.05231e-17
176 1 119.573 151.612 -4.05231e-17
177 2 104.913 15.2123 -4.05231e-17
178 1 25.2451 7.50343 -4.05231e-17
179 2 106.386 197.328 -4.05231e-17
180 1 47.4184 76.7119 -4.05231e-17
181 1 16.1656 119.365 -4.05231e-17
182 1 113.745 86.4874 -4.05231e-17
183 1 64.1262 168.553 -4.05231e-17
184 2 157.496 25.4057 -4.05231e-17
185 2 190.196 78.7164 -4.05231e-17
186 2 74.3129 206.04 -4.05231e-17
187 2 159.085 201.985 -4.05231e-17
188 2 60.4779 28.2135 -4.05231e-17
189 1 191.174 57.6666 -4.05231e-17
190 1 196.509 55.8864 -4.05231e-17
191 2 35.5557 104.706 -4.05231e-17
192 2 89.3184 60.0058 -4.05231e-17
193 1 108.679 166.004 -4.05231e-17
194 1 26.8737 5.37677 -4.05231e-17
195 2 58.4312 120.058 -4.05231e-17
196 1 0.189783 218.97 -4.05231e-17
197 2 119.139 50.2699 -4.05231e-17
198 2 206.439 27.4824 -4.05231e-17
199 2 99.7615 170.335 -4.05231e-17
200 2 98.3732 31.1498 -4.05231e-17
201 2 103.464 120.891 -4.05231e-17
202 1 44.0458 34.0195 -4.05231e-17
203 1 18.4048 43.1297 -4.05231e-17
204 2 45.2207 78.2656 -4.05231e-17
205 2 182.883 182.147 -4.05231e-17
206 2 170.578 127.407 -4.05231e-17
207 1 74.6489 189.105 -4.05231e-17
208 2 135.179 54.3741 -4.05231e-17
209 2 32.7939 142.471 -4.05231e-17
210 1 182.269 113.267 -4.05231e-17
211 1 208.791 35.8166 -4.05231e-17
212 1 208.553 85.1947 -4.05231e-17
213 1 128.192 123.591 -4.05231e-17
214 2 12.3157 11.5185 -4.05231e-17
215 1 5.59465 142.474 -4.05231e-17
216 1 55.0377 46.5645 -4.05231e-17
217 1 164.527 61.6432 -4.05231e-17
218 2 201.04 121.083 -4.05231e-17
219 2 136.239 189.594 -4.05231e-17
220 1 120.881 1.40639 -4.05231e-17
221 2 83.1996 6.6812 -4.05231e-17
222 1 158.436 157.415 -4.05231e-17
223 1 46.0418 120.292 -4.05231e-17
224 2 146.044 70.9452 -4.05231e-17
225 2 168.919 163.758 -4.05231e-17
226 1 196.594 10.5272 -4.05231e-17
227 2 203.152 215.042 -4.05231e-17
228 2 117.876 63.168 -4.05231e-17
229 1 47.5817 22.692 -4.05231e-17
230 1 4.96908 57.0833 -4.05231e-17
231 2 137.155 160.779 -4.05231e-17
232 1 18.1209 212.572 -4.05231e-17
233 2 75.6419 195.695 -4.05231e-17
234 1 0.651855 59.9566 -4.05231e-17
235 1 150.368 106.003 -4.05231e-17
236 2 153.178 53.0754 -4.05231e-17
237 2 99.3822 203.802 -4.05231e-17
238 2 94.6459 140.51 -4.05231e-17
239 1 35.1131 216.926 -4.05231e-17
240 1 129.789 90.7577 -4.05231e-17
241 2 3.60086 124.335 -4.05231e-17
242 1 194.609 28.447 -4.05231e-17
243 2 215.042 130.162 -4.05231e-17
244 2 35.8353 191.012 -4.05231e-17
245 1 174.243 21.7309 -4.05231e-17
246 2 90.3444 85.4329 -4.05231e-17
247 2 199.013 150.57 -4.05231e-17
248 1 38.3811 27.4508 -4.05231e-17
249 1 131.682 108.324 -4.05231e-17
250 1 134.624 27.7976 -4.05231e-17
251 2 101.899 43.1693 -4.05231e-17
252 1 110.758 157.019 -4.05231e-17
253 2 95.9515 97.5609 -4.05231e-17
254 2 179.063 205.171 -4.05231e-17
255 2 122.555 50.2279 -4.05231e-17
256 1 2.87574 180.497 -4.05231e-17
257 2 32.5963 195.18 -4.05231e-17
258 1 210.993 81.1146 -4.05231e-17
259 2 160.744 141.471 -4.05231e-17
260 1 40.3972 192.643 -4.05231e-17
261 2 142.758 176.889 -4.05231e-17
262 2 186.939 110.283 -4.05231e-17
263 2 94.4637 172.752 -4.05231e-17
264 1 199.65 36.5822 -4.05231e-17
265 1 157.286 186.99 -4.05231e-17
266 1 98.571 196.696 -4.05231e-17
267 2 115.507 16.5884 -4.05231e-17
268 1 218.793 49.0054 -4.05231e-17
269 2 10.0934 113.53 -4.05231e-17
270 2 185.645 148.599 -4.05231e-17
271 2 187.582 95.0324 -4.05231e-17
272 1 59.478 25.874 -4.05231e-17
273 1 70.4883 83.4225 -4.05231e-17
274 1 37.9833 196.552 -4.05231e-17
275 1 146.878 110.086 -4.05231e-17
276 1 199.27 75.0495 -4.05231e-17
277 1 100.335 37.6621 -4.05231e-17
278 2 60.9883 145.482 -4.05231e-17
279 2 160.217 86.4523 -4.05231e-17
280 1 116.989 210.769 -4.05231e-17
281 2 169.872 182.303 -4.05231e-17
282 2 75.483 127.418 -4.05231e-17
283 2 218.983 151.12 -4.05231e-17
284 1 125.824 113.429 -4.05231e-17
285 1 73.1985 165.405 -4.05231e-17
286 2 30.0545 180.244 -4.05231e-17
287 2 93.2372 110.103 -4.05231e-17
288 1 104.213 123.364 -4.05231e-17
289 2 193.795 56.866 -4.05231e-17
290 1 100.759 29.7607 -4.05231e-17
291 2 96.4885 185.79 -4.05231e-17
292 1 77.3908 125.553 -4.05231e-17
293 1 159.09 168.262 -4.05231e-17
294 1 29.4307 177.793 -4.05231e-17
295 2 46.6432 145.921 -4.05231e-17
296 1 196.914 177.107 -4.05231e-17
297 1 2.38837 18.6014 -4.05231e-17
298 2 30.5336 140.757 -4.05231e-17
299 1 177.291 55.4628 -4.05231e-17
300 2 189.925 192.704 -4.05231e-17
301 2 172.262 19.6233 -4.05231e-17
302 2 163.752 89.1718 -4.05231e-17
303 1 2.49896 151.904 -4.05231e-17
304 1 124.16 105.603 -4.05231e-17
305 1 92.1672 177.531 -4.05231e-17
306 2 84.0548 17.4154 -4.05231e-17
307 2 150.366 167.592 -4.05231e-17
308 2 142.148 22.3395 -4.05231e-17
309 1 70.8321 72.2831 -4.05231e-17
310 1 190.227 190.121 -4.05231e-17
311 1 151.08 108.8 -4.05231e-17
312 2 134.811 13.5888 -4.05231e-17
313 2 155.22 17.8757 -4.05231e-17
314 1 184.204 58.2506 -4.05231e-17
315 2 56.6928 107.95 -4.05231e-17
316 1 95.729 30.8401 -4.05231e-17
317 1 132.986 175.892 -4.05231e-17
318 1 216.758 135.704 -4.05231e-17
319 2 74.0995 200.758 -4.05231e-17
320 1 214.061 48.3301 -4.05231e-17
321 1 52.5249 87.4923 -4.05231e-17
322 1 51.3235 148.2 -4.05231e-17
323 2 19.8655 138.898 -4.05231e-17
324 2 7.96565 95.2931 -4.05231e-17
325 2 216.429 13.9943 -4.05231e-17
326 1 185.064 0.97107 -4.05231e-17
327 1 35.9863 46.1546 -4.05231e-17
328 2 32.7864 192.076 -4.05231e-17
329 2 28.455 83.5308 -4.05231e-17
330 2 153.122 38.9214 -4.05231e-17
331 2 188.173 67.6426 -4.05231e-17
332 2 121.256 114.607 -4.05231e-17
333 2 27.837 151.169 -4.05231e-17
334 2 216.111 18.3998 -4.05231e-17
335 1 166.915 211.586 -4.05231e-17
336 2 27.8163 141.917 -4.05231e-17
337 2 40.6616 9.79805 -4.05231e-17
338 1 203.508 90.633 -4.05231e-17
339 2 14.9955 152.512 -4.05231e-17
340 2 176.876 214.524 -4.05231e-17
341 2 101.424 60.173 -4.05231e-17
342 2 173.319 166.571 -4.05231e-17
343 2 176.295 5.2229 -4.05231e-17
344 1 88.2165 105.737 -4.05231e-17
345 2 26.7108 212.921 -4.05231e-17
346 2 75.4311 73.1886 -4.05231e-17
347 1 147.793 98.5197 -4.05231e-17
348 1 181.427 3.97014 -4.05231e-17
349 2 173.531 70.1565 -4.05231e-17
350 2 77.898 178.802 -4.05231e-17
351 1 174.95 141.386 -4.05231e-17
352 1 212.746 163.637 -4.05231e-17
353 2 140.872 131.768 -4.05231e-17
354 2 191.212 176.218 -4.05231e-17
355 1 215.866 157.509 -4.05231e-17
356 2 114.831 1.587 -4.05231e-17
357 1 127.09 192.625 -4.05231e-17
358 1 78.0232 25.3982 -4.05231e-17
359 1 34.9735 144.042 -4.05231e-17
360 1 51.1294 8.29119 -4.05231e-17
361 2 196.757 68.6743 -4.05231e-17
362 2 172.16 94.6465 -4.05231e-17
363 1 79.0307 214.92 -4.05231e-17
364 2 217.16 46.9877 -4.05231e-17
365 1 5.66635 164.777 -4.05231e-17
366 1 82.9766 172.867 -4.05231e-17
367 1 161.221 104.162 -4.05231e-17
368 1 20.8157 164.737 -4.05231e-17
369 2 81.5028 144.146 -4.05231e-17
370 1 6.75745 132.265 -4.05231e-17
371 2 71.4572 111.503 -4.05231e-17
372 1 88.1529 6.2612 -4.05231e-17
373 2 117.788 208.435 -4.05231e-17
374 2 176.997 101.505 -4.05231e-17
375 1 136.339 25.899 -4.05231e-17
376 1 121.877 147.413 -4.05231e-17
377 2 95.3409 76.1762 -4.05231e-17
378 2 215.618 106.733 -4.05231e-17
379 2 169.49 187.096 -4.05231e-17
380 1 200.104 33.9687 -4.05231e-17
381 1 174.934 67.6211 -4.05231e-17
382 1 122.451 27.0011 -4.05231e-17
383 1 110.38 83.1 -4.05231e-17
384 2 54.0243 101.206 -4.05231e-17
385 1 66.038 149.025 -4.05231e-17
386 2 179.733 175.344 -4.05231e-17
387 1 34.7876 107.468 -4.05231e-17
388 1 143.72 164.26 -4.05231e-17
389 2 215.951 121.033 -4.05231e-17
390 1 104.904 65.5321 -4.05231e-17
391 1 203.218 217.648 -4.05231e-17
392 2 4.26501 100.312 -4.05231e-17
393 2 192.701 173.445 -4.05231e-17
394 1 36.3764 203.853 -4.05231e-17
395 1 19.5197 214.967 -4.05231e-17
396 2 75.3352 88.3836 -4.05231e-17
397 1 67.8266 41.4492 -4.05231e-17
398 2 165.846 111.172 -4.05231e-17
399 2 196.742 106.471 -4.05231e-17
400 2 123.564 68.6577 -4.05231e-17
401 2 84.0105 190.542 -4.05231e-17
402 1 84.4181 42.8918 -4.05231e-17
403 1 69.9259 116.777 -4.05231e-17
404 2 113.039 13.7671 -4.05231e-17
405 1 49.1959 196.668 -4.05231e-17
406 2 216.909 95.8262 -4.05231e-17
407 1 123.891 78.6641 -4.05231e-17
408 1 130.294 29.2196 -4.05231e-17
409 2 214.231 115.882 -4.05231e-17
410 2 70.6735 158.994 -4.05231e-17
411 1 136.464 96.8701 -4.05231e-17
412 1 164.639 6.92249 -4.05231e-17
413 1 34.6602 86.1423 -4.05231e-17
414 2 193.197 202.532 -4.05231e-17
415 1 107.322 126.729 -4.05231e-17
416 1 176.004 51.7559 -4.05231e-17
417 2 107.663 129.495 -4.05231e-17
418 2 34.6623 179.812 -4.05231e-17
419 2 195.183 92.1644 -4.05231e-17
420 2 108.592 44.1021 -4.05231e-17
421 1 70.4924 30.8343 -4.05231e-17
422 1 34.5031 58.3163 -4.05231e-17
423 2 116.585 125.237 -4.05231e-17
424 2 39.3086 25.0263 -4.05231e-17
425 2 117.195 150.508 -4.05231e-17
426 1 185.77 96.8213 -4.05231e-17
427 2 75.1573 60.5957 -4.05231e-17
428 1 29.0136 175.273 -4.05231e-17
429 2 131.384 150.227 -4.05231e-17
430 2 111.657 104.454 -4.05231e-17
431 1 13.5623 9.21166 -4.05231e-17
432 2 173.951 3.30828 -4.05231e-17
433 1 186.352 198.648 -4.05231e-17
434 1 20.0277 205.031 -4.05231e-17
435 1 149.922 85.1492 -4.05231e-17
436 2 85.2825 198.274 -4.05231e-17
437 2 181.015 82.4041 -4.05231e-17
438 2 194.248 177.499 -4.05231e-17
439 2 92.8919 10.1084 -4.05231e-17
440 2 201.146 92.108 -4.05231e-17
441 1 130.964 167.485 -4.05231e-17
442 1 38.2059 104.715 -4.05231e-17
443 2 79.2453 82.1264 -4.05231e-17
444 1 204.489 105.072 -4.05231e-17
445 1 168.9 133.29 -4.05231e-17
446 2 183.02 150.395 -4.05231e-17
447 2 40.6057 40.5128 -4.05231e-17
448 2 205.79 176.107 -4.05231e-17
449 1 41.2446 177.152 -4.05231e-17
450 1 10.596 126.168 -4.05231e-17
451 1 53.8271 209.197 -4.05231e-17
452 2 208.747 61.0813 -4.05231e-17
453 1 216.601 150.447 -4.05231e-17
454 1 3.16325 68.9279 -4.05231e-17
455 2 81.4288 131.565 -4.05231e-17
456 1 85.6003 1.72155 -4.05231e-17
457 2 140.398 145.151 -4.05231e-17
458 2 155.381 135.791 -4.05231e-17
459 2 133.338 51.3458 -4.05231e-17
460 1 197.469 170.148 -4.05231e-17
461 1 112.346 128.81 -4.05231e-17
462 1 103.903 196.146 -4.05231e-17
463 2 110.395 218.501 -4.05231e-17
464 2 13.8188 77.6919 -4.05231e-17
465 1 124.003 16.1999 -4.05231e-17
466 2 150.493 126.283 -4.05231e-17
467 2 66.014 133.379 -4.05231e-17
468 2 123.857 125.466 -4.05231e-17
469 2 58.428 71.5925 -4.05231e-17
470 2 208.723 154.654 -4.05231e-17
471 2 212.082 211.767 -4.05231e-17
472 2 111.133 36.4675 -4.05231e-17
473 2 197.891 214.931 -4.05231e-17
474 2 84.9748 147.22 -4.05231e-17
475 1 163.978 182.924 -4.05231e-17
476 2 174.423 34.1783 -4.05231e-17
477 1 208.675 218.409 -4.05231e-17
478 1 46.1417 187.848 -4.05231e-17
479 2 0.66573 197.789 -4.05231e-17
480 1 83.001 61.9182 -4.05231e-17
481 1 2.66452 209.665 -4.05231e-17
482 2 152.716 176.582 -4.05231e-17
483 1 134.44 209.573 -4.05231e-17
484 1 66.3217 136.084 -4.05231e-17
485 2 13.0935 174.411 -4.05231e-17
486 1 132.684 72.6159 -4.05231e-17
487 1 13.2124 202.208 -4.05231e-17
488 1 50.0922 83.6792 -4.05231e-17
489 1 70.3638 109.164 -4.05231e-17
490 1 164.6 73.2837 -4.05231e-17
491 1 163.317 75.387 -4.05231e-17
492 2 209.308 15.6791 -4.05231e-17
493 1 93.859 202.958 -4.05231e-17
494 2 78.191 66.3551 -4.05231e-17
495 1 150.26 92.0949 -4.05231e-17
496 1 52.3705 123.467 -4.05231e-17
497 1 136.763 109.827 -4.05231e-17
498 2 145.156 39.1057 -4.05231e-17
499 2 177.708 118.893 -4.05231e-17
500 2 57.3403 32.2013 -4.05231e-17
501 2 14.5047 139.683 -4.05231e-17
502 2 190.727 126.377 -4.05231e-17
503 2 57.71 63.4582 -4.05231e-17
504 2 98.188 50.1978 -4.05231e-17
505 2 112.218 213.796 -4.05231e-17
506 1 207.151 6.63429 -4.05231e-17
507 2 49.6835 181.904 -4.05231e-17
508 1 140.453 59.49 -4.05231e-17
509 1 209.479 47.6213 -4.05231e-17
510 1 195.125 104.214 -4.05231e-17
511 2 108.472 179.383 -4.05231e-17
512 1 11.1474 42.7453 -4.05231e-17
513 2 87.8343 183.131 -4.05231e-17
514 2 15.1243 87.2887 -4.05231e-17
515 1 60.5568 98.7985 -4.05231e-17
516 2 101.123 73.6529 -4.05231e-17
517 1 32.3528 147.461 -4.05231e-17
518 2 10.5711 14.0084 -4.05231e-17
519 1 125.055 91.9201 -4.05231e-17
520 2 209.512 93.779 -4.05231e-17
521 2 130.117 39.7593 -4.05231e-17
522 1 187.175 7.50051 -4.05231e-17
523 1 127.196 99.2997 -4.05231e-17
524 2 175.175 19.0953 -4.05231e-17
525 2 185.248 45.4343 -4.05231e-17
526 2 108.118 16.2275 -4.05231e-17
527 1 170.433 25.3566 -4.05231e-17
528 1 212.638 202.217 -4.05231e-17
529 2 104.463 176.285 -4.05231e-17
530 2 18.71 88.2591 -4.05231e-17
531 2 184.7 171.656 -4.05231e-17
532 1 81.1714 4.86844 -4.05231e-17
533 2 23.2762 158.275 -4.05231e-17
534 1 22.5404 168.684 -4.05231e-17
535 1 169.714 206.938 -4.05231e-17
536 2 17.8783 169.949 -4.05231e-17
537 1 142.328 29.0445 -4.05231e-17
538 1 68.3672 157.905 -4.05231e-17
539 2 80.6517 163.232 -4.05231e-17
540 1 34.9798 182.49 -4.05231e-17
541 1 105.209 128.465 -4.05231e-17
542 1 58.4877 126.828 -4.05231e-17
543 2 120.203 168.702 -4.05231e-17
544 1 217.609 211.681 -4.05231e-17
545 1 175.158 72.1086 -4.05231e-17
546 2 187.174 10.1739 -4.05231e-17
547 1 12.8942 71.7834 -4.05231e-17
548 1 29.4901 5.56621 -4.05231e-17
549 2 35.2278 152.493 -4.05231e-17
550 2 164.657 193.393 -4.05231e-17
551 2 38.6184 7.3043 -4.05231e-17
552 1 31.9103 51.7502 -4.05231e-17
553 2 206.902 197.01 -4.05231e-17
554 2 143.926 34.1438 -4.05231e-17
555 2 178.032 134.417 -4.05231e-17
556 1 177.574 211.73 -4.05231e-17
557 1 211.232 54.5233 -4.05231e-17
558 1 60.0311 143.055 -4.05231e-17
559 2 106.311 91.3487 -4.05231e-17
560 2 57.3806 89.5597 -4.05231e-17
561 2 110.644 181.397 -4.05231e-17
562 2 99.0512 65.3252 -4.05231e-17
563 1 73.4524 168.032 -4.05231e-17
564 2 103.214 78.3601 -4.05231e-17
565 2 33.7697 65.0838 -4.05231e-17
566 2 64.4492 60.5071 -4.05231e-17
567 1 95.2893 11.4918 -4.05231e-17
568 1 22.5706 77.8684 -4.05231e-17
569 2 141.506 194.255 -4.05231e-17
570 2 11.9045 21.2467 -4.05231e-17
571 2 5.27193 62.2016 -4.05231e-17
572 1 115.015 107.551 -4.05231e-17
573 2 37.8892 89.436 -4.05231e-17
574 2 178.989 170.142 -4.05231e-17
575 1 195.948 206.872 -4.05231e-17
576 1 25.977 68.2042 -4.05231e-17
577 1 127.705 74.5136 -4.05231e-17
578 1 183.751 115.057 -4.05231e-17
579 2 182.311 44.3428 -4.05231e-17
580 1 109.278 103.574 -4.05231e-17
581 1 91.6203 146.722 -4.05231e-17
582 2 125.288 101.083 -4.05231e-17
583 2 103.421 83.8762 -4.05231e-17
584 2 107.21 151.489 -4.05231e-17
585 1 181.883 103.373 -4.05231e-17
586 1 143.57 79.9174 -4.05231e-17
587 1 158.253 111.582 -4.05231e-17
588 2 64.5931 108.929 -4.05231e-17
589 1 210.906 59.7328 -4.05231e-17
590 2 181.6 57.8862 -4.05231e-17
591 2 179.066 16.6454 -4.05231e-17
592 1 204.303 128.938 -4.05231e-17
593 1 127.209 90.0512 -4.05231e-17
594 1 5.34319 70.2434 -4.05231e-17
595 1 33.3971 62.3137 -4.05231e-17
596 2 106.908 70.8846 -4.05231e-17
597 2 63.7461 105.838 -4.05231e-17
598 2 135.824 87.3999 -4.05231e-17
599 2 96.9972 165.901 -4.05231e-17
600 2 49.2772 98.8234 -4.05231e-17
601 1 145.991 107.729 -4.05231e-17
602 1 173.582 51.8312 -4.05231e-17
603 2 216.673 159.898 -4.05231e-17
604 1 45.9703 178.928 -4.05231e-17
605 2 140.132 100.526 -4.05231e-17
606 2 150.284 98.9198 -4.05231e-17
607 2 47.5743 169.454 -4.05231e-17
608 2 128.503 30.9896 -4.05231e-17
609 1 77.6299 89.546 -4.05231e-17
610 2 106.054 200.223 -4.05231e-17
611 1 1.33252 165.899 -4.05231e-17
612 1 207.112 117.649 -4.05231e-17
613 2 213.442 156.58 -4.05231e-17
614 1 202.989 30.8408 -4.05231e-17
615 1 152.212 104.212 -4.05231e-17
616 2 146.051 177.967 -4.05231e-17
617 1 168.614 1.24854 -4.05231e-17
618 1 136.965 216.493 -4.05231e-17
619 1 164.073 160.818 -4.05231e-17
620 2 42.8337 88.9932 -4.05231e-17
621 2 203.644 77.1891 -4.05231e-17
622 2 144.751 154.482 -4.05231e-17
623 2 108.641 147.283 -4.05231e-17
624 1 106.964 177.032 -4.05231e-17
625 2 208.643 79.7039 -4.05231e-17
626 1 210.295 190.309 -4.05231e-17
627 2 194.858 193.117 -4.05231e-17
628 1 116.711 156.192 -4.05231e-17
629 1 30.5747 41.3751 -4.05231e-17
630 2 133.426 214.096 -4.05231e-17
631 2 144.479 115.073 -4.05231e-17
632 2 209.304 20.1436 -4.05231e-17
633 2 60.9079 131.767 -4.05231e-17
634 2 191.649 67.691 -4.05231e-17
635 2 80.2909 72.3667 -4.05231e-17
636 1 88.4056 131.421 -4.05231e-17
637 1 217.169 153.052 -4.05231e-17
638 1 116.786 68.8857 -4.05231e-17
639 2 200.81 65.5474 -4.05231e-17
640 2 149.446 78.031 -4.05231e-17
641 1 200.108 96.6684 -4.05231e-17
642 2 161.476 35.5874 -4.05231e-17
643 1 165.483 57.7465 -4.05231e-17
644 2 139.395 155.19 -4.05231e-17
645 2 5.67551 75.3191 -4.05231e-17
646 1 169.627 142.337 -4.05231e-17
647 2 129.453 148.035 -4.05231e-17
648 2 190.504 211.896 -4.05231e-17
649 1 63.5562 145.525 -4.05231e-17
650 1 56.1281 153.184 -4.05231e-17
651 1 112.465 131.189 -4.05231e-17
652 2 8.34645 214.028 -4.05231e-17
653 2 195.599 45.4503 -4.05231e-17
654 1 208.477 164.92 -4.05231e-17
655 1 63.6229 47.4849 -4.05231e-17
656 1 199.027 10.5312 -4.05231e-17
657 1 124.792 120.633 -4.05231e-17
658 2 165.881 105.699 -4.05231e-17
659 2 101.54 137.432 -4.05231e-17
660 1 25.1145 12.1683 -4.05231e-17
661 2 15.9223 37.1689 -4.05231e-17
662 2 135.649 116.622 -4.05231e-17
663 1 163.561 112.94 -4.05231e-17
664 1 79.9717 138.918 -4.05231e-17
665 1 135.311 143.732 -4.05231e-17
666 1 202.547 185.447 -4.05231e-17
667 1 0.589509 116.748 -4.05231e-17
668 1 133.953 157.044 -4.05231e-17
669 1 107.225 161.021 -4.05231e-17
670 2 211.903 161.11 -4.05231e-17
671 1 3.64657 16.1732 -4.05231e-17
672 1 193.6 141.381 -4.05231e-17
673 2 47.6587 84.8681 -4.05231e-17
674 2 182.2 205.563 -4.05231e-17
675 2 152.273 2.14506 -4.05231e-17
676 1 180.487 159.75 -4.05231e-17
677 2 53.4265 53.1714 -4.05231e-17
678 1 86.7698 113.766 -4.05231e-17
679 1 87.2959 65.2819 -4.05231e-17
680 2 71.8586 13.3217 -4.05231e-17
681 1 5.50549 9.16214 -4.05231e-17
682 1 141.594 171.852 -4.05231e-17
683 2 96.4198 123.708 -4.05231e-17
684 1 23.0887 180.527 -4.05231e-17
685 1 83.8257 206.166 -4.05231e-17
686 1 142.85 159.865 -4.05231e-17
687 1 107.451 53.201 -4.05231e-17
688 1 151.859 96.9886 -4.05231e-17
689 2 10.7444 139.563 -4.05231e-17
690 1 48.4931 120.713 -4.05231e-17
691 2 65.0553 115.488 -4.05231e-17
692 2 180.416 178.746 -4.05231e-17
693 1 161.376 96.0028 -4.05231e-17
694 2 147.046 150.024 -4.05231e-17
695 2 188.62 36.5186 -4.05231e-17
696 2 31.3561 82.6176 -4.05231e-17
697 1 104.084 35.5935 -4.05231e-17
698 2 41.1431 18.2149 -4.05231e-17
699 1 57.0153 202.642 -4.05231e-17
700 2 17.8236 126.238 -4.05231e-17
701 2 31.1071 63.6282 -4.05231e-17
702 1 160.735 9.88766 -4.05231e-17
703 1 195.84 60.7634 -4.05231e-17
704 1 159.986 122.053 -4.05231e-17
705 1 43.5299 120.382 -4.05231e-17
706 1 75.1909 161.529 -4.05231e-17
707 1 182.389 66.6177 -4.05231e-17
708 2 195.389 101.683 -4.05231e-17
709 1 54.1342 160.309 -4.05231e-17
710 2 92.0108 16.0152 -4.05231e-17
711 2 1.58825 139.236 -4.05231e-17
712 1 84.3835 213.5 -4.05231e-17
713 1 4.89064 152.502 -4.05231e-17
714 2 144.863 147.502 -4.05231e-17
715 2 133.195 86.9064 -4.05231e-17
716 1 86.8485 60.9978 -4.05231e-17
717 1 15.3581 61.3967 -4.05231e-17
718 2 78.7618 99.9051 -4.05231e-17
719 1 68.5002 202.679 -4.05231e-17
720 2 51.7446 196.874 -4.05231e-17
721 2 43.964 213.295 -4.05231e-17
722 2 65.3084 138.403 -4.05231e-17
723 2 15.475 166.013 -4.05231e-17
724 2 202.514 107.076 -4.05231e-17
725 2 21.9515 50.0747 -4.05231e-17
726 2 177.801 123.839 -4.05231e-17
727 2 35.743 109.965 -4.05231e-17
728 1 176.468 77.0243 -4.05231e-17
729 2 166.966 131.5 -4.05231e-17
730 2 175.145 94.3603 -4.05231e-17
731 1 10.3384 23.4979 -4.05231e-17
732 2 98.0399 87.1468 -4.05231e-17
733 2 147.725 146.795 -4.05231e-17
734 2 58.8905 191.927 -4.05231e-17
735 2 149.415 72.0227 -4.05231e-17
736 1 182.178 176.641 -4.05231e-17
737 2 48.9012 39.5096 -4.05231e-17
738 2 71.4212 207.698 -4.05231e-17
739 2 185.716 131.25 -4.05231e-17
740 2 40.6724 115.805 -4.05231e-17
741 2 200.602 113.658 -4.05231e-17
742 1 71.7739 99.1325 -4.05231e-17
743 2 78.9383 76.2289 -4.05231e-17
744 1 146.819 50.0373 -4.05231e-17
745 2 15.8815 75.6637 -4.05231e-17
746 1 218.734 121.405 -4.05231e-17
747 1 98.3444 163.292 -4.05231e-17
748 2 69.9951 197.82 -4.05231e-17
749 1 213.363 166.233 -4.05231e-17
750 1 139.031 147.67 -4.05231e-17
751 1 143.142 89.0278 -4.05231e-17
752 2 195.301 168.53 -4.05231e-17
753 1 37.2094 180.484 -4.05231e-17
754 2 65.8497 81.186 -4.05231e-17
755 1 6.6615 80.5877 -4.05231e-17
756 2 178.392 57.9395 -4.05231e-17
757 1 110.73 15.125 -4.05231e-17
758 2 99.1363 27.7728 -4.05231e-17
759 1 95.9146 133.47 -4.05231e-17
760 1 171.264 61.5712 -4.05231e-17
761 2 213.2 101.012 -4.05231e-17
762 1 178.213 105.984 -4.05231e-17
763 2 6.20973 157.653 -4.05231e-17
764 2 43.3744 187.92 -4.05231e-17
765 1 21.6776 160.323 -4.05231e-17
766 2 100.071 47.81 -4.05231e-17
767 2 206.531 148.888 -4.05231e-17
768 2 72.3296 62.359 -4.05231e-17
769 2 188.217 98.2281 -4.05231e-17
770 1 134.056 18.1424 -4.05231e-17
771 1 64.6809 63.2506 -4.05231e-17
772 1 128.994 0.709402 -4.05231e-17
773 2 166.891 172.163 -4.05231e-17
774 1 88.2664 87.3201 -4.05231e-17
775 1 102.638 75.8153 -4.05231e-17
776 2 192.745 103.28 -4.05231e-17
777 2 42.5301 80.1033 -4.05231e-17
778 1 83.6406 12.6797 -4.05231e-17
779 1 48.1645 61.5036 -4.05231e-17
780 2 83.1988 49.8153 -4.05231e-17
781 1 25.7416 171.849 -4.05231e-17
782 2 123.057 170.287 -4.05231e-17
783 1 74.9028 63.2718 -4.05231e-17
784 2 96.7621 110.549 -4.05231e-17
785 1 204.567 82.7247 -4.05231e-17
786 1 41.108 7.09287 -4.05231e-17
787 2 38.151 208.714 -4.05231e-17
788 2 164.597 180.35 -4.05231e-17
789 2 18.4319 147.488 -4.05231e-17
790 2 77.5807 7.58167 -4.05231e-17
791 2 186.639 53.8564 -4.05231e-17
792 1 213.354 132.499 -4.05231e-17
793 1 97.0698 171.744 -4.05231e-17
794 2 209.609 6.69757 -4.05231e-17
795 2 10.2774 191.626 -4.05231e-17
796 1 69.2968 215.031 -4.05231e-17
797 1 46.3017 32.5438 -4.05231e-17
798 1 213.294 55.9764 -4.05231e-17
799 2 105.792 155.752 -4.05231e-17
800 1 56.8142 36.987 -4.05231e-17
801 2 68.389 84.9193 -4.05231e-17
802 1 91.1031 215.973 -4.05231e-17
803 1 143.137 24.6801 -4.05231e-17
804 1 210.285 124.914 -4.05231e-17
805 2 183.659 117.842 -4.05231e-17
806 2 178.659 157.82 -4.05231e-17
807 2 208.427 29.6966 -4.05231e-17
808 2 76.2416 145.014 -4.05231e-17
809 1 175.989 62.8624 -4.05231e-17
810 2 23.9269 173.663 -4.05231e-17
811 2 180.048 55.4929 -4.05231e-17
812 1 121.998 184.75 -4.05231e-17
813 1 22.1359 95.7667 -4.05231e-17
814 1 2.84331 204.989 -4.05231e-17
815 1 145.773 32.15 -4.05231e-17
816 1 206.918 51.4978 -4.05231e-17
817 2 63.3796 70.9299 -4.05231e-17
818 2 29.4517 123.113 -4.05231e-17
819 2 210.921 68.0931 -4.05231e-17
820 1 9.98914 59.1847 -4.05231e-17
821 1 65.3026 58.0593 -4.05231e-17
822 2 131.272 34.4843 -4.05231e-17
823 1 184.134 90.2393 -4.05231e-17
824 1 175.828 89.8713 -4.05231e-17
825 1 160.075 190.879 -4.05231e-17
826 2 178.122 81.7303 -4.05231e-17
827 2 102.049 27.0931 -4.05231e-17
828 1 50.6084 91.5213 -4.05231e-17
829 2 127.69 92.5108 -4.05231e-17
830 1 3.81138 157.061 -4.05231e-17
831 2 183.53 217.985 -4.05231e-17
832 2 27.0256 52.3399 -4.05231e-17
833 2 96.3589 41.8975 -4.05231e-17
834 1 70.7964 164.336 -4.05231e-17
835 1 184.803 141.053 -4.05231e-17
836 1 153.221 69.3275 -4.05231e-17
837 2 167.841 92.1118 -4.05231e-17
838 2 91.7178 26.2271 -4.05231e-17
839 1 39.0195 32.5167 -4.05231e-17
840 2 13.9701 116.924 -4.05231e-17
841 2 201.689 10.8342 -4.05231e-17
842 1 173.153 158.95 -4.05231e-17
843 1 205.663 30.1611 -4.05231e-17
844 2 9.06529 26.0282 -4.05231e-17
845 1 46.8227 150.87 -4.05231e-17
846 2 127.4 211.324 -4.05231e-17
847 1 88.5593 143.453 -4.05231e-17
848 2 112.598 8.93476 -4.05231e-17
849 1 25.0451 33.1841 -4.05231e-17
850 2 60.3232 67.2326 -4.05231e-17
851 2 216.5 31.0039 -4.05231e-17
852 1 137.192 182.855 -4.05231e-17
853 1 185.85 105.189 -4.05231e-17
854 2 104.043 144.953 -4.05231e-17
855 2 165.699 120.867 -4.05231e-17
856 1 77.309 160.118 -4.05231e-17