ITEM: TIMESTEP
0
ITEM: NUMBER OF ATOMS
7200
ITEM: BOX BOUNDS xy xz yz pp pp pp
0.0000000000000000e+00 2.1900000000000000e+02 0.0000000000000000e+00
0.0000000000000000e+00 2.1900000000000000e+02 0.0000000000000000e+00
-3.6499999999999999e-01 3.6499999999999999e-01 0.0000000000000000e+00
ITEM: ATOMS id type x y z
1 1 182.858 12.9748 -4.05231e-17
2 2 188.016 183.524 -4.05231e-17
3 2 144.526 189.426 -4.05231e-17
4 1 122.878 110.044 -4.05231e-17
5 1 101.609 122.178 -4.05231e-17
6 1 104.338 25.1268 -4.05231e-17
7 2 158.208 128.717 -4.05231e-17
8 2 70.1232 25.6469 -4.05231e-17
9 1 21.7465 214.836 -4.05231e-17
10 2 52.5585 166.661 -4.05231e-17
11 2 210.121 100.075 -4.05231e-17
12 1 33.7908 197.556 -4.05231e-17
13 2 194.168 53.9753 -4.05231e-17
14 1 57.6409 184.501 -4.05231e-17
15 2 193.007 0.262105 -4.05231e-17
16 2 218.537 85.8645 -4.05231e-17
17 1 67.0529 74.5978 -4.05231e-17
18 2 10.1737 172.544 -4.05231e-17
19 1 93.2608 130.037 -4.05231e-17
20 1 72.6167 10.9777 -4.05231e-17
21 1 156.156 7.24616 -4.05231e-17
22 2 31.3658 212.384 -4.05231e-17
23 2 43.0278 208.321 -4.05231e-17
24 2 218.939 103.021 -4.05231e-17
25 2 29.8744 207.509 -4.05231e-17
26 2 149.076 27.9868 -4.05231e-17
27 1 217.249 162.604 -4.05231e-17
28 2 54.2924 154.807 -4.05231e-17
29 2 83.8766 4.03823 -4.05231e-17
30 2 132.141 37.4118 -4.05231e-17
31 2 156.544 83.7205 -4.05231e-17
32 1 48.5439 108.972 -4.05231e-17
33 2 145.302 87.1254 -4.05231e-17
34 2 16.3131 96.104 -4.05231e-17
35 2 127.108 11.4655 -4.05231e-17
36 1 160.315 147.175 -4.05231e-17
37 1 133.425 185.164 -4.05231e-17
38 2 208.922 158.017 -4.05231e-17
39 1 7.91212 38.3214 -4.05231e-17
40 2 196.915 73.6965 -4.05231e-17
41 1 192.63 73.1001 -4.05231e-17
42 1 54.2846 58.7099 -4.05231e-17
43 1 210.376 132.303 -4.05231e-17
44 1 155.274 188.717 -4.05231e-17
45 2 159.578 60.8938 -4.05231e-17
46 1 124.665 192.729 -4.05231e-17
47 2 89.1445 80.6198 -4.05231e-17
48 2 150.502 129.581 -4.05231e-17
49 1 194.309 200.022 -4.05231e-17
50 2 29.2969 47.3602 -4.05231e-17
51 1 186.268 3.39205 -4.05231e-17
52 1 115.888 47.9832 -4.05231e-17
53 2 55.0435 200.855 -4.05231e-17
54 1 39.341 16.7189 -4.05231e-17
55 2 53.2218 141.672 -4.05231e-17
56 1 31.0063 132.567 -4.05231e-17
57 2 58.6374 134.06 -4.05231e-17
58 1 185.861 37.1274 -4.05231e-17
59 1 157.497 86.1717 -4.05231e-17
60 2 206.212 59.5371 -4.05231e-17
61 1 157.241 164.451 -4.05231e-17
62 1 106.599 111.288 -4.05231e-17
63 2 108.511 38.7154 -4.05231e-17
64 1 28.3436 17.9432 -4.05231e-17
65 2 152.403 149.358 -4.05231e-17
66 2 13.4202 155.057 -4.05231e-17
67 2 182.817 107.569 -4.05231e-17
68 1 137.072 83.2712 -4.05231e-17
69 2 109.725 168.607 -4.05231e-17
70 1 141.886 98.2184 -4.05231e-17
71 1 198.204 147.566 -4.05231e-17
72 2 45.0276 157.83 -4.05231e-17
73 2 191.917 179.288 -4.05231e-17
74 2 111.838 67.9922 -4.05231e-17
75 1 15.0424 136.867 -4.05231e-17
76 2 138.2 206.812 -4.05231e-17
77 2 168.405 15.9119 -4.05231e-17
78 1 92.9302 207.933 -4.05231e-17
79 2 60.1919 76.3203 -4.05231e-17
80 1 50.0647 22.9446 -4.05231e-17
81 1 181.58 211.179 -4.05231e-17
82 1 173.59 41.0915 -4.05231e-17
83 1 71.206 91.2911 -4.05231e-17
84 2 140.892 179.429 -4.05231e-17
85 2 150.923 146.059 -4.05231e-17
86 2 50.7744 67.9959 -4.05231e-17
87 2 37.1871 76.6117 -4.05231e-17
88 1 81.0018 157.427 -4.05231e-17
89 2 199.597 105.43 -4.05231e-17
90 2 126.135 35.7201 -4.05231e-17
91 2 11.2285 182.335 -4.05231e-17
92 1 27.3317 215.311 -4.05231e-17
93 2 110.258 154.686 -4.05231e-17
94 2 112.865 144.07 -4.05231e-17
95 1 211.336 51.6743 -4.05231e-17
96 2 31.6572 54.4166 -4.05231e-17
97 2 4.55852 211.93 -4.05231e-17
98 2 35.8036 185.539 -4.05231e-17
99 1 104.896 9.5173 -4.05231e-17
100 2 159.066 65.945 -4.05231e-17
101 1 184.365 109.633 -4.05231e-17
102 1 66.3256 164.115 -4.05231e-17
103 2 204.782 99.9212 -4.05231e-17
104 2 103.371 73.503 -4.05231e-17
105 1 160.758 58.371 -4.05231e-17
106 1 185.232 60.3725 -4.05231e-17
107 1 12.5785 107.365 -4.05231e-17
108 1 70.0148 209.808 -4.05231e-17
109 2 217.432 39.4618 -4.05231e-17
110 2 144.689 29.9975 -4.05231e-17
111 1 53.1747 92.5407 -4.05231e-17
112 2 8.50389 50.819 -4.05231e-17
113 1 134.774 10.8248 -4.05231e-17
114 1 92.4155 86.8303 -4.05231e-17
115 2 31.2271 59.133 -4.05231e-17
116 2 183.939 15.6307 -4.05231e-17
117 1 163.051 110.491 -4.05231e-17
118 1 82.6704 94.3508 -4.05231e-17
119 2 99.5238 139.249 -4.05231e-17
120 2 201.159 58.5072 -4.05231e-17
121 1 205.373 139.072 -4.05231e-17
122 2 143.29 129.797 -4.05231e-17
123 2 6.75225 129.79 -4.05231e-17
124 1 161.498 200.046 -4.05231e-17
125 1 88.6358 192.742 -4.05231e-17
126 2 98.0276 83.7949 -4.05231e-17
127 2 209.146 110.46 -4.05231e-17
128 1 121.547 105.035 -4.05231e-17
129 1 144.122 194.447 -4.05231e-17
130 2 119.482 61.8524 -4.05231e-17
131 1 133.845 60.3516 -4.05231e-17
132 1 139.632 22.1179 -4.05231e-17
133 1 180.754 105.731 -4.05231e-17
134 1 81.4879 191.076 -4.05231e-17
135 2 177.589 61.06 -4.05231e-17
136 1 190.261 118.73 -4.05231e-17
137 1 60.8858 7.33433 -4.05231e-17
138 2 156.418 159.1 -4.05231e-17
139 1 132.675 11.6948 -4.05231e-17
140 1 145.063 208.418 -4.05231e-17
141 1 50.7944 70.4327 -4.05231e-17
142 1 213.324 191.104 -4.05231e-17
143 1 26.1396 26.3742 -4.05231e-17
144 1 46.6942 97.916 -4.05231e-17
145 2 193.262 79.6671 -4.05231e-17
146 1 153.452 125.722 -4.05231e-17
147 2 16.5776 134.916 -4.05231e-17
148 1 24.3788 133.232 -4.05231e-17
149 1 147.568 190.264 -4.05231e-17
150 2 65.981 52.5123 -4.05231e-17
151 1 132.465 137.952 -4.05231e-17
152 1 164.043 163.513 -4.05231e-17
153 2 124.16 130.024 -4.05231e-17
154 1 183.949 52.8071 -4.05231e-17
155 2 203.09 39.8975 -4.05231e-17
156 2 109.439 197.022 -4.05231e-17
157 2 166.719 25.9971 -4.05231e-17
158 2 27.7418 8.19596 -4.05231e-17
159 2 12.0227 159.133 -4.05231e-17
160 2 121.125 54.91 -4.05231e-17
161 2 129.694 138.591 -4.05231e-17
162 1 24.1879 67.4557 -4.05231e-17
163 1 188.869 34.1189 -4.05231e-17
164 2 108.471 134.427 -4.05231e-17
165 1 48.8357 72.0302 -4.05231e-17
166 2 6.36524 199.953 -4.05231e-17
167 1 107.291 167.954 -4.05231e-17
168 1 211.266 102.596 -4.05231e-17
169 2 98.1229 199.583 -4.05231e-17
170 1 66.0561 206.304 -4.05231e-17
171 1 137.562 92.3498 -4.05231e-17
172 1 199.49 199.904 -4.05231e-17
173 1 38.8124 204.101 -4.05231e-17
174 2 38.3145 173.581 -4.05231e-17
175 2 50.0705 199.887 -4.05231e-17
176 1 119.767 151.626 -4.05231e-17
177 2 104.568 15.1356 -4.05231e-17
178 1 25.2249 8.13801 -4.05231e-17
179 2 106.137 197.049 -4.05231e-17
180 1 47.1421 76.2769 -4.05231e-17
181 1 15.8768 119.444 -4.05231e-17
182 1 113.766 86.6027 -4.05231e-17
183 1 64.1569 168.186 -4.05231e-17
184 2 157.327 25.3713 -4.05231e-17
185 2 190.289 78.4601 -4.05231e-17
186 2 74.2064 206.097 -4.05231e-17
187 2 159.226 201.386 -4.05231e-17
188 2 60.5446 28.3427 -4.05231e-17
189 1 190.871 57.6036 -4.05231e-17
190 1 196.329 55.7129 -4.05231e-17
191 2 35.5252 104.787 -4.05231e-17
192 2 90.9044 61.3825 -4.05231e-17
193 1 108.738 166.005 -4.05231e-17
194 1 26.7655 5.68938 -4.05231e-17
195 2 58.3854 120.135 -4.05231e-17
196 1 218.989 0.368215 -4.05231e-17
197 2 118.409 47.8811 -4.05231e-17
198 2 206.074 27.1709 -4.05231e-17
199 2 99.8335 170.291 -4.05231e-17
200 2 98.5706 30.7906 -4.05231e-17
201 2 103.698 120.438 -4.05231e-17
202 1 44.0928 33.9079 -4.05231e-17
203 1 18.5149 43.2487 -4.05231e-17
204 2 44.936 78.0176 -4.05231e-17
205 2 182.974 182.4 -4.05231e-17
206 2 171.227 128.048 -4.05231e-17
207 1 74.5083 189.024 -4.05231e-17
208 2 134.994 54.7191 -4.05231e-17
209 2 32.9404 142.317 -4.05231e-17
210 1 182.254 113.344 -4.05231e-17
211 1 208.005 35.4787 -4.05231e-17
212 1 208.411 85.0624 -4.05231e-17
213 1 128.296 123.668 -4.05231e-17
214 2 12.1821 11.4638 -4.05231e-17
215 1 5.08586 142.35 -4.05231e-17
216 1 54.8161 46.4865 -4.05231e-17
217 1 164.441 61.4941 -4.05231e-17
218 2 201.215 121.005 -4.05231e-17
219 2 136.393 189.71 -4.05231e-17
220 1 121.006 1.44912 -4.05231e-17
221 2 83.3219 7.0654 -4.05231e-17
222 1 158.784 157.551 -4.05231e-17
223 1 45.8718 120.845 -4.05231e-17
224 2 146.143 71.0105 -4.05231e-17
225 2 169.158 164.134 -4.05231e-17
226 1 196.283 10.3283 -4.05231e-17
227 2 203.28 214.776 -4.05231e-17
228 2 117.298 63.8992 -4.05231e-17
229 1 47.7187 22.6773 -4.05231e-17
230 1 4.90257 56.8535 -4.05231e-17
231 2 137.847 160.644 -4.05231e-17
232 1 17.9741 212.691 -4.05231e-17
233 2 75.7576 195.529 -4.05231e-17
234 1 0.711204 59.6288 -4.05231e-17
235 1 150.702 105.928 -4.05231e-17
236 2 152.954 52.8349 -4.05231e-17
237 2 99.5785 204.217 -4.05231e-17
238 2 95.4219 140.535 -4.05231e-17
239 1 35.2305 216.81 -4.05231e-17
240 1 129.775 90.8012 -4.05231e-17
241 2 3.3293 124.411 -4.05231e-17
242 1 194.205 28.5249 -4.05231e-17
243 2 214.504 130.159 -4.05231e-17
244 2 35.5084 190.957 -4.05231e-17
245 1 173.775 21.7422 -4.05231e-17
246 2 90.2182 85.3661 -4.05231e-17
247 2 198.681 150.424 -4.05231e-17
248 1 37.9811 26.8483 -4.05231e-17
249 1 131.997 108.406 -4.05231e-17
250 1 134.449 27.759 -4.05231e-17
251 2 102.279 43.6004 -4.05231e-17
252 1 111.303 156.976 -4.05231e-17
253 2 95.7501 97.6862 -4.05231e-17
254 2 179.158 205.314 -4.05231e-17
255 2 121.267 51.9543 -4.05231e-17
256 1 2.96501 180.345 -4.05231e-17
257 2 32.5015 195.198 -4.05231e-17
258 1 210.769 81.3326 -4.05231e-17
259 2 161.05 141.886 -4.05231e-17
260 1 40.6049 192.902 -4.05231e-17
261 2 142.997 177.118 -4.05231e-17
262 2 187.029 110.394 -4.05231e-17
263 2 94.4993 172.741 -4.05231e-17
264 1 199.216 36.3049 -4.05231e-17
265 1 157.566 187.132 -4.05231e-17
266 1 98.7075 196.979 -4.05231e-17
267 2 115.239 16.0039 -4.05231e-17
268 1 218.474 48.8559 -4.05231e-17
269 2 10.057 113.455 -4.05231e-17
270 2 185.389 148.863 -4.05231e-17
271 2 187.878 95.0085 -4.05231e-17
272 1 59.4776 25.5808 -4.05231e-17
273 1 70.4276 83.3853 -4.05231e-17
274 1 38.1586 196.125 -4.05231e-17
275 1 147.13 109.874 -4.05231e-17
276 1 199.292 74.6749 -4.05231e-17
277 1 100.566 37.8089 -4.05231e-17
278 2 60.9783 145.43 -4.05231e-17
279 2 160.048 86.4226 -4.05231e-17
280 1 117.451 210.557 -4.05231e-17
281 2 169.556 182.423 -4.05231e-17
282 2 75.6254 127.503 -4.05231e-17
283 2 218.962 151.277 -4.05231e-17
284 1 126.171 113.472 -4.05231e-17
285 1 73.5087 165.284 -4.05231e-17
286 2 30.268 180.385 -4.05231e-17
287 2 93.6914 109.876 -4.05231e-17
288 1 104.557 122.806 -4.05231e-17
289 2 193.72 56.9043 -4.05231e-17
290 1 100.943 29.5268 -4.05231e-17
291 2 96.6348 186.037 -4.05231e-17
292 1 77.5478 125.751 -4.05231e-17
293 1 159.12 168.18 -4.05231e-17
294 1 29.8805 177.905 -4.05231e-17
295 2 46.6398 146.019 -4.05231e-17
296 1 197.065 176.797 -4.05231e-17
297 1 2.18583 18.4525 -4.05231e-17
298 2 30.5149 140.883 -4.05231e-17
299 1 177.189 55.6762 -4.05231e-17
300 2 189.947 192.714 -4.05231e-17
301 2 172.03 19.6743 -4.05231e-17
302 2 163.601 89.0873 -4.05231e-17
303 1 2.4264 151.88 -4.05231e-17
304 1 124.072 105.87 -4.05231e-17
305 1 92.6264 177.653 -4.05231e-17
306 2 83.7675 17.9308 -4.05231e-17
307 2 150.656 168.094 -4.05231e-17
308 2 142.091 22.7058 -4.05231e-17
309 1 69.9088 71.7383 -4.05231e-17
310 1 190.359 190.094 -4.05231e-17
311 1 151.322 108.559 -4.05231e-17
312 2 134.658 13.5015 -4.05231e-17
313 2 154.853 18.2741 -4.05231e-17
314 1 184.251 58.1689 -4.05231e-17
315 2 56.9206 108.084 -4.05231e-17
316 1 95.786 30.9128 -4.05231e-17
317 1 133.052 176.044 -4.05231e-17
318 1 216.189 135.421 -4.05231e-17
319 2 74.0659 200.931 -4.05231e-17
320 1 214.064 48.0589 -4.05231e-17
321 1 52.4512 87.3196 -4.05231e-17
322 1 51.2226 148.318 -4.05231e-17
323 2 20.275 139.036 -4.05231e-17
324 2 7.99045 95.6092 -4.05231e-17
325 2 216.106 13.6324 -4.05231e-17
326 1 184.83 1.21047 -4.05231e-17
327 1 35.927 46.0122 -4.05231e-17
328 2 32.5005 192.177 -4.05231e-17
329 2 28.196 83.0119 -4.05231e-17
330 2 153.351 38.7601 -4.05231e-17
331 2 187.842 67.6593 -4.05231e-17
332 2 121.616 114.776 -4.05231e-17
333 2 27.9908 151.242 -4.05231e-17
334 2 215.751 18.2464 -4.05231e-17
335 1 166.961 211.495 -4.05231e-17
336 2 27.8474 142.142 -4.05231e-17
337 2 40.8547 9.76967 -4.05231e-17
338 1 203.311 90.6474 -4.05231e-17
339 2 15.0411 152.618 -4.05231e-17
340 2 176.943 214.182 -4.05231e-17
341 2 101.949 60.0336 -4.05231e-17
342 2 173.507 166.894 -4.05231e-17
343 2 175.944 5.2312 -4.05231e-17
344 1 88.2612 105.722 -4.05231e-17
345 2 26.5518 212.855 -4.05231e-17
346 2 74.6661 72.6156 -4.05231e-17
347 1 147.877 98.582 -4.05231e-17
348 1 181.231 3.96802 -4.05231e-17
349 2 173.144 70.4111 -4.05231e-17
350 2 78.1933 178.467 -4.05231e-17
351 1 175.098 141.44 -4.05231e-17
352 1 212.75 163.696 -4.05231e-17
353 2 141.09 131.793 -4.05231e-17
354 2 192.008 176.143 -4.05231e-17
355 1 216.089 157.463 -4.05231e-17
356 2 114.62 1.27393 -4.05231e-17
357 1 127.216 192.6 -4.05231e-17
358 1 78.0314 25.1712 -4.05231e-17
359 1 34.6683 144.154 -4.05231e-17
360 1 53.8511 6.76765 -4.05231e-17
361 2 196.654 68.4127 -4.05231e-17
362 2 172.621 94.4902 -4.05231e-17
363 1 78.7133 215.178 -4.05231e-17
364 2 216.912 46.8276 -4.05231e-17
365 1 5.689 164.682 -4.05231e-17
366 1 82.8475 172.577 -4.05231e-17
367 1 160.993 104.024 -4.05231e-17
368 1 20.9666 164.638 -4.05231e-17
369 2 81.8647 143.752 -4.05231e-17
370 1 6.22676 132.5 -4.05231e-17
371 2 71.4257 111.34 -4.05231e-17
372 1 87.9402 6.95374 -4.05231e-17
373 2 118.226 208.261 -4.05231e-17
374 2 176.951 101.527 -4.05231e-17
375 1 135.994 25.8896 -4.05231e-17
376 1 121.968 147.419 -4.05231e-17
377 2 94.564 76.5668 -4.05231e-17
378 2 215.897 106.937 -4.05231e-17
379 2 169.525 187.548 -4.05231e-17
380 1 199.572 33.6359 -4.05231e-17
381 1 174.726 68.0783 -4.05231e-17
382 1 122.16 26.5406 -4.05231e-17
383 1 110.474 82.8108 -4.05231e-17
384 2 54.1243 101.09 -4.05231e-17
385 1 66.1634 148.824 -4.05231e-17
386 2 179.548 175.984 -4.05231e-17
387 1 35.1179 107.528 -4.05231e-17
388 1 144.035 164.122 -4.05231e-17
389 2 215.907 121.15 -4.05231e-17
390 1 104.796 66.433 -4.05231e-17
391 1 203.012 217.437 -4.05231e-17
392 2 4.44937 100.56 -4.05231e-17
393 2 192.491 173.231 -4.05231e-17
394 1 36.4412 203.72 -4.05231e-17
395 1 19.5029 215.091 -4.05231e-17
396 2 75.6868 87.9286 -4.05231e-17
397 1 67.5741 41.9453 -4.05231e-17
398 2 165.644 110.871 -4.05231e-17
399 2 196.587 106.543 -4.05231e-17
400 2 123.338 69.1534 -4.05231e-17
401 2 84.1671 190.397 -4.05231e-17
402 1 84.3216 42.9675 -4.05231e-17
403 1 70.175 116.567 -4.05231e-17
404 2 112.862 13.6453 -4.05231e-17
405 1 49.2834 197.276 -4.05231e-17
406 2 217.184 95.8889 -4.05231e-17
407 1 124.305 78.7413 -4.05231e-17
408 1 129.833 29.2358 -4.05231e-17
409 2 214.445 116.122 -4.05231e-17
410 2 70.7625 159.055 -4.05231e-17
411 1 136.618 96.9164 -4.05231e-17
412 1 164.342 7.02692 -4.05231e-17
413 1 34.461 86.8453 -4.05231e-17
414 2 193.196 202.377 -4.05231e-17
415 1 107.584 126.676 -4.05231e-17
416 1 175.785 51.9679 -4.05231e-17
417 2 107.888 129.16 -4.05231e-17
418 2 34.877 179.925 -4.05231e-17
419 2 195.191 91.9007 -4.05231e-17
420 2 108.666 44.1196 -4.05231e-17
421 1 70.2182 30.9387 -4.05231e-17
422 1 35.4589 61.0271 -4.05231e-17
423 2 116.77 125.251 -4.05231e-17
424 2 39.0426 24.5671 -4.05231e-17
425 2 117.151 150.438 -4.05231e-17
426 1 186.099 96.9395 -4.05231e-17
427 2 74.8802 60.2543 -4.05231e-17
428 1 29.3041 175.201 -4.05231e-17
429 2 131.643 149.752 -4.05231e-17
430 2 111.735 104.519 -4.05231e-17
431 1 13.5528 9.37206 -4.05231e-17
432 2 173.789 3.30836 -4.05231e-17
433 1 186.597 198.726 -4.05231e-17
434 1 20.2765 205.259 -4.05231e-17
435 1 149.759 85.1999 -4.05231e-17
436 2 85.0188 198.405 -4.05231e-17
437 2 181.099 82.3078 -4.05231e-17
438 2 194.498 177.856 -4.05231e-17
439 2 92.6181 9.99144 -4.05231e-17
440 2 200.922 91.7358 -4.05231e-17
441 1 131.176 167.44 -4.05231e-17
442 1 38.2453 105.056 -4.05231e-17
443 2 79.1802 81.5705 -4.05231e-17
444 1 204.237 104.649 -4.05231e-17
445 1 168.984 133.208 -4.05231e-17
446 2 182.799 150.71 -4.05231e-17
447 2 40.0934 39.9596 -4.05231e-17
448 2 205.688 175.931 -4.05231e-17
449 1 41.4351 177.46 -4.05231e-17
450 1 10.3682 126.516 -4.05231e-17
451 1 53.8124 209.267 -4.05231e-17
452 2 208.661 61.0759 -4.05231e-17
453 1 216.301 150.376 -4.05231e-17
454 1 3.29329 68.6496 -4.05231e-17
455 2 81.9831 131.377 -4.05231e-17
456 1 84.6119 1.43852 -4.05231e-17
457 2 140.671 145.404 -4.05231e-17
458 2 155.829 135.714 -4.05231e-17
459 2 133.2 51.5292 -4.05231e-17
460 1 197.221 170.119 -4.05231e-17
461 1 112.327 128.502 -4.05231e-17
462 1 103.866 196.094 -4.05231e-17
463 2 110.31 217.86 -4.05231e-17
464 2 13.6019 77.7243 -4.05231e-17
465 1 123.648 15.969 -4.05231e-17
466 2 150.631 126.301 -4.05231e-17
467 2 66.1005 133.44 -4.05231e-17
468 2 124.079 125.445 -4.05231e-17
469 2 58.0385 71.5401 -4.05231e-17
470 2 208.461 154.875 -4.05231e-17
471 2 212.003 211.602 -4.05231e-17
472 2 110.917 36.6996 -4.05231e-17
473 2 197.943 214.636 -4.05231e-17
474 2 85.1905 146.863 -4.05231e-17
475 1 164.014 183.154 -4.05231e-17
476 2 174.919 34.9227 -4.05231e-17
477 1 208.356 218.265 -4.05231e-17
478 1 46.3196 188.414 -4.05231e-17
479 2 1.19489 198.104 -4.05231e-17
480 1 82.4958 61.6716 -4.05231e-17
481 1 2.6775 209.665 -4.05231e-17
482 2 152.872 176.788 -4.05231e-17
483 1 134.398 209.41 -4.05231e-17
484 1 66.1961 135.975 -4.05231e-17
485 2 13.5211 174.107 -4.05231e-17
486 1 132.509 72.7491 -4.05231e-17
487 1 13.0426 202.378 -4.05231e-17
488 1 49.6274 83.8113 -4.05231e-17
489 1 70.4764 109.023 -4.05231e-17
490 1 164.824 73.4851 -4.05231e-17
491 1 163.321 75.243 -4.05231e-17
492 2 209.085 15.3196 -4.05231e-17
493 1 93.7293 203.104 -4.05231e-17
494 2 77.5212 66.3397 -4.05231e-17
495 1 150.002 92.131 -4.05231e-17
496 1 52.282 123.638 -4.05231e-17
497 1 136.954 109.966 -4.05231e-17
498 2 144.996 38.843 -4.05231e-17
499 2 177.346 119.296 -4.05231e-17
500 2 57.327 32.3611 -4.05231e-17
501 2 14.5118 139.534 -4.05231e-17
502 2 190.626 126.381 -4.05231e-17
503 2 57.1749 63.8608 -4.05231e-17
504 2 98.0204 50.5467 -4.05231e-17
505 2 112.507 213.739 -4.05231e-17
506 1 206.836 6.18339 -4.05231e-17
507 2 49.8751 182.384 -4.05231e-17
508 1 140.548 59.4238 -4.05231e-17
509 1 209.509 47.3002 -4.05231e-17
510 1 195.182 104.079 -4.05231e-17
511 2 108.222 179.769 -4.05231e-17
512 1 10.8925 42.9426 -4.05231e-17
513 2 88.0485 183.031 -4.05231e-17
514 2 14.895 87.2492 -4.05231e-17
515 1 60.3728 98.7042 -4.05231e-17
516 2 100.603 74.373 -4.05231e-17
517 1 32.2442 147.997 -4.05231e-17
518 2 10.0132 13.7652 -4.05231e-17
519 1 125.206 92.0067 -4.05231e-17
520 2 209.453 93.7101 -4.05231e-17
521 2 129.577 39.2903 -4.05231e-17
522 1 186.812 7.53803 -4.05231e-17
523 1 127.897 99.6501 -4.05231e-17
524 2 175.005 19.3015 -4.05231e-17
525 2 185.396 45.5845 -4.05231e-17
526 2 107.625 16.049 -4.05231e-17
527 1 172.193 25.4711 -4.05231e-17
528 1 212.98 202.281 -4.05231e-17
529 2 104.89 176.277 -4.05231e-17
530 2 18.7795 88.317 -4.05231e-17
531 2 184.674 172.056 -4.05231e-17
532 1 81.2392 4.78461 -4.05231e-17
533 2 23.4608 158.232 -4.05231e-17
534 1 22.9029 168.531 -4.05231e-17
535 1 169.543 207.246 -4.05231e-17
536 2 18.1485 169.67 -4.05231e-17
537 1 142.086 29.4063 -4.05231e-17
538 1 68.466 157.943 -4.05231e-17
539 2 80.7503 163.084 -4.05231e-17
540 1 35.4018 182.474 -4.05231e-17
541 1 105.507 128.133 -4.05231e-17
542 1 58.6174 126.776 -4.05231e-17
543 2 120.713 168.757 -4.05231e-17
544 1 217.589 211.824 -4.05231e-17
545 1 174.91 72.1583 -4.05231e-17
546 2 186.607 10.2027 -4.05231e-17
547 1 12.7738 71.5703 -4.05231e-17
548 1 29.2799 5.82603 -4.05231e-17
549 2 35.4935 152.619 -4.05231e-17
550 2 164.773 193.467 -4.05231e-17
551 2 37.9912 7.32192 -4.05231e-17
552 1 31.9121 51.638 -4.05231e-17
553 2 206.977 196.982 -4.05231e-17
554 2 144.081 34.4634 -4.05231e-17
555 2 177.675 134.639 -4.05231e-17
556 1 177.868 211.716 -4.05231e-17
557 1 210.954 54.2398 -4.05231e-17
558 1 60.2936 142.806 -4.05231e-17
559 2 106.406 91.2306 -4.05231e-17
560 2 57.1723 89.4231 -4.05231e-17
561 2 110.689 181.461 -4.05231e-17
562 2 97.9835 66.0178 -4.05231e-17
563 1 73.5083 168.02 -4.05231e-17
564 2 103.464 78.7365 -4.05231e-17
565 2 32.6062 61.7388 -4.05231e-17
566 2 63.8015 60.681 -4.05231e-17
567 1 95.013 11.3862 -4.05231e-17
568 1 22.2576 77.9995 -4.05231e-17
569 2 141.56 194.498 -4.05231e-17
570 2 11.6161 21.4032 -4.05231e-17
571 2 5.36844 61.9307 -4.05231e-17
572 1 115.243 107.787 -4.05231e-17
573 2 38.2427 90.0387 -4.05231e-17
574 2 179.049 170.769 -4.05231e-17
575 1 196.121 206.758 -4.05231e-17
576 1 23.118 69.85 -4.05231e-17
577 1 127.792 74.4867 -4.05231e-17
578 1 183.922 115.159 -4.05231e-17
579 2 182.433 46.477 -4.05231e-17
580 1 109.316 103.483 -4.05231e-17
581 1 92.0858 146.572 -4.05231e-17
582 2 125.737 101.338 -4.05231e-17
583 2 103.596 84.098 -4.05231e-17
584 2 107.178 151.544 -4.05231e-17
585 1 181.458 103.012 -4.05231e-17
586 1 143.558 80.1702 -4.05231e-17
587 1 158.692 111.06 -4.05231e-17
588 2 64.4908 109.036 -4.05231e-17
589 1 210.87 59.8035 -4.05231e-17
590 2 181.696 58.0108 -4.05231e-17
591 2 178.91 16.8619 -4.05231e-17
592 1 203.988 128.871 -4.05231e-17
593 1 127.146 90.0887 -4.05231e-17
594 1 5.16684 70.1745 -4.05231e-17
595 1 30.6659 63.6573 -4.05231e-17
596 2 106.317 72.717 -4.05231e-17
597 2 63.6288 105.876 -4.05231e-17
598 2 136.049 87.6546 -4.05231e-17
599 2 96.8583 165.825 -4.05231e-17
600 2 49.357 98.8944 -4.05231e-17
601 1 146.085 107.699 -4.05231e-17
602 1 173.526 51.742 -4.05231e-17
603 2 216.714 159.971 -4.05231e-17
604 1 45.9978 179.202 -4.05231e-17
605 2 140.125 100.468 -4.05231e-17
606 2 150.337 98.962 -4.05231e-17
607 2 47.7192 169.39 -4.05231e-17
608 2 127.709 30.6698 -4.05231e-17
609 1 77.9374 88.9011 -4.05231e-17
610 2 105.954 200.189 -4.05231e-17
611 1 1.45971 165.885 -4.05231e-17
612 1 207.174 117.775 -4.05231e-17
613 2 213.497 156.689 -4.05231e-17
614 1 202.442 30.3493 -4.05231e-17
615 1 152.537 103.804 -4.05231e-17
616 2 146.099 178.018 -4.05231e-17
617 1 168.364 1.14076 -4.05231e-17
618 1 137.307 216.706 -4.05231e-17
619 1 164.375 160.786 -4.05231e-17
620 2 42.6955 89.2251 -4.05231e-17
621 2 203.762 77.0719 -4.05231e-17
622 2 145.031 154.634 -4.05231e-17
623 2 109.142 147.205 -4.05231e-17
624 1 107.523 177.275 -4.05231e-17
625 2 208.785 79.7394 -4.05231e-17
626 1 210.809 190.359 -4.05231e-17
627 2 195 193.14 -4.05231e-17
628 1 116.98 156.144 -4.05231e-17
629 1 30.5736 40.9414 -4.05231e-17
630 2 133.383 214.317 -4.05231e-17
631 2 144.874 114.666 -4.05231e-17
632 2 208.752 19.8451 -4.05231e-17
633 2 60.9016 131.789 -4.05231e-17
634 2 191.431 67.9192 -4.05231e-17
635 2 79.7576 72.4377 -4.05231e-17
636 1 88.6138 131.168 -4.05231e-17
637 1 217.015 152.858 -4.05231e-17
638 1 116.447 69.6545 -4.05231e-17
639 2 200.675 65.4062 -4.05231e-17
640 2 149.539 78.1094 -4.05231e-17
641 1 200.127 96.5788 -4.05231e-17
642 2 161.502 35.2519 -4.05231e-17
643 1 165.194 57.6271 -4.05231e-17
644 2 139.968 155.035 -4.05231e-17
645 2 5.67962 75.3119 -4.05231e-17
646 1 169.706 142.731 -4.05231e-17
647 2 129.352 147.894 -4.05231e-17
648 2 190.66 211.678 -4.05231e-17
649 1 63.7264 145.281 -4.05231e-17
650 1 56.2916 152.999 -4.05231e-17
651 1 112.791 130.78 -4.05231e-17
652 2 8.2239 214.258 -4.05231e-17
653 2 195.325 45.3811 -4.05231e-17
654 1 208.394 164.687 -4.05231e-17
655 1 63.0131 47.5774 -4.05231e-17
656 1 198.915 10.3476 -4.05231e-17
657 1 125.273 120.584 -4.05231e-17
658 2 165.733 105.734 -4.05231e-17
659 2 101.645 137.156 -4.05231e-17
660 1 24.9345 12.4361 -4.05231e-17
661 2 15.6499 37.0021 -4.05231e-17
662 2 135.901 116.902 -4.05231e-17
663 1 163.712 112.758 -4.05231e-17
664 1 80.4698 138.653 -4.05231e-17
665 1 135.902 143.823 -4.05231e-17
666 1 202.885 185.533 -4.05231e-17
667 1 0.332837 116.612 -4.05231e-17
668 1 134.408 156.677 -4.05231e-17
669 1 107.539 160.758 -4.05231e-17
670 2 211.909 161.072 -4.05231e-17
671 1 3.44223 16.1443 -4.05231e-17
672 1 193.425 141.495 -4.05231e-17
673 2 47.1451 84.8966 -4.05231e-17
674 2 182.481 205.456 -4.05231e-17
675 2 152.215 2.01937 -4.05231e-17
676 1 180.661 160.066 -4.05231e-17
677 2 52.7319 53.1311 -4.05231e-17
678 1 86.5908 113.808 -4.05231e-17
679 1 86.4583 65.0091 -4.05231e-17
680 2 71.706 13.5823 -4.05231e-17
681 1 5.26472 9.26565 -4.05231e-17
682 1 141.652 171.614 -4.05231e-17
683 2 96.7094 123.273 -4.05231e-17
684 1 23.2676 180.642 -4.05231e-17
685 1 83.5464 206.166 -4.05231e-17
686 1 143.046 159.528 -4.05231e-17
687 1 107.844 52.8685 -4.05231e-17
688 1 151.973 97.0641 -4.05231e-17
689 2 11.1331 139.746 -4.05231e-17
690 1 48.331 121.008 -4.05231e-17
691 2 65.0782 115.676 -4.05231e-17
692 2 180.136 178.934 -4.05231e-17
693 1 161.772 95.8852 -4.05231e-17
694 2 147.243 149.754 -4.05231e-17
695 2 188.457 36.7466 -4.05231e-17
696 2 31.5605 82.8273 -4.05231e-17
697 1 103.965 35.6332 -4.05231e-17
698 2 41.4633 18.2844 -4.05231e-17
699 1 57.0742 202.578 -4.05231e-17
700 2 17.6228 126.473 -4.05231e-17
701 2 29.7235 65.9784 -4.05231e-17
702 1 160.408 9.85835 -4.05231e-17
703 1 195.654 60.6666 -4.05231e-17
704 1 159.895 121.741 -4.05231e-17
705 1 43.4612 120.483 -4.05231e-17
706 1 75.371 161.42 -4.05231e-17
707 1 182.075 66.5944 -4.05231e-17
708 2 195.395 101.499 -4.05231e-17
709 1 54.4171 160.296 -4.05231e-17
710 2 91.7288 16.1221 -4.05231e-17
711 2 0.133586 141.469 -4.05231e-17
712 1 84.1013 213.492 -4.05231e-17
713 1 4.98924 152.598 -4.05231e-17
714 2 145.238 147.42 -4.05231e-17
715 2 133.496 86.8897 -4.05231e-17
716 1 88.7959 59.908 -4.05231e-17
717 1 14.8109 61.2693 -4.05231e-17
718 2 78.7245 99.9696 -4.05231e-17
719 1 68.9348 202.637 -4.05231e-17
720 2 51.783 197.286 -4.05231e-17
721 2 43.6287 213.035 -4.05231e-17
722 2 65.3732 138.22 -4.05231e-17
723 2 15.5203 165.751 -4.05231e-17
724 2 202.538 106.876 -4.05231e-17
725 2 22.0886 50.3529 -4.05231e-17
726 2 177.716 124.131 -4.05231e-17
727 2 35.4043 109.935 -4.05231e-17
728 1 176.548 77.252 -4.05231e-17
729 2 167.128 131.258 -4.05231e-17
730 2 175.428 94.4136 -4.05231e-17
731 1 9.78649 23.3006 -4.05231e-17
732 2 98.1011 86.8691 -4.05231e-17
733 2 147.993 146.681 -4.05231e-17
734 2 59.2864 191.877 -4.05231e-17
735 2 149.216 71.8255 -4.05231e-17
736 1 181.961 176.955 -4.05231e-17
737 2 48.6825 39.5441 -4.05231e-17
738 2 71.0741 207.251 -4.05231e-17
739 2 185.877 131.23 -4.05231e-17
740 2 40.7691 115.647 -4.05231e-17
741 2 200.949 113.826 -4.05231e-17
742 1 71.653 98.853 -4.05231e-17
743 2 78.5368 75.749 -4.05231e-17
744 1 146.763 50.0982 -4.05231e-17
745 2 15.6814 75.7683 -4.05231e-17
746 1 218.612 121.149 -4.05231e-17
747 1 98.5854 163.342 -4.05231e-17
748 2 70.0496 197.424 -4.05231e-17
749 1 213.534 166.199 -4.05231e-17
750 1 139.688 147.896 -4.05231e-17
751 1 143.272 88.7882 -4.05231e-17
752 2 194.912 168.673 -4.05231e-17
753 1 37.4828 180.74 -4.05231e-17
754 2 65.8791 81.0903 -4.05231e-17
755 1 6.45998 80.7857 -4.05231e-17
756 2 178.439 58.3785 -4.05231e-17
757 1 110.303 14.9377 -4.05231e-17
758 2 99.2707 27.664 -4.05231e-17
759 1 96.3679 133.217 -4.05231e-17
760 1 170.916 61.3294 -4.05231e-17
761 2 213.2 101.105 -4.05231e-17
762 1 178.274 105.946 -4.05231e-17
763 2 6.56689 157.747 -4.05231e-17
764 2 43.621 188.387 -4.05231e-17
765 1 22.0661 160.433 -4.05231e-17
766 2 100.008 48.0347 -4.05231e-17
767 2 206.219 149.057 -4.05231e-17
768 2 71.8137 61.4512 -4.05231e-17
769 2 188.144 98.3267 -4.05231e-17
770 1 134.076 18.2218 -4.05231e-17
771 1 64.047 63.5479 -4.05231e-17
772 1 128.67 1.08523 -4.05231e-17
773 2 166.807 172.102 -4.05231e-17
774 1 87.9558 86.8763 -4.05231e-17
775 1 102.48 76.3378 -4.05231e-17
776 2 192.467 103.385 -4.05231e-17
777 2 42.2464 80.0818 -4.05231e-17
778 1 83.2506 12.8859 -4.05231e-17
779 1 47.5183 61.0911 -4.05231e-17
780 2 83.342 49.7865 -4.05231e-17
781 1 26.0452 172.043 -4.05231e-17
782 2 123.639 170.525 -4.05231e-17
783 1 74.2746 62.8873 -4.05231e-17
784 2 96.5424 110.289 -4.05231e-17
785 1 204.538 82.4867 -4.05231e-17
786 1 40.8546 7.06905 -4.05231e-17
787 2 37.7783 208.769 -4.05231e-17
788 2 164.804 180.691 -4.05231e-17
789 2 18.3855 147.482 -4.05231e-17
790 2 77.345 7.88739 -4.05231e-17
791 2 186.489 53.6432 -4.05231e-17
792 1 213.084 132.581 -4.05231e-17
793 1 96.9696 171.664 -4.05231e-17
794 2 209.497 6.8106 -4.05231e-17
795 2 10.5793 192.027 -4.05231e-17
796 1 69.2028 215.115 -4.05231e-17
797 1 46.381 32.662 -4.05231e-17
798 1 213.155 56.0322 -4.05231e-17
799 2 105.986 155.895 -4.05231e-17
800 1 56.7219 37.1168 -4.05231e-17
801 2 68.2071 84.7134 -4.05231e-17
802 1 90.5803 216.763 -4.05231e-17
803 1 143.058 25.0689 -4.05231e-17
804 1 210.213 124.853 -4.05231e-17
805 2 183.569 117.789 -4.05231e-17
806 2 178.797 158.379 -4.05231e-17
807 2 208.514 29.2253 -4.05231e-17
808 2 76.518 144.667 -4.05231e-17
809 1 175.438 63.1693 -4.05231e-17
810 2 23.9716 173.653 -4.05231e-17
811 2 180.01 55.5494 -4.05231e-17
812 1 121.997 184.906 -4.05231e-17
813 1 22.0185 95.5234 -4.05231e-17
814 1 2.71933 205.515 -4.05231e-17
815 1 145.713 32.2789 -4.05231e-17
816 1 206.74 51.2255 -4.05231e-17
817 2 62.4021 70.9644 -4.05231e-17
818 2 29.1919 123.025 -4.05231e-17
819 2 210.99 68.2816 -4.05231e-17
820 1 9.76963 58.8076 -4.05231e-17
821 1 64.5907 58.0534 -4.05231e-17
822 2 131.367 34.5857 -4.05231e-17
823 1 184.251 90.5033 -4.05231e-17
824 1 176.12 89.7817 -4.05231e-17
825 1 160.308 191.071 -4.05231e-17
826 2 178.605 81.6332 -4.05231e-17
827 2 102.268 26.9868 -4.05231e-17
828 1 50.4381 91.5048 -4.05231e-17
829 2 127.665 92.6148 -4.05231e-17
830 1 4.00212 156.995 -4.05231e-17
831 2 183.582 218.012 -4.05231e-17
832 2 27.0126 52.254 -4.05231e-17
833 2 96.585 41.8887 -4.05231e-17
834 1 71.0618 164.078 -4.05231e-17
835 1 185.006 141.202 -4.05231e-17
836 1 153.416 69.5327 -4.05231e-17
837 2 168.023 91.6252 -4.05231e-17
838 2 91.7495 26.3819 -4.05231e-17
839 1 39.1243 31.926 -4.05231e-17
840 2 13.7646 117.4 -4.05231e-17
841 2 201.439 10.5585 -4.05231e-17
842 1 174.432 157.604 -4.05231e-17
843 1 205.309 29.5959 -4.05231e-17
844 2 8.42321 25.5065 -4.05231e-17
845 1 46.862 151.34 -4.05231e-17
846 2 127.721 211.444 -4.05231e-17
847 1 88.9131 143.235 -4.05231e-17
848 2 112.334 8.63638 -4.05231e-17
849 1 24.7936 33.0078 -4.05231e-17
850 2 59.673 67.3732 -4.05231e-17
851 2 216.3 30.7347 -4.05231e-17
852 1 137.438 182.798 -4.05231e-17
853 1 185.439 105 -4.05231e-17
854 2 104.638 144.631 -4.05231e-17
855 2 165.871 121.249 -4.05231e-17
856 1 77.7066 160.171 -4.05231e-17