ITEM: TIMESTEP
0
ITEM: NUMBER OF ATOMS
7200
ITEM: BOX BOUNDS xy xz yz pp pp pp
0.0000000000000000e+00 2.1900000000000000e+02 0.0000000000000000e+00
0.0000000000000000e+00 2.1900000000000000e+02 0.0000000000000000e+00
-3.6499999999999999e-01 3.6499999999999999e-01 0.0000000000000000e+00
ITEM: ATOMS id type x y z
1 1 67.6763 134.349 -5.55112e-17
2 1 183.025 109.067 -5.55112e-17
3 1 12.7629 160.299 -5.55112e-17
4 1 9.2219 86.5276 -5.55112e-17
5 1 215.685 157.525 -5.55112e-17
6 1 116.71 210.379 -5.55112e-17
7 1 42.3574 51.7571 -5.55112e-17
8 2 152.924 83.9042 -5.55112e-17
9 1 203.166 10.203 -5.55112e-17
10 2 57.4251 193.308 -5.55112e-17
11 1 114.219 14.6063 -5.55112e-17
12 1 129.261 79.2501 -5.55112e-17
13 2 52.7589 79.2907 -5.55112e-17
14 1 65.0982 17.7333 -5.55112e-17
15 1 132.487 101.056 -5.55112e-17
16 2 60.3931 172.273 -5.55112e-17
17 1 114.244 30.5091 -5.55112e-17
18 2 33.224 77.7943 -5.55112e-17
19 1 106.761 51.5107 -5.55112e-17
20 1 146.984 96.2298 -5.55112e-17
21 1 41.7105 5.61347 -5.55112e-17
22 2 49.3261 148.333 -5.55112e-17
23 2 15.8845 56.5412 -5.55112e-17
24 1 160.387 99.2119 -5.55112e-17
25 1 75.3756 182.924 -5.55112e-17
26 2 87.147 96.3344 -5.55112e-17
27 1 155.657 174.554 -5.55112e-17
28 2 24.8389 158.618 -5.55112e-17
29 1 55.516 46.2082 -5.55112e-17
30 1 140.502 89.0061 -5.55112e-17
31 1 212.435 90.8011 -5.55112e-17
32 1 58.4598 103.611 -5.55112e-17
33 1 157.013 154.571 -5.55112e-17
34 1 62.3012 77.3638 -5.55112e-17
35 1 177.027 69.3776 -5.55112e-17
36 1 62.2555 74.8173 -5.55112e-17
37 2 136.425 140.446 -5.55112e-17
38 1 197.817 74.9285 -5.55112e-17
39 1 122.125 137.997 -5.55112e-17
40 1 165.655 164.006 -5.55112e-17
41 1 120.444 181.83 -5.55112e-17
42 1 102.723 36.5846 -5.55112e-17
43 1 135.499 60.5099 -5.55112e-17
44 1 107.08 23.0021 -5.55112e-17
45 1 215.174 84.6349 -5.55112e-17
46 1 27.526 203.519 -5.55112e-17
47 1 88.6433 172.315 -5.55112e-17
48 2 46.9737 84.5335 -5.55112e-17
49 1 76.9695 110.316 -5.55112e-17
50 1 45.8832 197.282 -5.55112e-17
51 1 181.133 35.1242 -5.55112e-17
52 1 203.506 132.664 -5.55112e-17
53 1 157.06 27.7286 -5.55112e-17
54 1 30.7813 125.566 -5.55112e-17
55 1 24.0751 48.4751 -5.55112e-17
56 1 117.536 140.08 -5.55112e-17
57 2 67.5657 214.152 -5.55112e-17
58 1 35.59 40.3127 -5.55112e-17
59 1 27.4702 150.143 -5.55112e-17
60 2 151.968 146.864 -5.55112e-17
61 2 35.7666 202.306 -5.55112e-17
62 1 13.6081 158.091 -5.55112e-17
63 1 110.966 197.487 -5.55112e-17
64 1 133.966 38.6115 -5.55112e-17
65 1 217.018 117.647 -5.55112e-17
66 1 129.032 134.01 -5.55112e-17
67 1 95.5411 139.4 -5.55112e-17
68 1 67.0652 115.842 -5.55112e-17
69 1 140.593 174.199 -5.55112e-17
70 1 59.3973 110.641 -5.55112e-17
71 1 3.2458 121.66 -5.55112e-17
72 1 171.449 61.2579 -5.55112e-17
73 1 187.626 185.658 -5.55112e-17
74 1 207.439 22.2373 -5.55112e-17
75 2 93.2556 1.23723 -5.55112e-17
76 1 17.6823 4.39301 -5.55112e-17
77 1 36.4501 23.7931 -5.55112e-17
78 1 124.669 117.325 -5.55112e-17
79 2 125.874 1.16335 -5.55112e-17
80 1 75.5155 105.622 -5.55112e-17
81 1 110.47 140.894 -5.55112e-17
82 1 53.6659 141.543 -5.55112e-17
83 2 129.671 181.885 -5.55112e-17
84 1 179.8 81.4022 -5.55112e-17
85 1 23.8312 43.7351 -5.55112e-17
86 1 128.032 142.055 -5.55112e-17
87 1 216.92 217.423 -5.55112e-17
88 1 19.1318 35.1964 -5.55112e-17
89 2 43.6436 3.28019 -5.55112e-17
90 2 190.126 187.258 -5.55112e-17
91 1 142.369 90.7183 -5.55112e-17
92 2 169.184 21.7385 -5.55112e-17
93 1 141.319 15.4671 -5.55112e-17
94 2 201.93 12.8234 -5.55112e-17
95 1 33.4134 195.324 -5.55112e-17
96 1 125.595 99.5868 -5.55112e-17
97 1 96.6114 4.56322 -5.55112e-17
98 1 124.031 55.7966 -5.55112e-17
99 1 174.501 20.9962 -5.55112e-17
100 1 176.564 8.96977 -5.55112e-17
101 1 110.885 4.71582 -5.55112e-17
102 1 25.187 46.1405 -5.55112e-17
103 1 58.5885 80.5623 -5.55112e-17
104 1 66.8479 108.545 -5.55112e-17
105 1 141.941 201.255 -5.55112e-17
106 1 78.3291 102.105 -5.55112e-17
107 2 149.55 98.0492 -5.55112e-17
108 1 35.9897 210.283 -5.55112e-17
109 1 53.776 87.0267 -5.55112e-17
110 1 102.348 61.4636 -5.55112e-17
111 1 60.4853 20.8003 -5.55112e-17
112 1 94.7221 137.089 -5.55112e-17
113 1 102.124 48.7581 -5.55112e-17
114 1 159.101 23.6033 -5.55112e-17
115 1 50.8381 163.015 -5.55112e-17
116 2 214.209 134.158 -5.55112e-17
117 1 195.863 1.50689 -5.55112e-17
118 1 165.268 68.7263 -5.55112e-17
119 2 60.7724 98.9412 -5.55112e-17
120 1 52.828 199.572 -5.55112e-17
121 1 151.369 76.674 -5.55112e-17
122 1 102.649 14.3192 -5.55112e-17
123 1 133.935 78.1509 -5.55112e-17
124 1 154.162 201.463 -5.55112e-17
125 1 139.171 118.779 -5.55112e-17
126 1 105.329 59.7759 -5.55112e-17
127 1 164.138 78.4272 -5.55112e-17
128 1 175.489 136.736 -5.55112e-17
129 1 9.25179 103.735 -5.55112e-17
130 1 83.4685 128.513 -5.55112e-17
131 1 175.346 152.903 -5.55112e-17
132 2 182.476 1.88337 -5.55112e-17
133 1 126.091 79.8075 -5.55112e-17
134 1 32.9415 85.6099 -5.55112e-17
135 1 77.6643 7.84016 -5.55112e-17
136 1 205.511 203.842 -5.55112e-17
137 1 102.026 136.654 -5.55112e-17
138 1 50.0229 212.162 -5.55112e-17
139 1 204.967 108.566 -5.55112e-17
140 2 141.556 186.036 -5.55112e-17
141 1 207.367 97.1395 -5.55112e-17
142 2 212.365 49.6568 -5.55112e-17
143 1 111.516 85.4385 -5.55112e-17
144 2 43.1303 198.65 -5.55112e-17
145 1 177.36 107.105 -5.55112e-17
146 1 99.8637 120.012 -5.55112e-17
147 1 154.498 145.503 -5.55112e-17
148 1 4.75659 205.854 -5.55112e-17
149 1 67.7748 21.3158 -5.55112e-17
150 1 54.2689 37.0326 -5.55112e-17
151 1 26.1777 115.621 -5.55112e-17
152 1 62.8411 101.36 -5.55112e-17
153 2 51.8912 5.85795 -5.55112e-17
154 1 152.334 98.8052 -5.55112e-17
155 1 107.445 16.6111 -5.55112e-17
156 2 72.0353 115.694 -5.55112e-17
157 1 209.017 105.13 -5.55112e-17
158 1 29.0322 29.056 -5.55112e-17
159 1 21.9301 136.942 -5.55112e-17
160 1 14.0438 202.066 -5.55112e-17
161 1 1.33233 8.26855 -5.55112e-17
162 1 127.466 127.214 -5.55112e-17
163 1 17.7773 33.1043 -5.55112e-17
164 1 166.768 53.6767 -5.55112e-17
165 1 125.492 121.666 -5.55112e-17
166 2 159.325 61.2638 -5.55112e-17
167 1 175.037 47.3615 -5.55112e-17
168 1 148.916 169.528 -5.55112e-17
169 1 3.1719 101.421 -5.55112e-17
170 1 94.4987 168.29 -5.55112e-17
171 1 146.217 61.3935 -5.55112e-17
172 1 218.581 17.1534 -5.55112e-17
173 1 45.9329 143.422 -5.55112e-17
174 1 131.22 62.0915 -5.55112e-17
175 2 137.275 160.495 -5.55112e-17
176 1 108.244 70.2289 -5.55112e-17
177 2 70.741 56.5589 -5.55112e-17
178 1 64.0639 86.62 -5.55112e-17
179 1 172.841 164.115 -5.55112e-17
180 1 203.405 196.976 -5.55112e-17
181 1 134.844 167.289 -5.55112e-17
182 2 77.1392 20.4482 -5.55112e-17
183 1 76.6426 163.868 -5.55112e-17
184 1 176.214 87.3891 -5.55112e-17
185 2 177.491 20.0688 -5.55112e-17
186 2 208.46 134.421 -5.55112e-17
187 1 92.8805 28.4672 -5.55112e-17
188 1 102.565 170.029 -5.55112e-17
189 1 123.373 175.068 -5.55112e-17
190 2 13.6177 163.098 -5.55112e-17
191 1 77.2144 157.069 -5.55112e-17
192 2 63.9381 108.952 -5.55112e-17
193 2 79.8327 172.673 -5.55112e-17
194 1 32.0091 152.302 -5.55112e-17
195 1 145.033 163.374 -5.55112e-17
196 1 168.024 191.386 -5.55112e-17
197 1 75.0638 69.3432 -5.55112e-17
198 2 10.3454 133.559 -5.55112e-17
199 1 210.537 57.292 -5.55112e-17
200 1 79.8931 6.09493 -5.55112e-17
201 2 72.152 109.609 -5.55112e-17
202 1 52.3816 210.528 -5.55112e-17
203 1 175.529 82.5843 -5.55112e-17
204 1 188.197 156.781 -5.55112e-17
205 2 191.853 83.1615 -5.55112e-17
206 1 88.9053 133.057 -5.55112e-17
207 1 105.165 29.8927 -5.55112e-17
208 1 30.5807 79.3019 -5.55112e-17
209 1 81.497 1.93613 -5.55112e-17
210 1 11.379 65.0137 -5.55112e-17
211 2 147.038 156.608 -5.55112e-17
212 1 120.884 112.788 -5.55112e-17
213 1 137.095 98.7995 -5.55112e-17
214 1 73.8292 13.8684 -5.55112e-17
215 1 73.7278 201.474 -5.55112e-17
216 1 193.782 139.341 -5.55112e-17
217 1 126.498 186.792 -5.55112e-17
218 2 27.8243 168.717 -5.55112e-17
219 1 155.217 214.174 -5.55112e-17
220 2 106.68 54.8759 -5.55112e-17
221 1 212.865 56.0118 -5.55112e-17
222 1 143.32 145.675 -5.55112e-17
223 1 52.1886 207.929 -5.55112e-17
224 2 9.51107 188.844 -5.55112e-17
225 1 201.297 142.688 -5.55112e-17
226 1 138.41 190.269 -5.55112e-17
227 2 50.8381 16.9289 -5.55112e-17
228 1 136.31 76.8243 -5.55112e-17
229 1 60.8491 135.497 -5.55112e-17
230 1 159.363 131.251 -5.55112e-17
231 1 148.802 122.681 -5.55112e-17
232 1 217.038 83.0704 -5.55112e-17
233 1 108.2 100.502 -5.55112e-17
234 1 133.222 215.927 -5.55112e-17
235 1 19.4735 144.552 -5.55112e-17
236 1 44.8014 76.632 -5.55112e-17
237 1 201.398 3.14589 -5.55112e-17
238 1 148.051 128.153 -5.55112e-17
239 2 17.8193 113.91 -5.55112e-17
240 1 99.0014 5.57439 -5.55112e-17
241 2 187.426 17.2414 -5.55112e-17
242 2 199.043 37.8345 -5.55112e-17
243 2 114.741 27.4318 -5.55112e-17
244 1 96.976 7.43268 -5.55112e-17
245 1 85.575 58.5123 -5.55112e-17
246 1 126.372 119.091 -5.55112e-17
247 1 212.698 98.6591 -5.55112e-17
248 1 94.1174 3.95041 -5.55112e-17
249 1 23.5682 65.6014 -5.55112e-17
250 2 149.748 30.2889 -5.55112e-17
251 1 153.14 212.588 -5.55112e-17
252 1 195.226 65.1622 -5.55112e-17
253 1 95.3062 60.9412 -5.55112e-17
254 2 75.9122 197.192 -5.55112e-17
255 1 212.039 149.266 -5.55112e-17
256 1 84.2268 165.722 -5.55112e-17
257 1 211.686 152.056 -5.55112e-17
258 2 164.425 28.1398 -5.55112e-17
259 1 57.8247 165.43 -5.55112e-17
260 1 127.55 10.7405 -5.55112e-17
261 1 184.869 14.7746 -5.55112e-17
262 1 53.4433 52.0014 -5.55112e-17
263 1 11.9138 213.865 -5.55112e-17
264 1 172.627 43.3497 -5.55112e-17
265 1 170.833 24.3238 -5.55112e-17
266 1 154.991 10.2761 -5.55112e-17
267 1 3.16226 64.9744 -5.55112e-17
268 1 21.7404 35.4778 -5.55112e-17
269 1 130.282 97.0953 -5.55112e-17
270 1 143.384 102.111 -5.55112e-17
271 1 7.23117 89.3075 -5.55112e-17
272 1 158.499 202.181 -5.55112e-17
273 1 40.3762 169.193 -5.55112e-17
274 2 114.953 89.0674 -5.55112e-17
275 1 63.6676 4.85763 -5.55112e-17
276 2 54.1485 32.0281 -5.55112e-17
277 2 167.623 122.067 -5.55112e-17
278 1 41.1322 98.9102 -5.55112e-17
279 2 108.88 204.224 -5.55112e-17
280 1 60.0474 31.5026 -5.55112e-17
281 1 148.023 27.7439 -5.55112e-17
282 1 164.47 8.56113 -5.55112e-17
283 1 113.092 141.43 -5.55112e-17
284 1 136.554 165.434 -5.55112e-17
285 1 35.618 12.3492 -5.55112e-17
286 2 33.6815 214.742 -5.55112e-17
287 1 82.1145 135.263 -5.55112e-17
288 1 21.3697 57.2254 -5.55112e-17
289 1 72.331 54.1962 -5.55112e-17
290 1 150.561 193.591 -5.55112e-17
291 1 158.64 145.293 -5.55112e-17
292 2 19.3127 181.427 -5.55112e-17
293 2 65.1727 194.046 -5.55112e-17
294 1 112.411 39.7363 -5.55112e-17
295 1 124.91 46.9762 -5.55112e-17
296 1 135.046 41.669 -5.55112e-17
297 1 118.758 145.181 -5.55112e-17
298 1 104.32 197.93 -5.55112e-17
299 1 162.216 105.771 -5.55112e-17
300 2 63.0642 93.9582 -5.55112e-17
301 1 59.2662 43.7212 -5.55112e-17
302 1 126.466 192.427 -5.55112e-17
303 2 198.194 60.6838 -5.55112e-17
304 2 145.009 129.241 -5.55112e-17
305 1 86.5785 99.3043 -5.55112e-17
306 1 51.1753 73.8682 -5.55112e-17
307 1 38.1105 118.42 -5.55112e-17
308 1 161.67 59.4901 -5.55112e-17
309 2 72.5792 184.218 -5.55112e-17
310 1 201.227 209.819 -5.55112e-17
311 1 79.7066 33.2558 -5.55112e-17
312 1 192.037 148.142 -5.55112e-17
313 2 147.895 68.7235 -5.55112e-17
314 1 53.1113 132.647 -5.55112e-17
315 1 111.4 150.393 -5.55112e-17
316 1 72.2467 0.727082 -5.55112e-17
317 1 17.9034 96.5987 -5.55112e-17
318 1 99.5627 215.044 -5.55112e-17
319 1 51.1291 32.6266 -5.55112e-17
320 1 146.759 98.6757 -5.55112e-17
321 1 87.9939 203.709 -5.55112e-17
322 1 139.182 140.165 -5.55112e-17
323 1 189.012 104.756 -5.55112e-17
324 1 80.79 26.6804 -5.55112e-17
325 1 163.111 139.526 -5.55112e-17
326 1 84.6405 151.655 -5.55112e-17
327 2 149.392 186.127 -5.55112e-17
328 1 167.97 40.6758 -5.55112e-17
329 2 48.1765 114.732 -5.55112e-17
330 1 14.9496 113.767 -5.55112e-17
331 1 174.675 175.927 -5.55112e-17
332 2 113.209 104.724 -5.55112e-17
333 1 44.095 17.8397 -5.55112e-17
334 1 139.517 168.867 -5.55112e-17
335 1 12.7225 204.376 -5.55112e-17
336 1 214.002 106.34 -5.55112e-17
337 1 102.712 182.115 -5.55112e-17
338 1 159.3 58.456 -5.55112e-17
339 1 108.819 216.936 -5.55112e-17
340 1 153.709 141.062 -5.55112e-17
341 1 160.041 158.678 -5.55112e-17
342 1 128.635 144.586 -5.55112e-17
343 1 127.565 28.5113 -5.55112e-17
344 1 63.2295 181.499 -5.55112e-17
345 1 61.1032 108.804 -5.55112e-17
346 1 7.92068 125.523 -5.55112e-17
347 1 93.4039 92.5715 -5.55112e-17
348 1 163.842 179.499 -5.55112e-17
349 1 193.46 76.0856 -5.55112e-17
350 2 89.1523 40.3831 -5.55112e-17
351 1 154.606 66.4471 -5.55112e-17
352 1 60.1398 182.424 -5.55112e-17
353 1 39.1596 166.697 -5.55112e-17
354 1 167.455 161.887 -5.55112e-17
355 1 58.4783 156.489 -5.55112e-17
356 1 23.9707 36.6379 -5.55112e-17
357 1 62.5795 158.813 -5.55112e-17
358 1 172.117 180.589 -5.55112e-17
359 1 157.65 159.041 -5.55112e-17
360 1 74.8932 53.6034 -5.55112e-17
361 1 63.0842 167.855 -5.55112e-17
362 1 168.255 201.156 -5.55112e-17
363 1 163.376 190.152 -5.55112e-17
364 2 115.887 92.46 -5.55112e-17
365 1 179.087 90.964 -5.55112e-17
366 1 117.193 161.07 -5.55112e-17
367 1 174.365 7.12489 -5.55112e-17
368 1 196.523 192.464 -5.55112e-17
369 2 114.839 187.735 -5.55112e-17
370 1 14.4539 206.428 -5.55112e-17
371 1 53.5251 136.963 -5.55112e-17
372 2 1.70193 93.4203 -5.55112e-17
373 2 212.758 8.69789 -5.55112e-17
374 1 144.023 92.5115 -5.55112e-17
375 1 38.1094 111.196 -5.55112e-17
376 1 14.5173 151.891 -5.55112e-17
377 1 28.6351 212.97 -5.55112e-17
378 1 74.3329 129.135 -5.55112e-17
379 1 40.9633 64.7923 -5.55112e-17
380 1 177.757 151.066 -5.55112e-17
381 1 13.5741 5.68521 -5.55112e-17
382 1 54.5289 66.726 -5.55112e-17
383 1 169.663 68.2248 -5.55112e-17
384 1 21.663 14.1555 -5.55112e-17
385 1 191.544 77.6771 -5.55112e-17
386 2 81.8332 44.1153 -5.55112e-17
387 1 144.136 19.5124 -5.55112e-17
388 1 56.6077 43.8102 -5.55112e-17
389 1 206.371 159.131 -5.55112e-17
390 2 207.129 179.931 -5.55112e-17
391 2 36.5333 37.4759 -5.55112e-17
392 1 41.1793 217.792 -5.55112e-17
393 1 0.868044 33.7128 -5.55112e-17
394 1 103.373 101.548 -5.55112e-17
395 1 16.3759 27.9825 -5.55112e-17
396 1 202.518 154.111 -5.55112e-17
397 1 100.567 15.8356 -5.55112e-17
398 1 11.2199 191.588 -5.55112e-17
399 1 19.8121 61.9767 -5.55112e-17
400 1 103.019 179.501 -5.55112e-17
401 1 87.3651 176.648 -5.55112e-17
402 2 190.955 178.806 -5.55112e-17
403 1 214.907 54.5771 -5.55112e-17
404 1 36.1513 71.1981 -5.55112e-17
405 1 204.416 29.9938 -5.55112e-17
406 1 201.048 68.7287 -5.55112e-17
407 2 18.3684 64.4055 -5.55112e-17
408 1 33.9182 35.4807 -5.55112e-17
409 1 169.543 128.994 -5.55112e-17
410 1 20.7904 155.607 -5.55112e-17
411 1 151.749 160.745 -5.55112e-17
412 1 114.033 214.735 -5.55112e-17
413 1 63.3108 156.248 -5.55112e-17
414 1 37.9841 13.6615 -5.55112e-17
415 1 207.596 148.754 -5.55112e-17
416 1 71.2481 199.947 -5.55112e-17
417 1 144.198 95.0658 -5.55112e-17
418 2 187.186 5.31663 -5.55112e-17
419 1 108.537 149.927 -5.55112e-17
420 2 135.849 107.128 -5.55112e-17
421 1 88.4729 103.827 -5.55112e-17
422 1 174.961 18.4385 -5.55112e-17
423 2 158.321 41.4417 -5.55112e-17
424 1 157.015 149.383 -5.55112e-17
425 1 129.027 167.031 -5.55112e-17
426 1 133.597 112.973 -5.55112e-17
427 1 45.2324 79.7394 -5.55112e-17
428 1 70.6729 191.733 -5.55112e-17
429 1 194.766 83.8742 -5.55112e-17
430 1 214.807 60.3059 -5.55112e-17
431 1 120.131 206.27 -5.55112e-17
432 1 161.374 54.3056 -5.55112e-17
433 1 104.898 153.922 -5.55112e-17
434 1 71.3333 29.833 -5.55112e-17
435 1 177.701 161.752 -5.55112e-17
436 1 41.5796 36.9914 -5.55112e-17
437 1 175.613 111.571 -5.55112e-17
438 2 109.368 21.425 -5.55112e-17
439 1 66.6883 208.527 -5.55112e-17
440 1 1.51238 162.995 -5.55112e-17
441 1 192.868 131.713 -5.55112e-17
442 1 50.2789 13.4941 -5.55112e-17
443 1 157.858 102.722 -5.55112e-17
444 1 0.789515 100.855 -5.55112e-17
445 1 140.03 7.34613 -5.55112e-17
446 1 135.561 82.554 -5.55112e-17
447 1 38.9628 144.503 -5.55112e-17
448 1 75.2702 6.89143 -5.55112e-17
449 1 132.082 120.591 -5.55112e-17
450 1 139.235 187.916 -5.55112e-17
451 1 170.805 47.886 -5.55112e-17
452 1 133.479 144.452 -5.55112e-17
453 1 178.914 182.339 -5.55112e-17
454 1 160.006 212.012 -5.55112e-17
455 1 101.243 71.8014 -5.55112e-17
456 1 167.384 27.3161 -5.55112e-17
457 1 98.1978 113.419 -5.55112e-17
458 1 200.441 217.638 -5.55112e-17
459 1 82.1432 68.3619 -5.55112e-17
460 1 49.0643 101.596 -5.55112e-17
461 1 188.219 177.892 -5.55112e-17
462 1 183.586 118.644 -5.55112e-17
463 1 127.006 33.3018 -5.55112e-17
464 1 154.456 195.359 -5.55112e-17
465 1 121.691 159.846 -5.55112e-17
466 1 23.7152 213.859 -5.55112e-17
467 1 18.2557 77.8469 -5.55112e-17
468 1 161.276 0.218336 -5.55112e-17
469 1 69.2217 77.3801 -5.55112e-17
470 1 77.9149 37.4925 -5.55112e-17
471 1 128.767 174.396 -5.55112e-17
472 1 49.2909 82.6691 -5.55112e-17
473 1 30.1926 108.812 -5.55112e-17
474 1 88.9308 101.146 -5.55112e-17
475 1 184.682 163.527 -5.55112e-17
476 2 190.63 10.1731 -5.55112e-17
477 1 51.2896 88.211 -5.55112e-17
478 1 58.4855 125.06 -5.55112e-17
479 1 201.856 81.0815 -5.55112e-17
480 1 84.9961 23.1578 -5.55112e-17
481 1 13.3058 97.8743 -5.55112e-17
482 1 99.0408 159.676 -5.55112e-17
483 1 142.165 159.666 -5.55112e-17
484 2 87.1082 45.5292 -5.55112e-17
485 1 33.7775 100.161 -5.55112e-17
486 1 81.4177 16.7892 -5.55112e-17
487 1 100.184 196.616 -5.55112e-17
488 1 9.44901 123.605 -5.55112e-17
489 1 211.567 135.719 -5.55112e-17
490 1 205.416 84.3846 -5.55112e-17
491 1 197.516 121.145 -5.55112e-17
492 1 4.98896 130.138 -5.55112e-17
493 1 189.888 214.462 -5.55112e-17
494 1 211.703 38.7073 -5.55112e-17
495 1 199.284 89.6661 -5.55112e-17
496 2 43.7013 189.243 -5.55112e-17
497 1 38.7554 216.748 -5.55112e-17
498 1 104.875 120.932 -5.55112e-17
499 2 136.192 216.34 -5.55112e-17
500 1 25.9439 30.0355 -5.55112e-17
501 2 112.104 216.498 -5.55112e-17
502 2 123.493 143.164 -5.55112e-17
503 1 144.548 185.034 -5.55112e-17
504 1 113.009 148.361 -5.55112e-17
505 1 117.677 18.0795 -5.55112e-17
506 1 29.4125 123.498 -5.55112e-17
507 1 12.3506 131.296 -5.55112e-17
508 1 193.16 11.648 -5.55112e-17
509 2 28.7483 74.6449 -5.55112e-17
510 2 146.514 133.197 -5.55112e-17
511 1 196.282 36.2258 -5.55112e-17
512 2 209.759 60.4546 -5.55112e-17
513 1 56.5994 127.135 -5.55112e-17
514 1 48.7372 18.7725 -5.55112e-17
515 1 204.28 25.8003 -5.55112e-17
516 1 180.946 207.679 -5.55112e-17
517 1 112.164 117.496 -5.55112e-17
518 2 103.047 20.1828 -5.55112e-17
519 1 12.28 53.0712 -5.55112e-17
520 2 212.57 23.502 -5.55112e-17
521 1 88.901 110.623 -5.55112e-17
522 1 31.019 30.4845 -5.55112e-17
523 1 24.522 68.0401 -5.55112e-17
524 1 100.659 74.3644 -5.55112e-17
525 1 175.147 121.361 -5.55112e-17
526 1 191.068 65.5003 -5.55112e-17
527 1 74.8151 4.41425 -5.55112e-17
528 1 169.073 29.2769 -5.55112e-17
529 1 56.7197 158.567 -5.55112e-17
530 1 99.8837 31.8308 -5.55112e-17
531 1 66.0587 196.95 -5.55112e-17
532 1 206.569 188.065 -5.55112e-17
533 1 133.93 151.154 -5.55112e-17
534 1 97.1095 144.41 -5.55112e-17
535 1 13.7854 105.908 -5.55112e-17
536 1 207.415 120.034 -5.55112e-17
537 1 200.861 166.876 -5.55112e-17
538 1 168.626 81.6889 -5.55112e-17
539 1 88.7082 211.342 -5.55112e-17
540 1 102.888 89.0204 -5.55112e-17
541 1 43.4644 57.8425 -5.55112e-17
542 1 66.9112 211.137 -5.55112e-17
543 1 146.87 151.875 -5.55112e-17
544 1 128.255 200.212 -5.55112e-17
545 1 7.61493 149.631 -5.55112e-17
546 1 179.49 41.7782 -5.55112e-17
547 1 82.5647 172.135 -5.55112e-17
548 1 99.5252 8.14452 -5.55112e-17
549 1 52.4114 76.2994 -5.55112e-17
550 2 162.955 121.494 -5.55112e-17
551 2 134.234 157.478 -5.55112e-17
552 2 93.6933 180.268 -5.55112e-17
553 1 122.528 41.5397 -5.55112e-17
554 1 73.9423 101.151 -5.55112e-17
555 2 65.7701 123.139 -5.55112e-17
556 1 148.278 22.8214 -5.55112e-17
557 1 76.2201 12.2265 -5.55112e-17
558 1 148.42 125.472 -5.55112e-17
559 1 187.302 48.1753 -5.55112e-17
560 1 131.858 50.726 -5.55112e-17
561 1 146.431 168.908 -5.55112e-17
562 1 195.635 144.669 -5.55112e-17
563 2 168.675 114.038 -5.55112e-17
564 1 41.5962 67.0661 -5.55112e-17
565 1 59.6626 10.1146 -5.55112e-17
566 1 75.303 34.2009 -5.55112e-17
567 1 152.312 116.414 -5.55112e-17
568 1 24.5492 117.664 -5.55112e-17
569 1 113.919 184.957 -5.55112e-17
570 1 124.7 124.345 -5.55112e-17
571 1 174.817 203.485 -5.55112e-17
572 1 61.9453 111.39 -5.55112e-17
573 1 177.356 76.9534 -5.55112e-17
574 1 40.5768 132.818 -5.55112e-17
575 1 21.2788 82.6606 -5.55112e-17
576 1 197.439 98.6149 -5.55112e-17
577 1 202.904 34.1841 -5.55112e-17
578 1 122.224 196.831 -5.55112e-17
579 1 13.1743 166.113 -5.55112e-17
580 1 102.675 139.26 -5.55112e-17
581 1 141.5 154.066 -5.55112e-17
582 1 76.7795 78.6325 -5.55112e-17
583 1 161.892 185.762 -5.55112e-17
584 2 27.2274 118.528 -5.55112e-17
585 1 48.3517 198.661 -5.55112e-17
586 1 137.679 170.854 -5.55112e-17
587 1 100.317 105.051 -5.55112e-17
588 1 17.0906 1.69788 -5.55112e-17
589 1 102.83 16.9494 -5.55112e-17
590 1 69.8034 218.759 -5.55112e-17
591 1 215.789 162.623 -5.55112e-17
592 1 55.9743 156.067 -5.55112e-17
593 1 209.125 181.905 -5.55112e-17
594 1 181.382 181.113 -5.55112e-17
595 1 83.058 39.1583 -5.55112e-17
596 1 66.0623 35.5355 -5.55112e-17
597 2 179.942 204.039 -5.55112e-17
598 1 166.87 211.912 -5.55112e-17
599 1 207.571 171.337 -5.55112e-17
600 1 104.489 10.2282 -5.55112e-17
601 1 12.1391 135.661 -5.55112e-17
602 1 97.5662 30.3832 -5.55112e-17
603 1 203.609 207.535 -5.55112e-17
604 1 120.046 0.843397 -5.55112e-17
605 2 86.1567 77.3363 -5.55112e-17
606 1 101.968 201.769 -5.55112e-17
607 2 171.875 146.705 -5.55112e-17
608 1 95.8708 76.1265 -5.55112e-17
609 1 16.0006 6.6241 -5.55112e-17
610 1 214.081 151.01 -5.55112e-17
611 1 201.497 190.508 -5.55112e-17
612 1 218.388 38.2187 -5.55112e-17
613 1 59.1499 150.657 -5.55112e-17
614 2 127.678 179.383 -5.55112e-17
615 1 105.159 18.0986 -5.55112e-17
616 1 202.075 130.548 -5.55112e-17
617 1 126.599 198.089 -5.55112e-17
618 1 194.774 206.791 -5.55112e-17
619 1 178.777 78.8923 -5.55112e-17
620 1 141.145 138.743 -5.55112e-17
621 1 198.876 96.5597 -5.55112e-17
622 1 94.931 213.621 -5.55112e-17
623 1 218.247 12.2882 -5.55112e-17
624 1 23.45 209.107 -5.55112e-17
625 1 204.726 155.103 -5.55112e-17
626 1 93.4478 190.665 -5.55112e-17
627 1 64.7667 73.4268 -5.55112e-17
628 1 34.3527 27.7285 -5.55112e-17
629 1 18.7847 99.266 -5.55112e-17
630 2 151.722 22.6678 -5.55112e-17
631 1 14.8998 80.1692 -5.55112e-17
632 1 48.7747 91.6981 -5.55112e-17
633 1 38.6554 211.506 -5.55112e-17
634 1 0.925394 147.826 -5.55112e-17
635 1 154.738 150.708 -5.55112e-17
636 1 207.993 57.9194 -5.55112e-17
637 1 200.983 59.0263 -5.55112e-17
638 1 172.878 77.6174 -5.55112e-17
639 2 203.853 78.8834 -5.55112e-17
640 1 143.855 152.445 -5.55112e-17
641 1 193.238 85.9594 -5.55112e-17
642 1 32.0168 90.3207 -5.55112e-17
643 2 182.019 43.0904 -5.55112e-17
644 1 68.1154 155.16 -5.55112e-17
645 1 105.884 196.096 -5.55112e-17
646 2 211.674 141.965 -5.55112e-17
647 1 10.3075 185.813 -5.55112e-17
648 1 130.097 105.166 -5.55112e-17
649 2 24.6489 150.372 -5.55112e-17
650 1 204.199 186.688 -5.55112e-17
651 1 0.952913 112.655 -5.55112e-17
652 1 153.734 44.8385 -5.55112e-17
653 1 114.116 175.317 -5.55112e-17
654 1 23.305 21.3738 -5.55112e-17
655 2 188.068 107.676 -5.55112e-17
656 1 28.6795 120.957 -5.55112e-17
657 2 78.5866 207.145 -5.55112e-17
658 1 54.2168 43.9017 -5.55112e-17
659 2 155.847 192.85 -5.55112e-17
660 1 101.561 54.0552 -5.55112e-17
661 1 46.0095 116.867 -5.55112e-17
662 1 81.2027 130.041 -5.55112e-17
663 1 32.1895 25.7146 -5.55112e-17
664 1 148.847 17.4416 -5.55112e-17
665 1 138.155 75.2013 -5.55112e-17
666 2 47.4612 180.679 -5.55112e-17
667 1 93.9394 99.4207 -5.55112e-17
668 2 103.06 91.9204 -5.55112e-17
669 1 36.0066 17.9714 -5.55112e-17
670 1 96.0378 173.289 -5.55112e-17
671 2 53.6425 175.64 -5.55112e-17
672 1 189.836 15.2328 -5.55112e-17
673 1 62.8018 19.2728 -5.55112e-17
674 1 2.61784 31.8936 -5.55112e-17
675 1 128.63 23.0223 -5.55112e-17
676 1 169.837 123.731 -5.55112e-17
677 1 131.407 174.837 -5.55112e-17
678 1 138.081 30.1933 -5.55112e-17
679 2 153.038 33.7716 -5.55112e-17
680 1 203.119 41.816 -5.55112e-17
681 2 129.559 118.886 -5.55112e-17
682 1 0.688362 47.994 -5.55112e-17
683 1 68.3043 3.661 -5.55112e-17
684 1 119.918 154.728 -5.55112e-17
685 1 153.14 39.536 -5.55112e-17
686 1 27.537 193.57 -5.55112e-17
687 1 117.907 191.409 -5.55112e-17
688 1 164.627 107.705 -5.55112e-17
689 2 58.368 46.4035 -5.55112e-17
690 1 69.8826 19.5885 -5.55112e-17
691 1 90.5076 65.6583 -5.55112e-17
692 1 131.022 7.69017 -5.55112e-17
693 1 48.4726 143.478 -5.55112e-17
694 1 75.9465 124.571 -5.55112e-17
695 1 145.993 38.434 -5.55112e-17
696 1 151.053 78.9109 -5.55112e-17
697 1 139.277 201.479 -5.55112e-17
698 1 117.746 67.0832 -5.55112e-17
699 1 180.17 191.54 -5.55112e-17
700 1 203.199 205.051 -5.55112e-17
701 1 53.5598 16.855 -5.55112e-17
702 1 113.194 128.996 -5.55112e-17
703 2 188.131 144.383 -5.55112e-17
704 1 29.363 218.494 -5.55112e-17
705 2 69.1142 111.346 -5.55112e-17
706 1 165.448 177.312 -5.55112e-17
707 1 113.942 24.4386 -5.55112e-17
708 1 83.6359 208.913 -5.55112e-17
709 1 146.905 196.248 -5.55112e-17
710 1 191.928 191.923 -5.55112e-17
711 1 113.31 91.6418 -5.55112e-17
712 1 193.126 204.649 -5.55112e-17
713 1 14.2573 136.858 -5.55112e-17
714 1 135.832 13.103 -5.55112e-17
715 1 55.6017 199.358 -5.55112e-17
716 1 40.1367 124.455 -5.55112e-17
717 1 51.9166 106.335 -5.55112e-17
718 1 130.81 184.927 -5.55112e-17
719 2 119.556 77.2937 -5.55112e-17
720 1 100.38 64.7131 -5.55112e-17
721 1 96.6225 98.6024 -5.55112e-17
722 1 133.641 62.4494 -5.55112e-17
723 2 49.2687 45.3524 -5.55112e-17
724 1 16.9401 51.8703 -5.55112e-17
725 1 27.8606 108.099 -5.55112e-17
726 1 189.491 46.3201 -5.55112e-17
727 1 147.651 205.196 -5.55112e-17
728 2 21.7519 91.8308 -5.55112e-17
729 1 133.991 164.832 -5.55112e-17
730 1 173.792 198.886 -5.55112e-17
731 1 48.9416 189.829 -5.55112e-17
732 1 218.225 9.53937 -5.55112e-17
733 1 205.486 34.9942 -5.55112e-17
734 1 4.80858 30.0465 -5.55112e-17
735 1 41.0033 22.8209 -5.55112e-17
736 2 190.478 75.0547 -5.55112e-17
737 1 82.4957 86.0818 -5.55112e-17
738 1 17.9563 166.871 -5.55112e-17
739 1 105.41 156.371 -5.55112e-17
740 1 60.0515 115.465 -5.55112e-17
741 2 189.056 78.8537 -5.55112e-17
742 1 74.7765 43.0996 -5.55112e-17
743 1 202.792 67.0566 -5.55112e-17
744 2 209.927 172.924 -5.55112e-17
745 1 131.185 31.4171 -5.55112e-17
746 1 14.4577 29.6578 -5.55112e-17
747 2 204.568 22.7266 -5.55112e-17
748 1 182.363 193.255 -5.55112e-17
749 1 195.616 215.06 -5.55112e-17
750 1 213.073 163.694 -5.55112e-17
751 1 59.6104 58.5919 -5.55112e-17
752 1 182.221 106.832 -5.55112e-17
753 1 99.1706 150.671 -5.55112e-17
754 1 14.5428 215.424 -5.55112e-17
755 1 82.7519 195.141 -5.55112e-17
756 2 102.923 195.216 -5.55112e-17
757 1 27.198 18.4271 -5.55112e-17
758 1 134.57 148.693 -5.55112e-17
759 1 73.0339 106.833 -5.55112e-17
760 1 96.0447 40.3092 -5.55112e-17
761 1 57.8016 161.099 -5.55112e-17
762 1 43.2628 23.2343 -5.55112e-17
763 1 115.119 99.7856 -5.55112e-17
764 2 177.598 148.213 -5.55112e-17
765 1 95.1628 63.3886 -5.55112e-17
766 1 114.559 35.0675 -5.55112e-17
767 1 97.8532 77.8849 -5.55112e-17
768 1 9.63854 4.28986 -5.55112e-17
769 1 109.82 78.3074 -5.55112e-17
770 2 113.814 110.012 -5.55112e-17
771 1 143.296 178.804 -5.55112e-17
772 1 102.107 28.2941 -5.55112e-17
773 1 109.096 167.002 -5.55112e-17
774 1 111.161 123.982 -5.55112e-17
775 1 68.6293 6.56805 -5.55112e-17
776 1 37.7794 10.9099 -5.55112e-17
777 1 107.707 181.817 -5.55112e-17
778 1 22.4803 19.1673 -5.55112e-17
779 1 191.846 44.9576 -5.55112e-17
780 1 3.54047 169.522 -5.55112e-17
781 1 124.528 104.409 -5.55112e-17
782 1 175.348 49.9411 -5.55112e-17
783 1 97.9629 15.093 -5.55112e-17
784 2 194.52 159.268 -5.55112e-17
785 1 110.919 165.165 -5.55112e-17
786 1 118.86 176.856 -5.55112e-17
787 1 185.225 75.7603 -5.55112e-17
788 1 177.259 45.832 -5.55112e-17
789 2 137.807 101.553 -5.55112e-17
790 1 109.686 28.0256 -5.55112e-17
791 2 13.3119 117.916 -5.55112e-17
792 2 215.716 13.9043 -5.55112e-17
793 2 115.933 69.676 -5.55112e-17
794 1 56.156 188.057 -5.55112e-17
795 1 132.527 53.126 -5.55112e-17
796 1 130.676 21.309 -5.55112e-17
797 1 197.768 155.643 -5.55112e-17
798 2 196.121 204.102 -5.55112e-17
799 2 207.785 65.3967 -5.55112e-17
800 2 54.9926 217.495 -5.55112e-17
801 1 102.945 132.299 -5.55112e-17
802 1 125.183 75.7748 -5.55112e-17
803 1 181.755 69.1874 -5.55112e-17
804 2 122.321 204.78 -5.55112e-17
805 1 45.1201 105.954 -5.55112e-17
806 1 12.4409 112.565 -5.55112e-17
807 2 101.191 99.6806 -5.55112e-17
808 1 10.2208 117.695 -5.55112e-17
809 2 58.1645 134.108 -5.55112e-17
810 1 129.011 197.606 -5.55112e-17
811 1 32.5486 5.86188 -5.55112e-17
812 1 132.078 33.9121 -5.55112e-17
813 2 108.335 110.909 -5.55112e-17
814 1 146.083 66.0547 -5.55112e-17
815 1 88.6475 164.183 -5.55112e-17
816 1 200.625 10.3405 -5.55112e-17
817 1 107.702 214.475 -5.55112e-17
818 1 57.8153 97.7657 -5.55112e-17
819 1 9.51635 136.451 -5.55112e-17
820 1 44.4508 121.071 -5.55112e-17
821 1 94.2748 151.776 -5.55112e-17
822 2 43.5704 133.612 -5.55112e-17
823 2 141.47 96.7694 -5.55112e-17
824 1 35.3491 107.439 -5.55112e-17
825 1 64.7651 15.1316 -5.55112e-17
826 1 190.12 5.82172 -5.55112e-17
827 1 190.941 106.849 -5.55112e-17
828 1 144.05 121.145 -5.55112e-17
829 1 126.352 210.635 -5.55112e-17
830 1 81.1987 127.378 -5.55112e-17
831 1 217.488 42.9498 -5.55112e-17
832 1 94.1651 87.3111 -5.55112e-17
833 1 63.0597 84.2277 -5.55112e-17
834 1 106.769 8.77646 -5.55112e-17
835 1 56.0474 1.16514 -5.55112e-17
836 1 10.7256 48.1043 -5.55112e-17
837 1 5.69329 73.4167 -5.55112e-17
838 1 97.8169 178.219 -5.55112e-17
839 2 198.165 3.26182 -5.55112e-17
840 1 3.70518 208.143 -5.55112e-17
841 2 62.376 184.344 -5.55112e-17
842 1 95.8308 91.6498 -5.55112e-17
843 2 159.443 183.277 -5.55112e-17
844 1 28.7001 155.883 -5.55112e-17
845 1 70.7266 189.055 -5.55112e-17
846 1 158.769 190.768 -5.55112e-17
847 1 42.2748 140.732 -5.55112e-17
848 1 191.1 116.692 -5.55112e-17
849 1 188.937 166.721 -5.55112e-17
850 1 37.7271 126 -5.55112e-17
851 1 91.657 41.6077 -5.55112e-17
852 1 10.8847 209.261 -5.55112e-17
853 1 31.0648 136.148 -5.55112e-17
854 1 171.243 85.4734 -5.55112e-17
855 1 125.873 19.2518 -5.55112e-17
856 1 210.052 170.076 -5.55112e-17