ITEM: TIMESTEP
0
ITEM: NUMBER OF ATOMS
7200
ITEM: BOX BOUNDS xy xz yz pp pp pp
0.0000000000000000e+00 2.1900000000000000e+02 0.0000000000000000e+00
0.0000000000000000e+00 2.1900000000000000e+02 0.0000000000000000e+00
-3.6499999999999999e-01 3.6499999999999999e-01 0.0000000000000000e+00
ITEM: ATOMS id type x y z
1 1 81.4667 209.785 -5.55112e-17
2 1 108.986 89.7112 -5.55112e-17
3 1 15.2488 13.8724 -5.55112e-17
4 1 52.1775 125.318 -5.55112e-17
5 1 80.2479 118.202 -5.55112e-17
6 1 157.656 197.905 -5.55112e-17
7 1 207.952 48.1084 -5.55112e-17
8 2 184.373 136.243 -5.55112e-17
9 1 182.357 190.112 -5.55112e-17
10 2 74.8229 201.675 -5.55112e-17
11 1 149.268 62.4504 -5.55112e-17
12 1 135.105 48.2121 -5.55112e-17
13 2 31.6393 71.7644 -5.55112e-17
14 1 47.2543 71.322 -5.55112e-17
15 1 160.917 123.275 -5.55112e-17
16 2 76.7146 209.641 -5.55112e-17
17 1 134.006 13.0324 -5.55112e-17
18 2 42.229 65.5171 -5.55112e-17
19 1 111.634 88.8731 -5.55112e-17
20 1 184.142 121.725 -5.55112e-17
21 1 102.086 201.967 -5.55112e-17
22 2 35.7534 164.964 -5.55112e-17
23 2 72.1793 44.579 -5.55112e-17
24 1 173.4 139.305 -5.55112e-17
25 1 49.9192 178.835 -5.55112e-17
26 2 105.78 108.765 -5.55112e-17
27 1 187.614 197.546 -5.55112e-17
28 2 65.5509 155.524 -5.55112e-17
29 1 3.71755 85.9264 -5.55112e-17
30 1 157.507 81.0299 -5.55112e-17
31 1 190.465 46.0244 -5.55112e-17
32 1 73.497 176.209 -5.55112e-17
33 1 202.846 186.019 -5.55112e-17
34 1 60.5249 48.8495 -5.55112e-17
35 1 182.583 38.9061 -5.55112e-17
36 1 213.767 140.156 -5.55112e-17
37 2 126.923 130.505 -5.55112e-17
38 1 136.822 116.547 -5.55112e-17
39 1 129.603 129.688 -5.55112e-17
40 1 159.72 196.439 -5.55112e-17
41 1 103.122 35.6201 -5.55112e-17
42 1 85.9875 73.7982 -5.55112e-17
43 1 174.24 66.9881 -5.55112e-17
44 1 131.582 111.097 -5.55112e-17
45 1 9.48775 56.0291 -5.55112e-17
46 1 123.324 182.253 -5.55112e-17
47 1 42.2634 176.075 -5.55112e-17
48 2 41.7817 37.2305 -5.55112e-17
49 1 9.15077 81.9758 -5.55112e-17
50 1 86.6465 177.987 -5.55112e-17
51 1 88.8194 32.5371 -5.55112e-17
52 1 145.911 100.141 -5.55112e-17
53 1 75.3864 196.408 -5.55112e-17
54 1 176.315 112.677 -5.55112e-17
55 1 2.34477 200.561 -5.55112e-17
56 1 120.001 131.476 -5.55112e-17
57 2 122.527 175.381 -5.55112e-17
58 1 8.59115 10.3754 -5.55112e-17
59 1 187.107 82.0586 -5.55112e-17
60 2 159.823 96.2245 -5.55112e-17
61 2 73.8845 179.211 -5.55112e-17
62 1 16.0976 115.542 -5.55112e-17
63 1 105.274 7.80634 -5.55112e-17
64 1 166.516 10.2827 -5.55112e-17
65 1 175.654 145.581 -5.55112e-17
66 1 104.945 87.5835 -5.55112e-17
67 1 192.056 129.59 -5.55112e-17
68 1 63.6383 215.526 -5.55112e-17
69 1 108.087 177.859 -5.55112e-17
70 1 30.9765 86.6172 -5.55112e-17
71 1 139.286 178.395 -5.55112e-17
72 1 112.591 69.6923 -5.55112e-17
73 1 161.936 167.075 -5.55112e-17
74 1 176.477 11.0211 -5.55112e-17
75 2 108.697 6.97491 -5.55112e-17
76 1 198.799 40.9663 -5.55112e-17
77 1 207.548 199.598 -5.55112e-17
78 1 51.1276 174.323 -5.55112e-17
79 2 101.933 83.0097 -5.55112e-17
80 1 68.7034 134.209 -5.55112e-17
81 1 150.232 122.641 -5.55112e-17
82 1 84.3523 178.663 -5.55112e-17
83 2 128.878 179.706 -5.55112e-17
84 1 214.899 10.1782 -5.55112e-17
85 1 38.1215 114.989 -5.55112e-17
86 1 117.248 127.495 -5.55112e-17
87 1 67.8223 53.2779 -5.55112e-17
88 1 213.628 23.8272 -5.55112e-17
89 2 45.8699 11.7025 -5.55112e-17
90 2 213.123 172.023 -5.55112e-17
91 1 210.087 42.2836 -5.55112e-17
92 2 153.219 207.464 -5.55112e-17
93 1 128.116 218.68 -5.55112e-17
94 2 163.883 11.0978 -5.55112e-17
95 1 21.5447 12.0382 -5.55112e-17
96 1 184.882 85.9164 -5.55112e-17
97 1 216.737 209.514 -5.55112e-17
98 1 108.244 54.3387 -5.55112e-17
99 1 165.458 63.6384 -5.55112e-17
100 1 131.354 171.574 -5.55112e-17
101 1 90.5168 77.6843 -5.55112e-17
102 1 201.291 71.2006 -5.55112e-17
103 1 77.5768 18.3206 -5.55112e-17
104 1 211.768 130.932 -5.55112e-17
105 1 95.9878 68.5035 -5.55112e-17
106 1 73.5573 93.6221 -5.55112e-17
107 2 120.835 46.8487 -5.55112e-17
108 1 60.3007 195.191 -5.55112e-17
109 1 14.7145 146.08 -5.55112e-17
110 1 33.8912 67.4007 -5.55112e-17
111 1 53.4646 202.623 -5.55112e-17
112 1 49.4368 129.427 -5.55112e-17
113 1 148.461 134.636 -5.55112e-17
114 1 124.634 2.75487 -5.55112e-17
115 1 68.5715 185.287 -5.55112e-17
116 2 30.5449 161.173 -5.55112e-17
117 1 183.77 183.442 -5.55112e-17
118 1 175.226 8.63693 -5.55112e-17
119 2 33.4187 106.431 -5.55112e-17
120 1 23.7103 33.3531 -5.55112e-17
121 1 173.747 54.4551 -5.55112e-17
122 1 103.809 25.7425 -5.55112e-17
123 1 147.828 114.83 -5.55112e-17
124 1 187.952 206.303 -5.55112e-17
125 1 113.84 54.4717 -5.55112e-17
126 1 29.5724 52.0163 -5.55112e-17
127 1 179.906 64.9335 -5.55112e-17
128 1 177.691 180.025 -5.55112e-17
129 1 7.59913 153.793 -5.55112e-17
130 1 59.4874 136.332 -5.55112e-17
131 1 186.918 157.001 -5.55112e-17
132 2 7.27371 217.241 -5.55112e-17
133 1 127.34 113.018 -5.55112e-17
134 1 34.0133 55.1622 -5.55112e-17
135 1 112.612 205.035 -5.55112e-17
136 1 197.103 164.396 -5.55112e-17
137 1 104.441 208.799 -5.55112e-17
138 1 39.5291 31.7006 -5.55112e-17
139 1 201.623 106.107 -5.55112e-17
140 2 120.454 204.93 -5.55112e-17
141 1 196.448 62.094 -5.55112e-17
142 2 200.313 18.7562 -5.55112e-17
143 1 40.6414 151.426 -5.55112e-17
144 2 29.8574 214.852 -5.55112e-17
145 1 116.849 49.7284 -5.55112e-17
146 1 151.883 55.3777 -5.55112e-17
147 1 172.174 174.096 -5.55112e-17
148 1 46.4875 209.639 -5.55112e-17
149 1 66.0156 61.1081 -5.55112e-17
150 1 188.847 4.84567 -5.55112e-17
151 1 67.1951 166.593 -5.55112e-17
152 1 23.9605 107.045 -5.55112e-17
153 2 25.7341 203.611 -5.55112e-17
154 1 182.519 143.738 -5.55112e-17
155 1 166.325 178.584 -5.55112e-17
156 2 28.8004 177.176 -5.55112e-17
157 1 206.267 70.3319 -5.55112e-17
158 1 50.6156 7.81587 -5.55112e-17
159 1 9.43962 173.707 -5.55112e-17
160 1 60.4421 179.806 -5.55112e-17
161 1 51.778 3.52878 -5.55112e-17
162 1 58.4758 141.338 -5.55112e-17
163 1 76.8521 23.3367 -5.55112e-17
164 1 124.892 72.3905 -5.55112e-17
165 1 172.036 205.248 -5.55112e-17
166 2 177.234 47.7247 -5.55112e-17
167 1 124.676 64.1217 -5.55112e-17
168 1 151.68 174.75 -5.55112e-17
169 1 90.2166 119.891 -5.55112e-17
170 1 118.53 164.947 -5.55112e-17
171 1 167.779 119.069 -5.55112e-17
172 1 46.334 55.9717 -5.55112e-17
173 1 58.0698 150.165 -5.55112e-17
174 1 95.0165 111.945 -5.55112e-17
175 2 161.113 164.036 -5.55112e-17
176 1 72.4432 140.83 -5.55112e-17
177 2 35.6981 87.3737 -5.55112e-17
178 1 40.7219 102.017 -5.55112e-17
179 1 0.427462 145.495 -5.55112e-17
180 1 178.11 204.989 -5.55112e-17
181 1 198.028 159.901 -5.55112e-17
182 2 207.259 0.239345 -5.55112e-17
183 1 77.2134 143.645 -5.55112e-17
184 1 194.715 55.1974 -5.55112e-17
185 2 128.504 33.5431 -5.55112e-17
186 2 171.642 122.32 -5.55112e-17
187 1 86.6866 40.1091 -5.55112e-17
188 1 125.83 14.7366 -5.55112e-17
189 1 149.516 203.331 -5.55112e-17
190 2 37.4418 170.782 -5.55112e-17
191 1 151.929 217.197 -5.55112e-17
192 2 215.417 68.8499 -5.55112e-17
193 2 92.2711 166.397 -5.55112e-17
194 1 207.586 126.986 -5.55112e-17
195 1 3.62668 188.472 -5.55112e-17
196 1 185.015 126.282 -5.55112e-17
197 1 21.4097 84.6982 -5.55112e-17
198 2 54.7387 112.268 -5.55112e-17
199 1 33.5285 2.2725 -5.55112e-17
200 1 104.907 37.315 -5.55112e-17
201 2 80.4464 114.635 -5.55112e-17
202 1 73.2973 34.6206 -5.55112e-17
203 1 168.511 83.8839 -5.55112e-17
204 1 167.982 131.817 -5.55112e-17
205 2 11.2759 106.813 -5.55112e-17
206 1 127.982 119.973 -5.55112e-17
207 1 126.852 70.8349 -5.55112e-17
208 1 42.9578 80.4484 -5.55112e-17
209 1 109.756 0.372774 -5.55112e-17
210 1 218.604 78.2277 -5.55112e-17
211 2 147.958 183.468 -5.55112e-17
212 1 190.089 55.051 -5.55112e-17
213 1 171.363 73.5906 -5.55112e-17
214 1 94.7947 49.1926 -5.55112e-17
215 1 120.162 210.374 -5.55112e-17
216 1 158.329 83.5235 -5.55112e-17
217 1 141.119 156.294 -5.55112e-17
218 2 18.272 136.112 -5.55112e-17
219 1 93.7648 186.228 -5.55112e-17
220 2 108.12 92.4862 -5.55112e-17
221 1 216.684 58.3678 -5.55112e-17
222 1 140.285 127.996 -5.55112e-17
223 1 40.6268 180.498 -5.55112e-17
224 2 51.7104 195.444 -5.55112e-17
225 1 206.769 139.197 -5.55112e-17
226 1 14.6025 173.753 -5.55112e-17
227 2 41.5893 218.566 -5.55112e-17
228 1 115.058 129.517 -5.55112e-17
229 1 26.3879 178.988 -5.55112e-17
230 1 169.944 155.738 -5.55112e-17
231 1 136.565 65.5286 -5.55112e-17
232 1 204.175 51.843 -5.55112e-17
233 1 26.4785 82.8896 -5.55112e-17
234 1 112.479 52.1715 -5.55112e-17
235 1 216.099 79.2615 -5.55112e-17
236 1 44.9987 117.955 -5.55112e-17
237 1 216.295 162.701 -5.55112e-17
238 1 112.26 139.477 -5.55112e-17
239 2 20.2443 113.067 -5.55112e-17
240 1 133.686 196.772 -5.55112e-17
241 2 105.457 179.307 -5.55112e-17
242 2 198.623 211.779 -5.55112e-17
243 2 72.8668 29.6524 -5.55112e-17
244 1 87.7055 47.1029 -5.55112e-17
245 1 54.349 98.8261 -5.55112e-17
246 1 182.9 117.523 -5.55112e-17
247 1 162.71 79.9152 -5.55112e-17
248 1 137.832 16.009 -5.55112e-17
249 1 0.926804 82.9855 -5.55112e-17
250 2 118.754 28.7926 -5.55112e-17
251 1 116.461 26.9154 -5.55112e-17
252 1 198.461 21.0338 -5.55112e-17
253 1 161.326 42.2442 -5.55112e-17
254 2 69.7697 147.426 -5.55112e-17
255 1 203.727 156.276 -5.55112e-17
256 1 96.284 162.867 -5.55112e-17
257 1 25.0161 126.742 -5.55112e-17
258 2 161.141 39.59 -5.55112e-17
259 1 37.3618 126.516 -5.55112e-17
260 1 82.2934 107.888 -5.55112e-17
261 1 15.4118 190.125 -5.55112e-17
262 1 33.3013 85.7146 -5.55112e-17
263 1 23.4778 74.0186 -5.55112e-17
264 1 179.501 7.16946 -5.55112e-17
265 1 213.02 26.5493 -5.55112e-17
266 1 186.316 26.8841 -5.55112e-17
267 1 190.432 70.5744 -5.55112e-17
268 1 39.0206 42.3731 -5.55112e-17
269 1 124.103 95.9843 -5.55112e-17
270 1 107.991 110.956 -5.55112e-17
271 1 112.845 86.555 -5.55112e-17
272 1 209.353 165.083 -5.55112e-17
273 1 57.3799 7.49253 -5.55112e-17
274 2 150.708 110.508 -5.55112e-17
275 1 66.186 75.6786 -5.55112e-17
276 2 11.5545 22.5956 -5.55112e-17
277 2 131.307 44.3074 -5.55112e-17
278 1 40.176 132.294 -5.55112e-17
279 2 101.066 26.6351 -5.55112e-17
280 1 201.973 34.7202 -5.55112e-17
281 1 100.657 19.2395 -5.55112e-17
282 1 103.312 187.834 -5.55112e-17
283 1 134.252 141.409 -5.55112e-17
284 1 115.769 66.614 -5.55112e-17
285 1 6.66664 212.163 -5.55112e-17
286 2 80.4926 6.03312 -5.55112e-17
287 1 47.7181 108.115 -5.55112e-17
288 1 2.45527 90.6317 -5.55112e-17
289 1 38.1789 86.074 -5.55112e-17
290 1 184.526 179.018 -5.55112e-17
291 1 166.521 146.725 -5.55112e-17
292 2 65.5442 27.0124 -5.55112e-17
293 2 102.682 3.28859 -5.55112e-17
294 1 133.097 24.2547 -5.55112e-17
295 1 118.597 216.949 -5.55112e-17
296 1 151.021 13.7776 -5.55112e-17
297 1 172.616 155.748 -5.55112e-17
298 1 161.817 212.675 -5.55112e-17
299 1 133.938 100.236 -5.55112e-17
300 2 49.6561 144.77 -5.55112e-17
301 1 48.8141 34.4787 -5.55112e-17
302 1 104.242 169.411 -5.55112e-17
303 2 46.1631 59.0703 -5.55112e-17
304 2 164.912 170.972 -5.55112e-17
305 1 90.5988 95.438 -5.55112e-17
306 1 27.4791 50.3592 -5.55112e-17
307 1 25.659 163.616 -5.55112e-17
308 1 118.713 56.2804 -5.55112e-17
309 2 101.054 150.255 -5.55112e-17
310 1 6.94394 35.5347 -5.55112e-17
311 1 48.1046 61.0988 -5.55112e-17
312 1 178.564 153.098 -5.55112e-17
313 2 136.805 8.29103 -5.55112e-17
314 1 69.5162 86.8656 -5.55112e-17
315 1 123.615 144.976 -5.55112e-17
316 1 29.8234 36.8018 -5.55112e-17
317 1 19.7465 138.548 -5.55112e-17
318 1 112.381 191.769 -5.55112e-17
319 1 79.1411 22.8045 -5.55112e-17
320 1 138.516 114.357 -5.55112e-17
321 1 61.8484 23.0085 -5.55112e-17
322 1 151.845 138.376 -5.55112e-17
323 1 174.114 187.915 -5.55112e-17
324 1 104.983 46.5969 -5.55112e-17
325 1 137.924 143.81 -5.55112e-17
326 1 98.3019 145.66 -5.55112e-17
327 2 113.946 188.29 -5.55112e-17
328 1 3.43915 22.5045 -5.55112e-17
329 2 6.38876 150.783 -5.55112e-17
330 1 34.8901 130.7 -5.55112e-17
331 1 159.666 172.503 -5.55112e-17
332 2 134.57 123.451 -5.55112e-17
333 1 28.8451 206.021 -5.55112e-17
334 1 103.293 174.993 -5.55112e-17
335 1 217.598 196.767 -5.55112e-17
336 1 175.945 115.019 -5.55112e-17
337 1 128.881 205.989 -5.55112e-17
338 1 169.902 12.9547 -5.55112e-17
339 1 153.34 102.376 -5.55112e-17
340 1 180.828 141.484 -5.55112e-17
341 1 109.8 199.215 -5.55112e-17
342 1 165.719 183.312 -5.55112e-17
343 1 129.943 118.177 -5.55112e-17
344 1 82.756 160.751 -5.55112e-17
345 1 23.3424 13.9994 -5.55112e-17
346 1 14.4507 185.64 -5.55112e-17
347 1 50.5992 102.293 -5.55112e-17
348 1 119.922 166.896 -5.55112e-17
349 1 61.9819 99.4699 -5.55112e-17
350 2 79.5678 65.4027 -5.55112e-17
351 1 180.305 40.5151 -5.55112e-17
352 1 202.826 126.738 -5.55112e-17
353 1 48.5509 190.284 -5.55112e-17
354 1 171.609 167.083 -5.55112e-17
355 1 96.2135 146.65 -5.55112e-17
356 1 204.033 24.8763 -5.55112e-17
357 1 54.9275 166.978 -5.55112e-17
358 1 206.537 195.374 -5.55112e-17
359 1 189.928 171.033 -5.55112e-17
360 1 2.7046 127.26 -5.55112e-17
361 1 106.576 184.339 -5.55112e-17
362 1 202.816 215.333 -5.55112e-17
363 1 174.126 195.236 -5.55112e-17
364 2 187.667 147.509 -5.55112e-17
365 1 168.64 103.384 -5.55112e-17
366 1 128.531 145.5 -5.55112e-17
367 1 48.9169 94.039 -5.55112e-17
368 1 204.448 0.547135 -5.55112e-17
369 2 103.739 184.949 -5.55112e-17
370 1 2.87358 41.7194 -5.55112e-17
371 1 2.26506 107.607 -5.55112e-17
372 2 207.277 42.8266 -5.55112e-17
373 2 149.651 6.01479 -5.55112e-17
374 1 163.194 46.2269 -5.55112e-17
375 1 161.028 101.392 -5.55112e-17
376 1 67.2204 180.013 -5.55112e-17
377 1 192.896 74.9795 -5.55112e-17
378 1 78.9499 169.635 -5.55112e-17
379 1 6.73041 82.7413 -5.55112e-17
380 1 187.035 144.712 -5.55112e-17
381 1 33.6008 208.45 -5.55112e-17
382 1 72.1353 121.462 -5.55112e-17
383 1 98.7619 51.6982 -5.55112e-17
384 1 32.3735 22.1743 -5.55112e-17
385 1 189.845 127.557 -5.55112e-17
386 2 58.7965 22.394 -5.55112e-17
387 1 153.882 210.239 -5.55112e-17
388 1 78.1457 116.714 -5.55112e-17
389 1 79.3265 152.502 -5.55112e-17
390 2 213.814 161.081 -5.55112e-17
391 2 201.391 203.491 -5.55112e-17
392 1 71.0346 195.213 -5.55112e-17
393 1 210.176 55.9077 -5.55112e-17
394 1 77.9658 119.403 -5.55112e-17
395 1 31.061 207.329 -5.55112e-17
396 1 208.103 169.209 -5.55112e-17
397 1 119.963 39.6377 -5.55112e-17
398 1 0.0273785 171.536 -5.55112e-17
399 1 191.349 28.5106 -5.55112e-17
400 1 113.164 33.583 -5.55112e-17
401 1 118.315 184.495 -5.55112e-17
402 2 12.5851 138.919 -5.55112e-17
403 1 193.184 36.5538 -5.55112e-17
404 1 218.55 107.783 -5.55112e-17
405 1 19.5211 191.861 -5.55112e-17
406 1 178.675 51.0684 -5.55112e-17
407 2 25.95 61.4923 -5.55112e-17
408 1 55.5672 35.6257 -5.55112e-17
409 1 182.62 127.706 -5.55112e-17
410 1 44.7732 197.732 -5.55112e-17
411 1 178.077 164.268 -5.55112e-17
412 1 135.892 35.3184 -5.55112e-17
413 1 57.2117 131.915 -5.55112e-17
414 1 208.662 24.7794 -5.55112e-17
415 1 170.233 160.371 -5.55112e-17
416 1 68.9465 32.4289 -5.55112e-17
417 1 110.777 82.0391 -5.55112e-17
418 2 167.302 191.582 -5.55112e-17
419 1 124.784 132.726 -5.55112e-17
420 2 147.513 73.1454 -5.55112e-17
421 1 18.107 120.161 -5.55112e-17
422 1 153.917 215.895 -5.55112e-17
423 2 155.018 197.009 -5.55112e-17
424 1 111.6 172.935 -5.55112e-17
425 1 140.664 148.87 -5.55112e-17
426 1 156.643 133.509 -5.55112e-17
427 1 105.552 119.364 -5.55112e-17
428 1 75.1984 136.768 -5.55112e-17
429 1 176.13 139.02 -5.55112e-17
430 1 171.538 17.5129 -5.55112e-17
431 1 163.225 158.172 -5.55112e-17
432 1 145.396 43.0522 -5.55112e-17
433 1 122.162 146.879 -5.55112e-17
434 1 46.4238 33.9531 -5.55112e-17
435 1 143.275 160.98 -5.55112e-17
436 1 87.849 212.537 -5.55112e-17
437 1 197.756 136.886 -5.55112e-17
438 2 126.76 83.342 -5.55112e-17
439 1 77.423 27.7393 -5.55112e-17
440 1 215.482 71.6429 -5.55112e-17
441 1 210.133 183.245 -5.55112e-17
442 1 90.9434 206.76 -5.55112e-17
443 1 214.448 87.0346 -5.55112e-17
444 1 208.311 82.2317 -5.55112e-17
445 1 124.318 55.731 -5.55112e-17
446 1 188.822 139.569 -5.55112e-17
447 1 38.6429 182.045 -5.55112e-17
448 1 102.241 8.80874 -5.55112e-17
449 1 154.552 140.713 -5.55112e-17
450 1 126.772 216.702 -5.55112e-17
451 1 182.307 36.4363 -5.55112e-17
452 1 147.651 142.266 -5.55112e-17
453 1 208.363 173.754 -5.55112e-17
454 1 0.46367 8.4116 -5.55112e-17
455 1 112.87 93.139 -5.55112e-17
456 1 179.292 218.757 -5.55112e-17
457 1 66.9387 80.2116 -5.55112e-17
458 1 167.505 188.387 -5.55112e-17
459 1 25.5639 31.4539 -5.55112e-17
460 1 168.004 112.897 -5.55112e-17
461 1 194.407 183.413 -5.55112e-17
462 1 54.4067 162.4 -5.55112e-17
463 1 140.003 1.21439 -5.55112e-17
464 1 145.132 213.967 -5.55112e-17
465 1 168.9 98.256 -5.55112e-17
466 1 26.7722 142.081 -5.55112e-17
467 1 30.7773 99.1902 -5.55112e-17
468 1 205.797 173.91 -5.55112e-17
469 1 60.3697 85.1893 -5.55112e-17
470 1 71.8898 36.9239 -5.55112e-17
471 1 118.609 187.558 -5.55112e-17
472 1 47.1893 115.941 -5.55112e-17
473 1 58.0041 83.8737 -5.55112e-17
474 1 93.4458 150.352 -5.55112e-17
475 1 92.4271 183.785 -5.55112e-17
476 2 194.491 14.3794 -5.55112e-17
477 1 182.107 81.7587 -5.55112e-17
478 1 6.96489 185.009 -5.55112e-17
479 1 205.915 50.1447 -5.55112e-17
480 1 55.7936 48.8132 -5.55112e-17
481 1 1.16581 134.758 -5.55112e-17
482 1 110.759 149.259 -5.55112e-17
483 1 123.125 149.428 -5.55112e-17
484 2 82.5061 67.7479 -5.55112e-17
485 1 61.9661 210.446 -5.55112e-17
486 1 82.2263 37.8643 -5.55112e-17
487 1 70.5942 2.69342 -5.55112e-17
488 1 66.1465 96.1665 -5.55112e-17
489 1 199.51 79.8719 -5.55112e-17
490 1 217.083 216.658 -5.55112e-17
491 1 143.059 70.2211 -5.55112e-17
492 1 202.324 138.557 -5.55112e-17
493 1 149.11 211.456 -5.55112e-17
494 1 177.507 196.686 -5.55112e-17
495 1 131.512 33.8909 -5.55112e-17
496 2 80.8426 203.777 -5.55112e-17
497 1 29.8796 22.1866 -5.55112e-17
498 1 111.821 112.872 -5.55112e-17
499 2 130.67 183.432 -5.55112e-17
500 1 105.126 1.72337 -5.55112e-17
501 2 158.139 0.666053 -5.55112e-17
502 2 137.211 160.277 -5.55112e-17
503 1 169.611 173.701 -5.55112e-17
504 1 127.514 143.068 -5.55112e-17
505 1 192.928 45.2051 -5.55112e-17
506 1 22.2125 191.338 -5.55112e-17
507 1 93.9439 142.57 -5.55112e-17
508 1 146.984 58.2457 -5.55112e-17
509 2 56.5154 75.6678 -5.55112e-17
510 2 146.328 88.7936 -5.55112e-17
511 1 50.2273 65.1645 -5.55112e-17
512 2 20.9327 87.572 -5.55112e-17
513 1 60.4178 0.805374 -5.55112e-17
514 1 98.854 73.5224 -5.55112e-17
515 1 1.29625 196.275 -5.55112e-17
516 1 58.6977 162.29 -5.55112e-17
517 1 110.874 115.485 -5.55112e-17
518 2 95.9213 56.5962 -5.55112e-17
519 1 34.9444 22.4866 -5.55112e-17
520 2 43.6432 34.1705 -5.55112e-17
521 1 181.082 110.506 -5.55112e-17
522 1 26.571 206.637 -5.55112e-17
523 1 5.64024 134.198 -5.55112e-17
524 1 38.103 88.8635 -5.55112e-17
525 1 71.0719 184.328 -5.55112e-17
526 1 175.367 43.7638 -5.55112e-17
527 1 68.0085 214.13 -5.55112e-17
528 1 147.322 10.9484 -5.55112e-17
529 1 63.4115 120.48 -5.55112e-17
530 1 131.552 74.3061 -5.55112e-17
531 1 91.6749 141.045 -5.55112e-17
532 1 59.1057 168.826 -5.55112e-17
533 1 104.004 171.884 -5.55112e-17
534 1 105.397 138.99 -5.55112e-17
535 1 191.314 151.858 -5.55112e-17
536 1 178.761 131.916 -5.55112e-17
537 1 175.854 189.745 -5.55112e-17
538 1 129.699 55.2087 -5.55112e-17
539 1 62.8018 8.17179 -5.55112e-17
540 1 147.711 109.436 -5.55112e-17
541 1 81.7563 212.446 -5.55112e-17
542 1 78.3983 25.4501 -5.55112e-17
543 1 105.056 166.137 -5.55112e-17
544 1 154.391 186.201 -5.55112e-17
545 1 26.1887 116.557 -5.55112e-17
546 1 173.991 10.7684 -5.55112e-17
547 1 2.77002 146.187 -5.55112e-17
548 1 53.5335 164.912 -5.55112e-17
549 1 14.969 23.2347 -5.55112e-17
550 2 205.908 142.036 -5.55112e-17
551 2 122.337 103.379 -5.55112e-17
552 2 130.986 198.008 -5.55112e-17
553 1 107.165 218.481 -5.55112e-17
554 1 212.972 72.1061 -5.55112e-17
555 2 196.44 65.3064 -5.55112e-17
556 1 185.211 2.96686 -5.55112e-17
557 1 66.5743 36.2621 -5.55112e-17
558 1 159.455 161.575 -5.55112e-17
559 1 218.088 17.5286 -5.55112e-17
560 1 105.596 58.8881 -5.55112e-17
561 1 172.764 164.73 -5.55112e-17
562 1 165.939 157.893 -5.55112e-17
563 2 179.112 185.375 -5.55112e-17
564 1 27.1122 52.8082 -5.55112e-17
565 1 87.8055 217.346 -5.55112e-17
566 1 37.2707 79.1156 -5.55112e-17
567 1 186.005 99.6574 -5.55112e-17
568 1 56.8411 189.469 -5.55112e-17
569 1 77.0267 165.972 -5.55112e-17
570 1 137.827 111.889 -5.55112e-17
571 1 180.909 199.393 -5.55112e-17
572 1 128.003 94.0932 -5.55112e-17
573 1 170.801 43.1417 -5.55112e-17
574 1 212.592 153.659 -5.55112e-17
575 1 193.224 70.3548 -5.55112e-17
576 1 183.308 112.349 -5.55112e-17
577 1 165.093 3.62251 -5.55112e-17
578 1 144.131 208.896 -5.55112e-17
579 1 22.6938 6.50233 -5.55112e-17
580 1 146.361 66.4965 -5.55112e-17
581 1 181.752 157.427 -5.55112e-17
582 1 34.3717 49.4833 -5.55112e-17
583 1 180.775 9.51502 -5.55112e-17
584 2 39.1284 165.379 -5.55112e-17
585 1 73.1808 96.2725 -5.55112e-17
586 1 121.095 151.387 -5.55112e-17
587 1 215.867 60.7052 -5.55112e-17
588 1 35.2722 175.364 -5.55112e-17
589 1 124.706 201.375 -5.55112e-17
590 1 68.4649 40.7142 -5.55112e-17
591 1 70.8524 180.127 -5.55112e-17
592 1 2.3575 112.251 -5.55112e-17
593 1 217.151 30.5522 -5.55112e-17
594 1 3.1921 198.249 -5.55112e-17
595 1 120.239 72.4031 -5.55112e-17
596 1 7.13485 42.2906 -5.55112e-17
597 2 202.202 11.4233 -5.55112e-17
598 1 193.399 6.96974 -5.55112e-17
599 1 42.0684 14.8443 -5.55112e-17
600 1 122.837 210.333 -5.55112e-17
601 1 72.6089 190.415 -5.55112e-17
602 1 114.579 214.932 -5.55112e-17
603 1 6.30589 21.21 -5.55112e-17
604 1 120.102 10.4091 -5.55112e-17
605 2 95.7786 106.872 -5.55112e-17
606 1 149.667 173.212 -5.55112e-17
607 2 150.141 200.424 -5.55112e-17
608 1 118.205 114.577 -5.55112e-17
609 1 53.5416 157.271 -5.55112e-17
610 1 181.165 150.518 -5.55112e-17
611 1 38.3709 152.695 -5.55112e-17
612 1 24.0528 83.5763 -5.55112e-17
613 1 194.993 171.406 -5.55112e-17
614 2 172.288 197.81 -5.55112e-17
615 1 74.7687 198.851 -5.55112e-17
616 1 176.64 110.163 -5.55112e-17
617 1 54.0252 185.525 -5.55112e-17
618 1 207.034 186.605 -5.55112e-17
619 1 162.312 98.4582 -5.55112e-17
620 1 161.501 59.6554 -5.55112e-17
621 1 167.353 67.8879 -5.55112e-17
622 1 104.874 189.997 -5.55112e-17
623 1 187.706 2.58987 -5.55112e-17
624 1 38.2646 10.2152 -5.55112e-17
625 1 188.339 112.733 -5.55112e-17
626 1 93.9028 190.471 -5.55112e-17
627 1 86.8128 71.3295 -5.55112e-17
628 1 61.4038 13.3884 -5.55112e-17
629 1 65.7626 138.951 -5.55112e-17
630 2 173.459 32.1149 -5.55112e-17
631 1 45.2489 107.951 -5.55112e-17
632 1 59.8122 127.649 -5.55112e-17
633 1 47.2548 201.621 -5.55112e-17
634 1 168.833 73.8657 -5.55112e-17
635 1 138.853 125.834 -5.55112e-17
636 1 190.603 76.0547 -5.55112e-17
637 1 26.7757 47.9147 -5.55112e-17
638 1 8.8958 61.3289 -5.55112e-17
639 2 50.7518 62.0368 -5.55112e-17
640 1 153.234 147.416 -5.55112e-17
641 1 186.579 109.37 -5.55112e-17
642 1 183.98 74.6203 -5.55112e-17
643 2 180.034 43.2207 -5.55112e-17
644 1 83.6166 181.106 -5.55112e-17
645 1 130.74 190.784 -5.55112e-17
646 2 20.867 169.388 -5.55112e-17
647 1 110.966 217.21 -5.55112e-17
648 1 143.059 109.664 -5.55112e-17
649 2 203.096 123.669 -5.55112e-17
650 1 25.0672 182.972 -5.55112e-17
651 1 204.582 146.941 -5.55112e-17
652 1 172.466 13.0664 -5.55112e-17
653 1 150.131 185.45 -5.55112e-17
654 1 33.1503 45.0471 -5.55112e-17
655 2 192.554 93.7468 -5.55112e-17
656 1 10.0036 164.373 -5.55112e-17
657 2 86.6926 35.0017 -5.55112e-17
658 1 215.032 50.9416 -5.55112e-17
659 2 189.741 195.721 -5.55112e-17
660 1 60.4272 35.7104 -5.55112e-17
661 1 54.7555 105.861 -5.55112e-17
662 1 26.2641 108.852 -5.55112e-17
663 1 89.5168 200.3 -5.55112e-17
664 1 144.92 51.1474 -5.55112e-17
665 1 166.25 59.6971 -5.55112e-17
666 2 67.8201 205.615 -5.55112e-17
667 1 163.764 43.97 -5.55112e-17
668 2 90.5446 106.299 -5.55112e-17
669 1 75.4105 39.7495 -5.55112e-17
670 1 102.394 196.949 -5.55112e-17
671 2 71.314 187.41 -5.55112e-17
672 1 197.067 25.7141 -5.55112e-17
673 1 52.7147 45.5555 -5.55112e-17
674 1 211.846 188.526 -5.55112e-17
675 1 129.808 35.9838 -5.55112e-17
676 1 172.747 127.889 -5.55112e-17
677 1 114.989 168.566 -5.55112e-17
678 1 127.493 2.14075 -5.55112e-17
679 2 171.89 1.21858 -5.55112e-17
680 1 42.5879 4.40337 -5.55112e-17
681 2 140.129 14.2825 -5.55112e-17
682 1 188.851 41.781 -5.55112e-17
683 1 44.1959 47.9554 -5.55112e-17
684 1 119.457 175.495 -5.55112e-17
685 1 169.586 66.5643 -5.55112e-17
686 1 59.6532 101.351 -5.55112e-17
687 1 168.144 171.088 -5.55112e-17
688 1 149.187 87.9727 -5.55112e-17
689 2 85.0555 42.5816 -5.55112e-17
690 1 76.239 14.0832 -5.55112e-17
691 1 43.6169 25.1049 -5.55112e-17
692 1 127.369 147.498 -5.55112e-17
693 1 93.1053 2.30603 -5.55112e-17
694 1 29.4829 188.136 -5.55112e-17
695 1 187.234 137.442 -5.55112e-17
696 1 127.788 103.906 -5.55112e-17
697 1 148.203 161.565 -5.55112e-17
698 1 125.927 77.8736 -5.55112e-17
699 1 192.371 171.036 -5.55112e-17
700 1 6.92343 18.8727 -5.55112e-17
701 1 17.8422 45.2912 -5.55112e-17
702 1 58.9685 108.757 -5.55112e-17
703 2 2.49147 143.418 -5.55112e-17
704 1 66.6681 174.544 -5.55112e-17
705 2 199.926 66.5826 -5.55112e-17
706 1 108.346 147.943 -5.55112e-17
707 1 114.142 76.5939 -5.55112e-17
708 1 44.7018 157.916 -5.55112e-17
709 1 144.87 202.124 -5.55112e-17
710 1 209.175 157.891 -5.55112e-17
711 1 124.306 81.6191 -5.55112e-17
712 1 199.535 164.823 -5.55112e-17
713 1 162.769 95.6249 -5.55112e-17
714 1 152.64 52.9039 -5.55112e-17
715 1 70.8546 207.459 -5.55112e-17
716 1 84.6988 143.543 -5.55112e-17
717 1 172.014 100.836 -5.55112e-17
718 1 180.927 187.821 -5.55112e-17
719 2 45.856 92.4681 -5.55112e-17
720 1 100.884 74.675 -5.55112e-17
721 1 191.891 72.6153 -5.55112e-17
722 1 116.568 61.324 -5.55112e-17
723 2 17.2664 75.8254 -5.55112e-17
724 1 9.87381 215.944 -5.55112e-17
725 1 9.80162 79.1613 -5.55112e-17
726 1 65.7325 93.7146 -5.55112e-17
727 1 194.21 178.522 -5.55112e-17
728 2 197.901 115.444 -5.55112e-17
729 1 121.984 161.374 -5.55112e-17
730 1 49.4759 176.106 -5.55112e-17
731 1 67.7347 198.687 -5.55112e-17
732 1 68.3004 25.986 -5.55112e-17
733 1 45.2322 26.8234 -5.55112e-17
734 1 201.688 8.37437 -5.55112e-17
735 1 19.8013 40.6079 -5.55112e-17
736 2 15.2107 89.4399 -5.55112e-17
737 1 7.72797 122.363 -5.55112e-17
738 1 4.80578 199.868 -5.55112e-17
739 1 133.236 173.217 -5.55112e-17
740 1 79.0143 139.792 -5.55112e-17
741 2 187.782 50.5045 -5.55112e-17
742 1 40.2071 44.9091 -5.55112e-17
743 1 45.8344 87.0099 -5.55112e-17
744 2 205.908 158.375 -5.55112e-17
745 1 126.421 196.434 -5.55112e-17
746 1 14.3841 1.4882 -5.55112e-17
747 2 181.871 16.8431 -5.55112e-17
748 1 55.3323 0.110031 -5.55112e-17
749 1 192.881 2.13681 -5.55112e-17
750 1 217.572 116.739 -5.55112e-17
751 1 50.8914 87.4473 -5.55112e-17
752 1 132.559 192.489 -5.55112e-17
753 1 115.708 161.072 -5.55112e-17
754 1 201.459 210.835 -5.55112e-17
755 1 126.221 207.118 -5.55112e-17
756 2 140.834 167.839 -5.55112e-17
757 1 208.858 194.742 -5.55112e-17
758 1 11.854 186.504 -5.55112e-17
759 1 87.9842 129.68 -5.55112e-17
760 1 99.4023 47.1745 -5.55112e-17
761 1 83.8228 210.74 -5.55112e-17
762 1 189.153 89.3098 -5.55112e-17
763 1 65.3998 141.652 -5.55112e-17
764 2 160.328 181.901 -5.55112e-17
765 1 41.5711 70.8836 -5.55112e-17
766 1 113.98 14.6476 -5.55112e-17
767 1 78.9236 90.9541 -5.55112e-17
768 1 166.812 210.35 -5.55112e-17
769 1 64.9103 37.9978 -5.55112e-17
770 2 79.9637 101.164 -5.55112e-17
771 1 179.992 190.025 -5.55112e-17
772 1 105.467 68.503 -5.55112e-17
773 1 100.86 192.483 -5.55112e-17
774 1 135.156 118.542 -5.55112e-17
775 1 118.548 8.1188 -5.55112e-17
776 1 35.7874 29.2996 -5.55112e-17
777 1 193.023 185.857 -5.55112e-17
778 1 214.486 200.211 -5.55112e-17
779 1 184.109 0.797497 -5.55112e-17
780 1 175.411 127.318 -5.55112e-17
781 1 74.8261 86.08 -5.55112e-17
782 1 189.905 48.4404 -5.55112e-17
783 1 131.861 3.05468 -5.55112e-17
784 2 198.342 91.9916 -5.55112e-17
785 1 133.45 190.146 -5.55112e-17
786 1 103.977 181.959 -5.55112e-17
787 1 168.144 15.0007 -5.55112e-17
788 1 142.599 38.3424 -5.55112e-17
789 2 161.041 105.786 -5.55112e-17
790 1 54.7086 53.5034 -5.55112e-17
791 2 70.7789 161.816 -5.55112e-17
792 2 4.0666 3.09046 -5.55112e-17
793 2 132.792 36.3308 -5.55112e-17
794 1 83.9488 21.3332 -5.55112e-17
795 1 172.012 50.1312 -5.55112e-17
796 1 94.2091 13.7851 -5.55112e-17
797 1 165.509 103.507 -5.55112e-17
798 2 212.926 33.3227 -5.55112e-17
799 2 211.345 91.3935 -5.55112e-17
800 2 100.36 6.166 -5.55112e-17
801 1 67.0418 130.116 -5.55112e-17
802 1 62.8305 104.915 -5.55112e-17
803 1 175.599 74.0722 -5.55112e-17
804 2 99.6274 32.1939 -5.55112e-17
805 1 5.62778 104.407 -5.55112e-17
806 1 75.3404 164.248 -5.55112e-17
807 2 134.99 97.2367 -5.55112e-17
808 1 43.6131 85.1694 -5.55112e-17
809 2 203.99 90.6556 -5.55112e-17
810 1 147.264 215.729 -5.55112e-17
811 1 212.906 205.24 -5.55112e-17
812 1 137.356 5.10922 -5.55112e-17
813 2 150.929 116.149 -5.55112e-17
814 1 85.5802 115.406 -5.55112e-17
815 1 94.8286 167.931 -5.55112e-17
816 1 215.015 21.8801 -5.55112e-17
817 1 169.059 10.5321 -5.55112e-17
818 1 71.1834 169.033 -5.55112e-17
819 1 57.0706 191.886 -5.55112e-17
820 1 46.8224 159.645 -5.55112e-17
821 1 107.698 137.559 -5.55112e-17
822 2 14.7843 159.304 -5.55112e-17
823 2 97.9775 70.5796 -5.55112e-17
824 1 107.089 85.6061 -5.55112e-17
825 1 217.981 28.0078 -5.55112e-17
826 1 26.3627 194.843 -5.55112e-17
827 1 188.458 159.08 -5.55112e-17
828 1 139.717 116.344 -5.55112e-17
829 1 136.332 203.826 -5.55112e-17
830 1 71.8302 106.572 -5.55112e-17
831 1 181.83 26.5698 -5.55112e-17
832 1 22.1654 57.812 -5.55112e-17
833 1 44.4883 37.054 -5.55112e-17
834 1 102.528 0.543226 -5.55112e-17
835 1 13.4779 44.95 -5.55112e-17
836 1 3.04397 51.1746 -5.55112e-17
837 1 28.7246 91.6913 -5.55112e-17
838 1 161.618 184.523 -5.55112e-17
839 2 196.769 173.575 -5.55112e-17
840 1 146.739 6.26184 -5.55112e-17
841 2 83.6491 175.608 -5.55112e-17
842 1 70.7173 34.7055 -5.55112e-17
843 2 183.991 151.64 -5.55112e-17
844 1 52.3224 192.683 -5.55112e-17
845 1 74.1744 166.58 -5.55112e-17
846 1 131.979 165.098 -5.55112e-17
847 1 85.9673 186.715 -5.55112e-17
848 1 120.993 51.9365 -5.55112e-17
849 1 5.22389 145.791 -5.55112e-17
850 1 18.6131 126.236 -5.55112e-17
851 1 88.0382 8.17445 -5.55112e-17
852 1 113.707 196.027 -5.55112e-17
853 1 83.4059 130.323 -5.55112e-17
854 1 91.6193 93.2272 -5.55112e-17
855 1 121.596 82.8301 -5.55112e-17