ITEM: TIMESTEP
0
ITEM: NUMBER OF ATOMS
7200
ITEM: BOX BOUNDS xy xz yz pp pp pp
0.0000000000000000e+00 7.7459666924100006e+01 0.0000000000000000e+00
0.0000000000000000e+00 7.7459666924100006e+01 0.0000000000000000e+00
-1.2909944490000000e-01 1.2909944490000000e-01 0.0000000000000000e+00
ITEM: ATOMS id type x y z
1 1 12.1309 20.1466 0
2 1 14.8463 64.0592 0
3 1 75.1904 71.1282 0
4 1 20.376 8.05892 0
5 1 34.5756 55.9897 0
6 1 56.6841 28.531 0
7 2 5.37212 3.37761 0
8 2 64.7125 46.3811 0
9 1 42.1508 56.1058 0
10 2 19.0511 14.6831 0
11 2 25.4189 53.2602 0
12 1 55.1828 11.5641 0
13 2 23.2008 5.99983 0
14 1 46.5558 70.6384 0
15 1 39.4189 31.2886 0
16 1 18.2047 14.9383 0
17 1 31.3708 40.0577 0
18 1 33.8002 5.80207 0
19 1 27.0179 57.8317 0
20 2 44.882 3.67219 0
21 1 12.1582 65.9369 0
22 1 54.3686 10.8521 0
23 1 75.6172 45.7321 0
24 1 55.9529 66.3261 0
25 1 6.68634 71.0765 0
26 1 21.0881 67.6307 0
27 2 28.9682 63.8177 0
28 1 51.3366 74.2271 0
29 2 22.5217 48.0008 0
30 2 25.3523 32.1328 0
31 1 15.2192 53.3587 0
32 1 51.0293 37.9854 0
33 1 60.8102 48.4922 0
34 2 45.3452 9.63385 0
35 1 75.2021 63.1703 0
36 1 30.6169 60.0432 0
37 1 22.2894 61.494 0
38 1 45.8445 19.764 0
39 1 22.3666 5.68235 0
40 2 24.8425 59.2157 0
41 2 18.485 64.7108 0
42 1 20.9376 1.19655 0
43 1 18.9608 33.556 0
44 1 34.3677 62.7489 0
45 1 3.38633 34.5024 0
46 1 68.1732 7.58747 0
47 1 73.535 59.0958 0
48 1 44.0924 68.2827 0
49 2 77.2435 4.22336 0
50 1 31.0526 66.7009 0
51 1 1.31931 10.0243 0
52 2 33.1545 24.2224 0
53 1 53.5471 18.6323 0
54 1 49.6749 30.2736 0
55 1 9.61092 1.05061 0
56 1 45.9399 26.0812 0
57 1 67.4777 43.0219 0
58 1 69.8033 69.1099 0
59 1 34.171 2.14293 0
60 1 28.6153 3.42103 0
61 1 40.5136 75.9894 0
62 1 52.2106 45.0528 0
63 1 57.2353 9.90098 0
64 1 50.5873 45.7416 0
65 1 66.9427 73.6682 0
66 2 56.045 11.429 0
67 2 40.7144 35.9317 0
68 2 0.84702 29.1513 0
69 1 61.9845 45.3837 0
70 1 8.45521 35.5136 0
71 2 7.53162 42.2869 0
72 1 76.8082 3.41457 0
73 1 6.29957 64.1463 0
74 2 41.5673 22.797 0
75 1 75.5591 53.3332 0
76 1 19.7276 46.9051 0
77 1 25.0406 74.5039 0
78 1 3.65013 15.5872 0
79 1 12.5486 73.3793 0
80 1 43.4805 16.5591 0
81 1 55.0252 62.227 0
82 2 44.3387 16.6098 0
83 1 5.75118 32.9838 0
84 1 33.0502 45.7847 0
85 1 34.5236 20.8006 0
86 2 34.6647 64.7451 0
87 1 71.5372 34.7614 0
88 1 18.4761 54.7454 0
89 1 27.7274 13.105 0
90 1 37.4721 37.9308 0
91 2 45.9155 41.0533 0
92 2 41.264 56.0758 0
93 1 27.7696 16.8977 0
94 1 33.4789 55.7407 0
95 2 39.1113 56.7455 0
96 1 65.3585 1.24378 0
97 1 44.1715 49.0352 0
98 2 2.87879 60.0227 0
99 1 61.8693 48.1731 0
100 2 32.4606 30.8166 0
101 1 47.698 54.4119 0
102 1 55.9773 21.5691 0
103 1 56.6183 70.3804 0
104 1 2.74022 60.8834 0
105 2 40.1045 3.0692 0
106 2 30.4566 34.8185 0
107 1 13.2089 31.3489 0
108 1 0.766285 0.86564 0
109 1 35.6655 41.6091 0
110 2 65.1934 25.5454 0
111 1 65.9962 11.9453 0
112 1 34.2897 72.8152 0
113 2 0.344252 60.3429 0
114 2 74.5707 29.4117 0
115 2 30.3246 12.819 0
116 2 74.7371 53.6319 0
117 1 16.1914 45.9212 0
118 2 46.778 26.4944 0
119 1 62.7364 0.0441707 0
120 2 5.98364 49.8185 0
121 1 6.21215 3.63649 0
122 1 19.9619 33.112 0
123 2 5.39163 17.7726 0
124 1 46.3991 57.2699 0
125 1 31.6855 27.2662 0
126 1 58.0082 52.134 0
127 1 4.49609 58.9522 0
128 1 14.4517 23.4067 0
129 1 16.5317 52.2016 0
130 1 7.21236 2.17272 0
131 1 59.0865 24.9446 0
132 2 31.1299 41.8588 0
133 2 52.7273 6.91482 0
134 1 65.8047 50.9627 0
135 1 31.6255 30.3918 0
136 2 55.1987 46.496 0
137 1 61.7345 56.6023 0
138 2 70.4599 47.9755 0
139 1 68.3776 27.2774 0
140 1 3.54634 21.8852 0
141 2 48.0539 63.5322 0
142 1 6.55552 22.6481 0
143 2 40.5918 70.1142 0
144 2 47.2873 75.287 0
145 2 18.3273 52.9637 0
146 1 54.9463 4.04137 0
147 1 9.41345 38.986 0
148 1 46.3848 53.3677 0
149 2 67.9886 49.0882 0
150 1 32.837 56.5987 0
151 2 29.4658 13.8572 0
152 1 48.8765 63.1524 0
153 2 17.4049 46.3871 0
154 2 31.4823 72.2397 0
155 1 70.5062 48.9428 0
156 1 43.5086 10.2639 0
157 1 49.2251 71.0919 0
158 1 60.1687 69.1804 0
159 2 10.5421 26.0715 0
160 1 38.1463 17.4574 0
161 1 7.20791 63.5386 0
162 2 72.64 23.9796 0
163 1 30.6098 27.109 0
164 1 60.1772 29.4611 0
165 1 75.6862 27.8047 0
166 1 1.99664 44.7366 0
167 1 39.2679 0.878808 0
168 1 38.4769 72.8462 0
169 1 56.7402 30.9036 0
170 1 57.3843 0.940119 0
171 2 36.8579 61.12 0
172 2 33.68 53.7984 0
173 2 43.8088 24.3312 0
174 2 27.5265 56.0261 0
175 2 30.9318 26.293 0
176 1 46.2377 16.2182 0
177 1 19.6439 58.6855 0
178 1 61.8635 61.3103 0
179 1 64.6436 24.8831 0
180 2 33.2573 39.6745 0
181 1 45.2228 27.618 0
182 1 61.8246 58.5534 0
183 2 12.1238 37.3796 0
184 1 5.18051 67.5225 0
185 2 67.2013 29.4751 0
186 1 59.0223 35.0933 0
187 1 39.5255 46.4276 0
188 1 57.3315 47.7182 0
189 2 63.8311 52.9886 0
190 1 23.1851 4.06442 0
191 1 71.8204 8.1346 0
192 1 65.4982 10.2318 0
193 2 10.9048 41.6102 0
194 2 68.5936 69.0815 0
195 1 11.114 3.32324 0
196 2 49.5556 54.9096 0
197 2 20.2221 9.98968 0
198 1 13.4038 61.2413 0
199 2 75.6854 66.2097 0
200 1 59.9177 27.7419 0
201 2 34.6676 1.40169 0
202 2 74.6555 55.1704 0
203 1 52.3528 65.6955 0
204 1 29.6292 3.81575 0
205 1 56.0964 26.0579 0
206 2 35.7637 37.0127 0
207 2 13.9571 9.53455 0
208 1 33.6977 14.0083 0
209 1 12.1783 11.6194 0
210 2 5.36638 20.5274 0
211 1 17.1977 8.14779 0
212 2 24.7853 6.27833 0
213 2 55.9909 27.9871 0
214 1 71.052 57.7963 0
215 2 66.9979 22.3949 0
216 1 20.6272 73.6721 0
217 1 59.5261 34.1565 0
218 2 54.723 58.5197 0
219 2 67.9946 42.3177 0
220 2 42.9821 64.0251 0
221 1 19.0158 45.3345 0
222 1 44.9861 12.4065 0
223 2 39.0851 67.7974 0
224 2 27.7297 68.681 0
225 1 32.4027 23.7455 0
226 2 66.4506 57.1562 0
227 2 6.06184 16.4447 0
228 1 34.5281 9.28298 0
229 1 70.9968 26.8307 0
230 1 32.2157 74.4914 0
231 1 10.7622 34.3298 0
232 1 42.0633 12.8359 0
233 1 34.8821 7.61266 0
234 1 76.1262 8.34862 0
235 1 60.7794 59.0514 0
236 2 44.7848 70.3572 0
237 1 77.1561 62.2318 0
238 2 9.30584 21.4728 0
239 1 58.5489 2.76052 0
240 2 61.6522 46.2226 0
241 1 47.3441 66.6702 0
242 1 18.5799 30.6165 0
243 1 7.26448 56.2924 0
244 1 61.2092 64.2501 0
245 1 11.0648 30.8365 0
246 1 2.04293 35.561 0
247 1 65.6905 49.8987 0
248 1 12.2879 0.83448 0
249 2 50.3928 41.2291 0
250 1 29.0073 9.37101 0
251 2 57.6966 50.2049 0
252 2 65.8091 23.2957 0
253 1 19.8721 17.5802 0
254 1 54.4163 25.0035 0
255 1 65.5031 42.8739 0
256 1 31.3813 8.53716 0
257 1 22.1614 57.9032 0
258 1 26.1594 38.7574 0
259 1 55.5903 56.7894 0
260 2 44.0294 53.817 0
261 2 26.3516 62.6694 0
262 1 24.3928 33.7865 0
263 2 12.5963 34.7266 0
264 2 71.4395 59.9511 0
265 1 77.0301 46.6739 0
266 1 38.1261 44.7397 0
267 2 61.6089 24.5639 0
268 2 56.643 45.8784 0
269 1 48.1204 21.0073 0
270 2 9.09509 47.054 0
271 2 22.5108 33.6173 0
272 2 20.4146 14.3053 0
273 1 14.9478 65.1232 0
274 1 32.3128 50.0116 0
275 1 8.61757 48.9796 0
276 1 75.3316 10.2253 0
277 2 15.5543 71.3664 0
278 1 7.60132 17.478 0
279 1 4.5311 44.3728 0
280 1 20.4264 35.8316 0
281 1 30.6646 38.5383 0
282 2 75.9198 26.4386 0
283 1 76.5189 55.7874 0
284 2 54.2297 38.3408 0
285 1 71.0747 52.8534 0
286 1 11.3223 63.3737 0
287 1 19.1105 76.7873 0
288 2 75.6991 3.85882 0
289 2 21.3756 39.2 0
290 2 69.1818 76.413 0
291 1 35.1563 22.578 0
292 1 27.7647 58.5963 0
293 1 47.3917 18.9707 0
294 1 40.3132 2.23029 0
295 1 69.9533 3.32373 0
296 2 74.2049 8.49124 0
297 1 40.3136 59.8128 0
298 1 72.5664 35.1257 0
299 2 49.2628 36.4914 0
300 1 39.2088 43.7608 0
301 1 73.5039 19.69 0
302 1 50.9103 35.1697 0
303 1 20.4456 32.167 0
304 1 60.5268 72.3281 0
305 2 59.0798 75.8968 0
306 1 63.0818 52.5019 0
307 2 73.3721 38.7964 0
308 1 41.5897 5.23687 0
309 2 24.9408 16.9118 0
310 2 13.3526 13.0391 0
311 1 29.3374 49.5911 0
312 1 67.3821 61.5998 0
313 1 74.7174 76.1306 0
314 1 40.5551 45.9869 0
315 2 56.3608 31.7717 0
316 2 39.5499 63.4138 0
317 1 50.879 20.5464 0
318 2 7.06483 31.2957 0
319 1 30.9246 25.4056 0
320 1 36.1429 61.6767 0
321 1 58.6721 68.3819 0
322 2 73.9897 11.8979 0
323 2 25.0857 63.5475 0
324 1 64.378 41.5277 0
325 1 41.2691 6.2638 0
326 1 9.78395 58.886 0
327 1 48.7029 54.7792 0
328 1 0.76652 36.993 0
329 1 41.6586 42.6809 0
330 2 51.7443 34.8728 0
331 2 70.1093 4.1736 0
332 1 59.4314 28.7115 0
333 1 36.9422 12.2651 0
334 1 17.0748 34.8085 0
335 1 20.6299 38.7264 0
336 2 72.267 74.3744 0
337 1 34.7355 33.7226 0
338 2 17.0497 1.58034 0
339 1 42.5117 68.4633 0
340 1 18.8749 57.9124 0
341 2 74.0222 44.2093 0
342 1 67.0356 5.82748 0
343 2 56.4104 49.8348 0
344 2 22.8218 66.0597 0
345 1 7.99775 27.7781 0
346 1 17.4509 71.7863 0
347 1 35.4266 56.6218 0
348 1 56.5216 18.8896 0
349 1 33.6938 20.1299 0
350 1 37.1977 31.1261 0
351 1 18.0177 53.7832 0
352 1 47.865 30.7488 0
353 1 75.3268 25.8021 0
354 2 22.6312 26.2586 0
355 2 43.4281 18.2073 0
356 2 11.8319 2.8089 0
357 1 68.4383 67.4964 0
358 1 24.2318 3.76665 0
359 1 22.3127 14.5729 0
360 2 45.1973 31.301 0
361 2 48.0919 67.1888 0
362 1 27.072 74.6284 0
363 2 38.062 73.598 0
364 1 13.0893 66.5448 0
365 2 8.97962 57.1641 0
366 1 24.9467 50.6764 0
367 2 19.7802 23.4265 0
368 2 51.3523 54.9568 0
369 2 65.1891 70.5638 0
370 1 3.46262 28.3375 0
371 1 46.0486 73.4822 0
372 2 40.4483 9.96701 0
373 1 10.4984 31.775 0
374 2 66.5776 41.3201 0
375 1 52.2455 52.7709 0
376 2 75.4836 43.1836 0
377 2 58.1813 38.1443 0
378 1 20.4438 63.7984 0
379 1 13.8755 20.2551 0
380 1 9.82321 62.4798 0
381 1 26.6722 23.3249 0
382 1 30.6893 23.6525 0
383 1 9.59153 11.7829 0
384 1 34.9398 51.6889 0
385 1 28.4116 77.1422 0
386 1 54.8706 40.4016 0
387 1 59.5545 76.6119 0
388 2 55.9422 57.772 0
389 1 24.63 56.7368 0
390 1 29.4432 12.9791 0
391 2 59.9082 26.7962 0
392 2 30.0886 10.149 0
393 2 38.7922 65.0003 0
394 1 10.214 73.777 0
395 1 53.1583 21.884 0
396 1 13.744 70.4668 0
397 1 46.7901 17.1503 0
398 1 45.5118 70.8362 0
399 1 70.0251 18.0629 0
400 1 59.8432 74.1496 0
401 1 44.5736 11.4345 0
402 2 56.5998 16.9563 0
403 1 38.2811 51.612 0
404 1 69.3191 70.8049 0
405 2 73.8239 76.2371 0
406 1 34.2067 19.1137 0
407 2 45.7179 21.7337 0
408 1 63.5116 30.4673 0
409 1 18.6459 61.326 0
410 2 67.4298 16.73 0
411 2 66.5739 36.5598 0
412 1 58.9118 38.6519 0
413 1 7.09305 36.5823 0
414 1 71.3262 48.2155 0
415 1 7.08339 41.5562 0
416 2 73.7429 62.3551 0
417 2 75.1166 12.7567 0
418 1 54.2868 30.0346 0
419 2 56.6316 47.2066 0
420 2 24.8679 55.9167 0
421 1 60.248 19.4151 0
422 1 1.99796 71.4002 0
423 1 4.20538 12.0557 0
424 1 60.7752 26.9972 0
425 1 58.8811 50.4589 0
426 1 56.0932 73.723 0
427 2 39.5214 14.8578 0
428 1 51.5329 50.2299 0
429 1 59.0914 71.0524 0
430 1 36.6615 37.1056 0
431 1 0.0918431 29.5575 0
432 1 63.3834 49.0351 0
433 1 29.1499 69.4885 0
434 1 1.87075 42.8659 0
435 1 64.0515 34.2164 0
436 2 67.9894 39.0126 0
437 2 43.7353 59.3938 0
438 1 38.9015 61.7689 0
439 2 41.2211 12.5667 0
440 1 43.3796 43.6432 0
441 2 66.6091 15.2654 0
442 1 9.62032 37.9399 0
443 1 54.5701 16.7893 0
444 1 16.7186 75.4105 0
445 2 69.3916 67.5228 0
446 1 61.6323 42.2114 0
447 1 26.9757 70.8896 0
448 1 46.9589 37.6286 0
449 1 37.2091 73.2973 0
450 2 48.1373 59.7213 0
451 2 6.55468 61.6827 0
452 1 66.6088 11.1082 0
453 1 28.6401 76.0935 0
454 2 62.6407 29.9745 0
455 2 26.5067 67.9299 0
456 1 11.4366 44.6052 0
457 2 18.5131 1.87034 0
458 1 38.0277 77.1515 0
459 2 15.5973 56.7485 0
460 1 5.36463 4.27851 0
461 2 27.2556 27.053 0
462 1 45.7774 24.3166 0
463 1 75.8716 69.69 0
464 1 9.0993 47.9231 0
465 2 40.6904 45.1296 0
466 1 21.7436 12.9072 0
467 2 11.5377 1.319 0
468 1 19.4321 36.3331 0
469 1 1.87004 2.16609 0
470 1 61.8096 10.4778 0
471 2 73.9736 40.9192 0
472 1 25.5435 43.0869 0
473 1 61.6508 65.8195 0
474 1 33.5101 54.6602 0
475 1 22.4942 59.7907 0
476 2 38.9406 32.0482 0
477 1 60.6062 11.6311 0
478 2 33.1612 74.4734 0
479 1 33.3578 22.3166 0
480 1 19.903 25.6649 0
481 1 7.18749 18.6509 0
482 1 10.9669 25.2721 0
483 2 1.07573 1.69337 0
484 1 14.4233 38.3009 0
485 1 21.3155 57.2222 0
486 1 7.05445 4.68437 0
487 2 70.9769 10.4105 0
488 1 58.9969 5.41691 0
489 1 52.3634 15.1957 0
490 1 35.4483 31.1103 0
491 1 30.5816 42.5914 0
492 2 61.212 9.839 0
493 1 73.3709 8.98745 0
494 1 67.5989 32.0329 0
495 2 22.5625 49.2195 0
496 2 52.7271 42.1106 0
497 2 40.6796 6.89245 0
498 1 23.542 25.9364 0
499 1 35.8532 74.4287 0
500 1 2.6317 4.16498 0
501 2 45.4846 43.4284 0
502 1 16.7427 24.7994 0
503 1 50.2396 9.8084 0
504 1 37.0733 32.7675 0
505 2 26.5419 77.0989 0
506 2 17.534 65.2181 0
507 1 42.0285 37.3502 0
508 1 12.9849 32.8187 0
509 1 28.9141 24.8148 0
510 1 7.01154 38.7423 0
511 1 69.2753 26.7099 0
512 1 54.5447 53.3506 0
513 1 11.8617 34.2499 0
514 1 25.3445 64.39 0
515 2 61.4143 11.2652 0
516 2 11.4388 38.628 0
517 2 74.4566 74.5776 0
518 2 19.1851 54.2502 0
519 2 33.2786 1.88513 0
520 1 74.4217 37.1107 0
521 1 42.0869 24.4361 0
522 2 24.3831 66.1502 0
523 1 77.2367 12.2714 0
524 1 70.4713 34.6523 0
525 1 22.7582 0.0316311 0
526 2 76.5798 22.3908 0
527 1 49.4377 26.1042 0
528 2 74.5151 5.1651 0
529 2 35.2271 45.2211 0
530 1 7.91548 59.5394 0
531 2 76.358 68.9578 0
532 2 32.2064 60.9107 0
533 1 72.8212 5.47512 0
534 1 34.5137 27.1333 0
535 1 29.0508 19.2239 0
536 1 32.6275 65.8479 0
537 1 35.0735 47.8529 0
538 2 16.431 21.6228 0
539 2 46.0395 76.8399 0
540 1 60.8611 40.6774 0
541 2 24.9355 8.11058 0
542 1 51.2075 56.7935 0
543 2 69.6638 55.5496 0
544 2 51.98 10.456 0
545 1 28.2987 22.8211 0
546 1 34.2878 3.23151 0
547 1 10.167 14.4049 0
548 2 23.6057 3.17535 0
549 2 65.3953 21.903 0
550 2 5.2219 39.4132 0
551 1 30.3351 8.29134 0
552 2 70.5696 40.2711 0
553 2 29.5141 44.9323 0
554 1 51.6844 62.2769 0
555 1 50.2659 57.2969 0
556 1 73.031 68.0369 0
557 1 62.0529 53.8936 0
558 1 2.57506 68.5446 0
559 1 72.6043 36.1791 0
560 2 21.4226 61.5227 0
561 1 5.65155 0.687919 0
562 2 4.54066 11.2158 0
563 2 54.0697 48.8207 0
564 1 70.1163 68.0717 0
565 2 21.7985 1.39942 0
566 2 18.1445 23.8015 0
567 1 48.9014 42.1313 0
568 2 22.8255 74.1226 0
569 2 15.7261 27.4701 0
570 1 73.1578 34.21 0
571 1 0.411116 3.55279 0
572 2 6.70733 48.5292 0
573 2 0.0103626 44.8429 0
574 1 3.80037 69.0927 0
575 1 18.2833 7.71682 0
576 1 16.431 63.1363 0
577 1 43.3618 50.503 0
578 2 67.6469 34.2215 0
579 2 45.9029 69.05 0
580 1 62.676 42.6424 0
581 1 6.65693 60.7682 0
582 2 68.6546 59.5687 0
583 2 64.1072 58.6082 0
584 2 33.4593 65.5497 0
585 1 61.0219 77.3452 0
586 1 48.7119 58.6821 0
587 2 14.6778 21.7155 0
588 1 49.5873 5.20414 0
589 2 53.7057 10.2832 0
590 1 24.6336 73.5188 0
591 1 56.3935 6.45481 0
592 1 48.5597 74.2815 0
593 1 44.0529 13.0508 0
594 1 59.8263 63.2724 0
595 1 72.1956 65.3796 0
596 2 7.10212 1.31991 0
597 1 3.53217 44.0051 0
598 1 69.0818 9.17436 0
599 1 2.72464 50.998 0
600 1 0.201552 47.5351 0
601 2 42.123 36.1257 0
602 1 62.1872 14.3416 0
603 2 71.1943 50.806 0
604 2 62.2767 16.5217 0
605 1 52.3971 69.2209 0
606 1 41.5774 4.04434 0
607 1 76.3066 1.3542 0
608 2 1.37587 40.2878 0
609 2 40.86 0.454078 0
610 1 7.85639 49.7425 0
611 1 53.8767 58.7633 0
612 1 76.7291 6.25416 0
613 1 77.019 23.1684 0
614 2 50.4956 28.4353 0
615 1 34.5388 38.83 0
616 1 39.7137 16.1191 0
617 1 69.0907 2.64832 0
618 2 12.0113 42.7234 0
619 2 55.1845 42.3041 0
620 2 70.8447 73.937 0
621 2 58.4492 35.7409 0
622 1 60.1945 18.2729 0
623 1 37.4339 11.3291 0
624 2 20.4526 54.847 0
625 1 26.9737 76.3382 0
626 1 73.7759 29.0958 0
627 2 2.3325 25.0691 0
628 1 28.7386 58.1313 0
629 2 77.415 25.5318 0
630 1 29.1185 73.1143 0
631 1 56.869 37.1248 0
632 1 21.5816 65.0934 0
633 2 25.5508 72.0232 0
634 1 18.8083 50.6909 0
635 2 41.4679 43.6597 0
636 2 37.0362 40.7504 0
637 1 11.211 11.0661 0
638 1 67.3031 40.8238 0
639 1 70.2396 46.2807 0
640 1 0.216861 53.9242 0
641 1 36.4819 33.6598 0
642 1 9.70338 33.8192 0
643 1 50.2355 44.7301 0
644 2 19.3591 27.2832 0
645 1 56.9604 52.2677 0
646 1 46.2352 47.0375 0
647 2 23.6784 10.4528 0
648 1 64.2909 12.4098 0
649 2 10.7219 69.1049 0
650 2 47.0999 61.9227 0
651 1 46.1096 12.1692 0
652 1 29.5825 70.9329 0
653 2 13.6364 23.1685 0
654 2 10.3066 3.74542 0
655 1 5.57371 51.81 0
656 1 72.8875 53.8486 0
657 1 33.7865 46.5636 0
658 1 71.5731 13.2667 0
659 2 0.880446 66.1859 0
660 1 26.7996 35.6274 0
661 1 37.311 9.77777 0
662 1 32.7688 60.0866 0
663 1 10.6745 28.728 0
664 1 58.4119 75.3454 0
665 2 49.2332 76.944 0
666 2 12.8125 58.2571 0
667 1 26.3553 73.8219 0
668 2 7.75371 76.1843 0
669 1 4.38162 9.25642 0
670 2 43.9691 37.7182 0
671 2 37.2558 17.5079 0
672 1 9.92601 19.6236 0
673 1 6.94594 16.6509 0
674 1 32.6777 42.5964 0
675 2 4.89431 58.1325 0
676 2 37.975 6.30425 0
677 1 41.3588 54.0292 0
678 1 53.747 39.0719 0
679 1 46.669 69.546 0
680 1 31.7244 53.634 0
681 1 26.3612 54.0931 0
682 1 62.4242 59.5267 0
683 1 18.054 59.332 0
684 1 64.3742 68.9054 0
685 2 35.8846 18.693 0
686 1 50.3493 6.1868 0
687 1 41.5345 18.8913 0
688 2 53.5777 73.6088 0
689 1 72.0065 62.4571 0
690 1 66.0078 72.2179 0
691 1 41.8052 39.936 0
692 2 59.9036 44.0538 0
693 1 71.2867 76.9174 0
694 2 53.7139 64.2988 0
695 1 42.278 11.7894 0
696 2 35.6404 47.1241 0
697 1 25.6564 13.338 0
698 1 8.33297 3.48005 0
699 1 66.6249 13.8686 0
700 1 72.0001 46.9032 0
701 1 64.132 31.3326 0
702 1 63.6492 65.2522 0
703 2 72.0095 2.22715 0
704 2 8.27339 61.3038 0
705 2 4.92624 7.30603 0
706 1 52.2573 51.7344 0
707 2 59.7504 38.4663 0
708 1 50.372 43.0785 0
709 1 51.6761 73.2041 0
710 2 60.3026 28.5907 0
711 1 56.0284 54.1556 0
712 2 62.7651 32.7452 0
713 2 68.3934 70.4449 0
714 2 0.623328 64.8794 0
715 1 45.2517 18.8329 0
716 1 76.4959 29.8521 0
717 1 29.788 63.4641 0
718 1 14.2429 3.69728 0
719 1 53.2779 36.9064 0
720 2 49.1697 38.413 0
721 2 66.8201 39.852 0
722 1 49.0878 7.9283 0
723 2 39.9486 75.356 0
724 2 10.4143 59.5296 0
725 1 50.6991 39.1498 0
726 1 8.32487 29.9962 0
727 2 12.8865 1.48319 0
728 1 67.5305 55.5351 0
729 2 21.6199 59.7501 0
730 1 32.8224 27.479 0
731 2 16.6989 36.4375 0
732 1 16.4 54.3134 0
733 1 29.8481 29.5216 0
734 2 66.4573 46.3924 0
735 1 66.6879 67.2387 0
736 1 47.8651 49.3725 0
737 2 4.17236 45.7555 0
738 1 13.7553 34.4609 0
739 1 18.0272 37.5835 0
740 1 48.4536 37.9202 0
741 2 57.2422 55.6789 0
742 1 58.9437 37.6016 0
743 1 27.1489 62.1681 0
744 2 72.8177 19.0834 0
745 1 23.0826 72.7248 0
746 1 35.0671 10.1989 0
747 1 47.5488 76.1332 0
748 2 43.1607 69.9484 0
749 2 22.3763 24.486 0
750 1 55.3319 35.0455 0
751 1 57.7422 40.1849 0
752 2 2.4111 70.512 0
753 1 53.008 39.8179 0
754 2 21.7242 15.2741 0
755 1 24.0764 50.0284 0
756 2 49.4435 75.9386 0
757 1 48.3799 19.3639 0
758 1 6.0661 9.76822 0
759 1 61.764 47.0962 0
760 1 12.2023 10.5406 0
761 1 69.8622 71.7092 0
762 1 15.2359 57.5337 0
763 2 77.1617 7.04657 0
764 1 75.101 57.0553 0
765 2 47.0808 56.7274 0
766 1 63.2419 22.7456 0
767 1 13.6869 1.1468 0
768 1 65.3965 8.01479 0
769 1 61.7825 50.0168 0
770 2 60.4818 73.5154 0
771 1 18.8556 40.0164 0
772 1 44.9505 51.0594 0
773 1 40.7078 43.212 0
774 2 32.6368 25.7422 0
775 1 71.6766 30.6363 0
776 2 43.6394 42.7946 0
777 1 70.4813 55.2618 0
778 2 10.4363 63.1156 0
779 1 45.2463 25.2579 0
780 1 17.0706 6.26163 0
781 1 29.6491 35.1597 0
782 1 57.4715 64.8281 0
783 1 60.6269 35.5989 0
784 1 70.8128 49.981 0
785 2 8.83638 11.3434 0
786 1 73.1866 70.127 0
787 1 20.9296 66.5726 0
788 1 39.8237 54.815 0
789 1 10.9425 4.38055 0
790 1 52.1542 70.2899 0
791 1 45.7961 13.1994 0
792 1 8.60837 25.0442 0
793 1 25.2322 14.9498 0
794 2 71.2806 16.75 0
795 2 75.6204 14.1607 0
796 2 75.5995 67.8147 0
797 1 44.4476 65.3398 0
798 1 38.4125 19.0447 0
799 1 44.2794 76.4352 0
800 1 30.5733 70.5196 0
801 2 6.49581 25.9664 0
802 2 28.032 45.5873 0
803 2 23.5944 77.1721 0
804 2 52.5784 35.9912 0
805 1 23.8158 71.9614 0
806 1 53.039 70.8687 0
807 2 39.8131 50.4277 0
808 1 50.4858 47.1412 0
809 2 36.3504 62.5193 0
810 1 58.451 76.5072 0
811 1 28.7269 61.0574 0
812 2 59.6509 48.2573 0
813 2 46.2158 58.1457 0
814 1 54.3466 31.1189 0
815 2 41.0969 16.9643 0
816 1 28.0896 34.4471 0
817 1 67.7318 75.618 0
818 2 36.7677 16.1065 0
819 2 45.7016 56.7114 0
820 1 66.8541 69.8136 0
821 1 16.7019 64.8389 0
822 1 56.7411 76.7606 0
823 1 17.1679 55.7363 0
824 2 35.2782 42.4227 0
825 1 29.1493 41.6061 0
826 1 32.8606 75.3299 0
827 1 7.33148 26.1627 0
828 1 76.8815 51.0866 0
829 1 72.131 40.2384 0
830 2 47.8193 64.514 0
831 2 43.3049 4.56647 0
832 1 73.9409 14.3479 0
833 1 24.5197 43.3871 0
834 2 48.6236 5.56339 0
835 1 68.4282 6.54066 0
836 1 58.156 27.6284 0
837 1 56.3125 41.2147 0
838 1 38.9967 52.8403 0
839 1 16.0801 60.2943 0
840 2 15.7828 46.7114 0
841 1 36.8864 52.59 0
842 2 11.0498 61.2006 0
843 1 5.54982 42.382 0
844 1 63.4826 21.6199 0
845 2 27.9011 2.25898 0
846 1 49.5622 39.2213 0
847 1 10.978 57.6529 0
848 2 69.0325 47.6302 0
849 1 74.1123 11.0359 0
850 1 67.9733 19.7312 0
851 1 39.4181 18.6314 0
852 1 12.1615 1.96307 0
853 1 42.4171 61.5118 0
854 1 37.7017 69.6513 0
855 1 39.4911 25.6557 0
856 2 18.757 42.0232 0
857 1 57.8091 33.9636 0
858 2 34.4421 28.863 0
859 1 13.1387 64.7972 0
860 2 2.10164 58.4716 0
861 2 60.1729 40.149 0
862 2 2.96931 69.2963 0
863 1 58.9937 23.8058 0
864 1 60.3278 53.7382 0
865 2 66.1032 68.0122 0
866 1 60.4945 17.2082 0
867 2 31.5389 21.8779 0
868 1 37.158 61.9702 0
869 1 62.1476 20.1948 0
870 1 0.0580112 52.7261 0
871 1 62.7482 26.1056 0
872 1 42.3286 50.8066 0
873 1 50.647 62.5822 0
874 1 3.9302 71.7561 0
875 1 34.1129 57.8045 0
876 2 51.5955 7.88508 0
877 1 13.3499 55.5245 0
878 2 14.7521 16.039 0
879 1 76.5276 14.0944 0
880 2 31.7368 33.6099 0
881 2 51.9265 29.2998 0
882 2 47.9566 73.633 0
883 1 25.7011 19.9898 0
884 1 55.9845 36.5454 0
885 1 38.9429 5.04027 0
886 1 37.0658 60.1733 0
887 2 54.7728 50.2821 0
888 1 0.405278 76.5858 0
889 2 59.1852 49.619 0
890 2 7.76969 25.375 0
891 1 38.1428 10.496 0
892 1 39.9624 67.979 0
893 1 30.0287 53.714 0
894 1 77.03 15.0148 0
895 2 32.4108 53.0691 0
896 1 37.5574 2.59468 0
897 2 35.6737 17.0654 0
898 1 31.08 43.6319 0
899 1 2.04886 75.8003 0
900 2 38.6737 0.27238 0
901 1 52.2655 41.3749 0
902 1 24.3374 75.3132 0
903 1 37.8918 40.5734 0
904 2 0.131368 37.6243 0
905 1 63.7453 62.055 0
906 1 68.9469 44.7022 0
907 1 3.7431 29.8329 0
908 1 50.7364 23.8084 0
909 1 0.393938 48.6508 0
910 2 1.8725 50.7216 0
911 2 4.52877 4.5924 0
912 2 36.1979 32.7755 0
913 2 31.9433 51.6336 0
914 1 18.3052 12.9162 0
915 2 64.6875 5.46959 0
916 1 3.44813 39.8179 0
917 2 4.98851 33.4657 0
918 2 19.5629 35.4444 0
919 1 8.2392 57.762 0
920 1 15.9445 47.6418 0
921 1 0.108318 26.6364 0
922 2 50.7944 18.9513 0
923 2 12.3683 24.3412 0
924 1 39.2308 17.5585 0
925 1 66.2411 47.2494 0
926 2 35.4682 35.3147 0
927 1 68.9024 77.3901 0
928 1 52.1439 59.0534 0
929 2 52.0961 32.1462 0
930 2 20.0039 15.856 0
931 1 40.8461 47.5691 0
932 1 70.3948 39.069 0
933 1 34.3214 21.8795 0
934 1 2.00508 60.1237 0
935 1 11.3914 50.6036 0
936 2 42.2035 4.64575 0
937 1 14.2515 73.1399 0
938 1 36.6735 67.7065 0
939 2 50.4326 51.2688 0
940 1 75.9364 46.7975 0
941 1 77.2542 17.623 0
942 1 37.976 29.7566 0
943 2 22.2755 16.7248 0
944 2 2.08692 41.9697 0
945 1 40.4569 25.2787 0
946 1 64.5188 67.1802 0
947 2 25.0808 2.08195 0
948 1 39.2123 68.7209 0
949 1 26.8567 11.6401 0
950 2 5.1393 9.80915 0
951 1 68.9381 65.6064 0
952 2 52.6867 2.69669 0
953 2 7.84945 44.8127 0
954 2 29.9278 62.5756 0
955 1 27.2369 38.5731 0
956 2 58.8486 10.9201 0
957 1 48.3344 23.598 0
958 2 19.4774 2.81203 0
959 2 73.584 25.0701 0
960 2 29.1168 66.9229 0
961 1 49.4969 52.1049 0
962 1 24.3158 1.61846 0
963 1 16.278 12.6055 0
964 2 8.66619 9.58849 0
965 2 53.7421 53.7716 0
966 1 0.709042 62.789 0
967 1 49.88 35.5145 0
968 1 18.3557 0.105968 0
969 1 58.0177 23.3981 0
970 2 22.4933 4.68273 0
971 1 21.2519 14.5354 0
972 1 6.87235 25.1794 0
973 1 0.973274 35.8901 0
974 2 1.01714 35.0127 0
975 2 73.0597 65.3969 0
976 2 34.567 19.9208 0
977 1 35.9958 63.3336 0
978 2 3.15102 77.0378 0
979 2 36.1187 65.8056 0
980 1 72.8865 14.3171 0
981 1 73.6887 58.0519 0
982 1 7.89292 54.6926 0
983 1 18.4653 24.6377 0
984 1 9.30162 57.9592 0
985 1 34.5226 11.1473 0
986 1 37.9522 52.6228 0
987 2 18.086 12.0826 0
988 2 42.1931 34.8782 0
989 2 9.96413 34.7543 0
990 2 69.9871 51.7223 0
991 2 46.2643 14.7864 0
992 1 62.359 34.6277 0
993 2 29.1191 5.73949 0
994 2 1.90489 54.9777 0
995 1 38.8815 22.2505 0
996 2 54.6759 56.96 0
997 2 43.5167 30.8637 0
998 2 60.3664 74.9211 0
999 2 39.3247 26.5048 0
1000 2 0.54671 49.5106 0
1001 1 41.8134 65.3793 0
1002 1 23.4811 34.4365 0
1003 1 9.57315 54.2303 0
1004 1 7.61461 22.4657 0
1005 2 10.8352 23.7014 0
1006 2 67.8493 60.8428 0
1007 1 18.8734 20.3201 0
1008 1 47.8219 16.8714 0
1009 1 31.1368 32.9827 0
1010 1 11.5697 43.5113 0
1011 2 10.5629 22.312 0
1012 2 2.35958 23.3351 0
1013 2 65.129 55.9195 0
1014 1 74.1756 15.4943 0
1015 1 76.0932 9.43142 0
1016 1 37.205 47.9789 0
1017 2 68.813 54.2509 0
1018 1 26.1623 25.0036 0
1019 1 44.3236 29.0514 0
1020 2 32.4943 6.2921 0
1021 2 15.9166 24.5538 0
1022 1 4.84555 60.8474 0
1023 1 41.0778 9.35034 0
1024 1 9.22255 67.7815 0
1025 1 37.069 65.8623 0
1026 1 8.01723 40.1554 0
1027 1 47.4758 2.52121 0
1028 1 1.97282 32.9334 0
1029 1 48.9896 18.1602 0
1030 2 46.8933 48.0114 0
1031 2 37.5591 37.0154 0
1032 1 16.3617 73.1074 0
1033 1 57.5625 19.1948 0
1034 1 35.2453 29.2763 0
1035 1 65.8321 28.4549 0
1036 2 73.6317 45.8975 0
1037 1 31.1982 73.0995 0
1038 1 68.6374 60.458 0
1039 1 5.52635 31.8994 0
1040 2 64.9693 34.2785 0
1041 1 35.4141 65.2433 0
1042 2 62.7536 68.1296 0
1043 2 60.6766 58.1841 0
1044 1 67.7258 23.4751 0
1045 1 66.7072 23.2572 0
1046 1 41.0955 68.2047 0
1047 2 9.95669 47.6837 0
1048 1 53.4849 77.4564 0
1049 1 59.8829 49.0912 0
1050 2 45.4917 6.36301 0
1051 1 43.5066 31.8017 0
1052 1 66.2073 44.4899 0
1053 2 32.6323 18.4653 0
1054 1 55.1768 7.09348 0
1055 2 32.9032 46.6695 0
1056 2 14.6932 45.2428 0
1057 1 11.9565 71.6917 0
1058 1 27.4208 5.85296 0
1059 1 9.18969 75.2421 0
1060 2 21.9346 42.0678 0
1061 1 10.1227 23.1869 0
1062 2 16.898 41.4504 0
1063 1 0.00462811 67.8331 0
1064 1 23.2736 5.12763 0
1065 2 29.7341 52.882 0
1066 1 37.3859 46.2239 0
1067 1 13.9362 10.4333 0
1068 2 35.6196 67.1501 0
1069 1 67.9431 24.496 0
1070 2 8.23146 34.4268 0
1071 2 49.5415 42.7824 0
1072 2 9.45055 48.6975 0
1073 2 16.3567 3.59663 0
1074 2 33.8029 45.3261 0
1075 1 75.9598 49.6639 0
1076 1 41.2264 7.58183 0
1077 1 41.7491 32.6379 0
1078 2 71.6889 26.29 0
1079 2 38.9963 10.8393 0
1080 2 29.9573 72.8353 0
1081 2 45.9445 48.9387 0
1082 2 6.32651 27.6322 0
1083 2 21.5885 20.0469 0
1084 1 44.1929 57.537 0
1085 1 19.2254 52.3583 0
1086 1 70.1177 66.9614 0
1087 1 29.5426 72.0214 0
1088 1 44.6647 63.0405 0
1089 2 8.52154 31.6834 0
1090 1 42.958 34.4803 0
1091 2 27.6732 17.7777 0
1092 1 63.1186 53.5718 0
1093 1 69.12 32.9622 0
1094 2 43.5572 55.1729 0
1095 1 25.3154 71.1524 0
1096 2 48.1766 18.5267 0
1097 1 76.2245 17.7796 0
1098 1 62.6547 43.743 0
1099 1 31.0905 5.00095 0
1100 1 68.4053 1.79811 0
1101 1 74.8791 11.8909 0
1102 1 26.0319 74.8667 0
1103 1 51.3396 70.976 0
1104 1 47.0913 58.0909 0
1105 1 48.2763 40.0608 0
1106 1 16.4568 71.3952 0
1107 2 45.1644 62.3153 0
1108 1 55.6077 31.2144 0
1109 1 72.7364 24.8754 0
1110 2 14.9017 11.825 0
1111 1 2.67537 56.8504 0
1112 1 76.1746 18.8287 0
1113 2 75.481 7.74521 0
1114 2 14.2848 53.482 0
1115 2 32.9785 49.4519 0
1116 1 77.2123 64.6921 0
1117 1 66.9353 56.4095 0
1118 1 12.316 75.499 0
1119 2 11.2353 64.2996 0
1120 1 41.3499 58.0183 0
1121 2 21.2104 64.2792 0
1122 1 32.0597 32.4845 0
1123 2 23.0846 51.9221 0
1124 1 52.6934 61.9278 0
1125 2 14.7437 4.39707 0
1126 2 15.511 20.2013 0
1127 1 74.6452 24.0514 0
1128 1 67.301 52.0429 0
1129 1 60.8441 39.6163 0
1130 1 30.5661 47.3026 0
1131 1 62.4907 15.3555 0
1132 2 75.912 63.6684 0
1133 2 55.9516 22.5119 0
1134 2 20.8451 72.1401 0
1135 1 0.85337 68.503 0
1136 2 51.2095 26.8156 0
1137 1 51.0047 61.457 0
1138 1 30.3324 13.6857 0
1139 2 57.5682 52.8996 0
1140 2 9.13993 22.9391 0
1141 1 74.9319 65.6844 0
1142 1 27.0362 52.3695 0
1143 1 48.1286 44.7155 0
1144 2 60.9252 16.4394 0
1145 1 38.025 62.6634 0
1146 1 15.5678 18.8766 0
1147 1 28.2967 25.6569 0
1148 1 10.8662 36.736 0
1149 1 57.4956 29.2766 0
1150 2 65.4186 61.0677 0
1151 1 22.0269 3.91063 0
1152 1 59.8188 52.0134 0
1153 1 71.6708 29.5761 0
1154 1 13.891 4.71962 0
1155 2 60.1207 20.3043 0
1156 1 44.5094 32.1996 0
1157 1 12.3394 18.1771 0
1158 2 58.3465 47.9306 0
1159 2 5.47487 70.5152 0
1160 1 32.938 7.74515 0
1161 2 43.9563 56.6115 0
1162 1 15.9065 9.93101 0
1163 2 13.3762 73.0052 0
1164 1 23.9993 58.8696 0
1165 1 20.9386 45.5604 0
1166 2 14.985 50.6756 0
1167 1 28.0111 20.3186 0
1168 1 56.3812 64.6257 0
1169 1 19.5382 66.8061 0
1170 2 6.32568 33.6679 0
1171 1 48.5154 33.7793 0
1172 1 22.9054 6.82823 0
1173 1 51.7036 64.0194 0
1174 1 38.9256 29.2313 0
1175 2 62.5896 44.672 0
1176 1 68.3075 36.511 0
1177 1 48.4887 69.9446 0
1178 2 61.1027 47.6513 0
1179 1 72.3958 32.6743 0
1180 1 52.0289 17.8517 0
1181 1 54.2881 22.895 0
1182 1 60.9493 74.2582 0
1183 2 43.1865 73.3976 0
1184 2 28.1175 21.9747 0
1185 1 17.4945 63.2567 0
1186 1 48.9602 49.4536 0
1187 1 73.8626 72.1956 0
1188 2 4.84454 37.7011 0
1189 1 60.7555 65.2362 0
1190 1 28.3865 51.4913 0
1191 2 72.2168 4.85677 0
1192 1 24.6397 47.0493 0
1193 1 47.5632 17.9173 0
1194 2 16.6129 16.0714 0
1195 1 74.2641 48.8867 0
1196 1 21.9099 49.8216 0
1197 1 35.6028 38.9225 0
1198 1 62.4694 76.4132 0
1199 2 57.8212 62.457 0
1200 1 26.948 8.85008 0
1201 1 2.89203 73.263 0
1202 1 5.87486 48.8866 0
1203 2 47.575 12.3598 0
1204 1 57.4987 56.5945 0
1205 1 66.7156 50.3061 0
1206 1 52.235 5.04504 0
1207 1 31.825 62.7914 0
1208 1 75.3995 58.0682 0
1209 2 65.3707 59.6602 0
1210 1 69.7046 32.0192 0
1211 2 24.8364 35.491 0
1212 1 33.7401 36.2187 0
1213 1 61.2131 68.8834 0
1214 1 61.6159 23.6684 0
1215 1 11.6405 72.7248 0
1216 1 11.2406 49.484 0
1217 2 67.5378 2.03885 0
1218 2 61.5167 20.9343 0
1219 1 30.2021 15.4091 0
1220 1 61.9202 18.0653 0
1221 1 61.6592 54.8968 0
1222 2 66.287 74.3483 0
1223 1 42.3373 48.0727 0
1224 1 0.741183 34.1691 0
1225 1 2.86935 25.7423 0
1226 2 65.866 64.8773 0
1227 1 41.4793 56.965 0
1228 1 76.1788 70.7569 0
1229 2 47.9835 9.27974 0
1230 1 25.5908 49.8163 0
1231 2 52.8915 18.0565 0
1232 1 67.7624 38.1521 0
1233 1 38.5521 58.5626 0
1234 1 1.74671 67.8958 0
1235 1 18.2067 46.0335 0
1236 1 52.3429 63.1188 0
1237 1 37.9192 20.6979 0
1238 1 24.6875 7.22377 0
1239 1 12.8996 22.7168 0
1240 1 24.4173 62.9863 0
1241 1 76.2314 62.8205 0