ITEM: TIMESTEP
0
ITEM: NUMBER OF ATOMS
9088
ITEM: BOX BOUNDS xy xz yz pp pp pp
6.0835185681938349e+00 5.5847419223964735e+01 -5.7094853355150840e-15
6.0835185681938402e+00 5.5847419223964735e+01 0.0000000000000000e+00
6.0835185681938402e+00 5.5847419223964735e+01 0.0000000000000000e+00
ITEM: ATOMS id type x y z
1 2 49.8141 51.6245 16.3117
2 2 21.5407 41.6356 36.4287
3 2 9.4628 12.3728 24.229
4 2 33.1365 47.7696 29.244
5 2 29.8935 36.5712 32.5042
6 2 51.2232 30.3462 55.3948
7 2 32.7317 41.1723 22.8395
8 2 43.2351 12.0958 18.5455
9 2 24.7782 24.1705 31.4312
10 2 18.4651 21.0401 33.2044
11 2 44.2536 12.6071 27.4528
12 2 21.8042 26.7789 49.0556
13 2 29.587 50.3799 53.1677
14 2 15.3896 32.3395 33.6735
15 2 9.55978 11.2145 48.6204
16 2 53.775 19.2789 55.4331
17 2 33.1052 39.5175 9.64347
18 2 50.7693 26.8061 33.54
19 2 33.5186 34.3029 27.9215
20 2 34.6756 35.7916 18.6521
21 2 39.7559 21.6803 46.5098
22 2 44.9211 25.4922 15.6866
23 2 41.3692 39.2208 8.75927
24 2 23.7702 43.5212 21.4907
25 2 7.05165 46.5725 52.7806
26 2 9.26396 11.1421 7.39851
27 2 48.2256 53.8625 43.9276
28 2 13.9061 47.6196 30.4881
29 2 36.0883 19.2483 10.0468
30 2 30.4515 12.9496 48.9123
31 2 55.3406 50.7634 38.317
32 2 25.7443 46.0527 25.6891
33 2 25.1811 13.6234 15.326
34 2 53.6093 37.765 12.1622
35 2 47.7822 39.5301 40.6089
36 2 6.45561 55.7554 32.3799
37 2 53.6376 50.7763 20.7963
38 2 39.4416 8.52836 48.5553
39 2 47.8622 12.4332 27.7312
40 2 42.4004 41.4793 47.1355
41 2 16.5058 52.3952 15.3893
42 2 36.6567 7.69597 17.7614
43 2 33.8695 48.0946 20.4628
44 2 44.8617 35.1262 48.9486
45 2 40.086 27.0174 37.7088
46 2 10.6675 14.2012 31.9448
47 2 31.1547 54.7716 11.8757
48 2 45.9466 26.8421 52.0187
49 2 46.949 43.2876 30.467
50 2 16.1625 23.5064 46.8086
51 2 41.532 32.9491 33.6742
52 2 41.1867 32.2085 41.3197
53 2 33.4521 39.1136 35.1635
54 2 10.0703 6.98087 48.5448
55 2 31.2255 25.5568 29.2741
56 2 14.3248 46.202 37.0484
57 2 17.0959 33.4978 21.5721
58 2 17.8569 38.866 29.4079
59 2 31.8482 51.0298 24.7779
60 2 17.2944 31.0242 41.5227
61 2 48.4259 34.0396 6.44341
62 2 40.2689 41.5591 16.6872
63 2 18.7013 42.5809 36.5522
64 2 34.5366 38.9102 27.1438
65 2 8.10843 31.4954 24.2407
66 2 7.59786 15.0818 52.2308
67 2 25.7352 50.9228 42.9929
68 2 16.8634 22.4224 27.6188
69 2 44.126 45.2459 53.1121
70 2 22.4869 42.2404 34.2145
71 2 34.2093 41.5867 7.48432
72 2 50.1685 41.5372 25.2334
73 2 18.7655 41.586 42.8988
74 2 42.0937 50.2985 46.7864
75 2 18.8253 15.5487 54.6271
76 2 20.6245 43.7723 43.1297
77 2 45.2485 15.4594 52.3736
78 2 8.33715 26.3355 28.5748
79 2 14.8516 12.0906 53.9337
80 2 53.9484 6.53439 34.0876
81 2 50.9578 43.753 49.0691
82 2 36.1016 11.2184 24.136
83 2 36.4535 39.2186 50.061
84 2 9.04999 39.3124 36.0402
85 2 51.0604 44.6926 17.2313
86 2 48.9319 41.1336 55.1675
87 2 41.1198 35.2385 30.1616
88 2 29.6669 22.732 38.5652
89 2 21.3074 50.9016 14.0995
90 2 43.0725 24.6173 45.2603
91 2 51.319 12.8568 15.8805
92 2 36.0884 17.1846 51.6004
93 2 21.4255 55.1302 55.822
94 2 10.874 48.4243 29.5674
95 2 7.7667 13.7349 21.7886
96 2 20.3818 50.3684 51.5306
97 2 6.09744 41.5035 33.4724
98 2 36.8516 27.1921 23.9946
99 2 39.8315 14.3159 52.44
100 2 22.0814 23.6821 49.4562
101 2 45.6776 32.7501 32.8387
102 2 10.8817 6.08851 40.7108
103 2 23.7423 30.121 26.3258
104 2 36.5857 40.2272 16.9064
105 2 28.0666 30.6235 45.3455
106 2 17.5346 48.2796 52.0179
107 2 7.05473 8.72383 41.5867
108 2 48.0151 53.0112 22.8249
109 2 30.0481 17.1256 27.2132
110 2 37.6698 33.7422 33.3881
111 2 31.4103 23.1218 31.2595
112 2 47.9321 30.1751 33.1689
113 2 54.0188 50.4875 28.0918
114 2 48.0095 9.43051 52.2688
115 2 53.688 7.45743 50.4771
116 2 52.653 11.4612 24.2033
117 2 41.5969 28.6924 18.017
118 2 43.3315 44.7508 39.2938
119 2 25.5505 15.1237 28.1053
120 2 34.1691 42.6828 46.7693
121 2 25.0481 25.3522 19.8482
122 2 40.989 9.55835 33.5786
123 2 54.9498 14.7652 48.4893
124 2 40.6835 44.013 33.5019
125 2 24.303 29.2732 37.5244
126 2 50.4126 9.35714 24.7533
127 2 27.8313 24.4994 16.4722
128 2 13.6601 46.707 10.0165
129 2 44.0874 37.364 39.5647
130 2 9.34481 33.4924 22.3903
131 2 19.601 22.2264 40.587
132 2 42.5863 12.371 32.2476
133 2 50.9847 43.9978 36.9751
134 2 37.6408 44.5752 18.507
135 2 44.4842 8.85646 21.729
136 2 20.8239 10.4812 43.3481
137 2 32.1963 51.7487 51.6793
138 2 9.1963 26.1738 7.96296
139 2 19.8237 24.1226 11.861
140 2 27.5682 43.4458 52.1157
141 2 7.57654 39.668 53.8903
142 2 39.9028 14.1725 22.8148
143 2 11.3649 27.3198 23.6332
144 2 29.7117 21.2861 10.5932
145 2 52.8902 27.143 48.6847
146 2 37.6961 16.5321 23.5781
147 2 46.5933 50.313 7.50833
148 2 35.4273 30.8905 27.1473
149 2 43.8988 24.8015 30.7284
150 2 33.5043 45.398 15.6585
151 2 27.8368 49.1348 37.533
152 2 31.4217 16.8683 54.326
153 2 32.5355 52.6584 34.047
154 2 51.047 29.6642 15.5849
155 2 48.8455 16.9329 44.5974
156 2 46.3071 53.8032 36.9298
157 2 44.5492 12.4052 52.1239
158 2 10.8513 46.2589 50.2261
159 2 34.3919 16.117 10.2169
160 2 41.0487 25.1428 35.0947
161 2 42.0979 44.3817 30.419
162 2 54.7417 24.4034 44.7054
163 2 6.96728 25.5079 13.4222
164 2 46.5094 11.5142 15.7511
165 2 43.717 35.7886 10.9632
166 2 39.9924 41.3449 28.5245
167 2 37.4077 54.7017 30.1134
168 2 21.4206 16.5208 24.5421
169 2 48.3729 43.7929 46.7475
170 2 27.3992 42.0897 47.3776
171 2 34.2355 14.3172 28.0255
172 2 30.2662 35.8774 25.2095
173 2 24.5909 32.5547 12.6663
174 2 29.4428 24.037 27.4327
175 2 30.6466 43.3542 43.9534
176 2 9.58755 29.71 19.3619
177 2 11.9268 7.91695 28.6105
178 2 46.3783 50.1151 13.084
179 2 32.5194 53.7969 16.6867
180 2 21.4196 7.47521 53.4743
181 2 22.2757 32.5509 14.8623
182 2 53.1327 42.5295 48.3576
183 2 10.7709 51.1183 49.5239
184 2 20.6401 39.2904 45.5693
185 2 48.9302 32.6081 22.02
186 2 15.8478 24.9816 30.3512
187 2 46.3297 51.5025 10.3834
188 2 12.8283 49.8659 17.1266
189 2 17.8886 54.487 53.9792
190 2 46.228 39.819 27.6818
191 2 37.4865 10.6093 41.659
192 2 50.429 19.0115 35.9398
193 2 17.831 44.2481 14.0114
194 2 53.6755 17.2002 50.622
195 2 16.8927 34.1671 54.9954
196 2 44.2827 20.4027 47.4323
197 2 32.715 21.0802 32.4606
198 2 53.5298 31.8241 43.5513
199 2 54.4369 41.8982 39.307
200 2 20.0336 52.7132 6.55811
201 2 22.9776 47.4829 36.8172
202 2 40.0382 34.7445 10.7642
203 2 37.3478 45.1565 46.661
204 2 50.4045 13.6601 47.1971
205 2 36.7302 21.5745 20.0436
206 2 7.72513 28.9249 37.8059
207 2 21.3486 10.8853 17.034
208 2 31.4201 10.4968 46.299
209 2 18.728 54.1652 25.4454
210 2 28.3218 27.725 39.5755
211 2 10.1033 38.9416 25.3171
212 2 54.9085 6.60062 52.9172
213 2 25.075 14.0698 18.0614
214 2 25.328 29.0074 31.21
215 2 23.615 47.0922 40.6569
216 2 12.5099 43.4013 37.9905
217 2 17.4327 25.915 8.72845
218 2 38.3663 41.3964 36.1779
219 2 17.955 38.4659 43.24
220 2 35.7505 38.5592 46.1538
221 2 34.4198 45.6341 46.5059
222 2 9.52767 22.3342 36.0343
223 2 44.5623 21.883 32.8509
224 2 28.3984 48.6127 22.6892
225 2 34.9824 54.7305 14.5809
226 2 7.84979 15.1747 35.436
227 2 13.4604 17.9551 41.5561
228 2 43.196 11.4276 13.3485
229 2 43.8868 27.9705 54.8895
230 2 42.6907 36.9154 47.1225
231 2 10.5754 42.2185 33.4116
232 2 46.2032 50.8403 32.8258
233 2 10.6287 8.92429 35.1348
234 2 29.393 12.9571 6.59111
235 2 15.0443 11.2517 11.3784
236 2 47.6568 12.4563 36.2053
237 2 36.0388 51.1479 54.0393
238 2 54.5815 9.92929 26.4908
239 2 34.2851 44.1147 18.266
240 2 21.3594 20.6582 8.65881
241 2 42.4344 7.52804 9.98417
242 2 43.2752 17.2264 33.4814
243 2 36.4616 24.9145 19.6482
244 2 37.6181 49.9253 28.5603
245 2 8.47732 44.0389 46.6897
246 2 31.3695 39.5938 53.2328
247 2 16.9981 32.8263 38.7126
248 2 18.9649 47.293 10.4967
249 2 11.6148 53.0096 42.005
250 2 18.306 26.6961 19.3757
251 2 38.6341 35.8863 32.0339
252 2 20.9529 29.6605 6.17477
253 2 29.4904 6.6546 25.3588
254 2 28.3395 36.1408 55.4627
255 2 45.2257 54.838 34.5355
256 2 28.4482 41.5128 22.62
257 2 32.4286 27.0942 6.71506
258 2 34.0863 48.7035 54.4797
259 2 19.6514 46.4697 34.0599
260 2 50.6524 9.22369 18.1563
261 2 22.8825 53.9897 40.2724
262 2 13.8091 24.5601 20.5623
263 2 36.0017 55.2358 22.0824
264 2 20.7102 29.9975 30.771
265 2 46.3149 51.353 25.1167
266 2 23.5129 27.1893 9.74868
267 2 20.5088 14.8065 17.5385
268 2 23.4452 52.1679 21.0384
269 2 39.9249 27.6803 34.3416
270 2 51.4024 20.0902 13.5341
271 2 29.5157 21.0707 13.9419
272 2 23.2967 36.7894 47.8588
273 2 39.4886 7.3098 13.6385
274 2 51.6758 6.99151 42.2903
275 2 16.3197 23.708 12.7261
276 2 28.6438 44.8815 49.8941
277 2 12.2389 52.0426 45.0511
278 2 29.7851 44.0024 33.4251
279 2 16.7196 12.1406 18.2273
280 2 49.021 36.4753 41.1593
281 2 46.5479 35.8371 39.0532
282 2 46.4272 37.7817 49.2197
283 2 49.1778 43.0073 28.1071
284 2 30.7543 20.5888 6.62733
285 2 12.7957 14.6599 50.9866
286 2 39.2004 33.812 40.3235
287 2 21.4725 40.7007 25.5556
288 2 20.5545 43.5618 29.8637
289 2 40.458 29.2093 15.0851
290 2 21.7182 41.0418 22.2627
291 2 34.0655 21.1037 45.5238
292 2 24.124 18.403 30.3921
293 2 40.9669 29.2508 40.0722
294 2 27.9867 45.1793 40.627
295 2 50.2699 38.2879 17.9954
296 2 36.3217 20.4077 37.2335
297 2 49.211 16.2496 37.9014
298 2 21.3886 32.4128 39.8535
299 2 50.9472 12.2567 50.2235
300 2 8.42265 23.1574 15.3832
301 2 54.5622 13.4246 22.3443
302 2 15.2119 19.3784 11.4844
303 2 41.9384 30.8656 11.2291
304 2 49.6724 32.6513 53.8074
305 2 46.8817 20.0916 43.7205
306 2 15.0904 50.7253 13.3032
307 2 43.9919 32.5731 55.1985
308 2 37.793 14.0323 54.7351
309 2 6.70745 18.5586 51.8749
310 2 26.9914 28.7268 24.7546
311 2 32.0988 40.1112 41.8194
312 2 11.5817 28.2251 46.5778
313 2 44.1291 10.119 39.1971
314 2 12.0308 21.224 24.9738
315 2 21.6879 55.1106 43.4052
316 2 18.8305 17.2987 41.1852
317 2 12.0178 28.715 39.887
318 2 34.6848 21.7671 50.4632
319 2 25.9012 7.50769 55.4277
320 2 21.0641 41.0972 53.5247
321 2 15.3233 27.1894 28.2403
322 2 30.9033 43.2415 19.5181
323 2 15.9652 36.9769 28.2457
324 2 13.6556 16.8377 45.6692
325 2 44.4164 9.08315 54.9299
326 2 38.7515 12.8323 47.6224
327 2 53.7079 18.079 9.92283
328 2 37.964 8.17984 43.4406
329 2 11.5128 24.4318 50.3582
330 2 54.5514 10.9296 42.2833
331 2 19.5658 30.7713 43.5252
332 2 14.1606 27.6453 35.4562
333 2 36.1162 50.547 8.71782
334 2 35.4061 34.0281 10.1996
335 2 15.1296 23.2116 6.25508
336 2 47.1451 17.6767 53.8854
337 2 41.7783 44.2792 19.2233
338 2 25.8061 36.305 25.9367
339 2 54.0005 35.1824 42.9479
340 2 26.4309 51.1151 54.5064
341 2 31.6473 25.6754 20.2183
342 2 12.7581 17.2584 7.84333
343 2 13.8824 39.2358 36.0362
344 2 26.3922 19.5852 7.83414
345 2 33.5589 25.8583 31.9163
346 2 24.5908 23.3514 21.476
347 2 27.8124 45.238 19.1748
348 2 12.1324 54.2796 19.4133
349 2 44.2444 13.1181 24.4437
350 2 54.8366 28.1147 18.8295
351 2 20.4355 12.7693 24.821
352 2 46.8701 18.6062 9.22205
353 2 47.0259 48.3566 31.1213
354 2 14.1534 31.0523 23.9206
355 2 39.305 51.5913 47.9908
356 2 11.2954 48.2323 21.4974
357 2 45.8675 8.00669 17.4998
358 2 19.8472 40.8752 19.691
359 2 33.0122 39.711 12.5928
360 2 34.5353 51.6267 31.5728
361 2 11.9065 21.7847 15.0551
362 2 39.9491 18.985 26.6808
363 2 10.8879 28.3626 42.4901
364 2 38.9673 51.4741 43.2433
365 2 39.5442 27.6613 55.7968
366 2 33.642 11.3637 11.7399
367 2 17.6445 50.2165 29.969
368 2 38.3038 47.0384 7.12139
369 2 42.1326 50.0744 8.35588
370 2 26.4034 31.4134 36.7847
371 2 29.494 46.6331 33.9465
372 2 28.3436 15.6089 43.4367
373 2 39.6423 54.4717 52.9177
374 2 7.18503 49.6379 12.0821
375 2 47.9453 35.2067 29.3201
376 2 48.0657 23.5037 46.1138
377 2 31.376 14.6649 31.2982
378 2 40.9904 54.253 13.6562
379 2 37.9921 39.1873 8.04416
380 2 23.8411 54.8702 50.6196
381 2 31.0285 13.2791 39.4941
382 2 35.3505 40.2823 23.9831
383 2 26.4571 24.2156 42.449
384 2 34.8714 48.2592 10.702
385 2 28.5722 40.5783 30.8474
386 2 10.9897 50.6353 15.0268
387 2 14.6601 47.4397 16.1715
388 2 29.5778 28.5628 41.8401
389 2 35.5226 42.6469 36.4643
390 2 32.1312 51.7494 21.2084
391 2 32.7534 47.1116 41.179
392 2 21.8419 44.7892 15.9443
393 2 6.76212 13.1234 42.9773
394 2 40.1894 48.2594 31.7392
395 2 49.4312 19.4928 43.087
396 2 7.14966 24.4782 34.4447
397 2 30.1527 22.6925 42.4542
398 2 47.9067 47.6506 15.5452
399 2 52.789 42.1774 10.936
400 2 35.0885 6.93582 42.2947
401 2 30.4159 31.3489 24.4596
402 2 16.4601 21.2822 15.5459
403 2 28.0497 44.0695 45.1947
404 2 42.6682 17.4991 39.2039
405 2 38.5329 13.3303 30.6019
406 2 47.1504 45.9184 33.109
407 2 51.1071 53.5546 50.2026
408 2 55.5493 17.9859 40.8251
409 2 17.1897 50.3745 40.0111
410 2 21.6308 27.6174 14.8065
411 2 38.4231 10.9529 55.1629
412 2 46.2228 36.4732 43.6846
413 2 26.1584 50.5889 49.7474
414 2 14.9908 40.6191 12.4611
415 2 23.5077 29.6906 13.3995
416 2 14.8056 30.1321 29.9716
417 2 33.135 24.673 22.69
418 2 34.3803 9.81034 33.7457
419 2 55.3028 32.5502 8.42093
420 2 36.0833 18.6268 26.6305
421 2 43.5175 51.2771 16.9313
422 2 55.706 49.8999 52.852
423 2 11.5945 23.9087 47.344
424 2 15.0384 52.5367 49.7892
425 2 29.5487 38.78 38.4468
426 2 40.8827 21.5869 27.8671
427 2 47.5038 17.906 18.8437
428 2 30.4938 18.7467 18.157
429 2 40.7245 17.1108 45.3996
430 2 13.9637 42.1056 17.0766
431 2 42.2556 7.72785 40.7295
432 2 40.2201 35.4477 19.2927
433 2 40.0826 13.5116 28.1945
434 2 28.0925 33.7767 32.9196
435 2 45.6258 30.3706 55.0951
436 2 25.2294 6.51156 23.2144
437 2 39.2603 8.29519 54.7929
438 2 7.7988 45.4531 14.9127
439 2 36.9151 35.8558 29.3001
440 2 24.5441 26.6164 28.8439
441 2 52.1686 30.2966 41.5007
442 2 9.42057 16.709 43.1061
443 2 20.2652 25.4062 6.90239
444 2 48.4801 38.5478 25.7435
445 2 16.1259 55.2788 16.5289
446 2 23.7136 6.82685 33.7312
447 2 44.066 23.8809 49.401
448 2 34.3885 11.7256 45.505
449 2 46.8072 27.7687 17.9545
450 2 40.6585 48.6338 55.4679
451 2 22.946 44.4668 18.7416
452 2 11.7993 33.6907 10.1363
453 2 37.5732 25.9368 54.3246
454 2 6.91967 13.5043 26.5863
455 2 14.6048 6.3744 28.0418
456 2 42.1895 29.9758 33.9416
457 2 39.2028 55.6046 42.0895
458 2 9.63725 28.1802 26.2773
459 2 18.3205 13.6341 33.6412
460 2 23.7773 25.99 16.1101
461 2 47.679 29.1235 38.4348
462 2 38.8673 42.9887 48.5943
463 2 18.2654 25.5575 25.1697
464 2 47.4148 28.8226 30.2302
465 2 20.968 55.4296 14.9713
466 2 50.0252 48.1542 38.4625
467 2 35.207 23.7454 46.3705
468 2 7.05381 10.6562 25.032
469 2 18.444 10.4277 24.6421
470 2 11.2228 6.48978 37.5157
471 2 6.30056 10.5241 34.6057
472 2 54.2422 29.51 38.9881
473 2 16.1103 21.229 9.08238
474 2 33.8004 30.6143 47.4031
475 2 55.12 35.807 24.7617
476 2 31.3817 31.0696 45.8999
477 2 51.0578 41.7478 45.1187
478 2 40.0158 40.692 48.1534
479 2 53.8639 12.4272 51.7823
480 2 38.3204 20.8073 8.98647
481 2 37.0201 37.1986 9.89382
482 2 46.8442 26.4605 46.0133
483 2 23.7017 30.6968 44.1721
484 2 13.3309 22.066 32.4994
485 2 34.2679 17.3095 34.3476
486 2 12.4227 44.3061 26.5759
487 2 47.0665 10.5116 21.6193
488 2 25.1826 17.7484 50.3934
489 2 21.1364 39.0923 29.9612
490 2 53.3219 46.7581 39.8384
491 2 52.0946 37.7242 32.4465
492 2 52.2382 26.8218 14.8646
493 2 8.97938 32.681 19.2392
494 2 17.8706 14.4394 29.8506
495 2 29.4364 12.3809 16.9892
496 2 13.3775 14.7348 48.2484
497 2 20.8787 29.5199 27.5412
498 2 35.1773 6.83965 36.6591
499 2 19.8868 53.4658 17.8186
500 2 24.5609 21.6899 9.8928
501 2 32.6705 33.4633 46.8446
502 2 49.7319 46.3 6.13545
503 2 39.4917 9.51767 21.6657
504 2 42.8401 28.2556 38.3395
505 2 39.2936 30.9541 32.9263
506 2 33.1406 18.823 13.3373
507 2 37.9569 19.3616 45.1464
508 2 18.2611 44.1994 23.5525
509 2 31.4975 49.286 22.4293
510 2 9.92535 22.691 19.2176
511 2 45.0347 47.7562 53.735
512 2 15.6289 14.4757 39.676
513 2 49.8199 17.4928 22.4961
514 2 16.9777 28.2773 30.9219
515 2 52.5477 39.8135 52.449
516 2 9.2195 30.4486 49.657
517 2 47.905 33.5237 44.2556
518 2 46.6049 41.5465 44.6451
519 2 51.4901 9.04611 54.4407
520 2 11.2691 29.0088 10.7876
521 2 28.7951 48.0635 19.7929
522 2 46.7296 6.46281 11.185
523 2 42.3644 8.47706 36.6042
524 2 7.87953 13.0679 33.1626
525 2 13.8586 9.93332 39.6677
526 2 48.0828 25.3754 19.3333
527 2 15.2938 36.8866 32.4791
528 2 31.8681 36.2676 44.0477
529 2 55.5635 43.594 53.3852
530 2 12.6474 48.4757 52.3264
531 2 33.1797 29.5912 32.0777
532 2 51.8032 22.2858 17.4128
533 2 42.0452 7.64089 25.2962
534 2 39.9249 45.7706 29.3261
535 2 25.2954 50.2916 36.5059
536 2 18.441 32.4024 9.45876
537 2 28.5382 14.3934 8.71939
538 2 39.5827 6.73763 9.16313
539 2 25.4176 10.8692 9.13209
540 2 8.71473 41.0609 15.2547
541 2 21.499 14.0324 51.4997
542 2 43.5489 44.2926 48.6519
543 2 53.2248 44.2806 32.4918
544 2 46.919 14.1229 21.3414
545 2 37.0485 54.152 6.54443
546 2 44.6543 35.1398 41.4648
547 2 33.0554 39.3035 44.3057
548 2 20.5878 33.9662 35.5346
549 2 19.7037 23.6426 33.1779
550 2 12.8215 12.1493 38.0366
551 2 27.2701 13.5599 25.7441
552 2 8.67596 12.8813 9.80298
553 2 35.6182 46.6297 37.1852
554 2 29.6985 44.2447 16.8795
555 2 52.7297 43.035 29.5298
556 2 43.2982 37.318 30.2373
557 2 30.3328 54.2513 31.8145
558 2 25.1213 10.0469 27.0893
559 2 55.631 42.8686 12.4424
560 2 42.5641 21.8934 17.4599
561 2 25.8625 51.0715 39.1854
562 2 30.4863 50.3826 30.9306
563 2 45.6352 30.7347 8.6777
564 2 47.571 7.68015 21.195
565 2 18.626 35.1588 26.2996
566 2 14.1212 22.7479 17.1403
567 2 35.4373 31.5043 36.4675
568 2 54.9291 38.1085 37.1241
569 2 16.4853 12.9293 13.6724
570 2 9.31336 9.07407 32.171
571 2 23.4818 49.6777 24.7495
572 2 19.8014 36.5287 19.6179
573 2 53.543 49.9819 12.7103
574 2 50.3885 37.5471 11.5484
575 2 45.8796 54.2259 18.8455
576 2 45.3457 38.6771 32.3009
577 2 47.3298 49.1649 47.3258
578 2 34.9218 45.0947 54.6494
579 2 39.7127 18.0908 12.2622
580 2 35.2881 41.9309 32.784
581 2 35.9449 54.2646 25.5621
582 2 9.03335 36.2052 18.4039
583 2 30.1894 49.4414 7.66034
584 2 16.0679 15.4164 36.5513
585 2 10.9599 49.3607 24.6244
586 2 31.5747 24.9384 8.09413
587 2 17.5953 33.2684 16.4734
588 2 48.6228 35.6377 26.2712
589 2 53.0985 27.322 21.9291
590 2 6.78726 19.6765 33.0767
591 2 11.6598 41.0577 40.2876
592 2 21.2169 13.9624 40.6753
593 2 38.5752 33.0028 12.8155
594 2 49.9056 54.7984 16.2276
595 2 13.4602 54.8188 36.7866
596 2 7.40243 18.4025 48.5781
597 2 54.0421 40.4857 12.7489
598 2 51.3829 12.9916 32.0399
599 2 54.3055 7.50778 12.4833
600 2 31.9994 43.1088 25.2286
601 2 7.64198 32.2629 51.8124
602 2 11.4685 8.93079 21.6443
603 2 46.8771 46.9059 49.4708
604 2 13.1011 53.3838 22.431
605 2 25.2224 28.2284 45.3058
606 2 38.9833 28.2406 43.7588
607 2 53.9918 32.564 54.1645
608 2 23.0281 18.1289 14.9548
609 2 11.4835 8.52755 51.1012
610 2 44.3827 52.1473 48.5962
611 2 16.9864 23.2109 34.7923
612 2 36.9144 48.5943 13.3415
613 2 33.8197 35.9083 7.24737
614 2 16.1765 9.92384 26.192
615 2 34.7582 24.5775 53.9509
616 2 26.6558 11.6409 16.5854
617 2 33.95 17.0448 24.1025
618 2 29.0673 11.6774 22.1132
619 2 45.1526 15.5529 47.6778
620 2 51.1685 43.9303 12.6024
621 2 44.2012 54.1052 52.1025
622 2 11.3713 24.9207 55.6602
623 2 43.7954 23.5237 12.7934
624 2 48.3322 54.1472 49.9305
625 2 19.5761 33.7121 48.2441
626 2 41.0358 37.4845 49.8894
627 2 21.7968 55.6203 36.4756
628 2 24.4076 9.65812 15.5155
629 2 34.5046 6.73007 26.396
630 2 37.1334 37.3107 43.6139
631 2 18.8528 20.8555 52.2588
632 2 45.3784 26.4554 41.8685
633 2 26.1138 6.89367 47.1256
634 2 16.9082 40.1482 35.138
635 2 44.9519 6.2866 22.7646
636 2 16.4224 37.2723 19.3738
637 2 51.4587 53.9621 31.471
638 2 54.649 37.7901 41.3834
639 2 32.8782 37.7467 39.2897
640 2 50.3044 14.8615 30.4643
641 2 41.9626 28.7412 24.7314
642 2 51.998 36.5937 15.542
643 2 10.1854 15.5112 40.4298
644 2 49.8253 12.302 34.2796
645 2 54.1692 47.2648 31.2771
646 2 40.6883 22.5752 10.1364
647 2 37.2416 27.9827 27.1661
648 2 41.3974 48.2713 22.7418
649 2 27.7621 17.9509 9.87003
650 2 13.4027 47.64 40.6081
651 2 27.8126 7.07305 7.80453
652 2 29.1209 6.50688 20.2717
653 2 12.2257 40.362 27.4086
654 2 18.1965 11.2003 54.1288
655 2 25.1849 51.5956 25.7856
656 2 11.9548 48.9759 44.436
657 2 10.7369 51.2486 53.0894
658 2 16.6858 37.4244 50.1057
659 2 48.6249 48.75 25.9057
660 2 27.3389 41.2764 41.9498
661 2 6.74748 31.8983 43.0595
662 2 36.6344 51.0267 35.5911
663 2 24.0101 43.5383 42.6495
664 2 48.4607 9.4272 40.5005
665 2 29.5602 24.9279 46.159
666 2 34.201 14.0641 18.3649
667 2 53.2189 7.30639 39.6524
668 2 21.8189 47.471 28.0924
669 2 12.4056 33.9608 54.7581
670 2 8.82135 8.92975 52.7929
671 2 36.1223 52.7822 27.8003
672 2 30.2312 25.6294 38.4587
673 2 41.5991 34.0783 38.7759
674 2 22.8293 11.6134 28.8553
675 2 54.887 23.6014 11.8155
676 2 51.8264 31.1868 11.3263
677 2 7.46623 11.1734 46.0985
678 2 15.6165 32.9422 51.7323
679 2 26.7119 33.1842 46.2384
680 2 40.9197 39.2292 14.3285
681 2 24.8084 32.0916 29.9203
682 2 11.2919 8.83912 8.36185
683 2 40.1636 55.1323 28.4549
684 2 34.5618 29.3706 12.2179
685 2 45.5122 42.3757 25.452
686 2 18.6686 53.2758 43.3543
687 2 7.35335 48.1285 48.3177
688 2 31.5231 35.6467 21.3968
689 2 13.6868 9.53769 15.4436
690 2 7.05349 24.5039 6.28149
691 2 41.4103 13.8108 9.77189
692 2 41.6904 55.1609 35.9678
693 2 15.8232 37.2561 45.4236
694 2 21.7125 32.9807 30.0095
695 2 38.9466 43.2211 14.7774
696 2 52.062 11.8124 38.1256
697 2 17.0117 41.7647 47.0036
698 2 12.6298 16.3071 24.8241
699 2 13.4722 19.7005 21.8768
700 2 16.5301 53.1628 6.70383
701 2 23.2813 12.596 25.873
702 2 33.3424 33.7226 12.3124
703 2 15.0733 17.6845 39.1941
704 2 43.3094 37.7665 23.0797
705 2 19.773 6.1521 20.1551
706 2 39.9001 10.7721 26.7512
707 2 28.7217 37.1614 42.5354
708 2 31.7957 50.9814 43.2464
709 2 41.8696 24.6676 16.526
710 2 18.1762 47.5637 23.8268
711 2 34.4456 6.72061 46.7581
712 2 42.508 38.7218 16.943
713 2 49.3594 55.825 29.0217
714 2 29.763 38.3 35.4012
715 2 23.5371 39.5773 41.3767
716 2 49.3311 11.8977 17.645
717 2 38.429 32.5829 50.2594
718 2 27.2429 49.9748 11.9806
719 2 36.1405 16.1113 14.1595
720 2 53.8638 47.6725 53.6267
721 2 20.316 17.2259 47.8539
722 2 26.794 17.3537 32.3887
723 2 29.547 53.2676 25.2661
724 2 49.1537 28.2383 46.1092
725 2 26.3356 6.13415 37.9262
726 2 15.7151 11.1769 8.10391
727 2 34.6205 14.2848 48.6038
728 2 11.8665 27.1832 20.5339
729 2 7.72565 55.216 41.2226
730 2 16.9206 40.6686 17.852
731 2 45.1586 45.7408 46.8035
732 2 54.3927 9.18462 21.8015
733 2 48.6033 13.9649 45.3293
734 2 50.565 46.0713 46.7455
735 2 27.7318 31.8251 18.8652
736 2 24.3113 25.4204 12.4236
737 2 38.6653 51.4079 10.002
738 2 23.7279 15.3601 31.005
739 2 54.4389 53.7271 15.0672
740 2 42.1606 11.4601 28.8842
741 2 38.6311 27.3904 18.9513
742 2 24.0166 41.3695 53.2815
743 2 43.0143 24.8482 55.0788
744 2 42.2246 54.1251 49.8502
745 2 17.2939 18.7459 34.6193
746 2 30.8718 33.4971 36.813
747 2 13.6171 27.2412 6.66299
748 2 26.4739 41.5802 8.04239
749 2 24.072 38.2078 55.2478
750 2 47.232 51.5516 51.4649
751 2 29.1038 12.578 53.1577
752 2 28.0121 14.3367 39.0574
753 2 14.2446 17.3727 20.7451
754 2 53.4076 13.4088 42.9763
755 2 29.8301 25.4468 41.4346
756 2 16.9567 10.4474 32.1903
757 2 26.7906 13.0261 50.7347
758 2 42.1138 37.9152 54.5756
759 2 20.8613 51.8192 21.9098
760 2 51.8672 32.8294 51.3175
761 2 46.9597 52.7184 13.156
762 2 37.2485 7.14674 38.4762
763 2 32.2022 26.8549 42.8304
764 2 24.3129 29.511 19.0141
765 2 21.3114 48.1465 24.0725
766 2 32.2111 42.6526 33.0255
767 2 8.84842 55.0574 25.3943
768 2 41.1113 50.7541 41.3086
769 2 10.7318 12.5416 29.0099
770 2 28.884 35.9842 14.229
771 2 27.3572 41.3256 38.756
772 2 6.45423 13.7007 38.148
773 2 35.3546 26.7141 8.18866
774 2 31.3761 39.4365 6.75792
775 2 19.8999 36.6528 7.16903
776 2 36.2243 18.7936 49.3892
777 2 41.4373 29.4574 21.4548
778 2 25.4906 38.7497 14.331
779 2 20.2247 30.81 47.5163
780 2 14.5324 8.04871 51.8643
781 2 19.9139 50.8433 41.5087
782 2 43.3009 54.8875 38.5837
783 2 16.1864 48.3549 9.20832
784 2 23.9369 55.7424 30.6521
785 2 22.59 23.8597 18.3399
786 2 42.3871 10.1774 48.4034
787 2 25.1805 28.4734 22.4315
788 2 32.4519 37.1372 28.7761
789 2 47.4452 38.4234 8.69967
790 2 13.4492 17.3922 49.9757
791 2 16.2359 30.1424 38.7664
792 2 17.573 25.7226 50.1956
793 2 18.7094 29.798 10.2204
794 2 9.76914 24.7 23.6587
795 2 23.6058 28.3087 55.3135
796 2 19.3554 12.1124 36.6406
797 2 17.515 7.76099 41.1929
798 2 34.2016 26.7223 18.2078
799 2 9.60662 21.7564 50.2494
800 2 50.4883 17.4735 40.4259
801 2 23.8506 15.3893 47.7063
802 2 11.9903 15.9643 42.8658
803 2 55.6641 52.5025 28.8272
804 2 29.5019 37.9706 17.8697
805 2 35.0824 13.6799 37.8723
806 2 46.9726 23.4974 41.1283
807 2 19.3973 20.5527 38.2826
808 2 23.8664 11.4966 41.2952
809 2 51.5814 35.8796 50.7452
810 2 51.0497 49.2997 50.1674
811 2 53.439 41.0821 19.1446
812 2 27.5419 36.5919 37.4129
813 2 49.1545 55.2512 37.228
814 2 49.1603 45.6306 30.1927
815 2 49.1596 33.1017 27.8447
816 2 12.9655 23.7544 12.5214
817 2 44.1379 55.1535 9.24452
818 2 32.6327 48.0294 24.6229
819 2 27.6534 50.587 32.2727
820 2 46.8024 24.4349 29.0487
821 2 13.3986 45.5355 22.5039
822 2 35.8002 11.0277 9.6529
823 2 52.1865 30.8136 34.3552
824 2 15.4955 43.6805 32.679
825 2 26.2619 46.1391 55.8323
826 2 24.998 19.5085 34.1167
827 2 44.7373 30.5373 39.3025
828 2 10.4094 50.7537 11.9691
829 2 33.5314 44.4216 29.4444
830 2 37.4796 23.7608 21.7679
831 2 30.925 50.9448 40.1215
832 2 11.1065 36.2383 7.61872
833 2 50.9274 20.8176 46.1921
834 2 27.2575 23.2518 9.95459
835 2 33.4629 29.7164 23.3819
836 2 9.78476 52.0996 47.0865
837 2 24.5257 44.3719 51.5562
838 2 39.8219 50.7125 24.3728
839 2 42.6167 33.0538 52.5315
840 2 21.586 32.8869 45.3035
841 2 6.9526 17.2408 9.47436
842 2 34.3522 18.6016 8.10459
843 2 33.041 9.513 16.1446
844 2 30.2229 46.9895 37.917
845 2 46.4518 26.4176 6.31714
846 2 53.1693 44.0361 19.5321
847 2 27.944 34.3064 35.7922
848 2 52.939 35.3564 10.8086
849 2 46.6725 20.4494 20.5676
850 2 40.0697 19.0869 39.8054
851 2 20.6984 14.3426 37.4834
852 2 44.7212 47.6269 19.9926
853 2 22.6109 34.3467 6.96014
854 2 41.2726 29.146 47.3057
855 2 13.1316 30.8599 42.0458
856 2 40.6635 16.8516 53.4166
857 2 42.0026 10.0683 20.1143
858 2 55.5574 28.8616 10.535
859 2 41.7312 24.8248 52.7013
860 2 9.99187 26.1683 52.6845
861 2 24.8087 39.0748 28.0446
862 2 43.932 50.3998 36.8121
863 2 45.5129 52.072 43.8839
864 2 7.80885 27.2538 16.9928
865 2 45.7028 20.2194 23.3902
866 2 42.7098 44.3261 6.31625
867 2 40.7002 20.5335 31.289
868 2 15.7851 26.0133 32.8436
869 2 13.7861 19.0448 36.3469
870 2 47.6492 6.4276 15.2172
871 2 37.4125 46.0017 52.9051
872 2 24.874 22.9985 44.3818
873 2 50.4756 9.81728 7.27651
874 2 31.7462 13.682 52.1128
875 2 13.8669 26.1262 24.2485
876 2 25.1585 16.6335 7.26755
877 2 8.74782 34.8982 35.7632
878 2 8.97211 48.6814 14.2778
879 2 50.7533 40.5141 49.8268
880 2 49.2064 17.0195 47.3285
881 2 40.7288 24.091 12.9997
882 2 6.53947 23.3638 17.8969
883 2 38.1771 37.9532 18.7111
884 2 10.6933 35.8358 12.0151
885 2 52.2809 36.9246 53.3848
886 2 48.0562 52.8826 53.9161
887 2 27.8129 38.2763 28.0656
888 2 22.8793 14.5318 21.7948
889 2 21.5136 20.3941 30.1583
890 2 25.9163 42.8381 40.4359
891 2 28.6156 46.483 47.8474
892 2 27.6078 31.6594 54.4652
893 2 25.2461 24.3977 8.41903
894 2 29.3645 16.9902 35.8182
895 2 18.7761 27.9781 48.1004
896 2 15.6397 22.1291 41.8704
897 2 7.02271 19.9785 26.1921
898 2 44.1846 29.8854 18.155
899 2 34.4845 29.3579 54.6121
900 2 28.0168 39.3982 54.1624
901 2 34.7486 35.6005 47.8462
902 2 38.4539 48.4565 51.7019
903 2 25.384 36.7508 18.9792
904 2 7.51157 19.2643 39.0155
905 2 33.3576 16.9051 39.2101
906 2 48.8788 48.6843 12.691
907 2 53.7155 33.4558 47.2984
908 2 22.0878 7.41028 19.7829
909 2 34.941 6.60613 29.6714
910 2 13.4235 50.8554 7.26685
911 2 11.8248 15.7831 19.8837
912 2 36.0187 45.6478 41.4603
913 2 7.77502 17.6477 45.6976
914 2 14.4191 21.103 28.6423
915 2 44.9824 35.5485 19.2713
916 2 46.5836 11.7475 6.11339
917 2 17.4155 53.3428 29.5784
918 2 41.1642 50.0006 13.4336
919 2 49.9643 20.8768 7.89325
920 2 28.6536 47.9869 51.0525
921 2 7.39082 29.9067 45.2414
922 2 39.8205 43.3897 55.4109
923 2 24.948 44.1905 33.9062
924 2 23.7315 52.9937 14.7925
925 2 35.7632 13.316 13.131
926 2 23.0933 36.3234 27.2847
927 2 9.00336 39.3521 46.2925
928 2 10.7656 31.3593 43.1545
929 2 7.46685 52.2478 35.1726
930 2 8.19633 40.8155 29.6238
931 2 55.7371 32.398 39.7533
932 2 48.2155 43.8057 19.082
933 2 18.8691 22.7913 8.44514
934 2 54.3185 50.093 55.7525
935 2 7.45532 10.948 50.3862
936 2 41.867 25.8447 48.0818
937 2 7.22445 47.2401 18.6207
938 2 44.1594 50.2134 21.2926
939 2 36.966 42.5871 38.857
940 2 52.0856 54.6146 6.52376
941 2 52.9147 43.3734 55.2543
942 2 34.8601 24.9802 24.9191
943 2 55.5655 15.3113 14.0333
944 2 31.1784 52.8771 54.6315
945 2 11.3888 11.795 26.2936
946 2 17.0594 7.13757 44.3026
947 2 13.2639 33.9692 44.8249
948 2 8.27331 27.6837 46.5606
949 2 51.316 48.616 45.2758
950 2 29.166 17.591 47.9686
951 2 8.90989 27.3881 31.2709
952 2 15.8069 12.2685 37.8942
953 2 40.4376 27.1614 27.4258
954 2 53.5523 22.1194 36.1232
955 2 38.6157 37.0603 51.5212
956 2 26.4564 47.8004 39.6936
957 2 12.2103 28.6235 50.0973
958 2 14.5109 26.1297 47.066
959 2 55.0395 24.1592 20.6195
960 2 14.4411 18.77 55.3673
961 2 28.0426 13.9828 46.4257
962 2 15.6562 14.7473 55.2703
963 2 54.3932 30.2953 12.6618
964 2 11.3602 24.4265 44.5433
965 2 10.4918 10.7144 45.8546
966 2 41.3201 8.226 46.6502
967 2 16.2809 54.7238 46.9652
968 2 18.2103 14.3138 41.0937
969 2 50.1834 13.8433 24.6244
970 2 14.8565 50.632 22.6337
971 2 33.4792 54.4934 40.3782
972 2 19.5093 10.9634 15.1124
973 2 29.8639 9.62127 13.6256
974 2 11.2789 45.1834 29.6417
975 2 44.0159 20.0809 40.5872
976 2 51.2993 51.5819 46.3091
977 2 50.7526 52.2794 23.4445
978 2 7.19126 14.5825 11.5634
979 2 52.0408 16.3831 32.7448
980 2 53.1094 40.0671 31.4744
981 2 24.6645 8.76225 10.545
982 2 46.7215 6.1148 30.2124
983 2 32.0435 36.496 35.7144
984 2 48.2033 45.7362 44.7096
985 2 7.17329 55.5466 7.92349
986 2 19.8055 46.5392 38.2913
987 2 43.3058 47.1588 49.3223
988 2 44.3272 39.7867 8.3863
989 2 14.4039 39.7746 41.1775
990 2 51.3562 11.3878 10.9507
991 2 22.9843 45.9897 30.2281
992 2 15.972 35.1667 8.1494
993 2 24.3294 52.9214 52.9211
994 2 22.2101 45.4752 52.5043
995 2 39.5144 8.498 37.5741
996 2 37.6834 53.0191 20.7065
997 2 10.2166 42.864 28.2172
998 2 16.2424 52.9971 36.7187
999 2 14.5683 37.6715 8.94718
1000 2 27.7645 40.3187 33.8826
1001 2 27.4103 26.2656 45.162
1002 2 20.0085 23.1832 23.8025
1003 2 9.84434 17.3731 8.07894
1004 2 41.297 31.983 36.5366