ITEM: TIMESTEP
0
ITEM: NUMBER OF ATOMS
9088
ITEM: BOX BOUNDS xy xz yz pp pp pp
6.0651592314333556e+00 5.5865778560683331e+01 -5.7136981228143884e-15
6.0651592314333609e+00 5.5865778560683331e+01 0.0000000000000000e+00
6.0651592314333609e+00 5.5865778560683331e+01 0.0000000000000000e+00
ITEM: ATOMS id type x y z 
1 2 38.4206 41.3406 48.4811 
2 2 10.0442 31.3303 18.9934 
3 2 47.6981 52.0667 6.15426 
4 2 21.0791 35.9952 13.6405 
5 2 18.1072 26.1638 14.6124 
6 2 40.0603 20.4465 37.6566 
7 2 21.134 30.6644 55.2213 
8 2 31.7645 51.5946 51.044 
9 2 13.3499 14.4337 13.5796 
10 2 6.69649 10.628 15.5115 
11 2 34.1856 51.4642 10.915 
12 2 10.5503 16.4233 31.5539 
13 2 18.1266 39.8449 35.271 
14 2 53.8128 22.075 15.7785 
15 2 48.166 50.9864 30.8234 
16 2 42.5583 8.82589 37.9298 
17 2 21.459 28.859 41.85 
18 2 38.7374 16.0146 15.7815 
19 2 21.7788 24.067 10.304 
20 2 23.2774 25.1229 50.8245 
21 2 28.1214 11.1201 28.6818 
22 2 33.4923 15.2497 47.6035 
23 2 29.432 28.6749 40.9076 
24 2 12.1252 32.9161 53.6941 
25 2 46.3068 36.2997 32.5672 
26 2 47.5115 49.8982 39.5578 
27 2 37.0845 43.4585 25.7386 
28 2 52.3229 36.7792 12.7716 
29 2 24.7571 8.7943 42.0509 
30 2 19.0421 52.6155 31.2966 
31 2 43.7024 40.3794 20.2596 
32 2 14.2295 35.7733 7.36612 
33 2 13.9122 52.9261 47.229 
34 2 42.321 27.5191 44.4147 
35 2 36.0517 29.1355 22.9964 
36 2 44.4053 45.488 14.7715 
37 2 42.0236 40.6782 52.4218 
38 2 27.6776 48.1206 30.6206 
39 2 36.0296 53.54 11.1295 
40 2 31.148 31.3165 29.1741 
41 2 54.9558 41.8819 47.4917 
42 2 25.2114 46.7603 49.906 
43 2 22.3708 37.8276 52.8259 
44 2 33.2794 24.992 31.1153 
45 2 28.4032 16.2869 20.2177 
46 2 49.0661 53.5841 14.3098 
47 2 20.0346 43.805 43.6866 
48 2 35.0426 16.5505 34.0839 
49 2 33.031 35.108 11.1021 
50 2 54.6286 12.8531 28.9052 
51 2 29.3541 23.1508 13.7569 
52 2 29.4988 21.8436 23.7412 
53 2 21.4369 28.5051 17.5538 
54 2 48.3198 46.501 30.8253 
55 2 19.6986 15.0234 11.4323 
56 2 52.4407 35.5524 19.1945 
57 2 55.2205 22.9422 53.6629 
58 2 6.5574 28.7151 11.625 
59 2 20.3916 40.5189 7.28241 
60 2 55.8474 20.5002 23.855 
61 2 36.6911 23.9317 38.4566 
62 2 28.899 30.996 49.0215 
63 2 7.17417 32.3034 19.2133 
64 2 22.8879 28.6944 9.1068 
65 2 45.986 21.281 6.58963 
66 2 45.8956 54.3525 34.219 
67 2 13.9865 40.1773 25.6371 
68 2 55.1313 12.1367 9.95487 
69 2 32.8679 34.8732 35.7006 
70 2 12.7376 31.53 13.7924 
71 2 22.3868 31.068 39.4922 
72 2 38.7724 30.2033 8.13311 
73 2 7.39693 31.0601 25.2102 
74 2 30.6835 40.0152 29.0858 
75 2 7.06446 55.2457 37.1306 
76 2 8.77023 33.772 25.4443 
77 2 33.8829 54.6414 34.8474 
78 2 46.8757 15.8796 11.1423 
79 2 53.1325 51.4446 35.83 
80 2 42.2373 45.6985 16.6861 
81 2 39.2821 33.8148 31.4245 
82 2 24.4521 50.6898 6.22312 
83 2 25.0281 28.6422 32.2374 
84 2 47.4102 28.9431 18.8047 
85 2 39.2869 33.9221 49.4439 
86 2 37.4552 31.0643 37.5443 
87 2 29.5574 28.9578 15.5109 
88 2 17.9695 12.3901 20.4777 
89 2 9.70581 40.7076 46.4398 
90 2 31.3716 13.9745 27.5717 
91 2 39.8492 52.1031 47.7556 
92 2 24.8693 6.70129 33.7869 
93 2 10.1401 45.1813 37.9741 
94 2 49.4969 37.5646 11.9728 
95 2 46.2061 53.5251 53.6339 
96 2 8.81196 40.1948 34.3742 
97 2 44.5825 30.8756 16.0155 
98 2 25.481 17.123 6.41235 
99 2 28.5168 53.7066 35.3238 
100 2 10.4381 13.3149 31.8076 
101 2 33.6333 22.7827 15.6657 
102 2 49.3354 45.4901 22.9402 
103 2 11.8428 19.334 8.06722 
104 2 25.1053 29.6551 49.1178 
105 2 16.5779 20.4357 27.4717 
106 2 55.7483 38.0034 34.45 
107 2 45.3039 47.9568 24.0763 
108 2 36.5515 42.5481 54.9592 
109 2 18.8346 6.89539 9.33547 
110 2 26.2078 23.3658 15.3319 
111 2 19.6515 12.5697 13.4496 
112 2 35.5291 19.849 16.3455 
113 2 45.036 40.9064 8.5851 
114 2 36.6744 48.9371 34.3258 
115 2 42.0719 46.9982 32.6869 
116 2 40.8024 50.9068 55.7261 
117 2 29.8696 18.4762 49.8121 
118 2 31.7415 34.4998 21.6104 
119 2 14.3549 54.7723 10.5985 
120 2 22.8429 31.3265 28.0603 
121 2 13.8144 15.0833 51.7701 
122 2 29.3359 49.0074 15.8135 
123 2 43.5032 54.306 30.6937 
124 2 29.7017 33.9943 15.0797 
125 2 12.5451 18.8857 20.2273 
126 2 38.8068 48.5064 6.96394 
127 2 16.7691 13.9445 48.5246 
128 2 52.0519 36.0666 42.0067 
129 2 32.3268 26.965 22.1496 
130 2 47.2665 23.0719 54.3183 
131 2 8.18659 11.7684 22.6547 
132 2 31.1603 51.5577 14.4837 
133 2 37.9651 33.5893 21.609 
134 2 26.0351 34.0697 50.7061 
135 2 31.8253 46.9782 53.2743 
136 2 9.62365 49.664 25.4621 
137 2 20.4885 41.701 34.0563 
138 2 47.3516 15.763 39.8846 
139 2 8.43952 13.2647 43.63 
140 2 16.6463 32.39 34.4007 
141 2 45.8191 29.5623 36.2487 
142 2 28.4699 53.3103 54.5915 
143 2 49.6519 16.9727 55.848 
144 2 18.3721 10.9188 42.3629 
145 2 41.5674 16.9584 30.8408 
146 2 26.2215 55.7821 55.4833 
147 2 34.558 40.3518 40.0853 
148 2 23.6796 20.6749 9.39708 
149 2 32.6397 14.6527 12.9575 
150 2 22.3183 35.0106 47.7233 
151 2 16.8888 39.0896 19.765 
152 2 19.6481 6.21709 36.724 
153 2 20.913 42.6443 16.4814 
154 2 39.7238 19.1029 47.5829 
155 2 37.3754 6.42772 27.1782 
156 2 34.677 43.5043 18.9869 
157 2 33.0197 51.8796 34.5338 
158 2 49.095 36.414 33.005 
159 2 23.5284 55.8202 42.3875 
160 2 29.2009 14.7988 17.2712 
161 2 31.256 32.8577 10.3312 
162 2 43.6759 14.3017 26.7321 
163 2 45.6969 14.7685 45.239 
164 2 34.9569 50.8632 48.0275 
165 2 32.4794 25.8675 42.9697 
166 2 28.1702 30.9911 13.4252 
167 2 25.973 44.2146 12.0955 
168 2 9.84717 55.7613 6.55723 
169 2 37.5075 33.8565 28.9173 
170 2 16.1242 31.9386 29.4065 
171 2 22.8898 53.5307 10.1335 
172 2 18.6248 25.4679 7.33044 
173 2 13.3559 22.2921 44.6113 
174 2 17.8835 13.6704 9.04742 
175 2 19.0137 33.1283 26.1118 
176 2 47.7234 19.617 51.4392 
177 2 50.7441 47.2055 10.9636 
178 2 35.3318 39.7424 44.596 
179 2 21.1335 43.5642 48.6384 
180 2 9.50679 47.1499 35.7607 
181 2 10.898 22.1837 47.0118 
182 2 41.4626 32.5315 30.8009 
183 2 48.7 40.7489 31.9196 
184 2 9.30024 29.0381 28.1152 
185 2 37.5236 22.5062 54.2182 
186 2 54.1887 14.8418 12.4734 
187 2 37.6694 41.0966 42.8138 
188 2 51.0804 39.2497 49.3178 
189 2 6.18054 43.8846 35.9839 
190 2 35.4866 27.9666 9.80134 
191 2 25.7401 50.2212 24.1109 
192 2 38.5024 8.70469 18.3677 
193 2 6.67222 33.5645 46.6188 
194 2 42.582 6.74339 32.8249 
195 2 55.2502 24.1798 37.2447 
196 2 32.8477 9.84819 29.6431 
197 2 21.2323 10.359 14.2081 
198 2 42.1824 21.3417 25.9342 
199 2 42.9061 31.7247 21.7077 
200 2 8.54893 42.0281 36.2556 
201 2 11.9217 37.4647 19.0917 
202 2 28.5383 24.2255 42.9051 
203 2 24.699 35.4167 29.1166 
204 2 38.9854 52.4204 29.3613 
205 2 23.566 12.502 50.9758 
206 2 46.3984 18.3682 20.1183 
207 2 10.3056 50.5062 49.0382 
208 2 19.9071 49.7274 28.8311 
209 2 7.21568 43.9854 7.29177 
210 2 16.8119 17.7595 21.7693 
211 2 48.5235 28.641 7.85907 
212 2 43.5286 46.6342 34.8959 
213 2 13.8776 53.1849 50.4865 
214 2 14.1687 19.2759 14.2096 
215 2 12.3157 36.6319 22.7663 
216 2 50.6091 33.0862 20.0513 
217 2 6.10181 15.5037 40.7652 
218 2 25.6945 30.0216 19.2642 
219 2 6.79181 27.957 25.7643 
220 2 24.1796 28.6148 27.9052 
221 2 24.0304 37.7363 27.7051 
222 2 47.9787 11.9526 18.4268 
223 2 32.6501 11.2571 15.2845 
224 2 16.9934 38.2741 54.5291 
225 2 23.6768 44.2318 46.7222 
226 2 46.2726 55.0183 17.7295 
227 2 52.0466 7.88855 24.0175 
228 2 32.0271 51.3195 46.0195 
229 2 32.5289 17.9411 37.009 
230 2 31.2146 26.6959 29.5954 
231 2 48.9767 31.6783 15.6617 
232 2 34.8786 39.8671 15.5331 
233 2 48.7443 48.5243 17.4083 
234 2 18.1 52.4667 38.4056 
235 2 53.6491 50.5621 43.2033 
236 2 37.0407 53.7057 18.0659 
237 2 24.4103 40.8787 36.196 
238 2 43.0992 50.2437 8.6278 
239 2 22.7921 33.831 50.5178 
240 2 9.95257 10.199 40.5533 
241 2 30.9146 47.4429 42.0426 
242 2 31.6775 6.61759 15.3345 
243 2 25.1898 14.6763 51.7152 
244 2 26.1912 39.5512 10.9561 
245 2 46.6665 33.3395 29.0423 
246 2 20.1299 29.0999 35.599 
247 2 55.4095 22.7961 20.5618 
248 2 7.32374 37.0254 42.7108 
249 2 49.9053 42.6927 24.3144 
250 2 6.92033 16.4623 51.5031 
251 2 27.9346 25.732 14.3676 
252 2 9.79665 19.0633 38.3062 
253 2 17.9814 45.8361 7.45137 
254 2 16.7962 26.007 37.5906 
255 2 33.6845 44.6755 16.4582 
256 2 16.6198 31.51 54.4619 
257 2 21.3207 16.3019 38.1556 
258 2 22.6593 38.4346 36.6758 
259 2 7.87591 35.5526 16.3111 
260 2 38.8706 48.3246 49.9766 
261 2 11.507 43.5951 22.6162 
262 2 51.8173 14.2164 52.5067 
263 2 24.4544 44.8058 53.9109 
264 2 9.52686 19.2807 12.5963 
265 2 34.6157 40.9303 7.22902 
266 2 12.2304 17.0323 42.0251 
267 2 8.97739 54.2463 49.4454 
268 2 12.0135 42.2285 52.9803 
269 2 28.3648 17.2722 16.9309 
270 2 39.5809 9.97306 45.6089 
271 2 18.3777 10.3969 45.7686 
272 2 11.9733 26.5257 30.2341 
273 2 28.2374 46.4988 45.5909 
274 2 40.4989 46.1009 24.7017 
275 2 54.6476 13.397 45.2118 
276 2 17.3439 34.165 32.336 
277 2 50.8695 41.8868 27.3119 
278 2 19.4519 32.8831 16.9359 
279 2 54.8428 51.5788 50.037 
280 2 37.5751 26.0472 23.6627 
281 2 34.8983 25.5109 21.4475 
282 2 34.8902 27.4859 31.8835 
283 2 38.9288 32.6092 9.83207 
284 2 18.8758 10.0928 38.3122 
285 2 51.1768 54.4036 33.3421 
286 2 27.237 23.2699 22.6391 
287 2 10.1954 30.3645 7.7301 
288 2 9.25664 33.2553 11.9282 
289 2 28.9202 18.6775 47.0144 
290 2 10.1054 31.028 54.5147 
291 2 22.5883 10.7997 28.1641 
292 2 12.2991 8.55854 12.5848 
293 2 29.1819 18.6862 22.339 
294 2 16.424 35.0449 22.9785 
295 2 38.8882 27.8318 50.0884 
296 2 24.8959 10.131 19.7393 
297 2 37.4609 6.5905 19.9227 
298 2 10.0453 22.071 21.9295 
299 2 39.3801 51.6205 32.1655 
300 2 46.6327 12.8925 47.5372 
301 2 43.0838 52.7599 54.7038 
302 2 54.0004 8.76411 42.9983 
303 2 30.1404 20.7993 43.2698 
304 2 38.1382 22.1518 36.1144 
305 2 35.9458 9.61235 25.8435 
306 2 53.3509 40.3533 45.4258 
307 2 32.5979 22.3927 37.402 
308 2 25.8876 53.1383 37.2711 
309 2 44.9822 7.88337 33.9683 
310 2 15.1715 17.6595 6.85663 
311 2 20.4181 29.794 23.8741 
312 2 50.0665 17.9808 29.0587 
313 2 32.735 49.7485 21.5069 
314 2 50.422 10.817 7.10949 
315 2 10.1145 44.3251 25.5619 
316 2 7.26744 6.88682 23.3335 
317 2 50.6809 18.2191 22.1265 
318 2 22.7734 11.224 32.6242 
319 2 14.2769 46.4781 37.7001 
320 2 9.49365 30.7056 36.1779 
321 2 53.8545 16.6866 10.5893 
322 2 19.6271 32.8507 51.4454 
323 2 54.6404 26.7856 10.7181 
324 2 51.636 6.42632 27.3437 
325 2 32.835 48.2591 37.2342 
326 2 27.066 52.2907 29.8606 
327 2 42.4576 8.18238 41.7266 
328 2 26.4965 47.5272 25.5867 
329 2 49.7652 14.1184 32.8802 
330 2 42.7568 50.1932 24.4873 
331 2 8.14511 20.5947 26.0509 
332 2 52.6051 17.359 17.7362 
333 2 25.1296 40.2493 40.7084 
334 2 23.5991 23.735 42.1326 
335 2 53.504 12.9391 38.7677 
336 2 36.0028 7.13337 36.2755 
337 2 30.3002 33.6599 51.3195 
338 2 14.2062 25.7142 8.30579 
339 2 42.9681 25.2701 24.7705 
340 2 15.1114 40.3925 36.7745 
341 2 20.0753 15.4533 52.2154 
342 2 51.2533 6.58042 39.8614 
343 2 51.8061 28.6748 18.8089 
344 2 15.1619 9.20361 40.11 
345 2 22.0328 15.5191 14.0817 
346 2 10.545 12.1071 51.7852 
347 2 16.27 34.8388 51.1213 
348 2 50.8615 44.0507 51.2368 
349 2 30.9631 52.4103 6.23427 
350 2 42.7783 17.5483 51.2095 
351 2 9.04113 52.4526 7.00453 
352 2 35.3472 8.34039 41.3874 
353 2 36.02 37.6748 13.441 
354 2 52.1939 20.6425 6.45661 
355 2 28.1628 41.4672 29.9318 
356 2 49.2967 38.0621 53.5749 
357 2 34.2598 47.504 49.5148 
358 2 8.22398 30.4643 51.9643 
359 2 21.6417 29.5575 45.1526 
360 2 23.1216 40.9131 13.8493 
361 2 50.7281 10.291 46.7764 
362 2 30.4696 7.6095 12.8944 
363 2 49.2683 17.8489 24.9454 
364 2 27.3214 40.839 25.0303 
365 2 28.1481 17.4925 37.7485 
366 2 22.2395 50.7246 43.6414 
367 2 55.7945 39.3916 12.3773 
368 2 26.8858 36.6147 39.2749 
369 2 29.6824 41.5153 39.9761 
370 2 14.9798 20.7647 18.9854 
371 2 17.3354 37.2553 15.9948 
372 2 16.928 55.0639 25.5415 
373 2 28.4195 43.9016 34.624 
374 2 45.6269 39.7132 44.0877 
375 2 35.9944 25.582 12.0768 
376 2 36.5446 12.9944 28.6539 
377 2 19.937 54.1272 13.317 
378 2 29.9154 43.8493 45.5382 
379 2 26.463 28.8473 40.0033 
380 2 12.111 44.3124 33.4682 
381 2 19.6012 52.4983 21.7464 
382 2 24.0493 30.061 6.42244 
383 2 15.0343 13.8769 24.246 
384 2 24.1724 37.856 42.7046 
385 2 16.9618 30.0238 13.271 
386 2 49.7584 40.2873 46.9202 
387 2 53.286 36.7221 48.1587 
388 2 18.2145 18.1939 24.191 
389 2 22.2968 33.1141 17.1195 
390 2 21.0218 41.3297 53.1193 
391 2 21.3966 36.756 23.2532 
392 2 10.4967 34.3347 48.1806 
393 2 45.1889 52.5775 25.0461 
394 2 27.2723 38.4306 14.9836 
395 2 37.5723 9.37896 23.4766 
396 2 45.6126 14.0175 16.6774 
397 2 18.7998 12.3328 24.4007 
398 2 36.3256 36.9768 47.4521 
399 2 41.684 31.8799 42.9451 
400 2 23.7812 46.2547 24.4079 
401 2 18.7598 20.6158 6.85834 
402 2 55.0861 11.3386 47.3567 
403 2 17.1141 36.6081 27.333 
404 2 30.9515 6.90907 21.3103 
405 2 27.0706 52.7162 12.5402 
406 2 34.2157 34.3927 16.2649 
407 2 39.683 43.3115 32.6328 
408 2 44.199 7.63643 23.2599 
409 2 55.6145 39.9055 22.2668 
410 2 10.4056 17.5917 46.6343 
411 2 26.4688 50.0103 37.4961 
412 2 34.595 26.1234 26.3841 
413 2 14.3887 40.0873 32.0636 
414 2 53.5237 30.3077 44.4693 
415 2 12.0781 19.4661 45.6614 
416 2 53.1836 19.7454 12.3326 
417 2 21.7611 14.3633 54.6844 
418 2 22.9113 49.0661 15.5879 
419 2 43.8814 22.3968 40.2278 
420 2 24.6682 7.75225 8.37371 
421 2 32.1305 40.946 48.964 
422 2 44.0521 40.1012 34.3477 
423 2 49.793 13.8513 30.0542 
424 2 53.6562 42.9537 31.4051 
425 2 17.7093 27.9962 20.8551 
426 2 29.5269 12.1285 8.15363 
427 2 36.0297 7.17104 51.0871 
428 2 19.2722 8.63386 50.215 
429 2 29.0483 6.96347 27.6757 
430 2 52.497 31.6179 49.3019 
431 2 31.2217 46.8872 22.9204 
432 2 28.9054 25.1707 51.6166 
433 2 28.4106 52.7472 10.2889 
434 2 16.5944 23.1351 15.1653 
435 2 34.3877 20.0231 37.3325 
436 2 13.8307 45.7193 55.4237 
437 2 27.7606 47.602 36.8425 
438 2 46.2585 35.6322 46.9961 
439 2 25.0202 25.5218 11.2708 
440 2 13.4431 16.274 10.8539 
441 2 40.5756 19.9297 24.0357 
442 2 47.6475 6.54115 25.757 
443 2 8.69943 15.5299 39.547 
444 2 35.6572 29.1564 7.34735 
445 2 54.5777 44.9327 48.4192 
446 2 12.5409 46.4969 16.0469 
447 2 32.4905 13.1017 31.8822 
448 2 22.5607 51.3258 27.6443 
449 2 35.4533 17.1786 49.9462 
450 2 29.2237 37.7613 37.7954 
451 2 11.3708 34.3249 51.1527 
452 2 49.967 23.2655 42.4384 
453 2 26.2022 15.6677 36.5538 
454 2 45.1747 53.1113 8.7709 
455 2 53.3336 45.2871 9.96797 
456 2 30.4969 19.8491 16.4335 
457 2 27.9888 45.1733 24.6178 
458 2 48.1264 17.3862 8.67123 
459 2 7.07528 53.1698 15.8331 
460 2 12.4887 15.0925 47.5114 
461 2 36.2075 17.6135 20.7834 
462 2 27.6994 32.9275 30.8871 
463 2 6.83852 14.9275 7.19882 
464 2 35.8005 18.838 12.2559 
465 2 9.58322 45.0462 47.0216 
466 2 38.3495 37.6208 21.0665 
467 2 23.7703 13.0621 28.8446 
468 2 45.6848 50.1568 7.06534 
469 2 7.11906 49.8285 7.24154 
470 2 49.5427 45.9785 19.6274 
471 2 44.2702 50.0032 16.9616 
472 2 42.3834 19.269 21.4687 
473 2 54.3618 10.3696 40.8205 
474 2 22.6418 20.2117 29.5875 
475 2 43.4883 25.2482 7.1867 
476 2 19.7308 20.622 27.9385 
477 2 39.245 31.8273 27.3257 
478 2 28.6693 30.2504 30.6699 
479 2 42.2679 51.7006 33.9696 
480 2 26.9853 10.3379 41.0791 
481 2 25.3356 26.7058 41.8076 
482 2 35.3672 15.9223 28.3178 
483 2 12.016 20.1525 26.8998 
484 2 51.2991 11.4542 14.3245 
485 2 22.7958 6.94416 16.5681 
486 2 50.7812 33.7642 9.37038 
487 2 35.5436 50.0023 54.1633 
488 2 13.4737 7.49477 32.5392 
489 2 10.0659 28.5758 12.6398 
490 2 41.6887 36.6189 21.8223 
491 2 40.6313 27.0859 15.1064 
492 2 40.7092 16.3665 46.8475 
493 2 46.7635 22.3868 51.3742 
494 2 6.56592 53.8865 12.119 
495 2 18.2299 51.5158 48.7374 
496 2 51.5222 54.0684 30.2903 
497 2 9.34779 18.9411 9.47786 
498 2 23.8382 46.3134 18.9414 
499 2 8.61858 43.112 49.9854 
500 2 12.8933 11.1332 41.9307 
501 2 21.3771 22.8454 29.295 
502 2 37.1147 38.3781 38.6004 
503 2 27.7251 48.4996 54.0132 
504 2 31.2983 17.8944 20.5648 
505 2 27.2915 20.1157 14.988 
506 2 21.758 8.4464 45.4134 
507 2 26.6097 8.89766 27.4109 
508 2 6.53805 33.8849 55.7053 
509 2 20.1826 38.7525 54.482 
510 2 48.2745 12.6219 50.8377 
511 2 33.4105 37.5413 36.4039 
512 2 53.5468 54.133 22.0254 
513 2 40.9583 7.78796 52.4047 
514 2 55.4421 17.755 13.3078 
515 2 40.9368 30.006 34.7803 
516 2 47.497 20.22 31.7204 
517 2 36.4032 23.0497 26.7337 
518 2 34.9446 30.9901 26.9348 
519 2 40.1028 48.632 36.6746 
520 2 49.4929 18.3222 42.9153 
521 2 17.1247 37.901 51.7719 
522 2 35.8583 45.6294 43.1064 
523 2 30.6698 48.1485 18.7693 
524 2 46.2996 52.3939 15.1394 
525 2 51.7438 49.5633 21.5167 
526 2 36.8252 14.2946 52.0476 
527 2 53.7648 26.3024 14.8147 
528 2 20.5034 25.6735 26.7346 
529 2 44.4596 33.9963 34.6157 
530 2 50.7638 38.2331 34.7018 
531 2 21.6893 19.1828 14.6106 
532 2 39.7993 11.873 49.5491 
533 2 30.2609 47.6032 7.33709 
534 2 26.7595 33.7253 16.4403 
535 2 13.4278 39.8899 18.5498 
536 2 7.14254 22.2286 41.567 
537 2 17.2499 53.8444 40.9387 
538 2 28.3828 45.9063 40.9159 
539 2 14.1378 49.9693 41.2963 
540 2 47.0965 30.8131 47.336 
541 2 9.91267 53.7692 33.6849 
542 2 32.191 33.6524 30.8836 
543 2 41.563 33.7349 14.858 
544 2 35.0742 53.9214 53.849 
545 2 25.7606 43.8651 38.4873 
546 2 33.3584 24.321 23.7333 
547 2 21.5982 28.7463 26.7773 
548 2 9.29757 23.7385 17.752 
549 2 8.29808 13.1938 15.4447 
550 2 50.6832 51.7794 20.3867 
551 2 15.6895 53.273 8.22355 
552 2 47.0407 52.0888 42.043 
553 2 23.9734 36.8729 19.4174 
554 2 18.4528 33.821 49.2989 
555 2 41.4825 32.6527 11.7414 
556 2 31.7988 26.7293 12.9889 
557 2 18.5632 44.0903 13.949 
558 2 13.8852 49.5591 9.16892 
559 2 44.3007 32.4266 44.8556 
560 2 30.9022 11.5193 49.6319 
561 2 14.6432 40.7635 21.1986 
562 2 18.9428 40.5015 13.0352 
563 2 34.112 20.4864 40.9794 
564 2 36.323 46.6723 53.598 
565 2 6.88124 24.6757 8.59979 
566 2 51.5497 13.6764 47.5119 
567 2 23.7316 21.1383 18.8822 
568 2 43.2468 27.9128 19.3525 
569 2 54.8446 52.3014 45.6364 
570 2 47.8678 48.5063 14.4948 
571 2 12.5877 39.3298 6.66233 
572 2 8.27625 26.3602 51.8658 
573 2 42.4459 39.5061 44.3119 
574 2 39.2206 27.0447 43.576 
575 2 34.6127 44.1745 50.7356 
576 2 33.9609 28.3119 14.8352 
577 2 36.0168 39.0671 29.5583 
578 2 23.2886 34.4488 36.7793 
579 2 28.1916 7.49325 44.1132 
580 2 23.494 31.3579 15.1441 
581 2 25.1858 40.9574 7.41634 
582 2 47.2843 25.9592 50.676 
583 2 19.0558 38.9071 39.7391 
584 2 53.9043 54.7449 19.1667 
585 2 49.3547 38.979 6.91121 
586 2 20.3806 14.0558 40.1031 
587 2 7.29288 23.8533 48.21 
588 2 36.6219 23.9168 8.43907 
589 2 41.6111 16.7037 53.8502 
590 2 45.1589 9.05289 15.2891 
591 2 50.1041 30.7232 22.6565 
592 2 9.98623 53.3488 23.193 
593 2 26.8198 22.4405 45.3121 
594 2 37.8722 44.5738 48.0739 
595 2 51.9104 44.3669 18.8202 
596 2 45.8445 8.366 30.959 
597 2 43.117 30.1098 44.911 
598 2 39.934 52.1039 14.0929 
599 2 41.7677 45.2925 42.437 
600 2 20.2598 32.6713 7.65042 
601 2 45.7182 22.1269 34.1505 
602 2 50.2021 48.7152 53.6837 
603 2 35.3779 36.4119 32.0093 
604 2 51.5807 43.1665 54.8918 
605 2 13.5813 17.6769 27.8432 
606 2 27.7738 17.8375 26.7688 
607 2 42.5828 22.3136 36.9654 
608 2 11.467 7.69626 46.9704 
609 2 49.8383 47.787 33.4372 
610 2 33.03 41.8271 30.7698 
611 2 55.0504 13.0749 17.0169 
612 2 25.9361 38.06 45.8335 
613 2 22.1345 25.7736 39.0093 
614 2 54.4135 49.5679 8.153 
615 2 23.5001 14.2949 36.2475 
616 2 15.2355 50.7783 48.4899 
617 2 22.0696 6.83528 6.15637 
618 2 17.6226 50.8341 54.169 
619 2 34.0681 54.6798 30.0839 
620 2 39.5258 33.3611 44.8144 
621 2 32.7957 43.9074 34.639 
622 2 49.9554 14.628 38.024 
623 2 32.025 12.9085 44.8326 
624 2 36.8774 43.7062 32.314 
625 2 8.19451 23.3823 30.4684 
626 2 29.6202 27.6057 32.4157 
627 2 9.92708 45.492 18.4012 
628 2 12.8968 49.1166 47.2947 
629 2 23.0332 46.0031 8.69616 
630 2 25.7283 26.6293 25.8368 
631 2 7.29402 10.3423 34.7296 
632 2 33.9323 15.8983 24.1628 
633 2 14.6249 46.4701 29.5332 
634 2 55.4187 29.6082 17.7017 
635 2 33.8543 45.7833 55.1944 
636 2 54.6668 26.76 51.4496 
637 2 39.6049 43.6964 13.8309 
638 2 43.083 27.768 23.8965 
639 2 21.5581 27.4511 21.7882 
640 2 39.0273 54.4358 12.2313 
641 2 30.5696 18.2767 7.29566 
642 2 40.9388 26.3154 47.7623 
643 2 48.6727 54.814 22.982 
644 2 38.4934 51.8274 16.4784 
645 2 42.4498 36.7926 14.0441 
646 2 29.7235 11.9975 42.0732 
647 2 25.8769 17.657 9.21132 
648 2 29.3984 37.7692 55.4335 
649 2 16.6254 7.43661 41.9944 
650 2 51.4494 37.3223 22.6511 
651 2 16.52 46.0185 39.908 
652 2 17.6566 45.8564 52.0258 
653 2 50.2021 29.6083 9.83988 
654 2 6.40516 50.765 37.0989 
655 2 13.6418 41.368 7.6615 
656 2 50.2702 38.8685 26.8052 
657 2 48.7424 41.073 35.165 
658 2 55.0966 27.1983 32.4836 
659 2 37.1233 38.6227 8.22002 
660 2 15.9293 30.5781 23.8068 
661 2 44.8511 21.3432 25.0584 
662 2 25.1124 41.2462 18.1674 
663 2 12.0945 33.02 25.1655 
664 2 37.0867 48.9373 22.3801 
665 2 18.1788 14.5431 28.3243 
666 2 22.8926 53.5099 49.7765 
667 2 42.2897 46.5703 21.681 
668 2 9.94765 37.1855 10.1081 
669 2 50.8534 23.3478 37.2808 
670 2 47.1756 48.0111 35.5318 
671 2 24.6411 42.19 9.97894 
672 2 18.8902 14.9615 20.9118 
673 2 29.7825 23.4715 21.3145 
674 2 11.6452 50.9997 10.9815 
675 2 43.1555 13.3086 44.2286 
676 2 40.6263 20.8978 43.6772 
677 2 45.4927 50.4086 28.1498 
678 2 53.9353 22.5908 33.7706 
679 2 15.0583 22.6445 28.8213 
680 2 29.5971 28.654 46.4175 
681 2 13.2609 21.0328 11.7781 
682 2 49.6513 48.0778 40.4783 
683 2 27.8647 42.088 11.2112 
684 2 22.7458 18.7168 44.2419 
685 2 34.0546 31.868 7.87192 
686 2 7.50085 42.6755 25.6129 
687 2 48.2802 36.0542 29.9087 
688 2 19.8787 25.0252 53.431 
689 2 52.1392 48.722 47.5265 
690 2 45.4366 14.1966 38.1907 
691 2 29.7387 52.5039 41.9523 
692 2 30.0573 44.7474 18.1024 
693 2 54.0887 26.9434 28.1313 
694 2 10.273 22.207 12.5081 
695 2 27.6337 33.0532 46.9323 
696 2 40.6499 51.2922 20.3005 
697 2 55.2949 31.3634 29.7414 
698 2 50.7277 55.4411 6.76737 
699 2 51.7745 9.14383 54.1616 
700 2 54.1138 42.7695 39.2656 
701 2 11.8849 51.8972 8.20698 
702 2 21.7116 23.0988 44.7149 
703 2 53.3147 7.19606 21.4721 
704 2 31.8576 26.8583 6.12627 
705 2 8.17458 45.8973 51.7328 
706 2 28.722 50.0682 8.99871 
707 2 17.1325 26.6661 24.7645 
708 2 20.5102 40.5931 25.6008 
709 2 30.4591 14.4732 48.673 
710 2 6.66104 37.331 6.22473 
711 2 22.7644 46.7503 28.6818 
712 2 31.1366 28.5017 49.3632 
713 2 38.4129 45.6442 11.7809 
714 2 18.1686 27.7456 17.3213 
715 2 11.2901 29.5016 24.2865 
716 2 37.8097 51.3032 50.0632 
717 2 26.9172 22.244 32.7116 
718 2 15.6063 39.223 43.9064 
719 2 24.3844 55.4685 46.4211 
720 2 42.4257 37.4524 35.1152 
721 2 8.37677 6.87859 30.189 
722 2 15.469 6.58431 14.5115 
723 2 18.3463 42.9258 7.34438 
724 2 37.8472 17.9608 28.1008 
725 2 14.5965 45.5489 20.2021 
726 2 53.8578 50.4711 40.2082 
727 2 23.1156 53.7053 30.3805 
728 2 50.0781 17.1435 52.6371 
729 2 46.0355 44.7307 23.0801 
730 2 55.3182 30.0455 50.0487 
731 2 33.6714 35.5114 29.3251 
732 2 42.4049 49.0478 53.672 
733 2 37.1421 53.1234 27.2858 
734 2 39.1285 36.2009 29.52 
735 2 16.027 21.2397 51.0721 
736 2 13.0828 15.4755 44.5319 
737 2 27.7478 40.8231 41.9417 
738 2 12.8549 54.6781 13.3799 
739 2 42.5592 43.3303 47.1281 
740 2 31.0347 51.0211 11.067 
741 2 27.1268 17.1756 50.8383 
742 2 12.2802 31.3338 35.6775 
743 2 31.8237 14.6546 37.4309 
744 2 31.0488 43.7478 32.2217 
745 2 55.605 8.38417 16.527 
746 2 19.4379 23.2338 19.1132 
747 2 51.7956 16.6623 39.1005 
748 2 14.91 31.7799 40.2974 
749 2 12.6307 28.2066 37.6444 
750 2 35.6349 41.1447 34.0628 
751 2 17.3145 52.0001 35.3217 
752 2 17.106 53.7575 21.6545 
753 2 52.7672 7.07455 52.7066 
754 2 41.9671 52.9835 24.883 
755 2 18.1587 15.2807 23.9183 
756 2 55.0153 49.8916 14.3145 
757 2 15.004 52.1505 32.6314 
758 2 30.9164 27.9102 37.241 
759 2 9.43989 41.5318 53.9932 
760 2 40.1046 22.663 33.4237 
761 2 35.7142 42.5571 44.651 
762 2 25.9242 46.613 20.7862 
763 2 20.8286 16.6126 25.2821 
764 2 12.8113 19.2672 50.5013 
765 2 9.98919 37.8644 6.09824 
766 2 19.74 33.0906 13.7818 
767 2 46.8917 44.4673 7.5411 
768 2 29.7176 40.5314 23.2661 
769 2 46.8625 52.2954 11.1641 
770 2 17.1338 26.1819 46.6945 
771 2 15.676 30.7063 21.0566 
772 2 45.1561 52.9665 20.2038 
773 2 23.954 16.0473 40.3506 
774 2 19.8629 29.1902 38.758 
775 2 8.68566 26.2628 39.4482 
776 2 24.4248 8.26964 31.7596 
777 2 29.8987 19.2366 53.7631 
778 2 14.1104 28.3834 46.6026 
779 2 8.61828 20.254 29.7203 
780 2 53.0828 47.3322 33.7923 
781 2 8.41283 39.8002 24.2191 
782 2 32.0956 44.6082 20.785 
783 2 54.5805 38.0224 41.2777 
784 2 12.4166 44.8853 11.2825 
785 2 11.4805 15.5169 49.9297 
786 2 30.9263 49.7983 30.5966 
787 2 13.4876 18.3103 54.0115 
788 2 20.7614 26.6893 10.6706 
789 2 36.0175 27.6077 41.0119 
790 2 52.081 6.95479 32.1247 
791 2 54.66 19.9574 21.1384 
792 2 6.13684 15.5051 32.5085 
793 2 7.46625 19.4915 42.8527 
794 2 48.119 14.3542 55.8212 
795 2 12.5674 18.1548 37.5105 
796 2 7.59209 51.551 18.981 
797 2 53.9769 47.2402 21.9125 
798 2 22.7852 16.1887 50.3484 
799 2 47.9769 11.3462 33.1112 
800 2 39.3387 6.86655 24.0493 
801 2 12.2578 54.9691 29.7304 
802 2 52.0486 54.7357 24.5323 
803 2 43.5465 40.6789 12.6715 
804 2 18.0987 28.0078 50.4136 
805 2 23.7297 53.168 20.0437 
806 2 35.3909 13.1508 24.0619 
807 2 7.9733 10.1136 20.4315 
808 2 12.1896 50.997 23.5561 
809 2 40.2404 25.5339 32.6332 
810 2 39.3458 39.0617 32.6266 
811 2 41.9981 30.7122 51.4446 
812 2 15.7134 26.0261 19.7835 
813 2 37.4302 45.0052 19.106 
814 2 38.2791 35.768 12.5584 
815 2 40.7476 19.6354 11.4008 
816 2 50.8916 13.5058 44.5057 
817 2 33.4189 45.2515 41.2389 
818 2 20.9407 37.7074 7.24765 
819 2 16.2854 40.709 15.0039 
820 2 35.3408 14.1941 11.4648 
821 2 51.6731 35.1523 54.3406 
822 2 24.8387 50.3034 41.6594 
823 2 40.7788 20.2624 16.9472 
824 2 53.8584 33.3909 15.3595 
825 2 15.0449 35.7828 38.0934 
826 2 13.7144 8.61529 16.3661 
827 2 33.0438 19.7479 22.0815 
828 2 48.8007 40.5566 44.0143 
829 2 22.1214 34.262 11.4533 
830 2 26.0787 12.9804 53.9067 
831 2 19.6281 40.7678 22.3712 
832 2 49.9739 25.6757 39.4746 
833 2 39.572 10.4096 28.3585 
834 2 15.7961 12.9177 41.9923 
835 2 21.7555 19.237 55.6373 
836 2 48.1823 42.0883 29.117 
837 2 12.861 33.8552 33.9423 
838 2 28.1138 39.7253 6.81587 
839 2 31.1198 22.7404 34.8411 
840 2 10.1147 22.4578 27.9197 
841 2 45.7186 7.0969 41.5058 
842 2 23.0603 8.00637 40.3458 
843 2 21.4153 48.8624 48.2182 
844 2 18.8565 36.6034 20.0756 
845 2 34.9912 16.572 38.5559 
846 2 41.4389 33.7451 51.6555 
847 2 16.425 23.834 18.0501 
848 2 41.5698 25.1634 43.0969 
849 2 34.812 9.64142 52.924 
850 2 28.4998 8.95712 22.1655 
851 2 9.1914 53.5473 19.9323 
852 2 33.1812 36.9422 52.0108 
853 2 11.2504 24.2219 39.0045 
854 2 29.8239 18.9417 29.7943 
855 2 51.7516 20.4618 24.3524 
856 2 29.2215 6.53003 35.968 
857 2 29.9878 49.3413 52.389 
858 2 43.2147 17.7095 45.2038 
859 2 30.5737 14.5395 34.9852 
860 2 48.4175 15.794 35.0067 
861 2 13.263 28.2104 10.0304 
862 2 31.8987 40.0561 18.8065 
863 2 34.0524 41.9016 25.7424 
864 2 46.0745 17.0053 48.9142 
865 2 36.2828 7.01894 6.14668 
866 2 30.9488 34.0386 38.4785 
867 2 29.0977 10.119 13.1062 
868 2 54.056 15.3678 15.2881 
869 2 52.2048 8.62885 18.5421 
870 2 35.5347 46.1632 46.3806 
871 2 25.789 35.6381 35.2962 
872 2 13.4892 12.3839 26.5251 
873 2 39.221 49.9959 39.3419 
874 2 20.3363 53.0725 34.2651 
875 2 52.0304 15.7231 6.37582 
876 2 13.5313 6.10088 39.2289 
877 2 47.1987 24.9253 18.3752 
878 2 47.3333 38.2604 46.1806 
879 2 39.308 30.2707 32.2414 
880 2 37.8699 6.26596 30.1458 
881 2 29.095 13.7609 44.9763 
882 2 44.8872 13.1798 49.6643 
883 2 27.0966 27.7856 50.8778 
884 2 49.1816 25.2902 44.2086 
885 2 40.9851 26.6564 35.762 
886 2 36.1613 42.8058 36.4344 
887 2 16.2951 27.5178 10.1539 
888 2 11.4876 53.8357 53.7873 
889 2 9.90398 10.4921 12.4554 
890 2 14.2714 32.6321 22.7008 
891 2 17.7013 36.2721 30.2414 
892 2 16.0466 21.8374 36.5824 
893 2 13.6108 14.174 40.3957 
894 2 18.0731 6.37831 17.9766 
895 2 7.33297 17.5531 30.5027 
896 2 54.389 11.8751 24.1332 
897 2 45.0391 9.51916 8.867 
898 2 32.6393 19.4088 50.1714 
899 2 23.3922 19.0081 36.9948 
900 2 16.3386 28.5446 35.876 
901 2 23.4938 24.8972 30.5005 
902 2 26.7748 38.0215 33.4513 
903 2 13.5767 26.1005 51.0793 
904 2 45.7419 8.79875 21.1287 
905 2 21.9541 6.46069 21.5176 
906 2 39.5442 38.837 44.3948 
907 2 42.2892 23.213 29.7205 
908 2 10.7477 47.2569 51.8343 
909 2 23.157 45.5714 11.8025 
910 2 51.4418 40.5656 39.411 
911 2 50.1449 54.9485 51.9203 
912 2 24.6918 35.2558 23.8172 
913 2 46.0911 7.42345 28.102 
914 2 52.665 10.8156 10.8367 
915 2 33.2756 25.221 51.5131 
916 2 35.1596 51.4852 38.4816 
917 2 55.2479 42.2067 11.8262 
918 2 29.9748 40.2174 45.8934 
919 2 38.5118 10.4932 39.9518 
920 2 17.0282 37.5585 33.0237 
921 2 45.5931 19.6189 27.2886 
922 2 27.9217 32.8308 37.7359 
923 2 13.6711 33.6807 15.8942 
924 2 12.5435 42.3442 46.9413 
925 2 24.4055 52.7523 45.1213 
926 2 11.2652 25.6863 9.55783 
927 2 47.1529 29.0677 28.4004 
928 2 49.1389 21.046 25.6538 
929 2 46.0203 42.2272 17.2835 
930 2 46.3959 30.1239 11.8601 
931 2 43.7657 22.3985 21.3672 
932 2 36.7963 32.9261 51.3249 
933 2 7.14162 12.4888 40.8852 
934 2 45.6445 36.5083 37.6604 
935 2 45.6457 50.4965 32.3548 
936 2 30.4179 15.3266 30.6283 
937 2 45.2527 36.7376 50.7797 
938 2 32.5371 40.0048 53.0285 
939 2 24.939 31.2354 23.6759 
940 2 40.3511 44.6088 38.4653 
941 2 41.2994 33.2148 37.7789 
942 2 23.2687 14.6518 7.09103 
943 2 44.2227 54.6497 46.1616 
944 2 19.5865 42.3512 36.5945 
945 2 49.5029 51.1706 8.73136 
946 2 55.418 46.4604 26.735 
947 2 51.7106 23.6768 27.4099 
948 2 46.7822 17.5705 29.0135 
949 2 39.6662 38.3329 27.6047 
950 2 17.769 7.62588 30.2159 
951 2 47.1982 17.0544 13.5455 
952 2 53.6796 51.8171 20.4572 
953 2 29.3902 16.856 9.62701 
954 2 42.5249 11.5601 18.0585 
955 2 26.5942 29.0604 34.7487 
956 2 15.3409 37.7524 21.9798 
957 2 50.883 18.3925 32.0531 
958 2 53.3908 15.6412 29.5028 
959 2 43.5916 13.893 52.9466 
960 2 52.4043 8.04956 37.691 
961 2 16.1363 53.6723 28.3921 
962 2 53.7013 54.0691 37.2763 
963 2 44.1863 20.9019 43.3117 
964 2 50.002 14.083 26.8836 
965 2 48.4432 50.2114 28.0294 
966 2 29.9258 47.5924 28.8419 
967 2 54.4265 44.5885 28.9026 
968 2 6.77125 53.9984 23.6028 
969 2 39.0677 6.82369 54.2611 
970 2 53.0265 40.5232 54.7678 
971 2 22.3046 44.0916 22.587 
972 2 8.41945 50.3416 46.8214 