ITEM: TIMESTEP
0
ITEM: NUMBER OF ATOMS
9088
ITEM: BOX BOUNDS xy xz yz pp pp pp
6.1035986228181516e+00 5.5827339169473134e+01 -5.7048777072593877e-15
6.1035986228181569e+00 5.5827339169473134e+01 0.0000000000000000e+00
6.1035986228181569e+00 5.5827339169473134e+01 0.0000000000000000e+00
ITEM: ATOMS id type x y z
1 2 6.4439 11.3094 28.4599
2 2 27.8384 50.9788 48.6099
3 2 15.778 21.6746 36.3877
4 2 39.23 7.36867 41.2266
5 2 35.8402 46.0427 44.1068
6 2 7.54382 39.8724 17.7215
7 2 38.8763 50.4117 34.9413
8 2 49.6346 21.3887 30.8847
9 2 31.0409 33.7714 43.2715
10 2 27.4609 28.1932 44.062
11 2 50.2478 22.1656 39.6398
12 2 28.0146 36.1719 11.1793
13 2 36.0871 9.86809 15.2497
14 2 21.5915 41.9275 45.7795
15 2 16.1135 20.8799 10.5704
16 2 10.3541 28.8477 17.5874
17 2 39.1443 48.9295 21.7472
18 2 7.32644 36.2697 45.1562
19 2 39.6814 43.9842 39.8682
20 2 40.9086 44.9444 30.8739
21 2 45.7265 31.3685 8.53705
22 2 51.1813 34.9721 27.1081
23 2 47.2789 48.5224 20.9624
24 2 29.9247 52.8058 33.7631
25 2 13.1101 6.75553 15.1162
26 2 15.339 20.2324 19.5194
27 2 54.6477 13.6173 55.7189
28 2 20.1345 7.12304 42.0862
29 2 42.2905 28.3767 22.3229
30 2 36.9595 22.4938 11.0543
31 2 11.9527 10.4479 50.1197
32 2 31.8842 55.6234 37.3782
33 2 31.2912 22.8264 27.3468
34 2 9.95202 47.3678 23.8773
35 2 53.8256 48.8981 52.4597
36 2 12.7349 15.2733 44.0825
37 2 10.0335 10.5844 32.6274
38 2 45.6341 17.9531 10.7234
39 2 54.1021 21.8724 39.759
40 2 48.8153 50.9658 9.1912
41 2 22.8179 12.153 27.5823
42 2 42.7583 16.6931 30.0658
43 2 39.8417 7.78157 32.7043
44 2 51.0533 44.4478 11.1176
45 2 46.4821 36.3781 49.7847
46 2 17.0157 23.8897 43.955
47 2 37.7042 14.4524 23.343
48 2 52.2433 36.4642 14.0552
49 2 53.6331 52.7658 42.1376
50 2 22.5328 33.0699 9.2253
51 2 47.7642 42.4317 45.5484
52 2 47.4333 41.8345 53.3129
53 2 39.4226 48.562 47.4041
54 2 15.956 16.7265 11.0762
55 2 37.6143 35.0968 41.0382
56 2 20.5511 55.3619 49.0683
57 2 23.2243 42.6061 33.6548
58 2 24.3183 48.4207 41.2474
59 2 38.1067 10.7281 37.0022
60 2 23.6677 40.3323 53.4094
61 2 54.9001 43.7562 18.0274
62 2 46.7402 50.9609 28.9108
63 2 24.8301 52.1569 48.4607
64 2 40.7729 48.6299 38.9318
65 2 14.6464 40.811 36.2083
66 2 14.3284 24.4673 14.5472
67 2 31.8506 10.7892 55.1838
68 2 23.2884 31.7803 39.7485
69 2 50.4694 54.6251 15.428
70 2 28.8759 51.9241 45.9543
71 2 40.1069 51.1765 19.5553
72 2 6.74152 51.0533 37.298
73 2 25.3121 50.836 55.0821
74 2 48.5584 10.3658 9.21516
75 2 25.1263 25.1057 16.7744
76 2 26.8097 53.3294 55.2289
77 2 51.5641 25.0642 14.6114
78 2 14.7063 35.7802 40.7706
79 2 21.4454 21.4716 15.5033
80 2 10.5682 16.2871 45.8845
81 2 7.44795 53.1768 11.2789
82 2 42.4451 20.9907 35.9665
83 2 42.8264 48.8153 12.2919
84 2 15.3967 48.5284 48.4913
85 2 7.16174 54.2968 29.2733
86 2 55.1599 50.6708 17.3584
87 2 47.2151 44.8219 42.1884
88 2 36.1099 32.1714 50.077
89 2 27.5728 10.9728 26.6763
90 2 49.0362 34.0745 7.41705
91 2 7.66002 22.2072 27.8744
92 2 42.215 26.8851 13.7639
93 2 27.5789 15.1028 18.1761
94 2 17.2049 7.78531 41.3207
95 2 14.0928 23.2035 33.9451
96 2 26.7415 10.1233 13.7502
97 2 12.2818 50.6172 45.7055
98 2 42.9015 36.8725 35.8531
99 2 46.2599 23.979 14.9567
100 2 28.1777 33.1916 11.5722
101 2 51.9898 42.3077 44.8425
102 2 17.3156 15.6313 52.6763
103 2 29.7647 39.3495 38.2991
104 2 42.7258 49.9706 28.9807
105 2 34.6715 40.4128 7.69205
106 2 23.6871 8.17093 14.6113
107 2 13.1457 18.2851 53.6848
108 2 54.2543 12.7097 34.6718
109 2 36.5677 26.6922 39.3879
110 2 43.727 43.2527 45.1795
111 2 37.7732 32.6403 42.8543
112 2 54.0903 39.844 44.9163
113 2 11.0888 10.4755 40.3026
114 2 54.1622 18.9293 14.2707
115 2 9.86112 17.0336 13.0445
116 2 9.03808 20.7338 36.0235
117 2 47.5936 38.1301 29.908
118 2 49.5021 54.4576 51.3978
119 2 31.9547 24.6368 40.0797
120 2 40.3901 52.0202 8.61067
121 2 31.781 35.0905 32.0046
122 2 47.15 19.068 45.7375
123 2 11.7129 24.3543 10.7937
124 2 47.0441 53.6548 45.3293
125 2 30.6781 38.6013 49.537
126 2 7.06342 18.525 36.7299
127 2 34.165 34.0682 28.4127
128 2 19.7189 6.56541 21.7877
129 2 50.0313 46.7838 51.573
130 2 15.6811 42.8282 34.3906
131 2 26.5316 31.9695 52.6891
132 2 48.8761 21.8162 44.4141
133 2 7.37504 53.4864 48.9269
134 2 43.7464 54.021 30.6744
135 2 51.0352 18.273 33.881
136 2 27.3607 19.9617 55.1438
137 2 38.5222 11.7411 14.0809
138 2 15.3872 35.5765 19.9109
139 2 25.8375 33.7003 23.8285
140 2 33.9675 52.6335 14.4815
141 2 13.43 49.3519 15.9199
142 2 46.2359 23.5174 34.8653
143 2 17.5128 36.7831 35.5342
144 2 36.0455 30.97 22.3542
145 2 9.51501 36.756 10.8016
146 2 44.0128 26.1874 35.5242
147 2 53.3059 10.4426 19.9462
148 2 41.5085 40.6509 39.3249
149 2 50.3572 34.3994 42.651
150 2 39.8183 55.178 27.5924
151 2 33.9281 8.67246 49.8293
152 2 37.9793 26.3494 16.6666
153 2 38.6849 12.6557 46.0286
154 2 7.6902 39.2136 27.1499
155 2 55.2099 26.3714 6.85144
156 2 52.477 13.8613 48.9046
157 2 50.7702 21.8092 14.2249
158 2 17.1756 6.40049 12.6377
159 2 40.943 25.5419 22.1517
160 2 47.3732 34.5863 47.0356
161 2 48.9415 53.5917 42.4993
162 2 11.5062 34.1731 6.90159
163 2 13.3143 35.009 25.3322
164 2 52.797 21.0878 28.129
165 2 50.1752 45.7925 22.8495
166 2 46.3317 51.0639 40.7799
167 2 43.7123 14.2607 42.1234
168 2 27.4533 26.1232 36.4339
169 2 55.4312 53.4783 9.20219
170 2 33.6302 51.9195 9.65246
171 2 40.5776 24.0423 39.607
172 2 36.3523 45.1402 36.8381
173 2 30.9901 41.7894 24.5337
174 2 35.7723 33.7669 39.0411
175 2 36.8476 52.932 6.16142
176 2 15.9826 39.2976 31.3548
177 2 18.4668 17.5573 40.6989
178 2 52.6412 9.87941 24.7876
179 2 39.0275 13.7182 28.5972
180 2 27.6749 17.0322 15.4941
181 2 28.5592 42.1257 26.5414
182 2 9.8954 52.2346 10.4093
183 2 17.0373 10.8945 11.8699
184 2 26.9472 48.7026 7.80703
185 2 55.308 42.2442 34.1545
186 2 22.3715 34.6686 42.0927
187 2 52.4513 11.9331 22.325
188 2 18.9035 9.52948 29.0395
189 2 23.9857 14.3035 15.7833
190 2 52.1979 49.1264 39.5177
191 2 43.5496 20.1743 53.9625
192 2 6.82634 28.6517 47.9875
193 2 24.0917 53.363 26.3012
194 2 10.4605 26.5649 13.0566
195 2 23.1891 43.7263 17.0199
196 2 50.2791 30.3086 9.8847
197 2 37.0978 29.6337 43.5039
198 2 10.3445 41.1167 55.8156
199 2 10.5631 51.3869 51.0875
200 2 26.0755 12.8595 18.2937
201 2 29.2394 7.23818 48.8797
202 2 46.2924 44.1063 22.9377
203 2 43.6805 54.6064 8.74782
204 2 7.14661 23.0781 9.6027
205 2 42.8305 31.1496 31.9314
206 2 14.1581 38.4105 49.6964
207 2 27.53 20.2285 29.1447
208 2 37.8191 19.7196 8.68207
209 2 24.4422 14.0183 37.1971
210 2 34.9942 37.5428 51.4249
211 2 16.422 48.4192 37.4669
212 2 11.5072 16.3519 15.2589
213 2 31.322 23.5235 30.1304
214 2 31.8829 38.7069 43.3416
215 2 29.8144 6.77588 52.1191
216 2 18.6089 52.9925 49.7025
217 2 23.6433 35.5938 20.6183
218 2 44.5488 50.8793 48.3733
219 2 24.4178 47.8439 55.3908
220 2 41.9773 48.2046 7.96059
221 2 40.8265 55.2797 8.77419
222 2 15.7569 31.7683 48.1601
223 2 50.8677 31.1284 44.9228
224 2 34.384 8.17627 34.4917
225 2 41.2219 14.5145 26.5983
226 2 14.0076 24.7504 47.335
227 2 20.066 27.3814 53.5031
228 2 49.5801 21.3008 25.5507
229 2 50.2884 37.6565 16.9494
230 2 48.904 46.1134 9.09445
231 2 16.6922 51.4162 45.2562
232 2 52.2616 10.7682 44.6118
233 2 16.9064 18.3648 47.1841
234 2 35.7715 22.8276 18.5016
235 2 21.2986 20.6528 23.1963
236 2 53.9835 21.7766 47.9703
237 2 42.3548 10.9825 16.0726
238 2 11.0553 19.4538 38.5366
239 2 40.4332 53.6133 30.1513
240 2 27.6772 30.064 20.6369
241 2 48.6086 16.7751 22.0991
242 2 49.7935 26.5891 45.2457
243 2 42.8933 34.5109 31.5134
244 2 43.9141 9.52995 40.7947
245 2 15.2317 53.6147 9.25913
246 2 37.6421 48.9559 15.6178
247 2 23.4135 42.8122 50.6288
248 2 24.9614 7.29394 22.4971
249 2 17.6701 12.6295 54.2499
250 2 24.6451 36.3393 31.2585
251 2 44.7625 45.5815 44.1506
252 2 27.286 39.2597 18.2107
253 2 35.6013 16.1722 37.2602
254 2 34.4361 45.4291 17.6597
255 2 51.4916 14.5142 46.2549
256 2 34.5838 51.0637 34.637
257 2 39.0627 36.6326 18.3621
258 2 40.4782 8.34996 16.5522
259 2 25.7867 55.7852 46.2779
260 2 6.91965 18.41 30.0464
261 2 29.1595 13.5543 52.4221
262 2 19.9851 34.0805 32.5035
263 2 42.2382 14.9423 34.2774
264 2 27.1829 39.9276 42.4438
265 2 52.6089 11.17 37.1092
266 2 30.4583 36.489 21.7378
267 2 26.562 24.3581 29.4764
268 2 29.9259 12.1318 32.9557
269 2 46.2953 36.9885 46.5755
270 2 7.61868 29.5719 25.2012
271 2 35.7089 30.5181 25.5933
272 2 29.8395 46.3738 9.88988
273 2 45.7049 17.0484 25.5623
274 2 8.11331 16.7176 54.4386
275 2 22.5941 33.0739 25.0036
276 2 34.8714 54.2913 12.2892
277 2 18.2854 12.1372 7.56964
278 2 35.8209 53.6669 45.1436
279 2 23.0078 21.4737 29.7913
280 2 55.2946 45.8218 52.9534
281 2 52.9188 45.2708 51.085
282 2 52.7888 47.0408 11.7226
283 2 55.317 52.4895 39.5948
284 2 37.1477 29.9404 18.4547
285 2 19.2822 24.1756 13.2335
286 2 45.0931 43.2341 52.0227
287 2 27.8784 49.9832 37.4942
288 2 26.5222 53.0173 41.6515
289 2 46.7557 38.626 26.9851
290 2 27.6943 50.5737 34.3891
291 2 40.2653 30.737 7.99322
292 2 30.1816 28.2068 41.8904
293 2 47.0042 38.7117 52.0102
294 2 34.3683 55.2812 52.57
295 2 6.75638 47.7854 30.1375
296 2 42.6208 29.9102 49.236
297 2 55.3175 26.3245 49.5484
298 2 27.5135 42.1258 52.101
299 2 7.33989 21.8184 12.5258
300 2 14.6403 32.6245 27.0018
301 2 11.1441 22.7428 34.5328
302 2 21.4154 29.1442 23.653
303 2 47.9766 40.7385 23.0329
304 2 6.19839 42.0079 16.0017
305 2 53.2451 29.6018 6.53383
306 2 21.2026 10.379 25.2075
307 2 50.4385 42.6821 17.155
308 2 43.8438 23.5473 17.0669
309 2 13.0997 28.1972 13.888
310 2 33.0148 37.7713 36.7835
311 2 37.8632 49.7568 53.6469
312 2 18.3261 37.7431 9.03797
313 2 50.2982 19.4356 51.2707
314 2 18.2187 30.6888 36.8823
315 2 27.9415 14.5129 55.3544
316 2 25.1628 26.8987 52.7362
317 2 18.3753 38.2407 51.9802
318 2 41.0017 31.2669 12.7315
319 2 32.0707 16.6149 17.5531
320 2 27.0548 50.3479 16.3925
321 2 21.7877 36.6881 39.8577
322 2 37.1622 52.8124 31.5003
323 2 22.2255 46.6539 40.378
324 2 19.7573 26.5326 7.22485
325 2 50.6396 18.614 17.2455
326 2 44.9013 22.7139 9.97378
327 2 10.3838 27.6028 21.903
328 2 44.3864 17.7435 55.514
329 2 17.5803 33.8579 12.7569
330 2 10.7494 20.4184 54.0613
331 2 25.8237 40.3034 6.14925
332 2 20.5378 37.0115 47.3757
333 2 42.2385 10.5574 20.7482
334 2 41.4543 43.8571 22.2098
335 2 21.6065 32.8408 18.5849
336 2 53.6416 27.0543 15.9444
337 2 47.9553 53.7288 31.0978
338 2 32.0504 45.7484 37.8985
339 2 10.8431 44.9501 54.9354
340 2 32.6802 10.5288 16.6724
341 2 37.8 35.2097 31.9535
342 2 19.3787 26.3023 19.9822
343 2 19.7641 48.6324 48.279
344 2 32.2814 28.7598 19.8522
345 2 39.8576 35.6287 43.6725
346 2 31.0641 32.5096 33.6076
347 2 33.8084 54.5698 31.0567
348 2 18.7951 13.9811 31.5056
349 2 50.3761 22.404 36.5093
350 2 11.3293 37.7035 30.4782
351 2 26.3948 22.1752 36.8625
352 2 52.8123 28.0286 21.2731
353 2 53.2027 8.03952 43.3256
354 2 20.3738 40.1454 35.8051
355 2 45.7601 11.2666 10.2816
356 2 17.2123 8.0316 33.6876
357 2 52.1432 17.2792 29.4048
358 2 26.2884 50.3034 31.6654
359 2 39.1402 48.9142 24.6529
360 2 40.7595 11.173 43.6569
361 2 18.1265 31.2508 27.0201
362 2 46.2367 27.3774 40.1152
363 2 17.2709 38.0649 54.6318
364 2 45.5541 11.0862 54.9001
365 2 46.0568 37.1602 17.5516
366 2 39.804 20.7523 23.7964
367 2 23.6276 9.82956 41.7291
368 2 44.7889 6.64215 19.2018
369 2 48.4302 9.67648 20.5194
370 2 32.8807 40.7907 48.6259
371 2 35.7291 6.77207 45.6256
372 2 34.588 24.903 55.2339
373 2 45.8556 13.934 15.4146
374 2 13.2879 9.57811 24.2145
375 2 54.0877 45.1005 41.2494
376 2 54.4803 33.3722 8.23482
377 2 38.0611 23.996 43.018
378 2 47.3923 14.2909 25.8669
379 2 44.2039 48.8634 20.1079
380 2 29.9936 14.4858 13.157
381 2 37.3122 22.705 51.4554
382 2 41.5282 50.0196 36.132
383 2 33.019 33.6129 53.8305
384 2 41.2927 7.75163 22.5987
385 2 34.5971 49.9747 42.9856
386 2 17.2656 10.1542 26.8743
387 2 20.9858 7.07275 27.9754
388 2 35.749 37.8096 54.0511
389 2 41.6939 52.0468 48.3603
390 2 38.8893 11.3127 33.2757
391 2 39.1036 6.90674 53.2984
392 2 27.7797 54.2992 28.0453
393 2 13.0438 22.4434 55.1345
394 2 46.2474 7.90549 43.7771
395 2 6.10442 29.0424 55.5009
396 2 13.6258 34.1386 46.6031
397 2 36.5727 32.085 54.3316
398 2 54.1621 7.43154 27.718
399 2 9.44599 51.5849 22.9953
400 2 41.5993 16.5459 54.6619
401 2 36.6591 40.6341 36.3462
402 2 22.539 30.9464 27.457
403 2 33.9147 53.8694 7.21183
404 2 49.1747 26.6849 51.1193
405 2 44.4778 22.8334 42.7659
406 2 52.6488 52.9259 44.9809
407 2 7.42384 13.42 12.2996
408 2 11.7568 27.4536 52.918
409 2 23.6238 9.99729 52.0463
410 2 28.3073 37.4992 26.6918
411 2 44.4123 20.2187 17.5418
412 2 52.3955 45.8291 55.7481
413 2 32.1002 10.2071 12.193
414 2 21.1429 50.1875 24.7678
415 2 29.8801 39.2631 25.5935
416 2 21.3416 39.2565 41.8658
417 2 39.3693 34.088 34.7503
418 2 40.7089 19.1125 45.7026
419 2 12.3466 42.0582 20.4928
420 2 42.479 27.5409 37.9439
421 2 49.749 10.9962 28.7119
422 2 11.8322 9.85559 14.8666
423 2 17.949 33.3299 9.83833
424 2 21.177 12.2253 11.8344
425 2 35.5659 47.9803 50.3822
426 2 47.0415 30.6795 39.894
427 2 53.251 27.1364 30.8758
428 2 37.0604 28.4672 30.1825
429 2 46.9862 26.9549 7.7295
430 2 20.3699 51.7108 29.128
431 2 48.7313 17.2076 52.8443
432 2 46.6488 44.9477 31.5178
433 2 45.7293 22.8622 40.1602
434 2 34.5274 43.1749 44.8521
435 2 51.7557 40.3016 17.4261
436 2 31.5631 15.9742 35.4705
437 2 45.603 17.7486 17.006
438 2 14.2821 55.2649 26.904
439 2 42.7753 45.256 41.3734
440 2 30.5353 36.3172 40.884
441 2 8.79802 39.7498 53.8297
442 2 15.8864 26.1636 55.1707
443 2 26.4379 35.1085 19.31
444 2 54.8367 48.0024 37.9656
445 2 22.3207 15.0257 28.4888
446 2 30.318 16.1614 46.0226
447 2 50.2652 33.2197 11.7526
448 2 40.2995 21.2718 7.6503
449 2 53.0163 37.2796 29.9536
450 2 47.2029 8.08461 17.8608
451 2 28.9894 53.8663 30.7968
452 2 18.1308 43.3189 22.2692
453 2 44.1042 35.5868 16.4511
454 2 13.1589 22.8378 38.666
455 2 21.224 15.6489 39.8021
456 2 48.593 39.7121 45.9069
457 2 45.8104 15.2089 54.3947
458 2 16.0418 37.4672 38.4647
459 2 24.5888 23.3152 45.4044
460 2 30.2824 35.1728 27.9766
461 2 53.6294 38.6085 50.757
462 2 45.3514 52.7107 10.4452
463 2 24.4538 34.7371 36.9387
464 2 53.8026 38.5254 42.0736
465 2 27.2382 15.3878 26.9594
466 2 6.25883 8.01653 50.4025
467 2 41.6957 33.3525 8.81782
468 2 13.5779 19.8846 37.0284
469 2 25.1111 19.5258 36.5657
470 2 17.2354 16.1397 49.4287
471 2 12.3205 19.6947 46.7458
472 2 10.694 39.2417 51.1103
473 2 22.3034 30.6685 21.257
474 2 40.2081 39.8765 9.82594
475 2 11.778 45.1669 36.5491
476 2 37.6842 40.7129 8.19817
477 2 7.28526 51.4176 7.27681
478 2 46.5625 50.1395 10.3941
479 2 10.3833 22.1947 14.0243
480 2 44.5995 30.4701 21.0811
481 2 43.0014 46.4166 21.8893
482 2 52.9229 35.9645 7.87562
483 2 29.8902 40.1439 6.47282
484 2 19.5827 31.2449 44.3803
485 2 40.4194 26.8111 46.2169
486 2 18.4638 53.6588 38.7035
487 2 53.644 20.3386 33.9842
488 2 31.6494 27.3409 12.5061
489 2 27.437 48.5271 42.1614
490 2 9.66895 6.55894 51.694
491 2 8.65244 47.1273 44.7531
492 2 8.61798 36.1813 26.6131
493 2 14.8846 42.0494 31.2376
494 2 24.2841 23.7856 41.8078
495 2 35.6598 21.7462 28.8652
496 2 19.7305 24.4217 10.2355
497 2 27.165 39.0799 39.2176
498 2 41.5503 16.1697 48.7938
499 2 26.3011 13.201 29.9919
500 2 30.9441 31.1837 21.7075
501 2 39.0306 42.987 9.32952
502 2 55.675 6.39173 18.2802
503 2 45.7254 18.6656 33.9913
504 2 49.3463 37.909 50.0853
505 2 45.4755 40.7504 45.0662
506 2 39.3795 28.0991 25.1855
507 2 44.1684 29.0315 7.0993
508 2 24.6279 53.6029 35.5334
509 2 37.3904 9.32907 34.488
510 2 16.0748 32.1063 31.1194
511 2 51.206 7.71617 16.1185
512 2 21.3475 24.2826 51.6818
513 2 55.8122 26.9712 34.5066
514 2 23.3159 37.5574 42.8937
515 2 9.11905 49.6548 14.6295
516 2 15.7179 40.2659 11.9342
517 2 53.982 42.9625 6.69232
518 2 52.8813 50.8081 6.93241
519 2 7.93075 18.7301 16.6801
520 2 17.8276 38.358 22.7422
521 2 34.799 7.60086 31.5069
522 2 53.0483 15.7884 23.7387
523 2 48.7189 18.0348 48.7214
524 2 13.9989 22.6422 44.9563
525 2 19.9781 19.2948 51.6211
526 2 54.3313 34.6232 31.506
527 2 21.5997 46.2373 44.5256
528 2 38.1645 45.7153 6.39241
529 2 12.387 53.9161 14.4183
530 2 18.9174 8.4058 14.6442
531 2 39.413 39.1008 44.019
532 2 7.69604 31.9504 29.0484
533 2 48.1016 16.7767 37.4386
534 2 46.169 55.5057 41.5551
535 2 31.5785 9.83091 48.4789
536 2 24.8808 42.3158 21.4628
537 2 34.8936 23.8724 20.8856
538 2 45.7835 16.2343 21.1853
539 2 31.6139 20.1742 21.1127
540 2 14.7967 50.3188 27.3057
541 2 27.7479 23.603 13.4385
542 2 49.9069 53.4291 10.9652
543 2 9.72149 53.9128 44.8095
544 2 53.2287 23.5348 33.5968
545 2 43.6116 13.9154 18.6604
546 2 50.8715 44.5768 53.3656
547 2 39.6303 48.9429 6.40104
548 2 27.2126 43.5112 47.6707
549 2 25.7931 32.8418 44.8882
550 2 18.9079 21.5762 50.2136
551 2 33.1906 23.3397 37.7822
552 2 15.0988 22.5029 21.8325
553 2 41.9432 6.30363 49.2998
554 2 35.8748 53.8067 28.8255
555 2 9.47831 52.3965 41.6381
556 2 49.5361 46.4884 42.1377
557 2 36.6505 14.1031 43.7291
558 2 31.5119 19.6928 39.2121
559 2 12.2997 52.5186 24.4827
560 2 48.4935 31.5765 29.2934
561 2 32.0813 10.6856 51.4486
562 2 36.6182 10.376 42.9855
563 2 52.0466 40.3967 20.6401
564 2 53.8899 17.0779 33.5908
565 2 24.9006 44.5472 38.2177
566 2 20.3309 32.1936 29.3346
567 2 41.8809 40.9602 48.6305
568 2 11.292 47.5227 48.9424
569 2 22.3634 22.4687 25.4699
570 2 15.778 18.3751 44.0744
571 2 29.5739 9.43587 36.6175
572 2 26.0206 46.0493 31.6657
573 2 10.1001 9.48026 24.8035
574 2 6.61419 47.2028 23.4642
575 2 52.2956 14.1292 30.8652
576 2 52.0332 48.393 44.2611
577 2 53.8665 8.65621 9.3605
578 2 41.3908 54.5448 16.874
579 2 46.0896 27.6084 24.106
580 2 41.6339 51.1241 45.0835
581 2 42.234 13.8594 37.5032
582 2 15.0612 45.7227 30.6814
583 2 36.5093 9.02967 19.6579
584 2 22.0549 25.0756 48.8451
585 2 17.189 9.25319 36.4224
586 2 38.1861 34.4295 19.8022
587 2 24.0385 42.857 28.1521
588 2 54.7365 45.1271 38.628
589 2 9.89994 36.8755 33.4734
590 2 13.377 28.7233 44.8616
591 2 17.8486 50.6748 52.2659
592 2 27.3403 23.2855 52.5933
593 2 44.6714 42.5869 25.2402
594 2 6.32386 14.6282 27.8884
595 2 19.7484 14.2897 48.5009
596 2 14.0449 28.1645 10.9832
597 2 10.8676 49.803 24.7744
598 2 7.76642 22.2843 43.9372
599 2 11.5483 16.4008 25.1067
600 2 37.9972 52.518 37.3968
601 2 14.1781 42.1628 13.8394
602 2 17.9303 18.4474 33.8732
603 2 53.0554 6.45224 11.8178
604 2 19.3276 13.0961 34.5284
605 2 31.3265 37.7441 7.90919
606 2 45.6604 37.5595 6.23467
607 2 10.4807 42.068 16.6278
608 2 29.2318 27.3071 27.2124
609 2 17.6311 17.4327 13.3928
610 2 51.1689 11.8398 10.835
611 2 23.2726 32.8213 46.5865
612 2 43.2803 8.28045 25.5667
613 2 39.786 45.5083 19.3953
614 2 22.4237 19.4397 38.0597
615 2 41.3653 34.0101 16.449
616 2 32.8442 21.1244 28.6013
617 2 39.9658 26.7477 36.0592
618 2 35.4887 20.9349 34.0535
619 2 51.6647 25.1514 10.0062
620 2 7.5301 53.72 24.7969
621 2 50.3098 14.2338 14.8404
622 2 17.6817 34.7455 17.9628
623 2 49.7612 33.0637 24.852
624 2 54.1763 13.7894 12.1573
625 2 26.199 42.9505 10.2975
626 2 47.2389 46.5004 12.0201
627 2 27.969 15.3051 48.3509
628 2 30.4723 19.6165 27.5551
629 2 40.7229 16.3316 38.5992
630 2 43.0975 46.4398 55.4818
631 2 25.1808 30.2915 14.4183
632 2 51.5304 36.008 53.423
633 2 32.4802 16.337 9.61723
634 2 23.1968 49.7408 47.2041
635 2 51.1598 15.5004 34.6673
636 2 22.6936 46.6166 31.2446
637 2 7.99668 13.337 43.5306
638 2 11.2255 47.4662 53.7559
639 2 39.1259 47.2441 51.2853
640 2 6.92443 24.6509 42.2932
641 2 48.2364 38.1901 36.986
642 2 8.64227 46.3777 27.6162
643 2 16.2986 24.7609 52.3451
644 2 6.56545 21.6968 46.3004
645 2 10.5066 7.19797 43.5938
646 2 47.4427 32.067 22.1038
647 2 43.4393 37.6667 38.9666
648 2 47.5183 7.9741 34.8754
649 2 34.1174 27.1675 22.0627
650 2 19.6356 7.32498 52.7578
651 2 34.0479 16.377 19.9411
652 2 35.5365 15.6211 32.4233
653 2 18.3011 49.7279 39.4677
654 2 24.226 20.2298 16.5008
655 2 31.3007 10.8334 37.8248
656 2 17.9723 8.75076 6.93203
657 2 16.8 10.9984 14.975
658 2 23.0809 46.8562 12.5711
659 2 54.9639 8.49738 37.7152
660 2 33.8629 50.8108 53.4771
661 2 12.9798 40.9899 54.9409
662 2 42.8322 10.9205 47.7951
663 2 29.9135 53.2712 54.9334
664 2 54.6341 19.2314 52.6126
665 2 36.0652 34.2467 8.44693
666 2 40.4591 23.4507 29.8281
667 2 10.0021 16.9188 51.278
668 2 27.8429 7.07449 40.0397
669 2 18.5912 43.7222 17.2633
670 2 14.7059 18.3692 15.1908
671 2 42.3819 12.3796 40.1206
672 2 36.6611 34.9777 50.4651
673 2 47.6697 43.5138 50.537
674 2 29.1409 20.9579 40.8976
675 2 11.2478 33.0087 23.8126
676 2 8.70051 40.9636 23.1275
677 2 13.61 20.8131 8.31451
678 2 21.8286 42.3383 14.1164
679 2 33.2442 42.8622 8.86196
680 2 47.0866 48.8177 26.2549
681 2 31.2577 41.4908 41.6675
682 2 17.0577 18.1477 20.3476
683 2 46.4591 14.8855 40.6512
684 2 40.8525 38.8112 24.0504
685 2 51.7977 51.6978 37.3943
686 2 25.1371 12.7329 55.446
687 2 13.3839 8.02049 10.8098
688 2 37.634 44.8717 33.0926
689 2 19.8743 19.3334 27.1503
690 2 13.305 34.2931 18.2861
691 2 47.5652 23.5068 21.9943
692 2 47.7981 15.1937 48.1234
693 2 22.2966 46.6097 7.80355
694 2 28.188 42.5239 42.1622
695 2 45.678 52.7582 26.7291
696 2 8.6581 21.2603 50.0489
697 2 23.724 51.1479 9.69408
698 2 18.7616 25.7174 36.826
699 2 19.7571 29.0455 34.1674
700 2 22.4786 12.9969 18.7349
701 2 29.5414 21.8838 37.8548
702 2 39.6613 43.2815 24.7388
703 2 21.4592 27.3703 50.9881
704 2 49.555 47.0116 35.3712
705 2 26.2874 15.7497 31.9098
706 2 46.1052 20.0049 38.8488
707 2 34.7616 46.7526 54.3691
708 2 38.216 11.1052 54.973
709 2 48.2179 34.3146 28.666
710 2 24.2946 7.24269 35.7367
711 2 40.6595 16.4953 9.24277
712 2 48.7966 48.8067 29.0449
713 2 55.4584 15.5931 41.0416
714 2 35.8037 47.5389 47.0621
715 2 29.5521 49.2253 53.3105
716 2 55.7044 21.2906 29.8272
717 2 44.9825 42.1088 12.3967
718 2 33.5823 9.73998 23.958
719 2 42.1043 25.2781 26.2152
720 2 10.0925 7.6853 15.727
721 2 26.1539 26.205 9.70907
722 2 33.3152 26.7274 44.2797
723 2 35.7961 13.1867 37.2627
724 2 55.521 37.6332 8.1906
725 2 32.4427 15.2611 49.9486
726 2 21.6398 20.5519 20.129
727 2 40.891 23.6229 10.4026
728 2 17.9791 36.601 32.6435
729 2 14.0672 14.9721 53.0219
730 2 22.8993 49.7531 30.267
731 2 51.4779 55.0239 9.34445
732 2 11.1924 18.6542 33.9614
733 2 55.087 23.4285 7.36261
734 2 7.24424 55.6642 9.15003
735 2 33.9476 41.1122 30.748
736 2 30.793 35.0647 24.2015
737 2 44.9671 10.7138 22.0869
738 2 30.3063 24.4788 42.6893
739 2 10.914 13.8206 26.9013
740 2 48.1126 20.9366 41.1481
741 2 44.9496 36.9467 30.8437
742 2 29.9375 51.1732 15.6581
743 2 49.6095 34.5167 17.2053
744 2 49.0807 13.7834 11.8234
745 2 23.5048 28.4729 46.4557
746 2 37.2095 43.1823 48.7853
747 2 19.8194 36.6337 18.9549
748 2 32.734 51.3931 20.1308
749 2 30.401 47.5749 17.5819
750 2 53.2625 11.1668 13.2371
751 2 35.3324 22.3176 15.1784
752 2 34.6581 23.5287 51.1084
753 2 20.6311 26.866 32.7614
754 2 9.9369 22.9461 55.02
755 2 36.3622 35.0527 53.3203
756 2 23.3715 19.9416 44.3161
757 2 33.1007 22.4595 12.774
758 2 48.4985 47.2609 16.5729
759 2 26.9789 11.7853 33.9571
760 2 8.59094 42.321 13.4731
761 2 53.3217 12.8836 25.2737
762 2 43.5276 16.636 50.7476
763 2 38.488 36.6768 55.3674
764 2 30.6989 39.14 30.4854
765 2 27.3394 8.009 36.0898
766 2 38.4433 52.0804 45.1918
767 2 15.2222 14.9494 37.4426
768 2 47.5799 10.4339 53.0556
769 2 17.0255 21.8402 41.3146
770 2 35.5479 45.5246 26.5811
771 2 33.6702 50.5848 50.4355
772 2 13.0889 23.0787 49.7584
773 2 41.5772 35.9431 20.1297
774 2 37.5057 48.9844 18.9691
775 2 26.062 46.3495 19.0472
776 2 42.3944 28.5688 11.5525
777 2 47.7556 39.1657 33.5718
778 2 31.702 48.3594 26.3127
779 2 26.7054 40.0916 9.73926
780 2 20.7798 17.3647 13.8204
781 2 25.9981 10.2467 53.8333
782 2 49.6086 14.8756 50.5011
783 2 22.1796 8.13966 21.311
784 2 30.5982 15.3138 42.1103
785 2 28.7835 32.9951 30.0286
786 2 48.6077 20.0102 10.56
787 2 31.4741 37.9213 34.2643
788 2 38.5728 46.6212 40.5638
789 2 53.6373 47.8329 20.7221
790 2 19.6512 26.9445 12.3239
791 2 22.5223 39.9484 50.7411
792 2 24.0605 35.3088 12.4815
793 2 25.2428 39.4009 22.2415
794 2 15.8031 34.1723 35.9116
795 2 29.8952 37.8999 17.3291
796 2 25.0627 21.6414 48.6359
797 2 22.0143 17.1658 51.4857
798 2 40.4774 36.1522 30.2442
799 2 16.0356 31.3289 12.7838
800 2 7.24524 27.2713 52.4333
801 2 30.0808 24.7456 9.61483
802 2 18.3536 25.4225 54.4051
803 2 11.3002 12.3715 43.0749
804 2 35.8142 47.9814 29.8497
805 2 41.1149 23.1993 49.5714
806 2 53.3825 32.8477 53.4212
807 2 26.0617 30.0141 50.3371
808 2 29.9528 20.9563 53.1186
809 2 8.20719 45.5896 12.8593
810 2 7.33692 9.02602 12.1863
811 2 9.97299 50.576 31.0123
812 2 33.419 46.1692 49.7853
813 2 55.4341 15.1556 48.9445
814 2 55.5532 55.17 41.9886
815 2 55.4676 42.3954 39.9943
816 2 18.7754 33.4696 24.5923
817 2 50.6083 14.7727 21.5742
818 2 38.5312 7.99518 36.698
819 2 33.8386 10.6311 44.6976
820 2 53.0156 33.9006 40.969
821 2 19.4831 54.8521 34.2835
822 2 42.2584 20.5851 21.853
823 2 8.65031 40.4268 46.4347
824 2 21.6617 53.1543 44.7494
825 2 32.8108 6.1334 18.2851
826 2 31.4717 28.6962 46.0032
827 2 50.9977 40.0662 51.3013
828 2 16.4353 10.7107 23.7667
829 2 39.9131 53.9527 41.5017
830 2 44.2191 33.3387 33.7338
831 2 37.2981 10.7121 52.1618
832 2 17.5268 45.8438 19.6027
833 2 7.56403 30.4715 8.33929
834 2 33.4906 32.8032 21.6889
835 2 39.6769 39.0818 35.7194
836 2 15.9403 12.2357 9.32354
837 2 30.6875 53.7111 14.1705
838 2 45.8616 10.4038 36.5484
839 2 48.837 42.3547 14.5272
840 2 28.0567 42.214 7.52136
841 2 13.6175 26.9403 21.4505
842 2 40.9823 28.3163 20.0233
843 2 39.2655 19.2206 28.3238
844 2 36.5264 7.04684 50.0129
845 2 52.3006 36.2013 18.5375
846 2 9.58081 53.8354 31.7149
847 2 34.067 43.6219 47.8449
848 2 9.26315 45.005 22.5935
849 2 52.4889 29.9925 32.3845
850 2 46.6198 28.3836 51.8176
851 2 26.8975 23.6069 49.4127
852 2 50.6611 7.25455 32.1392
853 2 28.8554 44.0552 18.6798
854 2 47.5052 38.7027 9.50215
855 2 19.6052 40.1674 53.8963
856 2 47.2285 26.5765 15.5588
857 2 48.1436 19.466 32.4216
858 2 11.5592 38.3554 22.7838
859 2 48.1237 34.2423 14.6577
860 2 16.4792 35.9231 14.9912
861 2 30.9785 48.1223 40.0419
862 2 49.8221 10.1119 48.9213
863 2 51.7609 11.9939 55.6606
864 2 14.144 36.6617 29.0843
865 2 52.0843 29.8233 35.1623
866 2 49.0052 53.9226 18.3094
867 2 46.8854 30.2752 43.3883
868 2 22.1335 35.4129 45.2725
869 2 20.3966 28.9021 48.3211
870 2 53.8484 15.6946 26.9809
871 2 43.534 55.4808 15.3142
872 2 31.3312 31.9283 6.34169
873 2 6.98254 19.7834 19.3515
874 2 38.2772 23.2679 14.6099
875 2 20.0599 35.4793 36.1728
876 2 31.3031 25.8734 19.0813
877 2 15.1304 44.3211 47.9473
878 2 15.1656 8.3913 26.0923
879 2 7.16513 49.9733 11.9982
880 2 55.4132 26.3872 9.80938
881 2 46.8402 33.5486 24.6989
882 2 12.6256 32.725 30.0235
883 2 44.6894 47.6258 30.9119
884 2 17.2265 45.3391 24.0287
885 2 8.76189 46.246 15.6118
886 2 54.2016 12.8109 16.1585
887 2 34.0376 47.5595 39.8451
888 2 28.9744 24.0092 33.9006
889 2 27.885 30.1365 41.8663
890 2 32.1816 52.6791 52.642
891 2 34.8631 6.42978 10.0308
892 2 33.952 41.2823 16.2423
893 2 31.3183 33.8403 20.1813
894 2 35.6636 26.2733 47.6056
895 2 25.3359 37.3046 10.3618
896 2 22.2211 31.8732 53.8102
897 2 12.9593 29.5056 38.5304
898 2 50.5313 39.2622 30.116
899 2 40.9562 38.8762 16.9024
900 2 34.1918 48.4932 16.2377
901 2 40.9926 45.3035 10.123
902 2 44.7353 8.1176 13.6845
903 2 31.3646 46.0814 31.2193
904 2 14.0103 28.7607 50.9653
905 2 39.5773 26.4399 51.3873
906 2 55.0238 8.42205 24.9784
907 2 10.0637 43.0759 9.47679
908 2 28.685 17.3559 31.6695
909 2 41.1687 15.9446 41.757
910 2 19.4973 10.7748 19.2483
911 2 18.025 25.1978 32.1422
912 2 42.3272 55.2325 53.704
913 2 14.1357 27.2699 8.06074
914 2 20.511 30.7514 40.6342
915 2 51.2975 45.0915 31.1117
916 2 52.9073 21.709 18.0721
917 2 23.6441 13.1837 41.6045
918 2 47.5588 9.88936 25.6619
919 2 6.42836 30.2718 19.8649
920 2 34.6901 7.72879 13.1454
921 2 13.8381 39.2742 7.62407
922 2 46.0418 52.744 17.5231
923 2 31.1609 53.4004 45.716
924 2 30.3044 12.6214 27.0753
925 2 41.8877 22.6959 25.2062
926 2 29.1704 45.5878 39.2667
927 2 15.4354 49.3199 8.57964
928 2 17.2603 40.9157 55.4411
929 2 13.7891 12.1538 47.0009
930 2 14.23 49.8323 41.5904
931 2 12.431 42.1427 51.8278
932 2 54.406 53.2746 31.2957
933 2 24.7203 32.496 20.9275
934 2 10.506 10.1554 17.8008
935 2 13.7605 20.4934 12.571
936 2 48.2068 35.375 10.1274
937 2 13.2889 7.19239 30.7019
938 2 49.9937 9.77788 33.1713
939 2 42.9116 51.9921 50.9713
940 2 8.51951 14.8544 18.4397
941 2 9.20696 53.156 17.3949
942 2 41.1725 34.4546 36.8114
943 2 12.2013 24.6548 26.006
944 2 37.4698 12.3845 16.7261
945 2 17.6121 21.3625 38.441
946 2 23.3381 16.4146 6.41806
947 2 19.7743 43.6777 7.45063
948 2 14.9781 37.1548 8.98914
949 2 7.78245 8.44668 7.39242
950 2 35.3714 27.2604 9.93439
951 2 15.2952 36.9466 43.1644
952 2 21.8466 21.7558 50.1344
953 2 46.6718 36.72 39.1398
954 2 10.5011 31.5697 48.2215
955 2 44.6945 46.4984 13.9581
956 2 32.3742 7.56592 52.2649
957 2 18.6911 38.0963 12.5032
958 2 21.3377 35.7074 9.706
959 2 11.607 34.1202 32.9087
960 2 20.8614 28.0481 17.6944
961 2 34.3857 23.4723 8.68497
962 2 21.9113 24.1234 16.9415
963 2 10.8823 40.2731 24.6179
964 2 17.7176 33.8625 6.80692
965 2 16.4161 20.4013 7.58526
966 2 47.8735 17.8108 9.1795
967 2 22.3513 14.8873 8.77279
968 2 24.5271 24.0195 52.8125
969 2 6.85953 22.9952 36.2929
970 2 20.9293 10.5211 34.2928
971 2 40.2008 14.4588 52.4214
972 2 25.9268 20.677 26.7353
973 2 36.5274 19.0106 25.4201
974 2 17.5397 54.3397 41.662
975 2 50.4898 29.4727 52.3182
976 2 7.4789 11.3308 8.71735
977 2 7.40499 11.99 35.7297
978 2 13.44 24.4946 23.4762
979 2 7.87942 25.4962 44.6854
980 2 9.45237 49.6242 43.6309
981 2 31.0433 17.8441 22.9747
982 2 52.8389 15.6393 42.2671
983 2 38.1806 45.9747 47.417
984 2 54.5707 54.9081 6.93086
985 2 13.3332 15.2641 19.9922
986 2 25.9326 6.56777 49.8227
987 2 49.7062 6.61263 11.7284
988 2 50.6817 49.304 20.57
989 2 20.8486 49.4147 53.1629
990 2 7.36133 21.0484 23.0964
991 2 29.3756 55.4277 42.1271
992 2 22.4288 44.4161 19.8329
993 2 30.6317 12.8195 15.46
994 2 28.3906 55.3448 14.8106
995 2 45.7554 18.1527 49.6137
996 2 44.2329 12.6456 32.5253
997 2 16.461 52.2548 40.2451
998 2 22.0707 13.0116 49.188
999 2 20.7906 47.0486 20.8927
1000 2 33.99 49.8886 46.1057
1001 2 33.6233 35.7861 7.6384
1002 2 26.1329 32.395 35.4094
1003 2 16.1826 27.069 19.7386