ITEM: TIMESTEP
0
ITEM: NUMBER OF ATOMS
9088
ITEM: BOX BOUNDS xy xz yz pp pp pp
6.0587348807047778e+00 5.5872202911367076e+01 -5.7151722731893178e-15
6.0587348807047832e+00 5.5872202911367076e+01 0.0000000000000000e+00
6.0587348807047832e+00 5.5872202911367076e+01 0.0000000000000000e+00
ITEM: ATOMS id type x y z
1 2 41.3979 32.9137 46.9347
2 2 13.9721 21.8932 13.6478
3 2 50.2659 43.9648 55.1169
4 2 19.3406 26.0666 12.6722
5 2 21.1513 18.1227 12.8646
6 2 42.8313 12.1033 36.227
7 2 24.4184 22.8056 53.4695
8 2 35.1889 43.3524 49.1443
9 2 14.3067 9.17069 12.4122
10 2 9.86369 52.8875 13.9035
11 2 37.0175 43.9493 9.45801
12 2 13.5723 8.44698 29.3545
13 2 21.1741 31.3116 33.5046
14 2 7.00231 14.486 14.2333
15 2 51.2808 43.3014 29.4307
16 2 45.3839 50.5271 36.4284
17 2 24.6653 21.6971 40.3129
18 2 42.0941 8.0467 14.106
19 2 25.1783 16.1808 8.2397
20 2 26.4927 17.4604 49.2262
21 2 31.1895 52.9848 27.0958
22 2 36.0349 7.10624 45.5901
23 2 32.537 20.4506 39.5064
24 2 14.9087 25.0092 52.22
25 2 48.9976 28.3862 31.2757
26 2 50.5314 42.9523 38.0597
27 2 39.8655 35.9495 24.4306
28 2 7.3839 27.751 13.071
29 2 27.8018 50.2789 40.6801
30 2 21.8925 44.6224 29.1638
31 2 46.6442 32.4371 18.5425
32 2 18.855 28.5826 54.4057
33 2 17.6517 45.3661 45.7003
34 2 45.1865 19.6172 42.5725
35 2 39.4479 20.8309 20.9941
36 2 48.1989 37.1854 12.9872
37 2 45.6424 32.5261 51.0792
38 2 30.8013 39.9037 29.4659
39 2 39.8485 44.2244 11.6052
40 2 34.1923 23.017 27.6616
41 2 8.87665 32.3203 45.2683
42 2 28.5296 39.056 48.4469
43 2 25.4477 29.5718 51.2391
44 2 36.406 16.5817 29.6698
45 2 31.4178 8.42951 18.4705
46 2 51.9906 46.018 12.3642
47 2 22.4639 36.0658 42.0985
48 2 37.908 8.72685 32.4701
49 2 36.1456 28.5583 11.0456
50 2 8.28007 55.0566 27.3536
51 2 33.3724 14.5932 11.068
52 2 32.7534 13.8525 21.952
53 2 26.4292 19.6839 16.6049
54 2 50.8804 38.9223 29.2267
55 2 22.9954 7.17044 9.88871
56 2 55.1298 27.7933 17.5535
57 2 8.79912 14.8093 52.415
58 2 9.57395 20.6421 9.85452
59 2 21.7479 30.2925 9.69894
60 2 8.9807 12.7511 22.1559
61 2 40.0306 15.6221 36.9797
62 2 32.4366 23.289 47.0934
63 2 10.9444 23.7 19.2258
64 2 26.1931 20.8884 7.53726
65 2 49.4707 13.2192 54.8545
66 2 49.2239 46.4436 32.6355
67 2 17.3176 31.8415 23.6861
68 2 8.50497 53.9968 8.2438
69 2 35.2601 26.7454 33.7867
70 2 15.512 23.2402 12.2052
71 2 25.8134 23.592 38.1079
72 2 40.5492 21.816 55.04
73 2 10.6338 23.5878 23.4342
74 2 33.6461 32.2365 27.8855
75 2 10.4759 47.3108 35.3212
76 2 11.7063 26.3035 23.2516
77 2 36.9201 46.9892 33.4145
78 2 49.7514 8.4239 9.25376
79 2 6.72288 43.4727 34.2286
80 2 45.5563 38.0323 14.9094
81 2 42.3483 25.9817 29.9708
82 2 28.0287 42.6513 54.5768
83 2 25.817 21.1676 30.2643
84 2 50.2424 20.9006 17.0555
85 2 42.2222 26.0291 48.1687
86 2 40.2465 23.1393 36.0323
87 2 34.4078 18.0691 13.824
88 2 21.4755 54.0356 18.8506
89 2 12.8007 33.2563 44.8838
90 2 34.3474 6.43809 26.4376
91 2 43.0494 44.0088 45.734
92 2 27.6251 49.1079 31.7914
93 2 11.8864 40.7907 36.5271
94 2 53.0807 29.4887 10.7766
95 2 49.8925 45.2501 52.4031
96 2 13.3196 31.6751 33.1119
97 2 47.6243 22.8941 13.9955
98 2 28.3555 8.99898 54.8633
99 2 31.8274 45.8159 33.3179
100 2 13.8841 55.1916 29.9905
101 2 37.4578 14.4983 13.6134
102 2 54.6311 37.7791 20.8347
103 2 15.2599 11.767 6.87219
104 2 27.979 21.8079 47.4496
105 2 19.8731 12.6124 25.7193
106 2 8.59319 30.5774 33.0413
107 2 48.1886 40.077 22.3078
108 2 39.8563 34.4523 52.7716
109 2 21.9588 46.8134 9.19022
110 2 29.041 15.6776 13.4527
111 2 24.3642 52.7013 12.2142
112 2 39.4398 12.0973 14.6476
113 2 48.4164 31.9682 9.26807
114 2 39.8824 40.6765 32.6109
115 2 44.9982 38.7835 30.8313
116 2 43.9904 44.1894 54.0171
117 2 33.0877 10.1689 48.7192
118 2 35.1762 26.4366 19.821
119 2 17.3292 47.0143 8.75981
120 2 26.9189 23.8095 27.3562
121 2 17.2642 8.55559 50.2394
122 2 32.6565 40.898 14.4597
123 2 46.7703 46.2815 29.021
124 2 34.5772 23.4064 11.875
125 2 14.4813 9.42364 19.1003
126 2 41.9008 40.2382 55.6388
127 2 19.2217 6.16511 46.6045
128 2 55.1963 28.2105 40.0477
129 2 35.7758 18.8251 20.5891
130 2 50.4556 14.9396 52.3598
131 2 10.1433 53.0172 22.7248
132 2 34.342 43.3702 13.3605
133 2 40.3482 28.0145 20.3369
134 2 29.496 26.2211 49.257
135 2 35.183 39.2378 51.7693
136 2 11.9135 42.7385 24.2139
137 2 24.1214 30.6488 34.1303
138 2 51.5545 7.57786 38.569
139 2 10.4885 54.353 43.2728
140 2 21.4406 20.6864 27.3404
141 2 48.6388 21.2584 34.3443
142 2 31.5119 45.3098 53.1525
143 2 52.6254 9.23486 53.8479
144 2 21.4534 52.4266 40.7701
145 2 44.3865 9.03434 29.3559
146 2 29.5215 47.6351 53.9652
147 2 38.3572 31.9891 38.5877
148 2 27.035 12.7664 7.41863
149 2 35.8202 6.84006 11.1915
150 2 25.5741 27.1713 46.3269
151 2 21.1481 31.2036 17.9957
152 2 22.8358 47.8357 34.8829
153 2 24.0433 34.4344 14.9521
154 2 43.1764 10.9616 46.0206
155 2 40.0419 48.2911 25.6488
156 2 38.13 35.6871 17.6682
157 2 36.1022 43.707 33.017
158 2 54.1147 27.9151 33.0048
159 2 26.6395 47.4418 40.8727
160 2 32.7801 6.91477 15.6534
161 2 33.756 22.9283 7.45034
162 2 46.4798 6.47686 25.3393
163 2 48.9482 8.86664 44.8829
164 2 38.5028 42.9631 46.2659
165 2 35.617 17.5644 41.5166
166 2 33.918 26.1666 10.0726
167 2 28.922 36.5434 11.2164
168 2 13.6311 48.5766 54.8055
169 2 40.5334 25.4893 27.7668
170 2 19.1953 24.1386 27.9154
171 2 25.878 45.4436 8.54811
172 2 21.7183 17.1791 55.2836
173 2 16.6615 14.1297 42.6415
174 2 19.2496 6.43951 7.17263
175 2 21.7701 24.3888 24.6023
176 2 50.6016 11.3705 50.3026
177 2 53.6844 39.4358 8.95761
178 2 38.5547 30.3706 41.3674
179 2 24.1949 35.7752 47.4651
180 2 15.4327 36.5407 35.6685
181 2 13.9238 14.3135 44.9821
182 2 44.8724 24.8683 29.1169
183 2 52.5407 33.4122 29.278
184 2 12.2529 21.4635 26.3242
185 2 40.4815 14.5635 52.3653
186 2 7.68573 6.8006 10.8495
187 2 40.6369 34.0325 42.4734
188 2 54.074 31.5374 47.1506
189 2 9.13519 38.1333 33.874
190 2 38.4473 20.6752 7.88849
191 2 28.6874 42.2582 22.7399
192 2 41.8286 50.7519 16.7118
193 2 9.5362 25.8475 44.792
194 2 45.6914 48.7126 31.6039
195 2 8.6546 15.8744 35.7659
196 2 35.5555 52.092 28.419
197 2 20.7105 52.7689 11.0127
198 2 45.0937 13.108 24.7205
199 2 45.3782 23.7267 19.9276
200 2 12.137 35.8926 35.4635
201 2 15.7633 25.4904 19.0759
202 2 31.8551 16.1335 41.3875
203 2 28.6828 26.4024 26.7309
204 2 42.1874 45.2045 27.9301
205 2 27.2705 54.0762 49.3283
206 2 49.2025 10.5616 18.4827
207 2 12.9908 42.2461 47.3098
208 2 22.982 41.7533 27.4821
209 2 10.1556 36.5688 55.378
210 2 18.318 10.6512 18.4524
211 2 51.6517 20.8816 55.7937
212 2 46.2439 37.8537 33.2032
213 2 16.6799 45.7345 48.5169
214 2 16.5387 13.4623 10.012
215 2 15.2034 28.5301 20.7811
216 2 53.1556 25.1257 18.0988
217 2 9.72521 7.65012 38.9395
218 2 27.8367 22.2657 17.7903
219 2 11.8292 18.7781 24.4667
220 2 27.6311 20.0909 26.3369
221 2 27.0502 29.806 25.5473
222 2 50.9536 53.9735 16.8418
223 2 36.3605 52.6798 13.6833
224 2 21.0383 29.74 52.9608
225 2 26.6114 34.6986 44.3092
226 2 48.9222 46.7606 15.65
227 2 55.139 49.6442 22.1965
228 2 34.8819 43.986 44.4376
229 2 35.893 9.84102 35.4821
230 2 34.3681 18.092 27.5155
231 2 51.7628 23.4241 14.1897
232 2 37.7032 32.1712 13.8972
233 2 51.9447 40.3359 15.8916
234 2 21.1318 44.7965 36.9085
235 2 6.83298 42.477 41.651
236 2 38.0865 46.7567 17.4178
237 2 27.5351 32.6849 34.6277
238 2 48.3732 39.5143 9.08648
239 2 25.7052 26.0076 48.9827
240 2 13.6891 52.97 35.857
241 2 34.2294 39.0872 40.783
242 2 34.8381 48.4652 14.0662
243 2 28.1323 6.98238 50.0331
244 2 28.7294 31.5698 9.11236
245 2 52.809 28.6344 30.391
246 2 23.6198 20.9516 33.9084
247 2 8.50069 14.9385 19.3934
248 2 10.3073 29.0201 41.2288
249 2 52.3528 35.3587 22.3805
250 2 9.9039 8.7052 50.2469
251 2 33.7301 17.6982 18.4741
252 2 13.5119 11.4251 36.6288
253 2 21.164 37.9807 55.6228
254 2 20.0614 18.1826 35.7371
255 2 36.4678 36.515 14.7867
256 2 20.1979 23.5728 53.3247
257 2 24.5545 8.65227 36.8576
258 2 27.0989 32.7027 37.2698
259 2 9.22325 24.7699 9.72914
260 2 41.44 39.1147 46.5638
261 2 14.5333 36.0496 21.2986
262 2 54.9093 6.49927 51.2223
263 2 27.9091 36.8412 52.5403
264 2 12.5057 12.0301 11.5415
265 2 37.7964 33.2639 55.2819
266 2 13.2235 9.18204 40.5113
267 2 12.0363 46.5514 47.6445
268 2 15.5238 34.3226 51.3987
269 2 31.5405 9.32218 15.3064
270 2 43.0762 51.3528 43.8023
271 2 19.4775 52.8935 42.7804
272 2 14.8849 18.7482 28.5507
273 2 33.1759 39.4766 43.7164
274 2 43.19 38.6655 22.8063
275 2 7.55492 55.1938 43.7439
276 2 21.3981 26.3654 30.3769
277 2 53.2291 38.0345 23.4902
278 2 21.7687 22.2494 14.9516
279 2 7.2708 41.9389 48.2007
280 2 40.6132 17.8283 21.8207
281 2 38.1433 17.3242 19.758
282 2 37.8996 19.4419 29.8808
283 2 41.4894 24.9251 8.1222
284 2 22.5287 51.7312 36.7532
285 2 54.5483 46.6858 31.9741
286 2 30.2095 15.1546 20.8549
287 2 13.3869 22.1115 6.13747
288 2 12.6452 24.8755 10.1966
289 2 32.0869 10.6397 45.7102
290 2 13.0115 22.9383 52.6753
291 2 25.6215 52.8638 26.5148
292 2 15.738 50.3815 11.1473
293 2 32.3701 10.5579 20.7244
294 2 19.2669 26.7502 22.1947
295 2 42.7875 18.3913 49.6421
296 2 28.1926 51.8738 17.6618
297 2 41.0072 48.0145 17.6808
298 2 12.7407 14.6065 20.4158
299 2 42.6126 43.9067 31.139
300 2 52.03 6.7018 47.4792
301 2 47.5188 43.3931 51.1858
302 2 7.76249 55.2052 38.2789
303 2 33.6388 12.5406 41.4185
304 2 41.5736 14.0979 34.5869
305 2 38.6393 51.0175 24.5982
306 2 6.39425 32.5871 43.3413
307 2 35.5784 14.6293 35.52
308 2 29.335 45.2477 35.5325
309 2 48.1323 49.8105 32.5335
310 2 17.8416 10.3631 54.6829
311 2 23.8734 23.904 22.6704
312 2 53.0687 9.94677 27.4494
313 2 35.1791 42.3029 18.1904
314 2 53.7611 52.6495 55.2133
315 2 15.0894 36.5533 25.6523
316 2 10.1866 49.1866 21.5814
317 2 53.5773 10.4452 20.6152
318 2 28.1872 54.0289 32.3967
319 2 15.8794 41.7712 37.4709
320 2 12.7335 22.6635 34.2731
321 2 6.93697 9.28781 8.85823
322 2 22.2412 25.1619 49.9048
323 2 7.77593 18.6871 8.79337
324 2 54.6105 48.3372 25.8418
325 2 35.9099 40.171 35.9234
326 2 30.1604 44.2468 28.1863
327 2 45.4894 49.3891 40.4004
328 2 29.2044 39.903 24.1332
329 2 52.5001 55.5776 31.1738
330 2 45.9226 42.0775 22.8345
331 2 10.9481 12.6318 24.4129
332 2 55.3497 9.33431 15.8876
333 2 24.1747 29.9088 39.5862
334 2 27.3068 15.4778 40.6621
335 2 54.9515 53.9118 37.1156
336 2 38.9926 49.029 35.0259
337 2 33.583 25.8249 49.1331
338 2 17.7886 18.226 6.34201
339 2 45.8832 16.9859 23.6677
340 2 18.1867 31.9475 35.0115
341 2 23.1104 7.47075 50.2922
342 2 54.4434 48.84 38.547
343 2 54.7388 20.9541 17.413
344 2 19.3051 50.9677 37.3904
345 2 25.4022 7.65059 12.0726
346 2 18.6899 55.3784 54.4514
347 2 19.1615 26.7812 49.8329
348 2 54.0568 36.0632 50.107
349 2 34.0475 44.5585 54.3993
350 2 46.6205 9.28732 49.5698
351 2 12.0638 46.3634 6.67729
352 2 38.6425 49.9443 39.7518
353 2 38.5917 29.9375 11.7546
354 2 55.475 12.5486 54.6775
355 2 30.9756 33.327 28.5126
356 2 52.8184 29.8123 52.1166
357 2 37.9264 39.2837 48.568
358 2 11.2249 22.435 49.9152
359 2 24.723 21.6512 43.1491
360 2 26.1299 33.0184 12.3823
361 2 6.49609 51.7014 43.8246
362 2 34.0194 49.542 10.8336
363 2 52.139 10.0421 23.186
364 2 30.7557 33.061 23.9356
365 2 31.5101 9.10696 36.054
366 2 25.2916 42.4097 42.0409
367 2 9.51248 31.3108 10.6484
368 2 29.5052 26.7952 36.1967
369 2 34.6867 30.5094 37.2427
370 2 18.3475 13.5449 18.3476
371 2 24.4423 30.5248 17.0844
372 2 19.8825 47.0878 24.0024
373 2 30.9048 35.3007 33.8976
374 2 48.8615 31.5847 42.7887
375 2 39.578 17.2076 10.2943
376 2 39.7645 55.0361 26.725
377 2 23.1473 45.5705 11.8034
378 2 33.6764 34.3598 43.738
379 2 29.6925 20.8904 38.1831
380 2 16.0341 36.4895 32.0079
381 2 22.9055 44.7631 20.0758
382 2 26.8318 21.8805 54.3629
383 2 18.3753 55.817 22.3834
384 2 29.6556 29.8381 39.3622
385 2 20.3819 23.0319 11.7161
386 2 53.7341 34.6522 45.9639
387 2 55.6363 29.1118 46.1755
388 2 21.1824 10.4491 22.3245
389 2 22.4231 25.028 15.4024
390 2 24.0834 33.3741 52.0959
391 2 24.0899 28.8865 21.5165
392 2 13.1859 26.4852 46.4819
393 2 51.5445 42.4502 26.8582
394 2 28.6562 30.4726 15.9082
395 2 41.0414 50.8179 21.8735
396 2 48.988 55.3053 14.8318
397 2 21.7665 54.388 22.888
398 2 39.2806 30.9049 45.8109
399 2 44.7509 23.8502 41.4686
400 2 26.5092 37.9672 23.3018
401 2 22.0266 12.6148 54.791
402 2 8.66198 52.9372 45.6519
403 2 19.7615 25.8199 26.011
404 2 34.2642 48.6924 20.051
405 2 30.0155 44.6508 11.3132
406 2 39.3431 25.7879 11.8032
407 2 42.5963 35.2236 30.9062
408 2 43.9678 47.0348 16.7628
409 2 9.39782 32.6155 21.0281
410 2 13.4475 9.82978 45.3093
411 2 29.6373 41.8723 36.2289
412 2 37.6574 17.7974 24.4417
413 2 18.3877 31.536 30.3123
414 2 6.73913 22.2993 42.9068
415 2 15.4412 11.2876 43.0029
416 2 6.57071 12.0067 10.4311
417 2 25.0559 6.72477 52.9689
418 2 26.2977 41.084 14.3119
419 2 47.2718 14.1128 38.861
420 2 29.4213 49.4858 7.78836
421 2 33.1909 32.7376 47.0321
422 2 48.1768 30.4988 33.4155
423 2 53.0369 55.3349 28.1478
424 2 10.6705 33.3388 32.9789
425 2 20.2231 19.5757 19.0113
426 2 32.746 53.7258 6.73719
427 2 38.4949 49.5127 49.8033
428 2 22.7133 50.471 48.8288
429 2 32.1364 48.6203 25.9453
430 2 55.4757 23.7788 47.4224
431 2 34.0334 39.0353 21.7465
432 2 31.5759 17.4179 49.4481
433 2 31.2071 44.6691 8.62446
434 2 19.9305 15.3061 13.3547
435 2 37.4638 12.3412 35.7961
436 2 17.0765 37.8069 54.1314
437 2 30.8764 39.4357 35.1248
438 2 49.5162 27.5527 45.3702
439 2 28.5587 18.031 9.91278
440 2 15.4871 8.55602 9.6649
441 2 43.7173 12.0176 22.5375
442 2 51.0455 48.3728 23.8121
443 2 12.7817 7.63869 37.2482
444 2 36.9574 23.9608 6.64098
445 2 8.11678 37.1913 47.0042
446 2 16.0426 38.3254 14.5587
447 2 35.945 55.3615 30.1176
448 2 25.0679 43.1148 25.943
449 2 38.3944 9.65615 48.0963
450 2 32.1343 29.6668 35.6323
451 2 14.3714 26.4418 49.4877
452 2 53.4205 15.2608 40.7848
453 2 29.6475 7.32807 35.1407
454 2 48.6353 45.8508 6.77439
455 2 6.66924 37.7916 8.49565
456 2 33.6766 12.0125 14.7048
457 2 31.2555 37.1764 22.751
458 2 51.3685 9.73239 6.96819
459 2 9.96034 45.28 14.3676
460 2 15.4026 7.57671 46.475
461 2 39.4291 10.0493 19.1846
462 2 31.6286 24.4071 29.5328
463 2 10.25 7.38227 55.5423
464 2 39.0489 10.7478 10.5488
465 2 12.7067 37.6276 45.4279
466 2 42.383 29.8964 18.2535
467 2 27.1106 55.3595 27.4479
468 2 48.3762 41.4793 6.57085
469 2 10.677 42.3896 55.2432
470 2 52.8186 38.7017 18.0585
471 2 47.6941 41.7617 15.2753
472 2 45.6822 11.173 20.198
473 2 8.33039 52.3451 40.1276
474 2 25.791 12.0134 28.2958
475 2 47.1787 17.2559 54.9856
476 2 23.157 12.7484 26.5985
477 2 42.4811 23.6471 26.2757
478 2 31.0923 20.9562 30.1709
479 2 45.3803 43.9153 32.5694
480 2 30.1405 51.8727 39.5836
481 2 28.0903 18.7794 40.058
482 2 37.0567 6.19212 25.9797
483 2 15.3009 12.6334 24.9702
484 2 54.4725 53.8037 12.5649
485 2 26.2158 49.0611 14.5996
486 2 54.2108 25.8299 7.3725
487 2 38.9635 42.3749 52.6564
488 2 16.7728 49.3934 31.1625
489 2 13.2931 20.9466 10.6632
490 2 44.651 28.7828 20.3209
491 2 43.8317 19.4167 13.4311
492 2 44.25 8.28059 45.2003
493 2 49.819 14.3024 49.5769
494 2 9.62426 45.7188 10.4519
495 2 21.0322 43.764 47.2575
496 2 54.7631 46.5487 28.6848
497 2 12.3117 11.7156 7.77164
498 2 26.9435 38.0687 17.4592
499 2 11.64 35.5133 48.4556
500 2 16.2171 52.866 39.7842
501 2 24.468 14.8118 27.8704
502 2 41.4491 30.2198 35.6263
503 2 30.946 40.8472 52.4271
504 2 34.4741 10.0365 19.0994
505 2 30.5838 12.1442 13.6822
506 2 24.4135 50.0088 43.6509
507 2 29.7781 50.7147 25.4011
508 2 9.74252 26.177 53.7531
509 2 20.7397 28.8788 6.99743
510 2 51.7391 54.2264 49.4955
511 2 36.3216 29.7026 34.7719
512 2 6.58425 46.5595 20.7377
513 2 38.6821 46.4662 50.2568
514 2 8.80367 10.2443 11.5319
515 2 43.8942 21.9229 33.2674
516 2 50.4269 12.0525 30.5199
517 2 39.4199 15.1894 25.0115
518 2 38.2038 22.9618 25.3375
519 2 43.1651 40.4932 35.2174
520 2 53.2236 10.491 41.0312
521 2 19.8962 29.956 50.3735
522 2 40.9016 38.4984 41.1666
523 2 33.9725 39.9681 17.4116
524 2 49.5585 44.1145 13.3545
525 2 54.9687 41.7278 20.363
526 2 40.366 6.33184 51.0165
527 2 7.06908 18.8896 12.9584
528 2 23.9042 17.5814 24.72
529 2 47.5457 26.2251 33.3373
530 2 52.5126 32.7123 32.3155
531 2 24.8442 11.1186 12.7135
532 2 43.098 53.5095 47.7975
533 2 33.845 39.3138 55.8701
534 2 30.3205 23.8719 13.8503
535 2 17.0443 31.4508 16.8759
536 2 10.5055 14.3964 39.7445
537 2 20.374 46.0782 39.1228
538 2 31.4852 37.8538 39.4122
539 2 17.7892 42.1313 42.1541
540 2 50.0078 22.6032 45.5874
541 2 13.265 45.5841 32.3623
542 2 35.2931 25.4737 29.5921
543 2 44.8513 26.541 13.7072
544 2 38.1271 46.1627 53.2894
545 2 28.8977 35.1716 36.5942
546 2 36.2325 16.422 22.0509
547 2 25.0415 20.6696 24.8201
548 2 12.0863 15.9995 16.2341
549 2 11.0231 55.3914 14.0343
550 2 53.7701 43.9745 19.0146
551 2 18.9528 45.5219 6.114
552 2 50.0185 44.567 40.4551
553 2 27.8529 28.6363 18.2924
554 2 21.3477 26.2039 47.4089
555 2 44.4521 24.4429 10.1393
556 2 35.1477 18.8481 10.9911
557 2 21.751 36.147 12.8263
558 2 17.1622 41.7738 7.75138
559 2 47.5223 24.4086 43.1434
560 2 34.121 53.5834 47.5812
561 2 16.9767 32.5792 19.8134
562 2 21.927 32.7601 11.6199
563 2 37.5303 12.3967 38.903
564 2 39.71 38.885 51.7209
565 2 9.88413 16.8636 6.87315
566 2 53.7094 52.8876 45.4514
567 2 27.0117 13.1552 16.9808
568 2 46.7311 19.7698 17.6387
569 2 8.56903 44.4799 43.3011
570 2 51.5625 40.9083 12.7768
571 2 15.1306 32.3171 55.2577
572 2 11.4471 18.5937 50.2762
573 2 46.2811 31.3738 43.7266
574 2 42.2895 19.466 42.1465
575 2 37.8975 36.3228 48.9455
576 2 37.4282 20.0025 12.7868
577 2 38.8622 32.2247 28.3436
578 2 25.7712 26.421 33.9022
579 2 31.7264 49.2766 42.6932
580 2 25.729 24.23 13.5715
581 2 27.8329 35.3311 55.6962
582 2 50.4995 17.7886 48.9768
583 2 22.0582 30.972 37.8221
584 2 7.45491 47.0344 17.5081
585 2 52.2903 30.9788 55.1083
586 2 23.5608 6.18306 38.3443
587 2 10.2117 15.4862 46.6099
588 2 39.8608 16.2126 6.77061
589 2 44.7383 8.94339 52.1026
590 2 48.3949 50.7449 12.9483
591 2 52.969 23.078 21.0096
592 2 12.568 45.4327 21.3315
593 2 30.3941 14.9921 43.1967
594 2 42.3891 36.2325 46.6311
595 2 53.4689 33.9064 15.5963
596 2 49.0106 49.7793 29.3584
597 2 46.2217 21.9582 43.4643
598 2 42.5962 44.624 12.3583
599 2 45.8904 37.987 40.8267
600 2 23.9038 24.727 6.19684
601 2 48.8963 14.0259 32.7894
602 2 53.4294 41.5447 52.0515
603 2 38.1629 28.3642 30.675
604 2 54.8491 35.1475 53.1244
605 2 17.0306 10.1915 25.8981
606 2 31.3107 9.79831 25.0632
607 2 45.1769 14.5028 35.2235
608 2 15.1132 50.0083 46.0537
609 2 52.9414 39.6689 31.7547
610 2 35.7898 33.5498 29.3297
611 2 8.17509 54.5802 15.3472
612 2 28.1075 30.1738 43.5487
613 2 25.4533 17.932 37.6271
614 2 7.88865 41.2414 6.64947
615 2 26.9159 6.28977 34.7929
616 2 18.2728 43.0989 47.3054
617 2 25.4402 48.8336 54.5928
618 2 20.7033 42.6177 52.6037
619 2 36.9953 46.8879 28.7058
620 2 43.0558 25.7229 43.1986
621 2 35.1888 35.7707 32.908
622 2 53.3427 7.11469 36.4295
623 2 35.5425 55.0295 43.3147
624 2 39.7172 35.9458 30.7285
625 2 11.6514 15.2982 28.733
626 2 33.1407 18.6164 30.5816
627 2 13.1576 37.3915 16.6971
628 2 15.9727 41.3975 46.2192
629 2 26.3244 38.0036 6.92654
630 2 28.6039 18.5847 24.2098
631 2 10.2457 52.192 32.7317
632 2 37.2713 7.89557 22.2176
633 2 17.2937 37.321 27.8182
634 2 8.93493 22.4941 15.6347
635 2 36.9126 37.7382 53.5733
636 2 7.98494 19.0506 49.5825
637 2 42.9737 35.5102 12.1012
638 2 45.9548 19.6656 22.2931
639 2 24.1901 18.4502 20.4462
640 2 40.8001 47.2914 9.63223
641 2 33.6056 10.5033 55.2588
642 2 43.9889 17.7957 46.3871
643 2 51.2582 46.8089 21.2295
644 2 39.7989 43.2117 14.4933
645 2 46.262 31.0152 11.3065
646 2 32.5465 53.6571 40.6124
647 2 28.7823 9.9767 7.66585
648 2 32.6166 29.9797 53.2907
649 2 18.2305 50.0129 39.7636
650 2 55.6391 30.1913 21.1335
651 2 19.2901 38.2427 37.7863
652 2 20.7756 37.5303 50.6568
653 2 53.6312 21.9373 8.21409
654 2 11.0381 44.4484 34.6519
655 2 16.3825 35.2259 55.4236
656 2 53.5241 33.1135 26.1506
657 2 54.229 36.0471 30.0536
658 2 8.66179 18.6223 30.9045
659 2 40.2544 30.4895 6.81463
660 2 21.0643 21.9051 22.8151
661 2 47.9437 13.6586 23.7778
662 2 28.4674 33.0069 16.6419
663 2 13.5922 22.3977 23.3384
664 2 39.6579 40.9518 20.9683
665 2 21.1733 6.86262 26.7383
666 2 26.1041 45.1666 48.4123
667 2 45.0626 38.8192 20.3564
668 2 12.6124 28.5174 9.02412
669 2 53.9699 15.8338 35.5238
670 2 50.1519 40.0697 33.3949
671 2 27.2298 34.0116 8.29115
672 2 21.0724 7.21505 16.9174
673 2 32.7704 15.3541 19.1975
674 2 14.7099 43.2937 9.64063
675 2 45.4758 6.74003 40.2626
676 2 43.8839 13.1083 41.5559
677 2 54.0175 41.4122 27.2693
678 2 54.3839 14.9939 32.6993
679 2 18.5845 15.0476 26.9924
680 2 32.4879 21.0025 44.9613
681 2 20.2723 10.7809 9.45334
682 2 52.7749 40.6803 39.0157
683 2 29.9235 34.442 9.15023
684 2 26.7236 9.9849 40.8448
685 2 38.9773 24.0844 53.9661
686 2 9.98019 35.9265 24.1704
687 2 49.3469 31.0905 30.3557
688 2 22.684 17.4403 52.1788
689 2 6.45043 42.4243 45.6915
690 2 48.9244 6.31518 36.7336
691 2 32.6725 44.6808 40.5903
692 2 33.4152 36.8686 16.6546
693 2 7.55696 18.6803 26.3336
694 2 13.7675 15.0847 11.1764
695 2 30.1086 24.5801 46.6988
696 2 43.7313 43.2383 18.9528
697 2 8.70764 23.9109 27.2856
698 2 54.4787 47.6127 55.0734
699 2 55.0578 51.4905 52.6084
700 2 7.47917 34.9492 39.5672
701 2 14.96 44.0888 6.66961
702 2 24.9827 15.4035 43.1096
703 2 6.453 49.0161 19.4421
704 2 34.4663 19.3042 53.8716
705 2 11.6796 37.9001 50.4311
706 2 31.6401 41.7047 7.82493
707 2 20.3177 18.402 23.5325
708 2 23.4133 32.7643 23.5749
709 2 33.4968 6.39806 47.259
710 2 9.72442 29.4942 54.2047
711 2 26.041 38.1994 27.8312
712 2 34.1979 20.5826 47.4435
713 2 37.3254 37.7731 11.476
714 2 20.7671 19.473 15.3199
715 2 16.8548 22.7023 20.2315
716 2 41.6627 45.5049 49.6915
717 2 30.2994 13.8834 31.1164
718 2 19.09 31.8635 42.3648
719 2 27.6534 47.0991 44.7438
720 2 45.3001 29.438 33.6913
721 2 11.7419 48.8009 28.4209
722 2 17.591 46.538 13.2243
723 2 21.8327 35.2723 55.7095
724 2 40.869 10.1009 26.6721
725 2 17.9368 37.5362 18.9513
726 2 6.96612 42.6895 38.396
727 2 26.1744 45.8245 28.7067
728 2 53.2394 9.35343 50.7323
729 2 49.2054 36.8012 21.4924
730 2 8.74396 21.9544 48.3233
731 2 36.7947 27.3054 27.9628
732 2 46.1375 41.1686 52.6784
733 2 40.2593 45.5036 25.9492
734 2 41.5668 28.1042 27.8575
735 2 19.3764 13.201 49.2178
736 2 16.2426 8.06248 41.9485
737 2 31.7118 32.1132 37.2271
738 2 13.3732 47.6692 12.1599
739 2 46.8235 35.3379 45.5868
740 2 34.1296 42.8478 9.58611
741 2 30.2462 9.11068 49.3011
742 2 15.7053 22.9573 33.9371
743 2 34.7252 6.33903 35.9428
744 2 34.2278 35.8502 30.4937
745 2 9.05856 50.2403 14.9805
746 2 22.3427 15.5617 17.5791
747 2 55.3964 8.75237 37.1626
748 2 19.2607 24.7667 39.3453
749 2 15.4704 20.2114 35.8892
750 2 38.8617 33.3096 32.7545
751 2 20.0994 44.0964 33.4945
752 2 20.1336 45.6331 19.8395
753 2 6.11902 48.6486 50.9543
754 2 48.1097 44.4279 23.5073
755 2 21.7726 7.20228 22.0068
756 2 8.24945 41.8598 12.5931
757 2 17.9026 44.3962 31.2439
758 2 34.0618 19.5642 35.6462
759 2 12.1627 34.0629 52.3689
760 2 43.5532 14.5903 31.8232
761 2 36.565 33.8388 45.0801
762 2 28.9624 38.4867 19.3626
763 2 23.904 8.93517 23.5494
764 2 16.03 11.8915 48.2739
765 2 12.5517 30.0844 54.3581
766 2 23.5543 25.9386 10.9838
767 2 50.7406 36.1553 6.47362
768 2 33.209 32.7539 21.7313
769 2 49.9327 44.4176 9.99193
770 2 20.8551 18.082 44.9276
771 2 19.851 24.138 19.5507
772 2 48.2726 44.7768 18.1003
773 2 27.3114 8.16487 38.5454
774 2 22.6737 21.5337 37.2074
775 2 12.0225 18.1518 37.3965
776 2 29.0143 51.8757 30.7586
777 2 33.3131 11.322 51.702
778 2 17.4109 20.8192 44.912
779 2 11.7942 12.5631 28.0503
780 2 7.34788 39.0671 31.5838
781 2 11.9578 30.6188 24.6865
782 2 35.0141 36.6793 19.1563
783 2 7.97064 30.4594 39.171
784 2 16.0582 37.5494 10.2309
785 2 15.9476 55.8222 50.4303
786 2 34.0003 41.7479 29.2139
787 2 16.3036 10.6314 52.4624
788 2 24.1974 18.8647 9.42491
789 2 38.9737 20.0238 39.3848
790 2 55.0333 48.9462 30.7338
791 2 7.58948 11.987 19.2013
792 2 9.26472 7.73036 31.031
793 2 10.7983 11.4159 40.9983
794 2 51.2701 6.4673 54.2707
795 2 15.866 10.1324 35.4818
796 2 10.3912 43.6003 17.2608
797 2 7.30816 39.7637 20.9023
798 2 25.5946 8.19197 48.3654
799 2 50.9773 53.0791 31.1482
800 2 44.7136 47.5008 19.6834
801 2 15.4263 47.2774 28.3655
802 2 54.9535 45.0537 23.2522
803 2 51.3481 33.1701 8.65902
804 2 21.2612 19.5955 48.6399
805 2 26.7962 44.9296 18.2965
806 2 38.5329 54.7272 22.0886
807 2 11.4113 52.0646 18.8673
808 2 14.8571 43.1942 21.3883
809 2 43.1223 17.5354 31.0661
810 2 41.8355 31.0883 30.9122
811 2 45.1375 22.5014 49.8166
812 2 18.3143 17.7652 17.4249
813 2 40.7076 37.5317 17.5961
814 2 41.5304 28.0057 11.1986
815 2 44.549 11.2731 9.99891
816 2 54.9086 6.42349 45.7579
817 2 37.3061 36.7097 38.8643
818 2 24.9847 30.1063 55.7498
819 2 19.4529 32.8542 13.3604
820 2 38.6467 6.25541 9.6041
821 2 54.6801 27.244 52.6492
822 2 27.4974 41.9314 40.3492
823 2 43.8986 12.1619 15.4298
824 2 7.28915 25.1428 14.9375
825 2 17.7741 27.4027 36.2247
826 2 16.3557 51.0079 14.4694
827 2 36.5576 11.8507 20.4574
828 2 52.7244 32.5763 43.2672
829 2 31.0429 29.6506 9.30576
830 2 29.2785 54.8566 52.1591
831 2 22.2559 32.4884 20.7915
832 2 52.8513 17.7788 37.9959
833 2 42.5523 52.3569 27.1123
834 2 19.0062 54.5038 40.2883
835 2 24.6648 11.3096 53.7233
836 2 48.9214 34.5047 28.3596
837 2 16.3855 26.1971 32.3768
838 2 26.963 32.3676 55.3699
839 2 34.1754 14.4006 33.1837
840 2 13.2064 14.5985 25.8195
841 2 48.808 49.1089 39.8772
842 2 26.618 50.4438 36.0258
843 2 24.5945 40.6808 46.528
844 2 22.527 28.5987 19.1102
845 2 38.1441 8.40674 37.0537
846 2 44.7704 25.5423 49.8803
847 2 19.7467 15.5869 16.0524
848 2 44.7113 17.1029 41.0873
849 2 37.304 52.2003 51.3413
850 2 31.9104 50.6811 20.4812
851 2 12.4398 45.49 18.034
852 2 36.1087 29.4127 50.1448
853 2 14.153 16.3352 36.9122
854 2 32.9152 10.8248 27.7193
855 2 54.705 12.7144 22.7613
856 2 32.638 48.2104 34.0861
857 2 33.4897 41.8267 50.9421
858 2 46.8959 9.85111 43.3006
859 2 33.7383 6.67754 33.3216
860 2 51.4581 7.9916 33.4179
861 2 16.2163 22.1312 9.52679
862 2 36.0391 31.9922 17.2231
863 2 36.973 34.0095 24.5315
864 2 49.0589 10.2695 47.7454
865 2 39.1117 50.6999 52.7394
866 2 34.1609 25.994 36.6986
867 2 32.5396 52.2267 11.9433
868 2 7.11292 7.54315 14.1144
869 2 55.3155 50.8863 16.7564
870 2 32.2482 36.8391 42.3229
871 2 28.5347 27.0976 33.241
872 2 16.8892 54.1092 25.1313
873 2 42.121 41.7495 37.9347
874 2 23.1262 45.2661 32.464
875 2 55.6273 7.85846 54.5283
876 2 16.9304 48.9709 37.3441
877 2 49.8742 16.6814 16.4832
878 2 50.8402 30.2949 44.7255
879 2 42.4409 21.8958 30.8749
880 2 41.0076 48.4082 28.2524
881 2 32.0477 55.2086 43.4759
882 2 47.7305 54.6385 48.2044
883 2 29.8777 19.9773 48.9077
884 2 52.2701 17.6212 42.694
885 2 44.0597 18.5828 34.0826
886 2 39.4291 36.6184 33.8581
887 2 19.5516 19.5317 8.24929
888 2 14.6576 46.2318 52.1687
889 2 13.1891 52.0904 10.4853
890 2 16.82 22.6162 23.244
891 2 21.2178 28.3062 28.2659
892 2 19.3829 14.0219 35.0763
893 2 16.7108 55.5082 38.2835
894 2 21.2541 48.0754 16.1649
895 2 10.5641 9.36861 28.602
896 2 7.29659 54.2403 22.6498
897 2 45.8922 52.3998 6.99849
898 2 36.1355 11.4292 48.3141
899 2 26.3815 11.034 35.5066
900 2 18.9719 23.1423 34.8845
901 2 26.6132 16.8025 28.7734
902 2 29.897 29.3672 31.8515
903 2 17.1458 18.2695 49.7833
904 2 48.6542 50.597 19.9037
905 2 25.4585 48.3823 19.6781
906 2 41.0443 29.3444 43.6054
907 2 45.2499 15.4881 27.7492
908 2 13.7603 39.4695 50.2303
909 2 26.6165 37.6637 10.1071
910 2 54.8297 32.421 36.7718
911 2 53.3759 47.034 50.3696
912 2 27.8216 27.2819 22.2279
913 2 49.3358 49.3865 26.1332
914 2 6.12171 52.9792 9.24141
915 2 36.4382 17.5405 49.8343
916 2 38.1496 43.675 36.937
917 2 9.19108 34.3036 9.60759
918 2 36.4413 27.8889 43.5317
919 2 41.7181 51.9878 38.2229
920 2 20.6395 29.2097 31.5164
921 2 48.9604 11.5618 26.0822
922 2 31.1959 24.5022 35.9525
923 2 16.4047 25.6918 14.1446
924 2 15.3943 34.4898 45.0089
925 2 27.4134 44.3536 43.5593
926 2 14.8472 18.2189 7.81754
927 2 50.4197 21.2973 26.9564
928 2 52.2917 13.0495 23.8407
929 2 48.7523 34.1304 15.5583
930 2 49.8266 21.9384 10.1456
931 2 47.8005 14.6276 20.5437
932 2 39.6907 25.3895 49.7222
933 2 10.8543 54.8922 38.9981
934 2 48.5775 28.6985 36.7249
935 2 48.8593 42.4612 30.8283
936 2 33.4971 7.19962 29.0142
937 2 48.6228 29.2048 49.0724
938 2 35.9486 32.0596 51.4115
939 2 28.1129 22.9147 22.7829
940 2 42.0277 36.6344 38.4458
941 2 44.6954 25.2925 36.3737
942 2 26.3956 6.43357 55.6182
943 2 47.2472 46.9379 44.7071
944 2 22.952 34.4369 34.6489
945 2 52.4026 43.863 7.09225
946 2 8.67378 38.9232 24.5437
947 2 55.0733 15.5585 25.8272
948 2 49.7324 9.36573 27.652
949 2 42.1453 30.1059 25.8932
950 2 20.8268 49.4881 28.4645
951 2 50.3622 9.00802 11.7886
952 2 7.17581 44.1784 18.8357
953 2 32.4483 9.05144 7.68508
954 2 45.7975 53.4053 16.3797
955 2 29.6032 16.374 32.269
956 2 18.5774 28.7531 20.3471
957 2 53.8367 10.3792 30.6062
958 2 6.56313 7.47514 28.0505
959 2 47.3048 6.22126 51.0561
960 2 6.08791 50.2692 36.0468
961 2 19.7092 45.516 27.0042
962 2 6.84264 46.1062 35.9176
963 2 48.1131 13.3118 41.6288
964 2 52.655 55.7375 25.3495
965 2 50.968 39.1927 22.4541
966 2 32.7257 39.7336 27.654
967 2 8.54351 33.499 28.4835
968 2 9.80529 46.21 21.8767
969 2 42.593 47.7952 55.5814
970 2 6.16822 32.6644 52.9159
971 2 25.1603 36.2761 21.3079
972 2 10.9309 42.6218 45.136
973 2 21.4148 40.8321 44.2452
974 2 53.2441 26.1634 10.6062
975 2 35.7913 51.0352 21.1568
976 2 43.9478 31.8593 27.1941
977 2 42.5824 33.7904 54.034
978 2 48.5008 46.2756 41.9937
979 2 42.7958 47.5619 12.9509
980 2 44.7882 22.0432 12.2754
981 2 14.9787 39.1957 39.6463
982 2 40.2519 38.0243 10.0837
983 2 23.3916 18.1429 16.1725
984 2 39.497 27.5954 25.3785
985 2 49.0583 37.1252 38.3268
986 2 10.8859 29.5326 20.9026
987 2 35.3814 28.7653 29.9421
988 2 35.9997 21.514 39.1279
989 2 55.805 21.6033 22.2236
990 2 42.486 42.9862 41.1324
991 2 14.5494 27.3821 10.6214
992 2 7.83961 16.9065 38.5785
993 2 16.9076 34.2473 33.9016
994 2 13.9686 26.851 32.9924
995 2 30.9966 40.1963 18.1134
996 2 29.2367 34.8537 50.3358
997 2 52.038 24.4207 8.47379
998 2 6.41773 35.4867 16.4807
999 2 6.42739 19.0935 39.3627
1000 2 18.8728 22.0214 14.2711
1001 2 19.2114 8.35769 25.7383
1002 2 11.8397 54.7134 54.0884
1003 2 52.089 50.9178 38.6024