ITEM: TIMESTEP
0
ITEM: NUMBER OF ATOMS
9088
ITEM: BOX BOUNDS xy xz yz pp pp pp
6.0891273464557107e+00 5.5841810445745352e+01 -5.7081983288003945e-15
6.0891273464557161e+00 5.5841810445745352e+01 0.0000000000000000e+00
6.0891273464557161e+00 5.5841810445745352e+01 0.0000000000000000e+00
ITEM: ATOMS id type x y z 
1 2 17.1872 54.4122 35.0123 
2 2 38.2117 44.5973 55.4272 
3 2 26.5385 15.013 42.6568 
4 2 50.0046 50.2151 48.0084 
5 2 46.6016 39.4166 50.9045 
6 2 18.2594 33.3906 24.3191 
7 2 49.7447 43.8804 41.6015 
8 2 10.4312 14.6626 37.3455 
9 2 41.4321 27.1461 49.9881 
10 2 35.2872 24.0986 52.2171 
11 2 11.2199 15.4955 46.5897 
12 2 38.7364 29.4935 17.8856 
13 2 46.3632 53.1866 21.8981 
14 2 32.1791 35.2173 52.3343 
15 2 26.6377 14.3497 17.2087 
16 2 21.0024 22.0054 24.3976 
17 2 49.6301 41.9642 28.4103 
18 2 17.578 29.1931 51.8805 
19 2 50.2887 37.5426 46.3952 
20 2 51.6888 38.4876 37.0728 
21 2 6.52878 24.9444 15.288 
22 2 12.1203 28.4445 34.1502 
23 2 8.02745 42.1853 27.4987 
24 2 40.6066 46.2568 40.3134 
25 2 24.0852 49.5815 21.7218 
26 2 26.093 13.3984 26.074 
27 2 15.4914 7.1862 12.7058 
28 2 30.7521 50.102 48.7419 
29 2 53.2507 21.6589 28.8008 
30 2 47.4647 16.2112 17.7931 
31 2 22.3252 53.4126 6.92754 
32 2 42.5394 49.3593 44.1273 
33 2 42.2686 16.1548 34.0018 
34 2 20.7074 40.6394 30.3538 
35 2 15.0998 42.5948 9.28631 
36 2 23.2914 8.38659 50.5708 
37 2 20.5959 53.6278 39.3178 
38 2 6.28241 11.6104 17.2726 
39 2 15.1207 15.1837 46.1511 
40 2 9.95212 44.703 15.8073 
41 2 33.5213 55.4465 34.6826 
42 2 53.6745 10.1205 36.8801 
43 2 50.6061 50.9642 39.1152 
44 2 12.0046 38.069 17.6756 
45 2 7.0956 29.9853 6.48869 
46 2 27.808 17.0881 50.6585 
47 2 48.2497 7.64356 30.247 
48 2 13.3436 29.9468 20.7771 
49 2 14.5915 46.089 48.8477 
50 2 33.2561 26.0165 15.5332 
51 2 9.08495 35.8754 52.5025 
52 2 8.24025 35.0187 9.98286 
53 2 49.8044 41.9092 54.1606 
54 2 26.8973 9.75876 17.4985 
55 2 48.0844 28.2248 47.6909 
56 2 31.1534 48.8629 55.604 
57 2 33.6486 36.1156 40.4533 
58 2 34.6885 41.9469 48.0566 
59 2 48.9508 53.7642 43.5369 
60 2 34.1494 33.7864 10.1948 
61 2 15.5327 37.0775 24.7793 
62 2 7.51328 44.1492 35.2339 
63 2 35.3189 45.5378 55.2607 
64 2 51.2649 41.8529 45.7491 
65 2 25.0047 34.1304 43.0122 
66 2 24.7591 17.7603 20.8165 
67 2 42.6009 53.9553 12.1613 
68 2 33.762 25.1804 46.5013 
69 2 11.1471 48.1827 22.3959 
70 2 39.2481 45.4664 52.4804 
71 2 50.8467 44.3711 26.0971 
72 2 17.0753 44.2454 44.052 
73 2 35.5755 44.5097 11.6136 
74 2 9.13604 53.2778 15.5476 
75 2 35.4595 18.4409 23.8692 
76 2 37.3436 46.9495 11.7944 
77 2 12.5662 18.3521 21.2767 
78 2 25.2949 29.1436 47.5242 
79 2 31.7941 15.1066 22.4961 
80 2 21.0631 9.53796 52.4786 
81 2 17.9468 46.8619 17.9441 
82 2 52.8797 14.1813 42.6994 
83 2 53.3266 42.2734 18.8037 
84 2 25.7819 42.0641 54.8837 
85 2 18.1152 47.2888 35.8703 
86 2 15.8979 44.343 23.7747 
87 2 8.1484 38.1981 48.7783 
88 2 46.6805 25.5571 7.12196 
89 2 38.4876 54.0237 32.9886 
90 2 10.035 27.4116 14.1747 
91 2 18.464 15.6375 34.4426 
92 2 52.6548 20.0773 20.3496 
93 2 38.2811 8.47613 24.7982 
94 2 27.7062 51.1922 47.9713 
95 2 25.0873 16.9368 40.4926 
96 2 37.1137 53.1569 20.6348 
97 2 23.1534 44.324 52.3154 
98 2 53.4651 29.8907 42.6051 
99 2 7.26871 17.1955 21.5209 
100 2 38.6533 26.7433 18.282 
101 2 12.4961 35.5344 51.4951 
102 2 28.2618 9.24064 9.51684 
103 2 40.2042 32.8635 44.8863 
104 2 53.347 43.2043 35.352 
105 2 45.1287 33.7382 14.2176 
106 2 34.325 51.3753 20.8359 
107 2 23.7907 11.3851 10.5814 
108 2 15.0576 55.7865 41.6473 
109 2 47.1951 19.9357 45.5244 
110 2 54.2583 36.7593 51.6144 
111 2 48.4457 26.0007 49.7341 
112 2 15.0385 33.0083 51.4589 
113 2 21.2851 53.2493 46.6134 
114 2 15.4448 12.7123 21.0983 
115 2 20.8725 10.4844 19.2936 
116 2 19.9678 14.0718 42.7746 
117 2 8.88682 31.4901 37.2689 
118 2 10.5016 47.7588 8.1313 
119 2 42.7499 17.8477 46.6584 
120 2 50.8857 45.3751 15.2223 
121 2 41.9887 28.0708 37.8641 
122 2 8.1774 12.4283 52.2582 
123 2 22.1505 17.3642 17.3691 
124 2 7.95246 47.1474 51.773 
125 2 40.8928 32.558 6.37777 
126 2 17.7672 12.1959 43.5733 
127 2 45.0946 27.3161 34.7444 
128 2 30.7279 49.505 28.5183 
129 2 11.0528 40.4494 8.44151 
130 2 26.006 36.148 41.0146 
131 2 36.9407 25.192 9.70778 
132 2 9.84423 15.266 51.29 
133 2 18.1345 46.9293 55.7078 
134 2 54.5184 47.2889 37.1843 
135 2 11.857 11.6744 40.5423 
136 2 37.4949 13.1742 12.2168 
137 2 48.999 55.0135 20.6238 
138 2 26.1154 29.005 26.4869 
139 2 36.2235 26.5836 30.3468 
140 2 44.4304 46.2585 21.0001 
141 2 24.1495 42.5997 22.6019 
142 2 7.15534 16.9526 41.3064 
143 2 28.1891 30.0011 42.3856 
144 2 46.8347 24.2947 28.9418 
145 2 20.1181 30.2509 17.3455 
146 2 54.6486 19.4137 42.1506 
147 2 14.1491 53.4706 26.4792 
148 2 52.4128 33.8463 45.5613 
149 2 11.2949 27.4041 49.1826 
150 2 50.2676 48.1742 34.2463 
151 2 44.4865 51.9177 6.45129 
152 2 48.2695 19.6457 23.2822 
153 2 49.2655 55.7898 52.7831 
154 2 18.3039 32.4844 34.2133 
155 2 16.1799 19.6898 13.7553 
156 2 13.2188 6.83536 55.4202 
157 2 11.3458 15.017 20.7609 
158 2 28.1383 49.2581 18.9619 
159 2 51.8049 19.067 29.2809 
160 2 8.05351 27.9461 53.7962 
161 2 9.69618 47.0196 49.1353 
162 2 22.0086 27.7825 13.606 
163 2 23.7043 28.6231 31.9623 
164 2 13.7632 14.364 34.7256 
165 2 10.776 38.9911 29.6383 
166 2 7.3899 44.2363 47.1217 
167 2 54.3815 7.6907 48.626 
168 2 38.1774 19.5826 43.1848 
169 2 16.1349 46.7764 15.948 
170 2 44.1786 45.0415 15.996 
171 2 51.1867 17.1057 46.3393 
172 2 46.9341 38.7153 43.315 
173 2 41.607 35.1506 31.1643 
174 2 46.4192 27.1066 45.3801 
175 2 47.3553 46.4135 12.8911 
176 2 25.9841 32.4859 38.1286 
177 2 29.1157 10.7068 47.4042 
178 2 13.6224 52.7612 31.3516 
179 2 49.5567 6.6879 35.3634 
180 2 37.9411 10.5222 22.4803 
181 2 38.7094 35.2614 33.0354 
182 2 20.3566 45.7061 17.153 
183 2 27.7788 53.7146 18.2846 
184 2 37.3087 42.2889 14.4081 
185 2 16.0646 35.6198 40.4804 
186 2 32.8116 27.6819 48.8371 
187 2 13.3889 54.5507 29.1583 
188 2 29.8636 52.6689 35.8045 
189 2 34.5684 7.76576 22.4486 
190 2 13.0943 42.2474 46.115 
191 2 53.9109 13.6465 10.8452 
192 2 17.6119 21.8427 54.7725 
193 2 34.8369 46.8571 32.7404 
194 2 21.297 19.8648 19.6835 
195 2 33.7167 37.1725 23.7818 
196 2 11.1787 23.437 16.6486 
197 2 49.6753 23.8375 50.7271 
198 2 20.8119 34.7878 12.2949 
199 2 21.153 44.4548 8.20251 
200 2 36.9958 6.31198 24.9435 
201 2 40.16 50.6748 55.3885 
202 2 7.42959 37.8037 29.5053 
203 2 54.0821 48.1816 15.5797 
204 2 17.6645 16.1241 16.0151 
205 2 53.7287 24.376 38.7495 
206 2 24.5764 31.9726 6.37716 
207 2 38.4289 13.5106 35.9084 
208 2 48.2342 13.456 15.1943 
209 2 35.4343 7.2247 44.2629 
210 2 45.0284 30.3514 6.65526 
211 2 26.9252 41.7613 44.4591 
212 2 22.2707 9.4736 21.9238 
213 2 41.9213 16.8659 36.8162 
214 2 42.5718 31.9854 49.8911 
215 2 40.4483 50.1119 9.34692 
216 2 29.1689 46.316 6.73067 
217 2 34.5949 28.909 27.3158 
218 2 55.2284 44.2059 55.0235 
219 2 34.9741 41.6016 11.982 
220 2 52.6313 41.1666 14.8151 
221 2 51.3974 48.447 15.2923 
222 2 26.2285 25.4861 54.4227 
223 2 11.5507 24.6313 51.3876 
224 2 45.409 51.247 41.3893 
225 2 51.9738 7.76248 33.351 
226 2 24.7357 18.195 54.0348 
227 2 30.535 21.2118 10.6124 
228 2 10.6729 14.6327 32.4196 
229 2 10.9223 30.8877 23.5086 
230 2 9.57901 39.5989 16.0832 
231 2 27.4462 45.0421 51.8843 
232 2 13.2617 53.5475 51.1212 
233 2 27.4089 11.7888 53.6448 
234 2 46.5718 16.044 25.195 
235 2 31.9821 14.0095 29.7461 
236 2 14.6091 15.1953 54.5487 
237 2 52.8147 54.1905 22.7771 
238 2 21.8888 12.9847 45.068 
239 2 50.7082 46.7881 36.8555 
240 2 38.3412 23.5371 27.3447 
241 2 9.55906 10.1667 29.158 
242 2 10.3306 19.9872 51.879 
243 2 53.3754 27.8241 38.096 
244 2 54.3538 52.637 47.5504 
245 2 25.8232 46.8276 15.7084 
246 2 48.2839 42.5553 22.2072 
247 2 34.0383 36.0805 7.24277 
248 2 35.4239 50.1371 29.1597 
249 2 28.5021 6.21019 11.1084 
250 2 35.2322 29.4458 38.2899 
251 2 55.4821 38.9112 50.7451 
252 2 37.7501 32.5417 24.8495 
253 2 46.4421 9.45007 43.9134 
254 2 45.0465 38.9884 23.8827 
255 2 12.2547 8.02275 52.9896 
256 2 45.2898 44.4072 41.0197 
257 2 49.867 29.7773 24.7939 
258 2 50.6962 51.5486 23.1773 
259 2 36.7027 49.2803 52.8576 
260 2 17.5428 11.7942 36.9885 
261 2 39.7098 6.95397 9.3702 
262 2 30.5939 27.3729 38.7591 
263 2 52.7963 8.43321 40.5615 
264 2 37.7439 32.9966 49.2117 
265 2 13.3256 54.1519 43.6375 
266 2 40.7336 30.114 28.23 
267 2 37.3603 17.8392 36.2581 
268 2 40.3823 55.1776 39.5567 
269 2 6.8097 30.639 53.1992 
270 2 18.4385 22.9336 32.074 
271 2 47.4053 23.7771 32.4701 
272 2 39.9898 39.6778 16.5976 
273 2 6.63011 10.3336 32.368 
274 2 18.5946 9.95117 11.0857 
275 2 33.2333 26.5785 31.5568 
276 2 45.4995 47.5867 18.788 
277 2 29.2546 54.9834 13.9401 
278 2 46.5969 46.9635 51.7561 
279 2 33.6273 14.7811 36.6099 
280 2 16.0671 39.4539 9.94346 
281 2 13.4181 38.9113 7.89763 
282 2 13.4136 40.7259 18.3977 
283 2 16.2124 45.7599 46.3929 
284 2 47.5941 23.3245 25.0416 
285 2 29.7036 17.6101 19.9723 
286 2 6.40403 36.6569 8.95385 
287 2 38.4944 43.3218 43.9836 
288 2 37.4136 46.5637 48.3439 
289 2 7.43422 32.0747 33.7901 
290 2 38.2755 43.7921 41.1225 
291 2 50.9021 24.1474 14.5261 
292 2 41.1911 21.8594 48.6718 
293 2 7.94923 32.1083 8.9407 
294 2 44.5824 48.1889 9.77667 
295 2 17.5117 41.3905 36.4896 
296 2 53.3756 23.2422 55.434 
297 2 16.1739 19.0306 6.45055 
298 2 38.2249 35.4861 8.9548 
299 2 18.2417 15.0649 19.0303 
300 2 25.018 26.0903 33.8022 
301 2 22.0358 16.0478 41.2527 
302 2 32.2294 22.4843 30.1984 
303 2 9.05717 33.9466 29.5025 
304 2 16.5948 35.6535 22.4396 
305 2 14.2048 22.7567 12.9163 
306 2 32.2127 53.8171 32.1679 
307 2 11.4003 35.7165 24.076 
308 2 54.5746 16.9201 23.6828 
309 2 23.8924 21.2264 20.6694 
310 2 43.5458 31.3801 43.0732 
311 2 48.4856 43.0547 10.6339 
312 2 28.76 31.2884 15.5594 
313 2 11.2803 12.9629 7.99097 
314 2 28.7284 24.1011 43.5643 
315 2 38.5585 7.98287 12.3264 
316 2 35.9101 20.2882 9.82591 
317 2 29.1815 31.6448 8.77747 
318 2 51.4698 24.3754 19.4209 
319 2 42.7885 10.0334 24.1688 
320 2 37.8363 43.547 22.6636 
321 2 32.2604 30.0807 46.6985 
322 2 47.7245 46.0237 38.3574 
323 2 32.8695 39.6911 47.1174 
324 2 30.2008 19.8751 14.2357 
325 2 11.7238 11.8787 23.9647 
326 2 55.6637 15.7412 16.6003 
327 2 20.9403 21.5318 28.4063 
328 2 54.8631 11.4893 12.4466 
329 2 28.2924 27.305 19.2365 
330 2 21.4902 13.5131 11.1072 
331 2 36.2796 33.822 12.7429 
332 2 31.1941 30.4188 54.1119 
333 2 53.1265 53.5688 27.2998 
334 2 51.989 37.1626 28.8985 
335 2 31.9555 26.1244 25.0748 
336 2 14.3536 20.2481 22.8142 
337 2 9.01871 46.8129 37.8216 
338 2 42.7465 39.2524 44.6347 
339 2 21.3367 38.2426 11.835 
340 2 43.3814 53.6186 23.1475 
341 2 48.4029 28.6694 38.5964 
342 2 29.7792 19.6046 26.4838 
343 2 30.7373 42.0664 54.8218 
344 2 43.416 22.1567 26.7392 
345 2 50.6083 28.7652 50.1171 
346 2 41.4416 25.9008 40.1382 
347 2 44.3403 47.8515 37.75 
348 2 29.571 7.53225 38.4838 
349 2 11.6135 15.6234 43.4988 
350 2 21.8699 30.8292 37.3839 
351 2 37.2019 15.7556 43.3893 
352 2 14.1297 21.4217 28.0171 
353 2 14.2721 50.7954 49.9113 
354 2 30.8264 33.4173 42.3557 
355 2 6.54146 54.6258 16.8863 
356 2 28.253 50.8737 40.0683 
357 2 13.2768 10.7962 36.1347 
358 2 36.7921 44.0068 38.3028 
359 2 49.7503 42.7355 31.2449 
360 2 51.2437 54.4863 50.0489 
361 2 28.8139 24.4209 33.5616 
362 2 7.27977 20.8302 46.8701 
363 2 27.6806 31.1468 11.1667 
364 2 6.17653 54.5091 12.1563 
365 2 6.85228 30.5881 24.4782 
366 2 50.7183 13.8087 30.5606 
367 2 34.4227 53.0718 48.4865 
368 2 55.0106 49.8781 25.7639 
369 2 9.21977 52.7397 27.1519 
370 2 43.3028 34.3159 55.3943 
371 2 46.1724 49.5518 52.5482 
372 2 45.1347 18.6385 12.1585 
373 2 6.94352 7.21009 21.5672 
374 2 24.03 52.4427 30.8008 
375 2 15.1398 38.3032 48.0203 
376 2 15.3697 26.6653 15.0223 
377 2 48.2478 17.3002 50.062 
378 2 8.37696 7.41147 32.7257 
379 2 54.5333 42.0679 26.583 
380 2 40.2802 7.96715 19.8273 
381 2 47.9404 15.7904 8.50297 
382 2 52.3426 43.1213 42.8536 
383 2 43.6849 27.1396 10.9052 
384 2 52.3 51.0231 29.2835 
385 2 45.1192 43.1646 49.5794 
386 2 28.2484 53.7018 33.5314 
387 2 31.7965 50.3603 34.7877 
388 2 46.3918 31.3689 10.8113 
389 2 52.2629 45.5264 55.6321 
390 2 49.5987 54.2404 39.6978 
391 2 49.7601 50.1565 10.1016 
392 2 38.4634 47.6664 34.8469 
393 2 23.6285 15.9766 11.6466 
394 2 7.127 51.0639 50.1221 
395 2 16.9641 22.3003 12.4426 
396 2 24.0955 27.4858 53.1155 
397 2 46.842 25.5402 11.3431 
398 2 15.4175 50.1766 33.9476 
399 2 20.3148 45.1418 29.4664 
400 2 52.0451 9.87439 11.2935 
401 2 47.3376 34.014 42.7849 
402 2 33.52 24.1517 34.0656 
403 2 44.5598 47.1912 13.68 
404 2 9.84056 20.1363 8.02398 
405 2 55.3486 16.2692 49.2464 
406 2 13.3975 47.4642 51.5373 
407 2 18.379 6.65916 19.1085 
408 2 22.6054 20.5863 9.83482 
409 2 34.358 53.3865 8.85779 
410 2 38.6664 30.6383 33.3059 
411 2 55.1716 13.4913 24.4422 
412 2 12.91 39.5024 12.6619 
413 2 42.7707 53.5022 18.8939 
414 2 31.8284 43.5729 31.266 
415 2 39.9365 32.7897 32.0329 
416 2 31.6598 32.9914 48.524 
417 2 50.0026 27.556 40.8308 
418 2 51.1976 12.6479 52.1576 
419 2 22.7197 34.9894 26.6917 
420 2 53.1632 20.7248 44.7186 
421 2 10.7872 53.787 35.4338 
422 2 23.0598 53.1429 21.7055 
423 2 28.5132 26.6162 16.1761 
424 2 31.8761 55.3924 18.4114 
425 2 46.0109 41.6177 6.91709 
426 2 7.9151 24.4035 46.3894 
427 2 14.7569 20.7399 37.4109 
428 2 47.6707 21.7898 36.6863 
429 2 7.94665 20.4883 14.317 
430 2 31.0827 45.273 35.6454 
431 2 9.49242 10.4911 9.43985 
432 2 7.21875 38.2103 37.6599 
433 2 6.78654 16.2354 46.5201 
434 2 44.9474 36.5046 51.3012 
435 2 12.5835 33.4477 23.7013 
436 2 42.3966 9.35221 42.2009 
437 2 6.44964 10.9746 23.7156 
438 2 24.6066 48.7677 33.5585 
439 2 53.8096 38.5246 47.8835 
440 2 41.7979 29.6403 47.135 
441 2 19.4045 33.1329 10.4985 
442 2 26.2185 19.6012 12.1531 
443 2 37.0314 28.3448 25.774 
444 2 15.7827 40.7132 44.2274 
445 2 33.2432 8.43717 35.136 
446 2 41.0075 9.65624 52.7898 
447 2 10.9034 26.4917 17.8259 
448 2 51.2067 14.8595 14.3225 
449 2 13.8913 30.379 36.4436 
450 2 7.93925 51.4034 24.1721 
451 2 39.5578 47.3806 37.6341 
452 2 28.6587 36.4396 28.7333 
453 2 54.6971 28.8698 23.1625 
454 2 24.0073 16.4642 45.2611 
455 2 31.7312 9.07957 46.8525 
456 2 9.35794 33.0286 52.762 
457 2 6.4892 8.81913 11.1357 
458 2 26.6051 30.6387 44.9449 
459 2 35.2358 16.4515 52.0273 
460 2 40.7814 28.3251 34.2777 
461 2 14.6367 31.8192 7.54425 
462 2 6.40537 46.34 17.0508 
463 2 35.1574 28.0416 43.7701 
464 2 14.9745 31.8815 48.4096 
465 2 37.8325 8.74831 33.6428 
466 2 17.1981 51.2414 7.54715 
467 2 52.0805 26.746 15.2101 
468 2 24.3167 13.2432 43.4914 
469 2 35.6181 13.1405 43.361 
470 2 27.8286 9.39208 6.40089 
471 2 23.0486 13.3827 53.1873 
472 2 21.249 32.5013 7.99498 
473 2 32.5579 24.0391 27.6758 
474 2 50.8687 33.5681 16.358 
475 2 22.5432 38.507 43.335 
476 2 48.2846 34.0022 14.9177 
477 2 17.9319 44.8818 14.245 
478 2 7.2258 43.5364 17.0091 
479 2 20.8503 15.4217 20.7291 
480 2 55.2532 23.4422 27.7463 
481 2 53.6802 40.0539 28.6853 
482 2 14.2454 29.1906 14.7778 
483 2 40.6052 33.4203 13.1409 
484 2 30.2372 24.892 51.2738 
485 2 51.2853 20.1243 53.2316 
486 2 29.5165 47.0733 45.2572 
487 2 14.2386 13.7053 40.5974 
488 2 42.183 20.762 19.3858 
489 2 38.4104 41.9881 49.0429 
490 2 20.1773 49.7868 8.79097 
491 2 19.3029 40.6825 51.0749 
492 2 19.4416 29.7022 33.6479 
493 2 25.6253 35.6096 37.787 
494 2 34.9367 17.154 48.3179 
495 2 46.6183 14.9852 35.4369 
496 2 30.3691 17.7595 16.8802 
497 2 37.8282 32.4943 46.033 
498 2 51.9132 9.64187 55.5115 
499 2 37.1047 6.35179 36.8672 
500 2 41.4136 24.3199 28.4097 
501 2 49.7518 36.5543 15.9239 
502 2 16.5083 49.6728 24.5515 
503 2 6.64254 12.1694 40.9722 
504 2 9.98425 31.0622 7.28311 
505 2 6.39372 34.15 51.9032 
506 2 50.1823 21.9113 31.9187 
507 2 54.7732 22.1028 13.9955 
508 2 35.2245 47.0066 42.2991 
509 2 48.1028 52.3106 41.1202 
510 2 26.6808 25.2489 37.7572 
511 2 12.0913 51.0121 22.5998 
512 2 32.2318 17.6696 8.33958 
513 2 16.6607 20.5143 41.197 
514 2 33.9428 31.0459 49.3868 
515 2 19.7109 43.1291 21.3316 
516 2 25.9778 33.4265 18.3915 
517 2 14.7934 36.463 12.9817 
518 2 13.4406 44.2276 13.2891 
519 2 18.748 11.8879 23.5942 
520 2 28.1079 31.7162 29.355 
521 2 45.3861 50.855 38.4566 
522 2 13.7388 9.24885 30.4083 
523 2 9.44852 11.3197 55.0939 
524 2 24.7606 15.843 51.5679 
525 2 30.5582 12.8576 8.25959 
526 2 15.3986 27.9506 38.409 
527 2 32.3061 39.6958 51.1312 
528 2 48.5261 39.0126 12.9598 
529 2 22.4665 46.8071 22.5496 
530 2 29.7594 51.4114 21.2023 
531 2 50.0478 32.2758 50.6327 
532 2 18.3169 25.142 36.0545 
533 2 8.93689 10.5065 44.1282 
534 2 6.94996 48.8249 47.8977 
535 2 42.2015 53.1236 55.32 
536 2 35.3202 35.6556 27.851 
537 2 45.305 17.2139 27.7686 
538 2 6.74124 9.5987 27.833 
539 2 42.0559 13.5657 27.893 
540 2 25.7306 44.0716 33.6826 
541 2 38.2389 17.098 20.3458 
542 2 10.5892 47.1571 17.8497 
543 2 20.3086 47.3186 51.618 
544 2 13.9907 16.932 40.1223 
545 2 54.2544 7.35227 25.293 
546 2 11.5847 38.0066 10.1515 
547 2 50.0728 42.3316 12.9463 
548 2 37.6121 37.1194 54.2519 
549 2 36.4776 26.7723 51.9449 
550 2 29.3299 14.9055 7.14367 
551 2 44.1509 16.7756 44.0773 
552 2 25.8611 15.7471 28.4931 
553 2 52.3517 49.594 6.15529 
554 2 46.3585 47.1875 35.5863 
555 2 19.8994 45.6192 48.317 
556 2 10.3167 39.7693 48.9205 
557 2 46.775 7.4066 50.536 
558 2 42.3491 13.0896 45.5298 
559 2 23.2711 45.6283 31.0532 
560 2 9.85144 24.6363 35.8121 
561 2 42.9898 53.987 8.37904 
562 2 47.5615 53.5747 49.3908 
563 2 12.6869 33.6934 27.0264 
564 2 14.7299 10.2824 40.2424 
565 2 35.3192 38.2738 44.8897 
566 2 30.8262 25.3681 35.5115 
567 2 52.2771 34.6112 55.1507 
568 2 21.6497 40.9621 6.11764 
569 2 33.0148 15.9093 32.1281 
570 2 26.2436 12.1572 50.7147 
571 2 40.3497 52.4858 43.2211 
572 2 36.5685 39.502 38.597 
573 2 21.1167 52.7015 31.4449 
574 2 17.5876 40.7945 30.0347 
575 2 13.3062 7.52657 37.4407 
576 2 12.6804 41.2679 50.9159 
577 2 14.6765 52.1721 16.2152 
578 2 51.6526 48.143 23.171 
579 2 7.01424 20.7862 31.0003 
580 2 52.0352 44.6433 51.4648 
581 2 52.584 7.05292 44.1487 
582 2 25.7976 38.968 37.4042 
583 2 47.4663 52.4662 26.3226 
584 2 32.7538 18.1875 55.4959 
585 2 27.8759 52.259 43.0821 
586 2 48.8382 27.7018 26.3401 
587 2 34.3931 36.2324 35.2621 
588 2 15.9567 38.1303 44.83 
589 2 20.3003 30.362 40.4201 
590 2 23.9595 22.2026 51.7234 
591 2 28.5132 44.0761 8.94555 
592 2 37.9892 16.8035 9.55808 
593 2 55.4951 36.3576 31.6213 
594 2 16.9411 7.86692 34.6907 
595 2 30.0015 7.90268 55.4453 
596 2 24.5506 21.5195 17.5042 
597 2 21.4992 43.1063 31.3386 
598 2 18.4194 15.7485 50.4023 
599 2 21.6663 10.3259 31.238 
600 2 48.7825 45.7305 44.0731 
601 2 24.1943 35.6502 20.4933 
602 2 28.5017 11.8481 40.4775 
603 2 13.8702 49.9473 18.6775 
604 2 30.1333 6.41919 41.2498 
605 2 42.0703 30.7987 13.9137 
606 2 6.3483 31.1552 12.8809 
607 2 20.8624 35.6465 23.2738 
608 2 39.9295 20.748 33.4911 
609 2 28.3012 11.0139 19.8899 
610 2 11.8523 55.1894 17.5236 
611 2 33.8529 26.1137 53.5339 
612 2 54.0003 51.6465 32.2315 
613 2 50.4629 38.9706 25.9202 
614 2 33.0831 12.9585 44.5744 
615 2 51.9534 27.2858 22.7256 
616 2 43.8236 14.0647 35.2126 
617 2 50.8584 20.0806 42.4813 
618 2 45.8981 14.3827 40.7699 
619 2 12.5362 18.4301 16.6901 
620 2 18.0316 46.9198 31.5499 
621 2 11.206 7.34757 21.2175 
622 2 28.4212 28.1736 24.4798 
623 2 10.8971 26.359 31.4521 
624 2 15.3398 7.23538 18.9921 
625 2 36.625 36.6145 16.8513 
626 2 8.02295 40.1678 18.7553 
627 2 38.7257 8.87465 55.2352 
628 2 40.9954 12.7474 34.1742 
629 2 51.3632 9.54467 44.9567 
630 2 53.5654 39.7639 12.4709 
631 2 35.6965 23.5668 21.1199 
632 2 12.6008 29.3882 10.4293 
633 2 42.8712 9.7252 16.1457 
634 2 33.7714 43.0014 53.8666 
635 2 12.0036 8.83485 41.4023 
636 2 33.4026 40.128 38.1863 
637 2 18.4758 6.70642 50.3672 
638 2 21.8314 40.749 10.6433 
639 2 49.5461 40.7957 8.32975 
640 2 17.4879 17.6914 48.8099 
641 2 8.94503 31.1583 43.764 
642 2 19.2534 40.0671 34.1874 
643 2 26.9262 18.3251 9.45595 
644 2 17.1024 15.0227 52.7414 
645 2 21.3949 50.3034 50.1857 
646 2 8.1445 25.0114 28.9503 
647 2 54.0736 31.0831 45.604 
648 2 8.31277 50.8588 41.6701 
649 2 44.7614 20.4079 28.6586 
650 2 30.1392 50.4823 9.48365 
651 2 44.6286 9.79696 26.2681 
652 2 46.0117 9.10737 38.776 
653 2 28.9876 43.1504 46.0375 
654 2 34.8193 13.9711 23.085 
655 2 41.9027 54.2706 44.6061 
656 2 28.6654 51.9707 13.6341 
657 2 27.6357 54.2474 21.6832 
658 2 33.5812 40.2425 19.255 
659 2 15.8713 51.376 44.5203 
660 2 44.1703 44.3933 10.5286 
661 2 23.4722 34.534 11.3493 
662 2 53.5505 53.8773 54.2312 
663 2 40.387 46.5291 11.7736 
664 2 15.3869 12.4843 9.25877 
665 2 46.5121 27.7531 14.8253 
666 2 51.262 16.8428 36.5805 
667 2 20.2277 10.0526 8.12132 
668 2 38.5084 50.3299 46.7278 
669 2 29.0312 36.7559 23.7709 
670 2 25.5231 12.0446 21.4023 
671 2 52.9212 55.1098 46.8083 
672 2 47.3035 28.2552 7.41098 
673 2 8.79101 36.888 7.19128 
674 2 40.0155 14.5418 47.4536 
675 2 21.9106 26.6696 30.5056 
676 2 19.1319 33.8574 29.8153 
677 2 24.3902 13.783 14.8289 
678 2 32.3788 35.5782 20.2726 
679 2 43.4884 36.0897 15.3112 
680 2 7.9639 42.1827 33.051 
681 2 41.7862 35.1936 48.9454 
682 2 28.2133 11.4435 27.0633 
683 2 7.31751 8.17095 47.1187 
684 2 51.3984 32.5161 30.4403 
685 2 12.7865 44.9979 44.0434 
686 2 35.6851 6.22901 12.3052 
687 2 24.3865 51.1307 17.4432 
688 2 48.3063 38.2188 39.6889 
689 2 30.5624 12.5424 33.8068 
690 2 24.1308 27.6091 24.7894 
691 2 8.4367 16.7036 28.4852 
692 2 8.75984 8.06425 54.5843 
693 2 32.8261 39.9981 14.2941 
694 2 38.5596 35.9699 48.9751 
695 2 55.8308 46.287 33.2938 
696 2 19.3536 14.3577 6.69762 
697 2 34.0153 44.5993 16.0172 
698 2 29.5701 18.8547 43.3246 
699 2 30.4119 22.48 40.6638 
700 2 32.8161 6.38634 25.6302 
701 2 40.2824 15.2637 44.3551 
702 2 50.2684 36.8588 31.0671 
703 2 31.7825 20.7753 7.96601 
704 2 10.3321 40.3751 42.0659 
705 2 36.9254 8.94732 38.6497 
706 2 7.22816 13.4273 45.4354 
707 2 45.6622 39.9753 11.337 
708 2 48.9784 54.2505 11.9115 
709 2 9.1526 27.8441 35.353 
710 2 35.059 50.1855 42.5582 
711 2 51.3527 9.95824 15.8074 
712 2 9.52171 41.9904 35.7485 
713 2 16.6573 9.28327 47.8663 
714 2 46.4271 41.0952 53.7282 
715 2 39.9344 42.6165 10.0423 
716 2 16.5471 14.7467 36.3863 
717 2 55.3991 35.3572 19.3171 
718 2 44.0981 52.83 30.5356 
719 2 53.0327 18.4606 32.8017 
720 2 21.1136 50.8021 22.3696 
721 2 36.9994 20.0286 16.6335 
722 2 43.8676 20.0643 50.8912 
723 2 46.5353 6.45713 43.8523 
724 2 16.3934 31.2404 14.5382 
725 2 43.0013 9.04379 6.87576 
726 2 32.5868 13.9647 26.6151 
727 2 51.409 17.1445 17.4422 
728 2 28.6801 29.8223 39.1892 
729 2 24.7404 8.22583 9.60861 
730 2 33.9219 43.1569 36.5444 
731 2 12.3622 48.7084 15.8783 
732 2 21.0709 11.8665 40.6435 
733 2 15.6496 16.9675 14.0217 
734 2 17.6537 49.0874 15.7679 
735 2 44.501 34.5121 37.2981 
736 2 40.9744 28.3561 30.8514 
737 2 6.09179 53.936 28.7259 
738 2 40.7916 18.01 49.4059 
739 2 21.7377 6.75252 34.0043 
740 2 8.98089 14.2147 47.45 
741 2 55.662 30.2554 37.7158 
742 2 40.8912 44.0314 22.3567 
743 2 10.3733 27.7809 23.7753 
744 2 9.87759 7.154 18.5934 
745 2 34.5271 21.3789 52.9402 
746 2 48.0283 36.3672 55.2739 
747 2 30.6769 30.1171 25.4897 
748 2 43.1514 44.7762 26.7694 
749 2 41.0579 41.1825 23.9853 
750 2 14.4885 54.4917 20.2177 
751 2 45.962 15.7219 22.0038 
752 2 45.1662 17.211 8.09635 
753 2 31.505 20.0995 39.3844 
754 2 20.3388 16.2344 11.6323 
755 2 46.4736 28.5068 10.5177 
756 2 33.724 13.6041 50.915 
757 2 43.3972 15.9821 19.6091 
758 2 9.28221 40.8224 23.4131 
759 2 37.7687 54.7315 40.7081 
760 2 18.8384 35.7092 19.9533 
761 2 14.3287 55.6513 31.7062 
762 2 54.0333 9.83784 7.77312 
763 2 49.0516 30.0812 11.7546 
764 2 41.2183 32.2008 37.3224 
765 2 37.9914 51.027 42.5362 
766 2 49.1021 45.3342 51.643 
767 2 25.5278 8.01355 44.3046 
768 2 8.10466 53.6198 10.0176 
769 2 27.7218 15.339 47.5178 
770 2 45.9443 38.776 32.9446 
771 2 43.8051 44.1034 7.37543 
772 2 23.5592 16.5177 6.65366 
773 2 52.2564 29.313 26.4263 
774 2 48.3059 42.7023 25.4385 
775 2 36.8835 39.5412 25.6809 
776 2 52.8609 21.8062 18.1913 
777 2 8.56513 32.3449 40.4049 
778 2 42.2873 41.6415 33.1891 
779 2 37.0645 33.5752 15.8494 
780 2 31.3411 10.7947 20.5587 
781 2 36.769 53.4292 10.5963 
782 2 10.4568 8.01964 7.30227 
783 2 33.0139 51.3761 27.6236 
784 2 41.1803 9.01079 48.8747 
785 2 39.5983 26.2512 36.7267 
786 2 9.65138 13.0034 17.0888 
787 2 41.8371 31.2702 40.6797 
788 2 49.1877 40.1475 47.0522 
789 2 14.3957 41.3694 27.3689 
790 2 30.4896 20.1818 18.8689 
791 2 33.1032 33.4534 7.50951 
792 2 34.2262 28.5048 18.9817 
793 2 35.8307 32.7764 28.8698 
794 2 26.8457 27.4905 42.3722 
795 2 40.5551 31.5179 24.1596 
796 2 35.8188 14.9069 55.1095 
797 2 32.4959 10.5797 8.67531 
798 2 51.1485 29.4765 36.4923 
799 2 26.555 24.697 19.2772 
800 2 17.7033 20.3139 9.27027 
801 2 40.5824 18.5621 16.6147 
802 2 29.09 19.0178 11.697 
803 2 23.0385 54.4673 48.7808 
804 2 46.7394 41.0905 36.5747 
805 2 51.7933 16.7708 6.61892 
806 2 14.0637 26.0745 10.3326 
807 2 36.3238 23.6765 7.22326 
808 2 40.6796 14.7239 10.1379 
809 2 18.7349 38.7672 19.2434 
810 2 17.9458 52.1945 18.9569 
811 2 20.4075 44.0344 37.7341 
812 2 44.3524 39.5132 6.3826 
813 2 15.9263 8.28251 55.5969 
814 2 16.4269 48.6659 48.9344 
815 2 16.311 35.7454 46.3848 
816 2 29.5381 26.7029 31.1078 
817 2 11.5058 8.27242 27.9174 
818 2 49.2366 50.7154 43.3673 
819 2 44.821 53.5242 51.5321 
820 2 14.0337 27.1682 47.5668 
821 2 30.1339 48.3205 40.9316 
822 2 52.9689 13.5862 28.4055 
823 2 18.9807 33.4909 53.1859 
824 2 32.1521 46.4947 51.4739 
825 2 42.9693 49.0851 24.7715 
826 2 42.1927 22.0792 52.7454 
827 2 11.7472 33.5404 8.46788 
828 2 27.2111 53.5177 30.7717 
829 2 50.4861 47.1982 48.1235 
830 2 54.5142 26.6473 40.3049 
831 2 47.9228 53.7176 9.00237 
832 2 28.1506 39.0731 26.3455 
833 2 18.1888 23.8932 15.092 
834 2 44.3528 26.2032 28.0135 
835 2 50.3672 32.6501 41.9011 
836 2 26.5465 55.2681 15.9956 
837 2 41.3289 47.0921 20.5583 
838 2 6.80778 53.1898 43.0614 
839 2 9.95764 35.7678 21.3994 
840 2 38.5479 35.6905 14.3197 
841 2 24.1721 20.4943 27.7021 
842 2 51.5127 21.4369 26.5359 
843 2 49.9262 12.3277 34.758 
844 2 47.0769 49.8415 6.85699 
845 2 13.3352 29.7357 25.1686 
846 2 20.2496 46.7024 38.2508 
847 2 44.913 36.8589 54.265 
848 2 19.8971 38.058 29.4757 
849 2 13.5463 23.5034 38.9598 
850 2 7.25321 22.2656 8.75026 
851 2 37.7612 17.0017 6.40344 
852 2 11.5303 50.3764 38.4552 
853 2 39.2665 37.5338 25.0448 
854 2 8.423 32.0138 16.1637 
855 2 30.16 33.7109 10.9939 
856 2 7.77157 19.6626 22.1039 
857 2 9.12262 12.8099 39.1943 
858 2 22.3928 31.6882 29.2929 
859 2 8.94548 27.579 21.3165 
860 2 26.9189 29.1923 21.6533 
861 2 41.5556 42.034 46.5848 
862 2 10.8018 53.1036 55.3436 
863 2 12.9196 55.1405 12.4706 
864 2 24.9504 29.5781 35.6417 
865 2 13.0125 22.843 42.0451 
866 2 9.57809 47.4023 24.9484 
867 2 7.87611 23.7013 50.0022 
868 2 32.6266 28.9832 51.8445 
869 2 30.6233 21.9907 55.0145 
870 2 14.7015 9.04279 33.6464 
871 2 53.8821 49.1429 21.8135 
872 2 41.9563 25.3764 12.7366 
873 2 17.5844 13.026 26.0335 
874 2 48.5018 17.0356 20.8808 
875 2 30.689 28.7165 42.8719 
876 2 41.8598 19.5044 25.9078 
877 2 25.5621 37.6517 54.6526 
878 2 25.9482 51.5011 33.1069 
879 2 17.7735 43.3342 18.8718 
880 2 16.6901 19.894 16.4648 
881 2 7.64712 26.7107 31.5236 
882 2 23.3378 26.0008 36.5123 
883 2 55.5127 40.9785 37.3541 
884 2 27.8608 38.4868 30.7078 
885 2 19.2625 39.7722 22.2006 
886 2 15.0222 6.23585 22.9606 
887 2 44.3981 41.0731 46.3846 
888 2 39.7008 17.411 40.4546 
889 2 38.379 23.5751 48.9591 
890 2 42.2978 46.3102 9.00412 
891 2 45.5901 49.4749 16.5048 
892 2 44.0193 35.1378 22.6816 
893 2 41.6442 27.1529 27.3412 
894 2 46.3762 19.7292 54.2623 
895 2 35.6209 30.7856 16.8425 
896 2 32.8286 25.0719 10.6877 
897 2 23.9206 22.6075 45.0449 
898 2 11.4345 32.4033 36.4958 
899 2 51.5829 32.2354 23.5652 
900 2 44.6223 41.8665 22.943 
901 2 51.9122 38.2524 16.9955 
902 2 55.307 51.5532 20.4373 
903 2 42.0054 39.4208 37.7371 
904 2 24.2034 22.1472 7.87197 
905 2 50.1598 19.5888 8.06357 
906 2 16.0382 51.4328 31.3906 
907 2 20.5821 36.7561 16.0016 
908 2 39.2557 10.413 38.3933 
909 2 51.7541 9.31877 48.2253 
910 2 30.2334 53.8367 25.9474 
911 2 28.9326 18.7297 38.8072 
912 2 53.0477 48.7031 10.7177 
913 2 24.53 20.6639 14.6789 
914 2 31.2669 23.89 47.3626 
915 2 12.0771 38.6067 37.9958 
916 2 13.7258 14.7159 24.8092 
917 2 34.3378 6.65966 48.183 
918 2 8.13934 53.2587 32.4213 
919 2 17.1708 23.7547 26.3902 
920 2 45.4508 50.5712 19.9534 
921 2 24.3246 32.6902 13.7653 
922 2 6.4397 46.2652 24.6247 
923 2 41.821 46.7591 52.2929 
924 2 40.8557 55.5945 33.4337 
925 2 52.7478 15.8846 31.7688 
926 2 39.9474 38.9785 45.8502 
927 2 26.0412 42.1625 15.1259 
928 2 27.7997 34.23 12.0292 
929 2 24.4428 55.1055 53.5903 
930 2 25.0209 43.4959 48.2649 
931 2 23.0076 35.348 8.56217 
932 2 15.2362 46.6323 37.7787 
933 2 35.6156 25.6235 27.4187 
934 2 21.0808 53.1558 24.8995 
935 2 24.5454 13.7773 19.0791 
936 2 8.83891 28.6939 17.0877 
937 2 23.8663 50.1144 37.2928 
938 2 10.8637 53.1005 39.7466 
939 2 53.9354 45.6403 8.00454 
940 2 19.2792 8.26024 24.9524 
941 2 19.7321 46.2464 24.2349 
942 2 51.5922 27.7073 43.0382 
943 2 22.6446 17.9502 32.616 
944 2 48.2637 55.8127 23.0711 
945 2 28.0711 14.8924 44.9106 
946 2 34.0037 9.9566 13.0667 
947 2 30.2171 36.7576 13.8814 
948 2 25.3817 30.3273 15.3695 
949 2 18.5178 51.6241 14.3494 
950 2 45.9788 20.7632 16.6441 
951 2 26.0826 30.4182 49.7927 
952 2 32.395 15.1438 6.97001 
953 2 7.43168 29.8603 46.2245 
954 2 20.9903 25.0351 54.6769 
955 2 55.4958 40.2915 20.5319 
956 2 43.4949 50.9267 9.2121 
957 2 29.1622 31.3769 18.7811 
958 2 31.9671 28.6208 16.1987 
959 2 22.0699 26.8583 39.2732 
960 2 31.2105 21.4407 24.1082 
961 2 44.5696 17.2065 15.1548 
962 2 32.3817 17.3086 23.8752 
963 2 21.4305 33.2494 31.3666 
964 2 28.4406 27.2944 13.3136 
965 2 27.1853 13.7387 14.2207 
966 2 8.58753 11.1036 15.4902 
967 2 32.9078 7.76157 15.457 
968 2 35.1496 17.3594 10.0084 
969 2 17.2214 16.6944 42.9605 
970 2 31.7258 53.9177 41.2924 