ITEM: TIMESTEP
0
ITEM: NUMBER OF ATOMS
9088
ITEM: BOX BOUNDS xy xz yz pp pp pp
6.1091327890975666e+00 5.5821805003176635e+01 -5.7036078212189920e-15
6.1091327890975720e+00 5.5821805003176635e+01 0.0000000000000000e+00
6.1091327890975720e+00 5.5821805003176635e+01 0.0000000000000000e+00
ITEM: ATOMS id type x y z
1 2 17.3336 13.0884 40.2802
2 2 38.6933 52.92 10.785
3 2 26.4773 23.6239 48.2916
4 2 50.0843 9.31426 53.1832
5 2 46.9003 48.0033 6.41133
6 2 18.7 42.0107 29.8334
7 2 49.7758 52.4834 46.8532
8 2 10.6076 23.5461 42.7513
9 2 41.7237 35.9584 55.1289
10 2 37.9538 29.8772 6.20347
11 2 11.4479 24.0451 51.6552
12 2 38.6861 37.9513 23.1089
13 2 46.6484 11.8993 27.4221
14 2 32.5288 43.8556 7.86007
15 2 27.223 22.9129 22.7069
16 2 21.6473 30.8179 29.5719
17 2 50.0446 50.6772 33.7678
18 2 17.8693 37.936 7.50825
19 2 50.8405 45.819 51.4207
20 2 51.913 46.7923 42.5096
21 2 6.76884 33.4772 20.6665
22 2 12.2115 36.8889 39.0834
23 2 8.51144 50.5784 32.8818
24 2 40.6433 54.9288 45.3932
25 2 23.9756 8.69482 26.7706
26 2 26.3938 22.1541 31.3442
27 2 15.7081 15.2981 17.8494
28 2 31.037 8.76883 54.1037
29 2 53.2404 29.996 34.2121
30 2 47.6729 24.4399 23.008
31 2 22.7514 12.1321 12.2738
32 2 42.5808 8.12218 49.2527
33 2 42.4705 24.9594 39.2575
34 2 21.3715 49.129 35.7592
35 2 15.1781 50.7805 15.0405
36 2 23.5616 17.0017 6.43167
37 2 20.8787 12.5039 44.6698
38 2 6.63332 20.191 22.5277
39 2 15.3573 23.787 51.6438
40 2 9.68095 53.0309 21.0053
41 2 33.744 13.9622 39.5074
42 2 53.9531 18.6629 41.9004
43 2 50.8895 9.80811 44.7895
44 2 11.9458 46.4763 23.0656
45 2 7.33412 38.2895 12.0598
46 2 27.9055 25.7962 6.29128
47 2 48.2965 16.313 35.5828
48 2 13.3667 38.2695 26.0737
49 2 14.6355 54.557 54.0567
50 2 33.3735 34.6867 21.0816
51 2 9.22973 44.274 7.93212
52 2 8.36188 43.5197 15.6889
53 2 50.1709 50.2787 9.6856
54 2 27.0371 18.4046 22.7169
55 2 48.2522 36.6055 53.0652
56 2 31.4141 7.60123 11.2173
57 2 33.8765 44.6119 45.4236
58 2 35.3447 50.291 53.074
59 2 49.0064 12.5145 48.7835
60 2 34.5056 42.2619 15.6711
61 2 15.9122 45.2324 30.0997
62 2 8.24504 52.7861 40.61
63 2 35.483 54.1137 10.7579
64 2 51.6718 50.4262 50.9382
65 2 25.4067 42.6472 48.4245
66 2 24.9142 26.3664 26.2236
67 2 42.5594 12.6284 17.4917
68 2 34.1315 33.5865 51.6918
69 2 11.6765 6.82226 27.4325
70 2 39.8026 53.4964 8.00534
71 2 51.2147 52.9533 31.5979
72 2 17.5287 52.8019 49.23
73 2 35.9626 52.8968 17.1557
74 2 9.55529 12.0761 20.714
75 2 35.9074 27.0611 28.7935
76 2 37.8158 55.0843 17.6003
77 2 12.7005 26.8743 26.7123
78 2 25.4396 37.7096 52.7467
79 2 32.1215 23.5939 27.9483
80 2 21.326 17.616 8.36185
81 2 18.1806 55.1337 23.3104
82 2 53.2798 22.7355 47.983
83 2 53.4204 50.7564 24.2875
84 2 26.2657 50.3682 10.3492
85 2 18.2861 55.8052 41.2052
86 2 16.3041 52.8055 29.1899
87 2 8.26106 46.6285 54.1042
88 2 46.6271 33.9742 12.7028
89 2 38.3005 12.6977 38.3644
90 2 10.3783 35.7575 19.4234
91 2 18.7845 23.9462 39.733
92 2 52.6993 28.5487 25.7467
93 2 38.7764 17.4646 29.6845
94 2 28.2385 9.54108 53.6789
95 2 25.0945 25.1304 45.7492
96 2 37.4859 12.0233 26.002
97 2 23.1195 52.5111 7.86887
98 2 53.8832 38.419 48.2787
99 2 7.43862 25.5808 26.879
100 2 39.2695 35.1252 23.5453
101 2 12.9345 44.0709 7.25922
102 2 28.0665 17.4247 14.7129
103 2 40.7483 41.3785 50.4914
104 2 53.618 51.6454 40.8958
105 2 45.2815 42.3547 19.4929
106 2 34.5336 9.84118 26.2714
107 2 24.2173 19.8336 15.7953
108 2 15.3134 14.5257 46.9594
109 2 47.1823 28.5628 50.9793
110 2 54.8186 44.987 7.43723
111 2 48.2856 34.3203 54.9998
112 2 14.8679 41.582 7.04611
113 2 21.8742 11.9583 52.3301
114 2 15.2997 21.0032 26.1319
115 2 20.8017 19.0923 24.6239
116 2 19.8206 22.6403 48.1063
117 2 8.99986 39.8659 42.2074
118 2 10.5495 6.49659 13.5293
119 2 42.7403 26.6628 51.9092
120 2 51.0985 53.9117 20.7167
121 2 42.6204 36.8022 44.0981
122 2 8.3029 20.8811 7.94939
123 2 22.366 26.0416 22.6771
124 2 8.00642 55.228 7.25541
125 2 41.5831 40.4162 11.7744
126 2 18.0953 20.4886 48.8431
127 2 45.2205 35.6795 40.3855
128 2 30.7251 8.12921 33.6382
129 2 11.3087 48.4948 14.0032
130 2 26.1584 44.7137 46.2929
131 2 37.1697 33.9755 15.1134
132 2 9.91266 23.6002 6.5796
133 2 17.9401 55.4122 11.2061
134 2 54.6601 6.37371 42.5447
135 2 11.8905 20.0974 45.8952
136 2 38.3419 21.6381 17.5025
137 2 49.1788 13.1592 26.0658
138 2 26.0416 37.2999 31.8727
139 2 36.7558 35.4131 35.9645
140 2 44.6175 54.4627 26.3656
141 2 24.6459 50.9858 27.9404
142 2 7.45023 25.4303 46.7027
143 2 28.5328 38.6973 47.5267
144 2 46.7183 32.6297 34.4685
145 2 20.1773 38.5167 22.7185
146 2 54.7912 27.9853 47.3571
147 2 14.1013 12.0628 31.6392
148 2 52.7715 42.6884 51.1237
149 2 11.3969 35.8005 54.7702
150 2 50.5046 7.15894 39.6152
151 2 44.9355 10.5674 11.6253
152 2 48.4175 28.0812 28.3811
153 2 49.3901 14.6497 8.19814
154 2 18.5351 40.858 39.4485
155 2 16.0073 28.3261 19.109
156 2 13.6442 15.6918 10.9824
157 2 11.875 23.8459 26.3472
158 2 28.1472 8.23743 24.5939
159 2 51.6479 27.3941 34.3002
160 2 8.37938 36.51 9.1722
161 2 9.99825 55.1853 54.1985
162 2 22.3759 36.0591 19.0782
163 2 23.9432 36.6959 37.3612
164 2 13.7897 22.9699 40.0535
165 2 11.1802 47.3493 34.9807
166 2 7.37965 52.6056 52.2234
167 2 54.5818 16.0233 54.0613
168 2 38.3319 28.0361 48.4425
169 2 16.2494 55.1496 20.7321
170 2 44.3213 53.8696 21.4435
171 2 51.1566 25.6123 51.7287
172 2 47.0316 47.1736 48.5598
173 2 41.8051 43.7237 36.491
174 2 46.5153 35.6567 50.7196
175 2 47.7941 54.6261 18.1179
176 2 26.2533 40.6595 43.4246
177 2 29.2192 19.4039 52.7996
178 2 13.6198 11.8689 36.6344
179 2 49.7735 15.4206 40.589
180 2 38.2835 19.0402 27.538
181 2 39.058 43.9021 38.7295
182 2 20.5671 54.0204 22.4936
183 2 28.3131 12.7581 23.8509
184 2 37.537 50.2594 19.6762
185 2 16.1124 43.8799 46.1292
186 2 32.9738 36.5701 54.0633
187 2 13.5411 13.4903 34.4413
188 2 29.7656 11.2469 41.0221
189 2 34.8023 16.3569 28.0676
190 2 13.5156 51.1597 51.4205
191 2 54.2891 22.5147 16.1233
192 2 17.5061 30.4119 10.267
193 2 34.9501 55.2411 38.1854
194 2 21.1265 28.4867 24.9433
195 2 34.0323 45.5763 29.1328
196 2 11.4732 32.1947 21.8135
197 2 47.7173 31.4414 55.6807
198 2 21.1762 43.1037 17.9824
199 2 21.2433 53.3556 13.8153
200 2 37.047 14.7877 30.1243
201 2 40.1454 9.21862 10.95
202 2 7.62878 46.2666 34.4247
203 2 54.7262 6.79007 20.745
204 2 17.8379 24.8235 21.6151
205 2 53.7563 32.9936 44.1985
206 2 25.0938 40.1748 11.8553
207 2 38.5564 22.3688 41.102
208 2 48.3633 21.8542 20.3148
209 2 35.6082 15.8884 49.6608
210 2 45.7415 39.2087 13.3826
211 2 27.1573 50.2907 49.5151
212 2 22.3832 18.5906 27.2657
213 2 42.1724 25.2995 42.1985
214 2 42.8044 40.8546 55.4866
215 2 40.7867 8.757 14.1365
216 2 29.3842 54.8663 11.8186
217 2 34.8008 37.2162 32.443
218 2 55.4518 52.3359 10.7728
219 2 35.2249 50.0551 17.6873
220 2 52.7916 49.7759 20.1211
221 2 51.7094 7.3471 20.6074
222 2 26.821 33.6423 10.3125
223 2 11.9997 33.2971 7.07376
224 2 45.3973 10.0622 46.5502
225 2 51.7392 16.4396 38.4412
226 2 24.914 26.5726 9.79945
227 2 30.4502 29.5732 15.9745
228 2 10.8045 23.0128 37.5269
229 2 11.0892 39.4063 29.0803
230 2 10.058 48.3053 21.3797
231 2 27.4628 53.3399 7.33295
232 2 13.4292 12.592 7.01374
233 2 27.78 20.4139 9.31186
234 2 46.4111 24.5035 30.4685
235 2 32.1819 22.7656 35.1299
236 2 14.8452 23.4931 10.4691
237 2 53.2624 12.7388 28.1049
238 2 22.0898 20.9534 50.3763
239 2 51.336 55.5263 42.4083
240 2 38.5355 32.0505 32.6896
241 2 9.77774 18.8722 34.0441
242 2 10.8491 28.5052 7.50375
243 2 53.5426 36.3142 43.8298
244 2 54.8355 11.5094 52.7141
245 2 25.9256 55.3397 21.2434
246 2 48.5537 50.7364 27.4635
247 2 34.3358 44.6301 12.6804
248 2 35.7464 9.02323 34.4851
249 2 28.8393 14.5159 16.051
250 2 35.5831 38.0977 43.6463
251 2 55.5966 47.4594 6.14706
252 2 38.1455 40.8378 30.1599
253 2 46.4706 18.1221 49.1439
254 2 45.4484 47.5345 29.5659
255 2 12.3972 16.5495 8.64542
256 2 45.3807 53.1546 46.1477
257 2 50.0657 38.3799 30.8329
258 2 51.179 10.0595 28.504
259 2 36.6084 7.56346 8.12925
260 2 17.912 20.3687 42.073
261 2 39.8894 15.5793 14.5849
262 2 30.7044 35.8893 44.404
263 2 53.0211 16.812 46.0447
264 2 38.14 41.5856 54.6067
265 2 13.6483 12.7328 48.9216
266 2 41.1694 38.372 34.0255
267 2 37.528 26.4102 41.5214
268 2 40.576 13.9529 44.9225
269 2 7.24915 38.9001 8.84327
270 2 18.3998 31.4145 37.4816
271 2 46.5714 32.2324 37.7228
272 2 40.5391 48.244 22.0561
273 2 6.87839 18.7132 37.5895
274 2 18.993 18.1224 16.4208
275 2 33.2978 34.9041 37.0069
276 2 45.7791 6.53156 24.0332
277 2 29.4662 13.8533 19.2993
278 2 47.0345 55.4242 7.38392
279 2 33.6012 23.1909 41.8994
280 2 16.5901 47.8424 15.4839
281 2 13.8291 47.1432 13.3763
282 2 13.514 49.0474 23.816
283 2 16.6636 54.4284 51.6823
284 2 47.8915 31.6965 30.4806
285 2 30.0755 26.3477 25.2719
286 2 6.36803 45.172 14.4477
287 2 38.94 51.9662 49.2619
288 2 37.6912 54.7713 53.5609
289 2 7.93514 40.3056 39.2409
290 2 38.6009 52.5853 46.1419
291 2 50.9704 32.6157 19.9634
292 2 41.2953 30.3611 53.7499
293 2 7.91758 40.4504 14.3518
294 2 45.1725 7.28319 14.8673
295 2 17.7235 49.5352 41.703
296 2 53.2952 31.6719 11.593
297 2 16.4627 27.7378 11.8137
298 2 38.4424 44.1565 14.2456
299 2 18.2023 23.7465 24.2717
300 2 25.1141 34.2769 39.0952
301 2 21.9775 24.6349 46.7054
302 2 32.2541 30.5818 35.3201
303 2 9.28185 42.3041 35.0807
304 2 17.179 43.9135 27.8151
305 2 14.2911 31.3399 18.4163
306 2 32.1631 12.216 37.1491
307 2 11.4264 44.3357 29.2311
308 2 54.684 25.2142 29.0635
309 2 23.7727 29.7238 25.9624
310 2 43.9651 39.6834 48.445
311 2 48.9391 51.6118 16.0044
312 2 28.9932 39.7091 20.9986
313 2 11.3946 21.52 13.5689
314 2 29.0026 32.3906 49.0514
315 2 38.6723 16.3737 17.4059
316 2 35.9065 28.8287 15.0129
317 2 29.3086 39.9798 14.3545
318 2 51.583 32.8605 24.7165
319 2 43.0108 18.6743 29.7247
320 2 38.1533 52.3455 27.748
321 2 32.4188 38.9041 52.0098
322 2 47.9703 54.7348 43.3148
323 2 33.3736 48.4157 51.922
324 2 30.6233 28.0509 19.2046
325 2 11.724 20.32 29.2652
326 2 55.8173 24.5177 21.6558
327 2 21.2261 29.5645 33.605
328 2 55.1239 19.7842 17.6527
329 2 28.7744 35.8383 24.8365
330 2 22.0193 22.047 16.419
331 2 36.6742 42.4375 18.0021
332 2 31.2037 38.7826 9.60756
333 2 53.092 12.2779 32.5588
334 2 52.4473 45.294 34.069
335 2 32.2709 34.4894 30.568
336 2 14.4411 28.8301 28.1796
337 2 9.06476 55.3059 43.0939
338 2 42.8395 47.8422 49.7997
339 2 21.4879 46.6241 17.1658
340 2 43.6564 12.6748 28.8266
341 2 48.6082 37.3742 43.89
342 2 30.0861 28.3841 31.8299
343 2 30.8586 50.3876 10.3082
344 2 43.2956 30.5995 32.0324
345 2 50.7307 37.6901 55.2484
346 2 41.8089 34.4134 45.5962
347 2 44.555 6.93361 42.5517
348 2 29.2595 15.8829 43.7114
349 2 11.546 24.2945 48.6491
350 2 21.9866 39.3562 42.911
351 2 37.1911 24.416 49.1068
352 2 14.1928 29.8088 33.467
353 2 14.374 9.75416 55.0037
354 2 31.1613 42.0863 47.9343
355 2 7.02711 13.1758 22.1993
356 2 27.8694 9.7652 45.6138
357 2 13.0848 19.2435 41.5151
358 2 36.7275 51.8538 43.6949
359 2 49.9884 51.2569 36.6199
360 2 51.6927 12.8075 55.8032
361 2 29.0624 32.7808 38.9764
362 2 7.08943 28.8939 52.2425
363 2 27.9764 39.8565 16.7291
364 2 6.43241 13.1758 17.1936
365 2 6.92485 38.815 29.7735
366 2 50.8567 22.3771 35.5528
367 2 34.6593 11.8362 53.7255
368 2 55.1953 8.67594 31.0651
369 2 9.4532 11.5403 32.8719
370 2 43.4681 42.6428 10.8042
371 2 46.6769 8.36956 8.02041
372 2 45.1858 27.1381 17.6047
373 2 7.12702 15.6599 26.7466
374 2 24.3866 11.2545 36.0464
375 2 15.2657 47.1384 53.4383
376 2 15.5692 35.1044 20.2893
377 2 48.3421 25.8586 55.2291
378 2 8.49081 16.1134 37.7945
379 2 54.902 50.7484 31.9888
380 2 40.804 16.2911 25.1167
381 2 48.0767 24.5313 13.4869
382 2 52.5204 51.873 48.2027
383 2 43.672 35.6959 15.9953
384 2 52.4422 9.57508 34.7344
385 2 45.6401 51.8069 54.682
386 2 28.3475 11.9796 38.9042
387 2 31.7143 8.90531 39.9827
388 2 46.6197 39.8652 15.9616
389 2 52.5578 53.9923 10.6988
390 2 49.2847 13.4917 45.2437
391 2 49.9508 8.77652 15.4027
392 2 38.6291 6.22798 39.9806
393 2 23.9548 24.514 17.3134
394 2 7.52186 9.57511 55.387
395 2 16.8595 30.8648 17.5461
396 2 24.4464 35.8652 8.77804
397 2 47.3306 33.9912 16.6997
398 2 15.4726 9.08195 39.4629
399 2 20.6879 53.5518 34.8624
400 2 52.3697 18.0621 16.7184
401 2 47.4476 42.4396 48.6127
402 2 33.7649 32.4123 39.3217
403 2 45.1777 55.3935 19.0758
404 2 9.9009 28.6813 13.3785
405 2 55.5409 24.8531 54.5134
406 2 13.3055 55.259 7.34907
407 2 18.3326 15.3356 24.3824
408 2 22.7511 29.229 15.1553
409 2 34.5637 11.5956 14.2671
410 2 39.0227 38.9689 39.1403
411 2 55.3986 21.8158 29.7007
412 2 13.351 47.5883 18.0436
413 2 43.0638 11.8656 23.8853
414 2 32.1521 51.9 36.4903
415 2 40.4771 41.154 37.522
416 2 31.9809 41.3578 53.9405
417 2 50.0542 36.3065 46.7141
418 2 51.4098 20.946 7.88576
419 2 22.9218 43.4894 32.3584
420 2 52.9342 29.3463 49.7739
421 2 10.7991 12.5152 40.6978
422 2 22.939 11.8825 26.6871
423 2 28.8526 35.1908 21.7758
424 2 32.1209 14.2925 24.1522
425 2 46.2831 49.988 12.4687
426 2 8.13024 32.6337 51.7802
427 2 14.9125 29.1174 42.8118
428 2 47.852 30.1235 42.0525
429 2 8.26147 28.8485 19.7485
430 2 31.1492 53.2625 40.8977
431 2 9.67883 18.948 14.9202
432 2 7.92839 46.7098 43.2931
433 2 6.77333 24.5694 52.0553
434 2 45.5627 45.3249 6.93728
435 2 12.6913 41.8083 29.3672
436 2 42.3665 17.6135 47.4319
437 2 6.43344 19.2249 28.9297
438 2 25.265 7.3135 38.9402
439 2 53.7915 47.026 53.0883
440 2 41.9715 37.7655 52.6287
441 2 19.6902 41.5681 16.0058
442 2 26.3206 28.3651 17.2862
443 2 37.3276 36.639 31.157
444 2 16.0941 49.9477 49.4739
445 2 33.2823 17.0069 40.4642
446 2 40.9108 18.0368 7.99505
447 2 11.3311 35.1199 23.5495
448 2 51.312 23.33 19.6722
449 2 14.1608 39.0785 42.1167
450 2 8.02088 10.1584 29.7202
451 2 39.7581 6.46027 42.7448
452 2 29.013 44.683 33.9736
453 2 54.5634 37.3748 28.4164
454 2 24.0996 24.6168 50.4407
455 2 31.6063 17.5252 51.8006
456 2 9.65562 41.3495 8.28067
457 2 7.04474 17.3533 16.2336
458 2 26.7775 39.4394 50.3212
459 2 35.7935 25.3417 8.05046
460 2 41.0833 36.9466 40.0648
461 2 14.8989 40.3271 13.0858
462 2 6.36695 54.6188 22.6429
463 2 35.3142 36.4999 49.2638
464 2 14.9136 40.5155 53.896
465 2 37.704 17.2157 39.0225
466 2 16.8585 9.7665 12.8876
467 2 52.2409 35.115 20.6149
468 2 24.3146 21.8237 48.8842
469 2 35.6983 21.6102 48.7101
470 2 28.2084 17.8545 11.5953
471 2 23.383 21.8293 8.86137
472 2 21.6397 40.8262 13.4995
473 2 33.1128 32.688 33.1919
474 2 51.2079 41.78 21.7496
475 2 22.8353 47.0314 48.6881
476 2 48.7069 42.465 20.0768
477 2 18.0917 53.0535 19.588
478 2 7.42058 51.9263 22.4968
479 2 20.8551 23.7527 25.7393
480 2 55.3916 31.7561 32.9429
481 2 54.0446 48.4247 33.6664
482 2 14.2897 37.9286 19.8326
483 2 40.8111 42.1664 18.6053
484 2 30.2955 33.2394 6.57004
485 2 51.3764 28.8447 8.55712
486 2 29.3977 55.5101 50.6896
487 2 14.7277 22.1343 45.8333
488 2 42.2023 28.931 24.5259
489 2 38.6905 50.4082 53.9176
490 2 20.5528 8.12148 14.3614
491 2 19.4673 48.8993 6.80443
492 2 19.2756 38.0942 39.09
493 2 26.0257 43.895 43.444
494 2 35.0393 25.8327 53.8956
495 2 46.7838 23.6212 40.549
496 2 30.2539 26.1424 22.2677
497 2 38.1246 40.7071 51.4691
498 2 52.3778 18.0694 11.0682
499 2 37.0631 15.028 41.8785
500 2 41.685 33.2067 34.0574
501 2 49.7774 44.689 21.489
502 2 16.7778 8.27257 30.2201
503 2 6.85235 20.6109 46.0371
504 2 10.1806 39.6993 12.6271
505 2 6.67692 42.2912 7.26814
506 2 50.4266 30.2872 37.1605
507 2 55.107 30.6907 19.3339
508 2 35.4596 55.7299 47.5244
509 2 48.2419 11.1796 46.3249
510 2 26.961 33.8828 43.1379
511 2 12.4038 9.64121 27.8541
512 2 32.4083 26.1397 14.0825
513 2 17.0451 28.931 46.3573
514 2 34.3211 39.6088 55.0531
515 2 20.0044 51.6555 26.5464
516 2 26.3736 41.9075 23.9543
517 2 15.2409 44.807 18.7444
518 2 13.6612 52.707 18.8874
519 2 18.8728 20.8969 28.5254
520 2 28.3356 39.9059 34.7208
521 2 45.6088 9.64196 43.4416
522 2 14.4044 17.6097 35.7042
523 2 9.87823 20.0143 10.7805
524 2 25.0223 24.4609 7.23014
525 2 30.8033 21.0667 14.0362
526 2 15.1461 36.0963 43.5534
527 2 32.6863 47.964 6.51958
528 2 48.7963 47.5528 18.3674
529 2 23.5343 55.7514 26.3802
530 2 29.8974 10.1165 26.4407
531 2 50.5932 40.7903 6.21034
532 2 18.5842 33.7313 41.5269
533 2 9.11456 18.6084 49.4325
534 2 7.25517 7.45837 53.0258
535 2 42.4216 11.7606 10.5151
536 2 35.5679 43.9087 33.3311
537 2 45.615 25.9047 32.8411
538 2 6.87022 17.9592 32.9537
539 2 42.4442 22.0069 33.317
540 2 26.0253 52.3167 38.9794
541 2 38.6579 25.512 25.617
542 2 10.9258 55.4051 22.68
543 2 20.4244 55.7265 6.98511
544 2 14.338 25.5462 45.2284
545 2 54.2907 15.7203 30.3134
546 2 11.9195 46.0954 15.5507
547 2 50.0345 50.7626 18.4198
548 2 37.9809 45.3157 9.66022
549 2 36.541 34.6294 7.21113
550 2 30.012 23.3629 12.4306
551 2 44.277 25.2384 49.3618
552 2 26.0356 24.208 33.6642
553 2 52.8725 8.29647 11.5874
554 2 46.5729 55.7393 40.7667
555 2 19.8773 54.0823 53.6193
556 2 10.6818 48.5512 54.2603
557 2 47.2668 15.9179 55.6212
558 2 42.3049 21.5533 51.0562
559 2 23.4552 54.2198 36.4763
560 2 9.84745 33.1129 41.2293
561 2 43.0329 12.582 13.8203
562 2 47.6163 12.1978 54.7469
563 2 13.1936 42.0677 32.7524
564 2 14.9866 18.9452 45.62
565 2 35.6562 46.4494 50.2086
566 2 31.3486 33.9934 41.2931
567 2 52.6372 42.9333 10.5795
568 2 21.9762 49.1423 11.1219
569 2 33.4628 24.3676 37.5032
570 2 26.5394 20.6625 6.11431
571 2 40.544 11.6559 48.4989
572 2 36.6521 47.7687 43.8367
573 2 21.1538 11.5221 36.6074
574 2 17.9844 48.9875 35.466
575 2 13.1679 15.8022 42.4811
576 2 12.6648 49.9525 6.71341
577 2 14.8616 10.6749 21.356
578 2 51.8003 6.416 28.6748
579 2 7.11997 29.3599 36.1973
580 2 52.2641 53.0271 7.27964
581 2 53.0731 15.4049 49.2918
582 2 25.8576 47.323 42.3918
583 2 47.4196 10.9067 31.3862
584 2 32.9262 27.0276 11.0845
585 2 28.1178 10.873 48.1861
586 2 48.7295 35.9718 31.8224
587 2 34.717 44.4676 40.4772
588 2 16.2712 47.1607 50.3805
589 2 20.5271 38.7317 45.8924
590 2 24.201 30.6033 7.23672
591 2 28.6376 52.5933 14.3397
592 2 38.433 25.1716 15.1394
593 2 55.7768 44.6078 36.9129
594 2 17.1839 16.7004 40.125
595 2 30.5629 16.1577 10.7466
596 2 24.5942 29.6572 22.7804
597 2 21.8382 51.8179 36.7348
598 2 18.7282 23.9752 55.7439
599 2 22.6996 17.8799 36.9775
600 2 48.8899 54.4215 49.3557
601 2 24.6173 43.859 26.0474
602 2 28.462 20.2439 45.4063
603 2 14.0509 8.38649 23.6834
604 2 30.2311 15.0582 46.7277
605 2 42.4618 39.6851 19.7808
606 2 6.5215 39.7259 18.2414
607 2 21.2792 43.9815 28.9498
608 2 40.3386 29.522 39.2132
609 2 28.7237 19.4908 25.0607
610 2 12.142 13.9057 22.7607
611 2 33.8485 34.6647 9.03759
612 2 54.2241 10.2367 37.5486
613 2 50.7991 47.3876 31.2318
614 2 33.0799 21.2416 49.8551
615 2 52.1768 35.933 28.0472
616 2 43.8492 22.9684 40.4787
617 2 50.5274 28.4853 47.956
618 2 46.2229 23.2624 45.8399
619 2 12.7328 27.0421 22.2221
620 2 18.553 55.4146 36.4354
621 2 11.4445 15.9349 26.6003
622 2 28.4468 36.4543 29.9174
623 2 10.8692 34.8144 36.9251
624 2 15.3957 16.0031 23.9586
625 2 36.8802 44.9311 22.3628
626 2 8.23476 48.8006 23.8201
627 2 38.6173 17.1866 10.4725
628 2 41.2612 21.1051 39.8463
629 2 51.4926 18.0187 50.2214
630 2 53.9669 48.3543 17.6423
631 2 36.0847 32.3022 26.3189
632 2 12.6672 37.7453 15.8214
633 2 43.5119 18.1827 21.4494
634 2 33.9693 51.552 9.43437
635 2 12.4338 17.5112 46.6928
636 2 33.1941 48.2691 43.2732
637 2 18.8697 15.3228 55.4003
638 2 21.9454 48.7748 15.508
639 2 49.9996 49.1208 13.4151
640 2 17.8345 26.2553 54.0055
641 2 9.18883 39.9689 48.7728
642 2 19.2726 48.2462 39.4996
643 2 26.9568 26.5276 14.784
644 2 17.3351 23.4065 8.64594
645 2 21.4203 8.64031 55.3197
646 2 8.21387 33.6915 34.0158
647 2 54.2888 39.512 50.8971
648 2 8.70485 9.87141 46.808
649 2 44.8099 28.8443 33.795
650 2 30.425 9.18034 14.93
651 2 44.8686 18.3157 31.5501
652 2 46.105 17.8163 44.032
653 2 29.1649 51.4984 51.1349
654 2 35.1592 21.9718 28.45
655 2 42.0385 13.0787 49.9601
656 2 28.8782 10.7796 18.8094
657 2 27.7245 13.0274 26.9401
658 2 33.7437 48.5375 24.549
659 2 15.9653 10.1923 49.5986
660 2 44.6113 52.5722 15.6847
661 2 23.8595 43.0757 17.1872
662 2 53.594 12.7999 10.0112
663 2 40.5758 54.9005 16.7375
664 2 15.8139 20.6875 14.6602
665 2 46.8025 36.3629 20.3786
666 2 51.6972 25.299 41.8124
667 2 20.9003 18.5704 13.7495
668 2 38.6148 8.9397 51.6453
669 2 29.63 45.3396 29.0232
670 2 26.3199 20.4273 26.8359
671 2 53.0707 13.9205 51.7384
672 2 47.1012 36.7785 12.7879
673 2 8.81141 45.2943 12.9181
674 2 40.0284 22.8488 52.6141
675 2 21.802 34.6376 36.012
676 2 19.6599 42.6002 35.3286
677 2 24.6317 22.5201 20.4543
678 2 32.6381 44.3685 25.6714
679 2 43.9476 44.5195 20.7928
680 2 8.48869 50.5738 38.113
681 2 41.7925 43.3467 54.3053
682 2 28.1521 20.2771 32.3314
683 2 7.4351 16.4141 52.3108
684 2 51.548 40.5591 36.0878
685 2 13.1702 53.4962 49.215
686 2 35.9545 14.4825 17.5519
687 2 24.5352 9.99221 22.4212
688 2 48.4216 46.8029 45.473
689 2 30.9042 20.7867 39.1979
690 2 24.1868 35.6302 30.2068
691 2 8.52357 25.173 34.0039
692 2 8.87694 16.9462 10.1839
693 2 32.9081 48.3339 19.8573
694 2 38.8585 44.3093 54.0763
695 2 6.6729 54.7537 38.5549
696 2 19.7158 23.0247 12.3647
697 2 33.947 53.1331 21.0899
698 2 29.772 27.2408 48.7018
699 2 30.6909 30.9983 46.0796
700 2 33.0014 14.7465 30.8917
701 2 40.2394 23.5069 49.7215
702 2 50.4929 45.0196 36.6078
703 2 32.2135 29.1765 13.657
704 2 10.5381 48.6486 47.4228
705 2 37.0256 17.5716 43.8422
706 2 7.18124 22.2087 50.9375
707 2 45.5478 48.5413 16.6802
708 2 49.0425 12.9092 17.5069
709 2 9.37631 36.1794 40.4973
710 2 35.1475 9.31281 47.7584
711 2 51.4891 18.586 20.6481
712 2 10.0592 50.1471 41.0067
713 2 16.9394 17.3509 53.0976
714 2 46.9674 49.6976 9.30734
715 2 40.5882 51.3637 15.6948
716 2 16.7214 23.2969 41.5787
717 2 55.6787 43.8669 24.625
718 2 44.459 11.4531 35.8242
719 2 53.4259 27.3478 38.2131
720 2 21.0977 9.73833 27.4656
721 2 37.2349 28.5102 21.9106
722 2 44.0169 28.7012 6.3461
723 2 46.744 15.167 49.1395
724 2 16.6958 39.7346 20.0579
725 2 43.0883 17.3744 12.0849
726 2 32.6836 22.3522 32.1308
727 2 51.879 25.3903 22.339
728 2 29.1054 38.6203 44.5295
729 2 24.9436 16.7809 15.1715
730 2 33.9143 51.7346 42.0441
731 2 12.5413 7.41949 21.0147
732 2 21.4993 20.4181 45.9252
733 2 16.1039 25.241 19.5257
734 2 17.7721 7.84848 21.0629
735 2 44.7822 43.1018 42.5914
736 2 41.3412 36.9732 36.7304
737 2 6.3205 12.7288 33.8632
738 2 40.9096 26.5011 54.7082
739 2 22.0152 15.4464 38.7728
740 2 9.25917 22.8371 53.0031
741 2 55.5537 38.6157 42.792
742 2 40.9311 52.7575 27.4199
743 2 10.5421 36.3207 29.2738
744 2 9.97293 15.703 23.8533
745 2 34.312 30.2478 8.61201
746 2 47.8673 44.9472 11.1792
747 2 30.8065 38.5117 30.856
748 2 43.3805 53.1325 31.9092
749 2 41.1092 49.398 29.5024
750 2 14.3274 13.0709 25.3276
751 2 46.1292 23.9314 27.0427
752 2 45.354 25.7181 13.4794
753 2 31.4163 28.611 44.7896
754 2 20.5075 24.6906 17.1298
755 2 47.0297 37.059 15.8175
756 2 33.8632 21.9401 6.46874
757 2 43.9948 24.1816 24.4765
758 2 9.69962 49.4355 28.7619
759 2 37.9689 13.6967 45.9905
760 2 19.0496 43.9119 25.2861
761 2 14.662 14.4351 37.0948
762 2 54.2971 18.5641 12.9193
763 2 49.193 38.3725 17.268
764 2 41.6311 40.7861 42.7822
765 2 38.2945 10.0996 47.6488
766 2 49.4832 53.7394 6.87606
767 2 25.7217 16.5744 49.2512
768 2 8.44613 12.5198 15.13
769 2 27.7618 23.8528 53.1297
770 2 46.2296 47.3532 38.6808
771 2 44.1834 52.7992 12.7249
772 2 23.4554 24.9188 12.1939
773 2 52.6224 37.9206 32.3443
774 2 48.351 50.9595 30.7536
775 2 37.0346 47.9652 31.0987
776 2 53.1697 30.2007 23.613
777 2 9.04325 41.0844 45.3654
778 2 42.2875 50.2184 38.5286
779 2 37.3598 42.1978 21.4778
780 2 31.595 19.3228 25.8715
781 2 37.1361 12.0074 16.2807
782 2 10.7546 16.5335 12.4656
783 2 33.0034 10.0983 32.9642
784 2 41.5135 17.1818 54.3165
785 2 39.552 34.8783 42.245
786 2 9.8538 21.9032 22.4315
787 2 42.3527 39.8689 46.1919
788 2 49.4552 48.2556 52.2287
789 2 15.025 49.7828 32.696
790 2 30.9118 28.928 24.1093
791 2 33.2951 41.7219 12.9588
792 2 34.9025 37.1633 24.4147
793 2 35.8941 40.9239 34.2328
794 2 27.0701 36.0882 47.7026
795 2 41.0641 39.714 29.3465
796 2 36.0832 23.4007 10.716
797 2 32.9238 18.9406 13.8129
798 2 51.3082 38.0371 42.1252
799 2 27.0003 33.1302 24.4623
800 2 17.9341 28.8904 14.5937
801 2 40.7178 26.7472 21.8784
802 2 28.8246 27.1269 17.4342
803 2 22.14 14.1688 55.1898
804 2 46.5575 49.7489 42.0856
805 2 51.9161 25.115 11.665
806 2 14.3887 34.739 15.4828
807 2 36.6529 32.1564 12.5388
808 2 40.7093 22.6858 15.325
809 2 18.9004 47.3236 24.624
810 2 18.1119 10.8578 24.2694
811 2 20.8892 52.0204 42.9543
812 2 44.5181 47.8266 11.8024
813 2 16.8024 16.864 11.0495
814 2 16.6162 7.22865 53.6281
815 2 16.6743 44.3839 51.8006
816 2 29.779 34.9789 36.3137
817 2 11.9639 16.6926 33.2256
818 2 49.5199 9.57263 48.7248
819 2 44.9577 12.3319 6.52039
820 2 13.9209 35.5232 53.1568
821 2 30.4703 6.85518 46.3238
822 2 53.1142 22.2088 33.6478
823 2 19.2059 42.0262 8.52602
824 2 32.5063 54.8034 7.01325
825 2 43.2648 7.90066 29.9084
826 2 42.1071 30.7247 8.47566
827 2 11.9589 41.798 13.9171
828 2 27.5765 12.2847 35.7387
829 2 50.6363 6.12268 53.4043
830 2 54.6762 35.093 45.8248
831 2 48.1505 12.5499 14.4747
832 2 28.6611 47.4384 31.5127
833 2 18.3476 32.2977 20.1369
834 2 44.2073 34.6359 33.9925
835 2 50.6167 41.2134 47.5162
836 2 27.115 13.9611 21.2834
837 2 41.3673 55.6244 25.805
838 2 7.02384 12.095 48.4906
839 2 9.91047 44.2223 26.6646
840 2 38.6514 44.3459 19.6452
841 2 24.375 28.9081 33.4468
842 2 51.8074 29.8597 31.9751
843 2 50.0069 20.9155 40.1025
844 2 47.4312 8.73464 12.1209
845 2 13.71 38.1956 30.5597
846 2 20.581 55.3714 43.5518
847 2 45.2052 45.8273 9.96958
848 2 20.4868 46.7384 34.7119
849 2 13.6723 31.5717 44.4412
850 2 7.46763 30.545 14.0716
851 2 38.3078 25.3432 11.6166
852 2 12.145 9.09085 43.8308
853 2 39.4962 45.7596 30.8681
854 2 8.57713 40.5034 21.5555
855 2 30.3401 42.3018 16.0502
856 2 8.04948 28.3302 27.5558
857 2 9.54001 21.4002 44.385
858 2 22.6996 39.8616 34.4204
859 2 8.92929 36.281 26.8495
860 2 27.2819 37.7458 27.1332
861 2 41.6383 50.4266 51.789
862 2 11.1381 11.8912 10.6925
863 2 13.0026 13.9541 17.4667
864 2 25.095 38.0526 41.3918
865 2 12.9497 31.4653 47.3245
866 2 10.0657 55.8005 30.2777
867 2 8.5589 31.8973 55.0702
868 2 32.844 37.3241 7.56408
869 2 31.2139 30.4635 10.8154
870 2 14.9748 17.6895 38.921
871 2 54.1805 7.6125 27.4642
872 2 42.3532 34.0847 18.6142
873 2 17.752 21.5964 31.0054
874 2 48.7533 25.1169 26.0874
875 2 31.0158 37.2777 48.2643
876 2 42.0767 27.8191 30.9728
877 2 25.5535 46.2157 10.1115
878 2 26.0163 10.1811 38.1839
879 2 17.8794 51.5641 24.2732
880 2 16.7013 28.2755 21.836
881 2 7.71132 35.2638 36.8956
882 2 23.5849 34.4932 42.0236
883 2 6.15313 49.5148 42.5975
884 2 28.05 46.6875 36.1295
885 2 19.6949 48.1619 27.2984
886 2 15.3971 14.5734 28.2838
887 2 44.9628 49.4647 51.6027
888 2 39.9386 25.8708 45.947
889 2 38.5288 32.1064 54.0393
890 2 43.173 54.9186 14.958
891 2 45.901 8.27135 21.7511
892 2 44.4021 43.4541 28.2419
893 2 42.2909 35.9066 32.5756
894 2 46.4066 28.3249 9.86975
895 2 35.9979 39.5818 22.2223
896 2 32.9424 33.691 16.0694
897 2 23.9028 31.2881 50.2554
898 2 11.7697 41.0198 41.8628
899 2 51.6521 40.8855 29.097
900 2 45.0887 50.2993 27.977
901 2 52.0219 46.8624 22.2265
902 2 55.6241 9.92645 25.4043
903 2 42.2373 47.8891 43.0603
904 2 24.6954 30.4467 13.1113
905 2 50.2098 28.1823 13.2723
906 2 16.2984 10.4298 36.8549
907 2 21.0394 44.8531 21.3283
908 2 39.364 19.2817 43.6542
909 2 51.7636 17.6163 53.6064
910 2 30.086 12.4164 31.1263
911 2 28.9839 27.1262 44.1291
912 2 53.1404 7.45499 15.6974
913 2 24.8997 29.011 20.0052
914 2 31.4746 32.4889 52.659
915 2 12.4581 46.8208 43.4296
916 2 13.9039 23.5689 30.2619
917 2 34.5744 14.98 53.6904
918 2 8.54823 11.9398 37.693
919 2 17.3964 32.2329 31.8389
920 2 45.5881 9.50633 25.0419
921 2 24.7645 41.2746 19.2062
922 2 7.04193 54.6453 29.8066
923 2 41.9911 55.1956 8.04313
924 2 40.9121 14.5932 38.7421
925 2 52.9682 24.4748 37.1431
926 2 40.4314 47.6232 51.3094
927 2 26.1311 50.8573 20.5508
928 2 28.1322 42.8292 17.4187
929 2 24.3419 13.6762 9.3045
930 2 25.2158 51.8395 53.5353
931 2 23.2196 43.7232 13.6279
932 2 15.6253 54.9193 43.0374
933 2 35.7344 34.2478 32.9429
934 2 21.4069 11.8921 30.0076
935 2 24.759 22.3915 24.6304
936 2 9.37688 37.0969 22.2944
937 2 24.1328 8.841 42.3043
938 2 11.2914 11.6227 45.1731
939 2 54.0059 53.8675 13.1321
940 2 19.4133 16.7125 30.2401
941 2 20.2593 54.9537 29.3742
942 2 51.7848 36.4074 48.9973
943 2 22.9601 26.5155 37.8493
944 2 48.3822 14.2019 28.5818
945 2 28.2787 23.2574 50.3749
946 2 34.0052 18.1212 18.3191
947 2 30.5726 45.4108 19.2219
948 2 25.6159 38.925 20.9584
949 2 18.6053 10.3404 19.5464
950 2 46.3753 29.1449 22.0158
951 2 25.9792 38.8307 55.2457
952 2 33.1384 23.7336 12.3923
953 2 8.08486 38.4529 51.1404
954 2 21.4562 33.3744 10.1214
955 2 55.3055 48.4179 25.8763
956 2 43.8058 9.78 14.1052
957 2 29.7054 40.013 24.0862
958 2 31.9239 37.4137 21.4459
959 2 22.5462 35.4897 44.8787
960 2 31.4655 29.9568 29.4805
961 2 44.9524 25.5178 20.4461
962 2 32.6323 26.3068 29.0003
963 2 21.8707 41.3058 36.6346
964 2 28.4128 35.7245 18.9717
965 2 27.4887 21.9014 19.9803
966 2 8.85129 19.6993 20.679
967 2 33.3064 16.608 21.0122
968 2 35.3694 25.9971 15.2247
969 2 17.3574 25.0126 48.3877
970 2 31.9691 12.4277 46.6702
971 2 50.8789 16.1141 14.6595
972 2 36.4424 22.3118 38.7422
973 2 46.8962 20.9866 37.4161
974 2 28.4947 6.52126 53.6157
975 2 11.4372 31.3609 14.8012
976 2 18.5198 13.246 20.7203
977 2 18.097 13.9022 47.679
978 2 24.2662 26.1472 35.4123
979 2 18.9097 27.1925 6.91818
980 2 20.5179 51.6003 55.5476
981 2 41.4727 19.7025 34.5231
982 2 13.9681 17.3324 53.9826
983 2 49.2943 47.3722 9.6335
984 2 15.4721 7.29504 18.7734
985 2 24.1511 17.1294 32.1841
986 2 36.8412 8.32518 12.1322
987 2 10.7747 8.37766 23.5196
988 2 12.0714 51.1379 32.2581
989 2 31.4459 51.0918 15.3015
990 2 18.1474 22.717 35.0399
991 2 40.4619 7.38923 53.875
992 2 33.425 46.2099 32.0532
993 2 41.4933 14.7767 27.1532
994 2 38.8722 7.15054 26.6614
995 2 6.70435 20.1147 11.944
996 2 54.9993 14.4272 44.5512
997 2 27.3531 54.0737 51.7598
998 2 33.4665 15.105 11.2254
999 2 31.603 48.7269 33.0465
1000 2 44.8028 51.5792 8.31942
1001 2 44.5238 37.8102 19.5902
1002 2 37.2342 34.4119 47.6042
1003 2 27.0445 29.045 31.9718
1004 2 8.66593 43.3032 10.8595