ITEM: TIMESTEP
0
ITEM: NUMBER OF ATOMS
9088
ITEM: BOX BOUNDS xy xz yz pp pp pp
6.0838616515535842e+00 5.5847076140612472e+01 -5.7094066106061328e-15
6.0838616515535895e+00 5.5847076140612472e+01 0.0000000000000000e+00
6.0838616515535895e+00 5.5847076140612472e+01 0.0000000000000000e+00
ITEM: ATOMS id type x y z
1 2 35.3382 49.2594 50.1354
2 2 6.98625 38.9683 20.7158
3 2 44.7154 9.70577 8.56881
4 2 19.1102 44.8291 13.4398
5 2 15.1434 34.351 16.6505
6 2 36.5085 27.9846 39.3784
7 2 18.2842 38.5048 7.1594
8 2 28.8808 9.47003 52.4428
9 2 10.2254 22.0791 15.5674
10 2 53.7548 19.1867 17.5306
11 2 29.9194 10.0847 11.9916
12 2 7.13896 24.403 33.0717
13 2 15.1978 47.7572 37.1982
14 2 50.5691 30.119 17.6824
15 2 45.2316 8.94003 32.5009
16 2 39.3191 16.96 39.602
17 2 18.2091 36.7402 43.8611
18 2 35.9183 23.627 17.7504
19 2 19.0437 32.0147 12.0483
20 2 20.2012 33.3426 52.2856
21 2 25.0261 19.5423 30.5873
22 2 30.2692 23.1759 49.2063
23 2 26.4286 36.972 42.5986
24 2 9.07993 40.694 55.5698
25 2 42.1795 44.5055 36.8785
26 2 44.4579 8.31423 41.4223
27 2 33.8174 51.5402 27.8432
28 2 49.402 45.0777 14.342
29 2 21.6989 16.609 44.0435
30 2 16.2545 10.724 33.0887
31 2 40.8933 48.4777 22.2612
32 2 11.148 44.163 9.50125
33 2 10.5571 11.1516 49.2344
34 2 39.0725 35.4037 45.7311
35 2 33.4361 36.6957 24.3356
36 2 41.5939 52.9598 16.1024
37 2 39.4758 48.412 54.4732
38 2 24.9744 6.1318 32.3612
39 2 33.4963 9.6899 12.1556
40 2 27.6078 39.0972 31.03
41 2 51.7021 50.0566 49.24
42 2 22.2822 54.3784 51.9293
43 2 19.3294 45.4454 54.5783
44 2 30.0502 32.6867 32.7708
45 2 25.3184 24.549 21.807
46 2 45.8413 12.0764 16.0063
47 2 16.8021 52.2003 45.694
48 2 31.5603 24.5223 36.1187
49 2 33.3048 40.9616 14.7089
50 2 51.5922 20.6549 30.5499
51 2 27.3052 30.7927 17.6704
52 2 26.6601 29.7185 25.2796
53 2 18.6492 36.745 19.423
54 2 45.4832 54.2208 32.4275
55 2 16.8068 22.91 13.4266
56 2 49.5934 43.6721 21.2459
57 2 52.1425 30.5062 55.5325
58 2 53.3822 36.596 13.5241
59 2 17.4913 48.4204 9.14106
60 2 52.5681 28.3317 25.6689
61 2 33.6224 31.3905 39.9398
62 2 26.0739 39.1369 50.4994
63 2 53.5002 40.384 20.9208
64 2 19.9401 36.5721 10.9463
65 2 43.4433 28.9307 8.79422
66 2 43.0812 12.6338 36.1932
67 2 11.1035 48.735 27.3005
68 2 52.2004 19.8981 11.8015
69 2 29.6062 42.7309 37.2406
70 2 8.19635 39.7809 17.9626
71 2 19.7059 39.1102 41.5199
72 2 35.4722 38.7182 9.60962
73 2 53.9553 39.065 26.9763
74 2 27.5606 48.1692 30.945
75 2 53.7726 13.3039 38.7201
76 2 55.7315 41.4835 27.3646
77 2 30.8845 13.1995 36.5049
78 2 43.718 23.8003 12.7472
79 2 50.2485 9.55689 37.7195
80 2 39.4318 53.7308 18.5097
81 2 36.2708 41.3782 33.2224
82 2 21.7518 9.01791 8.28698
83 2 22.0394 36.7392 34.2193
84 2 44.6366 36.7143 20.5205
85 2 36.2874 42.0536 51.0766
86 2 34.0844 38.5784 39.2134
87 2 26.4953 33.2157 13.9696
88 2 15.5411 20.0669 22.7482
89 2 6.70131 48.6253 48.2082
90 2 28.3159 22.0614 29.4435
91 2 36.8182 10.623 49.6018
92 2 21.6492 15.2713 35.6766
93 2 7.1354 52.9912 39.6803
94 2 46.4742 45.7404 13.7742
95 2 43.1216 11.3786 6.18044
96 2 55.5452 48.0332 35.7085
97 2 41.3952 39.0595 17.592
98 2 22.1498 24.7574 8.29354
99 2 25.718 12.2113 36.6873
100 2 7.31604 21.0538 33.0283
101 2 30.8912 30.4437 17.2062
102 2 46.7856 53.5815 24.5781
103 2 9.18954 27.1652 10.2871
104 2 21.9006 37.7714 50.9531
105 2 13.9434 28.4288 29.463
106 2 52.5362 45.6671 36.004
107 2 42.4746 6.32079 25.7133
108 2 33.5586 50.4646 6.78764
109 2 15.4236 14.7719 11.1526
110 2 23.3694 31.2479 17.3361
111 2 16.8792 20.6157 15.1387
112 2 32.8946 27.7728 17.865
113 2 40.0608 47.7183 11.8775
114 2 33.5462 7.13468 36.3549
115 2 38.9735 54.7605 34.4395
116 2 38.0274 9.14278 8.45077
117 2 26.9191 26.2436 52.2959
118 2 28.6004 42.3897 23.3161
119 2 11.0471 12.8479 12.0149
120 2 19.5199 40.0026 30.612
121 2 10.8579 22.9133 53.3112
122 2 26.4635 6.88379 17.509
123 2 40.3855 12.3018 32.3927
124 2 26.594 41.1883 16.9147
125 2 10.1881 26.7381 21.6819
126 2 36.155 6.9535 9.00673
127 2 13.5723 21.8295 50.2212
128 2 48.6546 44.1966 43.8368
129 2 29.6545 34.9504 23.1726
130 2 44.1829 30.7111 6.55326
131 2 55.1021 19.8377 24.8662
132 2 28.0926 9.78443 16.8093
133 2 35.3269 41.4413 23.4292
134 2 22.9902 42.1085 52.3682
135 2 30.3179 6.71201 6.17656
136 2 6.5266 7.86134 27.4097
137 2 17.6966 49.2976 35.7152
138 2 44.397 23.5229 41.5603
139 2 55.0903 22.1289 45.6156
140 2 12.9085 40.7921 36.2567
141 2 42.75 37.3284 37.9459
142 2 25.4136 11.7013 7.27691
143 2 46.618 25.0547 7.75078
144 2 15.2901 19.0245 44.0758
145 2 38.2808 24.9042 32.4991
146 2 23.0397 14.131 7.89588
147 2 32.192 48.1455 41.3599
148 2 21.1142 28.9399 11.1597
149 2 29.5976 21.9734 14.9368
150 2 19.0454 43.0759 49.5485
151 2 13.3456 46.7308 21.4673
152 2 17.0051 14.3776 38.4688
153 2 17.924 50.2062 18.3671
154 2 36.3643 27.2095 49.2364
155 2 34.3574 14.4847 29.0875
156 2 31.883 51.3081 21.0719
157 2 30.0752 9.95136 36.1925
158 2 46.1997 44.105 34.2929
159 2 20.5543 13.8153 44.5435
160 2 26.735 22.9136 19.2473
161 2 28.3192 41.7579 14.1051
162 2 40.7281 22.1962 28.8413
163 2 42.3769 23.0988 47.5662
164 2 32.0481 9.05589 49.7981
165 2 28.9595 33.5272 44.9458
166 2 25.768 39.1826 12.5551
167 2 23.0677 51.5224 14.1947
168 2 6.85327 14.149 8.91567
169 2 34.1013 41.3643 30.7434
170 2 13.2183 39.9973 32.1616
171 2 19.8498 12.177 12.0633
172 2 15.9651 33.2524 8.93458
173 2 10.2409 30.0416 46.3722
174 2 14.9739 21.5911 10.9009
175 2 15.9773 41.0022 28.2725
176 2 44.8546 27.3436 53.533
177 2 47.4088 54.9898 12.76
178 2 32.2336 47.3175 46.3682
179 2 18.2411 51.2453 50.5461
180 2 6.80314 54.8873 37.3949
181 2 7.63767 29.8702 48.4852
182 2 38.5283 40.4734 32.4318
183 2 46.1738 48.6512 33.3109
184 2 55.6496 36.4995 29.6879
185 2 34.6089 30.0711 55.5899
186 2 51.377 22.7058 14.1439
187 2 31.5827 49.3262 44.0914
188 2 48.1675 47.5082 50.8427
189 2 52.8879 51.8931 37.7315
190 2 31.834 36.9359 11.3041
191 2 22.7262 8.02449 25.8999
192 2 35.6339 16.981 19.8451
193 2 52.9579 41.3362 47.7632
194 2 39.2483 14.5723 34.7637
195 2 52.1967 31.397 38.6848
196 2 29.4968 18.0298 32.0902
197 2 18.4212 18.9267 16.5834
198 2 39.0893 29.4236 27.8605
199 2 39.6746 39.186 23.3636
200 2 54.9013 50.7364 40.0019
201 2 8.2752 45.1784 20.8115
202 2 25.6993 32.5497 44.6869
203 2 23.7241 41.9073 29.6833
204 2 36.1932 11.029 31.3836
205 2 22.382 18.8796 54.4021
206 2 43.2417 26.2701 21.803
207 2 6.92903 8.46025 50.8696
208 2 16.8025 7.89104 30.8188
209 2 54.0909 51.8216 9.39313
210 2 14.2362 25.5819 23.5229
211 2 45.0921 36.175 9.68277
212 2 40.4754 53.7872 37.0245
213 2 10.5916 11.514 51.8476
214 2 11.041 26.8552 15.615
215 2 9.20866 44.4682 24.1288
216 2 47.7045 41.1486 21.8675
217 2 52.9247 23.7234 42.4518
218 2 23.891 38.7814 20.7005
219 2 53.1041 36.11 27.7201
220 2 21.4381 36.3042 29.4988
221 2 20.8489 43.1631 30.9992
222 2 44.9119 19.5573 20.2842
223 2 29.7324 19.4194 16.6279
224 2 13.8756 45.829 6.53954
225 2 20.4431 52.3305 48.3659
226 2 43.5488 12.9181 19.6003
227 2 49.0746 15.8159 25.7759
228 2 28.6477 9.54399 47.2108
229 2 29.5965 25.6627 38.8511
230 2 28.0874 34.3091 30.9249
231 2 45.9754 39.6083 17.4216
232 2 31.7332 48.3586 16.8394
233 2 45.7397 6.4713 18.9856
234 2 15.1571 10.7798 40.3271
235 2 50.3657 8.57559 45.0126
236 2 33.3134 9.88418 20.029
237 2 21.6138 49.0498 37.7995
238 2 40.2017 7.75201 10.399
239 2 19.4874 41.5878 52.3737
240 2 6.8803 18.4819 42.3151
241 2 27.9163 54.9949 43.8611
242 2 28.9693 14.4467 17.5374
243 2 22.1412 23.0422 53.6855
244 2 23.3998 47.189 12.9646
245 2 43.9398 41.6 30.9437
246 2 17.1827 36.7417 37.5024
247 2 52.4256 30.6897 22.5978
248 2 53.8968 44.808 44.5452
249 2 46.8357 50.6492 25.8713
250 2 53.5209 24.3891 53.274
251 2 24.0933 33.7616 15.9207
252 2 6.61636 27.0346 39.912
253 2 14.8482 53.9673 9.37347
254 2 13.6918 33.8426 39.1192
255 2 30.752 52.3143 18.4023
256 2 13.9655 38.7793 6.46666
257 2 18.2631 24.6308 40.5564
258 2 19.5385 46.5266 38.4368
259 2 54.8272 43.8329 18.0989
260 2 35.864 6.84304 52.1975
261 2 8.56604 51.5824 24.3436
262 2 48.8454 22.0032 54.058
263 2 21.8091 52.6657 6.1173
264 2 6.46 27.6598 14.564
265 2 32.1464 49.0764 9.35949
266 2 9.39843 24.6407 43.4573
267 2 55.6516 12.456 51.505
268 2 9.0979 49.8438 55.1116
269 2 25.3862 25.2455 18.6835
270 2 36.8016 17.4298 47.4174
271 2 14.9697 18.4221 47.3774
272 2 8.73108 34.2586 31.8419
273 2 25.2262 54.6666 47.4477
274 2 37.2646 54.4068 26.5726
275 2 51.2988 21.405 46.7131
276 2 14.3087 42.4587 33.9913
277 2 47.6245 49.8627 28.8148
278 2 15.6366 41.5616 16.9546
279 2 51.9282 9.5473 51.8909
280 2 34.4066 33.8431 25.0601
281 2 32.065 33.1745 23.074
282 2 31.9116 35.0385 33.4472
283 2 34.717 40.7702 11.8365
284 2 16.2445 18.0222 40.4945
285 2 48.4505 12.3151 34.9754
286 2 24.5832 31.3408 24.3558
287 2 7.32856 38.1349 9.65797
288 2 55.7787 40.9444 13.9629
289 2 26.0324 26.8271 49.3356
290 2 7.09971 38.6013 6.56382
291 2 19.6082 18.8415 29.9723
292 2 9.73959 16.2206 14.3004
293 2 25.9983 26.6637 24.2175
294 2 13.7077 43.0948 24.8776
295 2 35.7788 35.7212 51.9364
296 2 21.9049 17.8728 21.5652
297 2 34.6814 14.1805 21.8479
298 2 6.81495 30.2386 23.8253
299 2 36.4876 9.72853 34.4558
300 2 43.6907 20.9237 49.1883
301 2 40.0535 11.1335 6.83997
302 2 50.5151 17.3364 45.2963
303 2 27.4891 28.5131 45.3653
304 2 34.9126 29.9348 37.6262
305 2 32.4221 17.5785 28.2768
306 2 50.3635 48.5687 46.989
307 2 29.3781 30.66 38.5732
308 2 22.9502 11.5929 38.6061
309 2 42.3334 15.7378 36.0697
310 2 12.4598 25.589 8.54579
311 2 17.2432 37.7912 25.8839
312 2 47.0062 26.1268 30.5799
313 2 29.6501 7.40896 23.1232
314 2 47.1564 18.461 9.07707
315 2 7.17348 52.5239 27.3504
316 2 54.0754 14.965 25.2045
317 2 47.5394 26.3069 23.9867
318 2 19.986 19.3518 34.3062
319 2 11.5899 54.6668 39.4546
320 2 6.98349 38.8319 37.4795
321 2 50.2734 24.7468 12.2555
322 2 16.2557 40.9009 53.3988
323 2 51.3086 34.6033 12.2708
324 2 48.7764 14.4202 29.2781
325 2 29.7106 6.51431 39.1531
326 2 24.2699 10.5841 31.7131
327 2 39.248 15.8883 43.7292
328 2 23.6983 55.614 27.4965
329 2 46.7237 21.8327 34.5044
330 2 39.9889 8.34755 25.9227
331 2 54.9282 28.4095 27.8474
332 2 49.4741 25.2285 19.3176
333 2 21.6995 48.3541 42.1361
334 2 20.8118 31.6067 44.1756
335 2 50.5163 20.8521 40.0564
336 2 32.5795 15.1455 38.1683
337 2 27.1382 41.7617 52.7817
338 2 11.6632 33.8391 10.363
339 2 39.449 32.7045 27.1942
340 2 11.801 48.5575 38.5461
341 2 17.1172 23.4171 53.9172
342 2 48.3425 14.5282 41.6275
343 2 49.0641 36.791 20.3922
344 2 11.5821 16.9696 41.8219
345 2 19.6286 23.6385 15.779
346 2 10.1085 20.7483 55.0269
347 2 13.1346 42.5223 52.7165
348 2 47.4711 52.0498 53.7782
349 2 30.0123 10.5641 8.81761
350 2 40.1173 25.631 52.8341
351 2 55.589 10.6773 8.84678
352 2 32.244 16.0726 43.0554
353 2 32.8186 45.606 15.293
354 2 49.4331 28.2944 8.09136
355 2 25.088 49.3942 31.8689
356 2 46.6586 45.8089 55.4451
357 2 31.702 55.3279 51.2338
358 2 55.0123 38.3742 53.5811
359 2 18.5336 37.5519 46.6621
360 2 19.991 48.9203 15.7177
361 2 47.5371 18.7431 48.8209
362 2 25.8793 15.4652 12.1508
363 2 46.1195 26.1266 26.3876
364 2 24.694 48.9916 27.2063
365 2 25.3016 25.4139 39.6668
366 2 19.1998 8.70581 45.7003
367 2 52.8196 48.0004 13.9002
368 2 23.7566 44.509 40.8649
369 2 27.1833 47.4093 42.2343
370 2 12.1612 28.7872 20.9121
371 2 14.0921 45.1368 17.3999
372 2 13.6791 13.1531 27.7044
373 2 25.4395 51.8177 36.8115
374 2 42.3361 47.2484 45.9626
375 2 33.6966 32.8867 13.1989
376 2 33.8595 21.3444 30.2113
377 2 17.0526 12.1545 15.3611
378 2 26.9984 51.8218 47.7244
379 2 23.1647 36.8117 41.6255
380 2 9.3466 52.5277 34.7885
381 2 16.4868 10.2617 23.8313
382 2 21.0377 38.2047 8.09048
383 2 12.2891 22.0112 26.325
384 2 20.9026 46.0372 44.0968
385 2 13.6202 38.0836 14.9925
386 2 46.4192 48.1382 48.7145
387 2 49.813 45.0943 49.6356
388 2 15.2332 25.9698 26.0394
389 2 21.1291 40.2596 20.4974
390 2 17.595 49.0952 55.5452
391 2 18.0856 44.8403 25.1162
392 2 7.02905 42.3163 49.7368
393 2 42.24 10.4475 26.9934
394 2 25.9846 45.7701 15.4064
395 2 34.9029 17.043 27.241
396 2 42.5324 22.4414 18.463
397 2 16.0252 20.4256 26.5448
398 2 33.4763 45.3606 49.4941
399 2 38.6274 39.7222 44.721
400 2 20.5539 54.2224 26.5703
401 2 15.8948 28.7625 8.71173
402 2 51.7846 18.8969 49.0814
403 2 13.679 42.1611 29.4014
404 2 28.2985 14.7583 23.1149
405 2 23.983 10.6858 14.6354
406 2 30.4081 43.0217 18.5043
407 2 36.5915 50.935 33.9529
408 2 41.1682 15.3573 24.7936
409 2 52.6438 47.7209 24.1945
410 2 7.48322 25.4763 48.6728
411 2 23.7899 8.32155 39.4833
412 2 31.4038 33.9383 27.718
413 2 11.4929 48.0481 33.877
414 2 50.1481 38.2193 46.5304
415 2 9.28136 27.1941 47.4059
416 2 50.3274 27.3588 14.153
417 2 18.3018 22.2238 6.89498
418 2 19.8537 7.13105 17.7886
419 2 41.2653 29.9957 41.9236
420 2 20.6792 16.9864 11.9198
421 2 29.0911 48.9671 50.7651
422 2 40.9848 47.7676 36.6588
423 2 46.786 21.5706 31.4471
424 2 50.3777 50.2585 33.8023
425 2 14.742 36.5285 22.585
426 2 26.3548 18.5418 12.0217
427 2 32.9754 15.39 53.0756
428 2 16.3203 16.1218 52.1336
429 2 26.3394 14.9945 29.2101
430 2 49.1845 39.4998 51.2524
431 2 28.1789 54.9306 24.7397
432 2 25.9622 33.1085 53.2052
433 2 25.0832 10.6692 12.3405
434 2 13.8295 31.5798 16.8475
435 2 30.8765 27.9807 39.2303
436 2 10.9751 53.9365 7.40145
437 2 24.9592 55.5122 38.7422
438 2 43.0094 43.1926 48.9803
439 2 22.2599 33.4718 13.3531
440 2 10.2697 24.2761 13.0634
441 2 37.7332 28.0031 25.6325
442 2 44.8656 14.2671 27.4151
443 2 55.4502 23.2611 40.7838
444 2 34.3143 35.8702 9.85254
445 2 51.5459 52.7157 50.6267
446 2 9.65632 54.0245 17.7186
447 2 29.6576 21.3194 33.4751
448 2 19.5167 9.73671 29.8134
449 2 32.1976 25.2736 52.1609
450 2 26.286 46.1372 39.3774
451 2 8.00291 42.1317 52.5895
452 2 46.8386 30.8606 43.883
453 2 23.472 23.5295 38.4062
454 2 42.5079 11.0668 10.6669
455 2 50.2741 53.3877 11.9213
456 2 27.6472 27.5393 18.3989
457 2 24.9347 53.2821 26.1364
458 2 44.975 25.3893 10.3582
459 2 53.5937 11.2287 17.8063
460 2 9.30621 23.3477 49.5138
461 2 33.0363 25.981 22.6643
462 2 23.9664 40.9721 32.9725
463 2 53.3705 22.6909 9.01908
464 2 33.3373 26.5754 14.3856
465 2 6.34108 52.9973 49.0908
466 2 35.5337 45.5379 22.7388
467 2 20.8281 21.5373 30.6275
468 2 42.4866 7.96935 9.25247
469 2 54.1771 7.65814 8.83168
470 2 46.4791 53.767 21.3971
471 2 41.6863 7.7749 18.8179
472 2 39.7719 27.4147 23.4845
473 2 51.1034 18.8454 42.7031
474 2 19.6727 27.9979 31.7011
475 2 41.1094 32.9298 8.72142
476 2 16.9123 28.7953 29.7567
477 2 36.48 39.3699 29.3989
478 2 25.3931 38.6028 32.2868
479 2 39.3402 10.2656 35.9109
480 2 23.976 18.3929 43.0701
481 2 22.0675 34.6086 43.7051
482 2 32.3965 23.8805 30.1228
483 2 9.41942 28.1312 28.1207
484 2 48.5669 19.6329 16.3787
485 2 20.278 14.9222 18.3128
486 2 47.3729 41.8811 10.7969
487 2 33.0355 8.59523 6.17091
488 2 10.5333 15.3478 34.5178
489 2 6.85189 36.6672 14.3358
490 2 38.6475 44.2437 24.0253
491 2 37.7369 35.1145 16.7188
492 2 37.588 24.3666 48.5364
493 2 44.1983 30.073 53.3999
494 2 53.5059 11.7059 13.8928
495 2 15.2162 9.70076 50.6331
496 2 48.5705 12.5143 32.1141
497 2 6.39746 27.1094 11.3482
498 2 20.847 53.9628 20.9622
499 2 55.3685 51.1555 51.8717
500 2 10.0318 19.4092 43.5718
501 2 18.1253 30.9491 31.2083
502 2 34.9749 43.8927 39.8945
503 2 24.96 7.06071 6.30241
504 2 28.305 25.8242 22.333
505 2 24.8592 28.8788 16.9026
506 2 18.6073 16.4796 47.2621
507 2 23.6157 16.9377 29.0057
508 2 53.9794 41.7369 7.81952
509 2 17.087 46.4989 6.54678
510 2 45.1542 20.1102 53.0748
511 2 30.5934 45.3022 37.8565
512 2 50.6944 12.2628 23.8456
513 2 35.4833 15.808 6.81129
514 2 52.2094 25.47 14.9317
515 2 37.9684 37.7668 36.5867
516 2 44.5505 28.1806 33.6105
517 2 33.2854 30.8708 28.4193
518 2 32.0104 38.7182 28.3865
519 2 36.9442 6.80263 38.5347
520 2 46.6545 26.3214 44.2419
521 2 14.2369 45.5529 53.36
522 2 32.551 53.6528 45.0805
523 2 28.0462 6.10853 20.4636
524 2 43.327 10.55 17.0422
525 2 49.4023 7.29758 23.3949
526 2 33.4309 22.4144 53.2788
527 2 50.7679 34.3086 16.5268
528 2 17.08 33.7338 28.0209
529 2 41.3495 41.7838 36.3665
530 2 47.7183 46.2474 36.5901
531 2 18.7349 27.1604 16.1888
532 2 37.5654 19.8523 51.598
533 2 27.5162 54.9004 9.41231
534 2 25.3285 43.2631 13.2214
535 2 10.1581 47.9124 20.679
536 2 53.9007 30.0794 43.2112
537 2 14.1024 11.9402 42.8578
538 2 25.0118 54.3404 42.8601
539 2 10.8376 8.38418 43.3779
540 2 43.9675 38.6878 48.8539
541 2 6.96008 11.4764 35.5318
542 2 28.858 41.48 32.7417
543 2 38.9592 42.1998 16.7638
544 2 32.5976 11.5367 55.3104
545 2 22.8115 52.0482 40.3169
546 2 30.083 32.615 25.4219
547 2 18.541 37.0166 28.0907
548 2 6.13567 31.2659 19.7854
549 2 55.4194 21.1235 17.2998
550 2 48.012 9.45271 22.1941
551 2 12.7185 11.499 9.46136
552 2 43.8398 10.3025 43.6529
553 2 21.1493 44.5137 20.8943
554 2 15.2878 41.9429 50.4703
555 2 38.4289 40.4989 13.5707
556 2 29.0922 34.6362 14.1315
557 2 15.6562 52.0701 15.9304
558 2 10.6922 7.82702 11.0388
559 2 41.3214 40.4085 46.4273
560 2 28.1473 19.5728 51.5619
561 2 11.3312 48.5495 23.0274
562 2 16.1374 48.3977 14.8719
563 2 31.4049 28.2803 42.5015
564 2 33.3112 55.0777 55.3655
565 2 53.6572 32.4137 10.2494
566 2 49.2801 19.9646 50.9901
567 2 21.37 29.0559 20.6245
568 2 40.1681 35.4142 21.0394
569 2 51.2222 10.6175 47.2215
570 2 44.843 6.55997 15.9753
571 2 9.07274 47.2855 8.80092
572 2 54.7815 34.2108 53.6566
573 2 39.3048 47.4535 46.8735
574 2 35.7479 34.9811 45.2013
575 2 31.6896 52.0025 52.7215
576 2 31.3035 36.3075 16.224
577 2 32.9944 46.7948 31.6168
578 2 20.1625 42.5415 38.7964
579 2 25.5815 15.6088 46.1541
580 2 21.0101 39.2749 17.2378
581 2 21.8616 51.2746 9.71859
582 2 44.2135 33.7924 52.1664
583 2 15.771 47.0541 41.2838
584 2 51.282 13.1205 20.8827
585 2 46.1234 46.8196 8.59094
586 2 17.5578 22.4235 41.8898
587 2 52.6817 30.8445 50.2605
588 2 34.4034 32.6646 10.2384
589 2 38.7954 24.5981 55.5584
590 2 42.1418 17.0582 16.7677
591 2 46.8653 39.123 24.3475
592 2 7.19401 11.4005 25.0178
593 2 23.8541 30.7129 46.697
594 2 35.6416 52.5557 50.002
595 2 48.691 52.1442 20.4968
596 2 42.7793 16.0664 32.7446
597 2 39.537 37.7413 46.5981
598 2 37.1791 10.7037 16.1165
599 2 39.8939 54.6973 46.3753
600 2 17.3064 40.562 9.46182
601 2 42.778 30.0262 35.727
602 2 47.0834 6.62466 55.6851
603 2 32.2982 44.337 33.9134
604 2 48.3472 50.6961 6.77549
605 2 10.7055 25.6146 29.5457
606 2 24.6934 25.7498 28.3867
607 2 39.3423 30.1237 38.3621
608 2 8.75982 15.6523 48.9635
609 2 46.5954 55.6175 35.2268
610 2 30.2495 49.5807 32.6399
611 2 52.3486 20.884 18.7914
612 2 22.5088 46.1202 47.2452
613 2 19.113 33.4808 41.2194
614 2 51.4208 7.38671 9.99647
615 2 20.3755 22.3157 38.2821
616 2 12.2478 9.18478 50.2674
617 2 19.6252 14.7059 7.9035
618 2 14.699 8.66532 6.28218
619 2 30.8385 13.1505 31.897
620 2 36.3522 41.5455 46.6615
621 2 29.7539 51.713 36.271
622 2 46.7261 22.7136 39.674
623 2 29.2893 21.172 46.9535
624 2 33.9367 51.2903 33.7159
625 2 54.7188 30.9865 32.0799
626 2 26.4873 34.9001 33.843
627 2 7.38808 53.0686 20.369
628 2 9.89249 7.43575 49.4138
629 2 20.2463 53.7074 10.2813
630 2 22.2482 34.3997 27.857
631 2 54.1504 18.2774 36.3007
632 2 30.6363 24.0607 25.7862
633 2 11.7095 54.4003 31.115
634 2 52.216 37.8605 19.2076
635 2 30.5425 53.712 6.81292
636 2 51.5579 34.8159 53.2007
637 2 37.0323 51.2398 15.6894
638 2 40.1453 35.3092 25.487
639 2 18.2664 35.3915 23.4754
640 2 36.0607 12.6572 14.2729
641 2 27.6331 26.4466 9.11924
642 2 37.648 34.2651 49.277
643 2 45.8099 12.9516 24.5941
644 2 35.5496 9.78367 18.4638
645 2 39.8308 44.7188 15.4988
646 2 26.5452 20.2363 44.1929
647 2 22.7707 25.6552 10.9694
648 2 26.6592 45.6718 7.00243
649 2 13.3186 15.1249 43.8349
650 2 48.487 45.1605 24.4634
651 2 13.3585 54.206 41.7148
652 2 14.9789 53.4863 53.9679
653 2 47.1461 37.37 11.5779
654 2 53.1811 8.35134 38.363
655 2 10.7554 49.4251 9.55501
656 2 47.1267 46.7155 28.7231
657 2 46.0907 48.9604 36.2965
658 2 51.86 34.9757 33.9907
659 2 34.2279 45.9499 9.78645
660 2 13.0574 38.8538 25.5933
661 2 42.0158 29.2707 26.9002
662 2 22.3242 48.874 19.7272
663 2 9.19604 40.628 26.9196
664 2 33.9581 7.23222 24.5407
665 2 15.2245 22.593 30.1924
666 2 20.0746 11.3546 51.8949
667 2 38.9242 54.5365 23.6167
668 2 6.96654 44.355 11.9025
669 2 47.5837 31.6263 38.8255
670 2 44.1214 6.34136 36.8332
671 2 21.7512 49.6587 12.0615
672 2 15.4579 22.9462 22.6075
673 2 26.9206 31.3934 22.7197
674 2 8.57104 9.20407 12.8306
675 2 40.0467 21.1031 46.0798
676 2 37.7906 28.9437 44.8727
677 2 42.8219 8.61695 30.0307
678 2 50.7108 30.273 35.8371
679 2 12.5199 30.8905 30.4418
680 2 26.5646 36.8802 48.1741
681 2 10.5231 29.565 13.8451
682 2 46.3017 6.32563 42.4142
683 2 25.9363 52.5449 12.6407
684 2 20.0129 26.9211 46.0234
685 2 31.3678 39.8408 9.38569
686 2 54.291 50.641 27.5386
687 2 42.657 45.592 32.3721
688 2 16.9487 32.9134 55.1807
689 2 49.1978 7.02777 49.412
690 2 42.354 21.8415 39.9958
691 2 26.7718 11.608 43.7342
692 2 27.389 52.6453 20.0182
693 2 50.8243 34.7052 29.5955
694 2 7.44742 30.4672 14.2287
695 2 24.1813 41.3245 48.3615
696 2 37.7455 9.38294 22.0543
697 2 52.0591 39.3574 31.2457
698 2 48.0463 13.3329 8.87804
699 2 48.8406 17.231 6.16369
700 2 51.3431 50.712 40.7683
701 2 8.66519 9.84085 9.8416
702 2 18.9104 31.3697 46.3932
703 2 50.7043 15.1855 23.426
704 2 28.7486 35.1649 7.3253
705 2 55.1834 53.676 53.6801
706 2 25.3226 7.91435 11.1303
707 2 14.0764 34.7412 26.4102
708 2 17.4226 48.413 27.0023
709 2 27.4946 22.4628 50.4434
710 2 53.4599 45.0445 7.90167
711 2 20.1864 54.167 30.9979
712 2 27.881 36.5548 50.9105
713 2 35.1397 53.5635 13.1197
714 2 15.2631 36.2302 19.3689
715 2 8.6587 37.2292 25.5549
716 2 34.7957 9.52568 51.254
717 2 24.0647 30.3986 34.2081
718 2 12.5548 47.6056 45.407
719 2 21.8474 13.3536 48.0151
720 2 39.2342 45.4907 37.2532
721 2 55.3647 14.7387 31.6953
722 2 12.4154 14.9383 16.3511
723 2 15.3358 50.8684 9.4039
724 2 34.5432 25.708 29.6534
725 2 11.8031 53.4266 21.9735
726 2 51.109 8.73234 42.1455
727 2 20.089 11.916 32.4596
728 2 47.2545 24.9794 54.3458
729 2 43.2696 52.8969 25.046
730 2 51.8821 37.9229 51.9825
731 2 30.6815 42.9819 30.7526
732 2 40.0886 6.70294 55.8134
733 2 34.1839 11.6168 28.9691
734 2 35.8773 43.6127 31.1533
735 2 13.346 29.1336 52.5751
736 2 9.93737 23.1357 46.3236
737 2 24.3737 48.8111 43.6075
738 2 9.33732 12.5886 15.0185
739 2 40.0531 51.4563 49.2394
740 2 27.6778 8.99776 12.9689
741 2 24.14 25.2099 52.9355
742 2 9.63826 39.0444 37.0417
743 2 28.5546 22.7138 39.2684
744 2 27.9399 51.5542 33.8366
745 2 52.3119 16.6644 18.6934
746 2 16.3335 31.4339 20.8502
747 2 48.8208 24.6798 40.5315
748 2 11.9594 39.5137 41.9168
749 2 9.52616 35.7756 39.3785
750 2 32.581 49.001 35.3636
751 2 14.4647 10.4007 37.1491
752 2 13.8516 11.7472 23.3832
753 2 49.9631 14.9374 54.7472
754 2 39.0839 10.8599 26.7338
755 2 15.8396 23.2776 25.5132
756 2 52.4251 8.39014 16.4856
757 2 12.1943 10.3705 34.4123
758 2 27.6977 35.4744 38.6016
759 2 6.4452 49.4103 6.09917
760 2 37.1871 30.4132 35.1647
761 2 32.9208 50.078 46.8793
762 2 22.8975 54.2789 22.4846
763 2 18.0835 24.3188 27.0165
764 2 9.80814 27.0545 52.0294
765 2 6.57949 45.9497 7.88479
766 2 18.2269 39.9478 17.2972
767 2 44.3932 52.3926 9.31592
768 2 26.7248 48.2251 25.2562
769 2 45.8531 10.1156 13.1533
770 2 14.4225 33.6302 48.6691
771 2 12.4814 39.0338 22.6589
772 2 41.9812 10.9988 22.0142
773 2 21.1622 23.9205 42.0497
774 2 16.8851 37.1536 41.0215
775 2 55.2705 34.0398 40.8703
776 2 21.6558 16.7277 33.1138
777 2 26.9787 27.3616 55.4011
778 2 11.0286 36.296 48.2708
779 2 55.6891 28.544 31.1972
780 2 49.972 55.127 35.7417
781 2 55.2937 48.2814 26.0348
782 2 29.2517 52.2911 22.4317
783 2 51.3712 46.0083 43.1998
784 2 9.50363 53.0499 13.1814
785 2 8.30388 21.4568 51.8378
786 2 28.0386 8.05004 32.4976
787 2 10.7408 26.2631 6.14929
788 2 17.8801 34.6756 12.5744
789 2 32.9194 35.8985 42.5917
790 2 48.6945 15.0039 34.1428
791 2 51.3541 28.112 22.7147
792 2 52.945 23.5238 34.0925
793 2 54.0337 27.4038 43.9715
794 2 45.1671 22.436 7.76883
795 2 9.30089 25.7362 38.9951
796 2 54.5747 9.92984 20.7548
797 2 51.2838 54.9764 23.4588
798 2 19.6607 23.9756 52.0979
799 2 44.8515 19.2204 34.5312
800 2 36.1096 15.0163 24.9989
801 2 9.67855 13.1463 31.5702
802 2 49.3461 12.9991 26.394
803 2 41.5385 49.1074 14.0756
804 2 14.8811 35.727 52.2395
805 2 20.1914 11.5023 21.5733
806 2 32.578 21.4469 25.645
807 2 55.1789 17.9532 22.3879
808 2 9.12524 9.23819 24.9807
809 2 37.299 33.6015 34.7327
810 2 36.3354 46.679 34.0877
811 2 38.6198 38.5103 52.7189
812 2 12.7388 34.2079 21.6781
813 2 34.7388 52.8119 21.0389
814 2 35.1684 43.7566 15.1562
815 2 36.2274 28.823 14.3584
816 2 47.9355 21.4338 46.1316
817 2 29.8876 52.9395 43.1487
818 2 18.0042 45.5716 8.92313
819 2 13.335 47.7189 15.9907
820 2 32.2736 22.1113 13.3098
821 2 48.6074 43.1987 6.35637
822 2 21.3375 8.4128 43.4036
823 2 37.5796 28.3077 18.8622
824 2 50.6661 41.3427 16.649
825 2 11.6795 43.7001 39.8851
826 2 10.6665 16.7875 18.2453
827 2 30.3213 27.7841 23.6857
828 2 45.6346 48.4642 45.5717
829 2 19.0699 41.7768 13.601
830 2 23.1144 21.4326 55.7525
831 2 16.3098 48.7315 24.1066
832 2 46.2341 33.7389 41.1763
833 2 36.6111 18.6394 30.2953
834 2 12.8291 20.7261 43.5127
835 2 19.0565 27.2855 7.54849
836 2 45.1102 50.0429 30.8005
837 2 9.61916 41.7111 35.3775
838 2 25.2581 47.8659 8.70903
839 2 27.8602 30.605 36.4534
840 2 7.28085 30.4785 29.2917
841 2 42.3306 14.9117 43.3206
842 2 19.8811 16.1247 42.1105
843 2 18.5163 7.00811 50.1468
844 2 15.9357 44.7172 21.8628
845 2 31.8281 24.531 40.5677
846 2 38.6766 41.4373 53.3487
847 2 13.3055 31.798 19.6335
848 2 38.3816 33.0155 44.4052
849 2 31.9887 18.0119 54.7114
850 2 25.6588 16.5688 23.8959
851 2 6.58414 11.8145 21.803
852 2 30.1576 44.9639 53.3626
853 2 7.96517 31.8548 40.5139
854 2 26.5543 26.5183 31.3784
855 2 48.6916 28.6119 25.9146
856 2 26.2668 14.8378 37.6396
857 2 27.633 7.68423 54.4752
858 2 40.46 25.8641 46.4816
859 2 27.1178 22.5505 36.4458
860 2 45.364 24.0764 36.7947
861 2 10.3159 36.2868 11.7673
862 2 29.5537 47.5735 20.9185
863 2 31.1055 49.65 27.6044
864 2 43.3966 23.9266 50.9485
865 2 30.5868 17.7485 7.8856
866 2 28.2082 41.8468 39.9446
867 2 26.0969 18.2485 15.2678
868 2 51.0185 23.4018 17.2707
869 2 49.297 16.6511 20.3136
870 2 33.383 53.7053 48.7352
871 2 22.6049 43.7405 36.9916
872 2 10.6822 20.7502 28.1906
873 2 35.9094 7.93152 41.0146
874 2 17.3411 11.4936 36.0043
875 2 49.0339 23.4922 8.20939
876 2 10.4508 14.2347 40.8716
877 2 43.8181 32.6713 20.0516
878 2 44.2511 46.0449 48.4554
879 2 36.1957 37.8192 33.8876
880 2 34.8429 14.6348 31.8247
881 2 26.2638 21.6747 46.8949
882 2 41.949 20.9258 51.9239
883 2 23.9677 35.7065 52.5688
884 2 46.1486 33.0755 45.7449
885 2 37.8188 34.4519 37.4969
886 2 33.6868 50.4434 38.1057
887 2 13.157 35.8584 12.1484
888 2 8.40969 11.9572 55.7442
889 2 6.86989 18.4233 14.4607
890 2 11.3551 40.7849 24.8144
891 2 14.2634 44.1222 31.8288
892 2 12.8906 29.6563 38.5566
893 2 11.0616 22.1867 42.0252
894 2 15.263 14.3695 19.7712
895 2 54.1957 25.5245 31.9984
896 2 51.322 19.8738 25.916
897 2 42.0371 17.552 10.3775
898 2 29.8305 27.0506 52.2176
899 2 20.0136 26.8667 38.7953
900 2 13.5674 36.6504 38.0705
901 2 20.2758 33.1687 32.0713
902 2 23.9231 45.9711 35.4664
903 2 10.4761 34.3573 52.9744
904 2 42.9558 16.5006 23.2521
905 2 19.1324 14.0722 23.3969
906 2 34.6265 46.1798 46.5978
907 2 38.7859 31.4851 31.3876
908 2 7.76675 54.8582 53.5242
909 2 20.7324 53.6221 13.5979
910 2 48.5881 48.552 41.0644
911 2 46.8918 13.2611 54.0025
912 2 21.9615 43.4862 25.578
913 2 43.1146 15.4332 29.8261
914 2 49.4887 18.7669 12.8578
915 2 30.4625 33.1806 53.2033
916 2 32.1525 9.82074 40.1099
917 2 52.8974 51.0553 13.5666
918 2 26.4873 48.1683 47.5796
919 2 35.5997 18.6729 41.7216
920 2 13.9707 45.4942 34.8484
921 2 42.8709 27.4545 29.155
922 2 24.8289 40.768 39.615
923 2 10.504 41.5238 17.8873
924 2 9.44139 50.3146 48.6551
925 2 21.5941 10.7239 47.0518
926 2 8.79841 33.641 11.1887
927 2 44.7666 37.0907 30.0179
928 2 46.3145 29.1522 27.2803
929 2 42.7154 49.8594 19.1057
930 2 43.4343 38.1906 13.7458
931 2 41.4381 30.0764 23.8667
932 2 33.8387 41.4001 52.8551
933 2 53.8078 20.5558 42.3026
934 2 39.6091 47.9341 39.8013
935 2 42.8455 8.42568 34.7056
936 2 27.2286 23.4115 32.0651
937 2 42.4722 44.8043 52.5123
938 2 29.3379 47.5659 54.7229
939 2 20.1267 41.0587 27.072
940 2 37.6738 52.675 40.0917
941 2 37.9386 40.9897 39.3789
942 2 20.8459 20.7572 8.45083
943 2 41.0689 12.8392 47.8851
944 2 17.0011 50.5689 38.2572
945 2 46.7416 9.47829 10.3274
946 2 52.5017 54.3737 27.8301
947 2 48.3682 31.6467 29.1117
948 2 43.7666 25.2881 30.7089
949 2 36.9196 46.0081 29.134
950 2 14.8365 15.24 31.9171
951 2 44.3408 25.1991 15.1775
952 2 51.1919 9.85181 22.0953
953 2 26.1082 24.7414 11.7082
954 2 39.3951 19.583 20.0162
955 2 23.7609 34.7507 35.5549
956 2 11.8883 45.4291 23.7885
957 2 47.5709 26.2815 34.0946
958 2 50.1511 23.4457 31.0298
959 2 40.6751 21.9425 54.7762
960 2 49.6327 16.3464 39.3322
961 2 13.7474 11.4032 30.5359
962 2 50.6989 12.2559 38.9501
963 2 41.0731 28.7737 45.0838
964 2 46.668 21.9921 28.5104
965 2 45.6242 8.52295 29.5485
966 2 27.186 55.5839 30.6598
967 2 51.5676 52.643 30.5231
968 2 53.5536 11.9614 25.204
969 2 34.4712 13.1893 8.10709
970 2 50.1908 48.2979 6.56255
971 2 19.3724 52.0385 24.4867
972 2 55.0525 8.55269 48.8381
973 2 15.5242 7.05055 47.494
974 2 46.6959 42.8035 13.7729
975 2 29.639 17.6733 24.1681
976 2 36.7682 48.8672 30.1914
977 2 36.3651 49.9806 7.64519
978 2 42.6294 12.2787 45.7021
979 2 37.0366 13.5818 16.7466
980 2 38.7313 37.6478 15.5246
981 2 10.125 55.7749 44.5407
982 2 32.4628 53.4181 14.2169
983 2 17.3949 34.1613 19.3976
984 2 33.5515 43.3326 28.7636
985 2 42.4684 53.2062 42.0918
986 2 55.0469 44.0585 22.1527
987 2 28.8762 44.4443 33.267
988 2 29.6896 37.4821 42.1793
989 2 49.5265 37.3492 25.1528
990 2 36.6719 9.06354 44.6815
991 2 8.7639 43.5711 13.9726
992 2 51.3314 32.4959 41.868
993 2 9.86603 50.6279 36.9845
994 2 7.35276 43.14 36.3991
995 2 25.0503 55.7512 21.6977
996 2 23.617 50.2088 54.5008
997 2 45.4823 40.3747 12.1374
998 2 51.122 50.6982 21.0262
999 2 49.8198 34.8497 42.715
1000 2 13.1283 37.7526 18.1563
1001 2 12.9228 23.7485 29.2343
1002 2 55.2863 20.6439 7.75642
1003 2 45.038 15.0765 41.6483
1004 2 26.6755 29.481 20.6691