ITEM: TIMESTEP
0
ITEM: NUMBER OF ATOMS
9088
ITEM: BOX BOUNDS xy xz yz pp pp pp
6.0654368682945492e+00 5.5865500923853972e+01 -5.7136344154401557e-15
6.0654368682945545e+00 5.5865500923853972e+01 0.0000000000000000e+00
6.0654368682945545e+00 5.5865500923853972e+01 0.0000000000000000e+00
ITEM: ATOMS id type x y z
1 2 52.7282 43.5962 14.5145
2 2 23.8662 33.4892 34.6436
3 2 12.0426 54.3893 21.7478
4 2 35.3121 38.5524 28.6036
5 2 32.3796 28.3993 29.9447
6 2 53.8409 22.3522 53.4807
7 2 35.4048 33.004 20.7426
8 2 46.0555 54.0235 16.3947
9 2 26.9305 16.5371 28.9696
10 2 20.9614 13.0465 31.2243
11 2 46.7422 54.3704 25.6316
12 2 24.4404 18.3009 46.8481
13 2 32.2108 42.2895 50.9212
14 2 17.8754 24.654 31.4073
15 2 12.1824 53.3708 46.1262
16 2 6.65077 11.6708 53.2087
17 2 35.7264 30.9587 7.35384
18 2 53.0916 18.3617 31.3532
19 2 35.9192 26.7598 25.5114
20 2 37.4618 27.561 16.4742
21 2 42.2478 13.873 44.29
22 2 47.6456 17.6744 13.5377
23 2 43.9493 31.675 6.7848
24 2 26.152 35.4942 19.5797
25 2 10.2604 38.9984 48.8807
26 2 11.7173 52.4483 55.4585
27 2 50.8549 45.8491 41.2767
28 2 16.3777 39.2981 28.4034
29 2 38.7868 11.126 7.84822
30 2 33.433 54.9293 46.6664
31 2 8.19894 43.0493 36.0229
32 2 27.9903 38.5294 23.2737
33 2 27.8084 55.4258 13.2081
34 2 6.64497 29.735 9.65425
35 2 50.3108 31.4375 38.405
36 2 8.77956 47.348 29.8527
37 2 6.30554 43.1718 18.563
38 2 42.1908 50.3888 46.5729
39 2 50.1912 53.8744 25.4636
40 2 45.1647 33.4146 45.2514
41 2 19.3998 44.5001 13.4639
42 2 39.4082 49.0767 16.0068
43 2 36.3466 40.1143 18.4422
44 2 47.5675 27.0857 46.803
45 2 42.3212 18.6831 35.7425
46 2 13.0792 6.19068 29.8301
47 2 33.7846 46.5275 9.33183
48 2 48.7449 19.0036 49.6831
49 2 47.0235 37.5079 26.5241
50 2 18.8746 15.1399 44.5674
51 2 43.0203 25.601 29.0974
52 2 43.4293 23.9442 39.2528
53 2 35.7972 30.8215 33.0529
54 2 12.6694 48.8222 46.3183
55 2 33.6131 17.6839 26.7674
56 2 16.8138 37.9632 34.9457
57 2 19.4101 25.5372 19.3525
58 2 20.7387 30.8469 27.2987
59 2 34.653 42.7337 23.2119
60 2 19.9005 22.9014 39.3912
61 2 50.9502 26.1966 53.8136
62 2 43.3529 33.7332 14.4664
63 2 21.2598 34.6721 34.4196
64 2 36.9175 30.9787 24.5615
65 2 10.6499 23.5891 21.9735
66 2 10.4123 6.96552 49.8151
67 2 28.3278 43.4865 40.6821
68 2 19.4784 14.3326 25.6884
69 2 46.9164 37.4196 51.2584
70 2 26.9337 34.0091 29.3409
71 2 36.5679 33.0621 55.0192
72 2 52.9015 32.6693 23.6383
73 2 21.4547 33.4125 40.8404
74 2 44.8443 42.5698 44.9327
75 2 21.5751 7.48962 52.437
76 2 23.0188 35.777 40.5944
77 2 47.7295 7.52942 50.2374
78 2 10.8513 18.2208 26.3274
79 2 17.5754 54.1761 51.4175
80 2 6.65982 48.2051 31.9466
81 2 53.3842 35.8818 46.8114
82 2 38.4559 53.2253 21.8528
83 2 39.3437 31.3444 47.7592
84 2 11.5237 31.209 34.214
85 2 53.5575 36.58 15.3357
86 2 51.7744 33.187 52.9153
87 2 43.5801 31.873 31.3383
88 2 32.2427 14.455 36.4525
89 2 24.2477 43.0933 12.1126
90 2 45.7386 16.586 43.0297
91 2 54.1116 54.9507 13.588
92 2 38.6725 9.07827 49.3412
93 2 23.6979 47.1121 53.7919
94 2 13.7262 40.4112 27.2978
95 2 10.4584 55.8044 19.545
96 2 22.8907 42.3978 49.4394
97 2 9.09855 33.3104 31.3506
98 2 39.2397 19.3684 21.8799
99 2 42.4626 55.8618 50.5218
100 2 24.6072 15.5727 47.0208
101 2 47.8931 25.562 30.8599
102 2 13.5143 47.864 38.5148
103 2 26.1827 22.1598 23.7692
104 2 39.1145 32.0213 15.0049
105 2 31.0362 22.6099 43.1914
106 2 19.7253 40.2905 50.0214
107 2 9.70738 50.3865 39.7082
108 2 50.5001 45.2743 20.769
109 2 32.8164 9.30093 24.9266
110 2 40.3197 25.4889 30.8965
111 2 33.9065 15.4877 28.7193
112 2 49.6402 22.4397 31.962
113 2 8.23269 44.914 23.8391
114 2 50.7307 51.2712 49.8295
115 2 6.40312 49.3706 48.131
116 2 54.68 53.4239 21.2869
117 2 44.1254 20.5634 16.1118
118 2 45.7946 36.6477 37.2073
119 2 28.3403 7.35426 26.0182
120 2 37.2029 33.2596 43.2108
121 2 27.8129 17.422 17.7264
122 2 43.2938 51.7041 31.5931
123 2 7.40991 6.73043 46.6462
124 2 43.5441 36.3415 31.281
125 2 26.7912 20.8543 35.5294
126 2 52.9653 51.4211 22.5536
127 2 30.7769 16.5729 14.1802
128 2 16.2165 38.7943 7.75756
129 2 46.6178 29.006 37.7499
130 2 11.8922 25.6086 20.0235
131 2 22.5631 14.3571 38.7525
132 2 45.0691 54.2102 30.2137
133 2 52.4144 36.1146 36.9174
134 2 40.5749 36.4117 16.3945
135 2 45.8443 49.6804 18.9553
136 2 23.3938 52.2433 41.2065
137 2 34.9755 43.5668 49.5812
138 2 11.8912 18.1757 55.5354
139 2 22.495 15.6751 9.64737
140 2 30.8903 35.0235 49.8986
141 2 10.0776 31.8218 51.5528
142 2 42.2059 6.28518 20.6035
143 2 13.8407 19.3486 21.2278
144 2 32.891 13.3981 7.9857
145 2 55.4216 19.5266 46.3167
146 2 40.0317 8.62623 21.4249
147 2 49.2181 42.4438 55.1984
148 2 37.8674 23.223 24.8296
149 2 46.8987 16.5968 28.2074
150 2 36.2405 37.7172 13.3271
151 2 30.265 41.0998 35.162
152 2 34.2404 8.56922 52.2912
153 2 34.9339 44.876 31.8911
154 2 54.0279 21.7265 13.4004
155 2 51.5831 8.93813 42.5791
156 2 49.1028 45.9886 34.7041
157 2 47.1256 54.0775 50.0883
158 2 13.3813 38.4827 48.3249
159 2 37.423 8.28533 8.16231
160 2 43.6293 17.1147 32.6721
161 2 44.218 35.7571 26.2966
162 2 7.7367 16.7442 42.7501
163 2 9.74709 17.4275 10.9007
164 2 49.1293 53.5122 13.8339
165 2 46.1513 28.401 8.63541
166 2 42.3378 33.0562 29.1911
167 2 39.9092 46.195 27.8775
168 2 23.8722 8.39852 22.0522
169 2 51.6766 36.0438 44.6955
170 2 29.7504 34.1501 44.82
171 2 36.956 6.40265 25.6615
172 2 32.8305 27.6707 22.5286
173 2 27.3374 24.575 10.3661
174 2 31.8819 16.0038 24.8849
175 2 32.9149 35.3727 41.4138
176 2 12.5666 22.0328 17.1925
177 2 15.0075 49.6223 26.3444
178 2 49.3127 41.8431 10.4727
179 2 35.1154 45.4679 14.4439
180 2 24.0302 49.356 51.2113
181 2 24.979 26.4737 13.4586
182 2 6.32868 34.803 46.2312
183 2 13.3929 43.1689 46.9274
184 2 23.2277 31.3297 43.5942
185 2 51.7937 24.8855 19.7563
186 2 18.3946 16.9984 28.1226
187 2 48.7836 44.0571 8.44298
188 2 15.5991 41.7208 14.7163
189 2 20.1527 46.4 51.2765
190 2 48.7868 30.6237 25.692
191 2 39.7926 52.7201 39.9965
192 2 52.7818 11.2645 33.5241
193 2 20.7176 35.9975 11.857
194 2 6.68276 9.05115 48.6693
195 2 19.7621 26.2523 52.6175
196 2 46.567 12.7319 45.1103
197 2 34.9709 13.2366 29.9997
198 2 6.32467 23.7695 41.3242
199 2 7.05179 34.051 37.1075
200 2 22.867 44.1484 51.867
201 2 25.6804 39.8682 34.3641
202 2 42.8287 26.9317 8.59773
203 2 38.7717 37.0964 45.0124
204 2 53.0516 55.238 45.2294
205 2 39.3072 13.6602 18.1192
206 2 10.3441 21.0151 35.5962
207 2 24.2571 52.8136 14.9135
208 2 34.2695 51.8799 43.8909
209 2 21.2404 46.7557 22.9866
210 2 31.1249 19.9106 37.1474
211 2 12.5665 30.8292 23.4168
212 2 7.58601 48.4708 50.8264
213 2 27.8816 55.6334 16.5903
214 2 27.9517 21.4962 29.11
215 2 26.3683 39.1487 38.3011
216 2 15.0123 35.5103 35.6364
217 2 20.3768 18.2225 6.59444
218 2 39.3657 32.4755 34.8
219 2 20.5187 30.5717 41.343
220 2 38.7728 30.5144 43.377
221 2 37.906 39.9379 43.2427
222 2 11.8037 14.1128 33.7652
223 2 47.0253 13.9843 30.5888
224 2 30.8971 40.2803 20.484
225 2 37.3622 46.541 12.2617
226 2 10.5402 7.12565 33.2221
227 2 16.1387 10.0397 39.5105
228 2 45.9819 53.4252 11.2066
229 2 46.8811 20.2354 52.6062
230 2 45.2841 28.837 44.6498
231 2 13.258 34.0071 31.224
232 2 49.1962 42.325 31.3198
233 2 12.9745 50.9374 32.5309
234 2 32.2577 54.7807 54.0636
235 2 17.7965 52.8141 8.88994
236 2 50.9482 6.43727 33.2349
237 2 38.6156 43.3287 51.4873
238 2 7.76648 52.3742 24.1259
239 2 36.9118 36.1047 16.0709
240 2 24.1469 12.5167 6.27973
241 2 45.1367 49.1607 8.15679
242 2 45.9294 9.15058 31.2479
243 2 38.991 17.1595 17.5421
244 2 40.1467 41.9883 26.4843
245 2 11.0814 36.085 45.0094
246 2 34.1628 31.4966 50.9692
247 2 19.4505 24.9896 36.6267
248 2 21.4587 39.283 8.19478
249 2 14.3625 45.1563 39.9864
250 2 20.9511 18.5872 17.3561
251 2 41.3585 28.2373 29.6703
252 2 23.6274 21.7238 53.6478
253 2 32.3523 48.3322 23.0444
254 2 31.0267 28.1272 52.8083
255 2 48.0667 46.6763 32.0954
256 2 31.2405 33.666 20.1632
257 2 34.9344 19.3993 54.2385
258 2 36.4845 40.3581 52.2377
259 2 22.2911 38.4405 32.0141
260 2 53.1785 50.845 16.0035
261 2 25.4158 45.9816 38.0499
262 2 16.1624 16.5573 18.1485
263 2 38.6569 47.2718 19.7395
264 2 23.1703 22.1611 28.2372
265 2 48.9096 43.8375 23.0071
266 2 26.2908 19.1767 7.58015
267 2 22.905 6.73167 15.3173
268 2 26.2755 44.277 18.9658
269 2 42.6276 19.7689 32.3449
270 2 53.821 12.0895 11.1949
271 2 32.6474 12.7056 11.5011
272 2 26.2542 28.7059 45.6244
273 2 42.0341 49.0401 11.525
274 2 54.1222 48.8389 40.2909
275 2 19.2403 15.6183 10.5563
276 2 31.7608 36.6095 47.5984
277 2 14.9706 44.3007 42.8516
278 2 32.4832 36.267 31.2956
279 2 19.3693 53.6469 15.5071
280 2 51.5865 28.5486 38.7726
281 2 49.2157 27.5552 36.9295
282 2 48.82 29.8928 47.018
283 2 52.9875 35.0833 25.0916
284 2 33.5689 12.4554 54.2349
285 2 15.5397 6.79581 48.8358
286 2 41.3441 25.1156 37.8888
287 2 24.3082 32.4282 23.1786
288 2 23.1665 35.4717 27.8017
289 2 43.0714 20.881 12.9807
290 2 24.142 32.9349 20.0772
291 2 36.876 13.2429 43.5356
292 2 26.3502 10.7857 27.8069
293 2 43.2888 20.7266 38.0545
294 2 30.4984 37.4047 38.4608
295 2 53.0673 30.4093 16.0837
296 2 39.2772 12.1532 34.8637
297 2 51.4793 8.60069 35.1902
298 2 23.9365 24.6547 37.8209
299 2 53.3792 54.3345 48.0389
300 2 10.7552 15.2008 13.033
301 2 7.37264 55.1366 20.0581
302 2 18.2041 11.4432 8.87358
303 2 44.7483 23.0539 9.01314
304 2 52.2459 24.5869 51.7933
305 2 50.1037 11.9259 41.6909
306 2 17.8957 42.8314 11.0598
307 2 46.6653 25.1666 52.8318
308 2 40.2131 55.7814 52.7382
309 2 9.23222 10.5899 49.8673
310 2 29.2486 20.5085 22.2389
311 2 34.1589 32.0249 39.7012
312 2 14.3627 20.5322 44.5024
313 2 46.5088 51.7833 37.1478
314 2 14.3033 12.8649 22.7568
315 2 24.0627 46.7155 41.0521
316 2 21.5616 9.38088 38.7785
317 2 14.7152 20.6712 37.9126
318 2 37.3638 13.5908 48.4038
319 2 28.547 48.9116 53.0646
320 2 23.8237 32.7538 51.7642
321 2 17.743 18.9812 26.3531
322 2 33.8676 35.4133 17.0413
323 2 18.9687 28.973 26.1344
324 2 15.7769 9.06783 43.0154
325 2 46.9364 50.7207 53.0259
326 2 41.6723 54.9647 45.3577
327 2 6.44705 10.5242 7.49111
328 2 40.7901 50.0675 41.5094
329 2 14.0824 16.2423 48.0869
330 2 7.1386 52.2563 39.8933
331 2 22.0635 22.8053 41.6861
332 2 16.8829 19.7883 33.3068
333 2 38.7227 42.7682 6.54107
334 2 37.825 26.494 7.91366
335 2 17.9985 15.339 54.3941
336 2 49.961 9.36942 51.7165
337 2 44.7648 35.9917 17.1534
338 2 28.3514 28.4402 23.5374
339 2 6.80288 27.4766 40.6221
340 2 29.2541 42.825 52.2879
341 2 34.0003 17.8321 18.1057
342 2 15.7007 8.90958 55.4913
343 2 16.0131 31.1207 34.1382
344 2 29.1494 11.4315 55.4657
345 2 36.4535 18.1474 29.4447
346 2 26.9717 15.2451 19.4123
347 2 30.2613 37.1172 16.7755
348 2 15.2006 46.2535 17.4953
349 2 44.9563 55.1309 21.3017
350 2 7.26371 20.1994 17.2135
351 2 22.8069 55.0021 22.8743
352 2 49.2242 10.7746 6.90469
353 2 50.2272 39.6899 29.5055
354 2 16.6914 22.706 21.874
355 2 42.0206 43.8899 45.886
356 2 14.2087 40.4398 19.435
357 2 48.7777 49.7828 15.5831
358 2 22.2478 33.0869 17.5567
359 2 35.7346 31.4906 10.3755
360 2 37.2702 43.1284 29.6431
361 2 14.7823 12.9402 12.3954
362 2 42.6572 10.658 24.2766
363 2 13.3881 20.553 40.5908
364 2 41.5873 43.3883 40.9918
365 2 42.5145 19.7274 53.2418
366 2 36.0936 53.0522 9.59921
367 2 20.3096 41.9688 27.7419
368 2 40.5694 39.0442 54.4795
369 2 44.4477 42.0488 6.43514
370 2 28.9252 23.1808 34.5207
371 2 31.5647 39.3699 31.2402
372 2 30.6445 7.51798 41.213
373 2 42.3101 46.2857 50.5797
374 2 9.89105 41.8089 9.86496
375 2 49.1551 28.4225 27.2463
376 2 50.8111 15.675 43.9503
377 2 34.281 6.80232 29.226
378 2 43.7967 46.5267 11.8554
379 2 40.8338 31.3131 55.6449
380 2 26.2402 46.8137 48.6087
381 2 33.8443 54.7467 37.3458
382 2 37.8786 32.5268 22.0302
383 2 29.1261 16.3237 40.4205
384 2 37.7267 40.0005 8.23089
385 2 30.727 32.5109 28.8598
386 2 13.7361 42.6293 12.5316
387 2 17.4631 39.7273 13.7206
388 2 32.3098 20.3128 39.7452
389 2 35.2956 36.0256 32.672
390 2 34.8052 43.9378 19.0905
391 2 35.3545 39.1367 38.9812
392 2 24.7083 36.7372 13.5241
393 2 9.33616 54.7776 40.2642
394 2 41.1288 40.7392 30.5825
395 2 51.6206 11.7862 38.9086
396 2 9.99207 16.5838 32.5615
397 2 33.2316 14.3735 40.0286
398 2 50.4162 39.8511 13.2726
399 2 6.1126 34.3116 8.79198
400 2 37.9636 48.7417 40.396
401 2 32.7423 23.3149 22.2561
402 2 19.4128 13.1653 13.0485
403 2 30.7239 38.8936 42.8095
404 2 45.4234 9.3553 36.763
405 2 40.9746 55.507 28.2899
406 2 48.1986 37.1914 31.5286
407 2 53.3682 46.003 47.7434
408 2 8.20728 10.0349 38.9427
409 2 20.0475 42.0902 38.0289
410 2 24.3733 19.5919 12.8582
411 2 40.8158 52.5148 53.1501
412 2 48.7455 28.3153 41.6982
413 2 28.3528 42.3736 47.227
414 2 17.8794 32.9911 10.4352
415 2 25.889 21.6286 11.3759
416 2 17.3725 21.944 27.9496
417 2 35.4172 16.8552 20.4858
418 2 37.207 51.5214 31.2624
419 2 8.35224 24.6619 55.7523
420 2 38.5036 10.3282 24.2008
421 2 46.1679 43.6379 15.0103
422 2 8.36369 41.6426 50.6191
423 2 14.1188 15.9172 45.0545
424 2 17.7067 44.7659 46.7962
425 2 31.7162 30.1972 36.1404
426 2 43.6501 13.2099 25.7538
427 2 49.4894 9.84181 17.1394
428 2 33.3798 10.933 16.1432
429 2 43.6652 9.25956 43.0053
430 2 16.3485 34.3477 14.9445
431 2 45.0475 49.1747 38.6359
432 2 43.1754 27.6436 16.9064
433 2 42.1751 54.8792 25.7781
434 2 30.7742 25.4912 30.3478
435 2 48.3763 22.8525 52.8834
436 2 28.1288 48.2836 21.3562
437 2 42.0419 50.0532 52.2999
438 2 10.5745 37.7308 12.8795
439 2 39.1238 27.6269 26.9734
440 2 27.3826 18.7348 26.177
441 2 54.6115 22.3057 39.3193
442 2 12.1326 8.66934 41.344
443 2 22.8965 17.4769 54.5192
444 2 51.1798 30.0736 23.5115
445 2 19.1795 47.0495 14.5604
446 2 26.9069 48.6816 31.4912
447 2 46.8518 15.6663 47.0591
448 2 36.9617 53.4504 43.1378
449 2 49.3604 19.63 15.8461
450 2 43.3089 40.5646 52.9194
451 2 25.5445 36.5749 16.7554
452 2 14.3653 25.6884 7.98594
453 2 40.5829 18.0451 52.3179
454 2 9.09864 55.2995 24.2799
455 2 17.6619 47.8899 25.7734
456 2 44.8148 22.114 31.823
457 2 42.4632 47.4612 40.1125
458 2 12.4665 19.9303 23.9741
459 2 21.101 55.4964 31.5212
460 2 26.5508 17.3202 13.614
461 2 50.2028 20.6128 36.5144
462 2 41.8688 35.0778 47.6785
463 2 20.6369 17.428 22.975
464 2 50.329 21.0382 27.8443
465 2 23.6357 47.739 12.7119
466 2 52.5695 40.0838 36.2857
467 2 37.8287 15.5742 44.7245
468 2 10.1421 52.044 22.544
469 2 21.4211 52.1482 22.5803
470 2 13.8119 48.2216 35.2836
471 2 8.80736 52.0783 32.8123
472 2 7.05352 21.7156 37.0287
473 2 18.4247 13.2261 6.78401
474 2 36.7206 22.4374 45.3251
475 2 7.88024 27.6516 22.5301
476 2 34.1005 23.2182 43.7492
477 2 53.4883 34.0316 42.878
478 2 42.4968 32.834 45.6495
479 2 6.51562 54.3415 49.5509
480 2 40.9639 12.8852 6.88534
481 2 39.6168 29.0777 7.64337
482 2 49.4586 18.5086 43.6125
483 2 26.1491 22.296 41.9971
484 2 15.6846 13.8184 30.1939
485 2 36.6859 9.67503 31.8793
486 2 15.217 36.3807 24.6306
487 2 49.6908 52.3877 20.0374
488 2 27.7956 9.75629 48.415
489 2 23.8435 30.8762 28.1806
490 2 6.15979 38.8695 37.5857
491 2 54.5794 29.7408 30.4935
492 2 54.9192 18.7292 12.7297
493 2 11.372 24.6988 17.0407
494 2 20.7981 6.074 27.7679
495 2 32.3871 53.9368 14.6124
496 2 15.8687 7.12111 45.8577
497 2 23.517 21.2638 25.3518
498 2 38.0806 48.5008 34.2837
499 2 22.8673 45.2849 15.9089
500 2 27.3622 13.3433 7.76473
501 2 35.382 25.3682 44.9197
502 2 51.4751 40.9645 53.8271
503 2 42.0578 51.5297 19.8271
504 2 45.4668 20.2847 36.3691
505 2 41.2637 22.5111 30.3479
506 2 35.8817 11.1256 10.892
507 2 40.6432 11.4295 42.8894
508 2 20.9901 36.2713 21.5078
509 2 33.7125 41.4273 20.4154
510 2 12.1955 15.1696 16.2683
511 2 47.5096 40.0235 51.6232
512 2 17.8355 6.60355 37.4943
513 2 54.6055 10.1819 18.1669
514 2 19.5321 20.3062 28.5208
515 2 55.056 32.5057 50.3715
516 2 12.1085 22.8331 47.5598
517 2 50.4599 25.4673 42.0949
518 2 49.1852 33.2067 42.3194
519 2 54.1632 51.118 52.3461
520 2 14.0654 20.8716 8.54313
521 2 30.9837 40.3713 17.6175
522 2 49.3811 48.0004 9.49192
523 2 45.0277 50.2357 34.5049
524 2 10.5664 54.5998 30.7134
525 2 16.3241 51.517 37.1049
526 2 51.0264 17.1294 17.6487
527 2 17.9271 28.8128 30.3176
528 2 34.3328 27.9245 41.7452
529 2 8.96785 36.59 50.1346
530 2 15.0249 40.7377 50.4691
531 2 35.7397 21.4892 29.8026
532 2 54.0052 14.2988 15.172
533 2 44.6307 49.1092 23.5291
534 2 40.7366 36.1298 32.0697
535 2 27.4482 42.3963 34.3485
536 2 21.1806 24.7026 7.22297
537 2 31.4688 6.23822 6.87763
538 2 42.1168 48.3536 6.97656
539 2 28.1458 52.5433 6.701
540 2 11.3878 33.0162 13.1953
541 2 24.3258 55.6717 49.0811
542 2 46.6867 36.096 46.7116
543 2 55.7603 36.4505 30.8666
544 2 49.301 6.54594 19.2386
545 2 39.5985 46.136 54.2734
546 2 47.3273 26.7246 39.3467
547 2 35.6713 31.079 41.9411
548 2 23.049 26.148 33.4237
549 2 22.2469 15.6082 31.1219
550 2 15.033 53.9179 35.9398
551 2 29.7639 55.8402 23.4528
552 2 11.5377 54.7163 8.15472
553 2 37.9625 38.6361 34.9885
554 2 32.3528 36.2539 14.7426
555 2 55.4467 35.0516 27.6366
556 2 45.9605 29.0145 28.6863
557 2 32.8898 46.2869 29.3329
558 2 28.1538 51.9313 24.9687
559 2 8.88283 34.6003 10.548
560 2 44.9546 14.0778 15.0456
561 2 28.5551 43.0361 37.0747
562 2 33.4443 42.6929 28.5105
563 2 48.8324 22.987 6.44951
564 2 50.157 49.4321 19.6158
565 2 20.7423 27.0703 24.108
566 2 15.5576 15.6999 13.1081
567 2 38.0626 23.4626 34.455
568 2 7.86109 30.1712 34.8519
569 2 18.9564 54.8498 11.2693
570 2 12.1858 50.7518 29.6129
571 2 26.3104 41.6622 22.7137
572 2 22.6515 28.8376 17.7062
573 2 6.81631 41.8853 10.6898
574 2 53.0444 29.6211 9.36041
575 2 48.4211 46.4787 16.7456
576 2 47.9087 30.6193 30.742
577 2 49.8593 41.0711 45.2679
578 2 37.8067 36.5071 52.1839
579 2 42.7525 10.1484 10.0137
580 2 37.0791 34.4791 31.2951
581 2 39.5318 46.2022 23.1688
582 2 11.817 28.3814 16.2034
583 2 33.1402 41.4966 54.9223
584 2 18.6035 7.36639 34.493
585 2 13.5266 41.4234 22.3066
586 2 34.4586 16.6694 55.5944
587 2 20.2527 25.529 14.2351
588 2 50.8762 26.8518 24.3371
589 2 55.6746 19.3082 19.764
590 2 9.43824 11.5936 30.7084
591 2 14.1743 33.1719 37.9604
592 2 23.5384 55.4448 38.6086
593 2 40.9794 25.2318 10.7821
594 2 52.2803 46.9401 14.2347
595 2 16.0663 46.7508 34.306
596 2 10.1801 10.4625 46.6791
597 2 7.38837 32.3695 10.4473
598 2 54.0866 54.3217 29.5855
599 2 6.24382 47.9392 8.32851
600 2 34.9377 35.0829 23.1604
601 2 10.0601 24.7583 49.5321
602 2 14.5595 51.0899 19.7027
603 2 49.3943 38.9384 47.6503
604 2 15.6287 45.3041 20.577
605 2 27.7573 19.8894 43.1028
606 2 41.6578 20.1545 41.5603
607 2 6.79528 24.7495 52.4262
608 2 25.7647 9.92052 12.9802
609 2 13.8697 50.203 48.7792
610 2 47.1331 44.145 46.5929
611 2 19.3242 15.2248 32.5458
612 2 39.6719 40.5907 11.4153
613 2 36.3958 27.6504 54.8003
614 2 18.6939 51.7742 23.8812
615 2 37.6273 17.0064 52.119
616 2 29.4326 53.2436 14.194
617 2 36.339 9.0998 21.7506
618 2 31.8377 53.4005 20.0697
619 2 47.5943 7.48419 45.5396
620 2 53.6408 35.7354 10.2562
621 2 46.869 46.426 50.321
622 2 14.065 17.5855 53.5206
623 2 46.1782 15.5724 10.6372
624 2 50.6777 45.9775 47.7289
625 2 22.4668 25.5464 45.9264
626 2 43.6487 29.2021 47.8259
627 2 24.1941 47.4026 33.8415
628 2 26.8484 51.6863 13.3708
629 2 37.3351 48.2691 24.1072
630 2 39.3586 28.9475 41.3326
631 2 21.2832 12.7622 50.026
632 2 48.2 18.3834 39.3695
633 2 28.6757 48.8591 44.6627
634 2 19.4094 32.3699 33.1054
635 2 47.7906 48.2343 20.7728
636 2 19.0748 29.3367 16.9731
637 2 53.9527 45.7916 29.4168
638 2 7.56119 29.8425 39.1658
639 2 35.347 29.3169 36.8537
640 2 52.9719 6.66938 27.8505
641 2 44.7762 20.8945 22.6105
642 2 55.1359 28.776 13.6402
643 2 12.7873 7.29965 38.4192
644 2 52.1678 53.5255 32.0374
645 2 7.24342 39.5555 29.0977
646 2 43.5738 14.3605 7.78788
647 2 39.7864 20.4059 24.9684
648 2 43.7786 39.918 21.2065
649 2 30.7084 9.55335 7.82641
650 2 15.6957 39.6455 38.4662
651 2 30.3376 48.7303 55.3785
652 2 31.6387 47.8917 18.2723
653 2 14.7406 32.2461 25.3553
654 2 20.542 52.6673 51.9719
655 2 27.7886 43.7304 23.6536
656 2 14.2398 41.2527 42.4689
657 2 12.7773 43.2753 50.5128
658 2 19.3268 29.2925 48.0465
659 2 51.6111 40.9422 23.8622
660 2 29.928 33.017 39.0645
661 2 9.16517 23.8418 40.6294
662 2 39.2067 43.6332 33.8615
663 2 25.962 35.1875 40.5226
664 2 51.2384 51.4938 38.1561
665 2 32.3543 16.9267 43.9297
666 2 37.3109 55.7306 15.6463
667 2 6.41181 49.2302 37.2418
668 2 23.7759 38.7866 25.286
669 2 15.0454 26.4457 52.6633
670 2 11.2732 50.663 50.4143
671 2 38.399 44.5343 25.7051
672 2 32.571 17.4799 36.5531
673 2 43.812 25.5799 36.6063
674 2 25.9703 53.3565 26.5598
675 2 7.5118 15.7139 9.69697
676 2 54.9591 23.0937 9.44166
677 2 9.70451 53.0621 43.725
678 2 17.8606 24.8223 49.4551
679 2 29.3953 25.1304 44.5844
680 2 43.5968 31.1732 12.5514
681 2 27.0035 24.259 27.364
682 2 14.1226 50.4916 6.21189
683 2 42.9598 47.175 26.0937
684 2 37.0216 21.332 9.92673
685 2 48.0662 34.3439 23.651
686 2 21.465 44.8621 40.9367
687 2 9.81752 40.2023 46.0228
688 2 33.8278 27.6972 19.2929
689 2 16.4879 51.1934 13.2991
690 2 9.66841 16.4903 53.8306
691 2 43.8484 55.5009 7.7484
692 2 44.3117 47.2075 33.8784
693 2 18.1484 29.1768 43.2469
694 2 24.5054 25.0373 28.2942
695 2 42.313 35.6624 12.3482
696 2 54.6251 53.7221 35.6026
697 2 19.3514 33.6837 44.9944
698 2 15.1575 8.02697 22.3897
699 2 16.0355 11.5334 20.0087
700 2 18.7025 45.4705 54.544
701 2 25.7334 54.1692 23.7674
702 2 35.1936 25.4796 8.33946
703 2 17.6742 9.4873 36.8958
704 2 45.8168 29.5837 21.4276
705 2 22.9684 47.585 17.7149
706 2 42.0597 52.242 24.6544
707 2 30.7686 28.9263 40.4014
708 2 34.5125 43.062 41.1465
709 2 44.6332 16.7247 14.5899
710 2 20.8491 39.4812 22.0708
711 2 37.2003 48.4439 44.627
712 2 45.2461 31.0942 15.0012
713 2 52.0511 48.0267 27.2934
714 2 32.1734 30.2015 32.6434
715 2 25.9998 31.7398 39.536
716 2 51.9481 53.8734 15.5467
717 2 41.3593 24.5901 47.8958
718 2 30.2134 42.3014 9.83916
719 2 38.6637 7.80645 12.0582
720 2 6.46735 39.8964 51.1005
721 2 22.8229 9.03875 45.4041
722 2 29.5086 9.24962 29.9387
723 2 32.4988 45.3157 22.956
724 2 51.8509 20.4808 43.6852
725 2 28.6865 47.7615 35.7334
726 2 18.1146 52.8088 55.679
727 2 37.3332 6.13675 46.2779
728 2 14.6136 19.2938 18.0851
729 2 10.5848 47.4192 38.8744
730 2 19.632 32.7858 15.6987
731 2 47.8091 37.2497 44.4095
732 2 7.23803 50.9456 19.4692
733 2 51.2338 55.7485 42.7558
734 2 53.4323 38.2077 44.8742
735 2 30.3185 23.8497 16.5253
736 2 27.2157 17.5737 10.4623
737 2 41.4554 43.3313 7.79632
738 2 26.6255 7.23861 28.889
739 2 7.52932 45.7145 12.7456
740 2 44.4258 53.2626 26.9743
741 2 41.2696 19.3682 16.5182
742 2 26.3587 33.2201 51.0903
743 2 45.9002 16.9227 52.7591
744 2 45.4905 46.2235 47.821
745 2 19.9599 10.4176 32.3003
746 2 33.3267 25.5403 34.4126
747 2 16.3025 19.3059 54.7031
748 2 30.7221 34.9941 6.13699
749 2 26.7638 30.1987 52.9054
750 2 49.865 43.6909 49.0693
751 2 31.5441 54.354 50.8445
752 2 30.9748 55.8103 37.0114
753 2 16.9559 9.28734 18.4715
754 2 55.828 55.2776 40.6564
755 2 32.4908 17.5036 39.273
756 2 19.6146 52.4004 30.3014
757 2 29.6072 54.6926 48.1905
758 2 45.1657 30.2252 52.675
759 2 23.3527 43.7942 20.1995
760 2 54.4053 25.0136 49.0189
761 2 49.9558 44.8062 10.9891
762 2 39.8131 48.791 36.6952
763 2 34.7532 18.7619 40.9256
764 2 26.6322 21.744 16.1639
765 2 23.8686 40.333 21.277
766 2 33.5394 35.7239 28.6747
767 2 11.0345 46.8707 22.8746
768 2 43.9755 42.7571 39.1877
769 2 11.3746 54.5819 26.7982
770 2 31.2809 28.0358 12.5942
771 2 30.0166 33.6225 35.6905
772 2 9.28429 55.1536 35.7913
773 2 38.1269 18.6434 6.16527
774 2 34.1375 31.3766 54.4826
775 2 22.7119 28.6208 54.7143
776 2 38.8259 10.8454 47.1289
777 2 44.1524 21.6938 19.3545
778 2 28.3312 30.9629 12.2372
779 2 22.7954 22.7589 45.2019
780 2 17.0926 49.7396 49.1287
781 2 22.6064 42.3276 39.4293
782 2 46.134 46.8753 36.402
783 2 18.5877 40.8765 6.93682
784 2 26.9564 47.7008 27.2662
785 2 25.1051 15.46 16.3027
786 2 45.1409 52.0832 46.1892
787 2 27.7556 20.9142 19.8774
788 2 34.5643 29.1186 26.2628
789 2 50.1437 30.3727 6.40947
790 2 16.0207 9.5503 47.9046
791 2 18.7674 22.4472 36.5347
792 2 20.2552 17.8458 48.0197
793 2 21.5542 21.7515 8.18017
794 2 12.286 16.5952 21.4348
795 2 26.4092 20.4771 52.7559
796 2 21.691 53.7982 34.2414
797 2 18.3124 49.4023 37.2731
798 2 36.5528 18.8529 15.9962
799 2 12.5075 13.5621 48.2919
800 2 53.3193 9.19226 39.7655
801 2 26.3278 7.24197 45.3411
802 2 16.4248 7.30998 39.9713
803 2 7.88206 42.5137 28.442
804 2 32.2463 30.1126 15.7656
805 2 37.5585 55.8249 35.3456
806 2 49.4714 15.6186 39.1293
807 2 22.0009 12.5775 36.3226
808 2 25.8096 53.0416 38.9104
809 2 54.1877 28.0339 48.3052
810 2 53.5663 41.4665 47.8472
811 2 6.16358 33.0878 17.1175
812 2 29.3388 28.5491 35.1737
813 2 51.7806 47.3688 34.8996
814 2 52.0686 37.8835 28.2614
815 2 54.9702 21.9825 26.7238
816 2 15.3789 15.8389 10.0536
817 2 46.9974 47.0711 7.22865
818 2 34.9723 39.9781 22.3246
819 2 29.9483 42.8071 30.1669
820 2 49.5425 16.8617 26.4834
821 2 15.832 37.5071 20.2482
822 2 38.4465 52.9135 7.46525
823 2 54.8345 22.7023 32.2144
824 2 18.0433 35.716 30.9915
825 2 29.2978 37.988 53.8183
826 2 27.6802 11.1256 32.0193
827 2 47.2573 22.1695 37.5556
828 2 13.2338 43.3579 9.53381
829 2 36.0432 36.1769 26.9438
830 2 40.2813 15.8544 19.6693
831 2 33.4255 42.8975 37.6935
832 2 14.0188 28.1904 54.9898
833 2 53.5419 12.9806 43.9192
834 2 29.9882 15.1484 7.61127
835 2 35.6974 21.6532 21.2802
836 2 12.3192 44.2794 44.6487
837 2 26.8004 36.044 49.5126
838 2 42.6502 42.1919 22.3302
839 2 45.5054 25.231 50.3133
840 2 24.2878 24.8916 43.2878
841 2 9.52811 9.87901 7.26343
842 2 37.1004 10.3908 55.5051
843 2 35.7372 51.3769 14.0982
844 2 32.7201 39.2293 35.4974
845 2 49.3397 18.6175 54.068
846 2 55.7686 36.3232 17.6005
847 2 30.2558 26.2259 33.5167
848 2 55.3857 27.4077 8.32999
849 2 48.8041 12.9175 18.3553
850 2 42.9729 11.218 37.3844
851 2 23.5392 55.8246 35.6234
852 2 47.3879 39.4732 17.7364
853 2 25.3522 26.1137 54.2785
854 2 44.142 21.0557 45.1811
855 2 15.6394 22.8508 39.7121
856 2 43.1422 8.9714 51.3673
857 2 44.4369 52.2871 17.9671
858 2 7.84042 20.2453 10.7536
859 2 44.5315 16.9682 50.1164
860 2 12.7609 18.3907 50.6018
861 2 27.3162 30.9764 25.5492
862 2 45.7501 42.1916 34.343
863 2 48.2591 44.1497 41.3631
864 2 10.4938 19.4997 14.887
865 2 48.235 11.7731 21.2456
866 2 45.2091 36.2829 53.7738
867 2 43.6477 12.2318 28.8187
868 2 18.2758 18.1153 31.1502
869 2 16.3354 11.0357 34.3421
870 2 50.1184 48.3405 12.8015
871 2 39.7034 38.1683 50.4993
872 2 27.5438 14.718 42.4278
873 2 52.9328 52.1123 54.838
874 2 34.4061 55.7699 49.9684
875 2 16.3924 18.0931 22.1437
876 2 28.0063 8.515 54.692
877 2 11.2806 26.9501 33.6853
878 2 11.5731 40.5041 12.1606
879 2 52.8746 32.4553 47.9609
880 2 51.7261 8.71577 45.7803
881 2 43.2456 16.3362 10.6497
882 2 8.60041 15.5079 15.5703
883 2 41.1807 30.4126 16.3804
884 2 13.6461 27.7368 9.75112
885 2 55.2286 29.1662 51.2654
886 2 50.7111 44.9447 51.7306
887 2 30.1165 30.2715 25.6419
888 2 25.3748 6.3751 19.8553
889 2 23.9134 12.9116 28.1392
890 2 28.3606 34.9792 38.1867
891 2 31.5625 38.6691 45.4833
892 2 30.0701 23.8932 51.7395
893 2 27.4196 16.1929 6.35876
894 2 32.1177 8.65815 33.5888
895 2 21.5929 19.9812 45.9511
896 2 18.3907 14.1917 39.7382
897 2 9.24823 11.6797 24.3402
898 2 46.9224 21.8459 16.0286
899 2 37.1453 21.2869 52.4349
900 2 30.9755 31.1284 52.0586
901 2 37.6474 27.2457 45.7474
902 2 41.0109 40.187 49.0249
903 2 27.7386 28.6576 16.9513
904 2 10.0902 11.0208 37.0571
905 2 35.8475 8.70804 37.1006
906 2 53.9176 40.5185 10.5867
907 2 6.4878 25.7554 45.0253
908 2 25.1312 49.6421 17.5666
909 2 37.6474 48.1814 27.6915
910 2 15.7812 43.0859 54.7588
911 2 14.3618 7.87339 17.3481
912 2 38.6703 37.711 39.4843
913 2 10.3017 9.64807 43.5981
914 2 16.8001 13.1118 26.4693
915 2 47.5273 27.59 17.3107
916 2 49.3253 53.9179 53.8368
917 2 19.4613 44.6613 27.6958
918 2 43.5465 42.2794 11.5408
919 2 52.6035 12.9909 55.5225
920 2 30.7301 40.1869 48.6784
921 2 10.0304 22.137 42.9253
922 2 42.4864 35.3714 53.2632
923 2 27.7143 36.1856 31.3687
924 2 26.5072 45.048 12.4754
925 2 38.2952 54.7926 11.0949
926 2 25.4806 28.1777 24.8422
927 2 11.5512 31.4867 43.9113
928 2 13.5805 23.4473 41.1112
929 2 10.0867 44.3875 32.9443
930 2 10.7999 32.6339 27.6261
931 2 8.73977 24.6954 37.4385
932 2 50.8733 35.5004 17.0906
933 2 21.4805 15.0191 6.63581
934 2 9.60111 38.9278 53.9626
935 2 10.0167 52.6812 47.9526
936 2 44.5373 17.6138 45.724
937 2 9.72861 39.5692 16.6914
938 2 46.7595 42.109 19.1062
939 2 38.8244 34.4121 38.8762
940 2 54.6553 46.8015 53.9944
941 2 55.5679 36.1802 53.3067
942 2 37.2803 17.0836 22.7235
943 2 8.48861 7.31896 11.894
944 2 33.9774 44.6767 51.9081
945 2 13.7666 53.8591 24.2019
946 2 19.668 49.2255 41.7678
947 2 15.7575 25.8392 43.0457
948 2 11.1438 19.691 44.7244
949 2 53.852 40.8498 43.0102
950 2 31.8208 9.7228 45.6338
951 2 11.4596 19.3 29.0887
952 2 18.1475 54.0683 35.6817
953 2 43.6287 19.1822 25.3013
954 2 6.67343 14.0367 33.8989
955 2 41.1131 29.0439 49.441
956 2 29.1054 40.13 37.6058
957 2 14.8772 20.6543 48.0407
958 2 17.4874 18.0801 44.9207
959 2 7.73904 16.4404 18.7077
960 2 17.0665 10.9037 53.1088
961 2 30.5162 6.21888 43.9895
962 2 18.107 6.99713 52.5667
963 2 8.41016 23.0112 9.49042
964 2 14.09 16.4826 42.2652
965 2 12.7994 52.8056 43.4459
966 2 44.3635 49.9559 44.5271
967 2 18.7994 46.8926 44.5406
968 2 20.5895 6.40707 38.6691
969 2 51.308 7.82622 21.285
970 2 17.7381 42.8067 20.4197
971 2 35.9471 46.4299 38.375
972 2 22.3957 52.967 12.6655
973 2 32.5651 51.0743 11.6232
974 2 13.9541 37.1128 27.758
975 2 46.8109 12.2198 38.0738
976 2 53.7832 43.5748 44.2478
977 2 53.3122 44.5526 21.5243
978 2 9.65509 6.88186 9.2121
979 2 54.2353 7.69321 30.4771
980 2 6.07194 32.2627 29.5457
981 2 27.3696 50.1174 8.47956
982 2 49.1941 48.0618 28.1107
983 2 34.0925 28.2114 32.8562
984 2 50.6208 37.6879 42.4317
985 2 10.1937 47.5612 55.7123
986 2 22.3792 38.7108 36.0253
987 2 46.0249 39.1746 47.1841
988 2 47.117 32.013 6.33569
989 2 16.9781 31.8733 39.2619
990 2 53.7668 53.4175 8.60955
991 2 25.5274 37.5725 27.7919
992 2 18.8422 26.7387 55.5352
993 2 26.9996 45.0062 50.7428
994 2 24.1261 37.4709 50.2088
995 2 41.968 50.6929 35.5319
996 2 39.7787 43.6848 17.7119
997 2 12.8839 34.7851 26.0281
998 2 20.1015 44.2701 33.6706
999 2 17.3605 29.5605 6.53872
1000 2 29.9418 32.2138 31.6844
1001 2 29.8151 18.2192 43.0191
1002 2 22.6058 14.9128 21.463
1003 2 12.5993 9.71478 55.4229