ITEM: TIMESTEP
0
ITEM: NUMBER OF ATOMS
9088
ITEM: BOX BOUNDS xy xz yz pp pp pp
6.0952552016353545e+00 5.5835682590569384e+01 -5.7067922131682581e-15
6.0952552016353598e+00 5.5835682590569384e+01 0.0000000000000000e+00
6.0952552016353598e+00 5.5835682590569384e+01 0.0000000000000000e+00
ITEM: ATOMS id type x y z
1 2 14.094 53.9489 31.3731
2 2 35.1554 43.8269 51.5165
3 2 22.9801 14.4837 39.2856
4 2 47.0828 49.7607 44.2452
5 2 43.3619 38.8468 47.0695
6 2 15.0746 32.5791 20.4592
7 2 46.5167 43.5772 37.8363
8 2 7.00379 14.3361 33.6855
9 2 38.1929 26.8305 45.8163
10 2 32.0631 23.5559 48.4146
11 2 8.04141 14.8205 42.4751
12 2 35.4232 29.1743 14.3072
13 2 43.4022 52.6145 18.3372
14 2 28.6878 34.648 48.6887
15 2 23.6081 14.0971 13.6942
16 2 18.0016 21.7187 20.9392
17 2 46.42 41.4371 24.8992
18 2 14.3562 28.895 48.1369
19 2 46.9523 36.757 42.8834
20 2 48.5321 37.8694 33.3926
21 2 53.1167 24.2984 11.7177
22 2 8.53327 27.782 30.0386
23 2 54.5523 41.6036 23.6935
24 2 37.0695 45.6997 36.6657
25 2 20.5796 49.2146 17.8578
26 2 22.6015 12.9766 22.5579
27 2 12.0947 6.37374 8.96408
28 2 27.5009 49.4966 45.2901
29 2 49.6056 21.1549 25.2391
30 2 44.4203 15.3313 14.3166
31 2 18.9947 53.1057 52.9675
32 2 39.341 48.5606 40.2689
33 2 38.7136 15.8535 30.5455
34 2 17.4104 39.9954 26.9442
35 2 11.6736 41.2971 55.3759
36 2 19.7244 8.02761 46.7214
37 2 17.6477 53.1376 35.346
38 2 52.9647 11.0931 13.7056
39 2 11.5695 14.8748 42.3992
40 2 6.49669 43.881 11.9693
41 2 30.0426 54.7895 30.6317
42 2 50.5316 9.55112 33.1161
43 2 47.4905 50.4545 35.6139
44 2 8.61765 37.3819 14.0993
45 2 53.4253 29.3879 52.7628
46 2 24.1875 16.6226 46.8736
47 2 44.845 6.97868 26.6308
48 2 10.0519 29.097 16.9195
49 2 11.4154 45.4383 45.5364
50 2 30.0334 25.5246 11.8442
51 2 55.1138 35.2983 48.8255
52 2 54.6919 34.4449 6.79495
53 2 46.7378 41.3786 50.5887
54 2 23.5218 9.32412 13.7264
55 2 44.7441 27.6989 44.0921
56 2 27.8285 48.0863 52.0648
57 2 30.5264 35.5989 36.9473
58 2 31.192 41.0456 44.3425
59 2 45.8111 53.2312 40.0414
60 2 30.8433 33.4805 6.53551
61 2 12.1873 36.0625 21.3836
62 2 54.168 43.8993 31.4054
63 2 32.1175 44.9249 51.6256
64 2 48.2729 41.3103 41.9256
65 2 21.6626 33.7902 39.4465
66 2 21.63 17.2933 17.3287
67 2 39.3585 53.1306 8.57587
68 2 30.2645 24.6269 42.6706
69 2 7.89233 47.369 18.4249
70 2 36.2937 44.5939 48.8847
71 2 47.6358 43.5955 22.5119
72 2 13.8489 43.4106 40.2263
73 2 32.2504 43.8789 8.21081
74 2 55.5719 52.7708 12.2165
75 2 32.3972 17.8377 19.8712
76 2 34.1838 46.0041 8.63879
77 2 9.2872 17.6058 17.7628
78 2 21.7865 28.7606 43.4798
79 2 28.5819 14.3453 18.9933
80 2 17.6025 8.77418 48.9802
81 2 14.3721 46.3598 14.2368
82 2 49.4817 13.4384 38.997
83 2 50.2208 41.5382 15.3175
84 2 22.5664 41.5443 51.1194
85 2 14.7986 46.7943 31.8908
86 2 12.918 43.8919 20.1902
87 2 54.6665 37.8346 45.0445
88 2 43.2338 25.0359 53.1142
89 2 34.9499 53.2097 29.5639
90 2 6.65614 26.9389 10.6482
91 2 15.1079 14.9408 30.8862
92 2 49.5396 19.4026 16.6762
93 2 34.7749 7.6593 21.2894
94 2 24.6146 50.3974 44.7088
95 2 21.1601 16.1144 36.6738
96 2 33.9557 52.6209 16.8487
97 2 19.814 43.5802 48.4958
98 2 50.1303 29.7868 38.7274
99 2 53.611 16.5534 17.9524
100 2 35.7051 25.8424 14.4051
101 2 9.62958 35.0657 48.0067
102 2 24.4509 8.49285 55.5322
103 2 37.1504 32.0468 41.0572
104 2 50.012 42.3505 31.7399
105 2 41.6584 33.2634 10.7168
106 2 31.0977 50.4741 17.2469
107 2 20.5279 11.1293 6.96434
108 2 11.6643 55.0875 37.701
109 2 43.6587 19.3138 42.0365
110 2 51.0652 36.1675 48.5454
111 2 44.9149 25.4 45.992
112 2 11.5638 32.5459 47.69
113 2 18.0742 52.6433 43.2745
114 2 11.9457 11.8991 17.3692
115 2 17.5621 9.88057 15.6536
116 2 16.6687 13.5513 38.7132
117 2 54.5461 31.0514 33.0436
118 2 6.88629 47.239 54.1724
119 2 39.3115 17.5313 42.9642
120 2 47.3131 44.8508 11.8794
121 2 38.8511 27.5961 34.4127
122 2 54.4451 12.0038 48.7453
123 2 18.9425 16.995 13.6961
124 2 54.542 46.286 48.0325
125 2 37.5876 31.9849 52.5099
126 2 14.5059 11.3031 39.662
127 2 41.8409 26.5886 31.3471
128 2 26.9885 49.0509 25.0475
129 2 7.76671 39.4788 54.5725
130 2 22.7194 35.67 37.3417
131 2 33.1386 24.6898 6.23085
132 2 6.46553 14.832 47.3713
133 2 15.5784 46.3136 52.7123
134 2 51.1126 46.6766 33.3661
135 2 8.8741 11.1925 36.3779
136 2 34.1883 12.7358 8.53884
137 2 45.8722 54.3303 16.9892
138 2 22.8997 28.295 22.9306
139 2 33.8603 25.9819 26.4198
140 2 41.0001 45.4697 17.5023
141 2 20.8721 41.9635 19.015
142 2 53.7728 15.9902 37.9208
143 2 24.9493 29.5599 38.495
144 2 43.5098 23.6753 24.9586
145 2 16.6756 29.5612 13.8139
146 2 51.2993 18.8852 38.4408
147 2 10.6926 52.7417 22.7377
148 2 48.9471 33.1462 42.3594
149 2 7.79895 27.137 45.7857
150 2 47.0538 47.6569 30.7604
151 2 41.2383 51.5011 52.6136
152 2 45.3583 18.9446 19.4718
153 2 46.0796 54.9212 48.8973
154 2 14.7287 31.8896 30.5097
155 2 12.5851 19.3302 9.89496
156 2 9.97715 6.69246 51.8269
157 2 8.2977 14.5078 17.2316
158 2 24.6062 49.135 15.403
159 2 48.3807 18.2837 25.6559
160 2 54.7081 27.4677 49.8721
161 2 6.52583 46.3173 45.473
162 2 18.7317 27.1014 9.75396
163 2 20.7529 27.6146 28.3462
164 2 10.039 13.8528 30.4748
165 2 7.8399 38.1802 26.1213
166 2 53.4797 43.6837 43.5283
167 2 50.9763 7.12148 44.8755
168 2 34.8914 18.794 39.4015
169 2 12.6087 46.4077 11.9082
170 2 41.1258 44.857 12.5557
171 2 47.7102 16.9639 42.4763
172 2 44.0219 37.9787 39.8823
173 2 38.3844 34.8347 27.5357
174 2 43.2829 26.212 41.8443
175 2 44.3797 45.7495 9.08888
176 2 22.9095 31.9545 34.4834
177 2 25.71 10.2342 43.3884
178 2 10.2243 51.8338 27.796
179 2 46.0712 6.51687 31.811
180 2 34.8391 9.78638 18.9308
181 2 35.8229 34.564 29.5014
182 2 16.7131 45.0894 13.5355
183 2 24.7607 53.4391 14.7737
184 2 33.8918 41.273 10.3721
185 2 12.6618 35.0252 37.0484
186 2 29.3394 27.4672 45.2283
187 2 10.2854 53.9776 25.2997
188 2 26.3597 51.9395 32.0597
189 2 31.3376 7.00065 18.959
190 2 9.86835 42.0937 42.558
191 2 50.9378 13.28 7.27677
192 2 14.094 21.36 50.8044
193 2 31.3259 46.0054 29.1913
194 2 17.5992 19.3573 15.8217
195 2 30.6272 36.7608 19.8896
196 2 7.83399 23.0531 12.9896
197 2 46.4979 23.2924 47.2097
198 2 17.6511 34.2828 8.77517
199 2 17.8687 43.8803 53.9342
200 2 33.7039 54.9311 21.1365
201 2 36.7387 49.9286 51.7638
202 2 53.7967 36.8853 25.6144
203 2 50.9742 47.6426 11.7042
204 2 14.4115 15.6263 12.5805
205 2 50.1884 23.7898 35.0579
206 2 21.4518 31.0967 52.5585
207 2 34.9432 13.3944 31.9119
208 2 45.1841 12.6665 11.7648
209 2 32.3142 6.85987 40.8494
210 2 41.5687 29.8471 52.6954
211 2 23.5759 41.0839 40.5251
212 2 18.7733 9.1261 18.1073
213 2 38.822 16.4084 33.4992
214 2 39.0726 31.6702 46.0359
215 2 37.14 49.3966 54.9667
216 2 25.7555 45.8429 52.6443
217 2 31.01 27.8922 23.6637
218 2 51.8082 43.5886 51.3562
219 2 31.4922 40.8149 8.38121
220 2 49.1858 40.7935 11.254
221 2 48.1673 47.994 11.6736
222 2 23.0107 24.5756 51.0797
223 2 8.28687 24.0086 47.733
224 2 42.0314 50.8223 37.8253
225 2 48.5744 7.14444 29.4958
226 2 21.2089 17.6572 50.2408
227 2 27.0014 20.7046 6.8304
228 2 7.10754 14.0712 28.5527
229 2 7.68657 30.3889 19.848
230 2 6.6531 39.0369 12.3109
231 2 24.0927 44.5558 48.1143
232 2 9.64426 52.7074 48.0151
233 2 23.9201 11.3082 49.872
234 2 43.0194 15.4722 21.5874
235 2 28.885 13.3546 26.1784
236 2 11.3238 14.6476 51.0847
237 2 49.7303 53.8399 19.0984
238 2 18.2744 12.6612 41.4089
239 2 47.8382 46.1073 33.1563
240 2 34.9475 22.7217 23.3862
241 2 6.19308 9.78332 25.0239
242 2 7.18386 19.1889 48.0873
243 2 50.0643 27.2006 34.6797
244 2 51.1494 52.203 43.8129
245 2 22.2907 46.5491 12.1584
246 2 44.9733 41.7535 18.7374
247 2 30.5118 35.4213 53.5936
248 2 32.3846 49.5921 25.4731
249 2 25.0382 55.5649 7.44349
250 2 31.9909 29.0211 34.4164
251 2 51.9332 38.3497 47.0543
252 2 34.3688 31.9494 20.7978
253 2 42.9394 8.89628 40.1545
254 2 41.8409 38.1499 20.4192
255 2 8.90398 7.66785 49.1968
256 2 41.8719 43.8817 37.3834
257 2 46.4425 29.2677 21.7106
258 2 47.2258 51.0328 19.5436
259 2 33.331 48.5367 49.008
260 2 14.4643 11.1341 32.7548
261 2 36.426 6.55025 55.426
262 2 26.9138 26.9267 35.3454
263 2 49.5366 7.46655 36.9141
264 2 34.4666 32.3313 45.8055
265 2 10.2038 53.7492 40.0434
266 2 37.72 29.4006 24.9596
267 2 33.8742 17.2394 32.593
268 2 37.2224 54.8531 35.6899
269 2 53.3466 29.7955 49.5097
270 2 14.9986 22.3737 28.4217
271 2 43.4605 23.0199 28.8137
272 2 37.0574 39.0725 12.8685
273 2 53.3275 9.57727 28.62
274 2 15.3097 9.46516 7.59111
275 2 29.9139 25.7738 27.7624
276 2 42.2733 47.0652 15.3709
277 2 26.0336 54.4751 10.4571
278 2 43.2703 46.2868 48.3876
279 2 30.3183 14.2762 33.1525
280 2 12.9534 38.3134 6.27033
281 2 10.3768 38.0138 54.1353
282 2 10.1319 39.8894 14.6078
283 2 12.9764 45.2356 43.0705
284 2 44.398 22.8558 21.4341
285 2 26.6164 17.1055 16.2549
286 2 52.3868 36.0403 55.3459
287 2 35.1421 42.9355 40.4866
288 2 34.3698 45.6914 44.63
289 2 54.0655 31.4673 30.0613
290 2 35.0111 43.2432 37.3501
291 2 47.5726 23.4614 10.7011
292 2 37.9431 21.2949 44.9824
293 2 54.3695 31.2272 55.2639
294 2 41.6662 47.9744 55.5747
295 2 14.2083 40.5723 32.7546
296 2 49.708 22.7673 52.4033
297 2 12.8374 18.6367 52.6037
298 2 34.9359 35.0425 54.8373
299 2 14.6942 14.4789 15.4169
300 2 21.8443 25.2706 30.1031
301 2 18.5047 15.8607 37.3059
302 2 28.8821 21.6735 26.2261
303 2 55.498 33.3229 25.9911
304 2 13.6755 34.9104 18.9778
305 2 10.8385 22.5551 9.60869
306 2 28.8559 52.8636 28.2103
307 2 7.907 35.0203 20.3484
308 2 51.0991 15.9571 20.2178
309 2 20.2957 20.8413 17.0975
310 2 40.4459 30.7485 39.1677
311 2 45.5161 42.7025 7.05915
312 2 25.214 30.6265 11.9113
313 2 7.90256 12.3243 54.6086
314 2 25.3242 23.5558 39.7936
315 2 35.0417 7.36288 8.70914
316 2 32.6144 19.6177 6.2861
317 2 25.7262 30.7979 54.8802
318 2 48.5112 23.8334 15.674
319 2 39.4275 9.31053 20.7593
320 2 34.4141 42.9807 18.6855
321 2 29.0065 29.4021 43.0829
322 2 44.5691 45.5982 34.5065
323 2 29.5243 39.3046 43.2343
324 2 27.0528 19.2321 10.6718
325 2 8.27573 11.4153 20.0283
326 2 52.3791 15.3779 12.9127
327 2 17.7464 20.5475 24.7615
328 2 51.3857 10.4768 8.50126
329 2 24.9454 26.4519 15.6921
330 2 18.1083 13.2298 7.49431
331 2 33.0902 33.502 8.78544
332 2 27.7439 29.8885 50.4553
333 2 49.738 53.0689 23.5723
334 2 48.7619 36.3771 25.3398
335 2 28.7665 25.5566 21.3615
336 2 11.2384 19.7737 19.1815
337 2 55.2346 46.4198 34.0083
338 2 39.4429 38.5139 40.5612
339 2 17.7818 37.4154 8.37682
340 2 39.9948 53.1165 19.5956
341 2 45.1509 28.1477 35.0295
342 2 26.5269 18.9821 22.902
343 2 27.4996 41.3925 50.836
344 2 40.0671 21.7669 22.8078
345 2 47.0592 28.0069 46.9573
346 2 38.0091 25.141 36.3446
347 2 41.2429 47.2381 34.011
348 2 26.3977 6.66924 34.8906
349 2 8.23367 15.1715 39.5473
350 2 18.2064 30.4191 33.9778
351 2 33.9271 15.0014 39.992
352 2 10.6093 20.9624 24.4517
353 2 10.8713 50.5836 46.2461
354 2 27.6068 33.1161 39.121
355 2 52.921 54.0435 13.4697
356 2 25.04 50.5123 36.7141
357 2 9.69156 10.0847 32.287
358 2 33.3507 42.9794 34.7006
359 2 46.3097 42.234 27.6689
360 2 48.0363 53.9855 46.5196
361 2 25.7366 23.8092 30.2929
362 2 53.8605 20.734 41.5674
363 2 24.2385 30.734 7.65153
364 2 52.5632 53.8609 8.4231
365 2 53.0626 29.9084 20.3607
366 2 47.2422 13.2352 26.7674
367 2 31.1765 52.6402 44.724
368 2 51.7834 49.4281 21.9761
369 2 55.7748 52.3264 23.5451
370 2 39.9224 33.7772 52.0821
371 2 43.0272 49.151 48.8324
372 2 41.9999 17.9894 8.68539
373 2 53.3516 6.82479 17.7902
374 2 20.7857 52.0932 26.9092
375 2 11.729 37.9474 44.1759
376 2 11.9235 26.1156 11.1188
377 2 45.0312 16.8105 46.2904
378 2 54.7505 7.02168 28.578
379 2 51.6132 41.6038 23.1009
380 2 37.2745 7.22517 16.0896
381 2 44.8074 15.5228 54.5176
382 2 49.1552 42.8421 39.3963
383 2 40.0871 26.6717 6.90194
384 2 48.7407 50.4469 25.6176
385 2 42.1112 42.5743 45.8214
386 2 24.7803 52.8608 29.9727
387 2 28.4065 49.5778 31.4577
388 2 42.884 30.981 7.2774
389 2 49.0638 45.047 51.1295
390 2 46.0686 53.7063 36.3458
391 2 46.3377 49.8241 6.6183
392 2 35.0616 46.6758 31.3179
393 2 20.5854 15.1935 8.28187
394 2 53.4668 50.4673 46.7468
395 2 13.3355 21.7333 8.78826
396 2 20.8304 26.7784 49.2568
397 2 43.9284 24.9913 7.57451
398 2 11.8542 49.638 30.49
399 2 17.1975 44.6738 25.8547
400 2 48.6186 9.1339 7.66905
401 2 43.8538 33.3416 39.3781
402 2 30.2675 23.573 30.5191
403 2 40.9636 46.7862 10.2938
404 2 6.68398 19.7658 53.7848
405 2 51.6536 15.6542 45.241
406 2 10.259 47.3741 48.016
407 2 14.8541 6.31229 15.3462
408 2 19.3056 19.9363 55.7434
409 2 30.9237 52.3057 55.2635
410 2 34.8568 29.9125 29.4434
411 2 51.9094 13.0454 20.3289
412 2 9.80507 38.6017 9.23676
413 2 39.9463 52.6111 15.1604
414 2 28.5336 42.8234 27.6218
415 2 36.9115 32.2017 28.2785
416 2 27.8947 32.2596 45.0526
417 2 46.8125 27.1285 37.4899
418 2 48.0582 12.0053 48.8236
419 2 19.2168 34.6204 23.2662
420 2 49.677 20.049 40.9391
421 2 7.32494 53.5343 31.6996
422 2 19.5942 52.6893 17.7802
423 2 24.9392 26.1426 12.7266
424 2 28.4068 54.5814 15.0353
425 2 42.8169 41.0042 53.2597
426 2 54.3913 23.866 43.0101
427 2 10.8702 19.9628 33.9835
428 2 44.3175 21.1425 33.131
429 2 54.2444 19.982 10.625
430 2 27.6262 44.1203 32.1276
431 2 6.18577 9.78648 55.7412
432 2 53.8494 37.8966 34.1792
433 2 53.055 15.3092 42.6338
434 2 42.0594 35.9706 47.9075
435 2 9.33031 32.6079 20.0157
436 2 38.706 8.61877 38.4558
437 2 52.9364 10.4364 19.8346
438 2 21.4169 47.9618 30.0058
439 2 50.1384 38.1506 44.1714
440 2 38.3501 29.1593 43.5757
441 2 16.3006 32.5697 7.05128
442 2 22.8874 19.1553 8.61771
443 2 33.6883 27.6378 22.0058
444 2 12.2781 40.4549 40.5048
445 2 29.818 7.91658 31.689
446 2 37.433 8.9903 48.7557
447 2 7.76031 25.9021 14.4154
448 2 47.6966 14.3754 10.8398
449 2 10.4844 30.0238 32.9767
450 2 54.0392 50.8215 20.4419
451 2 36.5272 47.0266 33.9995
452 2 25.129 36.0439 25.1279
453 2 51.2428 28.1942 19.4426
454 2 20.6881 15.765 41.5392
455 2 28.3684 8.54003 42.9215
456 2 55.7712 32.4536 49.1111
457 2 53.1992 8.01514 7.41023
458 2 23.2428 30.3718 41.2829
459 2 32.1947 16.2444 48.6617
460 2 37.4735 27.8464 30.6737
461 2 11.5615 31.1596 53.7282
462 2 52.8197 45.7274 13.3821
463 2 31.8258 27.4983 40.2255
464 2 11.071 31.2356 44.9984
465 2 34.3306 8.16789 30.1774
466 2 13.6123 50.6591 53.7237
467 2 48.7047 26.0038 11.5407
468 2 20.7163 13.0609 40.176
469 2 32.2952 12.5856 39.7538
470 2 24.6035 9.16568 52.3005
471 2 19.6874 12.6259 49.4197
472 2 18.0941 31.9158 54.2009
473 2 29.3472 23.0621 23.7298
474 2 47.4578 32.7423 12.5187
475 2 19.0718 38.0382 39.4459
476 2 44.8406 33.5708 11.1696
477 2 14.6128 44.1481 10.3412
478 2 53.7889 43.1311 13.1559
479 2 17.2683 14.7285 16.8407
480 2 51.7806 23.0865 24.2846
481 2 50.4151 39.3242 24.8238
482 2 10.6418 28.7847 10.974
483 2 37.1858 32.8806 9.65587
484 2 26.7658 24.3333 47.4159
485 2 47.9648 19.7558 49.4244
486 2 25.9771 46.567 41.5324
487 2 11.3248 12.9786 36.4819
488 2 39.1298 20.007 15.9638
489 2 34.7651 41.345 45.191
490 2 16.2623 48.8795 54.8732
491 2 16.1808 39.7818 47.5021
492 2 15.7097 28.9502 29.5848
493 2 22.5112 35.0176 34.1508
494 2 31.6262 16.8623 44.6853
495 2 43.2139 14.4591 31.7329
496 2 27.0217 17.0988 13.3407
497 2 34.6118 31.8472 42.3448
498 2 48.8551 8.92831 51.5091
499 2 33.739 55.7537 32.9429
500 2 38.2281 23.8815 24.6305
501 2 46.3027 35.7663 12.4529
502 2 13.3665 48.8019 21.1371
503 2 52.9379 11.4815 37.1416
504 2 6.98635 30.8165 53.214
505 2 52.8234 33.2593 48.1524
506 2 46.5266 21.1501 28.1026
507 2 51.4881 21.9464 10.4568
508 2 31.8112 46.7777 38.4578
509 2 44.9905 51.6887 37.6637
510 2 23.1418 24.8476 33.9258
511 2 8.7304 50.176 18.965
512 2 28.9076 16.923 54.5536
513 2 13.194 19.8006 37.3588
514 2 30.4775 30.235 45.8746
515 2 16.4401 42.284 17.3482
516 2 22.7871 32.9948 14.5487
517 2 11.6142 35.8697 9.55592
518 2 10.102 43.8769 9.36377
519 2 15.4874 11.5539 19.4836
520 2 25.015 31.1105 25.7928
521 2 42.2279 50.3449 34.7067
522 2 10.5592 8.72735 26.4563
523 2 55.7096 10.8148 51.5078
524 2 21.1551 15.4124 47.7965
525 2 27.2809 11.9991 54.2828
526 2 11.6385 27.2717 34.4536
527 2 28.7111 39.0938 47.2915
528 2 45.3356 38.6246 9.55726
529 2 19.254 46.4831 18.729
530 2 26.3403 50.7856 17.8501
531 2 46.5425 31.9113 47.1037
532 2 15.0041 24.6673 32.393
533 2 55.3825 10.2127 40.3219
534 2 53.5748 48.2594 44.1202
535 2 38.6504 52.7102 51.4478
536 2 32.1563 34.9165 24.385
537 2 42.1421 16.6521 23.9747
538 2 53.1975 8.92138 23.8682
539 2 39.2395 13.0334 24.5521
540 2 22.2624 43.3632 30.0673
541 2 35.3285 16.2057 16.5774
542 2 7.40094 46.2709 13.7073
543 2 16.8975 47.0133 48.089
544 2 10.5975 16.2849 36.2986
545 2 51.1379 6.71178 21.4212
546 2 8.28196 37.0056 6.84431
547 2 46.9601 41.7132 9.41428
548 2 34.1608 36.2977 50.5984
549 2 33.4533 26.0286 48.2975
550 2 26.3287 14.26 53.0821
551 2 40.9688 16.0685 40.7356
552 2 22.4933 14.9648 24.6873
553 2 49.1157 49.1587 52.1129
554 2 43.1482 46.3442 31.9428
555 2 16.5474 45.1351 44.4732
556 2 7.22607 39.1682 45.4665
557 2 43.8445 6.96037 46.8874
558 2 38.8582 12.5132 42.11
559 2 19.7881 45.1818 27.3217
560 2 6.17531 24.1905 32.3704
561 2 39.5689 53.6425 54.2279
562 2 44.0809 52.8934 45.8801
563 2 9.58826 33.0893 23.8412
564 2 11.5703 9.81817 36.156
565 2 31.9625 37.2818 41.4706
566 2 27.8389 24.9889 32.3202
567 2 49.306 33.8988 51.7737
568 2 18.5064 40.0632 52.0358
569 2 29.9308 15.3139 28.5278
570 2 23.2477 11.6146 47.015
571 2 37.1754 51.9478 39.6435
572 2 33.2747 38.7568 34.9333
573 2 17.6486 52.5728 27.8258
574 2 14.1969 39.8312 26.488
575 2 9.82469 6.78823 33.659
576 2 9.43478 40.7542 47.3396
577 2 10.9716 51.7968 12.5786
578 2 48.6104 47.0858 19.7152
579 2 53.0772 20.3804 27.1043
580 2 48.8051 44.0461 47.9597
581 2 49.4908 6.46928 40.5401
582 2 22.5798 39.0296 33.4719
583 2 44.3205 51.6652 22.7596
584 2 29.3146 17.9104 51.891
585 2 24.4359 51.9253 39.8409
586 2 45.3145 27.002 22.8029
587 2 31.0846 35.4813 31.4579
588 2 12.5076 37.8481 41.3403
589 2 16.6953 29.767 36.8104
590 2 20.4557 21.6866 47.7982
591 2 25.0506 43.5011 55.0145
592 2 35.2098 16.3626 55.5905
593 2 51.7649 35.5687 27.8913
594 2 13.5471 7.20308 30.9099
595 2 27.0732 7.38776 51.6586
596 2 21.2372 20.8234 13.9296
597 2 18.0823 42.5145 27.8355
598 2 15.1328 15.1578 46.8261
599 2 18.4396 9.6014 27.3163
600 2 45.4676 45.2136 40.1072
601 2 21.2781 34.9303 16.7008
602 2 24.6975 11.0356 36.8961
603 2 10.4655 49.1542 14.9654
604 2 27.0542 55.7979 37.6269
605 2 38.962 30.4553 10.6415
606 2 52.8053 30.3451 9.29508
607 2 17.7115 34.8557 19.6863
608 2 36.6786 20.389 30.332
609 2 25.1126 10.7967 16.2317
610 2 8.69007 54.4385 13.856
611 2 30.7338 25.5699 49.6144
612 2 50.8069 50.8508 28.5813
613 2 47.2124 38.2161 22.1858
614 2 29.6444 12.4648 41.076
615 2 48.5534 26.8955 19.1819
616 2 40.3493 13.8506 31.4159
617 2 47.468 19.2818 38.8607
618 2 42.8734 13.976 37.1435
619 2 9.33927 17.9924 13.1042
620 2 15.0817 46.4848 27.631
621 2 7.96465 6.84328 17.3802
622 2 25.0264 27.4279 20.8619
623 2 7.27238 25.6838 27.807
624 2 11.9085 6.98717 15.2259
625 2 32.9707 35.8882 13.1791
626 2 54.5936 39.5208 14.9343
627 2 35.1113 8.30425 51.534
628 2 37.7407 12.0703 30.6686
629 2 47.9463 8.9042 41.3501
630 2 50.6681 39.4895 8.95406
631 2 32.3238 22.9038 17.3709
632 2 9.32515 28.6748 7.12134
633 2 39.556 9.35012 12.5631
634 2 30.5956 42.4248 49.865
635 2 8.85952 8.65964 37.5959
636 2 30.1548 39.5707 34.3247
637 2 15.1341 6.2096 46.48
638 2 18.3272 39.9651 6.66492
639 2 46.4939 40.1883 54.5781
640 2 13.9505 17.3259 44.9773
641 2 55.8333 31.2417 40.0888
642 2 15.9805 38.9535 30.3567
643 2 23.6698 17.8285 55.4255
644 2 13.7211 14.5474 49.396
645 2 17.9639 49.8119 46.556
646 2 54.4872 24.6604 25.0695
647 2 50.9306 30.421 42.1002
648 2 54.8813 50.5358 37.8133
649 2 41.5161 20.0518 24.768
650 2 26.9825 50.2074 55.7414
651 2 41.4928 8.95618 22.8687
652 2 42.8692 8.39355 35.3711
653 2 25.6835 42.2631 42.3697
654 2 31.5627 13.0029 19.6576
655 2 38.7939 53.8421 40.5593
656 2 25.3833 51.6804 9.88657
657 2 24.2468 53.7489 18.0356
658 2 30.1681 39.4975 15.6243
659 2 12.2682 51.1337 40.5533
660 2 41.1182 43.6764 6.37304
661 2 20.3602 34.2394 8.42307
662 2 50.0663 53.6117 50.6073
663 2 37.2237 46.1221 7.93706
664 2 12.2847 11.8256 55.2362
665 2 43.2202 27.0983 11.4056
666 2 47.9801 16.3204 32.9803
667 2 16.9813 9.77722 54.3963
668 2 35.0802 49.8387 42.7498
669 2 25.9427 36.2367 20.0662
670 2 22.4223 11.3437 17.5381
671 2 49.4566 54.5133 43.1554
672 2 43.6945 28.156 53.5943
673 2 54.7295 36.1804 53.6962
674 2 36.4494 14.0241 43.9443
675 2 18.593 26.0758 26.7422
676 2 16.0021 33.3523 26.2516
677 2 21.0722 13.6514 11.1843
678 2 29.0277 35.0934 16.7313
679 2 40.3192 35.4956 11.6048
680 2 54.422 41.4287 29.2716
681 2 38.3412 34.488 45.1216
682 2 24.7257 11.1553 23.5324
683 2 53.7579 7.8485 43.3571
684 2 47.9383 31.6308 27.0273
685 2 9.45446 44.748 40.6758
686 2 32.2243 55.2707 8.57286
687 2 20.9354 50.7772 13.2207
688 2 44.8026 37.7509 36.2761
689 2 27.3446 12.0662 30.2459
690 2 20.8021 27.1078 21.1753
691 2 54.9443 16.0364 24.9363
692 2 54.9804 7.66405 50.7018
693 2 29.2389 39.5056 10.873
694 2 35.7142 35.1399 45.0669
695 2 52.7948 45.6757 29.4553
696 2 15.9428 14.1476 53.1404
697 2 30.4359 44.2564 12.4365
698 2 25.8191 18.6239 39.6965
699 2 26.6643 22.1114 37.2759
700 2 29.6475 55.477 21.8293
701 2 36.6521 14.6121 40.4878
702 2 46.6869 36.0536 27.3869
703 2 28.6177 20.0431 54.0864
704 2 6.68114 40.0692 38.7224
705 2 33.6141 8.55216 34.8249
706 2 53.4257 12.8968 41.4204
707 2 42.3218 39.5184 7.44485
708 2 45.5513 53.8596 8.37477
709 2 55.4757 27.256 31.4784
710 2 31.756 50.1474 38.7809
711 2 48.1993 9.33231 12.1259
712 2 55.7584 41.4276 32.0878
713 2 13.0696 8.41979 43.9853
714 2 43.3746 40.4757 50.2002
715 2 36.5802 42.0569 6.30077
716 2 13.1015 14.0716 32.4512
717 2 52.0159 34.9185 15.5239
718 2 41.0143 52.1128 26.9616
719 2 49.8967 17.9601 29.0461
720 2 17.9275 50.2871 18.5839
721 2 33.7751 19.693 12.9829
722 2 40.391 19.81 47.078
723 2 43.4342 55.5486 40.021
724 2 12.8587 30.6117 10.8521
725 2 39.9957 8.18322 52.8669
726 2 29.4012 13.3245 23.4138
727 2 48.3669 16.2959 13.6681
728 2 25.4086 29.5984 35.3865
729 2 21.4313 7.87585 6.15961
730 2 30.254 42.7901 33.1126
731 2 9.0065 47.9349 12.1574
732 2 18.0641 11.3483 36.6743
733 2 12.2348 16.241 10.2161
734 2 14.4021 48.5198 12.0787
735 2 41.2975 33.7937 33.5188
736 2 38.0852 27.9412 27.3184
737 2 52.4001 53.3672 24.8319
738 2 37.8776 17.5393 45.8262
739 2 18.5467 55.7901 30.1482
740 2 55.2968 13.8327 44.0799
741 2 52.2626 29.6472 33.937
742 2 37.0449 43.8165 18.6865
743 2 6.96435 27.1684 20.3025
744 2 6.60498 6.57869 14.7032
745 2 31.0964 21.1806 49.4843
746 2 44.571 35.9383 51.8752
747 2 27.276 29.5488 21.6879
748 2 39.7882 44.3703 23.1624
749 2 37.3437 40.3266 20.573
750 2 10.9715 53.9108 16.4771
751 2 42.5171 14.877 18.351
752 2 41.8604 16.7211 54.3461
753 2 27.9462 19.8542 35.9509
754 2 17.0612 15.6357 8.02455
755 2 43.7183 28.1255 6.70044
756 2 30.6508 13.0375 47.4339
757 2 40.3964 15.0061 15.7136
758 2 55.7651 40.4083 19.7085
759 2 34.5091 54.4472 36.99
760 2 15.5214 35.203 16.5512
761 2 11.17 54.9216 28.0818
762 2 51.0185 9.55963 53.6324
763 2 45.6788 29.4589 8.4511
764 2 38.1656 31.8494 33.5626
765 2 34.8252 50.6843 39.1725
766 2 45.8081 44.8674 48.0821
767 2 22.3881 7.29888 40.5996
768 2 54.4369 52.9424 6.31188
769 2 24.3823 14.9864 43.9624
770 2 42.366 38.5015 29.6811
771 2 40.7748 43.6694 53.3298
772 2 20.1651 15.8551 52.7276
773 2 48.9872 28.7919 22.8475
774 2 44.9103 41.9272 22.0701
775 2 33.5258 38.7243 21.943
776 2 49.6939 21.3776 14.7248
777 2 54.9147 32.3309 36.5901
778 2 39.0932 41.4129 29.1507
779 2 33.7158 33.1291 12.3007
780 2 28.3272 10.4919 16.7244
781 2 33.6505 53.0845 6.74526
782 2 7.16056 7.30726 53.4482
783 2 29.611 50.8457 24.1742
784 2 37.6993 8.29552 45.423
785 2 36.3659 25.9187 32.8082
786 2 6.34242 12.7222 13.4788
787 2 38.8039 30.959 36.8819
788 2 45.9886 39.4111 43.688
789 2 11.4945 40.6184 23.7713
790 2 27.0143 19.7275 15.1796
791 2 29.6754 32.8062 53.5948
792 2 31.0845 27.9093 15.4492
793 2 32.4764 32.1149 25.0837
794 2 23.1687 26.8376 38.6385
795 2 36.8771 30.5958 19.8596
796 2 32.7182 14.6776 51.575
797 2 29.2346 10.0163 55.1451
798 2 47.7416 28.9164 32.9834
799 2 23.2592 24.0549 15.9374
800 2 14.5108 19.9307 55.2473
801 2 37.4346 17.6961 12.6204
802 2 25.6994 18.6403 7.82437
803 2 19.6477 54.2305 45.1215
804 2 43.2249 40.5213 33.1581
805 2 48.6241 16.1005 52.6728
806 2 10.7241 25.7135 6.58119
807 2 33.2123 23.0962 53.5773
808 2 37.3336 13.8906 6.28043
809 2 15.4249 38.3118 15.8281
810 2 14.9492 51.6527 15.1937
811 2 16.9796 43.2218 33.9095
812 2 41.0574 38.836 52.1099
813 2 12.9652 7.98174 51.8634
814 2 13.194 48.159 45.2197
815 2 12.7653 35.3797 43.1262
816 2 26.3905 26.107 27.4899
817 2 8.34386 7.71823 24.1489
818 2 46.1123 50.3325 39.7347
819 2 41.486 52.9473 47.5358
820 2 10.4343 26.6863 44.1776
821 2 26.9234 47.9225 37.6351
822 2 49.3274 13.1682 24.7491
823 2 16.0169 32.9273 49.294
824 2 29.1997 45.8283 47.5175
825 2 39.903 48.6099 21.0737
826 2 38.4588 21.6833 49.1056
827 2 8.73791 32.8464 54.3728
828 2 24.0081 53.0057 26.9903
829 2 47.1706 46.4573 44.3209
830 2 51.2761 26.1849 36.8409
831 2 44.6856 53.3801 54.9157
832 2 24.9207 38.3987 22.4131
833 2 14.8487 23.023 11.181
834 2 40.9108 25.3951 24.6856
835 2 46.74 31.9628 38.6033
836 2 23.2462 54.7508 12.3079
837 2 38.1423 46.5672 17.0395
838 2 53.4297 52.7311 39.2962
839 2 6.40199 35.3769 17.5103
840 2 35.0638 35.0716 10.6186
841 2 20.9456 19.7352 24.5165
842 2 47.9191 20.658 23.1272
843 2 46.7094 11.6929 31.145
844 2 43.6832 49.6396 52.9457
845 2 10.1226 29.1427 21.1937
846 2 16.9977 46.1932 34.3406
847 2 41.5042 36.3877 50.7148
848 2 16.7318 37.5334 25.6696
849 2 10.232 22.8237 35.439
850 2 53.8588 21.5479 54.4914
851 2 34.5688 16.7086 52.6464
852 2 8.60939 49.6906 34.6727
853 2 36.135 36.8618 21.8163
854 2 54.907 31.6426 12.5386
855 2 26.5402 33.3423 7.11682
856 2 54.2814 19.2878 18.8124
857 2 55.7474 12.0976 35.2617
858 2 18.9371 30.9891 25.6787
859 2 55.2992 26.8833 17.8816
860 2 23.5861 28.6967 17.9961
861 2 38.3628 41.2449 43.0586
862 2 7.71595 52.2858 51.5821
863 2 9.17979 54.6655 8.75743
864 2 21.2679 28.9632 31.926
865 2 9.50255 22.4351 38.2144
866 2 6.47621 46.4282 21.083
867 2 54.265 22.8753 46.219
868 2 29.4989 28.2219 48.3893
869 2 27.5023 21.4706 51.2416
870 2 11.2194 8.85963 29.6034
871 2 50.5337 48.2672 18.0175
872 2 38.8002 24.8248 9.80466
873 2 14.2614 12.4648 22.1532
874 2 45.3234 15.9438 17.4441
875 2 27.4675 28.3095 39.2504
876 2 38.5897 18.8686 21.983
877 2 22.4753 37.5357 51.1767
878 2 22.3131 50.7128 29.1377
879 2 14.4523 43.0129 15.0595
880 2 12.9147 19.3821 12.5697
881 2 54.118 26.2886 27.8469
882 2 20.0166 25.5266 32.7157
883 2 52.0417 40.5591 33.6955
884 2 24.3477 38.0245 26.7844
885 2 16.0879 39.3444 18.4613
886 2 11.77 55.2255 19.2694
887 2 41.3115 40.3655 42.6285
888 2 36.5656 16.71 37.0865
889 2 34.8892 22.9286 45.2596
890 2 39.6672 45.8156 55.619
891 2 42.4503 49.0711 12.9547
892 2 41.0978 34.1606 19.5171
893 2 38.4248 26.8598 23.3897
894 2 43.108 19.1137 50.751
895 2 32.5568 29.8866 13.164
896 2 29.4984 24.4284 7.32869
897 2 20.3033 22.4374 41.2218
898 2 8.14005 31.8739 32.9045
899 2 47.8382 31.614 19.9184
900 2 41.4657 41.2969 19.188
901 2 48.4997 37.711 13.2342
902 2 51.7489 50.6897 16.7953
903 2 38.6457 39.0342 33.9866
904 2 20.9853 21.3371 53.7882
905 2 46.83 19.3543 54.2945
906 2 12.8312 50.646 27.6835
907 2 17.2459 36.4288 12.4735
908 2 35.7305 10.2951 34.6008
909 2 48.42 8.98249 44.7041
910 2 27.349 53.2935 22.1164
911 2 25.2907 18.0741 35.301
912 2 49.5234 48.3497 7.07594
913 2 21.0943 20.0879 10.97
914 2 27.839 23.5166 43.7132
915 2 8.53577 38.2567 34.4803
916 2 10.5285 14.3701 21.3006
917 2 31.2415 6.10139 44.6966
918 2 54.8802 52.7068 28.6929
919 2 13.9172 23.1156 22.5816
920 2 41.8778 50.2558 15.9383
921 2 20.7997 32.1925 10.2308
922 2 52.8712 45.5075 20.5806
923 2 38.5733 46.4349 48.5987
924 2 37.521 55.0933 29.7538
925 2 49.3215 15.1561 28.0917
926 2 36.7385 38.4592 42.3977
927 2 22.6948 41.9459 11.5715
928 2 24.3211 33.6159 8.3066
929 2 20.9924 54.6184 49.8772
930 2 21.7882 42.8783 44.6097
931 2 19.7957 34.9556 54.5331
932 2 12.2517 46.04 34.1252
933 2 32.2922 24.7785 23.5054
934 2 18.167 52.8571 21.197
935 2 21.1812 13.492 15.6386
936 2 55.2623 28.1962 13.3009
937 2 20.8224 49.4416 33.6949
938 2 7.88052 52.2937 35.8297
939 2 50.2848 44.9092 53.7709
940 2 16.2032 7.41383 21.2505
941 2 16.7531 46.0361 20.4512
942 2 48.2961 27.3371 39.9732
943 2 19.399 17.2592 28.7095
944 2 44.981 55.3244 19.4787
945 2 24.8026 14.1986 41.3642
946 2 30.7136 9.65737 9.36873
947 2 26.9301 36.2691 10.3723
948 2 21.4838 29.8189 11.8666
949 2 15.0768 51.146 10.3113
950 2 43.0047 19.9567 13.0324
951 2 22.6566 29.8392 46.0816
952 2 29.3524 14.5701 53.0153
953 2 54.0131 29.3176 42.0154
954 2 17.7235 24.2887 50.8553
955 2 51.9167 39.2632 16.7403
956 2 39.9975 50.371 55.3853
957 2 25.6319 31.0338 15.2744
958 2 28.5293 28.1595 12.0086
959 2 18.824 26.5531 35.5607
960 2 27.9407 20.8928 20.8967
961 2 41.57 16.5186 11.6147
962 2 29.2127 16.9566 20.1811
963 2 18.1857 32.6556 27.9033
964 2 24.7376 26.7443 9.88738
965 2 24.1372 13.2264 10.8833
966 2 54.8068 10.4743 11.7629
967 2 29.7126 7.29493 12.0338
968 2 31.9026 16.7761 6.29095
969 2 14.2188 15.7937 38.6971
970 2 28.4664 53.2034 37.6484
971 2 47.3981 7.11329 55.5208
972 2 32.9987 13.3112 29.9229
973 2 43.3559 11.8197 28.6831
974 2 25.1224 47.1646 44.7575
975 2 7.99547 22.2541 55.2554
976 2 14.7736 53.8789 11.6164
977 2 14.436 54.2801 38.4971
978 2 21.2275 16.763 26.6376
979 2 15.0775 18.4643 47.495
980 2 17.1812 42.5865 46.4551
981 2 38.3269 10.6461 25.7885
982 2 10.2214 8.56996 45.283
983 2 45.8331 38.5447 50.6026
984 2 11.5951 48.1071 9.86977
985 2 21.1061 8.31145 23.2267
986 2 33.1661 48.9359 52.8779
987 2 7.18825 49.4517 14.4686
988 2 8.13947 42.1096 23.3542
989 2 27.6887 41.9839 6.29912
990 2 14.8908 14.0251 25.6027
991 2 36.69 48.234 44.9291
992 2 29.6115 37.5203 22.9159
993 2 37.9746 55.0394 18.1899
994 2 35.2833 47.9312 17.5901
995 2 53.0789 11.1562 52.491
996 2 51.4753 55.0951 35.2686
997 2 23.7497 44.9451 42.8415
998 2 29.3843 6.09952 52.0802
999 2 28.069 39.9775 23.9163
1000 2 41.2746 42.7225 48.9215
1001 2 41.2528 28.5628 10.6526
1002 2 33.4107 25.2763 38.7064
1003 2 23.7698 19.6709 23.0051