ITEM: TIMESTEP
0
ITEM: NUMBER OF ATOMS
9088
ITEM: BOX BOUNDS xy xz yz pp pp pp
6.0759674538627531e+00 5.5854970338308597e+01 -5.7112180363681610e-15
6.0759674538627584e+00 5.5854970338308597e+01 0.0000000000000000e+00
6.0759674538627584e+00 5.5854970338308597e+01 0.0000000000000000e+00
ITEM: ATOMS id type x y z 
1 2 53.3256 51.9159 20.0931 
2 2 24.7387 42.3392 40.1742 
3 2 12.9147 12.8854 28.0024 
4 2 36.8617 48.0126 33.0252 
5 2 33.071 37.2809 35.9267 
6 2 54.494 30.9319 9.6141 
7 2 36.0354 41.5234 26.7581 
8 2 46.6722 12.7566 22.2404 
9 2 28.4434 24.7388 35.2601 
10 2 21.4467 22.0416 37.5995 
11 2 47.4322 13.1412 31.4333 
12 2 24.9621 27.4391 52.7445 
13 2 33.0849 50.6559 7.03222 
14 2 18.786 33.1227 37.3621 
15 2 13.1486 11.8154 52.1796 
16 2 7.36862 19.828 9.50977 
17 2 36.0967 40.1322 13.7096 
18 2 53.9836 26.8441 36.9803 
19 2 36.8202 35.2789 31.6578 
20 2 38.021 36.2781 22.3908 
21 2 43.1465 22.5322 49.9954 
22 2 47.9625 26.0364 18.9427 
23 2 44.2125 39.8127 12.5331 
24 2 26.8963 44.0377 25.3177 
25 2 10.1518 47.3542 6.65528 
26 2 12.4821 11.0909 11.3255 
27 2 51.5992 54.5096 47.2471 
28 2 17.2832 47.7435 34.0131 
29 2 39.601 19.5332 13.614 
30 2 33.9034 13.7601 52.5668 
31 2 8.96142 51.2929 41.9345 
32 2 28.9478 46.8611 29.2363 
33 2 28.7938 13.886 19.0825 
34 2 7.41837 38.2304 15.7506 
35 2 50.982 39.9517 44.0782 
36 2 9.48317 6.27397 35.4813 
37 2 6.89619 51.4812 24.3705 
38 2 42.7907 9.16681 52.3611 
39 2 51.4066 12.9389 31.2938 
40 2 46.1161 42.3862 50.3449 
41 2 19.9149 53.1394 19.2899 
42 2 40.2264 7.84382 21.7608 
43 2 37.2915 48.7585 24.6001 
44 2 48.0611 35.7818 52.7693 
45 2 43.1198 27.3637 41.7691 
46 2 14.0047 14.9083 35.5639 
47 2 34.5678 54.8551 15.7232 
48 2 49.4187 27.2991 55.3771 
49 2 50.7382 43.8409 34.1368 
50 2 19.6517 23.8761 50.198 
51 2 45.2973 33.7506 37.2179 
52 2 44.2697 32.9337 45.0561 
53 2 36.3477 39.6253 39.1733 
54 2 13.1652 7.58415 52.2431 
55 2 34.6054 25.9586 32.9815 
56 2 17.3453 46.5829 40.7 
57 2 20.4514 33.8376 25.5049 
58 2 21.3322 39.4443 32.6808 
59 2 35.5593 51.3344 28.8292 
60 2 20.6161 31.4507 45.2414 
61 2 51.6536 34.4938 10.1509 
62 2 44.0594 41.8082 20.4082 
63 2 21.7824 43.0014 40.1171 
64 2 37.7782 39.5481 30.6258 
65 2 11.738 31.9426 27.7742 
66 2 11.1636 15.5217 6.09125 
67 2 28.614 51.9572 47.3792 
68 2 20.274 23.1881 31.5167 
69 2 47.5102 45.7054 6.89449 
70 2 25.863 42.9855 37.4123 
71 2 37.3828 42.0309 10.9965 
72 2 53.5192 41.9857 28.994 
73 2 22.1109 41.994 46.5071 
74 2 45.0371 50.9339 50.2221 
75 2 22.3529 15.8327 8.55003 
76 2 23.7071 44.5422 46.7315 
77 2 48.8107 15.9687 6.65104 
78 2 11.7287 27.1024 32.3526 
79 2 18.3687 12.5488 7.54817 
80 2 7.25267 7.16802 37.5654 
81 2 54.2552 44.428 52.7786 
82 2 39.4413 11.8926 27.842 
83 2 39.5335 39.8266 53.5118 
84 2 12.2868 39.7175 39.7043 
85 2 53.966 45.1326 20.9285 
86 2 52.2796 41.8379 8.99207 
87 2 44.3066 35.8907 34.1121 
88 2 32.9046 23.1822 42.0839 
89 2 24.8841 51.7795 18.2232 
90 2 46.1911 24.987 49.0894 
91 2 54.9921 13.554 19.6399 
92 2 39.5573 17.7791 55.2596 
93 2 25.2995 6.40262 9.63251 
94 2 14.1843 48.4736 33.2952 
95 2 11.3715 14.3892 25.3293 
96 2 23.6677 50.9957 55.2178 
97 2 9.34277 41.7304 37.3633 
98 2 40.0564 27.4022 27.8065 
99 2 43.1819 14.9468 6.66425 
100 2 25.1554 24.3533 52.6858 
101 2 49.0334 33.0471 36.7921 
102 2 14.4432 6.64893 44.3679 
103 2 27.0969 30.3142 30.2006 
104 2 39.8207 40.7635 20.619 
105 2 31.5335 31.4635 49.061 
106 2 20.7432 48.9792 6.12228 
107 2 10.4856 8.82999 45.4016 
108 2 51.5263 53.5322 26.6594 
109 2 33.4799 17.7517 30.8369 
110 2 41.191 34.0616 37.2636 
111 2 34.7313 23.3941 34.7527 
112 2 51.1692 30.6088 36.771 
113 2 8.17273 50.9227 31.6538 
114 2 51.3611 10.0741 6.26247 
115 2 7.21417 8.26125 53.8984 
116 2 6.31845 12.1021 27.692 
117 2 44.6832 29.3267 21.9069 
118 2 46.4765 45.3433 42.8262 
119 2 28.9676 15.669 31.8906 
120 2 37.3142 43.0123 50.0786 
121 2 28.639 26.0375 23.3323 
122 2 44.1554 10.1597 37.3822 
123 2 8.73929 15.4356 52.1382 
124 2 44.053 44.601 36.8658 
125 2 27.7157 29.7915 41.2659 
126 2 54.0914 9.944 28.3714 
127 2 31.1669 24.9148 19.8093 
128 2 16.9093 47.1863 13.3471 
129 2 47.0271 37.777 43.2404 
130 2 12.4088 33.9625 25.8805 
131 2 23.1649 23.1001 44.4527 
132 2 45.7367 13.1914 36.2673 
133 2 54.195 44.7625 40.8634 
134 2 40.6744 45.0077 22.125 
135 2 48.0568 9.61272 25.5055 
136 2 23.97 10.8331 47.0119 
137 2 35.5734 52.3 55.2745 
138 2 12.4182 26.6566 11.5723 
139 2 23.0525 25.124 15.4735 
140 2 30.5865 44.0586 55.7865 
141 2 10.8858 40.3116 7.79791 
142 2 43.3745 14.803 26.7297 
143 2 14.7199 27.8009 27.4264 
144 2 33.098 21.8173 14.1166 
145 2 6.37949 27.8592 52.2543 
146 2 41.1684 17.1947 27.4119 
147 2 50.1022 51.1615 11.4082 
148 2 38.8722 31.7087 30.9253 
149 2 47.6021 25.2518 34.831 
150 2 36.8551 45.9014 19.4176 
151 2 31.0234 49.8253 40.917 
152 2 34.8021 17.4027 8.5094 
153 2 35.728 53.0564 37.8537 
154 2 54.6023 29.974 19.3894 
155 2 52.0115 17.3147 48.352 
156 2 49.4597 54.644 40.603 
157 2 47.9161 12.7749 55.79 
158 2 14.3893 47.2171 53.9949 
159 2 38.1191 16.6036 14.1272 
160 2 44.4571 25.7674 38.9424 
161 2 46.1339 44.5348 34.0645 
162 2 8.27876 25.2977 48.3604 
163 2 10.6179 25.818 16.9361 
164 2 49.6876 12.0631 19.4211 
165 2 47.2852 36.7139 15.0068 
166 2 43.3474 42.1234 32.4765 
167 2 40.7042 54.8483 33.6743 
168 2 24.7526 17.3292 28.3805 
169 2 52.053 44.4824 50.581 
170 2 30.904 42.7754 51.0687 
171 2 37.4783 15.0237 31.5631 
172 2 33.4953 36.1268 28.6276 
173 2 27.9718 33.0903 16.246 
174 2 32.8628 24.7083 30.6527 
175 2 34.0272 44.0019 47.7107 
176 2 13.0304 30.3364 23.1006 
177 2 15.4834 8.1137 32.0641 
178 2 49.6282 50.5577 16.6814 
179 2 36.0018 54.5138 20.1449 
180 2 24.476 8.37584 7.52865 
181 2 25.4851 33.1186 18.2762 
182 2 6.77349 43.1915 52.0306 
183 2 14.2977 51.7529 53.1209 
184 2 23.8937 39.7662 49.2901 
185 2 52.3392 33.052 25.73 
186 2 19.2204 25.4498 34.054 
187 2 49.6667 52.502 14.1873 
188 2 16.424 50.2425 20.6724 
189 2 21.2152 55.0201 7.84675 
190 2 49.5198 40.4101 31.0903 
191 2 40.5078 11.5818 45.7877 
192 2 53.7124 19.6725 39.5642 
193 2 21.352 44.6383 18.1113 
194 2 7.33619 17.7606 54.4701 
195 2 20.0396 34.8413 8.62872 
196 2 47.6088 21.2612 51.2776 
197 2 35.8609 21.3737 35.8902 
198 2 7.12287 32.522 47.701 
199 2 7.67402 42.441 42.8289 
200 2 23.5921 53.7996 10.1582 
201 2 26.4893 48.2618 40.6263 
202 2 43.2094 35.4405 14.5135 
203 2 40.6022 45.8315 50.6902 
204 2 54.0075 13.8988 51.1575 
205 2 40.1762 22.2133 23.8517 
206 2 10.9026 29.6268 41.699 
207 2 24.8225 11.395 20.906 
208 2 34.6555 11.0492 49.8587 
209 2 21.9405 54.9717 29.3938 
210 2 32.0737 28.5458 42.95 
211 2 13.2556 39.1642 29.3679 
212 2 8.32595 7.02347 6.93172 
213 2 28.4544 14.8312 21.8939 
214 2 28.8016 29.5953 34.9617 
215 2 27.1372 47.912 43.7581 
216 2 15.5562 43.9067 41.4003 
217 2 21.1463 26.5899 12.4358 
218 2 41.648 41.9815 40.0244 
219 2 21.2334 39.4963 47.1057 
220 2 39.1712 38.9599 49.6538 
221 2 37.8315 46.1188 50.2149 
222 2 12.8975 22.9556 39.6384 
223 2 47.9315 22.2543 36.9972 
224 2 31.9717 48.9719 26.2503 
225 2 38.4417 55.2523 18.3061 
226 2 11.1482 15.7276 39.2341 
227 2 16.917 18.646 45.1885 
228 2 46.6251 12.5676 17.4003 
229 2 47.261 28.7044 8.83382 
230 2 45.9025 37.3594 50.9445 
231 2 13.7978 42.6296 36.9766 
232 2 49.4001 51.2301 36.2446 
233 2 13.743 9.21968 38.7269 
234 2 32.8972 13.8128 10.129 
235 2 18.6174 11.8344 14.9645 
236 2 50.9586 12.7078 39.7527 
237 2 39.2829 52.0149 7.65036 
238 2 8.59599 11.0546 30.1022 
239 2 37.7975 44.4471 22.0276 
240 2 24.6026 21.3509 12.407 
241 2 45.6689 8.07525 14.1217 
242 2 46.7566 17.5526 37.4186 
243 2 39.5653 25.4989 23.62 
244 2 41.4296 50.4397 32.4708 
245 2 11.7978 44.6247 50.5635 
246 2 34.5182 40.1491 7.17093 
247 2 20.5295 33.6986 42.227 
248 2 22.0594 47.9235 14.4607 
249 2 14.9899 53.5716 45.7487 
250 2 21.8547 27.1479 23.2938 
251 2 41.8205 36.5666 35.7239 
252 2 24.3629 30.2063 9.67337 
253 2 33.0411 6.96975 29.0166 
254 2 31.4122 37.0522 9.32614 
255 2 48.2669 55.5723 38.0337 
256 2 31.6067 42.1223 26.3934 
257 2 36.2525 27.8395 10.3304 
258 2 37.4417 49.2626 8.15571 
259 2 22.9422 46.6838 37.8105 
260 2 53.9341 9.62675 21.7982 
261 2 26.2528 54.7058 44.2376 
262 2 17.0471 25.3984 24.0069 
263 2 39.2975 55.7581 25.6793 
264 2 24.2018 30.8665 34.3678 
265 2 49.8457 52.0147 28.8621 
266 2 26.9131 27.8771 13.3788 
267 2 23.8876 15.3405 21.0979 
268 2 27.0303 53.1098 24.6211 
269 2 43.2366 28.0902 38.3933 
270 2 54.6683 20.5325 17.2625 
271 2 32.8358 21.3565 17.2999 
272 2 26.5636 37.3632 51.4717 
273 2 42.8704 7.9564 17.4152 
274 2 55.0202 7.63265 46.222 
275 2 19.8618 24.0453 16.3745 
276 2 32.0813 45.2104 53.5737 
277 2 15.5999 52.6213 48.9689 
278 2 32.9729 44.6595 37.1785 
279 2 20.08 12.5979 21.5637 
280 2 52.3426 36.8819 44.716 
281 2 49.6689 36.1972 42.9745 
282 2 49.5989 38.3766 53.0368 
283 2 52.5241 43.5733 31.7855 
284 2 33.9199 20.9307 10.1564 
285 2 16.166 15.197 54.8728 
286 2 42.4909 34.5211 44.046 
287 2 24.9696 41.2372 28.9241 
288 2 23.8019 44.1558 33.4401 
289 2 43.8974 29.6525 18.7062 
290 2 25.0403 41.6717 26.0534 
291 2 37.6702 21.6773 49.4963 
292 2 27.1846 19.3535 33.6599 
293 2 43.8499 29.5945 43.7918 
294 2 31.3109 46.0919 44.7188 
295 2 53.7021 38.9296 21.6881 
296 2 39.5977 21.0016 40.9048 
297 2 52.538 17.2288 41.5437 
298 2 24.6293 33.2537 43.5097 
299 2 54.2232 12.6732 54.1113 
300 2 11.8262 23.8335 18.6265 
301 2 8.17486 13.7381 26.2408 
302 2 18.5049 20.1085 14.7849 
303 2 45.3305 31.9301 14.9439 
304 2 53.0993 33.3996 7.79017 
305 2 50.329 20.4462 47.6154 
306 2 18.2797 51.4282 16.8184 
307 2 47.5507 33.5399 9.05673 
308 2 41.1291 14.2662 8.91076 
309 2 10.3528 19.0843 55.7495 
310 2 30.2319 28.7353 28.176 
311 2 35.1057 40.6973 45.2285 
312 2 15.0492 29.1452 50.461 
313 2 47.4377 10.6488 43.1393 
314 2 15.3682 21.722 28.5582 
315 2 24.7877 55.6018 47.1509 
316 2 22.1876 17.8813 44.6613 
317 2 15.6817 29.3523 43.6339 
318 2 38.0654 22.2884 54.1351 
319 2 29.4104 7.77868 9.17607 
320 2 24.4509 41.4916 7.26746 
321 2 19.0052 27.7133 32.2803 
322 2 34.1441 43.8652 23.179 
323 2 19.1001 37.7472 31.8634 
324 2 16.9647 17.4814 49.2234 
325 2 47.8088 9.60483 9.32175 
326 2 42.0354 13.4871 51.1467 
327 2 7.77199 18.7779 13.4276 
328 2 41.1862 8.8996 47.4431 
329 2 14.7941 25.0889 54.2351 
330 2 7.73813 10.9321 45.7716 
331 2 22.8577 31.1783 47.3759 
332 2 17.6326 28.1942 39.4052 
333 2 39.4867 51.2135 12.1427 
334 2 38.3763 34.6499 13.9045 
335 2 18.6656 23.9444 10.1433 
336 2 50.5196 18.0326 7.91543 
337 2 44.995 44.5619 22.5886 
338 2 29.4587 36.6827 29.6818 
339 2 7.66335 36.0067 46.5878 
340 2 29.9212 51.4982 8.39776 
341 2 34.6825 26.2914 23.5929 
342 2 16.3053 17.3943 11.6516 
343 2 17.0906 39.525 39.8299 
344 2 29.9922 20.0496 11.6821 
345 2 37.2901 26.2932 35.4761 
346 2 27.8169 23.5376 24.979 
347 2 31.1817 45.6773 22.8661 
348 2 15.9976 54.7026 23.0985 
349 2 47.7805 13.7598 28.3761 
350 2 8.47829 28.4966 22.5593 
351 2 23.4549 13.5366 28.7944 
352 2 50.3698 19.2798 12.8567 
353 2 50.2283 49.0626 34.8317 
354 2 17.45 31.3033 27.8059 
355 2 42.668 52.2591 51.7701 
356 2 14.6563 48.6428 25.1722 
357 2 49.3329 8.40396 21.366 
358 2 23.0776 41.6081 23.563 
359 2 36.2461 40.3752 16.5428 
360 2 37.9544 51.8756 35.5828 
361 2 15.5361 22.0995 18.6835 
362 2 43.491 19.0681 30.5315 
363 2 14.2012 29.3188 45.9853 
364 2 42.5209 51.8537 47.0237 
365 2 42.9965 28.523 9.6454 
366 2 36.9984 11.4579 15.5487 
367 2 21.0561 51.0571 33.687 
368 2 41.5362 47.634 10.7545 
369 2 45.42 50.3639 12.3749 
370 2 30.0522 31.8085 40.6141 
371 2 32.6557 47.1844 37.2188 
372 2 31.6787 16.3881 46.8467 
373 2 43.0806 54.4535 6.747 
374 2 10.5512 49.9135 15.7946 
375 2 51.272 36.1088 33.1016 
376 2 51.5814 24.2254 49.6093 
377 2 34.8962 15.1554 35.1363 
378 2 44.5843 54.8973 17.477 
379 2 41.3126 40.0618 11.8218 
380 2 27.0483 55.5101 54.7693 
381 2 34.5357 13.7427 43.3636 
382 2 38.7726 41.0657 27.8437 
383 2 29.6566 24.9086 45.8648 
384 2 38.665 48.7928 14.5265 
385 2 31.7571 41.074 34.4501 
386 2 14.58 51.4232 18.7855 
387 2 17.7914 47.7937 19.8186 
388 2 33.0743 29.2763 45.6376 
389 2 38.7435 43.5123 40.1715 
390 2 35.6895 52.2302 24.8742 
391 2 36.1326 47.6841 44.9189 
392 2 25.2659 45.4023 19.8237 
393 2 10.1649 13.5165 46.7662 
394 2 43.4295 48.6648 35.3125 
395 2 52.9754 20.0123 46.9743 
396 2 10.3383 25.2606 38.0426 
397 2 33.6812 23.1779 46.105 
398 2 51.3243 48.2886 19.0226 
399 2 6.62029 42.8008 14.3963 
400 2 38.4187 7.59836 46.1419 
401 2 33.6882 31.5049 27.8428 
402 2 19.9366 21.7159 18.9376 
403 2 31.1 44.7625 48.7998 
404 2 46.2 17.8485 42.8264 
405 2 41.7577 14.0427 34.5164 
406 2 50.3295 46.3598 36.6397 
407 2 54.2969 54.2223 53.5827 
408 2 8.82678 18.4311 44.761 
409 2 20.8635 51.0107 43.9986 
410 2 25.3044 28.3211 18.7834 
411 2 41.5739 11.3452 9.10355 
412 2 49.2472 36.9198 47.2675 
413 2 28.9621 51.1572 53.409 
414 2 18.4344 41.4807 16.3915 
415 2 26.6849 30.3616 17.1938 
416 2 18.2255 30.4838 33.9646 
417 2 36.3749 25.4075 26.3094 
418 2 37.6792 10.0885 37.3536 
419 2 9.30346 32.9182 12.0613 
420 2 39.3736 18.8161 30.0898 
421 2 46.7524 51.7816 20.3601 
422 2 9.22744 50.6956 6.63901 
423 2 14.9557 24.7907 51.042 
424 2 18.3401 53.1584 53.8636 
425 2 32.3167 39.2552 41.8716 
426 2 44.3784 21.8608 31.8588 
427 2 50.4744 18.2007 22.6023 
428 2 34.161 19.4748 21.9465 
429 2 44.1346 17.8407 49.3307 
430 2 17.5022 42.8443 20.9339 
431 2 45.8564 8.42751 44.6423 
432 2 43.7188 35.9898 22.7262 
433 2 42.9455 13.7963 31.895 
434 2 31.5161 34.2573 36.5561 
435 2 48.7948 31.0173 8.79449 
436 2 29.0859 7.2073 27.1679 
437 2 42.6699 8.86477 8.48767 
438 2 11.3524 46.1647 18.5771 
439 2 40.1074 36.4223 32.8874 
440 2 28.044 27.0148 32.5114 
441 2 55.4205 30.6317 45.6627 
442 2 12.747 17.3739 47.1136 
443 2 23.4819 25.9822 10.6409 
444 2 51.932 38.8045 29.1523 
445 2 19.7615 55.8193 20.2359 
446 2 27.1591 6.98513 37.3924 
447 2 47.6581 24.1579 52.8411 
448 2 37.485 12.5599 49.2527 
449 2 50.1271 28.4354 21.893 
450 2 43.9495 48.9679 9.37268 
451 2 26.1575 45.4305 22.5685 
452 2 15.2121 33.8908 13.7809 
453 2 41.2517 26.6152 8.24307 
454 2 10.3248 13.9796 30.2024 
455 2 18.4569 6.75439 31.7227 
456 2 45.5632 30.4198 37.7536 
457 2 42.5087 6.52125 46.0479 
458 2 13.1462 28.1838 29.9634 
459 2 21.7508 14.1459 37.3032 
460 2 26.9625 26.4674 19.7971 
461 2 51.1493 29.6095 42.418 
462 2 42.4457 43.7969 51.4921 
463 2 21.8786 26.1089 28.8396 
464 2 50.9325 29.5512 33.7882 
465 2 24.0542 6.40699 18.7364 
466 2 53.2758 49.0397 41.7702 
467 2 38.7733 24.2349 50.3926 
468 2 10.9789 10.8912 28.6711 
469 2 21.9389 10.7648 28.5608 
470 2 14.1862 7.15183 41.2259 
471 2 9.42351 10.9451 38.4609 
472 2 7.92197 30.2641 43.1215 
473 2 19.3024 21.6313 12.5622 
474 2 37.3934 31.023 51.2387 
475 2 8.84714 36.3743 28.4623 
476 2 34.8237 31.8938 49.6503 
477 2 54.082 42.4078 48.7915 
478 2 43.4735 41.0251 51.8123 
479 2 7.45878 13.0812 55.4235 
480 2 41.7592 21.4352 12.848 
481 2 39.8244 37.56 13.3862 
482 2 50.3642 26.968 49.3797 
483 2 27.2274 31.2649 48.0716 
484 2 16.5852 22.4608 36.3503 
485 2 37.5106 17.9177 38.1767 
486 2 15.718 44.9731 30.3564 
487 2 50.6844 11.4934 25.5102 
488 2 28.5107 18.1986 54.0125 
489 2 24.6579 39.7676 34.1292 
490 2 6.9747 47.6574 43.1818 
491 2 55.4961 38.0349 36.2445 
492 2 55.5653 27.0347 18.5945 
493 2 11.8295 33.4269 22.9602 
494 2 21.3861 14.8333 33.5565 
495 2 33.0894 12.9017 20.6785 
496 2 16.8385 15.2836 51.8138 
497 2 24.3876 29.9434 31.104 
498 2 38.9129 7.40421 40.5753 
499 2 23.2765 54.2229 21.6652 
500 2 27.8193 21.8934 13.6184 
501 2 36.1758 34.0205 50.8544 
502 2 52.7515 47.3071 9.69917 
503 2 42.7442 9.82354 25.7617 
504 2 46.2394 28.802 42.0575 
505 2 42.5362 31.8789 36.5799 
506 2 36.6644 19.5155 16.9033 
507 2 41.6867 19.9933 48.6265 
508 2 21.5653 44.9031 27.1358 
509 2 34.9161 50.0275 26.1241 
510 2 13.3682 23.3157 22.6692 
511 2 48.1855 48.52 7.54118 
512 2 18.5801 15.2714 43.493 
513 2 52.9021 18.5603 26.0158 
514 2 20.4236 28.6688 34.8496 
515 2 55.816 40.7027 6.49967 
516 2 12.3558 31.3047 53.3673 
517 2 51.1203 34.013 47.9089 
518 2 49.7802 41.9159 48.2377 
519 2 55.1651 9.7681 8.54932 
520 2 14.8792 29.32 14.3259 
521 2 31.8991 48.703 23.4974 
522 2 50.5498 6.69345 15.1339 
523 2 45.7426 8.94288 40.335 
524 2 11.3104 13.3929 36.8611 
525 2 16.9083 10.311 43.1149 
526 2 51.0595 25.5752 22.8736 
527 2 18.5925 37.3009 36.0415 
528 2 35.1895 37.0098 48.1788 
529 2 9.25663 44.414 7.70074 
530 2 16.0907 49.116 6.2806 
531 2 36.4435 30.0554 35.8787 
532 2 55.0927 22.8038 21.4789 
533 2 44.9672 8.37537 28.8787 
534 2 43.4148 46.5493 32.9798 
535 2 28.4135 50.8973 40.2159 
536 2 22.0317 33.2255 13.1834 
537 2 32.0425 14.6979 12.4536 
538 2 42.9704 7.38151 12.7831 
539 2 28.8137 11.2594 12.8639 
540 2 11.924 41.7023 18.8028 
541 2 24.9763 14.6287 55.2005 
542 2 46.7891 44.4319 52.5094 
543 2 6.9947 44.8713 36.4544 
544 2 50.1705 14.6954 25.2515 
545 2 40.7624 54.832 10.1917 
546 2 47.932 35.2587 45.0275 
547 2 36.3818 40.0088 47.9916 
548 2 23.9713 34.5227 39.1671 
549 2 23.1792 24.0017 36.8805 
550 2 16.0064 12.4972 41.991 
551 2 30.221 14.2788 29.6451 
552 2 12.152 13.3831 13.6436 
553 2 39.3683 47.5373 40.986 
554 2 32.9141 44.6767 20.6361 
555 2 6.33676 43.3838 33.0474 
556 2 46.655 37.7377 33.9996 
557 2 33.5464 54.7958 35.4712 
558 2 28.7147 10.597 30.8268 
559 2 9.64815 43.4143 16.0213 
560 2 45.7895 22.4853 21.0788 
561 2 29.3509 51.8447 43.0588 
562 2 33.8497 50.673 34.6414 
563 2 49.0399 31.5528 12.3903 
564 2 51.1361 7.95823 25.015 
565 2 21.9589 35.8757 30.0348 
566 2 17.6423 23.3363 20.9722 
567 2 38.8303 32.4121 40.3474 
568 2 8.3142 38.4551 40.6177 
569 2 19.4083 13.7158 17.2977 
570 2 12.821 9.74388 35.6108 
571 2 26.8668 50.286 28.0387 
572 2 22.8991 37.3356 23.6601 
573 2 7.55627 50.5381 16.3412 
574 2 53.8818 38.375 15.2324 
575 2 49.3813 54.9249 22.3628 
576 2 48.8459 39.2193 36.0436 
577 2 50.609 49.9075 50.9923 
578 2 38.1228 45.8144 8.20305 
579 2 43.3858 18.9077 15.9441 
580 2 38.5593 42.3577 36.7129 
581 2 39.4116 54.4455 28.8911 
582 2 12.2058 36.5738 22.1429 
583 2 33.9044 49.9812 11.1814 
584 2 19.4132 15.936 40.6387 
585 2 14.4869 49.9834 28.1478 
586 2 34.9401 25.4299 11.4531 
587 2 21.0195 33.8405 20.465 
588 2 51.8471 35.62 30.0019 
589 2 6.77135 27.7558 25.6123 
590 2 10.3939 19.8597 36.7204 
591 2 14.857 41.5539 43.9748 
592 2 24.7414 14.6168 44.6753 
593 2 41.7282 33.7388 16.8732 
594 2 53.1918 55.3865 20.1884 
595 2 16.708 55.3159 40.1432 
596 2 10.9567 19.1541 52.5321 
597 2 7.79882 40.9151 16.417 
598 2 54.9135 13.5774 35.7106 
599 2 7.87163 8.0573 16.4086 
600 2 35.2136 43.6303 29.2324 
601 2 10.8168 33.051 55.5252 
602 2 14.8352 9.30352 25.4528 
603 2 50.0886 47.4301 53.3656 
604 2 16.4668 53.9982 26.2469 
605 2 28.66 28.751 49.0861 
606 2 42.3697 29.0704 48.1143 
607 2 7.63081 33.037 8.38084 
608 2 26.4449 18.4415 18.7143 
609 2 14.6761 8.6457 54.7632 
610 2 48.0204 52.7305 52.4103 
611 2 20.0642 24.0216 38.6159 
612 2 40.2717 48.9905 17.3803 
613 2 36.9048 36.4728 10.6732 
614 2 19.4127 10.6302 29.7231 
615 2 38.6872 25.0367 7.87154 
616 2 30.2457 12.2718 20.194 
617 2 37.2596 17.1962 27.8244 
618 2 32.3422 12.3178 25.8577 
619 2 48.739 16.0215 51.8293 
620 2 54.7475 44.8993 16.3344 
621 2 47.5033 55.2338 6.24268 
622 2 14.721 25.6562 9.49118 
623 2 47.027 24.2687 16.5032 
624 2 51.6158 54.7194 53.7032 
625 2 23.0992 34.3567 51.8125 
626 2 44.3083 38.1341 53.5498 
627 2 25.1802 6.13431 40.0136 
628 2 27.6388 10.3153 19.5193 
629 2 37.8747 7.358 30.0713 
630 2 40.3392 37.4843 47.4391 
631 2 22.0555 21.2187 55.6647 
632 2 48.7004 27.0523 45.6519 
633 2 29.7374 7.70029 51.1187 
634 2 20.2517 40.5377 38.6413 
635 2 48.4221 6.77628 26.431 
636 2 19.9911 37.6181 23.0136 
637 2 54.6776 54.2336 35.2478 
638 2 8.12071 38.4939 45.3525 
639 2 36.2246 38.1608 43.0927 
640 2 53.7204 15.6185 34.0556 
641 2 45.4345 29.1641 28.7106 
642 2 55.6565 37.3489 19.4064 
643 2 13.5443 15.8467 44.2545 
644 2 53.5731 12.7461 37.9694 
645 2 7.64145 47.7251 35.2779 
646 2 44.2992 22.8704 13.8195 
647 2 40.6794 28.9413 30.7916 
648 2 44.6304 48.9263 26.7139 
649 2 31.0289 18.1231 13.6959 
650 2 16.4549 47.9628 44.369 
651 2 31.2291 7.23572 11.4063 
652 2 32.6436 6.89407 23.7601 
653 2 15.2064 40.6077 30.999 
654 2 21.3489 11.3514 8.50424 
655 2 28.7511 52.0066 29.2124 
656 2 15.1261 49.9551 48.1105 
657 2 13.9017 51.8375 6.72411 
658 2 19.7246 37.8798 54.0156 
659 2 52.067 49.1682 29.7307 
660 2 30.7604 41.8144 45.2706 
661 2 10.1583 32.297 46.7941 
662 2 40.0037 51.7126 39.4298 
663 2 26.9132 44.4238 46.2765 
664 2 51.8183 10.1627 44.1645 
665 2 32.9969 25.343 49.6858 
666 2 37.9654 14.7299 21.6387 
667 2 6.90469 7.69311 42.9527 
668 2 24.8592 48.3082 31.4726 
669 2 15.5689 34.6885 8.78644 
670 2 11.923 9.54711 6.48808 
671 2 39.3244 53.0448 31.6829 
672 2 33.7725 26.1739 42.1646 
673 2 44.7621 34.0644 42.2586 
674 2 26.4639 12.1245 32.4205 
675 2 8.43586 24.1123 15.6531 
676 2 55.3697 31.7412 14.8322 
677 2 10.8767 11.7012 49.7401 
678 2 18.7352 33.515 55.3311 
679 2 30.2215 33.9646 50.1313 
680 2 44.3251 39.753 18.0203 
681 2 28.4466 32.3757 33.2563 
682 2 14.8129 9.52393 12.3459 
683 2 43.1317 55.7848 32.1708 
684 2 37.6773 29.9316 15.954 
685 2 49.0398 42.652 29.1152 
686 2 22.0719 53.6913 47.2183 
687 2 10.6041 48.8046 51.9106 
688 2 34.723 35.8601 25.1486 
689 2 17.0255 10.2006 19.0525 
690 2 10.242 25.1869 9.96691 
691 2 44.6362 14.413 13.5455 
692 2 44.5866 55.6078 39.5332 
693 2 19.0452 37.729 49.4949 
694 2 25.4655 33.4769 33.9573 
695 2 42.3482 43.8918 18.3179 
696 2 55.5486 11.9687 41.9726 
697 2 20.4356 42.559 50.7133 
698 2 15.8547 16.7063 28.4431 
699 2 17.2161 20.2174 25.6533 
700 2 19.2715 53.8034 10.7266 
701 2 26.7156 12.8513 29.4005 
702 2 36.3891 34.3322 16.3621 
703 2 18.3157 18.3396 42.7747 
704 2 46.5675 38.1138 27.3285 
705 2 23.3364 7.14026 23.6003 
706 2 43.2203 11.0849 30.482 
707 2 31.9262 37.941 45.9608 
708 2 35.2882 51.7405 46.7974 
709 2 45.2425 25.4038 20.3294 
710 2 21.3986 48.1072 27.5223 
711 2 37.5689 7.75984 50.6263 
712 2 45.7865 39.2478 20.6018 
713 2 52.5402 6.93317 32.7513 
714 2 33.1909 38.7957 38.717 
715 2 26.4928 40.4545 44.7266 
716 2 52.8206 12.5196 21.407 
717 2 41.7153 33.0967 54.1387 
718 2 30.7494 50.7123 15.3945 
719 2 39.4746 16.5554 17.9306 
720 2 7.38766 48.2767 7.22163 
721 2 23.249 17.4461 51.6492 
722 2 30.1788 17.6784 36.0085 
723 2 33.3689 53.6726 28.8059 
724 2 52.3479 29.0493 49.8476 
725 2 29.4822 6.57261 41.8009 
726 2 18.7467 11.4166 12.2104 
727 2 37.8371 14.6799 51.9441 
728 2 15.0382 27.8632 24.3585 
729 2 11.2655 55.499 44.4313 
730 2 20.0867 41.1633 21.8312 
731 2 48.4483 46.4504 50.7209 
732 2 7.87767 9.79004 25.657 
733 2 52.0568 14.5457 48.9714 
734 2 53.5773 46.7372 50.6168 
735 2 31.071 32.1965 22.6298 
736 2 27.6719 26.4877 16.3525 
737 2 42.0241 51.6069 13.581 
738 2 27.5536 15.8809 34.4901 
739 2 8.13067 54.6107 18.8329 
740 2 45.1581 12.1859 32.6571 
741 2 41.8471 28.0566 22.6593 
742 2 27.1611 42.0008 7.50801 
743 2 46.9226 25.5673 8.94332 
744 2 46.0745 54.5617 53.4198 
745 2 20.5261 19.2819 38.1057 
746 2 34.4447 34.1823 40.4561 
747 2 17.0835 27.7331 10.5179 
748 2 29.5983 42.2788 11.7018 
749 2 27.306 38.749 9.22382 
750 2 50.4864 52.1645 55.0588 
751 2 32.3627 13.3404 6.90869 
752 2 31.4606 14.4812 42.8562 
753 2 17.8827 17.6395 24.5578 
754 2 7.09564 13.7168 46.4602 
755 2 33.4371 26.2547 44.8783 
756 2 20.2648 10.9691 35.9451 
757 2 30.2404 13.1927 53.9372 
758 2 45.8708 38.7077 8.45967 
759 2 24.403 52.5333 25.6016 
760 2 55.2692 33.2552 54.9522 
761 2 50.5939 53.1119 17.0807 
762 2 40.6671 7.54441 42.4177 
763 2 35.6814 27.8522 46.8094 
764 2 27.6242 30.0759 22.6551 
765 2 24.5767 48.8504 27.5599 
766 2 35.6387 43.1591 37.0854 
767 2 12.0922 55.4172 29.004 
768 2 44.4908 51.4151 44.9557 
769 2 14.0075 13.0622 32.9523 
770 2 32.0256 36.7268 18.2864 
771 2 30.5818 42.1104 42.3948 
772 2 9.85881 14.053 41.8295 
773 2 38.7556 27.4179 11.7115 
774 2 34.4027 39.9758 10.5325 
775 2 23.2613 37.3171 10.7742 
776 2 39.4228 19.4468 52.918 
777 2 44.6319 30.1285 25.4163 
778 2 28.609 39.4473 17.8185 
779 2 23.639 31.4236 50.7328 
780 2 18.1301 8.50955 55.4818 
781 2 23.3429 51.108 45.5652 
782 2 46.812 55.4694 42.3275 
783 2 19.3054 49.1653 12.8622 
784 2 27.4374 6.63612 33.9168 
785 2 25.9786 24.119 22.0321 
786 2 45.6525 10.9874 52.2908 
787 2 28.3478 29.2981 26.0615 
788 2 35.6913 37.6267 32.5017 
789 2 51.0334 39.0686 12.6223 
790 2 16.8451 18.0246 53.6999 
791 2 19.6211 30.8627 42.418 
792 2 21.0314 26.2399 53.6374 
793 2 22.4018 30.3171 13.9685 
794 2 13.3081 25.087 27.3529 
795 2 27.0959 28.923 8.83165 
796 2 22.3879 12.45 40.1433 
797 2 18.9331 8.15625 43.4299 
798 2 37.4174 27.1141 21.7942 
799 2 12.9158 22.4743 54.3097 
800 2 54.1339 18.2792 44.2214 
801 2 27.1367 16.3247 51.1709 
802 2 15.4842 16.7572 46.9339 
803 2 9.66702 52.2188 33.821 
804 2 32.8863 38.7628 21.7959 
805 2 38.0065 14.5195 41.4486 
806 2 50.4585 23.9522 45.1851 
807 2 22.9708 21.049 41.8699 
808 2 26.9445 12.305 44.4783 
809 2 54.8184 36.5756 54.4089 
810 2 54.1357 49.8853 53.772 
811 2 7.11253 41.3633 22.8321 
812 2 30.565 37.1947 41.077 
813 2 52.2915 6.30901 40.4857 
814 2 52.7349 46.2405 33.812 
815 2 52.3068 33.2032 31.6851 
816 2 16.1186 24.4255 16.1455 
817 2 47.589 55.7358 13.2538 
818 2 36.0045 48.5779 28.3822 
819 2 31.145 51.2285 36.0397 
820 2 50.0971 24.9538 33.2557 
821 2 16.7637 45.829 26.1773 
822 2 39.1575 11.4905 13.5801 
823 2 55.4798 31.3417 38.4695 
824 2 18.8903 44.0384 36.5016 
825 2 29.7328 46.8811 9.79805 
826 2 28.5409 20.1012 37.839 
827 2 47.9933 30.7385 43.3285 
828 2 13.561 51.1686 15.7943 
829 2 37.2266 44.9595 33.0942 
830 2 41.1022 24.4389 25.7162 
831 2 34.1975 51.5748 43.8989 
832 2 14.8432 36.6954 11.1687 
833 2 54.466 21.242 49.8614 
834 2 30.5709 24.0007 13.6948 
835 2 36.9563 30.1731 27.3296 
836 2 12.7565 53.0555 50.8913 
837 2 27.8225 44.8882 55.3062 
838 2 43.1761 50.9694 28.1892 
839 2 45.8953 33.6451 6.72987 
840 2 24.9303 33.2989 49.0571 
841 2 10.6466 18.0324 13.0136 
842 2 37.8451 19.1278 11.5162 
843 2 36.1339 10.2596 19.888 
844 2 33.8028 47.7412 41.55 
845 2 49.6779 27.2941 10.0529 
846 2 6.4901 44.4062 23.2386 
847 2 31.0651 34.9286 39.3014 
848 2 6.55057 35.9785 14.4118 
849 2 49.7483 21.1038 24.2722 
850 2 43.5624 19.7261 43.6508 
851 2 24.0629 14.5486 41.2006 
852 2 48.1033 48.062 23.3439 
853 2 25.8231 35.1722 10.3953 
854 2 44.5752 29.8252 50.9779 
855 2 16.694 31.6763 45.3717 
856 2 44.3439 17.5512 7.29272 
857 2 45.5382 10.6765 23.9951 
858 2 9.02497 29.3465 14.5605 
859 2 45.3279 25.3804 6.71452 
860 2 13.5493 26.853 6.71843 
861 2 28.0274 39.4477 31.7978 
862 2 47.1448 51.0858 40.5954 
863 2 48.8921 52.951 47.3384 
864 2 11.4567 27.7519 20.7143 
865 2 49.0301 20.8293 27.2699 
866 2 45.9977 45.0773 9.94199 
867 2 44.4998 21.0041 34.955 
868 2 19.2461 26.4656 36.8583 
869 2 17.3166 19.8814 39.8635 
870 2 51.0883 7.17492 18.5977 
871 2 40.4938 46.5938 6.99095 
872 2 28.3228 23.6856 48.0684 
873 2 54.1426 10.629 10.9957 
874 2 35.1893 14.431 55.6661 
875 2 17.0661 26.8113 28.1251 
876 2 28.4531 17.2219 10.937 
877 2 11.9979 35.5111 39.4953 
878 2 12.3701 49.0423 18.155 
879 2 54.3369 41.052 53.5074 
880 2 52.62 17.2491 51.1193 
881 2 43.9662 24.5416 16.6277 
882 2 9.79181 23.9802 21.4178 
883 2 41.8122 38.6128 22.1375 
884 2 14.4204 36.3525 15.4697 
885 2 55.5901 37.3644 7.36556 
886 2 51.5587 53.4929 7.71352 
887 2 30.9846 38.4872 31.6528 
888 2 26.31 15.0648 25.5389 
889 2 24.7789 20.9586 34.1961 
890 2 29.3054 44.2047 44.3301 
891 2 31.7168 47.2995 51.3069 
892 2 30.6933 33.0525 8.0391 
893 2 28.1868 25.2197 12.3311 
894 2 32.6484 17.2462 39.5559 
895 2 22.1554 28.4709 51.7677 
896 2 19.1622 22.9778 45.8019 
897 2 10.243 20.349 29.9573 
898 2 47.6275 30.2184 21.8252 
899 2 37.9958 29.9339 8.65422 
900 2 31.1328 39.6936 8.01007 
901 2 38.2344 35.867 51.7333 
902 2 41.8674 49.1313 55.102 
903 2 28.5787 37.1698 22.7658 
904 2 10.8755 19.585 42.7588 
905 2 36.6469 17.3854 43.0719 
906 2 52.1605 49.1392 16.5699 
907 2 7.22974 34.2997 50.9044 
908 2 25.8587 8.15867 23.4598 
909 2 38.2872 6.91099 33.2667 
910 2 16.5221 51.7062 10.8861 
911 2 15.3832 16.1926 23.8503 
912 2 39.458 46.5622 45.2838 
913 2 11.088 18.3334 49.613 
914 2 17.5518 21.7935 32.393 
915 2 48.3305 36.0392 22.8841 
916 2 50.2024 12.7548 10.3197 
917 2 21.1324 54.0857 33.2189 
918 2 44.6065 50.6169 17.3695 
919 2 53.4408 21.2838 11.5327 
920 2 31.6923 48.5976 54.3711 
921 2 10.7072 30.2535 48.8336 
922 2 42.9608 43.8665 9.33736 
923 2 28.0934 44.8848 37.6522 
924 2 27.1395 53.5747 18.4939 
925 2 39.4212 13.7654 16.9192 
926 2 26.6721 36.8207 31.0639 
927 2 12.456 40.148 49.9971 
928 2 14.5506 32.4467 46.788 
929 2 10.7329 52.8587 38.7195 
930 2 11.5152 41.2734 33.1861 
931 2 9.53099 33.0717 43.6199 
932 2 51.4561 44.1062 22.8145 
933 2 22.0019 23.2217 12.2906 
934 2 7.74072 50.7202 9.85164 
935 2 10.8895 11.4569 54.0105 
936 2 45.2437 26.6591 51.9957 
937 2 10.4721 47.8869 22.5362 
938 2 47.332 50.5238 24.5626 
939 2 40.0147 43.038 42.5696 
940 2 55.3855 55.4763 10.0912 
941 2 6.41142 43.9305 9.42815 
942 2 37.6696 25.5928 28.8141 
943 2 9.34004 15.8459 17.8933 
944 2 34.65 53.4226 8.24978 
945 2 14.5912 12.4533 30.3624 
946 2 20.003 7.57865 48.0825 
947 2 16.5986 34.474 48.8607 
948 2 11.5426 28.2304 50.6094 
949 2 54.6673 49.2121 49.0762 
950 2 32.5598 18.4466 51.557 
951 2 12.3128 28.1266 35.0013 
952 2 18.8864 12.8639 41.869 
953 2 44.1489 27.5312 31.259 
954 2 7.30103 22.6475 39.6726 
955 2 41.7643 37.9001 55.2776 
956 2 30.014 48.8515 43.7832 
957 2 15.6972 29.3013 53.5164 
958 2 17.9546 26.6593 50.7472 
959 2 8.62723 24.8831 24.4458 
960 2 17.8546 19.2282 9.30948 
961 2 30.9994 14.9048 49.6649 
962 2 19.1502 14.9597 9.07042 
963 2 8.11336 31.1328 16.573 
964 2 14.3741 25.3033 48.2834 
965 2 13.819 11.2685 49.4708 
966 2 44.8207 8.71782 50.3074 
967 2 20.0507 55.3375 50.2537 
968 2 21.566 14.7971 44.8156 
969 2 53.7962 14.3194 27.843 
970 2 18.2401 51.5968 26.1615 
971 2 37.1489 55.0607 44.229 