ITEM: TIMESTEP
0
ITEM: NUMBER OF ATOMS
9088
ITEM: BOX BOUNDS xy xz yz pp pp pp
6.0956262210356522e+00 5.5835311571283746e+01 -5.7067070779767316e-15
6.0956262210356575e+00 5.5835311571283746e+01 0.0000000000000000e+00
6.0956262210356575e+00 5.5835311571283746e+01 0.0000000000000000e+00
ITEM: ATOMS id type x y z
1 2 45.403 9.07506 16.0974
2 2 16.5645 49.1581 36.2558
3 2 54.435 19.9326 24.1367
4 2 28.2544 55.0909 28.8203
5 2 24.8854 44.0523 31.9654
6 2 46.0832 38.0698 55.0795
7 2 27.832 48.7995 22.8258
8 2 38.0711 19.5399 18.3421
9 2 19.9406 31.9804 31.1051
10 2 16.6062 26.0941 31.6495
11 2 39.2312 20.3325 27.4075
12 2 16.7333 34.29 48.5048
13 2 24.8056 8.18307 52.7648
14 2 10.4296 40.1504 33.342
15 2 54.8188 19.0726 48.0163
16 2 48.8845 27.0458 55.3382
17 2 28.0876 46.7179 9.41101
18 2 45.5001 34.1319 33.0914
19 2 28.7191 42.2428 27.567
20 2 29.692 43.366 18.445
21 2 34.6079 29.6785 46.1607
22 2 39.9256 33.205 14.8499
23 2 35.9402 46.8618 8.55934
24 2 19.006 50.941 21.1389
25 2 51.7653 54.5821 52.5463
26 2 54.084 18.1227 7.07571
27 2 43.3225 11.9079 43.2499
28 2 8.90636 54.8178 29.6815
29 2 31.2479 26.5605 9.78073
30 2 25.8625 20.9771 48.6564
31 2 50.4962 8.60123 37.7276
32 2 20.7172 53.8105 24.9704
33 2 20.2963 21.0225 15.2379
34 2 48.7536 45.2525 11.4616
35 2 42.8952 47.0837 40.2219
36 2 51.1454 13.5572 31.818
37 2 48.7553 8.76444 20.292
38 2 34.7102 16.3894 48.3414
39 2 42.9674 20.1014 27.54
40 2 37.4947 49.4347 46.7937
41 2 11.5052 10.3341 14.9315
42 2 31.8299 14.7208 17.8562
43 2 28.956 55.5717 20.2415
44 2 39.801 42.6774 48.4356
45 2 34.9441 34.7354 37.3469
46 2 55.7299 22.04 31.8499
47 2 26.3568 12.2949 11.2093
48 2 41.2237 34.4801 51.5061
49 2 42.2967 50.9204 30.1252
50 2 11.4125 31.1977 46.4432
51 2 36.6673 40.7975 33.0026
52 2 36.2392 40.2202 40.9215
53 2 28.2513 46.6604 34.9564
54 2 54.69 14.567 48.584
55 2 26.3423 33.1651 29.041
56 2 9.24947 53.3809 36.4454
57 2 12.0594 40.8284 21.1839
58 2 12.8663 46.4809 28.8957
59 2 27.2499 8.76254 24.5388
60 2 12.2153 38.4958 41.1421
61 2 43.2217 41.9568 55.7215
62 2 35.6213 49.1379 16.4039
63 2 13.4211 50.2748 36.0653
64 2 29.653 46.7672 26.6654
65 2 53.0149 38.9938 23.851
66 2 52.7853 22.4498 51.8416
67 2 20.6186 8.61731 42.8112
68 2 11.9552 30.0223 27.331
69 2 39.1528 52.8041 53.2145
70 2 17.7407 49.7212 33.4438
71 2 29.06 49.1829 7.21771
72 2 45.0062 49.2095 24.7296
73 2 14.1745 49.338 42.7177
74 2 37.2502 8.3296 46.5335
75 2 13.7943 23.4623 54.72
76 2 15.9232 51.4311 42.8846
77 2 40.5737 23.2365 52.2468
78 2 53.1558 34.0011 28.2965
79 2 10.2636 19.9627 53.4291
80 2 48.9014 14.2652 33.8448
81 2 46.0433 51.6829 48.7938
82 2 31.2855 19.0317 23.8354
83 2 31.6225 46.7574 49.6258
84 2 53.7782 47.0881 35.8848
85 2 45.9631 52.1207 16.9496
86 2 44.0304 48.9537 54.649
87 2 36.0891 43.4252 29.5583
88 2 25.2983 30.4213 37.7215
89 2 16.4362 8.94307 14.2124
90 2 38.0421 32.2214 44.8738
91 2 46.5148 20.3526 15.3372
92 2 31.3612 24.7512 51.0553
93 2 16.358 13.3608 55.4583
94 2 6.15244 55.7098 29.065
95 2 52.6599 21.2793 21.4981
96 2 15.2116 8.29402 51.1036
97 2 51.0276 48.8086 33.0942
98 2 31.8794 35.215 23.6235
99 2 35.21 22.0983 52.429
100 2 17.2516 31.4338 49.1008
101 2 40.5697 40.6092 32.7595
102 2 55.8265 13.5939 40.2813
103 2 18.7405 37.4182 26.0596
104 2 31.6222 47.9564 16.6162
105 2 23.5651 38.3938 44.915
106 2 12.5962 55.7058 51.8556
107 2 51.6399 16.0691 41.4344
108 2 43.2825 10.882 22.349
109 2 25.3535 24.581 27.1623
110 2 32.7007 41.3001 33.0283
111 2 26.6969 30.6184 30.8686
112 2 42.6057 38.2401 32.8108
113 2 49.5179 8.20856 27.5713
114 2 43.3064 17.4422 52.0015
115 2 48.7026 15.3151 50.0378
116 2 47.6713 19.2639 23.767
117 2 36.5404 36.5289 17.7925
118 2 38.1287 52.9511 39.0341
119 2 20.7306 22.6295 27.8206
120 2 29.107 50.1533 46.429
121 2 20.3298 33.1359 19.4436
122 2 35.808 17.1041 33.2353
123 2 50.0781 22.6166 48.2186
124 2 35.7592 51.7527 33.0165
125 2 19.5248 36.9175 37.3105
126 2 45.7371 16.848 24.4307
127 2 22.9311 31.889 16.0432
128 2 8.69423 54.1489 9.57755
129 2 38.9553 45.1713 39.1992
130 2 54.1537 40.8728 21.9475
131 2 14.7913 30.1433 40.6043
132 2 37.6685 19.6422 32.1321
133 2 45.7687 51.7377 36.5843
134 2 32.7004 52.0756 18.4404
135 2 40.0529 16.5186 21.5092
136 2 15.8112 18.0443 42.8086
137 2 27.1072 9.75949 51.222
138 2 53.8006 33.638 7.53652
139 2 14.6775 31.7426 12.0364
140 2 22.6539 50.802 51.7739
141 2 52.0801 47.0996 53.3593
142 2 35.3871 21.5422 22.4767
143 2 6.44019 34.815 23.316
144 2 25.2087 28.9122 9.99848
145 2 47.7724 34.8635 48.1409
146 2 32.7781 23.9243 23.2282
147 2 41.7804 8.3875 7.45421
148 2 30.5261 39.0756 26.8816
149 2 39.1878 32.4316 30.3684
150 2 28.8869 53.1761 15.2469
151 2 22.6793 6.83251 37.1938
152 2 26.6568 24.2352 53.9184
153 2 27.7662 10.3728 33.7908
154 2 46.2899 37.3133 15.1386
155 2 43.928 24.602 44.4355
156 2 41.4281 11.6452 36.5211
157 2 39.7311 20.1557 51.8035
158 2 55.7982 54.342 49.8108
159 2 29.879 23.5186 10.5811
160 2 36.1595 32.8428 34.6982
161 2 37.4864 51.9158 30.1352
162 2 49.996 32.4475 44.4793
163 2 51.8545 33.0671 12.866
164 2 41.6008 19.4787 15.6073
165 2 38.8981 43.9238 10.7905
166 2 35.1117 48.8668 28.0516
167 2 32.6116 12.2783 29.8003
168 2 16.409 24.1418 24.0843
169 2 43.8244 51.7903 46.7024
170 2 22.5284 50.1285 47.0747
171 2 29.28 21.5287 27.6598
172 2 25.2061 43.331 24.2715
173 2 19.62 40.1565 12.3092
174 2 24.632 31.9314 26.4871
175 2 25.8864 50.9282 43.6961
176 2 54.294 36.986 19.1376
177 2 7.08488 15.6196 28.4406
178 2 41.6736 8.07933 12.6241
179 2 27.4626 11.6024 16.666
180 2 16.1778 14.9484 53.0901
181 2 17.2695 40.0299 14.5205
182 2 48.2206 50.0839 48.2898
183 2 55.7393 8.96356 49.1221
184 2 15.8798 46.6502 45.0843
185 2 44.2153 40.305 21.3388
186 2 11.1643 32.7585 29.8419
187 2 41.1478 9.72742 9.88151
188 2 8.05368 7.7636 16.6127
189 2 12.715 12.2982 53.2958
190 2 41.0739 47.2831 27.2022
191 2 32.0975 18.32 41.5018
192 2 45.138 26.8942 35.7035
193 2 12.8974 51.4632 13.7389
194 2 49.0585 24.6939 50.5072
195 2 11.6916 41.9917 54.3004
196 2 39.0095 28.1984 47.3558
197 2 25.8829 27.791 31.325
198 2 48.6606 39.3736 43.4785
199 2 49.0132 49.51 38.7872
200 2 14.8473 10.6702 55.5896
201 2 18.0814 55.1139 36.2449
202 2 34.9558 42.7946 10.424
203 2 32.7198 52.7054 46.4514
204 2 45.6882 20.8717 46.7816
205 2 31.4676 29.1566 19.7794
206 2 52.6299 36.68 37.3678
207 2 16.6216 18.4561 16.7907
208 2 26.492 17.6308 45.8615
209 2 13.5083 12.0201 25.1003
210 2 23.4564 35.5665 39.3482
211 2 54.7107 46.4765 25.1272
212 2 49.9224 14.177 52.6973
213 2 20.2519 21.4608 18.2447
214 2 20.6037 36.721 31.0482
215 2 18.5954 54.5553 39.3929
216 2 7.36661 50.9909 37.27
217 2 12.6547 33.396 8.41778
218 2 33.4548 49.1845 35.9734
219 2 13.0972 46.4512 42.9936
220 2 30.8446 46.188 45.62
221 2 29.9392 53.2199 46.0553
222 2 54.4539 29.6081 35.707
223 2 39.7781 29.609 32.4414
224 2 23.4191 6.46226 22.2666
225 2 29.9521 12.4074 14.34
226 2 52.7016 22.8394 35.2534
227 2 8.78233 25.787 41.4578
228 2 38.6339 19.506 13.341
229 2 39.0543 35.8475 54.6092
230 2 37.5421 44.3621 46.7477
231 2 55.2682 49.6788 32.8618
232 2 41.4229 8.75845 32.3784
233 2 55.1542 16.4267 34.6771
234 2 24.5822 20.5898 6.34268
235 2 10.1655 18.8766 11.0367
236 2 42.7538 19.9618 35.6819
237 2 30.9382 9.02519 53.5711
238 2 49.7788 17.9685 26.0361
239 2 29.3524 51.5988 18.1035
240 2 16.4679 28.305 8.5306
241 2 37.6039 15.0173 9.94309
242 2 38.4716 24.4944 33.1295
243 2 31.3332 32.4202 19.3369
244 2 32.8862 7.83498 28.5779
245 2 53.5405 51.4419 46.2145
246 2 26.5201 46.7153 52.9132
247 2 12.0632 40.7519 38.0991
248 2 13.6695 55.0369 10.1722
249 2 6.73676 10.9198 41.7049
250 2 13.3442 34.2811 19.2897
251 2 33.5087 43.361 31.5901
252 2 15.9435 37.2049 55.4843
253 2 24.3763 14.2423 25.003
254 2 23.2595 43.7109 55.024
255 2 40.5998 12.7942 34.1337
256 2 23.756 49.124 22.1361
257 2 27.8999 34.369 6.15538
258 2 28.9874 6.36323 53.8273
259 2 14.6896 53.7879 33.7161
260 2 45.7499 16.7401 17.8214
261 2 17.974 11.8001 40.1569
262 2 8.79241 32.2928 20.345
263 2 31.0416 13.0038 21.7416
264 2 15.9804 37.4603 30.4349
265 2 41.3972 9.36452 24.596
266 2 19.1075 34.5828 9.56739
267 2 15.3476 22.3515 17.3918
268 2 18.767 10.103 20.5589
269 2 34.8102 35.4759 33.9881
270 2 46.213 27.6274 13.2064
271 2 24.6127 28.4357 13.528
272 2 18.3266 44.3342 47.7011
273 2 34.6777 14.7621 13.4971
274 2 46.9435 14.8495 41.9282
275 2 11.0183 31.1163 12.7324
276 2 23.6884 52.3168 49.2791
277 2 7.3838 9.9369 45.0327
278 2 24.8271 51.5851 32.9966
279 2 11.8207 19.4251 17.8106
280 2 43.9539 43.9619 40.8023
281 2 41.5186 43.4855 39.0083
282 2 41.3928 45.2398 49.1036
283 2 44.2821 50.8906 27.6283
284 2 26.0346 27.7592 6.15168
285 2 8.00944 22.3283 50.7296
286 2 34.0827 41.6138 39.8216
287 2 16.7649 48.1906 25.2416
288 2 15.7564 51.1818 29.3132
289 2 35.4519 36.8224 14.7299
290 2 16.6801 48.7076 22.3641
291 2 29.1137 28.7413 45.2419
292 2 19.3944 26.3711 29.6942
293 2 35.9167 36.8494 39.6993
294 2 23.1004 52.937 40.4346
295 2 45.565 45.7051 17.4432
296 2 31.5032 28.2369 36.7627
297 2 44.0546 24.1627 37.3933
298 2 16.2854 40.0185 39.4512
299 2 46.1353 20.045 49.8366
300 2 53.1621 30.8662 14.9919
301 2 49.8065 20.9402 22.2694
302 2 10.6394 26.7761 11.0399
303 2 36.7138 38.8505 10.8751
304 2 44.4275 39.9483 53.5471
305 2 42.0813 27.4751 43.8496
306 2 10.1913 8.92001 12.739
307 2 39.1674 40.6756 54.8736
308 2 32.6302 21.4245 54.571
309 2 51.2993 26.2087 51.6275
310 2 22.0336 35.9714 24.2745
311 2 26.798 47.8852 41.3061
312 2 6.79225 36.0634 46.4228
313 2 39.2585 17.7346 39.0408
314 2 6.85641 28.7121 24.5304
315 2 16.8418 12.7664 43.0092
316 2 14.0833 24.9164 40.4647
317 2 7.2498 36.2692 39.702
318 2 29.49 29.239 50.2365
319 2 21.1594 14.8033 54.9746
320 2 16.0863 48.5185 53.4369
321 2 10.3461 35.0173 28.2102
322 2 26.1649 50.9342 19.1577
323 2 11.0874 44.728 28.097
324 2 8.45056 24.6643 44.6698
325 2 39.4281 16.7424 54.6868
326 2 33.6996 20.5649 47.5885
327 2 48.8925 26.0493 9.66287
328 2 33.2447 15.9605 43.2119
329 2 6.62438 32.0731 49.9737
330 2 49.5392 18.2958 42.042
331 2 14.5747 38.4917 43.167
332 2 9.42315 35.1558 35.1956
333 2 31.5322 8.40141 8.52626
334 2 30.0395 41.8256 10.0446
335 2 10.3817 30.7887 55.7487
336 2 42.6263 25.2402 53.8216
337 2 36.8753 51.4771 18.8711
338 2 21.0751 43.9122 25.719
339 2 49.1471 43.0553 42.4115
340 2 21.6332 8.5989 54.1696
341 2 26.4037 33.2088 19.5522
342 2 7.99578 24.3653 7.49726
343 2 8.89418 46.8535 35.705
344 2 21.5328 26.9051 7.60937
345 2 28.8603 33.9444 31.3262
346 2 19.4552 30.8251 21.1355
347 2 22.4735 52.6817 18.6193
348 2 7.64868 12.0924 19.3294
349 2 39.5875 20.5384 24.4134
350 2 49.8335 35.6375 18.4341
351 2 15.0205 20.6028 24.5207
352 2 41.9971 26.0408 9.00949
353 2 42.4388 55.7476 30.9301
354 2 9.28653 38.1462 23.7787
355 2 34.5765 9.57526 47.6288
356 2 6.30895 55.8283 21.0357
357 2 40.6851 15.781 17.0748
358 2 15.088 48.5643 19.4371
359 2 27.9676 47.2033 12.197
360 2 29.7024 9.32043 31.3878
361 2 6.86246 29.252 14.6296
362 2 34.9552 25.5643 27.6278
363 2 55.6447 35.9649 42.2568
364 2 34.3318 9.58516 42.8476
365 2 34.7588 35.1127 55.2124
366 2 28.8382 18.669 11.5741
367 2 12.2355 8.16052 29.1415
368 2 33.3868 54.5699 6.91227
369 2 37.0807 7.57781 8.36228
370 2 21.5826 38.7835 36.3921
371 2 24.7961 54.3311 33.5012
372 2 23.4818 23.5303 42.9184
373 2 34.8094 11.9315 52.3843
374 2 52.218 7.61692 11.5589
375 2 42.9084 43.2389 29.2383
376 2 43.0676 31.3038 45.7361
377 2 26.5047 22.3787 31.1379
378 2 36.346 12.0833 13.4097
379 2 33.008 46.7624 7.62849
380 2 18.9808 12.7639 50.3588
381 2 26.2635 20.6193 39.1396
382 2 30.7165 48.3386 23.9094
383 2 21.8665 31.3848 41.2591
384 2 30.05 55.6132 10.4081
385 2 23.7398 48.0367 30.6125
386 2 6.29902 8.51556 14.522
387 2 9.89181 55.0942 15.4784
388 2 24.7226 36.0513 41.8794
389 2 30.6136 50.2613 36.1485
390 2 27.4999 9.49282 20.8058
391 2 27.894 54.8558 41.0967
392 2 16.6774 52.0209 15.6721
393 2 51.6361 20.7818 42.8478
394 2 35.2383 55.8042 31.3182
395 2 44.8118 27.3619 43.008
396 2 52.032 32.0445 33.9189
397 2 24.787 30.2468 41.8006
398 2 43.0857 54.9186 15.1961
399 2 48.0051 49.8244 10.7779
400 2 30.1047 14.42 42.0331
401 2 25.2766 38.7557 24.2343
402 2 11.6808 28.8645 15.1548
403 2 22.8321 51.7766 44.8306
404 2 37.8701 24.9184 38.776
405 2 32.9902 21.1132 30.5149
406 2 41.1902 51.896 32.6507
407 2 46.3008 11.4 50.0808
408 2 50.4338 25.4302 40.6316
409 2 12.4836 8.01542 39.9749
410 2 16.632 35.4001 14.6205
411 2 33.4638 18.1766 55.0038
412 2 40.9511 44.0403 43.7336
413 2 21.0151 8.48649 49.6428
414 2 10.0785 48.4321 11.9541
415 2 18.2848 37.2331 13.0621
416 2 10.0714 37.7406 29.5208
417 2 28.0758 32.1067 22.2187
418 2 29.3198 17.3537 33.1319
419 2 50.5866 40.0278 7.67136
420 2 30.8336 25.3595 25.5588
421 2 38.5181 9.26618 16.4704
422 2 50.6555 7.91809 52.2671
423 2 6.66947 31.5144 47.0407
424 2 10.1909 10.3439 49.4035
425 2 24.1108 46.2143 37.6138
426 2 35.4918 28.8621 27.8706
427 2 42.7229 25.6145 18.6295
428 2 25.9048 26.2696 17.7995
429 2 35.8197 24.7365 45.114
430 2 9.03985 49.7888 16.7554
431 2 37.5822 15.4949 40.2736
432 2 35.5418 43.1896 18.7718
433 2 34.6854 20.8113 27.8433
434 2 23.4079 41.4403 32.6273
435 2 40.4465 38.2241 54.8704
436 2 20.6366 13.8329 23.2102
437 2 34.6134 15.7918 54.3036
438 2 52.9006 53.4477 14.6982
439 2 31.7909 43.1754 28.8335
440 2 19.9301 34.3285 28.2798
441 2 47.211 37.9476 41.1846
442 2 54.3909 24.3353 43.2836
443 2 15.2411 32.9218 6.93299
444 2 43.7458 45.8598 25.312
445 2 11.4761 13.1024 16.2581
446 2 18.9354 14.1149 33.5107
447 2 39.1888 31.3186 48.9347
448 2 29.1842 19.4963 45.2065
449 2 41.7939 35.5092 17.6398
450 2 36.0161 6.39602 55.3227
451 2 17.8462 52.2389 18.6712
452 2 6.88167 41.0636 9.81309
453 2 32.8035 33.5867 53.9615
454 2 51.9289 20.9579 26.4605
455 2 9.94036 13.5749 27.7363
456 2 36.9185 37.9731 33.7791
457 2 34.6623 13.2649 41.7459
458 2 54.63 35.4603 26.02
459 2 13.7324 21.3183 33.5611
460 2 18.8648 33.1812 15.4967
461 2 42.7491 36.6687 38.2072
462 2 34.2165 50.7636 48.0841
463 2 13.1952 32.8749 24.7193
464 2 42.3901 36.7996 29.8487
465 2 15.8904 13.5837 14.6034
466 2 45.2189 55.8302 37.9768
467 2 30.4673 31.4779 46.3565
468 2 52.2659 18.1039 24.6706
469 2 13.9222 17.9254 24.4121
470 2 6.18151 13.9017 36.8825
471 2 51.0768 18.144 34.2865
472 2 49.5483 37.3571 38.9003
473 2 11.1708 28.5923 8.60776
474 2 29.2037 38.1408 47.0648
475 2 50.7801 43.1336 24.0747
476 2 26.3554 38.6551 45.5541
477 2 45.8094 49.6314 44.9858
478 2 34.9631 48.1834 47.7514
479 2 48.88 20.2967 51.4638
480 2 33.5196 28.3794 8.74273
481 2 31.6958 44.691 9.37527
482 2 41.9837 33.9722 45.2886
483 2 18.595 38.2472 43.9101
484 2 8.35877 29.6251 31.9599
485 2 29.6462 25.2912 34.035
486 2 7.25728 51.8309 26.5794
487 2 42.3409 18.3599 21.4526
488 2 20.2457 25.429 50.182
489 2 16.2981 46.7045 29.5214
490 2 48.089 54.309 39.2617
491 2 47.183 45.2848 32.2039
492 2 46.8703 34.314 14.2669
493 2 54.0886 40.1602 18.7349
494 2 13.0924 21.8781 29.5464
495 2 24.8869 19.7272 16.4536
496 2 8.52461 22.5949 47.5278
497 2 16.1598 36.97 27.2588
498 2 30.2502 14.229 36.5085
499 2 15.0681 11.1693 17.5549
500 2 19.7015 28.9821 9.51552
501 2 27.8928 40.8633 46.9005
502 2 44.9391 54.3126 55.7952
503 2 34.9057 16.5548 21.8869
504 2 37.9632 35.8884 37.9953
505 2 34.0383 38.5366 32.6278
506 2 28.0669 26.2988 13.0309
507 2 33.0364 27.0356 44.6676
508 2 13.5193 51.8314 23.2773
509 2 26.4154 7.11891 21.9908
510 2 54.8892 30.0613 18.8321
511 2 40.1292 55.5619 53.4907
512 2 10.1964 22.5902 39.6871
513 2 44.5039 25.1105 22.3825
514 2 12.098 35.7293 30.5999
515 2 47.6229 47.5527 51.9532
516 2 53.8395 38.4798 49.2082
517 2 42.6304 41.1615 43.8095
518 2 41.3434 49.2057 44.4032
519 2 46.8978 16.5412 54.1613
520 2 6.42445 36.4691 10.4479
521 2 23.6504 55.5475 19.3197
522 2 42.0755 14.0156 11.1321
523 2 37.4581 16.0489 36.2842
524 2 52.9973 20.6306 32.8454
525 2 8.70442 17.2173 39.4728
526 2 43.3269 32.9453 19.1972
527 2 10.4063 44.4692 32.2255
528 2 26.9994 43.9743 43.9168
529 2 51.3699 51.3619 51.8025
530 2 7.69006 6.45887 52.0492
531 2 28.3108 37.2686 31.6686
532 2 46.4569 30.0247 17.2155
533 2 37.3196 14.9407 25.1631
534 2 34.7272 53.4942 29.0692
535 2 20.2211 8.07319 36.1475
536 2 13.4318 40.3512 9.02631
537 2 23.7415 22.1603 8.58053
538 2 34.9743 14.4193 8.81295
539 2 20.5603 18.2824 9.09823
540 2 53.5127 48.6617 14.7503
541 2 16.4144 21.8303 51.2006
542 2 38.8646 51.7103 48.3194
543 2 48.3105 51.8839 32.4818
544 2 41.9555 21.6556 21.1093
545 2 32.4676 11.9033 6.23959
546 2 39.3767 42.5213 41.207
547 2 28.178 46.9693 43.7972
548 2 15.6372 41.4933 35.5328
549 2 14.5166 31.0589 32.763
550 2 8.15534 19.6439 37.9516
551 2 22.3378 21.2703 25.6237
552 2 53.7504 20.5134 9.41046
553 2 30.9797 54.3139 37.1602
554 2 24.7699 51.9185 16.7027
555 2 47.6293 50.4644 29.0867
556 2 38.5078 44.8392 30.1773
557 2 25.3221 11.8999 31.2941
558 2 20.5257 17.6897 26.8049
559 2 50.8624 50.5265 12.2371
560 2 37.4565 29.9668 17.06
561 2 20.9554 8.68084 38.7833
562 2 25.5271 8.01542 30.5238
563 2 40.6054 38.3704 8.41227
564 2 42.8378 15.3251 21.0666
565 2 13.8407 42.6718 25.9304
566 2 9.18556 30.1282 16.8053
567 2 30.6652 39.3895 36.3067
568 2 50.0653 45.6239 36.5432
569 2 11.3283 20.6985 13.2109
570 2 54.3505 16.635 31.6558
571 2 18.6203 7.48864 24.3748
572 2 15.0285 44.1577 19.4889
573 2 48.8399 7.95161 12.5705
574 2 45.4573 45.3622 11.1605
575 2 41.1227 12.116 18.3712
576 2 40.7668 46.4411 32.1391
577 2 42.6553 7.214 46.9563
578 2 29.961 52.5817 54.2526
579 2 34.9515 25.5945 12.0335
580 2 30.4529 49.201 32.8826
581 2 31.2068 11.8982 25.1848
582 2 54.0029 44.046 18.1313
583 2 25.3734 7.16104 7.29999
584 2 10.9933 23.2424 36.5745
585 2 6.11476 6.95538 23.8763
586 2 26.7013 32.4184 7.60412
587 2 12.7691 41.1015 16.2359
588 2 43.5771 43.0503 26.1455
589 2 48.2678 34.7707 21.4624
590 2 51.8214 27.0499 32.5556
591 2 6.73261 48.7892 39.8524
592 2 16.3363 21.57 40.452
593 2 33.3871 41.0755 12.7817
594 2 45.1107 13.0455 15.4259
595 2 8.52276 12.2537 36.2448
596 2 52.581 26.1661 48.5478
597 2 49.3773 47.7432 12.4143
598 2 46.7291 20.4402 31.7602
599 2 49.5311 15.1543 12.3093
600 2 27.2159 50.6813 25.1936
601 2 52.1451 40.1774 51.5499
602 2 6.73108 16.2283 21.4203
603 2 41.8968 54.6197 49.4093
604 2 8.35203 11.122 22.1684
605 2 20.2844 35.558 45.0368
606 2 34.1769 36.084 43.4991
607 2 49.1244 40.3769 54.4085
608 2 18.1576 25.7654 14.929
609 2 6.53753 15.8748 50.7522
610 2 39.6081 9.75285 48.1896
611 2 11.9301 30.6109 34.4994
612 2 32.1834 6.40357 13.3653
613 2 28.6741 43.3811 6.85087
614 2 11.2102 17.5161 25.8243
615 2 30.0695 32.2717 53.7926
616 2 21.748 18.8473 16.3091
617 2 28.395 24.9894 23.5755
618 2 24.211 19.0518 21.8375
619 2 40.7142 23.3329 47.6006
620 2 46.1022 51.5689 12.3011
621 2 39.0316 12.1138 52.0052
622 2 6.40273 32.7859 55.2827
623 2 38.6184 31.084 12.4854
624 2 43.3167 12.3029 49.8746
625 2 14.7589 41.3115 47.7313
626 2 35.9595 44.8594 49.7527
627 2 16.7641 13.4585 36.1086
628 2 19.1803 17.403 15.1547
629 2 29.5845 14.1484 26.2165
630 2 32.0037 44.792 43.3654
631 2 13.741 28.4197 52.1512
632 2 40.5 34.1182 41.1757
633 2 20.9579 14.634 46.638
634 2 11.8003 47.8391 34.9349
635 2 40.2022 13.7054 22.071
636 2 11.6638 44.8284 19.0121
637 2 46.2836 11.658 31.1221
638 2 49.3564 45.5311 41.3439
639 2 27.8132 45.4197 39.0723
640 2 45.4968 22.5933 29.6873
641 2 37.1645 36.528 24.591
642 2 47.3418 44.5949 15.1877
643 2 54.8622 23.0417 40.279
644 2 45.2566 19.8441 34.0003
645 2 49.2261 54.4931 30.8799
646 2 36.0711 30.0278 9.81015
647 2 32.5069 36.0052 26.7741
648 2 36.3928 55.7499 22.7702
649 2 22.8014 25.1625 9.87986
650 2 8.56737 54.994 40.2588
651 2 22.9912 14.4355 7.54234
652 2 24.4866 13.928 19.8896
653 2 7.01329 47.6416 27.0151
654 2 13.161 18.561 53.7963
655 2 20.2708 9.22656 25.3232
656 2 6.8812 7.1975 44.1456
657 2 55.1819 9.20496 52.2417
658 2 11.9052 45.1538 49.9561
659 2 43.4503 6.60376 25.3481
660 2 22.6057 48.9047 41.1087
661 2 51.8223 39.3422 42.4922
662 2 32.0417 9.17109 35.3819
663 2 18.7833 51.1419 42.1925
664 2 43.5969 17.2952 40.2226
665 2 24.9347 32.6974 45.6796
666 2 29.5492 21.4223 17.8199
667 2 48.5314 15.0132 39.0141
668 2 16.5684 54.9466 27.3235
669 2 7.51197 41.6556 54.5203
670 2 53.6231 16.481 52.3281
671 2 31.1007 10.2122 27.4931
672 2 25.2802 33.2511 38.133
673 2 36.6421 41.6969 38.1939
674 2 17.9053 19.0103 28.6211
675 2 49.591 31.2969 12.1311
676 2 47.1548 38.917 11.1467
677 2 52.0714 18.9145 45.6616
678 2 10.8745 40.6141 51.3405
679 2 22.0076 40.7757 46.3807
680 2 36.0208 47.0385 14.3126
681 2 20.2239 39.5711 29.4794
682 2 6.24707 16.057 8.33017
683 2 35.3142 12.7195 28.144
684 2 29.4846 37.0446 11.9393
685 2 40.7968 50.0654 24.7426
686 2 14.0885 10.9105 43.2003
687 2 52.3682 6.11632 47.8524
688 2 26.4573 43.0892 21.0569
689 2 8.92533 17.1684 14.8365
690 2 51.6014 31.9282 6.15256
691 2 36.4454 21.4294 9.70338
692 2 36.7292 12.9504 35.7002
693 2 10.9433 44.8599 45.028
694 2 17.0239 40.449 30.1234
695 2 33.8532 50.8083 14.2871
696 2 47.2193 19.498 37.8339
697 2 12.3101 49.1788 46.8011
698 2 7.3989 23.7034 24.3728
699 2 8.56148 27.1897 21.6922
700 2 11.1501 11.1222 6.70297
701 2 18.3137 19.9782 25.3661
702 2 28.1902 41.3702 12.3897
703 2 10.4894 25.7357 38.7289
704 2 38.5388 45.064 23.2968
705 2 15.2801 13.6198 19.6532
706 2 34.8581 18.0044 26.5278
707 2 23.4959 44.6938 42.281
708 2 26.853 9.09637 43.0829
709 2 36.9565 32.5408 16.4216
710 2 13.0045 54.9923 23.37
711 2 29.8256 14.6051 46.5917
712 2 37.4613 46.6237 16.8859
713 2 44.4868 13.7704 28.6218
714 2 25.0407 45.5907 34.651
715 2 18.2683 47.3482 40.8822
716 2 44.5962 19.4435 17.1932
717 2 33.2828 40.349 49.6701
718 2 22.4788 8.01641 11.5648
719 2 31.1837 23.3714 14.0022
720 2 48.7416 55.3801 53.0832
721 2 15.5258 25.0297 47.3867
722 2 22.3445 24.8936 31.9055
723 2 24.9397 11.1146 24.7334
724 2 44.3774 35.6952 45.5636
725 2 21.194 13.3662 37.6255
726 2 10.6929 18.7179 7.59126
727 2 29.9163 21.61 47.7766
728 2 6.96795 34.6691 20.3036
729 2 52.8881 13.2107 40.381
730 2 11.7903 48.108 17.724
731 2 40.4832 53.2088 46.4643
732 2 49.4689 16.9043 21.5129
733 2 43.7151 21.5978 44.7639
734 2 45.7456 53.9796 46.7024
735 2 22.7164 39.287 18.6058
736 2 19.3608 33.09 12.31
737 2 33.9794 9.11135 9.51211
738 2 19.2648 22.8128 30.6842
739 2 49.845 11.3721 14.7638
740 2 36.8953 18.8601 28.6917
741 2 33.7171 35.0878 18.5916
742 2 19.0811 49.0739 52.8829
743 2 38.3807 32.3638 54.6658
744 2 37.6958 11.8595 49.4146
745 2 12.7268 26.1028 33.9832
746 2 25.984 41.1282 36.4088
747 2 8.79449 34.8112 6.39827
748 2 21.5454 49.4535 7.5408
749 2 18.9205 45.6218 55.2933
750 2 42.0905 9.56921 51.0528
751 2 24.1502 20.3609 52.6242
752 2 23.5096 21.817 38.8089
753 2 9.40752 24.7609 20.8358
754 2 48.4181 21.0479 42.565
755 2 24.7027 33.0782 40.9215
756 2 12.0535 17.9148 32.0532
757 2 21.9033 20.6641 49.9754
758 2 37.3015 45.4492 54.4417
759 2 16.2243 9.64562 21.5319
760 2 46.703 40.3034 50.8281
761 2 42.4128 10.6145 13.1173
762 2 32.5121 14.6741 38.3862
763 2 27.373 34.5813 42.7328
764 2 19.3207 37.0968 18.5444
765 2 16.0968 55.7611 23.5251
766 2 27.3223 50.0552 32.8745
767 2 53.7464 12.3211 24.8936
768 2 36.3735 8.35919 40.7087
769 2 55.8261 20.0188 28.8523
770 2 23.9799 43.8934 14.1967
771 2 22.4492 48.9097 37.9759
772 2 51.4548 21.372 37.8421
773 2 30.2986 34.1406 7.89401
774 2 26.5767 47.1439 6.78375
775 2 14.7467 44.2953 6.88623
776 2 30.9458 26.4842 48.8495
777 2 36.4871 37.2876 21.1228
778 2 20.5386 46.3301 14.1954
779 2 15.0699 38.4167 46.6915
780 2 9.73011 15.4137 51.311
781 2 15.0915 8.56624 41.6848
782 2 38.7726 12.8422 38.0696
783 2 11.0024 6.2435 8.62021
784 2 19.0568 13.2598 30.1715
785 2 17.6522 31.2707 18.0853
786 2 37.3527 17.9462 48.0922
787 2 20.3082 35.9978 21.8442
788 2 27.5331 44.6057 28.0351
789 2 42.4589 45.9422 8.54177
790 2 8.6959 24.8923 49.614
791 2 11.1679 37.9608 38.3374
792 2 12.5994 33.3509 49.7155
793 2 13.8897 37.3948 10.0468
794 2 54.5844 31.9724 23.2549
795 2 18.5741 36.1474 54.8659
796 2 13.9872 19.9788 36.485
797 2 10.9051 14.9658 39.1948
798 2 29.1525 34.0212 17.7461
799 2 54.5069 29.4761 50.0678
800 2 45.5353 25.1759 40.0367
801 2 18.8753 22.9392 47.501
802 2 7.09519 23.4957 42.2215
803 2 50.8497 9.45054 29.6381
804 2 24.8444 45.6234 17.8479
805 2 29.9504 21.5875 37.0316
806 2 42.0636 30.6285 40.9522
807 2 14.8851 28.3165 37.9015
808 2 18.7781 19.2052 40.65
809 2 46.5459 43.3276 50.1905
810 2 45.7414 7.03103 49.8694
811 2 48.5721 48.6012 18.7568
812 2 22.2552 43.8955 37.2659
813 2 44.5783 13.1521 36.6031
814 2 44.113 53.393 29.9754
815 2 44.4576 40.8447 27.4841
816 2 8.09511 31.6543 12.1827
817 2 39.4908 12.8479 9.2094
818 2 27.5212 55.7195 24.3378
819 2 22.8649 8.40668 32.341
820 2 41.5852 32.2072 28.8363
821 2 8.39345 53.0578 21.8978
822 2 31.215 18.4826 9.50747
823 2 47.1048 38.4084 34.1626
824 2 10.7189 51.2195 32.2409
825 2 21.4518 53.6628 55.5186
826 2 20.2516 26.986 33.8318
827 2 39.8243 38.1144 39.5339
828 2 55.2485 8.58656 11.4674
829 2 28.7619 52.0582 29.119
830 2 32.4355 31.6732 21.7814
831 2 25.9538 8.89531 40.0644
832 2 6.58515 44.0341 7.05959
833 2 46.052 28.3916 45.6858
834 2 22.2336 30.9507 9.36726
835 2 28.1467 37.1738 23.1517
836 2 54.5383 10.2367 46.5692
837 2 19.4972 51.7989 51.5435
838 2 35.0272 8.39173 24.2084
839 2 37.4871 40.595 52.2267
840 2 16.4891 40.5684 44.6702
841 2 51.9692 25.1868 9.11913
842 2 29.7814 25.9881 7.80583
843 2 28.3338 16.9164 15.9147
844 2 25.2817 54.8423 37.7975
845 2 41.6594 34.1821 6.10567
846 2 48.0239 51.5004 19.1452
847 2 22.8473 41.7886 35.5919
848 2 47.8272 42.8399 10.4643
849 2 41.2779 28.3208 20.3215
850 2 35.0469 26.7306 39.4022
851 2 16.0075 21.3126 37.3095
852 2 39.747 55.0533 19.3109
853 2 17.8245 41.7864 6.65388
854 2 36.45 36.7606 46.9474
855 2 8.01748 38.5216 41.601
856 2 35.9428 24.6491 53.186
857 2 37.298 17.3904 20.1302
858 2 50.2146 36.2263 9.95726
859 2 36.9045 32.5278 52.1569
860 2 54.8642 33.8076 52.4198
861 2 19.9811 46.5052 27.6429
862 2 38.9958 8.35316 36.5592
863 2 40.9797 10.2159 43.3095
864 2 52.7872 34.2419 16.7278
865 2 40.6854 27.7951 23.3183
866 2 37.6099 51.8693 55.6702
867 2 35.8455 28.0166 30.9707
868 2 10.924 33.6224 32.9865
869 2 9.12202 26.9328 36.1469
870 2 42.4369 14.1479 14.6073
871 2 32.2568 53.9577 52.7015
872 2 20.1955 30.2363 44.4429
873 2 45.6194 17.6049 6.70317
874 2 26.8571 21.279 51.8625
875 2 8.95362 33.7751 24.1953
876 2 20.0154 23.8788 6.97107
877 2 53.5763 42.5362 35.5501
878 2 53.8209 6.42905 13.9883
879 2 45.7173 48.0313 49.4078
880 2 44.426 24.7832 47.4715
881 2 35.8355 31.8252 12.5059
882 2 51.3775 31.0558 17.4316
883 2 33.5584 45.8682 18.4746
884 2 55.6242 43.2859 11.607
885 2 47.307 44.3576 52.8369
886 2 42.9953 10.9686 53.6914
887 2 22.7615 45.4995 27.4172
888 2 18.1022 22.2993 21.8172
889 2 16.738 28.2591 29.7802
890 2 21.0712 50.8819 39.9279
891 2 23.3993 54.2576 47.1327
892 2 22.0194 39.4702 54.1002
893 2 19.9952 32.0408 8.20514
894 2 24.8599 24.7918 35.6993
895 2 13.8841 35.7422 47.6458
896 2 11.0422 30.3401 41.4937
897 2 51.6587 27.6965 26.1161
898 2 39.3105 37.3951 17.4958
899 2 29.5031 36.8062 54.4363
900 2 23.1568 46.6489 53.6791
901 2 29.8999 43.0352 47.5848
902 2 33.6213 6.28271 51.185
903 2 20.2789 44.3105 18.8136
904 2 52.5331 26.6844 38.7768
905 2 28.562 24.7042 38.9473
906 2 44.0287 6.42231 12.2524
907 2 48.4725 41.1233 46.9027
908 2 17.5127 14.9688 19.4965
909 2 30.0989 13.8492 29.4967
910 2 8.20934 8.88273 6.68039
911 2 6.90899 23.0593 20.0811
912 2 31.0736 53.6068 41.5972
913 2 52.5831 25.589 45.6663
914 2 9.72939 28.8208 28.3227
915 2 40.1992 43.4116 19.1269
916 2 41.8724 19.819 55.4902
917 2 12.5378 11.1658 29.2797
918 2 36.6418 7.63291 13.5029
919 2 45.2412 28.4162 7.66254
920 2 23.6995 55.565 50.4537
921 2 52.3729 37.3107 44.6701
922 2 34.5651 50.8655 54.8098
923 2 20.0768 51.4213 33.4461
924 2 19.1584 10.8028 14.5764
925 2 30.9538 20.5717 13.085
926 2 18.2308 43.6373 27.2886
927 2 53.6801 47.1476 45.9833
928 2 55.3383 39.0283 42.7918
929 2 52.125 9.95937 34.4647
930 2 52.8481 48.0235 29.1188
931 2 50.8395 40.2001 39.583
932 2 43.2823 51.2118 18.8133
933 2 13.7883 30.5565 8.49513
934 2 49.0602 8.17551 55.7142
935 2 52.4512 18.5287 49.9455
936 2 36.8539 33.5779 47.8647
937 2 51.9647 54.9019 18.4193
938 2 39.0943 7.87175 20.4655
939 2 32.0117 50.2096 38.8108
940 2 47.1646 12.8521 6.16699
941 2 47.7556 51.1972 54.8657
942 2 29.7598 32.6007 24.6747
943 2 50.9678 22.8298 13.5525
944 2 26.5961 10.6803 54.2368
945 2 6.31576 19.5859 26.1336
946 2 12.0426 14.8347 43.732
947 2 8.5055 41.7469 44.753
948 2 53.2438 35.21 46.4684
949 2 46.8812 6.48984 44.8338
950 2 24.3149 25.4654 47.6267
951 2 53.7985 35.1208 30.9498
952 2 10.9398 20.2671 37.8091
953 2 35.7531 34.9005 27.028
954 2 48.8398 29.7109 35.8758
955 2 33.2957 44.7844 51.3195
956 2 21.601 55.5951 39.5881
957 2 7.50425 36.4452 49.6974
958 2 9.87032 33.8004 46.8192
959 2 50.1107 31.7769 20.4159
960 2 9.5727 26.2142 55.0296
961 2 22.9858 21.9595 45.5899
962 2 11.0763 22.4124 54.6299
963 2 49.4437 37.9737 12.1282
964 2 6.4854 31.8871 44.3929
965 2 55.0672 18.1353 45.3675
966 2 36.6164 16.0603 46.4316
967 2 11.2218 12.7362 46.4262
968 2 13.1807 22.2397 40.8487
969 2 45.3537 21.2986 24.0564
970 2 9.90683 8.63329 22.3267
971 2 28.8684 12.3944 40.2165
972 2 14.7877 18.7244 14.5074
973 2 25.023 16.8751 13.2276
974 2 6.38382 52.3567 29.4375
975 2 39.2201 27.5896 40.138
976 2 46.3774 9.71446 46.0169
977 2 45.8087 10.2133 23.017
978 2 52.0772 22.319 11.2492
979 2 46.5434 23.6585 32.2705
980 2 48.1606 47.6866 31.152
981 2 19.7569 15.9402 10.4095
982 2 41.6729 13.7632 29.7955
983 2 26.9338 43.7926 35.3352
984 2 43.4428 53.7395 44.441
985 2 52.1133 13.3871 7.99277
986 2 14.8731 54.4223 37.564
987 2 38.6877 54.5317 49.0853
988 2 39.4574 47.3289 8.08504
989 2 9.44897 47.5459 40.7725
990 2 46.0679 19.2844 10.6077
991 2 17.9754 53.5477 29.9515
992 2 11.2148 42.5388 7.88429
993 2 19.8134 10.6551 52.5771
994 2 17.1048 53.2439 52.147
995 2 34.4829 16.6268 37.3212
996 2 33.0122 10.4103 20.1852
997 2 54.8149 50.407 27.5375
998 2 11.1692 11.0798 36.567
999 2 9.42527 45.2664 8.48463
1000 2 22.847 47.681 33.69
1001 2 22.6483 33.8937 45.1432
1002 2 15.2411 30.7731 23.2582
1003 2 54.8033 25.3146 7.64903