ITEM: TIMESTEP
0
ITEM: NUMBER OF ATOMS
9088
ITEM: BOX BOUNDS xy xz yz pp pp pp
6.0448617114655647e+00 5.5886076080638297e+01 -5.7183556513140538e-15
6.0448617114655701e+00 5.5886076080638297e+01 0.0000000000000000e+00
6.0448617114655701e+00 5.5886076080638297e+01 0.0000000000000000e+00
ITEM: ATOMS id type x y z 
1 2 45.0885 29.7439 42.7053 
2 2 15.9393 14.963 11.9476 
3 2 52.8559 35.4129 52.1803 
4 2 21.0696 18.4296 9.70764 
5 2 22.7097 11.3817 9.54556 
6 2 44.4722 6.3127 33.0797 
7 2 29.2739 16.4611 49.8294 
8 2 39.0991 35.8533 47.3686 
9 2 17.0028 48.9377 10.6517 
10 2 13.6336 42.998 15.8279 
11 2 39.6714 35.0754 6.68967 
12 2 14.2633 54.7761 27.7195 
13 2 25.3105 22.6292 30.551 
14 2 9.05591 55.7501 11.8183 
15 2 51.5801 33.149 24.1164 
16 2 47.9331 42.5389 33.5972 
17 2 26.7733 14.0185 37.5474 
18 2 44.5893 48.878 13.4531 
19 2 27.0489 8.49051 6.13845 
20 2 28.2637 8.76232 46.2859 
21 2 33.632 45.6915 24.1317 
22 2 39.6763 50.0825 42.7817 
23 2 35.6575 11.6447 41.2668 
24 2 17.7616 16.7835 50.2275 
25 2 51.2461 19.754 28.591 
26 2 51.9015 35.912 34.8959 
27 2 41.6481 27.7826 21.333 
28 2 10.4425 19.4222 11.5752 
29 2 30.2407 42.613 37.8992 
30 2 26.0457 36.8683 30.9008 
31 2 50.0141 25.6559 17.8546 
32 2 21.8524 17.7924 49.4809 
33 2 19.9207 38.1581 43.5457 
34 2 47.5798 11.6031 39.9039 
35 2 44.5868 17.3624 18.8018 
36 2 50.0217 29.2538 10.9094 
37 2 49.0513 23.4765 49.015 
38 2 32.787 32.4139 26.6506 
39 2 41.8931 36.8783 8.15268 
40 2 35.9608 14.4448 26.0471 
41 2 54.9825 21.9278 43.2655 
42 2 31.2601 31.1651 45.5523 
43 2 26.7844 19.897 48.4134 
44 2 38.9019 8.26611 26.929 
45 2 34.0546 49.9653 15.669 
46 2 54.6124 37.5145 9.5565 
47 2 27.4936 28.5 37.3835 
48 2 40.2106 50.4997 30.0007 
49 2 38.4295 20.3846 9.03638 
50 2 55.2423 45.457 24.5803 
51 2 36.8832 7.7498 11.3178 
52 2 36.0315 6.11476 18.7831 
53 2 30.7319 11.267 12.3966 
54 2 54.2605 29.8351 25.6999 
55 2 25.3517 48.9945 7.27402 
56 2 9.80041 18.079 14.7303 
57 2 10.6497 6.80043 50.0419 
58 2 11.9597 12.7976 7.6403 
59 2 25.1303 20.983 55.0567 
60 2 11.1995 53.9138 20.0176 
61 2 42.0408 8.04597 34.8168 
62 2 37.0827 16.4342 40.7011 
63 2 12.5428 16.1938 16.7275 
64 2 27.365 13.0903 54.5603 
65 2 51.8116 54.9965 52.4011 
66 2 51.4705 38.4938 29.3613 
67 2 18.3037 25.759 22.0163 
68 2 10.8521 45.5989 55.5191 
69 2 38.2881 18.5249 30.1156 
70 2 16.7517 16.7901 9.92081 
71 2 27.1523 15.7784 34.9825 
72 2 42.8336 55.5446 9.63023 
73 2 11.8158 17.3592 22.8946 
74 2 35.9604 23.5017 25.616 
75 2 18.4903 38.0786 29.9855 
76 2 14.0526 17.3679 21.1585 
77 2 39.3531 39.2062 30.4034 
78 2 52.0986 49.0027 6.94295 
79 2 9.73795 34.9159 32.3034 
80 2 45.0222 29.5824 13.1516 
81 2 43.8659 13.6387 29.7865 
82 2 29.3341 35.0846 51.1566 
83 2 31.6443 11.969 27.8761 
84 2 52.2645 12.699 14.4303 
85 2 43.3629 19.7693 46.0593 
86 2 43.8609 16.7183 30.2534 
87 2 33.8275 12.4272 12.5683 
88 2 23.6575 46.3983 16.239 
89 2 11.2384 24.5836 44.708 
90 2 36.7081 48.3376 23.36 
91 2 44.9416 36.5652 44.2608 
92 2 30.6526 39.9844 29.4619 
93 2 15.2923 31.986 35.7318 
94 2 6.32921 21.2994 8.44803 
95 2 50.5469 37.7772 49.0971 
96 2 20.0128 25.8433 31.5728 
97 2 49.468 14.4173 11.5351 
98 2 29.9394 50.676 52.0324 
99 2 33.6863 32.2621 32.6349 
100 2 15.6906 47.6956 27.5007 
101 2 37.2153 11.285 7.4351 
102 2 8.17187 30.1612 18.6128 
103 2 17.455 53.656 54.1222 
104 2 28.0368 16.601 45.4058 
105 2 22.351 54.4115 23.2718 
106 2 11.0239 21.5642 30.6351 
107 2 50.5978 31.4565 19.8944 
108 2 40.516 25.8977 52.8384 
109 2 24.1246 40.8866 54.1965 
110 2 32.1528 7.14247 11.3375 
111 2 26.7759 45.3885 9.79029 
112 2 42.4351 53.7132 12.6878 
113 2 50.9892 23.0404 6.28932 
114 2 42.2103 33.0051 30.4094 
115 2 47.5415 30.5979 28.0214 
116 2 45.866 36.3411 50.9501 
117 2 33.2203 50.8256 46.878 
118 2 37.0519 19.7394 14.9631 
119 2 17.8571 36.6206 55.2078 
120 2 31.4649 12.6189 25.0991 
121 2 19.7169 48.8748 46.3254 
122 2 34.2349 33.4253 11.6366 
123 2 49.2556 35.7993 27.1628 
124 2 35.6566 16.5029 12.1887 
125 2 19.0388 53.2069 17.8428 
126 2 44.4726 32.4382 53.7251 
127 2 22.974 47.6157 43.6649 
128 2 7.82344 19.9067 37.4559 
129 2 39.8413 11.9814 18.7383 
130 2 52.8846 6.96759 50.3265 
131 2 17.5028 42.7334 27.6159 
132 2 39.0154 34.631 13.6448 
133 2 43.6354 21.3153 17.0627 
134 2 32.0598 17.7675 45.4156 
135 2 37.392 30.6803 48.5697 
136 2 10.4436 36.3707 23.8312 
137 2 28.2069 22.3983 33.7742 
138 2 54.6077 44.2447 33.3062 
139 2 12.6554 46.2064 40.9593 
140 2 24.043 12.9407 24.4536 
141 2 50.4787 14.1879 33.501 
142 2 32.887 38.1102 51.7793 
143 2 54.6533 51.0122 51.4589 
144 2 25.222 45.2646 36.1989 
145 2 46.8068 51.8244 26.9739 
146 2 30.0844 39.6564 52.9078 
147 2 41.8759 22.5925 37.9924 
148 2 29.4309 54.6101 55.2151 
149 2 36.4274 51.0847 9.04054 
150 2 27.3149 20.4508 42.7987 
151 2 23.5525 23.469 15.4737 
152 2 25.9275 39.9457 32.0047 
153 2 26.3687 26.4586 12.1348 
154 2 46.3131 50.7126 38.3232 
155 2 42.8 40.3464 23.3892 
156 2 37.8845 32.1576 15.9967 
157 2 38.3263 35.6421 30.0154 
158 2 55.5697 19.2001 30.3395 
159 2 29.1046 39.7855 38.3035 
160 2 35.1567 48.2517 13.0159 
161 2 36.6157 12.9526 53.7404 
162 2 50.5955 46.8615 22.5836 
163 2 48.7282 47.3648 39.5035 
164 2 40.6495 35.0803 43.6997 
165 2 38.5591 8.835 33.4848 
166 2 36.4976 18.2983 7.68609 
167 2 31.6412 28.0267 8.11345 
168 2 15.4432 40.2934 52.1535 
169 2 44.3771 15.6215 25.722 
170 2 21.4875 16.2802 25.6585 
171 2 29.5189 36.4557 54.2006 
172 2 24.0086 9.6381 52.7096 
173 2 19.6535 54.879 39.7223 
174 2 21.8542 48.4015 53.8107 
175 2 22.5522 17.9447 20.9772 
176 2 53.3512 53.0685 47.3727 
177 2 54.4674 28.0017 55.0256 
178 2 34.6738 21.2082 36.4182 
179 2 23.35 31.4021 35.7111 
180 2 21.0769 29.0201 33.4789 
181 2 17.0684 6.37262 43.1034 
182 2 48.5993 16.6114 25.7257 
183 2 6.11522 24.8573 28.9132 
184 2 14.4689 13.2863 23.8881 
185 2 43.9135 55.69 48.3985 
186 2 9.64906 48.8007 8.11352 
187 2 38.0658 27.0872 39.8709 
188 2 11.5454 20.9918 44.1191 
189 2 12.6748 30.6894 31.943 
190 2 36.4688 6.19506 6.81843 
191 2 30.7415 34.506 19.7138 
192 2 43.7825 42.673 13.4358 
193 2 11.757 17.1895 42.149 
194 2 47.7948 40.7127 28.6344 
195 2 11.2594 7.96235 33.3571 
196 2 38.0143 44.1365 25.8681 
197 2 22.6526 44.7965 8.69074 
198 2 50.8704 54.4273 17.1704 
199 2 47.474 14.698 18.9309 
200 2 15.9742 27.9728 32.1504 
201 2 16.9609 16.3909 15.4893 
202 2 34.4451 8.29723 38.4076 
203 2 32.0159 14.981 27.2796 
204 2 44.3442 36.6227 25.5457 
205 2 27.3584 47.6944 45.9695 
206 2 51.4168 51.2221 14.2024 
207 2 16.2092 34.1929 43.7673 
208 2 24.0861 34.0808 20.9176 
209 2 13.6198 26.7486 51.8878 
210 2 19.5422 51.0283 13.6861 
211 2 53.3238 12.2758 53.5862 
212 2 50.5572 29.2693 31.5338 
213 2 17.1258 37.9952 45.4538 
214 2 18.9397 55.4731 7.24825 
215 2 18.408 20.8105 18.0853 
216 2 55.2193 18.0369 16.1684 
217 2 10.1682 49.5201 38.1198 
218 2 29.7704 14.6071 15.6926 
219 2 13.2193 10.6919 22.2911 
220 2 28.2752 14.982 18.2241 
221 2 26.0862 16.4151 21.897 
222 2 53.0412 45.3969 14.1063 
223 2 38.4406 45.4684 10.7767 
224 2 26.3229 22.9833 51.3774 
225 2 31.0775 33.2786 42.2842 
226 2 51.1822 38.8169 12.5629 
227 2 55.2819 41.5614 20.9416 
228 2 37.5711 35.295 42.2127 
229 2 38.2306 51.788 33.0297 
230 2 36.6145 10.3833 24.7466 
231 2 53.843 15.6666 11.1827 
232 2 39.4762 18.7413 14.1167 
233 2 54.018 32.6898 13.3317 
234 2 23.0668 37.4165 32.3274 
235 2 10.0047 34.1893 39.7071 
236 2 40.2583 38.789 14.6474 
237 2 29.0802 24.9341 31.562 
238 2 50.9632 31.2396 7.00447 
239 2 25.8766 17.2268 47.0866 
240 2 14.4517 43.0748 32.0445 
241 2 39.6557 32.1142 39.009 
242 2 37.0566 40.4466 11.545 
243 2 31.515 49.2254 48.1196 
244 2 28.0047 22.3782 6.81307 
245 2 55.1365 20.5781 27.4839 
246 2 27.4677 10.0539 29.1131 
247 2 10.8005 6.70357 16.5512 
248 2 12.8305 20.7564 38.6324 
249 2 54.3165 26.8946 19.8775 
250 2 12.2603 51.2085 47.2669 
251 2 35.1019 9.66114 15.7214 
252 2 14.8077 53.0018 34.0781 
253 2 24.8732 31.1397 55.3546 
254 2 21.9975 9.30391 33.3374 
255 2 39.8616 27.7213 14.618 
256 2 19.567 9.17356 49.8768 
257 2 26.962 50.8318 34.1405 
258 2 27.0066 25.8603 37.3979 
259 2 7.8616 18.4061 9.3246 
260 2 42.1393 30.6455 42.2861 
261 2 14.9603 26.4789 13.8661 
262 2 7.44352 48.3255 48.1859 
263 2 29.6662 28.5579 49.528 
264 2 14.6883 53.9366 8.7813 
265 2 37.0862 29.634 53.0559 
266 2 17.3218 49.1695 36.8634 
267 2 13.9778 38.9035 44.7465 
268 2 18.9668 25.9164 50.3542 
269 2 33.7473 49.8688 10.6904 
270 2 45.4868 43.7782 41.5413 
271 2 24.0153 45.1821 40.4889 
272 2 17.5321 10.48 26.0999 
273 2 38.4333 32.9033 43.1426 
274 2 45.3366 30.5816 19.9536 
275 2 9.49241 47.1458 41.5731 
276 2 21.8921 18.5039 28.2976 
277 2 6.91552 30.7198 21.9602 
278 2 23.4185 14.0171 13.0439 
279 2 10.0965 29.6999 43 
280 2 41.8971 9.38436 16.4279 
281 2 43.7159 13.7009 18.5683 
282 2 40.4043 11.1591 27.699 
283 2 43.6055 16.1521 55.283 
284 2 25.1256 44.0169 33.8478 
285 2 55.5094 34.7609 31.2463 
286 2 31.7221 7.1652 17.9433 
287 2 16.2252 15.8441 54.8091 
288 2 12.4455 17.5152 7.50272 
289 2 35.7309 7.44387 43.1818 
290 2 14.1155 15.0778 51.0304 
291 2 28.1189 44.8224 23.4632 
292 2 17.179 40.4295 8.45918 
293 2 33.8431 52.1846 17.8818 
294 2 18.7742 17.4545 18.8375 
295 2 46.4839 7.02564 47.0555 
296 2 30.03 43.6626 15.2348 
297 2 43.2404 39.9059 14.9648 
298 2 15.0524 55.4305 17.9542 
299 2 44.8405 35.7445 28.4183 
300 2 55.0305 49.1187 45.57 
301 2 52.2582 34.897 49.4971 
302 2 10.4332 47.378 33.9106 
303 2 36.2972 54.4256 38.9723 
304 2 47.5997 6.21643 31.6903 
305 2 41.4118 44.1576 21.6121 
306 2 8.32308 25.372 43.2655 
307 2 36.9571 9.48901 36.9618 
308 2 32.6818 37.7375 32.6784 
309 2 50.5052 41.907 29.5922 
310 2 20.1419 52.4714 51.9861 
311 2 23.8886 17.3701 18.0826 
312 2 8.23687 51.562 23.7277 
313 2 42.5575 34.135 13.8032 
314 2 52.9335 43.0726 51.8317 
315 2 16.7053 27.4382 20.2845 
316 2 7.15049 39.1016 20.7946 
317 2 6.22046 51.9412 17.9172 
318 2 29.9243 46.2337 29.0337 
319 2 14.1461 27.0312 34.4319 
320 2 14.9286 14.58 31.549 
321 2 9.24375 50.7201 6.18466 
322 2 24.4208 22.5718 42.7824 
323 2 9.90135 10.8654 6.80608 
324 2 6.04942 41.6116 23.9828 
325 2 38.6226 32.857 33.3642 
326 2 32.6544 36.6098 25.8677 
327 2 48.2401 41.9274 37.6731 
328 2 31.9338 32.0235 21.4459 
329 2 53.3627 45.3129 28.7789 
330 2 48.7113 34.305 20.6937 
331 2 13.7739 6.20631 22.6852 
332 2 8.24367 50.8067 13.593 
333 2 26.1551 24.8034 34.7246 
334 2 29.3911 6.99231 37.7962 
335 2 55.0934 47.1921 36.5027 
336 2 41.6991 40.9785 32.0281 
337 2 36.2875 18.0865 46.8891 
338 2 20.0575 12.2018 51.3211 
339 2 48.2433 55.3549 21.5983 
340 2 17.8089 25.9426 33.9159 
341 2 26.2287 49.4785 47.8085 
342 2 6.19946 40.8369 36.0801 
343 2 7.01481 12.9588 14.9626 
344 2 21.2653 42.278 35.0388 
345 2 28.1803 49.7158 9.24752 
346 2 19.936 49.6603 52.0966 
347 2 18.1704 23.161 46.7623 
348 2 54.6213 26.3536 46.9591 
349 2 35.5699 36.3134 51.029 
350 2 49.2305 52.258 45.9377 
351 2 13.9338 38.7564 54.3202 
352 2 41.19 42.0437 37.2353 
353 2 39.7235 24.2463 6.16789 
354 2 7.77883 54.0188 52.289 
355 2 33.8734 25.3989 26.5923 
356 2 54.2953 20.9211 49.7655 
357 2 42.4098 29.8939 46.9085 
358 2 14.565 15.0725 47.5705 
359 2 28.3885 12.1037 43.4686 
360 2 28.937 25.538 10.0749 
361 2 54.4743 44.6075 41.8244 
362 2 36.6701 41.2899 8.86067 
363 2 54.6985 50.7441 20.4723 
364 2 32.8595 25.0949 21.4961 
365 2 33.9705 51.1679 33.7264 
366 2 28.0236 34.3403 39.8054 
367 2 10.8199 19.7876 8.60873 
368 2 32.284 19.1972 33.3857 
369 2 37.9099 22.1469 36.0279 
370 2 20.9283 53.523 13.7435 
371 2 26.6024 22.2674 14.6047 
372 2 21.9614 36.8356 23.2953 
373 2 35.8267 26.2656 30.3701 
374 2 53.1545 20.6882 35.8303 
375 2 42.0056 8.53207 52.0942 
376 2 42.1787 47.6476 24.1539 
377 2 27.845 38.1315 6.72726 
378 2 38.9031 20.5674 39.9422 
379 2 31.531 12.8119 33.8055 
380 2 17.7622 29.6092 30.9038 
381 2 24.3706 36.4465 17.524 
382 2 29.2999 14.5779 52.0289 
383 2 21.078 45.8336 16.8324 
384 2 30.4201 17.6022 37.4082 
385 2 23.2956 17.3592 7.54078 
386 2 54.4954 23.6919 45.9208 
387 2 8.43644 21.0043 44.3759 
388 2 23.2725 51.9658 19.7431 
389 2 24.0375 16.9264 12.8837 
390 2 24.8715 27.234 48.1109 
391 2 26.1549 20.9788 18.9616 
392 2 15.8239 17.95 44.2353 
393 2 55.8561 33.0755 23.7973 
394 2 31.4011 22.4062 13.0878 
395 2 45.3087 40.7011 19.9931 
396 2 53.2597 46.757 11.0934 
397 2 24.3632 46.356 20.3556 
398 2 37.1898 30.8643 40.9394 
399 2 47.0063 16.4317 37.3196 
400 2 28.8119 30.2939 20.5197 
401 2 24.5407 54.7725 52.1368 
402 2 11.075 45.4393 43.4665 
403 2 16.1559 18.8984 17.7539 
404 2 36.4349 40.3938 17.7424 
405 2 32.9555 36.706 7.80528 
406 2 41.5498 17.4119 9.44447 
407 2 44.7169 27.4026 27.409 
408 2 45.8971 38.8429 13.542 
409 2 10.6354 23.8859 20.4404 
410 2 13.3574 50.1713 42.9808 
411 2 29.6796 30.5876 30.0544 
412 2 41.671 9.53288 19.2313 
413 2 23.0559 25.8964 27.9651 
414 2 9.05152 13.9727 40.6042 
415 2 16.0123 51.4049 42.7875 
416 2 8.78776 53.1702 7.94225 
417 2 26.8781 47.7596 53.2185 
418 2 28.0326 33.0683 11.7685 
419 2 50.4766 7.00848 38.0067 
420 2 30.9857 43.763 54.9375 
421 2 39.0629 28.1239 44.7221 
422 2 51.1121 21.9223 30.3906 
423 2 53.0893 40.7329 25.2182 
424 2 13.2086 22.7017 26.8339 
425 2 22.5523 12.044 16.8378 
426 2 35.046 45.0637 53.5851 
427 2 41.4206 39.7492 45.364 
428 2 24.1773 41.8815 47.2232 
429 2 35.1562 40.7859 23.3895 
430 2 9.6874 16.9086 45.7224 
431 2 35.9308 31.229 18.7377 
432 2 34.8081 12.2058 50.9193 
433 2 35.2991 38.9768 53.8428 
434 2 22.2139 6.57131 10.9835 
435 2 39.9881 54.3287 33.1128 
436 2 22.2401 28.7207 51.4121 
437 2 31.8373 33.8876 33.711 
438 2 51.3876 18.5802 43.8034 
439 2 33.0483 9.91175 6.17419 
440 2 17.6982 50.5787 6.80192 
441 2 43.422 54.5897 16.6677 
442 2 54.9579 37.5267 22.9784 
443 2 14.4991 49.7797 35.0588 
444 2 40.2087 18.6052 51.9741 
445 2 13.4105 29.357 50.1626 
446 2 17.3952 30.8437 12.9173 
447 2 38.2279 47.5916 27.187 
448 2 28.3344 35.3469 23.3577 
449 2 46.9105 53.4237 44.5057 
450 2 35.5997 23.4614 34.0546 
451 2 18.0101 16.9541 47.0455 
452 2 55.21 7.35649 38.1205 
453 2 31.6603 49.3844 32.4805 
454 2 51.91 38.8095 55.6389 
455 2 8.46287 29.6535 6.2097 
456 2 36.3171 51.078 13.8463 
457 2 33.8408 28.7731 20.9614 
458 2 53.3882 51.034 54.4235 
459 2 13.2977 38.0125 10.4543 
460 2 17.9876 49.1437 43.7871 
461 2 43.3658 51.4004 16.3241 
462 2 25.6325 17.1681 25.0039 
463 2 12.2312 48.2768 53.6152 
464 2 43.1089 54.9521 6.37609 
465 2 21.4165 26.0613 42.5227 
466 2 48.376 23.427 17.6162 
467 2 29.3817 47.4198 24.2213 
468 2 50.535 32.5665 53.6229 
469 2 15.0912 36.3317 54.6198 
470 2 54.733 32.362 17.9331 
471 2 49.4935 34.0547 12.8463 
472 2 48.2479 52.5094 16.7718 
473 2 9.97814 44.2377 37.6239 
474 2 27.8573 53.9259 25.2865 
475 2 49.2142 8.66115 52.6254 
476 2 24.9225 54.7364 23.7526 
477 2 42.1378 15.3638 22.7985 
478 2 29.0574 12.7054 20.3844 
479 2 47.6021 36.0022 29.5099 
480 2 32.5797 44.2841 36.8058 
481 2 29.991 10.1678 37.1126 
482 2 39.6735 47.8461 23.1091 
483 2 17.3341 54.786 22.1937 
484 2 7.30632 45.1614 10.4475 
485 2 28.0417 40.7537 12.1466 
486 2 6.16517 17.9785 54.6335 
487 2 41.6731 36.0475 48.9287 
488 2 17.8455 41.2916 29.9028 
489 2 19.6184 12.2453 12.8972 
490 2 40.8226 17.5702 16.3367 
491 2 45.2076 9.20327 12.0775 
492 2 46.9436 47.392 42.0738 
493 2 50.0465 55.6171 49.0569 
494 2 11.2903 37.8301 8.10567 
495 2 24.9739 35.626 46.621 
496 2 7.60369 37.3014 24.6287 
497 2 14.5187 53.1372 55.3712 
498 2 29.2682 30.2726 14.7338 
499 2 11.7047 27.239 46.7921 
500 2 20.25 42.9596 39.9132 
501 2 26.6355 7.33153 24.7398 
502 2 42.3718 22.9154 34.7104 
503 2 32.8941 32.9037 49.1755 
504 2 36.504 52.0595 16.4935 
505 2 31.9823 53.183 13.5067 
506 2 27.1761 42.237 41.3523 
507 2 31.8761 43.4717 22.6423 
508 2 12.6074 18.3125 51.3909 
509 2 28.4424 20.8131 51.0249 
510 2 53.7691 46.3634 46.912 
511 2 38.7989 22.3178 29.8711 
512 2 10.21 36.8663 17.8631 
513 2 38.5367 39.0015 47.6628 
514 2 10.8888 51.4818 9.1962 
515 2 45.0239 14.2641 34.3069 
516 2 50.96 54.9576 31.3566 
517 2 44.233 55.7033 20.0849 
518 2 38.2275 14.686 19.8312 
519 2 45.4753 32.5901 32.84 
520 2 54.48 50.3148 37.4724 
521 2 25.9073 24.027 46.9936 
522 2 42.4304 28.0985 39.8239 
523 2 34.8583 29.6815 14.6134 
524 2 52.0775 36.0683 10.2351 
525 2 9.31809 31.9213 21.6401 
526 2 42.8606 48.527 47.543 
527 2 8.89791 10.237 10.6717 
528 2 25.8671 9.71286 22.244 
529 2 49.1762 17.3316 30.5031 
530 2 7.38461 29.4434 30.1531 
531 2 26.6201 53.0914 10.0093 
532 2 45.7754 45.4141 46.139 
533 2 36.6003 34.2925 53.0398 
534 2 32.8977 15.7003 10.7203 
535 2 17.6643 25.371 13.1 
536 2 13.1041 6.45744 37.4872 
537 2 23.2962 37.7512 37.2722 
538 2 34.9757 32.6008 37.0723 
539 2 18.3755 34.4637 41.6862 
540 2 54.9718 15.1825 45.1316 
541 2 16.0139 38.3404 33.2329 
542 2 37.1907 17.2759 27.3032 
543 2 47.2822 15.7513 12.23 
544 2 39.4799 38.1709 51.8025 
545 2 33.5653 28.0153 34.258 
546 2 37.8711 9.75017 19.6834 
547 2 26.9185 13.0909 22.1211 
548 2 14.3842 7.9455 14.0829 
549 2 13.316 47.0566 11.5197 
550 2 6.30798 35.2989 16.4842 
551 2 25.0485 39.6831 50.2298 
552 2 52.0301 34.0681 37.6397 
553 2 29.8688 20.3406 15.6064 
554 2 23.96 17.7051 44.2423 
555 2 46.5677 15.9854 7.22778 
556 2 35.3264 55.4812 9.62524 
557 2 24.7981 27.8871 9.71491 
558 2 20.7534 32.6074 51.8445 
559 2 49.752 16.8902 41.8662 
560 2 39.1212 46.0693 45.5864 
561 2 19.3961 24.9433 16.8063 
562 2 24.3395 24.2158 8.84831 
563 2 40.4234 54.4644 36.4018 
564 2 41.6785 30.8928 50.0817 
565 2 12.289 9.02783 54.6227 
566 2 55.299 46.6127 43.73 
567 2 30.3698 6.49322 13.6739 
568 2 49.5533 12.5064 15.752 
569 2 15.1156 29.7885 42.5172 
570 2 53.1665 32.5274 10.2599 
571 2 20.2277 22.8744 50.9965 
572 2 12.4112 11.7557 49.4318 
573 2 46.2806 22.6462 38.5449 
574 2 45.2261 13.2584 40.061 
575 2 41.2244 26.1317 48.0443 
576 2 37.1436 15.8146 9.54358 
577 2 40.4754 21.7401 24.9755 
578 2 28.9384 19.6305 32.7865 
579 2 34.1607 41.3948 39.9872 
580 2 28.0777 16.0429 11.1011 
581 2 30.2486 27.4377 52.804 
582 2 52.3086 9.45842 44.1303 
583 2 22.1066 22.6416 33.934 
584 2 8.93662 39.3303 14.7615 
585 2 54.6511 22.59 52.7799 
586 2 25.6639 47.9706 35.6226 
587 2 12.6568 7.75399 44.2005 
588 2 41.0908 6.14582 49.6533 
589 2 47.0679 50.0864 47.5377 
590 2 50.5169 42.8312 10.4972 
591 2 55.5194 15.0642 17.6956 
592 2 16.5233 42.1694 19.2229 
593 2 32.9452 7.04796 40.3732 
594 2 45.3005 30.9616 49.7597 
595 2 54.0952 27.5182 12.6644 
596 2 50.7792 41.829 26.4229 
597 2 49.0693 14.5504 39.9393 
598 2 44.9184 36.5946 9.30222 
599 2 48.2971 30.5539 39.0043 
600 2 26.4925 18.4075 54.5328 
601 2 52.4996 51.7737 35.5694 
602 2 7.13472 34.1571 49.9284 
603 2 41.7285 20.0555 27.7351 
604 2 9.52426 24.5177 51.4174 
605 2 19.402 52.3227 23.0877 
606 2 32.7144 49.9198 22.7797 
607 2 46.7067 7.24631 35.2889 
608 2 16.8528 41.9496 43.0441 
609 2 55.0846 31.3295 28.8866 
610 2 38.4623 25.7695 27.0353 
611 2 10.7788 45.6304 12.4688 
612 2 29.9285 22.4832 35.9949 
613 2 27.9467 9.27453 34.5876 
614 2 10.0847 32.8158 53.4088 
615 2 28.6618 48.4731 32.3753 
616 2 22.4349 35.1579 44.9115 
617 2 20.3746 39.9922 52.4623 
618 2 24.1301 34.8516 49.6352 
619 2 39.1319 38.8873 26.097 
620 2 43.3542 18.82 39.4268 
621 2 38.7951 26.4519 31.8415 
622 2 6.93594 48.2397 31.2939 
623 2 37.4631 46.7003 40.9766 
624 2 41.7051 28.4049 27.6505 
625 2 13.4918 7.52784 25.9104 
626 2 34.4832 10.3998 27.1226 
627 2 16.3438 29.7149 15.9431 
628 2 20.9195 33.5487 41.0207 
629 2 29.1179 30.1961 54.0455 
630 2 30.6321 9.02407 28.532 
631 2 12.937 44.9182 30.2955 
632 2 39.4282 50.5507 19.4194 
633 2 18.4643 28.8652 27.0114 
634 2 10.9155 14.0268 13.1367 
635 2 38.9664 29.2836 50.7624 
636 2 10.6975 11.0081 46.9474 
637 2 45.0888 27.633 10.7473 
638 2 49.5037 10.0801 20.7849 
639 2 25.4937 7.24053 19.6412 
640 2 44.5239 39.3458 6.36394 
641 2 34.1787 51.7187 51.9128 
642 2 45.6604 11.252 42.2601 
643 2 54.3884 39.1673 17.7654 
644 2 41.4954 35.6607 11.7611 
645 2 47.7806 22.4785 10.0126 
646 2 35.1749 45.8028 37.8181 
647 2 31.1539 51.9484 54.165 
648 2 34.9221 21.3959 50.8538 
649 2 20.9081 39.0092 33.0411 
650 2 7.72354 21.5475 18.2918 
651 2 19.1504 28.1437 35.8749 
652 2 22.8274 29.3531 48.6458 
653 2 55.4768 13.705 55.5806 
654 2 13.4938 34.8452 34.298 
655 2 19.3803 23.3179 8.60727 
656 2 55.7122 26.1123 23.9284 
657 2 9.95458 26.9654 28.9616 
658 2 10.5369 10.3274 28.5569 
659 2 43.3651 22.451 54.1089 
660 2 23.0291 13.612 19.6313 
661 2 52.5452 6.68387 20.398 
662 2 30.3508 24.7939 14.132 
663 2 15.3173 14.8804 20.6866 
664 2 42.9213 32.6035 19.0402 
665 2 23.4572 48.7884 24.0773 
666 2 26.8112 40.5267 45.5942 
667 2 47.3273 31.0616 17.2144 
668 2 12.6949 20.6849 6.35367 
669 2 6.29827 7.61045 33.3336 
670 2 52.1283 31.5018 29.8252 
671 2 31.7906 25.6128 6.5224 
672 2 20.7694 50.859 18.1752 
673 2 34.7428 55.765 14.6736 
674 2 17.6132 35.9964 8.13141 
675 2 44.8473 48.7693 36.5074 
676 2 47.3865 53.4623 39.0833 
677 2 8.38716 31.3127 26.0949 
678 2 55.2508 6.36812 28.7557 
679 2 20.8085 7.23539 25.1194 
680 2 34.0197 13.5543 46.2655 
681 2 22.8341 52.7684 55.8735 
682 2 55.2761 32.9319 35.9925 
683 2 34.9005 24.7946 6.41509 
684 2 29.2647 51.7743 38.144 
685 2 44.6003 11.2842 55.8616 
686 2 15.3268 31.2716 23.7154 
687 2 49.0343 24.4959 27.4042 
688 2 25.569 9.14462 49.3941 
689 2 7.96743 34.8533 43.627 
690 2 50.356 48.1624 37.2852 
691 2 35.5901 37.1107 37.6109 
692 2 35.464 24.7104 13.1522 
693 2 9.95101 10.8672 23.2772 
694 2 16.1841 7.09192 8.16584 
695 2 35.8914 20.3939 40.3581 
696 2 46.1503 35.6918 16.701 
697 2 10.5599 16.366 25.7249 
698 2 6.16892 39.5367 52.3664 
699 2 55.4791 44.7829 52.5487 
700 2 8.32476 26.5269 35.1205 
701 2 19.6747 35.076 53.6196 
702 2 27.5705 7.2719 40.2727 
703 2 8.08813 43.7894 23.9395 
704 2 36.6001 10.3018 49.4526 
705 2 16.2811 29.9679 46.8807 
706 2 34.6655 35.0167 6.15891 
707 2 22.2584 10.3529 20.6571 
708 2 26.0282 24.9952 20.9923 
709 2 36.4147 48.1718 44.8531 
710 2 13.2705 22.3625 50.4438 
711 2 28.4603 30.1286 24.9756 
712 2 32.7747 15.5872 43.573 
713 2 36.1605 31.4223 12.2592 
714 2 23.7535 11.1154 12.4445 
715 2 17.5075 12.89 15.3507 
716 2 43.5486 36.8717 46.8651 
717 2 32.3389 6.32335 28.297 
718 2 20.5783 23.8335 38.5697 
719 2 30.7085 39.6136 41.6768 
720 2 48.0042 22.2442 30.7814 
721 2 14.2188 43.394 27.3685 
722 2 19.5732 38.5969 9.2817 
723 2 21.7227 28.6968 54.4206 
724 2 42.3442 52.0874 26.059 
725 2 19.9197 31.2953 15.1322 
726 2 10.1284 34.7644 36.5606 
727 2 27.049 36.4324 28.1065 
728 2 55.7153 50.7545 48.6121 
729 2 50.6979 28.7561 18.5255 
730 2 10.4193 13.9647 46.1618 
731 2 39.232 16.7962 23.9317 
732 2 49.1091 33.3172 49.506 
733 2 42.6009 37.4963 23.0177 
734 2 45.3313 19.7206 25.5565 
735 2 21.7042 51.7274 46.0725 
736 2 19.1629 49.9265 38.9843 
737 2 35.7334 26.0486 35.3225 
738 2 9.7786 40.3233 10.4108 
739 2 49.0603 28.2325 42.5059 
740 2 34.0047 31.968 7.09291 
741 2 28.5522 50.8014 49.1013 
742 2 17.7809 15.0847 31.46 
743 2 37.4111 48.6338 33.3272 
744 2 36.5592 27.8369 27.9436 
745 2 12.6657 38.6464 13.6483 
746 2 24.9095 7.05996 14.6774 
747 2 7.13269 50.4469 39.2268 
748 2 19.9851 14.841 36.0969 
749 2 16.9691 13.7222 33.7993 
750 2 43.5076 23.9482 29.5225 
751 2 21.7771 34.5844 31.2255 
752 2 19.184 38.8261 17.6188 
753 2 8.25073 40.7255 48.4212 
754 2 50.8871 36.4371 21.1342 
755 2 23.878 49.047 19.7003 
756 2 8.9376 32.6614 11.1488 
757 2 19.3124 35.712 26.8967 
758 2 36.1122 12.9391 33.5275 
759 2 11.6886 30.2477 47.3946 
760 2 46.0791 8.67379 28.5684 
761 2 41.8435 26.542 43.5584 
762 2 31.2734 30.5352 16.9152 
763 2 26.3825 50.6492 20.8712 
764 2 20.195 53.7047 44.6098 
765 2 16.5088 21.7692 52.8877 
766 2 26.0952 17.071 8.69434 
767 2 52.7245 27.8775 53.1263 
768 2 35.061 24.4594 19.3527 
769 2 53.1063 35.513 7.16969 
770 2 23.026 9.83309 42.302 
771 2 20.9826 16.4258 16.6392 
772 2 50.6774 37.3204 15.1275 
773 2 29.7248 49.9796 36.1216 
774 2 24.401 13.4968 33.6222 
775 2 13.9387 10.2414 35.2422 
776 2 31.4363 43.8963 28.073 
777 2 35.0192 48.8005 51.8688 
778 2 19.3072 11.9125 42.7726 
779 2 11.9295 53.1741 28.5002 
780 2 10.2649 30.2924 30.016 
781 2 13.4517 20.1617 22.9182 
782 2 37.179 27.9934 15.6757 
783 2 9.39592 24.3742 36.7684 
784 2 16.5173 28.782 10.3512 
785 2 18.1563 47.0718 47.8356 
786 2 35.2943 35.2696 26.2505 
787 2 18.0671 53.1102 47.1472 
788 2 25.0817 10.9126 7.04248 
789 2 41.5076 12.0897 37.1042 
790 2 7.77565 40.7346 28.3006 
791 2 10.0918 53.6868 16.8824 
792 2 11.9788 50.7397 27.593 
793 2 12.7492 50.6937 39.2755 
794 2 53.6391 48.101 51.4159 
795 2 17.7056 51.9832 33.1985 
796 2 10.386 35.4031 15.3209 
797 2 8.98497 34.2371 19.634 
798 2 28.5808 50.8788 44.7678 
799 2 52.3133 44.8955 26.0942 
800 2 46.7275 38.9568 16.0249 
801 2 16.4251 38.7346 25.9596 
802 2 11.8692 33.7171 20.3925 
803 2 54.818 25.3 6.31344 
804 2 26.0925 11.5635 45.6648 
805 2 28.5086 37.2101 15.7286 
806 2 41.3396 46.3598 19.4718 
807 2 18.1409 42.5618 23.46 
808 2 19.6214 36.6973 19.2742 
809 2 43.5669 55.1904 29.9928 
810 2 45.8339 24.29 27.77 
811 2 48.6163 13.8227 44.6822 
812 2 21.0225 9.62885 15.6019 
813 2 46.7886 26.9972 13.3839 
814 2 43.7362 19.577 8.19815 
815 2 46.7776 50.9293 54.6267 
816 2 55.6312 49.3344 41.8065 
817 2 38.3046 29.9836 33.8104 
818 2 29.4496 24.8986 52.9955 
819 2 21.3585 24.4434 10.5095 
820 2 41.2142 48.7394 54.573 
821 2 7.49163 18.7627 50.1037 
822 2 31.0145 35.3921 38.6547 
823 2 45.5992 54.01 12.9535 
824 2 7.43528 14.9748 10.7868 
825 2 20.1127 18.6571 33.4661 
826 2 16.3546 42.4552 10.6035 
827 2 39.0696 53.3706 15.1219 
828 2 6.42673 23.9885 41.0463 
829 2 31.5543 22.5264 7.61059 
830 2 31.0543 44.5864 48.044 
831 2 24.6116 24.419 18.223 
832 2 55.1403 9.36978 35.8252 
833 2 44.9141 43.8767 24.2371 
834 2 18.6797 44.7529 32.7904 
835 2 27.1993 53.5616 51.5453 
836 2 53.5322 25.2945 26.7189 
837 2 18.9534 17.6538 29.9624 
838 2 30.6279 23.1244 54.718 
839 2 36.2774 6.63213 30.1187 
840 2 16.2524 6.53876 24.5019 
841 2 51.2787 40.5473 37.1395 
842 2 28.7085 41.9119 35.5576 
843 2 27.3342 32.047 43.6931 
844 2 24.4096 20.3286 16.4907 
845 2 40.9857 50.0685 34.6321 
846 2 46.5116 18.2519 46.3297 
847 2 22.108 7.73726 13.3419 
848 2 46.8402 9.18963 38.2199 
849 2 40.1156 42.7624 46.1989 
850 2 34.1176 42.498 17.9776 
851 2 13.1215 40.38 17.1025 
852 2 39.5001 22.8577 49.7482 
853 2 16.5914 8.83342 34.6607 
854 2 35.7057 52.7276 25.4743 
855 2 6.89938 54.6439 19.8213 
856 2 35.0459 40.555 31.416 
857 2 37.0659 32.6525 45.481 
858 2 50.7478 49.1265 42.9848 
859 2 35.8849 48.4544 31.0433 
860 2 53.138 48.1701 29.2608 
861 2 19.0383 12.3699 55.7484 
862 2 38.0789 23.8313 14.8949 
863 2 39.3956 25.8867 21.6166 
864 2 53.0924 51.3022 42.4799 
865 2 42.2637 41.1932 50.0927 
866 2 36.0003 19.9327 32.204 
867 2 34.9898 43.9202 8.97695 
868 2 9.43754 49.3656 11.208 
869 2 7.35716 42.2811 14.4459 
870 2 37.5127 27.8432 36.8383 
871 2 30.8158 19.0353 28.4601 
872 2 16.6894 45.4975 21.9299 
873 2 44.2176 31.878 37.1909 
874 2 25.1416 35.2295 32.9873 
875 2 7.8201 49.7229 52.0352 
876 2 17.9693 40.4871 33.1316 
877 2 52.5305 8.5054 13.9923 
878 2 49.9698 24.2091 44.4783 
879 2 43.3513 12.8035 26.6826 
880 2 43.1529 40.7459 26.2615 
881 2 34.8775 47.368 40.9205 
882 2 49.8765 47.0522 45.1187 
883 2 31.9862 13.6824 50.8896 
884 2 54.2746 9.58513 40.1468 
885 2 45.695 9.81841 31.2806 
886 2 43.7985 28.4018 30.7127 
887 2 18.7133 9.72054 8.65239 
888 2 17.6023 38.6236 51.1307 
889 2 15.3927 44.3645 7.67142 
890 2 19.5515 14.7476 19.2652 
891 2 22.7023 19.3403 23.5791 
892 2 21.0066 7.66822 35.3655 
893 2 22.5433 44.5555 37.1367 
894 2 23.2085 39.9228 13.5492 
895 2 12.3484 53.5599 23.8356 
896 2 13.1764 49.0236 19.4149 
897 2 51.4418 43.8726 55.7187 
898 2 41.4824 53.516 46.9178 
899 2 28.6055 52.8415 32.5978 
900 2 21.6028 14.4147 32.2039 
901 2 29.0325 10.3715 26.8455 
902 2 30.0936 22.3275 31.2229 
903 2 21.8688 13.4759 45.7787 
904 2 53.0989 38.8245 14.9587 
905 2 27.065 40.5006 17.2483 
906 2 40.2336 23.3622 40.5129 
907 2 46.4969 54.1016 24.4501 
908 2 16.3531 25.799 50.6888 
909 2 29.4 29.8877 7.3804 
910 2 55.2207 23.4297 33.197 
911 2 55.7076 38.9812 47.6373 
912 2 29.9115 19.3656 20.0726 
913 2 49.5895 41.1969 23.0306 
914 2 8.39775 44.8173 6.19596 
915 2 36.438 10.4926 45.2798 
916 2 40.5937 35.1601 33.9662 
917 2 9.34245 22.6985 8.73895 
918 2 36.5206 17.8239 34.6897 
919 2 44.2241 44.3867 35.7777 
920 2 22.788 20.9396 30.4789 
921 2 50.6748 53.3289 23.885 
922 2 30.9961 14.9013 36.2171 
923 2 19.656 17.129 11.9571 
924 2 16.8492 25.0684 41.6623 
925 2 30.4315 36.0069 41.2551 
926 2 17.6777 10.2765 54.9147 
927 2 52.3735 13.3666 24.5794 
928 2 55.2411 53.7537 24.5699 
929 2 50.9766 25.3027 12.9565 
930 2 51.61 13.8854 7.67865 
931 2 48.4466 55.1763 12.2651 
932 2 42.6124 17.206 47.6733 
933 2 12.1431 47.7078 36.2108 
934 2 51.0248 20.8127 33.8545 
935 2 52.7672 36.1515 27.6977 
936 2 35.9433 49.2966 26.2447 
937 2 51.6613 22.7102 46.6116 
938 2 37.8036 26.573 46.7769 
939 2 30.1917 15.4182 21.2184 
940 2 46.6415 26.7137 36.3269 
941 2 46.6216 17.1303 32.0602 
942 2 33.1702 47.7068 54.0988 
943 2 49.5611 38.5296 41.2832 
944 2 24.4088 25.2863 32.2422 
945 2 54.8254 34.8029 54.4034 
946 2 11.6032 38.3315 20.9341 
947 2 6.43065 10.3105 22.3227 
948 2 53.3725 49.7391 24.8476 
949 2 44.8549 21.9425 23.8589 
950 2 24.0757 37.4051 25.8794 
951 2 52.6846 50.2256 9.83142 
952 2 14.4028 37.5725 18.8182 
953 2 37.6456 49.6738 6.6067 
954 2 47.5978 44.9971 13.6696 
955 2 31.0197 7.45131 31.2469 
956 2 21.006 20.8458 18.3542 
957 2 54.2683 51.5506 28.9099 
958 2 9.37847 50.3254 26.1279 
959 2 48.7862 48.1452 48.5168 
960 2 10.6709 44.574 32.5206 
961 2 24.0879 39.7072 28.3804 
962 2 9.52311 37.8471 33.8766 
963 2 51.9846 51.4937 39.4279 
964 2 6.30256 49.9727 26.8415 
965 2 52.9868 30.5838 20.7534 
966 2 35.1432 32.2883 25.1284 
967 2 14.6039 28.376 22.3866 
968 2 7.66942 38.9516 17.4145 
969 2 44.8843 40.471 51.8924 
970 2 13.5024 24.8474 47.2175 
971 2 27.7193 28.3921 18.4994 
972 2 11.2668 34.248 44.6769 