ITEM: TIMESTEP
0
ITEM: NUMBER OF ATOMS
9088
ITEM: BOX BOUNDS xy xz yz pp pp pp
6.1073852872236714e+00 5.5823552505048895e+01 -5.7040088081288602e-15
6.1073852872236767e+00 5.5823552505048895e+01 0.0000000000000000e+00
6.1073852872236767e+00 5.5823552505048895e+01 0.0000000000000000e+00
ITEM: ATOMS id type x y z
1 2 28.1232 15.146 52.2484
2 2 49.3523 54.8793 22.5258
3 2 37.6072 25.3264 10.5743
4 2 11.5472 10.9997 15.6159
5 2 7.93423 49.551 18.3414
6 2 29.2702 43.5229 41.8072
7 2 10.8089 54.1295 9.2392
8 2 21.4292 25.096 54.6237
9 2 52.7224 37.5672 17.5367
10 2 49.1971 31.7568 18.3055
11 2 22.2967 25.9381 14.0353
12 2 49.7478 39.8435 35.225
13 2 8.23569 13.401 39.1893
14 2 43.3374 45.7017 19.8112
15 2 37.6305 24.6169 34.5641
16 2 32.1743 32.5356 41.7397
17 2 10.9557 52.5929 45.5705
18 2 28.8256 39.6423 19.4809
19 2 11.6475 47.6948 13.9309
20 2 13.1175 48.7269 54.6196
21 2 17.7557 35.0352 32.4925
22 2 22.9691 38.6035 51.0304
23 2 19.1112 52.3887 44.8522
24 2 51.5577 6.84892 7.9203
25 2 35.0927 10.3379 38.968
26 2 37.3598 23.7203 43.2771
27 2 26.4534 17.5659 29.843
28 2 41.8227 10.6044 16.4459
29 2 14.4842 32.0724 45.9275
30 2 8.88148 26.3662 35.0853
31 2 33.4787 14.0319 24.2821
32 2 53.6096 10.0083 11.6079
33 2 53.3515 26.7526 51.1391
34 2 31.7672 50.8904 47.8085
35 2 25.9699 52.4151 26.6526
36 2 34.4167 18.8702 18.3725
37 2 31.5884 14.4116 6.61018
38 2 17.6297 21.9856 34.8994
39 2 26.1342 25.547 13.8764
40 2 20.6893 54.7308 33.1417
41 2 44.5829 15.706 51.5352
42 2 14.8773 20.8025 54.0651
43 2 11.9949 11.4692 6.76589
44 2 22.7055 48.1275 35.1058
45 2 18.1278 39.9403 24.0524
46 2 38.6238 27.2256 18.4832
47 2 9.35559 17.8945 47.4589
48 2 24.4739 40.0584 37.9712
49 2 25.479 6.75606 16.2285
50 2 44.2481 36.6351 32.7812
51 2 19.9375 46.1253 19.8422
52 2 19.3408 45.3067 27.7167
53 2 11.2635 52.1565 21.5922
54 2 38.0161 20.0978 34.5727
55 2 9.41988 38.6543 15.3862
56 2 42.3233 9.45681 23.2934
57 2 44.8561 46.5943 7.94469
58 2 46.0714 52.0956 15.455
59 2 10.3893 14.2528 11.1095
60 2 45.3565 44.2177 27.6026
61 2 26.7029 46.7287 41.9722
62 2 18.8209 54.6192 52.6766
63 2 46.4499 55.6509 22.5609
64 2 12.7145 52.121 13.0076
65 2 36.0757 44.4081 10.6659
66 2 35.8283 28.0958 38.1892
67 2 53.5774 14.52 29.1663
68 2 44.6162 35.5844 13.7809
69 2 22.2745 8.76463 39.2622
70 2 50.6241 55.3173 19.8677
71 2 12.2661 54.7039 43.3277
72 2 28.0885 54.9539 11.1395
73 2 46.992 54.4473 28.8226
74 2 20.1912 13.8597 32.8077
75 2 46.6137 28.7156 41.005
76 2 48.7797 6.94905 29.3275
77 2 23.5116 28.5827 38.4729
78 2 36.4011 39.3392 14.6598
79 2 42.8535 25.2294 39.6954
80 2 31.997 19.7053 20.1507
81 2 28.9138 7.32644 35.3325
82 2 14.1824 24.3835 10.5232
83 2 14.5772 52.336 36.1585
84 2 37.172 52.476 22.4565
85 2 29.013 8.03096 53.2357
86 2 26.8098 54.4129 41.2967
87 2 19.1263 48.6869 16.2015
88 2 7.82014 35.8869 24.6826
89 2 48.9716 14.4327 50.3287
90 2 21.2315 37.6675 31.4283
91 2 29.7503 26.1601 51.5684
92 2 14.4736 30.4476 37.7539
93 2 49.8052 18.6213 41.2246
94 2 39.205 11.4249 15.9858
95 2 35.9291 27.0824 8.1037
96 2 48.4366 13.7363 37.599
97 2 33.8707 54.6632 19.8728
98 2 14.6942 40.5159 10.1164
99 2 18.0794 27.7577 38.7855
100 2 50.0787 36.7587 35.3751
101 2 24.0045 46.1751 19.0625
102 2 39.0359 19.1818 26.8218
103 2 51.4068 43.0914 12.2701
104 2 14.5159 53.3645 52.9145
105 2 6.46687 43.9398 31.3868
106 2 45.5407 11.4355 38.3398
107 2 34.9594 21.7316 27.8416
108 2 26.0811 16.5626 9.14016
109 2 8.3752 30.308 13.2469
110 2 15.7954 47.0328 19.4233
111 2 9.62208 36.1007 17.0952
112 2 25.9996 43.5394 19.3081
113 2 32.4298 14.0636 14.7489
114 2 26.3194 22.6799 38.5102
115 2 31.8138 20.7672 36.5563
116 2 31.0462 24.6196 10.3733
117 2 19.52 41.7701 54.1821
118 2 21.4051 8.38947 25.1997
119 2 53.5452 28.4272 14.4685
120 2 12.3544 55.615 32.3752
121 2 53.2728 38.764 55.248
122 2 18.9335 22.702 19.8377
123 2 33.2729 28.2163 34.7149
124 2 18.8713 7.4269 19.3297
125 2 52.218 42.4838 23.5975
126 2 28.853 22.3761 11.1806
127 2 6.13423 37.485 51.9431
128 2 41.4027 10.193 46.0132
129 2 22.3205 50.6134 25.6322
130 2 36.8283 46.2701 8.5569
131 2 48.0433 35.6598 26.973
132 2 20.7382 25.489 18.9453
133 2 29.8758 7.35268 23.677
134 2 15.7332 7.99762 54.3403
135 2 22.9739 22.2843 8.35429
136 2 48.881 23.7816 29.5575
137 2 10.361 15.2415 37.767
138 2 36.8496 39.2692 43.6622
139 2 47.5426 37.2249 47.9777
140 2 55.538 6.55914 38.2602
141 2 35.2184 52.9281 39.6721
142 2 18.0898 27.3096 8.90548
143 2 39.147 40.3317 9.84267
144 2 8.09371 34.4732 46.3884
145 2 31.0941 40.4351 34.6398
146 2 15.8996 30.0325 9.60187
147 2 25.1432 13.9613 43.6465
148 2 13.6331 44.289 13.2899
149 2 22.4297 37.6643 16.9124
150 2 11.5854 8.85974 51.4542
151 2 55.6833 12.4317 23.6483
152 2 9.85656 29.9326 40.448
153 2 10.6023 16.4042 20.4025
154 2 29.4599 42.9376 51.3345
155 2 27.039 30.2547 30.9334
156 2 24.4489 17.1921 22.7751
157 2 22.4073 25.4793 38.1873
158 2 38.921 9.88549 36.3413
159 2 13.1351 29.2061 46.4053
160 2 19.285 38.3397 21.3586
161 2 20.7522 7.60988 16.6727
162 2 33.3856 37.8479 30.8535
163 2 35.008 38.585 49.2164
164 2 24.778 24.7157 51.8609
165 2 21.7834 49.1756 47.0831
166 2 18.0676 54.7387 14.5753
167 2 15.7015 18.0039 16.2142
168 2 49.0904 30.1329 10.816
169 2 26.8355 7.35115 33.0614
170 2 55.2714 55.514 33.164
171 2 12.2874 27.4964 14.127
172 2 8.17342 48.8222 10.9403
173 2 52.735 45.6774 48.3043
174 2 7.45708 37.2915 13.1383
175 2 8.85252 6.66648 29.935
176 2 37.3061 42.8936 55.3528
177 2 40.1624 20.8124 14.9225
178 2 24.5732 13.5504 48.8267
179 2 10.6894 17.2825 52.7712
180 2 49.0365 20.4607 39.5684
181 2 50.0868 45.6743 50.5084
182 2 31.2049 6.20115 34.7944
183 2 38.8795 14.4395 35.3357
184 2 48.4436 52.0073 31.4633
185 2 27.2878 45.8843 7.87116
186 2 43.9041 38.2359 16.3857
187 2 24.5173 15.0921 46.4331
188 2 40.6114 13.4474 53.0697
189 2 45.6782 17.8693 39.7334
190 2 23.9947 52.5178 13.5366
191 2 15.5028 23.9985 27.9372
192 2 28.1176 32.3678 22.0817
193 2 45.9705 7.49772 50.2054
194 2 31.96 30.4328 36.8563
195 2 45.0858 47.2341 40.9823
196 2 22.2056 33.8891 34.0531
197 2 9.05374 33.2892 17.6594
198 2 31.8578 45.125 29.8577
199 2 32.284 54.7337 25.3429
200 2 47.9066 16.2638 42.3024
201 2 50.8469 10.9402 22.8875
202 2 18.0422 47.776 46.7668
203 2 15.6293 8.68038 32.9661
204 2 28.5479 26.63 33.4006
205 2 14.8652 34.9323 55.7609
206 2 35.9217 41.8045 23.966
207 2 49.5357 24.0485 52.7288
208 2 9.74631 23.6511 32.5483
209 2 46.4385 18.0506 11.3055
210 2 6.92233 41.2299 25.3936
211 2 37.8262 51.9539 11.6744
212 2 33.0175 20.0132 39.3407
213 2 53.0692 27.0382 54.085
214 2 53.5006 42.3152 17.7
215 2 51.4139 10.4159 26.1719
216 2 40.2598 6.93671 24.1763
217 2 45.4214 38.9247 44.5633
218 2 16.7132 54.3304 22.4814
219 2 45.923 51.5045 29.4525
220 2 14.0482 51.8282 32.1517
221 2 12.7244 9.02981 32.5067
222 2 37.3379 35.3118 22.1196
223 2 22.5605 35.014 18.8962
224 2 6.73974 11.9399 8.94612
225 2 12.7672 18.251 50.4478
226 2 35.916 28.5691 21.7123
227 2 41.5469 31.4552 27.8566
228 2 21.6565 24.8374 49.5001
229 2 22.0923 41.2508 41.0426
230 2 20.7559 49.881 33.1552
231 2 38.4758 55.2149 19.5424
232 2 24.0491 13.9407 18.9242
233 2 38.4743 22.0241 21.396
234 2 7.8223 26.1707 42.3446
235 2 43.0412 24.5996 47.0117
236 2 25.7293 25.3971 22.2165
237 2 14.1811 14.3692 39.9131
238 2 32.8632 22.6738 12.9446
239 2 12.2333 7.58092 54.12
240 2 49.2721 33.8497 44.4912
241 2 20.6049 20.7444 46.1861
242 2 21.3722 30.408 19.6918
243 2 14.4526 38.107 55.6313
244 2 15.8292 13.2774 15.1565
245 2 36.4168 7.51211 32.8783
246 2 9.64489 52.6189 39.2939
247 2 45.2669 46.3042 24.6838
248 2 46.7364 10.7567 46.5302
249 2 39.5984 16.4487 28.0825
250 2 46.5475 39.9265 55.4445
251 2 17.1409 49.2247 18.1254
252 2 48.8537 42.837 41.9692
253 2 7.45641 19.7691 11.6627
254 2 6.47727 49.3493 41.5139
255 2 23.3763 18.4099 20.4492
256 2 6.47638 54.9447 8.6583
257 2 10.6747 40.3376 42.4572
258 2 12.2511 12.0345 40.3754
259 2 47.4451 9.52532 20.1542
260 2 28.5605 22.4452 53.9245
261 2 50.7662 17.5719 26.426
262 2 41.5195 37.8018 6.44088
263 2 14.0467 18.4864 8.34405
264 2 48.9371 43.0361 16.5412
265 2 24.3607 14.8788 11.4182
266 2 51.921 40.2701 45.5673
267 2 48.1459 27.9697 53.4205
268 2 51.628 16.1282 7.30043
269 2 18.0128 40.7658 20.6137
270 2 29.382 33.1884 49.3297
271 2 7.7845 34.1665 49.4629
272 2 51.4403 49.939 34.1933
273 2 17.4927 20.2461 49.4856
274 2 29.7722 20.4518 28.5123
275 2 44.2427 36.9322 48.8839
276 2 6.93554 8.01802 35.7273
277 2 40.453 15.5519 31.1946
278 2 8.02286 7.39472 19.4259
279 2 44.6235 25.3792 53.8177
280 2 27.1653 49.526 27.1461
281 2 24.9885 48.9366 25.2952
282 2 24.3095 50.7319 35.7213
283 2 27.2081 6.38132 13.9811
284 2 9.06234 33.714 42.5257
285 2 41.0315 27.8102 36.8808
286 2 17.3732 47.0668 26.2034
287 2 49.5915 53.7688 11.6883
288 2 48.3623 6.96084 15.7527
289 2 18.6025 42.105 51.2166
290 2 49.448 54.1878 8.45484
291 2 12.4426 34.3789 31.8674
292 2 51.8898 32.0186 16.0614
293 2 19.0494 42.2523 26.3456
294 2 6.32323 8.87905 26.7037
295 2 28.4936 51.5382 53.756
296 2 14.3866 33.5855 23.1787
297 2 27.3446 29.8001 23.8287
298 2 49.3346 45.8012 25.916
299 2 29.0766 25.3147 36.3274
300 2 36.2412 36.4373 51.0214
301 2 33.0311 26.2765 8.84177
302 2 42.9942 32.4655 47.108
303 2 20.0228 44.1999 47.3361
304 2 28.0274 45.5706 39.8654
305 2 25.0858 33.2816 30.402
306 2 43.0909 14.2574 49.348
307 2 22.1795 46.2347 41.2192
308 2 15.9262 27.1915 40.7616
309 2 34.8077 31.5262 37.9751
310 2 54.8585 41.2866 10.5262
311 2 9.98823 53.4318 27.707
312 2 39.8512 41.6435 32.8696
313 2 22.0861 23.1138 25.6619
314 2 39.5956 34.1984 10.9896
315 2 49.4087 18.2693 29.5331
316 2 46.9701 30.483 27.0988
317 2 40.2494 42.034 26.0805
318 2 12.904 34.5228 36.5001
319 2 53.8371 20.2904 41.6467
320 2 48.9148 54.1108 39.9609
321 2 43.2266 40.4065 14.4406
322 2 9.09835 6.77502 55.2656
323 2 43.934 50.2602 14.4518
324 2 41.5034 30.11 31.1142
325 2 22.6736 22.3127 41.3979
326 2 16.994 26.2903 33.7814
327 2 32.1906 31.4974 45.6362
328 2 16.2647 21.4389 29.5886
329 2 39.3789 37.735 36.821
330 2 32.4383 23.7513 28.2675
331 2 47.5358 44.1981 29.815
332 2 42.3093 40.5888 21.3477
333 2 14.1862 14.1045 44.4756
334 2 13.4006 47.1899 46.2226
335 2 43.0951 36.2618 42.296
336 2 25.4184 30.487 40.0959
337 2 19.7695 7.43824 54.9042
338 2 53.7949 49.5479 11.838
339 2 32.4706 48.5827 29.0497
340 2 54.5051 14.3947 40.6288
341 2 9.51599 38.7386 55.7976
342 2 41.0086 30.0406 43.5284
343 2 41.609 52.3515 22.3263
344 2 54.2298 32.742 43.628
345 2 11.9156 39.5633 17.925
346 2 52.4533 36.4343 7.57893
347 2 55.5523 8.57398 54.8218
348 2 40.5209 17.8175 55.6008
349 2 22.4451 26.0784 10.9825
350 2 32.9999 41.2022 54.6471
351 2 48.1021 26.5204 11.1157
352 2 25.1666 31.677 45.2632
353 2 24.9608 11.7363 17.1768
354 2 41.9302 43.7663 10.076
355 2 17.657 15.2976 34.2899
356 2 39.2537 11.6119 7.77848
357 2 24.02 21.106 53.5307
358 2 47.8102 54.0873 55.6187
359 2 11.1979 52.952 48.5265
360 2 12.6861 15.0781 17.9377
361 2 39.7038 34.9599 50.91
362 2 18.0645 31.2381 14.3644
363 2 38.7894 41.5333 28.583
364 2 17.3339 15.0035 29.4206
365 2 17.9288 40.6675 41.582
366 2 11.9734 24.1417 47.7679
367 2 45.1883 13.5389 16.0925
368 2 16.514 10.3103 42.9742
369 2 20.3081 13.3643 44.409
370 2 54.4927 44.4589 22.77
371 2 7.65004 10.1754 20.0848
372 2 6.6584 28.6723 29.2176
373 2 17.6842 17.4077 39.01
374 2 34.8419 13.0215 47.7754
375 2 26.1638 48.5227 15.4744
376 2 26.3586 36.9839 32.329
377 2 9.67581 28.1393 17.4974
378 2 19.3556 17.8858 49.4096
379 2 15.982 52.5311 43.9901
380 2 51.6367 18.3134 36.7779
381 2 9.29745 26.2461 25.7639
382 2 13.3999 53.5519 10.1253
383 2 54.8116 37.2404 27.7821
384 2 13.339 11.4169 46.5029
385 2 6.68845 53.6184 17.1993
386 2 39.004 14.2113 50.9671
387 2 42.4174 10.7162 52.0008
388 2 7.87445 41.8906 28.034
389 2 13.8109 55.8105 22.6215
390 2 10.4751 14.9496 7.22742
391 2 11.1924 10.7845 27.2176
392 2 49.5269 7.86805 51.7634
393 2 34.6664 26.0966 29.0616
394 2 18.1647 11.5455 17.8509
395 2 27.8766 32.838 29.4789
396 2 35.5166 37.7833 20.7501
397 2 8.34985 35.797 28.4748
398 2 26.0344 11.0464 51.3864
399 2 31.2119 55.4631 46.853
400 2 13.2742 20.1202 28.5338
401 2 8.59634 44.3617 10.5434
402 2 44.5646 34.5909 51.2201
403 2 55.8118 7.74385 31.2401
404 2 21.0514 30.9051 25.3569
405 2 16.4134 26.6712 16.5951
406 2 24.6317 6.95381 19.1016
407 2 29.2556 17.0099 36.3989
408 2 33.6511 31.1414 26.9609
409 2 45.1634 13.5844 26.2318
410 2 49.5466 41.004 50.7896
411 2 16.7376 23.9489 41.3067
412 2 24.3373 49.5431 30.0822
413 2 53.8522 13.8347 35.9873
414 2 42.9766 54.1759 48.3505
415 2 51.1615 42.9587 49.4289
416 2 42.8827 43.3268 16.3555
417 2 11.2137 37.7689 8.82019
418 2 12.5793 22.9989 19.8738
419 2 33.7191 45.5896 44.3086
420 2 14.3563 31.1585 12.2946
421 2 21.3864 14.7554 52.6175
422 2 33.8963 13.6415 38.9915
423 2 39.7723 37.1241 33.8256
424 2 42.9815 16.0403 35.6835
425 2 7.39891 51.8751 24.3234
426 2 18.8202 34.4659 14.1993
427 2 25.8649 31.2276 54.9042
428 2 9.0618 31.7256 54.0263
429 2 18.8924 30.5857 31.6864
430 2 41.8037 55.4 52.8778
431 2 20.5892 20.7726 26.8717
432 2 18.4514 48.7335 55.0782
433 2 17.6476 26.5026 14.2698
434 2 6.46236 46.9423 19.0763
435 2 23.5871 43.5569 40.9261
436 2 53.3053 19.7883 9.91004
437 2 17.5041 21.3454 40.76
438 2 36.0292 9.31907 50.9579
439 2 15.0392 48.9876 15.1099
440 2 52.6225 39.7391 14.7949
441 2 30.5441 43.4724 27.803
442 2 37.5937 29.8193 29.2704
443 2 48.2958 38.6413 42.7817
444 2 26.8793 51.6581 12.1143
445 2 44.181 18.5604 52.337
446 2 51.9474 19.9142 20.081
447 2 22.2298 36.7506 35.4312
448 2 12.2589 25.0111 31.6171
449 2 25.0122 40.8234 53.7264
450 2 18.7146 11.7249 41.6342
451 2 50.7239 8.12015 54.6585
452 2 39.871 46.881 45.9374
453 2 15.8529 39.0057 40.5452
454 2 34.9243 26.6051 12.9328
455 2 42.8871 19.0865 14.085
456 2 20.5119 43.0831 20.3132
457 2 17.594 19.0972 28.1443
458 2 37.7053 41.199 12.3144
459 2 46.5426 26.9255 19.8154
460 2 51.6457 38.9067 51.773
461 2 25.6574 42.0877 24.6073
462 2 17.1586 6.69074 34.3938
463 2 45.8721 38.5193 11.2038
464 2 25.7302 42.2367 16.3591
465 2 48.6586 18.88 51.3019
466 2 28.1337 11.7156 24.7838
467 2 13.7218 37.1737 32.6426
468 2 35.3257 23.8116 11.2806
469 2 46.7623 23.6341 10.8598
470 2 39.077 19.742 23.6051
471 2 34.1172 23.5243 20.9236
472 2 32.3811 43.031 25.2527
473 2 43.8381 34.2494 44.9427
474 2 12.0552 43.6954 33.4327
475 2 33.5026 48.7667 10.8972
476 2 9.46215 44.2505 31.9464
477 2 29.0975 55.0702 31.3928
478 2 18.2431 53.7138 34.1718
479 2 31.8698 25.6986 37.9209
480 2 16.6911 33.628 44.8785
481 2 14.7732 50.1601 45.6561
482 2 25.1653 39.7839 32.0434
483 2 51.5926 43.8118 30.5344
484 2 41.2668 35.1647 18.3978
485 2 12.433 30.6163 20.537
486 2 40.2388 7.63665 13.0552
487 2 25.731 24.0043 8.07935
488 2 53.0577 30.7713 36.5688
489 2 49.1857 52.2258 16.1085
490 2 30.9302 10.0809 26.0806
491 2 30.7071 50.7653 18.6021
492 2 30.4063 39.9697 50.6479
493 2 36.4238 46.0335 55.029
494 2 45.9511 27.5693 16.027
495 2 7.74973 25.2688 52.9728
496 2 41.5603 28.0529 34.0478
497 2 48.8485 42.5327 13.4265
498 2 13.6224 19.8949 22.9525
499 2 47.934 17.0232 53.8147
500 2 52.2093 34.6947 45.7759
501 2 10.8522 46.4245 33.1647
502 2 27.7398 10.1111 42.196
503 2 17.6205 22.6363 8.4924
504 2 21.232 41.6498 24.4912
505 2 17.4566 44.1032 19.4026
506 2 11.3574 31.8253 48.9819
507 2 16.205 32.5091 31.2179
508 2 46.242 7.8603 9.68777
509 2 9.59436 12.7396 8.61376
510 2 37.6902 35.8372 54.7983
511 2 23.3085 11.2266 39.9388
512 2 43.0146 27.9105 25.9706
513 2 27.7716 30.8244 8.65698
514 2 44.9413 41.1647 17.1382
515 2 31.0128 53.2656 38.5186
516 2 37.3383 43.6888 35.7889
517 2 26.1294 46.7022 30.411
518 2 24.6752 54.6664 30.5792
519 2 29.7237 22.4553 40.8189
520 2 39.2812 41.9739 46.4664
521 2 6.50599 11.6885 55.7022
522 2 24.6858 19.9367 47.3361
523 2 20.4993 21.5933 22.6074
524 2 35.753 26.3276 19.4559
525 2 41.3965 22.78 25.9202
526 2 26.1961 38.2432 55.3221
527 2 43.2316 49.7665 18.3701
528 2 10.1499 49.4414 30.3702
529 2 34.2634 7.77139 38.3898
530 2 40.607 12.0193 38.3866
531 2 11.3938 42.7796 18.2324
532 2 29.6202 35.5894 53.3786
533 2 19.9147 20.2259 11.763
534 2 18.1404 9.46839 15.5276
535 2 53.0576 13.4129 22.6053
536 2 46.4703 45.8048 45.2402
537 2 6.93774 27.5628 44.9224
538 2 17.8382 19.9201 44.9319
539 2 53.3908 23.877 45.3074
540 2 36.5327 54.2907 51.084
541 2 49.6146 26.8179 37.4054
542 2 21.7876 7.33798 34.9588
543 2 31.3579 8.10742 19.0222
544 2 25.0306 27.03 7.62289
545 2 15.292 17.591 42.3348
546 2 22.9706 48.1492 27.5719
547 2 11.3811 52.5403 30.3983
548 2 48.7788 47.2244 21.7676
549 2 47.4879 36.4047 19.0923
550 2 40.738 25.2878 24.3703
551 2 55.179 27.2323 11.7857
552 2 36.8456 25.7356 45.7281
553 2 13.958 9.90178 23.4721
554 2 7.81733 7.71968 52.8304
555 2 30.8519 6.32983 15.7944
556 2 21.5997 50.4429 16.4611
557 2 8.55978 17.6984 17.9193
558 2 53.0835 23.6582 13.5655
559 2 34.0027 6.45624 48.3948
560 2 20.6079 35.2033 53.5623
561 2 53.6902 14.3841 25.6421
562 2 8.61017 13.8725 17.1227
563 2 23.9046 44.0263 44.609
564 2 25.7861 20.937 7.55911
565 2 46.4919 48.1205 12.4797
566 2 42.0192 36.0614 52.9207
567 2 13.7728 44.863 22.6618
568 2 33.0825 50.8886 23.2291
569 2 44.1395 26.2049 49.3856
570 2 37.4597 22.4078 18.2242
571 2 51.4893 13.1655 10.7209
572 2 47.5744 49.8625 55.6701
573 2 31.6018 13.4017 48.6872
574 2 28.5998 50.9211 47.3185
575 2 24.2384 17.6046 54.4696
576 2 23.8733 51.8323 18.4422
577 2 25.4299 12.7144 33.445
578 2 13.3823 8.18081 40.6463
579 2 18.0354 31.2104 48.3362
580 2 13.5032 55.0396 19.3165
581 2 14.2603 17.5254 11.6384
582 2 36.7145 49.3167 54.4458
583 2 8.67301 12.7302 43.2797
584 2 43.8315 28.9125 23.1719
585 2 38.6219 12.9198 10.4466
586 2 9.91425 38.0252 43.6785
587 2 45.4449 46.5548 52.454
588 2 27.4812 49.1616 12.6995
589 2 31.4253 40.5482 7.84938
590 2 34.8029 32.2682 19.0605
591 2 39.5211 54.2813 26.3282
592 2 49.2139 27.0497 26.9103
593 2 16.4607 46.269 48.9855
594 2 28.1182 18.4978 52.5495
595 2 41.4507 18.2235 22.6643
596 2 35.4071 31.8256 34.7098
597 2 32.3648 53.5051 48.6439
598 2 29.5945 25.9718 18.2158
599 2 33.3053 20.2366 49.0553
600 2 10.1629 6.3292 11.6955
601 2 35.6276 45.7066 37.9223
602 2 39.3001 22.087 7.76939
603 2 24.9721 10.2968 35.9176
604 2 40.891 16.8033 8.74659
605 2 53.3325 41.2142 31.5524
606 2 17.5336 41.3211 30.5421
607 2 32.2672 45.8331 40.9595
608 2 50.9602 31.0906 50.942
609 2 39.4399 21.4593 37.3639
610 2 22.9269 15.4577 34.8426
611 2 44.9742 36.4612 20.9022
612 2 15.0146 11.9909 49.4244
613 2 11.7365 49.3229 43.0941
614 2 44.0989 23.0201 12.1129
615 2 13.3882 37.6173 40.3163
616 2 54.5551 24.4837 52.4115
617 2 11.5902 30.3806 10.0646
618 2 7.37948 24.8737 8.18789
619 2 23.6053 28.9039 33.8856
620 2 29.1445 7.82376 48.4626
621 2 22.0018 17.5878 38.8085
622 2 39.4623 38.2899 41.8263
623 2 21.8925 36.6003 48.8292
624 2 26.3998 17.501 36.0232
625 2 47.9386 46.7668 34.0695
626 2 18.9629 50.2412 36.008
627 2 49.6336 19.0366 22.7191
628 2 52.2724 22.8952 51.2916
629 2 12.4865 19.8387 12.6413
630 2 15.1065 50.3285 29.9411
631 2 46.7646 33.8716 38.2597
632 2 23.6635 39.8952 27.8936
633 2 53.8725 20.0736 33.1762
634 2 45.027 53.3721 21.2008
635 2 23.0734 19.5529 8.91171
636 2 44.3047 50.4422 55.2108
637 2 29.5263 16.9047 17.9263
638 2 32.5881 50.9924 27.7845
639 2 11.2266 50.8574 25.6782
640 2 28.5384 28.1942 16.4976
641 2 20.3633 42.0475 11.0188
642 2 30.1534 50.058 51.5246
643 2 38.0641 28.3022 26.6763
644 2 28.1613 25.5175 20.4185
645 2 32.0742 10.7056 17.6817
646 2 19.267 35.4861 45.9389
647 2 15.5135 41.5515 13.2237
648 2 19.2737 11.6192 9.21743
649 2 55.5883 30.9055 45.7227
650 2 41.3132 11.0823 26.451
651 2 55.7016 19.8109 43.7265
652 2 7.49086 19.5738 6.6051
653 2 39.9767 53.2524 13.4818
654 2 45.9895 24.287 40.2217
655 2 52.9373 15.0058 11.9189
656 2 39.7995 12.575 30.8193
657 2 38.616 14.8181 38.8732
658 2 44.6677 50.0833 36.7135
659 2 27.1285 12.0165 11.879
660 2 55.4135 54.5651 27.5506
661 2 34.9002 44.8539 29.0084
662 2 14.9495 14.6203 21.9869
663 2 51.6354 7.25391 29.0583
664 2 26.4517 22.884 26.7617
665 2 8.02834 37.9623 32.2929
666 2 12.4491 27.2668 53.9942
667 2 31.4568 20.2973 25.6392
668 2 49.4932 10.9851 14.0299
669 2 40.3823 47.2207 41.286
670 2 36.6919 22.074 38.7296
671 2 14.1291 15.7903 14.2525
672 2 8.50102 38.6846 24.8841
673 2 20.0234 47.238 24.8377
674 2 50.646 24.6502 14.8533
675 2 32.9974 36.6857 48.0964
676 2 30.2482 44.6388 47.2456
677 2 35.2231 24.1741 31.9736
678 2 43.6201 46.1132 37.6352
679 2 54.9323 46.3398 32.5885
680 2 19.0551 52.2776 50.4552
681 2 52.5276 44.7078 16.4055
682 2 39.4904 21.8691 44.3017
683 2 18.2959 18.5644 14.5415
684 2 12.7378 42.4285 48.0642
685 2 23.573 55.1402 11.8941
686 2 46.9447 16.4962 29.5036
687 2 35.4761 11.8571 34.3891
688 2 9.27393 48.7176 7.6051
689 2 41.9199 22.8254 51.079
690 2 35.0533 37.6696 42.0265
691 2 19.6259 26.9352 45.7102
692 2 19.7297 18.4899 22.1272
693 2 43.8639 50.1657 31.7866
694 2 49.6002 45.895 16.241
695 2 17.2971 6.78598 50.5029
696 2 30.1312 24.8687 24.2763
697 2 45.1039 54.8328 33.1427
698 2 40.5072 29.1562 11.013
699 2 41.3528 33.0652 7.98283
700 2 43.9369 16.5829 42.9188
701 2 51.1787 25.693 12.0026
702 2 11.1646 46.8386 48.3345
703 2 43.1812 30.9146 25.5147
704 2 21.4156 50.7607 9.30285
705 2 47.853 19.462 55.8007
706 2 18.0299 23.9568 13.1198
707 2 6.9016 50.1953 28.4428
708 2 10.0727 14.5999 29.2122
709 2 20.1854 38.0117 52.6164
710 2 46.0693 11.2565 9.74921
711 2 12.6823 20.3971 32.901
712 2 20.5706 52.2296 53.1787
713 2 27.5663 19.4228 15.2306
714 2 8.18217 51.4415 21.2688
715 2 51.3348 52.7917 27.5206
716 2 27.5877 25.2252 53.4942
717 2 16.6746 45.7311 36.6103
718 2 55.4389 13.2962 47.8811
719 2 14.3249 29.0919 50.3218
720 2 32.1316 11.3529 39.7321
721 2 48.2523 30.3445 33.8668
722 2 54.832 30.757 18.58
723 2 7.87631 16.7226 11.5095
724 2 27.3558 41.6586 31.8554
725 2 54.061 19.2398 23.9481
726 2 43.5784 24.1964 43.9252
727 2 12.7757 27.3282 34.3436
728 2 39.5711 40.5226 6.75653
729 2 35.7627 18.7664 27.3071
730 2 44.6876 53.7113 53.9553
731 2 23.3212 8.93102 33.0242
732 2 32.2839 22.4106 8.12573
733 2 26.7914 27.0032 31.1848
734 2 28.8123 9.69221 33.3044
735 2 55.7236 44.7659 54.5614
736 2 52.0979 38.6385 48.2642
737 2 16.8003 14.6741 45.9176
738 2 52.0145 28.135 17.0221
739 2 32.8014 17.3799 50.8478
740 2 19.91 24.6603 15.1348
741 2 16.8014 40.4077 54.7643
742 2 51.9125 54.5171 39.398
743 2 21.5067 38.1432 41.2285
744 2 20.735 17.2065 35.9083
745 2 45.3217 32.0004 20.7055
746 2 9.09064 46.9539 23.0398
747 2 41.5455 40.1934 42.9231
748 2 54.2716 54.8061 44.0928
749 2 51.9778 51.465 41.4121
750 2 25.4195 14.8967 37.3642
751 2 7.36474 25.7213 39.2046
752 2 6.38049 27.3143 25.1734
753 2 42.4131 30.4836 6.95554
754 2 31.4841 26.4318 28.939
755 2 8.31036 38.7213 27.6721
756 2 44.7271 23.7301 18.5564
757 2 54.8836 26.0473 36.4407
758 2 20.5954 50.8157 40.7681
759 2 48.7551 15.4977 8.25047
760 2 30.0442 45.9806 37.47
761 2 25.5164 16.0694 49.3671
762 2 15.6789 20.3832 24.7308
763 2 10.5112 40.2248 29.2912
764 2 52.3748 42.9781 54.6665
765 2 48.9598 11.7149 10.1617
766 2 10.5186 55.5426 19.2307
767 2 36.7571 18.3044 11.5725
768 2 19.1964 14.0217 27.3371
769 2 38.4682 25.5254 15.6498
770 2 6.92134 49.4323 50.5338
771 2 55.2472 54.3155 24.5424
772 2 34.3779 26.6204 24.0398
773 2 13.5467 39.6789 44.1655
774 2 9.6788 52.6464 42.8135
775 2 47.8237 49.5972 43.1393
776 2 14.2248 32.2016 35.2954
777 2 19.5582 43.0095 7.88351
778 2 53.3481 52.0048 50.5747
779 2 48.5321 44.1275 33.2703
780 2 42.6225 21.0218 37.7333
781 2 47.8815 14.0946 27.7201
782 2 21.7596 18.3006 24.5415
783 2 44.0004 11.9964 45.2099
784 2 52.0078 19.0079 16.7749
785 2 50.7461 36.8036 54.1255
786 2 20.4806 23.6847 34.6321
787 2 53.0018 41.8775 8.0068
788 2 10.819 50.3723 14.8619
789 2 25.4589 51.4945 44.7888
790 2 41.4306 30.4846 36.1448
791 2 44.0852 43.6874 24.7188
792 2 45.7684 38.6176 36.2687
793 2 46.6806 43.0314 46.0771
794 2 37.6598 37.8247 9.72278
795 2 51.5881 41.6825 41.1587
796 2 47.1192 25.2524 22.7515
797 2 43.4265 20.6003 25.5494
798 2 12.2831 39.5782 54.024
799 2 37.6286 34.9533 36.7892
800 2 28.6616 30.861 26.5761
801 2 51.6953 28.7837 34.0609
802 2 40.0012 28.8516 28.6289
803 2 33.1019 16.1736 17.3618
804 2 7.73374 51.4561 54.0484
805 2 12.9641 27.0327 23.4386
806 2 25.0752 36.4982 27.696
807 2 47.7911 33.9043 24.4847
808 2 51.6862 24.6164 27.3875
809 2 29.8531 48.9094 36.9376
810 2 29.0833 12.7805 36.371
811 2 31.452 54.1753 54.951
812 2 55.1839 49.7957 23.7773
813 2 27.3402 18.819 23.093
814 2 27.4674 8.99807 16.0437
815 2 27.5373 46.2342 14.1794
816 2 40.6915 37.0843 48.4657
817 2 22.6488 18.7747 45.224
818 2 10.6265 11.2802 11.0183
819 2 55.7422 13.8404 18.7511
820 2 24.8501 37.5088 15.057
821 2 41.3559 8.76754 8.61646
822 2 14.1043 24.104 45.7137
823 2 30.3283 43.9256 20.716
824 2 43.4643 7.04822 19.0414
825 2 54.0864 9.50952 41.5624
826 2 52.9657 32.497 20.2184
827 2 23.0996 43.6966 25.675
828 2 38.1248 14.4322 47.9972
829 2 11.9541 7.86929 15.7088
830 2 15.7438 37.2753 8.13047
831 2 9.37438 14.5139 26.3728
832 2 39.341 49.4301 43.5817
833 2 29.1186 34.1353 32.1803
834 2 55.0156 36.3215 45.7919
835 2 11.2402 42.9108 9.57191
836 2 37.7395 15.8741 32.9224
837 2 52.1664 7.46997 37.7408
838 2 18.0587 13.7911 10.7486
839 2 20.767 46.1121 38.5891
840 2 49.7979 46.1431 31.2311
841 2 35.366 30.5678 45.1129
842 2 12.7197 31.5261 43.9712
843 2 11.0889 22.8363 52.3779
844 2 8.50309 10.5399 24.3772
845 2 24.5076 40.0626 42.3414
846 2 31.2907 7.48556 55.3772
847 2 6.31963 47.6022 21.9591
848 2 31.1421 48.4971 46.5683
849 2 24.4869 33.8616 6.7718
850 2 18.4161 32.3464 26.1577
851 2 48.6798 27.0827 23.6358
852 2 22.7841 10.9206 55.5403
853 2 50.5136 47.756 42.6756
854 2 19.5854 42.1009 33.5695
855 2 41.3047 43.9046 28.029
856 2 18.9181 30.2691 39.6411
857 2 20.0696 23.3482 6.63005
858 2 33.564 42.032 46.5841
859 2 19.9809 37.8764 38.7349
860 2 38.1075 39.5591 39.1096
861 2 52.6827 52.2405 13.9958
862 2 22.0156 13.7681 22.8054
863 2 23.7888 15.8129 29.6816
864 2 35.716 40.4315 52.8869
865 2 23.8676 33.1731 9.54502
866 2 20.6618 7.85287 42.0011
867 2 18.4497 33.9785 17.4067
868 2 43.9107 38.9737 19.1668
869 2 41.6758 32.4777 22.7198
870 2 25.7031 19.3562 50.8022
871 2 15.4876 9.25692 39.0262
872 2 53.1382 35.911 30.6192
873 2 28.7262 23.4705 43.3098
874 2 10.1197 26.9486 38.0302
875 2 41.5873 39.5015 10.3353
876 2 52.8449 29.6734 43.012
877 2 36.5199 48.0197 22.2002
878 2 36.6971 12.1169 50.1057
879 2 28.645 53.6559 36.257
880 2 27.5861 30.1431 33.8328
881 2 18.8504 37.078 48.7583
882 2 34.537 36.2894 53.6689
883 2 16.6048 51.3073 54.6143
884 2 38.8051 49.0216 47.993
885 2 30.6331 50.0169 39.6172
886 2 26.0223 16.4243 39.9406
887 2 55.6233 51.0527 13.9014
888 2 50.7975 27.9056 8.16301
889 2 49.5346 33.7903 16.2967
890 2 53.9839 6.87426 26.5685
891 2 6.97161 9.9807 33.7146
892 2 55.7099 45.05 40.6881
893 2 53.1146 37.5916 44.3996
894 2 7.75952 29.9264 21.92
895 2 47.0422 41.285 34.0066
896 2 43.9388 35.5776 28.196
897 2 34.5612 32.9646 12.4994
898 2 22.5468 42.719 54.113
899 2 12.7353 42.6431 40.9402
900 2 6.40403 52.2142 40.1169
901 2 13.1186 48.4738 34.0501
902 2 16.6662 11.7323 37.6177
903 2 53.2978 49.7891 55.014
904 2 35.4317 32.2658 25.1191
905 2 11.4463 30.1723 25.552
906 2 27.0171 12.1066 48.6372
907 2 31.806 47.0148 33.604
908 2 50.2747 21.1115 55.6397
909 2 13.1205 19.8484 15.6308
910 2 41.189 14.3271 43.112
911 2 39.8222 28.7316 6.5218
912 2 14.4755 9.31358 27.7428
913 2 35.7905 30.9898 32.0738
914 2 42.0914 34.3614 14.6233
915 2 23.0576 48.8796 55.2466
916 2 24.7719 25.4829 42.1925
917 2 45.236 16.6257 15.3856
918 2 19.2265 13.9101 49.7738
919 2 28.4669 33.979 43.7683
920 2 6.79103 11.4533 36.9943
921 2 35.3977 43.1017 31.1691
922 2 17.8662 6.34808 41.5238
923 2 52.889 7.49258 19.829
924 2 51.9687 16.1908 50.7146
925 2 13.9195 26.0186 49.2959
926 2 51.2859 49.3144 13.7151
927 2 36.8665 52.918 32.3704
928 2 39.0573 44.5794 29.1528
929 2 35.1771 15.7184 21.125
930 2 35.9911 53.5454 15.6838
931 2 34.2913 45.6966 25.8843
932 2 26.3242 7.06033 55.014
933 2 46.6871 35.951 44.5476
934 2 32.4878 13.678 41.8228
935 2 35.3717 24.2963 36.3169
936 2 20.0516 39.0343 34.3494
937 2 35.0999 10.9946 54.7508
938 2 22.1709 13.4524 7.24345
939 2 15.131 55.7059 24.9893
940 2 30.2392 18.2367 42.3439
941 2 30.9772 6.9348 41.3506
942 2 12.6457 38.3455 11.0925
943 2 34.1198 28.6894 49.7712
944 2 9.67647 16.4039 40.5344
945 2 39.2826 24.9283 12.7263
946 2 44.9481 20.1539 30.1595
947 2 41.2982 47.2965 31.2397
948 2 36.3209 40.7472 32.7133
949 2 29.4645 12.1482 31.5604
950 2 7.28623 30.9821 33.9575
951 2 37.0269 40.5541 17.1543
952 2 43.7365 25.8261 24.3452
953 2 18.7423 40.2409 13.4815
954 2 31.7658 35.392 22.4715
955 2 16.6259 50.2991 37.6928
956 2 54.2971 11.181 26.3863
957 2 40.6076 41.8818 36.053
958 2 42.8868 39.2201 33.129
959 2 33.4005 37.4011 6.82773
960 2 42.451 31.8575 41.0608
961 2 55.7248 27.3549 32.1525
962 2 43.5748 27.811 41.0628
963 2 32.5401 43.6966 48.3532
964 2 39.277 37.6551 31.1047
965 2 38.2822 23.9362 31.7225
966 2 19.8466 21.5551 32.8658
967 2 43.9047 18.2486 32.9041
968 2 46.3349 27.8331 27.1327
969 2 28.3601 26.9887 10.4419
970 2 42.8031 14.348 8.66455
971 2 11.8564 18.0557 26.641
972 2 47.6157 24.1404 50.6139
973 2 7.98332 22.6247 49.5363
974 2 39.325 8.22793 15.9758
975 2 22.3348 33.2706 26.2616
976 2 29.1814 14.8395 32.6955
977 2 28.8316 15.736 9.7149
978 2 35.0489 27.6268 47.3566
979 2 29.9539 29.4644 18.8221
980 2 31.3308 53.5014 17.5798
981 2 52.509 21.4871 46.5298
982 2 24.8397 19.1055 16.5372
983 2 10.2849 49.4961 21.7037
984 2 26.5538 9.04757 30.9486
985 2 34.9924 18.9956 44.0077
986 2 47.5461 10.2125 23.8487
987 2 21.5659 10.4172 35.4889
988 2 22.3822 52.8983 44.3455
989 2 42.4769 53.135 27.4284
990 2 29.18 25.0283 46.6658
991 2 51.0246 9.48883 15.9363
992 2 44.0089 48.1504 43.8001
993 2 52.6505 16.3971 39.058
994 2 49.7209 9.13573 38.6789
995 2 17.723 21.905 23.6821
996 2 15.8703 16.2489 6.8849
997 2 38.0095 6.15757 14.105
998 2 44.1098 16.8781 22.7569
999 2 42.324 50.6379 44.8496
1000 2 55.5815 53.4767 20.2689
1001 2 55.4851 39.445 31.5255
1002 2 47.8027 36.3594 9.85882
1003 2 37.8534 30.7979 43.5815
1004 2 19.4365 45.3352 22.5181