ITEM: TIMESTEP
0
ITEM: NUMBER OF ATOMS
9088
ITEM: BOX BOUNDS xy xz yz pp pp pp
6.0834274315549255e+00 5.5847510360671187e+01 -5.7095062480006011e-15
6.0834274315549308e+00 5.5847510360671187e+01 0.0000000000000000e+00
6.0834274315549308e+00 5.5847510360671187e+01 0.0000000000000000e+00
ITEM: ATOMS id type x y z
1 2 20.3216 54.9063 38.7908
2 2 41.4854 45.0291 8.91475
3 2 29.5261 15.7987 46.4907
4 2 53.6803 51.3675 51.5891
5 2 50.1613 40.0868 54.6252
6 2 21.5631 33.9543 28.0229
7 2 53.0072 44.5228 45.1147
8 2 13.5759 15.676 40.9825
9 2 45.0361 27.7238 53.5441
10 2 38.7814 24.7568 55.4064
11 2 14.6042 15.9648 49.7625
12 2 41.9634 30.0088 21.2766
13 2 49.9904 54.0722 25.8724
14 2 35.3853 35.7884 6.17941
15 2 30.0775 14.8669 20.9754
16 2 24.0634 22.6878 27.9945
17 2 53.2069 42.7693 32.1273
18 2 20.8765 29.9391 55.4387
19 2 53.5901 38.229 49.9513
20 2 54.6509 38.996 40.3821
21 2 9.92605 25.4792 18.699
22 2 15.2933 29.2292 37.4467
23 2 11.6246 43.0617 31.1803
24 2 43.8639 46.8147 43.8826
25 2 27.1949 50.2616 25.3061
26 2 29.4895 13.8662 29.7427
27 2 18.8029 7.43841 16.1825
28 2 33.9695 50.7106 52.4158
29 2 6.57586 22.5132 32.4729
30 2 50.4311 16.341 21.1495
31 2 25.7398 54.0692 10.4642
32 2 45.8932 49.7282 47.6196
33 2 45.4071 16.7793 37.742
34 2 24.1882 41.2907 34.1573
35 2 18.2853 42.5947 12.9866
36 2 26.3891 9.26276 54.0998
37 2 24.0233 54.2528 42.6665
38 2 9.47953 12.1624 21.3551
39 2 18.3912 15.8227 49.7743
40 2 12.9805 44.9613 19.4693
41 2 36.7359 6.11747 37.7373
42 2 7.24436 10.7017 40.4081
43 2 53.7269 51.61 42.6571
44 2 15.0631 38.3837 21.4812
45 2 10.5137 30.4537 10.192
46 2 31.0137 17.5833 54.41
47 2 51.2049 8.44482 34.0539
48 2 16.4999 30.5021 24.2033
49 2 17.5551 46.5466 52.6374
50 2 36.6317 26.8556 19.0337
51 2 12.2309 36.4255 6.17399
52 2 11.459 35.4525 13.7155
53 2 53.2502 42.6283 7.78833
54 2 30.132 10.3553 20.912
55 2 51.2983 29.2298 51.3031
56 2 34.7609 49.3282 9.58987
57 2 37.1134 36.6712 43.897
58 2 38.1406 42.237 51.6415
59 2 52.1228 54.267 47.3984
60 2 37.7989 34.6724 13.9234
61 2 18.7779 37.3188 28.2341
62 2 11.0365 44.8472 38.7666
63 2 38.6714 46.1588 9.03646
64 2 54.7472 42.5066 48.9164
65 2 28.249 34.9067 46.8267
66 2 28.3283 18.1929 24.786
67 2 45.7251 54.2427 15.824
68 2 37.0311 25.764 49.7829
69 2 14.5539 48.6854 25.5808
70 2 42.6408 45.6915 6.24001
71 2 54.1984 45.0622 29.9146
72 2 20.6983 44.6301 47.4776
73 2 39.0143 44.9364 15.7198
74 2 12.2502 53.6379 19.2337
75 2 38.9491 18.9698 26.8927
76 2 40.9029 47.1007 15.7699
77 2 15.6635 19.0587 24.8736
78 2 28.4852 29.803 50.552
79 2 35.0366 15.345 25.8923
80 2 23.9863 9.87998 6.68076
81 2 21.1868 47.4915 21.3456
82 2 6.61208 14.6046 46.4129
83 2 6.91625 42.5267 22.3418
84 2 29.1795 42.352 8.84978
85 2 21.1161 47.9245 39.6744
86 2 19.4404 44.6105 27.4202
87 2 11.4534 38.9253 52.3819
88 2 49.8672 26.1024 10.7776
89 2 41.4472 54.4582 36.5787
90 2 13.3646 27.9011 17.6693
91 2 21.6302 16.292 37.9913
92 2 6.35051 20.5474 24.0861
93 2 41.255 9.12046 28.7211
94 2 31.2761 51.4499 51.713
95 2 27.9572 17.1849 44.2829
96 2 40.5664 53.6784 23.9608
97 2 26.1112 44.609 6.16948
98 2 7.12666 30.9509 45.8664
99 2 10.3103 17.7485 24.9871
100 2 42.3197 27.1209 21.7933
101 2 15.8653 36.0333 55.321
102 2 31.1419 9.5159 13.213
103 2 43.8598 33.4533 48.2611
104 2 7.13297 43.7429 38.8574
105 2 48.2962 34.1106 17.6622
106 2 37.6566 51.5009 24.6118
107 2 26.9121 12.0385 14.2051
108 2 18.3508 6.3842 45.0483
109 2 50.604 20.2696 49.4324
110 2 8.06734 37.0528 55.4547
111 2 51.6345 26.7263 53.1552
112 2 18.0505 33.7694 55.3878
113 2 24.6802 53.7919 50.0461
114 2 18.4698 12.9256 24.2992
115 2 24.1127 11.0552 22.9173
116 2 23.0186 14.9183 46.3144
117 2 12.0214 32.0248 40.344
118 2 13.7978 48.3376 11.696
119 2 45.8369 18.7177 50.3386
120 2 54.1168 45.9714 19.0471
121 2 45.6763 28.8357 41.7977
122 2 11.186 13.0316 6.11071
123 2 25.4255 18.0089 21.0368
124 2 11.2377 47.7319 55.261
125 2 44.0773 32.8561 10.0195
126 2 21.0483 12.6679 47.1248
127 2 48.4599 27.5949 38.4941
128 2 33.7394 50.0256 32.1801
129 2 14.4067 40.9708 12.1082
130 2 29.1598 36.9075 44.6408
131 2 40.0467 25.8628 13.1573
132 2 12.9623 15.5863 54.957
133 2 21.4409 47.3559 9.53394
134 2 7.84915 48.0191 40.7936
135 2 14.8961 12.183 44.0678
136 2 41.1145 13.9645 15.5307
137 2 52.1937 55.2166 24.3348
138 2 29.1893 29.5796 30.285
139 2 40.2283 27.1471 33.987
140 2 47.5182 46.9261 24.5855
141 2 27.417 43.0877 26.2379
142 2 10.327 17.3609 44.8245
143 2 31.295 30.7509 45.996
144 2 50.0673 24.9992 32.2138
145 2 23.4474 30.4003 20.9367
146 2 8.30083 20.0605 45.5849
147 2 17.311 53.7492 29.933
148 2 55.499 34.6048 49.2272
149 2 14.5006 28.1126 53.1208
150 2 53.8764 49.0037 37.8046
151 2 48.1119 52.547 10.1371
152 2 51.4823 20.0916 26.5367
153 2 52.8168 6.46769 6.55998
154 2 21.5217 33.059 37.6652
155 2 19.2597 20.2587 17.4996
156 2 16.3574 7.59088 9.2986
157 2 14.9588 15.7357 24.5259
158 2 31.1679 49.9488 22.8259
159 2 54.9947 19.8697 32.6939
160 2 11.6141 28.5143 7.5468
161 2 12.7547 47.5729 52.5078
162 2 25.4804 28.2408 17.025
163 2 27.2094 28.7329 35.7916
164 2 17.0056 14.5819 38.0935
165 2 14.1745 39.5426 33.5313
166 2 10.565 44.9733 50.6515
167 2 7.81988 8.18762 52.4059
168 2 41.4031 20.1672 46.94
169 2 19.644 47.3681 19.2694
170 2 47.5182 46.0614 19.9579
171 2 54.4125 17.5736 50.1965
172 2 50.2977 39.34 46.8364
173 2 44.5091 35.8415 34.8633
174 2 49.8057 27.5932 49.2998
175 2 50.8827 46.48 16.4653
176 2 29.3548 32.9367 41.7344
177 2 32.5653 11.1722 50.9933
178 2 16.7968 53.3156 35.1707
179 2 52.6998 7.29719 38.7721
180 2 41.6122 10.9178 25.9836
181 2 42.3905 36.0369 37.0081
182 2 23.7143 46.1089 20.7929
183 2 31.2776 54.4901 21.8529
184 2 40.7929 42.5044 17.8274
185 2 19.0941 36.5517 44.1652
186 2 36.0323 28.5412 52.2868
187 2 16.4034 55.2008 32.4118
188 2 32.8977 53.6313 39.3024
189 2 37.8856 7.95897 26.1743
190 2 16.3682 43.1633 49.6884
191 2 7.50705 13.955 14.5623
192 2 20.7347 22.5615 8.24474
193 2 38.0804 47.2256 36.7274
194 2 24.547 20.7496 23.3166
195 2 36.8719 37.3995 27.4281
196 2 14.5495 24.1009 20.0843
197 2 52.7282 24.5912 54.5273
198 2 24.1207 35.0742 16.0794
199 2 24.357 45.0996 11.6313
200 2 40.2183 6.54629 28.3178
201 2 43.3113 51.2817 9.2817
202 2 10.4995 38.0786 33.1571
203 2 7.76843 48.5353 19.0543
204 2 20.8535 17.0304 19.9248
205 2 7.17337 25.1632 42.2138
206 2 27.9581 32.091 9.89175
207 2 41.7416 14.3382 39.201
208 2 51.5871 13.8988 19.0152
209 2 38.8404 8.34247 47.8782
210 2 48.186 30.5856 9.89728
211 2 30.1414 42.3344 47.9072
212 2 25.3823 9.75078 25.5017
213 2 45.1729 17.6077 40.5922
214 2 45.6252 32.747 53.2269
215 2 43.9737 50.554 12.689
216 2 32.5721 47.2467 10.0551
217 2 37.8426 29.2527 31.0427
218 2 8.80336 44.8919 8.53927
219 2 37.9777 42.2325 15.9525
220 2 6.37676 41.8398 18.2796
221 2 54.9135 49.2721 18.4549
222 2 29.6049 25.7255 8.67493
223 2 14.9972 25.3441 55.0544
224 2 48.5705 51.9457 44.6697
225 2 54.9243 8.36707 36.6853
226 2 27.7202 18.6482 8.16533
227 2 33.4688 21.3808 13.995
228 2 13.695 14.7586 35.9682
229 2 14.4368 31.633 27.3099
230 2 12.9123 40.0617 19.4247
231 2 30.5331 45.3758 55.6155
232 2 16.5744 54.3387 54.8248
233 2 30.5055 12.112 7.48298
234 2 49.4787 16.6638 28.7951
235 2 35.2934 14.9131 33.3314
236 2 17.8254 15.5863 8.42172
237 2 6.33476 54.7094 26.098
238 2 24.9463 13.5894 48.7904
239 2 54.5287 47.6536 40.5177
240 2 41.2883 23.9245 30.9422
241 2 12.7894 11.0239 32.3782
242 2 13.7515 20.5942 55.629
243 2 6.93224 28.4639 41.8643
244 2 8.11028 53.1278 51.2003
245 2 28.9961 47.2419 19.2045
246 2 51.6137 42.9059 25.9611
247 2 37.4379 36.5976 10.9925
248 2 38.8451 50.7404 32.8192
249 2 31.6105 6.45147 14.5318
250 2 38.4641 30.193 41.6457
251 2 9.08084 39.5236 54.261
252 2 41.3339 33.0533 28.2116
253 2 49.5005 10.0824 47.6743
254 2 48.3653 39.602 27.5464
255 2 15.5119 8.66849 6.55803
256 2 48.4592 45.1705 44.7955
257 2 52.6418 30.5692 28.8852
258 2 54.1289 52.0963 26.5427
259 2 39.8519 49.5258 6.32214
260 2 20.877 12.5042 40.3336
261 2 43.0103 7.61617 12.8956
262 2 33.8586 28.2942 42.6517
263 2 6.41928 8.817 44.5126
264 2 41.0547 33.5637 52.6652
265 2 16.9281 54.6343 47.2251
266 2 44.0536 30.668 32.0353
267 2 40.3568 18.1075 39.727
268 2 43.667 55.6784 43.1068
269 2 10.2133 31.1139 6.94491
270 2 21.684 23.663 35.8263
271 2 50.2121 24.0996 35.8357
272 2 43.5798 40.1968 20.2345
273 2 9.9304 10.8033 35.651
274 2 21.8417 10.368 14.9943
275 2 36.0551 27.0077 35.3204
276 2 48.6968 48.1813 22.2686
277 2 32.2593 55.7398 17.4659
278 2 50.0646 47.4214 55.3765
279 2 36.718 15.2919 40.3114
280 2 19.592 39.6116 13.4973
281 2 16.9949 39.01 11.8126
282 2 16.6555 41.1927 22.0064
283 2 19.3561 46.3313 49.7619
284 2 50.7284 23.9377 28.5767
285 2 33.091 18.2177 23.4055
286 2 9.2902 37.073 12.6174
287 2 41.7473 44.0758 47.8205
288 2 40.8278 46.7791 51.7845
289 2 10.8667 32.6771 37.3303
290 2 41.5652 44.4779 44.7872
291 2 54.2093 24.6674 18.2087
292 2 43.8488 21.9942 52.5917
293 2 11.1713 32.6461 12.5885
294 2 47.8798 48.6087 13.1501
295 2 20.7173 41.7132 40.0705
296 2 6.83672 23.7857 9.68884
297 2 19.3562 19.8863 10.0301
298 2 41.6203 36.0204 12.5144
299 2 21.4566 15.6646 22.9505
300 2 28.442 26.6794 37.6605
301 2 25.2301 16.7704 44.9431
302 2 35.3631 23.1621 33.7341
303 2 12.2378 34.5706 33.4381
304 2 20.4498 36.0912 26.2623
305 2 17.2449 23.487 16.3869
306 2 35.1601 54.4239 35.5406
307 2 14.3758 36.5878 27.4985
308 2 8.08464 17.3089 27.2595
309 2 26.7323 22.1103 24.3601
310 2 46.9857 31.5568 46.7487
311 2 52.0983 43.6695 14.204
312 2 32.0737 31.8137 19.2462
313 2 14.522 13.4053 11.6694
314 2 32.0206 24.4733 47.2331
315 2 41.6946 8.38349 15.7585
316 2 38.7936 20.9908 13.3343
317 2 32.3923 32.1468 12.3869
318 2 54.9176 24.9211 22.8473
319 2 45.8659 11.1773 27.8479
320 2 40.952 44.2731 26.4212
321 2 35.433 30.6239 50.3796
322 2 50.9599 46.9511 41.5434
323 2 36.1002 40.6793 50.6289
324 2 33.5004 20.5743 17.519
325 2 14.7863 12.3283 27.4964
326 2 9.08676 16.3713 20.2217
327 2 24.2049 21.6521 32.1345
328 2 8.48224 11.7852 16.154
329 2 31.4874 27.7321 23.1268
330 2 24.75 14.0898 14.8227
331 2 39.6742 34.1152 16.2358
332 2 34.1872 30.8713 7.97007
333 2 6.22943 54.2725 30.7709
334 2 55.152 37.8714 32.4763
335 2 35.3114 26.6761 28.9367
336 2 17.6731 21.024 26.6118
337 2 12.0569 47.5113 41.0596
338 2 45.9427 39.8135 47.9989
339 2 24.7637 38.9253 15.2598
340 2 46.8689 54.6681 26.9202
341 2 51.7663 29.2925 42.4589
342 2 33.031 20.5154 29.6753
343 2 33.9415 42.5237 8.70968
344 2 46.5938 22.5203 30.1592
345 2 53.7503 29.6116 53.874
346 2 44.6639 26.6221 43.7191
347 2 47.8563 48.6175 41.3326
348 2 32.8278 7.95244 41.8902
349 2 14.8687 16.1576 46.8653
350 2 24.9897 31.3386 41.1384
351 2 40.4486 16.7098 47.2551
352 2 17.0531 21.9433 31.5008
353 2 17.4027 51.5137 53.2584
354 2 34.3179 34.1235 46.1555
355 2 9.82246 55.0647 20.4363
356 2 31.4226 51.8606 43.789
357 2 16.3857 11.2093 39.6826
358 2 40.0533 44.3063 42.2939
359 2 53.1663 43.1972 35.1318
360 2 54.7527 54.8055 54.0695
361 2 32.1435 25.0837 37.1758
362 2 10.3511 21.3906 50.4081
363 2 30.9625 31.8118 14.7979
364 2 9.48227 54.6476 15.6635
365 2 10.1656 30.8414 28.0421
366 2 53.7519 14.4104 34.0365
367 2 37.8313 53.4985 52.2337
368 2 8.60765 50.4966 29.2673
369 2 12.342 53.2483 30.8586
370 2 46.5439 34.7659 9.19908
371 2 49.6695 49.9457 6.20729
372 2 48.3108 19.425 15.8488
373 2 9.90268 7.72138 25.3947
374 2 27.3958 53.312 34.4789
375 2 18.3674 38.8711 51.7254
376 2 18.7389 27.1373 18.6951
377 2 51.8053 17.9822 53.7381
378 2 11.4068 8.1022 35.9649
379 2 8.35553 42.7062 30.2211
380 2 43.6255 8.65008 23.2117
381 2 51.1587 16.3103 12.1204
382 2 55.8453 43.8848 46.5192
383 2 47.0336 27.7294 14.2365
384 2 55.1337 51.5357 32.6895
385 2 48.5922 43.8778 53.1524
386 2 31.3754 54.5848 37.0266
387 2 34.7825 51.1459 38.3255
388 2 49.6776 31.7953 14.0307
389 2 55.6254 46.04 8.80192
390 2 52.5832 55.1083 43.2671
391 2 52.6046 50.3941 13.601
392 2 41.9422 48.0626 38.1636
393 2 26.9603 16.4145 15.2502
394 2 10.482 51.6637 53.8583
395 2 19.892 22.9416 15.6094
396 2 27.5393 28.0545 7.07485
397 2 50.4382 26.0167 14.8971
398 2 18.2544 51.1245 37.8204
399 2 23.5144 45.6478 33.017
400 2 55.3287 10.2215 15.1353
401 2 50.5549 34.63 46.4063
402 2 36.7969 24.9245 37.7887
403 2 48.0551 47.7002 17.2934
404 2 13.2918 20.8961 11.3723
405 2 9.00823 16.975 52.9697
406 2 17.7323 49.3933 55.1521
407 2 21.4696 7.28475 22.6899
408 2 25.6723 21.2589 13.3808
409 2 37.5992 53.6998 12.5592
410 2 42.0263 31.1546 37.09
411 2 8.40878 14.0192 27.6414
412 2 16.6037 39.6572 16.53
413 2 45.8101 54.098 22.3982
414 2 35.179 44.1917 34.8051
415 2 43.4429 33.2503 35.7703
416 2 35.0017 33.5435 52.2311
417 2 53.1756 28.1044 44.7447
418 2 54.4412 13.0446 6.08434
419 2 26.2037 35.7268 30.4416
420 2 6.62167 21.3874 48.2047
421 2 13.771 54.4581 39.0038
422 2 26.0147 53.7095 25.2928
423 2 31.8153 27.4812 20.0693
424 2 35.1733 6.37573 22.104
425 2 49.2768 42.1236 10.6197
426 2 11.2774 24.8108 50.158
427 2 18.1782 21.2221 41.0762
428 2 50.9504 22.1286 40.4464
429 2 11.2421 20.6714 17.8544
430 2 34.3686 45.1575 39.4567
431 2 12.707 10.9278 13.4088
432 2 10.4291 38.8505 41.3816
433 2 9.9482 16.5784 50.3656
434 2 48.5944 37.3176 55.0286
435 2 15.9183 33.894 27.2381
436 2 45.6148 9.77612 45.5715
437 2 9.60676 11.393 27.1139
438 2 28.0823 49.2451 37.4431
439 2 7.28664 39.6696 51.5557
440 2 44.7969 30.283 51.0653
441 2 22.7365 33.6805 14.0196
442 2 29.7131 20.1994 15.6719
443 2 40.6046 28.8222 29.2026
444 2 18.8355 41.8865 48.0971
445 2 36.3254 9.07592 38.9209
446 2 44.2036 10.0446 6.4857
447 2 14.7062 27.2506 21.7391
448 2 54.1552 15.537 18.2321
449 2 17.2269 31.1873 40.3044
450 2 10.9093 51.9252 27.741
451 2 42.9333 47.8116 41.1304
452 2 32.0807 37.1737 32.3103
453 2 7.83447 29.4172 26.7427
454 2 27.1822 16.7644 49.0278
455 2 35.1687 9.38273 50.1929
456 2 12.5529 33.4877 6.6958
457 2 10.0278 9.08154 14.7883
458 2 29.7123 31.4588 48.5955
459 2 38.4856 17.3196 55.6942
460 2 44.1451 28.8441 37.8828
461 2 17.8747 32.3336 11.0531
462 2 9.60612 46.2006 20.5589
463 2 38.5606 28.8449 47.2046
464 2 17.8831 32.3335 52.5811
465 2 40.7303 9.29874 37.214
466 2 20.0469 51.5823 10.8863
467 2 55.3611 27.1418 19.0655
468 2 27.3426 13.7564 47.402
469 2 38.9958 14.0912 47.0573
470 2 31.0275 9.8235 9.93841
471 2 26.1714 13.5196 7.16937
472 2 24.5493 32.7824 11.8207
473 2 36.2745 24.5621 31.3408
474 2 54.3375 33.7978 19.8247
475 2 25.7385 38.9117 47.0229
476 2 51.3265 34.4459 18.1828
477 2 21.3143 45.2548 17.6632
478 2 10.8354 44.0774 20.7081
479 2 24.3707 15.9198 24.4331
480 2 8.6654 24.1402 31.4526
481 2 6.94539 40.6704 31.9138
482 2 17.0857 29.7552 18.2764
483 2 43.8169 34.0866 16.9179
484 2 33.585 25.2342 54.8869
485 2 54.6126 20.9921 6.7652
486 2 32.5735 47.3139 48.9751
487 2 17.632 13.9786 44.2667
488 2 45.2905 21.2075 22.8088
489 2 41.3876 42.7559 52.4593
490 2 23.5227 50.2244 12.2604
491 2 22.5881 40.9993 54.8226
492 2 22.4584 30.0407 36.8422
493 2 28.721 35.922 41.5926
494 2 38.3535 17.4739 52.1439
495 2 49.6469 15.7455 39.1918
496 2 33.4415 18.5093 20.1939
497 2 40.9331 32.9348 49.8473
498 2 55.5302 10.4052 9.56136
499 2 39.9445 6.97576 40.1918
500 2 44.5215 24.9669 32.3802
501 2 52.9187 36.4935 19.5951
502 2 19.7851 50.239 28.5413
503 2 9.85015 12.6497 44.2962
504 2 13.3746 31.926 10.7756
505 2 9.61789 34.531 55.1877
506 2 53.2798 22.2321 35.3164
507 2 8.67442 22.9017 17.2059
508 2 38.4632 47.7821 45.8465
509 2 51.6021 52.9778 44.778
510 2 29.9272 25.9707 41.4561
511 2 15.2249 51.1423 26.4024
512 2 35.4516 18.1236 12.3742
513 2 19.7695 21.182 44.8968
514 2 37.1501 31.5851 53.3844
515 2 22.9798 43.5438 24.7947
516 2 29.3904 34.0416 21.9892
517 2 18.4168 36.5583 16.9641
518 2 16.7263 44.9073 17.0293
519 2 22.0225 12.4542 27.021
520 2 32.0017 32.2676 32.7523
521 2 48.6773 51.5284 41.712
522 2 17.0257 9.52331 33.4604
523 2 12.6857 11.6776 9.15126
524 2 28.1707 16.5857 55.2819
525 2 33.5474 13.0993 11.9751
526 2 18.4697 28.6028 41.7981
527 2 35.4215 40.5003 54.673
528 2 51.7438 39.6406 16.6373
529 2 25.8803 47.4208 26.291
530 2 33.0486 51.8958 24.9385
531 2 53.4477 33.0596 54.1665
532 2 21.7702 26.0424 39.6601
533 2 12.0894 10.8818 47.7189
534 2 10.3258 49.1559 51.255
535 2 45.3462 53.7259 9.16443
536 2 38.6652 36.1822 31.565
537 2 48.7542 17.9626 31.3311
538 2 9.84219 10.248 31.3484
539 2 45.375 14.434 31.7261
540 2 28.8495 44.6308 37.5284
541 2 41.5959 17.4346 23.6431
542 2 13.9157 47.5374 21.2825
543 2 23.5731 47.8187 54.8873
544 2 17.2975 17.4638 43.6415
545 2 7.52926 7.79528 28.6987
546 2 15.0564 38.4917 14.1535
547 2 53.3109 42.7711 16.4887
548 2 40.8033 37.566 8.09934
549 2 39.7053 27.3846 55.3022
550 2 32.7121 15.3599 10.6701
551 2 47.4657 17.3608 47.8762
552 2 29.0377 16.064 32.3646
553 2 6.28515 50.1166 9.56298
554 2 49.7825 47.8536 39.1783
555 2 22.9608 46.1272 51.8114
556 2 13.6562 40.6859 52.658
557 2 50.6886 7.90323 54.1375
558 2 45.2975 13.5452 49.4032
559 2 26.166 46.3634 34.8834
560 2 12.9592 24.9489 39.5813
561 2 46.1188 54.2248 11.7853
562 2 50.5633 53.9121 53.1765
563 2 15.9584 34.1143 30.9258
564 2 18.0339 10.6666 43.6503
565 2 38.8954 38.5958 48.5343
566 2 34.2945 26.2165 39.5379
567 2 55.7214 35.231 8.78543
568 2 25.1666 41.2329 9.59398
569 2 36.2504 16.4606 35.6137
570 2 29.3458 12.3678 54.3609
571 2 43.8302 53.3921 47.0039
572 2 39.959 39.9928 41.8641
573 2 24.303 53.6104 35.2217
574 2 20.9255 40.9547 33.4542
575 2 16.2168 7.77634 40.7889
576 2 15.8225 42.1269 54.6285
577 2 17.7241 52.7263 19.7045
578 2 55.2187 48.2686 26.751
579 2 10.0922 21.4438 34.4846
580 2 55.4395 45.3237 55.0799
581 2 6.3579 7.57893 47.8103
582 2 29.192 39.541 40.7407
583 2 50.6196 52.8713 29.9284
584 2 36.1281 18.959 9.35054
585 2 30.9835 52.626 46.5101
586 2 51.7298 28.3235 30.1245
587 2 37.6889 36.7424 38.6659
588 2 19.2732 38.9083 48.4886
589 2 23.2215 31.0005 44.0717
590 2 27.1822 22.7504 55.1157
591 2 31.5045 44.5584 12.6959
592 2 41.5133 17.3469 13.2238
593 2 8.7969 36.692 35.272
594 2 20.1659 8.47211 38.247
595 2 33.3964 8.17622 9.21009
596 2 27.5035 21.9762 20.9462
597 2 24.59 43.6013 35.0362
598 2 21.6759 16.2756 53.9062
599 2 24.8487 10.6367 34.9133
600 2 52.2879 46.3484 47.5364
601 2 27.4649 36.0831 23.9094
602 2 31.5084 12.1472 43.9216
603 2 17.0577 50.1938 22.2225
604 2 33.4737 7.04162 45.0129
605 2 45.1613 31.6866 17.7629
606 2 9.4694 31.3463 16.4751
607 2 24.5228 35.9158 26.9099
608 2 43.2688 21.4856 37.3755
609 2 31.602 11.5684 23.5827
610 2 15.0184 55.7036 21.0324
611 2 37.2126 26.4965 7.21405
612 2 7.07717 52.0785 35.5911
613 2 53.8592 39.3341 29.2087
614 2 36.4336 13.2994 48.5099
615 2 55.0383 27.7423 26.5425
616 2 46.7535 14.9414 38.9662
617 2 53.9937 20.5269 46.1311
618 2 49.2569 14.977 44.2695
619 2 15.8748 18.9999 20.2771
620 2 21.2395 47.4038 34.9202
621 2 14.5482 7.82363 24.9164
622 2 31.6375 28.7328 28.0922
623 2 13.9046 26.9366 35.1491
624 2 18.5588 7.82409 22.4137
625 2 39.8813 37.0146 20.4506
626 2 11.2837 40.5345 22.0786
627 2 41.9475 9.31218 9.11866
628 2 44.1439 13.1901 37.8609
629 2 54.6038 10.1764 48.7848
630 2 7.22889 40.3241 15.9548
631 2 39.0076 24.2559 24.4564
632 2 15.6262 29.7204 14.2558
633 2 46.1693 10.3135 19.6763
634 2 37.0372 43.5732 7.61851
635 2 15.5037 9.42067 44.8236
636 2 36.7471 40.5452 41.5744
637 2 21.6371 7.44854 53.7655
638 2 25.0601 41.3142 14.0467
639 2 53.0601 41.2847 11.9868
640 2 20.7393 18.6506 52.3689
641 2 12.5714 32.1896 47.2361
642 2 22.5459 40.1857 37.6024
643 2 30.0716 18.7704 13.0414
644 2 20.4071 15.3338 6.38342
645 2 24.5459 50.7273 53.4343
646 2 11.2906 25.739 32.3647
647 2 7.54646 31.6654 49.4281
648 2 11.7162 51.9959 45.0599
649 2 48.1403 20.8658 32.3012
650 2 33.7302 50.9831 13.047
651 2 47.7949 10.4218 29.6894
652 2 49.5682 9.75496 42.4388
653 2 32.2304 43.4899 49.7228
654 2 38.1947 14.2892 26.2766
655 2 45.4196 54.7912 48.3286
656 2 32.2373 52.7612 16.9925
657 2 30.9494 54.806 25.0327
658 2 36.8099 40.5453 22.9406
659 2 19.1168 52.0938 47.963
660 2 47.8853 44.7442 13.7312
661 2 26.999 35.4361 15.3043
662 2 6.99897 54.6567 8.24134
663 2 43.8798 46.9662 15.2024
664 2 18.7088 12.9074 13.0437
665 2 49.6965 28.324 18.5757
666 2 54.7844 17.3201 40.1848
667 2 23.6437 10.5154 12.0349
668 2 41.8207 50.8165 50.1361
669 2 32.3123 37.3607 27.0638
670 2 29.0103 12.2383 25.266
671 2 6.46328 55.8182 50.3989
672 2 50.3431 28.76 11.009
673 2 11.9258 37.4309 11.3285
674 2 43.253 15.0104 51.0193
675 2 25.1167 26.9495 34.1231
676 2 22.631 34.612 33.5625
677 2 27.303 14.7205 18.5514
678 2 35.5801 36.1648 23.8856
679 2 47.1511 36.5963 18.9035
680 2 11.4629 42.8652 36.7753
681 2 45.2121 35.6542 51.7871
682 2 31.3106 12.0609 30.812
683 2 10.4226 8.66875 50.5103
684 2 54.8431 33.1685 34.5271
685 2 15.8813 45.5054 47.796
686 2 38.9471 6.63082 15.8866
687 2 27.9182 51.6818 20.932
688 2 51.6297 39.0687 43.571
689 2 33.9024 12.955 37.444
690 2 27.3086 28.1376 28.4221
691 2 11.7192 17.2345 31.8894
692 2 11.9138 8.97771 8.22282
693 2 36.0351 40.6171 17.8879
694 2 42.2717 36.3359 52.1812
695 2 9.56006 46.9276 36.7744
696 2 22.4985 15.135 10.3662
697 2 37.1895 45.253 19.444
698 2 32.7811 19.7486 47.0948
699 2 33.5895 23.3295 44.5673
700 2 36.3716 6.84359 29.1006
701 2 43.4416 15.8253 47.9348
702 2 53.3625 37.1738 34.9089
703 2 35.255 21.2877 11.4263
704 2 13.3771 41.0455 45.8133
705 2 40.0343 9.55479 42.1417
706 2 10.0219 14.1939 49.1153
707 2 48.8322 40.5955 15.0179
708 2 51.935 54.7865 15.6103
709 2 12.7141 28.2101 38.6263
710 2 38.3878 51.0124 46.2607
711 2 54.5227 10.4538 19.2262
712 2 13.0829 42.5262 39.2304
713 2 19.7006 9.43999 51.2919
714 2 49.8841 41.627 7.76377
715 2 43.4276 43.0569 13.7074
716 2 19.6818 15.3482 39.7837
717 2 8.95958 35.9199 22.6341
718 2 47.4471 53.382 34.143
719 2 6.5542 19.052 36.4637
720 2 24.3293 51.5172 25.7632
721 2 40.2944 20.5296 20.123
722 2 46.9878 20.4382 54.4524
723 2 50.0718 6.95397 47.5058
724 2 19.8051 31.7869 18.3993
725 2 46.4706 9.23212 10.6846
726 2 35.316 14.6624 30.0249
727 2 54.6934 17.9232 20.6826
728 2 31.6884 30.6648 42.614
729 2 28.0685 8.89465 13.5781
730 2 36.6705 44.0243 40.3474
731 2 15.3157 49.2825 19.2059
732 2 24.3112 12.7032 44.3029
733 2 19.2082 17.4488 17.5835
734 2 21.1217 49.894 19.3931
735 2 47.7714 34.9805 40.7398
736 2 44.7242 29.1639 34.5237
737 2 9.0148 54.6861 32.0478
738 2 44.2357 18.5789 53.3084
739 2 25.0998 7.56787 37.6321
740 2 12.3666 15.071 51.2482
741 2 8.93896 30.7804 40.9941
742 2 44.0862 44.8824 25.8382
743 2 13.7348 28.3861 27.4521
744 2 12.9024 7.66366 22.2668
745 2 38.0727 22.3687 6.60679
746 2 50.8917 37.0749 9.16718
747 2 33.774 30.7011 28.9948
748 2 46.5425 45.341 30.2813
749 2 44.0531 41.3461 27.6734
750 2 17.5039 54.739 23.9634
751 2 49.1737 16.2144 25.3547
752 2 48.5782 17.6708 11.6534
753 2 34.5891 20.9625 43.1954
754 2 23.5999 16.7518 15.1203
755 2 50.1615 29.0687 13.7618
756 2 37.2372 14.0687 54.4828
757 2 47.0558 16.1021 22.8098
758 2 12.773 41.2256 26.9491
759 2 40.9015 55.3754 44.4108
760 2 22.3248 36.2081 23.5765
761 2 17.324 6.4422 35.3559
762 2 7.62057 10.618 11.3238
763 2 52.3066 30.2754 15.3607
764 2 44.5621 32.7864 40.9856
765 2 41.5418 51.6101 46.202
766 2 52.5738 45.9792 55.3112
767 2 29.0233 8.40582 47.4577
768 2 11.6072 53.9917 13.6602
769 2 31.2336 15.9317 51.2898
770 2 49.0047 39.7192 37.1441
771 2 47.3876 44.693 10.8163
772 2 26.6337 16.7586 10.5555
773 2 55.6279 29.942 30.5513
774 2 51.7582 43.0369 29.2023
775 2 40.1483 39.9651 29.3327
776 2 6.67908 22.3896 21.8378
777 2 11.7463 33.3377 43.7491
778 2 45.6063 42.3677 36.4446
779 2 40.3883 34.2751 19.9084
780 2 34.8234 11.1114 24.1696
781 2 40.1057 54.0077 14.3233
782 2 13.7015 8.53175 10.8603
783 2 36.2336 51.4778 31.5829
784 2 44.1777 9.54043 52.6696
785 2 42.7659 27.0218 40.4839
786 2 12.8409 13.7213 21.1959
787 2 45.3883 31.984 44.5988
788 2 52.7062 40.803 50.7129
789 2 17.9611 41.6375 30.952
790 2 33.5053 20.8817 22.4034
791 2 36.4258 33.566 11.0958
792 2 37.8689 29.3367 22.7641
793 2 38.897 33.1907 32.4298
794 2 29.9314 28.0555 46.0185
795 2 43.7976 31.7204 27.9007
796 2 39.4269 15.4123 9.20884
797 2 35.8637 10.7055 11.8777
798 2 54.3485 30.1547 40.3424
799 2 29.6158 25.3065 23.1266
800 2 21.0432 21.0317 12.6681
801 2 43.5669 19.0613 19.769
802 2 32.1711 18.8734 15.3629
803 2 26.3137 55.2549 51.9398
804 2 49.9239 41.6612 40.3474
805 2 55.2208 17.4656 10.2226
806 2 17.3004 26.8099 13.6141
807 2 39.7689 24.3107 10.6439
808 2 43.5932 14.715 13.6161
809 2 22.1598 39.3747 23.0294
810 2 21.2748 52.8771 22.6262
811 2 23.8292 44.3791 41.4284
812 2 47.3779 40.0076 9.95443
813 2 19.3729 8.90657 9.48107
814 2 19.7695 48.9848 52.4859
815 2 19.6629 36.5745 50.4647
816 2 33.0415 27.4185 34.7485
817 2 14.5105 8.85824 31.3455
818 2 52.8605 51.2853 46.9588
819 2 47.7302 53.9843 54.7105
820 2 16.9929 27.9342 51.4291
821 2 33.6392 49.0607 44.695
822 2 6.24291 14.46 32.0628
823 2 22.4455 34.0999 6.86464
824 2 35.5842 47.1009 55.1333
825 2 46.5749 49.732 28.1861
826 2 45.3692 22.7811 6.55383
827 2 15.2135 33.7798 12.0526
828 2 30.5518 53.8766 34.0917
829 2 53.8332 48.0507 51.7137
830 2 8.0109 27.4075 44.2041
831 2 51.2273 54.3246 12.618
832 2 31.419 39.5467 30.0479
833 2 21.1928 24.2951 18.4208
834 2 47.5176 26.5677 31.9589
835 2 53.5111 33.0408 45.8023
836 2 30.1571 55.8472 19.4742
837 2 44.3218 47.6511 24.1972
838 2 10.2831 53.8164 46.7706
839 2 12.7132 36.4533 24.8353
840 2 41.822 36.3768 17.5551
841 2 27.3207 20.9036 31.5277
842 2 54.4544 21.9364 30.3741
843 2 53.1726 13.1478 38.2592
844 2 50.6491 50.4155 10.3776
845 2 16.7606 30.3908 28.6944
846 2 23.6374 47.3763 41.7266
847 2 47.7579 37.7063 8.13178
848 2 23.4693 38.887 33.1378
849 2 16.6233 24.2744 42.9211
850 2 10.4 22.4317 12.2412
851 2 40.8888 17.4782 10.1203
852 2 15.0283 51.0405 42.0047
853 2 42.7191 37.9239 29.1075
854 2 11.8761 32.7197 19.6264
855 2 33.516 34.3655 14.2159
856 2 10.9044 20.2955 25.8093
857 2 12.4621 13.3261 42.6005
858 2 25.6832 32.2704 32.8369
859 2 12.011 28.008 25.0174
860 2 30.2634 29.6718 25.309
861 2 45.0296 42.3834 50.3065
862 2 14.3523 54.0346 8.99407
863 2 15.8525 55.8318 15.8532
864 2 28.005 30.3412 39.1122
865 2 16.2029 23.5678 45.7139
866 2 13.1645 47.8861 28.3726
867 2 11.0492 23.9098 53.5712
868 2 35.9537 29.118 55.4089
869 2 34.1928 22.4108 8.78269
870 2 17.9626 9.92617 37.2539
871 2 7.886 49.4434 25.4273
872 2 45.391 26.2602 16.4656
873 2 20.9231 13.8224 29.3974
874 2 52.0167 17.2373 24.4684
875 2 33.8801 29.6992 46.3704
876 2 45.0988 19.9018 29.1563
877 2 28.7066 38.0209 8.64077
878 2 29.1219 52.3419 36.5206
879 2 21.194 44.0337 22.1103
880 2 19.7686 20.1858 20.3058
881 2 11.1107 27.2581 35.3231
882 2 26.575 26.6583 40.3611
883 2 8.75405 41.7495 40.9866
884 2 31.1884 39.2248 34.3429
885 2 22.5044 40.1748 25.5081
886 2 18.2526 6.60901 26.4366
887 2 47.9135 41.2504 49.9972
888 2 43.029 17.8379 44.0907
889 2 41.4685 24.0698 52.4695
890 2 45.9842 46.6303 12.6668
891 2 48.7674 50.1326 20.0715
892 2 47.55 35.535 26.7493
893 2 45.0215 27.7429 30.2905
894 2 49.7155 20.1149 8.26182
895 2 38.9119 31.4214 20.3918
896 2 36.1315 25.8748 14.1878
897 2 27.0225 23.4154 48.6633
898 2 14.8984 33.425 40.1965
899 2 54.5363 32.713 26.9865
900 2 48.1948 42.4278 26.4686
901 2 55.0603 38.6246 20.383
902 2 8.85962 51.7158 23.767
903 2 45.201 40.3021 41.3451
904 2 27.5278 22.7972 11.3857
905 2 53.8472 20.0393 11.812
906 2 19.2244 51.9392 35.3136
907 2 24.016 37.267 19.6374
908 2 42.4063 11.109 42.0238
909 2 55.0563 9.83215 51.8978
910 2 33.3549 54.3848 29.3717
911 2 32.0154 19.1485 42.3119
912 2 6.7036 49.2652 14.052
913 2 27.8837 21.018 18.3742
914 2 34.6659 24.4957 50.8129
915 2 15.309 39.1778 41.4684
916 2 16.988 15.3622 28.3086
917 2 37.7063 7.17033 51.74
918 2 11.3965 54.0226 35.8399
919 2 20.2696 24.1254 30.1781
920 2 48.6509 51.3757 23.2737
921 2 27.8092 33.3239 17.4651
922 2 10.1334 46.6777 28.0132
923 2 45.1442 47.4367 6.1507
924 2 43.8697 6.73022 37.0935
925 2 6.27009 16.5054 35.4576
926 2 43.3093 39.8855 49.588
927 2 29.3591 42.9949 18.7928
928 2 30.9458 34.6299 15.1882
929 2 27.3526 55.5715 7.13746
930 2 28.2367 44.0045 51.8527
931 2 26.1822 35.7165 11.9511
932 2 18.7942 47.0675 41.447
933 2 38.8584 26.1915 31.1552
934 2 24.5544 53.8526 28.3174
935 2 27.6707 14.1513 23.1794
936 2 11.9471 29.1155 20.4346
937 2 27.4191 50.3867 40.8328
938 2 14.3342 53.6697 43.3024
939 2 7.31671 45.8668 11.3061
940 2 22.3651 8.89215 28.5832
941 2 23.0198 46.9695 27.6273
942 2 54.8768 28.675 47.2725
943 2 26.1157 18.647 36.1783
944 2 51.3216 6.64319 26.7671
945 2 31.5029 15.4154 48.3916
946 2 37.1306 10.4512 16.4003
947 2 33.5201 37.4754 17.3742
948 2 28.5068 31.0347 19.4924
949 2 21.794 52.2503 17.5897
950 2 49.2594 21.1873 20.3919
951 2 29.0478 30.812 53.3548
952 2 35.6248 15.5751 10.7706
953 2 11.0196 30.5823 49.5219
954 2 24.329 25.4136 8.21228
955 2 8.60292 40.4991 23.837
956 2 47.1103 51.1768 12.7229
957 2 32.4967 31.8715 22.6072
958 2 35.0775 29.3127 19.5314
959 2 25.4652 27.7421 43.0791
960 2 34.4099 22.1128 27.2895
961 2 48.186 17.5793 18.7415
962 2 35.5433 18.1515 27.0952
963 2 24.9906 33.8372 35.1388
964 2 31.5256 27.8764 17.0112
965 2 30.1117 14.2684 18.1858
966 2 11.7369 11.8196 19.4949
967 2 36.2031 8.60235 19.0596
968 2 38.4945 17.7566 13.2762
969 2 20.5793 17.0042 46.4759
970 2 35.1942 54.2365 45.1818
971 2 54.2282 8.09436 13.181
972 2 39.7822 14.5236 37.0106
973 2 49.9873 12.8275 35.9679
974 2 31.5229 48.2762 52.0235
975 2 14.4877 23.599 12.4276
976 2 21.4668 54.9743 18.8973
977 2 21.1885 55.5558 45.7055
978 2 27.3927 18.1371 33.9068
979 2 21.9267 19.3747 54.8869
980 2 23.6441 43.7628 53.8515
981 2 44.7432 11.7436 32.8128
982 2 16.9398 9.47409 52.663
983 2 51.9607 39.8779 7.96263
984 2 18.5935 49.1946 17.2096
985 2 27.2235 9.05783 30.5898
986 2 40.1118 50.2229 10.417
987 2 13.8788 50.4249 21.7157
988 2 14.8849 43.2892 30.6092
989 2 34.4397 43.5179 13.5885
990 2 21.3866 15.0186 32.8462
991 2 43.38 49.6061 52.337
992 2 36.0546 38.486 30.2983
993 2 44.4703 6.61578 25.4404
994 2 42.049 49.2322 25.1087
995 2 9.67371 12.1543 10.332
996 2 8.12349 6.52458 42.6116
997 2 30.207 46.2406 50.2699
998 2 35.893 6.79016 9.35616
999 2 34.7326 40.827 31.1644
1000 2 47.6371 43.8733 6.43723
1001 2 47.5435 29.8996 17.9173
1002 2 40.2208 26.308 45.872
1003 2 30.2288 21.3235 29.9355