units           metal
boundary        p p p
atom_style      atomic
read_data    ../../data/data.T${T}
read_data    ../../data/data.T880
  triclinic box = (6.04882 6.04882 6.04882) to (55.8821 55.8821 55.8821) with tilt (-5.71745e-15 0 0)
  3 by 3 by 4 MPI processor grid
  reading atoms ...
  9088 atoms
  reading velocities ...
  9088 velocities
  read_data CPU = 0.038588 secs
mass            1   58.693  #Ni
mass            2   92.906  #Nb
pair_style      eam/fs
pair_coeff      * * v1_18_NiNb_B2.eam.fs  Ni Nb
change_box all triclinic
  triclinic box = (6.04882 6.04882 6.04882) to (55.8821 55.8821 55.8821) with tilt (-5.71745e-15 0 0)
timestep 0.01
thermo ${iStep}
thermo 1000000
reset_timestep 0
thermo_style custom step temp pe etotal press vol lx ly lz
fix             1 all nvt/sllod temp ${T} ${T}  0.1
fix             1 all nvt/sllod temp 880 ${T}  0.1
fix             1 all nvt/sllod temp 880 880  0.1
thermo_modify flush yes
fix nodrift all momentum 1  linear 1 1 1
fix com_seed all recenter INIT INIT INIT shift all
fix dsf all deform 1 xy  wiggle 1.0  ${f}   units box  remap v
fix dsf all deform 1 xy  wiggle 1.0  1000000   units box  remap v
fix ps1 all ave/time 1 ${aveStep}  ${iStep} c_thermo_press[1] c_thermo_press[2]  c_thermo_press[3] c_thermo_press[4]  c_thermo_press[5] c_thermo_press[6]  file  stress.${T}
fix ps1 all ave/time 1 10000  ${iStep} c_thermo_press[1] c_thermo_press[2]  c_thermo_press[3] c_thermo_press[4]  c_thermo_press[5] c_thermo_press[6]  file  stress.${T}
fix ps1 all ave/time 1 10000  1000000 c_thermo_press[1] c_thermo_press[2]  c_thermo_press[3] c_thermo_press[4]  c_thermo_press[5] c_thermo_press[6]  file  stress.${T}
fix ps1 all ave/time 1 10000  1000000 c_thermo_press[1] c_thermo_press[2]  c_thermo_press[3] c_thermo_press[4]  c_thermo_press[5] c_thermo_press[6]  file  stress.880
dump            1 all custom ${dumpStep} dump.${T} id type x y z
dump            1 all custom 100000000 dump.${T} id type x y z
dump            1 all custom 100000000 dump.880 id type x y z
dump_modify 1 sort id
run ${runStep}
run 500000000
Neighbor list info ...
  update every 1 steps, delay 10 steps, check yes
  max neighbors/atom: 2000, page size: 100000
  master list distance cutoff = 8.9
  ghost atom cutoff = 8.9
  binsize = 4.45, bins = 12 12 12
  1 neighbor lists, perpetual/occasional/extra = 1 0 0
  (1) pair eam/fs/intel, perpetual
      attributes: half, newton on, intel
      pair build: half/bin/newton/tri/intel
      stencil: half/bin/3d/newton/tri
      bin: intel
Per MPI rank memory allocation (min/avg/max) = 6.904 | 6.984 | 7.05 Mbytes
Step Temp PotEng TotEng Press Volume Lx Ly Lz 
       0     883.2432   -55854.688   -54817.242    535.99064    123753.82    49.833288    49.833288    49.833288 
 1000000    861.97411   -55805.981   -54793.518    1583.4686    123753.82    49.833288    49.833288    49.833288 
 2000000     880.1444   -55823.019   -54789.213    1139.9024    123753.82    49.833288    49.833288    49.833288 
 3000000    879.32369   -55848.877   -54816.035    690.28968    123753.82    49.833288    49.833288    49.833288 
 4000000    888.94207   -55833.628   -54789.489    1177.7878    123753.82    49.833288    49.833288    49.833288 
 5000000    879.50551    -55810.22   -54777.164    1488.6043    123753.82    49.833288    49.833288    49.833288 
 6000000    878.46241   -55837.846   -54806.016     928.5356    123753.82    49.833288    49.833288    49.833288 
 7000000    872.32152   -55825.301   -54800.683    1320.6724    123753.82    49.833288    49.833288    49.833288 
 8000000    870.97128   -55837.985   -54814.954    351.75797    123753.82    49.833288    49.833288    49.833288 
 9000000    882.29628   -55823.052   -54786.719    2190.7205    123753.82    49.833288    49.833288    49.833288 
10000000    885.55734   -55852.296   -54812.132     418.0427    123753.82    49.833288    49.833288    49.833288 
11000000    881.02017   -55830.064   -54795.229    992.04912    123753.82    49.833288    49.833288    49.833288 
12000000    877.77073   -55827.574   -54796.556    971.93844    123753.82    49.833288    49.833288    49.833288 
13000000    887.35529   -55825.991   -54783.715     1408.252    123753.82    49.833288    49.833288    49.833288 
14000000    877.54156   -55844.801   -54814.052    556.43943    123753.82    49.833288    49.833288    49.833288 
15000000    886.53154   -55848.574   -54807.266    510.21855    123753.82    49.833288    49.833288    49.833288 
16000000    884.79988    -55832.47   -54793.195    1141.3591    123753.82    49.833288    49.833288    49.833288 
17000000    860.79166   -55822.905    -54811.83    1420.1825    123753.82    49.833288    49.833288    49.833288 
18000000    890.29475   -55836.339   -54790.611     1334.922    123753.82    49.833288    49.833288    49.833288 
19000000    878.48788   -55844.422   -54812.561    849.19342    123753.82    49.833288    49.833288    49.833288 
20000000     870.8325   -55846.513   -54823.645    441.86545    123753.82    49.833288    49.833288    49.833288 
21000000    873.94433   -55843.084    -54816.56    884.84452    123753.82    49.833288    49.833288    49.833288 
22000000    889.11711    -55827.16   -54782.815     1429.878    123753.82    49.833288    49.833288    49.833288 
23000000     866.5965   -55834.704   -54816.811    1355.8926    123753.82    49.833288    49.833288    49.833288 
24000000    873.67564   -55832.905   -54806.697    1583.9519    123753.82    49.833288    49.833288    49.833288 
25000000    880.56847   -55843.887   -54809.583    892.40534    123753.82    49.833288    49.833288    49.833288 
26000000    876.78482   -55819.588   -54789.728     1298.936    123753.82    49.833288    49.833288    49.833288 
27000000    866.57367   -55829.215   -54811.349    1247.9513    123753.82    49.833288    49.833288    49.833288 
28000000    876.28749   -55832.408   -54803.132    1415.7583    123753.82    49.833288    49.833288    49.833288 
29000000    884.61659   -55838.786   -54799.727    1150.8782    123753.82    49.833288    49.833288    49.833288 
30000000    888.11895   -55828.744   -54785.571    1365.1907    123753.82    49.833288    49.833288    49.833288 
31000000    880.66205   -55836.968   -54802.554    1043.4254    123753.82    49.833288    49.833288    49.833288 
32000000    877.15766   -55826.207   -54795.909    1017.7896    123753.82    49.833288    49.833288    49.833288 
33000000    871.19826   -55831.516   -54808.218     813.3708    123753.82    49.833288    49.833288    49.833288 
34000000    886.22152   -55818.886   -54777.942    1439.5647    123753.82    49.833288    49.833288    49.833288 
35000000    890.05674   -55846.804   -54801.355    860.49505    123753.82    49.833288    49.833288    49.833288 
36000000    868.10986   -55837.023   -54817.353    1100.1106    123753.82    49.833288    49.833288    49.833288 
37000000    871.17414   -55839.719   -54816.449    25.706908    123753.82    49.833288    49.833288    49.833288 
38000000    883.46182   -55823.003   -54785.301    1624.0583    123753.82    49.833288    49.833288    49.833288 
39000000    890.91875   -55840.199   -54793.737     588.8076    123753.82    49.833288    49.833288    49.833288 
40000000    878.77087   -55822.769   -54790.576    859.62229    123753.82    49.833288    49.833288    49.833288 
41000000     874.0314   -55828.169   -54801.544    365.33722    123753.82    49.833288    49.833288    49.833288 
42000000    871.32275   -55839.445   -54816.001    224.07964    123753.82    49.833288    49.833288    49.833288 
43000000    878.41469    -55846.03   -54814.256    -534.6844    123753.82    49.833288    49.833288    49.833288 
44000000    878.09074   -55822.029   -54790.635    924.68413    123753.82    49.833288    49.833288    49.833288 
45000000    875.77596   -55830.292   -54801.617     1126.762    123753.82    49.833288    49.833288    49.833288 
46000000     888.0353   -55844.467   -54801.392    613.02934    123753.82    49.833288    49.833288    49.833288 
47000000    900.04452   -55835.737   -54778.556     1117.237    123753.82    49.833288    49.833288    49.833288 
48000000    863.76946   -55818.418   -54803.846    762.02256    123753.82    49.833288    49.833288    49.833288 
49000000    883.32934   -55833.139   -54795.592    1072.1798    123753.82    49.833288    49.833288    49.833288 
50000000    869.53133   -55832.871   -54811.531    968.34513    123753.82    49.833288    49.833288    49.833288 
51000000    873.31262   -55838.543   -54812.762    647.35097    123753.82    49.833288    49.833288    49.833288 
52000000      879.135   -55826.073   -54793.452    1169.1836    123753.82    49.833288    49.833288    49.833288 
53000000     869.1352   -55828.105   -54807.231    418.03826    123753.82    49.833288    49.833288    49.833288 
54000000    879.29874   -55838.719   -54805.906    946.20996    123753.82    49.833288    49.833288    49.833288 
55000000     883.8837   -55838.997   -54800.799    368.68596    123753.82    49.833288    49.833288    49.833288 
56000000    878.03726   -55833.768   -54802.437    820.40741    123753.82    49.833288    49.833288    49.833288 
57000000    873.66567   -55830.377   -54804.181    1044.5919    123753.82    49.833288    49.833288    49.833288 
58000000    881.27665    -55829.31   -54794.174    1165.0759    123753.82    49.833288    49.833288    49.833288 
59000000    879.38469   -55832.574    -54799.66    1321.6948    123753.82    49.833288    49.833288    49.833288 
60000000     875.3147   -55820.057   -54791.924    1281.8718    123753.82    49.833288    49.833288    49.833288 
61000000    865.30428   -55822.207   -54805.832     1498.851    123753.82    49.833288    49.833288    49.833288 
62000000    883.85412   -55845.222   -54807.059    1119.1218    123753.82    49.833288    49.833288    49.833288 
63000000    885.09481   -55825.032   -54785.411    1701.6307    123753.82    49.833288    49.833288    49.833288 
64000000     879.0127     -55832.4   -54799.923    997.20001    123753.82    49.833288    49.833288    49.833288 
65000000     887.6242   -55854.867   -54812.275    859.99637    123753.82    49.833288    49.833288    49.833288 
66000000    891.54083   -55822.589   -54775.397    1794.8221    123753.82    49.833288    49.833288    49.833288 
67000000    882.32103   -55833.882   -54797.519    1509.0798    123753.82    49.833288    49.833288    49.833288 
68000000    870.62285   -55824.513   -54801.891    1450.3777    123753.82    49.833288    49.833288    49.833288 
69000000    890.60665   -55820.856   -54774.761    1571.5421    123753.82    49.833288    49.833288    49.833288 
70000000    871.98198   -55820.063   -54795.845    1523.8506    123753.82    49.833288    49.833288    49.833288 
71000000    876.75936   -55818.379   -54788.549    1287.2322    123753.82    49.833288    49.833288    49.833288 
72000000    872.01599   -55842.192   -54817.934    61.391521    123753.82    49.833288    49.833288    49.833288 
73000000    858.89019   -55803.764   -54794.923    2105.3704    123753.82    49.833288    49.833288    49.833288 
74000000    888.46075   -55842.787   -54799.212    988.62708    123753.82    49.833288    49.833288    49.833288 
75000000     881.9519   -55821.518   -54785.589    870.67242    123753.82    49.833288    49.833288    49.833288 
76000000    882.57795   -55812.037   -54775.373    2109.6218    123753.82    49.833288    49.833288    49.833288 
77000000     882.4736   -55833.504   -54796.962    1220.8396    123753.82    49.833288    49.833288    49.833288 
78000000    880.08751   -55804.491   -54770.751    1979.2335    123753.82    49.833288    49.833288    49.833288 
79000000    881.67051   -55816.204   -54780.605    2006.3996    123753.82    49.833288    49.833288    49.833288 
80000000    884.32605   -55810.119   -54771.401    2023.4946    123753.82    49.833288    49.833288    49.833288 
81000000    878.54858   -55819.254   -54787.322    1626.5824    123753.82    49.833288    49.833288    49.833288 
82000000    866.18865    -55814.27   -54796.856    1347.6487    123753.82    49.833288    49.833288    49.833288 
83000000    881.35749    -55818.31   -54783.079    1000.2237    123753.82    49.833288    49.833288    49.833288 
84000000    878.62896   -55812.622   -54780.595     1225.263    123753.82    49.833288    49.833288    49.833288 
85000000    881.45749   -55803.373   -54768.025    1750.2345    123753.82    49.833288    49.833288    49.833288 
86000000    886.26673   -55821.781   -54780.784    735.65394    123753.82    49.833288    49.833288    49.833288 
87000000     883.3641   -55834.994   -54797.407    636.51129    123753.82    49.833288    49.833288    49.833288 
88000000    871.67972   -55815.531   -54791.667    1601.4483    123753.82    49.833288    49.833288    49.833288 
89000000     882.7037     -55820.4   -54783.588     1146.247    123753.82    49.833288    49.833288    49.833288 
90000000    880.70966   -55835.738   -54801.268    1003.5565    123753.82    49.833288    49.833288    49.833288 
91000000    867.73998   -55842.083   -54822.847    924.49603    123753.82    49.833288    49.833288    49.833288 
92000000    876.86921   -55828.634   -54798.675    1276.4318    123753.82    49.833288    49.833288    49.833288 
93000000    881.27289   -55827.934   -54792.803    1344.9256    123753.82    49.833288    49.833288    49.833288 
94000000    884.04728   -55842.069   -54803.679    405.47834    123753.82    49.833288    49.833288    49.833288 
95000000    881.24494   -55811.737   -54776.638    2153.0729    123753.82    49.833288    49.833288    49.833288 
96000000    881.12755   -55807.107   -54772.146    1715.5568    123753.82    49.833288    49.833288    49.833288 
97000000    880.53604   -55827.422   -54793.156    1828.7115    123753.82    49.833288    49.833288    49.833288 
98000000    875.06472   -55833.173   -54805.333    1137.7263    123753.82    49.833288    49.833288    49.833288 
99000000    888.57301    -55831.01   -54787.304    1178.9543    123753.82    49.833288    49.833288    49.833288 
100000000    883.23256    -55828.19   -54790.756    1239.4248    123753.82    49.833288    49.833288    49.833288 
101000000    873.96687   -55823.094   -54796.544     1921.263    123753.82    49.833288    49.833288    49.833288 
102000000     873.8566   -55828.594   -54802.174    1087.1591    123753.82    49.833288    49.833288    49.833288 
103000000    877.87178   -55827.953   -54796.817    2162.8521    123753.82    49.833288    49.833288    49.833288 
104000000    878.70554   -55833.183   -54801.067    493.83711    123753.82    49.833288    49.833288    49.833288 
105000000    867.29724   -55836.946    -54818.23    347.71505    123753.82    49.833288    49.833288    49.833288 
106000000     894.2685   -55841.234   -54790.838    294.12628    123753.82    49.833288    49.833288    49.833288 
107000000    890.72676   -55830.272   -54784.036    1160.8039    123753.82    49.833288    49.833288    49.833288 
108000000    858.62486   -55830.668   -54822.138    753.89797    123753.82    49.833288    49.833288    49.833288 
109000000    875.97135   -55834.325   -54805.421     950.3242    123753.82    49.833288    49.833288    49.833288 
110000000     886.9758   -55830.131   -54788.301    774.85705    123753.82    49.833288    49.833288    49.833288 
111000000    864.10226   -55852.842   -54837.879    416.30513    123753.82    49.833288    49.833288    49.833288 
112000000    866.57493   -55854.077    -54836.21   -109.40275    123753.82    49.833288    49.833288    49.833288 
113000000    879.60085   -55842.615   -54809.447    852.29393    123753.82    49.833288    49.833288    49.833288 
114000000    882.14918   -55842.656   -54806.495    1236.2372    123753.82    49.833288    49.833288    49.833288 
115000000    883.30736   -55844.647   -54807.125    524.13488    123753.82    49.833288    49.833288    49.833288 
116000000    892.85988   -55844.538   -54795.796    1122.3209    123753.82    49.833288    49.833288    49.833288 
117000000    883.16103   -55841.144   -54803.794    1272.9391    123753.82    49.833288    49.833288    49.833288 
118000000    882.04994   -55834.718   -54798.674    489.07464    123753.82    49.833288    49.833288    49.833288 
119000000    884.94162   -55840.498   -54801.058    1534.0584    123753.82    49.833288    49.833288    49.833288 
120000000    878.75755   -55852.069   -54819.892    8.1415874    123753.82    49.833288    49.833288    49.833288 
121000000    886.50609   -55831.973   -54790.694    801.36999    123753.82    49.833288    49.833288    49.833288 
122000000    887.84332   -55826.362   -54783.513     1171.573    123753.82    49.833288    49.833288    49.833288 
123000000    883.83418   -55838.214   -54800.073    1283.9839    123753.82    49.833288    49.833288    49.833288 
124000000    887.92803   -55828.535   -54785.587    1344.4076    123753.82    49.833288    49.833288    49.833288 
125000000    878.60486   -55837.496   -54805.498    1272.3061    123753.82    49.833288    49.833288    49.833288 
126000000    877.99972   -55823.579   -54792.292    1351.3026    123753.82    49.833288    49.833288    49.833288 
127000000    881.85409   -55826.602   -54790.788     984.1557    123753.82    49.833288    49.833288    49.833288 
128000000    884.01339   -55846.653   -54808.302    86.375732    123753.82    49.833288    49.833288    49.833288 
129000000    890.00049   -55839.973    -54794.59    917.78465    123753.82    49.833288    49.833288    49.833288 
130000000    880.63759   -55840.212   -54805.826   -55.339921    123753.82    49.833288    49.833288    49.833288 
131000000    880.41709   -55819.426   -54785.299    1217.8477    123753.82    49.833288    49.833288    49.833288 
132000000    888.37379   -55852.427   -54808.954    192.10727    123753.82    49.833288    49.833288    49.833288 
133000000    884.06284   -55824.361   -54785.953    659.30343    123753.82    49.833288    49.833288    49.833288 
134000000     882.2223   -55846.928   -54810.681    655.60779    123753.82    49.833288    49.833288    49.833288 
135000000    883.39754   -55827.306   -54789.679    1627.3607    123753.82    49.833288    49.833288    49.833288 
136000000    874.62034   -55845.409   -54818.092    1081.0565    123753.82    49.833288    49.833288    49.833288 
137000000    884.61781    -55828.77   -54789.709    1181.3701    123753.82    49.833288    49.833288    49.833288 
138000000     873.2637   -55816.641   -54790.917    1439.8707    123753.82    49.833288    49.833288    49.833288 
139000000    874.79104   -55830.013   -54802.495    921.97784    123753.82    49.833288    49.833288    49.833288 
140000000    877.66523   -55828.193   -54797.299    1707.6455    123753.82    49.833288    49.833288    49.833288 
141000000    872.42513   -55844.977   -54820.238    800.93586    123753.82    49.833288    49.833288    49.833288 
142000000    871.58873   -55821.412   -54797.655    1592.3283    123753.82    49.833288    49.833288    49.833288 
143000000    869.03246   -55849.102   -54828.348    199.65835    123753.82    49.833288    49.833288    49.833288 
144000000    886.40472   -55833.524   -54792.364    1468.0026    123753.82    49.833288    49.833288    49.833288 
145000000    884.51499   -55826.643   -54787.704    1298.8518    123753.82    49.833288    49.833288    49.833288 
146000000    885.04962   -55819.305   -54779.737     1520.464    123753.82    49.833288    49.833288    49.833288 
147000000    877.13887   -55830.503   -54800.227     834.6976    123753.82    49.833288    49.833288    49.833288 
148000000    883.30384   -55838.391   -54800.874    668.83494    123753.82    49.833288    49.833288    49.833288 
149000000    874.91863   -55821.325   -54793.657    1039.2549    123753.82    49.833288    49.833288    49.833288 
150000000    864.53503   -55834.848   -54819.376    730.48202    123753.82    49.833288    49.833288    49.833288 
151000000    885.90762   -55854.951   -54814.376    674.93647    123753.82    49.833288    49.833288    49.833288 
152000000    896.19951   -55816.233   -54763.569    1265.9307    123753.82    49.833288    49.833288    49.833288 
153000000    870.52268   -55829.785   -54807.281    1173.9044    123753.82    49.833288    49.833288    49.833288 
154000000    880.18284   -55824.989   -54791.137    783.64624    123753.82    49.833288    49.833288    49.833288 
155000000    889.03355    -55819.62   -54775.373    1372.2109    123753.82    49.833288    49.833288    49.833288 
156000000    880.88324   -55840.887   -54806.213    1127.6861    123753.82    49.833288    49.833288    49.833288 
157000000    877.70175   -55800.536   -54769.599    1552.8035    123753.82    49.833288    49.833288    49.833288 
158000000    874.96381   -55839.943   -54812.222    1468.9261    123753.82    49.833288    49.833288    49.833288 
159000000    885.88203   -55814.628   -54774.082    2093.5563    123753.82    49.833288    49.833288    49.833288 
160000000    878.49185   -55800.594   -54768.729    2407.4657    123753.82    49.833288    49.833288    49.833288 
161000000    869.31394    -55816.77   -54795.685    1212.2852    123753.82    49.833288    49.833288    49.833288 
162000000    881.73514   -55821.772   -54786.098    878.59183    123753.82    49.833288    49.833288    49.833288 
163000000    885.32663   -55848.906   -54809.012     494.7661    123753.82    49.833288    49.833288    49.833288 
164000000    874.13024   -55834.624   -54807.882    630.66487    123753.82    49.833288    49.833288    49.833288 
165000000    886.04974   -55834.499   -54793.757    478.24971    123753.82    49.833288    49.833288    49.833288 
166000000     878.7082   -55823.102   -54790.983    343.10118    123753.82    49.833288    49.833288    49.833288 
167000000    868.77514    -55835.21   -54814.758    696.85876    123753.82    49.833288    49.833288    49.833288 
168000000    879.70935   -55816.504   -54783.209    2137.0336    123753.82    49.833288    49.833288    49.833288 
169000000    872.92213   -55826.372   -54801.049    1390.8087    123753.82    49.833288    49.833288    49.833288 
170000000    865.03292     -55837.6   -54821.544    607.91165    123753.82    49.833288    49.833288    49.833288 
171000000    870.94804   -55830.037   -54807.033    995.75991    123753.82    49.833288    49.833288    49.833288 
172000000    873.35922   -55831.358   -54805.521    440.01111    123753.82    49.833288    49.833288    49.833288 
173000000    869.59644   -55818.192   -54796.775    894.66338    123753.82    49.833288    49.833288    49.833288 
174000000    872.72328   -55809.683   -54784.594    1324.0045    123753.82    49.833288    49.833288    49.833288 
175000000    883.49882   -55805.626   -54767.879    1510.8889    123753.82    49.833288    49.833288    49.833288 
176000000    869.34427   -55822.715   -54801.595    1107.6215    123753.82    49.833288    49.833288    49.833288 
177000000    876.63391   -55808.228   -54778.545    2277.3415    123753.82    49.833288    49.833288    49.833288 
178000000    881.14677    -55827.69   -54792.706    796.77322    123753.82    49.833288    49.833288    49.833288 
179000000    890.75021   -55815.911   -54769.647    1819.0948    123753.82    49.833288    49.833288    49.833288 
180000000     888.7457   -55830.158   -54786.249    1245.5946    123753.82    49.833288    49.833288    49.833288 
181000000    894.83662   -55829.282   -54778.218     1226.645    123753.82    49.833288    49.833288    49.833288 
182000000    881.35065   -55812.712   -54777.489    2067.5203    123753.82    49.833288    49.833288    49.833288 
183000000    884.54816   -55815.766   -54776.787    1541.3669    123753.82    49.833288    49.833288    49.833288 
184000000    885.76085   -55824.884   -54784.481    554.75223    123753.82    49.833288    49.833288    49.833288 
185000000    887.29595   -55834.758   -54792.551    686.74805    123753.82    49.833288    49.833288    49.833288 
186000000    887.75411   -55828.414    -54785.67    709.95139    123753.82    49.833288    49.833288    49.833288 
187000000    883.54157   -55829.774   -54791.978    1323.2287    123753.82    49.833288    49.833288    49.833288 
188000000    878.22363   -55821.609   -54790.059    1809.0784    123753.82    49.833288    49.833288    49.833288 
189000000    882.69822   -55844.513   -54807.707    1676.7037    123753.82    49.833288    49.833288    49.833288 
190000000    877.35492   -55818.359   -54787.829     1259.456    123753.82    49.833288    49.833288    49.833288 
191000000    875.74503   -55809.084   -54780.445    1741.4686    123753.82    49.833288    49.833288    49.833288 
192000000    880.23673   -55838.086   -54804.172    1216.6898    123753.82    49.833288    49.833288    49.833288 
193000000    884.62302   -55820.821   -54781.755    1170.8969    123753.82    49.833288    49.833288    49.833288 
194000000     867.9262   -55828.479   -54809.025     2043.392    123753.82    49.833288    49.833288    49.833288 
195000000    893.13554   -55835.352   -54786.287    821.09191    123753.82    49.833288    49.833288    49.833288 
196000000    891.53874   -55834.502   -54787.312    1553.7603    123753.82    49.833288    49.833288    49.833288 
197000000    880.92739   -55836.508   -54801.782    1147.0816    123753.82    49.833288    49.833288    49.833288 
198000000    875.94581   -55820.887   -54792.012    1498.6884    123753.82    49.833288    49.833288    49.833288 
199000000    875.30639   -55819.573   -54791.449      1182.92    123753.82    49.833288    49.833288    49.833288 
200000000    889.18298   -55809.915   -54765.492     1982.954    123753.82    49.833288    49.833288    49.833288 
201000000     886.3994   -55816.018   -54774.865    1662.4357    123753.82    49.833288    49.833288    49.833288 
202000000     875.3999   -55809.977   -54781.744    1687.0118    123753.82    49.833288    49.833288    49.833288 
203000000    875.37928   -55803.128   -54774.919    2001.5365    123753.82    49.833288    49.833288    49.833288 
204000000    875.44177   -55812.213    -54783.93    1682.1127    123753.82    49.833288    49.833288    49.833288 
205000000    878.78297   -55815.288   -54783.081     1400.689    123753.82    49.833288    49.833288    49.833288 
206000000    883.53666   -55805.569   -54767.778    2210.0117    123753.82    49.833288    49.833288    49.833288 
207000000    878.79577   -55814.947   -54782.725    825.53527    123753.82    49.833288    49.833288    49.833288 
208000000    874.11882    -55819.89   -54793.162     853.0476    123753.82    49.833288    49.833288    49.833288 
209000000    871.44267   -55809.498   -54785.913    1061.6391    123753.82    49.833288    49.833288    49.833288 
210000000    874.79351   -55826.522   -54799.001    850.54852    123753.82    49.833288    49.833288    49.833288 
211000000    875.03979   -55831.946   -54804.136    623.50817    123753.82    49.833288    49.833288    49.833288 
212000000    876.63404    -55817.19   -54787.507     1065.243    123753.82    49.833288    49.833288    49.833288 
213000000    880.07188   -55808.454   -54774.733    1391.0553    123753.82    49.833288    49.833288    49.833288 
214000000    887.30041   -55835.158   -54792.947    642.48213    123753.82    49.833288    49.833288    49.833288 
215000000    873.79497   -55819.965   -54793.617     653.4828    123753.82    49.833288    49.833288    49.833288 
216000000    880.93169   -55828.107   -54793.376    1403.8032    123753.82    49.833288    49.833288    49.833288 
217000000    876.77671   -55808.322   -54778.471    1336.5301    123753.82    49.833288    49.833288    49.833288 
218000000    890.69555   -55805.617   -54759.417    1323.7686    123753.82    49.833288    49.833288    49.833288 
219000000    885.02753   -55832.556   -54793.014    665.03517    123753.82    49.833288    49.833288    49.833288 
220000000    872.47374    -55821.67   -54796.874    940.17241    123753.82    49.833288    49.833288    49.833288 
221000000    870.18663    -55816.88    -54794.77    1309.0823    123753.82    49.833288    49.833288    49.833288 
222000000    869.12083   -55822.708    -54801.85    1490.9913    123753.82    49.833288    49.833288    49.833288 
223000000    875.94081    -55822.75   -54793.881    1286.1669    123753.82    49.833288    49.833288    49.833288 
224000000    882.50222   -55837.347   -54800.772    973.82208    123753.82    49.833288    49.833288    49.833288 
225000000    883.09387   -55828.798   -54791.528    1020.2255    123753.82    49.833288    49.833288    49.833288 
226000000    875.37399   -55833.811   -54805.608    964.29972    123753.82    49.833288    49.833288    49.833288 
227000000    875.07082   -55828.177    -54800.33    532.98128    123753.82    49.833288    49.833288    49.833288 
228000000    896.17384   -55823.508   -54770.874    1880.7696    123753.82    49.833288    49.833288    49.833288 
229000000    876.04354   -55846.883   -54817.893    1133.0782    123753.82    49.833288    49.833288    49.833288 
230000000    883.65222   -55818.927   -54781.001    1564.5547    123753.82    49.833288    49.833288    49.833288 
231000000    882.07365   -55819.792    -54783.72    1503.1338    123753.82    49.833288    49.833288    49.833288 
232000000    876.75956   -55841.248   -54811.418    241.34805    123753.82    49.833288    49.833288    49.833288 
233000000    869.38526   -55817.195   -54796.026    938.46129    123753.82    49.833288    49.833288    49.833288 
234000000    865.13401   -55825.873   -54809.698    430.32572    123753.82    49.833288    49.833288    49.833288 
235000000     882.1071   -55819.777   -54783.665    653.15072    123753.82    49.833288    49.833288    49.833288 
236000000    869.26544   -55835.427     -54814.4    726.14571    123753.82    49.833288    49.833288    49.833288 
237000000    885.00269   -55817.142   -54777.629    1025.0716    123753.82    49.833288    49.833288    49.833288 
238000000    880.96082   -55818.989   -54784.224    467.95471    123753.82    49.833288    49.833288    49.833288 
239000000    877.76263   -55815.297   -54784.288    1850.9096    123753.82    49.833288    49.833288    49.833288 
240000000    874.84394   -55826.877   -54799.296    341.72487    123753.82    49.833288    49.833288    49.833288 
241000000    884.93637   -55818.479   -54779.044    928.03589    123753.82    49.833288    49.833288    49.833288 
242000000    873.08176   -55817.532   -54792.022    1394.3695    123753.82    49.833288    49.833288    49.833288 
243000000    879.51594   -55826.009   -54792.941    385.63394    123753.82    49.833288    49.833288    49.833288 
244000000    876.62147   -55812.977   -54783.309     1782.329    123753.82    49.833288    49.833288    49.833288 
245000000    881.39041   -55817.963   -54782.693     1738.575    123753.82    49.833288    49.833288    49.833288 
246000000    878.40558   -55819.508   -54787.745    1327.1683    123753.82    49.833288    49.833288    49.833288 
247000000    867.83823   -55823.819   -54804.468    831.08202    123753.82    49.833288    49.833288    49.833288 
248000000    880.70441   -55834.074    -54799.61     662.6756    123753.82    49.833288    49.833288    49.833288 
249000000    878.50752   -55823.304    -54791.42    864.60795    123753.82    49.833288    49.833288    49.833288 
250000000    882.93056   -55827.318    -54790.24    1179.7553    123753.82    49.833288    49.833288    49.833288 
251000000    878.78372   -55830.647   -54798.439      1026.39    123753.82    49.833288    49.833288    49.833288 
252000000     893.0401   -55821.249   -54772.296    2192.1012    123753.82    49.833288    49.833288    49.833288 
253000000    884.12164   -55832.134   -54793.656    621.44182    123753.82    49.833288    49.833288    49.833288 
254000000    889.52402   -55825.252   -54780.428    547.46398    123753.82    49.833288    49.833288    49.833288 
255000000    872.93054   -55815.651   -54790.318    511.46477    123753.82    49.833288    49.833288    49.833288 
256000000    877.90975   -55826.837   -54795.655    357.09269    123753.82    49.833288    49.833288    49.833288 
257000000    888.41812   -55833.729   -54790.205    564.89037    123753.82    49.833288    49.833288    49.833288 
258000000    868.45718   -55841.633   -54821.554   -376.67377    123753.82    49.833288    49.833288    49.833288 
259000000    863.81918   -55820.771    -54806.14    898.11858    123753.82    49.833288    49.833288    49.833288 
260000000    881.98532   -55828.344   -54792.376     168.9583    123753.82    49.833288    49.833288    49.833288 
261000000    885.63785   -55824.884   -54784.625    1056.2269    123753.82    49.833288    49.833288    49.833288 
262000000    883.28819   -55798.698   -54761.199     1794.149    123753.82    49.833288    49.833288    49.833288 
263000000    878.14086   -55832.526   -54801.074    954.80937    123753.82    49.833288    49.833288    49.833288 
264000000    879.10201   -55845.364   -54812.782    596.68662    123753.82    49.833288    49.833288    49.833288 
265000000     887.5063   -55814.662   -54772.209    1598.0537    123753.82    49.833288    49.833288    49.833288 
266000000    886.96824   -55840.493   -54798.671   -111.99421    123753.82    49.833288    49.833288    49.833288 
267000000    892.91319   -55821.215   -54772.411    1239.8338    123753.82    49.833288    49.833288    49.833288 
268000000    895.91486   -55818.367   -54766.037     1381.804    123753.82    49.833288    49.833288    49.833288 
269000000    870.46451   -55825.156    -54802.72    915.15347    123753.82    49.833288    49.833288    49.833288 
270000000     874.5219   -55834.244   -54807.042    64.635745    123753.82    49.833288    49.833288    49.833288 
271000000    880.93007   -55808.059    -54773.33    1841.0443    123753.82    49.833288    49.833288    49.833288 
272000000    873.89908   -55812.019   -54785.548    690.61663    123753.82    49.833288    49.833288    49.833288 
273000000    884.11972   -55834.178   -54795.702    632.40185    123753.82    49.833288    49.833288    49.833288 
274000000     875.9225   -55837.878   -54809.031    1297.1427    123753.82    49.833288    49.833288    49.833288 
275000000    868.05831   -55818.978   -54799.368    1158.2583    123753.82    49.833288    49.833288    49.833288 
276000000    874.56666    -55806.09   -54778.835    997.62009    123753.82    49.833288    49.833288    49.833288 
277000000    885.40688   -55815.939   -54775.952    1357.1999    123753.82    49.833288    49.833288    49.833288 
278000000    884.03399   -55809.166   -54770.791    2068.9626    123753.82    49.833288    49.833288    49.833288 
279000000    875.07131   -55823.951   -54796.104    1077.5924    123753.82    49.833288    49.833288    49.833288 
280000000    887.61288   -55824.888   -54782.309     1276.867    123753.82    49.833288    49.833288    49.833288 
281000000    874.22795    -55832.14   -54805.283    850.59684    123753.82    49.833288    49.833288    49.833288 
282000000    886.59736   -55810.932   -54769.546    1804.3737    123753.82    49.833288    49.833288    49.833288 
283000000    870.60594   -55827.723   -54805.121    672.30633    123753.82    49.833288    49.833288    49.833288 
284000000     875.2012   -55832.236   -54804.236    1198.6996    123753.82    49.833288    49.833288    49.833288 
285000000    875.69733   -55814.869   -54786.287    770.84244    123753.82    49.833288    49.833288    49.833288 
286000000    884.52567   -55838.166   -54799.214     1253.329    123753.82    49.833288    49.833288    49.833288 
287000000    867.93503   -55822.058   -54802.593    435.31109    123753.82    49.833288    49.833288    49.833288 
288000000    887.14363   -55843.312   -54801.284    1251.3113    123753.82    49.833288    49.833288    49.833288 
289000000    880.76967   -55807.128   -54772.587    2139.0547    123753.82    49.833288    49.833288    49.833288 
290000000    876.77377   -55818.543   -54788.696     513.2025    123753.82    49.833288    49.833288    49.833288 
291000000    876.42735   -55826.015   -54796.575    912.01311    123753.82    49.833288    49.833288    49.833288 
292000000     865.4925   -55817.036   -54800.439    1041.9286    123753.82    49.833288    49.833288    49.833288 
293000000    873.65688   -55826.588   -54800.402    1292.9189    123753.82    49.833288    49.833288    49.833288 
294000000    882.26153    -55841.82   -54805.527    137.06588    123753.82    49.833288    49.833288    49.833288 
295000000    881.10051   -55840.928   -54805.999    748.93431    123753.82    49.833288    49.833288    49.833288 
296000000    868.37605   -55828.014   -54808.031    871.47463    123753.82    49.833288    49.833288    49.833288 
297000000    873.99626   -55829.975   -54803.391    591.50602    123753.82    49.833288    49.833288    49.833288 
298000000    886.74645   -55837.758   -54796.198   -65.906994    123753.82    49.833288    49.833288    49.833288 
299000000    873.54604   -55820.062   -54794.006    1044.3163    123753.82    49.833288    49.833288    49.833288 
300000000    869.13261   -55824.333   -54803.461      440.537    123753.82    49.833288    49.833288    49.833288 
301000000    888.88872   -55843.964   -54799.887    943.73249    123753.82    49.833288    49.833288    49.833288 
302000000    871.63883   -55814.631   -54790.816    709.16065    123753.82    49.833288    49.833288    49.833288 
303000000    873.85779   -55816.399   -54789.977    1278.6353    123753.82    49.833288    49.833288    49.833288 
304000000    878.40378   -55821.931   -54790.169    821.86678    123753.82    49.833288    49.833288    49.833288 
305000000    879.88367   -55805.427   -54771.927    1259.9258    123753.82    49.833288    49.833288    49.833288 
306000000    887.01871   -55799.569   -54757.689    1670.7705    123753.82    49.833288    49.833288    49.833288 
307000000    885.66489   -55809.344   -54769.054     1604.659    123753.82    49.833288    49.833288    49.833288 
308000000     881.3516   -55806.907   -54771.683    1791.4413    123753.82    49.833288    49.833288    49.833288 
309000000    881.96218    -55815.54   -54779.598     787.8702    123753.82    49.833288    49.833288    49.833288 
310000000    881.67201   -55805.559   -54769.959    1022.0522    123753.82    49.833288    49.833288    49.833288 
311000000    885.07081    -55804.54   -54764.948    2093.2917    123753.82    49.833288    49.833288    49.833288 
312000000    871.40922   -55810.794   -54787.249    1261.4118    123753.82    49.833288    49.833288    49.833288 
313000000    886.47096   -55816.683   -54775.445    1151.9088    123753.82    49.833288    49.833288    49.833288 
314000000    876.90262   -55834.857   -54804.858    567.77534    123753.82    49.833288    49.833288    49.833288 
315000000    864.49895   -55835.683   -54820.254    884.29972    123753.82    49.833288    49.833288    49.833288 
316000000    886.51254   -55825.696    -54784.41    956.68585    123753.82    49.833288    49.833288    49.833288 
317000000    873.82447    -55826.86   -54800.477    158.36024    123753.82    49.833288    49.833288    49.833288 
318000000    879.54166   -55825.337   -54792.239    1150.0281    123753.82    49.833288    49.833288    49.833288 
319000000    889.76693   -55825.703   -54780.595    910.55703    123753.82    49.833288    49.833288    49.833288 
320000000    866.35105   -55823.263   -54805.659     1442.925    123753.82    49.833288    49.833288    49.833288 
321000000    882.96101   -55816.833   -54779.719    1487.5858    123753.82    49.833288    49.833288    49.833288 
322000000    885.04928   -55818.812   -54779.244    1306.5438    123753.82    49.833288    49.833288    49.833288 
323000000    875.99041   -55834.227     -54805.3    870.99237    123753.82    49.833288    49.833288    49.833288 
324000000    874.73473   -55814.837   -54787.385    520.86946    123753.82    49.833288    49.833288    49.833288 
325000000    884.11691   -55803.761   -54765.289    2710.6494    123753.82    49.833288    49.833288    49.833288 
326000000    868.52911   -55819.562   -54799.399    1464.4918    123753.82    49.833288    49.833288    49.833288 
327000000    875.73749   -55828.557   -54799.927    891.35592    123753.82    49.833288    49.833288    49.833288 
328000000    874.85289   -55839.384   -54811.793    400.53077    123753.82    49.833288    49.833288    49.833288 
329000000    881.03383   -55813.586   -54778.735    1320.5568    123753.82    49.833288    49.833288    49.833288 
330000000    883.74997   -55796.593   -54758.552    2199.1466    123753.82    49.833288    49.833288    49.833288 
331000000    874.07418   -55812.516    -54785.84    1182.7481    123753.82    49.833288    49.833288    49.833288 
332000000    871.47415   -55819.151   -54795.529    725.95964    123753.82    49.833288    49.833288    49.833288 
333000000    899.76216    -55837.24   -54780.391    1051.6888    123753.82    49.833288    49.833288    49.833288 
334000000    870.41666   -55828.459   -54806.079    1282.7049    123753.82    49.833288    49.833288    49.833288 
335000000    868.93946   -55808.349   -54787.704    1534.9238    123753.82    49.833288    49.833288    49.833288 
336000000     885.6967   -55810.881   -54770.553    1591.9999    123753.82    49.833288    49.833288    49.833288 
337000000    886.87608   -55821.434   -54779.721    1270.3721    123753.82    49.833288    49.833288    49.833288 
338000000    871.30681   -55833.286    -54809.86    199.99121    123753.82    49.833288    49.833288    49.833288 
339000000    883.04713   -55814.147   -54776.931    1369.6282    123753.82    49.833288    49.833288    49.833288 
340000000    888.86037   -55812.971   -54768.928    1263.8615    123753.82    49.833288    49.833288    49.833288 
341000000    871.98139   -55814.072   -54789.855     1210.943    123753.82    49.833288    49.833288    49.833288 
342000000     887.2512   -55816.062   -54773.908    778.79103    123753.82    49.833288    49.833288    49.833288 
343000000    872.55417   -55810.301    -54785.41    971.35342    123753.82    49.833288    49.833288    49.833288 
344000000    877.11056   -55813.764   -54783.522    1032.1112    123753.82    49.833288    49.833288    49.833288 
345000000    881.46459   -55840.317    -54804.96    1384.3021    123753.82    49.833288    49.833288    49.833288 
346000000    887.36484   -55805.537    -54763.25    1921.8567    123753.82    49.833288    49.833288    49.833288 
347000000    873.59261   -55798.808   -54772.698    2415.2795    123753.82    49.833288    49.833288    49.833288 
348000000    887.36083   -55833.661   -54791.379    650.13584    123753.82    49.833288    49.833288    49.833288 
349000000    878.15571   -55822.554   -54791.083    1666.3068    123753.82    49.833288    49.833288    49.833288 
350000000    874.93188   -55815.058   -54787.375    1321.4859    123753.82    49.833288    49.833288    49.833288 
351000000    876.80428   -55811.244   -54781.361    1398.5838    123753.82    49.833288    49.833288    49.833288 
352000000    874.35229    -55803.52   -54776.517    1363.3414    123753.82    49.833288    49.833288    49.833288 
353000000    890.09578   -55823.568   -54778.073    1874.7302    123753.82    49.833288    49.833288    49.833288 
354000000    877.51737   -55810.544   -54779.823    1744.9131    123753.82    49.833288    49.833288    49.833288 
355000000    889.17514   -55803.067   -54758.654    1681.5588    123753.82    49.833288    49.833288    49.833288 
356000000     874.7788   -55814.841   -54787.337    1211.3627    123753.82    49.833288    49.833288    49.833288 
357000000    877.88278   -55804.919   -54773.769    1392.4685    123753.82    49.833288    49.833288    49.833288 
358000000    874.92317   -55813.873     -54786.2    518.56598    123753.82    49.833288    49.833288    49.833288 
359000000    882.22732   -55806.064   -54769.811    1786.0169    123753.82    49.833288    49.833288    49.833288 
360000000    879.95766   -55821.163   -54787.576     979.4642    123753.82    49.833288    49.833288    49.833288 
361000000     877.1892   -55818.863   -54788.528    1081.1544    123753.82    49.833288    49.833288    49.833288 
362000000     872.0845   -55809.734   -54785.395    1443.4475    123753.82    49.833288    49.833288    49.833288 
363000000    873.31702   -55806.778   -54780.991    1644.1951    123753.82    49.833288    49.833288    49.833288 
364000000    890.66947   -55807.166   -54760.998    1835.2556    123753.82    49.833288    49.833288    49.833288 
365000000    888.86801   -55806.393    -54762.34     1350.947    123753.82    49.833288    49.833288    49.833288 
366000000    880.56769   -55830.973    -54796.67    881.14009    123753.82    49.833288    49.833288    49.833288 
367000000     878.8446   -55810.348   -54778.068    1121.8563    123753.82    49.833288    49.833288    49.833288 
368000000     876.6323    -55814.24   -54784.559    1250.6784    123753.82    49.833288    49.833288    49.833288 
369000000    872.54552   -55809.164   -54784.284     1029.982    123753.82    49.833288    49.833288    49.833288 
370000000    874.17517   -55803.869   -54777.074    1743.6656    123753.82    49.833288    49.833288    49.833288 
371000000    879.19998   -55807.653   -54774.956    1613.2749    123753.82    49.833288    49.833288    49.833288 
372000000    876.85304   -55811.033   -54781.093    1086.1862    123753.82    49.833288    49.833288    49.833288 
373000000     879.1511   -55815.579   -54782.939    1339.0284    123753.82    49.833288    49.833288    49.833288 
374000000    871.67319   -55811.401   -54787.545    729.61925    123753.82    49.833288    49.833288    49.833288 
375000000     868.2947   -55811.398    -54791.51    1940.5091    123753.82    49.833288    49.833288    49.833288 
376000000      899.235   -55815.101   -54758.871    1629.2851    123753.82    49.833288    49.833288    49.833288 
377000000    883.32897   -55820.243   -54782.696    648.50586    123753.82    49.833288    49.833288    49.833288 
378000000    894.94124   -55840.347    -54789.16    336.78378    123753.82    49.833288    49.833288    49.833288 
379000000    883.42485    -55829.69    -54792.03    1166.7895    123753.82    49.833288    49.833288    49.833288 
380000000     868.5703    -55815.41   -54795.199     785.1639    123753.82    49.833288    49.833288    49.833288 
381000000    867.23498    -55805.62   -54786.977    908.08777    123753.82    49.833288    49.833288    49.833288 
382000000    873.18815   -55795.736   -54770.101    1812.4218    123753.82    49.833288    49.833288    49.833288 
383000000    889.98203   -55821.717   -54776.356    1013.7175    123753.82    49.833288    49.833288    49.833288 
384000000    884.80231   -55814.431   -54775.154    917.48864    123753.82    49.833288    49.833288    49.833288 
385000000    873.94255   -55818.111    -54791.59    946.38558    123753.82    49.833288    49.833288    49.833288 
386000000    879.11259   -55816.995     -54784.4    1403.1723    123753.82    49.833288    49.833288    49.833288 
387000000    881.71545   -55818.835   -54783.184    738.48046    123753.82    49.833288    49.833288    49.833288 
388000000    877.84571   -55826.232   -54795.126    1546.2057    123753.82    49.833288    49.833288    49.833288 
389000000    884.24864   -55809.666   -54771.039    966.86437    123753.82    49.833288    49.833288    49.833288 
390000000    870.79075   -55814.796   -54791.977    566.46706    123753.82    49.833288    49.833288    49.833288 
391000000    871.38427   -55834.153   -54810.637    737.73451    123753.82    49.833288    49.833288    49.833288 
392000000    877.95635   -55826.334   -54795.098    1165.3705    123753.82    49.833288    49.833288    49.833288 
393000000    871.26475   -55835.031   -54811.655    1108.0534    123753.82    49.833288    49.833288    49.833288 
394000000    874.19895   -55842.048   -54815.225    778.85734    123753.82    49.833288    49.833288    49.833288 
395000000    880.37262   -55827.987   -54793.913    870.53582    123753.82    49.833288    49.833288    49.833288 
396000000     881.5334   -55832.439   -54797.001    687.87893    123753.82    49.833288    49.833288    49.833288 
397000000    878.77663   -55829.249   -54797.049    468.45762    123753.82    49.833288    49.833288    49.833288 
398000000    881.57171    -55823.75   -54788.267    651.06825    123753.82    49.833288    49.833288    49.833288 
399000000    887.90757   -55831.971   -54789.046    1037.5324    123753.82    49.833288    49.833288    49.833288 
400000000    875.39564   -55821.427   -54793.198     899.5865    123753.82    49.833288    49.833288    49.833288 
401000000    891.39955   -55845.701   -54798.675    921.62201    123753.82    49.833288    49.833288    49.833288 
402000000    882.20808   -55844.992   -54808.762    447.79227    123753.82    49.833288    49.833288    49.833288 
403000000    893.44389   -55838.038   -54788.611    646.53528    123753.82    49.833288    49.833288    49.833288 
404000000     864.5068   -55838.514   -54823.076    958.55764    123753.82    49.833288    49.833288    49.833288 
405000000    883.88417    -55811.75   -54773.551    2039.6351    123753.82    49.833288    49.833288    49.833288 
406000000    884.50909   -55844.556   -54805.623    352.15412    123753.82    49.833288    49.833288    49.833288 
407000000    872.97673   -55815.902   -54790.515    1731.3487    123753.82    49.833288    49.833288    49.833288 
408000000    872.24049   -55815.997   -54791.475     1429.458    123753.82    49.833288    49.833288    49.833288 
409000000    906.35662   -55836.575   -54771.981    531.28152    123753.82    49.833288    49.833288    49.833288 
410000000    880.64227   -55838.941    -54804.55    766.55693    123753.82    49.833288    49.833288    49.833288 
411000000    877.90785   -55828.462   -54797.283    1332.3299    123753.82    49.833288    49.833288    49.833288 
412000000    890.45229   -55831.244    -54785.33    927.54473    123753.82    49.833288    49.833288    49.833288 
413000000     878.3343   -55843.753   -54812.073     899.9236    123753.82    49.833288    49.833288    49.833288 
414000000    885.75086   -55822.769   -54782.377    1871.9791    123753.82    49.833288    49.833288    49.833288 
415000000    900.97925   -55808.655   -54750.376    2038.5444    123753.82    49.833288    49.833288    49.833288 
416000000    868.96318    -55832.37   -54811.698    971.29598    123753.82    49.833288    49.833288    49.833288 
417000000    880.88403   -55839.139   -54804.464    951.80881    123753.82    49.833288    49.833288    49.833288 
418000000    878.60236   -55830.703   -54798.708    1249.9582    123753.82    49.833288    49.833288    49.833288 
419000000    882.89624   -55826.445   -54789.406    1830.8356    123753.82    49.833288    49.833288    49.833288 
420000000    880.19815   -55830.876   -54797.007    735.55176    123753.82    49.833288    49.833288    49.833288 
421000000    876.94347   -55804.697   -54774.651    1386.2908    123753.82    49.833288    49.833288    49.833288 
422000000    887.90633   -55830.796   -54787.872    2030.9729    123753.82    49.833288    49.833288    49.833288 
423000000     880.0782   -55835.696   -54801.968    993.80633    123753.82    49.833288    49.833288    49.833288 
424000000    866.54136   -55833.266   -54815.438    1294.9653    123753.82    49.833288    49.833288    49.833288 
425000000    876.74758   -55842.876   -54813.059    548.88239    123753.82    49.833288    49.833288    49.833288 
426000000    869.11302    -55826.27   -54805.421    1340.9036    123753.82    49.833288    49.833288    49.833288 
427000000    878.55924    -55834.57   -54802.626    1489.3307    123753.82    49.833288    49.833288    49.833288 
428000000    877.64582   -55817.611    -54786.74     1346.038    123753.82    49.833288    49.833288    49.833288 
429000000    872.79211   -55810.517   -54785.346    1874.2438    123753.82    49.833288    49.833288    49.833288 
430000000    872.96814   -55811.805   -54786.428    999.54677    123753.82    49.833288    49.833288    49.833288 
431000000    880.71426    -55823.82   -54789.344    1034.8701    123753.82    49.833288    49.833288    49.833288 
432000000    884.56829   -55825.238   -54786.236    1534.2129    123753.82    49.833288    49.833288    49.833288 
433000000    885.98035   -55815.149   -54774.488    1796.7362    123753.82    49.833288    49.833288    49.833288 
434000000    892.52379   -55811.486    -54763.14    2146.0176    123753.82    49.833288    49.833288    49.833288 
435000000    891.69399   -55831.286   -54783.914    1130.5941    123753.82    49.833288    49.833288    49.833288 
436000000    875.46281   -55806.309   -54778.002    1797.4075    123753.82    49.833288    49.833288    49.833288 
437000000    867.46017   -55817.954   -54799.047    1271.6274    123753.82    49.833288    49.833288    49.833288 
438000000     878.3731   -55823.051   -54791.325    1844.3635    123753.82    49.833288    49.833288    49.833288 
439000000    877.91347   -55829.419   -54798.233    1112.6136    123753.82    49.833288    49.833288    49.833288 
440000000    885.27058   -55800.662   -54760.835    1744.7533    123753.82    49.833288    49.833288    49.833288 
441000000    885.45343   -55828.729   -54788.687    776.79455    123753.82    49.833288    49.833288    49.833288 
442000000    889.29814   -55799.258     -54754.7    1909.6571    123753.82    49.833288    49.833288    49.833288 
443000000    889.71408   -55813.047   -54768.001     1574.847    123753.82    49.833288    49.833288    49.833288 
444000000    867.63032   -55805.119   -54786.012    1296.3862    123753.82    49.833288    49.833288    49.833288 
445000000    874.73883   -55812.019   -54784.562    858.97138    123753.82    49.833288    49.833288    49.833288 
446000000    885.59584   -55822.375   -54782.166    1402.1892    123753.82    49.833288    49.833288    49.833288 
447000000    874.02998     -55808.7   -54782.076    1282.5947    123753.82    49.833288    49.833288    49.833288 
448000000     881.7826   -55781.504   -54745.774    2774.7849    123753.82    49.833288    49.833288    49.833288 
449000000    881.87331   -55816.418   -54780.582    1099.0689    123753.82    49.833288    49.833288    49.833288 
450000000    887.88239   -55815.504   -54772.609     1169.651    123753.82    49.833288    49.833288    49.833288 
451000000    873.03374   -55798.967   -54773.513    1835.7711    123753.82    49.833288    49.833288    49.833288 
452000000    881.27005   -55821.423   -54786.294    897.60283    123753.82    49.833288    49.833288    49.833288 
453000000     877.0671   -55813.108   -54782.916    1214.7845    123753.82    49.833288    49.833288    49.833288 
454000000    876.88527   -55799.192   -54769.214    1858.9382    123753.82    49.833288    49.833288    49.833288 
455000000    865.90432   -55817.356   -54800.276    474.30154    123753.82    49.833288    49.833288    49.833288 
456000000    880.24324   -55810.406   -54776.484    1388.6382    123753.82    49.833288    49.833288    49.833288 
457000000    878.33123   -55813.031   -54781.354    1670.5807    123753.82    49.833288    49.833288    49.833288 
458000000     870.4364   -55798.408   -54776.005    2134.5213    123753.82    49.833288    49.833288    49.833288 
459000000    882.50021   -55811.535   -54774.962    786.03696    123753.82    49.833288    49.833288    49.833288 
460000000    878.61856   -55799.382   -54767.368    1688.5977    123753.82    49.833288    49.833288    49.833288 
461000000    872.36214   -55812.266     -54787.6    1507.6178    123753.82    49.833288    49.833288    49.833288 
462000000      887.853   -55809.871   -54767.011    1222.4681    123753.82    49.833288    49.833288    49.833288 
463000000    874.90337   -55820.269   -54792.619    1977.0744    123753.82    49.833288    49.833288    49.833288 
464000000    880.50954   -55808.509   -54774.274    1078.7605    123753.82    49.833288    49.833288    49.833288 
465000000    879.09274   -55817.765   -54785.194    1624.3222    123753.82    49.833288    49.833288    49.833288 
466000000    891.20429   -55820.654   -54773.857    1024.7095    123753.82    49.833288    49.833288    49.833288 
467000000    881.62176    -55817.03   -54781.489    1674.2201    123753.82    49.833288    49.833288    49.833288 
468000000    880.36406   -55813.178   -54779.113    1329.4139    123753.82    49.833288    49.833288    49.833288 
469000000    871.54363   -55812.128   -54788.424    1640.0204    123753.82    49.833288    49.833288    49.833288 
470000000    882.46435   -55802.212   -54765.681    1793.2439    123753.82    49.833288    49.833288    49.833288 
471000000    885.82281   -55788.702   -54748.226    1662.4349    123753.82    49.833288    49.833288    49.833288 
472000000    870.33412    -55798.66   -54776.377    1601.3561    123753.82    49.833288    49.833288    49.833288 
473000000    874.02001   -55827.488   -54800.876    1458.6802    123753.82    49.833288    49.833288    49.833288 
474000000    881.84579   -55815.904     -54780.1     1231.552    123753.82    49.833288    49.833288    49.833288 
475000000    880.41725   -55825.444   -54791.317    302.46715    123753.82    49.833288    49.833288    49.833288 
476000000    887.22209   -55810.999   -54768.879    1411.9526    123753.82    49.833288    49.833288    49.833288 
477000000    874.61087   -55816.348   -54789.041    673.05321    123753.82    49.833288    49.833288    49.833288 
478000000    887.07813    -55801.98    -54760.03    1844.2217    123753.82    49.833288    49.833288    49.833288 
479000000    875.47787   -55822.714   -54794.389    1287.4724    123753.82    49.833288    49.833288    49.833288 
480000000    888.72438   -55799.845   -54755.961    1555.0434    123753.82    49.833288    49.833288    49.833288 
481000000    876.51626   -55798.445   -54768.901    1378.7836    123753.82    49.833288    49.833288    49.833288 
482000000    886.58486   -55800.585   -54759.214    1704.4336    123753.82    49.833288    49.833288    49.833288 
483000000    875.36705   -55814.783   -54786.588    1294.1409    123753.82    49.833288    49.833288    49.833288 
484000000    886.98653   -55801.742   -54759.899    1990.6219    123753.82    49.833288    49.833288    49.833288 
485000000    872.62741   -55805.428   -54780.451    1494.5694    123753.82    49.833288    49.833288    49.833288 
486000000    882.12088   -55825.799   -54789.671    695.25725    123753.82    49.833288    49.833288    49.833288 
487000000    880.11328   -55809.103   -54775.333    1181.9917    123753.82    49.833288    49.833288    49.833288 
488000000     883.1525   -55815.326   -54777.987    1796.5761    123753.82    49.833288    49.833288    49.833288 
489000000     886.0182   -55797.683   -54756.978     1982.331    123753.82    49.833288    49.833288    49.833288 
490000000    881.51419   -55806.476   -54771.061    1225.3985    123753.82    49.833288    49.833288    49.833288 
491000000    877.70171   -55797.301   -54766.364    1930.7343    123753.82    49.833288    49.833288    49.833288 
492000000    886.69344    -55823.56   -54782.061    1514.1337    123753.82    49.833288    49.833288    49.833288 
493000000    881.41561   -55798.631   -54763.332      1785.31    123753.82    49.833288    49.833288    49.833288 
494000000    891.44807   -55820.659   -54773.576    1386.7539    123753.82    49.833288    49.833288    49.833288 
495000000    864.16602   -55808.904   -54793.866    2090.9494    123753.82    49.833288    49.833288    49.833288 
496000000    875.64687   -55816.779   -54788.255    1612.2365    123753.82    49.833288    49.833288    49.833288 
497000000    876.37634   -55817.167   -54787.787    1215.7569    123753.82    49.833288    49.833288    49.833288 
498000000    888.40873   -55812.188   -54768.674    1680.0563    123753.82    49.833288    49.833288    49.833288 
499000000    882.96948   -55828.023   -54790.899    1752.1075    123753.82    49.833288    49.833288    49.833288 
500000000    878.21933   -55829.038   -54797.493    1318.9704    123753.82    49.833288    49.833288    49.833288 
Loop time of 673318 on 36 procs for 500000000 steps with 9088 atoms

Performance: 641.599 ns/day, 0.037 hours/ns, 742.592 timesteps/s
99.8% CPU use with 36 MPI tasks x 1 OpenMP threads

MPI task timing breakdown:
Section |  min time  |  avg time  |  max time  |%varavg| %total
---------------------------------------------------------------
Pair    | 4.0579e+05 | 4.4431e+05 | 5.3189e+05 |6418.4 | 65.99
Neigh   | 20936      | 25274      | 35861      |3485.4 |  3.75
Comm    | 56464      | 1.5017e+05 | 1.9237e+05 |12096.5 | 22.30
Output  | 0.052429   | 0.065267   | 0.067423   |   0.9 |  0.00
Modify  | 43896      | 50970      | 66819      |3651.2 |  7.57
Other   |            | 2587       |            |       |  0.38

Nlocal:    252.444 ave 263 max 243 min
Histogram: 2 1 1 10 6 4 5 4 2 1
Nghost:    2382.53 ave 2411 max 2365 min
Histogram: 4 5 5 6 2 9 2 2 0 1
Neighs:    27093.8 ave 28389 max 25827 min
Histogram: 1 3 2 8 6 4 4 5 2 1

Total # of neighbors = 975376
Ave neighs/atom = 107.326
Neighbor list builds = 48832385
Dangerous builds = 40277595
write_restart T${T}.rst
write_restart T880.rst
clear
OMP_NUM_THREADS environment is not set. Defaulting to 1 thread. (../comm.cpp:94)
  using 1 OpenMP thread(s) per MPI task
package intel 1
#jump dms860.lmp
Total wall time: 187:01:57
