ITEM: TIMESTEP
0
ITEM: NUMBER OF ATOMS
7200
ITEM: BOX BOUNDS xy xz yz pp pp pp
0.0000000000000000e+00 2.1900000000000000e+02 0.0000000000000000e+00
0.0000000000000000e+00 2.1900000000000000e+02 0.0000000000000000e+00
-3.6499999999999999e-01 3.6499999999999999e-01 0.0000000000000000e+00
ITEM: ATOMS id type x y z
1 1 76.0844 148.599 -4.05231e-17
2 1 174.789 70.6715 -4.05231e-17
3 1 30.6235 177.714 -4.05231e-17
4 1 42.0311 83.9566 -4.05231e-17
5 1 58.4419 131.633 -4.05231e-17
6 1 141.783 9.89867 -4.05231e-17
7 1 27.1362 60.6788 -4.05231e-17
8 2 158.159 106.602 -4.05231e-17
9 1 154.085 214.803 -4.05231e-17
10 2 51.7357 172.823 -4.05231e-17
11 1 158.912 31.9794 -4.05231e-17
12 1 179.197 69.8291 -4.05231e-17
13 2 50.6865 77.3332 -4.05231e-17
14 1 76.8942 60.2999 -4.05231e-17
15 1 126.008 127.46 -4.05231e-17
16 2 77.5082 198.254 -4.05231e-17
17 1 158.369 14.4201 -4.05231e-17
18 2 216.095 52.007 -4.05231e-17
19 1 77.6224 72.8556 -4.05231e-17
20 1 174.318 130.471 -4.05231e-17
21 1 71.8221 171.702 -4.05231e-17
22 2 20.959 136.035 -4.05231e-17
23 2 25.3265 63.1693 -4.05231e-17
24 1 166.429 112.659 -4.05231e-17
25 1 44.8705 169.209 -4.05231e-17
26 2 114.293 89.1783 -4.05231e-17
27 1 169.731 211.182 -4.05231e-17
28 2 66.8762 158.884 -4.05231e-17
29 1 31.5876 83.2274 -4.05231e-17
30 1 166.673 92.8249 -4.05231e-17
31 1 197.826 66.9705 -4.05231e-17
32 1 66.0716 167.14 -4.05231e-17
33 1 174.406 188.193 -4.05231e-17
34 1 49.986 50.8187 -4.05231e-17
35 1 196.547 50.0427 -4.05231e-17
36 1 37.2988 117.808 -4.05231e-17
37 2 133.797 125.318 -4.05231e-17
38 1 131.724 87.6069 -4.05231e-17
39 1 133.082 140.311 -4.05231e-17
40 1 143.615 188.734 -4.05231e-17
41 1 128.703 1.83784 -4.05231e-17
42 1 101.238 55.028 -4.05231e-17
43 1 184.884 73.6413 -4.05231e-17
44 1 118.317 78.2173 -4.05231e-17
45 1 212.875 69.4891 -4.05231e-17
46 1 102.433 185.856 -4.05231e-17
47 1 18.4429 158.092 -4.05231e-17
48 2 69.0561 66.4833 -4.05231e-17
49 1 44.1968 125.718 -4.05231e-17
50 1 69.5361 141.051 -4.05231e-17
51 1 140.197 7.41071 -4.05231e-17
52 1 154.108 82.6548 -4.05231e-17
53 1 120.688 216.096 -4.05231e-17
54 1 197.401 122.79 -4.05231e-17
55 1 17.6305 208.255 -4.05231e-17
56 1 115.725 144.872 -4.05231e-17
57 2 104.731 217.192 -4.05231e-17
58 1 32.4336 213.033 -4.05231e-17
59 1 204.44 107.655 -4.05231e-17
60 2 146.066 100.122 -4.05231e-17
61 2 60.7607 160.108 -4.05231e-17
62 1 31.6863 107.017 -4.05231e-17
63 1 82.2307 215.975 -4.05231e-17
64 1 134.065 48.2782 -4.05231e-17
65 1 171.85 125.148 -4.05231e-17
66 1 138.469 104.573 -4.05231e-17
67 1 106.627 120.685 -4.05231e-17
68 1 54.6757 202.475 -4.05231e-17
69 1 133.347 187.485 -4.05231e-17
70 1 33.6031 88.1085 -4.05231e-17
71 1 166.195 153.58 -4.05231e-17
72 1 152.396 58.282 -4.05231e-17
73 1 168.244 154.951 -4.05231e-17
74 1 175.389 2.29727 -4.05231e-17
75 2 105.327 200.812 -4.05231e-17
76 1 210.795 17.0762 -4.05231e-17
77 1 24.2945 13.1558 -4.05231e-17
78 1 77.9788 165.503 -4.05231e-17
79 2 92.3899 29.996 -4.05231e-17
80 1 67.0064 145.536 -4.05231e-17
81 1 128.263 139.486 -4.05231e-17
82 1 91.8741 157.85 -4.05231e-17
83 2 135.191 168.337 -4.05231e-17
84 1 196.921 29.1463 -4.05231e-17
85 1 46.5727 94.0332 -4.05231e-17
86 1 120.99 126.451 -4.05231e-17
87 1 30.813 45.6364 -4.05231e-17
88 1 6.72269 17.0843 -4.05231e-17
89 2 54.3555 218.107 -4.05231e-17
90 2 200.26 180.869 -4.05231e-17
91 1 192.178 76.8451 -4.05231e-17
92 2 157.782 11.3836 -4.05231e-17
93 1 149.087 17.0197 -4.05231e-17
94 2 159.485 20.3142 -4.05231e-17
95 1 46.1018 218.179 -4.05231e-17
96 1 174.663 79.0664 -4.05231e-17
97 1 180.96 213.092 -4.05231e-17
98 1 102.688 59.2315 -4.05231e-17
99 1 167.035 26.3862 -4.05231e-17
100 1 150.526 205.172 -4.05231e-17
101 1 119.261 47.2061 -4.05231e-17
102 1 33.124 72.3321 -4.05231e-17
103 1 20.8089 40.0449 -4.05231e-17
104 1 8.94277 129.46 -4.05231e-17
105 1 108.555 25.455 -4.05231e-17
106 1 93.8297 88.7638 -4.05231e-17
107 2 146.033 88.7734 -4.05231e-17
108 1 69.7574 202.832 -4.05231e-17
109 1 9.08419 107.584 -4.05231e-17
110 1 59.9777 64.4736 -4.05231e-17
111 1 47.0916 12.626 -4.05231e-17
112 1 17.0135 182.314 -4.05231e-17
113 1 115.699 112.765 -4.05231e-17
114 1 123.752 26.5056 -4.05231e-17
115 1 80.3737 181.387 -4.05231e-17
116 2 218.675 127.197 -4.05231e-17
117 1 179.844 218.025 -4.05231e-17
118 1 163.503 23.7614 -4.05231e-17
119 2 24.2652 113.246 -4.05231e-17
120 1 20.8333 193.273 -4.05231e-17
121 1 179.936 75.488 -4.05231e-17
122 1 117.036 11.0176 -4.05231e-17
123 1 165.153 82.4311 -4.05231e-17
124 1 173.764 193.409 -4.05231e-17
125 1 114.363 102.584 -4.05231e-17
126 1 32.4726 58.7072 -4.05231e-17
127 1 184.614 87.0614 -4.05231e-17
128 1 163.446 185.81 -4.05231e-17
129 1 203.141 161.666 -4.05231e-17
130 1 64.9203 161.249 -4.05231e-17
131 1 168.586 148.983 -4.05231e-17
132 2 2.70984 213.298 -4.05231e-17
133 1 98.5036 55.4829 -4.05231e-17
134 1 15.4754 28.1549 -4.05231e-17
135 1 85.6223 19.3207 -4.05231e-17
136 1 208.185 175.282 -4.05231e-17
137 1 76.7223 156.565 -4.05231e-17
138 1 56.7905 16.2538 -4.05231e-17
139 1 195.644 125.274 -4.05231e-17
140 2 144.485 206.609 -4.05231e-17
141 1 181.639 67.8266 -4.05231e-17
142 2 7.83311 19.8205 -4.05231e-17
143 1 70.9417 127.019 -4.05231e-17
144 2 20.7134 188.349 -4.05231e-17
145 1 137.942 59.0469 -4.05231e-17
146 1 129.678 65.672 -4.05231e-17
147 1 157.444 166.95 -4.05231e-17
148 1 48.121 185.641 -4.05231e-17
149 1 75.0795 40.1791 -4.05231e-17
150 1 218.035 20.5792 -4.05231e-17
151 1 6.27385 170.295 -4.05231e-17
152 1 48.3434 69.9013 -4.05231e-17
153 2 48.9652 10.3793 -4.05231e-17
154 1 153.289 133.89 -4.05231e-17
155 1 145.922 194.934 -4.05231e-17
156 2 12.135 154.418 -4.05231e-17
157 1 186.811 88.4575 -4.05231e-17
158 1 53.3026 7.35545 -4.05231e-17
159 1 218.481 138.576 -4.05231e-17
160 1 6.74359 5.13495 -4.05231e-17
161 1 43.9381 23.1855 -4.05231e-17
162 1 104.081 120.919 -4.05231e-17
163 1 53.4436 34.3333 -4.05231e-17
164 1 149.562 82.0325 -4.05231e-17
165 1 158.183 189.997 -4.05231e-17
166 2 168.022 50.0923 -4.05231e-17
167 1 160.185 48.1087 -4.05231e-17
168 1 168.985 145.905 -4.05231e-17
169 1 86.6741 143.12 -4.05231e-17
170 1 111.999 169.721 -4.05231e-17
171 1 143.587 87.5127 -4.05231e-17
172 1 1.27864 16.1898 -4.05231e-17
173 1 29.8082 128.573 -4.05231e-17
174 1 93.7654 100.838 -4.05231e-17
175 2 151.316 172.402 -4.05231e-17
176 1 47.1585 76.8053 -4.05231e-17
177 2 55.5051 67.2133 -4.05231e-17
178 1 62.899 91.1571 -4.05231e-17
179 1 212.523 168.13 -4.05231e-17
180 1 188.45 207.412 -4.05231e-17
181 1 182.417 187.838 -4.05231e-17
182 2 34.1154 21.1139 -4.05231e-17
183 1 83.2269 159.734 -4.05231e-17
184 1 187.178 74.6267 -4.05231e-17
185 2 138.811 34.0263 -4.05231e-17
186 2 179.326 133.368 -4.05231e-17
187 1 86.4617 45.1053 -4.05231e-17
188 1 140.808 178.198 -4.05231e-17
189 1 127.292 181.794 -4.05231e-17
190 2 45.3147 151.515 -4.05231e-17
191 1 118.71 213.818 -4.05231e-17
192 2 3.69744 59.8464 -4.05231e-17
193 2 106.283 174.438 -4.05231e-17
194 1 218.515 141.69 -4.05231e-17
195 1 210.727 187.311 -4.05231e-17
196 1 175.079 114.126 -4.05231e-17
197 1 35.5182 72.1048 -4.05231e-17
198 2 28.5322 156.389 -4.05231e-17
199 1 34.5362 13.8994 -4.05231e-17
200 1 97.5483 12.5374 -4.05231e-17
201 2 72.5116 136.306 -4.05231e-17
202 1 66.711 209.88 -4.05231e-17
203 1 164.632 75.1952 -4.05231e-17
204 1 177.51 120.812 -4.05231e-17
205 2 19.2911 78.1802 -4.05231e-17
206 1 112.851 144.49 -4.05231e-17
207 1 79.7933 40.3437 -4.05231e-17
208 1 31.7742 74.7216 -4.05231e-17
209 1 89.1301 214.835 -4.05231e-17
210 1 17.2446 73.3766 -4.05231e-17
211 2 128.675 193.951 -4.05231e-17
212 1 185.926 54.2462 -4.05231e-17
213 1 182.921 80.7749 -4.05231e-17
214 1 81.2719 24.3498 -4.05231e-17
215 1 94.1783 198.016 -4.05231e-17
216 1 171.678 92.1549 -4.05231e-17
217 1 136.675 205.309 -4.05231e-17
218 2 45.7674 128.131 -4.05231e-17
219 1 135.935 207.837 -4.05231e-17
220 2 105.987 65.5479 -4.05231e-17
221 1 205.106 60.1571 -4.05231e-17
222 1 120.805 104.968 -4.05231e-17
223 1 24.9104 196.349 -4.05231e-17
224 2 28.8218 189.53 -4.05231e-17
225 1 192.708 129.619 -4.05231e-17
226 1 183.1 194.502 -4.05231e-17
227 2 51.0592 207.104 -4.05231e-17
228 1 108.942 141.69 -4.05231e-17
229 1 48.5997 128.78 -4.05231e-17
230 1 168.934 140.119 -4.05231e-17
231 1 140.415 109.014 -4.05231e-17
232 1 205.861 76.0617 -4.05231e-17
233 1 34.4581 95.0542 -4.05231e-17
234 1 110.828 17.7896 -4.05231e-17
235 1 0.205901 118.271 -4.05231e-17
236 1 86.3205 128.46 -4.05231e-17
237 1 200.507 189.16 -4.05231e-17
238 1 120.015 137.954 -4.05231e-17
239 2 79.4669 111.928 -4.05231e-17
240 1 132.016 217.656 -4.05231e-17
241 2 90.9568 194.449 -4.05231e-17
242 2 207.919 12.5156 -4.05231e-17
243 2 98.0151 23.4481 -4.05231e-17
244 1 104.791 38.5466 -4.05231e-17
245 1 64.5665 79.6217 -4.05231e-17
246 1 145.673 129.561 -4.05231e-17
247 1 201.611 82.374 -4.05231e-17
248 1 102.407 205.039 -4.05231e-17
249 1 216.198 103.766 -4.05231e-17
250 2 133.909 1.37953 -4.05231e-17
251 1 143.807 33.6649 -4.05231e-17
252 1 196.89 18.5383 -4.05231e-17
253 1 139.106 78.3701 -4.05231e-17
254 2 34.9901 160.783 -4.05231e-17
255 1 204.156 145.87 -4.05231e-17
256 1 102.971 167.08 -4.05231e-17
257 1 200.106 152.5 -4.05231e-17
258 2 158.304 34.9042 -4.05231e-17
259 1 76.3774 121.646 -4.05231e-17
260 1 82.5684 72.0895 -4.05231e-17
261 1 210.805 176.505 -4.05231e-17
262 1 51.4001 57.8692 -4.05231e-17
263 1 15.3623 51.6425 -4.05231e-17
264 1 178.175 32.5259 -4.05231e-17
265 1 193.397 1.36422 -4.05231e-17
266 1 182.093 23.3928 -4.05231e-17
267 1 3.59745 101.113 -4.05231e-17
268 1 40.4906 55.2287 -4.05231e-17
269 1 107.567 81.2646 -4.05231e-17
270 1 103.427 99.4809 -4.05231e-17
271 1 50.639 102.39 -4.05231e-17
272 1 177.154 202.883 -4.05231e-17
273 1 58.1983 210.321 -4.05231e-17
274 2 105.445 60.9065 -4.05231e-17
275 1 71.9967 66.045 -4.05231e-17
276 2 60.1128 23.221 -4.05231e-17
277 2 170.905 77.8909 -4.05231e-17
278 1 60.2579 133.329 -4.05231e-17
279 2 108.274 28.375 -4.05231e-17
280 1 218.2 40.1437 -4.05231e-17
281 1 121.693 3.60657 -4.05231e-17
282 1 126.307 2.44019 -4.05231e-17
283 1 126.53 141.709 -4.05231e-17
284 1 93.8816 45.2927 -4.05231e-17
285 1 8.88377 213.335 -4.05231e-17
286 2 50.6298 210.546 -4.05231e-17
287 1 33.8585 108.733 -4.05231e-17
288 1 5.78269 73.0178 -4.05231e-17
289 1 50.8996 41.0122 -4.05231e-17
290 1 170.171 187.637 -4.05231e-17
291 1 167.046 134.011 -4.05231e-17
292 2 77.5924 215.646 -4.05231e-17
293 2 93.4767 212.383 -4.05231e-17
294 1 124.222 54.6154 -4.05231e-17
295 1 104.145 8.47205 -4.05231e-17
296 1 129.791 40.2748 -4.05231e-17
297 1 166.893 147.286 -4.05231e-17
298 1 171.896 212.318 -4.05231e-17
299 1 103.654 94.9859 -4.05231e-17
300 2 67.7758 127.29 -4.05231e-17
301 1 23.268 15.441 -4.05231e-17
302 1 170.101 174.412 -4.05231e-17
303 2 11.3258 48.3485 -4.05231e-17
304 2 166.475 150.757 -4.05231e-17
305 1 86.6139 113.533 -4.05231e-17
306 1 40.7299 52.5685 -4.05231e-17
307 1 194.86 122.81 -4.05231e-17
308 1 166.842 36.7003 -4.05231e-17
309 2 98.3052 157.11 -4.05231e-17
310 1 11.5586 212.959 -4.05231e-17
311 1 61.2675 56.5746 -4.05231e-17
312 1 179.719 140.855 -4.05231e-17
313 2 143.817 44.4242 -4.05231e-17
314 1 62.5545 98.3637 -4.05231e-17
315 1 128.086 151.191 -4.05231e-17
316 1 59.785 16.9632 -4.05231e-17
317 1 9.5629 131.629 -4.05231e-17
318 1 133.728 6.67782 -4.05231e-17
319 1 52.9862 1.60342 -4.05231e-17
320 1 96.3957 81.4866 -4.05231e-17
321 1 62.0635 213.183 -4.05231e-17
322 1 136.667 129.388 -4.05231e-17
323 1 164.788 143.152 -4.05231e-17
324 1 86.5973 42.7355 -4.05231e-17
325 1 152.469 149.283 -4.05231e-17
326 1 102.565 155.269 -4.05231e-17
327 2 142.889 171.834 -4.05231e-17
328 1 209.081 22.9285 -4.05231e-17
329 2 213.447 135.637 -4.05231e-17
330 1 8.02353 133.749 -4.05231e-17
331 1 168.069 186.312 -4.05231e-17
332 2 112.923 131.872 -4.05231e-17
333 1 46.1784 22.2506 -4.05231e-17
334 1 99.2968 169.176 -4.05231e-17
335 1 215.212 199.212 -4.05231e-17
336 1 184.624 103.658 -4.05231e-17
337 1 140.795 196.657 -4.05231e-17
338 1 167.909 22.0821 -4.05231e-17
339 1 100.407 57.4248 -4.05231e-17
340 1 179.109 143.154 -4.05231e-17
341 1 147.457 163.811 -4.05231e-17
342 1 156.899 185.848 -4.05231e-17
343 1 134.553 77.2777 -4.05231e-17
344 1 89.4418 162.828 -4.05231e-17
345 1 69.4105 15.4517 -4.05231e-17
346 1 11.8536 148.672 -4.05231e-17
347 1 85.1571 90.9606 -4.05231e-17
348 1 154.333 167.329 -4.05231e-17
349 1 18.4961 61.7215 -4.05231e-17
350 2 83.8063 43.7594 -4.05231e-17
351 1 167.368 47.2125 -4.05231e-17
352 1 39.2582 142.357 -4.05231e-17
353 1 49.1102 213.257 -4.05231e-17
354 1 170.239 171.702 -4.05231e-17
355 1 100.032 154.803 -4.05231e-17
356 1 35.7458 0.980716 -4.05231e-17
357 1 44.8166 164.647 -4.05231e-17
358 1 212.981 209.132 -4.05231e-17
359 1 199.342 127.707 -4.05231e-17
360 1 73.9412 86.6573 -4.05231e-17
361 1 104.506 181.103 -4.05231e-17
362 1 206.85 23.7857 -4.05231e-17
363 1 176.209 192.331 -4.05231e-17
364 2 165.033 110.343 -4.05231e-17
365 1 162.548 87.2104 -4.05231e-17
366 1 134.916 156.156 -4.05231e-17
367 1 2.15217 40.6329 -4.05231e-17
368 1 204.377 198.305 -4.05231e-17
369 2 107.025 180.214 -4.05231e-17
370 1 25.7495 206.964 -4.05231e-17
371 1 48.1497 123.241 -4.05231e-17
372 2 204.366 83.9486 -4.05231e-17
373 2 175.712 16.4476 -4.05231e-17
374 1 170.921 50.301 -4.05231e-17
375 1 217.15 107.663 -4.05231e-17
376 1 59.889 165.105 -4.05231e-17
377 1 34.8094 62.5921 -4.05231e-17
378 1 81.3746 141.879 -4.05231e-17
379 1 15.7475 69.3 -4.05231e-17
380 1 185.986 159.253 -4.05231e-17
381 1 12.7929 201.574 -4.05231e-17
382 1 67.5407 22.2592 -4.05231e-17
383 1 150.139 79.415 -4.05231e-17
384 1 4.67753 34.7416 -4.05231e-17
385 1 179.652 92.7039 -4.05231e-17
386 2 53.3774 42.8866 -4.05231e-17
387 1 115.588 217.65 -4.05231e-17
388 1 95.7878 83.8325 -4.05231e-17
389 1 65.6877 181.142 -4.05231e-17
390 2 211.203 173.332 -4.05231e-17
391 2 14.0345 11.1045 -4.05231e-17
392 1 57.7034 189.291 -4.05231e-17
393 1 217.171 30.6235 -4.05231e-17
394 1 78.0152 158.899 -4.05231e-17
395 1 56.6656 200.22 -4.05231e-17
396 1 204.229 151.845 -4.05231e-17
397 1 113.041 51.5928 -4.05231e-17
398 1 10.4787 188.356 -4.05231e-17
399 1 21.6471 35.4722 -4.05231e-17
400 1 117.01 30.6466 -4.05231e-17
401 1 109.521 174.178 -4.05231e-17
402 2 9.34452 169.129 -4.05231e-17
403 1 24.4456 28.9338 -4.05231e-17
404 1 32.2758 136.45 -4.05231e-17
405 1 34.759 210.293 -4.05231e-17
406 1 181.037 49.5332 -4.05231e-17
407 2 217.469 37.1646 -4.05231e-17
408 1 37.9039 56.2289 -4.05231e-17
409 1 158.611 96.9346 -4.05231e-17
410 1 64.4856 191.613 -4.05231e-17
411 1 172.323 173.499 -4.05231e-17
412 1 101.155 67.9341 -4.05231e-17
413 1 17.0329 140.052 -4.05231e-17
414 1 12.9798 205.834 -4.05231e-17
415 1 213.057 161.037 -4.05231e-17
416 1 65.2367 42.3329 -4.05231e-17
417 1 127.841 115.142 -4.05231e-17
418 2 216.413 213.425 -4.05231e-17
419 1 125.702 150.763 -4.05231e-17
420 2 141.446 103.533 -4.05231e-17
421 1 51.1422 133.332 -4.05231e-17
422 1 129.767 201.373 -4.05231e-17
423 2 159.228 4.38439 -4.05231e-17
424 1 153.976 174.336 -4.05231e-17
425 1 139.563 147.276 -4.05231e-17
426 1 163.031 128.526 -4.05231e-17
427 1 88.7399 115.384 -4.05231e-17
428 1 56.109 174.356 -4.05231e-17
429 1 175.45 116.406 -4.05231e-17
430 1 177.194 39.596 -4.05231e-17
431 1 156.231 175.59 -4.05231e-17
432 1 165.43 67.0882 -4.05231e-17
433 1 122.538 155.149 -4.05231e-17
434 1 64.1894 29.8184 -4.05231e-17
435 1 160.1 156.579 -4.05231e-17
436 1 2.65156 25.3001 -4.05231e-17
437 1 199.306 143.387 -4.05231e-17
438 2 111.157 41.0883 -4.05231e-17
439 1 100.405 210.958 -4.05231e-17
440 1 208.649 118.099 -4.05231e-17
441 1 201.64 169.828 -4.05231e-17
442 1 53.9583 206.745 -4.05231e-17
443 1 157.55 101.305 -4.05231e-17
444 1 209.183 113.549 -4.05231e-17
445 1 134.808 55.4828 -4.05231e-17
446 1 167.846 124.878 -4.05231e-17
447 1 25.5021 156.744 -4.05231e-17
448 1 83.7362 17.6487 -4.05231e-17
449 1 139.347 125.522 -4.05231e-17
450 1 148.011 10.9237 -4.05231e-17
451 1 184.599 27.4805 -4.05231e-17
452 1 151.173 135.269 -4.05231e-17
453 1 197.041 201.813 -4.05231e-17
454 1 170.25 203.319 -4.05231e-17
455 1 81.1589 44.7053 -4.05231e-17
456 1 162.399 10.809 -4.05231e-17
457 1 60.6056 61.8564 -4.05231e-17
458 1 178.856 211.752 -4.05231e-17
459 1 14.8666 71.6778 -4.05231e-17
460 1 9.89163 104.807 -4.05231e-17
461 1 182.785 185.01 -4.05231e-17
462 1 57.6911 141.155 -4.05231e-17
463 1 112.861 56.5823 -4.05231e-17
464 1 131.346 206.045 -4.05231e-17
465 1 141.612 118.784 -4.05231e-17
466 1 11.0161 178.199 -4.05231e-17
467 1 76.362 100.662 -4.05231e-17
468 1 174.366 211.456 -4.05231e-17
469 1 68.129 76.2122 -4.05231e-17
470 1 68.8254 29.9383 -4.05231e-17
471 1 146.001 192.451 -4.05231e-17
472 1 41.0631 98.7097 -4.05231e-17
473 1 98.0653 132.435 -4.05231e-17
474 1 96.0586 144.134 -4.05231e-17
475 1 152.136 161.621 -4.05231e-17
476 2 198.25 9.72402 -4.05231e-17
477 1 20.4741 117.063 -4.05231e-17
478 1 209.825 147.875 -4.05231e-17
479 1 200.114 59.7659 -4.05231e-17
480 1 84.2752 40.7778 -4.05231e-17
481 1 215.817 126.035 -4.05231e-17
482 1 117.95 161.668 -4.05231e-17
483 1 136.593 151.39 -4.05231e-17
484 2 83.0877 59.7152 -4.05231e-17
485 1 57.644 151.116 -4.05231e-17
486 1 80.4213 32.3834 -4.05231e-17
487 1 79.8855 217.31 -4.05231e-17
488 1 68.2694 69.114 -4.05231e-17
489 1 205.843 117.399 -4.05231e-17
490 1 204.785 64.8418 -4.05231e-17
491 1 189.894 78.3336 -4.05231e-17
492 1 187.533 141.611 -4.05231e-17
493 1 144.214 1.30074 -4.05231e-17
494 1 179.461 7.67951 -4.05231e-17
495 1 148.607 53.9394 -4.05231e-17
496 2 46.5097 190.598 -4.05231e-17
497 1 47.6345 215.763 -4.05231e-17
498 1 114.722 116.914 -4.05231e-17
499 2 125.342 206.592 -4.05231e-17
500 1 55.9022 215.813 -4.05231e-17
501 2 136.052 214.866 -4.05231e-17
502 2 135.074 164.157 -4.05231e-17
503 1 167.174 179.129 -4.05231e-17
504 1 129.856 148.95 -4.05231e-17
505 1 188.505 54.3584 -4.05231e-17
506 1 199.511 154.947 -4.05231e-17
507 1 89.9278 143.686 -4.05231e-17
508 1 166.639 34.2876 -4.05231e-17
509 2 26.7479 85.2566 -4.05231e-17
510 2 154.55 100.818 -4.05231e-17
511 1 215.08 54.7663 -4.05231e-17
512 2 0.931967 49.782 -4.05231e-17
513 1 70.2645 183.563 -4.05231e-17
514 1 68.9152 54.4923 -4.05231e-17
515 1 0.137243 208.047 -4.05231e-17
516 1 207.376 186.451 -4.05231e-17
517 1 87.6963 106.091 -4.05231e-17
518 2 111.831 44.8103 -4.05231e-17
519 1 4.84581 40.9096 -4.05231e-17
520 2 13.0836 53.6227 -4.05231e-17
521 1 126.812 122.536 -4.05231e-17
522 1 25.9546 19.8 -4.05231e-17
523 1 0.297838 91.7383 -4.05231e-17
524 1 46.1803 82.4373 -4.05231e-17
525 1 57.9797 161.123 -4.05231e-17
526 1 179.554 47.2648 -4.05231e-17
527 1 68.2812 7.27297 -4.05231e-17
528 1 160.853 15.163 -4.05231e-17
529 1 85.4209 165.115 -4.05231e-17
530 1 105.609 100.676 -4.05231e-17
531 1 53.5184 150.543 -4.05231e-17
532 1 6.18826 186.741 -4.05231e-17
533 1 140.85 169.321 -4.05231e-17
534 1 110.95 151.443 -4.05231e-17
535 1 199.84 148.358 -4.05231e-17
536 1 188.204 147.017 -4.05231e-17
537 1 205.65 178.72 -4.05231e-17
538 1 154.852 73.1214 -4.05231e-17
539 1 71.0933 7.89131 -4.05231e-17
540 1 109.819 82.9713 -4.05231e-17
541 1 59.1809 10.1925 -4.05231e-17
542 1 76.268 12.7998 -4.05231e-17
543 1 138.552 182.036 -4.05231e-17
544 1 153.845 189.185 -4.05231e-17
545 1 27.9222 153.676 -4.05231e-17
546 1 185.077 19.5898 -4.05231e-17
547 1 21.3093 112.074 -4.05231e-17
548 1 86.5269 196.061 -4.05231e-17
549 1 46.0933 36.1902 -4.05231e-17
550 2 197.147 152.839 -4.05231e-17
551 2 130.371 110.88 -4.05231e-17
552 2 131.214 177.976 -4.05231e-17
553 1 114.886 4.32715 -4.05231e-17
554 1 39.8991 101.064 -4.05231e-17
555 2 3.02562 97.9066 -4.05231e-17
556 1 153.935 0.772396 -4.05231e-17
557 1 83.5276 22.7798 -4.05231e-17
558 1 155.621 140.079 -4.05231e-17
559 1 207.134 34.7211 -4.05231e-17
560 1 176.973 83.4941 -4.05231e-17
561 1 163.739 169.455 -4.05231e-17
562 1 170.434 156.55 -4.05231e-17
563 2 193.366 184.177 -4.05231e-17
564 1 217.688 74.6123 -4.05231e-17
565 1 70.9446 215.969 -4.05231e-17
566 1 60.8053 41.7623 -4.05231e-17
567 1 186.404 130.723 -4.05231e-17
568 1 64.7354 173.945 -4.05231e-17
569 1 61.8897 178.443 -4.05231e-17
570 1 123.504 133.797 -4.05231e-17
571 1 186.14 205.903 -4.05231e-17
572 1 62.7323 48.5118 -4.05231e-17
573 1 176.125 44.5192 -4.05231e-17
574 1 187.904 157.418 -4.05231e-17
575 1 8.25169 72.8502 -4.05231e-17
576 1 129.144 123.539 -4.05231e-17
577 1 177.502 21.2202 -4.05231e-17
578 1 121.619 202.387 -4.05231e-17
579 1 21.0608 185.493 -4.05231e-17
580 1 120.264 130.826 -4.05231e-17
581 1 168.396 170.041 -4.05231e-17
582 1 42.7936 56.7398 -4.05231e-17
583 1 168.755 24.5964 -4.05231e-17
584 2 213.175 127.383 -4.05231e-17
585 1 55.2699 141.629 -4.05231e-17
586 1 138.907 161.325 -4.05231e-17
587 1 23.4865 91.8986 -4.05231e-17
588 1 31.9095 190.45 -4.05231e-17
589 1 129.737 211.429 -4.05231e-17
590 1 76.1239 205.866 -4.05231e-17
591 1 62.5953 162.276 -4.05231e-17
592 1 22.3178 96.3929 -4.05231e-17
593 1 19.1633 190.883 -4.05231e-17
594 1 182.961 182.516 -4.05231e-17
595 1 93.3815 77.2297 -4.05231e-17
596 1 53.5609 10.0861 -4.05231e-17
597 2 199.826 6.91517 -4.05231e-17
598 1 176.669 208.021 -4.05231e-17
599 1 37.4405 170.138 -4.05231e-17
600 1 140.725 216.473 -4.05231e-17
601 1 68.8641 176.476 -4.05231e-17
602 1 125.854 12.4814 -4.05231e-17
603 1 216.473 192.611 -4.05231e-17
604 1 119.637 204.175 -4.05231e-17
605 2 98.9864 122.491 -4.05231e-17
606 1 90.7098 202.524 -4.05231e-17
607 2 123.817 190.974 -4.05231e-17
608 1 110.428 98.9687 -4.05231e-17
609 1 49.9215 148.87 -4.05231e-17
610 1 195.354 164.279 -4.05231e-17
611 1 17.4378 162.944 -4.05231e-17
612 1 5.49992 43.3105 -4.05231e-17
613 1 197.379 135.305 -4.05231e-17
614 2 139.701 204.358 -4.05231e-17
615 1 131.484 213.111 -4.05231e-17
616 1 193.832 127.582 -4.05231e-17
617 1 56.9677 184.419 -4.05231e-17
618 1 202.758 192.93 -4.05231e-17
619 1 192.297 79.3786 -4.05231e-17
620 1 168.382 79.3661 -4.05231e-17
621 1 179.135 67.1089 -4.05231e-17
622 1 138.471 195.392 -4.05231e-17
623 1 188.753 3.58831 -4.05231e-17
624 1 29.0958 186.832 -4.05231e-17
625 1 183.428 158.88 -4.05231e-17
626 1 137.845 173.447 -4.05231e-17
627 1 43.8201 98.699 -4.05231e-17
628 1 55.973 43.7761 -4.05231e-17
629 1 84.3518 80.9134 -4.05231e-17
630 2 169.735 27.621 -4.05231e-17
631 1 10.0581 34.506 -4.05231e-17
632 1 36.1752 76.4311 -4.05231e-17
633 1 29.015 209.832 -4.05231e-17
634 1 194.441 94.6159 -4.05231e-17
635 1 153.526 125.388 -4.05231e-17
636 1 14.8731 65.181 -4.05231e-17
637 1 215.269 44.1617 -4.05231e-17
638 1 206.372 58.1268 -4.05231e-17
639 2 20.043 45.0051 -4.05231e-17
640 1 160.196 137.427 -4.05231e-17
641 1 170.649 101.734 -4.05231e-17
642 1 2.22253 89.6628 -4.05231e-17
643 2 198.087 52.7779 -4.05231e-17
644 1 95.1068 166.682 -4.05231e-17
645 1 106.368 207.424 -4.05231e-17
646 2 216.57 163.692 -4.05231e-17
647 1 112.357 205.906 -4.05231e-17
648 1 143.742 117.273 -4.05231e-17
649 2 181.781 145.217 -4.05231e-17
650 1 204.821 186.264 -4.05231e-17
651 1 189.182 120.94 -4.05231e-17
652 1 179.844 25.0854 -4.05231e-17
653 1 131.114 186.347 -4.05231e-17
654 1 39.5094 28.2378 -4.05231e-17
655 2 174.471 92.7929 -4.05231e-17
656 1 27.7523 130.225 -4.05231e-17
657 2 107.904 17.1855 -4.05231e-17
658 1 10.5544 14.3333 -4.05231e-17
659 2 198.582 4.06627 -4.05231e-17
660 1 65.6501 36.8693 -4.05231e-17
661 1 57.2363 119.267 -4.05231e-17
662 1 51.9086 137.968 -4.05231e-17
663 1 75.9915 10.3274 -4.05231e-17
664 1 148.11 36.2946 -4.05231e-17
665 1 132.417 56.2247 -4.05231e-17
666 2 63.1794 193.984 -4.05231e-17
667 1 142.821 59.3227 -4.05231e-17
668 2 100.88 106.792 -4.05231e-17
669 1 69.9596 52.397 -4.05231e-17
670 1 95.2594 14.0355 -4.05231e-17
671 2 65.2102 164.295 -4.05231e-17
672 1 192.33 8.6025 -4.05231e-17
673 1 42.5597 45.7542 -4.05231e-17
674 1 190.917 191.779 -4.05231e-17
675 1 119.981 51.7225 -4.05231e-17
676 1 132.656 95.2371 -4.05231e-17
677 1 128.971 187.748 -4.05231e-17
678 1 122.215 18.3626 -4.05231e-17
679 2 182.426 7.17729 -4.05231e-17
680 1 29.5995 12.6994 -4.05231e-17
681 2 147.453 48.5293 -4.05231e-17
682 1 205.089 11.4546 -4.05231e-17
683 1 65.2497 20.6761 -4.05231e-17
684 1 153.152 146.964 -4.05231e-17
685 1 197.402 37.1786 -4.05231e-17
686 1 78.052 109.51 -4.05231e-17
687 1 156.006 178.407 -4.05231e-17
688 1 175.228 98.1764 -4.05231e-17
689 2 28.7359 43.4318 -4.05231e-17
690 1 73.7082 32.6513 -4.05231e-17
691 1 40.0446 60.7977 -4.05231e-17
692 1 136.364 161.804 -4.05231e-17
693 1 95.2387 8.79214 -4.05231e-17
694 1 13.513 177.494 -4.05231e-17
695 1 154.429 56.5121 -4.05231e-17
696 1 143.939 81.7631 -4.05231e-17
697 1 130.616 170.576 -4.05231e-17
698 1 109.376 89.2892 -4.05231e-17
699 1 196 174.863 -4.05231e-17
700 1 33.7211 5.5301 -4.05231e-17
701 1 32.3139 28.9227 -4.05231e-17
702 1 67.7334 110.74 -4.05231e-17
703 2 173.918 127.353 -4.05231e-17
704 1 80.2539 199.226 -4.05231e-17
705 2 203.729 97.4346 -4.05231e-17
706 1 136.63 177.921 -4.05231e-17
707 1 136.173 34.8336 -4.05231e-17
708 1 40.2085 127.324 -4.05231e-17
709 1 162.677 206.02 -4.05231e-17
710 1 188.679 182.284 -4.05231e-17
711 1 136.116 60.8067 -4.05231e-17
712 1 188.991 212.07 -4.05231e-17
713 1 205.39 114.96 -4.05231e-17
714 1 151.357 45.1796 -4.05231e-17
715 1 58.4284 205.304 -4.05231e-17
716 1 93.6188 152.997 -4.05231e-17
717 1 209.252 111.035 -4.05231e-17
718 1 161.07 186.267 -4.05231e-17
719 2 90.0239 107.667 -4.05231e-17
720 1 67.7591 59.4933 -4.05231e-17
721 1 19.512 110.429 -4.05231e-17
722 1 99.1662 52.9144 -4.05231e-17
723 2 25.9382 45.7433 -4.05231e-17
724 1 11.6137 199.453 -4.05231e-17
725 1 28.0506 73.4734 -4.05231e-17
726 1 212.7 44.1599 -4.05231e-17
727 1 161.462 196.636 -4.05231e-17
728 2 22.5059 122.369 -4.05231e-17
729 1 133.309 161.66 -4.05231e-17
730 1 41.9435 159.97 -4.05231e-17
731 1 77.7847 193.109 -4.05231e-17
732 1 65.0908 18.0772 -4.05231e-17
733 1 6.50396 60.0889 -4.05231e-17
734 1 9.21967 16.7478 -4.05231e-17
735 1 3.7074 16.9928 -4.05231e-17
736 2 26.7283 80.8939 -4.05231e-17
737 1 39.2244 88.9112 -4.05231e-17
738 1 208.613 189.017 -4.05231e-17
739 1 126.311 157.928 -4.05231e-17
740 1 46.0443 162.408 -4.05231e-17
741 2 192.927 40.0942 -4.05231e-17
742 1 27.9004 58.5466 -4.05231e-17
743 1 24.6344 60.5223 -4.05231e-17
744 2 207.735 155.332 -4.05231e-17
745 1 136.397 10.9135 -4.05231e-17
746 1 216.393 57.1263 -4.05231e-17
747 2 218.826 10.2473 -4.05231e-17
748 1 22.7806 194.861 -4.05231e-17
749 1 29.7348 28.5445 -4.05231e-17
750 1 12.0421 146.076 -4.05231e-17
751 1 23.0632 53.3339 -4.05231e-17
752 1 161.345 151.75 -4.05231e-17
753 1 116.301 152.415 -4.05231e-17
754 1 198.307 211.261 -4.05231e-17
755 1 98.5277 198.258 -4.05231e-17
756 2 136.244 183.728 -4.05231e-17
757 1 184.565 22.2059 -4.05231e-17
758 1 210.738 159.987 -4.05231e-17
759 1 95.9163 127.398 -4.05231e-17
760 1 127.06 93.6837 -4.05231e-17
761 1 107.942 218.847 -4.05231e-17
762 1 14.0446 47.2561 -4.05231e-17
763 1 75.9169 108.219 -4.05231e-17
764 2 134.796 158.873 -4.05231e-17
765 1 65.1185 47.5589 -4.05231e-17
766 1 87.7535 34.7984 -4.05231e-17
767 1 87.7031 95.6754 -4.05231e-17
768 1 2.16262 9.07234 -4.05231e-17
769 1 89.764 53.5989 -4.05231e-17
770 2 99.9112 130.328 -4.05231e-17
771 1 159.789 209.381 -4.05231e-17
772 1 103.653 54.1846 -4.05231e-17
773 1 115.128 178.975 -4.05231e-17
774 1 120.316 119.32 -4.05231e-17
775 1 83.7898 12.6992 -4.05231e-17
776 1 20.4603 15.346 -4.05231e-17
777 1 162.201 193.17 -4.05231e-17
778 1 23.2425 212.787 -4.05231e-17
779 1 194.495 28.1784 -4.05231e-17
780 1 206.856 158.298 -4.05231e-17
781 1 90.6176 122.17 -4.05231e-17
782 1 189.245 44.5464 -4.05231e-17
783 1 126.872 7.73493 -4.05231e-17
784 2 207.501 104.066 -4.05231e-17
785 1 126.123 170.067 -4.05231e-17
786 1 124.814 172.243 -4.05231e-17
787 1 170.554 22.6168 -4.05231e-17
788 1 153.842 25.3123 -4.05231e-17
789 2 174.332 84.7796 -4.05231e-17
790 1 89.7517 38.9952 -4.05231e-17
791 2 40.6827 184.48 -4.05231e-17
792 2 208.826 7.06112 -4.05231e-17
793 2 119.559 65.7833 -4.05231e-17
794 1 92.1304 207.809 -4.05231e-17
795 1 155.929 45.8032 -4.05231e-17
796 1 110.377 15.2901 -4.05231e-17
797 1 183.961 143.502 -4.05231e-17
798 2 192.626 15.2629 -4.05231e-17
799 2 17.8408 86.1604 -4.05231e-17
800 2 79.8389 1.25005 -4.05231e-17
801 1 65.2194 110.845 -4.05231e-17
802 1 82.4958 90.8275 -4.05231e-17
803 1 175.034 66.2523 -4.05231e-17
804 2 102.43 19.5714 -4.05231e-17
805 1 44.8524 120.094 -4.05231e-17
806 1 20.2421 148.325 -4.05231e-17
807 2 80.2928 97.8661 -4.05231e-17
808 1 71.4654 81.218 -4.05231e-17
809 2 206.577 110.007 -4.05231e-17
810 1 92.9713 203.513 -4.05231e-17
811 1 30.7171 207.636 -4.05231e-17
812 1 130.839 44.7638 -4.05231e-17
813 2 129.871 94.614 -4.05231e-17
814 1 82.979 78.8284 -4.05231e-17
815 1 108.185 167.453 -4.05231e-17
816 1 191.518 45.3941 -4.05231e-17
817 1 139.795 19.3545 -4.05231e-17
818 1 38.2152 139.771 -4.05231e-17
819 1 47.8248 154.522 -4.05231e-17
820 1 22.3842 174.704 -4.05231e-17
821 1 111.989 153.969 -4.05231e-17
822 2 14.6236 129.661 -4.05231e-17
823 2 124.667 76.0125 -4.05231e-17
824 1 47.4459 54.5461 -4.05231e-17
825 1 49.1131 7.30173 -4.05231e-17
826 1 18.9995 183.804 -4.05231e-17
827 1 183.523 161.401 -4.05231e-17
828 1 140.504 114.089 -4.05231e-17
829 1 128.514 206.32 -4.05231e-17
830 1 75.4393 136.192 -4.05231e-17
831 1 198.322 25.0972 -4.05231e-17
832 1 48.5316 79.2193 -4.05231e-17
833 1 42.9947 54.0042 -4.05231e-17
834 1 114.946 14.9613 -4.05231e-17
835 1 60.1527 3.42246 -4.05231e-17
836 1 1.64697 67.0112 -4.05231e-17
837 1 16.5676 89.6264 -4.05231e-17
838 1 151.118 202.76 -4.05231e-17
839 2 212.474 200.115 -4.05231e-17
840 1 147.034 23.8913 -4.05231e-17
841 2 74.4328 158.478 -4.05231e-17
842 1 77.363 57.6654 -4.05231e-17
843 2 185.129 153.1 -4.05231e-17
844 1 23.2024 186.755 -4.05231e-17
845 1 118.793 189.97 -4.05231e-17
846 1 121.824 199.868 -4.05231e-17
847 1 92.3312 179.962 -4.05231e-17
848 1 136.625 56.9597 -4.05231e-17
849 1 203.834 177.09 -4.05231e-17
850 1 4.14857 124.568 -4.05231e-17
851 1 37.5551 37.9715 -4.05231e-17
852 1 160.417 12.6959 -4.05231e-17
853 1 86.0856 138.099 -4.05231e-17
854 1 123.053 115.588 -4.05231e-17
855 1 108.119 55.0922 -4.05231e-17
856 1 94.8216 179.854 -4.05231e-17