ITEM: TIMESTEP
0
ITEM: NUMBER OF ATOMS
7200
ITEM: BOX BOUNDS xy xz yz pp pp pp
0.0000000000000000e+00 2.1900000000000000e+02 0.0000000000000000e+00
0.0000000000000000e+00 2.1900000000000000e+02 0.0000000000000000e+00
-3.6499999999999999e-01 3.6499999999999999e-01 0.0000000000000000e+00
ITEM: ATOMS id type x y z
1 1 49.6844 125.482 -4.05231e-17
2 1 192.759 99.9405 -4.05231e-17
3 1 13.4528 173.038 -4.05231e-17
4 1 27.15 73.811 -4.05231e-17
5 1 15.0365 130.27 -4.05231e-17
6 1 138.949 184.691 -4.05231e-17
7 1 51.3709 27.3746 -4.05231e-17
8 2 158.292 84.7323 -4.05231e-17
9 1 193.263 7.90158 -4.05231e-17
10 2 55.8493 196.915 -4.05231e-17
11 1 119.336 212.093 -4.05231e-17
12 1 170.542 97.0293 -4.05231e-17
13 2 72.1916 99.5025 -4.05231e-17
14 1 66.2685 21.1927 -4.05231e-17
15 1 119.095 92.3724 -4.05231e-17
16 2 53.0195 171.786 -4.05231e-17
17 1 128.445 30.7119 -4.05231e-17
18 2 13.1617 54.3019 -4.05231e-17
19 1 110.478 46.3596 -4.05231e-17
20 1 158.719 126.748 -4.05231e-17
21 1 42.9509 8.38605 -4.05231e-17
22 2 12.5847 128.595 -4.05231e-17
23 2 22.1697 49.6831 -4.05231e-17
24 1 164.796 110.21 -4.05231e-17
25 1 47.3194 201.578 -4.05231e-17
26 2 100.598 100.824 -4.05231e-17
27 1 186.458 190.926 -4.05231e-17
28 2 12.3984 158.932 -4.05231e-17
29 1 77.7227 45.2744 -4.05231e-17
30 1 135.249 108.034 -4.05231e-17
31 1 215.961 89.1739 -4.05231e-17
32 1 89.9655 121.169 -4.05231e-17
33 1 154.169 173.719 -4.05231e-17
34 1 42.8217 50.9825 -4.05231e-17
35 1 176.586 69.0343 -4.05231e-17
36 1 72.9429 131.861 -4.05231e-17
37 2 122.574 144.816 -4.05231e-17
38 1 199.647 71.8763 -4.05231e-17
39 1 114.551 142.951 -4.05231e-17
40 1 142.91 153.157 -4.05231e-17
41 1 132.721 180.4 -4.05231e-17
42 1 110.474 41.4018 -4.05231e-17
43 1 142.002 93.6561 -4.05231e-17
44 1 120.196 41.77 -4.05231e-17
45 1 215.981 79.6837 -4.05231e-17
46 1 37.8061 206.846 -4.05231e-17
47 1 49.9691 170.983 -4.05231e-17
48 2 57.8716 82.507 -4.05231e-17
49 1 70.9137 140.653 -4.05231e-17
50 1 31.7494 206.17 -4.05231e-17
51 1 180.952 32.7273 -4.05231e-17
52 1 198.899 118.473 -4.05231e-17
53 1 148.352 35.7677 -4.05231e-17
54 1 13.82 125.889 -4.05231e-17
55 1 18.5324 45.9324 -4.05231e-17
56 1 107.064 133.177 -4.05231e-17
57 2 78.2196 201.278 -4.05231e-17
58 1 32.4248 41.3991 -4.05231e-17
59 1 214.732 118.868 -4.05231e-17
60 2 134.254 131.716 -4.05231e-17
61 2 42.3564 196.088 -4.05231e-17
62 1 25.6672 135.316 -4.05231e-17
63 1 128.391 5.73017 -4.05231e-17
64 1 137.495 41.4703 -4.05231e-17
65 1 211.666 118.001 -4.05231e-17
66 1 139.45 133.506 -4.05231e-17
67 1 90.1696 135.658 -4.05231e-17
68 1 75.3983 112.483 -4.05231e-17
69 1 120.856 188.487 -4.05231e-17
70 1 27.7117 105.424 -4.05231e-17
71 1 192.149 134.894 -4.05231e-17
72 1 173.765 59.7173 -4.05231e-17
73 1 190.527 185.528 -4.05231e-17
74 1 199.558 16.7719 -4.05231e-17
75 2 90.4912 211.274 -4.05231e-17
76 1 3.77882 210.192 -4.05231e-17
77 1 59.6121 38.7142 -4.05231e-17
78 1 113.27 100.348 -4.05231e-17
79 2 109.197 11.4073 -4.05231e-17
80 1 67.0438 123.471 -4.05231e-17
81 1 109.262 141.851 -4.05231e-17
82 1 24.9806 104.082 -4.05231e-17
83 2 119.476 171.636 -4.05231e-17
84 1 178.911 83.2141 -4.05231e-17
85 1 50.9263 95.5702 -4.05231e-17
86 1 115.61 138.321 -4.05231e-17
87 1 6.1722 25.3161 -4.05231e-17
88 1 37.9027 42.5814 -4.05231e-17
89 2 45.1432 6.46101 -4.05231e-17
90 2 193.133 186.763 -4.05231e-17
91 1 173.129 96.2013 -4.05231e-17
92 2 156.765 4.94385 -4.05231e-17
93 1 140.542 32.7989 -4.05231e-17
94 2 164.098 20.8245 -4.05231e-17
95 1 42.3555 203.974 -4.05231e-17
96 1 154.073 92.2535 -4.05231e-17
97 1 138.716 17.2673 -4.05231e-17
98 1 122.353 51.7661 -4.05231e-17
99 1 183.316 15.9766 -4.05231e-17
100 1 150.035 216.862 -4.05231e-17
101 1 101.154 11.5936 -4.05231e-17
102 1 33.4803 50.6077 -4.05231e-17
103 1 58.1321 87.8996 -4.05231e-17
104 1 61.352 134.922 -4.05231e-17
105 1 122.088 202.756 -4.05231e-17
106 1 91.7635 104.912 -4.05231e-17
107 2 166.903 108.193 -4.05231e-17
108 1 26.769 0.168746 -4.05231e-17
109 1 36.1774 87.0355 -4.05231e-17
110 1 94.8663 55.2888 -4.05231e-17
111 1 62.2172 24.3893 -4.05231e-17
112 1 83.3092 126.968 -4.05231e-17
113 1 101.281 54.9779 -4.05231e-17
114 1 147.709 30.0628 -4.05231e-17
115 1 30.7726 182.582 -4.05231e-17
116 2 207.671 139.841 -4.05231e-17
117 1 201.335 9.73318 -4.05231e-17
118 1 166.818 67.1432 -4.05231e-17
119 2 55.2894 126.538 -4.05231e-17
120 1 60.8958 208.646 -4.05231e-17
121 1 169.434 99.4672 -4.05231e-17
122 1 126.893 213.603 -4.05231e-17
123 1 163.612 120.984 -4.05231e-17
124 1 164.273 195.631 -4.05231e-17
125 1 117.653 128.818 -4.05231e-17
126 1 92.4189 51.8141 -4.05231e-17
127 1 163.885 78.4573 -4.05231e-17
128 1 178.757 165.324 -4.05231e-17
129 1 7.20723 92.9451 -4.05231e-17
130 1 69.4838 122.386 -4.05231e-17
131 1 162.514 148.677 -4.05231e-17
132 2 198.308 9.14084 -4.05231e-17
133 1 122.997 74.742 -4.05231e-17
134 1 57.8969 66.1865 -4.05231e-17
135 1 78.8604 11.3122 -4.05231e-17
136 1 204.81 4.15794 -4.05231e-17
137 1 95.2848 127.561 -4.05231e-17
138 1 51.4396 215.792 -4.05231e-17
139 1 0.119152 117.76 -4.05231e-17
140 2 148.476 179.607 -4.05231e-17
141 1 193.63 87.0354 -4.05231e-17
142 2 215.058 27.4381 -4.05231e-17
143 1 117.945 74.7209 -4.05231e-17
144 2 39.7704 202.283 -4.05231e-17
145 1 179.807 92.9695 -4.05231e-17
146 1 106.436 85.1875 -4.05231e-17
147 1 122.613 154.167 -4.05231e-17
148 1 15.1044 194.136 -4.05231e-17
149 1 69.3152 24.873 -4.05231e-17
150 1 33.3991 32.2443 -4.05231e-17
151 1 42.5535 108.789 -4.05231e-17
152 1 28.8988 88.6143 -4.05231e-17
153 2 52.9523 9.84111 -4.05231e-17
154 1 152.965 139.697 -4.05231e-17
155 1 117.727 3.23408 -4.05231e-17
156 2 54.5609 139.446 -4.05231e-17
157 1 210.95 102.375 -4.05231e-17
158 1 26.2442 29.5986 -4.05231e-17
159 1 217.781 139.751 -4.05231e-17
160 1 25.2034 217.352 -4.05231e-17
161 1 1.49245 25.0133 -4.05231e-17
162 1 134.79 128.523 -4.05231e-17
163 1 35.2263 41.939 -4.05231e-17
164 1 168.25 51.958 -4.05231e-17
165 1 132.951 170.298 -4.05231e-17
166 2 161.258 59.6565 -4.05231e-17
167 1 176.259 45.0149 -4.05231e-17
168 1 123.307 183.703 -4.05231e-17
169 1 5.08281 100.603 -4.05231e-17
170 1 97.2772 167.989 -4.05231e-17
171 1 145.363 73.6156 -4.05231e-17
172 1 204.275 15.9764 -4.05231e-17
173 1 44.5892 149.505 -4.05231e-17
174 1 128.45 61.6355 -4.05231e-17
175 2 129.594 158.961 -4.05231e-17
176 1 101.368 65.8172 -4.05231e-17
177 2 65.3353 49.529 -4.05231e-17
178 1 65.7058 81.5147 -4.05231e-17
179 1 168.175 166.587 -4.05231e-17
180 1 207.566 195.604 -4.05231e-17
181 1 171.209 187.725 -4.05231e-17
182 2 78.6145 23.293 -4.05231e-17
183 1 71.9902 162.324 -4.05231e-17
184 1 165.86 89.9276 -4.05231e-17
185 2 166.197 8.93833 -4.05231e-17
186 2 207.52 127.036 -4.05231e-17
187 1 92.9035 26.2433 -4.05231e-17
188 1 101.294 173.717 -4.05231e-17
189 1 125.112 167.154 -4.05231e-17
190 2 4.99065 155.183 -4.05231e-17
191 1 70.8726 156.763 -4.05231e-17
192 2 59.6894 122.065 -4.05231e-17
193 2 79.465 177.383 -4.05231e-17
194 1 17.638 141.728 -4.05231e-17
195 1 167.624 190.368 -4.05231e-17
196 1 177.461 177.709 -4.05231e-17
197 1 73.7276 74.8692 -4.05231e-17
198 2 21.6116 138.609 -4.05231e-17
199 1 210.213 57.3911 -4.05231e-17
200 1 81.0206 9.29848 -4.05231e-17
201 2 84.1863 124.013 -4.05231e-17
202 1 53.3095 214.037 -4.05231e-17
203 1 168.938 84.8123 -4.05231e-17
204 1 190.914 158.913 -4.05231e-17
205 2 197.752 81.1812 -4.05231e-17
206 1 91.949 137.507 -4.05231e-17
207 1 103.186 53.4639 -4.05231e-17
208 1 33.2897 62.6549 -4.05231e-17
209 1 81.8878 216.214 -4.05231e-17
210 1 7.04032 35.3815 -4.05231e-17
211 2 141.009 166.329 -4.05231e-17
212 1 132.813 107.004 -4.05231e-17
213 1 151.054 96.9107 -4.05231e-17
214 1 75.2101 16.866 -4.05231e-17
215 1 86.487 218.201 -4.05231e-17
216 1 185.804 128.17 -4.05231e-17
217 1 127.884 194.321 -4.05231e-17
218 2 34.3262 127.056 -4.05231e-17
219 1 155.146 207.705 -4.05231e-17
220 2 112.357 51.466 -4.05231e-17
221 1 209.913 54.9771 -4.05231e-17
222 1 163.31 94.3178 -4.05231e-17
223 1 70.2622 188.646 -4.05231e-17
224 2 27.9756 181.071 -4.05231e-17
225 1 199.493 132.948 -4.05231e-17
226 1 159.165 168.693 -4.05231e-17
227 2 51.5902 20.2075 -4.05231e-17
228 1 113.055 122.756 -4.05231e-17
229 1 47.8444 115.667 -4.05231e-17
230 1 183.838 132.816 -4.05231e-17
231 1 141.871 114.865 -4.05231e-17
232 1 217.195 74.4555 -4.05231e-17
233 1 85.7703 114.24 -4.05231e-17
234 1 94.4954 4.35222 -4.05231e-17
235 1 47.5828 165.404 -4.05231e-17
236 1 75.7737 92.473 -4.05231e-17
237 1 211.317 216.971 -4.05231e-17
238 1 111.196 117.562 -4.05231e-17
239 2 46.8133 137.501 -4.05231e-17
240 1 120.236 3.10366 -4.05231e-17
241 2 153.217 12.2655 -4.05231e-17
242 2 215.79 33.313 -4.05231e-17
243 2 99.2306 4.96524 -4.05231e-17
244 1 94.4898 7.40594 -4.05231e-17
245 1 90.4786 63.9539 -4.05231e-17
246 1 137.589 104.31 -4.05231e-17
247 1 214.553 95.9312 -4.05231e-17
248 1 84.776 3.86358 -4.05231e-17
249 1 12.4016 73.7941 -4.05231e-17
250 2 152.793 29.1417 -4.05231e-17
251 1 153.979 210.023 -4.05231e-17
252 1 199.629 58.8803 -4.05231e-17
253 1 115.049 55.4156 -4.05231e-17
254 2 60.8819 182.847 -4.05231e-17
255 1 214.334 142.966 -4.05231e-17
256 1 82.597 165.298 -4.05231e-17
257 1 202.588 151.969 -4.05231e-17
258 2 165.147 29.3737 -4.05231e-17
259 1 51.566 129.807 -4.05231e-17
260 1 118.704 17.4776 -4.05231e-17
261 1 215.859 209.286 -4.05231e-17
262 1 51.316 63.8162 -4.05231e-17
263 1 11.6645 15.0338 -4.05231e-17
264 1 173.709 41.6061 -4.05231e-17
265 1 154.751 31.7998 -4.05231e-17
266 1 114.865 217.929 -4.05231e-17
267 1 18.9727 65.9236 -4.05231e-17
268 1 23.3057 43.944 -4.05231e-17
269 1 113.65 87.217 -4.05231e-17
270 1 113.418 108.442 -4.05231e-17
271 1 20.1616 95.208 -4.05231e-17
272 1 166.126 202.446 -4.05231e-17
273 1 46.8949 204.254 -4.05231e-17
274 2 128.869 82.8074 -4.05231e-17
275 1 64.5048 8.0865 -4.05231e-17
276 2 51.5958 38.2511 -4.05231e-17
277 2 159.004 117.654 -4.05231e-17
278 1 59.4302 68.1588 -4.05231e-17
279 2 105.927 9.75641 -4.05231e-17
280 1 43.8878 31.8992 -4.05231e-17
281 1 144.206 3.55409 -4.05231e-17
282 1 162.775 31.1217 -4.05231e-17
283 1 112.043 142.438 -4.05231e-17
284 1 143.115 193.685 -4.05231e-17
285 1 37.0237 15.9831 -4.05231e-17
286 2 35.1361 211.178 -4.05231e-17
287 1 64.9259 128.522 -4.05231e-17
288 1 36.5331 54.177 -4.05231e-17
289 1 70.335 48.7313 -4.05231e-17
290 1 162.317 200.387 -4.05231e-17
291 1 158.336 129.496 -4.05231e-17
292 2 33.9287 192.512 -4.05231e-17
293 2 69.0371 174.041 -4.05231e-17
294 1 129.422 48.254 -4.05231e-17
295 1 112.608 40.3169 -4.05231e-17
296 1 135.581 43.0211 -4.05231e-17
297 1 124.467 142.54 -4.05231e-17
298 1 143.005 200.915 -4.05231e-17
299 1 158.741 99.366 -4.05231e-17
300 2 76.1388 100.028 -4.05231e-17
301 1 74.2476 56.6689 -4.05231e-17
302 1 140.745 183.216 -4.05231e-17
303 2 202.859 58.1242 -4.05231e-17
304 2 159.577 149.42 -4.05231e-17
305 1 95.3154 96.2361 -4.05231e-17
306 1 39.0654 54.7529 -4.05231e-17
307 1 46.7208 105.585 -4.05231e-17
308 1 163.692 58.0472 -4.05231e-17
309 2 59.6455 160.474 -4.05231e-17
310 1 205.384 6.65121 -4.05231e-17
311 1 81.1545 36.7762 -4.05231e-17
312 1 184.434 137.191 -4.05231e-17
313 2 140.717 65.1653 -4.05231e-17
314 1 60.2153 148.032 -4.05231e-17
315 1 109.56 151.325 -4.05231e-17
316 1 75.4378 2.45339 -4.05231e-17
317 1 41.2556 100.991 -4.05231e-17
318 1 109.58 3.1886 -4.05231e-17
319 1 43.187 29.3553 -4.05231e-17
320 1 146.079 80.5431 -4.05231e-17
321 1 85.8024 205.986 -4.05231e-17
322 1 132.935 147.323 -4.05231e-17
323 1 194.336 104.839 -4.05231e-17
324 1 82.3655 29.8217 -4.05231e-17
325 1 157.094 151.269 -4.05231e-17
326 1 83.5407 151.475 -4.05231e-17
327 2 172.458 182.03 -4.05231e-17
328 1 168.484 39.4005 -4.05231e-17
329 2 21.6911 126.288 -4.05231e-17
330 1 209.13 117.696 -4.05231e-17
331 1 164.061 189.505 -4.05231e-17
332 2 120.902 106.304 -4.05231e-17
333 1 43.8756 18.882 -4.05231e-17
334 1 142.638 168.77 -4.05231e-17
335 1 1.52519 215.759 -4.05231e-17
336 1 215.666 104.197 -4.05231e-17
337 1 101.988 176.079 -4.05231e-17
338 1 160.388 57.0152 -4.05231e-17
339 1 124.943 36.8332 -4.05231e-17
340 1 164.018 166.071 -4.05231e-17
341 1 172.42 146.082 -4.05231e-17
342 1 131.193 166.526 -4.05231e-17
343 1 116.403 16.2486 -4.05231e-17
344 1 55.5347 163.519 -4.05231e-17
345 1 27.8034 152.315 -4.05231e-17
346 1 4.38508 130.644 -4.05231e-17
347 1 84.5795 105.78 -4.05231e-17
348 1 170.553 177.314 -4.05231e-17
349 1 195.596 73.1579 -4.05231e-17
350 2 99.7065 49.9026 -4.05231e-17
351 1 156.531 64.8122 -4.05231e-17
352 1 38.2499 158.525 -4.05231e-17
353 1 51.4601 163.097 -4.05231e-17
354 1 164.978 182.316 -4.05231e-17
355 1 33.2515 152.966 -4.05231e-17
356 1 25.25 34.2378 -4.05231e-17
357 1 43.4097 140.879 -4.05231e-17
358 1 173.528 196.363 -4.05231e-17
359 1 157.674 142.526 -4.05231e-17
360 1 69.6604 42.5535 -4.05231e-17
361 1 50.8553 195.624 -4.05231e-17
362 1 185.427 209.692 -4.05231e-17
363 1 171.351 197.479 -4.05231e-17
364 2 105.257 99.7307 -4.05231e-17
365 1 175.372 87.362 -4.05231e-17
366 1 117.459 160.066 -4.05231e-17
367 1 194.605 29.6984 -4.05231e-17
368 1 200.445 191.853 -4.05231e-17
369 2 103.654 192.368 -4.05231e-17
370 1 6.57384 209.29 -4.05231e-17
371 1 68.1766 131.661 -4.05231e-17
372 2 1.92048 91.1481 -4.05231e-17
373 2 195.159 205.452 -4.05231e-17
374 1 146.112 90.5719 -4.05231e-17
375 1 2.93849 101.988 -4.05231e-17
376 1 33.002 147.398 -4.05231e-17
377 1 22.8118 14.9245 -4.05231e-17
378 1 85.9536 119.045 -4.05231e-17
379 1 20.6804 54.1626 -4.05231e-17
380 1 170.273 147.114 -4.05231e-17
381 1 14.1519 0.148378 -4.05231e-17
382 1 49.4352 18.4727 -4.05231e-17
383 1 171.842 66.4314 -4.05231e-17
384 1 27.1078 9.29939 -4.05231e-17
385 1 193.198 75.1575 -4.05231e-17
386 2 86.5688 43.9167 -4.05231e-17
387 1 145.618 210.138 -4.05231e-17
388 1 61.4732 58.3547 -4.05231e-17
389 1 209.038 162.008 -4.05231e-17
390 2 209.619 178.345 -4.05231e-17
391 2 32.4493 19.499 -4.05231e-17
392 1 42.4372 2.46491 -4.05231e-17
393 1 202.101 17.6761 -4.05231e-17
394 1 114.211 94.7799 -4.05231e-17
395 1 1.99037 22.3687 -4.05231e-17
396 1 195.33 138.655 -4.05231e-17
397 1 104.49 17.2493 -4.05231e-17
398 1 12.11 184.92 -4.05231e-17
399 1 13.1473 64.0923 -4.05231e-17
400 1 101.232 183.314 -4.05231e-17
401 1 82.2749 175.402 -4.05231e-17
402 2 192.993 178.637 -4.05231e-17
403 1 215.307 36.1424 -4.05231e-17
404 1 70.5372 97.1414 -4.05231e-17
405 1 215.348 30.4463 -4.05231e-17
406 1 200.536 65.1249 -4.05231e-17
407 2 4.14417 59.3222 -4.05231e-17
408 1 59.1478 36.1015 -4.05231e-17
409 1 175.471 121.142 -4.05231e-17
410 1 4.89586 128.176 -4.05231e-17
411 1 166.239 170.388 -4.05231e-17
412 1 101.47 14.034 -4.05231e-17
413 1 66.5122 164.13 -4.05231e-17
414 1 39.6473 19.3731 -4.05231e-17
415 1 182.336 138.337 -4.05231e-17
416 1 71.1872 202.665 -4.05231e-17
417 1 157.271 72.7861 -4.05231e-17
418 2 196.395 3.90404 -4.05231e-17
419 1 107.048 150.805 -4.05231e-17
420 2 141.811 102.14 -4.05231e-17
421 1 80.3045 107.721 -4.05231e-17
422 1 140.638 13.0451 -4.05231e-17
423 2 167.648 34.1333 -4.05231e-17
424 1 139.477 161.146 -4.05231e-17
425 1 129.253 173.814 -4.05231e-17
426 1 153.271 122.147 -4.05231e-17
427 1 45.5465 89.4936 -4.05231e-17
428 1 57.5204 199.014 -4.05231e-17
429 1 200.309 83.3657 -4.05231e-17
430 1 218.365 48.2265 -4.05231e-17
431 1 128.79 201.069 -4.05231e-17
432 1 162.799 53.0106 -4.05231e-17
433 1 103.712 154.561 -4.05231e-17
434 1 73.1483 33.3712 -4.05231e-17
435 1 176.869 155.013 -4.05231e-17
436 1 39.4793 40.6779 -4.05231e-17
437 1 199.444 130.29 -4.05231e-17
438 2 121.444 15.6386 -4.05231e-17
439 1 74.5522 212.23 -4.05231e-17
440 1 215.208 159.482 -4.05231e-17
441 1 186.735 146.827 -4.05231e-17
442 1 54.5508 23.6117 -4.05231e-17
443 1 154.315 99.9853 -4.05231e-17
444 1 2.93918 99.2788 -4.05231e-17
445 1 136.414 16.1484 -4.05231e-17
446 1 152.321 104.365 -4.05231e-17
447 1 43.4676 99.4607 -4.05231e-17
448 1 76.3808 9.956 -4.05231e-17
449 1 140.644 145.326 -4.05231e-17
450 1 152.755 190.526 -4.05231e-17
451 1 171.973 46.1586 -4.05231e-17
452 1 158.236 146.637 -4.05231e-17
453 1 180.949 189.287 -4.05231e-17
454 1 159.387 209.913 -4.05231e-17
455 1 106.232 68.2721 -4.05231e-17
456 1 164.912 32.4821 -4.05231e-17
457 1 101.782 96.1818 -4.05231e-17
458 1 181.852 4.09681 -4.05231e-17
459 1 84.0703 69.2356 -4.05231e-17
460 1 29.5029 81.6694 -4.05231e-17
461 1 190.39 178.074 -4.05231e-17
462 1 191.473 117.704 -4.05231e-17
463 1 133.101 30.3381 -4.05231e-17
464 1 125.916 200.714 -4.05231e-17
465 1 136.956 157.174 -4.05231e-17
466 1 16.5962 217.762 -4.05231e-17
467 1 81.0041 103.008 -4.05231e-17
468 1 157.84 216.493 -4.05231e-17
469 1 83.8365 99.9819 -4.05231e-17
470 1 79.2617 40.8948 -4.05231e-17
471 1 131.368 182.84 -4.05231e-17
472 1 45.7058 84.2752 -4.05231e-17
473 1 49.4536 119.833 -4.05231e-17
474 1 99.3226 92.4281 -4.05231e-17
475 1 185.53 164.072 -4.05231e-17
476 2 182.324 13.3786 -4.05231e-17
477 1 56.473 56.7098 -4.05231e-17
478 1 64.5184 119.3 -4.05231e-17
479 1 203.699 78.2165 -4.05231e-17
480 1 86.2919 26.2889 -4.05231e-17
481 1 15.5809 96.4595 -4.05231e-17
482 1 97.8697 160.004 -4.05231e-17
483 1 131.225 163.927 -4.05231e-17
484 2 92.2559 46.4699 -4.05231e-17
485 1 49.0397 130.992 -4.05231e-17
486 1 82.7895 19.877 -4.05231e-17
487 1 100.334 180.938 -4.05231e-17
488 1 55.5271 95.9264 -4.05231e-17
489 1 20.2344 112.217 -4.05231e-17
490 1 209.306 82.1515 -4.05231e-17
491 1 206.091 103.162 -4.05231e-17
492 1 208.897 147.123 -4.05231e-17
493 1 174.87 4.77023 -4.05231e-17
494 1 201.535 24.6937 -4.05231e-17
495 1 190.602 83.9588 -4.05231e-17
496 2 27.5365 202.754 -4.05231e-17
497 1 39.9514 1.11037 -4.05231e-17
498 1 113.875 132.746 -4.05231e-17
499 2 139.83 204.999 -4.05231e-17
500 1 45.037 24.42 -4.05231e-17
501 2 144.943 195.641 -4.05231e-17
502 2 125.585 148.532 -4.05231e-17
503 1 167.863 175.306 -4.05231e-17
504 1 111.383 149.261 -4.05231e-17
505 1 124.911 34.2174 -4.05231e-17
506 1 217.409 126.614 -4.05231e-17
507 1 215.195 140.502 -4.05231e-17
508 1 182.015 212.53 -4.05231e-17
509 2 33.6472 100.734 -4.05231e-17
510 2 142.059 135.925 -4.05231e-17
511 1 205.813 44.9373 -4.05231e-17
512 2 209.208 51.7244 -4.05231e-17
513 1 30.9705 145.664 -4.05231e-17
514 1 42.004 33.8187 -4.05231e-17
515 1 195.108 32.5091 -4.05231e-17
516 1 190.247 207.7 -4.05231e-17
517 1 110.751 98.8947 -4.05231e-17
518 2 115.06 28.5295 -4.05231e-17
519 1 20.8594 16.7585 -4.05231e-17
520 2 202.94 34.5659 -4.05231e-17
521 1 96.1706 104.2 -4.05231e-17
522 1 5.56897 47.3729 -4.05231e-17
523 1 19.715 68.2608 -4.05231e-17
524 1 101.749 77.5265 -4.05231e-17
525 1 198.054 149.056 -4.05231e-17
526 1 192.847 62.6751 -4.05231e-17
527 1 75.9602 7.5207 -4.05231e-17
528 1 171.23 21.1629 -4.05231e-17
529 1 60.6142 140.391 -4.05231e-17
530 1 89.3393 48.025 -4.05231e-17
531 1 51.95 199.789 -4.05231e-17
532 1 210.086 186.522 -4.05231e-17
533 1 135.074 152.477 -4.05231e-17
534 1 96.4871 144.704 -4.05231e-17
535 1 16.0501 139.754 -4.05231e-17
536 1 187.742 134.86 -4.05231e-17
537 1 202.593 165.968 -4.05231e-17
538 1 164.188 80.6905 -4.05231e-17
539 1 89.4476 2.72479 -4.05231e-17
540 1 114.357 82.3919 -4.05231e-17
541 1 46.1882 32.6479 -4.05231e-17
542 1 69.3765 210.83 -4.05231e-17
543 1 143.2 157.539 -4.05231e-17
544 1 145.564 192.664 -4.05231e-17
545 1 46.6431 132.156 -4.05231e-17
546 1 180.224 39.4326 -4.05231e-17
547 1 31.5093 160.044 -4.05231e-17
548 1 82.9931 205.049 -4.05231e-17
549 1 65.1242 64.1056 -4.05231e-17
550 2 154.128 150.075 -4.05231e-17
551 2 139.811 150.379 -4.05231e-17
552 2 99.0061 175.504 -4.05231e-17
553 1 127.175 34.9113 -4.05231e-17
554 1 92.6009 120.292 -4.05231e-17
555 2 55.124 150.91 -4.05231e-17
556 1 141.218 21.1957 -4.05231e-17
557 1 77.2408 15.4138 -4.05231e-17
558 1 142.342 105.031 -4.05231e-17
559 1 188.88 45.0443 -4.05231e-17
560 1 144.166 61.9176 -4.05231e-17
561 1 156.287 172.487 -4.05231e-17
562 1 170.106 142.081 -4.05231e-17
563 2 170.535 127.607 -4.05231e-17
564 1 41.2475 78.2461 -4.05231e-17
565 1 60.7906 13.8196 -4.05231e-17
566 1 76.4767 37.376 -4.05231e-17
567 1 165.974 117.132 -4.05231e-17
568 1 47.1604 129.405 -4.05231e-17
569 1 114.525 180.158 -4.05231e-17
570 1 111.731 134.074 -4.05231e-17
571 1 188.316 205.907 -4.05231e-17
572 1 68.9141 69.5839 -4.05231e-17
573 1 177.981 76.0787 -4.05231e-17
574 1 207.699 142.735 -4.05231e-17
575 1 12.2839 109.545 -4.05231e-17
576 1 199.894 99.3031 -4.05231e-17
577 1 203.14 41.7391 -4.05231e-17
578 1 116.44 178.956 -4.05231e-17
579 1 8.33808 170.489 -4.05231e-17
580 1 102.195 139.84 -4.05231e-17
581 1 161.829 153.935 -4.05231e-17
582 1 75.6252 81.4969 -4.05231e-17
583 1 173.79 187.06 -4.05231e-17
584 2 29.2592 124.363 -4.05231e-17
585 1 48.7919 163.255 -4.05231e-17
586 1 114.153 163.99 -4.05231e-17
587 1 56.7141 121.398 -4.05231e-17
588 1 17.4946 202.942 -4.05231e-17
589 1 102.053 5.41233 -4.05231e-17
590 1 70.9012 2.80185 -4.05231e-17
591 1 2.49714 143.275 -4.05231e-17
592 1 48.3977 156.022 -4.05231e-17
593 1 212.028 179.838 -4.05231e-17
594 1 183.665 181.98 -4.05231e-17
595 1 82.5 47.5331 -4.05231e-17
596 1 37.4644 34.9661 -4.05231e-17
597 2 179.098 2.78521 -4.05231e-17
598 1 167.195 209.623 -4.05231e-17
599 1 209.226 169.773 -4.05231e-17
600 1 132.238 21.6294 -4.05231e-17
601 1 35.5255 120.261 -4.05231e-17
602 1 95.7637 29.5808 -4.05231e-17
603 1 192.996 201.304 -4.05231e-17
604 1 90.774 188.688 -4.05231e-17
605 2 87.9461 77.8491 -4.05231e-17
606 1 113.536 202.263 -4.05231e-17
607 2 144.277 165.627 -4.05231e-17
608 1 97.4682 77.1702 -4.05231e-17
609 1 8.84536 4.55293 -4.05231e-17
610 1 202.556 149.39 -4.05231e-17
611 1 205.162 188.895 -4.05231e-17
612 1 4.07016 49.3465 -4.05231e-17
613 1 44.987 142.846 -4.05231e-17
614 2 127.796 191.12 -4.05231e-17
615 1 136.455 18.6125 -4.05231e-17
616 1 200.811 145.123 -4.05231e-17
617 1 118.659 183.359 -4.05231e-17
618 1 194.247 218.261 -4.05231e-17
619 1 203.492 85.1552 -4.05231e-17
620 1 160.575 133.74 -4.05231e-17
621 1 209.211 94.9676 -4.05231e-17
622 1 92.8118 204.911 -4.05231e-17
623 1 210.724 24.0743 -4.05231e-17
624 1 23.1259 208.044 -4.05231e-17
625 1 204.675 159.038 -4.05231e-17
626 1 90.7389 200.53 -4.05231e-17
627 1 68.0037 77.9937 -4.05231e-17
628 1 41.2504 31.4384 -4.05231e-17
629 1 30.049 119.511 -4.05231e-17
630 2 144.652 25.5412 -4.05231e-17
631 1 52.8684 54.2575 -4.05231e-17
632 1 22.5261 93.693 -4.05231e-17
633 1 37.3207 215.603 -4.05231e-17
634 1 210.568 130.407 -4.05231e-17
635 1 143.059 145.896 -4.05231e-17
636 1 211.906 63.9398 -4.05231e-17
637 1 211.893 53.127 -4.05231e-17
638 1 181.911 73.5262 -4.05231e-17
639 2 205.669 76.1499 -4.05231e-17
640 1 129.88 135.895 -4.05231e-17
641 1 188.255 83.1564 -4.05231e-17
642 1 20.5913 82.7296 -4.05231e-17
643 2 183.012 40.9667 -4.05231e-17
644 1 75.6777 169.391 -4.05231e-17
645 1 100.284 188.337 -4.05231e-17
646 2 199.924 136.514 -4.05231e-17
647 1 54.2788 168.891 -4.05231e-17
648 1 135.174 87.3977 -4.05231e-17
649 2 200.068 156.066 -4.05231e-17
650 1 207.697 185.488 -4.05231e-17
651 1 3.34992 140.827 -4.05231e-17
652 1 159.366 41.2539 -4.05231e-17
653 1 115.138 169.563 -4.05231e-17
654 1 4.68028 13.4241 -4.05231e-17
655 2 172.76 109.109 -4.05231e-17
656 1 64.9727 100.164 -4.05231e-17
657 2 80.3283 206.392 -4.05231e-17
658 1 41.5729 55.5446 -4.05231e-17
659 2 168.812 192.839 -4.05231e-17
660 1 103.911 46.1673 -4.05231e-17
661 1 44.9779 127.909 -4.05231e-17
662 1 72.0389 115.746 -4.05231e-17
663 1 35.8353 36.7668 -4.05231e-17
664 1 141.487 3.66918 -4.05231e-17
665 1 138.338 84.0716 -4.05231e-17
666 2 54.6631 200.132 -4.05231e-17
667 1 108.247 98.6023 -4.05231e-17
668 2 101.688 83.1479 -4.05231e-17
669 1 46.9876 42.3201 -4.05231e-17
670 1 85.7497 199.302 -4.05231e-17
671 2 52.6939 175.587 -4.05231e-17
672 1 185.594 17.371 -4.05231e-17
673 1 64.3489 22.7729 -4.05231e-17
674 1 179.635 218.923 -4.05231e-17
675 1 116.746 18.9261 -4.05231e-17
676 1 146.326 128.759 -4.05231e-17
677 1 138.001 168.275 -4.05231e-17
678 1 140.976 18.4254 -4.05231e-17
679 2 162.523 25.8691 -4.05231e-17
680 1 206.436 14.3511 -4.05231e-17
681 2 165.212 102.694 -4.05231e-17
682 1 212.924 31.9076 -4.05231e-17
683 1 69.0804 7.29329 -4.05231e-17
684 1 118.043 155.789 -4.05231e-17
685 1 161.638 10.7396 -4.05231e-17
686 1 38.413 176.601 -4.05231e-17
687 1 131.411 172.295 -4.05231e-17
688 1 168.426 90.3266 -4.05231e-17
689 2 60.1668 41.8959 -4.05231e-17
690 1 71.2306 23.0561 -4.05231e-17
691 1 91.7523 66.013 -4.05231e-17
692 1 133.282 213.666 -4.05231e-17
693 1 64.1063 198.839 -4.05231e-17
694 1 54.0242 133.834 -4.05231e-17
695 1 163.03 47.3919 -4.05231e-17
696 1 139.508 75.6863 -4.05231e-17
697 1 129.668 186.084 -4.05231e-17
698 1 137.486 74.3957 -4.05231e-17
699 1 183.731 187.497 -4.05231e-17
700 1 15.7423 7.10613 -4.05231e-17
701 1 53.875 18.4734 -4.05231e-17
702 1 104.259 115.874 -4.05231e-17
703 2 177.225 145.948 -4.05231e-17
704 1 34.7089 216.86 -4.05231e-17
705 2 42.7506 111.826 -4.05231e-17
706 1 168.567 161.128 -4.05231e-17
707 1 125.905 29.6429 -4.05231e-17
708 1 65.4008 188.484 -4.05231e-17
709 1 155.023 192.439 -4.05231e-17
710 1 195.523 191.411 -4.05231e-17
711 1 131.504 84.3579 -4.05231e-17
712 1 191.737 214.451 -4.05231e-17
713 1 62.5245 93.8426 -4.05231e-17
714 1 144.412 7.993 -4.05231e-17
715 1 52.3174 202.154 -4.05231e-17
716 1 19.9636 129.131 -4.05231e-17
717 1 28.4312 92.7917 -4.05231e-17
718 1 150.01 184.166 -4.05231e-17
719 2 118.319 84.3191 -4.05231e-17
720 1 106.04 56.564 -4.05231e-17
721 1 107.514 113.162 -4.05231e-17
722 1 140.399 73.1783 -4.05231e-17
723 2 50.1537 50.2986 -4.05231e-17
724 1 15.9369 55.2312 -4.05231e-17
725 1 45.6175 79.0689 -4.05231e-17
726 1 190.886 43.2327 -4.05231e-17
727 1 146.285 198.117 -4.05231e-17
728 2 32.8696 91.4797 -4.05231e-17
729 1 119.528 186.183 -4.05231e-17
730 1 202.392 203.608 -4.05231e-17
731 1 63.6783 190.497 -4.05231e-17
732 1 1.69404 19.9142 -4.05231e-17
733 1 200.558 36.8138 -4.05231e-17
734 1 214.819 2.29235 -4.05231e-17
735 1 31.9967 45.896 -4.05231e-17
736 2 192.366 72.5436 -4.05231e-17
737 1 67.8655 80.3873 -4.05231e-17
738 1 37.8395 147.647 -4.05231e-17
739 1 104.304 157.035 -4.05231e-17
740 1 34.9577 124.252 -4.05231e-17
741 2 190.786 76.8094 -4.05231e-17
742 1 68.1742 50.1026 -4.05231e-17
743 1 206.573 60.94 -4.05231e-17
744 2 214.418 169.857 -4.05231e-17
745 1 136.206 34.0908 -4.05231e-17
746 1 11.0078 56.468 -4.05231e-17
747 2 207.021 17.257 -4.05231e-17
748 1 188.082 198.21 -4.05231e-17
749 1 192.502 206.409 -4.05231e-17
750 1 206.871 148.288 -4.05231e-17
751 1 73.3777 54.4793 -4.05231e-17
752 1 167.668 141.036 -4.05231e-17
753 1 98.1016 151.085 -4.05231e-17
754 1 8.32902 213.833 -4.05231e-17
755 1 70.2389 176.629 -4.05231e-17
756 2 102.242 178.763 -4.05231e-17
757 1 11.1621 38.0425 -4.05231e-17
758 1 136.965 150.053 -4.05231e-17
759 1 51.2281 105.306 -4.05231e-17
760 1 113.057 56.9351 -4.05231e-17
761 1 60.0989 173.467 -4.05231e-17
762 1 48.1781 20.7493 -4.05231e-17
763 1 128.784 116.491 -4.05231e-17
764 2 151.796 155.994 -4.05231e-17
765 1 96.2922 42.4926 -4.05231e-17
766 1 102.664 34.697 -4.05231e-17
767 1 99.5188 78.8008 -4.05231e-17
768 1 4.56209 207.554 -4.05231e-17
769 1 101.585 68.3991 -4.05231e-17
770 2 116.216 109.146 -4.05231e-17
771 1 150.961 188.669 -4.05231e-17
772 1 101.88 19.3178 -4.05231e-17
773 1 107.217 168.261 -4.05231e-17
774 1 115.802 123.053 -4.05231e-17
775 1 69.5054 9.79495 -4.05231e-17
776 1 39.2557 14.1322 -4.05231e-17
777 1 119.92 209.714 -4.05231e-17
778 1 16.2843 14.5611 -4.05231e-17
779 1 192.493 41.2807 -4.05231e-17
780 1 213.593 164.317 -4.05231e-17
781 1 122.202 98.7453 -4.05231e-17
782 1 176.635 47.7112 -4.05231e-17
783 1 95.0236 18.9468 -4.05231e-17
784 2 186.379 149.736 -4.05231e-17
785 1 109.065 166.329 -4.05231e-17
786 1 133.816 177.78 -4.05231e-17
787 1 187.465 72.9376 -4.05231e-17
788 1 178.419 43.9385 -4.05231e-17
789 2 141.696 96.3043 -4.05231e-17
790 1 106.931 217.723 -4.05231e-17
791 2 24.005 133.195 -4.05231e-17
792 2 210.552 5.41205 -4.05231e-17
793 2 131.001 68.8703 -4.05231e-17
794 1 61.5905 185.648 -4.05231e-17
795 1 126.582 60.1045 -4.05231e-17
796 1 90.9096 12.8271 -4.05231e-17
797 1 193.374 154.694 -4.05231e-17
798 2 184.453 207.099 -4.05231e-17
799 2 209.028 62.6123 -4.05231e-17
800 2 56.9226 1.69195 -4.05231e-17
801 1 98.8536 124.62 -4.05231e-17
802 1 125.016 76.4018 -4.05231e-17
803 1 184.69 66.5643 -4.05231e-17
804 2 131.24 0.873818 -4.05231e-17
805 1 31.4692 96.173 -4.05231e-17
806 1 1.89975 115.86 -4.05231e-17
807 2 106.831 82.3195 -4.05231e-17
808 1 43.9895 72.7703 -4.05231e-17
809 2 19.1814 109.587 -4.05231e-17
810 1 115.627 199.716 -4.05231e-17
811 1 22.1319 6.98082 -4.05231e-17
812 1 136.56 36.4828 -4.05231e-17
813 2 113.953 91.9176 -4.05231e-17
814 1 133.636 61.7997 -4.05231e-17
815 1 87.2532 164.165 -4.05231e-17
816 1 192.453 18.2347 -4.05231e-17
817 1 125.895 183.328 -4.05231e-17
818 1 76.2521 105.704 -4.05231e-17
819 1 15.3765 117.422 -4.05231e-17
820 1 34.1753 79.0681 -4.05231e-17
821 1 93.2607 151.708 -4.05231e-17
822 2 14.4928 105.367 -4.05231e-17
823 2 144.018 78.4522 -4.05231e-17
824 1 41.2076 65.0217 -4.05231e-17
825 1 66.3386 18.6063 -4.05231e-17
826 1 216.42 0.597627 -4.05231e-17
827 1 194.951 130.322 -4.05231e-17
828 1 132.19 136.357 -4.05231e-17
829 1 141.457 217.763 -4.05231e-17
830 1 64.7694 121.944 -4.05231e-17
831 1 207.388 40.9112 -4.05231e-17
832 1 93.4251 85.4087 -4.05231e-17
833 1 56.493 73.1261 -4.05231e-17
834 1 109.319 211.068 -4.05231e-17
835 1 57.2399 4.62161 -4.05231e-17
836 1 9.28343 58.2805 -4.05231e-17
837 1 6.46235 70.3388 -4.05231e-17
838 1 91.193 183.935 -4.05231e-17
839 2 210.233 30.6707 -4.05231e-17
840 1 174.392 11.4167 -4.05231e-17
841 2 42.1094 150.988 -4.05231e-17
842 1 95.5931 98.8625 -4.05231e-17
843 2 172.937 175.556 -4.05231e-17
844 1 56.0279 171.485 -4.05231e-17
845 1 87.4154 191.607 -4.05231e-17
846 1 140.206 177.843 -4.05231e-17
847 1 74.7253 163.024 -4.05231e-17
848 1 144.626 92.5791 -4.05231e-17
849 1 190.054 166.758 -4.05231e-17
850 1 47.1785 118.708 -4.05231e-17
851 1 88.3402 57.7171 -4.05231e-17
852 1 204.684 207.822 -4.05231e-17
853 1 53.3223 96.7928 -4.05231e-17
854 1 173.789 83.0385 -4.05231e-17
855 1 151.606 21.3108 -4.05231e-17
856 1 14.5256 157.147 -4.05231e-17