ITEM: TIMESTEP
0
ITEM: NUMBER OF ATOMS
7200
ITEM: BOX BOUNDS xy xz yz pp pp pp
0.0000000000000000e+00 2.1900000000000000e+02 0.0000000000000000e+00
0.0000000000000000e+00 2.1900000000000000e+02 0.0000000000000000e+00
-3.6499999999999999e-01 3.6499999999999999e-01 0.0000000000000000e+00
ITEM: ATOMS id type x y z
1 1 43.6567 131.319 -4.05231e-17
2 1 194.253 101.279 -4.05231e-17
3 1 10.9987 176 -4.05231e-17
4 1 23.5089 78.265 -4.05231e-17
5 1 18.4435 151.138 -4.05231e-17
6 1 134.653 194.483 -4.05231e-17
7 1 52.5588 34.0273 -4.05231e-17
8 2 154.279 91.6361 -4.05231e-17
9 1 192.331 22.3297 -4.05231e-17
10 2 59.1862 203.146 -4.05231e-17
11 1 112.68 212.169 -4.05231e-17
12 1 171.568 101.766 -4.05231e-17
13 2 53.1623 76.4607 -4.05231e-17
14 1 66.8863 20.9157 -4.05231e-17
15 1 123.793 96.6284 -4.05231e-17
16 2 48.5931 187.886 -4.05231e-17
17 1 123.933 32.2934 -4.05231e-17
18 2 12.2691 54.8699 -4.05231e-17
19 1 112.024 57.67 -4.05231e-17
20 1 158.787 117.575 -4.05231e-17
21 1 42.8474 8.58598 -4.05231e-17
22 2 22.4729 144.712 -4.05231e-17
23 2 14.6849 49.8268 -4.05231e-17
24 1 161.701 121.394 -4.05231e-17
25 1 49.2272 190.98 -4.05231e-17
26 2 92.9322 94.0502 -4.05231e-17
27 1 185.771 191.924 -4.05231e-17
28 2 16.2664 158.51 -4.05231e-17
29 1 78.5999 45.0685 -4.05231e-17
30 1 141.511 100.826 -4.05231e-17
31 1 213.468 87.3747 -4.05231e-17
32 1 76.8242 111.412 -4.05231e-17
33 1 155.488 173.91 -4.05231e-17
34 1 42.2735 48.254 -4.05231e-17
35 1 178.614 67.7978 -4.05231e-17
36 1 58.06 105.015 -4.05231e-17
37 2 121.495 144.017 -4.05231e-17
38 1 199.324 72.8369 -4.05231e-17
39 1 114.165 142.138 -4.05231e-17
40 1 152.33 156.436 -4.05231e-17
41 1 127.748 192.383 -4.05231e-17
42 1 111.741 33.7428 -4.05231e-17
43 1 148.933 92.6235 -4.05231e-17
44 1 125.668 42.7065 -4.05231e-17
45 1 216.058 78.8493 -4.05231e-17
46 1 30.6946 197.845 -4.05231e-17
47 1 53.4924 182.624 -4.05231e-17
48 2 51.3346 71.1602 -4.05231e-17
49 1 64.2092 145.666 -4.05231e-17
50 1 29.7216 195.387 -4.05231e-17
51 1 182.579 34.4005 -4.05231e-17
52 1 204.391 115.147 -4.05231e-17
53 1 151.556 36.7417 -4.05231e-17
54 1 6.17545 137.327 -4.05231e-17
55 1 21.5899 48.0658 -4.05231e-17
56 1 106.386 132.796 -4.05231e-17
57 2 76.1063 213.212 -4.05231e-17
58 1 32.7936 41.6094 -4.05231e-17
59 1 213.858 118.975 -4.05231e-17
60 2 136.652 134.191 -4.05231e-17
61 2 37.5625 183.278 -4.05231e-17
62 1 13.4893 139.662 -4.05231e-17
63 1 126.324 213.896 -4.05231e-17
64 1 137.975 41.2974 -4.05231e-17
65 1 211.844 117.934 -4.05231e-17
66 1 148.531 128.112 -4.05231e-17
67 1 92.7207 136.076 -4.05231e-17
68 1 62.1893 108.426 -4.05231e-17
69 1 128.1 189.947 -4.05231e-17
70 1 21.0116 109.996 -4.05231e-17
71 1 178.505 132.908 -4.05231e-17
72 1 172.563 59.6975 -4.05231e-17
73 1 190.272 186.442 -4.05231e-17
74 1 208.912 21.894 -4.05231e-17
75 2 98.4398 211.879 -4.05231e-17
76 1 8.65492 215.49 -4.05231e-17
77 1 52.0503 31.4988 -4.05231e-17
78 1 111.253 104.61 -4.05231e-17
79 2 109.535 213.384 -4.05231e-17
80 1 73.0407 126.871 -4.05231e-17
81 1 109.188 141.182 -4.05231e-17
82 1 9.1783 131.007 -4.05231e-17
83 2 115.618 183.309 -4.05231e-17
84 1 178.684 82.0669 -4.05231e-17
85 1 50.1472 77.2354 -4.05231e-17
86 1 115.264 137.639 -4.05231e-17
87 1 9.97297 7.65145 -4.05231e-17
88 1 39.5951 40.7502 -4.05231e-17
89 2 45.1293 6.65606 -4.05231e-17
90 2 192.904 187.566 -4.05231e-17
91 1 166.686 96.6717 -4.05231e-17
92 2 161.499 3.07399 -4.05231e-17
93 1 139.837 30.1873 -4.05231e-17
94 2 162.679 17.4334 -4.05231e-17
95 1 36.0874 202.556 -4.05231e-17
96 1 149.552 86.8846 -4.05231e-17
97 1 112.153 217.916 -4.05231e-17
98 1 121.966 50.9575 -4.05231e-17
99 1 181.458 21.3252 -4.05231e-17
100 1 150.544 218.269 -4.05231e-17
101 1 103.537 6.48223 -4.05231e-17
102 1 30.3139 48.4992 -4.05231e-17
103 1 57.2684 91.7511 -4.05231e-17
104 1 55.1705 134.34 -4.05231e-17
105 1 132.22 206.197 -4.05231e-17
106 1 77.6451 98.6565 -4.05231e-17
107 2 168.918 102.218 -4.05231e-17
108 1 33.4647 214.575 -4.05231e-17
109 1 25.9196 95.8708 -4.05231e-17
110 1 98.4637 57.5219 -4.05231e-17
111 1 62.8561 24.2182 -4.05231e-17
112 1 85.9921 125.525 -4.05231e-17
113 1 105.404 54.3188 -4.05231e-17
114 1 153.722 38.2919 -4.05231e-17
115 1 36.026 174.509 -4.05231e-17
116 2 209.072 140.175 -4.05231e-17
117 1 189.491 11.8319 -4.05231e-17
118 1 166.301 67.65 -4.05231e-17
119 2 64.9063 113.299 -4.05231e-17
120 1 51.2526 210.321 -4.05231e-17
121 1 160.416 86.2047 -4.05231e-17
122 1 117.23 209.729 -4.05231e-17
123 1 158.042 130.005 -4.05231e-17
124 1 160.003 196.133 -4.05231e-17
125 1 115.808 132.387 -4.05231e-17
126 1 95.7727 52.1625 -4.05231e-17
127 1 161.837 78.8745 -4.05231e-17
128 1 178.477 165.714 -4.05231e-17
129 1 9.62891 89.8584 -4.05231e-17
130 1 71.5319 132.188 -4.05231e-17
131 1 169.975 142.22 -4.05231e-17
132 2 199.247 9.68811 -4.05231e-17
133 1 121.609 74.6837 -4.05231e-17
134 1 35.8202 99.3836 -4.05231e-17
135 1 79.5117 11.1702 -4.05231e-17
136 1 208.086 209.671 -4.05231e-17
137 1 99.3414 134.222 -4.05231e-17
138 1 51.4247 215.737 -4.05231e-17
139 1 218.572 116.484 -4.05231e-17
140 2 145.856 180.933 -4.05231e-17
141 1 194.247 87.978 -4.05231e-17
142 2 0.192123 32.8223 -4.05231e-17
143 1 119.027 78.6241 -4.05231e-17
144 2 32.0263 200.227 -4.05231e-17
145 1 180.641 99.3136 -4.05231e-17
146 1 101.464 101.409 -4.05231e-17
147 1 121.837 154.139 -4.05231e-17
148 1 6.81888 205.596 -4.05231e-17
149 1 69.7231 24.8096 -4.05231e-17
150 1 39.5509 33.6834 -4.05231e-17
151 1 32.9927 107.412 -4.05231e-17
152 1 40.9279 96.8783 -4.05231e-17
153 2 53.1606 9.4009 -4.05231e-17
154 1 144.621 143.84 -4.05231e-17
155 1 121.375 212.309 -4.05231e-17
156 2 64.5345 130.997 -4.05231e-17
157 1 212.161 102.473 -4.05231e-17
158 1 38.1418 35.6724 -4.05231e-17
159 1 1.8471 141.599 -4.05231e-17
160 1 26.1486 212.247 -4.05231e-17
161 1 2.29196 0.345127 -4.05231e-17
162 1 134.44 125.635 -4.05231e-17
163 1 37.0125 40.3288 -4.05231e-17
164 1 167.766 52.6343 -4.05231e-17
165 1 138.941 173.601 -4.05231e-17
166 2 160.511 60.2242 -4.05231e-17
167 1 176.179 45.988 -4.05231e-17
168 1 133.116 184.728 -4.05231e-17
169 1 6.68498 99.4949 -4.05231e-17
170 1 96.7981 167.164 -4.05231e-17
171 1 144.858 73.5225 -4.05231e-17
172 1 209.186 24.4856 -4.05231e-17
173 1 47.8275 172.103 -4.05231e-17
174 1 127.766 61.3186 -4.05231e-17
175 2 131.682 158.414 -4.05231e-17
176 1 108.64 63.56 -4.05231e-17
177 2 66.3312 48.8154 -4.05231e-17
178 1 72.2253 78.4597 -4.05231e-17
179 1 168.339 167.114 -4.05231e-17
180 1 206.482 196.117 -4.05231e-17
181 1 163.795 187.754 -4.05231e-17
182 2 78.9148 23.5813 -4.05231e-17
183 1 70.8794 161.827 -4.05231e-17
184 1 170.31 90.4672 -4.05231e-17
185 2 164.034 8.55318 -4.05231e-17
186 2 204.654 120.231 -4.05231e-17
187 1 93.3681 25.7994 -4.05231e-17
188 1 101.064 172.948 -4.05231e-17
189 1 124.338 176.994 -4.05231e-17
190 2 2.7966 157.458 -4.05231e-17
191 1 67.5369 158.71 -4.05231e-17
192 2 50.3422 127.103 -4.05231e-17
193 2 77.6377 181.967 -4.05231e-17
194 1 33.3116 150.263 -4.05231e-17
195 1 165.507 189.991 -4.05231e-17
196 1 176.702 178.678 -4.05231e-17
197 1 77.1213 73.0935 -4.05231e-17
198 2 11.4244 144.336 -4.05231e-17
199 1 214.021 56.4142 -4.05231e-17
200 1 81.2508 9.19572 -4.05231e-17
201 2 81.2922 117.788 -4.05231e-17
202 1 53.8056 214.18 -4.05231e-17
203 1 169.561 84.8505 -4.05231e-17
204 1 192.695 160.991 -4.05231e-17
205 2 197.63 81.381 -4.05231e-17
206 1 95.1857 136.343 -4.05231e-17
207 1 106.284 47.0763 -4.05231e-17
208 1 41.0615 79.2818 -4.05231e-17
209 1 80.1002 1.56155 -4.05231e-17
210 1 7.88964 32.5776 -4.05231e-17
211 2 142.353 165.002 -4.05231e-17
212 1 127.424 118.955 -4.05231e-17
213 1 148.856 102.256 -4.05231e-17
214 1 75.8177 17.0338 -4.05231e-17
215 1 90.5654 213.75 -4.05231e-17
216 1 189.12 132.944 -4.05231e-17
217 1 131.511 171.39 -4.05231e-17
218 2 24.2045 147.633 -4.05231e-17
219 1 154.691 209.136 -4.05231e-17
220 2 107.753 51.9016 -4.05231e-17
221 1 211.983 58.1213 -4.05231e-17
222 1 172.118 108.473 -4.05231e-17
223 1 58.935 200.232 -4.05231e-17
224 2 22.4854 173.379 -4.05231e-17
225 1 192.171 142.66 -4.05231e-17
226 1 159.012 166.974 -4.05231e-17
227 2 52.2871 19.837 -4.05231e-17
228 1 117.962 128.217 -4.05231e-17
229 1 55.365 106.003 -4.05231e-17
230 1 192.085 140.226 -4.05231e-17
231 1 139.88 102.867 -4.05231e-17
232 1 217.347 73.5018 -4.05231e-17
233 1 102.172 93.9676 -4.05231e-17
234 1 94.142 1.81686 -4.05231e-17
235 1 34.6708 132.888 -4.05231e-17
236 1 60.6415 86.079 -4.05231e-17
237 1 206.253 9.47492 -4.05231e-17
238 1 109.857 113.112 -4.05231e-17
239 2 44.252 124.772 -4.05231e-17
240 1 119.253 216.352 -4.05231e-17
241 2 155.721 13.9033 -4.05231e-17
242 2 216.828 30.5965 -4.05231e-17
243 2 99.7092 2.88648 -4.05231e-17
244 1 96.188 9.3583 -4.05231e-17
245 1 87.1868 63.2875 -4.05231e-17
246 1 140.975 112.709 -4.05231e-17
247 1 215.649 96.2491 -4.05231e-17
248 1 84.9212 3.036 -4.05231e-17
249 1 12.4001 73.032 -4.05231e-17
250 2 151.403 33.6574 -4.05231e-17
251 1 153.459 211.167 -4.05231e-17
252 1 196.469 62.8659 -4.05231e-17
253 1 107.87 54.7887 -4.05231e-17
254 2 72.2952 190.867 -4.05231e-17
255 1 216.252 139.046 -4.05231e-17
256 1 81.8269 164.802 -4.05231e-17
257 1 204.351 143.553 -4.05231e-17
258 2 163.142 28.8658 -4.05231e-17
259 1 44.8459 141.584 -4.05231e-17
260 1 115.509 8.13865 -4.05231e-17
261 1 204.952 216.007 -4.05231e-17
262 1 44.7398 67.5804 -4.05231e-17
263 1 4.84646 1.00972 -4.05231e-17
264 1 173.283 42.5953 -4.05231e-17
265 1 156.804 31.7798 -4.05231e-17
266 1 124.187 8.52508 -4.05231e-17
267 1 19.8934 65.0554 -4.05231e-17
268 1 31.0618 36.461 -4.05231e-17
269 1 113.475 93.0557 -4.05231e-17
270 1 114.557 115.11 -4.05231e-17
271 1 18.367 84.5468 -4.05231e-17
272 1 163.123 203.286 -4.05231e-17
273 1 47.0164 204.143 -4.05231e-17
274 2 128.288 82.7358 -4.05231e-17
275 1 64.9264 7.8637 -4.05231e-17
276 2 55.3195 41.5951 -4.05231e-17
277 2 159.849 114.932 -4.05231e-17
278 1 60.722 71.4059 -4.05231e-17
279 2 104.664 0.787348 -4.05231e-17
280 1 55.1216 33.6658 -4.05231e-17
281 1 145.006 8.04329 -4.05231e-17
282 1 160.411 28.0627 -4.05231e-17
283 1 111.74 141.637 -4.05231e-17
284 1 133.501 175.471 -4.05231e-17
285 1 36.4543 15.6 -4.05231e-17
286 2 35.442 218.074 -4.05231e-17
287 1 47.6243 128.788 -4.05231e-17
288 1 36.282 51.5255 -4.05231e-17
289 1 71.2491 48.2951 -4.05231e-17
290 1 164.878 194.681 -4.05231e-17
291 1 154.78 133.917 -4.05231e-17
292 2 32.9056 180.508 -4.05231e-17
293 2 71.0447 172.008 -4.05231e-17
294 1 129.276 47.9789 -4.05231e-17
295 1 110.551 50.5797 -4.05231e-17
296 1 136.182 42.9081 -4.05231e-17
297 1 124.006 142.449 -4.05231e-17
298 1 139.7 202.924 -4.05231e-17
299 1 143.146 107.079 -4.05231e-17
300 2 69.9631 98.1769 -4.05231e-17
301 1 75.8382 55.9937 -4.05231e-17
302 1 132.417 190.578 -4.05231e-17
303 2 203.506 56.7588 -4.05231e-17
304 2 163.055 146.245 -4.05231e-17
305 1 95.4677 92.7015 -4.05231e-17
306 1 38.6304 52.3134 -4.05231e-17
307 1 53.5741 103.889 -4.05231e-17
308 1 162.88 58.559 -4.05231e-17
309 2 63.7223 168.886 -4.05231e-17
310 1 202.006 9.70386 -4.05231e-17
311 1 81.7466 36.4098 -4.05231e-17
312 1 190.161 144.062 -4.05231e-17
313 2 140.109 65.6037 -4.05231e-17
314 1 61.4757 137.877 -4.05231e-17
315 1 109.114 150.733 -4.05231e-17
316 1 73.5258 1.24455 -4.05231e-17
317 1 47.6009 95.0542 -4.05231e-17
318 1 120.476 5.58227 -4.05231e-17
319 1 45.2099 33.0154 -4.05231e-17
320 1 142.857 82.045 -4.05231e-17
321 1 77.7674 204.424 -4.05231e-17
322 1 132.749 147.656 -4.05231e-17
323 1 195.847 106.269 -4.05231e-17
324 1 82.965 29.6092 -4.05231e-17
325 1 167.933 140.653 -4.05231e-17
326 1 82.7319 150.692 -4.05231e-17
327 2 170.557 184.355 -4.05231e-17
328 1 168.606 39.5455 -4.05231e-17
329 2 25.1925 112.295 -4.05231e-17
330 1 213.512 122.483 -4.05231e-17
331 1 161.819 186.211 -4.05231e-17
332 2 122.515 92.9256 -4.05231e-17
333 1 44.9367 21.2402 -4.05231e-17
334 1 148.594 171.578 -4.05231e-17
335 1 4.51417 211.968 -4.05231e-17
336 1 217.104 104.027 -4.05231e-17
337 1 95.1494 181.129 -4.05231e-17
338 1 160.477 57.2483 -4.05231e-17
339 1 124.72 35.1242 -4.05231e-17
340 1 161.194 168.516 -4.05231e-17
341 1 172.176 148.932 -4.05231e-17
342 1 123.448 159.562 -4.05231e-17
343 1 118.16 4.41129 -4.05231e-17
344 1 51.2629 186.671 -4.05231e-17
345 1 41.3333 144.633 -4.05231e-17
346 1 15.7247 147.457 -4.05231e-17
347 1 92.9704 99.3376 -4.05231e-17
348 1 170.026 181.474 -4.05231e-17
349 1 194.907 73.6493 -4.05231e-17
350 2 101.473 41.1539 -4.05231e-17
351 1 155.956 65.0929 -4.05231e-17
352 1 43.5512 159.823 -4.05231e-17
353 1 45.3069 151.785 -4.05231e-17
354 1 164.175 182.177 -4.05231e-17
355 1 38.5552 155.452 -4.05231e-17
356 1 32.3935 31.721 -4.05231e-17
357 1 48.9983 137.557 -4.05231e-17
358 1 173.28 197.078 -4.05231e-17
359 1 167.683 143.262 -4.05231e-17
360 1 70.6418 42.1574 -4.05231e-17
361 1 66.8042 191.242 -4.05231e-17
362 1 181.268 200.769 -4.05231e-17
363 1 170.904 197.935 -4.05231e-17
364 2 105.723 98.6987 -4.05231e-17
365 1 169.959 87.9471 -4.05231e-17
366 1 119.607 160.599 -4.05231e-17
367 1 187.444 17.6288 -4.05231e-17
368 1 199.549 191.836 -4.05231e-17
369 2 112.457 195.011 -4.05231e-17
370 1 218.401 203.091 -4.05231e-17
371 1 63.3102 136.215 -4.05231e-17
372 2 2.73758 90.8044 -4.05231e-17
373 2 195.562 208.5 -4.05231e-17
374 1 149.107 89.6877 -4.05231e-17
375 1 18.6322 104.61 -4.05231e-17
376 1 35.8615 145.857 -4.05231e-17
377 1 27.918 0.980985 -4.05231e-17
378 1 63.8814 134.038 -4.05231e-17
379 1 29.8533 57.9152 -4.05231e-17
380 1 172.254 145.918 -4.05231e-17
381 1 21.4463 217.573 -4.05231e-17
382 1 47.4943 20.8787 -4.05231e-17
383 1 170.869 66.773 -4.05231e-17
384 1 26.6542 8.18254 -4.05231e-17
385 1 193.118 75.568 -4.05231e-17
386 2 87.7616 43.5542 -4.05231e-17
387 1 145.553 212.124 -4.05231e-17
388 1 62.9597 60.3403 -4.05231e-17
389 1 211.21 161.013 -4.05231e-17
390 2 209.348 178.435 -4.05231e-17
391 2 32.6565 21.5446 -4.05231e-17
392 1 42.857 2.41407 -4.05231e-17
393 1 207.23 25.9684 -4.05231e-17
394 1 109.526 108.723 -4.05231e-17
395 1 6.65763 19.6073 -4.05231e-17
396 1 199.499 143.898 -4.05231e-17
397 1 102.542 16.2963 -4.05231e-17
398 1 9.18406 179.542 -4.05231e-17
399 1 11.6977 62.973 -4.05231e-17
400 1 92.2806 190.207 -4.05231e-17
401 1 81.7539 174.683 -4.05231e-17
402 2 192.765 179.134 -4.05231e-17
403 1 0.849825 46.7201 -4.05231e-17
404 1 63.194 95.6918 -4.05231e-17
405 1 214.301 29.6767 -4.05231e-17
406 1 199.792 65.9067 -4.05231e-17
407 2 7.92162 59.5366 -4.05231e-17
408 1 57.2374 38.9871 -4.05231e-17
409 1 184.291 136.096 -4.05231e-17
410 1 13.5247 137.121 -4.05231e-17
411 1 166.22 168.642 -4.05231e-17
412 1 99.498 12.8349 -4.05231e-17
413 1 64.91 177.403 -4.05231e-17
414 1 39.0587 16.7305 -4.05231e-17
415 1 185.988 147.766 -4.05231e-17
416 1 68.6764 202.835 -4.05231e-17
417 1 157.004 73.1876 -4.05231e-17
418 2 187.912 14.2235 -4.05231e-17
419 1 106.855 149.571 -4.05231e-17
420 2 150.232 105 -4.05231e-17
421 1 88.2803 116.191 -4.05231e-17
422 1 142.575 20.0916 -4.05231e-17
423 2 167.759 33.3123 -4.05231e-17
424 1 140.781 155.397 -4.05231e-17
425 1 128.589 167.98 -4.05231e-17
426 1 140.738 117.266 -4.05231e-17
427 1 50.927 88.3732 -4.05231e-17
428 1 57.7076 211.364 -4.05231e-17
429 1 200.514 82.9949 -4.05231e-17
430 1 4.31138 50.6019 -4.05231e-17
431 1 132.502 4.20899 -4.05231e-17
432 1 162.457 53.2367 -4.05231e-17
433 1 102.87 153.061 -4.05231e-17
434 1 73.4886 33.3736 -4.05231e-17
435 1 173.805 153.994 -4.05231e-17
436 1 39.1418 38.3506 -4.05231e-17
437 1 200.963 124.553 -4.05231e-17
438 2 111.495 8.65276 -4.05231e-17
439 1 69.7264 205.191 -4.05231e-17
440 1 213.7 156.998 -4.05231e-17
441 1 188.62 146.307 -4.05231e-17
442 1 55.0447 24.1362 -4.05231e-17
443 1 155.796 100.143 -4.05231e-17
444 1 4.09964 98.9747 -4.05231e-17
445 1 127.725 0.822168 -4.05231e-17
446 1 149.971 108.165 -4.05231e-17
447 1 37.3451 103.79 -4.05231e-17
448 1 77.1034 10.0252 -4.05231e-17
449 1 136.173 143.252 -4.05231e-17
450 1 152.12 191.326 -4.05231e-17
451 1 171.491 46.7856 -4.05231e-17
452 1 149.304 142.269 -4.05231e-17
453 1 180.348 189.646 -4.05231e-17
454 1 159.128 210.788 -4.05231e-17
455 1 103.124 71.7267 -4.05231e-17
456 1 165.029 33.6459 -4.05231e-17
457 1 97.4575 111.349 -4.05231e-17
458 1 195 12.6792 -4.05231e-17
459 1 84.382 69.3941 -4.05231e-17
460 1 37.9668 84.4066 -4.05231e-17
461 1 189.991 178.73 -4.05231e-17
462 1 207.177 115.986 -4.05231e-17
463 1 131.252 31.7276 -4.05231e-17
464 1 137.914 184.84 -4.05231e-17
465 1 138.242 155.358 -4.05231e-17
466 1 19.8234 1.03495 -4.05231e-17
467 1 58.0664 83.6562 -4.05231e-17
468 1 158.138 217.453 -4.05231e-17
469 1 65.4867 91.5886 -4.05231e-17
470 1 80.3252 41.1921 -4.05231e-17
471 1 126.392 182.513 -4.05231e-17
472 1 50.0968 86.1049 -4.05231e-17
473 1 66.6803 123.443 -4.05231e-17
474 1 99.1534 102.052 -4.05231e-17
475 1 185.352 164.827 -4.05231e-17
476 2 182.358 5.06425 -4.05231e-17
477 1 63.7088 62.8383 -4.05231e-17
478 1 58.2055 116.567 -4.05231e-17
479 1 203.724 78.211 -4.05231e-17
480 1 86.623 25.8236 -4.05231e-17
481 1 12.2168 90.3308 -4.05231e-17
482 1 97.1908 158.995 -4.05231e-17
483 1 128.456 158.527 -4.05231e-17
484 2 92.8647 46.4183 -4.05231e-17
485 1 29.4957 115.256 -4.05231e-17
486 1 83.1412 19.8367 -4.05231e-17
487 1 102.915 197.679 -4.05231e-17
488 1 45.8907 104.922 -4.05231e-17
489 1 16.3773 121.42 -4.05231e-17
490 1 209.846 81.8815 -4.05231e-17
491 1 207.598 103.341 -4.05231e-17
492 1 209.229 143.139 -4.05231e-17
493 1 172.962 0.372418 -4.05231e-17
494 1 200.08 25.9214 -4.05231e-17
495 1 191.218 84.9296 -4.05231e-17
496 2 32.3967 195.322 -4.05231e-17
497 1 40.6646 1.36938 -4.05231e-17
498 1 111.512 126.774 -4.05231e-17
499 2 136.07 209.68 -4.05231e-17
500 1 55.267 19.3741 -4.05231e-17
501 2 137.399 195.564 -4.05231e-17
502 2 124.949 147.924 -4.05231e-17
503 1 169.227 176.348 -4.05231e-17
504 1 110.908 148.813 -4.05231e-17
505 1 121.156 28.6644 -4.05231e-17
506 1 11.4166 130.148 -4.05231e-17
507 1 4.17849 145.482 -4.05231e-17
508 1 191.853 216.371 -4.05231e-17
509 2 35.0973 91.5984 -4.05231e-17
510 2 141.921 136.067 -4.05231e-17
511 1 208.13 35.2156 -4.05231e-17
512 2 209.222 57.0608 -4.05231e-17
513 1 28.9921 137.133 -4.05231e-17
514 1 53.0268 25.8347 -4.05231e-17
515 1 196.879 34.3533 -4.05231e-17
516 1 184.43 218.432 -4.05231e-17
517 1 108.487 110.937 -4.05231e-17
518 2 115.748 18.5616 -4.05231e-17
519 1 29.0263 29.0646 -4.05231e-17
520 2 215.515 36.8493 -4.05231e-17
521 1 86.5123 103.021 -4.05231e-17
522 1 11.2396 40.2236 -4.05231e-17
523 1 20.4748 67.842 -4.05231e-17
524 1 102.923 74.5687 -4.05231e-17
525 1 192.777 117.549 -4.05231e-17
526 1 192.251 63.6261 -4.05231e-17
527 1 76.6026 7.41316 -4.05231e-17
528 1 159.628 17.8406 -4.05231e-17
529 1 72.4295 141.142 -4.05231e-17
530 1 90.5184 50.6614 -4.05231e-17
531 1 51.2152 189.176 -4.05231e-17
532 1 209.57 187.064 -4.05231e-17
533 1 133.551 153.511 -4.05231e-17
534 1 95.0458 144.043 -4.05231e-17
535 1 10.2591 125.572 -4.05231e-17
536 1 181.247 137.202 -4.05231e-17
537 1 202.094 166.307 -4.05231e-17
538 1 171.954 80.8568 -4.05231e-17
539 1 89.5336 2.43323 -4.05231e-17
540 1 106.666 83.9264 -4.05231e-17
541 1 49.9807 42.7769 -4.05231e-17
542 1 68.5917 217.766 -4.05231e-17
543 1 147.459 158.91 -4.05231e-17
544 1 140.342 194.557 -4.05231e-17
545 1 34.2086 130.413 -4.05231e-17
546 1 180.699 40.806 -4.05231e-17
547 1 41.8431 164.401 -4.05231e-17
548 1 87.9362 191.893 -4.05231e-17
549 1 66.1869 63.5484 -4.05231e-17
550 2 158.027 143.069 -4.05231e-17
551 2 140.513 152.628 -4.05231e-17
552 2 98.5742 174.712 -4.05231e-17
553 1 127.324 35.4724 -4.05231e-17
554 1 86.8682 113.373 -4.05231e-17
555 2 48.3022 151.309 -4.05231e-17
556 1 132.353 21.7964 -4.05231e-17
557 1 77.7549 15.1754 -4.05231e-17
558 1 149.868 110.752 -4.05231e-17
559 1 188.937 46.5127 -4.05231e-17
560 1 143.653 61.7144 -4.05231e-17
561 1 161.116 177.963 -4.05231e-17
562 1 167.521 148.981 -4.05231e-17
563 2 165.238 125.176 -4.05231e-17
564 1 28.1773 77.2748 -4.05231e-17
565 1 61.3962 13.4889 -4.05231e-17
566 1 77.5351 37.24 -4.05231e-17
567 1 154.754 123.702 -4.05231e-17
568 1 27.5352 125.662 -4.05231e-17
569 1 102.424 180.472 -4.05231e-17
570 1 111.659 133.54 -4.05231e-17
571 1 181.736 203.399 -4.05231e-17
572 1 64.7671 69.1117 -4.05231e-17
573 1 180.473 77.2861 -4.05231e-17
574 1 214.198 140.386 -4.05231e-17
575 1 10.8598 120.77 -4.05231e-17
576 1 200.935 99.7651 -4.05231e-17
577 1 203.805 40.6002 -4.05231e-17
578 1 115.715 164.112 -4.05231e-17
579 1 12.1333 161.643 -4.05231e-17
580 1 101.239 138.968 -4.05231e-17
581 1 161.827 154.047 -4.05231e-17
582 1 74.2946 80.2757 -4.05231e-17
583 1 175.602 187.077 -4.05231e-17
584 2 24.4354 117.951 -4.05231e-17
585 1 47.4481 157.352 -4.05231e-17
586 1 115.112 161.568 -4.05231e-17
587 1 63.9587 110.391 -4.05231e-17
588 1 18.8504 201.15 -4.05231e-17
589 1 102.493 2.72741 -4.05231e-17
590 1 73.5596 3.78031 -4.05231e-17
591 1 14.0363 151.397 -4.05231e-17
592 1 46.9373 168.012 -4.05231e-17
593 1 211.581 180.469 -4.05231e-17
594 1 183.272 182.645 -4.05231e-17
595 1 83.4918 47.2082 -4.05231e-17
596 1 49.7237 30.6102 -4.05231e-17
597 2 177.947 214.295 -4.05231e-17
598 1 167.057 210.227 -4.05231e-17
599 1 209.03 170.175 -4.05231e-17
600 1 127.726 28.7688 -4.05231e-17
601 1 27.7534 105.837 -4.05231e-17
602 1 95.9736 29.1504 -4.05231e-17
603 1 200.408 206.601 -4.05231e-17
604 1 84.8729 205.283 -4.05231e-17
605 2 88.8343 77.9544 -4.05231e-17
606 1 106.82 200.382 -4.05231e-17
607 2 137.475 163.002 -4.05231e-17
608 1 97.9584 76.6182 -4.05231e-17
609 1 6.00712 215.488 -4.05231e-17
610 1 199.468 152.303 -4.05231e-17
611 1 204.63 189.378 -4.05231e-17
612 1 217.394 47.0899 -4.05231e-17
613 1 58.2351 151.981 -4.05231e-17
614 2 131.643 180.114 -4.05231e-17
615 1 131.834 24.3515 -4.05231e-17
616 1 200.269 139.253 -4.05231e-17
617 1 118.948 185.616 -4.05231e-17
618 1 199.634 1.78015 -4.05231e-17
619 1 203.767 85.2515 -4.05231e-17
620 1 145.45 119.417 -4.05231e-17
621 1 210.125 94.7564 -4.05231e-17
622 1 95.0543 211.655 -4.05231e-17
623 1 11.6043 14.4535 -4.05231e-17
624 1 23.5176 208.136 -4.05231e-17
625 1 204.316 159.598 -4.05231e-17
626 1 86.2 193.473 -4.05231e-17
627 1 69.3546 82.1692 -4.05231e-17
628 1 51.1738 38.3563 -4.05231e-17
629 1 34.232 117.384 -4.05231e-17
630 2 147.514 26.141 -4.05231e-17
631 1 45.3685 62.5981 -4.05231e-17
632 1 40.9495 102.15 -4.05231e-17
633 1 40.1936 215.201 -4.05231e-17
634 1 7.06098 124.639 -4.05231e-17
635 1 135.506 151.781 -4.05231e-17
636 1 211.468 63.5267 -4.05231e-17
637 1 209.892 54.0412 -4.05231e-17
638 1 176.635 74.4477 -4.05231e-17
639 2 205.613 75.9356 -4.05231e-17
640 1 131.471 134.329 -4.05231e-17
641 1 188.844 84.1186 -4.05231e-17
642 1 20.8965 84.585 -4.05231e-17
643 2 183.283 42.0937 -4.05231e-17
644 1 72.2333 167.322 -4.05231e-17
645 1 96.182 200.518 -4.05231e-17
646 2 203.229 134.928 -4.05231e-17
647 1 41.4941 185.916 -4.05231e-17
648 1 132.917 89.6135 -4.05231e-17
649 2 206.522 150.044 -4.05231e-17
650 1 207.095 185.534 -4.05231e-17
651 1 214.428 129.685 -4.05231e-17
652 1 158.556 35.7055 -4.05231e-17
653 1 120.732 166.223 -4.05231e-17
654 1 17.1948 30.1079 -4.05231e-17
655 2 176.98 116.81 -4.05231e-17
656 1 46.9167 97.4741 -4.05231e-17
657 2 85.987 202.745 -4.05231e-17
658 1 41.2687 52.6657 -4.05231e-17
659 2 169.307 193.12 -4.05231e-17
660 1 111.135 45.0678 -4.05231e-17
661 1 20.7048 105.805 -4.05231e-17
662 1 74.6345 128.914 -4.05231e-17
663 1 40.8625 23.1562 -4.05231e-17
664 1 148.88 9.96222 -4.05231e-17
665 1 135.296 84.5952 -4.05231e-17
666 2 46.3236 195.691 -4.05231e-17
667 1 101.283 103.785 -4.05231e-17
668 2 106.16 86.5994 -4.05231e-17
669 1 47.3318 31.726 -4.05231e-17
670 1 91.2157 184.682 -4.05231e-17
671 2 59.8926 178.377 -4.05231e-17
672 1 182.78 13.9683 -4.05231e-17
673 1 64.8019 22.6204 -4.05231e-17
674 1 198.883 6.90921 -4.05231e-17
675 1 115.007 21.5955 -4.05231e-17
676 1 145.65 131.338 -4.05231e-17
677 1 140.833 175.444 -4.05231e-17
678 1 140.456 32.7512 -4.05231e-17
679 2 161.271 20.6805 -4.05231e-17
680 1 2.08861 25.7727 -4.05231e-17
681 2 147.787 112.591 -4.05231e-17
682 1 0.721178 40.0946 -4.05231e-17
683 1 69.7175 7.28504 -4.05231e-17
684 1 117.525 155.341 -4.05231e-17
685 1 160.52 15.3491 -4.05231e-17
686 1 33.9899 169.884 -4.05231e-17
687 1 122.119 178.155 -4.05231e-17
688 1 162.998 87.0929 -4.05231e-17
689 2 64.0586 45.6919 -4.05231e-17
690 1 71.9595 22.8594 -4.05231e-17
691 1 94.2622 68.3315 -4.05231e-17
692 1 136.896 6.1771 -4.05231e-17
693 1 55.7874 190.222 -4.05231e-17
694 1 50.8508 131.946 -4.05231e-17
695 1 162.614 47.591 -4.05231e-17
696 1 138.941 75.7703 -4.05231e-17
697 1 132.023 200.693 -4.05231e-17
698 1 136.824 74.2955 -4.05231e-17
699 1 183.067 188.229 -4.05231e-17
700 1 1.52962 216.748 -4.05231e-17
701 1 51.2834 16.9591 -4.05231e-17
702 1 106.731 123.571 -4.05231e-17
703 2 178.519 151.672 -4.05231e-17
704 1 31.0354 5.43016 -4.05231e-17
705 2 43.9157 118.905 -4.05231e-17
706 1 167.975 161.574 -4.05231e-17
707 1 129.784 21.6472 -4.05231e-17
708 1 67.8211 193.549 -4.05231e-17
709 1 153.629 193.459 -4.05231e-17
710 1 194.981 191.788 -4.05231e-17
711 1 130.876 83.8714 -4.05231e-17
712 1 188.521 201.393 -4.05231e-17
713 1 59.7408 109.016 -4.05231e-17
714 1 139.392 13.6804 -4.05231e-17
715 1 52.633 204.622 -4.05231e-17
716 1 23.3323 128.128 -4.05231e-17
717 1 22.7405 98.6763 -4.05231e-17
718 1 147.873 185.008 -4.05231e-17
719 2 116.285 82.4606 -4.05231e-17
720 1 102.717 63.0605 -4.05231e-17
721 1 98.5156 106.899 -4.05231e-17
722 1 139.304 73.1175 -4.05231e-17
723 2 47.9241 49.8192 -4.05231e-17
724 1 21.8172 51.1347 -4.05231e-17
725 1 30.8669 101.215 -4.05231e-17
726 1 190.907 44.674 -4.05231e-17
727 1 146.874 204.116 -4.05231e-17
728 2 33.3487 81.7415 -4.05231e-17
729 1 129.14 181.523 -4.05231e-17
730 1 198.664 208.473 -4.05231e-17
731 1 58.3234 191.624 -4.05231e-17
732 1 6.40286 11.2892 -4.05231e-17
733 1 201.44 39.6081 -4.05231e-17
734 1 3.64736 15.7864 -4.05231e-17
735 1 35.2082 42.2533 -4.05231e-17
736 2 191.954 72.8572 -4.05231e-17
737 1 81.5828 84.3876 -4.05231e-17
738 1 29.7724 147.263 -4.05231e-17
739 1 103.533 155.577 -4.05231e-17
740 1 20.2805 118.81 -4.05231e-17
741 2 190.819 77.2678 -4.05231e-17
742 1 69.0694 49.7691 -4.05231e-17
743 1 205.962 61.5061 -4.05231e-17
744 2 213.509 170.047 -4.05231e-17
745 1 136.179 33.6573 -4.05231e-17
746 1 8.0222 37.1442 -4.05231e-17
747 2 208.593 19.0435 -4.05231e-17
748 1 190.221 199.489 -4.05231e-17
749 1 192.818 207.092 -4.05231e-17
750 1 214.272 143.174 -4.05231e-17
751 1 74.5956 54.1737 -4.05231e-17
752 1 165.171 132.818 -4.05231e-17
753 1 96.7402 149.639 -4.05231e-17
754 1 216.581 214.855 -4.05231e-17
755 1 65.4525 185.695 -4.05231e-17
756 2 101.456 177.926 -4.05231e-17
757 1 22.0719 30.344 -4.05231e-17
758 1 138.003 150.5 -4.05231e-17
759 1 68.9758 110.117 -4.05231e-17
760 1 103.12 50.4905 -4.05231e-17
761 1 62.4384 176.457 -4.05231e-17
762 1 43.9814 19.0035 -4.05231e-17
763 1 136.179 121.518 -4.05231e-17
764 2 154.764 155.56 -4.05231e-17
765 1 97.1856 44.4996 -4.05231e-17
766 1 110.122 35.5845 -4.05231e-17
767 1 100.086 78.325 -4.05231e-17
768 1 5.08588 207.445 -4.05231e-17
769 1 112.429 73.0287 -4.05231e-17
770 2 111.795 110.499 -4.05231e-17
771 1 149.841 189.096 -4.05231e-17
772 1 100.634 17.7072 -4.05231e-17
773 1 106.293 167.147 -4.05231e-17
774 1 123.105 118.694 -4.05231e-17
775 1 70.0341 9.7284 -4.05231e-17
776 1 39.0699 14.1959 -4.05231e-17
777 1 114.947 210.805 -4.05231e-17
778 1 19.264 15.8306 -4.05231e-17
779 1 192.999 42.8967 -4.05231e-17
780 1 2.43037 160.491 -4.05231e-17
781 1 119.558 96.7255 -4.05231e-17
782 1 176.71 49.0097 -4.05231e-17
783 1 95.4429 18.2897 -4.05231e-17
784 2 193.574 155 -4.05231e-17
785 1 108.127 165.598 -4.05231e-17
786 1 131.402 176.815 -4.05231e-17
787 1 187.191 73.667 -4.05231e-17
788 1 178.33 44.3928 -4.05231e-17
789 2 152.985 99.1815 -4.05231e-17
790 1 108.559 7.98976 -4.05231e-17
791 2 21.1172 130.264 -4.05231e-17
792 2 211.358 4.90745 -4.05231e-17
793 2 129.872 68.8291 -4.05231e-17
794 1 55.8816 187.795 -4.05231e-17
795 1 125.578 59.7056 -4.05231e-17
796 1 91.0506 12.4684 -4.05231e-17
797 1 204.441 154.292 -4.05231e-17
798 2 189.325 204.233 -4.05231e-17
799 2 208.77 62.4406 -4.05231e-17
800 2 56.9904 1.78343 -4.05231e-17
801 1 94.9155 115.915 -4.05231e-17
802 1 123.958 76.195 -4.05231e-17
803 1 183.534 67.76 -4.05231e-17
804 2 129.17 10.6312 -4.05231e-17
805 1 35.4446 101.914 -4.05231e-17
806 1 2.14654 115.049 -4.05231e-17
807 2 107.839 92.9687 -4.05231e-17
808 1 41.3117 106.955 -4.05231e-17
809 2 25.2976 107.147 -4.05231e-17
810 1 127.677 206.732 -4.05231e-17
811 1 21.1746 5.53471 -4.05231e-17
812 1 136.612 36.3423 -4.05231e-17
813 2 108.312 106.396 -4.05231e-17
814 1 133.636 62.0298 -4.05231e-17
815 1 86.6099 163.424 -4.05231e-17
816 1 188.705 8.95556 -4.05231e-17
817 1 108.311 191.517 -4.05231e-17
818 1 64.8465 107.754 -4.05231e-17
819 1 4.36734 116.602 -4.05231e-17
820 1 41.632 89.0976 -4.05231e-17
821 1 92.1416 150.954 -4.05231e-17
822 2 14.9403 114.19 -4.05231e-17
823 2 143.661 78.9386 -4.05231e-17
824 1 43.6231 91.6835 -4.05231e-17
825 1 66.7751 18.1609 -4.05231e-17
826 1 200.36 4.63881 -4.05231e-17
827 1 192.928 124.567 -4.05231e-17
828 1 129.653 136.34 -4.05231e-17
829 1 144.196 3.9195 -4.05231e-17
830 1 73.4602 133.89 -4.05231e-17
831 1 213.388 44.246 -4.05231e-17
832 1 96.8854 87.683 -4.05231e-17
833 1 51.6005 81.7566 -4.05231e-17
834 1 125.809 211.307 -4.05231e-17
835 1 57.6808 4.52363 -4.05231e-17
836 1 10.9444 60.3855 -4.05231e-17
837 1 6.34923 68.9808 -4.05231e-17
838 1 92.3579 180.183 -4.05231e-17
839 2 211.089 33.6887 -4.05231e-17
840 1 180.588 7.35279 -4.05231e-17
841 2 54.1982 139.319 -4.05231e-17
842 1 93.7426 91.0136 -4.05231e-17
843 2 172.355 176.44 -4.05231e-17
844 1 52.6293 160.853 -4.05231e-17
845 1 86.3637 209.869 -4.05231e-17
846 1 138.883 167.862 -4.05231e-17
847 1 74.6081 165.34 -4.05231e-17
848 1 166.04 101.857 -4.05231e-17
849 1 189.749 167.52 -4.05231e-17
850 1 43.8916 110.818 -4.05231e-17
851 1 89.0808 54.6259 -4.05231e-17
852 1 210.627 204.887 -4.05231e-17
853 1 45.6928 102.436 -4.05231e-17
854 1 171.865 83.5998 -4.05231e-17
855 1 142.2 30.6566 -4.05231e-17
856 1 16.4596 155.468 -4.05231e-17