ITEM: TIMESTEP
0
ITEM: NUMBER OF ATOMS
7200
ITEM: BOX BOUNDS xy xz yz pp pp pp
0.0000000000000000e+00 2.1900000000000000e+02 0.0000000000000000e+00
0.0000000000000000e+00 2.1900000000000000e+02 0.0000000000000000e+00
-3.6499999999999999e-01 3.6499999999999999e-01 0.0000000000000000e+00
ITEM: ATOMS id type x y z
1 1 67.3426 131.7 -4.05231e-17
2 1 188.897 113.949 -4.05231e-17
3 1 12.0929 160.807 -4.05231e-17
4 1 17.1315 81.6983 -4.05231e-17
5 1 216.29 157.148 -4.05231e-17
6 1 117.81 215.532 -4.05231e-17
7 1 45.1118 48.8449 -4.05231e-17
8 2 148.982 84.0322 -4.05231e-17
9 1 202.745 9.40108 -4.05231e-17
10 2 53.6016 189.993 -4.05231e-17
11 1 118.918 2.90335 -4.05231e-17
12 1 129.496 91.4572 -4.05231e-17
13 2 50.8881 74.5404 -4.05231e-17
14 1 65.1369 18.0692 -4.05231e-17
15 1 127.423 99.5338 -4.05231e-17
16 2 57.7963 169.154 -4.05231e-17
17 1 116.163 34.4978 -4.05231e-17
18 2 35.6068 76.7102 -4.05231e-17
19 1 104.33 58.4156 -4.05231e-17
20 1 161.362 101.588 -4.05231e-17
21 1 41.5029 5.82308 -4.05231e-17
22 2 50.5397 143.967 -4.05231e-17
23 2 12.8102 58.4383 -4.05231e-17
24 1 148.905 101.484 -4.05231e-17
25 1 75.1978 186.331 -4.05231e-17
26 2 86.3909 97.6037 -4.05231e-17
27 1 152.815 175.624 -4.05231e-17
28 2 24.9455 157.045 -4.05231e-17
29 1 49.5207 53.2501 -4.05231e-17
30 1 143.968 95.8094 -4.05231e-17
31 1 211.801 90.2925 -4.05231e-17
32 1 59.3416 111.864 -4.05231e-17
33 1 153.599 148.197 -4.05231e-17
34 1 55.4383 70.5534 -4.05231e-17
35 1 176.97 68.8387 -4.05231e-17
36 1 61.1155 74.5788 -4.05231e-17
37 2 133.365 141.888 -4.05231e-17
38 1 197.655 74.793 -4.05231e-17
39 1 121.493 138.474 -4.05231e-17
40 1 160.443 167.117 -4.05231e-17
41 1 120.528 182.912 -4.05231e-17
42 1 94.5976 43.0653 -4.05231e-17
43 1 135.249 60.2371 -4.05231e-17
44 1 104.698 27.8694 -4.05231e-17
45 1 213.725 82.055 -4.05231e-17
46 1 27.5456 204.289 -4.05231e-17
47 1 88.41 172.537 -4.05231e-17
48 2 48.4045 89.3306 -4.05231e-17
49 1 66.5412 121.917 -4.05231e-17
50 1 44.3688 199.314 -4.05231e-17
51 1 181.945 34.7915 -4.05231e-17
52 1 203.16 129.674 -4.05231e-17
53 1 159.403 32.2642 -4.05231e-17
54 1 33.6474 125.274 -4.05231e-17
55 1 20.1208 48.6601 -4.05231e-17
56 1 117.776 140.2 -4.05231e-17
57 2 67.4696 214.453 -4.05231e-17
58 1 39.2889 33.8304 -4.05231e-17
59 1 26.1435 151.842 -4.05231e-17
60 2 153.972 145.071 -4.05231e-17
61 2 35.4436 202.988 -4.05231e-17
62 1 14.3054 159.22 -4.05231e-17
63 1 111.219 198.654 -4.05231e-17
64 1 134.151 39.3016 -4.05231e-17
65 1 216.689 117.244 -4.05231e-17
66 1 128.912 135.101 -4.05231e-17
67 1 95.5811 140.053 -4.05231e-17
68 1 62.2889 131.127 -4.05231e-17
69 1 141.745 173.978 -4.05231e-17
70 1 59.2541 114.495 -4.05231e-17
71 1 1.9227 122.857 -4.05231e-17
72 1 171.281 60.2668 -4.05231e-17
73 1 187.57 185.921 -4.05231e-17
74 1 207.024 21.0281 -4.05231e-17
75 2 93.4134 1.21596 -4.05231e-17
76 1 18.3479 5.27886 -4.05231e-17
77 1 41.6465 32.8069 -4.05231e-17
78 1 126.44 114.164 -4.05231e-17
79 2 128.529 0.562991 -4.05231e-17
80 1 80.2077 107.235 -4.05231e-17
81 1 110.518 141.407 -4.05231e-17
82 1 50.4029 141.102 -4.05231e-17
83 2 129.861 182.143 -4.05231e-17
84 1 179.453 80.6526 -4.05231e-17
85 1 19.7178 42.4569 -4.05231e-17
86 1 126.373 138.775 -4.05231e-17
87 1 13.2939 216.149 -4.05231e-17
88 1 23.9835 38.5998 -4.05231e-17
89 2 43.396 3.45388 -4.05231e-17
90 2 190.128 187.475 -4.05231e-17
91 1 134.348 99.8518 -4.05231e-17
92 2 171.976 24.3365 -4.05231e-17
93 1 142.287 17.7745 -4.05231e-17
94 2 201.3 12.1938 -4.05231e-17
95 1 35.0595 200.041 -4.05231e-17
96 1 146.451 85.6961 -4.05231e-17
97 1 96.9008 5.07554 -4.05231e-17
98 1 125.872 53.2573 -4.05231e-17
99 1 174.423 19.5226 -4.05231e-17
100 1 174.335 9.2305 -4.05231e-17
101 1 119.461 213.536 -4.05231e-17
102 1 16.5086 45.7899 -4.05231e-17
103 1 60.4395 79.6765 -4.05231e-17
104 1 61.0097 124.092 -4.05231e-17
105 1 142.954 200.76 -4.05231e-17
106 1 76.7965 101.708 -4.05231e-17
107 2 162.589 104.353 -4.05231e-17
108 1 36.3259 210.546 -4.05231e-17
109 1 53.8966 77.7019 -4.05231e-17
110 1 95.4664 59.4456 -4.05231e-17
111 1 60.8124 20.8868 -4.05231e-17
112 1 95.0687 137.477 -4.05231e-17
113 1 103.906 50.2926 -4.05231e-17
114 1 157.973 29.9112 -4.05231e-17
115 1 50.4677 165.94 -4.05231e-17
116 2 213.958 133.478 -4.05231e-17
117 1 197.287 212.985 -4.05231e-17
118 1 164.821 68.0562 -4.05231e-17
119 2 68.6775 106.315 -4.05231e-17
120 1 55.6002 198.585 -4.05231e-17
121 1 158.209 72.7301 -4.05231e-17
122 1 102.97 14.9826 -4.05231e-17
123 1 126.324 102.259 -4.05231e-17
124 1 154.949 200.811 -4.05231e-17
125 1 138.645 126.618 -4.05231e-17
126 1 101.794 55.0718 -4.05231e-17
127 1 146.647 88.4229 -4.05231e-17
128 1 175.972 136.478 -4.05231e-17
129 1 8.87318 102.914 -4.05231e-17
130 1 85.8733 129.495 -4.05231e-17
131 1 175.635 152.641 -4.05231e-17
132 2 182.746 216.803 -4.05231e-17
133 1 121.829 81.7942 -4.05231e-17
134 1 17.5502 91.3168 -4.05231e-17
135 1 78.1484 8.45266 -4.05231e-17
136 1 210 204.365 -4.05231e-17
137 1 101.997 137.223 -4.05231e-17
138 1 50.0132 212.194 -4.05231e-17
139 1 205.459 110.973 -4.05231e-17
140 2 142.073 185.693 -4.05231e-17
141 1 205.485 94.0693 -4.05231e-17
142 2 211.751 48.6937 -4.05231e-17
143 1 111.905 83.6802 -4.05231e-17
144 2 42.2761 197.195 -4.05231e-17
145 1 184.013 106.698 -4.05231e-17
146 1 100.162 120.507 -4.05231e-17
147 1 149.089 142.613 -4.05231e-17
148 1 1.47783 215.518 -4.05231e-17
149 1 68.012 21.5409 -4.05231e-17
150 1 54.253 39.8293 -4.05231e-17
151 1 24.5333 116.176 -4.05231e-17
152 1 56.7572 108.157 -4.05231e-17
153 2 52.0082 6.34246 -4.05231e-17
154 1 153.351 103.845 -4.05231e-17
155 1 112.314 10.8032 -4.05231e-17
156 2 73.3117 117.91 -4.05231e-17
157 1 208.332 104.657 -4.05231e-17
158 1 33.4828 29.9816 -4.05231e-17
159 1 20.488 145.565 -4.05231e-17
160 1 13.6801 203.757 -4.05231e-17
161 1 13.7716 5.12374 -4.05231e-17
162 1 126.687 136.211 -4.05231e-17
163 1 17.5345 38.3143 -4.05231e-17
164 1 166.64 52.9058 -4.05231e-17
165 1 128.605 117.914 -4.05231e-17
166 2 159.1 60.7058 -4.05231e-17
167 1 174.84 46.7379 -4.05231e-17
168 1 147.11 168.172 -4.05231e-17
169 1 2.28696 100.782 -4.05231e-17
170 1 94.9452 168.623 -4.05231e-17
171 1 150.019 60.7452 -4.05231e-17
172 1 218.376 17.1135 -4.05231e-17
173 1 51.7272 138.974 -4.05231e-17
174 1 130.642 62.0318 -4.05231e-17
175 2 137.556 160.978 -4.05231e-17
176 1 105.252 70.1493 -4.05231e-17
177 2 77.177 55.1916 -4.05231e-17
178 1 66.8156 87.7324 -4.05231e-17
179 1 173.017 163.842 -4.05231e-17
180 1 203.372 197.318 -4.05231e-17
181 1 135.714 167.533 -4.05231e-17
182 2 77.5872 20.65 -4.05231e-17
183 1 77.5734 166.447 -4.05231e-17
184 1 175.778 86.8738 -4.05231e-17
185 2 177.209 20.4966 -4.05231e-17
186 2 208.919 137.14 -4.05231e-17
187 1 93.1619 29.3987 -4.05231e-17
188 1 102.725 170.405 -4.05231e-17
189 1 123.558 175.097 -4.05231e-17
190 2 13.9572 164.938 -4.05231e-17
191 1 77.5996 157.549 -4.05231e-17
192 2 69.3941 122.169 -4.05231e-17
193 2 76.525 173.544 -4.05231e-17
194 1 37.0583 153.066 -4.05231e-17
195 1 145.409 163.16 -4.05231e-17
196 1 168.867 189.49 -4.05231e-17
197 1 75.0794 69.9416 -4.05231e-17
198 2 12.1069 131.005 -4.05231e-17
199 1 209.479 58.3986 -4.05231e-17
200 1 80.2015 6.69815 -4.05231e-17
201 2 75.9699 110.37 -4.05231e-17
202 1 52.2448 210.838 -4.05231e-17
203 1 174.934 81.5737 -4.05231e-17
204 1 188.385 156.492 -4.05231e-17
205 2 191.756 82.636 -4.05231e-17
206 1 89.4178 132.705 -4.05231e-17
207 1 105.764 34.2388 -4.05231e-17
208 1 23.7499 68.2235 -4.05231e-17
209 1 81.7414 2.60944 -4.05231e-17
210 1 13.0707 65.9882 -4.05231e-17
211 2 144.163 152.977 -4.05231e-17
212 1 120.089 118.46 -4.05231e-17
213 1 141.42 91.8809 -4.05231e-17
214 1 74.2782 14.3384 -4.05231e-17
215 1 74.384 202.026 -4.05231e-17
216 1 198.782 140.324 -4.05231e-17
217 1 123.523 186.409 -4.05231e-17
218 2 29.1844 167.134 -4.05231e-17
219 1 154.487 213.121 -4.05231e-17
220 2 107.195 59.0976 -4.05231e-17
221 1 209.65 61.0313 -4.05231e-17
222 1 145.334 140.065 -4.05231e-17
223 1 52.3509 208.409 -4.05231e-17
224 2 9.61062 189 -4.05231e-17
225 1 196.016 140.365 -4.05231e-17
226 1 139.431 189.755 -4.05231e-17
227 2 51.1193 17.0822 -4.05231e-17
228 1 128.999 101.355 -4.05231e-17
229 1 58.5947 124.305 -4.05231e-17
230 1 158.628 131.003 -4.05231e-17
231 1 142.648 117.877 -4.05231e-17
232 1 216.191 82.2545 -4.05231e-17
233 1 107.795 100.776 -4.05231e-17
234 1 133.645 208.3 -4.05231e-17
235 1 18.5607 149.516 -4.05231e-17
236 1 42.7967 77.4394 -4.05231e-17
237 1 199.633 214.021 -4.05231e-17
238 1 151.818 134.132 -4.05231e-17
239 2 16.6654 112.234 -4.05231e-17
240 1 99.0643 6.17476 -4.05231e-17
241 2 187.344 17.3292 -4.05231e-17
242 2 198.484 37.2702 -4.05231e-17
243 2 118.548 23.2815 -4.05231e-17
244 1 97.0152 7.56735 -4.05231e-17
245 1 87.2762 56.9105 -4.05231e-17
246 1 131.169 117.166 -4.05231e-17
247 1 211.181 98.2236 -4.05231e-17
248 1 93.9603 4.19753 -4.05231e-17
249 1 21.0165 67.5701 -4.05231e-17
250 2 149.492 30.3121 -4.05231e-17
251 1 152.521 211.415 -4.05231e-17
252 1 195.496 64.035 -4.05231e-17
253 1 99.8636 59.4712 -4.05231e-17
254 2 77.1298 197.629 -4.05231e-17
255 1 212.364 148.538 -4.05231e-17
256 1 84.6394 165.981 -4.05231e-17
257 1 212.055 151.535 -4.05231e-17
258 2 161.287 26.5535 -4.05231e-17
259 1 54.8849 162.372 -4.05231e-17
260 1 129.246 9.60986 -4.05231e-17
261 1 183.609 14.1197 -4.05231e-17
262 1 51.4948 64.6122 -4.05231e-17
263 1 18.226 217.098 -4.05231e-17
264 1 172.291 42.7434 -4.05231e-17
265 1 167.561 22.3243 -4.05231e-17
266 1 151.611 8.59827 -4.05231e-17
267 1 7.27617 62.0802 -4.05231e-17
268 1 20.072 38.7072 -4.05231e-17
269 1 130.226 96.0562 -4.05231e-17
270 1 138.344 102.094 -4.05231e-17
271 1 5.85622 91.1145 -4.05231e-17
272 1 159.384 201.237 -4.05231e-17
273 1 45.8985 171.356 -4.05231e-17
274 2 112.566 88.1604 -4.05231e-17
275 1 64.0785 5.04487 -4.05231e-17
276 2 52.2924 31.0482 -4.05231e-17
277 2 170.025 121.155 -4.05231e-17
278 1 33.1333 91.3109 -4.05231e-17
279 2 112.351 208.715 -4.05231e-17
280 1 59.7833 31.5592 -4.05231e-17
281 1 144.804 27.6273 -4.05231e-17
282 1 162.819 8.02187 -4.05231e-17
283 1 113.137 141.752 -4.05231e-17
284 1 137.06 165.509 -4.05231e-17
285 1 35.3309 12.977 -4.05231e-17
286 2 33.853 215.222 -4.05231e-17
287 1 82.5117 136.473 -4.05231e-17
288 1 14.4494 56.0555 -4.05231e-17
289 1 74.2918 54.2442 -4.05231e-17
290 1 151.039 192.919 -4.05231e-17
291 1 155.902 146.976 -4.05231e-17
292 2 19.4848 181.584 -4.05231e-17
293 2 65.0446 195.525 -4.05231e-17
294 1 117.877 44.5567 -4.05231e-17
295 1 125.193 50.9162 -4.05231e-17
296 1 135.001 42.0235 -4.05231e-17
297 1 118.806 145.274 -4.05231e-17
298 1 104.136 198.688 -4.05231e-17
299 1 175.461 115.955 -4.05231e-17
300 2 60.9642 92.8772 -4.05231e-17
301 1 73.8413 59.0707 -4.05231e-17
302 1 127.953 190.776 -4.05231e-17
303 2 198.68 59.6359 -4.05231e-17
304 2 145.899 124.933 -4.05231e-17
305 1 87.0949 100.423 -4.05231e-17
306 1 50.6189 69.2395 -4.05231e-17
307 1 20.2402 98.4653 -4.05231e-17
308 1 161.551 58.9796 -4.05231e-17
309 2 70.0768 187.497 -4.05231e-17
310 1 199.314 211.385 -4.05231e-17
311 1 79.9684 33.7258 -4.05231e-17
312 1 192.011 148.23 -4.05231e-17
313 2 147.854 68.2056 -4.05231e-17
314 1 38.7518 130.915 -4.05231e-17
315 1 111.298 150.71 -4.05231e-17
316 1 72.5153 1.20456 -4.05231e-17
317 1 27.6792 99.6046 -4.05231e-17
318 1 100.047 215.67 -4.05231e-17
319 1 56.0808 35.7834 -4.05231e-17
320 1 142.227 83.0822 -4.05231e-17
321 1 88.4045 203.91 -4.05231e-17
322 1 137.025 145.866 -4.05231e-17
323 1 191.468 105.987 -4.05231e-17
324 1 81.3245 26.8803 -4.05231e-17
325 1 162.168 139.634 -4.05231e-17
326 1 85.1867 152.191 -4.05231e-17
327 2 149.963 185.414 -4.05231e-17
328 1 167.713 40.054 -4.05231e-17
329 2 48.9665 109.535 -4.05231e-17
330 1 14.0767 110.71 -4.05231e-17
331 1 174.935 176.219 -4.05231e-17
332 2 113.167 105.173 -4.05231e-17
333 1 48.5226 15.9415 -4.05231e-17
334 1 140.334 169.006 -4.05231e-17
335 1 15.6218 204.923 -4.05231e-17
336 1 213.514 105.665 -4.05231e-17
337 1 103.183 182.492 -4.05231e-17
338 1 159.24 57.8316 -4.05231e-17
339 1 107.832 214.768 -4.05231e-17
340 1 146.73 138.035 -4.05231e-17
341 1 158.313 168.556 -4.05231e-17
342 1 130.432 142.167 -4.05231e-17
343 1 129.688 27.0961 -4.05231e-17
344 1 50.7338 185.99 -4.05231e-17
345 1 54.6292 114.721 -4.05231e-17
346 1 6.61896 129.915 -4.05231e-17
347 1 92.3653 92.9087 -4.05231e-17
348 1 161.675 180.385 -4.05231e-17
349 1 193.205 75.3759 -4.05231e-17
350 2 87.9209 44.6658 -4.05231e-17
351 1 154.775 66.004 -4.05231e-17
352 1 67.3438 165.588 -4.05231e-17
353 1 37.5384 172.403 -4.05231e-17
354 1 161.081 159.022 -4.05231e-17
355 1 62.2776 159.061 -4.05231e-17
356 1 26.5983 38.7307 -4.05231e-17
357 1 59.6483 160.495 -4.05231e-17
358 1 172.28 181.091 -4.05231e-17
359 1 162.219 163.433 -4.05231e-17
360 1 80.182 55.4442 -4.05231e-17
361 1 64.9453 179.597 -4.05231e-17
362 1 168.742 200.825 -4.05231e-17
363 1 161.543 191.125 -4.05231e-17
364 2 113.085 91.9156 -4.05231e-17
365 1 178.614 90.5142 -4.05231e-17
366 1 117.474 161.103 -4.05231e-17
367 1 172.063 7.3837 -4.05231e-17
368 1 196.591 192.825 -4.05231e-17
369 2 114.898 188.581 -4.05231e-17
370 1 3.978 216.183 -4.05231e-17
371 1 53.9071 132.253 -4.05231e-17
372 2 0.968942 92.7663 -4.05231e-17
373 2 209.574 8.24915 -4.05231e-17
374 1 153.975 95.0781 -4.05231e-17
375 1 31.8025 108.478 -4.05231e-17
376 1 10.4014 153.324 -4.05231e-17
377 1 28.5324 213.75 -4.05231e-17
378 1 77.8593 122.947 -4.05231e-17
379 1 35.7105 37.8212 -4.05231e-17
380 1 177.585 151.039 -4.05231e-17
381 1 15.7771 217.629 -4.05231e-17
382 1 56.2767 65.7981 -4.05231e-17
383 1 169.611 67.4285 -4.05231e-17
384 1 21.7086 14.6392 -4.05231e-17
385 1 191.31 77.0183 -4.05231e-17
386 2 85.3154 41.44 -4.05231e-17
387 1 146.578 20.1927 -4.05231e-17
388 1 72.9729 46.7057 -4.05231e-17
389 1 207.279 158.957 -4.05231e-17
390 2 206.787 179.731 -4.05231e-17
391 2 41.2031 38.5699 -4.05231e-17
392 1 41.3524 218.027 -4.05231e-17
393 1 0.133282 33.3801 -4.05231e-17
394 1 102.677 102.587 -4.05231e-17
395 1 15.997 28.0654 -4.05231e-17
396 1 204.938 152.062 -4.05231e-17
397 1 100.64 16.5023 -4.05231e-17
398 1 10.8424 191.395 -4.05231e-17
399 1 28.8557 53.4647 -4.05231e-17
400 1 103.336 180.021 -4.05231e-17
401 1 87.4925 176.775 -4.05231e-17
402 2 191.302 179.041 -4.05231e-17
403 1 213.592 53.933 -4.05231e-17
404 1 47.4658 86.4772 -4.05231e-17
405 1 204.327 29.0798 -4.05231e-17
406 1 200.887 68.5799 -4.05231e-17
407 2 17.0945 61.3134 -4.05231e-17
408 1 39.7006 31.19 -4.05231e-17
409 1 169.214 126.682 -4.05231e-17
410 1 19.3584 157.041 -4.05231e-17
411 1 155.95 161.248 -4.05231e-17
412 1 115.146 208.121 -4.05231e-17
413 1 66.6296 155.753 -4.05231e-17
414 1 37.6373 13.8132 -4.05231e-17
415 1 208.344 148.388 -4.05231e-17
416 1 71.7299 200.465 -4.05231e-17
417 1 158.84 79.3441 -4.05231e-17
418 2 182.079 3.36199 -4.05231e-17
419 1 108.886 150.32 -4.05231e-17
420 2 159.037 103.317 -4.05231e-17
421 1 88.745 104.604 -4.05231e-17
422 1 172.684 14.902 -4.05231e-17
423 2 158.03 40.8946 -4.05231e-17
424 1 147.855 140.473 -4.05231e-17
425 1 129.808 167.706 -4.05231e-17
426 1 133.692 113.201 -4.05231e-17
427 1 48.936 77.0044 -4.05231e-17
428 1 67.0369 192.965 -4.05231e-17
429 1 194.432 83.5304 -4.05231e-17
430 1 217.549 61.896 -4.05231e-17
431 1 121.314 211.664 -4.05231e-17
432 1 161.513 53.584 -4.05231e-17
433 1 105.227 154.099 -4.05231e-17
434 1 71.715 30.1599 -4.05231e-17
435 1 177.803 161.732 -4.05231e-17
436 1 31.5007 35.1257 -4.05231e-17
437 1 178.424 109.605 -4.05231e-17
438 2 112.411 24.2467 -4.05231e-17
439 1 66.8015 208.919 -4.05231e-17
440 1 1.50003 163.232 -4.05231e-17
441 1 191.953 135.127 -4.05231e-17
442 1 53.9642 17.401 -4.05231e-17
443 1 156.72 101.366 -4.05231e-17
444 1 218.979 100.063 -4.05231e-17
445 1 139.262 4.70414 -4.05231e-17
446 1 163.983 101.516 -4.05231e-17
447 1 44.8815 146.649 -4.05231e-17
448 1 75.574 7.57213 -4.05231e-17
449 1 136.109 125.309 -4.05231e-17
450 1 139.887 187.382 -4.05231e-17
451 1 170.467 47.1092 -4.05231e-17
452 1 129.109 145.198 -4.05231e-17
453 1 178.903 182.529 -4.05231e-17
454 1 159.556 211.094 -4.05231e-17
455 1 100.297 72.177 -4.05231e-17
456 1 168.759 24.7039 -4.05231e-17
457 1 98.3871 113.825 -4.05231e-17
458 1 197.126 2.47188 -4.05231e-17
459 1 81.7649 69.7864 -4.05231e-17
460 1 45.8477 98.6334 -4.05231e-17
461 1 188.699 178.058 -4.05231e-17
462 1 187.045 115.896 -4.05231e-17
463 1 126.623 33.7109 -4.05231e-17
464 1 155.19 194.749 -4.05231e-17
465 1 121.752 159.968 -4.05231e-17
466 1 22.5229 212.492 -4.05231e-17
467 1 31.3337 92.9936 -4.05231e-17
468 1 160.297 218.391 -4.05231e-17
469 1 65.8987 75.2841 -4.05231e-17
470 1 78.0681 38.1962 -4.05231e-17
471 1 129.256 174.366 -4.05231e-17
472 1 51.6622 89.2666 -4.05231e-17
473 1 50.3339 112.156 -4.05231e-17
474 1 89.1438 102.014 -4.05231e-17
475 1 184.666 163.669 -4.05231e-17
476 2 184.647 11.6038 -4.05231e-17
477 1 52.4403 79.6692 -4.05231e-17
478 1 41.9715 116.659 -4.05231e-17
479 1 201.305 81.0412 -4.05231e-17
480 1 85.4115 23.6654 -4.05231e-17
481 1 10.3714 98.6063 -4.05231e-17
482 1 99.2732 160.259 -4.05231e-17
483 1 142.083 160.063 -4.05231e-17
484 2 83.2636 48.599 -4.05231e-17
485 1 34.4543 96.3726 -4.05231e-17
486 1 81.746 17.5425 -4.05231e-17
487 1 100.255 196.654 -4.05231e-17
488 1 8.97153 120.364 -4.05231e-17
489 1 4.32558 131.243 -4.05231e-17
490 1 204.687 84.1473 -4.05231e-17
491 1 205.201 116.759 -4.05231e-17
492 1 6.99838 132.278 -4.05231e-17
493 1 190.514 0.532484 -4.05231e-17
494 1 210.956 38.1278 -4.05231e-17
495 1 198.532 89.8435 -4.05231e-17
496 2 43.5111 191.712 -4.05231e-17
497 1 38.9266 216.975 -4.05231e-17
498 1 105.129 121.986 -4.05231e-17
499 2 135.923 216.125 -4.05231e-17
500 1 33.445 36.7888 -4.05231e-17
501 2 109.407 217.129 -4.05231e-17
502 2 125.91 144.396 -4.05231e-17
503 1 144.89 184.394 -4.05231e-17
504 1 112.948 148.677 -4.05231e-17
505 1 116.77 18.4392 -4.05231e-17
506 1 29.7793 121.184 -4.05231e-17
507 1 22.12 135.4 -4.05231e-17
508 1 187.059 9.48412 -4.05231e-17
509 2 29.8536 75.691 -4.05231e-17
510 2 148.742 130.306 -4.05231e-17
511 1 193.302 37.2936 -4.05231e-17
512 2 207.008 60.2199 -4.05231e-17
513 1 50.0417 133.887 -4.05231e-17
514 1 50.6822 13.849 -4.05231e-17
515 1 203.844 24.9784 -4.05231e-17
516 1 185.092 214.981 -4.05231e-17
517 1 112.964 118.179 -4.05231e-17
518 2 103.466 17.9002 -4.05231e-17
519 1 11.2765 52.8293 -4.05231e-17
520 2 211.938 22.5934 -4.05231e-17
521 1 89.6883 111.295 -4.05231e-17
522 1 27.6563 25.345 -4.05231e-17
523 1 17.5319 64.4478 -4.05231e-17
524 1 99.5397 74.9086 -4.05231e-17
525 1 180.925 113.36 -4.05231e-17
526 1 190.965 64.8339 -4.05231e-17
527 1 75.075 4.76622 -4.05231e-17
528 1 169.9 22.525 -4.05231e-17
529 1 64.6996 143.588 -4.05231e-17
530 1 102.806 38.354 -4.05231e-17
531 1 62.3222 193.884 -4.05231e-17
532 1 206.132 188.434 -4.05231e-17
533 1 139.953 133.899 -4.05231e-17
534 1 97.6379 144.796 -4.05231e-17
535 1 11.4828 106.684 -4.05231e-17
536 1 210.994 123.102 -4.05231e-17
537 1 201.691 166.769 -4.05231e-17
538 1 168.469 80.665 -4.05231e-17
539 1 88.9953 211.996 -4.05231e-17
540 1 101.615 89.6817 -4.05231e-17
541 1 42.231 53.3803 -4.05231e-17
542 1 66.9826 211.33 -4.05231e-17
543 1 149.686 154.172 -4.05231e-17
544 1 134.749 202.593 -4.05231e-17
545 1 11.2479 147.984 -4.05231e-17
546 1 179.129 41.33 -4.05231e-17
547 1 83.857 173.241 -4.05231e-17
548 1 99.2264 8.73212 -4.05231e-17
549 1 56.2055 76.4407 -4.05231e-17
550 2 162.263 124.613 -4.05231e-17
551 2 134.507 158.076 -4.05231e-17
552 2 93.7921 180.61 -4.05231e-17
553 1 123.146 38.682 -4.05231e-17
554 1 65.9677 107.183 -4.05231e-17
555 2 71.9086 124.324 -4.05231e-17
556 1 143.88 20.759 -4.05231e-17
557 1 76.3438 12.5793 -4.05231e-17
558 1 138.349 123.956 -4.05231e-17
559 1 187.437 47.8526 -4.05231e-17
560 1 133.171 48.8122 -4.05231e-17
561 1 147.985 170.662 -4.05231e-17
562 1 194.973 144.497 -4.05231e-17
563 2 167.489 116.336 -4.05231e-17
564 1 30.9611 67.3064 -4.05231e-17
565 1 60.1436 10.2573 -4.05231e-17
566 1 75.1175 34.1314 -4.05231e-17
567 1 140.718 122.511 -4.05231e-17
568 1 29.6705 117.861 -4.05231e-17
569 1 114.089 185.514 -4.05231e-17
570 1 126.259 127.501 -4.05231e-17
571 1 174.783 204.02 -4.05231e-17
572 1 44.489 115.423 -4.05231e-17
573 1 177.118 76.4135 -4.05231e-17
574 1 36.3019 120.644 -4.05231e-17
575 1 15.2923 98.7012 -4.05231e-17
576 1 197.596 101.888 -4.05231e-17
577 1 202.466 33.3109 -4.05231e-17
578 1 126.971 193.274 -4.05231e-17
579 1 11.3506 166.193 -4.05231e-17
580 1 102.883 139.524 -4.05231e-17
581 1 140.905 154.95 -4.05231e-17
582 1 75.3209 79.344 -4.05231e-17
583 1 164.036 184.294 -4.05231e-17
584 2 24.9686 119.132 -4.05231e-17
585 1 42.2773 200.394 -4.05231e-17
586 1 138.242 171.182 -4.05231e-17
587 1 100.138 106.101 -4.05231e-17
588 1 18.1378 214.412 -4.05231e-17
589 1 105.581 9.43441 -4.05231e-17
590 1 70.2499 218.977 -4.05231e-17
591 1 216.027 162.342 -4.05231e-17
592 1 60.1358 167.291 -4.05231e-17
593 1 209.031 181.334 -4.05231e-17
594 1 181.297 181.371 -4.05231e-17
595 1 82.9184 40.0065 -4.05231e-17
596 1 65.6459 35.7585 -4.05231e-17
597 2 182.118 205.996 -4.05231e-17
598 1 166.402 211.453 -4.05231e-17
599 1 208.335 171.205 -4.05231e-17
600 1 103.822 10.8937 -4.05231e-17
601 1 22.251 132.624 -4.05231e-17
602 1 96.0616 33.1835 -4.05231e-17
603 1 212.834 217.345 -4.05231e-17
604 1 118.348 5.29815 -4.05231e-17
605 2 85.5354 77.9368 -4.05231e-17
606 1 102.087 201.978 -4.05231e-17
607 2 172.129 146.374 -4.05231e-17
608 1 94.74 76.934 -4.05231e-17
609 1 15.8216 6.64588 -4.05231e-17
610 1 214.178 150.354 -4.05231e-17
611 1 201.393 190.6 -4.05231e-17
612 1 218.054 37.7324 -4.05231e-17
613 1 59.8108 150.111 -4.05231e-17
614 2 127.625 179.451 -4.05231e-17
615 1 128.941 21.4225 -4.05231e-17
616 1 206.167 119.089 -4.05231e-17
617 1 117.754 203.796 -4.05231e-17
618 1 189.149 207.76 -4.05231e-17
619 1 178.898 78.2702 -4.05231e-17
620 1 137.502 138.245 -4.05231e-17
621 1 197.912 96.347 -4.05231e-17
622 1 95.5284 213.61 -4.05231e-17
623 1 218.757 11.91 -4.05231e-17
624 1 23.6467 210.076 -4.05231e-17
625 1 205.286 155.141 -4.05231e-17
626 1 93.7794 191.257 -4.05231e-17
627 1 58.0613 70.9778 -4.05231e-17
628 1 28.7096 22.9789 -4.05231e-17
629 1 27.5598 108.637 -4.05231e-17
630 2 151.02 22.6109 -4.05231e-17
631 1 30.4013 81.2198 -4.05231e-17
632 1 49.3227 94.6314 -4.05231e-17
633 1 38.7699 211.918 -4.05231e-17
634 1 1.22174 147.46 -4.05231e-17
635 1 158.36 149.813 -4.05231e-17
636 1 209.757 66.6778 -4.05231e-17
637 1 204.192 58.6865 -4.05231e-17
638 1 172.526 76.0443 -4.05231e-17
639 2 203.762 78.8289 -4.05231e-17
640 1 146.765 148.236 -4.05231e-17
641 1 192.686 85.4868 -4.05231e-17
642 1 25.0802 88.4103 -4.05231e-17
643 2 181.781 43.2494 -4.05231e-17
644 1 67.3466 160.97 -4.05231e-17
645 1 106.061 196.456 -4.05231e-17
646 2 215.383 141.379 -4.05231e-17
647 1 10.6237 185.518 -4.05231e-17
648 1 142.198 100.144 -4.05231e-17
649 2 29.8154 155.485 -4.05231e-17
650 1 204.133 186.722 -4.05231e-17
651 1 1.23869 112.273 -4.05231e-17
652 1 154.739 46.1783 -4.05231e-17
653 1 114.4 175.84 -4.05231e-17
654 1 23.0293 22.1043 -4.05231e-17
655 2 187.227 103.323 -4.05231e-17
656 1 40.3685 104.767 -4.05231e-17
657 2 78.9793 207.585 -4.05231e-17
658 1 57.3083 46.2743 -4.05231e-17
659 2 156.772 191.899 -4.05231e-17
660 1 112.441 45.894 -4.05231e-17
661 1 37.5267 122.851 -4.05231e-17
662 1 87.9329 127.635 -4.05231e-17
663 1 32.0762 27.4392 -4.05231e-17
664 1 149.059 12.7773 -4.05231e-17
665 1 132.119 91.1988 -4.05231e-17
666 2 48.7015 181.415 -4.05231e-17
667 1 93.6544 99.5985 -4.05231e-17
668 2 102.412 92.5795 -4.05231e-17
669 1 38.0572 16.4586 -4.05231e-17
670 1 96.3545 173.825 -4.05231e-17
671 2 52.2178 170.713 -4.05231e-17
672 1 181.7 12.0934 -4.05231e-17
673 1 62.923 19.4986 -4.05231e-17
674 1 1.81094 31.545 -4.05231e-17
675 1 125.047 26.8081 -4.05231e-17
676 1 157.548 116.469 -4.05231e-17
677 1 131.894 175.182 -4.05231e-17
678 1 137.55 30.9492 -4.05231e-17
679 2 153.293 29.985 -4.05231e-17
680 1 202.421 41.4655 -4.05231e-17
681 2 130.931 120.156 -4.05231e-17
682 1 218.863 47.7025 -4.05231e-17
683 1 68.5709 4.1544 -4.05231e-17
684 1 120.022 154.933 -4.05231e-17
685 1 152.563 38.6484 -4.05231e-17
686 1 31.3235 193.938 -4.05231e-17
687 1 117.895 192.577 -4.05231e-17
688 1 163.157 114.07 -4.05231e-17
689 2 54.6251 45.2747 -4.05231e-17
690 1 70.165 19.9641 -4.05231e-17
691 1 91.3824 67.9264 -4.05231e-17
692 1 133.866 9.08288 -4.05231e-17
693 1 52.2763 161.512 -4.05231e-17
694 1 77.893 132.816 -4.05231e-17
695 1 145.67 38.8668 -4.05231e-17
696 1 140.353 78.6695 -4.05231e-17
697 1 140.082 201.204 -4.05231e-17
698 1 121.307 64.7683 -4.05231e-17
699 1 180.355 191.98 -4.05231e-17
700 1 205.455 206.852 -4.05231e-17
701 1 52.4655 22.1771 -4.05231e-17
702 1 113.752 129.183 -4.05231e-17
703 2 188.406 144.331 -4.05231e-17
704 1 29.2032 0.0243409 -4.05231e-17
705 2 62.0469 110.177 -4.05231e-17
706 1 163.792 176.404 -4.05231e-17
707 1 115.773 23.6046 -4.05231e-17
708 1 84.0368 209.609 -4.05231e-17
709 1 147.524 195.752 -4.05231e-17
710 1 192.151 192.127 -4.05231e-17
711 1 125.06 90.3731 -4.05231e-17
712 1 197.083 207.576 -4.05231e-17
713 1 17.9103 135.894 -4.05231e-17
714 1 137.215 16.2084 -4.05231e-17
715 1 55.7993 192.011 -4.05231e-17
716 1 33.6391 120.746 -4.05231e-17
717 1 54.4708 109.396 -4.05231e-17
718 1 130.919 184.888 -4.05231e-17
719 2 116.342 77.5375 -4.05231e-17
720 1 95.1109 61.9949 -4.05231e-17
721 1 96.0342 98.6208 -4.05231e-17
722 1 133.534 62.3266 -4.05231e-17
723 2 49.0058 45.638 -4.05231e-17
724 1 15.9424 51.7188 -4.05231e-17
725 1 44.1108 92.8169 -4.05231e-17
726 1 189.561 46.2758 -4.05231e-17
727 1 148.482 204.88 -4.05231e-17
728 2 42.3909 88.0351 -4.05231e-17
729 1 134.398 165.209 -4.05231e-17
730 1 174.287 199.43 -4.05231e-17
731 1 53.0502 184.655 -4.05231e-17
732 1 6.62419 7.59809 -4.05231e-17
733 1 205.002 34.1748 -4.05231e-17
734 1 3.72616 29.7202 -4.05231e-17
735 1 41.3628 20.4639 -4.05231e-17
736 2 190.422 74.1462 -4.05231e-17
737 1 81.6042 86.534 -4.05231e-17
738 1 13.4436 168.121 -4.05231e-17
739 1 105.994 156.651 -4.05231e-17
740 1 50.2045 114.501 -4.05231e-17
741 2 188.947 78.3511 -4.05231e-17
742 1 69.0785 41.9479 -4.05231e-17
743 1 204.086 65.082 -4.05231e-17
744 2 210.614 173.061 -4.05231e-17
745 1 130.963 32.3445 -4.05231e-17
746 1 14.1218 29.9356 -4.05231e-17
747 2 204.097 22.1348 -4.05231e-17
748 1 182.514 193.23 -4.05231e-17
749 1 191.04 212.314 -4.05231e-17
750 1 213.483 163.595 -4.05231e-17
751 1 50.7656 61.6772 -4.05231e-17
752 1 179.411 107.25 -4.05231e-17
753 1 99.2724 151.136 -4.05231e-17
754 1 10.9394 217.039 -4.05231e-17
755 1 82.8444 195.037 -4.05231e-17
756 2 102.981 195.981 -4.05231e-17
757 1 26.8816 18.642 -4.05231e-17
758 1 136.529 148.501 -4.05231e-17
759 1 73.6116 108.566 -4.05231e-17
760 1 90.5596 45.8834 -4.05231e-17
761 1 64.5647 165.672 -4.05231e-17
762 1 43.2409 24.4061 -4.05231e-17
763 1 115.167 103.552 -4.05231e-17
764 2 177.351 147.994 -4.05231e-17
765 1 96.8122 52.9907 -4.05231e-17
766 1 107.822 32.8995 -4.05231e-17
767 1 96.6525 78.3577 -4.05231e-17
768 1 12.781 218.637 -4.05231e-17
769 1 109.981 75.9195 -4.05231e-17
770 2 114.727 110.283 -4.05231e-17
771 1 141.595 180.899 -4.05231e-17
772 1 99.9653 30.0272 -4.05231e-17
773 1 109.414 167.421 -4.05231e-17
774 1 111.664 124.506 -4.05231e-17
775 1 68.8931 7.09775 -4.05231e-17
776 1 37.7022 11.1789 -4.05231e-17
777 1 107.809 182.181 -4.05231e-17
778 1 22.3896 19.535 -4.05231e-17
779 1 191.505 44.4345 -4.05231e-17
780 1 3.20275 170.022 -4.05231e-17
781 1 123.322 102.535 -4.05231e-17
782 1 175.441 49.6244 -4.05231e-17
783 1 98.0905 15.5651 -4.05231e-17
784 2 195.269 159.581 -4.05231e-17
785 1 111.12 165.343 -4.05231e-17
786 1 119.189 177.609 -4.05231e-17
787 1 185.218 75.2278 -4.05231e-17
788 1 176.778 45.0857 -4.05231e-17
789 2 141.14 102.889 -4.05231e-17
790 1 111.126 35.8554 -4.05231e-17
791 2 16.8581 117.789 -4.05231e-17
792 2 215.658 13.0204 -4.05231e-17
793 2 118.967 71.9253 -4.05231e-17
794 1 48.2772 192.668 -4.05231e-17
795 1 132.697 52.7878 -4.05231e-17
796 1 123.519 21.3445 -4.05231e-17
797 1 197.785 155.584 -4.05231e-17
798 2 198.409 204.939 -4.05231e-17
799 2 207.124 65.3899 -4.05231e-17
800 2 54.9903 217.563 -4.05231e-17
801 1 101.52 134.928 -4.05231e-17
802 1 123.194 75.0045 -4.05231e-17
803 1 182.065 68.6143 -4.05231e-17
804 2 125.499 201.492 -4.05231e-17
805 1 44.8757 120.356 -4.05231e-17
806 1 11.7927 112.091 -4.05231e-17
807 2 100.594 100.774 -4.05231e-17
808 1 12.1312 115.182 -4.05231e-17
809 2 56.2974 136.834 -4.05231e-17
810 1 131.646 202.362 -4.05231e-17
811 1 32.4317 6.15216 -4.05231e-17
812 1 131.9 34.7929 -4.05231e-17
813 2 109.209 111.911 -4.05231e-17
814 1 146.101 70.3964 -4.05231e-17
815 1 88.996 164.596 -4.05231e-17
816 1 194.063 13.3023 -4.05231e-17
817 1 109.961 210.135 -4.05231e-17
818 1 57.6991 99.664 -4.05231e-17
819 1 13.4207 141.414 -4.05231e-17
820 1 54.3345 125.147 -4.05231e-17
821 1 94.5941 151.761 -4.05231e-17
822 2 29.7829 135.868 -4.05231e-17
823 2 139.068 89.8281 -4.05231e-17
824 1 35.3366 85.7873 -4.05231e-17
825 1 65.0396 15.5301 -4.05231e-17
826 1 191.033 206.035 -4.05231e-17
827 1 200.1 102.156 -4.05231e-17
828 1 138.003 132.165 -4.05231e-17
829 1 127.398 216.803 -4.05231e-17
830 1 73.6643 131.199 -4.05231e-17
831 1 217.29 42.2989 -4.05231e-17
832 1 93.016 87.6941 -4.05231e-17
833 1 61.6829 83.8439 -4.05231e-17
834 1 110.93 4.0781 -4.05231e-17
835 1 56.1103 1.33261 -4.05231e-17
836 1 9.79308 48.0861 -4.05231e-17
837 1 5.58401 73.7662 -4.05231e-17
838 1 98.0845 178.49 -4.05231e-17
839 2 200.081 4.24371 -4.05231e-17
840 1 5.45099 218.542 -4.05231e-17
841 2 63.2711 177.115 -4.05231e-17
842 1 94.7317 92.0522 -4.05231e-17
843 2 159.216 181.638 -4.05231e-17
844 1 32.1815 157.244 -4.05231e-17
845 1 68.2391 195.292 -4.05231e-17
846 1 163.193 189.128 -4.05231e-17
847 1 65.2775 149.809 -4.05231e-17
848 1 191.65 114.081 -4.05231e-17
849 1 189.499 166.962 -4.05231e-17
850 1 32.2398 127.512 -4.05231e-17
851 1 94.9259 40.4789 -4.05231e-17
852 1 8.16689 204.932 -4.05231e-17
853 1 27.0259 134.928 -4.05231e-17
854 1 170.996 84.3115 -4.05231e-17
855 1 124.829 19.1638 -4.05231e-17
856 1 210.658 170.167 -4.05231e-17