ITEM: TIMESTEP
0
ITEM: NUMBER OF ATOMS
7200
ITEM: BOX BOUNDS xy xz yz pp pp pp
0.0000000000000000e+00 2.1900000000000000e+02 0.0000000000000000e+00
0.0000000000000000e+00 2.1900000000000000e+02 0.0000000000000000e+00
-3.6499999999999999e-01 3.6499999999999999e-01 0.0000000000000000e+00
ITEM: ATOMS id type x y z
1 1 37.7228 139.748 -4.05231e-17
2 1 195.36 98.5667 -4.05231e-17
3 1 50.97 188.456 -4.05231e-17
4 1 33.4596 82.4384 -4.05231e-17
5 1 18.5618 134.385 -4.05231e-17
6 1 129.818 10.3918 -4.05231e-17
7 1 56.2476 29.8437 -4.05231e-17
8 2 132.076 93.8011 -4.05231e-17
9 1 192.997 213.485 -4.05231e-17
10 2 42.9981 197.673 -4.05231e-17
11 1 123.137 38.7044 -4.05231e-17
12 1 170.585 104.92 -4.05231e-17
13 2 60.2837 102.641 -4.05231e-17
14 1 64.5425 21.9686 -4.05231e-17
15 1 109.569 93.1069 -4.05231e-17
16 2 63.0804 169.489 -4.05231e-17
17 1 145.086 23.32 -4.05231e-17
18 2 15.2848 59.6699 -4.05231e-17
19 1 112.131 50.9558 -4.05231e-17
20 1 164.77 120.571 -4.05231e-17
21 1 45.186 8.72713 -4.05231e-17
22 2 4.16314 148.726 -4.05231e-17
23 2 1.87834 39.3638 -4.05231e-17
24 1 164.779 113.672 -4.05231e-17
25 1 28.049 195.624 -4.05231e-17
26 2 100.032 106.07 -4.05231e-17
27 1 190.323 210.28 -4.05231e-17
28 2 11.9373 147.816 -4.05231e-17
29 1 74.1438 47.0598 -4.05231e-17
30 1 141.139 99.0643 -4.05231e-17
31 1 207.273 87.8131 -4.05231e-17
32 1 83.8677 133.155 -4.05231e-17
33 1 163.009 180.063 -4.05231e-17
34 1 42.3109 60.2483 -4.05231e-17
35 1 190.579 54.1947 -4.05231e-17
36 1 47.9883 146.833 -4.05231e-17
37 2 128.882 144.574 -4.05231e-17
38 1 199.075 67.5305 -4.05231e-17
39 1 123.329 143.492 -4.05231e-17
40 1 139.394 157.812 -4.05231e-17
41 1 144.857 163.241 -4.05231e-17
42 1 94.2801 33.1295 -4.05231e-17
43 1 169.725 87.4606 -4.05231e-17
44 1 127.383 47.8639 -4.05231e-17
45 1 213.117 76.0065 -4.05231e-17
46 1 45.6433 195.615 -4.05231e-17
47 1 31.8519 178.209 -4.05231e-17
48 2 69.9154 62.4326 -4.05231e-17
49 1 46.5845 126.197 -4.05231e-17
50 1 29.028 206.935 -4.05231e-17
51 1 161.539 13.125 -4.05231e-17
52 1 182.959 122.835 -4.05231e-17
53 1 143.652 5.2067 -4.05231e-17
54 1 212.501 137.06 -4.05231e-17
55 1 17.6819 43.1409 -4.05231e-17
56 1 96.176 129.045 -4.05231e-17
57 2 70.7959 207.138 -4.05231e-17
58 1 27.872 45.2867 -4.05231e-17
59 1 5.50299 116.154 -4.05231e-17
60 2 128.015 124.762 -4.05231e-17
61 2 44.6399 200.753 -4.05231e-17
62 1 24.715 152.261 -4.05231e-17
63 1 122.424 13.0279 -4.05231e-17
64 1 143.528 42.3054 -4.05231e-17
65 1 205.879 111.886 -4.05231e-17
66 1 143.949 139.647 -4.05231e-17
67 1 88.6786 140.701 -4.05231e-17
68 1 76.2931 150.844 -4.05231e-17
69 1 116.508 191.731 -4.05231e-17
70 1 47.4125 113.554 -4.05231e-17
71 1 190.996 141.803 -4.05231e-17
72 1 173.424 54.2308 -4.05231e-17
73 1 190.581 180.878 -4.05231e-17
74 1 184.714 4.25963 -4.05231e-17
75 2 95.5287 196.277 -4.05231e-17
76 1 1.1345 10.2044 -4.05231e-17
77 1 54.6238 42.7726 -4.05231e-17
78 1 110.077 114.5 -4.05231e-17
79 2 106.126 7.01555 -4.05231e-17
80 1 44.5925 143.79 -4.05231e-17
81 1 115.799 141.883 -4.05231e-17
82 1 38.2529 142.169 -4.05231e-17
83 2 126.367 176.289 -4.05231e-17
84 1 165.134 85.5265 -4.05231e-17
85 1 75.4495 71.7285 -4.05231e-17
86 1 113.732 132.38 -4.05231e-17
87 1 19.8521 19.3023 -4.05231e-17
88 1 25.0436 45.0909 -4.05231e-17
89 2 50.0475 2.08307 -4.05231e-17
90 2 193.234 182.243 -4.05231e-17
91 1 174.395 107.787 -4.05231e-17
92 2 163.709 5.9254 -4.05231e-17
93 1 143.766 33.5712 -4.05231e-17
94 2 148.1 16.4552 -4.05231e-17
95 1 35.4314 218.437 -4.05231e-17
96 1 100.18 94.2363 -4.05231e-17
97 1 152.395 19.5109 -4.05231e-17
98 1 127.055 60.1348 -4.05231e-17
99 1 170.957 16.1654 -4.05231e-17
100 1 144.661 206.916 -4.05231e-17
101 1 119.208 4.61437 -4.05231e-17
102 1 27.3622 56.2799 -4.05231e-17
103 1 51.1412 74.3566 -4.05231e-17
104 1 38.4352 108.149 -4.05231e-17
105 1 104.515 1.88555 -4.05231e-17
106 1 120.04 106.584 -4.05231e-17
107 2 159.372 94.7464 -4.05231e-17
108 1 25.5926 210.157 -4.05231e-17
109 1 51.3171 76.8502 -4.05231e-17
110 1 89.9366 63.9743 -4.05231e-17
111 1 59.8234 24.7696 -4.05231e-17
112 1 87.48 144.984 -4.05231e-17
113 1 90.1238 67.2945 -4.05231e-17
114 1 138.421 31.5295 -4.05231e-17
115 1 48.2404 192.007 -4.05231e-17
116 2 210.871 118.438 -4.05231e-17
117 1 197.139 12.3912 -4.05231e-17
118 1 169.043 58.342 -4.05231e-17
119 2 41.1156 130.889 -4.05231e-17
120 1 52.7995 192.848 -4.05231e-17
121 1 184.289 87.3427 -4.05231e-17
122 1 139.567 205.266 -4.05231e-17
123 1 161.203 117.472 -4.05231e-17
124 1 166.213 196.591 -4.05231e-17
125 1 109.685 111.522 -4.05231e-17
126 1 95.7596 56.0095 -4.05231e-17
127 1 143.748 99.436 -4.05231e-17
128 1 168.963 184.708 -4.05231e-17
129 1 4.02714 102.752 -4.05231e-17
130 1 20.1246 138.445 -4.05231e-17
131 1 161.783 146.417 -4.05231e-17
132 2 203.481 6.37833 -4.05231e-17
133 1 108.541 81.8708 -4.05231e-17
134 1 64.4128 62.325 -4.05231e-17
135 1 77.8704 13.1425 -4.05231e-17
136 1 205.182 212.785 -4.05231e-17
137 1 70.3506 154.498 -4.05231e-17
138 1 58.5871 8.15562 -4.05231e-17
139 1 7.48302 129.225 -4.05231e-17
140 2 154.331 182.446 -4.05231e-17
141 1 196.37 91.3868 -4.05231e-17
142 2 5.46595 26.7641 -4.05231e-17
143 1 108.509 97.5582 -4.05231e-17
144 2 34.4778 205.85 -4.05231e-17
145 1 191.42 83.296 -4.05231e-17
146 1 117.604 79.5675 -4.05231e-17
147 1 130.128 155.928 -4.05231e-17
148 1 25.8045 170.9 -4.05231e-17
149 1 66.973 25.7896 -4.05231e-17
150 1 43.222 13.5486 -4.05231e-17
151 1 24.5281 129.51 -4.05231e-17
152 1 43.0197 83.1701 -4.05231e-17
153 2 54.9928 13.781 -4.05231e-17
154 1 159.975 131.346 -4.05231e-17
155 1 123.617 208.939 -4.05231e-17
156 2 42.6918 141.869 -4.05231e-17
157 1 208.426 100.253 -4.05231e-17
158 1 45.4076 22.9777 -4.05231e-17
159 1 22.1807 131.144 -4.05231e-17
160 1 18.1089 31.8006 -4.05231e-17
161 1 1.16209 12.712 -4.05231e-17
162 1 124.852 124.623 -4.05231e-17
163 1 41.6076 34.0035 -4.05231e-17
164 1 167.032 44.0755 -4.05231e-17
165 1 138.152 187.928 -4.05231e-17
166 2 162.112 58.1531 -4.05231e-17
167 1 176.338 40.4126 -4.05231e-17
168 1 131.597 178.193 -4.05231e-17
169 1 30.9592 96.8722 -4.05231e-17
170 1 103.538 168.255 -4.05231e-17
171 1 111.755 85.7971 -4.05231e-17
172 1 203.353 15.5454 -4.05231e-17
173 1 31.3704 123.68 -4.05231e-17
174 1 136.534 47.946 -4.05231e-17
175 2 137.726 152.946 -4.05231e-17
176 1 95.8427 61.5182 -4.05231e-17
177 2 58.8537 48.6176 -4.05231e-17
178 1 82.4114 63.4042 -4.05231e-17
179 1 186.386 154.86 -4.05231e-17
180 1 207.794 189.724 -4.05231e-17
181 1 177.201 193.12 -4.05231e-17
182 2 76.4946 25.5992 -4.05231e-17
183 1 77.3847 170.845 -4.05231e-17
184 1 169.097 112.239 -4.05231e-17
185 2 175.43 13.2065 -4.05231e-17
186 2 196.055 116.231 -4.05231e-17
187 1 88.3281 25.9688 -4.05231e-17
188 1 102.945 184.963 -4.05231e-17
189 1 144.255 168.177 -4.05231e-17
190 2 15.4268 174.21 -4.05231e-17
191 1 77.2389 152.999 -4.05231e-17
192 2 59.0588 110.358 -4.05231e-17
193 2 87.5826 170.686 -4.05231e-17
194 1 15.8195 123.915 -4.05231e-17
195 1 189.263 199.208 -4.05231e-17
196 1 185.701 159.7 -4.05231e-17
197 1 66.5836 67.0587 -4.05231e-17
198 2 15.903 161.584 -4.05231e-17
199 1 6.1341 59.9713 -4.05231e-17
200 1 80.0013 11.5154 -4.05231e-17
201 2 94.0517 124.482 -4.05231e-17
202 1 45.9661 218.293 -4.05231e-17
203 1 152.159 75.0886 -4.05231e-17
204 1 194.081 156.333 -4.05231e-17
205 2 195.904 71.709 -4.05231e-17
206 1 98.4996 139.808 -4.05231e-17
207 1 105.757 58.237 -4.05231e-17
208 1 33.9876 74.4007 -4.05231e-17
209 1 79.073 1.17518 -4.05231e-17
210 1 206.758 42.2314 -4.05231e-17
211 2 127.642 172.003 -4.05231e-17
212 1 130.863 100.914 -4.05231e-17
213 1 169.936 63.5267 -4.05231e-17
214 1 73.4084 18.7299 -4.05231e-17
215 1 96.6462 181.709 -4.05231e-17
216 1 189.078 126.851 -4.05231e-17
217 1 125.947 208.202 -4.05231e-17
218 2 48.972 124.346 -4.05231e-17
219 1 155.269 212.733 -4.05231e-17
220 2 112.463 57.3679 -4.05231e-17
221 1 212.252 53.1512 -4.05231e-17
222 1 173.328 96.1002 -4.05231e-17
223 1 53.1969 199.092 -4.05231e-17
224 2 33.3522 164.139 -4.05231e-17
225 1 194.537 131.243 -4.05231e-17
226 1 174.571 188.593 -4.05231e-17
227 2 52.6459 24.8612 -4.05231e-17
228 1 108.777 139.466 -4.05231e-17
229 1 70.0472 143.299 -4.05231e-17
230 1 191.551 127.545 -4.05231e-17
231 1 137.867 122.304 -4.05231e-17
232 1 215.279 71.0379 -4.05231e-17
233 1 56.925 118.585 -4.05231e-17
234 1 108.93 30.1601 -4.05231e-17
235 1 20.5117 133.11 -4.05231e-17
236 1 75.4762 112.372 -4.05231e-17
237 1 195.689 212.247 -4.05231e-17
238 1 105.669 142.476 -4.05231e-17
239 2 71.0931 126.678 -4.05231e-17
240 1 121.123 214.587 -4.05231e-17
241 2 139.396 10.056 -4.05231e-17
242 2 6.25117 34.6629 -4.05231e-17
243 2 98.5404 18.5639 -4.05231e-17
244 1 102.414 3.5136 -4.05231e-17
245 1 88.2085 68.7526 -4.05231e-17
246 1 134.179 112.865 -4.05231e-17
247 1 211.703 94.1296 -4.05231e-17
248 1 83.7943 3.22051 -4.05231e-17
249 1 10.2923 73.5555 -4.05231e-17
250 2 137.538 16.9958 -4.05231e-17
251 1 152.882 212.007 -4.05231e-17
252 1 198.675 54.5744 -4.05231e-17
253 1 109.741 70.5764 -4.05231e-17
254 2 66.7985 190.337 -4.05231e-17
255 1 13.7194 145.052 -4.05231e-17
256 1 89.1229 166.457 -4.05231e-17
257 1 205.633 126.595 -4.05231e-17
258 2 162.037 30.1723 -4.05231e-17
259 1 63.419 119.937 -4.05231e-17
260 1 105.428 41.7363 -4.05231e-17
261 1 198.649 201.408 -4.05231e-17
262 1 36.5516 64.4703 -4.05231e-17
263 1 0.677704 23.8389 -4.05231e-17
264 1 172.944 31.474 -4.05231e-17
265 1 149.232 218.157 -4.05231e-17
266 1 134.92 1.43966 -4.05231e-17
267 1 19.7371 65.692 -4.05231e-17
268 1 25.4115 52.4765 -4.05231e-17
269 1 139.024 87.9681 -4.05231e-17
270 1 116.688 111.824 -4.05231e-17
271 1 18.7293 117.752 -4.05231e-17
272 1 171.925 198.191 -4.05231e-17
273 1 38.2291 212.335 -4.05231e-17
274 2 123.754 83.5063 -4.05231e-17
275 1 55.643 16.7899 -4.05231e-17
276 2 49.0858 47.0597 -4.05231e-17
277 2 156.127 85.0206 -4.05231e-17
278 1 69.5495 90.5092 -4.05231e-17
279 2 107.482 12.3031 -4.05231e-17
280 1 39.7887 22.2142 -4.05231e-17
281 1 130.401 12.8654 -4.05231e-17
282 1 156.784 22.37 -4.05231e-17
283 1 118.381 142.481 -4.05231e-17
284 1 113.601 215.992 -4.05231e-17
285 1 32.2666 19.9336 -4.05231e-17
286 2 35.5009 211.173 -4.05231e-17
287 1 55.4869 132.084 -4.05231e-17
288 1 29.658 55.245 -4.05231e-17
289 1 70.1601 50.3407 -4.05231e-17
290 1 165.091 191.449 -4.05231e-17
291 1 167.442 120.945 -4.05231e-17
292 2 45.0487 192.629 -4.05231e-17
293 2 90.0525 193.721 -4.05231e-17
294 1 119.004 64.5903 -4.05231e-17
295 1 108.896 32.755 -4.05231e-17
296 1 141.496 44.1364 -4.05231e-17
297 1 131.962 144.403 -4.05231e-17
298 1 151.608 204.165 -4.05231e-17
299 1 159.174 106.68 -4.05231e-17
300 2 57.79 97.6776 -4.05231e-17
301 1 77.5791 56.5577 -4.05231e-17
302 1 152.983 176.568 -4.05231e-17
303 2 199.083 48.1838 -4.05231e-17
304 2 171.301 153.181 -4.05231e-17
305 1 88.1841 114.413 -4.05231e-17
306 1 29.7988 57.7327 -4.05231e-17
307 1 51.7792 119.112 -4.05231e-17
308 1 163.583 53.4662 -4.05231e-17
309 2 72.951 174.55 -4.05231e-17
310 1 209.017 4.12993 -4.05231e-17
311 1 77.7468 38.7578 -4.05231e-17
312 1 194.224 128.441 -4.05231e-17
313 2 150.169 57.7003 -4.05231e-17
314 1 60.8747 115.766 -4.05231e-17
315 1 116.05 151.508 -4.05231e-17
316 1 63.2847 0.819372 -4.05231e-17
317 1 22.8489 106.591 -4.05231e-17
318 1 125.065 1.13268 -4.05231e-17
319 1 52.986 33.3392 -4.05231e-17
320 1 115.147 79.1433 -4.05231e-17
321 1 87.7597 203.25 -4.05231e-17
322 1 143.421 147.165 -4.05231e-17
323 1 181.814 132.038 -4.05231e-17
324 1 80.0456 32.3928 -4.05231e-17
325 1 143.5 141.995 -4.05231e-17
326 1 89.9629 152.787 -4.05231e-17
327 2 173.392 175.237 -4.05231e-17
328 1 173.404 34.2899 -4.05231e-17
329 2 14.6435 116.512 -4.05231e-17
330 1 211.099 127.189 -4.05231e-17
331 1 162.498 190.48 -4.05231e-17
332 2 110.931 126.156 -4.05231e-17
333 1 40.8627 13.5825 -4.05231e-17
334 1 144.848 186.041 -4.05231e-17
335 1 215.371 195.869 -4.05231e-17
336 1 213.326 102.031 -4.05231e-17
337 1 109.716 179.348 -4.05231e-17
338 1 164.15 56.0654 -4.05231e-17
339 1 111.602 43.0453 -4.05231e-17
340 1 171.099 145.964 -4.05231e-17
341 1 169.501 147.898 -4.05231e-17
342 1 123.848 168.426 -4.05231e-17
343 1 117.474 26.7606 -4.05231e-17
344 1 65.6404 185.446 -4.05231e-17
345 1 47.2245 176.669 -4.05231e-17
346 1 7.93396 132.054 -4.05231e-17
347 1 79.6144 110.267 -4.05231e-17
348 1 162.468 171.902 -4.05231e-17
349 1 194.247 65.0731 -4.05231e-17
350 2 100.753 58.5314 -4.05231e-17
351 1 144.699 71.7538 -4.05231e-17
352 1 14.6902 171.366 -4.05231e-17
353 1 48.5292 207.99 -4.05231e-17
354 1 150.6 171.786 -4.05231e-17
355 1 58.6611 159.519 -4.05231e-17
356 1 30.191 217.807 -4.05231e-17
357 1 49.6455 157.638 -4.05231e-17
358 1 181.855 201.808 -4.05231e-17
359 1 176.834 131.458 -4.05231e-17
360 1 66.3092 43.0511 -4.05231e-17
361 1 82.6697 195.364 -4.05231e-17
362 1 189.078 1.08906 -4.05231e-17
363 1 169.95 192.98 -4.05231e-17
364 2 112.365 113.136 -4.05231e-17
365 1 177.324 102.83 -4.05231e-17
366 1 123.595 160.048 -4.05231e-17
367 1 195.695 25.4129 -4.05231e-17
368 1 200.492 185.962 -4.05231e-17
369 2 114.719 180.433 -4.05231e-17
370 1 6.8103 207.781 -4.05231e-17
371 1 49.3963 109.16 -4.05231e-17
372 2 216.172 88.3306 -4.05231e-17
373 2 181.538 0.331637 -4.05231e-17
374 1 168.027 65.2793 -4.05231e-17
375 1 0.790747 99.6472 -4.05231e-17
376 1 3.04241 122.041 -4.05231e-17
377 1 50.0948 29.5385 -4.05231e-17
378 1 105.713 125.384 -4.05231e-17
379 1 22.6009 58.777 -4.05231e-17
380 1 165.056 142.331 -4.05231e-17
381 1 15.1847 206.02 -4.05231e-17
382 1 57.7749 20.901 -4.05231e-17
383 1 172.012 61.5438 -4.05231e-17
384 1 28.5052 15.954 -4.05231e-17
385 1 186.735 78.2303 -4.05231e-17
386 2 83.5836 46.4741 -4.05231e-17
387 1 121.251 209.991 -4.05231e-17
388 1 79.7844 86.2936 -4.05231e-17
389 1 215.558 168.577 -4.05231e-17
390 2 208.806 172.138 -4.05231e-17
391 2 37.9973 24.4695 -4.05231e-17
392 1 49.9622 6.04865 -4.05231e-17
393 1 210.571 8.01117 -4.05231e-17
394 1 91.9171 126.372 -4.05231e-17
395 1 11.2897 14.1327 -4.05231e-17
396 1 209.665 140.405 -4.05231e-17
397 1 120.56 48.4939 -4.05231e-17
398 1 24.7585 187.662 -4.05231e-17
399 1 15.1267 65.1196 -4.05231e-17
400 1 125.358 210.841 -4.05231e-17
401 1 85.3164 202.992 -4.05231e-17
402 2 192.483 173.436 -4.05231e-17
403 1 217.928 40.3924 -4.05231e-17
404 1 21.5266 83.1856 -4.05231e-17
405 1 18.5153 2.15022 -4.05231e-17
406 1 201.012 58.338 -4.05231e-17
407 2 7.0971 38.082 -4.05231e-17
408 1 46.1831 20.6931 -4.05231e-17
409 1 165.256 122.986 -4.05231e-17
410 1 14.7026 156.432 -4.05231e-17
411 1 178.064 165.036 -4.05231e-17
412 1 115.571 34.491 -4.05231e-17
413 1 12.1553 170.751 -4.05231e-17
414 1 15.9409 7.50767 -4.05231e-17
415 1 186.501 144.687 -4.05231e-17
416 1 62.6127 212.71 -4.05231e-17
417 1 163.767 79.2073 -4.05231e-17
418 2 193.098 210.499 -4.05231e-17
419 1 113.289 150.71 -4.05231e-17
420 2 125.245 107.162 -4.05231e-17
421 1 54.475 118.586 -4.05231e-17
422 1 139.135 6.96376 -4.05231e-17
423 2 172.647 28.3585 -4.05231e-17
424 1 139.568 155.327 -4.05231e-17
425 1 131.151 175.776 -4.05231e-17
426 1 153.994 110.258 -4.05231e-17
427 1 80.7254 101.836 -4.05231e-17
428 1 39.9287 206.953 -4.05231e-17
429 1 202.017 80.4325 -4.05231e-17
430 1 211.937 41.7889 -4.05231e-17
431 1 112.518 202.646 -4.05231e-17
432 1 160.586 49.8624 -4.05231e-17
433 1 109.571 155.13 -4.05231e-17
434 1 69.9556 34.6426 -4.05231e-17
435 1 182.936 141.243 -4.05231e-17
436 1 25.2975 49.8376 -4.05231e-17
437 1 188.306 116.986 -4.05231e-17
438 2 103.106 15.3962 -4.05231e-17
439 1 86.4633 198.171 -4.05231e-17
440 1 207.355 147.399 -4.05231e-17
441 1 188.236 124.591 -4.05231e-17
442 1 50.5716 16.8073 -4.05231e-17
443 1 166.163 95.397 -4.05231e-17
444 1 218.535 94.6973 -4.05231e-17
445 1 125.904 42.1986 -4.05231e-17
446 1 156.384 95.6735 -4.05231e-17
447 1 32.6851 108.967 -4.05231e-17
448 1 75.5177 12.1164 -4.05231e-17
449 1 149.222 140.513 -4.05231e-17
450 1 140.717 201.576 -4.05231e-17
451 1 171.699 40.7911 -4.05231e-17
452 1 151.716 143.539 -4.05231e-17
453 1 179.117 188.078 -4.05231e-17
454 1 161.265 205.152 -4.05231e-17
455 1 108.426 61.6281 -4.05231e-17
456 1 165.537 17.33 -4.05231e-17
457 1 85.2768 96.6091 -4.05231e-17
458 1 178.959 213.154 -4.05231e-17
459 1 73.3923 78.555 -4.05231e-17
460 1 15.9779 113.707 -4.05231e-17
461 1 189.813 172.934 -4.05231e-17
462 1 169.837 114.664 -4.05231e-17
463 1 121.799 43.0717 -4.05231e-17
464 1 110.691 208.276 -4.05231e-17
465 1 147.01 168.29 -4.05231e-17
466 1 15.5246 213.716 -4.05231e-17
467 1 75.5869 83.7391 -4.05231e-17
468 1 165.539 213.319 -4.05231e-17
469 1 65.5522 114.289 -4.05231e-17
470 1 76.0928 42.6421 -4.05231e-17
471 1 126.629 186.091 -4.05231e-17
472 1 53.2955 89.8365 -4.05231e-17
473 1 69.3277 103.983 -4.05231e-17
474 1 95.0752 100.784 -4.05231e-17
475 1 182.127 163.556 -4.05231e-17
476 2 184.939 12.7151 -4.05231e-17
477 1 41.7211 62.8505 -4.05231e-17
478 1 21.4478 108.809 -4.05231e-17
479 1 203.787 79.0007 -4.05231e-17
480 1 84.0653 28.8463 -4.05231e-17
481 1 14.3475 91.0958 -4.05231e-17
482 1 104.199 161.202 -4.05231e-17
483 1 139.584 160.504 -4.05231e-17
484 2 92.4561 45.6848 -4.05231e-17
485 1 48.7701 155.313 -4.05231e-17
486 1 80.4204 22.4379 -4.05231e-17
487 1 103.78 197.356 -4.05231e-17
488 1 78.7712 88.7 -4.05231e-17
489 1 205.757 118.209 -4.05231e-17
490 1 206.31 77.4544 -4.05231e-17
491 1 204.008 101.303 -4.05231e-17
492 1 190.045 139.15 -4.05231e-17
493 1 170.311 5.72292 -4.05231e-17
494 1 199.859 22.9196 -4.05231e-17
495 1 172.545 70.9476 -4.05231e-17
496 2 50.2113 194.528 -4.05231e-17
497 1 36.4377 1.60865 -4.05231e-17
498 1 108.961 133.724 -4.05231e-17
499 2 122.177 197.682 -4.05231e-17
500 1 43.6111 24.5992 -4.05231e-17
501 2 143.549 201.074 -4.05231e-17
502 2 131.803 147.513 -4.05231e-17
503 1 165.982 176.7 -4.05231e-17
504 1 117.757 149.422 -4.05231e-17
505 1 139.088 54.2193 -4.05231e-17
506 1 215.802 125.455 -4.05231e-17
507 1 13.462 142.637 -4.05231e-17
508 1 173.167 11.7038 -4.05231e-17
509 2 47.0781 89.3915 -4.05231e-17
510 2 144.665 119.317 -4.05231e-17
511 1 205.503 29.904 -4.05231e-17
512 2 212.079 50.0711 -4.05231e-17
513 1 25.444 136.572 -4.05231e-17
514 1 41.1596 37.1978 -4.05231e-17
515 1 196.027 28.3321 -4.05231e-17
516 1 197.303 0.152741 -4.05231e-17
517 1 101.255 87.6964 -4.05231e-17
518 2 113.858 41.2884 -4.05231e-17
519 1 9.31441 35.5324 -4.05231e-17
520 2 210.031 19.85 -4.05231e-17
521 1 96.2801 110.346 -4.05231e-17
522 1 6.2466 48.4187 -4.05231e-17
523 1 21.9618 72.5768 -4.05231e-17
524 1 104.824 75.9265 -4.05231e-17
525 1 191.448 157.44 -4.05231e-17
526 1 196.393 48.9637 -4.05231e-17
527 1 75.2079 9.68456 -4.05231e-17
528 1 161.979 21.152 -4.05231e-17
529 1 69.5789 151.903 -4.05231e-17
530 1 83.5492 52.4022 -4.05231e-17
531 1 40.0779 198.142 -4.05231e-17
532 1 209.844 180.552 -4.05231e-17
533 1 141.172 146.513 -4.05231e-17
534 1 98.5705 150.003 -4.05231e-17
535 1 215.966 118.847 -4.05231e-17
536 1 168.862 127.596 -4.05231e-17
537 1 203.38 158.969 -4.05231e-17
538 1 170.776 79.526 -4.05231e-17
539 1 86.882 6.87506 -4.05231e-17
540 1 108.23 66.2884 -4.05231e-17
541 1 40.1388 42.5759 -4.05231e-17
542 1 59.911 217.168 -4.05231e-17
543 1 142.011 173.879 -4.05231e-17
544 1 149.405 192.464 -4.05231e-17
545 1 42.3572 127.977 -4.05231e-17
546 1 177.823 33.3577 -4.05231e-17
547 1 32.0588 184.213 -4.05231e-17
548 1 59.753 198.259 -4.05231e-17
549 1 70.5916 69.3665 -4.05231e-17
550 2 154.859 148.536 -4.05231e-17
551 2 149.327 148.478 -4.05231e-17
552 2 105.382 177.36 -4.05231e-17
553 1 120.176 18.6944 -4.05231e-17
554 1 72.6865 116.531 -4.05231e-17
555 2 35.8641 131.108 -4.05231e-17
556 1 138.264 12.7656 -4.05231e-17
557 1 75.7056 17.3557 -4.05231e-17
558 1 135.957 124.313 -4.05231e-17
559 1 188.473 40.279 -4.05231e-17
560 1 168.127 80.4548 -4.05231e-17
561 1 154.49 174.376 -4.05231e-17
562 1 167.083 140.593 -4.05231e-17
563 2 175.679 144.158 -4.05231e-17
564 1 23.7293 81.695 -4.05231e-17
565 1 61.4094 3.11871 -4.05231e-17
566 1 73.5487 38.954 -4.05231e-17
567 1 147.234 108.054 -4.05231e-17
568 1 78.2368 190.451 -4.05231e-17
569 1 118.963 209.694 -4.05231e-17
570 1 123.302 135.43 -4.05231e-17
571 1 198.617 217.1 -4.05231e-17
572 1 70.6498 74.3277 -4.05231e-17
573 1 183.939 74.0745 -4.05231e-17
574 1 201.429 137.563 -4.05231e-17
575 1 217.581 123.696 -4.05231e-17
576 1 183.068 97.5433 -4.05231e-17
577 1 203.457 31.2736 -4.05231e-17
578 1 106.264 208.646 -4.05231e-17
579 1 25.445 176.523 -4.05231e-17
580 1 114.462 136.879 -4.05231e-17
581 1 158.312 165.297 -4.05231e-17
582 1 70.6969 65.2014 -4.05231e-17
583 1 194.247 205.063 -4.05231e-17
584 2 27.2842 104.066 -4.05231e-17
585 1 36.8859 184.272 -4.05231e-17
586 1 124.42 170.921 -4.05231e-17
587 1 41.2071 125.703 -4.05231e-17
588 1 17.2402 198.223 -4.05231e-17
589 1 128.364 207.834 -4.05231e-17
590 1 76.2066 216.033 -4.05231e-17
591 1 18.2606 159.946 -4.05231e-17
592 1 8.01036 168.739 -4.05231e-17
593 1 211.151 174.084 -4.05231e-17
594 1 183.62 180.032 -4.05231e-17
595 1 78.8106 49.4319 -4.05231e-17
596 1 54.3756 11.0439 -4.05231e-17
597 2 180.646 13.0185 -4.05231e-17
598 1 171.158 207.887 -4.05231e-17
599 1 208.444 163.756 -4.05231e-17
600 1 120.1 26.655 -4.05231e-17
601 1 28.7878 111.067 -4.05231e-17
602 1 92.35 24.9652 -4.05231e-17
603 1 193.661 190.35 -4.05231e-17
604 1 83.8147 198.132 -4.05231e-17
605 2 81.4584 79.7561 -4.05231e-17
606 1 88.8269 176.324 -4.05231e-17
607 2 132.823 180.699 -4.05231e-17
608 1 96.4203 80.1475 -4.05231e-17
609 1 26.4168 215.487 -4.05231e-17
610 1 191.132 134.604 -4.05231e-17
611 1 205.217 183.604 -4.05231e-17
612 1 21.5156 47.9875 -4.05231e-17
613 1 33.7715 119.967 -4.05231e-17
614 2 140.246 213.311 -4.05231e-17
615 1 122.659 0.666642 -4.05231e-17
616 1 206.757 129.024 -4.05231e-17
617 1 109.5 174.545 -4.05231e-17
618 1 198.395 211.057 -4.05231e-17
619 1 199.099 77.7744 -4.05231e-17
620 1 163.851 127.847 -4.05231e-17
621 1 206.709 85.3133 -4.05231e-17
622 1 106.545 203.535 -4.05231e-17
623 1 3.53798 11.7452 -4.05231e-17
624 1 22.234 206.331 -4.05231e-17
625 1 191.202 146.849 -4.05231e-17
626 1 114.311 195.932 -4.05231e-17
627 1 33.9525 133.237 -4.05231e-17
628 1 43.631 46.5238 -4.05231e-17
629 1 51.5939 98.0324 -4.05231e-17
630 2 147.706 21.9874 -4.05231e-17
631 1 46.5298 52.7633 -4.05231e-17
632 1 41.912 68.4396 -4.05231e-17
633 1 31.4199 1.39114 -4.05231e-17
634 1 192.899 113.018 -4.05231e-17
635 1 140.995 142.902 -4.05231e-17
636 1 212.388 59.7795 -4.05231e-17
637 1 214.392 54.6309 -4.05231e-17
638 1 193.057 70.9314 -4.05231e-17
639 2 203.649 70.4047 -4.05231e-17
640 1 142.418 121.556 -4.05231e-17
641 1 177.463 70.4246 -4.05231e-17
642 1 17.557 97.3626 -4.05231e-17
643 2 182.829 35.9499 -4.05231e-17
644 1 79.7135 159.145 -4.05231e-17
645 1 75.4688 195.818 -4.05231e-17
646 2 214.574 134.728 -4.05231e-17
647 1 74.5379 193.609 -4.05231e-17
648 1 124.498 110.327 -4.05231e-17
649 2 200.348 142.545 -4.05231e-17
650 1 207.278 179.236 -4.05231e-17
651 1 11.0961 144.434 -4.05231e-17
652 1 159.504 34.6885 -4.05231e-17
653 1 128.885 164.879 -4.05231e-17
654 1 215.716 8.94153 -4.05231e-17
655 2 175.021 110.975 -4.05231e-17
656 1 49.7046 114.087 -4.05231e-17
657 2 90.6923 207.085 -4.05231e-17
658 1 44.5823 48.7258 -4.05231e-17
659 2 178.54 197.962 -4.05231e-17
660 1 102.848 51.5294 -4.05231e-17
661 1 35.0722 113.669 -4.05231e-17
662 1 68.9106 139.171 -4.05231e-17
663 1 49.8964 24.1592 -4.05231e-17
664 1 155.652 3.20806 -4.05231e-17
665 1 141.162 86.876 -4.05231e-17
666 2 38.4908 209.644 -4.05231e-17
667 1 115.282 76.1687 -4.05231e-17
668 2 103.38 80.4836 -4.05231e-17
669 1 65.503 64.6609 -4.05231e-17
670 1 67.3815 203.02 -4.05231e-17
671 2 55.1359 163.42 -4.05231e-17
672 1 174.864 4.7885 -4.05231e-17
673 1 62.2355 23.4404 -4.05231e-17
674 1 200.641 209.709 -4.05231e-17
675 1 112.138 26.0778 -4.05231e-17
676 1 145.726 132.686 -4.05231e-17
677 1 131.305 165.483 -4.05231e-17
678 1 123.119 22.0573 -4.05231e-17
679 2 162.807 9.74383 -4.05231e-17
680 1 0.240241 26.6728 -4.05231e-17
681 2 154.334 100.64 -4.05231e-17
682 1 4.88158 31.9629 -4.05231e-17
683 1 67.502 6.06208 -4.05231e-17
684 1 124.464 155.335 -4.05231e-17
685 1 153.264 12.8102 -4.05231e-17
686 1 40.9997 165.888 -4.05231e-17
687 1 144.538 180.769 -4.05231e-17
688 1 141.495 111.813 -4.05231e-17
689 2 58.7187 39.7292 -4.05231e-17
690 1 69.3161 24.3819 -4.05231e-17
691 1 93.237 60.0376 -4.05231e-17
692 1 143.024 187.571 -4.05231e-17
693 1 68.8948 201.019 -4.05231e-17
694 1 33.9404 149.665 -4.05231e-17
695 1 159.567 41.2125 -4.05231e-17
696 1 110.957 98.4638 -4.05231e-17
697 1 141.981 176.926 -4.05231e-17
698 1 114.094 86.7771 -4.05231e-17
699 1 181.32 186.776 -4.05231e-17
700 1 23.3973 214.591 -4.05231e-17
701 1 38.2575 40.8029 -4.05231e-17
702 1 94.5218 112.516 -4.05231e-17
703 2 175.38 148.667 -4.05231e-17
704 1 44.0165 212.637 -4.05231e-17
705 2 30.5259 89.3352 -4.05231e-17
706 1 133.598 166.329 -4.05231e-17
707 1 131.323 58.2921 -4.05231e-17
708 1 45.3171 159.314 -4.05231e-17
709 1 152.665 199.525 -4.05231e-17
710 1 196.067 186.518 -4.05231e-17
711 1 138.099 74.9589 -4.05231e-17
712 1 181.536 211.697 -4.05231e-17
713 1 16.0732 99.2837 -4.05231e-17
714 1 153.514 5.65765 -4.05231e-17
715 1 53.9179 204.035 -4.05231e-17
716 1 65.6771 155.59 -4.05231e-17
717 1 9.20696 84.4835 -4.05231e-17
718 1 150.933 188.336 -4.05231e-17
719 2 112.14 72.3225 -4.05231e-17
720 1 98.5722 65.206 -4.05231e-17
721 1 88.3353 108.983 -4.05231e-17
722 1 136.85 89.4908 -4.05231e-17
723 2 51.3308 54.4646 -4.05231e-17
724 1 12.3486 44.4146 -4.05231e-17
725 1 71.7939 71.7983 -4.05231e-17
726 1 190.322 38.9746 -4.05231e-17
727 1 156.749 195.52 -4.05231e-17
728 2 50.313 106.005 -4.05231e-17
729 1 129.984 212.058 -4.05231e-17
730 1 199.959 207.083 -4.05231e-17
731 1 63.8606 200.285 -4.05231e-17
732 1 33.2561 22.2152 -4.05231e-17
733 1 201.592 33.405 -4.05231e-17
734 1 207.639 0.0157683 -4.05231e-17
735 1 26.485 39.8429 -4.05231e-17
736 2 193.999 68.092 -4.05231e-17
737 1 78.4551 79.1761 -4.05231e-17
738 1 21.6669 188.555 -4.05231e-17
739 1 110.722 157.399 -4.05231e-17
740 1 29.7787 146.899 -4.05231e-17
741 2 188.833 64.7998 -4.05231e-17
742 1 54.5454 45.4122 -4.05231e-17
743 1 207.837 56.2654 -4.05231e-17
744 2 213.439 166.581 -4.05231e-17
745 1 140.675 24.7524 -4.05231e-17
746 1 17.8655 61.5603 -4.05231e-17
747 2 200.631 17.4553 -4.05231e-17
748 1 203.013 210.729 -4.05231e-17
749 1 208.731 203.762 -4.05231e-17
750 1 3.82718 166.607 -4.05231e-17
751 1 67.9581 60.2321 -4.05231e-17
752 1 162.702 141.622 -4.05231e-17
753 1 103.928 151.704 -4.05231e-17
754 1 0.0831794 211.236 -4.05231e-17
755 1 65.5009 177.951 -4.05231e-17
756 2 110.6 187.043 -4.05231e-17
757 1 14.8944 43.9164 -4.05231e-17
758 1 151.685 150.043 -4.05231e-17
759 1 90.8616 109.24 -4.05231e-17
760 1 110.971 62.2848 -4.05231e-17
761 1 84.8647 177.582 -4.05231e-17
762 1 43.1584 35.9425 -4.05231e-17
763 1 128.039 100.264 -4.05231e-17
764 2 147.186 158.816 -4.05231e-17
765 1 88.1193 48.4358 -4.05231e-17
766 1 101.142 34.3416 -4.05231e-17
767 1 96.586 85.3756 -4.05231e-17
768 1 218.417 202.863 -4.05231e-17
769 1 99.6165 91.741 -4.05231e-17
770 2 101.743 135.817 -4.05231e-17
771 1 148.472 200.82 -4.05231e-17
772 1 108.961 38.3004 -4.05231e-17
773 1 114.341 167.913 -4.05231e-17
774 1 106.783 118.646 -4.05231e-17
775 1 68.5101 11.6624 -4.05231e-17
776 1 36.6871 15.5443 -4.05231e-17
777 1 110.78 192.108 -4.05231e-17
778 1 0.13347 0.191196 -4.05231e-17
779 1 192.501 37.2418 -4.05231e-17
780 1 210.275 159.464 -4.05231e-17
781 1 126.71 114.879 -4.05231e-17
782 1 176.766 43.0137 -4.05231e-17
783 1 95.5124 22.6483 -4.05231e-17
784 2 176.102 134.392 -4.05231e-17
785 1 116.116 166.1 -4.05231e-17
786 1 149.797 168.562 -4.05231e-17
787 1 186.09 63.564 -4.05231e-17
788 1 178.387 38.6973 -4.05231e-17
789 2 163.074 104.839 -4.05231e-17
790 1 95.2155 18.0184 -4.05231e-17
791 2 17.1929 132.008 -4.05231e-17
792 2 213.256 15.8179 -4.05231e-17
793 2 125.47 77.2489 -4.05231e-17
794 1 83.577 205.134 -4.05231e-17
795 1 147.68 56.4559 -4.05231e-17
796 1 91.7419 11.8826 -4.05231e-17
797 1 186.681 147.304 -4.05231e-17
798 2 192.136 206.848 -4.05231e-17
799 2 209.943 57.8595 -4.05231e-17
800 2 55.0906 214.584 -4.05231e-17
801 1 108.177 125.483 -4.05231e-17
802 1 110.343 80.0604 -4.05231e-17
803 1 190.605 62.1996 -4.05231e-17
804 2 107.419 3.45872 -4.05231e-17
805 1 26.8831 125.43 -4.05231e-17
806 1 1.15602 111.757 -4.05231e-17
807 2 106.26 63.7343 -4.05231e-17
808 1 71.3695 86.0643 -4.05231e-17
809 2 11.0134 120.326 -4.05231e-17
810 1 90.5571 196.581 -4.05231e-17
811 1 27.677 217.512 -4.05231e-17
812 1 142.099 37.5617 -4.05231e-17
813 2 113.226 96.6206 -4.05231e-17
814 1 124.627 54.9802 -4.05231e-17
815 1 93.6636 165.286 -4.05231e-17
816 1 205.366 22.451 -4.05231e-17
817 1 134.302 198.47 -4.05231e-17
818 1 40.8876 136.095 -4.05231e-17
819 1 10.615 136.321 -4.05231e-17
820 1 9.34071 110.609 -4.05231e-17
821 1 99.2403 152.856 -4.05231e-17
822 2 3.05492 117.19 -4.05231e-17
823 2 118.927 86.6957 -4.05231e-17
824 1 46.5627 71.0439 -4.05231e-17
825 1 64.4787 19.516 -4.05231e-17
826 1 217.894 196.572 -4.05231e-17
827 1 196.329 136.189 -4.05231e-17
828 1 143.386 132.741 -4.05231e-17
829 1 121.733 5.21274 -4.05231e-17
830 1 79.4105 126.906 -4.05231e-17
831 1 204.212 33.8024 -4.05231e-17
832 1 87.2944 106.198 -4.05231e-17
833 1 78.0043 71.8939 -4.05231e-17
834 1 99.565 210.205 -4.05231e-17
835 1 64.9121 5.60196 -4.05231e-17
836 1 10.3193 68.3379 -4.05231e-17
837 1 5.63087 68.4356 -4.05231e-17
838 1 118.41 213.905 -4.05231e-17
839 2 215.66 19.0988 -4.05231e-17
840 1 183.743 25.7794 -4.05231e-17
841 2 61.5265 149.711 -4.05231e-17
842 1 88.7881 104.354 -4.05231e-17
843 2 175.014 170.628 -4.05231e-17
844 1 42.0486 174.096 -4.05231e-17
845 1 118.813 193.476 -4.05231e-17
846 1 127.756 181.314 -4.05231e-17
847 1 70.3823 157.054 -4.05231e-17
848 1 131.243 51.3113 -4.05231e-17
849 1 179.564 162.97 -4.05231e-17
850 1 55.8338 126.296 -4.05231e-17
851 1 79.2528 69.5821 -4.05231e-17
852 1 196.087 216.764 -4.05231e-17
853 1 66.1542 136.673 -4.05231e-17
854 1 180.847 96.2353 -4.05231e-17
855 1 121.968 7.77654 -4.05231e-17
856 1 45.4601 151.888 -4.05231e-17