ITEM: TIMESTEP
0
ITEM: NUMBER OF ATOMS
7200
ITEM: BOX BOUNDS xy xz yz pp pp pp
0.0000000000000000e+00 2.1900000000000000e+02 0.0000000000000000e+00
0.0000000000000000e+00 2.1900000000000000e+02 0.0000000000000000e+00
-3.6499999999999999e-01 3.6499999999999999e-01 0.0000000000000000e+00
ITEM: ATOMS id type x y z
1 1 69.2834 134.386 -4.05231e-17
2 1 187.677 110.386 -4.05231e-17
3 1 13.8136 161.512 -4.05231e-17
4 1 15.4952 79.6051 -4.05231e-17
5 1 216.035 156.92 -4.05231e-17
6 1 116.71 210.468 -4.05231e-17
7 1 46.1502 50.3196 -4.05231e-17
8 2 148.947 84.3823 -4.05231e-17
9 1 202.749 9.43185 -4.05231e-17
10 2 57.75 192.824 -4.05231e-17
11 1 111.146 5.20794 -4.05231e-17
12 1 125.747 80.8393 -4.05231e-17
13 2 50.0959 78.2277 -4.05231e-17
14 1 65.2954 17.7208 -4.05231e-17
15 1 129.888 98.0611 -4.05231e-17
16 2 61.4162 172.429 -4.05231e-17
17 1 116.18 34.4619 -4.05231e-17
18 2 30.4261 78.5159 -4.05231e-17
19 1 105.076 57.8238 -4.05231e-17
20 1 154.251 92.784 -4.05231e-17
21 1 42.0679 5.57912 -4.05231e-17
22 2 51.4535 150.202 -4.05231e-17
23 2 13.2589 57.8972 -4.05231e-17
24 1 156.52 102.243 -4.05231e-17
25 1 75.6236 182.905 -4.05231e-17
26 2 86.6193 96.4515 -4.05231e-17
27 1 155.82 174.553 -4.05231e-17
28 2 25.5484 157.944 -4.05231e-17
29 1 60.2896 48.3013 -4.05231e-17
30 1 135.223 92.6834 -4.05231e-17
31 1 211.933 90.2618 -4.05231e-17
32 1 61.8003 109.264 -4.05231e-17
33 1 157.169 154.316 -4.05231e-17
34 1 60.1784 77.2024 -4.05231e-17
35 1 177.349 68.789 -4.05231e-17
36 1 60.9535 74.9722 -4.05231e-17
37 2 138.531 143.341 -4.05231e-17
38 1 197.692 74.3687 -4.05231e-17
39 1 122.948 138.524 -4.05231e-17
40 1 165.71 167.38 -4.05231e-17
41 1 120.793 182.556 -4.05231e-17
42 1 98.5467 37.0513 -4.05231e-17
43 1 135.456 60.8868 -4.05231e-17
44 1 103.799 23.8216 -4.05231e-17
45 1 214.523 84.112 -4.05231e-17
46 1 28.287 203.377 -4.05231e-17
47 1 88.7572 172.309 -4.05231e-17
48 2 44.1969 86.5409 -4.05231e-17
49 1 74.562 108.569 -4.05231e-17
50 1 46.3528 197.904 -4.05231e-17
51 1 181.026 34.4262 -4.05231e-17
52 1 204.905 131.864 -4.05231e-17
53 1 156.384 27.6619 -4.05231e-17
54 1 28.0356 119.263 -4.05231e-17
55 1 22.1524 48.8049 -4.05231e-17
56 1 118.191 140.419 -4.05231e-17
57 2 67.7803 214.369 -4.05231e-17
58 1 30.2448 38.6968 -4.05231e-17
59 1 27.6957 150.255 -4.05231e-17
60 2 151.502 146.821 -4.05231e-17
61 2 36.1854 202.732 -4.05231e-17
62 1 15.856 160.005 -4.05231e-17
63 1 111.771 197.866 -4.05231e-17
64 1 133.888 39.3098 -4.05231e-17
65 1 216.519 117.474 -4.05231e-17
66 1 128.053 129.496 -4.05231e-17
67 1 96.4692 140.055 -4.05231e-17
68 1 66.3371 118.255 -4.05231e-17
69 1 141.011 174.019 -4.05231e-17
70 1 59.5846 107.825 -4.05231e-17
71 1 2.71545 121.575 -4.05231e-17
72 1 171.199 60.7495 -4.05231e-17
73 1 187.528 186.046 -4.05231e-17
74 1 207.084 20.8422 -4.05231e-17
75 2 93.5704 1.92369 -4.05231e-17
76 1 18.402 4.6214 -4.05231e-17
77 1 32.9462 30.7991 -4.05231e-17
78 1 125.36 117.499 -4.05231e-17
79 2 124.914 3.03775 -4.05231e-17
80 1 80.5104 106.414 -4.05231e-17
81 1 111.228 140.988 -4.05231e-17
82 1 52.2873 142.649 -4.05231e-17
83 2 129.81 182.21 -4.05231e-17
84 1 179.983 80.8819 -4.05231e-17
85 1 23.1482 46.2871 -4.05231e-17
86 1 128.681 142.403 -4.05231e-17
87 1 13.5946 215.885 -4.05231e-17
88 1 18.7482 35.2188 -4.05231e-17
89 2 44.1149 3.39526 -4.05231e-17
90 2 190.201 187.646 -4.05231e-17
91 1 138.538 99.5599 -4.05231e-17
92 2 168.173 21.5729 -4.05231e-17
93 1 142.181 17.4217 -4.05231e-17
94 2 201.83 11.9761 -4.05231e-17
95 1 36.3481 195.007 -4.05231e-17
96 1 147.728 80.98 -4.05231e-17
97 1 96.8298 5.25123 -4.05231e-17
98 1 126.43 53.8409 -4.05231e-17
99 1 174.034 21.1077 -4.05231e-17
100 1 175.663 8.90081 -4.05231e-17
101 1 115.712 6.82767 -4.05231e-17
102 1 21.8355 44.0649 -4.05231e-17
103 1 57.1968 80.316 -4.05231e-17
104 1 68.7986 117.912 -4.05231e-17
105 1 142.158 201.726 -4.05231e-17
106 1 74.6484 99.7001 -4.05231e-17
107 2 153.806 95.6006 -4.05231e-17
108 1 36.1989 210.747 -4.05231e-17
109 1 51.5438 85.9416 -4.05231e-17
110 1 101.861 61.8293 -4.05231e-17
111 1 60.8977 20.6792 -4.05231e-17
112 1 96.0579 137.286 -4.05231e-17
113 1 104.74 50.6748 -4.05231e-17
114 1 157.946 23.3169 -4.05231e-17
115 1 51.3526 162.729 -4.05231e-17
116 2 213.237 133.44 -4.05231e-17
117 1 198.337 213.493 -4.05231e-17
118 1 164.974 68.2722 -4.05231e-17
119 2 67.1763 106.469 -4.05231e-17
120 1 53.6544 199.942 -4.05231e-17
121 1 158.637 72.9772 -4.05231e-17
122 1 102.653 15.7591 -4.05231e-17
123 1 128.898 95.8493 -4.05231e-17
124 1 154.558 201.498 -4.05231e-17
125 1 136.369 123.614 -4.05231e-17
126 1 105.299 53.0746 -4.05231e-17
127 1 158.776 82.2497 -4.05231e-17
128 1 174.645 137.153 -4.05231e-17
129 1 8.45104 103.405 -4.05231e-17
130 1 82.8584 126.639 -4.05231e-17
131 1 175.297 153.454 -4.05231e-17
132 2 180.543 217.285 -4.05231e-17
133 1 123.792 79.0768 -4.05231e-17
134 1 28.851 85.6862 -4.05231e-17
135 1 78.104 8.2343 -4.05231e-17
136 1 210.152 204.076 -4.05231e-17
137 1 102.942 136.967 -4.05231e-17
138 1 50.8871 212.395 -4.05231e-17
139 1 204.855 110.803 -4.05231e-17
140 2 141.633 186.315 -4.05231e-17
141 1 206.018 93.6102 -4.05231e-17
142 2 211.685 48.7704 -4.05231e-17
143 1 110.357 82.9941 -4.05231e-17
144 2 43.6053 199.406 -4.05231e-17
145 1 178.788 104.675 -4.05231e-17
146 1 100.636 120.331 -4.05231e-17
147 1 154.264 145.358 -4.05231e-17
148 1 1.48826 215.444 -4.05231e-17
149 1 67.7535 21.5389 -4.05231e-17
150 1 53.155 37.8885 -4.05231e-17
151 1 23.2931 115.646 -4.05231e-17
152 1 55.7015 105.519 -4.05231e-17
153 2 52.0417 6.35567 -4.05231e-17
154 1 154.817 106.216 -4.05231e-17
155 1 106.935 12.624 -4.05231e-17
156 2 70.5216 115.531 -4.05231e-17
157 1 208.14 104.692 -4.05231e-17
158 1 31.7497 33.5454 -4.05231e-17
159 1 23.3827 137.602 -4.05231e-17
160 1 13.8814 203.115 -4.05231e-17
161 1 13.69 4.90807 -4.05231e-17
162 1 129.833 134.706 -4.05231e-17
163 1 15.8233 34.9931 -4.05231e-17
164 1 166.848 52.9843 -4.05231e-17
165 1 126.852 119.987 -4.05231e-17
166 2 158.965 61.2346 -4.05231e-17
167 1 175.082 46.8696 -4.05231e-17
168 1 149.173 169.915 -4.05231e-17
169 1 2.34608 101.178 -4.05231e-17
170 1 94.7741 168.627 -4.05231e-17
171 1 149.77 61.2561 -4.05231e-17
172 1 218.964 16.721 -4.05231e-17
173 1 45.3373 138.692 -4.05231e-17
174 1 131.298 62.53 -4.05231e-17
175 2 137.617 161.075 -4.05231e-17
176 1 104.554 68.3728 -4.05231e-17
177 2 71.9905 57.3647 -4.05231e-17
178 1 65.9552 88.3494 -4.05231e-17
179 1 173.345 164.105 -4.05231e-17
180 1 203.433 196.857 -4.05231e-17
181 1 135.024 167.736 -4.05231e-17
182 2 77.0251 20.8838 -4.05231e-17
183 1 76.7648 163.748 -4.05231e-17
184 1 176.721 86.9742 -4.05231e-17
185 2 176.566 19.2543 -4.05231e-17
186 2 210.014 137.824 -4.05231e-17
187 1 92.1249 29.6599 -4.05231e-17
188 1 102.554 170.655 -4.05231e-17
189 1 123.614 174.785 -4.05231e-17
190 2 13.887 164.406 -4.05231e-17
191 1 77.5789 156.602 -4.05231e-17
192 2 64.1497 111.204 -4.05231e-17
193 2 79.4313 172.32 -4.05231e-17
194 1 32.6702 151.182 -4.05231e-17
195 1 145.47 163.943 -4.05231e-17
196 1 168.558 192.034 -4.05231e-17
197 1 74.3575 70.5657 -4.05231e-17
198 2 11.5286 133.593 -4.05231e-17
199 1 211.779 58.717 -4.05231e-17
200 1 80.303 6.75472 -4.05231e-17
201 2 76.6226 110.426 -4.05231e-17
202 1 53.2638 210.882 -4.05231e-17
203 1 175.883 82.034 -4.05231e-17
204 1 188.168 157.095 -4.05231e-17
205 2 191.781 82.5099 -4.05231e-17
206 1 90.1399 133 -4.05231e-17
207 1 103.052 33.615 -4.05231e-17
208 1 27.6245 78.1886 -4.05231e-17
209 1 81.9017 2.77241 -4.05231e-17
210 1 13.3359 65.6229 -4.05231e-17
211 2 146.821 156.704 -4.05231e-17
212 1 121.164 113.021 -4.05231e-17
213 1 141.321 98.7307 -4.05231e-17
214 1 74.0634 14.3081 -4.05231e-17
215 1 74.4706 201.809 -4.05231e-17
216 1 198.917 137.783 -4.05231e-17
217 1 126.49 186.979 -4.05231e-17
218 2 27.961 167.837 -4.05231e-17
219 1 154.858 213.641 -4.05231e-17
220 2 108.396 57.1344 -4.05231e-17
221 1 210.569 56.4972 -4.05231e-17
222 1 144.734 138.573 -4.05231e-17
223 1 52.9008 208.346 -4.05231e-17
224 2 9.92018 188.837 -4.05231e-17
225 1 197.467 142.79 -4.05231e-17
226 1 138.517 190.505 -4.05231e-17
227 2 50.9923 17.3052 -4.05231e-17
228 1 130.325 100.579 -4.05231e-17
229 1 62.0998 133.956 -4.05231e-17
230 1 158.279 130.847 -4.05231e-17
231 1 142.476 120.125 -4.05231e-17
232 1 217.6 80.5818 -4.05231e-17
233 1 107.778 100.362 -4.05231e-17
234 1 129.645 215.496 -4.05231e-17
235 1 20.7972 148.488 -4.05231e-17
236 1 41.5392 76.0301 -4.05231e-17
237 1 202.736 215.119 -4.05231e-17
238 1 149.118 130.39 -4.05231e-17
239 2 17.8015 114.538 -4.05231e-17
240 1 99.1626 6.54906 -4.05231e-17
241 2 186.697 16.5911 -4.05231e-17
242 2 198.587 36.8393 -4.05231e-17
243 2 118.052 23.5671 -4.05231e-17
244 1 97.2931 8.30825 -4.05231e-17
245 1 85.819 56.4092 -4.05231e-17
246 1 127.724 117.573 -4.05231e-17
247 1 211.547 98.2373 -4.05231e-17
248 1 94.3131 4.51977 -4.05231e-17
249 1 21.4233 68.0003 -4.05231e-17
250 2 149.831 30.2091 -4.05231e-17
251 1 152.883 212.125 -4.05231e-17
252 1 195.305 64.053 -4.05231e-17
253 1 93.8927 58.5848 -4.05231e-17
254 2 76.8741 197.568 -4.05231e-17
255 1 212.036 148.295 -4.05231e-17
256 1 84.4281 165.733 -4.05231e-17
257 1 212.139 150.991 -4.05231e-17
258 2 163.726 27.9401 -4.05231e-17
259 1 58.5503 165.499 -4.05231e-17
260 1 127.526 7.8018 -4.05231e-17
261 1 184.235 14.489 -4.05231e-17
262 1 57.7774 53.6834 -4.05231e-17
263 1 18.584 216.318 -4.05231e-17
264 1 172.513 43.029 -4.05231e-17
265 1 170.199 23.859 -4.05231e-17
266 1 154.733 10.0301 -4.05231e-17
267 1 3.07411 62.8289 -4.05231e-17
268 1 21.3883 35.8179 -4.05231e-17
269 1 127.841 103.841 -4.05231e-17
270 1 151.241 97.1397 -4.05231e-17
271 1 3.51872 90.8828 -4.05231e-17
272 1 159.097 202.095 -4.05231e-17
273 1 38.6637 165.845 -4.05231e-17
274 2 113.107 87.6095 -4.05231e-17
275 1 64.0617 4.90261 -4.05231e-17
276 2 51.5955 30.6016 -4.05231e-17
277 2 168.006 122.12 -4.05231e-17
278 1 33.5111 97.9914 -4.05231e-17
279 2 109.673 205.028 -4.05231e-17
280 1 58.8958 32.0444 -4.05231e-17
281 1 146.537 26.8108 -4.05231e-17
282 1 164.053 8.24219 -4.05231e-17
283 1 113.798 141.853 -4.05231e-17
284 1 136.699 165.822 -4.05231e-17
285 1 35.6323 12.3304 -4.05231e-17
286 2 33.9098 215.074 -4.05231e-17
287 1 85.6263 134.205 -4.05231e-17
288 1 14.5817 55.4401 -4.05231e-17
289 1 70.9075 54.3487 -4.05231e-17
290 1 150.743 193.49 -4.05231e-17
291 1 156.755 143.962 -4.05231e-17
292 2 19.6513 180.978 -4.05231e-17
293 2 65.2816 194.999 -4.05231e-17
294 1 118.39 45.0518 -4.05231e-17
295 1 125.741 51.4751 -4.05231e-17
296 1 135.006 41.9801 -4.05231e-17
297 1 119.525 145.664 -4.05231e-17
298 1 104.862 199.061 -4.05231e-17
299 1 168.56 112.696 -4.05231e-17
300 2 60.4765 92.9959 -4.05231e-17
301 1 58.4674 43.9981 -4.05231e-17
302 1 127.018 193.439 -4.05231e-17
303 2 198.768 59.6017 -4.05231e-17
304 2 147.233 123.256 -4.05231e-17
305 1 87.021 99.4641 -4.05231e-17
306 1 50.1076 72.8853 -4.05231e-17
307 1 31.0639 99.179 -4.05231e-17
308 1 161.416 59.4038 -4.05231e-17
309 2 72.8193 184.243 -4.05231e-17
310 1 199.28 210.943 -4.05231e-17
311 1 78.9997 33.8405 -4.05231e-17
312 1 191.925 148.172 -4.05231e-17
313 2 147.592 68.2134 -4.05231e-17
314 1 47.3702 134.645 -4.05231e-17
315 1 111.732 150.774 -4.05231e-17
316 1 72.8496 1.18947 -4.05231e-17
317 1 25.7158 94.3329 -4.05231e-17
318 1 99.6718 215.68 -4.05231e-17
319 1 52.4143 33.3549 -4.05231e-17
320 1 142.247 93.8024 -4.05231e-17
321 1 88.2993 204.141 -4.05231e-17
322 1 139.941 148.063 -4.05231e-17
323 1 192.244 102.916 -4.05231e-17
324 1 80.6397 27.1681 -4.05231e-17
325 1 162.04 139.429 -4.05231e-17
326 1 85.5849 151.856 -4.05231e-17
327 2 149.531 186.024 -4.05231e-17
328 1 167.452 40.549 -4.05231e-17
329 2 51.3635 108.632 -4.05231e-17
330 1 14.9966 113.751 -4.05231e-17
331 1 174.516 176.054 -4.05231e-17
332 2 113.312 104.753 -4.05231e-17
333 1 43.8587 17.9199 -4.05231e-17
334 1 139.759 168.871 -4.05231e-17
335 1 15.9952 204.48 -4.05231e-17
336 1 213.07 105.939 -4.05231e-17
337 1 102.897 182.475 -4.05231e-17
338 1 159.067 58.0966 -4.05231e-17
339 1 108.931 216.847 -4.05231e-17
340 1 151.268 141.871 -4.05231e-17
341 1 159.857 158.614 -4.05231e-17
342 1 129.506 144.951 -4.05231e-17
343 1 128.718 26.8876 -4.05231e-17
344 1 61.3474 179.662 -4.05231e-17
345 1 58.9007 110.071 -4.05231e-17
346 1 5.76641 125.937 -4.05231e-17
347 1 92.9338 92.1479 -4.05231e-17
348 1 163.871 179.602 -4.05231e-17
349 1 193.251 75.426 -4.05231e-17
350 2 89.0799 41.4644 -4.05231e-17
351 1 154.662 65.9275 -4.05231e-17
352 1 59.697 183.21 -4.05231e-17
353 1 41.3001 166.336 -4.05231e-17
354 1 168.099 161.181 -4.05231e-17
355 1 60.4221 156.37 -4.05231e-17
356 1 25.4956 37.9244 -4.05231e-17
357 1 62.9656 155.651 -4.05231e-17
358 1 171.9 180.986 -4.05231e-17
359 1 157.4 159.386 -4.05231e-17
360 1 75.2769 52.7706 -4.05231e-17
361 1 62.9067 167.155 -4.05231e-17
362 1 168.934 201.18 -4.05231e-17
363 1 163.43 190.716 -4.05231e-17
364 2 115.318 92.376 -4.05231e-17
365 1 179.274 90.8843 -4.05231e-17
366 1 117.374 161.283 -4.05231e-17
367 1 173.677 6.8038 -4.05231e-17
368 1 196.777 192.752 -4.05231e-17
369 2 115.277 188.159 -4.05231e-17
370 1 4.29678 215.959 -4.05231e-17
371 1 53.0588 138.029 -4.05231e-17
372 2 0.951539 92.9144 -4.05231e-17
373 2 209.935 7.7478 -4.05231e-17
374 1 141.725 89.0399 -4.05231e-17
375 1 41.9295 115.153 -4.05231e-17
376 1 12.2753 154.996 -4.05231e-17
377 1 28.9311 213.16 -4.05231e-17
378 1 73.0851 127.63 -4.05231e-17
379 1 31.473 51.5434 -4.05231e-17
380 1 176.991 151.911 -4.05231e-17
381 1 15.8005 216.951 -4.05231e-17
382 1 54.4281 66.6139 -4.05231e-17
383 1 169.738 67.5716 -4.05231e-17
384 1 21.8314 14.0875 -4.05231e-17
385 1 191.419 77.0097 -4.05231e-17
386 2 84.7462 41.7934 -4.05231e-17
387 1 146.528 20.5193 -4.05231e-17
388 1 56.151 44.494 -4.05231e-17
389 1 206.915 158.916 -4.05231e-17
390 2 207.318 179.85 -4.05231e-17
391 2 37.7906 39.564 -4.05231e-17
392 1 41.3354 218.117 -4.05231e-17
393 1 0.22159 32.9372 -4.05231e-17
394 1 103.045 101.57 -4.05231e-17
395 1 15.8622 27.4066 -4.05231e-17
396 1 205.428 152.366 -4.05231e-17
397 1 100.488 17.2207 -4.05231e-17
398 1 11.5558 191.369 -4.05231e-17
399 1 22.404 55.5076 -4.05231e-17
400 1 103.091 180.047 -4.05231e-17
401 1 87.5315 176.659 -4.05231e-17
402 2 191.365 179.484 -4.05231e-17
403 1 213.761 53.7166 -4.05231e-17
404 1 37.4661 73.0088 -4.05231e-17
405 1 204.198 28.6666 -4.05231e-17
406 1 201.086 68.3428 -4.05231e-17
407 2 19.6398 62.1813 -4.05231e-17
408 1 34.1699 28.1805 -4.05231e-17
409 1 169.067 126.9 -4.05231e-17
410 1 21.0605 155.645 -4.05231e-17
411 1 152.026 160.695 -4.05231e-17
412 1 114.193 215.02 -4.05231e-17
413 1 64.9968 157.733 -4.05231e-17
414 1 38.0982 13.3968 -4.05231e-17
415 1 207.652 148.593 -4.05231e-17
416 1 72.2714 200.275 -4.05231e-17
417 1 148.363 89.3619 -4.05231e-17
418 2 182.41 4.45471 -4.05231e-17
419 1 109.169 149.982 -4.05231e-17
420 2 149.473 104.397 -4.05231e-17
421 1 88.5542 103.938 -4.05231e-17
422 1 174.174 17.6051 -4.05231e-17
423 2 158.165 40.9314 -4.05231e-17
424 1 156.816 149.206 -4.05231e-17
425 1 129.432 167.468 -4.05231e-17
426 1 132.248 114.818 -4.05231e-17
427 1 46.5524 79.3683 -4.05231e-17
428 1 70.5827 189.898 -4.05231e-17
429 1 194.69 83.1235 -4.05231e-17
430 1 215.176 62.1531 -4.05231e-17
431 1 120.181 206.538 -4.05231e-17
432 1 161.138 54.2918 -4.05231e-17
433 1 105.402 153.911 -4.05231e-17
434 1 70.8193 30.1824 -4.05231e-17
435 1 177.975 162.33 -4.05231e-17
436 1 39.7026 41.9068 -4.05231e-17
437 1 179.686 110.422 -4.05231e-17
438 2 111.918 24.858 -4.05231e-17
439 1 67.3863 208.711 -4.05231e-17
440 1 1.53732 162.161 -4.05231e-17
441 1 191.275 135.338 -4.05231e-17
442 1 52.7396 14.8846 -4.05231e-17
443 1 157.479 110.424 -4.05231e-17
444 1 0.20078 100.321 -4.05231e-17
445 1 140.095 6.61109 -4.05231e-17
446 1 152.341 82.6373 -4.05231e-17
447 1 39.9585 144.176 -4.05231e-17
448 1 75.5895 7.48851 -4.05231e-17
449 1 138.787 123.04 -4.05231e-17
450 1 139.475 188.221 -4.05231e-17
451 1 170.642 47.3444 -4.05231e-17
452 1 131.826 145.646 -4.05231e-17
453 1 179.037 182.531 -4.05231e-17
454 1 159.739 212.08 -4.05231e-17
455 1 100.273 71.1534 -4.05231e-17
456 1 166.547 27.1001 -4.05231e-17
457 1 98.4874 113.162 -4.05231e-17
458 1 197.623 3.03785 -4.05231e-17
459 1 81.2705 69.2883 -4.05231e-17
460 1 40.4892 97.1373 -4.05231e-17
461 1 188.69 178.411 -4.05231e-17
462 1 181.405 120.977 -4.05231e-17
463 1 126.429 34.0659 -4.05231e-17
464 1 154.988 195.448 -4.05231e-17
465 1 121.725 160.027 -4.05231e-17
466 1 23.1855 211.777 -4.05231e-17
467 1 17.8314 80.5129 -4.05231e-17
468 1 160.981 218.543 -4.05231e-17
469 1 67.524 77.562 -4.05231e-17
470 1 77.3055 37.9614 -4.05231e-17
471 1 128.731 174.665 -4.05231e-17
472 1 46.6176 85.1045 -4.05231e-17
473 1 46.0862 103.432 -4.05231e-17
474 1 89.0924 101.139 -4.05231e-17
475 1 185.142 164.09 -4.05231e-17
476 2 191.469 10.1183 -4.05231e-17
477 1 50.7328 88.2802 -4.05231e-17
478 1 56.8949 126.449 -4.05231e-17
479 1 201.545 80.3561 -4.05231e-17
480 1 84.4626 23.6914 -4.05231e-17
481 1 8.77593 96.399 -4.05231e-17
482 1 99.5049 160.068 -4.05231e-17
483 1 142.247 160.557 -4.05231e-17
484 2 86.8866 46.1727 -4.05231e-17
485 1 35.2352 102.26 -4.05231e-17
486 1 81.3601 17.3684 -4.05231e-17
487 1 100.428 197.112 -4.05231e-17
488 1 9.71333 122.803 -4.05231e-17
489 1 1.66975 132.407 -4.05231e-17
490 1 205.453 83.7846 -4.05231e-17
491 1 202.643 123.549 -4.05231e-17
492 1 5.94252 128.536 -4.05231e-17
493 1 188.923 216.625 -4.05231e-17
494 1 210.792 37.8943 -4.05231e-17
495 1 199.535 89.1842 -4.05231e-17
496 2 43.8918 189.135 -4.05231e-17
497 1 38.8822 216.988 -4.05231e-17
498 1 105.337 121.306 -4.05231e-17
499 2 133.16 216.664 -4.05231e-17
500 1 25.5004 29.7378 -4.05231e-17
501 2 111.981 216.766 -4.05231e-17
502 2 124.094 143.804 -4.05231e-17
503 1 144.571 185.167 -4.05231e-17
504 1 113.493 148.891 -4.05231e-17
505 1 116.01 21.3756 -4.05231e-17
506 1 24.9025 122.633 -4.05231e-17
507 1 19.314 130.164 -4.05231e-17
508 1 186.757 13.032 -4.05231e-17
509 2 24.8717 72.6664 -4.05231e-17
510 2 146.441 132.072 -4.05231e-17
511 1 196.092 35.2711 -4.05231e-17
512 2 206.861 60.2606 -4.05231e-17
513 1 51.0989 127.563 -4.05231e-17
514 1 48.5224 15.7136 -4.05231e-17
515 1 203.842 24.5466 -4.05231e-17
516 1 184.574 208.118 -4.05231e-17
517 1 112.943 117.679 -4.05231e-17
518 2 103.074 18.7213 -4.05231e-17
519 1 11.2212 52.4743 -4.05231e-17
520 2 212.56 22.4275 -4.05231e-17
521 1 89.3728 110.927 -4.05231e-17
522 1 29.0608 28.8757 -4.05231e-17
523 1 23.0016 70.1677 -4.05231e-17
524 1 99.9152 73.6275 -4.05231e-17
525 1 177.311 114.351 -4.05231e-17
526 1 190.86 64.5944 -4.05231e-17
527 1 75.3678 4.89055 -4.05231e-17
528 1 168.559 29.0236 -4.05231e-17
529 1 58.5314 155.018 -4.05231e-17
530 1 100.315 35.128 -4.05231e-17
531 1 63.8319 197.532 -4.05231e-17
532 1 206.645 188.154 -4.05231e-17
533 1 136.088 145.019 -4.05231e-17
534 1 97.8615 144.792 -4.05231e-17
535 1 13.0721 105.499 -4.05231e-17
536 1 210.09 122.644 -4.05231e-17
537 1 201.657 166.872 -4.05231e-17
538 1 169.078 81.4106 -4.05231e-17
539 1 89.0566 212.031 -4.05231e-17
540 1 102.748 88.7006 -4.05231e-17
541 1 40.246 54.6117 -4.05231e-17
542 1 67.4377 211.395 -4.05231e-17
543 1 147.186 152.173 -4.05231e-17
544 1 128.64 200.543 -4.05231e-17
545 1 8.82005 147.174 -4.05231e-17
546 1 179.424 41.1809 -4.05231e-17
547 1 82.3317 172.107 -4.05231e-17
548 1 99.6899 9.04535 -4.05231e-17
549 1 51.2086 75.3433 -4.05231e-17
550 2 162.15 124.896 -4.05231e-17
551 2 134.658 158.381 -4.05231e-17
552 2 93.6374 180.495 -4.05231e-17
553 1 123.368 38.5303 -4.05231e-17
554 1 69.8141 101.939 -4.05231e-17
555 2 69.3893 124.165 -4.05231e-17
556 1 144.013 21.2724 -4.05231e-17
557 1 76.2563 12.6406 -4.05231e-17
558 1 139.988 120.634 -4.05231e-17
559 1 187.689 47.5392 -4.05231e-17
560 1 133.414 49.0535 -4.05231e-17
561 1 146.951 168.836 -4.05231e-17
562 1 197.206 146.853 -4.05231e-17
563 2 165.502 112.499 -4.05231e-17
564 1 37.9675 67.3868 -4.05231e-17
565 1 60.0046 10.5132 -4.05231e-17
566 1 74.4395 34.5501 -4.05231e-17
567 1 140.744 118.199 -4.05231e-17
568 1 27.5254 109.456 -4.05231e-17
569 1 114.136 185.368 -4.05231e-17
570 1 127.25 124.803 -4.05231e-17
571 1 175.238 203.962 -4.05231e-17
572 1 61.9699 116.342 -4.05231e-17
573 1 177.559 76.7439 -4.05231e-17
574 1 40.289 124.297 -4.05231e-17
575 1 18.9145 92.0637 -4.05231e-17
576 1 195.254 97.7859 -4.05231e-17
577 1 202.638 32.7518 -4.05231e-17
578 1 122.704 196.753 -4.05231e-17
579 1 11.0036 165.714 -4.05231e-17
580 1 103.676 139.24 -4.05231e-17
581 1 141.24 154.986 -4.05231e-17
582 1 75.8312 79.5472 -4.05231e-17
583 1 162.187 186.073 -4.05231e-17
584 2 26.1103 117.075 -4.05231e-17
585 1 48.6264 198.852 -4.05231e-17
586 1 138.146 170.844 -4.05231e-17
587 1 100.003 105.012 -4.05231e-17
588 1 18.663 213.491 -4.05231e-17
589 1 104.85 14.3057 -4.05231e-17
590 1 70.5602 0.231066 -4.05231e-17
591 1 215.846 161.932 -4.05231e-17
592 1 56.241 154.587 -4.05231e-17
593 1 209.923 181.596 -4.05231e-17
594 1 181.212 181.032 -4.05231e-17
595 1 81.8299 40.4084 -4.05231e-17
596 1 64.9998 35.7429 -4.05231e-17
597 2 182.289 205.996 -4.05231e-17
598 1 166.753 211.527 -4.05231e-17
599 1 208.132 171.309 -4.05231e-17
600 1 104.562 11.4851 -4.05231e-17
601 1 13.6836 135.564 -4.05231e-17
602 1 97.4094 31.7056 -4.05231e-17
603 1 212.843 217.019 -4.05231e-17
604 1 120.14 1.58447 -4.05231e-17
605 2 85.2493 77.6419 -4.05231e-17
606 1 102.596 202.378 -4.05231e-17
607 2 171.473 147.107 -4.05231e-17
608 1 95.0331 76.2755 -4.05231e-17
609 1 16.1969 6.06545 -4.05231e-17
610 1 214.198 149.647 -4.05231e-17
611 1 201.455 190.437 -4.05231e-17
612 1 217.537 37.4269 -4.05231e-17
613 1 58.4766 148.236 -4.05231e-17
614 2 127.792 179.388 -4.05231e-17
615 1 121.657 16.0888 -4.05231e-17
616 1 200.93 125.619 -4.05231e-17
617 1 126.984 198.718 -4.05231e-17
618 1 187.75 214.691 -4.05231e-17
619 1 179.561 78.3274 -4.05231e-17
620 1 139.842 136.522 -4.05231e-17
621 1 200.008 98.6885 -4.05231e-17
622 1 94.6724 213.952 -4.05231e-17
623 1 218.875 11.4506 -4.05231e-17
624 1 24.2963 209.193 -4.05231e-17
625 1 205.017 154.815 -4.05231e-17
626 1 94.1329 191.425 -4.05231e-17
627 1 63.5198 73.82 -4.05231e-17
628 1 30.6136 23.4722 -4.05231e-17
629 1 18.2331 107.346 -4.05231e-17
630 2 150.737 22.7197 -4.05231e-17
631 1 15.9978 84.6897 -4.05231e-17
632 1 48.4235 92.3281 -4.05231e-17
633 1 38.7885 211.878 -4.05231e-17
634 1 1.10443 147.253 -4.05231e-17
635 1 154.703 150.504 -4.05231e-17
636 1 205.545 62.9182 -4.05231e-17
637 1 201.072 57.5607 -4.05231e-17
638 1 173.259 76.9687 -4.05231e-17
639 2 203.753 78.5226 -4.05231e-17
640 1 143.117 153.369 -4.05231e-17
641 1 193.336 85.1455 -4.05231e-17
642 1 25.7771 91.7773 -4.05231e-17
643 2 182.285 42.7706 -4.05231e-17
644 1 69.6283 157.055 -4.05231e-17
645 1 106.548 197.143 -4.05231e-17
646 2 214.571 141.318 -4.05231e-17
647 1 10.7362 185.313 -4.05231e-17
648 1 148.783 98.3701 -4.05231e-17
649 2 24.8067 151.144 -4.05231e-17
650 1 204.311 186.751 -4.05231e-17
651 1 0.52317 112.607 -4.05231e-17
652 1 153.8 44.3307 -4.05231e-17
653 1 114.201 175.44 -4.05231e-17
654 1 23.2433 21.8124 -4.05231e-17
655 2 187.213 103.469 -4.05231e-17
656 1 32.5039 111.409 -4.05231e-17
657 2 79.2754 207.675 -4.05231e-17
658 1 52.8753 51.4377 -4.05231e-17
659 2 156.002 192.831 -4.05231e-17
660 1 113.064 45.9862 -4.05231e-17
661 1 43.2652 121.024 -4.05231e-17
662 1 85.2756 127.255 -4.05231e-17
663 1 36.2731 23.4856 -4.05231e-17
664 1 146.664 14.7459 -4.05231e-17
665 1 130.302 83.0647 -4.05231e-17
666 2 47.8087 180.367 -4.05231e-17
667 1 93.8564 99.2265 -4.05231e-17
668 2 102.836 91.5113 -4.05231e-17
669 1 38.3839 16.5064 -4.05231e-17
670 1 96.2249 173.675 -4.05231e-17
671 2 53.8639 175.453 -4.05231e-17
672 1 184.519 12.1308 -4.05231e-17
673 1 62.9416 19.2942 -4.05231e-17
674 1 1.98728 31.1675 -4.05231e-17
675 1 127.487 24.1311 -4.05231e-17
676 1 175.165 115.85 -4.05231e-17
677 1 131.511 175.162 -4.05231e-17
678 1 137.179 30.6784 -4.05231e-17
679 2 152.153 33.5188 -4.05231e-17
680 1 202.981 41.1183 -4.05231e-17
681 2 129.726 119.71 -4.05231e-17
682 1 218.792 47.5163 -4.05231e-17
683 1 68.4923 4.33767 -4.05231e-17
684 1 120.401 155.106 -4.05231e-17
685 1 152.681 38.9502 -4.05231e-17
686 1 33.7682 195.282 -4.05231e-17
687 1 118.486 192.028 -4.05231e-17
688 1 169.432 104.939 -4.05231e-17
689 2 55.6775 47.1476 -4.05231e-17
690 1 69.751 19.991 -4.05231e-17
691 1 93.311 66.9981 -4.05231e-17
692 1 130.922 8.62637 -4.05231e-17
693 1 50.1778 147.486 -4.05231e-17
694 1 77.2414 126.522 -4.05231e-17
695 1 145.319 38.6783 -4.05231e-17
696 1 138.797 80.1649 -4.05231e-17
697 1 139.602 201.598 -4.05231e-17
698 1 122.149 65.07 -4.05231e-17
699 1 180.105 191.855 -4.05231e-17
700 1 205.825 206.339 -4.05231e-17
701 1 53.0692 19.4026 -4.05231e-17
702 1 114.087 128.928 -4.05231e-17
703 2 187.365 144.62 -4.05231e-17
704 1 29.5825 218.602 -4.05231e-17
705 2 59.8489 114.234 -4.05231e-17
706 1 165.58 177.687 -4.05231e-17
707 1 115.209 23.9123 -4.05231e-17
708 1 84.4066 209.519 -4.05231e-17
709 1 147.29 196.186 -4.05231e-17
710 1 191.886 192.03 -4.05231e-17
711 1 112.756 90.954 -4.05231e-17
712 1 197.992 208.692 -4.05231e-17
713 1 15.3947 137.484 -4.05231e-17
714 1 134.899 14.3193 -4.05231e-17
715 1 54.3718 196.867 -4.05231e-17
716 1 36.6192 119.971 -4.05231e-17
717 1 53.0567 106.182 -4.05231e-17
718 1 130.841 185.149 -4.05231e-17
719 2 119.371 77.6535 -4.05231e-17
720 1 95.7063 62.6062 -4.05231e-17
721 1 96.3145 98.1404 -4.05231e-17
722 1 133.953 62.8023 -4.05231e-17
723 2 47.1286 45.2361 -4.05231e-17
724 1 16.0922 51.2414 -4.05231e-17
725 1 30.5817 101.731 -4.05231e-17
726 1 189.847 45.8954 -4.05231e-17
727 1 148.235 205.499 -4.05231e-17
728 2 26.5122 87.3679 -4.05231e-17
729 1 133.954 165.231 -4.05231e-17
730 1 174.128 199.576 -4.05231e-17
731 1 48.9526 190.187 -4.05231e-17
732 1 6.6989 7.41179 -4.05231e-17
733 1 205.364 33.523 -4.05231e-17
734 1 3.65064 29.5112 -4.05231e-17
735 1 40.6626 21.0004 -4.05231e-17
736 2 190.341 74.2493 -4.05231e-17
737 1 82.018 86.7187 -4.05231e-17
738 1 15.5033 166.895 -4.05231e-17
739 1 105.941 156.66 -4.05231e-17
740 1 55.4443 113.008 -4.05231e-17
741 2 188.924 78.4004 -4.05231e-17
742 1 70.6107 42.8627 -4.05231e-17
743 1 203.867 64.7595 -4.05231e-17
744 2 210.4 173.082 -4.05231e-17
745 1 130.488 32.1148 -4.05231e-17
746 1 14.0863 29.1341 -4.05231e-17
747 2 204.012 21.6269 -4.05231e-17
748 1 182.37 193.138 -4.05231e-17
749 1 194.904 216.368 -4.05231e-17
750 1 213.382 163.33 -4.05231e-17
751 1 59.3238 58.8099 -4.05231e-17
752 1 183.225 106.571 -4.05231e-17
753 1 99.9784 151.058 -4.05231e-17
754 1 11.6261 214.032 -4.05231e-17
755 1 82.9069 195.194 -4.05231e-17
756 2 103.37 196.459 -4.05231e-17
757 1 27.232 18.714 -4.05231e-17
758 1 132.804 148.016 -4.05231e-17
759 1 72.6641 106.921 -4.05231e-17
760 1 93.1981 46.2708 -4.05231e-17
761 1 57.9804 160.447 -4.05231e-17
762 1 42.7526 22.6712 -4.05231e-17
763 1 115.386 102.612 -4.05231e-17
764 2 177.449 149.034 -4.05231e-17
765 1 95.8703 54.5546 -4.05231e-17
766 1 107.519 41.9675 -4.05231e-17
767 1 97.1366 77.704 -4.05231e-17
768 1 12.8839 218.282 -4.05231e-17
769 1 109.894 72.1898 -4.05231e-17
770 2 114.16 110.198 -4.05231e-17
771 1 141.61 181.281 -4.05231e-17
772 1 101.341 28.9903 -4.05231e-17
773 1 108.828 167.76 -4.05231e-17
774 1 112.114 124.091 -4.05231e-17
775 1 68.9313 7.19285 -4.05231e-17
776 1 38.0044 10.9272 -4.05231e-17
777 1 107.838 182.188 -4.05231e-17
778 1 22.7052 19.3377 -4.05231e-17
779 1 191.798 44.251 -4.05231e-17
780 1 3.17886 169.78 -4.05231e-17
781 1 124.895 107.267 -4.05231e-17
782 1 175.378 49.6011 -4.05231e-17
783 1 97.9183 16.3077 -4.05231e-17
784 2 194.891 159.564 -4.05231e-17
785 1 110.598 165.766 -4.05231e-17
786 1 118.953 177.067 -4.05231e-17
787 1 185.31 74.4162 -4.05231e-17
788 1 177.458 45.3664 -4.05231e-17
789 2 140.622 101.647 -4.05231e-17
790 1 108.327 34.0025 -4.05231e-17
791 2 12.497 117.027 -4.05231e-17
792 2 215.849 12.7538 -4.05231e-17
793 2 117.083 71.3427 -4.05231e-17
794 1 55.3865 188.334 -4.05231e-17
795 1 132.764 53.4846 -4.05231e-17
796 1 127.674 19.5484 -4.05231e-17
797 1 197.645 155.554 -4.05231e-17
798 2 196.337 205.841 -4.05231e-17
799 2 206.77 65.4062 -4.05231e-17
800 2 55.1017 217.884 -4.05231e-17
801 1 103.018 132.23 -4.05231e-17
802 1 124.734 76.3149 -4.05231e-17
803 1 182.478 68.3681 -4.05231e-17
804 2 122.77 205.295 -4.05231e-17
805 1 42.5156 102.927 -4.05231e-17
806 1 11.3727 111.981 -4.05231e-17
807 2 101.108 99.6276 -4.05231e-17
808 1 9.53046 117.11 -4.05231e-17
809 2 56.4285 133.372 -4.05231e-17
810 1 129.55 198.094 -4.05231e-17
811 1 32.4382 5.86971 -4.05231e-17
812 1 131.737 34.5996 -4.05231e-17
813 2 108.4 111.122 -4.05231e-17
814 1 146.522 70.957 -4.05231e-17
815 1 88.5854 164.735 -4.05231e-17
816 1 196.294 10.8567 -4.05231e-17
817 1 107.133 214.556 -4.05231e-17
818 1 62.4673 100.381 -4.05231e-17
819 1 11.2239 136.54 -4.05231e-17
820 1 45.6537 119.971 -4.05231e-17
821 1 95.1205 151.801 -4.05231e-17
822 2 39.2736 134.354 -4.05231e-17
823 2 136.732 94.9828 -4.05231e-17
824 1 33.9833 90.7378 -4.05231e-17
825 1 65.177 15.073 -4.05231e-17
826 1 189.746 210.153 -4.05231e-17
827 1 197.989 104.133 -4.05231e-17
828 1 133.2 119.097 -4.05231e-17
829 1 126.879 211.245 -4.05231e-17
830 1 79.7905 134.369 -4.05231e-17
831 1 217.086 42.1943 -4.05231e-17
832 1 93.4861 86.739 -4.05231e-17
833 1 60.9804 84.3966 -4.05231e-17
834 1 108.748 5.9733 -4.05231e-17
835 1 56.1863 1.72612 -4.05231e-17
836 1 10.206 47.8586 -4.05231e-17
837 1 5.45907 73.0703 -4.05231e-17
838 1 97.7849 178.651 -4.05231e-17
839 2 200.09 4.39826 -4.05231e-17
840 1 6.07058 218.28 -4.05231e-17
841 2 64.2326 183.957 -4.05231e-17
842 1 95.2966 91.2665 -4.05231e-17
843 2 159.259 183.375 -4.05231e-17
844 1 29.562 155.357 -4.05231e-17
845 1 67.6118 193.114 -4.05231e-17
846 1 158.835 191.134 -4.05231e-17
847 1 42.8696 137.875 -4.05231e-17
848 1 188.741 115.938 -4.05231e-17
849 1 189.705 167.385 -4.05231e-17
850 1 31.0726 122.345 -4.05231e-17
851 1 91.1523 39.0462 -4.05231e-17
852 1 8.45208 204.646 -4.05231e-17
853 1 29.0624 133.376 -4.05231e-17
854 1 171.609 85.0405 -4.05231e-17
855 1 126.73 17.304 -4.05231e-17
856 1 210.761 170.184 -4.05231e-17