ITEM: TIMESTEP
0
ITEM: NUMBER OF ATOMS
7200
ITEM: BOX BOUNDS xy xz yz pp pp pp
0.0000000000000000e+00 2.1900000000000000e+02 0.0000000000000000e+00
0.0000000000000000e+00 2.1900000000000000e+02 0.0000000000000000e+00
-3.6499999999999999e-01 3.6499999999999999e-01 0.0000000000000000e+00
ITEM: ATOMS id type x y z
1 1 67.5904 134.479 -4.05231e-17
2 1 183.057 108.795 -4.05231e-17
3 1 12.3534 160.237 -4.05231e-17
4 1 7.84517 87.5557 -4.05231e-17
5 1 215.96 157.299 -4.05231e-17
6 1 116.833 210.374 -4.05231e-17
7 1 42.4261 52.0202 -4.05231e-17
8 2 149.749 83.3529 -4.05231e-17
9 1 203.522 9.76233 -4.05231e-17
10 2 58.094 193.22 -4.05231e-17
11 1 114.33 14.7916 -4.05231e-17
12 1 129.76 77.8185 -4.05231e-17
13 2 52.5245 79.9512 -4.05231e-17
14 1 65.4656 18.0593 -4.05231e-17
15 1 133.864 106.391 -4.05231e-17
16 2 60.8152 172.477 -4.05231e-17
17 1 114.113 30.7719 -4.05231e-17
18 2 31.7959 77.6942 -4.05231e-17
19 1 106.8 52.3276 -4.05231e-17
20 1 143.529 100.783 -4.05231e-17
21 1 42.3777 5.44023 -4.05231e-17
22 2 49.725 147.587 -4.05231e-17
23 2 16.0719 56.5143 -4.05231e-17
24 1 159.438 99.4382 -4.05231e-17
25 1 75.8419 182.6 -4.05231e-17
26 2 86.9769 96.9307 -4.05231e-17
27 1 155.573 174.005 -4.05231e-17
28 2 24.7907 158.628 -4.05231e-17
29 1 56.0436 46.8703 -4.05231e-17
30 1 138.202 89.9688 -4.05231e-17
31 1 211.352 90.7226 -4.05231e-17
32 1 57.8445 103.96 -4.05231e-17
33 1 157.201 154.328 -4.05231e-17
34 1 61.6517 77.7989 -4.05231e-17
35 1 177.153 68.9273 -4.05231e-17
36 1 61.5928 75.1813 -4.05231e-17
37 2 136.342 140.886 -4.05231e-17
38 1 198.055 74.4644 -4.05231e-17
39 1 121.99 138.542 -4.05231e-17
40 1 165.724 164.053 -4.05231e-17
41 1 120.873 182.216 -4.05231e-17
42 1 102.734 36.6831 -4.05231e-17
43 1 135.532 61.192 -4.05231e-17
44 1 107.269 23.0556 -4.05231e-17
45 1 214.469 84.6149 -4.05231e-17
46 1 28.1971 203.475 -4.05231e-17
47 1 88.8705 172.181 -4.05231e-17
48 2 46.3275 84.9358 -4.05231e-17
49 1 76.8799 110.265 -4.05231e-17
50 1 46.4019 197.141 -4.05231e-17
51 1 181.264 34.3611 -4.05231e-17
52 1 204.161 132.476 -4.05231e-17
53 1 156.885 27.7139 -4.05231e-17
54 1 27.8202 128.877 -4.05231e-17
55 1 23.8823 48.2171 -4.05231e-17
56 1 117.41 140.413 -4.05231e-17
57 2 67.5007 214.464 -4.05231e-17
58 1 35.5113 40.1514 -4.05231e-17
59 1 27.1273 149.959 -4.05231e-17
60 2 152.202 146.846 -4.05231e-17
61 2 35.7463 202.58 -4.05231e-17
62 1 14.149 158.437 -4.05231e-17
63 1 111.976 197.821 -4.05231e-17
64 1 134.405 38.893 -4.05231e-17
65 1 214.034 114.193 -4.05231e-17
66 1 129.206 134.847 -4.05231e-17
67 1 95.6008 139.814 -4.05231e-17
68 1 66.7372 116.427 -4.05231e-17
69 1 141.062 174.058 -4.05231e-17
70 1 58.6367 110.315 -4.05231e-17
71 1 2.80171 122.779 -4.05231e-17
72 1 172.05 60.6308 -4.05231e-17
73 1 187.886 186.317 -4.05231e-17
74 1 207.588 21.5169 -4.05231e-17
75 2 93.5893 1.00084 -4.05231e-17
76 1 17.97 5.053 -4.05231e-17
77 1 36.2326 21.4773 -4.05231e-17
78 1 124.632 117.954 -4.05231e-17
79 2 126.496 0.744413 -4.05231e-17
80 1 74.9888 105.894 -4.05231e-17
81 1 110.535 141.31 -4.05231e-17
82 1 53.9365 141.257 -4.05231e-17
83 2 129.92 182.033 -4.05231e-17
84 1 179.827 81.0887 -4.05231e-17
85 1 23.87 43.9266 -4.05231e-17
86 1 128.163 142.577 -4.05231e-17
87 1 217.304 217.495 -4.05231e-17
88 1 19.467 34.86 -4.05231e-17
89 2 44.3287 3.2449 -4.05231e-17
90 2 190.317 187.686 -4.05231e-17
91 1 149.617 88.1673 -4.05231e-17
92 2 168.709 21.2034 -4.05231e-17
93 1 141.48 15.217 -4.05231e-17
94 2 202.394 12.8006 -4.05231e-17
95 1 33.7011 195.16 -4.05231e-17
96 1 128.705 98.236 -4.05231e-17
97 1 97.2847 4.59453 -4.05231e-17
98 1 125.616 55.5724 -4.05231e-17
99 1 178.638 22.0055 -4.05231e-17
100 1 175.762 8.67742 -4.05231e-17
101 1 110.901 5.05711 -4.05231e-17
102 1 25.3962 46.3363 -4.05231e-17
103 1 58.4644 80.923 -4.05231e-17
104 1 66.38 108.816 -4.05231e-17
105 1 142.448 201.019 -4.05231e-17
106 1 78.0692 102.709 -4.05231e-17
107 2 146.375 100.984 -4.05231e-17
108 1 36.4338 210.558 -4.05231e-17
109 1 53.3293 87.382 -4.05231e-17
110 1 103.681 59.7882 -4.05231e-17
111 1 60.9772 21.1245 -4.05231e-17
112 1 94.7146 137.117 -4.05231e-17
113 1 101.953 49.2152 -4.05231e-17
114 1 158.668 23.5974 -4.05231e-17
115 1 51.0948 162.846 -4.05231e-17
116 2 214.463 133.622 -4.05231e-17
117 1 202.265 217.028 -4.05231e-17
118 1 165.244 67.9848 -4.05231e-17
119 2 60.2518 99.4156 -4.05231e-17
120 1 53.1058 199.432 -4.05231e-17
121 1 152.672 83.8654 -4.05231e-17
122 1 102.848 14.5455 -4.05231e-17
123 1 136.801 77.4269 -4.05231e-17
124 1 154.637 201.015 -4.05231e-17
125 1 141.444 118.102 -4.05231e-17
126 1 112.487 65.7059 -4.05231e-17
127 1 163.961 78.2297 -4.05231e-17
128 1 175.76 136.578 -4.05231e-17
129 1 6.81656 104.073 -4.05231e-17
130 1 83.4823 128.554 -4.05231e-17
131 1 175.621 152.469 -4.05231e-17
132 2 183.212 1.97651 -4.05231e-17
133 1 127.524 79.3456 -4.05231e-17
134 1 32.1409 85.7442 -4.05231e-17
135 1 78.1286 8.13408 -4.05231e-17
136 1 210.28 201.897 -4.05231e-17
137 1 102.17 136.89 -4.05231e-17
138 1 49.8785 211.783 -4.05231e-17
139 1 202.218 105.438 -4.05231e-17
140 2 141.951 185.966 -4.05231e-17
141 1 205.47 96.3326 -4.05231e-17
142 2 212.101 49.1926 -4.05231e-17
143 1 111.075 80.8743 -4.05231e-17
144 2 43.3389 198.959 -4.05231e-17
145 1 172.331 102.85 -4.05231e-17
146 1 99.5585 120.263 -4.05231e-17
147 1 154.69 145.448 -4.05231e-17
148 1 5.94572 203.387 -4.05231e-17
149 1 68.1796 21.4798 -4.05231e-17
150 1 54.3343 37.5801 -4.05231e-17
151 1 28.1284 114.455 -4.05231e-17
152 1 62.2923 101.693 -4.05231e-17
153 2 52.2565 6.12465 -4.05231e-17
154 1 146.875 98.1532 -4.05231e-17
155 1 107.646 16.6797 -4.05231e-17
156 2 71.7378 115.751 -4.05231e-17
157 1 207.245 104.581 -4.05231e-17
158 1 29.2035 28.9901 -4.05231e-17
159 1 21.8232 137.033 -4.05231e-17
160 1 14.5418 201.799 -4.05231e-17
161 1 1.71094 8.01404 -4.05231e-17
162 1 127.415 127.765 -4.05231e-17
163 1 17.9905 32.6474 -4.05231e-17
164 1 167.1 52.9193 -4.05231e-17
165 1 125.443 122.381 -4.05231e-17
166 2 159.704 60.8385 -4.05231e-17
167 1 175.45 46.8818 -4.05231e-17
168 1 149.419 169.692 -4.05231e-17
169 1 1.71223 101.647 -4.05231e-17
170 1 94.9994 168.421 -4.05231e-17
171 1 147.119 60.5499 -4.05231e-17
172 1 218.78 17.5314 -4.05231e-17
173 1 45.6806 143.236 -4.05231e-17
174 1 131.667 62.856 -4.05231e-17
175 2 137.371 161.092 -4.05231e-17
176 1 109.584 72.1451 -4.05231e-17
177 2 70.9155 57.3658 -4.05231e-17
178 1 63.6776 86.7456 -4.05231e-17
179 1 173.664 164.054 -4.05231e-17
180 1 203.558 197.663 -4.05231e-17
181 1 134.701 167.536 -4.05231e-17
182 2 77.6485 20.2499 -4.05231e-17
183 1 76.8993 163.826 -4.05231e-17
184 1 176.243 87.1986 -4.05231e-17
185 2 177.49 19.5632 -4.05231e-17
186 2 209.001 134.129 -4.05231e-17
187 1 93.3368 28.9129 -4.05231e-17
188 1 102.674 170.323 -4.05231e-17
189 1 123.604 174.722 -4.05231e-17
190 2 13.4561 162.956 -4.05231e-17
191 1 77.1787 157.125 -4.05231e-17
192 2 63.4671 109.622 -4.05231e-17
193 2 79.5493 172.368 -4.05231e-17
194 1 31.6886 152.147 -4.05231e-17
195 1 145.613 163.319 -4.05231e-17
196 1 168.527 191.56 -4.05231e-17
197 1 74.2865 69.645 -4.05231e-17
198 2 10.6471 133.272 -4.05231e-17
199 1 210.822 57.3294 -4.05231e-17
200 1 80.4681 6.23424 -4.05231e-17
201 2 71.5499 109.889 -4.05231e-17
202 1 52.1566 210.438 -4.05231e-17
203 1 175.477 81.7582 -4.05231e-17
204 1 188.972 156.053 -4.05231e-17
205 2 191.844 82.9053 -4.05231e-17
206 1 88.9731 133.012 -4.05231e-17
207 1 105.264 29.9133 -4.05231e-17
208 1 33.6277 81.87 -4.05231e-17
209 1 82.0196 1.92424 -4.05231e-17
210 1 11.6737 67.1882 -4.05231e-17
211 2 146.897 156.618 -4.05231e-17
212 1 120.189 112.916 -4.05231e-17
213 1 132.984 103.973 -4.05231e-17
214 1 74.5176 13.8863 -4.05231e-17
215 1 74.3948 201.649 -4.05231e-17
216 1 193.828 138.983 -4.05231e-17
217 1 126.785 186.925 -4.05231e-17
218 2 28.1253 168.774 -4.05231e-17
219 1 155.571 213.742 -4.05231e-17
220 2 106.672 55.2719 -4.05231e-17
221 1 213.202 56.2043 -4.05231e-17
222 1 143.793 146.065 -4.05231e-17
223 1 51.9143 207.703 -4.05231e-17
224 2 10.0757 188.608 -4.05231e-17
225 1 201.499 142.387 -4.05231e-17
226 1 138.923 190.186 -4.05231e-17
227 2 51.1968 16.9962 -4.05231e-17
228 1 138.483 79.2384 -4.05231e-17
229 1 60.5708 135.383 -4.05231e-17
230 1 159.122 130.779 -4.05231e-17
231 1 148.164 123.037 -4.05231e-17
232 1 214.944 87.2226 -4.05231e-17
233 1 107.802 100.392 -4.05231e-17
234 1 133.832 215.89 -4.05231e-17
235 1 20.9079 144.552 -4.05231e-17
236 1 44.8056 77.2046 -4.05231e-17
237 1 197.333 6.50733 -4.05231e-17
238 1 147.892 128.363 -4.05231e-17
239 2 14.9453 116.793 -4.05231e-17
240 1 99.5227 5.53627 -4.05231e-17
241 2 187.899 17.1092 -4.05231e-17
242 2 199.112 37.3807 -4.05231e-17
243 2 114.692 27.4547 -4.05231e-17
244 1 97.3344 7.20899 -4.05231e-17
245 1 85.2684 58.7838 -4.05231e-17
246 1 126.382 119.918 -4.05231e-17
247 1 210.551 98.5207 -4.05231e-17
248 1 94.5191 3.78849 -4.05231e-17
249 1 22.8547 65.2148 -4.05231e-17
250 2 150.265 30.1516 -4.05231e-17
251 1 153.456 212.202 -4.05231e-17
252 1 195.62 64.4989 -4.05231e-17
253 1 94.7807 61.4269 -4.05231e-17
254 2 76.572 197.222 -4.05231e-17
255 1 212.475 148.722 -4.05231e-17
256 1 84.6437 165.858 -4.05231e-17
257 1 211.927 151.548 -4.05231e-17
258 2 164.301 27.9029 -4.05231e-17
259 1 58.1212 165.775 -4.05231e-17
260 1 127.221 10.8565 -4.05231e-17
261 1 185.857 15.1703 -4.05231e-17
262 1 53.2744 52.4031 -4.05231e-17
263 1 12.4923 213.801 -4.05231e-17
264 1 172.536 42.9692 -4.05231e-17
265 1 166.488 22.9845 -4.05231e-17
266 1 155.544 9.6674 -4.05231e-17
267 1 3.24687 64.9605 -4.05231e-17
268 1 21.9214 35.381 -4.05231e-17
269 1 128.524 95.7668 -4.05231e-17
270 1 143.976 106.018 -4.05231e-17
271 1 11.7431 89.8462 -4.05231e-17
272 1 159.195 201.778 -4.05231e-17
273 1 40.4871 169.032 -4.05231e-17
274 2 113.131 87.9166 -4.05231e-17
275 1 64.2437 4.53551 -4.05231e-17
276 2 54.0578 32.2673 -4.05231e-17
277 2 167.289 122.247 -4.05231e-17
278 1 38.3359 99.8318 -4.05231e-17
279 2 109.606 204.883 -4.05231e-17
280 1 60.2814 32.1418 -4.05231e-17
281 1 147.008 25.1673 -4.05231e-17
282 1 164.548 8.31519 -4.05231e-17
283 1 113.11 141.766 -4.05231e-17
284 1 136.629 165.67 -4.05231e-17
285 1 35.9334 12.3757 -4.05231e-17
286 2 33.9387 214.686 -4.05231e-17
287 1 82.2931 134.992 -4.05231e-17
288 1 21.4434 57.1409 -4.05231e-17
289 1 71.9488 54.6585 -4.05231e-17
290 1 150.897 193.19 -4.05231e-17
291 1 158.845 144.468 -4.05231e-17
292 2 19.5075 181.258 -4.05231e-17
293 2 65.2333 193.951 -4.05231e-17
294 1 112.557 40.1797 -4.05231e-17
295 1 125.255 46.897 -4.05231e-17
296 1 135.289 41.5117 -4.05231e-17
297 1 118.542 145.482 -4.05231e-17
298 1 104.931 198.503 -4.05231e-17
299 1 160.265 106.077 -4.05231e-17
300 2 62.439 94.1495 -4.05231e-17
301 1 59.2382 43.9381 -4.05231e-17
302 1 126.912 192.74 -4.05231e-17
303 2 198.76 60.1662 -4.05231e-17
304 2 144.999 130.025 -4.05231e-17
305 1 86.318 99.7123 -4.05231e-17
306 1 51.4438 74.433 -4.05231e-17
307 1 35.2645 121.085 -4.05231e-17
308 1 162.032 58.9851 -4.05231e-17
309 2 73.0056 184.247 -4.05231e-17
310 1 194.703 213.571 -4.05231e-17
311 1 80.0168 33.1953 -4.05231e-17
312 1 192.375 147.698 -4.05231e-17
313 2 148.146 65.71 -4.05231e-17
314 1 52.7728 132.593 -4.05231e-17
315 1 111.062 150.681 -4.05231e-17
316 1 72.6955 0.796131 -4.05231e-17
317 1 14.0875 100.831 -4.05231e-17
318 1 99.9718 214.763 -4.05231e-17
319 1 51.2174 33.3179 -4.05231e-17
320 1 142.15 96.6259 -4.05231e-17
321 1 88.6218 203.44 -4.05231e-17
322 1 141.043 139.606 -4.05231e-17
323 1 188.043 107.93 -4.05231e-17
324 1 81.2368 26.5511 -4.05231e-17
325 1 163.027 139.167 -4.05231e-17
326 1 85.094 151.836 -4.05231e-17
327 2 150.06 185.717 -4.05231e-17
328 1 167.758 40.4012 -4.05231e-17
329 2 47.3414 114.748 -4.05231e-17
330 1 11.972 114.934 -4.05231e-17
331 1 175.027 176.199 -4.05231e-17
332 2 112.637 104.863 -4.05231e-17
333 1 44.9304 17.1807 -4.05231e-17
334 1 139.649 169.086 -4.05231e-17
335 1 13.3051 204.289 -4.05231e-17
336 1 212.216 106.378 -4.05231e-17
337 1 103.141 182.145 -4.05231e-17
338 1 159.483 57.9396 -4.05231e-17
339 1 109.356 217.011 -4.05231e-17
340 1 153.778 141.178 -4.05231e-17
341 1 160.239 158.155 -4.05231e-17
342 1 129.013 144.938 -4.05231e-17
343 1 127.764 28.6279 -4.05231e-17
344 1 63.6958 181.482 -4.05231e-17
345 1 60.7068 108.865 -4.05231e-17
346 1 8.16041 125.435 -4.05231e-17
347 1 92.7541 92.5603 -4.05231e-17
348 1 164.026 179.045 -4.05231e-17
349 1 193.908 75.6385 -4.05231e-17
350 2 89.0793 40.5642 -4.05231e-17
351 1 155.159 66.0803 -4.05231e-17
352 1 61.1616 182.408 -4.05231e-17
353 1 38.9746 166.364 -4.05231e-17
354 1 168.145 161.584 -4.05231e-17
355 1 57.9639 156.635 -4.05231e-17
356 1 24.2385 36.7989 -4.05231e-17
357 1 62.2603 158.767 -4.05231e-17
358 1 172.159 180.721 -4.05231e-17
359 1 157.802 158.797 -4.05231e-17
360 1 74.6452 53.9666 -4.05231e-17
361 1 62.8666 167.752 -4.05231e-17
362 1 169.004 201.068 -4.05231e-17
363 1 163.759 189.872 -4.05231e-17
364 2 114.654 91.8845 -4.05231e-17
365 1 178.847 90.972 -4.05231e-17
366 1 117.575 161.095 -4.05231e-17
367 1 173.887 7.03277 -4.05231e-17
368 1 196.819 192.569 -4.05231e-17
369 2 115.272 188.059 -4.05231e-17
370 1 15.1174 206.315 -4.05231e-17
371 1 53.7663 136.748 -4.05231e-17
372 2 0.266888 94.0295 -4.05231e-17
373 2 213.023 8.1406 -4.05231e-17
374 1 147.394 91.4874 -4.05231e-17
375 1 37.5849 110.873 -4.05231e-17
376 1 14.2239 152.367 -4.05231e-17
377 1 28.6077 213.066 -4.05231e-17
378 1 74.2416 129.114 -4.05231e-17
379 1 38.6326 65.1048 -4.05231e-17
380 1 177.972 150.701 -4.05231e-17
381 1 13.6882 5.55646 -4.05231e-17
382 1 54.5498 67.2651 -4.05231e-17
383 1 169.863 67.737 -4.05231e-17
384 1 22.1679 14.1492 -4.05231e-17
385 1 191.603 77.2329 -4.05231e-17
386 2 82.0046 44.1729 -4.05231e-17
387 1 143.979 19.1326 -4.05231e-17
388 1 56.9353 44.3237 -4.05231e-17
389 1 207.07 159.099 -4.05231e-17
390 2 206.836 179.832 -4.05231e-17
391 2 36.4066 37.5061 -4.05231e-17
392 1 41.2756 218.004 -4.05231e-17
393 1 0.814164 33.8778 -4.05231e-17
394 1 102.401 101.586 -4.05231e-17
395 1 16.505 27.5789 -4.05231e-17
396 1 202.859 153.958 -4.05231e-17
397 1 100.735 16.0788 -4.05231e-17
398 1 11.1786 191.559 -4.05231e-17
399 1 19.1946 62.5812 -4.05231e-17
400 1 103.253 179.557 -4.05231e-17
401 1 87.6944 176.611 -4.05231e-17
402 2 191.163 179.338 -4.05231e-17
403 1 214.654 54.231 -4.05231e-17
404 1 36.0631 71.6258 -4.05231e-17
405 1 204.946 29.6896 -4.05231e-17
406 1 201.111 68.3678 -4.05231e-17
407 2 17.1406 64.8248 -4.05231e-17
408 1 34.247 35.3161 -4.05231e-17
409 1 169.224 129.183 -4.05231e-17
410 1 20.7503 156.032 -4.05231e-17
411 1 152.08 160.484 -4.05231e-17
412 1 114.799 214.855 -4.05231e-17
413 1 63.197 156.165 -4.05231e-17
414 1 38.4743 13.281 -4.05231e-17
415 1 207.989 148.317 -4.05231e-17
416 1 71.689 200.094 -4.05231e-17
417 1 140.282 91.7826 -4.05231e-17
418 2 183.611 10.0142 -4.05231e-17
419 1 108.318 150.058 -4.05231e-17
420 2 137.111 106.967 -4.05231e-17
421 1 87.9937 104.063 -4.05231e-17
422 1 176.331 22.5504 -4.05231e-17
423 2 158.284 41.0444 -4.05231e-17
424 1 157.247 149.224 -4.05231e-17
425 1 129.028 166.879 -4.05231e-17
426 1 133.148 113.422 -4.05231e-17
427 1 44.9587 80.5532 -4.05231e-17
428 1 70.7832 191.686 -4.05231e-17
429 1 194.751 83.4515 -4.05231e-17
430 1 215.652 60.0041 -4.05231e-17
431 1 120.468 206.493 -4.05231e-17
432 1 161.553 53.9567 -4.05231e-17
433 1 104.906 153.961 -4.05231e-17
434 1 71.6679 29.901 -4.05231e-17
435 1 178.363 161.391 -4.05231e-17
436 1 41.922 36.9876 -4.05231e-17
437 1 175.251 109.379 -4.05231e-17
438 2 109.575 21.4202 -4.05231e-17
439 1 67.134 208.951 -4.05231e-17
440 1 1.34396 162.795 -4.05231e-17
441 1 193.346 131.658 -4.05231e-17
442 1 51.35 14.079 -4.05231e-17
443 1 157.978 104.802 -4.05231e-17
444 1 218.107 101.031 -4.05231e-17
445 1 140.039 7.20585 -4.05231e-17
446 1 131.924 79.0793 -4.05231e-17
447 1 38.6337 144.642 -4.05231e-17
448 1 75.8485 7.26324 -4.05231e-17
449 1 131.606 120.902 -4.05231e-17
450 1 139.826 187.917 -4.05231e-17
451 1 171.076 47.4556 -4.05231e-17
452 1 133.891 145.048 -4.05231e-17
453 1 179.155 182.402 -4.05231e-17
454 1 160.176 211.522 -4.05231e-17
455 1 100.626 72.1453 -4.05231e-17
456 1 167.58 27.0847 -4.05231e-17
457 1 97.3651 113.842 -4.05231e-17
458 1 198.045 0.745371 -4.05231e-17
459 1 81.916 69.0831 -4.05231e-17
460 1 48.1416 101.47 -4.05231e-17
461 1 188.549 178.068 -4.05231e-17
462 1 181.535 116.15 -4.05231e-17
463 1 126.829 32.9214 -4.05231e-17
464 1 155.131 194.684 -4.05231e-17
465 1 121.64 159.92 -4.05231e-17
466 1 24.6046 213.803 -4.05231e-17
467 1 17.5786 78.2816 -4.05231e-17
468 1 161.457 218.494 -4.05231e-17
469 1 68.8203 77.6267 -4.05231e-17
470 1 78.1982 37.4482 -4.05231e-17
471 1 128.874 174.439 -4.05231e-17
472 1 48.9729 83.883 -4.05231e-17
473 1 25.9272 107.014 -4.05231e-17
474 1 88.6118 101.655 -4.05231e-17
475 1 185.1 163.505 -4.05231e-17
476 2 192.892 12.54 -4.05231e-17
477 1 50.9703 88.3404 -4.05231e-17
478 1 58.2781 125.152 -4.05231e-17
479 1 201.799 80.753 -4.05231e-17
480 1 85.6564 23.1886 -4.05231e-17
481 1 13.4096 94.8179 -4.05231e-17
482 1 99.5386 160.022 -4.05231e-17
483 1 142.174 160.081 -4.05231e-17
484 2 87.2032 45.6643 -4.05231e-17
485 1 33.1747 97.2564 -4.05231e-17
486 1 81.9006 17.0193 -4.05231e-17
487 1 101.033 196.656 -4.05231e-17
488 1 7.45706 120.885 -4.05231e-17
489 1 211.934 135.39 -4.05231e-17
490 1 205.23 84.0235 -4.05231e-17
491 1 197.397 121.474 -4.05231e-17
492 1 4.037 129.77 -4.05231e-17
493 1 193.469 211.158 -4.05231e-17
494 1 211.808 38.6093 -4.05231e-17
495 1 199.119 89.268 -4.05231e-17
496 2 44.0216 189.064 -4.05231e-17
497 1 38.9872 216.736 -4.05231e-17
498 1 105.007 121.289 -4.05231e-17
499 2 136.67 216.17 -4.05231e-17
500 1 26.1069 29.9524 -4.05231e-17
501 2 112.584 216.496 -4.05231e-17
502 2 123.592 143.495 -4.05231e-17
503 1 144.966 185.059 -4.05231e-17
504 1 112.826 148.83 -4.05231e-17
505 1 117.89 18.3896 -4.05231e-17
506 1 30.2844 116.032 -4.05231e-17
507 1 12.554 131.06 -4.05231e-17
508 1 195.891 1.81078 -4.05231e-17
509 2 28.6774 73.6747 -4.05231e-17
510 2 146.278 133.354 -4.05231e-17
511 1 196.512 35.7732 -4.05231e-17
512 2 210.694 60.3269 -4.05231e-17
513 1 56.3234 127.038 -4.05231e-17
514 1 48.8831 18.8494 -4.05231e-17
515 1 205.027 25.5053 -4.05231e-17
516 1 183.854 205.93 -4.05231e-17
517 1 112.043 117.608 -4.05231e-17
518 2 103.297 20.1364 -4.05231e-17
519 1 12.1788 53.2558 -4.05231e-17
520 2 212.694 23.3607 -4.05231e-17
521 1 88.807 111.128 -4.05231e-17
522 1 31.4038 30.4842 -4.05231e-17
523 1 24.2163 67.2839 -4.05231e-17
524 1 99.9663 74.9311 -4.05231e-17
525 1 174.656 121.26 -4.05231e-17
526 1 191.295 65.0342 -4.05231e-17
527 1 75.2594 4.55878 -4.05231e-17
528 1 169.072 29.0842 -4.05231e-17
529 1 56.7003 158.84 -4.05231e-17
530 1 99.8682 32.1908 -4.05231e-17
531 1 66.1872 197.181 -4.05231e-17
532 1 206.469 188.279 -4.05231e-17
533 1 134.245 151.442 -4.05231e-17
534 1 97.2782 144.53 -4.05231e-17
535 1 14.4091 106.735 -4.05231e-17
536 1 203.445 117.583 -4.05231e-17
537 1 201.395 166.677 -4.05231e-17
538 1 168.771 80.9979 -4.05231e-17
539 1 89.0347 211.192 -4.05231e-17
540 1 105.369 88.136 -4.05231e-17
541 1 43.338 58.1615 -4.05231e-17
542 1 67.1712 211.349 -4.05231e-17
543 1 147.031 152.069 -4.05231e-17
544 1 128.939 200.225 -4.05231e-17
545 1 8.1829 149.317 -4.05231e-17
546 1 179.419 41.2313 -4.05231e-17
547 1 82.5618 172.138 -4.05231e-17
548 1 99.8063 8.50738 -4.05231e-17
549 1 52.1005 76.8306 -4.05231e-17
550 2 162.361 121.299 -4.05231e-17
551 2 134.447 158.102 -4.05231e-17
552 2 93.5865 180.39 -4.05231e-17
553 1 123.051 41.7302 -4.05231e-17
554 1 73.4267 101.387 -4.05231e-17
555 2 65.5331 123.625 -4.05231e-17
556 1 148.275 22.4478 -4.05231e-17
557 1 76.5988 12.1381 -4.05231e-17
558 1 148.017 125.676 -4.05231e-17
559 1 187.659 47.5107 -4.05231e-17
560 1 131.233 51.6205 -4.05231e-17
561 1 146.675 168.647 -4.05231e-17
562 1 195.732 144.186 -4.05231e-17
563 2 167.81 113.949 -4.05231e-17
564 1 42.4012 67.4788 -4.05231e-17
565 1 60.4998 10.5299 -4.05231e-17
566 1 75.3715 33.8085 -4.05231e-17
567 1 149.973 111.12 -4.05231e-17
568 1 25.1105 117.798 -4.05231e-17
569 1 114.141 185.191 -4.05231e-17
570 1 124.961 124.915 -4.05231e-17
571 1 175.398 203.534 -4.05231e-17
572 1 61.1431 111.404 -4.05231e-17
573 1 177.494 77.0686 -4.05231e-17
574 1 43.1755 130.191 -4.05231e-17
575 1 22.921 79.0106 -4.05231e-17
576 1 195.847 98.4637 -4.05231e-17
577 1 203.293 33.7537 -4.05231e-17
578 1 122.846 196.501 -4.05231e-17
579 1 12.7109 165.749 -4.05231e-17
580 1 102.909 139.259 -4.05231e-17
581 1 141.274 154.61 -4.05231e-17
582 1 76.1666 78.987 -4.05231e-17
583 1 162.384 185.628 -4.05231e-17
584 2 29.5851 119.38 -4.05231e-17
585 1 48.8109 198.313 -4.05231e-17
586 1 137.827 170.996 -4.05231e-17
587 1 99.4946 105.328 -4.05231e-17
588 1 17.5621 1.78516 -4.05231e-17
589 1 103.091 17.0612 -4.05231e-17
590 1 70.2774 218.833 -4.05231e-17
591 1 215.595 162.179 -4.05231e-17
592 1 55.5743 155.847 -4.05231e-17
593 1 209.081 181.642 -4.05231e-17
594 1 181.583 181.4 -4.05231e-17
595 1 83.1474 39.5005 -4.05231e-17
596 1 66.395 35.7278 -4.05231e-17
597 2 180.486 204.598 -4.05231e-17
598 1 166.753 211.501 -4.05231e-17
599 1 207.785 171.452 -4.05231e-17
600 1 104.582 10.3135 -4.05231e-17
601 1 12.464 135.428 -4.05231e-17
602 1 97.8991 30.975 -4.05231e-17
603 1 207.899 203.185 -4.05231e-17
604 1 120.606 1.12604 -4.05231e-17
605 2 85.7539 77.7237 -4.05231e-17
606 1 102.889 201.958 -4.05231e-17
607 2 171.989 146.979 -4.05231e-17
608 1 95.3483 76.9455 -4.05231e-17
609 1 15.9619 6.49268 -4.05231e-17
610 1 214.182 150.481 -4.05231e-17
611 1 201.672 190.541 -4.05231e-17
612 1 218.71 38.2973 -4.05231e-17
613 1 58.8313 150.727 -4.05231e-17
614 2 127.803 179.285 -4.05231e-17
615 1 105.423 18.0058 -4.05231e-17
616 1 202.587 130.187 -4.05231e-17
617 1 127.321 198.204 -4.05231e-17
618 1 201.106 212.541 -4.05231e-17
619 1 179.628 78.4274 -4.05231e-17
620 1 143.439 140.732 -4.05231e-17
621 1 197.026 94.0943 -4.05231e-17
622 1 95.0087 213.213 -4.05231e-17
623 1 218.843 12.2834 -4.05231e-17
624 1 23.8212 209.121 -4.05231e-17
625 1 204.939 155.021 -4.05231e-17
626 1 94.1231 191.099 -4.05231e-17
627 1 64.166 73.958 -4.05231e-17
628 1 34.4402 27.9487 -4.05231e-17
629 1 15.7208 98.9346 -4.05231e-17
630 2 151.431 22.4827 -4.05231e-17
631 1 15.136 79.2851 -4.05231e-17
632 1 47.9817 91.9882 -4.05231e-17
633 1 38.8484 211.437 -4.05231e-17
634 1 1.40986 147.523 -4.05231e-17
635 1 154.986 150.475 -4.05231e-17
636 1 208.528 58.3151 -4.05231e-17
637 1 201.151 58.1043 -4.05231e-17
638 1 172.975 76.7316 -4.05231e-17
639 2 204.051 78.6951 -4.05231e-17
640 1 143.418 152.772 -4.05231e-17
641 1 193.072 85.5871 -4.05231e-17
642 1 31.0841 89.6969 -4.05231e-17
643 2 182.155 42.6196 -4.05231e-17
644 1 68.2715 155.038 -4.05231e-17
645 1 106.757 196.172 -4.05231e-17
646 2 211.728 141.219 -4.05231e-17
647 1 10.9123 185.703 -4.05231e-17
648 1 130.303 103.71 -4.05231e-17
649 2 24.4923 151.313 -4.05231e-17
650 1 204.34 186.906 -4.05231e-17
651 1 218.265 112.787 -4.05231e-17
652 1 153.883 44.3183 -4.05231e-17
653 1 114.507 175.417 -4.05231e-17
654 1 23.3362 21.4691 -4.05231e-17
655 2 183.684 101.236 -4.05231e-17
656 1 26.5838 123.828 -4.05231e-17
657 2 79.1141 207.001 -4.05231e-17
658 1 54.5929 44.4029 -4.05231e-17
659 2 156.641 192.22 -4.05231e-17
660 1 101.701 54.7374 -4.05231e-17
661 1 42.8043 115.402 -4.05231e-17
662 1 81.4311 130.076 -4.05231e-17
663 1 32.5623 25.6816 -4.05231e-17
664 1 148.877 16.748 -4.05231e-17
665 1 139.618 77.014 -4.05231e-17
666 2 47.9018 180.884 -4.05231e-17
667 1 93.4838 99.9339 -4.05231e-17
668 2 102.596 91.9778 -4.05231e-17
669 1 36.2886 17.3149 -4.05231e-17
670 1 96.5289 173.548 -4.05231e-17
671 2 53.5782 176.002 -4.05231e-17
672 1 188.041 14.1699 -4.05231e-17
673 1 63.2286 19.6837 -4.05231e-17
674 1 2.5521 31.9523 -4.05231e-17
675 1 128.41 23.3453 -4.05231e-17
676 1 169.498 123.957 -4.05231e-17
677 1 131.266 175.308 -4.05231e-17
678 1 138.183 30.0182 -4.05231e-17
679 2 152.733 33.966 -4.05231e-17
680 1 202.876 41.6007 -4.05231e-17
681 2 129.145 119.375 -4.05231e-17
682 1 0.390897 48.117 -4.05231e-17
683 1 68.3261 3.8097 -4.05231e-17
684 1 119.833 154.955 -4.05231e-17
685 1 153.018 39.3066 -4.05231e-17
686 1 27.3341 193.701 -4.05231e-17
687 1 118.539 191.842 -4.05231e-17
688 1 162.7 110.287 -4.05231e-17
689 2 58.7223 46.6736 -4.05231e-17
690 1 70.5245 19.8103 -4.05231e-17
691 1 89.6983 66.1486 -4.05231e-17
692 1 130.898 7.79756 -4.05231e-17
693 1 48.3705 142.811 -4.05231e-17
694 1 75.9976 124.74 -4.05231e-17
695 1 146.194 38.8159 -4.05231e-17
696 1 146.748 81.5668 -4.05231e-17
697 1 139.683 201.248 -4.05231e-17
698 1 114.891 66.8337 -4.05231e-17
699 1 180.726 191.928 -4.05231e-17
700 1 205.43 209.561 -4.05231e-17
701 1 54.0796 17.5029 -4.05231e-17
702 1 113.397 128.975 -4.05231e-17
703 2 188.428 143.98 -4.05231e-17
704 1 29.5579 218.615 -4.05231e-17
705 2 68.7356 111.554 -4.05231e-17
706 1 165.677 177.345 -4.05231e-17
707 1 113.757 24.5184 -4.05231e-17
708 1 84.3133 208.867 -4.05231e-17
709 1 147.227 196.132 -4.05231e-17
710 1 192.334 192.132 -4.05231e-17
711 1 111.836 90.6321 -4.05231e-17
712 1 192.221 208.602 -4.05231e-17
713 1 14.7947 136.521 -4.05231e-17
714 1 135.56 12.9407 -4.05231e-17
715 1 55.7759 199.183 -4.05231e-17
716 1 37.8295 121.901 -4.05231e-17
717 1 51.3567 106.753 -4.05231e-17
718 1 131.073 185.033 -4.05231e-17
719 2 119.475 78.1098 -4.05231e-17
720 1 99.1126 65.1067 -4.05231e-17
721 1 95.7543 98.9689 -4.05231e-17
722 1 134.021 63.3408 -4.05231e-17
723 2 49.0747 45.8429 -4.05231e-17
724 1 15.9524 49.1686 -4.05231e-17
725 1 28.2149 105.627 -4.05231e-17
726 1 189.761 45.7558 -4.05231e-17
727 1 148.524 205.114 -4.05231e-17
728 2 21.32 90.4281 -4.05231e-17
729 1 133.738 165.247 -4.05231e-17
730 1 174.025 199.165 -4.05231e-17
731 1 49.0932 190.075 -4.05231e-17
732 1 218.624 9.478 -4.05231e-17
733 1 206.142 34.5608 -4.05231e-17
734 1 4.24769 30.145 -4.05231e-17
735 1 40.6124 24.064 -4.05231e-17
736 2 190.869 74.5096 -4.05231e-17
737 1 82.0635 86.5722 -4.05231e-17
738 1 18.4383 167.417 -4.05231e-17
739 1 105.653 156.481 -4.05231e-17
740 1 59.7062 115.508 -4.05231e-17
741 2 189.167 78.4897 -4.05231e-17
742 1 74.901 43.1334 -4.05231e-17
743 1 202.904 66.4824 -4.05231e-17
744 2 210.354 172.765 -4.05231e-17
745 1 131.534 31.5121 -4.05231e-17
746 1 14.6143 29.3811 -4.05231e-17
747 2 204.917 22.6873 -4.05231e-17
748 1 182.883 193.319 -4.05231e-17
749 1 196.08 211.407 -4.05231e-17
750 1 213.275 163.689 -4.05231e-17
751 1 59.8064 58.6807 -4.05231e-17
752 1 177.45 105.95 -4.05231e-17
753 1 99.0416 150.646 -4.05231e-17
754 1 14.8299 215.734 -4.05231e-17
755 1 83.0338 194.736 -4.05231e-17
756 2 103.822 195.71 -4.05231e-17
757 1 27.4441 18.5976 -4.05231e-17
758 1 135.052 149.249 -4.05231e-17
759 1 72.7385 107.096 -4.05231e-17
760 1 96.2056 40.425 -4.05231e-17
761 1 58.0061 161.047 -4.05231e-17
762 1 43.3524 23.1977 -4.05231e-17
763 1 114.674 99.9849 -4.05231e-17
764 2 178.13 147.745 -4.05231e-17
765 1 94.2655 64.1847 -4.05231e-17
766 1 114.42 35.282 -4.05231e-17
767 1 97.2903 78.6444 -4.05231e-17
768 1 9.80623 3.86978 -4.05231e-17
769 1 107.734 74.3809 -4.05231e-17
770 2 113.191 109.9 -4.05231e-17
771 1 143.55 178.806 -4.05231e-17
772 1 102.266 28.4164 -4.05231e-17
773 1 109.292 167.419 -4.05231e-17
774 1 111.213 124.272 -4.05231e-17
775 1 68.8608 6.45751 -4.05231e-17
776 1 38.0673 10.7202 -4.05231e-17
777 1 107.978 181.8 -4.05231e-17
778 1 22.7041 19.1909 -4.05231e-17
779 1 191.828 44.2579 -4.05231e-17
780 1 2.97527 169.745 -4.05231e-17
781 1 122.828 105.307 -4.05231e-17
782 1 175.8 49.5437 -4.05231e-17
783 1 98.3037 15.2639 -4.05231e-17
784 2 195.026 158.966 -4.05231e-17
785 1 110.854 165.239 -4.05231e-17
786 1 119.474 176.984 -4.05231e-17
787 1 185.541 75.1973 -4.05231e-17
788 1 177.503 45.1797 -4.05231e-17
789 2 142.495 108.673 -4.05231e-17
790 1 109.753 28.4631 -4.05231e-17
791 2 14.5719 122.395 -4.05231e-17
792 2 216.05 13.5835 -4.05231e-17
793 2 117.195 68.8501 -4.05231e-17
794 1 56.5305 188.329 -4.05231e-17
795 1 132.314 53.9025 -4.05231e-17
796 1 130.599 21.7017 -4.05231e-17
797 1 197.822 155.232 -4.05231e-17
798 2 195.746 204.519 -4.05231e-17
799 2 207.789 64.8735 -4.05231e-17
800 2 55.7702 216.655 -4.05231e-17
801 1 102.949 132.415 -4.05231e-17
802 1 125.262 75.2837 -4.05231e-17
803 1 182.245 68.995 -4.05231e-17
804 2 122.953 204.667 -4.05231e-17
805 1 44.3561 105.4 -4.05231e-17
806 1 12.1214 112.262 -4.05231e-17
807 2 100.395 99.615 -4.05231e-17
808 1 13.0977 120.134 -4.05231e-17
809 2 57.691 134.002 -4.05231e-17
810 1 129.918 197.625 -4.05231e-17
811 1 32.9853 5.84803 -4.05231e-17
812 1 132.53 33.8526 -4.05231e-17
813 2 107.652 111.293 -4.05231e-17
814 1 146.651 72.7362 -4.05231e-17
815 1 89.1512 164.345 -4.05231e-17
816 1 201.028 10.1689 -4.05231e-17
817 1 108.075 214.518 -4.05231e-17
818 1 57.1261 98.2947 -4.05231e-17
819 1 9.94869 136.176 -4.05231e-17
820 1 45.1786 119.23 -4.05231e-17
821 1 94.4471 151.517 -4.05231e-17
822 2 44.3259 135.684 -4.05231e-17
823 2 135.287 94.322 -4.05231e-17
824 1 33.8172 106.895 -4.05231e-17
825 1 65.29 15.4282 -4.05231e-17
826 1 188.544 9.82946 -4.05231e-17
827 1 192.519 107.54 -4.05231e-17
828 1 142.198 123.887 -4.05231e-17
829 1 126.935 210.779 -4.05231e-17
830 1 80.998 127.493 -4.05231e-17
831 1 217.762 43.0047 -4.05231e-17
832 1 93.7914 87.4395 -4.05231e-17
833 1 62.8345 84.3943 -4.05231e-17
834 1 106.576 8.82123 -4.05231e-17
835 1 55.7054 2.71523 -4.05231e-17
836 1 11.5686 50.5486 -4.05231e-17
837 1 5.27682 73.3143 -4.05231e-17
838 1 98.0276 178.504 -4.05231e-17
839 2 198.044 3.65375 -4.05231e-17
840 1 5.37799 205.67 -4.05231e-17
841 2 62.967 184.495 -4.05231e-17
842 1 95.3562 91.9601 -4.05231e-17
843 2 159.045 182.422 -4.05231e-17
844 1 28.9486 156.123 -4.05231e-17
845 1 70.5851 189.055 -4.05231e-17
846 1 159.152 190.459 -4.05231e-17
847 1 42.0875 140.581 -4.05231e-17
848 1 188.186 117.372 -4.05231e-17
849 1 189.207 166.501 -4.05231e-17
850 1 39.4564 127.684 -4.05231e-17
851 1 91.8378 41.6698 -4.05231e-17
852 1 11.6706 209.107 -4.05231e-17
853 1 30.8819 135.547 -4.05231e-17
854 1 171.385 84.7561 -4.05231e-17
855 1 125.76 19.2284 -4.05231e-17
856 1 209.9 170.101 -4.05231e-17