ITEM: TIMESTEP
0
ITEM: NUMBER OF ATOMS
9088
ITEM: BOX BOUNDS pp pp pp
-4.2645596979092137e-01 5.6310948595786456e+01
-4.2645596979092137e-01 5.6310948595786456e+01
-4.2645596979092137e-01 5.6310948595786456e+01
ITEM: ATOMS id type x y z
1 1 42.8018 26.8195 6.35032
2 1 17.3112 53.728 12.3469
3 1 47.7211 54.1132 56.2121
4 1 49.1939 9.48182 21.2048
5 1 27.7144 54.9404 20.6849
6 1 11.7391 7.72051 42.0021
7 1 16.519 50.4708 48.7274
8 1 27.3356 5.85684 11.0458
9 1 39.1197 0.818251 20.7501
10 1 22.0264 38.4879 36.6301
11 1 0.320193 3.93729 45.3201
12 1 47.7973 9.00123 35.812
13 1 47.7739 13.6572 48.3164
14 1 13.6231 52.7579 34.5888
15 1 1.13185 24.6188 23.2262
16 1 55.964 51.4406 33.5668
17 1 41.3989 9.57122 28.3162
18 1 46.4648 1.21462 40.0937
19 1 54.1118 49.1838 6.36531
20 1 15.8781 53.2209 29.5378
21 1 30.1883 37.6687 39.1746
22 1 29.9807 49.8716 36.2145
23 1 15.384 24.3642 40.1907
24 1 24.067 40.9977 36.2398
25 1 42.8264 2.62539 44.2307
26 1 48.7493 38.1326 13.2556
27 1 25.6722 30.0477 13.7962
28 1 53.9033 18.4621 23.4193
29 1 38.4585 25.2617 12.4209
30 1 48.1489 40.8654 18.9592
31 1 4.15871 25.3621 52.9734
32 1 44.3661 24.9603 30.674
33 1 43.48 51.8005 49.1245
34 1 45.9917 41.9939 50.4955
35 1 47.7809 43.6419 41.9008
36 1 41.8717 55.3655 27.6612
37 1 43.9552 44.9702 35.6142
38 1 51.5967 50.4133 47.8197
39 1 2.01318 19.5413 4.5985
40 1 40.8511 31.3704 28.5158
41 1 27.8565 38.608 39.9185
42 1 44.8452 31.4823 11.4733
43 1 19.8216 23.0072 26.4538
44 1 33.4484 11.5058 40.981
45 1 55.1241 26.3634 4.74596
46 1 17.9731 53.0987 27.7857
47 1 38.0164 25.6883 5.3404
48 1 9.23722 26.9187 50.0261
49 1 35.9923 20.9109 7.65028
50 1 27.2447 16.004 45.3913
51 1 9.35123 9.99091 23.9882
52 1 14.5251 53.0711 15.7875
53 1 49.7656 36.7173 51.6444
54 1 48.4433 51.73 51.3378
55 1 2.11159 6.47427 1.32672
56 1 35.3539 34.4179 10.6108
57 1 13.9611 19.9284 28.6231
58 1 40.6713 42.9577 27.9942
59 1 30.88 28.929 15.6312
60 1 8.16698 48.714 44.2759
61 1 13.9559 0.0780705 51.2166
62 1 48.1336 52.4866 21.0355
63 1 55.6338 21.6912 55.9821
64 1 41.2045 52.8069 37.9783
65 1 39.8189 46.0471 19.7285
66 1 21.4463 38.2375 23.0171
67 1 5.02831 22.5683 52.2773
68 1 47.9073 30.9854 22.1183
69 1 10.1018 51.9074 18.1094
70 1 13.6251 46.0021 10.3429
71 1 1.1046 9.658 12.56
72 1 23.6282 17.3074 7.57247
73 1 30.0912 17.4647 40.7071
74 1 55.2117 24.459 22.3213
75 1 20.2802 51.6912 33.7393
76 1 14.0201 9.78549 7.77394
77 1 11.3847 32.2112 -0.0349866
78 1 3.79971 36.1687 36.0495
79 1 6.8203 39.656 45.4842
80 1 49.1289 54.0613 38.968
81 1 9.1173 1.72606 11.1203
82 1 45.7912 2.59333 23.1683
83 1 30.8731 1.35001 11.3307
84 1 17.9668 33.951 29.3059
85 1 12.6315 26.9601 20.7052
86 1 11.1053 12.329 16.8225
87 1 33.2656 49.4976 33.7224
88 1 42.8968 3.64285 4.96749
89 1 34.5543 0.770795 21.023
90 1 22.26 22.6212 27.3671
91 1 47.9442 38.845 16.055
92 1 28.1904 54.5145 46.5449
93 1 43.3339 33.999 49.7718
94 1 39.608 43.9204 6.69953
95 1 20.9958 10.1521 22.0626
96 1 17.0642 46.6076 13.6574
97 1 2.40081 22.4246 22.4198
98 1 19.3323 4.49556 2.73653
99 1 17.8086 18.6541 30.4456
100 1 3.40691 48.6568 40.2683
101 1 53.4902 42.8659 36.0481
102 1 4.39585 36.3463 4.55391
103 1 24.891 54.657 39.7307
104 1 46.1838 44.4113 39.9609
105 1 10.606 10.4275 4.66543
106 1 4.84453 7.18152 2.3721
107 1 46.1899 17.567 23.1756
108 1 49.0138 6.68159 9.90355
109 1 44.5287 32.8814 31.2189
110 1 21.2353 24.3765 16.9633
111 1 6.43256 51.3521 32.4375
112 1 2.83212 9.64002 49.3248
113 1 28.0646 31.0447 31.2329
114 1 43.9112 10.761 8.29919
115 1 52.5319 0.618938 31.4415
116 1 28.3789 29.983 9.83163
117 1 32.9102 7.03816 36.7633
118 1 46.096 48.1778 9.50818
119 1 7.4934 54.6374 49.6268
120 1 38.7462 6.1941 26.4503
121 2 18.8517 43.7738 39.7372
122 2 51.5616 28.2414 12.631
123 2 51.6053 47.549 23.7301
124 2 50.5391 33.7037 15.303
125 2 10.1758 35.458 51.2662
126 2 23.1283 18.6888 18.5974
127 2 11.7882 52.6174 15.688
128 2 22.028 18.9921 37.0117
129 2 55.1102 21.4847 10.7697
130 2 7.3506 24.6538 51.9335
131 2 31.1646 7.24944 42.637
132 2 42.4604 45.3086 22.0921
133 2 31.8618 42.4678 19.0049
134 2 15.766 51.2359 10.1035
135 2 43.5408 34.8559 7.35502
136 2 3.30912 3.77035 38.023
137 2 43.4318 28.3755 47.362
138 2 2.0236 1.16993 47.0965
139 2 22.6202 8.31047 -0.405602
140 2 45.6488 26.4073 21.1664
141 2 56.2508 38.6396 22.6357
142 2 31.4584 22.4651 46.8211
143 1 12.0786 50.0063 17.804
144 1 25.6464 0.119696 42.696
145 1 3.81643 35.6746 21.0888
146 1 1.95282 0.406462 -0.290837
147 1 39.291 1.00818 43.0427
148 1 45.3467 30.1483 52.385
149 1 50.9239 1.80578 45.3357
150 1 41.5867 19.6322 41.7069
151 1 37.9267 37.13 31.0793
152 1 31.1553 18.4425 20.2244
153 1 45.295 4.18993 20.1264
154 1 20.3552 36.7579 15.2434
155 1 43.3412 53.5877 29.2542
156 1 21.8329 26.2525 36.1851
157 1 39.7345 52.2223 34.83
158 1 32.183 4.12452 -0.264166
159 1 8.75309 28.0253 22.8809
160 1 35.7966 45.1943 49.2073
161 1 8.73822 25.9514 41.8952
162 1 43.0464 13.7278 32.1203
163 1 48.2642 0.935521 50.5689
164 1 14.7455 -0.060259 32.3335
165 1 43.6878 51.4898 27.4126
166 1 27.1042 33.9312 29.1463
167 1 2.54943 45.1417 11.7427
168 1 11.6179 18.5001 29.7666
169 1 51.9906 32.4669 7.63935
170 1 48.7081 4.37876 8.07465
171 1 40.3412 29.0575 27.7102
172 1 21.3948 23.2903 5.26715
173 1 1.78976 42.3465 10.1529
174 1 14.5944 31.9239 6.23449
175 1 10.7988 4.14513 56.2373
176 1 41.2842 19.7243 7.73798
177 1 34.3282 51.6879 54.4056
178 1 30.8446 50.5816 41.1095
179 1 29.4544 19.5188 52.988
180 1 29.4817 5.69347 47.5488
181 1 53.6807 -0.00374802 54.6172
182 1 49.14 2.57101 18.6046
183 1 33.6191 0.0350362 4.77161
184 1 21.5587 10.7728 46.3166
185 1 42.3671 10.8538 47.8172
186 1 38.3539 10.447 37.8568
187 1 21.8258 36.052 12.5918
188 1 8.56765 35.6741 6.16872
189 1 14.8846 35.7721 35.4087
190 1 9.08142 49.6128 29.3206
191 1 19.8368 55.407 0.825053
192 1 30.0741 38.2029 29.7509
193 1 11.4427 44.0525 51.373
194 1 1.38328 42.9036 53.7423
195 1 13.8121 20.4085 43.0038
196 1 21.3963 36.1122 30.2107
197 1 22.998 3.49119 11.5515
198 1 13.2007 25.2382 31.0082
199 1 38.7752 28.5067 8.46255
200 1 31.0695 53.6167 47.1329
201 1 29.4643 6.31676 9.26622
202 1 23.7273 11.731 27.9515
203 1 17.4594 48.8373 51.073
204 1 55.4474 38.2739 51.3425
205 1 5.81017 36.2721 26.9756
206 1 26.0789 32.9651 13.1382
207 1 33.6705 48.1947 22.5455
208 1 4.33909 28.0244 37.9837
209 1 3.30008 38.0921 26.6102
210 1 11.5098 15.0089 20.3428
211 1 15.5099 26.8356 42.6784
212 1 33.4305 4.91035 10.7339
213 1 29.7307 28.718 8.05483
214 1 30.1632 6.21057 26.3657
215 1 20.1131 28.5853 22.1064
216 1 55.5792 43.7158 14.284
217 1 -0.349819 37.9736 10.0563
218 1 34.8269 42.075 5.93266
219 1 14.577 32.6863 52.4672
220 1 3.14351 17.9467 47.1903
221 1 51.6943 41.3576 15.1356
222 1 24.1699 10.1006 45.5857
223 1 27.0426 37.1523 44.5528
224 1 34.9449 28.5767 18.8956
225 1 29.9916 7.16176 45.3578
226 1 48.1072 5.87593 29.0666
227 1 54.4779 -0.281094 6.22087
228 1 45.247 44.1652 51.6686
229 1 22.0862 54.5853 12.5098
230 1 52.3514 9.71369 53.8337
231 1 41.0154 17.4254 42.8138
232 1 18.8737 1.93965 4.01814
233 1 32.1465 53.0024 20.7536
234 1 25.4877 55.4928 47.9113
235 1 25.1248 29.9397 45.6423
236 1 45.1476 47.7412 16.7876
237 1 28.3128 46.3284 50.641
238 1 18.9435 12.4783 9.15528
239 1 53.7525 33.8746 38.0936
240 1 43.8196 28.9036 8.53559
241 1 20.1576 46.1848 1.73321
242 1 22.3534 24.4145 45.8389
243 1 22.8245 29.5998 14.2926
244 1 20.6366 18.4004 30.3726
245 1 30.6766 18.2898 43.3613
246 1 33.029 31.6514 51.5849
247 1 45.754 33.1949 0.909973
248 1 5.79494 17.9925 14.0575
249 1 16.9175 21.7758 6.66173
250 1 32.8534 35.1756 52.6855
251 1 41.4439 54.171 21.8841
252 1 28.8538 36.1829 34.1604
253 1 27.361 16.5731 49.5466
254 1 47.9304 41.0179 46.0968
255 1 28.1313 27.1395 6.62211
256 1 52.8573 42.1067 18.0369
257 1 21.6752 6.10372 43.3285
258 1 54.4754 7.66472 32.9994
259 1 7.75849 37.8912 50.6117
260 1 11.7018 24.9887 35.2505
261 1 53.6583 55.5532 29.1799
262 1 18.2215 44.7247 48.8667
263 2 48.5018 24.467 33.8733
264 2 30.9567 52.0211 55.7525
265 2 47.1162 18.7037 56.2996
266 2 6.45691 18.0995 34.4
267 2 8.53821 27.4839 56.1971
268 2 4.18504 5.48618 12.7023
269 2 13.1049 7.39512 15.0223
270 2 41.8453 47.306 55.0135
271 2 53.8392 48.2259 29.1867
272 2 32.3731 44.7872 14.3831
273 2 27.6095 5.96489 28.7743
274 2 1.82743 28.8428 36.1423
275 2 20.8945 47.9266 4.02545
276 2 0.879032 14.3273 4.00063
277 2 2.06189 41.454 34.4105
278 2 10.6064 35.5801 18.4869
279 2 42.0907 51.211 54.9053
280 2 15.6357 2.10884 20.754
281 2 41.7618 24.2365 29.2665
282 2 10.4598 25.7118 7.64787
283 2 41.5663 53.3672 32.8284
284 2 13.7283 25.0948 37.8082
285 1 52.6817 10.497 45.361
286 1 55.3547 29.6887 26.376
287 1 36.5875 50.5846 55.922
288 1 5.10262 3.71336 8.18395
289 1 38.4132 38.72 1.27721
290 1 49.1828 24.8309 30.7924
291 1 4.88075 17.5976 51.7643
292 1 25.1049 1.2311 24.5441
293 1 5.74089 23.9545 46.871
294 1 49.2083 4.84305 38.5964
295 1 40.534 54.6445 11.1113
296 1 20.021 17.1569 14.7927
297 1 35.9281 42.6804 -0.143801
298 1 8.49764 47.5721 27.9582
299 1 24.2682 1.9674 5.00831
300 1 17.917 22.4643 19.0589
301 1 20.1907 45.38 37.4152
302 1 7.67791 1.83144 1.7318
303 1 9.35921 34.8186 29.541
304 1 22.9398 36.0726 27.9417
305 1 21.608 24.3371 41.3354
306 1 35.6463 28.0707 33.0414
307 1 8.83296 37.2061 27.1303
308 1 41.4731 43.6516 31.3648
309 1 10.2639 32.0419 53.5301
310 1 45.4043 3.6337 48.2051
311 1 39.3755 40.4001 42.9134
312 1 26.2588 48.7541 5.66728
313 1 2.02061 5.81882 27.5121
314 1 19.496 26.0203 38.2199
315 1 55.3772 48.9796 4.09235
316 1 53.9893 4.4964 1.63036
317 1 40.8651 5.73685 49.4133
318 1 38.0925 27.9531 27.6963
319 1 14.1566 55.5689 25.8092
320 1 32.7159 11.9794 -0.231058
321 1 1.26725 1.19044 19.7146
322 1 50.929 36.0771 26.548
323 1 12.1223 31.4058 43.8941
324 1 44.1649 20.9095 37.7139
325 1 13.7301 20.8254 37.5613
326 1 27.1276 31.8307 15.5369
327 1 3.04548 17.9193 15.3402
328 1 36.4091 46.6777 37.8247
329 1 50.662 33.4413 54.0652
330 1 54.2276 21.2315 28.9669
331 1 21.8634 36.9054 25.3249
332 1 54.1078 39.515 43.1952
333 1 18.8533 48.9262 34.1652
334 1 16.5407 31.7044 21.2318
335 1 20.4483 40.7673 9.48863
336 1 33.2861 25.3664 47.6628
337 1 32.3356 30.1807 3.4514
338 1 47.9475 21.6204 35.6653
339 1 28.4643 54.6325 54.1743
340 1 8.30145 24.7712 19.2953
341 1 23.3516 13.8417 42.3001
342 1 15.7785 43.779 34.7764
343 1 14.1929 8.93044 53.1258
344 1 10.5562 12.6627 8.88385
345 1 21.8621 25.1608 26.1586
346 1 11.9428 44.7705 8.92079
347 1 12.9978 24.8565 49.1638
348 1 4.30179 46.2681 55.6298
349 1 42.5321 0.811036 5.58586
350 1 37.3996 13.0196 37.8186
351 1 39.424 40.9665 45.822
352 1 32.268 33.2559 24.5418
353 1 17.9975 14.6918 13.8303
354 1 8.49304 19.2322 26.4978
355 1 55.9476 18.8964 51.0557
356 1 1.48196 35.9471 23.1669
357 1 19.0861 35.1118 13.5467
358 1 25.1889 27.67 20.7534
359 1 25.4276 38.5774 35.4475
360 1 1.25328 56.1149 31.1054
361 1 26.2216 49.5395 56.2104
362 1 54.0686 10.0185 18.593
363 1 21.7279 30.8728 49.8643
364 1 18.9555 2.87579 42.2533
365 1 37.6702 23.8049 47.4376
366 1 10.0679 5.57812 39.867
367 1 29.707 19.61 11.0968
368 1 54.8914 34.0071 26.7574
369 1 9.33458 48.2336 22.5996
370 1 8.60672 46.2374 33.8574
371 1 54.4819 14.7269 26.7082
372 1 12.0225 35.4876 40.7544
373 1 20.7657 8.77855 5.03952
374 1 14.5101 24.7909 51.9287
375 1 25.7317 52.9007 47.4708
376 1 13.5928 3.24684 28.2302
377 1 40.1985 44.8039 55.5331
378 1 24.9508 20.4117 20.4841
379 1 30.8836 39.711 8.96321
380 1 35.0125 6.21766 9.24351
381 1 34.1289 16.0293 15.5509
382 1 37.916 15.5825 29.0337
383 1 1.98964 16.3238 9.42483
384 1 15.4025 47.3029 45.5486
385 1 24.2411 45.2773 46.7346
386 1 43.2997 32.1563 27.1729
387 1 52.0325 4.6688 24.5676
388 1 16.8732 35.0008 4.45489
389 1 38.9488 15.5831 18.0548
390 1 32.5399 6.96698 30.8694
391 1 48.6524 5.32125 54.2643
392 1 40.1796 42.4608 53.3447
393 1 42.2523 44.8928 3.03089
394 1 25.6337 12.6118 7.47262
395 1 11.6862 30.558 18.4416
396 1 23.8015 28.7544 25.9863
397 1 5.79133 13.4134 55.7355
398 1 16.1796 42.7922 37.3638
399 1 27.2479 23.332 54.4008
400 1 22.9422 8.33284 41.9774
401 1 33.2646 32.941 46.2386
402 1 36.7906 2.13361 54.0302
403 1 22.8484 35.071 36.9146
404 1 34.1259 3.38737 4.6882
405 2 15.9709 9.21904 16.6625
406 2 35.9218 32.9419 4.79558
407 2 36.5925 7.40384 6.83421
408 2 32.5828 46.0489 19.8732
409 2 35.5854 46.083 22.6279
410 2 40.0689 49.0126 19.0236
411 2 7.54235 45.3477 17.9884
412 2 2.09495 2.78199 41.6006
413 2 28.1121 19.5976 50.1986
414 2 6.80347 33.9339 3.99656
415 2 0.413891 50.5314 6.67679
416 2 4.7135 53.2414 54.4617
417 2 47.7952 0.329882 55.6791
418 2 7.50218 36.4247 12.0495
419 2 13.2552 2.10697 24.966
420 2 23.9356 17.3665 30.0885
421 2 36.4313 44.1177 3.41923
422 2 31.0008 17.512 8.5876
423 2 6.48071 56.1426 41.0484
424 2 0.303083 4.51767 3.17872
425 2 46.8635 44.6249 26.1056
426 2 36.2799 10.826 39.9849
427 1 36.251 49.2123 51.4863
428 1 46.9956 40.1302 36.754
429 1 21.173 52.616 35.9677
430 1 34.7666 9.75252 13.883
431 1 45.7546 45.9453 14.5493
432 1 20.5379 6.50483 18.3672
433 1 53.9258 54.9425 16.9813
434 1 10.1906 39.4832 36.3701
435 1 53.0088 42.1593 7.39745
436 1 50.4502 28.2983 0.386747
437 1 21.8034 32.3416 36.2305
438 1 23.9421 45.4777 30.049
439 1 35.8483 35.7116 6.19777
440 1 7.9607 25.6724 14.1979
441 1 2.75998 8.25093 27.9695
442 1 45.827 31.5364 29.2524
443 1 21.1525 40.7353 30.3645
444 1 27.3141 13.9005 35.7819
445 1 17.3356 1.39754 30.1562
446 1 15.8908 33.8891 42.5552
447 1 7.41476 8.12724 50.6761
448 1 45.8107 54.7558 54.2684
449 1 39.3102 25.3372 54.9035
450 1 38.4724 40.679 11.2949
451 1 34.249 19.7255 26.7693
452 1 31.7363 24.724 52.1817
453 1 25.3655 30.4741 24.5126
454 1 7.2416 3.29697 12.567
455 1 1.67956 24.1242 44.5849
456 1 9.5207 55.3005 54.6106
457 1 53.8855 11.9953 20.504
458 1 33.5007 23.0513 23.7105
459 1 39.3209 34.367 23.4562
460 1 30.178 0.327429 8.18001
461 1 18.2828 29.8101 20.1639
462 1 11.3714 41.5572 5.55982
463 1 48.5981 36.9936 26.1477
464 1 7.33207 42.4982 13.9268
465 1 41.5281 14.9532 34.4289
466 1 23.8191 5.86872 0.945474
467 1 54.9844 31.7903 5.91481
468 1 28.1986 16.9378 52.087
469 1 13.6986 42.7723 54.0348
470 1 52.8882 23.2624 12.561
471 1 22.6252 17.5333 15.7623
472 1 2.07632 32.1141 43.9407
473 1 28.6103 43.4 34.3575
474 1 38.2096 3.50044 44.6621
475 1 52.2405 13.8224 44.9993
476 1 18.4469 39.1459 29.7704
477 1 15.2333 9.76809 29.7809
478 1 39.1032 9.1384 27.3564
479 1 14.1334 50.5276 20.5601
480 1 18.9103 15.873 54.5404
481 1 41.2103 31.7901 3.43729
482 1 40.7472 6.76914 44.3324
483 1 12.1679 18.1835 38.1397
484 1 28.7047 26.8565 40.8654
485 1 55.4527 2.04029 54.3542
486 1 5.26042 22.434 4.63602
487 1 16.2537 19.3078 1.74004
488 1 40.5517 4.22949 45.3432
489 1 12.288 4.48613 7.12429
490 1 36.1861 17.7487 36.797
491 1 35.8909 15.1628 27.0694
492 1 19.0467 41.9691 28.7275
493 1 47.4683 11.0399 55.7878
494 1 11.922 53.4037 43.6695
495 1 14.0766 4.99846 23.7744
496 1 22.2748 13.4435 44.8458
497 1 28.6737 16.7416 20.8063
498 1 54.9755 4.47731 47.7315
499 1 22.4871 52.8601 21.1113
500 1 55.302 34.9185 55.5326
501 1 12.7095 5.94636 21.1303
502 1 3.79708 24.3877 39.7669
503 1 -0.134163 4.79108 50.2873
504 1 47.2582 23.2536 38.6894
505 1 19.9139 8.38295 42.9871
506 1 32.8744 25.3523 7.76889
507 1 41.0622 7.5257 53.7419
508 1 53.8033 13.5987 54.4919
509 1 0.357939 34.6104 31.6168
510 1 52.6786 47.8766 17.9181
511 1 25.2538 46.9772 34.0753
512 1 50.1817 18.5177 34.4428
513 1 17.2639 44.5804 24.5912
514 1 54.846 24.4861 33.8617
515 1 37.0615 41.2585 8.67296
516 1 10.5731 11.5807 1.299
517 1 29.8966 37.6302 7.35377
518 1 2.14514 2.66804 34.0412
519 1 26.8398 0.709364 4.6431
520 1 52.5749 23.2855 40.0839
521 1 16.5958 3.44652 39.4746
522 1 29.4695 31.7708 40.3819
523 1 31.1362 20.2168 13.429
524 1 42.691 42.7617 36.8299
525 1 16.6174 3.01698 31.9936
526 1 16.1938 16.9957 41.4214
527 1 34.9586 34.491 13.3548
528 1 30.0931 31.4242 3.75775
529 1 3.83674 19.752 44.5164
530 1 8.26119 39.5002 40.4006
531 1 38.0772 18.8089 23.311
532 1 12.5278 20.8196 33.7966
533 1 42.7269 54.5149 14.6023
534 1 26.1049 49.4604 39.0968
535 1 40.2156 7.27263 2.78185
536 1 22.3959 20.4967 8.68675
537 1 5.67208 21.6472 34.4934
538 1 38.9525 48.8753 16.2258
539 1 39.7526 45.9549 34.5355
540 1 27.8395 51.7749 31.2555
541 1 48.4331 17.9378 27.1109
542 1 44.797 54.5044 23.9673
543 1 16.245 41.044 17.002
544 1 43.9127 36.4168 4.18022
545 1 32.0127 20.7109 39.1394
546 1 40.367 38.1891 44.2855
547 2 8.19503 43.8742 21.4046
548 2 4.27527 54.4966 48.7681
549 2 39.4083 0.655297 10.3628
550 2 15.1314 47.7696 0.981684
551 2 50.8162 0.428925 20.9927
552 2 1.51494 6.9024 40.0805
553 2 32.2666 9.39355 16.4642
554 2 23.8224 52.9031 50.0715
555 2 14.8477 13.8513 19.7739
556 2 12.845 38.2755 49.9677
557 2 1.29465 0.616236 25.9998
558 2 16.8312 36.5909 12.1242
559 2 35.3579 16.8663 24.2477
560 2 9.74929 12.863 22.6449
561 2 34.9266 2.8547 45.5
562 2 3.51336 13.1713 30.362
563 2 28.3466 51.5067 39.0114
564 2 10.3347 56.048 36.7735
565 2 20.6353 21.429 34.6652
566 2 26.6636 10.2661 27.9522
567 2 53.4966 36.4268 11.1487
568 2 32.7596 10.3105 20.2776
569 1 29.0461 31.2125 52.3446
570 1 33.0876 33.1472 19.2084
571 1 27.1868 4.78694 23.1296
572 1 55.4585 56.0802 3.09169
573 1 11.3729 1.26958 5.9477
574 1 10.583 40.9359 39.3123
575 1 42.6755 45.2701 -0.000487158
576 1 6.50752 13.5612 31.5256
577 1 9.13856 42.649 51.5046
578 1 26.8201 30.82 41.1786
579 1 19.5738 28.5117 2.43839
580 1 16.9992 11.7616 18.8775
581 1 1.71754 35.2287 5.23145
582 1 43.3895 40.5732 17.1685
583 1 19.4176 55.0609 16.3132
584 1 31.6773 4.35753 21.709
585 1 35.0285 21.5105 15.384
586 1 11.1184 24.3558 29.6285
587 1 30.944 27.2192 5.9538
588 1 6.18807 47.0175 27.3181
589 1 42.6519 37.5208 35.6948
590 1 20.0238 54.3406 10.9629
591 1 10.0245 22.0468 55.8114
592 1 4.43562 54.7775 43.5937
593 1 11.8782 55.2325 39.4241
594 1 39.1753 51.5807 28.1639
595 1 26.9467 0.34218 45.8969
596 1 49.4989 54.2999 6.00495
597 1 54.8917 13.0694 28.9441
598 1 55.4517 44.455 47.6958
599 1 46.6994 35.0221 7.06397
600 1 55.3938 6.61953 38.6135
601 1 17.1058 31.8072 51.5993
602 1 34.6074 48.9461 9.90071
603 1 13.0681 20.8363 3.883
604 1 46.131 48.2621 5.87513
605 1 3.26237 10.8131 27.9328
606 1 34.8969 29.3771 55.9755
607 1 35.6073 14.7146 9.77474
608 1 41.931 38.9698 15.7318
609 1 25.6432 20.6234 56.1094
610 1 55.2298 17.0904 10.5476
611 1 40.9418 22.588 15.6704
612 1 21.7723 55.661 41.0656
613 1 14.7625 17.6091 15.0837
614 1 34.3657 26.9229 42.3083
615 1 40.4487 33.9806 53.2524
616 1 13.589 0.338758 1.94597
617 1 42.3326 14.984 15.9384
618 1 30.5104 54.3097 7.37472
619 1 31.8304 52.5759 52.8834
620 1 16.4753 33.1681 54.3304
621 1 27.3229 3.84995 33.4468
622 1 37.7119 36.6582 28.7205
623 1 51.0867 56.0649 24.0313
624 1 18.2356 36.9068 28.7897
625 1 38.6943 31.92 15.6216
626 1 15.0634 18.0922 30.2943
627 1 30.631 27.0369 24.04
628 1 8.06136 27.9751 29.6962
629 1 22.104 52.4215 18.4084
630 1 38.4152 38.1096 11.5901
631 1 33.3325 35.9091 38.3834
632 1 23.8936 43.5427 16.142
633 1 29.0951 53.6875 16.087
634 1 52.283 46.998 38.2541
635 1 3.12311 7.9871 16.8559
636 1 19.5126 12.4795 45.4653
637 1 51.3359 29.6373 41.45
638 1 0.984652 14.2946 36.3279
639 1 45.3842 55.3617 13.8815
640 1 34.8869 30.5392 44.938
641 1 6.68464 23.3212 24.123
642 1 41.0979 46.7077 32.1092
643 1 50.3524 17.1569 6.18672
644 1 13.044 33.2512 42.2199
645 1 0.0311843 47.0511 29.3766
646 1 -0.0525147 33.4674 42.0626
647 1 15.0264 48.1065 8.99039
648 1 41.8673 27.8006 24.7129
649 1 26.5516 -0.102545 13.6609
650 1 24.6314 26.2992 55.3716
651 1 14.4102 11.8771 17.3945
652 1 49.4921 19.3605 40.4971
653 1 55.1944 9.22136 30.843
654 1 15.3915 42.2953 19.628
655 1 15.9536 25.4821 3.8032
656 1 1.73805 33.6953 46.2074
657 1 16.9777 45.4575 44.2296
658 1 -0.235964 0.565644 29.2459
659 1 40.3548 -0.397613 38.4045
660 1 32.2832 17.2829 47.6661
661 1 12.9486 2.39313 3.91842
662 1 18.0205 3.57325 45.0676
663 1 13.1217 34.7952 37.5454
664 1 5.34266 27.6692 7.42121
665 1 30.812 54.9747 44.2718
666 1 5.72278 45.564 33.9274
667 1 48.6356 32.6129 36.9334
668 1 14.1605 45.2755 53.0444
669 1 9.75112 18.8759 9.3885
670 1 3.69 30.2335 1.41942
671 1 55.5176 53.1123 41.6774
672 1 19.8008 46.6664 39.6735
673 1 52.9577 36.6878 47.2452
674 1 7.37137 33.6968 19.2544
675 1 38.8926 38.1324 26.2236
676 1 1.50644 45.445 52.6534
677 1 17.028 12.0114 41.7448
678 1 33.9271 52.732 46.7724
679 1 12.78 18.1827 4.19846
680 1 38.7955 35.6158 43.7948
681 1 50.7783 0.54101 29.4182
682 1 37.4876 56.1995 37.6316
683 1 18.174 51.3927 46.0244
684 1 37.2502 49.7566 13.85
685 1 17.0965 12.458 35.8102
686 1 25.52 17.2405 21.4085
687 1 30.7725 20.961 8.95047
688 1 44.8487 9.87634 13.8779
689 2 21.0122 50.9438 23.9221
690 2 40.2282 48.463 9.24643
691 2 22.602 35.652 46.4025
692 2 2.75577 35.459 51.1629
693 2 48.5882 50.2532 27.001
694 2 6.83659 44.6345 53.7513
695 2 18.4765 25.0174 41.3867
696 2 21.7044 29.259 4.86861
697 2 4.22514 18.5646 41.9046
698 2 27.9172 19.6003 8.43575
699 2 46.0979 13.9224 44.0366
700 2 48.9544 55.867 8.65191
701 2 53.6089 21.3207 5.08183
702 2 35.0803 25.4132 35.1062
703 2 41.5819 47.4252 39.261
704 2 54.5705 18.7356 15.9516
705 2 54.7492 41.5747 2.3356
706 2 4.88816 48.794 45.4065
707 2 50.5386 8.12962 28.4686
708 2 52.4615 52.5106 45.5943
709 2 49.0195 17.1062 48.5189
710 2 56.2576 54.0096 29.3449
711 1 55.172 13.8187 18.3849
712 1 25.6823 21.2239 5.5592
713 1 54.1123 12.3314 23.633
714 1 21.3033 33.0134 46.8348
715 1 18.8932 54.1097 37.6632
716 1 42.3975 23.3108 44.9372
717 1 41.7056 11.6975 7.05594
718 1 11.1696 20.4013 36.0979
719 1 35.0878 56.1036 36.6088
720 1 30.7204 48.5558 45.9354
721 1 4.19639 48.8944 15.1054
722 1 45.3302 5.55127 29.8577
723 1 15.508 45.867 22.1988
724 1 54.7737 20.967 52.4148
725 1 14.5612 26.556 12.1658
726 1 50.5131 9.52776 32.1827
727 1 31.8496 40.6179 32.2938
728 1 22.1009 0.59764 19.5076
729 1 9.14653 50.347 16.1779
730 1 14.6409 53.0779 19.9772
731 1 27.7458 37.549 18.2475
732 1 19.6336 50.9872 43.7284
733 1 3.01908 16.791 54.0328
734 1 0.481378 45.0355 16.1206
735 1 16.5432 30.9298 18.342
736 1 17.9221 41.6578 10.8336
737 1 19.557 47.4145 28.5737
738 1 28.8885 52.4655 35.9379
739 1 10.9538 32.7357 17.1668
740 1 39.5793 30.1143 50.3423
741 1 0.00914138 47.3114 47.0425
742 1 6.97384 46.3298 23.5314
743 1 11.2952 17.8321 21.3734
744 1 5.0512 19.8514 3.98775
745 1 26.034 35.9055 10.0323
746 1 1.98066 3.69275 -0.0313765
747 1 2.5504 38.9705 24.0759
748 1 0.0401484 13.8882 15.8023
749 1 21.2151 30.2597 8.75353
750 1 11.2549 41.6135 52.9192
751 1 45.4236 4.92504 12.2844
752 1 22.6231 22.6925 15.1233
753 1 16.2737 34.2936 20.0991
754 1 23.401 49.5957 49.8493
755 1 33.8529 49.1313 17.9118
756 1 27.357 0.934903 0.212097
757 1 56.174 1.43704 40.9152
758 1 41.9399 27.3273 17.4303
759 1 23.573 50.2079 39.9728
760 1 11.3888 9.49949 0.0551903
761 1 24.8383 48.0898 10.156
762 1 33.435 14.3723 34.4653
763 1 36.4682 37.0533 18.3692
764 1 45.7818 31.4414 37.9137
765 1 29.1626 49.1077 14.0682
766 1 1.14613 20.4917 32.1307
767 1 16.5374 33.1084 39.8822
768 1 21.2955 50.0431 38.5762
769 1 36.0691 9.30269 36.6847
770 1 54.211 52.4343 16.4508
771 1 53.0812 -0.112341 12.2053
772 1 26.2092 55.7934 16.2896
773 1 35.6289 35.4502 36.3337
774 1 22.0635 33.2782 29.1548
775 1 32.2538 41.7539 10.4144
776 1 23.6583 32.7354 1.62953
777 1 0.560067 34.8431 53.4993
778 1 46.5152 5.62533 52.6192
779 1 30.1406 44.9144 56.2712
780 1 32.3378 20.5324 44.1519
781 1 1.3809 39.2036 42.9886
782 1 45.5559 21.4848 15.733
783 1 48.0843 46.9022 40.7539
784 1 47.4745 42.7148 8.02521
785 1 9.2694 3.38979 42.8369
786 1 12.9522 27.9663 7.84426
787 1 27.1683 34.2571 38.2158
788 1 31.6028 18.7504 27.692
789 1 26.09 13.4764 27.3634
790 1 50.3091 19.0213 46.4181
791 1 1.81429 28.472 2.82683
792 1 31.7814 49.1855 6.29679
793 1 32.2502 54.2831 29.3247
794 1 42.0459 25.88 2.29436
795 1 5.48874 17.9621 45.4468
796 1 29.6624 23.0196 4.69949
797 1 44.2365 35.985 18.1066
798 1 35.1362 45.3064 35.6822
799 1 26.0621 -0.253303 32.2402
800 1 26.4838 34.7397 15.2503
801 1 17.7451 9.28243 40.4077
802 1 18.3209 15.1378 10.9793
803 1 39.8835 17.2136 6.86145
804 1 53.1812 1.93121 -0.35516
805 1 48.1013 5.75941 12.6608
806 1 3.04765 43.9411 27.3458
807 1 16.6019 54.8873 31.8879
808 1 46.7301 35.5572 0.0901617
809 1 37.6221 26.1412 10.1282
810 1 34.9339 13.6605 16.9866
811 1 3.88227 5.34203 40.9576
812 1 41.6577 17.7048 12.197
813 1 56.0479 12.4005 36.9913
814 1 31.6002 51.4463 34.8083
815 1 13.52 20.4995 17.2982
816 1 15.2765 36.4627 49.3061
817 1 6.71624 0.762169 10.8504
818 1 15.883 1.77852 51.4452
819 1 41.2768 16.5709 28.9132
820 1 20.4033 40.2914 6.49189
821 1 8.97822 17.9515 28.9874
822 1 8.65422 50.8419 42.7006
823 1 38.8669 38.433 55.3609
824 1 45.1452 55.8266 36.5426
825 1 26.142 22.1192 8.35419
826 1 54.1268 34.4559 48.4755
827 1 15.1326 29.0181 16.5274
828 1 26.3183 32.3534 35.8682
829 1 13.4602 38.0007 23.3277
830 1 50.7978 6.52593 22.1724
831 2 1.26217 39.5146 46.7357
832 2 14.8521 25.9125 8.87772
833 2 20.4604 44.4507 24.1288
834 2 55.0454 28.0589 38.0649
835 2 20.4382 0.212376 29.1577
836 2 21.1357 7.72699 26.3435
837 2 10.0181 25.2587 21.6605
838 2 27.8059 43.4786 51.332
839 2 27.2184 35.1661 25.6509
840 2 4.54379 31.2364 54.832
841 2 17.3743 33.9791 23.3287
842 2 49.8356 7.25168 46.6037
843 2 33.6576 4.23041 37.9381
844 2 26.5921 16.7587 14.0886
845 2 8.00226 53.5008 19.8451
846 2 32.2568 29.4775 53.8294
847 2 49.0434 6.74676 2.96239
848 2 46.3978 52.9015 29.0217
849 2 32.6941 25.7532 44.6066
850 2 8.19545 36.5103 45.1924
851 2 41.1697 10.6263 10.031
852 2 51.2129 41.7684 22.6234
853 1 18.2997 29.9217 26.7061
854 1 20.3421 29.1837 32.6628
855 1 39.4857 15.1108 0.764303
856 1 32.7736 45.6707 41.9439
857 1 48.7535 39.4773 10.4916
858 1 12.4921 56.2342 30.5098
859 1 42.9513 51.8592 40.5946
860 1 39.1323 12.3549 8.11423
861 1 39.9584 3.4597 0.611951
862 1 37.8778 32.3464 22.2761
863 1 38.8864 1.69618 2.93083
864 1 40.8989 27.6501 53.3389
865 1 32.5958 37.1629 2.73422
866 1 29.6858 15.1573 28.7073
867 1 33.3852 10.2068 38.5866
868 1 4.11899 32.1911 3.17744
869 1 26.8703 42.4846 8.63256
870 1 35.1379 13.6875 50.23
871 1 12.2902 11.8034 42.4124
872 1 51.155 37.906 8.45168
873 1 6.62357 38.3301 31.1252
874 1 14.8057 8.91282 45.3998
875 1 7.44051 8.80638 16.1702
876 1 17.0557 53.1156 50.2608
877 1 28.3466 43.1641 42.2246
878 1 11.6054 22.7656 37.7033
879 1 42.7545 44.3428 43.7341
880 1 0.554919 42.2712 16.4888
881 1 4.51666 40.2805 47.5069
882 1 14.2601 48.8577 30.0567
883 1 51.315 11.5577 5.35233
884 1 46.317 40.9484 17.1206
885 1 8.57284 27.0894 44.4003
886 1 34.2419 49.2176 29.0149
887 1 4.19954 9.69934 9.46328
888 1 38.2951 39.0042 3.88858
889 1 48.0223 13.2363 31.1897
890 1 10.5861 52.9031 46.4832
891 1 47.5847 17.2176 51.5801
892 1 41.7509 49.4857 31.7012
893 1 24.2321 -0.0997307 45.5371
894 1 15.5879 1.39023 3.37309
895 1 33.2264 27.7722 11.799
896 1 52.1397 50.9666 18.0094
897 1 29.1652 28.3705 50.1202
898 1 27.0653 18.564 25.8907
899 1 54.4444 3.81937 22.6108
900 1 42.8912 49.1735 52.75
901 1 19.8515 17.0446 38.6159
902 1 32.2503 7.03699 20.8968
903 1 41.3131 49.7124 6.22025
904 1 11.2644 24.0831 25.9554
905 1 25.8672 2.2847 12.6699
906 1 25.812 17.7931 51.7257
907 1 30.6509 9.53789 48.0308
908 1 4.90206 5.8019 48.4212
909 1 12.2785 9.75927 12.9681
910 1 34.2347 10.6684 11.3851
911 1 14.3606 30.8003 0.820112
912 1 18.0753 30.4903 31.5606
913 1 35.8078 11.9672 19.2809
914 1 2.16914 52.5546 27.7797
915 1 32.2484 36.5202 34.161
916 1 19.4257 31.6994 28.6798
917 1 21.2043 40.1646 18.1603
918 1 18.1566 53.8391 53.7001
919 1 8.87418 16.4911 22.2062
920 1 51.4132 18.6479 4.15588
921 1 7.65992 22.3998 46.3958
922 1 46.362 5.20938 55.6218
923 1 30.8948 45.061 50.3627
924 1 15.0386 40.8987 27.3304
925 1 9.57388 53.1698 33.4242
926 1 20.5316 31.2316 40.27
927 1 5.9877 7.07572 29.6572
928 1 48.748 29.2693 14.6117
929 1 49.0694 53.4329 31.2442
930 1 18.8814 6.77762 4.87363
931 1 5.82637 50.0043 9.02455
932 1 11.0379 3.26993 17.8458
933 1 46.4699 41.8632 5.73092
934 1 12.1526 33.9466 53.8373
935 1 37.3073 9.02974 16.8412
936 1 6.26546 26.3162 54.2686
937 1 49.4922 3.66771 2.29686
938 1 16.165 19.4081 42.6382
939 1 21.703 36.0532 43.053
940 1 31.0528 23.9493 8.92748
941 1 42.1167 1.41818 27.5741
942 1 18.9878 55.7 26.3205
943 1 55.1949 43.8014 17.2951
944 1 10.7023 29.0612 14.4803
945 1 35.885 5.6025 51.3598
946 1 4.94449 52.927 19.0274
947 1 55.2515 29.936 35.8078
948 1 28.3296 25.6416 55.0427
949 1 21.4469 23.6691 54.0868
950 1 40.5029 40.5228 2.55551
951 1 31.5966 28.3812 21.8932
952 1 43.4759 46.3583 47.9306
953 1 39.5339 24.9683 39.8409
954 1 1.20228 25.1432 26.6461
955 1 7.85581 14.5185 20.5694
956 1 8.1944 15.7577 5.62233
957 1 12.0951 8.65457 20.3195
958 1 2.93922 36.1769 54.3839
959 1 51.7986 42.986 0.664598
960 1 51.1762 45.3611 2.14625
961 1 5.87489 2.11627 28.2036
962 1 21.3509 35.0478 5.59096
963 1 47.3549 46.8491 54.188
964 1 37.2653 49.2855 36.6945
965 1 5.76127 11.6385 28.9579
966 1 21.135 52.932 42.9155
967 1 51.042 0.454204 17.3129
968 1 25.8662 39.2907 22.63
969 1 35.1333 31.1882 17.5191
970 1 48.9062 37.2368 41.0679
971 1 15.5285 55.352 0.559217
972 1 47.9707 24.4678 9.82691
973 2 35.598 5.5407 26.9328
974 2 52.636 28.209 30.9841
975 2 30.135 47.8523 33.5397
976 2 2.58695 30.5877 47.2648
977 2 45.7142 38.5476 19.0899
978 2 0.247172 32.0451 27.3297
979 2 31.0664 41.6628 35.5229
980 2 1.87526 11.238 38.4869
981 2 41.8905 9.72397 4.20267
982 2 52.3832 38.0992 52.5311
983 2 7.54489 47.4103 3.08293
984 2 47.15 20.3679 38.5447
985 2 52.8928 56.0226 1.33717
986 2 56.001 22.408 43.4269
987 2 15.8068 7.9639 5.79502
988 2 55.5445 27.6679 47.8402
989 2 36.4891 21.7022 22.6755
990 2 54.0628 53.5955 11.2801
991 2 36.0937 11.6722 9.11819
992 2 18.154 17.8779 49.6996
993 2 2.71113 13.5274 54.55
994 2 48.3754 11.2917 33.497
995 1 6.40855 20.7029 1.67413
996 1 9.28638 18.2015 40.1358
997 1 47.3976 34.1424 21.9131
998 1 47.4053 20.3375 17.563
999 1 47.6897 21.5634 1.19309
1000 1 18.8694 29.9131 49.9199
1001 1 31.0499 42.5608 49.8142
1002 1 41.0506 17.6341 0.798876
1003 1 45.3578 27.4216 53.1241
1004 1 30.0565 32.3542 29.5561