ITEM: TIMESTEP
0
ITEM: NUMBER OF ATOMS
9088
ITEM: BOX BOUNDS pp pp pp
-3.3165179508558895e-01 5.6216144421045712e+01
-3.3165179508558895e-01 5.6216144421045712e+01
-3.3165179508558895e-01 5.6216144421045712e+01
ITEM: ATOMS id type x y z
1 1 23.908 51.9367 41.4673
2 1 44.6745 4.47489 36.753
3 1 33.6173 4.98467 40.234
4 1 37.3753 49.2534 44.2502
5 1 4.74347 50.169 14.6359
6 1 27.4615 25.2491 26.8566
7 1 16.4317 31.6856 7.9512
8 1 1.06914 3.98625 7.16298
9 1 55.5975 50.6302 40.2482
10 1 36.969 13.513 53.5356
11 1 48.6911 35.8838 32.5708
12 1 35.744 19.3812 37.0322
13 1 28.0592 44.7962 35.7269
14 1 19.0172 49.684 44.7827
15 1 3.11626 36.8984 30.0542
16 1 24.6118 52.2567 30.8534
17 1 50.693 9.86994 27.9041
18 1 7.4404 52.1167 30.8951
19 1 12.068 32.0134 46.6218
20 1 42.0043 47.3352 8.18032
21 1 25.1441 49.3799 50.5067
22 1 5.46361 44.4373 56.0579
23 1 18.4828 14.325 33.0773
24 1 3.52843 7.72377 55.6337
25 1 22.2634 31.2714 37.1583
26 1 19.844 27.8829 43.5347
27 1 34.3266 30.6659 0.563378
28 1 17.8965 38.0925 7.14301
29 1 1.05636 50.1281 28.3642
30 1 34.1612 0.368366 43.2638
31 1 32.8992 11.2658 3.01513
32 1 42.6937 9.70416 24.3266
33 1 19.1211 45.6793 2.18513
34 1 14.4587 24.5799 1.76051
35 1 11.4942 55.0227 54.0926
36 1 39.983 53.644 15.9117
37 1 24.8585 55.5022 44.679
38 1 25.5075 48.3118 9.79008
39 1 13.0327 26.2877 0.192973
40 1 8.52162 11.4028 47.915
41 1 46.6622 40.9904 1.11702
42 1 5.47167 38.9464 14.8393
43 1 21.8592 17.1772 9.32539
44 1 50.8677 52.197 23.3932
45 1 12.8303 43.8957 -0.24647
46 1 -0.101728 17.6021 11.0472
47 1 40.6269 9.69326 29.7203
48 1 22.0831 33.1661 2.9571
49 1 11.1816 29.0358 23.5158
50 1 18.6829 18.9256 23.1454
51 1 50.4848 32.3404 30.2165
52 1 26.6484 6.95295 39.1215
53 1 52.9206 20.4154 1.36567
54 1 41.8599 11.6622 45.0621
55 1 39.8194 45.1981 29.5471
56 1 7.91082 36.1196 8.00663
57 1 6.96233 33.0474 34.7805
58 1 37.4246 11.3759 21.7796
59 1 6.96098 26.707 32.0088
60 1 36.7813 38.9993 52.4903
61 1 10.482 25.5709 0.477499
62 1 50.1348 21.6614 20.4678
63 1 49.5458 43.5442 28.8313
64 1 22.4118 4.1975 16.382
65 1 11.8003 5.30036 53.337
66 1 9.90562 50.0047 50.3715
67 1 7.66891 39.3372 48.4156
68 1 10.9921 22.5233 52.7585
69 1 39.8571 28.047 50.8947
70 1 5.7878 26.0555 5.01823
71 1 52.051 47.0706 28.0938
72 1 55.493 29.4709 1.4587
73 1 25.9011 53.3456 12.1048
74 1 7.15574 27.4775 39.7816
75 1 37.8352 19.4745 5.14951
76 1 38.6217 23.8338 5.61436
77 1 49.1809 40.4866 35.3452
78 1 39.3461 47.0932 7.0385
79 1 31.9627 23.225 43.2232
80 1 43.6541 1.5941 33.4578
81 1 27.2286 20.9153 9.63153
82 1 10.4203 52.5693 21.1054
83 1 6.44923 18.7074 27.3493
84 1 38.5851 53.5026 52.6621
85 1 39.5348 11.204 38.565
86 1 34.8893 33.6219 34.886
87 1 24.7042 13.5866 47.3551
88 1 16.2268 11.656 12.8779
89 1 8.01243 4.52154 35.53
90 1 5.43627 30.8896 48.4379
91 1 17.974 8.04631 22.0336
92 1 10.2005 11.9475 19.5683
93 1 38.1986 9.8593 10.8452
94 1 29.2056 35.1583 24.948
95 1 40.9795 24.6638 18.9517
96 1 7.14755 0.251211 14.1562
97 1 3.42469 8.9541 32.7971
98 1 13.8454 29.185 30.6263
99 1 42.4278 36.2646 5.74104
100 1 4.30446 50.6666 24.7519
101 1 4.12973 33.0209 47.4425
102 1 8.10103 4.10318 13.1927
103 1 42.0617 43.6155 55.6442
104 1 17.8528 1.85939 40.2958
105 1 31.546 13.9702 10.8459
106 1 18.5895 54.6441 40.9121
107 1 34.195 2.37484 1.02837
108 1 50.0484 18.0667 48.4306
109 1 4.44425 47.7863 18.6927
110 1 31.2477 9.1848 10.5201
111 1 39.0562 3.79595 20.7576
112 1 5.44559 5.78852 10.2004
113 1 29.2113 33.49 11.188
114 1 13.5853 23.6736 38.1058
115 1 42.893 35.0022 31.0761
116 1 29.809 0.194922 34.7955
117 1 0.0474588 12.1958 40.5334
118 1 21.0604 55.4223 41.951
119 1 36.2588 35.8776 33.8638
120 1 14.8554 2.0322 40.2036
121 2 11.8855 39.1224 35.5748
122 2 51.6392 18.7393 12.8256
123 2 55.4277 46.8959 21.0402
124 2 52.673 29.8731 19.9266
125 2 54.0206 35.5032 38.6462
126 2 25.3846 7.49642 17.7207
127 2 12.3039 51.1864 15.6236
128 2 7.50746 30.0971 35.4672
129 2 55.4246 17.9295 7.82671
130 2 1.59185 21.0737 46.0261
131 2 52.0572 12.235 47.3396
132 2 39.5853 46.8461 17.5022
133 2 35.0979 43.1672 15.9448
134 2 14.9176 4.55963 8.9621
135 2 43.0476 33.8422 3.86898
136 2 9.99669 0.361852 32.0737
137 2 40.4949 24.0936 46.3842
138 2 4.87691 4.52856 49.3956
139 2 30.9819 14.7228 13.8123
140 2 45.4176 27.09 38.8767
141 2 7.85987 38.5708 22.8481
142 2 29.9107 23.3375 40.4497
143 1 52.7456 17.6616 38.4067
144 1 39.4499 21.964 19.8498
145 1 54.0276 12.0214 6.69197
146 1 52.4442 26.7184 15.1199
147 1 30.8912 33.3071 25.5919
148 1 20.8597 10.7874 24.3027
149 1 47.9864 4.15501 39.9647
150 1 25.023 25.4179 9.66858
151 1 51.4947 25.5412 51.9254
152 1 8.64273 35.4021 44.5692
153 1 50.161 48.4867 29.5488
154 1 43.2601 41.6669 31.1149
155 1 32.3496 18.6321 10.2582
156 1 22.7877 41.7927 0.41256
157 1 51.6339 34.4665 22.1082
158 1 39.4659 12.8266 44.1856
159 1 55.014 51.3205 5.97181
160 1 48.1343 4.53561 0.308203
161 1 7.33962 25.8125 26.8335
162 1 13.0462 12.7123 44.3005
163 1 19.9817 21.3833 26.2325
164 1 55.4852 38.8064 11.7981
165 1 51.664 36.2294 6.44161
166 1 45.6285 41.7642 14.6395
167 1 31.0601 40.0693 46.2698
168 1 41.9136 10.5127 5.24464
169 1 26.1018 47.2399 43.8269
170 1 39.5984 33.7366 47.0491
171 1 28.5225 32.8287 23.8918
172 1 22.8651 46.8689 31.3183
173 1 9.55873 35.5119 22.1994
174 1 35.3713 1.57349 32.6228
175 1 18.8005 27.8756 16.4307
176 1 39.6597 37.0122 6.47609
177 1 9.95814 4.73104 25.4877
178 1 25.038 15.9621 48.3777
179 1 17.9374 37.4275 38.2879
180 1 56.1155 29.0064 6.84
181 1 48.8425 42.8981 31.7602
182 1 52.0767 30.8858 51.3013
183 1 13.2738 20.181 3.79334
184 1 27.8158 51.345 12.031
185 1 35.0061 6.20867 38.1311
186 1 34.1526 22.0673 20.073
187 1 1.73184 6.82239 53.7045
188 1 28.5679 39.2824 2.89621
189 1 13.4099 41.1582 33.5679
190 1 35.3812 48.985 21.9941
191 1 24.955 24.2542 53.2995
192 1 49.5422 54.4845 5.99525
193 1 37.1169 8.69569 13.6216
194 1 36.0342 3.85259 31.1792
195 1 7.72851 43.2428 49.1849
196 1 43.7198 7.22844 23.8958
197 1 7.11077 8.98301 49.2599
198 1 17.5167 12.4674 30.0112
199 1 31.4227 18.7901 3.30363
200 1 39.9323 20.3942 41.5196
201 1 26.9355 12.8098 16.2439
202 1 44.0671 50.2736 16.9891
203 1 30.8315 26.808 39.8282
204 1 45.4281 34.5606 20.2387
205 1 14.0434 17.9856 5.24948
206 1 38.9914 29.7252 21.0382
207 1 54.4112 42.5007 35.8609
208 1 31.9597 5.08617 10.717
209 1 34.7365 54.7356 47.4351
210 1 27.2617 21.5567 41.8716
211 1 6.85889 3.58578 22.3774
212 1 43.9303 35.0773 44.0055
213 1 22.3994 12.4233 51.3011
214 1 0.902433 37.5965 2.17673
215 1 12.2296 33.468 29.9088
216 1 0.0488843 26.2246 48.8523
217 1 20.2839 6.71381 36.0266
218 1 1.095 9.77503 54.3477
219 1 41.2473 56.1282 19.3164
220 1 26.0705 17.4442 36.254
221 1 49.4509 45.5164 4.60533
222 1 52.0913 1.77264 19.4143
223 1 20.026 33.6347 4.56644
224 1 35.3144 51.8488 14.2294
225 1 43.6898 48.8295 38.3612
226 1 12.7417 42.0832 25.4414
227 1 19.995 45.641 33.4569
228 1 56.2076 20.2456 52.847
229 1 22.4789 17.9983 47.7646
230 1 31.3344 30.4117 41.4706
231 1 28.2444 29.9294 31.4941
232 1 42.1379 19.6475 13.0932
233 1 50.9941 50.1471 38.2702
234 1 20.2774 18.8231 39.8968
235 1 43.4791 27.6602 43.6404
236 1 1.29356 52.1809 30.0481
237 1 54.9211 34.7747 18.2382
238 1 35.4194 4.69814 3.01952
239 1 34.0011 28.719 6.13379
240 1 9.37931 32.9442 51.21
241 1 20.3298 48.9454 10.8342
242 1 51.8687 3.35598 36.6657
243 1 12.3563 13.7923 33.1949
244 1 25.3815 1.87973 40.8462
245 1 1.17462 27.9753 19.7937
246 1 5.70523 5.08304 3.82055
247 1 2.89001 48.3369 -0.330845
248 1 44.5012 0.273012 45.833
249 1 1.91769 37.8759 49.4122
250 1 23.6312 24.6569 17.798
251 1 20.6194 45.078 13.29
252 1 39.3411 23.4423 53.6009
253 1 2.88286 26.9844 48.4089
254 1 5.02276 56.0628 33.2787
255 1 55.5828 9.37842 17.9896
256 1 30.9554 47.6992 24.7402
257 1 1.6735 12.502 35.2609
258 1 33.6179 18.8648 27.7307
259 1 45.8418 45.9306 55.1099
260 1 25.105 41.7735 34.1266
261 1 31.8653 10.2439 39.7534
262 1 39.3992 55.8129 22.7701
263 2 43.9684 24.5123 29.3849
264 2 25.2216 47.6852 1.46809
265 2 50.0989 7.33681 49.3821
266 2 6.80562 24.6374 38.5871
267 2 14.7714 21.3396 1.2662
268 2 4.46054 3.24621 25.1149
269 2 15.2458 2.12863 16.7203
270 2 44.5066 43.3071 53.7089
271 2 53.9873 44.9907 26.2087
272 2 33.5846 40.4152 13.689
273 2 33.4972 5.82862 34.7513
274 2 52.9853 27.0431 30.6319
275 2 27.1442 7.26614 53.1357
276 2 56.1983 13.7602 4.54498
277 2 1.25235 43.3825 39.4388
278 2 9.60323 36.257 19.0423
279 2 44.0848 51.7915 46.6892
280 2 20.1575 55.3394 22.1856
281 2 41.5559 16.8687 14.7201
282 2 15.2683 28.8948 8.37707
283 2 46.8004 47.8021 29.0304
284 2 16.7591 27.2574 34.6486
285 1 5.57631 37.4237 7.15637
286 1 49.6713 34.8554 20.3813
287 1 40.3478 55.0919 39.6809
288 1 15.1362 13.4258 30.2727
289 1 12.8713 30.0671 4.9268
290 1 51.1331 13.4466 24.6824
291 1 27.5988 38.5167 38.6842
292 1 29.1073 56.0298 44.9935
293 1 54.5366 19.4354 55.3903
294 1 30.9414 32.9557 41.6805
295 1 47.222 25.2779 29.9387
296 1 12.4151 32.3766 35.3538
297 1 48.0298 14.0262 33.7409
298 1 31.019 22.3972 13.3009
299 1 38.0312 8.65923 21.9431
300 1 24.7946 31.8604 9.38459
301 1 24.7748 49.9326 22.9768
302 1 47.4298 35.907 24.3061
303 1 54.2179 3.41044 1.27458
304 1 10.7994 42.2598 55.9455
305 1 25.9416 38.5062 23.0445
306 1 31.7521 54.7407 54.7668
307 1 5.08632 39.8965 32.2026
308 1 40.0823 54.0302 45.3206
309 1 49.6203 30.8726 28.1907
310 1 15.3087 47.9027 38.7157
311 1 38.4022 35.0144 5.18296
312 1 10.3673 7.60951 25.8235
313 1 5.03673 55.7409 18.3315
314 1 28.8551 47.6648 53.2674
315 1 4.52758 6.30258 14.8427
316 1 44.0502 10.4782 10.5172
317 1 30.6239 32.08 39.1388
318 1 5.64045 23.1584 11.1914
319 1 2.27919 0.790559 10.3426
320 1 18.9832 33.7394 25.245
321 1 26.2963 38.9227 34.0279
322 1 55.3787 21.8671 22.9657
323 1 8.04064 16.851 28.9457
324 1 18.1517 8.51423 32.2859
325 1 21.5822 46.1571 43.0758
326 1 17.0254 31.6729 41.136
327 1 14.6753 14.1547 35.0907
328 1 0.26701 8.00908 36.5612
329 1 4.39135 25.5982 45.1444
330 1 7.73186 25.2182 24.1401
331 1 11.0778 29.8945 55.0822
332 1 6.45482 42.8355 5.49742
333 1 9.76084 9.41546 14.2685
334 1 33.7885 35.2522 22.9165
335 1 39.4958 2.50842 45.2285
336 1 50.23 21.4135 12.985
337 1 0.68913 34.3407 7.61257
338 1 17.2503 21.2299 22.625
339 1 11.8294 11.57 9.67089
340 1 25.0657 23.4952 26.2561
341 1 26.7741 50.9087 24.8592
342 1 55.1856 24.4887 18.2057
343 1 36.9737 16.2006 25.5561
344 1 33.1043 15.983 11.4257
345 1 48.9338 16.8719 3.70538
346 1 51.4743 5.88327 21.5922
347 1 19.8208 18.3268 11.0158
348 1 13.1628 10.553 23.0353
349 1 4.04928 37.1353 10.2353
350 1 0.347552 45.514 45.6734
351 1 46.7951 37.7558 5.89395
352 1 22.254 5.24432 -0.302109
353 1 24.5066 34.543 53.8634
354 1 47.6844 34.8569 37.2251
355 1 48.9554 28.3993 38.7678
356 1 9.93886 40.3193 43.0499
357 1 20.0176 47.9119 52.3371
358 1 17.1685 24.7686 55.0383
359 1 29.0653 44.8649 46.4595
360 1 14.6265 37.995 50.3486
361 1 32.5803 20.295 43.2063
362 1 1.93305 49.6716 8.93161
363 1 44.6188 18.3776 14.8395
364 1 32.6302 8.30217 37.0733
365 1 28.1525 51.3343 16.7548
366 1 14.4223 43.0935 8.46428
367 1 2.66729 47.9463 29.0836
368 1 40.5481 47.8402 27.2329
369 1 33.2374 14.4124 16.1203
370 1 5.39558 47.3874 55.8822
371 1 23.4351 29.6887 0.420949
372 1 14.4932 16.2905 29.3579
373 1 12.7153 52.9164 49.0207
374 1 47.1748 50.2062 2.19206
375 1 14.9655 52.0798 39.7406
376 1 43.2867 48.9479 25.091
377 1 17.5976 28.0395 9.95911
378 1 28.969 52.8621 21.183
379 1 49.569 40.1881 22.3126
380 1 11.2283 13.324 26.998
381 1 34.2066 53.3088 23.836
382 1 54.1212 22.5452 5.91797
383 1 11.2543 19.5065 23.7728
384 1 51.6239 16.8702 34.1608
385 1 29.6407 9.03813 19.8963
386 1 36.3148 38.9712 23.1686
387 1 22.4082 34.5779 42.1485
388 1 24.4847 6.66819 40.7157
389 1 26.5479 11.082 14.2168
390 1 45.3168 48.9376 32.0334
391 1 20.0889 3.74809 7.00505
392 1 48.7328 48.9215 37.53
393 1 3.40293 27.96 0.952578
394 1 2.98499 38.0389 46.4745
395 1 54.6634 7.76586 48.4513
396 1 7.35553 50.2499 24.6404
397 1 51.7221 24.4864 22.9313
398 1 13.3555 25.5153 46.797
399 1 6.9757 54.3925 42.2978
400 1 35.7035 43.0199 27.5156
401 1 18.7468 30.6762 25.0001
402 1 31.8593 48.4399 43.8034
403 1 13.0807 42.5575 28.3988
404 1 25.6731 35.4708 41.7678
405 2 19.6203 7.87349 14.3657
406 2 36.1779 30.7566 7.77879
407 2 34.3378 13.2598 12.5885
408 2 25.0597 49.594 12.733
409 2 47.435 0.573349 16.4657
410 2 36.7312 49.4565 16.5092
411 2 5.91285 41.5304 16.8404
412 2 54.0696 8.69801 35.9434
413 2 31.2157 21.5385 45.6056
414 2 12.6325 35.3127 47.6197
415 2 55.8296 51.9784 9.30276
416 2 52.0229 42.888 55.389
417 2 44.0481 4.84821 10.3826
418 2 7.40964 36.0334 11.1392
419 2 15.5566 54.5588 22.568
420 2 23.9301 23.2312 23.4819
421 2 41.4825 49.9149 9.70879
422 2 31.9403 16.2789 8.0869
423 2 8.1569 0.551272 42.9327
424 2 52.1959 10.2355 5.17244
425 2 47.778 52.0186 39.1692
426 2 37.3368 8.50515 38.5303
427 1 28.0075 27.173 0.118418
428 1 9.86521 50.253 13.9068
429 1 -0.0498449 25.9374 53.628
430 1 20.2249 55.6191 6.20407
431 1 20.0608 47.4062 26.2299
432 1 42.7012 6.21566 7.80812
433 1 32.0126 20.1 20.1203
434 1 20.8152 21.8799 38.2569
435 1 23.1441 52.262 8.80958
436 1 32.3418 32.1388 48.6143
437 1 25.9063 24.3078 33.4746
438 1 47.3516 3.34191 35.4641
439 1 1.46406 38.2998 54.5
440 1 9.25594 12.7682 29.1562
441 1 22.3456 14.2818 10.6358
442 1 42.6156 18.6734 17.0332
443 1 47.8624 7.29405 18.8344
444 1 9.94893 47.935 39.9187
445 1 5.2666 14.7298 17.5662
446 1 38.4926 31.3227 40.112
447 1 20.809 51.7539 10.2388
448 1 29.2328 14.0917 55.5008
449 1 54.4653 6.77816 29.1865
450 1 46.1364 25.1164 51.9836
451 1 26.1821 44.3306 2.21958
452 1 52.8765 22.3777 24.1651
453 1 10.4164 15.2335 25.016
454 1 6.79922 33.1425 52.2336
455 1 17.2742 14.6732 23.4921
456 1 39.3777 2.12013 48.1321
457 1 53.6356 41.341 20.0541
458 1 27.4975 20.1281 36.8117
459 1 2.46506 34.8997 9.67065
460 1 25.7977 54.2956 40.8163
461 1 8.26336 16.3946 17.6151
462 1 48.8113 27.691 9.20781
463 1 16.6399 2.15187 4.57319
464 1 31.6961 52.8579 22.6539
465 1 4.72871 44.503 34.3336
466 1 5.19596 48.7773 12.3589
467 1 42.8639 37.5639 45.1896
468 1 38.1633 9.25031 50.7025
469 1 15.4865 40.4758 23.3237
470 1 28.601 0.20883 14.9466
471 1 26.6182 9.89839 3.37823
472 1 6.88534 19.5337 29.9218
473 1 50.0558 41.2152 45.7414
474 1 34.7676 18.2067 25.0013
475 1 23.098 24.9764 20.4746
476 1 13.7249 30.1143 25.4018
477 1 49.2381 3.41597 37.4427
478 1 38.7117 9.60412 19.3625
479 1 55.4951 25.8555 35.3235
480 1 45.6986 13.7775 6.21602
481 1 25.183 56.2066 49.3404
482 1 30.3213 37.1667 23.005
483 1 46.4775 19.4681 34.6186
484 1 7.03701 38.6978 9.2219
485 1 18.4512 45.2989 25.2147
486 1 50.2568 5.15574 44.3461
487 1 20.8575 12.8748 22.1229
488 1 4.12728 47.4835 34.4875
489 1 2.63666 44.5259 13.7449
490 1 24.541 49.7607 26.1522
491 1 24.019 16.9343 39.7125
492 1 27.0537 24.1297 41.661
493 1 33.9435 28.2209 24.8138
494 1 4.75931 55.132 13.712
495 1 15.497 42.2372 10.8095
496 1 39.1125 18.0709 37.363
497 1 7.9047 24.6786 21.3093
498 1 11.2905 18.7568 10.4241
499 1 34.2113 29.7862 20.1975
500 1 51.3756 2.48364 39.2746
501 1 14.4541 51.3847 33.944
502 1 55.78 42.8189 7.88116
503 1 37.6556 1.33803 43.2102
504 1 37.2329 46.3507 30.6597
505 1 38.556 27.6784 3.93686
506 1 22.083 27.6084 41.8471
507 1 53.5419 54.1335 29.4751
508 1 10.8207 43.1961 17.4982
509 1 53.6496 29.4865 7.90243
510 1 30.4507 0.603673 3.50631
511 1 50.1981 5.50329 6.10652
512 1 14.2844 50.6471 12.7069
513 1 21.1072 12.9024 33.2631
514 1 31.9462 25.5814 17.3052
515 1 29.5259 12.6039 27.6897
516 1 5.42855 40.3509 37.3955
517 1 8.71427 3.60367 49.884
518 1 23.9654 12.0536 13.318
519 1 8.16624 11.8994 45.1276
520 1 35.9169 17.6529 4.60732
521 1 46.0644 24.7857 32.3169
522 1 7.75491 16.9951 0.542601
523 1 29.7685 -0.0794857 25.661
524 1 40.1685 51.8979 32.2785
525 1 26.1721 41.6177 22.284
526 1 29.3029 14.7484 30.4144
527 1 29.1032 54.7493 23.3028
528 1 1.91365 6.46028 6.42298
529 1 40.5478 7.88528 33.9519
530 1 39.7423 7.8449 17.6237
531 1 43.224 5.52244 48.2387
532 1 41.5179 0.566048 24.7595
533 1 42.7051 7.92733 10.6079
534 1 19.6642 35.6252 20.3725
535 1 36.0952 0.296683 51.6544
536 1 38.7466 23.8388 17.5483
537 1 19.1769 22.3544 20.7318
538 1 8.42143 21.1554 49.8835
539 1 28.819 37.8462 33.1226
540 1 48.2721 12.0374 16.2784
541 1 30.378 0.581351 17.2532
542 1 26.6671 50.877 32.0292
543 1 37.525 45.1966 34.9835
544 1 31.7599 35.1691 15.1951
545 1 51.7534 24.6101 5.76436
546 1 23.3401 54.0523 32.7325
547 2 15.3814 40.5733 26.7091
548 2 12.9836 46.86 1.19956
549 2 34.8256 47.7388 25.7315
550 2 55.7811 51.8123 13.065
551 2 52.7587 7.30001 16.8539
552 2 9.55448 7.12106 35.605
553 2 37.8283 10.3037 16.4545
554 2 23.2015 5.81449 53.3666
555 2 14.998 13.3207 22.0286
556 2 12.9177 41.9473 42.8368
557 2 13.8395 5.61297 34.1119
558 2 17.2803 33.0093 3.32455
559 2 40.1785 16.9179 21.0739
560 2 4.98941 16.2299 29.5333
561 2 38.8394 12.6187 50.862
562 2 3.74463 19.5693 28.4998
563 2 30.1609 47.1242 35.1666
564 2 16.7184 5.23315 40.2892
565 2 20.2956 22.3985 34.7094
566 2 30.9689 13.3495 39.0369
567 2 44.6213 38.3787 0.51235
568 2 43.5353 18.1673 20.2595
569 1 14.5553 1.27148 19.7825
570 1 50.8925 35.3981 50.6744
571 1 13.8117 11.586 11.4477
572 1 46.3294 14.9093 53.5252
573 1 15.096 14.306 25.547
574 1 29.9355 44.0686 15.8061
575 1 23.3875 51.031 28.7979
576 1 19.3454 3.51503 4.50749
577 1 0.156519 7.9408 13.7165
578 1 55.6568 40.023 44.4654
579 1 34.6781 34.8623 54.1735
580 1 11.6953 14.8266 0.595647
581 1 36.1221 54.5841 13.0961
582 1 12.8446 36.2533 37.2331
583 1 45.46 25.5324 18.7042
584 1 22.3557 49.5372 40.2477
585 1 33.4575 7.9727 23.3697
586 1 55.53 -0.0966764 31.0785
587 1 10.7381 1.70059 7.46335
588 1 5.50832 50.1768 4.7674
589 1 36.6805 35.0832 42.2119
590 1 1.22833 9.23799 8.09269
591 1 12.5094 9.31714 31.366
592 1 52.8914 33.5922 6.53386
593 1 22.3836 25.2711 30.5989
594 1 2.64903 42.3684 41.923
595 1 34.7555 16.3699 44.8295
596 1 3.14529 4.85815 39.4505
597 1 28.5622 46.0519 10.7567
598 1 47.7459 49.6684 26.6616
599 1 50.9356 55.7464 12.5525
600 1 12.2966 45.2085 4.01646
601 1 20.5085 47.4102 3.66375
602 1 3.14054 42.8563 15.8278
603 1 26.5909 35.3999 52.3955
604 1 11.6812 20.9977 29.173
605 1 25.7377 40.3426 39.9389
606 1 27.2343 45.09 48.3904
607 1 38.9363 14.1619 33.7365
608 1 45.3929 33.4692 42.108
609 1 34.329 30.3999 12.6424
610 1 43.515 5.33567 45.3242
611 1 21.0993 53.0255 36.8393
612 1 18.0617 46.8526 45.8065
613 1 0.872174 49.699 0.319794
614 1 53.5587 33.588 10.4201
615 1 5.72541 42.8037 41.3329
616 1 41.8585 21.467 45.3733
617 1 16.2713 11.7226 52.0594
618 1 53.2345 5.72742 52.9204
619 1 32.3439 8.0483 32.9424
620 1 35.8593 15.8302 11.6716
621 1 53.0999 8.23891 27.3154
622 1 4.96801 31.384 45.6982
623 1 14.8901 44.6262 11.482
624 1 27.8967 9.52958 55.2413
625 1 11.0956 35.1283 27.9051
626 1 33.9266 21.3517 27.0007
627 1 39.7426 47.2852 9.65737
628 1 32.1941 10.4172 17.4488
629 1 44.2295 48.5057 5.09337
630 1 36.486 55.0357 23.1538
631 1 44.385 28.946 14.0594
632 1 23.2062 11.315 34.9133
633 1 15.8743 6.0485 49.4569
634 1 48.1563 46.1018 18.1038
635 1 35.7979 43.4949 24.4113
636 1 6.06172 6.83718 17.3862
637 1 54.4933 10.8979 38.5777
638 1 30.3068 47.0916 0.45799
639 1 28.7678 5.21041 4.80446
640 1 22.0929 53.7793 6.08299
641 1 47.4541 42.3998 34.2099
642 1 53.9451 18.6542 10.6835
643 1 31.9177 35.4481 25.0474
644 1 20.1142 42.83 45.9951
645 1 0.688603 19.5247 40.9543
646 1 13.4332 31.536 12.7287
647 1 11.9832 34.1041 13.0237
648 1 16.9479 16.7177 52.1916
649 1 15.9405 18.9153 22.4688
650 1 13.7205 9.98849 3.18817
651 1 35.2399 28.4857 30.5555
652 1 45.0035 15.7262 48.1673
653 1 52.1856 28.1184 48.1016
654 1 32.0084 35.0215 55.4153
655 1 41.1671 4.69465 30.5408
656 1 36.8915 52.4661 40.2495
657 1 46.6309 32.8088 13.8406
658 1 24.7654 8.30383 54.8866
659 1 39.2653 42.9362 46.7865
660 1 7.40235 42.6926 8.57383
661 1 46.4431 36.5881 13.1312
662 1 15.6252 41.6355 44.4369
663 1 27.4361 46.4674 8.60679
664 1 48.6939 9.08328 11.3949
665 1 25.1962 52.4354 39.0455
666 1 25.725 18.4349 29.6212
667 1 35.5222 16.8413 20.0468
668 1 52.1149 16.2053 43.2873
669 1 51.0794 23.0521 15.5551
670 1 30.7177 52.3531 16.9381
671 1 33.8492 49.5661 14.6897
672 1 1.79742 18.5048 8.98292
673 1 11.8993 9.32544 34.6792
674 1 46.0282 52.0606 7.79271
675 1 23.5598 7.90393 33.1504
676 1 1.76154 16.5996 24.7824
677 1 55.6098 36.2016 54.3451
678 1 15.8063 55.6027 18.2336
679 1 47.8423 9.31162 16.932
680 1 28.7092 32.3909 45.9989
681 1 55.7541 27.3916 51.5105
682 1 7.2651 3.03123 44.7991
683 1 43.1614 12.4962 20.7208
684 1 38.5864 32.2892 37.3748
685 1 22.4845 54.9382 14.9779
686 1 45.1052 15.1044 11.2784
687 1 46.9286 55.306 28.4887
688 1 20.4207 7.39858 33.3566
689 2 21.7572 49.4492 24.098
690 2 30.8633 47.9634 9.94806
691 2 34.552 26.7765 39.2563
692 2 9.48546 39.1778 51.3107
693 2 45.098 48.3904 22.5401
694 2 3.14035 51.3477 54.6601
695 2 17.5139 15.4597 45.2896
696 2 16.6077 40.7782 8.21354
697 2 1.31507 18.0824 36.1343
698 2 17.0514 18.6454 6.69108
699 2 44.3825 11.2217 40.148
700 2 38.4989 4.93742 3.64024
701 2 53.5846 27.8042 5.4087
702 2 36.0731 29.1143 27.3082
703 2 48.975 46.039 44.5886
704 2 54.4486 12.9501 17.5943
705 2 2.46036 36.9382 7.53389
706 2 2.09876 40.5027 44.718
707 2 47.4622 17.0005 18.8704
708 2 43.4711 54.5456 0.379189
709 2 44.0629 30.6256 42.7144
710 2 53.0237 48.7451 31.0315
711 1 44.2345 1.70701 51.1429
712 1 23.0415 21.576 2.50449
713 1 1.21048 49.7175 44.4724
714 1 44.5937 32.369 26.5875
715 1 1.21509 11.0665 45.1512
716 1 2.89225 15.8963 51.1627
717 1 49.3406 2.27196 1.92126
718 1 3.3849 40.8048 50.9156
719 1 42.3621 17.3626 52.6437
720 1 19.4467 16.075 13.1032
721 1 31.2555 6.09974 4.60432
722 1 31.8545 37.8047 55.1722
723 1 19.7313 14.8113 15.5844
724 1 48.6772 37.2265 53.9701
725 1 16.0841 53.3615 35.0294
726 1 39.3043 37.3325 51.4108
727 1 37.9877 42.7195 7.41436
728 1 27.9663 0.514533 55.4823
729 1 42.9159 16.5722 46.6189
730 1 4.84046 2.56797 39.6335
731 1 54.7315 11.2162 20.2527
732 1 12.9433 0.899852 15.2326
733 1 49.0959 7.39851 45.2216
734 1 37.4118 43.9349 17.8338
735 1 36.8857 28.9805 40.5293
736 1 52.7319 15.6383 40.2293
737 1 32.6343 45.5309 24.2131
738 1 0.443432 11.6694 6.78571
739 1 10.7503 27.3797 42.7315
740 1 37.4724 38.105 46.1947
741 1 53.3742 10.9973 28.2261
742 1 11.2635 37.7293 20.9483
743 1 45.1627 29.3798 27.012
744 1 33.5847 55.7984 40.6612
745 1 44.9604 12.3474 12.4713
746 1 18.0651 18.7602 17.8568
747 1 0.415353 3.08444 36.5944
748 1 43.273 52.3515 8.46387
749 1 17.087 13.1518 42.978
750 1 33.1729 14.368 43.6724
751 1 24.0902 28.1408 40.3198
752 1 26.1252 24.9996 3.42068
753 1 19.0294 11.5494 42.0972
754 1 36.4961 54.1651 27.2803
755 1 25.8099 23.2549 16.9329
756 1 31.6022 49.1392 54.1104
757 1 9.52241 24.0738 18.9385
758 1 54.8668 26.9261 20.2825
759 1 34.4489 54.3818 21.167
760 1 18.0769 30.8339 1.38182
761 1 49.4066 15.4914 36.1365
762 1 42.0542 55.7071 11.2461
763 1 24.5725 18.017 8.68248
764 1 18.3425 13.2956 21.3267
765 1 43.3041 21.1733 38.5058
766 1 20.1217 16.7618 41.2385
767 1 7.90751 3.17614 32.6151
768 1 26.211 22.4139 35.5296
769 1 18.4152 48.4932 54.605
770 1 15.9484 4.3503 14.3077
771 1 12.1963 38.5805 43.925
772 1 28.6303 15.0555 51.3005
773 1 10.4171 16.3469 46.0044
774 1 34.5468 10.198 31.5871
775 1 46.203 41.5644 30.4609
776 1 25.4119 55.9107 21.9115
777 1 46.0128 47.8953 25.6529
778 1 21.864 33.7389 47.9567
779 1 40.6171 26.9924 44.7763
780 1 31.3491 47.54 41.0496
781 1 20.5527 37.921 25.1894
782 1 4.62293 18.9295 15.651
783 1 51.5037 0.257958 41.3811
784 1 43.2472 30.1246 25.404
785 1 27.7519 26.0602 48.4746
786 1 13.7786 6.74543 39.2752
787 1 5.80174 30.8991 54.1734
788 1 2.3386 10.5537 37.2398
789 1 17.1689 32.9262 10.2396
790 1 44.7187 30.4282 52.812
791 1 36.1905 19.4902 27.1048
792 1 26.0945 55.1441 19.494
793 1 2.49652 50.5145 22.4746
794 1 33.8352 23.9501 17.5027
795 1 53.8045 19.8717 32.9848
796 1 43.7858 2.78672 55.5497
797 1 19.0085 10.9897 13.9697
798 1 49.6111 18.8552 50.8843
799 1 9.1723 29.2569 10.8682
800 1 17.1551 30.431 55.3615
801 1 48.9568 48.7731 11.2713
802 1 26.4693 15.8558 30.7433
803 1 39.5874 47.6484 38.123
804 1 51.7558 36.9123 9.12656
805 1 38.7209 44.7083 32.16
806 1 9.42653 14.9982 33.3107
807 1 55.9954 16.1021 34.5842
808 1 46.716 3.02513 37.997
809 1 14.2897 25.0188 11.8579
810 1 7.85767 40.6245 32.1258
811 1 33.3598 22.0226 48.5101
812 1 44.0044 53.768 3.64382
813 1 3.65804 13.3117 0.259208
814 1 44.2503 4.76127 22.6362
815 1 4.39695 8.94237 41.7258
816 1 50.7761 7.29954 36.6232
817 1 44.44 43.685 29.5101
818 1 48.9173 52.0822 44.4765
819 1 18.1539 38.7085 40.8715
820 1 3.49564 21.1704 40.1618
821 1 32.1646 29.2684 39.1004
822 1 0.849468 4.06284 29.1444
823 1 54.0517 46.7134 37.9156
824 1 54.5952 -0.174849 28.3628
825 1 17.2897 54.3539 29.8711
826 1 16.539 50.5325 3.91479
827 1 19.4908 31.0504 22.3516
828 1 41.2635 24.3488 31.5025
829 1 49.3993 56.0536 29.913
830 1 51.6669 43.2947 4.12855
831 2 7.25639 40.5394 40.0139
832 2 23.8932 14.4128 2.92146
833 2 20.5394 43.2725 23.5244
834 2 43.2726 26.8479 46.855
835 2 25.0915 1.63366 28.7861
836 2 23.8148 14.144 32.4685
837 2 15.7581 27.3487 18.1611
838 2 22.9801 42.5543 47.6423
839 2 28.9243 35.3321 31.3215
840 2 19.7161 16.3465 53.5878
841 2 15.4654 27.3103 26.6733
842 2 47.1573 9.54031 45.9741
843 2 42.2216 1.60895 30.0053
844 2 31.6426 15.3508 18.5705
845 2 8.26135 51.9956 16.2848
846 2 41.4517 41.1958 48.7496
847 2 48.2287 55.4966 10.6801
848 2 48.0511 44.6306 26.0278
849 2 23.3369 17.3662 35.1773
850 2 22.6338 32.2504 44.7386
851 2 48.3975 -0.129139 54.2216
852 2 46.5264 39.0146 20.5681
853 1 30.7582 0.871064 20.1171
854 1 30.2593 42.4007 47.1887
855 1 47.7242 26.8993 15.3219
856 1 50.8847 12.5852 27.1366
857 1 41.3644 19.2951 46.9341
858 1 14.3358 50.4885 48.9029
859 1 37.754 26.9564 38.2029
860 1 8.91896 37.7976 3.8631
861 1 52.3333 36.575 29.3832
862 1 54.313 30.9514 5.56193
863 1 33.0249 11.4326 10.2514
864 1 48.475 32.4653 54.664
865 1 14.9092 26.2286 14.4086
866 1 13.8835 33.6334 53.0225
867 1 51.0021 24.237 37.4813
868 1 50.357 0.934284 36.768
869 1 52.2924 28.2074 50.9889
870 1 36.8459 26.6618 25.2521
871 1 10.5781 28.0699 15.2089
872 1 53.6125 38.3493 40.3201
873 1 13.0803 35.7367 14.767
874 1 54.1525 46.1861 1.30309
875 1 48.607 38.9161 46.6464
876 1 49.7456 10.8558 25.1883
877 1 -0.154462 27.7886 22.8003
878 1 42.3492 35.0616 16.0983
879 1 14.4432 35.3685 30.4838
880 1 51.645 11.4119 2.40902
881 1 29.2792 12.5753 49.833
882 1 44.9309 22.6535 52.5854
883 1 15.1145 18.5357 52.914
884 1 51.5552 54.6524 36.5338
885 1 30.1807 22.9789 1.23526
886 1 41.4234 47.81 0.0156153
887 1 7.24066 15.432 19.8606
888 1 2.58303 35.2221 48.1243
889 1 46.5185 7.6606 34.3113
890 1 53.9508 5.90054 3.00986
891 1 53.1358 20.7127 42.4053
892 1 38.2447 0.0355631 13.2807
893 1 17.4656 52.3006 40.7497
894 1 9.08307 47.9975 6.78061
895 1 3.17299 49.9818 35.8981
896 1 2.62284 40.9649 17.874
897 1 28.1851 53.5608 10.5199
898 1 47.164 31.3907 42.565
899 1 16.9597 19.0372 32.3345
900 1 3.66631 26.2785 3.1087
901 1 32.6765 36.9679 39.8583
902 1 25.7562 45.8769 25.9831
903 1 3.55875 26.7782 8.96456
904 1 36.1825 35.7593 11.5276
905 1 28.3671 30.3122 22.4464
906 1 14.3023 27.4845 48.1798
907 1 26.3223 40.1546 4.67793
908 1 1.20698 6.10187 34.8903
909 1 45.5037 3.05154 41.0628
910 1 52.4911 38.7561 7.35624
911 1 12.7105 8.73945 24.973
912 1 20.8085 14.4865 45.3093
913 1 10.3305 48.5031 1.23572
914 1 53.0537 51.9896 31.1295
915 1 20.0566 17.0994 43.9366
916 1 27.1293 24.5851 38.7553
917 1 40.3355 5.13621 48.5591
918 1 50.6847 35.2587 14.3369
919 1 51.9273 41.8192 34.4642
920 1 15.4429 30.2388 28.0931
921 1 42.5547 48.2666 14.1643
922 1 17.6773 41.8097 31.9581
923 1 54.4241 2.99791 32.4295
924 1 0.410946 11.6987 16.7346
925 1 44.9289 54.3933 6.852
926 1 27.8728 49.7891 51.9294
927 1 0.551953 -0.0322201 52.0626
928 1 42.2822 12.445 12.5126
929 1 50.0497 33.3956 7.01725
930 1 33.8429 40.899 10.0381
931 1 16.7154 25.0481 31.442
932 1 5.27351 1.20377 12.3224
933 1 30.9754 6.8519 44.4944
934 1 24.5567 51.1139 54.8232
935 1 11.8791 48.1511 49.2437
936 1 7.66922 32.6103 11.9532
937 1 46.1422 13.3507 41.8999
938 1 34.8537 13.7324 46.3802
939 1 19.7164 32.961 14.4896
940 1 54.6352 55.7374 8.84335
941 1 36.5424 6.04063 35.953
942 1 15.3378 46.9565 45.5907
943 1 33.6181 36.7444 34.3138
944 1 9.05068 41.6339 15.8032
945 1 48.4619 25.3587 42.7365
946 1 9.08972 42.5238 44.762
947 1 41.2577 31.3304 41.0615
948 1 15.399 55.9397 44.1324
949 1 54.2853 5.91644 21.863
950 1 48.889 22.5082 42.5041
951 1 14.9904 43.172 53.9726
952 1 44.6055 0.582352 48.6863
953 1 32.3934 25.2034 0.947943
954 1 11.356 45.8734 40.3415
955 1 13.2106 21.8644 15.2868
956 1 3.97037 7.44541 4.35921
957 1 47.0787 43.6216 51.5575
958 1 54.6541 22.4986 32.5121
959 1 20.2048 39.0385 42.8878
960 1 53.7219 14.1106 12.6014
961 1 37.5519 38.0215 49.3409
962 1 35.8572 7.67198 16.0448
963 1 7.83806 30.27 47.8997
964 1 25.3841 14.797 44.4241
965 1 15.4429 30.4524 35.6811
966 1 24.8311 43.072 31.4046
967 1 2.21786 12.4806 12.4207
968 1 49.5323 10.3814 48.2561
969 1 30.9153 40.0024 48.8159
970 1 31.9071 16.9494 15.6794
971 1 33.1802 6.07863 48.6519
972 1 38.7346 0.0878818 45.6411
973 2 45.1695 4.60947 25.5482
974 2 46.3633 39.3552 35.1934
975 2 53.6677 39.3283 27.9233
976 2 16.9733 30.8522 50.1017
977 2 53.025 36.1881 16.0341
978 2 52.5108 36.4548 19.7085
979 2 33.0538 42.5214 40.639
980 2 55.0765 6.36345 45.1898
981 2 36.1699 12.3911 9.69892
982 2 54.6684 29.7795 49.1805
983 2 12.2219 31.2189 1.43865
984 2 46.6488 22.6714 34.4472
985 2 50.9767 2.04287 11.1605
986 2 7.30784 18.451 37.9322
987 2 20.5837 6.73419 5.11626
988 2 2.42797 26.6992 52.0087
989 2 40.2142 27.7133 32.1244
990 2 54.4638 9.92228 15.1572
991 2 22.8159 21.1213 17.6038
992 2 16.0844 15.663 54.9274
993 2 1.40302 15.2757 55.9608
994 2 53.5478 23.0376 35.53
995 1 54.7393 3.07734 44.1015
996 1 51.2669 25.4407 47.2674
997 1 24.7458 2.03979 48.325
998 1 2.82861 46.4646 32.0115
999 1 25.3594 51.4011 52.4354
1000 1 19.8122 8.8252 47.8017
1001 1 31.0422 30.3916 36.6709
1002 1 52.68 26.7761 8.1626
1003 1 12.2084 28.4722 32.7494
1004 1 9.90287 46.0732 2.01395