ITEM: TIMESTEP
0
ITEM: NUMBER OF ATOMS
9088
ITEM: BOX BOUNDS pp pp pp
-3.9250984939819139e-01 5.6277002475358060e+01
-3.9250984939819139e-01 5.6277002475358060e+01
-3.9250984939819139e-01 5.6277002475358060e+01
ITEM: ATOMS id type x y z
1 1 24.6021 44.9885 49.5179
2 1 0.12603 46.7374 50.9113
3 1 33.1136 15.0043 16.2046
4 1 14.7744 13.6934 52.594
5 1 53.1754 13.2866 3.63924
6 1 29.1269 38.7976 16.4651
7 1 43.5497 30.2934 21.1778
8 1 17.7097 13.8029 31.6222
9 1 30.6739 3.29284 47.3441
10 1 37.6485 41.2292 48.3391
11 1 53.0466 42.1986 25.9496
12 1 35.0764 19.4556 36.7785
13 1 4.48007 25.8082 20.3222
14 1 30.4318 28.0752 15.1
15 1 52.6417 12.0268 41.1186
16 1 17.9765 25.4289 16.7284
17 1 10.1384 13.5917 26.3879
18 1 30.2296 14.0195 23.0154
19 1 23.895 44.7277 35.7076
20 1 46.446 52.3648 28.6471
21 1 22.0352 53.9351 29.1691
22 1 36.1122 7.59461 27.6344
23 1 10.4513 19.6778 -0.237164
24 1 30.8508 17.6863 51.3186
25 1 20.796 47.8112 49.7073
26 1 10.0413 6.9271 1.07288
27 1 25.3497 18.8708 36.6923
28 1 0.438996 14.5266 19.9017
29 1 56.0204 25.0105 55.3773
30 1 40.8429 39.4725 51.8768
31 1 10.3495 11.7104 55.7321
32 1 51.0685 21.485 40.5924
33 1 41.5941 19.58 50.1545
34 1 3.74982 45.6518 32.4641
35 1 43.2115 52.2855 8.56876
36 1 4.27099 55.572 28.2009
37 1 25.597 4.05392 22.3301
38 1 33.6496 12.8148 37.8913
39 1 13.332 2.89165 28.6523
40 1 12.2969 44.7835 4.81937
41 1 8.63365 55.1433 3.10185
42 1 25.9358 9.44992 25.7469
43 1 16.3523 55.0911 9.03061
44 1 44.4767 49.0112 36.7228
45 1 15.6869 47.2375 55.7202
46 1 54.0204 17.5836 12.4649
47 1 36.5749 49.8977 13.2908
48 1 28.1318 28.0721 26.6245
49 1 41.6936 13.449 29.3475
50 1 53.7877 49.1753 32.3869
51 1 52.3155 28.6127 33.7608
52 1 33.9002 41.757 24.3806
53 1 5.6993 13.6662 55.0328
54 1 17.3267 30.588 49.4683
55 1 36.2989 41.6615 28.9353
56 1 19.9243 26.7107 20.283
57 1 5.92274 33.1736 34.9439
58 1 0.234514 29.1895 44.4365
59 1 55.8203 30.9958 21.6711
60 1 36.7205 38.542 9.95526
61 1 12.9066 10.9905 3.35392
62 1 28.8533 48.0929 14.6632
63 1 8.45479 55.008 51.2341
64 1 11.6215 14.0862 8.47709
65 1 27.094 16.083 45.7957
66 1 23.7778 47.9603 56.2427
67 1 4.91181 19.988 40.1542
68 1 46.3443 5.59233 43.5912
69 1 15.854 52.77 20.018
70 1 6.35476 12.7779 3.13265
71 1 10.9349 52.3244 26.2802
72 1 49.3445 26.5355 55.5907
73 1 0.595536 26.3706 43.4315
74 1 34.8903 41.1786 34.4395
75 1 37.6668 19.5322 5.07045
76 1 36.097 19.6934 17.0971
77 1 38.4691 46.6958 16.655
78 1 30.5903 8.61325 40.8936
79 1 1.72651 34.4991 51.4001
80 1 5.28733 51.409 11.4455
81 1 33.0661 32.8804 2.29451
82 1 42.0554 46.1834 28.7495
83 1 36.5076 29.13 43.3309
84 1 31.2674 51.7719 13.0324
85 1 39.3528 9.94288 36.1542
86 1 16.1983 36.2902 46.9807
87 1 5.48402 46.1323 3.37655
88 1 44.2398 54.6774 41.9008
89 1 53.2415 16.5194 39.326
90 1 23.4981 15.8944 17.6729
91 1 13.7313 51.4879 36.8785
92 1 7.90182 18.0533 10.1797
93 1 40.9185 27.8535 7.79074
94 1 27.4876 53.7771 40.9348
95 1 54.4931 2.93174 29.6478
96 1 6.21503 24.7522 38.5072
97 1 2.39555 6.57914 42.1811
98 1 25.5631 20.7148 34.5527
99 1 42.8706 36.8681 5.82069
100 1 1.71814 36.5691 19.4515
101 1 36.7455 25.5149 37.1222
102 1 18.7053 19.1834 33.571
103 1 41.5571 43.3896 55.9144
104 1 2.41692 52.1725 4.98485
105 1 30.5513 13.3822 16.5009
106 1 29.6984 31.2984 30.5962
107 1 26.158 34.5982 50.1852
108 1 47.0266 18.2712 22.3071
109 1 50.6263 43.5666 26.6966
110 1 50.4527 20.1202 15.1771
111 1 28.4578 53.6187 53.02
112 1 13.6682 54.8346 9.99838
113 1 27.5506 35.6363 8.76415
114 1 26.5182 37.2799 33.0522
115 1 40.0202 38.4373 40.714
116 1 7.35897 0.87893 24.8296
117 1 53.998 41.5656 54.8112
118 1 9.38672 37.8021 42.3205
119 1 6.0022 38.2269 53.9353
120 1 55.9684 38.6426 11.9809
121 2 11.3214 39.4251 35.4755
122 2 51.204 19.4219 12.3895
123 2 55.1302 46.6453 20.6827
124 2 51.5069 29.5901 19.4695
125 2 53.6603 35.9869 38.755
126 2 24.7366 7.52787 17.888
127 2 11.8668 51.6815 15.9383
128 2 6.90996 30.187 35.7362
129 2 54.7567 18.1351 7.34997
130 2 0.38397 20.7452 45.9067
131 2 38.8564 5.45857 50.6228
132 2 39.6308 46.3832 19.8338
133 2 34.5588 38.6156 18.0173
134 2 15.8908 53.4938 11.5791
135 2 43.1975 34.2286 3.90325
136 2 5.11049 4.07934 32.0008
137 2 43.1748 23.512 47.3965
138 2 4.9965 4.44456 49.4968
139 2 30.9621 15.3015 13.8202
140 2 40.2266 24.7402 31.4865
141 2 2.16599 37.4643 22.4661
142 2 29.2141 23.3138 40.861
143 1 55.6547 16.6221 24.283
144 1 44.165 28.044 19.0559
145 1 55.1074 29.9822 24.0039
146 1 52.4192 20.9182 1.06705
147 1 39.839 49.2347 22.2621
148 1 0.38526 15.179 40.5297
149 1 49.2864 48.3957 11.2612
150 1 24.0708 23.5094 7.3445
151 1 20.6791 24.1634 13.3272
152 1 -0.111047 7.03195 9.77029
153 1 47.0391 20.6759 6.30729
154 1 50.1535 43.6904 42.1919
155 1 32.4689 22.5278 15.4919
156 1 7.07587 55.0092 26.2627
157 1 40.3445 45.6354 26.747
158 1 27.2449 41.5939 1.80133
159 1 43.5684 18.1728 28.4112
160 1 31.0102 27.9641 26.3362
161 1 29.1679 42.8494 9.72096
162 1 14.0193 1.63626 48.5966
163 1 7.90786 24.7744 11.763
164 1 48.7348 34.0262 10.0553
165 1 53.3705 33.1592 3.39393
166 1 20.9567 52.9735 38.2331
167 1 34.2919 51.1315 7.19262
168 1 26.2791 16.5357 12.7052
169 1 19.5013 34.095 18.1411
170 1 37.7379 37.2182 28.9733
171 1 40.6158 30.847 17.2221
172 1 2.60425 33.7784 31.9838
173 1 14.5034 49.7277 6.11854
174 1 9.92475 4.89832 10.15
175 1 20.2429 28.7398 14.1365
176 1 39.9695 37.1946 6.9016
177 1 41.521 53.503 55.6696
178 1 56.1682 55.6084 29.7462
179 1 6.32136 52.5967 35.8155
180 1 50.2196 5.68372 21.6429
181 1 29.7125 55.7861 37.0975
182 1 51.2438 3.70898 36.8656
183 1 46.0881 45.8096 6.46064
184 1 9.07305 44.55 53.1734
185 1 10.9059 28.0013 46.4323
186 1 35.0803 18.2905 32.7416
187 1 12.0727 6.21259 14.1116
188 1 37.2741 12.7627 2.2748
189 1 54.7646 37.3742 2.63684
190 1 15.4707 1.97218 27.5027
191 1 29.7037 40.0567 2.05728
192 1 4.66237 43.3099 38.021
193 1 47.0333 35.6668 19.2919
194 1 30.6633 3.66294 32.0862
195 1 33.1592 8.90293 52.4629
196 1 12.6266 22.215 14.8753
197 1 6.36546 9.34627 49.3418
198 1 7.48645 35.6698 38.8163
199 1 5.23159 40.9954 1.73806
200 1 49.3583 14.0144 14.8818
201 1 22.8948 25.9657 46.8919
202 1 51.9864 38.4355 37.7732
203 1 48.6233 37.1877 13.1703
204 1 49.2564 10.5491 12.3701
205 1 25.5653 8.42797 28.0869
206 1 28.541 24.3413 6.8251
207 1 45.8468 12.5964 33.6451
208 1 47.0086 35.8267 44.0255
209 1 40.4392 21.9035 51.6302
210 1 12.8381 48.5982 56.0354
211 1 32.0999 51.2627 51.5965
212 1 8.33705 21.9023 11.854
213 1 22.6182 12.2883 51.1245
214 1 47.6489 26.5359 49.176
215 1 2.10644 39.6303 41.8828
216 1 2.76067 22.3169 48.0153
217 1 43.3573 14.6761 40.1541
218 1 2.20821 11.2817 52.4001
219 1 53.482 7.60075 42.2455
220 1 29.1501 50.7158 1.86518
221 1 38.1725 15.1017 28.9001
222 1 42.7785 9.45058 26.3468
223 1 6.31519 36.3699 25.7871
224 1 55.924 42.4079 29.7472
225 1 30.2051 0.977061 0.225589
226 1 17.2186 19.2766 17.169
227 1 33.4322 41.8367 9.50859
228 1 34.7094 42.2997 0.194428
229 1 21.8098 6.70684 7.41192
230 1 45.1968 5.31032 2.9686
231 1 49.0176 9.94712 37.9906
232 1 15.2719 6.19367 31.7728
233 1 38.3761 44.3618 14.9471
234 1 13.2753 52.1067 10.3838
235 1 50.7658 30.3774 26.7872
236 1 17.1395 1.48451 9.22358
237 1 40.3912 48.144 27.2964
238 1 9.03235 34.7567 13.5687
239 1 33.8958 29.0906 5.60125
240 1 23.3407 23.6354 45.4192
241 1 19.8566 48.998 10.9551
242 1 16.9271 13.1808 42.8916
243 1 47.6691 24.0998 9.9834
244 1 23.528 46.4581 6.48948
245 1 43.432 39.0901 22.4117
246 1 21.9554 10.24 16.3918
247 1 52.0208 13.1246 14.8215
248 1 10.8976 8.04609 52.7358
249 1 47.1952 12.1946 38.015
250 1 22.791 24.6032 17.4158
251 1 5.42253 2.51702 25.258
252 1 32.5945 42.888 55.4149
253 1 4.16994 30.0172 49.1862
254 1 18.9747 25.0772 43.5107
255 1 24.792 36.8409 28.9365
256 1 50.0836 40.1579 32.9236
257 1 56.1602 22.6572 40.4472
258 1 29.7281 6.24169 19.996
259 1 54.9596 40.1786 44.8066
260 1 22.5156 37.2081 53.3916
261 1 10.4176 40.9555 40.5002
262 1 56.1563 49.9909 13.7833
263 2 43.5996 22.8156 30.9657
264 2 20.9607 49.2678 55.0397
265 2 47.4483 19.9784 49.0167
266 2 10.3975 23.4426 36.9597
267 2 14.4942 22.271 1.28192
268 2 7.41768 -0.358363 18.6087
269 2 15.0692 2.30655 16.3944
270 2 43.7866 43.8166 53.5243
271 2 53.5121 45.1974 26.7399
272 2 35.3597 43.3215 14.5494
273 2 33.0539 5.34266 34.2236
274 2 52.7684 27.1558 31.0468
275 2 19.0064 56.1915 1.11805
276 2 56.0063 14.405 4.34936
277 2 -0.197485 45.109 37.6311
278 2 9.83206 36.3599 18.6687
279 2 43.8447 52.3166 47.2187
280 2 19.19 55.4739 22.244
281 2 43.1418 22.2451 15.4087
282 2 10.5599 27.7865 7.16381
283 2 45.2513 46.6745 29.3797
284 2 19.749 23.1807 37.6993
285 1 26.3208 15.2246 50.7657
286 1 33.1002 13.0685 18.5589
287 1 44.4553 8.25355 55.7754
288 1 43.669 30.75 0.292872
289 1 36.0277 9.26505 40.8659
290 1 45.404 9.36988 1.43864
291 1 44.206 39.7298 44.84
292 1 37.5288 14.2533 45.5496
293 1 22.5707 20.4149 42.0092
294 1 50.4526 26.5827 33.2329
295 1 25.7734 0.72847 2.21988
296 1 33.2463 35.6834 13.3902
297 1 14.0459 20.8637 43.0367
298 1 26.0033 14.1048 13.5875
299 1 19.8041 9.00225 54.4128
300 1 51.6791 15.5238 18.994
301 1 21.01 27.0801 51.2484
302 1 45.9769 44.5708 21.9254
303 1 42.1429 23.4772 53.3059
304 1 23.5662 53.8551 6.19059
305 1 32.3396 41.3937 44.5254
306 1 55.9488 33.8087 47.3729
307 1 16.219 2.80371 50.4858
308 1 55.3901 23.6077 46.5862
309 1 49.2683 30.7193 29.0514
310 1 52.3819 41.3572 13.517
311 1 38.3212 35.5329 5.95879
312 1 10.0597 8.31833 25.8434
313 1 7.19687 11.5626 16.7706
314 1 22.3865 46.1486 54.8327
315 1 14.6755 44.9651 14.6958
316 1 30.801 12.0744 12.2155
317 1 34.3575 17.2937 9.22087
318 1 50.4151 24.2624 10.0822
319 1 20.2171 52.2243 40.9452
320 1 39.4018 10.388 14.639
321 1 16.9963 34.5932 18.5346
322 1 52.9161 25.348 26.0497
323 1 32.844 46.3212 5.74093
324 1 13.7777 1.61904 35.8827
325 1 21.1181 46.4785 43.1711
326 1 6.84771 28.6459 16.6111
327 1 41.0287 11.0091 28.0774
328 1 -0.0732413 8.28693 36.5906
329 1 49.2205 53.4642 14.5569
330 1 47.5538 9.9472 6.38819
331 1 14.3656 44.2955 6.29737
332 1 1.56005 32.3616 9.03133
333 1 53.8199 18.6085 1.58148
334 1 40.62 1.42224 22.1418
335 1 42.8688 40.984 34.2212
336 1 38.2547 32.303 9.68984
337 1 0.688084 34.6084 7.38807
338 1 13.9261 18.2961 33.0361
339 1 6.82209 43.2479 49.7446
340 1 20.2136 26.6783 25.0804
341 1 50.9968 52.3183 38.8975
342 1 47.7392 31.3215 16.3629
343 1 26.4479 3.28987 1.91338
344 1 31.2024 14.1573 10.4588
345 1 16.0372 6.54852 3.37391
346 1 37.7418 53.9202 38.6116
347 1 19.311 18.4869 10.8782
348 1 21.6379 15.7346 39.2852
349 1 6.13798 34.0284 1.06819
350 1 6.03284 7.05281 19.1594
351 1 41.5209 25.3231 8.44861
352 1 1.63066 4.91813 28.4734
353 1 51.2344 24.386 49.3884
354 1 49.0022 24.7436 12.4182
355 1 29.1037 9.6228 43.561
356 1 9.00291 25.6058 31.2557
357 1 8.75549 18.8041 26.4156
358 1 3.88307 12.6963 10.6994
359 1 5.77342 9.96138 51.9178
360 1 25.3237 29.0693 20.2226
361 1 21.633 42.0487 2.48075
362 1 40.5108 40.8626 41.31
363 1 42.8304 10.8423 11.1358
364 1 16.213 11.3019 51.4887
365 1 2.88424 27.8275 50.4478
366 1 14.4589 50.4213 20.2194
367 1 21.7136 30.4628 24.4839
368 1 55.4351 52.8943 37.9286
369 1 1.33713 40.0291 -0.0340276
370 1 31.471 7.25082 39.0423
371 1 2.29833 20.072 53.9323
372 1 11.4911 33.6104 18.5828
373 1 37.3761 54.7707 6.24137
374 1 36.7471 47.4398 49.1802
375 1 28.9624 25.3905 28.2835
376 1 38.3173 42.8954 50.3678
377 1 33.9781 50.9929 13.4042
378 1 13.7717 27.1845 34.7233
379 1 28.6817 45.2494 26.8896
380 1 22.0409 54.8838 0.0934825
381 1 3.94822 24.0951 9.11786
382 1 44.7412 37.979 36.9713
383 1 16.126 47.432 29.4063
384 1 26.8576 37.2574 47.0738
385 1 29.5517 9.34985 19.9801
386 1 21.5038 44.4196 28.8936
387 1 4.63324 17.6433 18.4459
388 1 52.0959 22.0325 22.469
389 1 24.4928 8.76356 20.7865
390 1 56.0475 7.4012 24.1172
391 1 29.6821 22.8942 1.62283
392 1 19.0421 51.3868 38.0062
393 1 47.8386 24.4197 -0.0501125
394 1 48.3822 46.249 47.6773
395 1 41.4787 12.3474 49.2533
396 1 47.5316 4.18614 22.5601
397 1 4.21725 53.4327 54.1246
398 1 45.5502 21.807 4.43917
399 1 52.4371 30.3156 50.8491
400 1 13.1506 1.1956 26.0813
401 1 48.1246 1.24081 23.1463
402 1 35.691 46.5114 47.0022
403 1 31.5683 35.1621 37.6709
404 1 35.0854 18.537 43.9121
405 2 19.6678 8.83083 14.6029
406 2 36.1634 31.2149 7.77436
407 2 33.4075 13.424 12.8759
408 2 24.0937 50.286 12.7909
409 2 41.0558 51.1452 16.7615
410 2 33.2269 53.6403 14.9252
411 2 5.78797 42.0467 17.1162
412 2 53.1668 9.17934 36.1351
413 2 31.0111 21.4202 45.9233
414 2 9.4173 35.5729 47.6503
415 2 1.84535 46.8596 7.34551
416 2 53.496 46.9747 0.869073
417 2 44.1846 5.42706 8.21881
418 2 7.10916 36.084 11.4321
419 2 15.1356 54.9352 22.7885
420 2 23.5194 23.4804 22.9371
421 2 41.7614 49.8636 10.3132
422 2 31.7148 16.4568 7.99013
423 2 7.46908 0.38367 43.2488
424 2 52.0583 10.491 4.63025
425 2 46.7261 48.0522 34.4848
426 2 37.2478 8.67951 37.9914
427 1 21.3855 30.8165 30.2263
428 1 14.2668 4.43318 47.976
429 1 11.88 11.2314 19.4183
430 1 38.3424 7.53553 29.5656
431 1 49.2698 4.44761 8.37371
432 1 34.9468 29.2546 21.7929
433 1 31.4445 30.3037 38.088
434 1 13.2567 27.7336 28.5822
435 1 11.6661 31.5167 1.15849
436 1 19.0797 5.62084 14.6151
437 1 35.9847 41.6552 7.42427
438 1 25.9984 45.2034 33.2891
439 1 42.6762 46.6613 37.7721
440 1 29.5354 30.1562 16.7383
441 1 26.2153 23.6173 45.132
442 1 41.1814 34.7094 6.17838
443 1 52.4815 45.2538 16.3919
444 1 54.9644 55.0369 22.3275
445 1 19.2596 54.5566 39.4244
446 1 54.2139 13.9016 38.9868
447 1 50.2133 48.0404 13.7722
448 1 36.1099 31.8663 36.6923
449 1 42.0673 17.0915 52.4284
450 1 24.9437 16.6625 29.4574
451 1 27.9695 55.389 1.09905
452 1 5.71092 33.7658 25.1174
453 1 47.1871 55.263 14.545
454 1 24.5915 34.7313 33.6654
455 1 13.8201 47.2566 41.9074
456 1 35.3235 45.8427 35.7314
457 1 52.9785 37.53 25.1361
458 1 43.6915 54.7469 21.7497
459 1 2.34904 35.0432 9.6793
460 1 44.752 20.6887 28.7972
461 1 16.1256 18.5873 55.8781
462 1 54.3217 24.1924 19.9822
463 1 51.3744 19.9308 29.0983
464 1 44.7421 27.9672 50.0002
465 1 47.494 55.7254 46.6497
466 1 30.011 49.1872 47.788
467 1 50.8873 38.5848 42.7814
468 1 4.89584 13.2211 44.878
469 1 1.40289 19.1419 15.4914
470 1 20.8823 12.7347 22.3038
471 1 7.64508 39.0531 6.18519
472 1 28.8342 44.2156 48.6981
473 1 17.7196 35.5399 8.79388
474 1 2.35878 23.9312 21.2358
475 1 21.1114 52.343 53.7074
476 1 1.03296 1.06733 11.5157
477 1 43.3825 24.9311 50.0269
478 1 4.87275 32.4989 55.1818
479 1 55.3396 25.9425 35.5041
480 1 15.7027 40.8753 1.97575
481 1 9.23555 12.9278 53.6648
482 1 36.2357 29.371 30.9532
483 1 51.8531 23.9843 12.2498
484 1 25.0037 30.5489 32.4999
485 1 43.8104 53.01 5.77048
486 1 32.3363 36.2724 52.8867
487 1 51.2027 10.8577 21.9901
488 1 50.7447 21.3004 9.32859
489 1 19.4747 17.3563 38.866
490 1 39.1823 16.8163 33.4787
491 1 23.5685 17.2727 25.0646
492 1 18.2155 40.7401 11.7339
493 1 11.9588 3.41928 20.3667
494 1 22.1429 47.3973 52.5828
495 1 14.5759 19.0441 1.69721
496 1 40.3432 15.8363 38.6008
497 1 26.1702 10.8154 33.7224
498 1 41.6686 27.9703 53.3198
499 1 43.5686 23.3404 27.716
500 1 27.7796 16.9946 52.2909
501 1 41.1251 33.9183 27.2936
502 1 25.0232 1.22996 33.9642
503 1 1.04203 2.96957 23.1419
504 1 7.52942 26.8884 40.1493
505 1 35.2252 25.3806 3.24644
506 1 3.78934 24.1207 52.4942
507 1 49.1539 6.04561 5.95544
508 1 25.8997 9.1589 0.897115
509 1 6.4206 31.465 7.59793
510 1 49.0463 36.344 45.2843
511 1 30.6832 50.78 39.3269
512 1 7.49544 25.3181 26.8189
513 1 40.3595 6.62636 31.7702
514 1 25.3746 21.2339 31.5355
515 1 21.5929 25.199 29.9066
516 1 16.4918 44.6196 29.6171
517 1 39.5555 19.3558 52.6409
518 1 27.802 22.6293 16.7527
519 1 26.9681 10.8692 45.0873
520 1 31.7825 8.99139 15.0667
521 1 24.3942 13.5148 29.0959
522 1 49.5373 25.0401 37.387
523 1 46.4269 -0.233676 8.83249
524 1 41.1803 44.5508 38.6064
525 1 15.9386 23.1194 33.763
526 1 22.0063 39.4331 48.1153
527 1 44.1461 46.4022 22.3817
528 1 49.6274 45.2801 30.9462
529 1 30.0315 21.0864 43.1575
530 1 41.7262 35.4035 49.8433
531 1 43.5076 1.12487 45.2359
532 1 42.4462 19.8049 21.8234
533 1 55.03 6.45722 5.83237
534 1 49.8461 6.21916 36.4931
535 1 32.9566 49.4411 41.1494
536 1 22.5243 34.8593 24.3337
537 1 26.3839 51.3892 25.1175
538 1 24.0984 12.1781 44.2833
539 1 53.6337 27.8229 10.5002
540 1 37.8214 15.0423 36.886
541 1 38.4289 42.8428 7.03926
542 1 36.5182 8.28786 24.8775
543 1 31.6492 7.97807 50.2852
544 1 41.4167 19.549 15.954
545 1 46.471 46.5279 15.9199
546 1 27.6438 7.36737 -0.19048
547 2 11.1153 44.8967 24.3905
548 2 4.40676 56.0594 55.6407
549 2 43.7254 0.966061 20.4441
550 2 4.97378 45.5879 0.270877
551 2 47.127 5.51535 19.9712
552 2 7.01612 5.16907 35.1136
553 2 37.3796 8.3351 16.7577
554 2 23.7488 56.1726 51.6463
555 2 14.1235 12.958 21.2314
556 2 12.6186 41.6728 42.6829
557 2 11.0045 5.7903 33.1533
558 2 17.0454 34.6717 5.96998
559 2 39.8621 18.6329 23.1385
560 2 4.83093 16.1812 29.068
561 2 40.7735 10.2336 47.2417
562 2 3.23634 19.7911 28.5557
563 2 30.2915 47.7098 34.6436
564 2 16.3764 5.0163 39.8003
565 2 20.5325 19.6168 30.6924
566 2 31.5326 10.2158 38.7114
567 2 44.709 39.025 0.549223
568 2 38.0641 13.8393 23.4173
569 1 20.5391 36.3322 55.354
570 1 3.7565 54.3328 23.0331
571 1 0.633182 39.7427 51.7866
572 1 17.9523 41.1255 46.228
573 1 4.92483 30.5819 53.1013
574 1 2.98718 13.842 19.8472
575 1 54.5402 11.2838 45.8121
576 1 46.4746 30.1548 51.7667
577 1 51.4606 50.1504 45.1943
578 1 43.1616 41.2595 41.9749
579 1 2.43775 10.4784 11.7141
580 1 13.6989 36.6912 45.2954
581 1 50.0906 8.93508 6.78339
582 1 6.07031 5.57902 11.9738
583 1 43.7967 44.6222 7.99782
584 1 40.0397 23.0202 42.8718
585 1 13.2186 42.015 35.8772
586 1 43.0979 55.1006 36.9081
587 1 29.0026 33.9639 39.2751
588 1 39.8237 6.70899 21.6437
589 1 19.2563 37.2492 14.3701
590 1 1.2358 54.0607 54.6625
591 1 26.0478 54.2918 6.72559
592 1 52.8174 33.6565 6.41855
593 1 44.8186 7.28602 26.8498
594 1 52.4306 39.3452 54.5533
595 1 45.1227 21.6864 25.4245
596 1 51.6686 55.9507 27.9326
597 1 21.2602 8.76341 26.1856
598 1 3.45853 26.8845 9.08283
599 1 5.61445 51.1745 8.77349
600 1 24.5036 29.985 2.904
601 1 45.9301 36.2787 13.3028
602 1 31.2091 16.2847 24.4729
603 1 23.0541 43.5296 55.0582
604 1 40.0325 6.91011 7.35228
605 1 30.5689 44.2923 34.4261
606 1 42.0428 41.6628 39.4068
607 1 46.6607 -0.108016 19.0014
608 1 29.7949 0.0151694 25.0897
609 1 33.4625 30.5954 12.5695
610 1 52.6745 43.2451 11.0938
611 1 32.4012 21.7412 17.9821
612 1 29.6107 37.18 38.2515
613 1 26.1267 -0.101576 42.0968
614 1 42.0896 12.297 4.01955
615 1 51.0659 47.0982 45.3358
616 1 55.6948 9.52801 17.7346
617 1 13.1747 9.31614 45.8775
618 1 20.0956 24.0254 24.3768
619 1 55.7518 26.4672 20.3159
620 1 42.9737 26.3293 23.693
621 1 40.8607 53.5571 14.7738
622 1 46.9486 35.4644 30.3968
623 1 51.8368 14.3355 49.3378
624 1 38.1186 34.8895 18.5605
625 1 16.9286 7.55737 10.2432
626 1 38.9007 36.2157 20.7222
627 1 0.793815 34.3901 25.7466
628 1 16.0093 6.50656 54.0191
629 1 54.7254 32.2212 45.0427
630 1 31.6106 21.8677 54.8226
631 1 43.7758 6.43179 4.92051
632 1 20.4886 26.8317 32.3353
633 1 22.7402 31.495 50.1124
634 1 47.975 42.8501 43.9271
635 1 23.96 50.4737 31.6629
636 1 49.9312 7.95699 13.5716
637 1 26.6468 14.7179 30.9264
638 1 3.01001 35.9806 27.3128
639 1 32.3155 13.8049 3.69124
640 1 37.3658 0.761478 13.6472
641 1 12.0847 26.961 17.3468
642 1 10.3198 9.62472 21.1879
643 1 35.9099 33.6302 55.0816
644 1 4.65078 35.8378 5.63516
645 1 54.2685 31.6334 19.365
646 1 11.3641 15.7949 38.7646
647 1 14.0735 25.1328 1.47728
648 1 51.6441 27.2391 0.269048
649 1 45.4624 38.1645 26.1812
650 1 24.4755 6.04065 7.4071
651 1 32.7516 37.2425 32.9426
652 1 42.8372 26.0749 6.20505
653 1 49.5626 51.1262 1.43781
654 1 7.98974 52.1361 52.3527
655 1 51.1385 13.9245 24.324
656 1 36.4243 52.7759 40.6643
657 1 56.0052 24.0833 1.59
658 1 54.1052 20.5474 40.3931
659 1 33.9097 12.061 35.236
660 1 55.0971 6.12008 36.3853
661 1 41.951 20.7778 18.3654
662 1 28.4489 1.389 2.21482
663 1 16.4491 40.5875 16.4906
664 1 22.3108 19.9755 14.2009
665 1 14.5642 48.0532 27.5005
666 1 14.2226 10.6422 6.38087
667 1 10.6049 12.7398 48.6001
668 1 51.2182 46.1198 42.6575
669 1 21.6844 28.0997 30.2151
670 1 48.5851 35.0236 52.7381
671 1 44.6123 17.7221 35.6332
672 1 3.20976 24.408 49.5292
673 1 6.97219 17.8094 39.7822
674 1 6.26825 34.6817 14.1873
675 1 47.0905 44.2488 17.1829
676 1 41.4878 33.489 47.4505
677 1 20.345 0.117059 43.2334
678 1 18.4261 50.77 22.5969
679 1 28.9688 52.2139 24.0704
680 1 30.9007 53.1244 17.3221
681 1 43.4569 53.48 44.3194
682 1 8.27994 3.82024 42.7558
683 1 44.6073 49.5027 46.0502
684 1 17.9543 41.5787 23.9417
685 1 47.0175 31.3554 47.2443
686 1 55.8451 -0.0885169 20.3879
687 1 22.912 28.4551 52.6274
688 1 17.2975 55.4576 25.1497
689 2 21.4302 50.0012 24.0036
690 2 27.9757 52.8995 9.29008
691 2 34.7518 31.5182 44.4698
692 2 12.6844 33.6654 50.1962
693 2 45.9761 45.5195 24.9247
694 2 9.13945 55.9116 48.2819
695 2 17.2768 14.8013 45.735
696 2 20.8107 33.0458 7.8152
697 2 1.26723 18.0972 36.3843
698 2 16.7353 19.7835 6.7299
699 2 44.4471 11.5361 39.9774
700 2 41.2321 4.57004 0.17943
701 2 53.5111 27.8966 4.93606
702 2 33.2559 22.0628 35.9199
703 2 48.3054 46.0619 44.3416
704 2 49.7203 16.9167 21.2488
705 2 2.46062 37.1114 7.32176
706 2 1.61628 40.627 44.7233
707 2 52.1753 17.2581 24.4041
708 2 44.8499 53.6124 0.727135
709 2 44.3133 31.7234 42.315
710 2 52.5893 46.1327 32.4401
711 1 44.3827 28.6022 41.0834
712 1 56.0264 12.3084 40.5682
713 1 12.3717 11.5918 31.1459
714 1 17.376 17.9858 44.1267
715 1 26.9015 26.9396 18.5792
716 1 2.16726 15.8793 51.289
717 1 21.8547 53.7213 45.716
718 1 26.0018 51.7373 41.991
719 1 11.2206 43.538 47.4022
720 1 18.6938 16.2915 13.0506
721 1 34.8463 46.7477 54.8785
722 1 45.0451 27.5058 10.8442
723 1 20.2246 12.6745 15.9613
724 1 34.8629 40.7848 49.1933
725 1 30.1442 25.8139 38.6926
726 1 30.8131 8.43467 25.301
727 1 26.6494 56.0058 48.0396
728 1 10.5662 19.2005 29.5723
729 1 21.5149 48.3621 5.67894
730 1 45.5423 14.1255 42.0558
731 1 9.77386 29.6506 2.47511
732 1 31.9136 39.6452 46.8092
733 1 13.3184 3.12383 50.4314
734 1 44.3438 13.5075 29.3235
735 1 41.5817 -0.293316 17.9674
736 1 46.5625 10.4729 3.94401
737 1 41.5848 53.9198 23.5754
738 1 1.04238 17.9322 39.2021
739 1 4.41381 25.6301 55.4443
740 1 55.9402 13.3834 45.2999
741 1 52.3881 54.1276 46.2042
742 1 37.8997 9.11354 55.1182
743 1 32.9766 0.038615 25.5174
744 1 53.2101 21.2403 7.77475
745 1 52.5711 13.1391 19.468
746 1 24.1302 44.8845 46.4051
747 1 0.186956 3.51593 36.5666
748 1 48.136 21.7749 46.0109
749 1 13.0957 29.6677 30.5272
750 1 42.5167 48.329 14.4529
751 1 33.1173 6.77687 54.756
752 1 2.77972 30.4522 46.3207
753 1 47.8335 44.5765 19.8016
754 1 17.1139 48.4596 11.178
755 1 11.097 40.9224 51.7264
756 1 17.2521 53.6419 1.6583
757 1 9.29298 41.4329 47.4458
758 1 53.3063 9.60927 30.1776
759 1 17.4306 23.2946 22.8982
760 1 54.0998 38.7749 9.75918
761 1 8.47502 12.6465 12.3486
762 1 35.9252 24.4765 19.7787
763 1 31.7399 36.0338 55.4623
764 1 44.3186 50.6479 0.581002
765 1 41.4652 23.6813 6.06738
766 1 13.1492 10.7767 11.9399
767 1 21.8726 38.107 50.6125
768 1 20.1135 3.46255 37.2164
769 1 17.5981 48.8911 54.5937
770 1 3.80727 55.2415 1.87263
771 1 2.80707 41.0375 51.1569
772 1 13.2372 24.9971 41.9325
773 1 25.9865 41.2664 30.8402
774 1 40.5211 0.874306 44.9689
775 1 48.6963 23.6271 41.6013
776 1 22.406 2.27933 33.9616
777 1 16.1815 2.60434 34.9611
778 1 6.34058 22.7279 40.4519
779 1 47.8364 2.43875 11.4964
780 1 15.9935 40.2045 9.67651
781 1 32.7913 24.9242 21.1881
782 1 36.7534 24.635 39.7612
783 1 49.7897 6.98786 31.3967
784 1 38.3183 26.8351 16.3176
785 1 21.3203 21.0354 27.5938
786 1 8.87665 54.6094 9.60189
787 1 10.0196 30.732 34.0587
788 1 1.08087 12.1273 34.9486
789 1 53.9911 20.592 45.3589
790 1 8.06721 31.1204 10.1534
791 1 39.8161 29.9386 53.4923
792 1 35.7512 2.7832 13.1621
793 1 14.1002 54.5135 40.2176
794 1 37.9177 37.7874 52.812
795 1 24.1263 21.1224 21.0726
796 1 9.43478 49.8748 50.7346
797 1 18.7189 11.5569 14.0202
798 1 2.03418 44.9078 0.578038
799 1 31.7279 26.2778 17.4402
800 1 11.0311 14.4449 34.9314
801 1 36.6173 51.4582 52.8046
802 1 35.4491 2.87627 5.83443
803 1 34.9874 36.3733 42.6965
804 1 47.9469 48.9278 48.869
805 1 15.7906 38.4836 39.6138
806 1 25.2108 22.5804 2.59481
807 1 55.4819 13.9819 54.9913
808 1 32.9525 42.5703 42.5549
809 1 20.861 27.0743 27.7903
810 1 1.91369 11.8404 9.03921
811 1 8.71139 47.7287 33.9824
812 1 18.3244 51.4031 2.75747
813 1 14.8056 30.9661 43.8363
814 1 18.1361 26.8663 41.6424
815 1 4.35192 8.93426 41.5367
816 1 26.9843 42.5902 15.3329
817 1 14.7184 1.3591 23.9007
818 1 40.7474 10.5788 55.2355
819 1 42.8356 28.2213 13.3179
820 1 35.2228 55.1924 10.4203
821 1 35.4848 49.6695 5.11623
822 1 53.7286 51.3359 39.4784
823 1 9.08671 48.8915 36.7218
824 1 4.95985 37.9851 28.5094
825 1 19.4879 4.09783 25.5449
826 1 2.56148 14.7859 12.6391
827 1 21.1321 20.8617 44.7347
828 1 35.6831 39.0509 27.9869
829 1 5.60333 41.3704 22.5018
830 1 7.9528 37.2575 55.69
831 2 6.81394 40.9792 39.9089
832 2 21.5216 15.7732 2.74185
833 2 20.4699 43.6883 23.6823
834 2 40.6906 31.8152 45.1578
835 2 27.9851 -0.218571 27.5933
836 2 14.3769 14.1893 26.1606
837 2 15.1718 27.2913 16.9621
838 2 22.4603 42.5201 48.0772
839 2 27.1848 39.0932 28.4533
840 2 20.3107 16.0341 53.4923
841 2 14.5455 23.8287 24.532
842 2 46.0306 7.67048 48.9537
843 2 39.4393 4.89821 37.9281
844 2 31.0353 15.795 18.3295
845 2 7.68162 52.2702 16.6405
846 2 40.7935 41.1198 49.0249
847 2 47.9134 55.4739 11.1645
848 2 48.8495 46.0645 28.3258
849 2 30.7906 27.7909 36.1862
850 2 22.894 29.0146 43.3911
851 2 44.1252 3.07526 5.07141
852 2 46.3471 39.1531 20.9935
853 1 38.5026 24.0105 6.26997
854 1 23.0116 32.3855 23.3883
855 1 16.2426 40.1325 6.83556
856 1 35.22 23.1207 33.5022
857 1 5.47973 16.0633 37.7457
858 1 31.5819 12.2837 33.9726
859 1 5.38389 28.31 1.565
860 1 45.4467 37.3618 23.5215
861 1 1.72751 42.2218 29.0037
862 1 54.6531 31.1675 5.38795
863 1 41.67 9.5609 13.1518
864 1 3.46622 26.0199 42.527
865 1 51.2153 21.6858 19.8774
866 1 12.742 49.1702 36.2145
867 1 0.0475782 20.9295 18.3586
868 1 45.719 54.5681 51.9125
869 1 38.065 35.3061 54.284
870 1 49.0013 14.8731 52.9762
871 1 28.8391 0.370079 49.7851
872 1 19.068 7.71766 7.0061
873 1 25.0251 36.6589 48.9874
874 1 46.5827 44.155 14.0007
875 1 4.6456 28.4579 33.2841
876 1 45.861 -0.0690772 24.913
877 1 32.2031 48.0272 48.2419
878 1 55.7608 44.7876 0.213928
879 1 31.985 28.9243 17.6348
880 1 45.7686 26.1224 24.2588
881 1 14.5097 30.1361 50.999
882 1 37.3971 0.96308 30.5746
883 1 23.9633 39.403 29.2373
884 1 17.8937 5.63447 32.1924
885 1 34.8116 7.53342 20.7918
886 1 44.7876 51.5977 3.13435
887 1 0.683996 9.64341 23.4637
888 1 9.4352 22.8228 6.15425
889 1 36.0433 11.0845 0.476922
890 1 46.3494 5.12971 34.2022
891 1 37.0409 24.2281 31.5579
892 1 31.2777 22.0474 25.9203
893 1 48.9224 7.55745 -0.256437
894 1 17.1991 30.4553 32.9957
895 1 3.31894 35.6525 17.594
896 1 5.21526 38.0525 6.9287
897 1 50.3429 6.15676 45.2362
898 1 54.9461 0.664811 31.4375
899 1 27.6227 46.4647 20.4093
900 1 12.9111 52.2029 46.9517
901 1 32.6766 2.02824 45.5686
902 1 6.0599 24.5386 30.8729
903 1 33.0419 50.1438 38.3358
904 1 35.779 36.1049 11.4453
905 1 33.5927 27.6126 15.829
906 1 32.4665 47.6461 20.1473
907 1 34.4053 15.6377 4.00133
908 1 0.670424 6.20412 34.5278
909 1 51.2197 14.6087 33.7615
910 1 31.5929 42.4546 22.8011
911 1 17.7193 8.22028 22.0022
912 1 19.6074 29.778 47.6573
913 1 33.3645 1.93404 51.5576
914 1 50.3465 54.2818 1.46107
915 1 12.7533 25.6921 37.5279
916 1 13.0105 39.4659 8.37382
917 1 4.18307 42.6854 44.1431
918 1 40.9397 16.7096 25.7954
919 1 13.0356 29.3688 46.1001
920 1 43.2337 42.6627 44.3028
921 1 32.972 48.1393 56.0585
922 1 52.5152 4.82023 45.7528
923 1 39.4388 48.7833 49.4233
924 1 54.9664 48.6913 18.3247
925 1 3.21819 11.3381 44.4559
926 1 0.817811 1.28281 18.6175
927 1 12.5769 6.36378 24.8188
928 1 11.5765 19.6976 49.991
929 1 1.25088 39.6335 7.78272
930 1 3.59139 44.056 54.657
931 1 10.2419 33.3049 45.1922
932 1 34.0361 42.5786 2.88874
933 1 37.7655 4.64663 35.4794
934 1 48.8645 51.2723 20.3909
935 1 12.8873 45.6918 39.398
936 1 27.8966 36.1418 45.006
937 1 30.9745 43.9495 44.7327
938 1 19.5272 24.3377 5.80549
939 1 55.3881 0.564629 13.5339
940 1 44.4946 6.31835 36.5804
941 1 19.7061 9.54396 43.8414
942 1 20.5602 54.9638 34.7528
943 1 13.627 39.0435 10.7667
944 1 39.0516 2.00042 9.41202
945 1 24.5061 30.1225 36.0818
946 1 53.4915 42.3035 28.6754
947 1 11.6014 38.4365 43.8111
948 1 3.44426 49.3416 11.465
949 1 0.468632 30.7852 42.1799
950 1 46.8823 3.59983 7.16146
951 1 14.5535 43.412 53.9522
952 1 29.9455 8.90065 29.5067
953 1 20.6027 0.54243 17.2899
954 1 39.108 53.2457 22.6434
955 1 52.6577 18.3863 14.9289
956 1 5.33031 35.7014 8.83961
957 1 29.2396 4.85933 12.0098
958 1 33.5397 17.9526 50.6874
959 1 23.2725 10.2692 0.433362
960 1 9.17546 13.5773 3.88063
961 1 11.6829 42.057 23.1287
962 1 36.1363 11.9947 13.7051
963 1 33.4004 1.1485 9.6256
964 1 43.3226 30.388 45.2829
965 1 11.5083 17.8756 41.9196
966 1 22.0657 0.895662 7.07123
967 1 29.6551 38.0603 3.97158
968 1 45.5535 42.6351 24.4477
969 1 -0.00361375 51.7091 55.2864
970 1 25.9703 10.6039 38.2377
971 1 13.2398 14.3722 36.7527
972 1 45.4244 16.6739 41.1436
973 2 45.2776 5.43604 24.1484
974 2 48.3866 42.1116 34.8063
975 2 53.3595 39.1898 28.1622
976 2 16.4082 28.5632 35.6632
977 2 53.0646 36.719 16.0721
978 2 52.4183 36.4839 20.1667
979 2 34.7432 40.3199 41.0313
980 2 55.0477 6.27724 45.1841
981 2 36.3205 12.524 10.7318
982 2 -0.340669 28.0286 50.6998
983 2 14.5264 30.477 -0.224963
984 2 48.4984 22.4266 35.6206
985 2 50.9068 1.6679 10.9035
986 2 4.53006 22.1865 33.616
987 2 18.7308 5.37686 1.95582
988 2 3.16283 27.4844 53.3859
989 2 41.0619 27.3038 26.1272
990 2 54.7863 10.0267 14.3739
991 2 22.4652 21.3924 17.3098
992 2 16.3418 15.7213 54.9192
993 2 0.889582 15.7234 56.0159
994 2 53.7726 22.6765 35.3335
995 1 54.0188 3.15305 44.3083
996 1 15.3409 24.6148 8.14043
997 1 28.6896 1.75562 8.47821
998 1 5.82845 51.6579 33.2196
999 1 14.8169 31.6249 48.7244
1000 1 12.5785 12.8413 44.3557
1001 1 -0.231343 31.5864 11.0754
1002 1 47.0763 33.0027 20.0896