ITEM: TIMESTEP
0
ITEM: NUMBER OF ATOMS
9088
ITEM: BOX BOUNDS pp pp pp
-2.3394284894101264e-01 5.6118435474791411e+01
-2.3394284894101264e-01 5.6118435474791411e+01
-2.3394284894101264e-01 5.6118435474791411e+01
ITEM: ATOMS id type x y z
1 1 28.3689 41.2756 49.0322
2 1 44.2916 4.53481 36.4907
3 1 41.8615 12.9111 50.0867
4 1 36.9206 49.4669 43.8387
5 1 11.2977 34.5088 8.36062
6 1 35.8113 25.4557 21.8935
7 1 19.8546 33.263 1.12604
8 1 48.202 1.46849 9.28699
9 1 55.8988 49.9971 40.2225
10 1 36.9023 13.2965 53.4684
11 1 48.6169 35.9054 32.6804
12 1 35.5169 19.208 36.9061
13 1 21.6484 48.6573 37.0934
14 1 19.8808 49.5341 50.1056
15 1 3.07233 36.7295 30.1298
16 1 26.5912 0.696592 39.0408
17 1 50.1998 10.0087 27.8726
18 1 4.19071 47.9878 36.0475
19 1 30.237 23.8939 52.3385
20 1 31.0503 2.49198 44.822
21 1 25.0637 49.2059 50.2348
22 1 9.58732 41.4802 1.77883
23 1 21.9445 18.0467 38.0586
24 1 3.2249 7.74751 55.1848
25 1 26.2188 27.3981 38.9737
26 1 19.7855 27.9478 43.3985
27 1 34.8414 29.5625 54.4739
28 1 13.4625 32.5926 14.8792
29 1 11.0162 50.353 40.146
30 1 49.1391 9.75848 43.3266
31 1 30.6826 4.59056 0.177541
32 1 33.884 5.05654 23.6711
33 1 24.3717 41.9094 2.58732
34 1 14.623 24.722 1.81665
35 1 19.9645 51.264 40.497
36 1 20.6809 35.79 15.7396
37 1 23.613 -0.215222 46.7115
38 1 23.2867 21.2068 3.00242
39 1 13.3555 26.1504 0.0683098
40 1 8.61164 11.424 48.0601
41 1 46.6471 40.9036 0.995043
42 1 5.67714 38.7972 15.0315
43 1 21.9691 16.883 9.633
44 1 50.8222 52.307 23.6983
45 1 13.1895 43.4627 55.9081
46 1 -0.233551 17.8166 11.0317
47 1 42.6869 6.65078 32.0917
48 1 18.212 30.7943 19.8095
49 1 4.98603 18.872 31.6478
50 1 18.2862 19.2533 21.0476
51 1 50.2321 32.4275 30.4251
52 1 22.2492 10.4801 37.3852
53 1 52.5303 20.5379 1.19579
54 1 52.3613 18.3152 45.7799
55 1 39.7722 45.0404 29.4223
56 1 11.4842 25.0625 44.8746
57 1 7.05169 33.1073 34.6254
58 1 37.4775 11.5426 21.8027
59 1 5.3289 30.3038 28.6714
60 1 36.1136 32.6955 54.712
61 1 11.8034 27.139 54.4497
62 1 52.8252 22.5025 24.2725
63 1 49.422 43.3138 28.8991
64 1 22.2386 4.29868 16.3479
65 1 11.0431 42.5441 47.7495
66 1 8.06626 44.9001 10.084
67 1 12.1402 43.1414 53.1002
68 1 11.24 33.8149 52.3859
69 1 37.3568 38.7098 45.8332
70 1 2.14131 28.205 4.96076
71 1 51.8518 47.209 28.1932
72 1 55.5762 29.6785 1.56593
73 1 25.2688 46.6577 4.7526
74 1 5.3125 34.2579 45.1553
75 1 37.6761 19.3803 5.14623
76 1 38.4685 23.889 5.99768
77 1 47.4664 40.3477 32.5601
78 1 33.6568 40.6923 10.2896
79 1 31.9573 23.2591 42.8952
80 1 39.3294 -0.00446528 30.9017
81 1 17.0875 28.0401 54.4837
82 1 50.4533 1.29275 23.8983
83 1 7.8899 14.811 27.9677
84 1 36.5108 1.96191 3.97625
85 1 39.8959 10.6874 38.725
86 1 34.7352 33.9153 34.6216
87 1 25.8304 8.30317 31.9472
88 1 15.9907 11.6241 12.7391
89 1 7.10029 47.8696 39.499
90 1 1.06265 39.6389 51.5034
91 1 17.8767 7.96531 21.6507
92 1 10.238 11.7067 19.4895
93 1 38.2808 9.55535 11.35
94 1 35.484 33.9537 28.7694
95 1 40.6785 24.5696 18.9856
96 1 7.193 0.0557393 14.0288
97 1 3.43175 8.55406 32.8107
98 1 17.8622 12.7738 30.3813
99 1 42.2585 36.8263 5.66451
100 1 3.18896 5.99503 26.8782
101 1 0.868516 34.0184 47.4698
102 1 5.23299 1.55728 12.3034
103 1 41.6154 43.3634 55.9683
104 1 14.4559 55.1106 39.4823
105 1 31.5178 13.7013 10.7974
106 1 18.9647 48.3567 47.7021
107 1 33.7395 0.769658 42.6784
108 1 46.6254 17.1436 47.4245
109 1 10.3521 45.9146 16.4128
110 1 31.2933 8.86892 10.6055
111 1 38.4302 54.0491 14.6383
112 1 5.24323 5.45781 10.0911
113 1 28.9072 33.3048 11.5885
114 1 24.4156 16.8418 39.9442
115 1 42.9174 34.7358 30.8248
116 1 32.066 5.86779 37.9497
117 1 0.0983263 12.2589 40.5806
118 1 1.60263 43.8652 31.6836
119 1 36.052 36.3294 33.7783
120 1 14.7936 1.90972 40.0032
121 2 11.8498 38.6344 35.3967
122 2 51.4454 18.5535 12.8309
123 2 55.2913 46.5418 20.9223
124 2 52.4747 29.5955 19.8621
125 2 53.84 35.4782 38.6961
126 2 25.2232 7.37475 17.9524
127 2 12.4753 51.5578 15.6194
128 2 7.57949 30.0327 35.359
129 2 55.2986 17.9789 7.62809
130 2 1.23255 20.932 45.8843
131 2 52.0271 11.9808 47.3746
132 2 39.0801 46.7241 17.736
133 2 35.0208 42.7027 15.8617
134 2 15.21 5.19447 8.91155
135 2 42.814 34.2518 3.85449
136 2 9.76776 0.68176 31.8739
137 2 40.787 24.1329 46.5125
138 2 5.20745 4.64103 49.4522
139 2 31.3542 14.6479 13.8347
140 2 45.4658 27.4717 39.0223
141 2 8.0123 38.3283 22.9708
142 2 30.0349 23.287 40.3571
143 1 47.158 19.5837 45.9965
144 1 29.3354 17.4664 13.3653
145 1 53.9793 12.692 6.60188
146 1 52.0531 26.6071 15.2263
147 1 29.7492 28.2655 32.4155
148 1 27.2012 10.2024 38.4468
149 1 46.4579 6.4137 44.7754
150 1 24.9875 25.4802 9.39287
151 1 49.6258 24.2291 53.9786
152 1 10.1944 33.6913 45.4444
153 1 49.7835 48.4943 29.4304
154 1 43.0317 41.7183 30.5395
155 1 32.3166 18.5047 10.4446
156 1 7.74583 33.007 9.48159
157 1 51.6254 34.4185 22.0998
158 1 37.8459 5.59336 0.362679
159 1 55.1032 47.9761 13.6924
160 1 49.3019 2.62498 2.32763
161 1 10.3667 25.3569 21.4354
162 1 13.2307 12.9001 44.2542
163 1 20.1026 21.4531 26.3506
164 1 55.8312 38.4148 11.8314
165 1 51.5085 36.0976 6.25487
166 1 45.1112 41.6563 14.6584
167 1 31.2495 39.969 46.4081
168 1 39.8869 8.17655 48.8077
169 1 28.0318 50.6601 39.4365
170 1 39.3644 33.9562 47.2009
171 1 28.2486 32.7193 23.6477
172 1 21.3345 43.9583 28.4275
173 1 14.0862 39.7436 9.98772
174 1 35.4135 1.73814 32.7423
175 1 18.4781 28.0942 16.3427
176 1 39.6057 37.0929 6.83163
177 1 9.82233 4.91554 25.0471
178 1 17.9151 6.07037 11.3661
179 1 26.7551 45.1226 47.7744
180 1 55.5192 26.9517 8.32326
181 1 48.398 42.9675 31.5759
182 1 49.3035 30.3313 52.8683
183 1 13.7422 20.4877 4.0668
184 1 25.8104 52.8281 11.9383
185 1 33.5159 10.2092 34.4334
186 1 43.6112 26.5736 26.5002
187 1 1.69649 6.83352 52.9877
188 1 28.6727 39.275 3.33716
189 1 13.3762 41.3121 34.039
190 1 35.6701 48.9161 21.6329
191 1 20.6381 19.1733 45.9406
192 1 50.2138 56.046 7.89336
193 1 37.1802 8.78411 13.7921
194 1 36.1269 3.92624 31.0488
195 1 24.6235 27.6682 1.32559
196 1 35.0423 5.13932 26.4181
197 1 7.43638 9.32306 49.6369
198 1 12.903 17.7846 30.853
199 1 31.4376 18.6765 3.41303
200 1 39.709 20.6989 41.5282
201 1 26.8385 12.6266 16.1713
202 1 39.0965 1.88141 2.79023
203 1 31.3499 27.4785 37.1996
204 1 41.0723 27.2829 19.4785
205 1 8.04613 12.6299 2.60321
206 1 39.3758 25.1642 24.4903
207 1 0.154103 45.1584 45.8086
208 1 31.8998 5.03888 10.7661
209 1 47.5545 6.49146 47.2861
210 1 27.4056 21.6016 41.8947
211 1 8.6124 5.89856 21.8887
212 1 43.3085 27.7599 43.5556
213 1 22.4469 12.4321 51.3573
214 1 1.16373 37.9366 2.56471
215 1 11.5422 27.6617 22.9437
216 1 55.9522 24.5987 51.0701
217 1 22.0516 8.87826 35.3251
218 1 1.57254 9.84678 54.0505
219 1 44.8436 53.7026 6.86636
220 1 45.0779 5.97954 42.3364
221 1 29.0804 0.118038 16.2776
222 1 2.61002 7.49682 21.7876
223 1 26.272 44.0535 2.97953
224 1 42.707 8.90289 25.4909
225 1 43.8626 48.8397 38.2263
226 1 12.8766 42.1057 25.7032
227 1 20.4481 46.0099 33.5747
228 1 55.9789 20.1598 53.032
229 1 11.0993 27.0562 43.4284
230 1 31.036 29.685 41.3778
231 1 31.7725 35.3102 25.1055
232 1 41.1208 16.8824 17.862
233 1 51.0074 50.0114 38.0724
234 1 10.9382 14.1815 50.9619
235 1 41.5527 18.6248 42.2477
236 1 6.82204 47.8818 29.4292
237 1 52.8381 29.7439 23.5894
238 1 36.3544 0.35196 1.7283
239 1 33.7818 28.6973 6.18717
240 1 9.20269 32.9102 50.8971
241 1 20.2549 49.1977 10.8109
242 1 32.9472 10.903 2.97236
243 1 7.67813 24.4301 33.5186
244 1 55.7965 42.805 7.47662
245 1 1.53313 27.7301 19.957
246 1 54.2987 5.75676 5.67299
247 1 54.2584 48.9963 10.9065
248 1 44.1771 0.36542 45.5566
249 1 10.5425 45.0439 48.9708
250 1 23.6279 24.452 17.7287
251 1 17.8056 39.5094 3.88846
252 1 47.952 16.4106 38.8198
253 1 2.48527 27.1903 48.3432
254 1 10.5162 5.44073 32.916
255 1 54.976 8.82669 18.0869
256 1 30.8634 47.7515 24.5024
257 1 1.4512 12.1593 34.9701
258 1 33.2334 18.502 27.7019
259 1 45.851 45.8973 55.1332
260 1 24.843 41.4804 33.9787
261 1 32.0734 10.6402 39.498
262 1 21.5435 44.6694 11.8157
263 2 43.873 24.8268 29.3006
264 2 25.6089 47.1189 1.61453
265 2 49.9622 7.17475 49.1611
266 2 7.07914 24.5255 38.6955
267 2 14.7593 21.4956 1.28017
268 2 4.72036 3.07692 24.5016
269 2 15.3582 2.42977 16.8082
270 2 44.4946 43.6556 53.5078
271 2 53.7592 44.8644 26.2015
272 2 32.9285 40.3576 13.6082
273 2 33.231 6.04355 34.7965
274 2 53.0907 27.1287 30.4445
275 2 27.2572 6.91703 53.1859
276 2 56.104 13.9825 4.44069
277 2 1.06327 42.9596 39.4021
278 2 11.675 34.1962 18.3787
279 2 43.9119 51.3756 46.5685
280 2 19.5947 55.236 22.2136
281 2 41.4814 17.0742 14.5341
282 2 15.1992 28.76 8.15416
283 2 46.6702 47.7559 28.4943
284 2 16.8342 27.0389 34.8815
285 1 4.82068 35.3502 5.75335
286 1 49.5949 34.945 20.2594
287 1 44.5304 1.73123 35.825
288 1 22.0047 16.8449 32.0767
289 1 20.4348 29.3049 6.42306
290 1 50.6472 12.9795 24.1371
291 1 18.1727 43.7063 34.6461
292 1 40.6972 5.49789 44.2917
293 1 54.6943 19.7194 55.6153
294 1 30.8273 32.8016 41.7805
295 1 47.0538 25.4897 29.548
296 1 12.4233 32.1488 35.2476
297 1 48.4431 14.1231 33.9156
298 1 30.8701 22.2519 13.1209
299 1 31.8171 18.3603 17.6979
300 1 24.6356 31.9442 9.3821
301 1 24.5516 49.9754 23.1597
302 1 46.8479 33.5292 25.6753
303 1 53.9577 3.46367 1.54906
304 1 15.8503 35.0113 52.0172
305 1 25.5013 38.4163 23.2121
306 1 29.0366 52.1081 32.5786
307 1 5.02083 39.9398 32.0443
308 1 39.8279 53.9556 45.2548
309 1 49.7582 30.7333 28.3154
310 1 10.6304 52.9837 38.5517
311 1 38.0175 35.0866 5.71413
312 1 10.184 7.81041 26.0477
313 1 5.06829 55.6674 18.0908
314 1 29.1037 47.6461 53.0621
315 1 4.24391 6.2045 14.5991
316 1 43.8885 10.3491 10.8057
317 1 30.4126 31.8835 38.9142
318 1 5.75834 23.1636 11.3382
319 1 3.24902 2.25183 18.0873
320 1 19.0211 33.4588 25.4829
321 1 26.0227 38.5126 34.0333
322 1 55.2361 21.5795 22.9976
323 1 11.4459 10.3597 32.8409
324 1 18.4994 8.65005 32.2588
325 1 21.7401 46.1687 43.1497
326 1 16.6146 31.8885 41.1776
327 1 12.3461 9.2344 35.1439
328 1 0.315468 8.10822 36.6487
329 1 4.32214 25.5572 45.1819
330 1 7.94887 30.7089 30.1462
331 1 15.5076 39.2669 52.2928
332 1 0.614966 44.3804 12.0221
333 1 16.1684 13.6743 10.8849
334 1 33.591 34.8494 22.4941
335 1 35.6073 13.5053 51.0141
336 1 50.0834 21.4016 12.9857
337 1 0.717655 34.1616 7.59563
338 1 9.47487 23.0694 22.6255
339 1 12.939 22.5664 44.4318
340 1 25.2748 23.4657 26.1574
341 1 26.5859 51.0687 25.0934
342 1 -0.209702 26.7973 17.7087
343 1 35.9982 13.8605 27.6423
344 1 32.9894 15.8174 11.4204
345 1 48.9916 16.6808 3.80838
346 1 0.390958 6.69532 23.593
347 1 20.138 18.5148 11.0253
348 1 12.9501 10.7448 23.2899
349 1 4.28161 37.0245 10.5015
350 1 1.90566 53.6301 51.1348
351 1 45.114 35.6182 5.52063
352 1 18.7122 8.56495 52.4231
353 1 24.2935 34.5699 53.875
354 1 46.7252 37.1516 39.4176
355 1 48.6034 28.7028 38.7056
356 1 9.66354 39.9567 43.1004
357 1 19.9417 50.4314 52.6023
358 1 21.7594 23.9938 36.7882
359 1 28.8 45.0674 45.9723
360 1 16.7492 38.1983 45.3115
361 1 39.7682 22.1175 43.8218
362 1 0.392983 54.3499 4.19037
363 1 44.288 18.2537 14.5529
364 1 40.8729 0.831369 33.0611
365 1 38.4636 51.2869 9.2147
366 1 15.4578 34.4819 14.7675
367 1 50.6578 46.9381 38.0184
368 1 40.356 44.6404 26.6327
369 1 33.5572 14.4033 16.1089
370 1 3.3918 41.0646 50.8856
371 1 19.1874 27.837 48.9459
372 1 13.8697 21.964 33.69
373 1 21.4626 56.0385 38.0813
374 1 47.2205 50.4842 2.23946
375 1 4.33826 52.7866 35.1471
376 1 42.9379 49.0529 24.8706
377 1 6.53748 19.8339 51.8391
378 1 29.0657 52.6924 21.37
379 1 51.7051 39.3042 20.4692
380 1 10.6672 13.1357 27.0161
381 1 26.2762 50.4458 29.0085
382 1 55.2499 22.5468 8.24886
383 1 12.3819 23.409 22.8937
384 1 49.4426 16.5974 32.995
385 1 29.6894 8.87418 19.5859
386 1 35.9156 39.0089 23.1715
387 1 21.0168 33.6998 39.0626
388 1 24.1748 6.93172 40.4155
389 1 26.754 10.5921 14.2743
390 1 45.4686 48.9126 31.6367
391 1 6.99576 9.18039 6.76305
392 1 48.4832 48.8974 37.3604
393 1 3.41807 27.7146 0.955057
394 1 3.31548 37.7605 46.3642
395 1 54.7898 7.69656 48.0359
396 1 14.426 5.30635 23.5435
397 1 49.5269 26.1849 22.5652
398 1 21.8598 29.1634 3.92782
399 1 7.05873 54.215 41.9419
400 1 35.7351 42.999 27.6763
401 1 18.5183 30.8347 24.6525
402 1 31.8509 48.1365 43.4567
403 1 13.0581 42.3985 28.6114
404 1 26.5841 34.7438 46.0012
405 2 19.9222 8.23516 14.1078
406 2 35.9663 30.9282 7.80908
407 2 34.402 12.8481 12.8405
408 2 24.9538 49.6411 12.9277
409 2 47.0428 0.248461 16.5539
410 2 36.6603 49.0322 16.4178
411 2 5.69196 41.5604 16.8942
412 2 53.5151 8.73167 35.8152
413 2 31.3148 21.5963 45.6282
414 2 12.5671 34.9104 47.6008
415 2 55.6476 51.7348 8.85078
416 2 52.1373 42.9715 55.142
417 2 44.3889 4.97131 10.1401
418 2 7.38805 36.0342 11.3054
419 2 15.5345 54.4719 22.4256
420 2 23.82 23.0433 23.3518
421 2 41.1617 49.501 9.79772
422 2 31.9479 16.0929 8.09477
423 2 8.15272 0.568113 43.325
424 2 52.2726 10.5808 4.70886
425 2 48.0346 51.7419 38.7936
426 2 37.3869 8.44369 38.3569
427 1 29.7444 30.3002 0.0420256
428 1 4.46191 53.9284 52.3365
429 1 55.8071 27.8586 51.1667
430 1 51.9259 54.8119 9.79086
431 1 20.1468 47.4853 26.0289
432 1 42.6623 8.13797 6.59888
433 1 39.6311 25.0054 13.4939
434 1 16.9152 19.1178 49.9578
435 1 23.2249 52.2506 8.65447
436 1 32.2654 31.9938 48.6428
437 1 26.4208 24.3211 33.3497
438 1 47.0084 3.31564 35.463
439 1 1.44709 38.2857 54.0492
440 1 11.3285 22.2482 32.6041
441 1 22.6314 14.2508 10.8055
442 1 42.7937 18.6253 16.7583
443 1 41.964 10.7757 27.4978
444 1 51.6483 42.1327 47.7249
445 1 5.05385 14.6952 17.8143
446 1 38.5287 31.561 39.7251
447 1 20.7593 51.933 10.3701
448 1 45.8954 6.63232 52.6412
449 1 54.1914 6.83702 28.8874
450 1 48.2365 33.0347 0.623189
451 1 27.7808 49.2952 14.2378
452 1 48.1735 12.1048 22.9724
453 1 7.33104 19.8006 32.6799
454 1 5.57938 35.5399 52.0242
455 1 6.74383 21.7929 23.7349
456 1 46.4898 3.3861 51.685
457 1 53.6831 38.9925 18.5588
458 1 27.3256 20.3018 36.5883
459 1 2.65859 34.5423 9.72773
460 1 28.2476 0.475065 34.1669
461 1 8.08794 16.4739 17.1936
462 1 48.6499 27.5727 9.51175
463 1 15.7091 2.31043 7.28882
464 1 31.929 52.4374 22.8503
465 1 7.77045 46.769 17.4028
466 1 5.17575 47.9851 5.62822
467 1 47.1244 11.5542 38.0488
468 1 45.4045 55.5176 4.82036
469 1 15.0716 41.1631 23.4152
470 1 27.2872 0.210197 14.139
471 1 26.9128 10.0059 3.5113
472 1 15.1429 37.9838 28.2114
473 1 48.8045 38.7505 46.7243
474 1 39.8102 12.5125 16.7769
475 1 22.9832 24.8861 20.4242
476 1 12.1404 21.9105 40.0793
477 1 48.9886 3.21889 37.2121
478 1 41.5119 7.53229 13.8078
479 1 55.6637 25.9886 35.1436
480 1 40.9584 8.26755 3.81846
481 1 25.5757 1.4698 50.8977
482 1 29.8674 36.9267 22.8366
483 1 46.1983 19.4376 34.2345
484 1 5.72972 37.2821 7.35811
485 1 18.1572 45.318 25.2544
486 1 47.1153 7.94469 42.6805
487 1 21.188 12.5266 22.2122
488 1 5.77387 47.5927 25.501
489 1 2.8423 44.3817 13.6318
490 1 24.2988 50.0225 26.1717
491 1 13.0574 29.4711 47.1341
492 1 27.1588 24.3177 41.6025
493 1 44.2924 30.3931 33.9167
494 1 4.90574 54.3773 13.5462
495 1 11.3946 33.8612 13.1321
496 1 38.9686 17.8029 37.507
497 1 7.11707 17.0027 32.1644
498 1 19.8682 20.225 8.71309
499 1 33.9154 29.814 20.2382
500 1 51.8234 3.10395 36.2886
501 1 15.8963 50.8187 43.3401
502 1 50.685 42.8412 6.83422
503 1 42.7612 21.1557 42.8504
504 1 40.4033 47.189 32.2857
505 1 38.5056 27.7722 3.91662
506 1 22.2024 27.4706 42.0123
507 1 53.4414 54.3004 32.2413
508 1 10.7432 43.1789 17.6679
509 1 53.5075 29.2536 8.14042
510 1 30.5746 0.483418 3.51156
511 1 49.9952 5.65172 6.04982
512 1 14.0945 50.6322 13.0114
513 1 33.0622 30.1709 29.3742
514 1 28.3962 27.729 20.9313
515 1 29.1695 12.4782 27.3816
516 1 5.21728 40.7353 37.3018
517 1 16.0581 3.26768 -0.0374549
518 1 24.0764 11.9666 13.628
519 1 8.13858 11.8788 45.1347
520 1 35.966 17.4086 4.51707
521 1 45.8496 24.8856 32.2366
522 1 7.33781 16.8685 0.784933
523 1 38.8411 1.71666 25.8272
524 1 40.0336 52.0284 32.123
525 1 25.8595 41.8602 22.7537
526 1 26.3784 15.1672 30.5614
527 1 28.9568 54.7829 23.5547
528 1 2.28501 6.66785 6.39332
529 1 40.1179 8.38651 33.7217
530 1 37.7398 16.4742 18.4882
531 1 43.8648 10.2061 45.8012
532 1 35.3239 9.75176 11.8576
533 1 42.9456 6.35308 20.6831
534 1 19.7415 35.7877 20.7098
535 1 43.0901 2.99365 38.3981
536 1 38.4518 23.5695 17.9495
537 1 18.9344 22.0965 21.0299
538 1 6.683 27.4271 2.71081
539 1 28.7102 37.8865 33.0571
540 1 48.0936 12.249 16.5822
541 1 42.5653 5.69857 7.63131
542 1 32.8651 47.8713 36.04
543 1 38.0626 45.2503 34.9835
544 1 31.6773 34.5639 15.1554
545 1 52.2476 24.5918 5.72482
546 1 23.7363 50.7723 40.89
547 2 15.4813 40.8033 26.8949
548 2 12.8153 46.7632 1.28339
549 2 34.7423 47.8223 25.6362
550 2 55.6175 51.3909 12.5677
551 2 52.3611 6.96434 16.817
552 2 9.84197 7.19284 35.6073
553 2 37.4203 10.0994 17.0643
554 2 23.6435 5.70707 52.9878
555 2 14.7159 12.9528 21.6334
556 2 12.5555 41.545 43.0942
557 2 13.8509 5.71766 33.8549
558 2 17.628 33.06 3.28525
559 2 39.8338 16.8766 20.9051
560 2 5.19452 16.3237 29.4152
561 2 38.6673 12.6914 50.9187
562 2 3.78871 19.4332 28.4378
563 2 30.1801 47.1377 34.9601
564 2 16.674 5.25594 40.0071
565 2 20.2563 22.172 34.7073
566 2 31.2554 13.699 39.141
567 2 44.4948 38.421 0.652119
568 2 43.2222 18.0184 20.3329
569 1 14.7972 1.33609 19.6818
570 1 52.5024 36.5596 49.2935
571 1 20.2373 14.0051 6.02784
572 1 46.3839 15.2697 53.276
573 1 15.7882 15.5892 25.8518
574 1 30.259 46.155 17.14
575 1 30.1644 49.8532 41.9794
576 1 14.0806 0.07474 11.5787
577 1 1.67459 6.28942 15.2209
578 1 55.5799 39.8206 44.4389
579 1 33.8833 45.0283 48.172
580 1 21.1358 31.7776 6.4427
581 1 37.4551 10.4249 29.393
582 1 12.5064 41.4526 37.966
583 1 45.4244 25.4124 18.2001
584 1 29.5723 40.9043 29.9282
585 1 33.1314 7.98419 23.2335
586 1 55.4031 -0.018607 31.1405
587 1 10.8279 1.84581 7.06852
588 1 9.03245 43.9785 46.898
589 1 34.5448 47.3297 49.3765
590 1 55.9474 7.4307 6.90346
591 1 13.1488 9.45687 30.8164
592 1 52.7483 33.3422 6.52954
593 1 19.0409 25.0968 33.7631
594 1 2.95218 42.209 42.0131
595 1 34.2052 12.2254 43.5633
596 1 3.79433 4.89469 39.346
597 1 28.7878 51.3681 7.64134
598 1 48.4778 47.1177 25.4683
599 1 4.98823 3.93629 13.6802
600 1 11.8768 32.5234 4.43888
601 1 21.8913 42.3355 54.319
602 1 2.99661 42.5008 15.6557
603 1 26.6656 35.4319 52.0049
604 1 5.4479 21.529 30.152
605 1 28.4278 43.1982 27.7
606 1 27.3243 46.4045 33.3102
607 1 39.0662 14.4594 33.8785
608 1 42.0745 6.89487 53.384
609 1 33.9266 30.4699 12.7358
610 1 43.4161 5.34385 44.9978
611 1 20.8832 45.0217 31.182
612 1 17.8716 46.9417 45.6297
613 1 3.39832 51.8123 0.884783
614 1 53.5206 33.6907 10.7623
615 1 5.58735 42.9355 41.5837
616 1 38.4839 3.77498 55.0808
617 1 16.4908 11.7177 51.953
618 1 6.75646 53.6087 50.9621
619 1 36.5356 11.2721 26.951
620 1 28.0673 27.0856 25.6414
621 1 53.1195 8.47447 27.0459
622 1 3.66511 29.7277 43.9611
623 1 14.8465 44.5198 12.3001
624 1 28.0842 9.55193 55.2335
625 1 10.3661 14.9586 25.3749
626 1 39.4469 27.6385 22.3894
627 1 34.3209 36.5967 56.0248
628 1 31.535 9.94909 17.2965
629 1 41.8476 46.6466 10.8705
630 1 39.464 55.6576 22.335
631 1 43.7086 28.9075 14.0062
632 1 4.69179 32.3556 26.9207
633 1 16.2643 6.39509 49.6413
634 1 48.1376 45.6457 17.755
635 1 31.451 43.7514 21.752
636 1 5.63205 6.9015 17.1311
637 1 0.581092 15.0231 40.1028
638 1 32.5308 47.5737 55.5482
639 1 28.4872 4.92477 4.58201
640 1 21.9416 53.5454 6.197
641 1 -0.204925 47.5884 35.715
642 1 53.6762 18.6949 10.6779
643 1 41.1516 27.8656 24.9784
644 1 20.4291 42.421 46.0214
645 1 0.308963 19.1597 41.1138
646 1 13.1218 31.2124 12.4817
647 1 3.14385 29.6358 8.68057
648 1 19.6545 16.6409 5.05222
649 1 20.6715 20.1695 19.7965
650 1 14.8518 4.02494 2.98815
651 1 30.1592 33.2891 33.1238
652 1 51.0169 15.3559 42.3215
653 1 51.8367 30.6597 51.398
654 1 29.3955 34.294 55.9349
655 1 40.9227 4.61719 30.6184
656 1 36.9346 52.0819 40.0052
657 1 55.9313 34.4837 20.6614
658 1 25.0683 8.3641 54.9025
659 1 38.8211 39.9063 50.3649
660 1 1.62944 43.7863 6.37593
661 1 46.1158 36.0912 13.1179
662 1 15.4156 41.4147 44.3036
663 1 20.0041 35.6249 37.474
664 1 53.0808 16.771 28.1837
665 1 34.0842 42.8303 22.6758
666 1 15.1242 9.18913 26.3796
667 1 35.6361 16.7062 28.3751
668 1 47.7097 12.3346 44.1303
669 1 51.1211 22.867 15.7138
670 1 48.0125 5.59627 10.5068
671 1 32.212 4.1497 25.629
672 1 2.01705 18.6674 9.08176
673 1 11.6031 4.30545 35.673
674 1 45.9538 51.2513 7.69627
675 1 23.4546 7.72565 32.87
676 1 53.8043 16.4388 24.0587
677 1 55.6665 36.0726 54.4064
678 1 15.7344 55.787 17.7948
679 1 52.6142 12.3578 22.2086
680 1 28.204 32.1801 45.8206
681 1 -0.120556 26.238 48.8666
682 1 7.32854 3.25363 44.8728
683 1 43.1137 13.1904 21.2
684 1 38.3244 32.3949 36.9242
685 1 22.9397 55.0875 15.0397
686 1 44.5985 14.9208 11.2049
687 1 46.8369 55.1583 28.1828
688 1 20.5983 7.17885 33.3446
689 2 21.617 49.632 24.2731
690 2 30.0252 50.375 10.161
691 2 34.4149 27.1334 38.9642
692 2 8.38542 42.4328 49.2871
693 2 44.8791 48.2506 22.3578
694 2 3.02696 51.4883 54.0642
695 2 17.5543 15.5141 45.1659
696 2 16.2591 40.9053 8.0749
697 2 1.50664 18.2049 36.202
698 2 17.3185 18.7588 7.26404
699 2 44.8076 11.3972 40.0745
700 2 38.565 4.90713 3.75228
701 2 53.5569 27.4894 5.57616
702 2 36.0093 28.7033 26.9632
703 2 49.1876 45.8524 44.1733
704 2 54.1992 12.9389 17.4625
705 2 2.50874 36.7809 7.49533
706 2 2.21674 40.4605 44.3031
707 2 47.453 17.0951 19.1934
708 2 43.3794 54.4907 0.768455
709 2 44.1036 30.5443 42.5128
710 2 52.9576 48.6757 30.8483
711 1 37.0591 1.99277 46.1833
712 1 12.6833 29.2997 52.3937
713 1 1.47271 49.5296 43.9231
714 1 37.8432 30.1434 24.9008
715 1 1.00383 10.8918 44.6818
716 1 2.67211 15.6072 51.1186
717 1 47.2502 1.0873 3.72067
718 1 4.51632 41.9413 55.7508
719 1 42.0791 17.0231 52.7282
720 1 19.1972 16.3029 13.2692
721 1 31.0795 6.47423 5.32454
722 1 31.9877 38.029 55.5025
723 1 19.1366 14.8241 15.8027
724 1 48.326 37.3824 53.6341
725 1 13.0412 45.5753 34.7028
726 1 29.5373 41.3957 41.7923
727 1 32.6621 55.0554 19.5786
728 1 28.1688 0.403272 55.4871
729 1 41.2165 1.70553 52.4797
730 1 5.1747 6.94712 37.8889
731 1 53.9329 11.0325 20.0562
732 1 12.876 1.03482 14.9699
733 1 35.8848 53.1128 55.2818
734 1 37.0849 43.7443 17.8909
735 1 39.8181 9.97592 1.60563
736 1 51.7767 18.9035 50.5231
737 1 31.0194 41.8991 27.6974
738 1 0.592403 11.8983 6.9169
739 1 22.0087 16.808 2.94499
740 1 40.3045 35.3658 49.2631
741 1 53.8743 9.16283 32.6948
742 1 19.1855 40.1975 6.47465
743 1 44.7697 29.5601 27.0971
744 1 33.4965 55.5978 40.3118
745 1 45.1004 12.5867 12.8264
746 1 20.4407 17.6432 20.5243
747 1 0.683899 3.4555 36.122
748 1 45.3595 52.351 1.69975
749 1 17.0703 13.2101 42.8642
750 1 23.8032 18.5683 1.93471
751 1 18.9618 32.7041 33.8562
752 1 15.0897 47.7232 38.7004
753 1 20.0965 9.74808 43.5846
754 1 36.2042 54.0586 26.6076
755 1 29.169 17.7994 17.9819
756 1 31.4151 49.3667 53.8874
757 1 8.89156 25.2393 29.5369
758 1 54.6774 27.2391 20.2677
759 1 44.8397 7.17531 18.8907
760 1 19.2705 32.3585 54.5242
761 1 48.4972 15.4373 46.4368
762 1 30.574 52.903 12.1018
763 1 24.5781 17.7002 8.66233
764 1 18.3882 12.8484 21.544
765 1 42.7702 20.0257 40.2461
766 1 19.5313 35.9108 2.97635
767 1 4.27641 51.7334 28.6508
768 1 25.7664 22.1062 35.442
769 1 18.298 48.2756 54.6467
770 1 18.8214 3.39361 4.57028
771 1 11.9506 38.7337 44.1216
772 1 29.8542 12.8545 52.6494
773 1 10.1341 16.3379 45.9094
774 1 33.685 2.17364 27.2979
775 1 46.1372 41.6201 30.1325
776 1 24.9933 55.7924 22.2926
777 1 45.817 47.5384 25.3436
778 1 21.8361 33.4753 47.866
779 1 41.1739 26.9659 44.7018
780 1 31.1913 47.3079 40.726
781 1 20.3356 38.1928 25.079
782 1 4.79639 18.9659 15.7125
783 1 50.3612 0.935978 36.9039
784 1 44.2869 27.9131 24.217
785 1 27.3194 25.9284 48.1398
786 1 15.6207 7.78675 42.31
787 1 5.54063 31.4446 54.0582
788 1 2.34416 10.4168 37.1008
789 1 15.719 46.2861 28.547
790 1 51.5963 29.7289 43.5078
791 1 36.1352 18.3661 24.7073
792 1 25.8653 55.3711 19.5401
793 1 2.51329 50.2158 22.338
794 1 30.1712 25.3699 27.971
795 1 55.894 21.4198 36.6503
796 1 44.4832 12.3859 4.15007
797 1 18.8293 11.2806 13.8006
798 1 42.474 29.5577 54.4544
799 1 16.1421 35.742 12.138
800 1 17.21 30.7166 55.0742
801 1 48.6402 48.0699 10.7547
802 1 21.0749 15.5887 36.7411
803 1 39.867 44.9965 40.1867
804 1 51.8461 37.301 9.51688
805 1 38.9349 44.5936 32.1258
806 1 13.3109 15.3795 37.5933
807 1 55.3217 16.0188 34.5983
808 1 49.1957 7.98088 38.4253
809 1 10.4217 12.2474 1.09432
810 1 8.06139 40.7185 32.1644
811 1 33.5614 22.2681 48.1619
812 1 53.7753 15.9288 44.4612
813 1 0.637092 11.3591 2.53467
814 1 45.9452 4.87831 20.0097
815 1 4.7066 8.88394 41.7034
816 1 50.1811 5.14642 35.1813
817 1 44.5503 43.6844 29.0994
818 1 55.0655 48.1172 55.172
819 1 18.5269 37.2024 43.0598
820 1 53.0805 28.2475 38.0322
821 1 32.1103 29.8376 38.9005
822 1 0.776231 3.59641 28.7693
823 1 53.9861 46.6037 37.8834
824 1 54.5995 -0.0360364 28.3694
825 1 17.3971 54.2577 29.8689
826 1 16.7466 50.1818 3.86442
827 1 19.5208 33.7116 22.7119
828 1 35.2784 23.2049 25.9082
829 1 49.3692 56.0362 29.455
830 1 51.329 43.3751 4.1775
831 2 7.35482 40.2303 40.1423
832 2 24.0873 14.2851 2.9683
833 2 20.1438 43.526 23.4016
834 2 43.4278 27.0719 46.9613
835 2 24.9442 0.0147273 27.5235
836 2 23.7094 14.342 32.7035
837 2 15.5456 26.9527 17.4183
838 2 23.1375 42.3469 47.3956
839 2 28.4867 35.2363 31.4047
840 2 19.7387 16.1971 53.4626
841 2 15.8012 27.1828 26.4926
842 2 47.0548 9.48274 45.6193
843 2 42.2115 1.32114 30.2519
844 2 31.4207 15.1976 18.3827
845 2 8.46286 51.9405 16.1978
846 2 41.4727 41.1425 48.7648
847 2 48.4476 54.7669 10.3422
848 2 47.748 44.2486 25.8789
849 2 23.1825 17.3055 34.9461
850 2 22.4807 32.2271 44.5836
851 2 48.2586 -0.163341 54.0102
852 2 46.4292 38.7509 20.2892
853 1 37.0879 45.1191 6.58038
854 1 30.0755 42.517 46.5078
855 1 47.5927 26.8179 14.9594
856 1 10.5443 24.0072 27.628
857 1 55.1235 17.1201 39.9497
858 1 14.401 50.3236 48.7984
859 1 34.972 24.7676 40.9791
860 1 9.3801 37.7185 4.19179
861 1 52.0979 36.2363 29.3361
862 1 54.5446 30.901 5.74586
863 1 33.4316 11.5805 10.2211
864 1 47.4619 26.4633 49.6699
865 1 14.583 26.1833 14.3122
866 1 10.5992 33.7255 0.0827849
867 1 50.6021 21.9721 37.0527
868 1 49.1612 1.78257 34.5785
869 1 53.749 26.7249 52.5472
870 1 33.5474 24.4226 20.8068
871 1 10.2297 27.7706 14.9791
872 1 53.4363 37.7578 40.5097
873 1 12.7249 39.3799 32.0591
874 1 54.1 46.2284 1.46173
875 1 41.5735 29.57 48.3983
876 1 -0.198468 16.6338 31.4326
877 1 0.158372 27.2971 22.5498
878 1 4.51697 35.8547 20.3298
879 1 10.7959 14.3183 31.2233
880 1 51.6183 11.5037 1.6794
881 1 32.1639 13.2131 47.8069
882 1 44.8079 22.5273 52.6393
883 1 26.4812 13.638 13.6654
884 1 51.5563 54.5288 36.4135
885 1 30.2046 23.0326 1.40723
886 1 38.9975 47.7471 1.83297
887 1 6.83166 15.7173 19.8013
888 1 2.53674 29.8122 47.151
889 1 46.3398 7.92077 34.0549
890 1 54.7116 2.95971 6.33561
891 1 52.8907 20.6495 37.6291
892 1 42.0036 55.4785 21.0174
893 1 14.3793 51.5346 33.8447
894 1 9.15033 41.5116 9.78908
895 1 5.27161 49.28 38.1969
896 1 2.62392 40.6292 17.715
897 1 28.2053 53.3341 10.6214
898 1 41.1028 35.3968 42.2232
899 1 16.7221 19.2618 32.3693
900 1 9.22327 27.7042 2.03625
901 1 34.2603 37.2967 42.1722
902 1 25.6743 46.1587 26.2157
903 1 3.88649 26.7926 8.76094
904 1 35.5775 35.9019 11.7748
905 1 28.2348 30.1443 22.1021
906 1 17.4253 35.9212 7.42764
907 1 35.1001 50.9995 13.8662
908 1 1.31363 6.21136 34.6726
909 1 40.483 3.26721 42.6924
910 1 52.5297 38.5309 7.0683
911 1 12.7789 8.78513 24.9831
912 1 16.9721 18.2924 36.9165
913 1 3.90924 45.1204 5.90505
914 1 53.0898 51.6845 31.1413
915 1 18.4471 21.1471 39.17
916 1 28.4053 26.2676 40.4407
917 1 35.1749 55.9904 4.30693
918 1 50.8388 35.2393 14.2014
919 1 48.8532 40.8908 38.4038
920 1 11.9594 38.3728 38.6474
921 1 31.8819 55.3 11.2891
922 1 17.6125 41.928 32.1652
923 1 50.1733 5.45576 38.6577
924 1 0.5666 11.2284 16.4013
925 1 46.4599 55.1455 2.28265
926 1 27.7286 49.7996 51.4334
927 1 52.7139 49.2896 43.3235
928 1 42.2792 12.1489 12.8992
929 1 50.0967 33.3535 7.05248
930 1 37.8944 0.862082 20.1454
931 1 17.1395 25.4617 31.7513
932 1 12.4632 48.56 52.2544
933 1 30.7529 7.02088 43.7272
934 1 24.5649 51.4185 54.7645
935 1 5.2919 39.4259 54.9861
936 1 7.43795 32.954 12.2585
937 1 37.7125 3.12252 43.5208
938 1 36.1496 6.13853 40.5619
939 1 5.55154 29.2416 15.7466
940 1 7.22248 39.0555 52.9619
941 1 36.6064 6.24072 35.8417
942 1 15.1346 46.5922 45.4754
943 1 33.5517 36.4413 34.8103
944 1 9.10001 41.1489 16.2512
945 1 44.7899 20.8935 44.6096
946 1 9.89807 42.2807 44.8731
947 1 41.1895 31.1869 40.9503
948 1 15.5709 55.6814 44.0267
949 1 49.8195 49.8815 15.4033
950 1 39.1698 28.043 50.7809
951 1 14.9971 43.0808 53.7328
952 1 44.1301 0.629842 48.5576
953 1 25.9042 22.5102 51.1425
954 1 10.9279 45.6378 40.7011
955 1 13.1035 21.8103 15.4763
956 1 12.3777 20.3011 8.50743
957 1 46.9531 43.9871 51.0681
958 1 8.41698 25.3202 36.1906
959 1 31.515 50.407 35.5696
960 1 53.5039 14.0533 12.5117
961 1 36.9811 41.6548 42.6644
962 1 54.907 5.90648 18.9227
963 1 7.57056 30.5198 47.3132
964 1 25.478 14.7424 44.4691
965 1 15.1574 30.7553 35.5762
966 1 24.9257 42.5433 31.3659
967 1 9.0343 6.87892 13.8501
968 1 42.4548 10.0622 53.8111
969 1 32.4783 37.5173 50.3057
970 1 30.9617 17.0852 15.6482
971 1 47.6793 5.25218 42.5153
972 1 50.4697 6.68349 52.2882
973 2 44.8892 4.08742 25.3134
974 2 46.2082 39.4374 35.1082
975 2 53.5531 39.1114 27.8176
976 2 17.4074 30.373 49.8096
977 2 52.9847 36.3626 16.0641
978 2 52.6232 36.266 19.7073
979 2 33.1744 42.2234 40.6298
980 2 54.9755 6.22119 44.957
981 2 36.5444 11.7696 9.87048
982 2 54.415 29.8036 49.3115
983 2 12.3295 31.3503 1.26598
984 2 46.188 22.7722 34.4085
985 2 52.2212 2.24102 13.1132
986 2 7.22081 18.5035 38.0652
987 2 20.1445 6.41998 5.24797
988 2 2.40537 26.7757 51.7548
989 2 40.1098 28.0662 32.1951
990 2 54.3178 9.87107 14.7813
991 2 23.1231 21.3097 17.7509
992 2 16.0813 15.8538 55.026
993 2 1.33232 15.5602 55.9318
994 2 53.452 23.043 35.3197
995 1 54.4079 3.20859 43.7573
996 1 51.3138 25.3985 47.3445
997 1 24.7347 2.15618 48.1944
998 1 3.28664 49.5611 27.4136
999 1 25.1313 50.9154 52.1227
1000 1 19.7445 8.89939 47.8829
1001 1 31.0629 30.4807 36.4268
1002 1 52.8964 26.3271 8.68818
1003 1 13.7745 28.9512 30.8955
1004 1 6.5325 40.1108 6.76731