ITEM: TIMESTEP
0
ITEM: NUMBER OF ATOMS
9088
ITEM: BOX BOUNDS pp pp pp
-4.1151356337153594e-01 5.6296006189351516e+01
-4.1151356337153594e-01 5.6296006189351516e+01
-4.1151356337153594e-01 5.6296006189351516e+01
ITEM: ATOMS id type x y z
1 1 25.9976 40.1873 52.125
2 1 47.8931 6.90141 38.0732
3 1 42.5964 6.83738 51.1479
4 1 41.6132 12.4088 50.0498
5 1 17.7576 31.5003 7.59538
6 1 29.318 38.6629 17.0109
7 1 33.0289 25.5123 55.8646
8 1 53.1823 3.35492 1.30256
9 1 33.5191 2.16929 41.4704
10 1 26.3265 33.9584 39.0385
11 1 -0.215513 41.014 9.95761
12 1 35.3186 19.4849 36.913
13 1 4.20746 16.2498 55.5957
14 1 19.0101 18.7618 52.6618
15 1 52.7051 21.4448 48.8232
16 1 7.78315 11.266 20.2138
17 1 9.75646 13.3992 25.5236
18 1 34.5173 23.0232 14.3103
19 1 27.162 33.9024 41.7327
20 1 46.0051 11.5467 31.0308
21 1 55.6285 48.3267 12.8924
22 1 29.6457 22.5553 3.00694
23 1 13.0549 38.9801 32.3789
24 1 6.09056 26.9306 3.58376
25 1 20.5107 47.1208 50.6407
26 1 32.401 32.308 45.419
27 1 33.8394 0.642609 43.5534
28 1 21.1392 2.9645 37.774
29 1 41.4946 27.3493 39.3486
30 1 41.7246 39.3441 52.3286
31 1 53.1042 49.6293 38.2601
32 1 0.285595 45.8512 50.1178
33 1 55.5183 55.5892 19.3128
34 1 22.1112 8.6485 4.31909
35 1 46.3758 0.0896298 10.2765
36 1 4.16584 2.15742 39.9273
37 1 28.3123 8.39537 30.6544
38 1 18.881 21.2251 40.5861
39 1 0.935385 28.8217 42.0967
40 1 54.4617 7.60495 5.58865
41 1 20.5489 20.2481 55.0802
42 1 46.2306 33.95 43.1222
43 1 20.3632 36.9699 24.8115
44 1 55.1641 43.6707 48.5155
45 1 13.1814 48.0543 -0.301533
46 1 4.31752 21.5549 10.1675
47 1 26.5458 47.1223 -0.290158
48 1 0.817275 16.4492 9.76713
49 1 55.8916 6.73059 12.9585
50 1 7.10793 40.7554 50.6946
51 1 4.87965 21.0972 31.0781
52 1 30.8648 -0.138894 11.3861
53 1 55.4115 4.30535 18.3306
54 1 44.2284 35.0935 8.95739
55 1 37.2625 41.8284 29.2976
56 1 30.2308 22.72 13.4961
57 1 2.03282 24.9763 33.2131
58 1 7.2645 42.8712 49.0152
59 1 17.9103 25.9617 10.232
60 1 36.6147 38.4325 9.99121
61 1 19.1423 41.9463 17.2756
62 1 19.5201 37.3371 5.00644
63 1 14.7828 51.629 8.78022
64 1 53.4595 17.5558 10.9728
65 1 21.218 12.1274 7.29182
66 1 26.0129 2.67601 38.6278
67 1 0.640958 26.2241 30.4694
68 1 50.8674 32.5353 24.7983
69 1 12.3054 51.7597 19.6567
70 1 26.0775 23.7441 11.9732
71 1 10.216 8.24275 17.8188
72 1 49.8412 22.5708 54.1826
73 1 12.0966 29.3914 4.3359
74 1 30.0188 36.6354 32.844
75 1 37.4913 14.9146 5.35297
76 1 20.8058 14.9686 8.51974
77 1 36.5136 45.8175 23.634
78 1 36.2005 6.04255 48.0881
79 1 0.183269 15.6809 44.2089
80 1 33.1399 41.4059 15.8777
81 1 18.9843 12.7793 49.3382
82 1 51.541 40.4572 20.5489
83 1 48.9457 12.5581 50.3865
84 1 17.9203 44.9603 2.61113
85 1 31.1423 23.1321 28.647
86 1 51.9719 16.6567 41.1073
87 1 30.3317 49.3179 6.96638
88 1 38.9928 43.8679 23.7364
89 1 53.8747 37.5834 31.3362
90 1 22.7367 0.779814 26.4319
91 1 20.2179 53.2319 32.1384
92 1 39.2971 10.4382 27.1273
93 1 7.51893 21.0147 30.1078
94 1 26.7436 0.346452 50.2552
95 1 29.0464 14.6894 7.71561
96 1 35.4357 13.9511 13.9594
97 1 0.0868046 6.53668 42.7023
98 1 20.8347 5.5809 36.5032
99 1 40.6643 30.693 10.4025
100 1 3.78098 38.3494 21.4281
101 1 50.0635 30.9385 10.9305
102 1 4.95722 40.8886 52.2668
103 1 48.6831 3.94899 18.3895
104 1 15.7821 46.8295 48.3916
105 1 16.8979 16.0422 18.0402
106 1 31.9385 23.1769 33.3422
107 1 16.2616 40.5253 53.6227
108 1 13.518 48.9236 5.04274
109 1 40.4899 13.6277 21.4583
110 1 35.542 6.8634 7.78523
111 1 37.6757 13.546 8.43433
112 1 17.036 4.22451 19.3863
113 1 27.5959 35.6985 9.22951
114 1 49.0361 24.2107 35.7849
115 1 21.6488 42.276 38.1233
116 1 41.595 55.6458 17.5105
117 1 7.83804 48.0493 9.45363
118 1 16.8768 30.81 44.4819
119 1 52.724 47.6772 54.2301
120 1 53.5413 33.8638 16.3689
121 2 10.8714 39.202 35.1597
122 2 53.3854 20.5641 9.64183
123 2 50.3253 44.116 20.4738
124 2 50.6893 29.0152 17.7331
125 2 54.0623 36.2046 39.6405
126 2 27.6132 10.1731 19.8908
127 2 12.0561 51.706 16.2056
128 2 6.88596 29.9455 35.7507
129 2 53.8026 19.617 3.93117
130 2 2.58274 22.4728 47.7745
131 2 41.5682 4.26398 53.2803
132 2 39.7553 46.1881 19.7218
133 2 34.3466 38.804 17.7851
134 2 16.4518 52.4718 12.1933
135 2 43.0195 33.5336 5.7369
136 2 5.94846 3.32863 31.8037
137 2 43.0009 24.3903 51.399
138 2 4.80271 4.53042 49.4388
139 2 30.4995 14.3101 11.6526
140 2 46.3872 23.8624 20.5282
141 2 55.1659 40.187 21.2077
142 2 28.481 25.5682 42.8215
143 1 15.0804 18.4675 22.9585
144 1 5.55811 12.2797 1.9801
145 1 55.326 32.0865 21.6647
146 1 55.4855 28.2562 50.1134
147 1 5.39101 39.9438 22.7755
148 1 20.0022 35.2624 35.1106
149 1 55.6897 35.8218 29.798
150 1 31.5398 19.3956 18.7091
151 1 10.6888 24.9726 19.9171
152 1 18.5596 1.73 4.63073
153 1 48.4815 26.4755 2.41115
154 1 45.3949 28.516 56.0433
155 1 30.9441 26.959 21.1603
156 1 12.6682 47.3214 47.8729
157 1 40.9449 45.8558 27.634
158 1 10.9721 12.9769 49.2043
159 1 43.559 18.8908 25.5114
160 1 34.0562 49.0408 44.6115
161 1 26.5844 53.0242 55.2072
162 1 12.6309 22.7497 12.7863
163 1 17.1092 10.4235 3.3223
164 1 41.2317 34.741 50.1003
165 1 5.29416 20.5265 15.5142
166 1 19.787 10.1688 36.9206
167 1 33.5657 17.3996 3.07802
168 1 32.4635 50.2618 15.767
169 1 11.3511 20.6785 22.251
170 1 12.7669 55.4738 23.9428
171 1 41.1182 23.0913 11.5859
172 1 52.7701 19.2461 42.2215
173 1 7.16827 52.0577 3.8289
174 1 11.2395 7.39119 47.6323
175 1 1.76392 53.2253 10.0834
176 1 39.3465 37.9794 7.12248
177 1 41.7164 35.4129 9.36322
178 1 44.0205 44.1648 30.1824
179 1 20.6117 49.8095 46.0526
180 1 40.394 8.02193 42.7761
181 1 29.8144 56.2283 38.1523
182 1 2.57479 7.86541 32.0216
183 1 50.0717 53.8366 11.7712
184 1 47.5729 3.48319 47.8598
185 1 12.7993 29.0888 48.5739
186 1 36.0789 19.6865 34.1538
187 1 -0.385324 0.654162 34.9499
188 1 12.8051 4.4737 12.4505
189 1 50.5097 22.8581 30.7429
190 1 18.3873 0.250274 44.8978
191 1 24.5528 48.8427 0.407405
192 1 5.34998 42.9021 38.1068
193 1 45.4336 38.6467 18.1952
194 1 27.9758 16.916 36.5118
195 1 52.3845 26.0959 41.7511
196 1 3.34907 42.708 46.903
197 1 7.19528 9.23079 49.5307
198 1 5.96447 37.7079 40.066
199 1 29.3729 54.8083 10.0312
200 1 18.0653 37.2834 30.5888
201 1 28.8277 7.99693 42.6057
202 1 44.2094 35.5868 39.1625
203 1 53.7624 33.1575 29.6664
204 1 12.894 50.9711 31.3261
205 1 48.4348 43.0734 32.6061
206 1 29.8456 20.0519 12.1054
207 1 46.0342 12.7725 33.3363
208 1 43.2252 30.1186 55.1889
209 1 52.4471 22.9696 7.81644
210 1 49.5437 48.161 46.9892
211 1 43.7542 27.4047 29.7026
212 1 12.5552 53.4595 -0.410811
213 1 15.4142 17.6445 41.5838
214 1 24.6978 26.1277 24.9254
215 1 48.9861 34.3867 44.2016
216 1 7.93985 27.3607 42.2178
217 1 41.4681 12.45 39.2101
218 1 1.64611 11.0403 52.5024
219 1 4.93484 16.6621 39.9659
220 1 28.549 39.8144 50.3514
221 1 46.4598 0.148302 19.9298
222 1 39.6158 5.49249 13.5041
223 1 4.81953 36.5697 22.9842
224 1 55.0488 41.6165 55.3574
225 1 14.8135 33.5755 8.01297
226 1 40.6952 38.3654 54.5263
227 1 23.2856 46.1684 16.5579
228 1 19.1198 41.7509 10.7108
229 1 20.2445 18.7496 31.865
230 1 26.4227 7.44717 35.3836
231 1 43.405 9.62962 45.1785
232 1 33.607 2.4857 30.8124
233 1 43.1201 45.3607 20.7013
234 1 55.1635 7.71359 53.2664
235 1 7.45142 29.9461 3.29337
236 1 26.9665 39.0208 23.0499
237 1 37.9366 52.4176 31.2571
238 1 8.98152 34.7716 14.0876
239 1 34.0704 34.8273 4.44169
240 1 32.6426 24.8276 7.65743
241 1 22.5312 51.3308 0.475535
242 1 19.5972 2.79939 54.4278
243 1 2.04344 24.4966 3.26904
244 1 34.6858 51.401 14.4907
245 1 40.1083 47.8413 31.253
246 1 32.3891 10.1062 24.2704
247 1 48.734 16.1668 7.33079
248 1 7.5452 26.7626 54.033
249 1 28.7995 5.88071 50.399
250 1 21.1996 15.6346 11.0777
251 1 5.75157 11.6145 13.1723
252 1 38.3564 17.459 45.5199
253 1 12.8296 25.0198 43.1377
254 1 28.4075 43.7141 10.7521
255 1 43.8463 33.1415 26.2792
256 1 31.9935 45.1852 23.8769
257 1 52.7162 28.4979 33.4847
258 1 34.7013 45.4189 12.0395
259 1 54.9525 28.9536 11.3378
260 1 43.6296 52.8095 55.7423
261 1 9.59471 40.668 43.9101
262 1 45.1962 23.7014 15.5588
263 2 43.008 20.597 33.424
264 2 21.203 48.9404 56.0338
265 2 43.7185 17.458 48.0435
266 2 8.91037 24.1561 34.1908
267 2 8.01637 27.0821 1.08382
268 2 3.95353 0.821242 16.7419
269 2 14.733 2.18288 17.3637
270 2 44.5143 44.1027 54.1219
271 2 54.0959 48.7676 30.1562
272 2 35.5481 43.5296 14.8192
273 2 30.7229 6.59864 30.7864
274 2 51.1014 25.7839 31.8118
275 2 22.7648 52.4769 3.67349
276 2 0.532896 15.1085 3.01865
277 2 -0.278869 45.3025 37.7479
278 2 9.37843 35.8422 19.1282
279 2 44.194 52.5403 47.3278
280 2 17.2534 1.19642 20.5621
281 2 42.222 22.3105 16.5498
282 2 6.205 28.854 8.57673
283 2 50.9296 47.1169 29.8751
284 2 13.7115 26.3381 37.6911
285 1 2.54402 16.2396 43.5447
286 1 24.4054 1.06063 55.9002
287 1 42.1878 54.0974 5.29188
288 1 31.9731 37.0389 44.0789
289 1 47.6053 21.2387 41.9577
290 1 39.5356 55.8748 49.7807
291 1 54.2579 32.6816 55.47
292 1 38.7584 53.5016 48.5656
293 1 10.7301 54.7172 35.4289
294 1 55.2815 34.8229 13.6567
295 1 31.6871 1.56828 45.0568
296 1 33.3597 35.7415 13.4244
297 1 15.4927 51.2079 22.6618
298 1 35.595 49.4927 27.0487
299 1 27.0235 2.55848 0.627626
300 1 2.91998 12.3201 25.484
301 1 30.3895 14.4151 33.54
302 1 42.5103 25.5574 5.98657
303 1 49.8651 13.0097 43.6164
304 1 36.7323 34.232 42.2326
305 1 31.4155 12.163 44.6118
306 1 53.6776 20.6536 46.5321
307 1 42.1275 5.23885 4.78537
308 1 9.35713 34.4484 44.4374
309 1 9.26319 16.4839 31.0712
310 1 36.5181 55.6974 8.1527
311 1 31.1324 33.2181 5.19202
312 1 9.68441 8.43956 25.4134
313 1 24.0231 20.1299 23.7439
314 1 24.5419 44.1272 50.4902
315 1 14.8507 45.0604 15.3607
316 1 54.168 56.1856 10.5318
317 1 23.9352 4.27474 34.0859
318 1 15.1305 41.1418 31.8802
319 1 20.2054 4.46569 48.629
320 1 56.125 13.9631 7.98319
321 1 2.00621 38.5479 27.71
322 1 6.30713 19.6377 21.8032
323 1 33.9587 2.92676 50.7357
324 1 2.2645 -0.334075 24.2057
325 1 28.4381 39.0957 40.5314
326 1 10.4173 25.0499 13.2455
327 1 46.0425 15.5169 3.20791
328 1 -0.0482019 7.72248 36.2564
329 1 21.6413 31.0967 3.84965
330 1 51.5021 34.2944 40.0659
331 1 18.8867 30.8061 10.0412
332 1 45.4064 36.9943 13.322
333 1 44.3894 41.4518 49.4914
334 1 54.0446 41.1739 40.5221
335 1 41.7875 43.5895 29.1039
336 1 38.3698 32.5673 10.0468
337 1 4.48722 41.1145 49.0399
338 1 43.1976 6.48294 24.5334
339 1 13.5133 49.9745 49.7009
340 1 20.1738 26.673 26.0107
341 1 38.6648 1.48327 41.6741
342 1 50.8239 22.2409 23.6744
343 1 30.8822 47.9406 54.6249
344 1 14.3964 21.3855 18.423
345 1 12.1088 7.85502 20.2451
346 1 27.5462 8.21086 51.3277
347 1 7.63388 52.0253 52.7614
348 1 50.4622 3.74468 26.8432
349 1 28.7933 43.4507 16.4752
350 1 1.52163 9.04956 2.83852
351 1 46.801 36.2593 24.6865
352 1 42.9878 30.4498 5.10454
353 1 38.1615 25.1485 0.391385
354 1 3.14851 17.4162 48.8307
355 1 16.896 19.2754 51.0868
356 1 51.3743 0.666694 7.10531
357 1 8.55037 25.5082 3.58811
358 1 14.0734 22.9699 27.5861
359 1 5.98033 10.0896 51.648
360 1 24.263 13.4821 16.7999
361 1 24.3252 55.3147 25.3216
362 1 44.4474 2.23763 52.1225
363 1 41.1264 29.5059 53.5314
364 1 12.1244 1.79031 30.5731
365 1 18.7515 16.9176 1.43402
366 1 25.2157 46.5967 36.4611
367 1 10.9324 46.5032 21.4165
368 1 45.215 36.0368 6.01537
369 1 17.4686 34.4625 54.933
370 1 27.6441 11.6658 27.1428
371 1 16.0245 25.6123 31.5924
372 1 23.9031 31.6118 16.8108
373 1 43.9146 4.86649 17.9849
374 1 26.5226 10.5739 0.6552
375 1 18.2203 13.7033 43.3398
376 1 30.6847 49.2582 21.2506
377 1 36.4018 39.2066 43.7161
378 1 32.6851 7.20378 20.0126
379 1 26.0958 41.4526 23.6289
380 1 32.7606 53.4596 30.2373
381 1 8.56037 19.5926 10.0771
382 1 18.9321 44.1649 42.179
383 1 16.5199 38.0201 22.4776
384 1 39.1862 13.0398 55.2019
385 1 31.5582 7.47863 17.3537
386 1 14.2083 29.2771 25.5062
387 1 7.44398 11.3134 3.75861
388 1 0.0996088 44.28 28.8282
389 1 24.7653 10.9912 46.899
390 1 5.8113 0.151835 50.8994
391 1 26.9838 18.4331 3.64773
392 1 14.4498 29.9504 28.092
393 1 -0.0818911 36.1633 7.05823
394 1 48.9833 53.4277 52.6796
395 1 42.8256 48.6633 52.8167
396 1 0.711648 12.3583 26.9095
397 1 2.07118 34.3133 42.4844
398 1 40.3532 19.9622 16.3564
399 1 36.2889 19.4589 25.1739
400 1 46.852 1.49941 24.3425
401 1 -0.394704 -0.147228 27.5134
402 1 3.1632 4.76459 19.2217
403 1 22.7691 26.0761 37.3126
404 1 50.0989 1.69358 17.2772
405 2 18.6558 5.9405 14.3344
406 2 35.9406 31.4408 7.89738
407 2 34.243 14.384 6.39714
408 2 30.255 53.7818 12.7543
409 2 43.6241 50.5757 17.683
410 2 37.4931 51.7856 15.4679
411 2 5.71409 42.1594 17.4132
412 2 52.016 8.76273 40.1741
413 2 31.3232 16.7732 48.2216
414 2 8.15875 32.8755 49.1045
415 2 2.26364 47.4571 8.82923
416 2 2.11861 50.1246 2.92727
417 2 48.1674 9.48397 2.28293
418 2 7.19139 36.1604 11.6504
419 2 14.2614 1.53097 25.3882
420 2 23.5739 23.2512 23.4949
421 2 37.7529 54.0425 3.2787
422 2 31.3191 16.6391 8.8776
423 2 7.63912 0.291959 43.2459
424 2 0.333448 6.37456 3.87347
425 2 47.9486 49.4306 35.2929
426 2 37.6037 8.31161 38.2258
427 1 16.0169 26.5019 35.248
428 1 6.05141 20.4574 51.5443
429 1 14.4764 7.05973 7.40884
430 1 34.105 3.13484 18.5906
431 1 48.6359 29.8932 29.1993
432 1 41.9917 27.1151 25.6218
433 1 15.0356 29.1907 56.2027
434 1 20.4719 28.0226 5.3684
435 1 27.2276 31.973 43.5687
436 1 51.4199 44.6343 1.36413
437 1 45.3202 37.462 3.62822
438 1 14.3182 39.5713 35.0413
439 1 39.7668 49.2726 36.2656
440 1 18.4752 24.4403 51.3446
441 1 20.9953 53.0212 8.57545
442 1 41.2896 38.3116 5.66067
443 1 33.1436 11.3228 30.2236
444 1 46.7117 8.62252 20.1466
445 1 25.18 1.6178 30.2684
446 1 53.2671 50.6003 23.5175
447 1 3.50188 55.0867 4.55635
448 1 16.2045 17.5903 49.016
449 1 30.2541 19.9494 8.78194
450 1 24.7373 43.4435 47.6032
451 1 29.2767 12.8767 14.2065
452 1 39.8987 45.4362 55.9297
453 1 15.1242 23.5676 22.6517
454 1 51.0419 34.074 48.3562
455 1 25.3221 44.8416 42.2115
456 1 39.7698 47.3165 38.7418
457 1 53.3487 17.3784 28.9713
458 1 31.4292 0.478984 29.6412
459 1 54.5415 36.3338 11.5969
460 1 44.8207 19.0885 38.3239
461 1 3.41944 6.97486 1.45758
462 1 4.37411 31.0513 21.679
463 1 44.491 6.65302 6.22597
464 1 1.53324 17.3636 23.5707
465 1 40.6841 46.7448 43.9257
466 1 29.8138 49.4984 48.2766
467 1 3.44744 49.5721 38.784
468 1 7.0565 14.8914 44.5179
469 1 9.91424 35.1157 4.56799
470 1 38.1183 27.2121 24.2863
471 1 8.20237 38.4067 6.86592
472 1 29.012 45.0088 46.5023
473 1 19.5732 32.2961 5.46668
474 1 49.6842 18.7274 20.7927
475 1 33.4534 5.13561 47.8001
476 1 50.2958 45.8735 17.6469
477 1 48.3966 38.7922 36.9411
478 1 3.75575 12.5047 48.0682
479 1 45.7023 46.0018 28.6019
480 1 10.2051 44.0029 1.3404
481 1 11.9743 -0.207703 13.6497
482 1 38.1023 36.1823 23.4841
483 1 37.1986 36.2969 32.0001
484 1 38.2074 28.4448 31.6825
485 1 27.908 4.89624 16.2114
486 1 22.2705 51.5956 12.3275
487 1 20.2714 8.70521 54.4374
488 1 28.1711 0.281893 11.5954
489 1 8.84871 26.579 44.9418
490 1 38.9446 13.871 33.501
491 1 24.4182 20.8896 29.8177
492 1 41.461 47.8868 3.29971
493 1 41.5797 45.8592 1.37624
494 1 21.8956 46.572 53.4059
495 1 23.0286 48.6517 49.1533
496 1 40.9574 15.5723 38.063
497 1 20.0936 17.9925 27.1269
498 1 50.618 24.7097 13.7297
499 1 13.2069 15.0413 34.2721
500 1 38.1992 26.0014 10.0776
501 1 2.15003 39.7123 0.953725
502 1 27.0117 55.4131 45.9431
503 1 53.5948 54.6601 21.2366
504 1 1.29426 16.1058 31.2299
505 1 28.1342 29.7706 50.3151
506 1 42.0249 38.6711 36.5729
507 1 18.0277 14.2939 5.0748
508 1 43.7712 45.8149 3.2826
509 1 2.47268 6.08994 6.77519
510 1 11.0537 18.2984 29.9074
511 1 36.2043 5.28673 38.4755
512 1 20.0852 5.83731 24.4352
513 1 41.028 48.13 17.6731
514 1 27.6395 29.9746 18.9633
515 1 23.3293 25.9972 34.8377
516 1 52.4872 3.72678 33.6668
517 1 8.63874 47.9241 22.1919
518 1 28.165 15.4651 13.8938
519 1 44.7566 20.231 40.7659
520 1 51.443 17.8386 4.76592
521 1 39.455 2.85382 30.5835
522 1 18.1254 12.2778 27.0221
523 1 21.4088 21.6046 6.19119
524 1 42.7348 44.1366 37.794
525 1 38.0017 22.4891 39.9857
526 1 51.3744 21.3049 12.2507
527 1 -0.0593745 3.31902 16.3781
528 1 1.11558 -0.30637 17.9289
529 1 2.68213 36.0262 26.926
530 1 38.0634 17.2644 4.35264
531 1 51.0302 42.6 7.57958
532 1 34.0415 19.7571 30.3783
533 1 45.5398 26.6349 15.6335
534 1 3.25172 16.5413 33.2097
535 1 33.3057 49.5031 41.8304
536 1 21.9077 33.5286 16.4974
537 1 19.4261 13.975 33.5089
538 1 30.3304 51.0958 4.79319
539 1 9.48405 44.7818 25.3876
540 1 38.3131 14.6517 36.433
541 1 12.2784 5.68316 7.61078
542 1 31.6689 11.6853 13.0008
543 1 29.976 7.9389 38.2054
544 1 42.4136 54.7635 0.438494
545 1 50.2344 45.4021 11.6854
546 1 41.4034 18.703 1.35772
547 2 11.1583 47.5597 24.6102
548 2 5.175 0.473041 -0.232379
549 2 44.1139 2.79004 15.587
550 2 5.05857 44.8005 0.380887
551 2 49.4027 4.65893 21.4693
552 2 7.60219 4.58106 34.9916
553 2 35.6901 8.56854 14.7109
554 2 24.2543 54.8499 50.7542
555 2 13.7519 12.7369 20.9865
556 2 12.4555 41.0705 43.5594
557 2 11.0998 6.29727 33.5122
558 2 17.3525 34.629 6.40768
559 2 41.1074 18.8979 23.6112
560 2 5.64955 16.7637 28.2953
561 2 36.9634 14.1721 46.3091
562 2 3.14784 18.5082 30.4696
563 2 30.3491 47.9805 35.5582
564 2 13.2585 1.83582 42.8721
565 2 21.2834 21.6519 30.4763
566 2 31.0237 12.9407 38.425
567 2 44.9029 39.1085 0.806026
568 2 38.3733 16.1756 21.5922
569 1 25.5567 8.82732 21.4104
570 1 43.7562 22.2581 53.9511
571 1 40.9172 2.38558 55.8074
572 1 16.8611 47.2002 34.204
573 1 20.1798 37.2801 49.1685
574 1 54.7098 12.4482 12.854
575 1 55.1364 7.48987 48.0008
576 1 9.93609 25.8747 28.5542
577 1 43.654 13.304 44.6637
578 1 12.4246 23.1766 37.5905
579 1 30.1754 25.1739 0.0365338
580 1 14.0276 42.3281 49.2808
581 1 4.9158 4.83234 2.00772
582 1 19.2389 31.3303 25.3449
583 1 17.7324 3.87452 49.3533
584 1 24.202 9 37.9388
585 1 1.11426 18.5119 32.8098
586 1 45.9319 45.1542 4.95096
587 1 35.9436 25.6516 55.6161
588 1 0.731375 30.8133 46.1379
589 1 22.3434 31.7742 6.39401
590 1 11.0421 0.44541 49.9206
591 1 24.9522 55.836 12.6592
592 1 17.5547 11.3401 13.33
593 1 5.38255 10.6497 15.9331
594 1 9.4198 46.3527 42.2096
595 1 47.155 56.216 5.47004
596 1 7.48064 0.191424 32.1051
597 1 32.9038 12.9904 28.0824
598 1 11.2293 25.0931 23.9702
599 1 45.1313 20.1849 48.6676
600 1 6.51187 15.4432 15.9966
601 1 48.8133 35.7693 11.0928
602 1 39.1465 33.5055 20.6921
603 1 23.9266 27.0895 19.0354
604 1 48.7444 25.7233 49.9974
605 1 30.5003 44.6668 35.6624
606 1 19.8861 35.5696 27.0239
607 1 4.02154 21.9781 5.41008
608 1 21.659 15.9268 41.0684
609 1 33.4639 31.1968 13.0187
610 1 7.51643 43.3182 14.7205
611 1 39.325 31.8433 25.3462
612 1 45.9141 14.1452 39.5673
613 1 42.5683 8.62517 6.54401
614 1 40.1624 43.6354 45.3986
615 1 50.7184 48.4481 40.278
616 1 19.2879 55.5686 24.891
617 1 14.6273 55.3594 55.7485
618 1 49.4867 8.96131 42.428
619 1 21.5707 44.0266 30.8269
620 1 55.0116 27.6739 41.3495
621 1 45.1397 10.4493 16.1635
622 1 49.6154 35.0107 30.8854
623 1 47.1941 13.8275 43.611
624 1 11.9608 14.9013 14.9244
625 1 26.3106 24.3715 18.4653
626 1 39.1823 36.6807 20.6247
627 1 20.876 37.8551 22.1866
628 1 5.83161 20.9913 24.0504
629 1 36.8311 31.8696 21.2761
630 1 29.2714 24.474 38.2702
631 1 36.0349 3.82749 1.91028
632 1 6.5137 13.128 21.6433
633 1 28.9065 16.1566 39.3764
634 1 44.6229 30.6557 7.10218
635 1 29.0353 42.1055 20.5786
636 1 9.7071 19.01 18.3388
637 1 23.9924 34.2111 23.4269
638 1 51.4877 28.8413 36.8088
639 1 26.3204 6.74905 20.057
640 1 45.0543 53.5388 50.0469
641 1 15.0786 8.63746 10.1697
642 1 16.5875 16.2505 15.1142
643 1 31.7449 42.5932 8.36923
644 1 4.16872 35.4975 5.75671
645 1 6.83668 31.9402 5.09154
646 1 47.9467 37.4418 12.9517
647 1 24.3984 17.1474 2.30562
648 1 49.8749 25.2598 52.5876
649 1 45.8572 38.4615 25.8556
650 1 23.5039 55.4555 53.5895
651 1 43.4085 47.9842 50.3085
652 1 15.9358 29.4135 20.0987
653 1 41.5774 3.27339 48.0565
654 1 2.08703 53.0672 52.4051
655 1 49.1097 1.55186 19.9494
656 1 36.4039 52.9069 41.0571
657 1 7.65403 11.6146 44.8893
658 1 0.799443 4.75653 14.3566
659 1 7.72912 26.1935 36.8538
660 1 2.80111 7.08899 29.062
661 1 -0.211537 36.8145 32.0717
662 1 31.5684 44.5565 45.2163
663 1 16.6704 40.9216 17.428
664 1 17.297 33.5448 14.2196
665 1 30.0376 29.4741 48.2971
666 1 29.3117 9.24811 17.7507
667 1 9.27892 33.7194 40.5741
668 1 50.6792 18.1785 31.7926
669 1 22.1607 27.9838 30.6698
670 1 28.6738 37.5806 48.0368
671 1 53.2811 32.5471 48.1143
672 1 2.379 33.1533 12.1841
673 1 11.054 17.1716 11.3311
674 1 16.5712 23.6586 10.5469
675 1 27.4034 39.4875 11.7921
676 1 28.8984 42.9702 2.7709
677 1 30.802 11.4578 51.375
678 1 24.0653 4.13646 23.351
679 1 20.7675 1.0387 24.7464
680 1 36.1645 46.2096 3.80144
681 1 56.1935 55.1349 21.8805
682 1 13.9473 53.3524 35.4014
683 1 6.44421 50.6943 9.26197
684 1 25.5887 50.3266 13.7847
685 1 42.6209 31.955 0.149195
686 1 41.8334 52.1195 7.53034
687 1 13.5992 10.9992 3.44144
688 1 20.5849 8.64866 30.7538
689 2 20.8575 50.1302 25.1151
690 2 30.1417 52.3993 7.94885
691 2 33.1917 30.0765 47.6457
692 2 12.0214 34.287 49.7795
693 2 48.3993 47.9003 24.6519
694 2 8.50937 55.6047 48.9095
695 2 22.6662 16.6778 44.5776
696 2 20.0539 33.2486 8.23347
697 2 -0.267694 16.4215 37.2506
698 2 24.3148 21.0657 7.22893
699 2 44.3849 11.3637 39.9907
700 2 46.0837 50.1558 8.30653
701 2 54.6595 27.3145 4.95274
702 2 33.1937 21.5699 35.9765
703 2 48.5457 45.9122 45.0156
704 2 52.46 21.7579 15.2066
705 2 2.5211 37.0323 8.24789
706 2 1.18944 41.1998 44.7112
707 2 51.4845 14.31 22.2219
708 2 47.6815 48.5139 53.7002
709 2 46.7275 21.9186 38.601
710 2 51.5288 46.9237 34.1092
711 1 40.7263 18.7 29.2676
712 1 52.3013 6.27607 37.8906
713 1 15.7257 6.44809 49.2107
714 1 47.765 8.43701 48.9823
715 1 42.3647 24.7293 38.5406
716 1 2.02341 15.4447 50.815
717 1 25.9487 15.8134 15.1815
718 1 41.4865 1.36385 4.10066
719 1 10.7549 51.1528 0.027642
720 1 34.3037 22.88 21.71
721 1 8.86375 46.8746 11.7114
722 1 36.7139 49.8798 52.8901
723 1 44.1637 10.4229 8.37362
724 1 17.7097 8.41171 47.8964
725 1 38.5838 9.40062 50.5282
726 1 39.5595 1.56204 22.4801
727 1 28.5533 52.6283 53.2373
728 1 13.7357 24.3618 11.1189
729 1 19.7531 11.7175 45.053
730 1 45.5503 17.1007 40.8859
731 1 11.6701 35.2591 44.721
732 1 39.3421 49.0557 15.7685
733 1 7.33167 13.6839 51.7615
734 1 54.4077 11.1623 33.7325
735 1 4.97711 15.0767 20.2639
736 1 48.7189 12.3844 47.3609
737 1 23.6655 48.5023 25.243
738 1 3.32768 32.2037 23.8711
739 1 48.1091 28.4446 33.262
740 1 1.75131 47.7501 36.4441
741 1 48.0493 48.2557 40.688
742 1 34.9453 12.6637 31.7465
743 1 34.4576 20.5389 10.7112
744 1 44.886 34.6894 3.24037
745 1 27.5592 30.2198 54.8452
746 1 20.45 54.0184 38.5668
747 1 47.9367 50.8194 24.0899
748 1 44.6919 5.94821 41.8423
749 1 55.9874 32.9066 16.6709
750 1 29.5422 18.843 47.2157
751 1 21.8661 16.8378 6.9261
752 1 16.6761 17.9815 53.3241
753 1 42.02 2.34627 30.8678
754 1 17.5884 47.8038 12.1546
755 1 11.9651 47.7361 53.7991
756 1 34.5219 36.2681 49.6132
757 1 42.7597 46.6959 55.3142
758 1 12.1963 16.2668 -0.236456
759 1 11.5024 22.7855 32.9976
760 1 24.6913 37.286 44.4338
761 1 46.9234 42.0082 30.2093
762 1 32.2405 31.3311 23.3533
763 1 23.4181 46.8202 42.0337
764 1 38.7559 7.00728 54.9402
765 1 39.2213 30.7685 8.18904
766 1 15.2374 2.06118 37.4153
767 1 17.4918 33.7063 52.4462
768 1 50.1992 4.96013 8.30681
769 1 18.1076 48.9681 55.3778
770 1 37.6259 43.8521 3.69787
771 1 29.3176 49.8627 9.76541
772 1 22.1268 8.39082 28.2037
773 1 27.4907 43.6949 31.4217
774 1 22.5939 54.2282 6.61827
775 1 50.7516 32.7297 51.9662
776 1 12.6427 22.7298 23.8041
777 1 18.9422 38.951 23.7058
778 1 11.4886 24.0023 -0.144844
779 1 9.06067 45.8416 6.26512
780 1 30.1682 21.2559 51.0367
781 1 20.8804 18.0867 15.3457
782 1 50.3342 38.777 7.81033
783 1 14.3026 3.16336 22.2581
784 1 41.2586 19.4845 26.557
785 1 23.0825 22.9658 28.0481
786 1 36.2655 48.6728 8.15682
787 1 9.79706 29.9813 33.8033
788 1 52.6181 8.8679 49.0553
789 1 39.0043 21.5638 12.2888
790 1 50.6228 33.2968 12.389
791 1 9.56398 30.739 4.93284
792 1 40.6222 51.6497 47.9229
793 1 16.9228 5.90102 33.0138
794 1 24.1511 1.49907 8.67246
795 1 13.5431 35.4707 25.5555
796 1 22.5887 7.38017 31.8881
797 1 15.8096 18.4605 10.2071
798 1 2.3191 37.5111 51.2428
799 1 29.1519 29.7765 14.9284
800 1 7.63066 19.0809 7.51719
801 1 18.5721 40.6736 54.9252
802 1 49.4358 49.3047 38.0664
803 1 19.9654 40.1061 29.1005
804 1 54.5803 10.4485 48.2199
805 1 43.3569 11.2172 2.77969
806 1 20.6905 9.48441 6.38678
807 1 46.1175 16.739 49.8136
808 1 26.8004 23.9002 39.271
809 1 21.2448 26.8255 28.3452
810 1 16.3335 14.6375 20.0755
811 1 8.62784 47.4502 34.148
812 1 15.6857 0.0860363 53.7262
813 1 4.30027 44.9988 45.502
814 1 17.0559 30.0765 40.3021
815 1 4.44545 8.44013 41.2722
816 1 14.0985 44.6174 6.18478
817 1 7.93407 2.00906 8.2417
818 1 28.5208 10.2789 49.5752
819 1 52.3014 31.0643 29.5403
820 1 44.298 43.2325 5.01932
821 1 38.7322 30.9971 33.6126
822 1 8.48505 35.1644 0.111203
823 1 7.7083 51.478 32.0479
824 1 54.663 51.0729 18.1538
825 1 30.6538 5.02519 15.9279
826 1 2.40638 44.9405 13.2481
827 1 23.6632 4.27978 37.3911
828 1 32.8479 36.2379 28.7245
829 1 6.3845 48.2225 19.9081
830 1 24.8793 31.2289 55.4522
831 2 6.87053 40.3987 40.292
832 2 14.2331 19.3444 2.51963
833 2 20.7398 44.1906 25.3242
834 2 40.7589 32.1665 45.1195
835 2 23.7885 53.6038 28.2361
836 2 12.5247 12.443 26.7989
837 2 10.8691 27.5155 17.8399
838 2 22.1262 42.6085 48.9155
839 2 28.0959 39.5265 28.8807
840 2 13.8922 24.3492 1.20853
841 2 13.5434 20.2221 25.2087
842 2 47.1987 6.21165 46.8289
843 2 39.3969 4.69949 38.3092
844 2 30.1252 14.8896 21.2265
845 2 8.38233 55.2844 20.0779
846 2 41.2694 40.8862 49.6417
847 2 48.2533 3.10564 15.2497
848 2 45.874 49.2841 28.9347
849 2 32.0563 25.8392 36.1819
850 2 15.9386 29.398 49.3747
851 2 37.2861 10.3343 55.6995
852 2 46.6664 39.3067 20.9199
853 1 43.8444 51.9068 9.42999
854 1 51.5601 24.5984 23.2347
855 1 21.7055 45.2659 46.068
856 1 0.959203 11.4681 29.3142
857 1 42.039 9.18721 40.2957
858 1 40.8259 15.918 28.6793
859 1 32.6436 36.4817 31.3983
860 1 54.5619 2.563 26.4512
861 1 4.72365 37.2796 28.4053
862 1 52.9755 32.3852 6.9425
863 1 55.5445 9.49798 17.6397
864 1 24.2132 0.885979 46.6631
865 1 40.1167 24.73 16.2491
866 1 17.2828 6.59986 27.6346
867 1 23.2594 21.0952 3.96237
868 1 49.9302 36.9781 43.6994
869 1 37.8136 31.949 46.1634
870 1 45.2625 21.4543 46.5791
871 1 39.1742 11.6048 46.0967
872 1 27.5991 36.8377 55.5634
873 1 17.0877 35.8784 47.7452
874 1 29.7195 4.59788 28.7136
875 1 7.39388 29.3397 32.8827
876 1 38.764 5.69176 10.1426
877 1 38.4516 42.8575 50.2734
878 1 55.7374 31.7996 35.084
879 1 28.8107 25.9209 22.6627
880 1 52.7307 35.3244 13.7617
881 1 40.6691 36.2021 11.8437
882 1 21.7859 25.6571 45.7877
883 1 19.2519 55.0488 22.2976
884 1 26.9601 18.5452 29.3706
885 1 9.19786 52.5243 34.0109
886 1 50.3751 13.6761 27.342
887 1 55.732 52.7504 20.2552
888 1 19.3315 34.7308 43.7972
889 1 21.682 18.2691 0.247608
890 1 41.0473 15.3628 23.6407
891 1 44.1247 25.4776 21.9102
892 1 23.2508 14.5173 24.7606
893 1 47.4167 52.5341 11.8158
894 1 28.7791 34.4593 32.0624
895 1 18.6807 23.8074 15.0567
896 1 5.53164 37.6463 7.84293
897 1 25.7462 14.8411 9.43235
898 1 30.502 9.92284 15.0613
899 1 35.8359 0.0202161 15.2822
900 1 29.1913 7.27062 53.4218
901 1 20.9573 1.76113 45.25
902 1 55.6655 16.587 24.0647
903 1 33.2775 49.863 38.817
904 1 36.1846 36.5655 11.7736
905 1 33.45 27.6596 16.6088
906 1 14.4282 -0.0881619 28.0684
907 1 24.071 11.8691 1.71304
908 1 -0.0824446 43.6845 34.884
909 1 42.5834 36.1749 41.4329
910 1 41.2966 40.8308 21.2448
911 1 10.2967 20.1048 54.8993
912 1 35.5109 22.1329 40.9099
913 1 37.3178 7.9348 9.64662
914 1 22.4384 55.6238 -0.398164
915 1 10.1902 40.7863 50.3911
916 1 16.4972 45.7112 8.09674
917 1 13.7312 43.8422 44.7545
918 1 53.6814 29.2588 2.69901
919 1 55.1918 9.92062 7.5144
920 1 48.1609 42.3826 44.2567
921 1 23.6874 47.197 6.54222
922 1 12.8323 0.758518 9.25583
923 1 52.44 5.22609 40.3586
924 1 21.6795 15.9146 13.7352
925 1 3.0548 10.4623 44.7493
926 1 30.4829 5.19597 3.18374
927 1 13.7833 1.19102 20.231
928 1 49.8161 31.5797 36.7344
929 1 46.2454 33.6726 39.9016
930 1 9.41869 25.3908 56.0184
931 1 -0.398659 33.5431 43.7915
932 1 19.2258 16.2819 53.5099
933 1 32.3795 15.7975 28.3561
934 1 2.08786 9.79624 27.5951
935 1 7.74884 52.263 18.6575
936 1 35.3969 11.2818 53.2635
937 1 44.9925 47.0158 53.0261
938 1 7.18962 31.5221 7.76771
939 1 30.5117 36.9199 56.1663
940 1 37.4522 6.51674 33.5285
941 1 32.2228 8.64414 35.5144
942 1 37.9253 56.1627 44.6877
943 1 19.1097 31.4438 12.9211
944 1 55.8302 25.3237 34.172
945 1 37.8552 0.392154 30.4339
946 1 47.0593 6.51989 22.1028
947 1 11.4738 35.4349 39.9506
948 1 55.1469 41.0739 7.30118
949 1 33.7909 32.1128 5.43779
950 1 1.165 18.5489 4.31351
951 1 16.6732 38.8391 55.6961
952 1 24.198 19.5535 1.15002
953 1 48.5614 32.387 26.6133
954 1 28.4902 7.43041 21.8415
955 1 53.0651 27.1134 9.69169
956 1 50.5214 20.0772 9.13635
957 1 36.2593 14.8802 23.5078
958 1 34.3414 50.8549 22.6556
959 1 33.1506 26.9101 51.3682
960 1 44.3298 17.0033 8.54262
961 1 8.95381 45.142 22.8047
962 1 50.393 32.1057 16.8977
963 1 44.2374 14.4078 49.9907
964 1 38.1129 33.2938 23.1361
965 1 30.0828 22.7637 43.4871
966 1 3.67532 44.5831 8.64278
967 1 37.0976 40.9747 36.449
968 1 48.0595 39.0214 47.4872
969 1 29.3714 1.74043 28.7505
970 1 41.2185 21.791 52.5061
971 1 28.1272 19.7227 26.6427
972 1 55.9501 40.8007 53.3022
973 2 40.9599 8.24391 26.2427
974 2 48.0542 41.5481 35.2845
975 2 53.6034 37.9458 28.1087
976 2 15.3443 24.887 41.5822
977 2 52.7967 37.0685 16.3718
978 2 52.567 37.3224 20.0671
979 2 34.7999 40.7284 41.9125
980 2 54.7558 6.06711 45.2182
981 2 45.2983 10.2693 5.28928
982 2 55.3161 31.6615 50.3328
983 2 12.2797 30.486 55.8441
984 2 47.4083 18.7706 36.9727
985 2 0.145958 55.7617 8.86798
986 2 4.7009 19.9384 37.0443
987 2 17.5346 6.76124 2.48806
988 2 0.979509 26.3592 52.2168
989 2 39.125 25.4347 31.586
990 2 55.5906 4.60656 11.0015
991 2 23.7032 20.2494 20.2699
992 2 19.6271 17.8929 49.9728
993 2 3.03945 14.1214 53.4159
994 2 54.2667 23.5303 36.0695
995 1 54.3322 2.90265 44.2519
996 1 23.0082 27.1553 55.0785
997 1 45.0231 54.9365 0.22635
998 1 23.116 37.0783 23.6811
999 1 19.4482 30.2834 42.6887
1000 1 17.0378 25.5365 1.32381
1001 1 53.6013 14.1807 7.75409
1002 1 41.7414 26.8016 22.6771
1003 1 14.6136 24.0995 35.7024