ITEM: TIMESTEP
0
ITEM: NUMBER OF ATOMS
9088
ITEM: BOX BOUNDS pp pp pp
-1.8159187794223142e-01 5.6066084503928693e+01
-1.8159187794223142e-01 5.6066084503928693e+01
-1.8159187794223142e-01 5.6066084503928693e+01
ITEM: ATOMS id type x y z
1 1 28.3885 41.1997 49.3144
2 1 44.2625 4.45014 36.4033
3 1 41.6236 12.9668 49.5782
4 1 37.1521 49.1489 43.4801
5 1 11.5755 34.2792 8.33568
6 1 35.8567 25.5669 21.9434
7 1 19.9877 33.0664 1.37634
8 1 48.2526 1.47033 9.4437
9 1 55.6326 50.2037 39.8502
10 1 36.9218 13.6687 53.5594
11 1 48.5116 35.498 32.4652
12 1 35.6333 19.438 36.7356
13 1 21.7903 48.573 36.93
14 1 20.1262 49.544 49.9121
15 1 3.19669 36.7346 30.1443
16 1 26.7334 0.911586 38.881
17 1 50.4566 10.0407 28.1042
18 1 4.11823 48.0142 36.4926
19 1 30.0954 23.9793 51.9314
20 1 31.1319 2.64274 44.5922
21 1 25.6207 49.0725 50.1082
22 1 9.85718 41.7129 1.90555
23 1 21.7972 17.7784 37.8378
24 1 3.45863 7.99817 55.6333
25 1 26.349 27.4587 38.8843
26 1 19.88 28.1427 43.3503
27 1 34.7365 29.4472 54.4273
28 1 13.5959 32.6001 14.7897
29 1 10.96 50.3461 40.3236
30 1 49.0557 7.34374 44.556
31 1 30.7464 4.88834 -0.0595679
32 1 33.997 5.46795 23.3175
33 1 24.4457 41.8566 2.64222
34 1 14.4259 24.6178 1.84205
35 1 20.2872 51.2913 40.5339
36 1 16.4745 32.146 18.8231
37 1 23.6059 55.6714 47.3276
38 1 23.684 21.2275 5.82363
39 1 13.3176 26.3677 -0.0497562
40 1 8.65981 11.3207 47.8953
41 1 46.8632 41.1119 1.32982
42 1 5.69922 38.9095 14.9837
43 1 21.7994 16.9359 9.68368
44 1 50.6488 52.0158 23.7556
45 1 13.1166 43.5559 55.965
46 1 0.107136 17.8087 10.9379
47 1 42.6444 6.19637 31.9081
48 1 18.4951 30.4476 19.7387
49 1 7.2091 19.9693 32.726
50 1 18.2156 19.4538 20.5335
51 1 50.1294 32.0516 30.3727
52 1 22.4373 10.4462 37.4519
53 1 52.6709 20.309 1.32664
54 1 52.4619 17.362 42.464
55 1 39.5672 44.7614 29.8059
56 1 11.8691 25.495 44.7492
57 1 7.04534 33.113 34.8059
58 1 37.353 11.4468 21.6168
59 1 5.32695 30.4453 28.566
60 1 36.3047 32.9487 54.5964
61 1 11.9377 27.2345 54.1545
62 1 52.6563 22.246 24.2431
63 1 49.2757 43.2709 28.9241
64 1 22.1112 4.06997 16.1745
65 1 11.1512 42.5449 47.998
66 1 8.18479 44.7946 10.1371
67 1 12.3494 43.2616 53.3733
68 1 11.4488 33.6838 52.3014
69 1 37.3415 38.2804 45.9515
70 1 2.10455 28.1777 4.71549
71 1 51.7313 47.0551 28.1716
72 1 55.4082 29.4689 1.4849
73 1 25.4839 46.3998 4.65495
74 1 4.78087 33.4407 47.0059
75 1 37.6976 19.5008 5.14912
76 1 38.5464 23.9885 5.98153
77 1 47.5159 40.282 32.3156
78 1 33.9256 40.6093 10.4892
79 1 31.7753 23.4205 42.7101
80 1 39.4681 0.16029 30.7466
81 1 17.676 27.8774 54.2769
82 1 50.2517 1.2098 23.8459
83 1 8.01862 15.122 27.8208
84 1 36.402 2.1777 4.06652
85 1 39.5218 10.9506 38.4909
86 1 34.7265 33.9953 34.8175
87 1 26.0134 8.26676 32.0303
88 1 15.9552 11.4769 12.8
89 1 7.03855 47.8173 39.3108
90 1 1.20957 39.3919 51.7057
91 1 17.9185 7.83322 21.7938
92 1 9.96244 11.9006 19.2884
93 1 38.0989 9.4005 11.2651
94 1 35.4821 34.0119 28.8798
95 1 40.7343 24.3425 19.0513
96 1 7.05367 0.0263269 14.0309
97 1 3.45088 8.64128 32.7737
98 1 18.1065 12.9243 30.3877
99 1 42.4019 36.7252 5.56877
100 1 3.50634 5.95303 26.946
101 1 0.571792 33.7616 47.256
102 1 5.23646 1.53022 12.5503
103 1 41.8237 43.2443 55.7765
104 1 14.7272 54.9781 39.3312
105 1 31.2227 14.0279 10.8326
106 1 18.9673 48.4567 47.5235
107 1 32.3895 0.300555 44.9953
108 1 46.7924 16.9272 47.5001
109 1 10.3016 45.5636 16.9149
110 1 31.3873 9.17608 10.6967
111 1 37.5282 54.2415 15.1394
112 1 5.60119 5.35884 10.1832
113 1 28.9126 33.4226 11.4269
114 1 24.3973 16.8898 40.259
115 1 42.9669 34.5436 31.3124
116 1 32.0832 6.13558 38.082
117 1 -0.180625 12.2977 40.6405
118 1 1.7464 44.2469 31.9723
119 1 36.3108 36.2608 33.8912
120 1 15.2922 1.64071 39.8927
121 2 11.78 38.8096 35.3938
122 2 51.4762 18.47 12.7576
123 2 55.186 46.5173 20.9235
124 2 52.3894 29.6578 19.6996
125 2 53.7842 35.7016 38.5287
126 2 25.1538 7.36552 17.8806
127 2 12.33 51.3634 15.7431
128 2 7.51915 29.9199 35.289
129 2 55.1671 17.8361 7.64397
130 2 1.34641 21.1597 45.8419
131 2 52.2126 11.8746 47.2713
132 2 39.1236 46.6354 17.9135
133 2 34.8176 42.8227 16.3044
134 2 15.1742 5.28745 9.08494
135 2 42.8089 34.0265 3.93587
136 2 10.0088 0.729119 32.0475
137 2 40.9022 24.0728 46.1409
138 2 5.38271 4.62943 49.4045
139 2 31.1766 14.9557 13.7618
140 2 45.3724 27.2649 38.8394
141 2 7.93277 38.3882 22.8979
142 2 29.5424 23.5595 40.1717
143 1 47.2364 19.374 46.1784
144 1 29.373 17.6386 13.5731
145 1 54.1938 12.2958 6.42415
146 1 52.2269 26.5656 15.1502
147 1 29.2674 27.7456 32.9541
148 1 27.2563 10.337 38.3833
149 1 46.4991 6.16287 44.6917
150 1 25.0717 25.497 9.47313
151 1 49.8615 24.4081 53.9127
152 1 10.3598 33.6047 45.2718
153 1 49.6711 48.2 29.2323
154 1 42.8891 41.727 30.7662
155 1 32.3213 18.4636 10.3188
156 1 7.85692 33.1518 9.27772
157 1 51.5481 34.2141 22.1824
158 1 37.5025 5.42557 0.0792099
159 1 54.7874 47.8955 13.6965
160 1 49.1795 2.26008 2.50094
161 1 10.3598 25.7613 21.3172
162 1 13.2015 12.8381 44.1602
163 1 19.8985 21.2204 26.399
164 1 55.8384 38.3201 11.8767
165 1 51.4256 35.3279 6.72863
166 1 45.0819 41.8094 14.6508
167 1 31.3023 39.7254 46.21
168 1 37.1945 7.38389 41.7193
169 1 28.2865 50.7006 39.572
170 1 39.6058 33.9981 47.2725
171 1 28.3584 32.5811 23.7508
172 1 21.3194 43.7422 28.5631
173 1 14.1119 39.7217 9.99373
174 1 35.2924 1.73729 32.367
175 1 18.5518 28.0847 16.2488
176 1 39.4194 37.0273 6.58724
177 1 9.88992 4.90268 25.1216
178 1 18.4972 5.58583 8.89165
179 1 27.2031 45.2537 47.9112
180 1 55.3572 27.0169 8.33518
181 1 48.6847 42.9218 31.718
182 1 49.875 30.1858 52.6441
183 1 13.4757 20.6495 3.89126
184 1 25.8254 52.9532 12.1301
185 1 33.3611 10.3461 33.8315
186 1 43.8309 26.4651 26.5594
187 1 1.50935 6.86451 53.5689
188 1 28.5411 39.3845 3.66613
189 1 13.2521 41.3945 34.0619
190 1 35.2609 48.6651 21.8164
191 1 20.6777 19.3264 45.9326
192 1 50.1303 -0.0122448 7.9823
193 1 37.121 8.72683 13.7986
194 1 35.9 3.81998 30.8267
195 1 24.689 27.4899 1.21466
196 1 34.6618 5.23299 26.5144
197 1 7.24186 9.3128 49.4304
198 1 12.7403 18.8773 28.5999
199 1 31.5504 19.0675 3.14289
200 1 40.0508 20.5486 41.1921
201 1 26.6455 12.9619 16.1597
202 1 38.9656 2.09652 2.85349
203 1 31.2434 27.5374 37.1505
204 1 41.0517 27.0767 19.1679
205 1 7.85664 12.6305 2.72832
206 1 39.2483 25.1412 24.1997
207 1 0.336564 45.3847 45.6358
208 1 31.9 5.07211 10.7289
209 1 47.5851 6.57079 47.1112
210 1 27.3276 21.6105 41.7208
211 1 8.46342 5.56159 21.8325
212 1 43.2553 27.7284 43.5097
213 1 22.4471 12.4985 51.111
214 1 1.04429 37.7541 2.44408
215 1 11.2298 27.8336 22.7906
216 1 0.125151 24.5817 50.8932
217 1 21.8762 8.88735 35.5292
218 1 1.51215 9.76152 54.3577
219 1 44.1106 51.5164 5.93445
220 1 44.6688 8.09746 43.691
221 1 30.6209 0.555873 17.2473
222 1 2.37961 7.69288 21.6914
223 1 26.3483 43.9137 2.76592
224 1 42.6601 9.04793 25.5508
225 1 43.8441 48.9424 38.0023
226 1 12.8289 41.9253 25.547
227 1 20.5531 45.695 33.361
228 1 -0.155952 20.2612 52.7602
229 1 11.0562 27.1968 42.724
230 1 31.0607 30.1247 41.2025
231 1 31.7532 35.252 25.1128
232 1 40.6429 17.1208 17.7754
233 1 50.8612 50.2574 37.9763
234 1 10.8648 14.3278 51.1888
235 1 41.7755 18.2162 42.0711
236 1 6.82553 47.3761 29.6692
237 1 52.8349 29.6008 23.3659
238 1 38.7081 1.37207 0.211225
239 1 34.0485 28.6436 5.99948
240 1 9.444 32.8483 51.0145
241 1 20.1805 48.9843 10.7653
242 1 32.8804 11.0325 2.91491
243 1 7.4928 24.185 33.5223
244 1 55.9377 42.3177 7.65741
245 1 1.69634 27.8064 19.9968
246 1 54.4054 5.66587 6.10181
247 1 54.3297 49.0712 11.041
248 1 44.2628 0.520691 45.5853
249 1 10.8313 44.9963 48.8613
250 1 23.4448 24.4518 17.7962
251 1 18.1193 39.4641 3.94414
252 1 47.7022 16.7913 38.7175
253 1 2.734 27.2144 48.1072
254 1 9.20697 8.65486 32.7006
255 1 55.2562 9.23306 18.0664
256 1 31.0444 47.3477 24.8246
257 1 1.44506 12.3186 34.992
258 1 33.2806 18.5268 27.7517
259 1 45.5845 45.8148 54.9116
260 1 24.8995 41.4969 34.0096
261 1 32.2584 10.7845 39.6478
262 1 24.6419 48.0547 10.607
263 2 43.9535 24.5024 29.2154
264 2 25.7975 47.0021 1.6567
265 2 49.8993 7.19121 49.1464
266 2 7.05718 24.5536 38.6696
267 2 14.7612 21.3198 1.21557
268 2 4.55236 3.24816 24.8763
269 2 15.2204 2.26663 16.8471
270 2 44.2693 43.2989 53.4321
271 2 53.793 44.68 26.0836
272 2 33.3434 40.3521 13.8496
273 2 33.1867 6.26771 34.6649
274 2 52.9509 27.0624 30.5726
275 2 27.3163 7.11792 53.0007
276 2 -0.151456 13.7855 4.36754
277 2 1.06903 42.9342 39.5229
278 2 11.8956 34.3758 18.6371
279 2 44.1338 51.4737 46.6215
280 2 19.6042 55.2026 22.182
281 2 41.4394 17.0553 14.7543
282 2 15.3982 28.7269 8.08285
283 2 46.573 47.7228 28.6618
284 2 16.7746 26.9882 34.675
285 1 4.70065 35.3757 5.80296
286 1 49.6538 34.6026 20.0905
287 1 44.6273 1.8318 36.0818
288 1 20.259 16.7532 29.4514
289 1 22.8439 31.5163 4.52024
290 1 50.866 13.1109 23.9687
291 1 18.087 43.9648 34.547
292 1 41.0431 5.00994 44.1439
293 1 54.735 19.7662 55.4697
294 1 30.8234 32.8698 41.5956
295 1 47.0496 25.3245 29.7094
296 1 12.2578 32.0771 35.25
297 1 48.3829 14.1373 33.7095
298 1 30.9973 22.345 13.0714
299 1 31.7128 18.8537 17.7479
300 1 24.7026 31.7887 9.59834
301 1 24.8157 49.8462 23.5453
302 1 46.7353 33.4782 25.8628
303 1 53.7494 3.35723 1.80491
304 1 13.7621 34.7538 53.4309
305 1 25.6584 38.3635 23.1598
306 1 29.0626 52.1877 32.7145
307 1 5.15713 40.0522 32.1591
308 1 39.9913 53.9695 45.1405
309 1 49.5954 30.677 28.3136
310 1 10.4571 53.026 38.4834
311 1 38.013 35.011 5.46594
312 1 10.3766 7.91931 25.8154
313 1 5.01675 55.2956 18.0367
314 1 29.2438 47.653 53.1573
315 1 4.37072 6.13709 14.9924
316 1 43.7972 10.1794 10.4641
317 1 30.664 32.0809 38.9416
318 1 5.94664 23.1094 11.1065
319 1 3.13594 2.5804 18.2573
320 1 18.9988 33.6134 25.2227
321 1 26.0345 38.6388 34.2164
322 1 55.1062 21.613 23.0288
323 1 11.3539 10.6591 32.9283
324 1 18.5621 8.80504 32.115
325 1 21.7736 46.1611 43.1504
326 1 16.7098 31.9506 40.9657
327 1 12.3894 9.11998 34.9371
328 1 0.559293 8.11433 36.635
329 1 4.4094 25.4907 44.8019
330 1 7.84932 30.8745 30.1987
331 1 16.1193 39.2193 52.3834
332 1 0.685395 44.1853 11.935
333 1 16.2202 13.7194 10.793
334 1 33.4929 34.8283 22.9255
335 1 35.4065 13.2591 51.0871
336 1 49.788 21.274 12.752
337 1 1.03202 34.3242 7.57284
338 1 9.64967 23.1497 22.4141
339 1 15.1018 24.5216 44.4693
340 1 25.1258 23.3513 26.271
341 1 26.593 51.0511 25.2535
342 1 0.159241 26.9021 18.0397
343 1 35.8925 14.2143 27.3016
344 1 33.166 15.8462 11.4699
345 1 48.9122 16.8111 4.01092
346 1 0.302285 6.90054 23.6292
347 1 19.9337 18.4082 11.1767
348 1 12.9869 10.4029 23.0394
349 1 4.27143 37.066 10.3493
350 1 1.74491 53.7597 50.854
351 1 45.1649 35.5406 5.39949
352 1 18.9335 8.32048 52.0962
353 1 24.4232 34.627 53.7705
354 1 46.5092 37.0878 39.4529
355 1 48.8772 28.5703 38.8328
356 1 9.62859 40.2106 42.8421
357 1 20.2109 50.5207 52.8051
358 1 21.5254 24.2827 36.6529
359 1 29.1018 44.8598 46.2833
360 1 16.9493 38.1371 45.3061
361 1 39.9952 21.8731 43.6603
362 1 0.67756 53.9738 4.46119
363 1 44.2282 18.2263 14.7906
364 1 41.1762 0.559901 32.8488
365 1 40.2897 45.2874 6.8025
366 1 15.5685 34.5001 14.6455
367 1 50.5239 46.9867 38.2564
368 1 40.3291 44.8396 26.6928
369 1 33.2822 14.319 16.1096
370 1 3.50781 40.6547 50.5596
371 1 19.1862 28.0743 48.8187
372 1 13.7508 22.1686 33.6531
373 1 21.6235 0.140877 38.4052
374 1 47.2838 50.4071 2.50873
375 1 4.17342 52.7816 35.3018
376 1 42.7626 48.7975 25.0526
377 1 6.30674 21.7354 55.5118
378 1 29.1068 52.6741 21.4719
379 1 51.3486 39.1877 20.5128
380 1 11.0727 13.0377 26.796
381 1 26.1039 50.1495 29.1244
382 1 55.1821 22.5793 8.4494
383 1 12.674 23.2396 22.7701
384 1 49.2339 16.492 32.8526
385 1 29.4741 8.96904 19.8653
386 1 36.0479 38.5697 23.2656
387 1 21.2213 33.7924 39.2768
388 1 24.2091 7.11174 40.1395
389 1 26.8492 10.8451 14.3703
390 1 45.2205 48.9934 31.6534
391 1 6.90488 9.18289 7.09649
392 1 48.4763 49.0041 37.1852
393 1 3.42109 27.9874 0.807756
394 1 3.23656 37.8921 46.8075
395 1 55.0807 7.5594 47.9877
396 1 14.7191 5.34288 23.9883
397 1 49.6528 25.9795 22.4484
398 1 21.7467 29.0157 4.17009
399 1 6.94147 54.0964 41.8063
400 1 35.7591 42.8048 27.6469
401 1 18.6153 30.6511 24.6972
402 1 31.7732 48.0675 43.8601
403 1 13.115 42.5525 28.3289
404 1 26.6096 35.1203 45.7771
405 2 19.6866 8.22642 14.1504
406 2 35.9808 30.7955 7.59219
407 2 34.5341 13.0337 13.0179
408 2 24.8705 49.8681 13.0125
409 2 46.832 0.405597 16.6112
410 2 36.6024 49.1389 16.2876
411 2 5.83023 41.5856 17.1129
412 2 53.5674 8.7478 35.7309
413 2 30.9556 21.8405 45.2228
414 2 12.6383 35.0518 47.6066
415 2 55.6539 51.668 9.18508
416 2 51.877 42.9911 55.1269
417 2 44.3321 5.01324 10.3236
418 2 7.54938 36.034 11.0108
419 2 15.5565 54.4164 22.4587
420 2 23.8599 23.1792 23.293
421 2 41.2866 49.4447 9.846
422 2 31.8793 16.1556 8.06975
423 2 8.08144 0.519908 43.2017
424 2 52.2471 10.7055 4.82065
425 2 48.0748 51.9375 38.7383
426 2 37.2451 8.47436 38.0328
427 1 29.5536 29.8216 0.00588037
428 1 3.92835 53.3583 52.3866
429 1 55.6808 27.5437 50.8327
430 1 51.7929 55.0251 9.88936
431 1 20.0659 47.4889 26.3291
432 1 42.6385 8.16741 6.48319
433 1 39.8792 24.6645 13.7394
434 1 13.3864 22.6548 43.8366
435 1 22.9302 52.1951 8.65074
436 1 32.4117 32.0486 48.3673
437 1 26.0106 24.3397 33.5759
438 1 47.0341 3.34774 35.3663
439 1 1.52533 38.2141 54.1394
440 1 8.98497 25.2025 29.6104
441 1 22.3973 14.3553 10.8014
442 1 42.5647 18.8106 17.141
443 1 41.9655 10.8661 27.204
444 1 51.2418 42.2884 47.4949
445 1 5.19468 14.9079 17.9528
446 1 38.5048 31.6406 39.9936
447 1 20.7778 51.874 10.3148
448 1 44.1648 2.91129 -0.149627
449 1 54.2772 6.94224 29.0375
450 1 51.2289 33.2733 0.402682
451 1 27.6068 49.3062 14.4486
452 1 48.1856 12.2845 22.9827
453 1 9.39245 21.4496 33.7913
454 1 5.56931 35.4599 52.0107
455 1 6.92005 22.0308 23.5168
456 1 46.2486 3.46473 51.5125
457 1 53.4823 38.8513 18.3844
458 1 27.2264 20.09 36.624
459 1 2.88131 34.6272 9.71397
460 1 29.4327 0.363482 34.3339
461 1 7.92484 16.5921 17.2947
462 1 48.5118 27.5176 9.17746
463 1 15.5668 2.34019 7.38467
464 1 31.5455 52.6298 23.0582
465 1 7.74065 46.6297 17.3533
466 1 5.17907 47.7817 5.35447
467 1 47.1653 11.3169 37.9352
468 1 44.7447 53.9524 6.99226
469 1 14.927 43.3575 24.5659
470 1 28.4066 0.0850549 14.9527
471 1 26.6237 10.0933 3.58278
472 1 15.1588 38.2006 28.1403
473 1 48.5179 38.8843 46.673
474 1 39.8381 12.4866 16.5591
475 1 22.8753 25.094 20.4445
476 1 12.2588 21.9626 40.0053
477 1 48.9098 3.33019 37.372
478 1 41.3205 7.31511 13.6865
479 1 55.4623 26.0584 35.3859
480 1 40.9237 8.32792 3.70944
481 1 25.7666 1.65412 51.1376
482 1 30.0627 36.9163 22.8736
483 1 46.4131 19.6243 34.2203
484 1 5.92384 37.2188 7.29447
485 1 18.4021 45.3403 25.2762
486 1 47.4973 8.02242 42.5893
487 1 21.0724 12.7021 22.2426
488 1 5.76516 47.5704 25.3707
489 1 2.94374 44.5663 13.6892
490 1 24.4663 49.6142 26.431
491 1 13.2858 29.8233 46.9781
492 1 26.8527 24.7223 41.65
493 1 44.3267 30.2965 33.7791
494 1 4.71066 54.3837 13.7846
495 1 11.8458 33.8836 13.1727
496 1 39.1939 17.7762 37.2981
497 1 7.21046 17.3171 31.8715
498 1 19.5463 20.514 8.82948
499 1 33.8683 29.8772 20.1072
500 1 51.8793 3.12712 36.195
501 1 16.4015 50.7354 43.5035
502 1 50.9797 42.9468 6.99302
503 1 42.6433 21.0364 42.7167
504 1 40.1662 47.1103 32.3122
505 1 38.2147 27.5848 3.70214
506 1 22.3814 27.4763 41.9352
507 1 53.3733 54.484 32.1374
508 1 10.745 43.0056 17.7974
509 1 53.3824 29.1425 8.2269
510 1 30.6993 0.724888 3.39857
511 1 49.8288 5.68892 6.15665
512 1 14.2788 50.3817 12.8098
513 1 33.2768 29.8909 29.3892
514 1 28.3052 27.8454 21.1497
515 1 29.2398 12.5663 27.3272
516 1 5.337 40.6191 37.3254
517 1 15.8685 3.29115 0.141407
518 1 24.2725 12.1901 13.6602
519 1 8.1746 11.9483 45.1057
520 1 36.0367 17.6399 4.49295
521 1 45.7421 24.8853 32.0085
522 1 7.5001 17.2868 0.637897
523 1 38.8234 1.84722 25.8482
524 1 39.9635 51.8661 32.241
525 1 25.8896 41.3632 22.712
526 1 26.4647 15.9211 30.8761
527 1 29.1186 54.5304 23.349
528 1 2.31586 6.50071 6.45241
529 1 39.9446 8.62971 33.4792
530 1 38.0412 16.6217 18.2339
531 1 39.4248 7.93831 48.5413
532 1 35.0478 9.80823 11.8307
533 1 43.1536 6.32862 20.7719
534 1 19.4994 35.5251 20.4154
535 1 43.0604 3.05745 38.3666
536 1 39.0534 22.406 15.5202
537 1 18.9878 22.2788 20.9064
538 1 6.90616 27.7923 2.80995
539 1 28.7795 37.8419 33.3067
540 1 48.0646 12.2273 16.5084
541 1 42.461 5.97843 7.84639
542 1 33.0421 47.8765 35.9394
543 1 37.9636 44.7842 35.1977
544 1 31.6112 34.7852 15.3919
545 1 51.9233 24.6296 5.67877
546 1 23.602 50.9612 41.0678
547 2 15.4529 40.8828 26.6931
548 2 12.9871 46.8331 1.38209
549 2 34.6478 47.61 25.576
550 2 55.7462 51.3109 12.9562
551 2 52.574 7.08427 16.8842
552 2 9.826 7.00361 35.5064
553 2 37.6479 10.0587 16.75
554 2 23.5513 5.79768 53.1461
555 2 14.6009 12.772 21.734
556 2 12.7042 41.5631 43.0968
557 2 13.7366 5.67596 34.0261
558 2 17.4838 33.0891 3.32786
559 2 40.0465 16.968 21.1755
560 2 5.16633 16.2654 29.4954
561 2 38.6063 12.7972 50.7812
562 2 3.86176 19.7712 28.4995
563 2 29.9802 47.0454 35.0158
564 2 16.6361 5.00352 39.9783
565 2 20.1499 22.3572 34.825
566 2 31.3562 13.8153 38.9601
567 2 44.6111 38.5042 0.656133
568 2 43.4436 18.0826 20.3214
569 1 14.9086 1.1736 19.6661
570 1 52.2763 37.0326 49.6971
571 1 20.2514 14.2095 6.00933
572 1 46.5777 14.851 53.4101
573 1 15.532 15.2774 26.0055
574 1 30.3301 46.2786 17.5604
575 1 30.3229 49.6946 42.1849
576 1 13.8006 0.0709836 11.1603
577 1 1.85482 6.4136 15.5538
578 1 55.2418 39.9455 44.3836
579 1 34.248 44.8509 48.2064
580 1 21.2319 32.1253 6.74854
581 1 37.5037 10.3288 29.0688
582 1 12.2798 41.4942 38.0371
583 1 45.7812 25.6047 17.7954
584 1 29.0059 40.7365 29.1513
585 1 33.3119 8.0882 23.3532
586 1 55.2745 0.0122257 31.1472
587 1 10.6762 1.63356 7.35636
588 1 9.12691 44.1895 46.7223
589 1 34.5045 47.386 49.6192
590 1 55.9434 7.53146 6.99985
591 1 13.1333 9.66608 31.0373
592 1 52.9716 33.1714 6.59323
593 1 18.8453 25.1243 33.4735
594 1 2.90513 42.3111 41.9583
595 1 34.5723 12.1042 44.1677
596 1 3.5069 4.90189 39.1723
597 1 28.8245 51.6525 7.8621
598 1 48.5541 47.0605 25.5474
599 1 4.9585 3.94804 13.8164
600 1 11.7634 32.3272 4.23527
601 1 22.1567 42.175 54.3088
602 1 3.04487 42.4102 15.3284
603 1 26.7905 35.3471 52.2768
604 1 5.45655 21.8338 30.2655
605 1 28.6059 42.9872 27.6698
606 1 27.6584 46.7242 30.4428
607 1 39.0171 14.2042 33.6109
608 1 37.4158 4.70022 49.3134
609 1 34.1044 30.3664 12.8343
610 1 43.4731 5.75006 44.9222
611 1 20.9437 44.6973 31.0698
612 1 17.9982 46.7851 45.4098
613 1 3.14147 51.6974 1.25617
614 1 53.7202 33.3195 10.8819
615 1 5.84223 42.9121 41.3385
616 1 38.2519 3.59849 54.6285
617 1 16.3506 11.604 51.8384
618 1 5.60185 55.341 53.2883
619 1 36.6465 11.4557 26.8423
620 1 28.355 27.1532 25.5538
621 1 53.1224 8.56071 27.2431
622 1 3.85855 29.7662 44.1841
623 1 14.8993 44.2016 11.7799
624 1 27.7736 9.37388 55.1143
625 1 9.92078 14.9336 25.5303
626 1 39.3405 27.467 22.4735
627 1 33.3939 37.8834 1.77875
628 1 31.783 10.1637 17.4138
629 1 41.9764 46.5963 11.1128
630 1 39.6106 55.572 22.5228
631 1 43.6439 28.9578 13.9336
632 1 4.80229 32.3996 26.7996
633 1 15.8136 6.6483 49.1767
634 1 47.9123 45.4478 17.7529
635 1 29.5133 44.6879 23.5174
636 1 5.82512 6.64087 17.4225
637 1 0.529744 14.7266 39.626
638 1 32.7695 47.4695 55.5099
639 1 28.6533 5.29892 4.46583
640 1 21.8374 53.6809 6.3893
641 1 55.814 47.6107 35.6497
642 1 53.7727 18.6599 10.3296
643 1 41.4982 27.7373 24.5864
644 1 20.3953 42.6008 46.0234
645 1 0.517835 19.5254 41.1833
646 1 13.2832 31.2364 12.4584
647 1 3.23225 29.375 8.76332
648 1 19.2012 16.8977 5.22946
649 1 20.6316 20.2499 19.591
650 1 14.878 4.11386 3.286
651 1 30.4081 33.3992 33.3395
652 1 50.8533 13.439 39.9427
653 1 51.9283 30.9124 51.0105
654 1 29.4244 34.1407 0.0235009
655 1 40.9636 4.42547 30.277
656 1 36.5875 52.372 40.1503
657 1 -0.0484897 34.7136 20.6879
658 1 24.6078 8.45745 54.5468
659 1 38.76 39.919 50.173
660 1 1.64576 43.924 6.59887
661 1 46.0037 36.5336 12.9009
662 1 15.692 41.5848 44.3507
663 1 20.0282 35.8418 37.4981
664 1 53.3794 16.944 28.0371
665 1 34.193 42.731 22.6036
666 1 15.0832 9.24203 26.3082
667 1 35.7494 16.8499 28.2009
668 1 47.449 12.2058 44.3258
669 1 51.1833 22.858 15.796
670 1 46.8685 3.20646 11.0652
671 1 32.2969 4.36241 25.1556
672 1 1.83087 18.7057 8.87027
673 1 11.551 4.43947 35.8201
674 1 46.0171 51.358 7.70975
675 1 23.5183 7.73775 32.8151
676 1 53.6809 16.7865 23.9347
677 1 55.8792 35.9982 54.0777
678 1 15.8581 55.5231 17.6538
679 1 52.9169 12.3585 21.9938
680 1 28.4802 32.1683 46.001
681 1 0.348227 26.0531 48.6619
682 1 7.08953 3.24787 44.8363
683 1 43.0151 13.0258 21.0213
684 1 38.445 32.151 37.2314
685 1 22.7949 54.905 15.2921
686 1 44.679 15.0746 11.4148
687 1 47.0488 55.2802 28.285
688 1 20.4914 7.41792 33.4354
689 2 21.7396 49.4833 24.3394
690 2 29.909 50.2714 10.2149
691 2 34.5071 27.0983 38.9411
692 2 8.33373 42.4713 49.2355
693 2 44.6906 48.2151 22.7106
694 2 3.2987 51.1228 54.4503
695 2 17.5851 15.4303 45.2896
696 2 16.2515 40.9982 8.2043
697 2 1.30783 18.3161 36.2346
698 2 17.0877 18.6886 6.96781
699 2 44.8792 11.5023 39.8536
700 2 38.2313 4.97351 3.7381
701 2 53.4303 27.4772 5.5108
702 2 36.1308 28.6661 27.108
703 2 49.0831 45.9863 44.185
704 2 54.3053 12.7235 17.7386
705 2 2.68044 36.9188 7.6076
706 2 2.22775 40.4333 44.4663
707 2 47.6834 17.0471 18.9118
708 2 43.2185 54.2239 0.760369
709 2 44.0927 30.3412 42.2294
710 2 52.8375 48.3966 30.8087
711 1 36.8788 2.09739 45.9743
712 1 17.6684 25.5932 48.9583
713 1 1.29781 49.2985 44.0373
714 1 37.4794 30.2657 25.0112
715 1 1.01812 11.1104 44.5901
716 1 2.85001 15.799 51.2321
717 1 47.0383 0.9269 3.44138
718 1 4.90063 41.6206 55.8992
719 1 41.9959 16.8395 52.6781
720 1 19.2512 16.3461 13.4963
721 1 31.0528 6.61543 4.89834
722 1 31.9239 37.9361 55.4471
723 1 19.1371 14.9779 15.8959
724 1 48.3627 37.3101 53.6469
725 1 13.0762 45.7778 34.8855
726 1 29.8933 41.3398 41.77
727 1 32.574 55.2051 19.0016
728 1 28.0934 0.764791 55.4092
729 1 41.1088 1.58288 52.1897
730 1 5.14772 7.14724 37.719
731 1 54.0464 10.7584 20.1954
732 1 12.8506 0.992188 14.9875
733 1 36.0735 52.8426 55.4418
734 1 37.2872 43.715 18.036
735 1 39.8314 9.51273 1.5013
736 1 51.788 19.0655 50.5423
737 1 31.138 41.7122 27.5644
738 1 0.439003 11.709 6.88381
739 1 21.8702 16.9778 2.98041
740 1 40.4465 35.2208 49.4982
741 1 53.7192 9.40974 32.6107
742 1 18.8311 40.6245 6.17543
743 1 44.7549 29.23 27.0487
744 1 33.5596 55.6841 40.4289
745 1 44.9416 12.7734 13.0157
746 1 20.2934 17.8122 20.814
747 1 0.761751 3.27172 36.0859
748 1 45.9416 54.8293 2.64225
749 1 17.278 13.1353 42.7208
750 1 23.5496 18.901 1.83253
751 1 18.6353 33.2517 33.7832
752 1 15.1109 47.9632 38.872
753 1 20.1146 9.87943 43.6228
754 1 36.1014 54.1186 27.2304
755 1 29.2116 18.1724 18.4202
756 1 31.5882 49.3489 53.8632
757 1 6.80463 19.6788 29.7776
758 1 54.8233 27.0723 20.2174
759 1 44.778 7.08176 18.6546
760 1 19.3241 32.7236 54.4139
761 1 48.6489 15.355 46.6937
762 1 30.4787 52.5176 12.1605
763 1 24.5034 18.1482 9.01302
764 1 18.3908 13.0617 21.4145
765 1 42.5764 19.941 40.0773
766 1 19.5868 35.5244 2.84307
767 1 4.69081 51.5259 28.5823
768 1 25.8132 22.286 35.6846
769 1 18.453 48.4453 54.7071
770 1 18.9379 3.67324 4.68185
771 1 11.7241 38.6255 44.0393
772 1 29.5045 13.0959 52.6812
773 1 10.3572 16.2899 45.6733
774 1 33.3276 2.65959 26.9617
775 1 46.4052 41.6328 30.1434
776 1 25.1685 55.6181 22.4006
777 1 45.6821 47.6204 25.7085
778 1 21.9644 33.5811 47.7192
779 1 41.0093 26.9586 44.4842
780 1 31.3093 47.4991 40.8999
781 1 20.102 37.9555 25.1689
782 1 4.5413 18.83 15.5217
783 1 50.3263 1.05695 36.7421
784 1 44.1357 27.757 24.12
785 1 27.7289 26.082 48.6122
786 1 15.3184 7.71031 41.9991
787 1 5.1584 31.3083 54.2358
788 1 2.19084 10.4141 36.8817
789 1 15.3194 46.2388 28.442
790 1 51.6283 29.5426 43.5888
791 1 36.1028 18.696 24.534
792 1 26.1495 55.0385 19.6512
793 1 2.36584 50.5259 22.3106
794 1 29.9554 25.5795 28.074
795 1 55.6972 21.4818 36.9411
796 1 44.2425 12.3307 3.96089
797 1 18.8494 11.265 13.933
798 1 42.6305 29.1817 54.2809
799 1 16.3993 35.7573 12.289
800 1 17.4143 30.9474 54.9407
801 1 48.8378 48.1605 10.9627
802 1 20.8577 15.287 36.8054
803 1 40.2796 45.2126 40.0101
804 1 51.7103 36.67 9.23016
805 1 38.6885 44.616 32.2869
806 1 13.2368 15.1146 37.2854
807 1 55.5423 16.1298 34.7032
808 1 49.1117 8.24779 38.4157
809 1 10.1802 12.546 1.3362
810 1 7.99942 40.8978 31.9409
811 1 33.4458 22.2176 48.2223
812 1 53.4215 16.016 44.5139
813 1 0.779981 11.1561 2.75021
814 1 45.8195 4.85376 20.0415
815 1 4.67554 8.67288 41.6515
816 1 49.8005 4.83031 35.0394
817 1 44.244 43.5928 29.3832
818 1 54.9886 48.4382 55.2538
819 1 18.3834 37.1302 43.1807
820 1 53.311 28.3255 38.4202
821 1 32.1699 29.5916 38.7848
822 1 0.909168 3.9428 29.0753
823 1 53.8916 46.5713 38.024
824 1 54.4591 0.194034 28.1803
825 1 17.6574 54.2535 29.7255
826 1 16.7338 50.4034 3.76657
827 1 19.8709 33.5912 22.4557
828 1 35.337 23.2433 26.1377
829 1 49.4986 55.8382 29.5154
830 1 51.4392 43.3541 4.10435
831 2 7.34833 40.457 39.8954
832 2 23.9196 14.4808 3.3648
833 2 20.1359 43.2473 23.5527
834 2 43.2535 27.1836 46.7592
835 2 25.111 0.0551571 27.8278
836 2 23.79 14.4922 32.4569
837 2 15.6229 26.8839 17.6931
838 2 23.367 42.1941 47.6681
839 2 28.6429 35.4015 31.4348
840 2 19.6791 16.1227 53.3993
841 2 15.8054 27.2269 26.4013
842 2 47.24 9.52277 45.8179
843 2 42.1393 1.5406 29.8938
844 2 31.2309 15.3234 18.5342
845 2 8.54244 51.804 16.3281
846 2 41.3126 41.4274 48.5686
847 2 48.5402 54.9034 10.7076
848 2 47.6616 44.302 26.0564
849 2 23.1203 17.4913 34.8438
850 2 22.781 32.1433 44.4022
851 2 47.9766 0.0543625 53.9282
852 2 46.2839 38.7232 20.4669
853 1 36.1133 46.4428 9.58912
854 1 30.2788 42.3233 47.0841
855 1 47.6323 26.7358 14.9351
856 1 10.2514 23.9585 34.5795
857 1 54.9604 17.0231 40.3172
858 1 14.3845 50.5202 48.8274
859 1 35.1107 24.7852 41.0896
860 1 9.44149 37.6448 4.18502
861 1 51.8917 36.3892 29.127
862 1 54.2055 30.7424 5.61441
863 1 33.2759 11.5273 10.618
864 1 47.5502 26.6693 49.3694
865 1 14.5745 26.2752 14.4841
866 1 12.7479 34.3 55.9573
867 1 50.6186 21.7979 37.2665
868 1 49.1133 1.59389 34.2376
869 1 53.5 26.811 52.4389
870 1 33.4407 24.4065 20.9123
871 1 10.1783 27.7937 14.9617
872 1 53.1265 38.0681 40.7009
873 1 12.4725 39.3806 32.1211
874 1 54.166 46.1637 1.39268
875 1 41.7692 29.4687 48.2818
876 1 0.158198 16.8852 31.4927
877 1 0.0447601 27.5728 22.8826
878 1 4.65617 35.6906 20.1996
879 1 10.5081 14.2192 31.0142
880 1 51.6845 11.3262 1.86154
881 1 31.837 13.6461 47.8105
882 1 44.8862 22.357 52.4315
883 1 26.6091 13.6868 13.6179
884 1 51.4818 54.4943 36.3221
885 1 29.7565 23.1286 1.20655
886 1 39.4444 47.7149 2.00974
887 1 7.34077 15.5672 19.7247
888 1 3.15863 30.1312 46.8803
889 1 46.2563 7.96842 34.0963
890 1 54.5662 3.03497 6.44188
891 1 52.811 20.4719 37.8297
892 1 37.7225 54.3697 20.6171
893 1 14.2971 51.315 33.8574
894 1 9.38176 41.1644 9.70753
895 1 3.73303 49.2719 40.614
896 1 2.75847 40.6755 17.5641
897 1 28.1792 53.075 10.4012
898 1 41.0528 35.436 42.6422
899 1 16.6665 19.0578 32.3463
900 1 9.29239 27.8562 2.09177
901 1 34.3504 37.6107 41.7625
902 1 25.5384 45.8682 26.1329
903 1 3.72357 26.5294 8.74328
904 1 35.6594 35.6512 11.4162
905 1 28.0384 30.0775 22.4521
906 1 17.7005 36.2121 7.31989
907 1 34.9107 50.7463 14.0695
908 1 1.58349 6.2177 34.637
909 1 40.2899 2.8782 42.5351
910 1 52.7629 38.3388 7.30053
911 1 12.8248 8.63527 25.047
912 1 16.9413 18.5557 37.0503
913 1 4.14592 44.9963 5.89586
914 1 53.0104 51.8216 30.8521
915 1 18.3142 21.2162 38.9546
916 1 28.4326 26.4964 40.4481
917 1 35.1498 55.8655 4.22322
918 1 50.4035 35.0093 14.3626
919 1 48.4387 40.9374 38.4361
920 1 11.9317 38.6436 38.542
921 1 31.7573 54.9295 11.165
922 1 17.7994 41.6093 31.8525
923 1 50.0682 5.62946 38.3787
924 1 0.619922 11.3501 16.6535
925 1 45.1497 55.7503 4.92304
926 1 28.0859 49.7127 51.5268
927 1 52.6029 49.4009 43.4082
928 1 42.2747 12.0178 12.6169
929 1 49.8433 33.1079 7.20201
930 1 38.3556 0.646042 19.8393
931 1 16.7709 25.2231 31.6549
932 1 12.8464 48.5368 52.4739
933 1 30.7603 7.3918 43.7665
934 1 24.9129 51.3465 54.6018
935 1 5.66174 39.1526 55.1182
936 1 7.70522 32.9706 12.0233
937 1 33.807 0.661523 42.7367
938 1 36.145 5.76153 40.0575
939 1 5.56781 29.2006 15.776
940 1 7.5041 39.0286 53.0254
941 1 36.3609 6.64603 35.3164
942 1 15.2448 46.591 45.4761
943 1 33.5106 36.571 34.3585
944 1 9.18059 41.2226 16.1061
945 1 45.007 20.7033 44.4699
946 1 9.90483 42.5684 44.4044
947 1 41.2792 31.058 40.7361
948 1 15.7518 55.5131 43.9281
949 1 49.5285 50.0464 15.5899
950 1 39.3799 27.8417 50.8865
951 1 15.0187 43.1771 53.7501
952 1 44.0861 0.842799 48.5233
953 1 25.8419 22.5802 51.151
954 1 11.0329 45.8129 40.6887
955 1 13.193 21.8729 15.3468
956 1 11.9304 20.2346 8.44714
957 1 47.0715 43.8182 50.9904
958 1 8.35087 25.4867 36.2214
959 1 31.4091 50.0755 35.5538
960 1 53.6195 14.0807 12.3326
961 1 36.9158 41.4799 42.6052
962 1 54.8003 6.4803 18.9216
963 1 7.72241 30.195 47.3576
964 1 25.3105 14.7837 44.5344
965 1 15.2262 30.5974 35.7511
966 1 24.7857 42.5621 31.5444
967 1 10.673 9.13401 11.4089
968 1 42.3455 9.84624 53.7641
969 1 32.0444 37.417 50.3854
970 1 31.4134 17.2098 15.596
971 1 45.0964 5.64329 42.4106
972 1 52.7093 8.25435 51.7004
973 2 45.2392 4.32145 25.794
974 2 46.0497 39.3301 35.1303
975 2 53.4019 38.8747 27.7158
976 2 17.5394 30.6821 49.5366
977 2 52.8258 35.9579 16.0023
978 2 52.4387 36.1662 19.7684
979 2 33.047 42.3746 40.6606
980 2 55.0079 6.1315 44.779
981 2 36.3859 11.7564 9.91674
982 2 54.193 29.7829 49.0692
983 2 12.5312 31.3214 1.33755
984 2 46.2658 22.726 34.1472
985 2 52.0087 2.24823 13.2459
986 2 7.42019 18.5135 37.6851
987 2 20.0397 6.62106 5.35371
988 2 2.59826 26.8625 51.6324
989 2 39.7526 27.916 32.2651
990 2 54.1285 9.96199 15.1433
991 2 22.9033 21.23 17.641
992 2 16.2141 15.7636 54.9324
993 2 1.69428 15.5714 55.9933
994 2 53.5593 22.9904 35.4021
995 1 54.3136 3.07432 43.714
996 1 50.9156 25.4478 47.0739
997 1 24.6141 2.20669 48.0157
998 1 3.43304 49.4044 27.0395
999 1 25.5883 51.0402 51.9877
1000 1 19.7208 8.70374 47.8192
1001 1 30.8553 30.4221 36.4887
1002 1 52.6223 26.2999 8.29089
1003 1 13.7471 28.7994 30.6738
1004 1 6.55801 40.3407 6.70951