ITEM: TIMESTEP
0
ITEM: NUMBER OF ATOMS
9088
ITEM: BOX BOUNDS pp pp pp
-3.5200003142699149e-01 5.6236492657339539e+01
-3.5200003142699149e-01 5.6236492657339539e+01
-3.5200003142699149e-01 5.6236492657339539e+01
ITEM: ATOMS id type x y z
1 1 24.5448 45.2367 52.6289
2 1 44.731 4.42814 36.3955
3 1 24.7384 8.98317 20.7434
4 1 37.9503 51.0246 45.9585
5 1 26.3225 8.15414 31.7943
6 1 27.4017 20.8309 28.7992
7 1 21.7755 5.45094 10.9302
8 1 3.87624 56.0257 50.156
9 1 46.1435 6.26888 52.9271
10 1 37.4232 13.1851 53.1366
11 1 48.7445 36.0142 32.319
12 1 35.3965 19.4201 36.4798
13 1 34.1814 50.8993 23.2245
14 1 8.07909 50.7682 1.39053
15 1 5.60439 35.9894 22.2091
16 1 19.4002 51.2774 34.6696
17 1 50.3651 9.58756 27.9188
18 1 32.6697 45.8164 29.6193
19 1 32.9003 43.9471 31.4368
20 1 51.0908 8.39342 22.7419
21 1 21.2968 54.8927 53.4375
22 1 52.8497 37.0568 49.1284
23 1 15.9459 30.0461 47.3364
24 1 1.68456 12.1733 55.6566
25 1 18.8351 48.3686 47.8696
26 1 17.7049 40.1617 43.1255
27 1 34.5994 31.1461 0.34015
28 1 38.6754 44.3036 12.829
29 1 11.2571 37.8191 12.7733
30 1 48.1675 17.3207 53.3261
31 1 33.3721 11.0483 2.39368
32 1 26.8565 45.5007 44.3512
33 1 21.2657 49.4104 46.1802
34 1 14.5346 24.6149 1.60909
35 1 7.64871 9.05427 45.4528
36 1 40.9831 47.0065 46.4629
37 1 22.1598 0.278355 23.2271
38 1 50.3526 3.49399 13.3683
39 1 13.422 26.1158 -0.330882
40 1 8.65305 10.993 47.9139
41 1 48.0013 40.1833 5.34932
42 1 7.61668 40.5954 13.8509
43 1 22.3355 22.1863 12.3838
44 1 50.7608 52.2924 23.6477
45 1 12.7503 44.3913 56.1346
46 1 -0.208201 17.7829 11.1368
47 1 38.2623 13.9964 26.5592
48 1 24.5743 9.01799 38.29
49 1 42.4999 12.3504 42.1229
50 1 20.1023 38.7834 38.7603
51 1 50.2927 32.2255 30.3561
52 1 24.3447 12.4615 42.4589
53 1 52.5523 20.8135 1.04712
54 1 53.7675 13.7333 33.9571
55 1 39.897 44.8969 29.3739
56 1 10.7069 29.019 17.9054
57 1 6.77492 33.32 34.4069
58 1 37.5329 11.4881 21.4595
59 1 0.0856927 32.5291 25.3489
60 1 34.2239 43.1729 50.1825
61 1 17.3041 30.3762 55.166
62 1 41.4931 4.47374 21.279
63 1 49.1304 41.1306 27.2543
64 1 22.3408 4.1557 15.8556
65 1 49.6204 18.8658 24.8897
66 1 6.68899 43.3072 46.0115
67 1 15.6109 35.0647 46.2146
68 1 6.06244 34.1493 54.33
69 1 34.941 35.454 51.0294
70 1 0.641595 11.5593 16.5947
71 1 52.4336 47.3932 27.8694
72 1 55.4721 29.5832 1.25951
73 1 44.1705 48.5269 5.05658
74 1 37.6633 40.375 35.6493
75 1 37.9256 19.6513 4.76164
76 1 47.2104 23.6235 3.54397
77 1 46.4484 47.9242 37.11
78 1 36.8609 43.6632 7.87491
79 1 32.008 23.5288 42.7765
80 1 35.0974 51.4786 1.63128
81 1 22.0003 20.6508 44.751
82 1 5.55031 54.2948 29.3266
83 1 43.625 38.0236 42.0523
84 1 42.4794 49.8621 55.9433
85 1 37.3059 11.7003 40.0303
86 1 21.1386 42.734 39.9409
87 1 10.8113 31.1518 52.4202
88 1 16.1239 16.4102 11.7888
89 1 3.49679 4.7025 39.2025
90 1 23.1793 46.8727 35.7434
91 1 32.9111 45.5561 36.6542
92 1 10.1546 12.2782 19.4473
93 1 39.8804 9.62155 13.4003
94 1 31.1935 54.5029 39.871
95 1 40.6451 24.429 18.8076
96 1 9.18264 43.804 54.1309
97 1 5.39789 9.89121 36.4704
98 1 23.5274 20.9285 33.844
99 1 42.8578 36.6287 5.46426
100 1 1.30487 52.2256 5.84072
101 1 12.4371 46.6331 45.106
102 1 1.34773 52.7241 10.9851
103 1 41.9901 43.3846 55.9727
104 1 9.32533 49.6683 44.5922
105 1 31.4635 14.138 10.2203
106 1 13.9698 46.2739 42.6499
107 1 32.4269 6.7251 54.7395
108 1 36.1317 23.767 47.0243
109 1 3.14778 6.15003 26.977
110 1 31.4819 9.35632 10.5818
111 1 37.6125 8.84252 34.7275
112 1 7.85224 48.9835 3.72597
113 1 28.8077 33.2667 11.1732
114 1 11.9944 18.6978 35.2951
115 1 44.6639 29.4129 36.5509
116 1 33.832 2.26845 34.6561
117 1 52.0832 15.3364 44.3149
118 1 44.38 52.2471 54.9807
119 1 30.7856 27.4386 39.7147
120 1 18.3213 48.5382 39.2994
121 2 12.1262 39.0139 35.3332
122 2 51.557 18.5773 12.9048
123 2 55.1885 46.9098 21.0195
124 2 52.699 29.8737 19.6485
125 2 54.3 35.6173 38.3779
126 2 25.4723 7.32576 17.3636
127 2 12.3259 51.9265 15.7166
128 2 7.53633 30.2116 35.1673
129 2 54.9995 18.0033 7.52711
130 2 1.08804 20.9492 45.8736
131 2 52.5937 13.8369 49.0356
132 2 39.5684 46.8088 17.6659
133 2 35.1313 43.26 15.6938
134 2 16.7593 2.79159 9.20729
135 2 43.1212 34.0748 3.53437
136 2 9.80429 0.598237 32.0073
137 2 40.8153 24.3996 46.3705
138 2 5.41983 4.76241 49.3428
139 2 31.2706 14.8022 13.3788
140 2 45.6224 27.1789 38.6103
141 2 7.81884 38.3122 22.8164
142 2 29.6973 23.9119 40.2869
143 1 1.73266 22.1621 33.1264
144 1 28.2215 22.3607 15.5724
145 1 1.75444 12.0833 9.01457
146 1 55.5117 22.942 8.57435
147 1 3.98362 47.4819 39.2004
148 1 7.78088 21.9498 30.4765
149 1 39.3278 20.0503 49.4336
150 1 25.1648 25.6839 9.51342
151 1 16.7092 41.0393 54.1651
152 1 6.00235 27.1132 43.8799
153 1 50.262 48.5361 29.2574
154 1 42.1952 40.1069 29.3954
155 1 30.7061 16.7379 10.7504
156 1 8.47221 39.4141 11.7031
157 1 45.9718 28.9235 21.8696
158 1 28.0528 9.62349 55.2943
159 1 30.3146 53.1687 11.9991
160 1 38.1992 23.8875 49.0693
161 1 49.7072 15.5035 23.0019
162 1 13.0992 12.7848 44.1297
163 1 13.7222 36.3766 34.6014
164 1 55.9885 38.8032 11.9063
165 1 51.7736 36.9771 3.73735
166 1 45.3717 41.7569 14.4746
167 1 33.4954 38.3699 47.6415
168 1 44.349 2.98906 -0.134533
169 1 27.4574 44.7583 48.0453
170 1 27.0566 24.5774 41.7307
171 1 36.157 34.1682 28.9354
172 1 52.5068 46.718 23.451
173 1 5.23035 35.452 8.393
174 1 23.0221 53.0942 51.9025
175 1 20.9818 28.4199 15.1443
176 1 40.0259 37.1308 6.28299
177 1 9.8189 5.00559 25.2058
178 1 13.6192 9.22006 37.6867
179 1 11.0984 6.51956 38.2767
180 1 48.0188 19.3518 6.42859
181 1 32.5638 52.4954 35.8523
182 1 51.6808 24.3134 49.518
183 1 12.1301 52.5668 5.98931
184 1 33.5017 48.0841 35.8444
185 1 35.0513 9.66483 36.0887
186 1 40.9959 16.9544 17.897
187 1 1.91241 6.73583 53.7231
188 1 28.4578 39.4708 3.01376
189 1 18.8804 46.5271 37.8184
190 1 29.9711 45.0696 11.5272
191 1 24.6402 46.8401 11.7535
192 1 45.4212 3.77279 5.64327
193 1 39.4915 7.23038 14.7631
194 1 36.2256 3.85032 30.8287
195 1 41.7987 14.6045 51.5265
196 1 26.7599 41.5917 26.7935
197 1 6.96893 9.19581 49.3905
198 1 13.3713 49.4624 55.35
199 1 10.7266 39.7444 -0.271056
200 1 39.7478 20.3409 41.0148
201 1 33.8085 20.9618 26.5553
202 1 44.1241 2.03092 4.27653
203 1 15.4078 12.8428 30.3682
204 1 53.2052 13.0661 45.3502
205 1 12.2765 14.0195 46.2713
206 1 20.1719 0.183161 30.3286
207 1 3.37156 49.0786 42.9636
208 1 32.1375 4.72673 10.8353
209 1 43.1042 55.9595 38.3015
210 1 27.403 21.5981 42.0072
211 1 9.3621 3.76839 22.8129
212 1 55.7421 0.274801 49.8016
213 1 22.4897 12.4317 51.2286
214 1 0.348201 37.8643 2.43699
215 1 51.7296 32.4522 24.5294
216 1 54.7645 23.8162 48.8179
217 1 27.6505 16.437 34.8692
218 1 1.60612 9.7642 54.3601
219 1 42.5771 8.47601 25.5085
220 1 19.6064 9.16581 34.9878
221 1 45.4315 46.5575 7.29428
222 1 51.9125 55.0281 14.1655
223 1 9.89772 20.034 39.1873
224 1 17.3771 36.6811 1.78598
225 1 42.3375 46.9856 38.9337
226 1 0.530096 28.8726 39.8352
227 1 24.5357 43.727 40.8926
228 1 56.0831 19.866 53.0783
229 1 53.1242 3.1846 41.4031
230 1 30.9565 30.5107 41.0572
231 1 48.2682 12.2413 22.7445
232 1 34.5487 9.98776 17.1475
233 1 9.23106 45.1007 26.9848
234 1 8.99184 37.8664 3.66051
235 1 51.3594 14.3691 33.6679
236 1 13.412 4.07297 52.0797
237 1 55.2488 35.1108 24.639
238 1 31.9531 54.0215 47.0711
239 1 33.8819 29.0465 5.69768
240 1 21.8599 19.3811 50.0301
241 1 20.3696 49.4013 10.7299
242 1 50.7655 7.42979 36.2388
243 1 9.00243 30.647 19.1827
244 1 24.5135 0.184369 39.805
245 1 1.52155 29.4353 21.9988
246 1 5.73738 5.05367 3.45838
247 1 36.5917 16.2998 25.5706
248 1 44.7793 0.512945 46.2761
249 1 7.46035 34.8963 49.6775
250 1 23.5712 24.7617 17.6016
251 1 31.702 0.261592 7.65713
252 1 21.1671 21.0086 52.2956
253 1 2.7852 27.0835 47.7466
254 1 6.55111 37.905 50.8657
255 1 32.0411 19.4719 24.9357
256 1 29.1308 49.3851 24.6395
257 1 1.34983 12.3415 35.0478
258 1 33.2589 18.6082 27.7379
259 1 45.769 46.2932 55.0707
260 1 23.0835 41.9953 35.506
261 1 32.158 10.4834 39.2422
262 1 45.9116 5.22843 14.4074
263 2 44.2264 24.7303 29.2979
264 2 21.1101 49.1162 55.2161
265 2 46.7148 9.64584 52.8325
266 2 7.16824 24.5804 38.0614
267 2 14.721 21.4401 1.10286
268 2 4.37851 3.44348 24.6038
269 2 14.9099 2.71817 16.4674
270 2 44.5963 43.8352 53.6812
271 2 53.8019 44.86 26.1837
272 2 33.5732 40.5174 13.9356
273 2 33.3425 5.97771 34.8337
274 2 53.2227 26.9409 30.4605
275 2 27.4649 7.03587 53.0117
276 2 56.233 13.8009 4.10157
277 2 0.916363 43.1021 39.2985
278 2 10.0105 36.0476 18.6027
279 2 44.1129 51.7493 46.7062
280 2 20.0001 55.4647 21.9076
281 2 41.2791 17.0669 14.6574
282 2 14.9995 29.3301 8.3408
283 2 47.0235 47.9971 28.9626
284 2 16.9344 27.5311 34.3651
285 1 17.4962 38.3129 9.38286
286 1 49.7869 15.896 20.4257
287 1 33.7534 55.9761 40.0728
288 1 31.9547 26.7707 48.4878
289 1 13.4918 30.2385 5.23829
290 1 50.91 13.0307 23.9042
291 1 35.408 47.8695 34.2776
292 1 34.9932 56.216 3.18712
293 1 53.9869 24.977 0.730306
294 1 22.0265 35.3192 28.3763
295 1 47.2307 25.2919 29.9568
296 1 24.3713 37.2969 33.4459
297 1 50.6009 10.7183 41.507
298 1 33.4097 23.7101 12.617
299 1 52.9511 16.3351 8.24727
300 1 13.9421 31.9595 3.20999
301 1 41.6593 10.6281 27.2823
302 1 48.7617 37.922 25.7035
303 1 54.8832 48.5973 55.8476
304 1 2.51747 53.6009 52.0316
305 1 35.0667 35.6761 45.1816
306 1 27.888 0.355177 55.3577
307 1 5.23789 40.6674 32.0935
308 1 38.6853 53.1484 47.7657
309 1 49.8676 31.0911 28.1752
310 1 4.35237 47.1577 3.76636
311 1 38.4473 35.3206 5.3607
312 1 10.3621 7.65624 26.0914
313 1 52.4269 55.5614 18.9575
314 1 30.2325 47.0726 0.581067
315 1 4.4217 6.58415 14.8141
316 1 41.9023 19.8533 49.6582
317 1 25.6284 53.2988 34.882
318 1 6.02537 23.5006 11.1524
319 1 40.753 50.9774 12.1854
320 1 22.413 32.2499 26.9652
321 1 32.1463 40.9817 29.6561
322 1 55.5719 21.633 22.9073
323 1 28.2565 10.204 27.7483
324 1 18.8137 8.49254 32.1132
325 1 22.0176 45.8767 43.3849
326 1 16.6039 31.9205 41.2179
327 1 55.1662 3.21705 20.0031
328 1 0.682022 7.96445 36.8574
329 1 7.11797 25.1979 45.7183
330 1 21.9973 20.1268 35.8827
331 1 18.4707 30.8723 1.30188
332 1 13.3936 22.8968 12.2006
333 1 11.4618 53.9284 11.1917
334 1 33.6361 35.5752 22.3767
335 1 47.407 29.9688 47.1494
336 1 47.3424 21.2883 12.1074
337 1 1.12508 34.4057 7.3162
338 1 56.1111 17.2552 31.9182
339 1 19.6269 18.5053 51.297
340 1 25.2155 23.6659 25.7774
341 1 31.5797 47.512 40.8316
342 1 0.748881 21.5631 20.6944
343 1 8.07039 44.3269 3.40394
344 1 33.1986 15.7823 11.1075
345 1 49.0129 16.804 4.00572
346 1 50.5386 51.1294 11.7843
347 1 19.9546 18.7547 11.0224
348 1 21.6235 19.1068 30.1248
349 1 3.75832 37.4251 9.97068
350 1 11.8937 7.35443 32.672
351 1 45.3801 35.4971 4.9292
352 1 2.62216 39.5049 26.5726
353 1 48.4933 38.8973 46.9702
354 1 30.9762 35.8902 42.6161
355 1 48.5274 25.8348 37.7775
356 1 9.67598 40.2841 42.8005
357 1 11.796 41.1981 51.5532
358 1 24.0305 17.6392 50.072
359 1 33.774 45.7256 54.9673
360 1 32.5725 8.81889 30.0578
361 1 33.4192 7.85977 39.556
362 1 52.6117 38.24 37.8357
363 1 44.2398 18.2281 14.588
364 1 55.6016 18.9306 38.6566
365 1 26.6016 52.455 14.2086
366 1 8.18605 27.2649 34.2747
367 1 14.9937 53.4398 42.4098
368 1 21.9583 33.1031 30.2934
369 1 37.7021 16.9212 18.628
370 1 9.41251 52.8615 7.65251
371 1 13.9156 51.2906 7.97187
372 1 13.4437 33.327 15.278
373 1 5.19559 46.0366 53.2762
374 1 38.3108 23.7984 41.265
375 1 26.7298 3.56011 37.9051
376 1 40.8271 52.5946 29.7167
377 1 35.2925 29.7212 54.3828
378 1 37.1446 42.2676 22.4433
379 1 46.1956 38.1933 25.5588
380 1 14.2925 38.1459 12.4999
381 1 16.8672 23.1072 47.2439
382 1 50.2404 24.5189 53.9863
383 1 23.5761 11.4053 30.0675
384 1 1.12411 12.7679 37.5656
385 1 30.0248 9.18065 19.4783
386 1 31.5597 39.6124 20.6805
387 1 27.9882 49.523 19.6775
388 1 26.2539 6.44627 38.1692
389 1 29.1641 12.6851 14.2973
390 1 45.4733 48.8927 31.9508
391 1 11.656 4.85704 54.2047
392 1 47.1886 50.9481 36.0088
393 1 3.23336 28.1156 0.59721
394 1 12.5032 31.9197 54.3515
395 1 54.9864 4.70971 48.1851
396 1 14.5918 48.9598 22.1714
397 1 39.897 3.45423 23.4301
398 1 9.47856 29.5274 10.3123
399 1 7.24826 54.4758 42.2462
400 1 35.8193 43.2224 27.6547
401 1 16.6809 45.1254 3.73139
402 1 31.8948 48.035 43.7
403 1 33.4113 41.4325 32.588
404 1 37.2132 44.0517 46.9783
405 2 19.9305 8.57005 14.2245
406 2 36.339 31.0245 7.78919
407 2 34.5137 13.0296 12.7397
408 2 24.4294 49.7747 12.5968
409 2 45.1216 0.00783726 16.3524
410 2 37.8857 50.0557 12.7003
411 2 5.84018 41.7448 16.6612
412 2 54.004 8.92989 35.9571
413 2 31.236 21.7643 45.4781
414 2 12.6864 35.0868 47.5869
415 2 55.8516 52.3097 8.58769
416 2 52.1083 43.5361 55.2598
417 2 43.9062 5.67636 8.22869
418 2 6.75929 36.2973 10.6506
419 2 15.7642 54.7435 22.4459
420 2 24.128 23.6838 23.0205
421 2 42.1838 49.9708 9.39283
422 2 32.0549 16.2708 7.78477
423 2 8.09425 0.589184 43.3015
424 2 52.5284 10.8966 4.81268
425 2 47.8714 52.2254 38.9573
426 2 37.2138 8.28571 38.0723
427 1 20.5353 23.2252 43.8247
428 1 9.54595 50.2136 13.5323
429 1 31.2141 2.03065 1.3706
430 1 21.386 2.59342 11.0572
431 1 33.2752 48.6165 30.5186
432 1 17.3255 22.7494 50.1046
433 1 25.9503 23.2429 16.8931
434 1 19.4984 32.9479 45.7358
435 1 22.8507 52.663 7.85078
436 1 32.7394 32.5522 48.2458
437 1 31.2738 24.0565 33.4667
438 1 9.58524 36.9877 29.9803
439 1 1.5626 38.3543 54.1979
440 1 24.1953 55.8876 24.5449
441 1 22.5776 14.2579 10.7687
442 1 43.6748 33.6255 12.1478
443 1 33.5509 2.22015 26.7721
444 1 13.1673 48.5926 40.3336
445 1 5.42841 14.845 17.8149
446 1 38.8527 22.2095 39.2538
447 1 20.7695 52.1193 10.1202
448 1 31.9819 14.2739 54.4494
449 1 54.4708 6.92625 28.8415
450 1 0.595603 27.9993 46.7561
451 1 28.6432 51.6824 7.9648
452 1 50.9554 10.8965 10.735
453 1 14.5403 41.5496 51.6614
454 1 7.51138 42.3889 52.4931
455 1 13.1455 13.4755 24.4171
456 1 35.3763 21.1801 24.414
457 1 53.6894 39.1375 17.8549
458 1 27.1185 20.584 36.4392
459 1 2.63403 35.0218 9.61057
460 1 12.5923 34.5119 19.688
461 1 10.6855 21.4718 16.8463
462 1 48.6985 27.7258 8.76364
463 1 11.9377 5.81328 8.6253
464 1 31.7731 52.711 22.8694
465 1 8.89859 -0.0219437 35.2051
466 1 7.35777 54.5049 18.4729
467 1 45.8041 51.2187 52.7823
468 1 55.2722 7.54497 48.4899
469 1 34.1389 39.1124 30.4075
470 1 11.5514 34.7277 5.62656
471 1 26.6096 9.85883 3.47602
472 1 11.6358 16.5276 5.27433
473 1 49.8403 40.9257 45.7808
474 1 50.1099 21.7891 20.8068
475 1 23.1266 25.1247 20.5644
476 1 6.35798 44.9505 27.9198
477 1 49.2288 3.10109 37.5039
478 1 38.405 15.1744 43.5648
479 1 55.8595 25.53 35.1087
480 1 45.4166 7.96655 6.23192
481 1 22.5622 4.66711 32.0203
482 1 26.6652 48.2397 23.7243
483 1 46.8299 19.5478 34.3333
484 1 19.1679 40.1823 8.82421
485 1 15.7117 23.8318 22.022
486 1 3.07449 1.88255 3.7385
487 1 23.336 11.2344 25.4401
488 1 15.0525 41.8999 22.8321
489 1 2.86345 44.0115 11.1937
490 1 21.3071 0.979363 35.6545
491 1 23.7619 9.17889 23.452
492 1 24.9408 25.5957 40.2104
493 1 14.5456 46.5888 35.9528
494 1 39.1027 26.0438 7.71588
495 1 6.17127 11.8106 7.19643
496 1 39.4103 17.7403 37.3698
497 1 26.4454 47.8994 43.1314
498 1 5.54942 11.6944 16.8925
499 1 34.4817 29.8994 20.2671
500 1 48.0788 4.91136 33.3655
501 1 45.4195 12.3585 49.6002
502 1 7.22721 42.5657 5.47996
503 1 56.0433 21.8244 38.4
504 1 36.5536 3.34655 6.35441
505 1 41.9469 32.4521 52.8973
506 1 13.6628 16.5114 0.705506
507 1 8.97939 55.6649 29.3444
508 1 12.3957 45.7866 13.4029
509 1 53.5908 29.3976 7.76074
510 1 21.1866 51.9516 53.8599
511 1 46.055 10.0776 3.84054
512 1 13.1531 53.3213 13.324
513 1 21.3542 12.6582 32.7136
514 1 31.6106 25.868 17.4134
515 1 29.5839 12.5399 27.4273
516 1 5.28802 40.8085 37.6659
517 1 2.86971 6.75013 24.402
518 1 24.1444 12.3311 13.0614
519 1 9.76208 5.22362 40.055
520 1 36.0682 17.7861 4.38178
521 1 48.2907 25.6985 34.4368
522 1 3.30516 13.7515 54.2586
523 1 50.9815 6.31359 17.9987
524 1 40.4647 52.224 32.2885
525 1 13.0239 42.7003 27.6194
526 1 12.0589 13.0336 33.2592
527 1 46.2711 18.8514 21.4132
528 1 2.2556 6.32374 6.54056
529 1 33.906 7.81311 26.1153
530 1 46.9602 37.9717 32.0916
531 1 36.6704 4.3339 44.4034
532 1 35.6918 55.7639 28.5554
533 1 33.2134 46.1805 4.92922
534 1 7.43402 31.1671 7.13389
535 1 34.6099 47.8928 49.7497
536 1 45.5414 25.4232 24.833
537 1 24.57 19.0515 19.1864
538 1 11.573 23.4018 42.6632
539 1 29.2975 38.0575 33.8168
540 1 39.7493 17.6056 30.0549
541 1 41.2008 41.0183 11.9524
542 1 42.2413 44.6706 11.3451
543 1 38.2828 45.0596 35.0504
544 1 31.8566 34.7665 14.8898
545 1 50.9364 27.09 5.41128
546 1 8.62732 24.9531 35.6112
547 2 15.4672 40.9966 26.2002
548 2 12.569 47.1617 1.07241
549 2 33.3337 50.665 17.9058
550 2 0.573955 50.5466 14.2636
551 2 52.7179 8.12644 19.7155
552 2 9.91014 6.42321 35.0864
553 2 36.7952 8.04343 16.2512
554 2 23.3062 5.50835 52.9859
555 2 15.0114 12.9719 21.7433
556 2 12.4147 41.7592 43.0401
557 2 13.9755 5.545 33.8427
558 2 17.1751 33.3431 2.89169
559 2 40.215 17.0743 20.9356
560 2 4.97099 15.9808 29.3606
561 2 39.3699 12.8047 50.7783
562 2 3.78834 19.4809 28.232
563 2 30.4882 47.0143 34.8681
564 2 16.9353 5.23894 39.8888
565 2 20.2523 22.187 34.7599
566 2 31.3618 13.6061 39.0527
567 2 45.2505 38.8315 0.384815
568 2 43.6767 18.604 20.1111
569 1 15.8684 56.0468 17.5397
570 1 0.0976294 45.8364 37.9383
571 1 9.37379 6.40619 1.15183
572 1 2.76369 4.19295 15.2338
573 1 8.17676 16.7945 29.3518
574 1 29.5685 -0.0973649 12.6599
575 1 55.9042 18.3049 26.2144
576 1 22.4892 1.43359 25.7471
577 1 0.478813 7.77917 13.5118
578 1 55.6744 39.98 44.7538
579 1 36.4593 41.6497 45.8926
580 1 12.2267 12.1376 56.0646
581 1 35.4194 54.3296 1.38031
582 1 13.3892 15.8796 25.698
583 1 26.2091 44.5677 28.5379
584 1 26.3561 10.2882 42.4579
585 1 33.6192 7.88908 23.4663
586 1 55.1956 0.0619679 30.9712
587 1 22.0411 5.35846 55.9498
588 1 37.1464 0.868534 30.3382
589 1 45.9327 26.177 9.82372
590 1 1.83519 9.32855 7.91874
591 1 22.2776 8.43532 34.9827
592 1 53.2485 33.3015 6.37201
593 1 24.3442 34.8512 46.9378
594 1 2.82164 42.422 41.8787
595 1 48.3494 21.513 39.288
596 1 4.92109 2.1216 39.7076
597 1 16.3278 32.2764 8.43974
598 1 4.53528 51.3602 25.8616
599 1 53.4678 10.1312 22.3536
600 1 7.1954 46.1692 46.0661
601 1 19.2185 50.2076 4.32149
602 1 2.88926 43.0127 15.0544
603 1 25.1024 35.1804 -0.152185
604 1 17.369 17.0607 24.7525
605 1 25.5912 46.1057 3.76831
606 1 30.1118 43.1112 39.3209
607 1 36.409 13.8275 33.8169
608 1 44.361 37.3142 3.25122
609 1 34.3084 30.8988 12.8116
610 1 43.6841 5.21844 45.2882
611 1 27.4477 32.6935 38.4921
612 1 17.962 46.9215 45.6807
613 1 53.0334 51.4492 10.565
614 1 53.8111 33.4744 10.4959
615 1 5.75515 42.9855 41.4174
616 1 51.1888 21.7072 30.1223
617 1 16.3617 11.7972 51.7505
618 1 32.6564 3.94612 24.7939
619 1 35.2379 2.94702 24.6067
620 1 33.294 30.4737 22.8072
621 1 53.5956 8.7337 26.9943
622 1 10.0349 39.8935 48.5302
623 1 49.0968 45.9715 47.9809
624 1 46.8015 1.21579 2.96366
625 1 16.7534 40.0481 29.5345
626 1 44.6073 34.7231 14.5251
627 1 32.2734 51.3416 8.11223
628 1 30.5168 7.69307 15.6386
629 1 49.2099 48.0603 5.45818
630 1 44.5601 4.58812 22.0606
631 1 43.7776 29.0048 13.588
632 1 14.7838 25.2772 39.5348
633 1 11.0533 14.1981 15.9744
634 1 47.7716 45.7246 17.6073
635 1 18.8554 36.8472 37.4567
636 1 45.9871 11.1619 14.6962
637 1 47.4978 16.6136 34.4238
638 1 50.4087 7.67658 10.0105
639 1 26.4028 3.11394 2.30184
640 1 53.8533 2.69221 17.5961
641 1 39.8671 34.6609 36.5555
642 1 53.7925 18.8079 10.5063
643 1 23.2568 11.3648 34.7111
644 1 17.5859 51.1407 37.0349
645 1 35.5941 17.7256 48.7615
646 1 13.4159 31.8008 12.8512
647 1 17.5779 43.8082 6.41542
648 1 21.5102 29.6325 34.1104
649 1 10.6241 32.7436 27.482
650 1 10.8476 8.49876 10.9349
651 1 28.7953 26.2592 22.9532
652 1 19.535 40.8813 6.19948
653 1 52.7032 29.9074 45.8384
654 1 21.4528 34.1038 53.4256
655 1 42.7808 8.73714 22.5325
656 1 36.6706 52.3103 40.3095
657 1 42.0388 19.8587 12.6549
658 1 25.4357 8.47875 55.02
659 1 35.8452 38.3032 35.5357
660 1 4.72332 56.0198 18.037
661 1 46.8282 36.1798 12.8074
662 1 23.1025 36.1193 24.3156
663 1 16.3253 34.1513 16.0632
664 1 52.3606 45.1387 52.1781
665 1 28.6929 5.41629 4.3516
666 1 15.7258 39.3768 23.3754
667 1 55.999 31.9003 27.8863
668 1 2.6641 15.6409 38.0191
669 1 51.3066 22.7051 15.8315
670 1 36.4664 39.5585 12.295
671 1 26.0001 46.1345 14.1658
672 1 1.56416 18.8565 9.18832
673 1 13.4792 8.96034 40.6848
674 1 -0.0671594 48.9035 11.8796
675 1 51.7461 33.6586 -0.267191
676 1 49.2272 7.68904 44.9479
677 1 52.919 35.7051 54.4006
678 1 17.4503 55.5019 19.7433
679 1 50.6027 5.29969 8.68098
680 1 28.4325 32.621 46.0053
681 1 3.97556 24.1765 52.5744
682 1 8.8852 3.82218 42.5515
683 1 35.1735 19.4004 43.7311
684 1 37.2561 29.745 37.8306
685 1 23.9032 52.6647 13.5643
686 1 44.6374 14.7572 8.32186
687 1 47.465 55.1914 28.2833
688 1 24.0423 4.46713 38.2205
689 2 21.8121 49.533 24.0756
690 2 30.2233 50.6534 10.3913
691 2 34.402 26.8964 38.8418
692 2 13.8901 34.4476 54.3276
693 2 44.8663 48.034 22.5913
694 2 4.16139 53.6018 55.157
695 2 18.0676 15.0154 45.2841
696 2 16.4335 40.7747 7.36376
697 2 1.34978 18.1468 36.262
698 2 17.4022 18.7041 6.90011
699 2 44.8638 10.9273 39.9205
700 2 38.0302 4.48868 3.72381
701 2 53.8803 27.4476 5.25673
702 2 36.4437 28.7509 26.8666
703 2 49.0036 45.8235 44.5578
704 2 54.3569 12.9971 17.3496
705 2 2.50123 37.2108 7.29588
706 2 2.15496 40.5104 44.5085
707 2 47.4551 17.3978 18.9238
708 2 43.5578 54.7475 0.682859
709 2 44.2749 30.3587 42.1572
710 2 52.8573 48.7271 30.58
711 1 44.1712 2.17485 51.739
712 1 12.3237 20.0082 13.0291
713 1 1.17817 49.3193 44.4472
714 1 41.3278 34.0495 23.0614
715 1 34.2105 11.8788 43.7768
716 1 2.63398 15.8796 51.0008
717 1 43.5282 15.0036 53.5369
718 1 2.66733 45.4682 49.8283
719 1 54.1438 37.819 43.6412
720 1 19.0715 16.3719 13.3417
721 1 30.7787 6.74494 5.02563
722 1 32.2201 35.342 54.7178
723 1 19.6574 15.2669 15.908
724 1 41.2118 39.8671 51.2747
725 1 15.6368 1.23543 35.2946
726 1 26.9169 15.0801 30.7051
727 1 32.7322 44.549 16.7561
728 1 28.18 1.40193 1.54117
729 1 49.5526 25.4619 45.0658
730 1 2.65654 50.0787 22.42
731 1 43.4837 1.33676 26.3824
732 1 5.23988 0.531692 1.9847
733 1 44.8424 16.0014 47.2014
734 1 31.0024 54.1118 33.7433
735 1 50.8092 43.5312 42.1788
736 1 30.8404 54.4223 20.9461
737 1 26.7936 34.0241 24.8634
738 1 0.472113 11.5037 6.68358
739 1 28.0763 20.6319 10.0934
740 1 39.5755 24.9768 43.3615
741 1 1.72634 16.5272 33.1974
742 1 15.3281 8.00578 36.0774
743 1 29.2578 41.3939 25.9948
744 1 31.99 0.438698 41.4335
745 1 44.7266 56.0098 11.0789
746 1 2.65573 34.0879 20.9493
747 1 1.14128 5.45398 37.4883
748 1 54.2875 4.19989 11.0775
749 1 17.5222 13.1325 42.6908
750 1 6.37576 9.6443 21.1081
751 1 29.0534 35.5406 24.7061
752 1 53.5821 17.1493 27.9968
753 1 18.2536 9.27311 45.0957
754 1 14.5462 3.65041 26.0364
755 1 29.7122 27.7981 18.3192
756 1 38.3369 4.79029 0.795688
757 1 21.2852 33.9433 8.5082
758 1 55.0353 26.961 20.3304
759 1 40.475 2.30033 55.0241
760 1 18.1441 39.1957 2.18769
761 1 5.08384 55.4974 33.4159
762 1 37.4722 41.7038 13.2752
763 1 24.7679 17.7711 8.9892
764 1 22.6721 37.3176 26.5546
765 1 36.6029 32.2967 26.5111
766 1 51.2069 20.2139 45.3419
767 1 16.155 12.076 32.8621
768 1 25.6389 22.409 35.3828
769 1 17.9613 48.7234 54.8115
770 1 12.135 3.6249 13.9455
771 1 9.30125 35.7205 47.3037
772 1 29.5502 12.7733 49.6524
773 1 10.4892 16.6434 45.4857
774 1 43.8872 -0.339306 43.8136
775 1 41.7413 36.3366 46.6727
776 1 19.7606 0.426403 25.2101
777 1 15.6968 1.81064 30.6148
778 1 21.8459 33.7619 47.3198
779 1 41.0601 26.8622 44.7744
780 1 11.1183 36.0253 45.114
781 1 10.0742 31.9044 11.404
782 1 7.38262 19.188 15.9222
783 1 50.7445 0.931999 36.3342
784 1 35.4694 23.1989 26.0957
785 1 30.6247 24.857 44.6419
786 1 9.36081 10.0186 34.7408
787 1 2.74537 35.257 48.2014
788 1 2.30447 10.5229 37.0085
789 1 8.72697 21.0603 33.1361
790 1 49.7776 30.3832 52.7239
791 1 37.3228 24.0566 24.2163
792 1 24.2828 -0.283903 16.6659
793 1 21.4314 -0.0701928 17.0383
794 1 27.9083 28.9604 15.7299
795 1 38.7465 53.5291 7.74226
796 1 4.58455 1.84794 49.4387
797 1 18.8271 11.4502 13.6728
798 1 25.6659 16.6271 54.4914
799 1 16.0072 26.1445 9.54216
800 1 13.5801 31.9893 52.0474
801 1 49.297 48.9005 11.0288
802 1 19.7224 41.1712 20.9781
803 1 29.7819 36.3829 50.7354
804 1 54.6746 38.66 4.5546
805 1 24.6698 51.6207 32.5757
806 1 16.7996 18.9871 31.9097
807 1 52.0284 17.3833 34.3931
808 1 40.8905 1.40563 38.2404
809 1 34.2967 49.8215 28.0765
810 1 8.13017 41.3289 31.9147
811 1 33.6454 22.6745 48.1374
812 1 38.0812 54.9922 0.562867
813 1 46.4479 5.18066 10.0229
814 1 31.4934 15.7928 21.4419
815 1 4.7543 8.64764 41.4986
816 1 50.9949 10.2136 36.5187
817 1 44.6018 43.754 29.5887
818 1 48.3525 46.9333 39.2938
819 1 11.369 34.1069 12.9243
820 1 3.60744 19.0173 33.8552
821 1 8.20674 42.8763 34.244
822 1 0.610926 3.89648 28.6825
823 1 52.3583 41.547 34.3887
824 1 4.22352 44.0867 39.33
825 1 29.8304 0.253629 39.954
826 1 16.0712 51.8941 1.50858
827 1 21.5138 31.8482 23.7749
828 1 40.2233 45.7522 43.3855
829 1 49.4095 56.0561 29.8802
830 1 51.7912 43.6753 4.12176
831 2 7.19431 40.5212 40.1183
832 2 24.3324 14.5461 2.81995
833 2 20.2495 43.486 23.4877
834 2 42.8596 29.1714 45.5962
835 2 28.0828 -0.047006 27.4187
836 2 19.843 17.2449 32.4861
837 2 15.5283 27.4324 17.7955
838 2 22.9114 42.6225 48.0909
839 2 29.1276 36.1107 31.2326
840 2 20.1645 16.1733 53.3405
841 2 15.7311 27.2871 26.4428
842 2 44.6223 7.5895 46.9567
843 2 42.4019 1.29795 29.6366
844 2 31.2113 15.3949 18.2329
845 2 8.48138 52.2592 16.2199
846 2 41.7693 41.597 48.7507
847 2 48.2152 55.883 10.3899
848 2 47.8634 44.6892 25.9865
849 2 23.1779 17.3136 34.3401
850 2 22.8447 32.5349 44.6596
851 2 48.1489 0.261143 54.1344
852 2 46.8578 39.035 20.0744
853 1 27.1072 42.5556 14.7358
854 1 38.3077 43.9011 42.0744
855 1 47.6177 27.4258 14.6736
856 1 50.4937 12.6228 26.8099
857 1 54.7314 13.3973 38.5954
858 1 17.7211 1.96361 40.1982
859 1 9.37182 36.8896 25.3657
860 1 7.29193 36.1535 5.50915
861 1 51.971 36.5677 29.2731
862 1 55.0222 31.0083 5.28873
863 1 33.4775 11.5845 9.89558
864 1 17.7302 17.6212 46.6907
865 1 14.5395 26.9051 14.5865
866 1 10.6762 42.7643 55.924
867 1 8.77126 17.5465 40.5814
868 1 47.6151 10.761 49.9639
869 1 6.38252 23.7195 53.2865
870 1 55.4712 28.7488 29.0308
871 1 10.1303 28.5222 15.1088
872 1 53.9235 40.1288 42.4853
873 1 20.55 39.9856 13.2848
874 1 52.1128 47.4888 44.7648
875 1 55.1779 25.3885 44.1184
876 1 38.9092 51.9069 14.9349
877 1 51.8373 31.5223 21.9956
878 1 46.4953 10.5523 11.9767
879 1 9.71705 29.7298 27.6243
880 1 52.0189 10.9267 1.76656
881 1 43.8223 9.88362 42.4606
882 1 44.9242 22.7202 52.4632
883 1 21.6425 3.80168 26.8383
884 1 51.7 54.7446 36.8144
885 1 8.04851 14.2525 30.9136
886 1 37.489 40.7933 2.87616
887 1 6.99148 15.6383 20.0376
888 1 1.55069 24.0233 54.1938
889 1 29.037 4.15117 1.90745
890 1 55.7746 49.1583 1.68204
891 1 49.3604 11.1049 46.1423
892 1 19.2981 45.6265 5.04366
893 1 42.5836 33.2899 41.9149
894 1 16.4874 14.2158 10.4039
895 1 8.15487 48.287 37.1678
896 1 2.83119 40.8845 17.3138
897 1 28.6758 53.2236 4.90372
898 1 1.01388 18.4273 43.8517
899 1 17.0041 20.6846 29.4652
900 1 8.89123 37.5404 49.4219
901 1 38.324 49.7658 41.1932
902 1 21.7095 3.33712 24.0644
903 1 8.76138 55.6925 6.54119
904 1 36.1264 35.8864 11.5275
905 1 31.9502 25.4917 23.2883
906 1 25.583 11.5006 21.2185
907 1 24.7859 43.42 20.3983
908 1 1.42812 6.12034 34.7053
909 1 53.5068 12.3705 36.5213
910 1 49.2668 35.938 7.89583
911 1 12.8501 8.91767 24.9993
912 1 21.1647 13.9534 45.1676
913 1 6.58319 2.93937 51.5499
914 1 53.2463 51.9334 31.3761
915 1 19.7788 23.7549 54.0188
916 1 19.3502 49.3876 28.615
917 1 30.0072 5.32538 56.2281
918 1 -0.235239 34.7512 27.0182
919 1 46.9801 42.5231 37.0725
920 1 22.5421 14.7414 29.4383
921 1 54.5603 2.66504 6.19075
922 1 15.7729 45.7958 30.4556
923 1 54.1567 3.10354 32.3107
924 1 1.45631 10.4189 14.2038
925 1 47.7272 6.79932 47.1646
926 1 27.8131 50.0459 51.3292
927 1 51.6274 0.460397 41.666
928 1 38.4214 20.7663 17.9593
929 1 50.4882 33.3181 7.03051
930 1 40.916 55.8606 13.9549
931 1 24.5944 20.1774 36.1836
932 1 24.8551 40.89 24.3801
933 1 33.9478 2.02594 51.3799
934 1 24.3297 52.7717 1.63928
935 1 5.36374 4.05429 16.8095
936 1 38.6371 30.5257 42.4014
937 1 43.4537 35.4753 40.3314
938 1 34.9865 13.8201 46.2591
939 1 1.37165 -0.305072 51.5326
940 1 55.7298 4.06995 4.44212
941 1 33.1695 54.29 37.7922
942 1 15.103 46.8485 45.6255
943 1 42.95 44.9572 44.5656
944 1 10.3315 43.3071 17.6185
945 1 51.7281 19.3529 50.1619
946 1 14.0614 44.2349 44.6756
947 1 45.4735 27.3584 31.0503
948 1 11.9312 1.60699 46.9107
949 1 53.0436 6.17865 37.2934
950 1 49.2468 52.1008 52.9056
951 1 14.9591 43.4383 53.7115
952 1 44.2314 0.64283 48.8002
953 1 0.295828 14.8589 18.9338
954 1 6.19343 48.1507 35.1218
955 1 8.77572 15.6969 15.0178
956 1 7.14318 26.2271 54.0431
957 1 53.8569 41.015 54.1658
958 1 54.2639 23.9274 29.9943
959 1 22.3234 46.0898 55.5084
960 1 53.8859 14.0223 12.3343
961 1 30.4999 38.4053 1.10814
962 1 31.8449 7.49426 17.9349
963 1 7.58119 30.0962 47.4405
964 1 25.4849 14.5915 44.0084
965 1 17.1371 37.1203 24.0052
966 1 42.2298 55.6517 16.5367
967 1 14.9619 4.00257 48.0836
968 1 48.1787 15.6417 50.778
969 1 28.1538 40.9431 43.206
970 1 38.9008 15.5148 15.6535
971 1 48.9454 19.8261 50.7893
972 1 35.5612 3.62096 36.1427
973 2 45.475 4.46829 25.5224
974 2 46.1789 39.252 35.6168
975 2 53.7777 39.1409 27.6304
976 2 17.9077 30.5977 49.8191
977 2 52.9606 36.3784 15.5937
978 2 52.8592 36.5593 19.6322
979 2 33.1691 42.5687 40.6715
980 2 55.2391 6.36265 45.2158
981 2 36.5006 12.0087 9.56598
982 2 54.4052 29.9676 48.9503
983 2 11.9126 31.0968 0.908718
984 2 46.7772 22.7398 34.2592
985 2 51.3641 2.30634 10.4549
986 2 7.04081 18.5792 37.8555
987 2 15.7117 7.72349 5.69184
988 2 2.45027 26.6937 51.5585
989 2 39.8955 27.891 32.2779
990 2 54.528 9.8926 14.8615
991 2 23.0787 21.3894 17.4104
992 2 16.3812 15.9312 54.7144
993 2 1.27575 15.544 -0.327556
994 2 53.7557 22.9308 35.6348
995 1 54.3297 3.42471 43.9481
996 1 51.2871 25.7996 47.2464
997 1 24.6765 55.6439 44.6687
998 1 7.41981 46.8773 17.0853
999 1 21.5852 41.2881 53.0031
1000 1 20.1533 8.42174 47.6171
1001 1 32.4081 26.3573 45.9215
1002 1 52.707 26.8367 7.96639