ITEM: TIMESTEP
0
ITEM: NUMBER OF ATOMS
9088
ITEM: BOX BOUNDS pp pp pp
-2.2619404636203108e-01 5.6110686672234408e+01
-2.2619404636203108e-01 5.6110686672234408e+01
-2.2619404636203108e-01 5.6110686672234408e+01
ITEM: ATOMS id type x y z
1 1 28.1462 41.598 49.0603
2 1 44.481 4.38802 36.5734
3 1 41.7986 12.7998 50.2768
4 1 36.9779 49.2767 43.7959
5 1 11.2014 34.4686 8.39885
6 1 36.0934 25.7923 21.9067
7 1 20.013 32.9732 0.953074
8 1 48.3208 1.53223 9.41483
9 1 55.8395 50.0254 40.041
10 1 36.8761 13.4528 53.2654
11 1 48.5916 35.8397 32.5927
12 1 35.7316 19.2328 36.7259
13 1 21.6563 48.731 36.6724
14 1 19.5223 49.289 50.0582
15 1 3.303 36.703 30.2089
16 1 26.6442 0.615245 38.7495
17 1 50.2948 9.86562 27.9206
18 1 3.87279 48.3181 36.5183
19 1 30.1464 23.8093 51.868
20 1 31.1596 2.5269 44.9079
21 1 25.3562 49.2744 50.0797
22 1 9.67247 41.8614 1.89687
23 1 21.5815 17.8033 37.9634
24 1 3.31344 7.58856 55.5024
25 1 26.4233 27.3128 38.7982
26 1 19.9849 28.1596 43.3175
27 1 35.0128 29.3614 54.4299
28 1 13.3274 32.4044 15.0874
29 1 10.8837 50.2879 40.3833
30 1 49.145 7.45599 44.3194
31 1 30.768 5.03957 0.00245266
32 1 34.0502 5.25995 23.3417
33 1 24.3609 41.5119 2.31342
34 1 14.4525 24.6599 1.69176
35 1 20.0211 51.3673 40.5597
36 1 16.5784 32.3037 18.7887
37 1 23.4662 55.8346 47.1241
38 1 23.0708 21.3871 2.87723
39 1 13.1312 26.3149 -0.171528
40 1 8.94061 11.3436 47.945
41 1 46.7648 41.1954 1.16166
42 1 5.67161 38.7517 14.9598
43 1 21.9478 16.895 9.61835
44 1 50.7308 52.0342 23.8077
45 1 12.9945 43.452 55.9786
46 1 0.141601 17.8765 10.9691
47 1 42.7067 6.2586 32.1449
48 1 18.5251 30.7043 19.543
49 1 4.85873 18.9374 31.9754
50 1 18.3965 19.7485 20.4638
51 1 50.1019 32.2221 30.5763
52 1 22.5808 10.311 37.4098
53 1 52.6301 20.6114 1.2441
54 1 52.2066 17.8881 42.8638
55 1 39.7465 44.9154 29.3544
56 1 11.984 25.1281 44.658
57 1 6.96662 33.2518 34.5878
58 1 37.6052 11.3924 21.7054
59 1 5.42639 30.4536 28.7343
60 1 36.2646 32.7437 54.7818
61 1 11.7126 27.0702 54.0863
62 1 52.8515 22.1379 24.4103
63 1 49.3984 43.5199 28.9486
64 1 22.1194 4.28029 16.2043
65 1 10.9848 42.3718 48.1089
66 1 8.10842 44.7557 10.036
67 1 12.0518 43.2636 53.3439
68 1 11.1755 33.9501 52.0275
69 1 37.3424 38.3158 45.9907
70 1 1.82251 28.1518 5.27158
71 1 51.8318 46.7236 28.4887
72 1 55.2772 29.6371 1.36518
73 1 27.2272 44.629 5.41011
74 1 5.33153 34.2463 45.1678
75 1 37.7502 19.6984 4.87631
76 1 38.412 23.8324 5.79916
77 1 47.4261 40.2859 32.0457
78 1 33.7497 40.5585 10.2216
79 1 31.8288 23.0311 42.8117
80 1 39.586 55.948 30.8558
81 1 17.3945 27.9764 54.2885
82 1 50.5986 1.43912 23.8618
83 1 7.9866 14.8258 27.9982
84 1 36.1137 2.11343 4.02647
85 1 39.6253 10.8322 38.5832
86 1 34.6371 34.3925 34.8502
87 1 26.0524 8.52387 31.8746
88 1 16.1195 11.4809 12.9221
89 1 7.04767 48.0954 39.7386
90 1 1.21889 39.7991 51.4426
91 1 17.8911 7.71953 21.7894
92 1 10.2166 11.7993 19.3113
93 1 38.2557 9.85455 11.2867
94 1 35.8249 33.9837 29.1159
95 1 40.6468 24.577 18.6674
96 1 6.94423 0.026428 13.8799
97 1 3.50327 8.89965 32.6767
98 1 18.1158 12.7149 30.394
99 1 42.5469 36.4755 5.49209
100 1 3.04293 6.08289 27.1126
101 1 0.814684 33.8941 47.1295
102 1 5.10418 1.25786 12.2147
103 1 41.7434 43.3112 55.9271
104 1 14.6415 54.9063 39.2723
105 1 31.5179 14.0246 10.8416
106 1 18.6998 48.2061 47.6591
107 1 32.3842 0.251455 45.4927
108 1 46.7179 17.1567 47.1434
109 1 10.1885 45.8324 16.7543
110 1 31.4647 9.03125 10.6992
111 1 37.6565 54.3812 14.9539
112 1 5.44826 5.43538 10.2919
113 1 29.0219 33.2962 11.4177
114 1 24.4235 17.0592 40.0314
115 1 42.9119 34.6053 31.2299
116 1 32.2787 6.09591 37.8888
117 1 -0.143801 12.3935 40.6507
118 1 1.49507 44.0915 31.8593
119 1 36.2302 36.3569 33.9323
120 1 14.996 2.02774 39.7752
121 2 11.985 38.8388 35.0942
122 2 51.2811 18.4526 12.6584
123 2 55.0851 46.2775 20.9219
124 2 52.4957 29.6266 19.8995
125 2 53.9361 35.3576 38.5825
126 2 25.3199 7.55243 17.687
127 2 12.2553 51.1923 15.6342
128 2 7.7458 29.9381 35.297
129 2 55.2846 17.8775 7.80546
130 2 1.34213 21.226 45.9568
131 2 52.2365 12.1048 47.3039
132 2 39.0411 46.5454 17.9704
133 2 34.6811 42.7004 16.2847
134 2 15.0681 5.0825 8.97573
135 2 42.9564 33.921 3.72516
136 2 9.93956 0.564229 31.8002
137 2 40.7668 24.1312 46.3929
138 2 5.38911 4.75281 49.2345
139 2 31.4145 14.8907 13.9494
140 2 45.4582 27.3383 38.9775
141 2 7.93391 38.2416 22.9904
142 2 29.7843 23.7134 40.3493
143 1 47.1484 19.6661 46.113
144 1 29.28 17.5656 13.3205
145 1 54.2296 12.4556 6.76507
146 1 52.1123 26.5062 15.3778
147 1 29.2339 27.6143 32.9032
148 1 27.2079 10.2921 38.8409
149 1 46.4857 6.40138 44.9758
150 1 25.0215 25.4823 9.43112
151 1 49.9455 24.5019 53.7248
152 1 10.0995 33.7888 45.4441
153 1 49.9083 48.5231 29.4925
154 1 43.0003 41.5541 30.6338
155 1 32.3571 18.5571 10.3292
156 1 7.62722 33.3052 9.24327
157 1 51.2119 33.9393 22.3003
158 1 37.5889 5.06427 -0.176034
159 1 54.8958 47.7343 13.6305
160 1 49.3831 2.60791 2.33641
161 1 10.7585 25.2797 21.4819
162 1 13.0312 12.7572 44.1828
163 1 20.0899 21.6886 26.7321
164 1 55.7639 38.4452 11.8983
165 1 51.3994 35.6819 6.56981
166 1 44.9623 41.6342 14.9394
167 1 31.3279 39.9813 46.4227
168 1 37.0711 7.68957 43.4645
169 1 28.3624 50.5884 39.2409
170 1 39.7417 33.9441 47.3192
171 1 28.3218 32.7316 23.8667
172 1 21.3413 43.7995 28.4609
173 1 14.1506 39.7964 10.1552
174 1 35.298 1.56506 32.4759
175 1 18.9895 27.9448 16.3666
176 1 39.4053 36.9843 6.74455
177 1 9.94434 4.92434 24.8008
178 1 18.0434 6.44748 11.706
179 1 26.7481 44.7866 48.35
180 1 55.2077 26.8171 8.20562
181 1 48.5265 42.8479 31.6714
182 1 49.614 30.1303 52.4852
183 1 13.4739 20.4635 3.86406
184 1 25.8567 52.798 12.1599
185 1 33.541 10.3843 34.2878
186 1 43.924 26.5975 26.6479
187 1 1.63351 6.93208 53.4644
188 1 28.5144 39.803 3.43588
189 1 13.45 41.4595 33.7228
190 1 35.4405 48.7111 21.9045
191 1 20.268 18.9129 46.0207
192 1 50.5431 0.155198 7.6005
193 1 37.3752 8.80979 13.5611
194 1 36.0589 3.77006 30.9402
195 1 24.4686 27.5827 1.24657
196 1 35.3111 4.98158 26.3168
197 1 6.90632 9.36734 49.4344
198 1 12.9695 18.7306 28.364
199 1 31.6039 19.2136 2.90219
200 1 39.8954 20.7085 41.4711
201 1 26.7136 12.8691 15.9902
202 1 38.9426 1.83764 2.69175
203 1 31.2813 27.5766 37.1944
204 1 40.8768 27.3198 19.279
205 1 7.74485 12.2624 2.93716
206 1 39.4054 25.2814 24.4679
207 1 0.0964378 45.333 46.1811
208 1 32.1665 4.99337 10.7799
209 1 47.6774 6.75055 47.2137
210 1 27.2509 21.6355 42.0092
211 1 8.76558 5.71063 21.8599
212 1 43.5718 27.5027 43.5126
213 1 22.2484 12.2507 51.2123
214 1 0.909836 37.7966 2.50436
215 1 11.3942 27.771 22.8491
216 1 0.0228387 24.713 51.0308
217 1 22.0681 8.80526 35.2371
218 1 1.67847 9.60476 54.39
219 1 44.0963 51.2334 6.00793
220 1 44.6369 8.26285 43.8948
221 1 30.6119 0.7257 17.2226
222 1 2.71092 7.55299 21.5489
223 1 26.13 44.055 2.69964
224 1 42.7459 9.13761 25.8858
225 1 43.7942 49.0009 38.4736
226 1 12.672 42.1542 25.4983
227 1 20.5188 45.7717 33.3303
228 1 -0.0729339 20.3597 52.7784
229 1 11.0996 27.3368 43.1855
230 1 31.1604 30.0234 41.2339
231 1 31.7356 35.2236 25.3624
232 1 40.9343 16.9891 17.8115
233 1 50.9197 50.267 38.4092
234 1 10.9228 13.8662 51.2361
235 1 41.6887 18.3233 42.0523
236 1 6.61654 47.5864 29.6076
237 1 53.1669 29.5994 23.3851
238 1 38.7126 1.35637 56.0427
239 1 33.9739 28.9307 5.95261
240 1 9.17428 32.7765 51.0379
241 1 20.2112 49.113 10.9073
242 1 32.9638 10.8416 3.05194
243 1 7.53593 23.6055 33.3753
244 1 55.8569 42.1173 7.55134
245 1 1.52856 27.9564 20.0824
246 1 54.3432 5.61521 5.84726
247 1 54.2396 48.9104 11.2794
248 1 43.9194 0.311979 45.799
249 1 10.4131 44.8913 48.8609
250 1 23.493 24.3626 18.0391
251 1 17.7803 39.3385 3.94779
252 1 47.6614 16.6415 39.1006
253 1 2.82961 27.2695 48.2766
254 1 9.38667 8.49261 32.8125
255 1 55.1194 9.30911 18.1152
256 1 30.7886 47.5096 24.4233
257 1 1.37529 12.403 35.0585
258 1 33.1699 18.5821 27.5784
259 1 45.7581 46.1215 54.9932
260 1 25.1929 41.3044 34.0827
261 1 32.2044 10.6281 39.5549
262 1 23.7969 48.9515 7.81566
263 2 43.8525 24.7126 29.3755
264 2 25.744 47.3411 1.46883
265 2 49.9431 7.17535 49.1608
266 2 7.10749 24.4366 38.6623
267 2 14.446 21.4357 1.10974
268 2 4.47303 3.2076 24.7203
269 2 15.2161 2.45041 16.6491
270 2 44.4359 43.5871 53.6022
271 2 53.9477 44.845 26.2837
272 2 33.0782 40.4963 13.5913
273 2 33.5622 6.24689 34.7553
274 2 52.6642 26.9674 30.5727
275 2 27.2604 6.96769 52.8768
276 2 56.0999 13.9286 4.33347
277 2 1.10856 42.7874 39.4781
278 2 11.9752 34.3116 18.6989
279 2 44.1192 51.3102 46.623
280 2 19.6074 55.3451 22.1476
281 2 41.564 17.0689 14.7072
282 2 15.3504 28.9346 8.03075
283 2 46.6264 47.9263 28.9307
284 2 16.7042 26.94 34.792
285 1 4.69149 35.5449 5.51523
286 1 49.3477 34.7093 20.2101
287 1 44.4571 1.59075 36.2133
288 1 20.4439 15.1441 31.7037
289 1 22.8119 31.5056 4.12729
290 1 50.7627 12.9021 24.225
291 1 18.0138 44.1137 34.4972
292 1 40.8618 5.52153 44.2189
293 1 54.5347 19.7801 55.5777
294 1 30.995 32.7494 41.7768
295 1 47.048 25.2513 29.9717
296 1 12.2902 32.2108 35.1441
297 1 48.2206 14.1144 33.9444
298 1 30.7703 22.3815 13.2094
299 1 31.8945 18.7147 17.8045
300 1 24.7699 31.7903 9.328
301 1 24.7167 49.9534 23.1354
302 1 46.5813 33.414 26.0229
303 1 53.9463 3.38805 1.83501
304 1 13.295 34.6007 55.8569
305 1 25.5034 38.5561 22.9942
306 1 28.6588 52.1023 32.8676
307 1 5.06761 39.9153 32.1697
308 1 39.8502 54.175 45.0464
309 1 49.3905 30.8125 28.4472
310 1 10.605 52.5763 38.6966
311 1 38.1271 35.2705 5.63655
312 1 10.2253 7.96079 25.9307
313 1 4.96116 55.6249 18.1986
314 1 29.1116 47.7401 53.0161
315 1 4.37023 6.18886 14.7842
316 1 43.712 10.4425 10.5536
317 1 30.6653 32.0733 38.9685
318 1 6.06501 23.3075 11.539
319 1 3.33828 3.01264 18.4154
320 1 18.9855 33.8532 25.4368
321 1 25.9663 38.5583 34.1602
322 1 55.2548 21.6623 23.0427
323 1 11.3286 10.4978 32.7493
324 1 18.5044 8.67756 32.1533
325 1 21.6622 45.9658 42.9829
326 1 16.898 31.9531 40.8528
327 1 12.2994 9.11832 35.0725
328 1 0.783006 7.99733 36.8314
329 1 4.20039 25.8376 44.7787
330 1 7.94566 30.7612 30.1955
331 1 15.6773 39.3669 52.4779
332 1 0.831386 43.8946 11.9154
333 1 16.2451 13.753 10.6499
334 1 33.624 34.9252 22.8056
335 1 35.3137 13.061 51.0901
336 1 50.0042 21.3958 12.9809
337 1 0.930924 34.3091 7.65769
338 1 9.70667 22.8546 22.0256
339 1 15.0966 24.1902 44.6539
340 1 25.2171 23.3004 26.156
341 1 26.6484 51.3557 24.9886
342 1 0.131657 27.3696 17.6572
343 1 35.8057 13.9606 27.598
344 1 33.1636 15.9219 11.3954
345 1 48.8776 16.3221 3.89437
346 1 0.208489 6.7918 23.6248
347 1 19.873 18.385 11.1075
348 1 12.8905 10.2031 22.5819
349 1 4.12235 37.0553 10.4205
350 1 1.78564 53.8984 51.2292
351 1 45.0604 35.6699 5.61947
352 1 18.9857 8.32335 52.1069
353 1 24.1979 34.5363 53.7192
354 1 46.7608 37.0455 39.5527
355 1 48.9357 28.5142 38.878
356 1 9.75851 40.1707 42.5437
357 1 19.9372 50.6235 52.7685
358 1 21.8749 24.0944 36.6839
359 1 29.0813 44.7925 46.3054
360 1 16.3092 38.4258 45.4205
361 1 40.0089 22.1636 43.8791
362 1 0.300615 53.8166 4.71948
363 1 44.5428 18.251 14.6235
364 1 40.9663 0.781639 32.9873
365 1 39.6486 47.3555 6.69478
366 1 15.3476 34.5594 14.5494
367 1 50.7253 46.7769 38.283
368 1 40.5455 44.8486 26.5347
369 1 33.8176 14.2642 16.0274
370 1 3.47801 40.8431 50.3183
371 1 19.2451 28.16 48.9198
372 1 13.7443 21.9667 33.6824
373 1 21.5177 55.8672 38.184
374 1 47.3233 50.3759 2.47619
375 1 4.28168 53.3415 34.9544
376 1 43.0121 48.9372 25.153
377 1 7.0577 20.0222 51.5021
378 1 29.0134 52.7994 21.3496
379 1 51.3101 39.1277 20.4058
380 1 10.8622 12.8155 26.9619
381 1 26.2886 50.3555 29.1896
382 1 55.1459 22.6979 8.22752
383 1 12.7145 23.4147 22.7877
384 1 49.2825 16.4132 33.2563
385 1 29.9876 9.09275 19.6014
386 1 36.0113 38.6832 23.3219
387 1 21.2332 33.9161 39.3412
388 1 24.3853 7.01514 40.358
389 1 26.5887 10.8127 14.2594
390 1 45.4102 48.8598 31.8809
391 1 7.02767 9.16935 7.03761
392 1 48.4506 48.5611 37.3792
393 1 3.32556 28.0822 0.911905
394 1 3.06119 38.1985 46.4437
395 1 54.7994 7.75016 48.2385
396 1 14.7293 5.27217 23.9901
397 1 49.8924 25.863 22.3708
398 1 21.5899 28.8734 3.88856
399 1 6.98279 54.3018 41.9505
400 1 35.4828 42.8235 27.3002
401 1 18.5236 30.5579 24.7668
402 1 31.4908 47.8908 43.6829
403 1 13.263 42.4989 28.4407
404 1 26.7261 34.9544 45.7842
405 2 19.8586 8.27254 14.2092
406 2 36.116 30.9559 7.74138
407 2 34.3381 12.9714 13.0202
408 2 24.6238 49.7436 13.0053
409 2 47.2585 0.311612 16.5813
410 2 36.7913 49.1434 16.5883
411 2 5.91143 41.3892 17.0408
412 2 53.6353 8.78888 36.0211
413 2 31.1851 21.6519 45.3367
414 2 12.5074 35.0557 47.3068
415 2 55.8758 51.7395 8.88703
416 2 52.0174 42.9245 55.1809
417 2 44.2089 4.82251 10.5232
418 2 7.41544 36.1268 11.151
419 2 15.5953 54.4948 22.5946
420 2 23.9873 22.9432 23.2993
421 2 41.4438 49.5506 9.57315
422 2 32.032 16.3579 8.03487
423 2 8.06588 0.648993 43.2448
424 2 52.2861 10.4817 4.89059
425 2 48.0839 51.7415 38.9464
426 2 37.3542 8.44939 38.2824
427 1 29.5197 30.073 -0.0510706
428 1 3.75022 53.5179 52.7518
429 1 55.6956 27.7375 51.1058
430 1 51.9716 55.0699 9.78341
431 1 20.0952 47.5563 26.3699
432 1 42.4442 8.13552 6.62472
433 1 39.9143 24.6845 13.7018
434 1 12.8337 22.4943 44.1396
435 1 22.9353 52.2621 8.71055
436 1 32.2602 31.8885 48.2417
437 1 26.0985 24.4098 33.8427
438 1 47.1348 3.16028 35.532
439 1 1.26843 38.2393 54.0205
440 1 10.7156 22.9594 29.981
441 1 22.4116 14.289 10.8711
442 1 42.8964 18.6672 16.6897
443 1 41.9471 10.7372 27.5558
444 1 51.5275 42.2911 47.9079
445 1 5.19957 14.6401 17.5139
446 1 38.6568 31.6594 40.0565
447 1 20.6969 51.894 10.4578
448 1 44.7729 3.66658 0.0772554
449 1 54.1523 7.04091 28.893
450 1 48.2416 33.2347 0.432557
451 1 27.7526 49.1308 14.0021
452 1 48.1632 12.325 22.6493
453 1 7.3315 20.0338 32.4632
454 1 5.19318 35.6172 52.392
455 1 7.00699 22.0062 23.5484
456 1 46.5508 3.82736 51.7754
457 1 53.6921 38.7917 18.8641
458 1 27.3943 20.2415 36.5152
459 1 2.74218 34.5636 9.5994
460 1 29.439 0.305218 34.266
461 1 8.11706 16.7493 17.527
462 1 48.6565 27.6281 9.33577
463 1 15.3665 2.28677 7.40161
464 1 31.5001 52.5736 22.5445
465 1 7.69834 46.8033 17.4512
466 1 5.09074 47.6771 5.44569
467 1 47.3341 11.2774 38.1159
468 1 44.9072 53.9999 7.0554
469 1 14.6358 43.296 24.3471
470 1 28.5675 56.0761 14.9905
471 1 26.9373 10.0029 3.36789
472 1 15.2815 38.0194 27.9539
473 1 48.6393 38.7347 46.8061
474 1 39.8441 12.4231 16.8113
475 1 23.0272 25.2748 20.6283
476 1 12.0844 21.6609 40.1737
477 1 49.1981 3.32249 37.4406
478 1 41.6698 7.3197 14.0629
479 1 55.5448 25.9483 35.3388
480 1 41.0382 8.32659 4.10166
481 1 25.4562 1.6532 51.038
482 1 29.7752 37.0839 22.7109
483 1 46.2322 19.304 34.2499
484 1 5.87187 37.1889 7.25366
485 1 18.4476 45.1298 25.166
486 1 47.2517 8.18328 42.5064
487 1 20.7679 12.8023 22.1244
488 1 5.73385 47.4207 25.318
489 1 2.77119 43.9905 13.6129
490 1 24.226 49.7148 25.9725
491 1 13.1074 29.8012 47.1797
492 1 27.0321 24.7694 41.6868
493 1 44.463 30.3884 34.0818
494 1 4.28548 54.4396 13.2379
495 1 11.7103 33.8551 13.379
496 1 39.3112 17.8621 37.1176
497 1 7.17227 17.337 31.942
498 1 19.6286 20.3124 8.85627
499 1 33.9011 29.814 20.0365
500 1 51.7649 3.27672 36.0579
501 1 15.883 51.0529 43.5389
502 1 50.5731 42.9349 7.25192
503 1 42.5599 21.239 42.8849
504 1 40.1245 46.9727 32.0293
505 1 38.2907 27.771 3.74523
506 1 22.3214 27.3916 41.9876
507 1 53.6097 54.3187 32.2457
508 1 10.7604 43.0545 17.6682
509 1 53.3908 29.3606 8.18006
510 1 30.5133 0.455849 3.4562
511 1 49.9138 5.36177 6.27725
512 1 14.2162 50.1754 12.7708
513 1 33.3402 30.1072 29.1737
514 1 28.3766 27.7374 20.9128
515 1 29.1279 12.7727 27.3312
516 1 5.40347 40.617 37.1638
517 1 15.7502 3.09576 -0.170262
518 1 24.5585 12.0621 13.4944
519 1 8.17643 11.9164 45.1536
520 1 35.7741 17.8305 4.67497
521 1 45.8984 24.8053 32.3122
522 1 7.36619 17.2989 0.567556
523 1 38.7148 1.60272 25.8914
524 1 39.7684 51.8703 32.2275
525 1 25.7377 41.5338 22.3814
526 1 24.8973 16.2665 30.2173
527 1 29.1451 54.5466 23.4238
528 1 2.48 6.63792 6.35985
529 1 40.1286 8.37696 33.6789
530 1 38.0166 16.5768 18.3778
531 1 42.0615 8.52135 47.7799
532 1 35.301 10.0526 11.7746
533 1 43.198 6.56425 20.7554
534 1 19.6109 35.6287 20.3514
535 1 43.2192 2.73349 38.2481
536 1 39.2779 22.3029 15.404
537 1 19.3253 22.1956 20.881
538 1 6.46588 27.4883 2.5567
539 1 28.8432 37.6763 33.2372
540 1 48.2573 12.0229 16.7485
541 1 42.7372 5.95217 8.07504
542 1 32.9884 48.2561 35.8574
543 1 38.1158 45.118 34.9165
544 1 31.7717 34.7453 15.1095
545 1 51.7547 24.4909 5.67189
546 1 23.5161 50.6641 41.1346
547 2 15.1829 40.8515 26.4598
548 2 12.9394 46.7697 1.22628
549 2 35.0228 47.5756 25.5493
550 2 55.9364 51.3568 12.6764
551 2 52.5011 7.02829 16.9691
552 2 9.73218 6.90957 35.6376
553 2 37.6206 10.0793 16.8218
554 2 23.5132 5.6116 53.3326
555 2 14.823 12.6926 21.6029
556 2 12.6515 41.6958 42.9098
557 2 13.9659 5.73291 34.0525
558 2 17.4229 33.1943 3.23159
559 2 40.1035 16.9953 20.9598
560 2 5.22682 16.2433 29.4844
561 2 38.7836 12.6693 50.7606
562 2 3.87182 19.7683 28.5299
563 2 30.1533 47.0751 34.9816
564 2 16.6823 5.13894 39.9854
565 2 20.1501 22.3332 34.8264
566 2 31.2714 13.5814 39.2295
567 2 44.5741 38.4212 0.396958
568 2 43.585 18.1343 20.093
569 1 14.5156 1.4163 19.3305
570 1 52.5128 36.8023 49.2126
571 1 20.4789 14.1683 5.42563
572 1 46.5241 15.1572 53.8184
573 1 15.7685 15.1255 26.2049
574 1 30.2206 46.2048 17.3146
575 1 29.9565 49.7737 42.0281
576 1 14.0324 -0.151566 11.4246
577 1 1.64292 6.42303 15.2808
578 1 55.2132 40.0583 44.6296
579 1 34.1495 45.4448 47.8253
580 1 21.2074 32.1897 6.25725
581 1 37.6088 10.2933 29.2691
582 1 12.4958 41.5054 38.0754
583 1 45.3769 25.6159 18.0992
584 1 28.9205 40.8375 28.9712
585 1 33.2939 8.16337 23.2589
586 1 55.5189 0.222559 31.0123
587 1 10.7183 1.47055 7.31076
588 1 9.16525 44.0011 46.6736
589 1 34.5771 47.2774 49.6451
590 1 -0.139969 7.61783 6.59126
591 1 13.0578 9.20756 30.8404
592 1 52.7635 33.358 6.36845
593 1 18.4706 24.8164 33.6603
594 1 3.11089 42.4477 41.8135
595 1 34.2563 12.0207 43.9676
596 1 3.64598 4.82571 39.2118
597 1 29.1589 51.711 7.44446
598 1 49.059 47.421 25.1743
599 1 4.9072 3.65819 13.8211
600 1 11.5964 32.4941 4.24325
601 1 21.7462 42.3253 54.174
602 1 3.08702 42.4129 15.7165
603 1 26.6077 35.5956 52.2173
604 1 5.3688 21.5681 30.2934
605 1 28.1884 43.2518 27.3356
606 1 27.2044 46.7607 33.362
607 1 38.861 14.2328 33.7164
608 1 37.1561 4.43729 49.4314
609 1 34.1472 30.5821 12.7859
610 1 43.6037 5.47633 44.9497
611 1 20.9017 44.6552 30.8277
612 1 17.6055 46.7733 45.4846
613 1 3.36225 51.498 1.10142
614 1 53.628 33.4734 10.8211
615 1 5.88514 43.0228 41.5024
616 1 38.6573 3.81514 53.6797
617 1 16.1976 11.7453 51.8108
618 1 5.42127 55.2633 53.9191
619 1 36.7641 11.1927 26.9028
620 1 28.3488 26.9505 25.7557
621 1 52.9684 8.67968 27.3069
622 1 3.79055 29.8412 43.8391
623 1 14.7916 44.2033 11.6441
624 1 27.6964 9.34011 55.3452
625 1 10.119 14.8947 25.4205
626 1 39.393 27.0314 22.4656
627 1 33.5629 38.174 1.62251
628 1 31.668 10.0954 17.3415
629 1 41.7939 46.8315 10.8768
630 1 39.57 55.5838 22.2515
631 1 43.7747 28.8333 13.8921
632 1 4.36104 32.3697 26.8827
633 1 15.9795 6.51278 49.3128
634 1 48.2842 45.9036 17.9023
635 1 29.6018 44.9068 23.5213
636 1 6.06938 6.94892 17.2292
637 1 0.687841 14.8645 40.0923
638 1 32.7197 47.5921 55.3022
639 1 28.7188 5.26893 4.77004
640 1 21.977 53.3689 6.13356
641 1 55.9422 47.9264 35.8686
642 1 53.7755 18.782 10.5612
643 1 41.454 27.8489 24.6632
644 1 19.9825 42.6258 45.9904
645 1 0.418286 19.456 41.0513
646 1 13.1554 31.2303 12.4703
647 1 3.21666 29.6472 8.48724
648 1 19.2431 17.0471 5.24458
649 1 20.946 19.9088 19.6538
650 1 15.39 4.12751 3.17952
651 1 30.4472 33.1899 33.3451
652 1 52.8466 15.5952 40.1138
653 1 51.9524 30.5705 51.4324
654 1 29.2905 34.0464 56.0897
655 1 41.2523 4.44575 30.1488
656 1 36.827 52.0784 40.1193
657 1 56.0405 34.4846 20.9893
658 1 25.0639 8.37934 54.8045
659 1 38.8308 39.887 50.3336
660 1 1.42027 43.4622 6.59832
661 1 46.0888 36.3908 12.9195
662 1 15.4996 41.3305 44.0674
663 1 20.2278 35.8454 37.5707
664 1 52.9989 17.1169 28.2597
665 1 34.1049 42.8787 22.6306
666 1 14.9929 9.11867 26.478
667 1 35.5298 16.6568 28.123
668 1 47.6687 12.5078 44.3183
669 1 51.0265 22.8285 15.5578
670 1 46.9157 3.05236 11.202
671 1 32.4822 4.32519 25.3152
672 1 1.84458 18.7927 8.928
673 1 11.591 4.2659 35.7599
674 1 46.2682 51.448 7.69257
675 1 23.6073 7.80195 32.9532
676 1 54.0829 16.785 24.2447
677 1 55.6911 36.3433 54.0614
678 1 15.6841 55.6904 17.4776
679 1 52.795 12.0164 22.4613
680 1 28.5377 32.4098 45.8432
681 1 0.156694 26.0711 48.7609
682 1 7.21393 3.14137 44.8937
683 1 43.3008 13.0424 20.9786
684 1 38.3641 32.4885 37.4065
685 1 22.6383 55.2646 15.0659
686 1 44.6577 14.9906 11.1219
687 1 46.9598 55.429 28.0907
688 1 20.4177 7.23926 33.2296
689 2 21.5196 49.4848 24.1756
690 2 30.0239 50.3691 9.99209
691 2 34.3013 27.1268 38.8992
692 2 8.05913 42.3625 49.2616
693 2 45.014 48.1045 22.5688
694 2 2.97841 51.1202 54.4813
695 2 17.57 15.3761 45.235
696 2 16.1587 40.7943 8.27532
697 2 1.40286 18.2706 36.2359
698 2 17.2187 18.5705 7.03615
699 2 44.9221 11.7432 40.0479
700 2 38.3279 4.69937 3.6972
701 2 53.4206 27.5382 5.59023
702 2 35.903 28.8463 27.2184
703 2 49.0765 45.855 44.1341
704 2 54.0921 12.7312 17.5681
705 2 2.2367 36.9922 7.73048
706 2 2.03026 40.6307 44.3627
707 2 47.6675 17.1632 18.9322
708 2 43.4374 54.8889 0.667602
709 2 44.3083 30.4507 42.5406
710 2 52.9144 48.4481 31.1034
711 1 36.9516 1.93398 46.1593
712 1 16.1973 27.4785 50.2787
713 1 1.45073 49.2868 44.1333
714 1 37.539 30.4228 24.9418
715 1 1.16011 11.152 44.9162
716 1 2.75748 15.8185 51.3278
717 1 47.2211 0.992098 3.58306
718 1 4.65842 41.8274 55.8994
719 1 42.1579 16.9371 52.7309
720 1 19.2729 16.2097 13.4803
721 1 31.2683 6.25352 4.83597
722 1 31.7686 37.4769 55.5879
723 1 19.5945 14.9593 15.91
724 1 48.503 37.2354 53.6955
725 1 13.0525 45.9037 34.7698
726 1 29.9015 41.3487 42.0396
727 1 32.4984 55.1847 18.6101
728 1 28.1184 0.478057 55.1561
729 1 41.2877 1.6347 52.2361
730 1 5.40998 7.31907 37.5945
731 1 54.0513 10.7294 20.3293
732 1 12.8477 0.785202 14.973
733 1 35.914 53.1212 55.1503
734 1 37.1322 43.5646 17.8976
735 1 40.0276 9.52816 1.47143
736 1 51.7902 19.056 50.7142
737 1 30.8774 42.0934 27.5382
738 1 0.508697 11.577 6.68608
739 1 21.9713 16.9671 2.75456
740 1 40.4597 35.3536 49.5125
741 1 54.1535 9.26796 32.9444
742 1 18.9492 40.5216 6.18441
743 1 44.6305 29.2189 26.9898
744 1 33.456 55.6624 40.3593
745 1 45.0042 12.8017 12.6449
746 1 20.5003 17.7015 21.0709
747 1 0.733663 3.04468 36.2096
748 1 46.1169 55.0313 2.58503
749 1 17.2852 13.1478 42.6656
750 1 23.6823 18.9957 1.77988
751 1 19.1002 32.5029 33.737
752 1 15.0951 48.1027 38.6263
753 1 20.2559 9.93534 43.624
754 1 36.456 53.8857 26.9235
755 1 29.2834 18.236 18.0498
756 1 31.5194 49.3768 53.475
757 1 9.01071 21.4371 28.0741
758 1 55.0289 27.3928 20.2789
759 1 44.9841 6.79692 18.8765
760 1 18.9823 32.5421 54.5911
761 1 48.7544 15.3631 46.836
762 1 30.6965 52.473 12.0378
763 1 24.2155 17.7562 8.53084
764 1 18.1085 12.9771 21.1537
765 1 42.5631 19.9446 40.3784
766 1 19.502 35.6278 2.67654
767 1 4.59887 51.8035 28.6791
768 1 25.8349 22.5197 35.847
769 1 18.2258 48.551 54.8314
770 1 18.8491 3.50921 4.60405
771 1 11.745 38.7121 43.9734
772 1 29.7708 13.0692 52.7447
773 1 10.2277 16.4257 45.9289
774 1 33.6943 2.48484 27.0243
775 1 46.6051 41.8713 29.9206
776 1 25.2417 55.7587 22.3814
777 1 46.1466 47.5715 25.5348
778 1 21.8279 33.5663 47.8893
779 1 41.0924 27.0017 44.6053
780 1 31.1524 47.4752 40.8704
781 1 20.2794 38.0354 25.1301
782 1 4.52562 18.9981 15.6506
783 1 50.4326 0.93487 36.7888
784 1 44.2971 27.7885 24.2102
785 1 27.5677 26.3815 48.0655
786 1 15.6269 7.71015 41.9625
787 1 5.60467 31.3609 53.837
788 1 2.43154 10.5537 37.1456
789 1 15.3853 46.285 28.144
790 1 51.8384 29.7238 43.5489
791 1 36.4528 18.5659 24.5972
792 1 26.0972 55.0692 19.4913
793 1 2.47718 50.3394 22.2584
794 1 30.433 25.2907 27.9917
795 1 55.8111 21.2802 36.8135
796 1 44.5973 12.4498 3.84379
797 1 18.842 11.204 13.8871
798 1 42.453 29.0857 54.3415
799 1 16.0526 35.6039 11.955
800 1 16.9595 30.7952 54.9736
801 1 48.8634 48.3186 10.8984
802 1 20.8709 15.2159 37.1081
803 1 40.1224 45.2027 39.9296
804 1 51.6398 36.7837 9.40919
805 1 38.6923 44.6437 32.1424
806 1 13.1617 15.2599 36.9767
807 1 55.8712 16.0261 34.751
808 1 48.9159 8.0825 38.4327
809 1 10.21 12.2939 1.20094
810 1 8.05119 40.6557 32.192
811 1 33.5281 22.2506 48.167
812 1 53.331 16.0916 44.744
813 1 0.821713 11.4666 2.60609
814 1 45.7182 4.47476 20.3404
815 1 4.81645 8.959 41.9242
816 1 50.0903 5.07353 35.1994
817 1 44.5473 43.6116 29.228
818 1 54.9334 48.5843 55.2767
819 1 18.3071 37.1053 43.2067
820 1 53.1968 28.2236 38.3774
821 1 32.2257 29.6755 38.7968
822 1 1.11439 4.1391 29.2179
823 1 54.0237 46.5667 37.8604
824 1 54.6696 0.0513429 28.4997
825 1 17.2137 54.3679 29.9636
826 1 16.6438 50.439 4.00488
827 1 19.8774 33.9902 22.6737
828 1 35.4545 22.9599 26.4269
829 1 49.3655 56.0528 29.7784
830 1 51.3747 43.2686 4.30186
831 2 7.43296 40.4352 39.9117
832 2 23.65 14.4599 3.1832
833 2 20.281 43.251 23.3551
834 2 43.4961 27.0161 46.8472
835 2 25.0211 0.0839695 27.7706
836 2 23.885 14.1846 32.5239
837 2 15.9547 26.8098 17.5618
838 2 22.9094 42.6364 47.6622
839 2 28.5465 35.1822 31.2799
840 2 19.7464 16.1271 53.6594
841 2 15.921 27.138 26.4589
842 2 47.1079 9.57773 45.793
843 2 42.2564 1.42464 30.0503
844 2 31.3433 15.3454 18.5248
845 2 8.44613 51.6207 16.0296
846 2 41.6986 41.0403 48.7127
847 2 48.5786 55.0131 10.3624
848 2 47.913 44.4126 25.9987
849 2 23.3111 17.4567 35.0144
850 2 22.5475 31.9168 44.3311
851 2 48.2081 -0.155619 54.0436
852 2 46.2781 38.7997 20.3467
853 1 35.7812 45.9459 9.11608
854 1 30.1813 42.1149 47.0907
855 1 47.7535 26.8477 15.1784
856 1 9.88627 23.5657 34.6363
857 1 55.3153 17.1302 40.3117
858 1 13.9748 50.2426 48.7854
859 1 35.2468 24.7936 40.9839
860 1 9.56439 37.8266 3.99565
861 1 52.0515 36.4062 29.5699
862 1 54.2368 30.8943 5.72667
863 1 33.2387 11.3086 10.6057
864 1 47.6408 26.5217 49.5175
865 1 14.7371 26.2257 14.5346
866 1 10.9774 33.5384 55.8982
867 1 50.609 21.7522 37.1695
868 1 49.1666 1.63044 34.4853
869 1 53.8063 26.3063 52.363
870 1 33.57 24.5785 20.8791
871 1 10.2535 27.8959 15.0048
872 1 53.4679 38.1248 40.2992
873 1 12.6595 39.4076 32.0075
874 1 54.2307 46.0695 1.30937
875 1 41.5329 29.5933 48.3416
876 1 -0.0485486 16.9842 31.2924
877 1 0.0488112 27.3984 22.797
878 1 4.51737 35.6795 20.3594
879 1 10.5167 14.1355 31.0902
880 1 51.7342 11.3299 1.83507
881 1 32.1984 13.7155 48.0416
882 1 44.8947 22.5267 52.7333
883 1 26.8459 14.0651 13.4895
884 1 51.5963 54.5384 36.4853
885 1 29.8451 23.2729 1.31811
886 1 39.4453 47.7806 2.06427
887 1 7.15196 15.5401 19.7805
888 1 3.0229 30.465 46.8878
889 1 46.379 7.9993 34.1306
890 1 54.8624 2.9901 6.6217
891 1 53.0678 20.4265 37.8278
892 1 37.6588 54.4252 20.3966
893 1 14.1793 51.547 33.7376
894 1 9.36392 40.9868 9.86593
895 1 3.31102 49.783 40.4242
896 1 2.66845 40.7216 17.7927
897 1 28.0091 53.2075 10.3359
898 1 40.9216 35.3067 42.5343
899 1 16.6845 19.0637 32.2899
900 1 9.09531 27.7944 2.01642
901 1 34.1045 37.6557 42.0334
902 1 25.6524 46.01 26.0369
903 1 3.72812 26.8543 9.03345
904 1 35.6681 35.6717 11.6562
905 1 28.2639 30.2819 22.0983
906 1 17.3627 36.1755 7.17926
907 1 34.9407 50.5648 13.8088
908 1 1.57234 6.24003 34.8895
909 1 40.6724 3.38563 42.6456
910 1 52.4264 38.4485 7.31825
911 1 12.7297 8.82173 24.9899
912 1 17.0764 18.3815 36.9753
913 1 3.96988 45.1607 5.84157
914 1 53.0097 51.749 31.3406
915 1 18.1681 20.9855 39.4523
916 1 28.441 26.6443 40.4382
917 1 35.1175 55.7743 4.07243
918 1 50.3924 34.9459 14.6611
919 1 48.5596 40.5848 38.7811
920 1 12.0762 38.694 38.3705
921 1 31.6584 54.9925 11.5115
922 1 17.7031 41.6988 31.8994
923 1 50.3312 5.68362 38.5246
924 1 0.517426 11.481 16.6962
925 1 45.2975 55.5808 5.1706
926 1 27.7767 49.9178 51.6297
927 1 52.9005 49.4082 43.5697
928 1 42.4051 12.0613 12.7323
929 1 49.981 33.2017 7.08513
930 1 38.3256 0.957559 19.7602
931 1 16.7704 25.0474 31.6807
932 1 11.7942 48.1095 52.3195
933 1 30.8786 7.07058 43.7155
934 1 24.5246 51.2703 54.8397
935 1 5.23406 39.1691 55.1049
936 1 7.69936 32.9618 12.0442
937 1 33.8653 0.384215 42.9959
938 1 36.8443 5.74097 40.5815
939 1 5.54539 29.3341 16.0543
940 1 7.39516 38.928 53.1253
941 1 36.5325 6.4857 35.546
942 1 14.9027 46.6196 45.2213
943 1 33.5641 36.716 34.7754
944 1 9.00875 41.2572 16.3695
945 1 44.8779 20.9804 44.7793
946 1 9.74497 42.2504 44.4623
947 1 41.4602 31.1675 40.8095
948 1 15.4954 55.5771 43.7403
949 1 50.0027 49.8528 15.485
950 1 39.2565 27.7823 50.6934
951 1 14.8617 43.1788 53.7715
952 1 44.1736 0.836409 48.625
953 1 25.9363 22.479 51.0495
954 1 11.0073 45.7176 40.4919
955 1 13.0925 21.8832 15.4136
956 1 12.4293 20.2722 8.36604
957 1 47.341 43.7495 51.0305
958 1 8.61866 25.1217 36.2204
959 1 31.3112 50.1477 35.1014
960 1 53.8487 14.3243 12.4301
961 1 36.9167 41.5508 42.6539
962 1 54.9104 6.40949 18.8298
963 1 7.7202 30.4364 47.1871
964 1 25.3716 14.5007 44.3185
965 1 15.2511 30.3181 35.6806
966 1 24.9897 42.5505 31.5371
967 1 8.04076 8.45573 11.7486
968 1 42.5943 9.85645 53.886
969 1 31.8707 37.3917 50.3917
970 1 31.416 17.3206 15.7789
971 1 45.0218 6.14687 42.6123
972 1 52.0943 8.80088 51.5069
973 2 45.0017 4.19063 25.6445
974 2 46.0865 39.5141 34.9967
975 2 53.5954 38.9505 27.8657
976 2 17.2782 30.6119 49.8947
977 2 52.9244 36.2273 16.1903
978 2 52.261 36.1966 19.9717
979 2 32.9876 42.4944 40.5829
980 2 55.0036 6.34835 44.9174
981 2 36.5066 12.0806 9.90262
982 2 54.5515 29.8309 49.1228
983 2 12.2432 31.3485 1.18241
984 2 46.3041 22.6252 34.3237
985 2 52.2071 2.23682 13.1001
986 2 7.22876 18.4341 38.1369
987 2 20.2724 6.72517 5.09495
988 2 2.44654 26.7838 51.6006
989 2 40.078 28.0814 32.1266
990 2 54.1609 9.89669 15.4191
991 2 23.0529 21.0389 17.7004
992 2 15.9729 15.7659 54.8833
993 2 1.58591 15.6022 55.8757
994 2 53.361 22.9175 35.3316
995 1 54.3993 3.39017 43.6803
996 1 51.1968 25.5269 46.957
997 1 24.5568 2.15009 47.9245
998 1 3.24051 49.5328 27.434
999 1 25.3347 51.3176 52.1809
1000 1 19.3374 8.76466 47.9344
1001 1 30.9167 30.6357 36.6211
1002 1 52.6195 26.6927 8.31741