ITEM: TIMESTEP
0
ITEM: NUMBER OF ATOMS
9088
ITEM: BOX BOUNDS pp pp pp
-2.0109702337308272e-01 5.6085589649361779e+01
-2.0109702337308272e-01 5.6085589649361779e+01
-2.0109702337308272e-01 5.6085589649361779e+01
ITEM: ATOMS id type x y z
1 1 28.501 41.4712 49.0717
2 1 44.3367 4.29844 36.6233
3 1 41.7311 12.6717 50.0846
4 1 37.0477 49.2811 43.8144
5 1 11.1896 34.4511 8.44954
6 1 36.0078 25.7902 21.9072
7 1 19.8602 33.0578 1.15387
8 1 48.4663 1.38482 9.25005
9 1 55.6613 50.2379 40.0411
10 1 36.9628 13.4765 53.3051
11 1 48.3887 35.7801 32.2065
12 1 35.7516 19.1291 36.7759
13 1 21.5531 48.6921 37.0039
14 1 19.7805 49.5289 50.2335
15 1 2.95528 36.7161 30.4177
16 1 26.7637 0.699278 38.7845
17 1 50.4806 10.1124 28.1212
18 1 4.14365 47.6833 35.8045
19 1 30.2435 23.5896 51.9484
20 1 31.0787 2.16307 44.8076
21 1 25.1852 49.3279 50.3469
22 1 9.55387 41.7605 1.79984
23 1 21.8937 17.9584 37.9126
24 1 3.38865 7.61737 55.4285
25 1 26.4367 27.2631 39.1326
26 1 19.9809 28.0055 43.1663
27 1 34.777 29.1134 54.3817
28 1 13.426 32.7488 15.0511
29 1 10.8553 50.2383 40.1129
30 1 49.2065 7.41555 44.5106
31 1 30.4537 4.81255 0.345436
32 1 34.0512 5.62156 23.4823
33 1 24.4454 41.743 2.53288
34 1 14.5357 24.6527 1.8996
35 1 19.8769 51.1102 40.4287
36 1 16.3542 32.1154 18.8239
37 1 23.7734 -0.164563 46.7861
38 1 23.5353 21.0911 5.65472
39 1 13.349 26.1074 0.23034
40 1 8.8481 11.3115 47.6779
41 1 46.7592 40.9227 1.0741
42 1 5.56712 39.261 14.946
43 1 21.8072 16.9553 9.55339
44 1 50.7894 52.273 23.7514
45 1 13.1036 43.533 56.0231
46 1 0.0949008 17.8113 11.2279
47 1 42.4319 6.20978 32.0616
48 1 18.4523 30.7347 19.6473
49 1 7.35814 19.8659 32.556
50 1 18.0069 19.7823 20.6704
51 1 50.1214 32.2474 30.4264
52 1 22.41 10.3593 37.4476
53 1 52.5724 20.6072 1.38409
54 1 52.3816 17.5761 42.7782
55 1 39.746 45.1025 29.6164
56 1 11.6128 25.2671 44.8171
57 1 6.97197 33.0337 34.5763
58 1 37.173 11.5311 21.4813
59 1 5.41053 30.5898 28.759
60 1 36.309 32.846 54.4742
61 1 12.0633 27.1865 54.0343
62 1 52.8617 22.1493 24.3658
63 1 49.456 43.5046 28.5587
64 1 22.4973 4.36616 16.2714
65 1 11.6418 42.3122 48.1271
66 1 8.06537 44.6712 9.95397
67 1 12.4351 42.9492 53.1429
68 1 11.3284 33.7096 52.5966
69 1 37.4438 38.4181 45.8773
70 1 2.03165 27.9522 5.18464
71 1 51.9822 46.9263 28.2413
72 1 55.5997 29.6419 1.59043
73 1 23.4612 48.663 7.62294
74 1 4.74393 33.4545 46.9588
75 1 37.6077 19.3713 5.0439
76 1 38.41 23.7633 5.80137
77 1 47.3173 40.2574 31.9723
78 1 33.975 40.8065 10.6282
79 1 31.7143 23.3726 42.688
80 1 39.5354 0.036498 30.841
81 1 17.3608 27.9378 54.3407
82 1 50.7391 1.36684 23.8485
83 1 8.24058 15.0335 27.6878
84 1 36.7741 1.7378 3.81222
85 1 39.392 10.9249 38.4481
86 1 34.7153 34.0998 34.3895
87 1 25.9524 7.92891 31.987
88 1 15.9429 11.6597 12.8717
89 1 6.75864 47.9378 39.4512
90 1 1.1513 39.5199 51.549
91 1 17.9892 7.93984 21.8914
92 1 10.1624 11.8936 19.3914
93 1 38.5572 9.84161 11.1541
94 1 35.5711 34.2343 28.8093
95 1 40.7015 24.68 18.7351
96 1 7.17326 0.0274533 14.0728
97 1 3.33777 8.62108 32.912
98 1 18.096 13.0142 30.416
99 1 42.4379 36.3181 5.72854
100 1 3.54336 6.05944 27.0288
101 1 0.472248 33.6154 47.2419
102 1 5.33486 1.16272 12.5511
103 1 41.7288 43.3457 55.7575
104 1 14.5868 54.7316 39.3173
105 1 31.5055 14.1142 10.6598
106 1 18.95 48.1795 47.6011
107 1 32.5984 56.032 44.6209
108 1 46.7152 17.0378 47.4354
109 1 10.3325 45.8251 16.7899
110 1 31.4765 8.98926 10.5428
111 1 37.7567 54.3341 15.1905
112 1 5.58253 5.62402 10.1506
113 1 28.9376 33.3827 11.4226
114 1 24.4795 17.0297 40.1991
115 1 42.7854 34.6755 30.9784
116 1 31.979 5.78572 38.0793
117 1 0.0085996 12.5412 40.5815
118 1 1.61469 44.0474 31.6982
119 1 36.3426 36.2995 34.0129
120 1 15.0526 1.31824 39.8776
121 2 12.1311 39.0393 35.3164
122 2 51.4926 18.5138 12.9039
123 2 55.1776 46.8071 21.0542
124 2 52.5858 29.6805 19.7871
125 2 53.8736 35.5159 38.494
126 2 25.2832 7.49273 17.8371
127 2 12.4709 51.4752 15.7188
128 2 7.74528 30.1084 35.3788
129 2 55.086 17.8826 7.55381
130 2 1.50869 21.0248 45.9717
131 2 52.1552 12.0941 47.2193
132 2 39.2517 46.5146 17.8087
133 2 34.7843 42.8217 16.349
134 2 14.9846 5.19305 9.03792
135 2 43.0222 33.6781 3.67532
136 2 9.82391 0.902303 32.4061
137 2 40.6303 24.202 46.2768
138 2 5.46788 4.62556 49.5288
139 2 31.2214 15.1471 13.7598
140 2 45.0949 27.2399 38.7691
141 2 7.98972 38.5445 22.9148
142 2 29.626 23.4931 40.1004
143 1 47.1812 19.78 46.1071
144 1 29.3597 18.0761 13.2807
145 1 54.1196 12.5453 6.14639
146 1 52.2454 26.7615 15.5079
147 1 29.3055 28.0547 32.9312
148 1 27.1886 10.1821 38.3852
149 1 46.5251 6.05481 44.7574
150 1 25.0217 25.6361 9.50155
151 1 49.9534 24.381 54.0813
152 1 10.3295 33.4448 45.3958
153 1 50.0209 48.4473 29.6974
154 1 43.2549 41.7287 30.765
155 1 32.5731 18.6772 10.4367
156 1 7.77383 33.2193 9.27426
157 1 51.4986 33.9609 22.0645
158 1 37.6367 5.33523 0.304178
159 1 54.6583 48.1488 13.5528
160 1 49.1326 2.48993 2.23265
161 1 10.621 25.5507 21.3875
162 1 13.133 13.0005 43.9615
163 1 19.8851 21.4542 26.4144
164 1 56.0258 38.3975 11.9267
165 1 51.5964 35.6744 6.82271
166 1 45.2219 41.5977 14.6368
167 1 31.2112 39.7477 46.3289
168 1 36.8865 7.7148 43.1091
169 1 28.1856 50.7035 39.1117
170 1 39.6111 33.8173 47.0425
171 1 28.3714 32.9538 23.5824
172 1 21.3008 43.7586 28.4152
173 1 14.1561 39.9001 10.0852
174 1 35.1303 1.69568 32.4505
175 1 18.5512 28.1498 16.2855
176 1 39.7159 37.1371 6.60589
177 1 9.95388 4.88295 25.116
178 1 18.4558 5.75122 8.96223
179 1 26.981 45.0881 48.2264
180 1 55.2509 26.9944 8.60598
181 1 48.6764 42.7589 31.4547
182 1 49.6452 30.3345 52.6865
183 1 13.4485 20.7176 4.18545
184 1 25.8766 52.8409 12.0624
185 1 33.2399 10.0018 34.2688
186 1 43.9345 26.5334 26.7282
187 1 1.49562 7.09621 53.1469
188 1 28.681 39.4145 3.59172
189 1 13.6316 41.5567 33.9815
190 1 35.5066 48.8307 21.7554
191 1 20.755 18.949 46.2082
192 1 50.3229 -0.101105 7.89264
193 1 37.2772 8.81368 13.6857
194 1 36.0956 3.66073 30.9526
195 1 24.7057 27.4957 1.26958
196 1 34.8919 5.19952 26.7404
197 1 7.13705 9.43488 49.2061
198 1 12.5701 19.1341 28.496
199 1 31.6019 18.9406 3.11294
200 1 39.707 20.468 41.3953
201 1 26.3247 13.2843 15.9506
202 1 39.3472 2.02631 2.86439
203 1 31.3545 27.563 37.1104
204 1 41.0967 27.5576 19.1834
205 1 7.83707 12.5713 2.71348
206 1 39.5172 25.247 24.2281
207 1 0.260691 44.9181 45.7637
208 1 31.8056 5.13821 11.0087
209 1 47.7876 6.63222 47.1331
210 1 27.356 21.7945 41.5966
211 1 8.45697 5.81245 21.6554
212 1 43.182 27.5406 43.2761
213 1 22.1311 12.5525 51.1475
214 1 0.950122 37.7611 2.50839
215 1 11.555 27.8747 22.92
216 1 0.0791646 24.6877 51.0301
217 1 21.899 8.94298 35.0735
218 1 1.44676 9.70518 54.3202
219 1 44.1835 51.8191 6.15809
220 1 44.7498 8.08268 44.1186
221 1 30.8599 0.648057 17.0821
222 1 2.4896 7.86406 21.3249
223 1 26.0132 44.1256 2.85113
224 1 42.5009 9.27343 25.5375
225 1 43.8563 48.742 38.3775
226 1 12.8091 42.1017 25.6691
227 1 20.1965 45.7329 33.4195
228 1 -0.0157731 20.4329 52.7026
229 1 11.2981 27.0883 42.9986
230 1 31.0747 29.7696 41.2773
231 1 31.6708 35.2692 25.4332
232 1 40.8523 17.052 17.8569
233 1 51.0458 49.9004 37.7652
234 1 10.777 14.2155 50.9691
235 1 41.5051 18.3943 42.387
236 1 7.01887 47.5721 29.6126
237 1 52.7869 29.4086 23.4063
238 1 38.8577 1.43576 0.0381248
239 1 33.9551 28.6949 5.90675
240 1 9.32026 32.8607 51.0628
241 1 20.3481 49.1613 10.714
242 1 33.1075 10.9212 3.00095
243 1 7.58168 24.4712 33.5121
244 1 55.6644 42.7157 7.59977
245 1 1.54227 27.8031 20.05
246 1 54.3522 5.62859 5.75268
247 1 54.3376 49.1958 11.0439
248 1 44.117 0.294745 45.8438
249 1 10.6599 44.6084 49.1302
250 1 23.4362 24.5839 17.9408
251 1 17.6632 39.3617 3.8027
252 1 47.9475 16.6244 39.0504
253 1 2.86725 27.1734 48.006
254 1 8.95809 7.33319 32.4172
255 1 55.2009 9.33293 18.1134
256 1 31.0612 47.609 24.6934
257 1 1.54625 12.321 35.0075
258 1 33.2778 18.4428 27.7346
259 1 45.6675 45.7573 54.817
260 1 25.082 41.4951 33.9098
261 1 32.0824 10.7162 39.6115
262 1 22.1224 44.9909 11.9685
263 2 44.2978 24.6492 29.2924
264 2 25.645 47.1952 1.83371
265 2 50.014 7.24804 49.1467
266 2 7.10131 24.671 38.6543
267 2 14.4262 21.1519 1.27393
268 2 4.61997 3.54292 24.5408
269 2 15.2744 2.24687 16.9489
270 2 44.4799 43.4263 53.3406
271 2 53.9456 44.6688 26.1817
272 2 33.3945 40.3881 13.9162
273 2 33.23 6.04767 34.8182
274 2 53.0052 26.97 30.4025
275 2 27.2056 6.94715 53.118
276 2 56.0585 13.9985 4.11774
277 2 1.13359 42.9253 39.4344
278 2 11.7853 34.536 18.8942
279 2 44.0039 51.2934 46.5581
280 2 19.4586 55.262 22.3278
281 2 41.4329 17.1901 14.6005
282 2 15.0426 28.9495 8.17019
283 2 46.588 47.8453 28.7558
284 2 16.9486 27.1213 34.9416
285 1 4.9043 35.4913 5.67145
286 1 49.6271 34.6283 20.1641
287 1 44.5657 1.68797 36.1557
288 1 20.2469 16.9568 29.6659
289 1 22.9091 31.3452 4.14635
290 1 50.7393 13.0596 24.066
291 1 18.2007 43.761 34.2608
292 1 41.0095 5.51482 44.1637
293 1 54.5879 19.7788 55.3799
294 1 31.2307 32.6687 41.7348
295 1 47.1682 25.2966 29.8383
296 1 12.2979 32.5333 35.0348
297 1 48.243 14.0779 33.8693
298 1 31.085 22.3437 12.9579
299 1 31.7281 18.7573 17.8878
300 1 24.4437 31.9035 9.34376
301 1 24.7431 49.9045 23.3338
302 1 46.7185 33.3909 26.0001
303 1 53.9942 3.42623 1.69537
304 1 13.706 34.7788 53.7446
305 1 25.258 38.3699 22.992
306 1 28.8662 52.071 32.6983
307 1 5.07934 40.4376 32.2365
308 1 39.8061 54.0181 45.4467
309 1 49.697 30.8062 28.2519
310 1 10.1917 52.7971 38.4765
311 1 38.3722 35.0554 5.55463
312 1 10.4557 7.81641 26.0426
313 1 5.11171 55.6762 18.2382
314 1 29.1189 47.6619 53.2427
315 1 4.37842 6.19909 14.7597
316 1 43.7793 10.7103 10.6944
317 1 30.7294 31.7979 39.0547
318 1 6.05216 23.1495 11.2857
319 1 3.26088 2.70873 18.4478
320 1 18.8836 33.6913 25.362
321 1 26.0311 38.7226 34.084
322 1 55.3335 21.6152 22.858
323 1 11.3906 10.862 33.1149
324 1 18.4724 8.84097 32.1647
325 1 21.852 45.8198 42.9773
326 1 16.7952 32.0774 40.9886
327 1 12.4353 9.09547 35.2748
328 1 0.675962 8.2057 36.7714
329 1 4.31625 25.5275 44.7221
330 1 7.88363 30.9058 30.1268
331 1 16.048 39.2399 52.4089
332 1 0.530824 44.3013 11.9249
333 1 16.1221 13.7599 10.5428
334 1 33.471 34.9202 22.8612
335 1 35.301 13.0885 51.0463
336 1 50.0902 21.2833 13.1577
337 1 0.969516 34.0425 7.47373
338 1 9.40112 22.941 22.4697
339 1 15.3172 23.8194 44.6747
340 1 24.9328 23.5974 26.0971
341 1 26.5375 51.3797 25.0608
342 1 -0.190309 26.6445 17.9347
343 1 35.6675 14.1103 27.7296
344 1 33.2825 16.0404 11.131
345 1 48.8528 16.7129 3.78708
346 1 0.190208 6.92533 23.5642
347 1 19.7215 18.4345 11.0428
348 1 13.0051 10.2301 22.5437
349 1 4.5483 37.1013 10.3605
350 1 1.78508 53.6014 51.526
351 1 45.0638 35.6271 5.2626
352 1 18.9526 8.41939 52.1998
353 1 24.5411 34.7217 53.5995
354 1 46.4527 37.365 39.6552
355 1 48.6569 28.5154 38.6544
356 1 9.68508 40.1985 42.9341
357 1 20.2147 50.5544 53.0785
358 1 21.7555 24.0985 36.8934
359 1 28.9795 44.883 46.2402
360 1 16.7172 38.3851 45.282
361 1 39.9819 22.1021 43.6013
362 1 0.332342 54.0077 4.54709
363 1 44.3618 18.3995 14.4958
364 1 41.1528 0.440683 33.0885
365 1 40.1324 45.0668 6.57917
366 1 15.3839 34.5365 14.9044
367 1 50.5731 46.9981 38.1643
368 1 40.5294 44.8493 26.5157
369 1 33.2575 14.2769 16.099
370 1 3.5267 40.734 50.5583
371 1 19.3043 27.9547 48.8688
372 1 13.7512 22.5687 33.7265
373 1 21.6127 0.0168235 38.5111
374 1 47.1768 50.4612 2.54659
375 1 4.14476 53.0582 35.0044
376 1 42.6466 48.7408 25.3639
377 1 7.6771 23.5501 52.8398
378 1 29.1129 52.8887 21.3201
379 1 51.4787 39.4406 20.3604
380 1 10.7789 13.0264 26.8209
381 1 26.218 50.428 28.8193
382 1 54.987 22.4745 8.38126
383 1 12.734 23.4392 22.9768
384 1 49.3613 16.4225 32.8051
385 1 29.7399 9.14003 19.706
386 1 35.9659 38.8305 23.233
387 1 21.2506 33.8288 39.475
388 1 24.2918 6.96038 40.326
389 1 26.7483 11.1031 14.2623
390 1 45.2196 49.0622 31.8783
391 1 6.97138 9.19478 7.01234
392 1 48.2532 49.0712 37.2954
393 1 3.24953 27.7465 0.991738
394 1 3.03557 37.7713 46.4398
395 1 55.0007 7.68344 48.158
396 1 14.8536 5.26434 24.0628
397 1 49.8206 26.0433 22.3098
398 1 21.6823 28.8951 3.91412
399 1 6.85031 54.1075 41.7963
400 1 35.6818 42.8796 27.3961
401 1 18.4401 30.5101 24.6929
402 1 31.7519 48.1554 43.7751
403 1 13.2496 42.3938 28.2786
404 1 26.6427 34.6497 45.8769
405 2 19.7639 8.0738 14.0528
406 2 36.3112 30.9464 7.74598
407 2 34.4569 13.2619 12.8299
408 2 24.8445 49.5378 12.7746
409 2 47.0338 0.253365 16.5434
410 2 36.625 49.2002 16.3836
411 2 5.61825 41.5487 16.9956
412 2 53.5814 8.84459 35.8732
413 2 31.0419 21.6518 45.361
414 2 12.6336 34.8985 47.7321
415 2 55.8419 51.5846 9.39743
416 2 51.9829 43.0213 55.0769
417 2 44.3355 5.14375 10.27
418 2 7.38977 36.1799 11.2883
419 2 15.5702 54.5131 22.6516
420 2 23.8128 23.2079 23.1641
421 2 41.2214 49.5549 9.78014
422 2 32.0133 16.2128 8.19479
423 2 8.19728 0.30857 43.2633
424 2 52.1026 10.553 4.77733
425 2 48.0119 51.9491 38.8439
426 2 37.3645 8.50553 38.2081
427 1 29.7788 29.9552 56.0685
428 1 4.37234 53.6713 52.3799
429 1 55.861 27.7636 51.1297
430 1 51.8717 54.8298 9.86629
431 1 19.9968 47.8444 26.2795
432 1 42.5167 8.27438 6.38654
433 1 39.9509 24.6375 13.848
434 1 13.0123 22.3431 44.6124
435 1 22.9222 52.2751 8.6304
436 1 32.5409 32.1353 48.41
437 1 26.2221 24.3876 33.3774
438 1 46.8327 3.23606 35.3453
439 1 1.6175 38.2409 53.9349
440 1 9.02983 25.508 29.627
441 1 22.4131 14.3543 10.9613
442 1 42.7752 18.6384 16.7838
443 1 41.725 11.0818 27.5742
444 1 51.9394 42.1049 47.2917
445 1 5.25122 14.8097 17.7597
446 1 38.4276 31.7089 39.9015
447 1 20.8503 51.9775 10.5274
448 1 44.4608 3.12155 56.0346
449 1 54.2164 6.91471 28.8901
450 1 51.2176 32.96 0.398012
451 1 27.6458 49.3584 14.56
452 1 48.407 12.1532 22.7923
453 1 9.20968 21.3664 33.9603
454 1 5.57828 35.6113 51.9023
455 1 6.7627 21.9883 23.6891
456 1 46.3856 3.71602 51.5709
457 1 53.4522 38.983 18.4334
458 1 27.2922 20.1601 36.4303
459 1 2.93322 34.8815 9.73303
460 1 29.6929 0.527468 34.4131
461 1 8.10046 16.5457 17.4014
462 1 48.516 27.7273 9.43048
463 1 15.4839 2.3454 7.48857
464 1 31.7592 52.5458 22.8002
465 1 7.70966 46.9531 17.5911
466 1 5.04018 47.6495 5.41918
467 1 47.241 11.0157 38.1823
468 1 45.1042 54.1667 7.12098
469 1 14.845 43.4467 24.5829
470 1 28.6818 0.45836 15.4349
471 1 26.7242 9.9684 3.51897
472 1 15.3276 38.0994 28.0795
473 1 48.6196 38.7637 46.5776
474 1 40.101 12.5183 16.6484
475 1 22.8024 24.9182 20.5206
476 1 12.1529 21.8891 40.3567
477 1 48.8877 3.16863 37.2175
478 1 41.5597 7.68248 13.6837
479 1 55.6173 25.8549 35.2278
480 1 40.8557 8.49086 3.73144
481 1 25.622 1.50661 51.1856
482 1 29.6793 37.2821 22.7147
483 1 46.4405 19.2529 34.335
484 1 5.95433 37.3423 7.27281
485 1 18.2952 45.4154 25.1086
486 1 47.2782 7.89181 42.8922
487 1 20.991 12.7511 22.0113
488 1 5.9189 47.661 25.5208
489 1 2.63922 44.3297 13.6314
490 1 24.4214 49.749 26.0976
491 1 13.3134 29.5445 47.1348
492 1 27.1037 24.6404 41.8416
493 1 44.3008 30.213 33.7756
494 1 4.84247 54.4772 13.6787
495 1 11.5909 33.865 13.1608
496 1 39.3489 17.7375 37.2683
497 1 7.36207 17.2218 31.9433
498 1 19.5509 20.2752 8.91306
499 1 33.6982 29.9384 20.0079
500 1 51.5847 3.25097 36.2894
501 1 16.3474 50.738 43.5143
502 1 50.7562 42.9463 6.8066
503 1 42.6598 21.0506 42.8972
504 1 39.8276 46.9993 32.0446
505 1 38.3242 27.6623 3.94113
506 1 22.4142 27.3138 41.9464
507 1 53.3172 54.4173 32.2064
508 1 10.4801 43.2113 17.484
509 1 53.4611 29.3351 8.04059
510 1 30.8506 0.779199 3.71302
511 1 49.9786 5.67118 6.07057
512 1 14.2997 50.3512 12.8531
513 1 33.3028 30.1837 29.3337
514 1 28.3255 27.9428 21.0833
515 1 29.317 12.7313 27.2605
516 1 5.40366 40.6623 37.3176
517 1 15.4827 3.23545 0.114793
518 1 24.4397 12.2797 13.4023
519 1 8.03839 12.0705 45.0177
520 1 35.7065 17.5187 4.42946
521 1 45.9708 24.7278 32.2578
522 1 7.42192 17.1902 0.718431
523 1 38.7177 1.69421 25.8411
524 1 40.0124 51.5591 32.3639
525 1 25.7987 41.6017 22.4837
526 1 26.5411 15.6534 30.4128
527 1 29.37 54.7597 23.4935
528 1 2.49314 6.66061 6.64977
529 1 40.2512 8.4709 33.8209
530 1 38.0718 16.7319 18.3728
531 1 40.4994 10.5065 49.0607
532 1 35.4156 9.90053 11.8419
533 1 43.0443 6.35224 20.6595
534 1 19.754 35.6407 20.21
535 1 43.2192 2.70107 38.3226
536 1 38.8981 22.5434 15.5876
537 1 18.9577 22.4024 20.9296
538 1 6.65517 27.5624 2.70457
539 1 28.676 37.9353 33.1826
540 1 48.0979 12.0247 16.5103
541 1 42.6774 5.91145 7.5729
542 1 32.8918 48.0255 35.9591
543 1 37.8007 44.8513 35.0489
544 1 31.6511 34.6236 15.1093
545 1 51.9418 24.857 5.87787
546 1 23.7421 50.9161 40.9021
547 2 15.5373 40.8285 26.4637
548 2 12.7625 46.7244 1.14911
549 2 35.1362 47.7313 25.6378
550 2 55.5862 51.641 13.0711
551 2 52.5927 7.02587 17.0149
552 2 9.93704 6.66619 35.261
553 2 37.6022 9.96063 16.7981
554 2 23.2704 5.71624 53.0558
555 2 14.882 13.0389 21.657
556 2 12.6128 41.563 42.9998
557 2 13.9361 5.87851 34.0572
558 2 17.425 33.0868 3.33321
559 2 40.0675 17.0439 21.1936
560 2 5.30179 16.3535 29.4287
561 2 38.5237 12.6413 50.762
562 2 3.98515 19.7444 28.6011
563 2 30.1675 47.0582 34.9572
564 2 16.8268 5.04948 39.9322
565 2 20.0825 22.2834 34.8417
566 2 31.1588 13.5767 38.8945
567 2 44.8601 38.3642 0.527818
568 2 43.3996 18.147 20.2754
569 1 15.0759 1.58426 19.7843
570 1 52.265 36.6437 49.4685
571 1 20.2758 14.3484 5.88443
572 1 46.3965 15.0324 53.2491
573 1 15.708 15.4911 26.0804
574 1 30.1384 46.1056 17.1211
575 1 30.2034 49.6334 42.3029
576 1 14.123 0.00427007 11.6287
577 1 1.7172 6.33875 15.1988
578 1 55.5163 39.8069 44.3748
579 1 33.9925 45.0173 48.5148
580 1 21.1714 32.1201 6.18636
581 1 37.5005 10.2667 29.241
582 1 12.1409 41.2459 38.1097
583 1 45.5519 25.3555 17.9542
584 1 28.9223 40.8153 29.0462
585 1 33.2989 8.31138 23.3589
586 1 55.3686 0.290095 31.1546
587 1 10.822 1.71293 7.48861
588 1 9.22447 43.9474 46.9516
589 1 34.4547 47.2374 49.8502
590 1 -0.189907 7.44908 6.80179
591 1 13.0954 9.68915 30.9589
592 1 52.7503 33.0221 6.66051
593 1 18.8417 24.9818 33.6317
594 1 2.67375 42.4015 41.8884
595 1 34.0145 11.9432 43.7518
596 1 3.32097 4.98568 39.4838
597 1 29.1268 51.6392 7.52501
598 1 48.8614 47.3256 25.0878
599 1 5.19616 3.72468 13.2872
600 1 11.5914 32.9122 4.59369
601 1 22.022 42.209 54.2539
602 1 3.02214 42.427 15.4999
603 1 26.9554 35.5113 52.2155
604 1 5.54706 21.9547 30.0441
605 1 28.1231 43.3717 27.6623
606 1 27.3722 46.796 30.1561
607 1 39.0261 14.1404 33.8374
608 1 36.8547 4.59957 49.5847
609 1 33.9399 30.4826 12.7906
610 1 43.626 5.71272 44.8606
611 1 20.9487 44.8739 30.8778
612 1 18.0619 46.6036 45.4343
613 1 3.4741 51.2561 0.949498
614 1 53.7467 33.4221 10.9868
615 1 5.80153 42.9037 41.5389
616 1 38.3074 3.61469 54.4317
617 1 16.2506 11.6055 51.7424
618 1 5.34386 55.4776 53.966
619 1 36.4731 11.443 27.0198
620 1 28.0799 27.0649 25.7854
621 1 53.044 8.72884 27.2475
622 1 3.76053 29.6405 43.8074
623 1 15.1171 44.4191 11.9531
624 1 27.7724 9.32969 55.0688
625 1 10.1946 15.0282 25.2987
626 1 39.1736 27.5764 22.5218
627 1 33.2821 38.1005 1.66079
628 1 31.6722 10.2804 17.4569
629 1 41.9464 46.6451 10.8999
630 1 39.6762 55.8038 22.4898
631 1 43.656 28.9508 14.0455
632 1 4.72063 32.3526 26.7945
633 1 15.7317 6.30101 49.5764
634 1 47.8791 45.7322 17.6588
635 1 29.4857 44.9667 23.4411
636 1 5.98782 6.98351 17.3242
637 1 0.915902 14.9857 39.8912
638 1 32.6845 47.3259 55.5867
639 1 28.6479 5.33676 4.59052
640 1 21.9003 53.4436 6.37506
641 1 55.7846 47.4557 35.6743
642 1 53.7187 18.7326 10.5726
643 1 41.3203 27.8109 24.4452
644 1 20.2467 42.6245 45.8817
645 1 0.721594 19.503 41.007
646 1 13.0067 31.3907 12.6209
647 1 3.52108 29.4872 8.60189
648 1 19.4876 16.9628 5.28924
649 1 20.5258 20.3951 19.7626
650 1 15.0826 3.97425 3.19957
651 1 30.3446 33.3184 33.0846
652 1 53.0522 12.4297 40.9936
653 1 52.1022 30.5917 51.0796
654 1 29.6923 34.2353 56.0337
655 1 40.9558 4.3788 30.3497
656 1 36.3936 52.1197 40.219
657 1 55.9219 34.7851 20.5108
658 1 24.7885 8.44771 54.7611
659 1 38.6718 39.8318 50.4057
660 1 1.61495 44.0222 6.70951
661 1 45.9533 36.4906 12.7648
662 1 15.6702 41.6632 43.9405
663 1 20.3571 35.6338 37.7093
664 1 53.2973 16.8168 28.1487
665 1 34.1676 43.1066 22.8036
666 1 15.314 9.6341 26.1346
667 1 35.4445 16.8257 28.3062
668 1 47.4746 12.2379 44.2972
669 1 51.0374 22.6984 15.7645
670 1 47.0267 3.10343 11.0328
671 1 32.4616 4.5157 25.2653
672 1 1.71318 18.6905 9.03953
673 1 11.5561 4.23404 35.8209
674 1 46.2527 51.3359 7.85543
675 1 23.3338 7.93573 32.8652
676 1 53.8067 16.7641 24.0667
677 1 56.0088 36.0142 54.0749
678 1 15.8251 55.4989 18.057
679 1 52.5594 12.3515 21.9953
680 1 28.4251 31.9909 45.8362
681 1 0.298881 26.2885 49.018
682 1 7.55386 3.12366 44.7816
683 1 43.2095 13.0654 21.0441
684 1 38.3269 32.2208 37.1646
685 1 22.8902 54.9329 15.1657
686 1 44.6452 14.8875 11.3434
687 1 47.1729 55.0996 28.4315
688 1 20.2534 7.25542 33.5519
689 2 21.8055 49.6506 24.2181
690 2 29.985 50.2662 10.0421
691 2 34.4957 26.8539 38.7484
692 2 8.30762 42.3913 49.4544
693 2 44.6889 48.1859 22.5382
694 2 3.11661 51.5023 54.2799
695 2 17.6235 15.3062 45.2344
696 2 16.4065 40.6797 8.1598
697 2 1.54141 18.071 36.3228
698 2 17.0663 18.7529 6.98927
699 2 44.7024 11.5344 39.9525
700 2 38.5571 4.80294 3.70061
701 2 53.7124 27.4779 5.5216
702 2 36.0345 28.8321 27.1422
703 2 48.9671 45.9252 44.2353
704 2 54.2723 12.8235 17.5948
705 2 2.62073 36.8663 7.51387
706 2 2.28961 40.3752 44.387
707 2 47.5886 17.1272 19.0233
708 2 43.3164 54.3344 0.591342
709 2 44.0296 30.3915 42.0582
710 2 52.9279 48.551 30.8276
711 1 36.9137 2.00207 45.9978
712 1 17.8095 25.2334 49.0801
713 1 1.28869 49.4445 44.2597
714 1 37.6825 30.3583 24.9635
715 1 0.944791 11.2248 44.7967
716 1 2.69325 15.7508 51.0736
717 1 47.3638 0.9962 3.44839
718 1 4.48056 41.77 56.0389
719 1 42.2273 16.9965 52.344
720 1 19.3348 16.4766 13.3711
721 1 31.2536 6.46082 5.15136
722 1 31.9644 37.6545 55.5161
723 1 19.2515 15.0436 15.7257
724 1 48.5044 37.4386 53.6579
725 1 13.1601 45.5565 35.0108
726 1 29.8606 41.4071 41.8706
727 1 32.7851 55.5491 18.9852
728 1 27.7607 0.45729 55.7929
729 1 41.2406 1.65636 52.0599
730 1 5.72105 7.04331 36.4373
731 1 54.1079 10.8039 20.1237
732 1 12.8638 1.03736 14.9964
733 1 35.9745 52.9653 55.3241
734 1 37.4123 43.675 17.9094
735 1 39.8561 9.76784 1.24739
736 1 51.9063 18.9576 50.7194
737 1 30.9163 41.753 27.3786
738 1 0.528083 11.8076 6.58312
739 1 21.9724 16.8751 2.91928
740 1 40.4534 34.9838 49.3688
741 1 53.8942 9.51416 32.8384
742 1 18.8821 40.2793 6.12509
743 1 44.7076 29.2218 27.2446
744 1 33.2531 55.589 40.3119
745 1 45.0834 12.6093 13.1565
746 1 20.2718 17.8811 20.6193
747 1 0.633624 2.98774 36.6128
748 1 46.1347 54.948 2.59714
749 1 16.9448 13.4457 42.4566
750 1 23.6201 18.676 1.9095
751 1 18.8619 32.816 33.6913
752 1 15.0527 48.3375 38.83
753 1 20.0204 9.86777 43.4117
754 1 36.4825 53.8751 27.1731
755 1 29.3014 18.0795 18.2257
756 1 31.6754 49.2412 53.7304
757 1 7.1804 19.6822 29.8197
758 1 54.8542 27.1311 20.3836
759 1 44.9001 7.13827 18.6492
760 1 19.4166 32.3552 54.5563
761 1 48.6952 15.1491 46.7572
762 1 30.5146 52.6016 11.9541
763 1 24.4337 17.7296 8.73516
764 1 18.3416 13.2333 21.3324
765 1 42.302 19.9669 40.201
766 1 19.5857 35.709 3.14084
767 1 4.62393 51.7927 28.7542
768 1 25.83 22.3573 35.3225
769 1 18.3534 48.5318 54.6161
770 1 18.9299 3.66525 4.71422
771 1 11.8275 38.5435 44.2703
772 1 29.5621 12.9574 52.5164
773 1 10.3265 16.5825 45.7076
774 1 33.4264 2.69756 27.2112
775 1 46.244 41.5966 30.12
776 1 25.2656 56.019 22.2933
777 1 46.1787 47.8348 25.5265
778 1 22.0641 33.6356 47.8332
779 1 40.7628 26.93 44.6036
780 1 31.294 47.4916 40.9614
781 1 20.1692 38.1692 25.1223
782 1 4.64992 18.9221 15.5296
783 1 50.3626 0.890614 36.6641
784 1 44.1633 27.7307 24.0126
785 1 27.4911 26.0466 48.7309
786 1 15.6948 7.63691 42.1625
787 1 5.57977 31.0142 54.0369
788 1 2.54643 10.5069 37.24
789 1 15.5343 46.3959 28.2405
790 1 51.4317 29.6636 43.5501
791 1 36.2307 18.7031 24.6237
792 1 26.2252 55.2322 19.5804
793 1 2.61862 50.1985 22.3059
794 1 30.0272 25.85 27.8552
795 1 55.6684 21.5929 37.0049
796 1 44.3198 12.435 4.38731
797 1 18.9229 11.3153 13.9804
798 1 42.5571 28.9521 54.2837
799 1 16.1695 35.5843 12.0518
800 1 17.3624 30.6894 55.0992
801 1 49.0003 48.3107 11.1134
802 1 21.2209 15.5119 37.0299
803 1 39.9033 45.4221 40.0622
804 1 52.1732 36.5145 9.78599
805 1 38.745 44.5044 32.1239
806 1 13.4416 15.2076 37.1287
807 1 55.753 16.0128 34.9806
808 1 48.9219 7.96372 38.5336
809 1 10.2852 12.3108 1.44841
810 1 8.09217 40.7369 32.0559
811 1 33.5939 21.9942 48.1035
812 1 53.9254 16.3405 44.7936
813 1 0.69269 11.3136 2.52669
814 1 45.6316 4.97956 20.1562
815 1 4.63297 8.70975 41.6062
816 1 49.5263 4.68813 35.0515
817 1 44.3733 43.5589 29.1451
818 1 54.8185 48.5695 55.3678
819 1 18.2708 37.1459 43.3299
820 1 53.226 28.1317 38.1425
821 1 32.1793 29.6238 38.5965
822 1 0.955459 4.03754 29.002
823 1 53.8597 46.3308 38.1818
824 1 54.4463 0.00445339 28.2299
825 1 17.1966 54.3137 30.0051
826 1 16.5631 50.3171 4.07966
827 1 19.8457 33.6343 22.6929
828 1 35.5922 23.4151 26.1216
829 1 49.5032 55.9578 29.5773
830 1 51.3334 43.5338 4.3304
831 2 7.16139 40.2497 40.1002
832 2 24.0139 14.3415 3.28972
833 2 20.21 43.3443 23.3636
834 2 43.1393 26.8895 46.6845
835 2 24.9852 -0.0670632 27.8043
836 2 23.6423 14.3218 32.4145
837 2 15.746 26.9653 17.5071
838 2 23.1999 42.4578 47.617
839 2 28.5795 35.4611 31.3924
840 2 19.7932 16.0775 53.5925
841 2 15.7204 27.4956 26.52
842 2 47.2793 9.40418 45.7928
843 2 42.2504 1.458 29.9947
844 2 31.2118 15.3592 18.433
845 2 8.64782 51.8151 16.0253
846 2 41.4469 41.0316 48.5908
847 2 48.4918 54.9323 10.4573
848 2 47.8629 44.6297 26.0946
849 2 23.2132 17.427 34.8801
850 2 22.5363 31.9211 44.2927
851 2 48.2347 0.0540651 53.73
852 2 46.4619 38.7507 20.4226
853 1 35.9825 46.5295 9.47273
854 1 30.181 42.2874 46.7072
855 1 47.6462 26.5225 15.1105
856 1 10.1939 23.7229 34.6895
857 1 55.2822 17.0199 40.2649
858 1 14.3187 50.2925 48.9287
859 1 35.2033 24.4526 40.8919
860 1 9.24182 37.6475 3.96941
861 1 51.8558 36.4222 29.0827
862 1 54.7711 30.7809 5.53287
863 1 33.2921 11.427 10.4307
864 1 47.4554 26.569 49.6264
865 1 14.7467 26.4289 14.4029
866 1 12.0589 34.0996 0.00493527
867 1 50.6806 21.7683 37.2887
868 1 49.1426 1.71335 34.3681
869 1 53.6645 26.2704 52.7429
870 1 33.2649 24.6712 21.0093
871 1 10.1982 28.1435 15.1092
872 1 53.1639 37.7301 40.3989
873 1 12.8049 39.3669 32.0798
874 1 54.1394 46.3334 1.35685
875 1 41.6986 29.1843 48.019
876 1 0.0941705 16.5578 31.3772
877 1 0.0297664 27.4728 22.7104
878 1 4.33945 35.8079 20.3877
879 1 10.4527 14.3104 31.2517
880 1 51.5593 11.4061 1.98807
881 1 31.8651 13.3347 48.0444
882 1 44.9351 22.4936 52.4574
883 1 26.6524 14.3435 13.5799
884 1 51.3313 54.2528 36.2684
885 1 29.9811 23.1387 1.2854
886 1 39.2814 47.8595 1.80165
887 1 7.0819 15.7152 19.9378
888 1 2.92509 30.065 46.8226
889 1 46.3624 7.7492 34.1318
890 1 54.6269 2.94633 6.35071
891 1 53.2272 20.5322 37.8826
892 1 37.6296 54.6862 20.659
893 1 14.3229 51.1962 33.9419
894 1 9.06453 41.1784 9.77538
895 1 3.80513 49.4278 40.305
896 1 2.62879 40.9785 17.8982
897 1 28.2143 53.3288 10.3971
898 1 41.2596 35.5022 42.6964
899 1 16.8824 19.1484 32.3354
900 1 9.32129 27.8856 1.99902
901 1 34.2245 37.5009 41.8816
902 1 25.4851 45.951 25.9635
903 1 3.80634 26.5732 8.94122
904 1 35.8578 35.6143 11.462
905 1 28.1591 30.3945 22.4092
906 1 17.4034 35.9524 7.1184
907 1 34.9545 50.76 14.005
908 1 1.29807 6.27254 34.908
909 1 40.3855 3.46895 42.4006
910 1 52.1481 38.2862 7.65879
911 1 13.0215 8.77797 25.0667
912 1 16.9021 18.4632 37.0578
913 1 4.01729 45.1638 6.11155
914 1 53.0403 51.4938 30.9783
915 1 18.3934 21.1029 39.2357
916 1 28.5866 26.4435 40.5634
917 1 35.2759 55.696 4.38932
918 1 50.6823 34.8005 14.6129
919 1 48.4708 40.846 38.3855
920 1 11.9676 38.4313 38.5236
921 1 31.5095 55.1183 11.1631
922 1 17.8011 41.9538 31.9096
923 1 50.231 5.43806 38.5518
924 1 0.62513 11.7275 16.3825
925 1 45.1127 55.6707 4.99503
926 1 27.7598 49.775 51.4816
927 1 52.8791 49.4055 43.4669
928 1 42.3612 12.383 12.8112
929 1 49.9727 32.9784 7.34594
930 1 38.3247 0.836655 19.737
931 1 16.9187 25.6099 31.8035
932 1 12.2874 48.1629 52.3832
933 1 30.5154 7.22456 43.6085
934 1 24.5752 51.3114 54.7519
935 1 5.21241 39.1824 54.9336
936 1 7.55104 32.8132 11.9816
937 1 33.9052 0.811078 42.5772
938 1 36.3826 6.09976 40.4928
939 1 5.49232 29.5079 15.8491
940 1 7.36736 39.0805 53.1429
941 1 36.3563 6.48338 35.5271
942 1 15.2399 46.4986 45.3326
943 1 33.5009 36.6723 34.385
944 1 9.21474 41.4934 15.9053
945 1 44.979 20.8944 44.5114
946 1 9.66113 42.5886 44.3003
947 1 41.129 30.8624 40.8902
948 1 15.5937 55.6464 43.7242
949 1 49.6346 50.0084 15.6387
950 1 39.3124 27.6456 50.6029
951 1 14.9549 43.1367 53.8011
952 1 44.2953 0.563244 48.509
953 1 25.9589 22.3531 51.2478
954 1 10.9234 45.6286 40.6657
955 1 13.1326 22.0592 15.4447
956 1 12.107 20.1823 8.53458
957 1 47.0766 43.8141 50.9197
958 1 8.52082 25.2722 36.2502
959 1 31.3103 49.9906 35.6777
960 1 53.7375 14.1015 12.4362
961 1 36.7841 41.2997 42.4005
962 1 55.0649 6.24593 18.8148
963 1 7.94892 30.1535 47.2914
964 1 25.3871 14.8883 44.3258
965 1 15.4164 30.4037 35.5926
966 1 24.7415 42.7704 31.4943
967 1 10.6732 9.71949 11.4207
968 1 42.9026 9.86321 53.5945
969 1 32.1449 37.5396 50.3121
970 1 31.045 17.5363 15.7415
971 1 45.2134 5.91179 42.4751
972 1 52.6122 8.24937 51.6895
973 2 45.3107 4.30175 25.6204
974 2 46.1203 39.3627 35.1177
975 2 53.4979 38.8958 27.795
976 2 17.6564 30.3711 49.78
977 2 52.8838 36.2654 16.1018
978 2 52.2533 36.1557 19.7278
979 2 33.0759 42.3248 40.5946
980 2 55.0828 6.28254 44.8653
981 2 36.5173 11.8611 9.82603
982 2 54.5373 29.7543 49.1267
983 2 12.2202 31.3484 1.4212
984 2 46.3999 22.5032 34.4109
985 2 51.8509 2.46742 13.0566
986 2 7.35188 18.4547 37.7073
987 2 20.2763 6.6363 5.14595
988 2 2.64407 26.6297 51.9591
989 2 39.8167 27.897 32.1225
990 2 54.1807 10.0312 14.9532
991 2 22.9034 21.3787 17.6247
992 2 16.2809 15.4109 54.8806
993 2 1.63786 15.4535 55.7512
994 2 53.4675 22.916 35.361
995 1 54.3792 3.2651 43.6738
996 1 51.4275 25.3367 47.1051
997 1 24.7009 2.11016 48.2132
998 1 3.49975 49.52 27.2938
999 1 25.07 51.3511 52.1427
1000 1 19.7398 8.82693 47.707
1001 1 30.8014 30.4302 36.5546
1002 1 52.4606 26.5307 8.36345
1003 1 13.8438 28.8477 30.4639