ITEM: TIMESTEP
0
ITEM: NUMBER OF ATOMS
9088
ITEM: BOX BOUNDS pp pp pp
-2.7393609813530556e-01 5.6158428724073886e+01
-2.7393609813530556e-01 5.6158428724073886e+01
-2.7393609813530556e-01 5.6158428724073886e+01
ITEM: ATOMS id type x y z
1 1 29.6995 41.5144 51.7489
2 1 44.3086 4.18382 36.5995
3 1 33.7476 0.502219 42.7524
4 1 36.9407 49.1662 43.7867
5 1 11.3064 34.4546 8.36183
6 1 39.2613 30.7416 30.872
7 1 19.8134 33.1632 1.06363
8 1 0.779669 4.62214 6.6297
9 1 55.7709 50.163 40.2008
10 1 37.1393 13.6113 53.2834
11 1 48.3657 35.6155 32.6258
12 1 35.7979 19.2719 36.49
13 1 21.7091 48.6101 36.9682
14 1 22.5435 49.2044 51.4455
15 1 2.98942 36.5563 30.4639
16 1 30.4854 54.2878 33.9282
17 1 49.9344 9.91561 27.7622
18 1 6.87702 52.0685 27.0698
19 1 30.0083 23.9022 52.3234
20 1 31.3433 2.41901 45.0847
21 1 25.0579 49.0944 50.3782
22 1 9.16936 41.5176 1.78643
23 1 21.8016 17.6732 37.8292
24 1 3.25597 7.78786 55.5053
25 1 20.0818 28.3571 40.6399
26 1 20.0228 28.2333 43.5527
27 1 34.7378 29.3506 54.7933
28 1 12.4826 31.707 17.1089
29 1 16.3118 50.9648 43.6055
30 1 44.9534 16.4078 48.5502
31 1 33.7253 6.92258 3.11053
32 1 33.7009 4.95253 23.1847
33 1 24.1356 42.2312 2.54938
34 1 14.5124 24.7573 1.80493
35 1 20.2067 51.0778 40.5179
36 1 18.9917 45.1419 5.45315
37 1 23.3399 56.0485 47.1507
38 1 20.0327 22.7498 0.427857
39 1 13.1034 26.1317 0.0524279
40 1 8.69591 11.2474 47.7917
41 1 46.6675 40.733 1.14323
42 1 5.48473 38.894 15.0675
43 1 21.7491 16.6565 9.63821
44 1 50.6058 52.1964 23.7944
45 1 12.7946 43.6584 55.9512
46 1 -0.176408 17.9973 11.0243
47 1 42.8604 6.22446 32.1135
48 1 18.4236 31.0766 19.8099
49 1 7.15976 22.0621 23.5311
50 1 18.1713 19.846 20.5093
51 1 50.2128 32.1616 30.6184
52 1 22.4002 10.2769 37.2262
53 1 52.6022 20.5761 1.31729
54 1 55.5857 28.6252 40.0781
55 1 39.7806 45.3269 29.3619
56 1 15.1524 19.47 51.9816
57 1 6.89844 33.2711 34.8463
58 1 37.6613 11.333 21.4579
59 1 5.42408 30.482 28.6479
60 1 36.2091 32.5784 54.6285
61 1 12.6935 29.4292 52.4948
62 1 52.9744 22.5896 24.4377
63 1 49.1222 43.4362 28.7523
64 1 22.7447 4.11469 16.0143
65 1 10.8617 42.5792 47.8755
66 1 7.79321 45.1069 9.86994
67 1 11.8427 43.3619 53.2286
68 1 11.393 33.6869 52.6857
69 1 35.3778 39.7105 47.5158
70 1 2.04406 27.9036 4.7821
71 1 51.8222 47.0537 28.3473
72 1 55.6836 29.4606 1.66293
73 1 31.7362 55.0925 11.115
74 1 3.00222 35.6511 45.5662
75 1 37.8958 19.4997 5.1763
76 1 38.8161 23.8224 5.99651
77 1 47.4672 40.1997 31.7702
78 1 38.5654 44.3763 9.59954
79 1 31.8092 23.3848 43.1597
80 1 39.637 -0.0417077 30.7277
81 1 17.2316 27.9312 54.5081
82 1 50.3215 1.2119 23.36
83 1 7.88078 14.9384 27.7674
84 1 36.166 2.03476 3.78701
85 1 39.6413 10.6794 38.4715
86 1 34.5992 34.08 34.7981
87 1 27.4289 9.79157 33.2448
88 1 15.7873 11.3106 12.9125
89 1 3.42612 49.0056 32.7464
90 1 0.999425 39.5895 51.4397
91 1 17.8171 7.73321 21.7306
92 1 9.97394 11.9291 19.2547
93 1 38.5306 9.67793 11.024
94 1 35.8403 34.0416 29.0277
95 1 41.0667 24.5782 18.8711
96 1 7.06099 -0.0744412 14.0021
97 1 3.33926 8.63744 32.9538
98 1 15.2887 13.1851 30.2654
99 1 42.6446 36.8356 5.342
100 1 3.27235 6.30291 27.0983
101 1 0.842455 33.9139 47.5347
102 1 5.14675 1.22202 12.3045
103 1 41.6408 43.2511 56.0427
104 1 14.4331 55.2834 39.2559
105 1 31.6047 14.0555 10.7029
106 1 18.8595 48.2193 47.5729
107 1 43.3709 15.3412 50.2522
108 1 46.7391 17.4905 47.0963
109 1 10.3021 45.9904 16.7747
110 1 31.3197 9.13878 10.7027
111 1 33.2613 53.923 7.60789
112 1 8.45041 5.71474 11.0357
113 1 28.9727 33.2851 11.5434
114 1 24.4167 16.7543 39.9908
115 1 43.066 34.467 31.3348
116 1 31.9762 5.88951 38.0637
117 1 -0.00384355 12.3166 40.5406
118 1 2.09928 49.6159 35.2325
119 1 36.2571 36.4878 33.8741
120 1 14.8436 1.89651 39.9167
121 2 11.9417 38.8498 35.5695
122 2 51.4277 18.6094 12.6807
123 2 55.2439 46.4786 20.7978
124 2 52.592 29.9978 19.9157
125 2 53.7987 35.6456 38.5888
126 2 25.3653 7.44878 17.7265
127 2 12.3864 51.4487 15.5015
128 2 7.55167 30.0885 35.6104
129 2 55.3766 17.9772 7.50395
130 2 1.37661 21.0504 45.9611
131 2 51.8542 11.886 47.1672
132 2 38.699 46.3095 17.8013
133 2 34.7683 42.7117 16.0795
134 2 15.0267 5.15788 8.94625
135 2 42.771 34.1468 3.74662
136 2 9.89774 0.501851 32.287
137 2 40.7249 24.1652 46.1241
138 2 5.09914 4.66371 49.4462
139 2 31.1936 14.8889 13.8476
140 2 45.5136 27.1529 39.0663
141 2 8.05777 38.1342 22.6469
142 2 29.7852 23.2744 40.2564
143 1 48.8002 21.8795 41.6061
144 1 29.2801 17.6181 13.5118
145 1 54.2389 12.4008 6.76548
146 1 52.3366 26.5881 15.3046
147 1 29.531 28.1489 32.663
148 1 26.0046 6.80551 38.2082
149 1 47.7712 6.83716 46.9172
150 1 25.0773 25.5462 9.54032
151 1 51.1536 25.6955 51.9841
152 1 10.3405 33.6232 45.831
153 1 49.8289 48.5397 29.3066
154 1 43.0231 41.9107 30.7842
155 1 32.4379 18.7025 10.6543
156 1 8.31402 32.9944 9.2879
157 1 51.5793 33.9004 22.1261
158 1 43.2531 3.40556 53.9537
159 1 0.362753 45.1076 9.45379
160 1 49.3217 2.73822 2.25755
161 1 10.8897 25.1498 21.5579
162 1 12.897 12.7091 44.3528
163 1 20.0283 21.2977 26.633
164 1 55.6612 38.559 12.1158
165 1 51.5049 35.779 6.94339
166 1 45.1487 41.6133 14.4917
167 1 31.1953 39.6252 46.3513
168 1 42.5128 11.5662 47.3433
169 1 28.8791 48.4 40.618
170 1 39.4743 33.7665 46.8995
171 1 29.223 35.0606 24.9113
172 1 21.2747 43.7094 28.4292
173 1 13.6258 40.113 10.144
174 1 35.3589 1.69521 32.3633
175 1 18.6041 27.7588 16.4108
176 1 39.7005 37.1962 6.68406
177 1 10.1609 4.52496 24.7481
178 1 16.9865 3.65956 11.7807
179 1 25.0203 44.965 46.7848
180 1 55.4339 27.0562 8.36899
181 1 48.9605 42.8438 31.5543
182 1 49.3888 30.3249 52.6678
183 1 13.6181 20.7567 4.29084
184 1 25.9144 52.9411 11.6267
185 1 33.4387 9.90772 34.5609
186 1 44.1873 26.6918 26.7898
187 1 1.33757 7.07239 53.4611
188 1 28.4347 39.3349 3.12492
189 1 13.4307 41.0487 33.9883
190 1 35.4004 48.8251 21.8481
191 1 18.2194 23.4437 40.8368
192 1 49.8449 54.4798 6.34911
193 1 37.1875 9.01872 13.7903
194 1 35.8699 3.72542 30.7031
195 1 12.6887 21.2603 46.9776
196 1 39.0694 0.360061 19.9343
197 1 7.05788 9.23923 49.6593
198 1 9.09193 25.6628 29.1549
199 1 31.6297 18.489 2.96683
200 1 39.76 20.4715 41.1339
201 1 26.7129 13.0427 16.1781
202 1 38.8715 2.14115 2.74929
203 1 31.3893 27.7032 37.3203
204 1 41.066 27.2486 19.4998
205 1 7.81633 12.5501 2.56377
206 1 38.9741 29.4703 21.0155
207 1 51.9773 46.0908 42.8585
208 1 32.0097 5.02074 10.6322
209 1 47.0286 8.75086 48.7737
210 1 27.3632 21.7517 41.8277
211 1 8.48623 5.63111 22.0159
212 1 43.4498 27.3417 43.2851
213 1 22.6012 12.3041 51.434
214 1 0.758553 37.9729 2.55499
215 1 12.0447 30.2465 24.0278
216 1 -0.0481102 24.8009 51.0329
217 1 21.8714 8.56099 35.3238
218 1 1.45083 9.60515 54.298
219 1 43.9921 49.6399 7.62643
220 1 46.9777 11.7149 48.6933
221 1 28.0235 54.3266 15.234
222 1 3.44011 5.05009 19.9908
223 1 26.1783 44.0903 2.78109
224 1 41.8712 46.653 10.7795
225 1 43.7016 49.0588 38.4191
226 1 12.6802 42.1306 25.5087
227 1 20.4073 45.6551 33.1584
228 1 55.9757 20.2151 52.913
229 1 7.96099 29.9832 41.0652
230 1 31.0389 29.8428 41.4081
231 1 31.988 35.2443 25.8454
232 1 40.3729 17.8412 17.981
233 1 50.7945 49.8986 38.3727
234 1 10.5581 14.1295 50.9937
235 1 38.1093 23.035 41.7898
236 1 1.42712 50.0702 30.5872
237 1 53.2347 29.7156 23.6948
238 1 36.2355 0.350349 1.60754
239 1 34.0558 28.7771 5.96871
240 1 9.2735 32.8283 51.1793
241 1 20.3333 48.9684 10.7808
242 1 33.1268 10.9712 2.92574
243 1 5.67571 21.8249 30.3128
244 1 3.18812 41.1755 10.172
245 1 1.30266 27.83 20.1247
246 1 4.22808 0.665676 56.1214
247 1 55.5553 48.3682 13.7587
248 1 44.2169 0.570215 45.7923
249 1 10.7191 44.997 48.809
250 1 23.5368 24.7076 17.9471
251 1 17.0817 35.9083 7.22991
252 1 47.8229 16.6149 38.6246
253 1 2.53402 27.2484 48.1874
254 1 12.3768 8.94677 35.22
255 1 55.101 9.10416 18.1597
256 1 31.011 47.4444 24.738
257 1 1.19956 12.1508 34.7568
258 1 33.5565 18.1159 27.6179
259 1 45.4145 45.9774 55.0609
260 1 25.0222 41.4923 34.035
261 1 32.3485 10.6132 39.6427
262 1 23.0899 37.054 11.215
263 2 43.9984 24.6873 29.428
264 2 25.2469 46.8831 1.53513
265 2 49.8345 7.17021 49.3668
266 2 7.03736 24.4595 38.7243
267 2 14.6055 21.2915 1.47723
268 2 4.6686 3.04596 24.8266
269 2 15.029 2.3045 16.479
270 2 44.3916 43.4252 53.6971
271 2 54.0363 44.7705 26.0794
272 2 33.0126 39.9711 13.8231
273 2 33.0931 6.12336 34.9416
274 2 53.0076 26.8763 30.7946
275 2 27.2722 7.05561 53.3143
276 2 56.0874 14.075 4.45031
277 2 1.10688 43.0253 39.3241
278 2 11.5629 34.4042 18.7177
279 2 43.9645 51.484 46.9033
280 2 19.9115 55.4562 22.1545
281 2 41.7943 16.7922 14.5617
282 2 15.2019 28.7821 8.0625
283 2 46.651 48.1128 28.937
284 2 16.9787 27.0456 35.2651
285 1 4.75864 35.4478 5.61239
286 1 49.1941 34.8134 20.5948
287 1 44.5905 1.32138 36.0413
288 1 23.649 14.3797 25.2353
289 1 24.4865 35.167 5.68209
290 1 51.0852 12.748 24.0506
291 1 16.0844 45.8407 35.0575
292 1 40.8728 5.25607 44.0349
293 1 54.61 19.7061 55.2882
294 1 30.8236 32.9866 41.8127
295 1 47.2298 25.161 29.7703
296 1 12.2397 32.364 35.5254
297 1 48.4017 14.4534 33.8762
298 1 30.8432 22.309 13.2614
299 1 34.1185 17.0335 17.1302
300 1 24.8349 31.9917 9.2293
301 1 24.6125 50.093 23.2538
302 1 46.7947 33.4894 25.998
303 1 53.7415 3.29529 1.68114
304 1 16.2107 35.1272 54.9276
305 1 25.4149 38.8885 22.997
306 1 28.9077 52.2028 32.8615
307 1 5.04113 40.2344 32.2595
308 1 39.5895 53.8651 45.3669
309 1 49.4891 30.7868 28.5736
310 1 10.9176 49.5879 37.3211
311 1 38.2848 35.0246 5.50104
312 1 10.4355 7.80831 26.0318
313 1 4.78822 55.6766 17.9491
314 1 28.9371 47.6113 53.2935
315 1 4.47284 6.30615 14.5909
316 1 43.8954 10.2549 10.4296
317 1 30.4355 32.3003 38.9305
318 1 6.0742 23.0188 11.22
319 1 3.11969 2.46039 18.1603
320 1 18.9893 33.818 25.2529
321 1 26.1457 38.8018 34.0028
322 1 55.3032 21.7958 23.1488
323 1 9.24335 8.27772 32.5621
324 1 18.6173 8.80569 32.3068
325 1 21.6349 46.0376 42.9895
326 1 16.6137 32.2381 41.08
327 1 14.8402 11.2523 35.2927
328 1 0.107588 8.13443 36.6174
329 1 4.6111 24.9014 44.8389
330 1 8.3773 30.7421 30.1199
331 1 15.6619 39.5808 52.3905
332 1 0.355283 45.946 14.2009
333 1 16.827 7.91463 9.34598
334 1 33.5754 34.9876 22.6056
335 1 39.5783 5.32463 48.3344
336 1 50.2773 21.5384 13.2465
337 1 0.85516 34.3365 7.60129
338 1 9.6717 23.0257 22.5844
339 1 16.5248 20.646 42.4264
340 1 25.0934 23.3395 26.0656
341 1 26.5588 50.8072 25.279
342 1 -0.265305 27.2023 17.9076
343 1 36.1138 14.0649 27.5606
344 1 33.0288 16.0146 11.6114
345 1 48.7515 16.7911 4.11166
346 1 0.662495 6.68614 23.6457
347 1 19.6995 18.3709 11.1799
348 1 12.7769 10.4027 22.6018
349 1 4.26809 37.1898 10.6684
350 1 0.45853 49.4849 50.5912
351 1 45.1969 35.6038 5.22928
352 1 18.7746 8.26451 52.3096
353 1 24.4777 34.8256 53.7841
354 1 46.1318 39.6971 38.1745
355 1 48.735 28.4117 38.658
356 1 9.59694 39.9215 42.8567
357 1 19.78 49.4894 50.0341
358 1 14.3352 17.4898 50.2984
359 1 29.0783 44.7273 46.5881
360 1 16.4092 38.2011 45.5469
361 1 42.3215 17.4264 48.6002
362 1 55.183 51.536 5.6825
363 1 44.5622 18.2975 14.7693
364 1 41.2279 0.685688 33.1327
365 1 36.4274 54.4931 12.4984
366 1 15.216 34.9911 14.719
367 1 50.7008 46.9091 38.1233
368 1 40.6882 45.1886 26.5805
369 1 33.3797 14.4367 16.2388
370 1 3.37361 40.7425 50.8934
371 1 16.9445 27.9635 47.324
372 1 13.731 22.2938 33.6697
373 1 17.4063 51.7915 41.094
374 1 47.5323 50.4202 2.66765
375 1 1.54508 52.333 36.1653
376 1 42.5955 49.3082 24.9528
377 1 6.0195 21.6158 55.8783
378 1 29.0262 52.5911 21.3145
379 1 51.2743 39.1324 20.8182
380 1 10.9161 13.0944 27.108
381 1 26.2419 50.292 28.9196
382 1 55.3203 22.811 8.35516
383 1 11.1825 19.25 23.5897
384 1 49.3541 16.5487 32.683
385 1 29.984 9.07607 19.6065
386 1 35.9394 38.8865 23.2606
387 1 20.0259 36.0896 37.4581
388 1 24.2971 7.00576 40.5498
389 1 26.3298 11.4331 14.1089
390 1 45.2937 48.9764 31.9075
391 1 6.58819 9.06786 6.92393
392 1 48.2822 49.0875 37.5456
393 1 3.20981 27.655 0.947776
394 1 3.06339 37.9439 46.6057
395 1 55.0855 7.68046 48.3
396 1 14.6977 6.6465 26.4835
397 1 49.9044 25.8542 22.017
398 1 18.0241 27.7266 51.8124
399 1 6.84936 54.4039 42.0776
400 1 35.7761 43.015 27.732
401 1 18.6924 30.8792 24.915
402 1 31.762 48.1431 44.0289
403 1 13.4403 42.8334 28.0577
404 1 26.621 34.7779 45.9432
405 2 19.7903 7.90847 14.3128
406 2 36.2694 31.0215 7.79179
407 2 34.3858 13.176 12.7322
408 2 24.9036 49.6472 12.8472
409 2 46.0935 -0.162644 16.2141
410 2 36.4575 49.0506 16.3658
411 2 5.72751 41.4022 16.9896
412 2 53.5065 8.85507 35.9616
413 2 31.1793 21.5504 45.5934
414 2 12.43 35.1971 47.8023
415 2 55.6275 51.6501 9.07676
416 2 51.842 42.9546 55.1048
417 2 43.8611 5.05714 10.0509
418 2 7.32217 35.7688 11.1446
419 2 15.5538 54.5286 22.6022
420 2 23.9057 23.1576 23.1693
421 2 41.2886 49.7822 9.69285
422 2 32.0167 16.004 8.10089
423 2 7.81251 0.730931 43.3867
424 2 52.2611 10.7675 4.62382
425 2 48.2372 51.9906 39.0799
426 2 37.4482 8.17972 38.264
427 1 24.8266 27.7102 1.10568
428 1 52.1493 51.7991 1.67016
429 1 55.7815 27.7289 50.9545
430 1 35.0225 2.4649 24.7788
431 1 20.0086 47.454 26.2084
432 1 42.7484 8.18856 6.40634
433 1 39.4543 22.3633 15.5295
434 1 13.2428 25.1821 46.8494
435 1 22.6676 52.5812 8.18985
436 1 32.5115 31.7366 48.3948
437 1 25.8522 23.9739 33.6784
438 1 46.9704 2.75619 35.449
439 1 1.18082 38.2879 54.0524
440 1 8.3099 16.8073 29.4429
441 1 22.4143 14.4319 10.8548
442 1 42.8967 18.4468 17.0764
443 1 39.8897 11.2988 27.6099
444 1 53.1261 41.8556 45.11
445 1 5.10627 14.7723 17.6887
446 1 38.0832 31.5605 40.0954
447 1 20.7321 51.959 10.2181
448 1 36.6727 8.78159 49.7505
449 1 54.3881 6.85715 29.0936
450 1 44.7459 35.1021 1.68484
451 1 28.0681 51.9155 16.5873
452 1 43.735 13.2553 31.1286
453 1 7.81235 24.9376 24.2081
454 1 6.23998 33.8239 54.9337
455 1 17.5491 16.4634 24.209
456 1 46.4761 3.46133 51.4234
457 1 53.5367 38.7318 18.6908
458 1 27.0722 20.0996 36.3046
459 1 2.563 34.7594 9.7156
460 1 31.2245 0.587936 39.2743
461 1 7.70361 16.2365 17.4312
462 1 48.8631 27.8835 9.4189
463 1 14.8853 4.66633 5.55369
464 1 31.6107 52.5312 22.7959
465 1 7.30815 46.7838 17.4133
466 1 2.00079 49.5204 8.34798
467 1 46.8339 11.3261 37.9933
468 1 44.4031 51.5936 5.78434
469 1 13.0705 39.3405 24.0975
470 1 29.0841 0.571033 15.8662
471 1 26.6921 9.56426 3.18319
472 1 13.5391 40.6545 29.5608
473 1 48.7378 38.6598 46.3363
474 1 40.6956 13.5324 13.9819
475 1 23.1945 24.9319 20.4863
476 1 11.4984 22.3227 32.1211
477 1 48.8108 2.99278 37.4675
478 1 41.4627 7.23688 13.5906
479 1 55.7067 25.6812 35.3532
480 1 41.2018 8.6721 3.8443
481 1 25.4251 1.4877 51.35
482 1 29.7966 37.2496 22.6782
483 1 46.1786 19.3355 34.239
484 1 5.97885 37.2654 7.36526
485 1 18.2723 45.4835 25.4251
486 1 47.1894 7.7349 42.9113
487 1 20.9446 12.7214 21.7039
488 1 11.4362 44.1587 21.736
489 1 2.65716 44.4467 13.5879
490 1 24.1118 49.8349 26.1414
491 1 13.2244 29.6662 47.1797
492 1 27.1172 24.3104 41.424
493 1 44.0658 30.3406 34.2102
494 1 4.72224 54.6817 13.6992
495 1 11.9546 33.9008 13.0914
496 1 39.2673 17.7793 37.3101
497 1 7.44106 17.18 32.1939
498 1 19.6243 20.3021 9.06788
499 1 33.803 29.7502 20.1897
500 1 51.2902 2.70462 38.919
501 1 12.9798 50.0629 38.7075
502 1 50.7282 43.0204 7.15804
503 1 37.699 23.6681 44.79
504 1 39.9003 47.0472 31.8162
505 1 40.2749 25.8809 5.25376
506 1 22.5676 27.9824 42.0184
507 1 53.4656 54.4229 32.2652
508 1 10.5096 43.3344 17.3352
509 1 53.5613 29.1874 8.03977
510 1 30.7013 0.677938 3.5469
511 1 49.9581 6.03637 6.04753
512 1 14.2224 50.9118 12.7043
513 1 28.3917 33.1226 29.7264
514 1 27.9841 27.9307 20.8414
515 1 29.3161 12.4288 27.4222
516 1 5.0956 40.6467 37.3877
517 1 15.4227 3.18995 0.0228912
518 1 23.947 12.4018 13.4492
519 1 7.93191 12.1459 45.3051
520 1 35.9223 17.6163 4.89201
521 1 46.2425 24.7155 32.5301
522 1 7.46101 17.235 0.715147
523 1 38.7353 1.53052 26.0046
524 1 39.8157 51.8136 32.185
525 1 25.8174 41.2888 22.1866
526 1 29.625 14.898 30.1532
527 1 28.8567 54.722 23.3694
528 1 2.26662 6.72092 6.02768
529 1 40.5163 8.36127 33.6852
530 1 37.9624 12.8661 14.7107
531 1 53.3541 10.76 38.8008
532 1 35.4649 9.81776 11.5284
533 1 39.2346 7.42616 17.9209
534 1 19.3416 36.0914 20.0321
535 1 44.0521 56.058 31.694
536 1 38.811 17.8643 15.7124
537 1 19.1612 22.3757 21.0377
538 1 6.13761 24.2188 55.102
539 1 28.5978 37.8088 33.1376
540 1 48.2989 11.6202 16.0464
541 1 42.6281 6.01371 7.62093
542 1 32.9854 48.3505 36.0625
543 1 37.9134 44.9512 35.3056
544 1 31.581 34.7604 15.3708
545 1 52.2945 24.8437 5.94209
546 1 22.0647 52.3386 42.9131
547 2 15.4425 40.5913 26.7061
548 2 12.547 47.0223 1.08101
549 2 34.8212 47.9016 25.7436
550 2 55.4689 51.6669 13.2338
551 2 52.8569 6.92138 17.1266
552 2 9.9745 6.63788 35.3039
553 2 37.6564 10.3859 16.5885
554 2 23.5905 5.85438 53.3055
555 2 14.6449 12.8344 21.6178
556 2 12.3192 41.4338 43.2548
557 2 13.8436 5.73884 33.9432
558 2 17.5182 33.2264 3.12166
559 2 40.2302 16.9404 20.9424
560 2 5.27506 16.6106 29.6327
561 2 39.0293 12.9535 50.7667
562 2 4.09052 19.5759 28.5614
563 2 30.0894 47.0249 34.9689
564 2 16.7313 5.14666 40.2
565 2 20.3719 21.892 35.1179
566 2 31.3017 13.6115 39.0393
567 2 44.5254 38.2793 0.365044
568 2 44.0039 18.1792 20.0227
569 1 14.7551 1.32138 19.3296
570 1 50.8545 35.1069 50.4616
571 1 20.3966 14.5208 5.69055
572 1 46.4147 14.933 53.7211
573 1 16.9067 14.0109 23.5765
574 1 30.0958 46.0937 17.4016
575 1 30.2301 49.908 42.5337
576 1 13.268 54.6951 9.32592
577 1 1.93408 6.31244 15.3926
578 1 55.4999 40.1106 44.3789
579 1 39.04 45.4447 45.8537
580 1 24.1611 23.4749 1.42609
581 1 37.4869 10.1861 29.3525
582 1 12.2986 41.199 38.0604
583 1 45.5415 25.3231 18.0764
584 1 28.8998 40.9719 29.2408
585 1 33.4526 8.10124 23.289
586 1 55.6776 0.0707976 31.2978
587 1 10.6705 1.88913 7.25385
588 1 8.91405 44.1555 46.9341
589 1 34.0585 44.7129 48.2826
590 1 1.66926 9.13754 7.87182
591 1 13.2049 9.3902 30.7213
592 1 52.8366 33.2837 6.54182
593 1 18.9964 23.2042 38.0947
594 1 2.97163 42.5186 41.8839
595 1 36.1003 14.1454 43.4921
596 1 3.37192 4.80927 39.5243
597 1 29.3313 51.8697 7.43002
598 1 49.1994 47.1832 24.8498
599 1 5.03623 4.0373 13.0568
600 1 11.7436 32.3838 4.38854
601 1 20.3605 41.6447 52.036
602 1 3.1179 42.6044 15.464
603 1 26.7801 35.3465 52.1396
604 1 3.22956 21.0205 31.1782
605 1 28.9796 41.276 26.1732
606 1 27.0704 47.9643 35.0657
607 1 39.1523 14.1765 33.6797
608 1 39.8108 6.10816 54.2676
609 1 34.0868 30.3921 12.9584
610 1 43.6231 5.6321 44.9763
611 1 20.7374 44.7261 30.8616
612 1 17.6613 46.8318 45.4793
613 1 3.10011 51.8589 1.20161
614 1 53.9451 33.2745 10.9295
615 1 6.04751 43.0434 41.6309
616 1 37.2402 4.1953 49.0349
617 1 16.4229 11.8021 52.0623
618 1 0.851476 53.0789 0.152112
619 1 37.2313 11.1069 26.7861
620 1 30.9302 30.6244 27.5242
621 1 53.0527 8.0891 27.0362
622 1 3.66786 29.6623 43.719
623 1 14.7668 44.4847 12.1485
624 1 28.1242 9.49255 55.114
625 1 12.9966 15.5843 25.5015
626 1 35.8332 25.7659 21.9466
627 1 34.7086 40.1112 1.96994
628 1 31.4912 10.2533 17.2629
629 1 40.9485 41.0348 12.2252
630 1 34.7922 54.6345 14.6943
631 1 43.8467 28.6761 13.8141
632 1 4.84907 32.3288 26.7829
633 1 15.8774 6.42919 49.7217
634 1 47.9004 45.6073 17.666
635 1 31.6693 43.8917 21.9229
636 1 6.28416 6.77535 17.0138
637 1 0.712952 14.7192 39.8739
638 1 32.6976 47.5083 55.6804
639 1 28.5467 5.38032 4.45775
640 1 21.9141 53.6776 5.95586
641 1 55.8506 47.8193 35.8592
642 1 53.646 18.4207 10.2684
643 1 41.1667 26.8075 29.4086
644 1 20.2552 42.7738 45.956
645 1 0.319947 19.4042 40.9568
646 1 12.912 31.3472 12.4457
647 1 3.067 29.1753 8.54319
648 1 22.2399 19.2223 4.58854
649 1 20.6578 20.3205 19.8339
650 1 14.9545 4.11233 2.93524
651 1 30.5348 33.0015 33.5056
652 1 54.0309 22.8853 43.7081
653 1 51.9169 30.8745 51.1327
654 1 29.6243 34.4965 -0.205497
655 1 41.2317 4.49096 30.3587
656 1 36.6946 52.0949 39.9562
657 1 55.8751 34.4087 21.1818
658 1 25.1113 8.4295 54.8287
659 1 36.6128 35.1475 -0.0900831
660 1 1.45617 44.0995 6.99574
661 1 46.3851 36.0977 13.1054
662 1 15.3363 41.7247 44.4854
663 1 19.0484 37.5877 35.2776
664 1 54.0559 16.7413 24.0474
665 1 34.3909 42.7278 22.9194
666 1 15.2052 10.6783 24.2997
667 1 29.9979 17.8616 20.7793
668 1 42.2318 20.2306 49.6955
669 1 51.2679 22.9306 15.5282
670 1 51.3387 5.21071 11.7003
671 1 33.6431 1.824 27.3329
672 1 1.84711 18.6349 9.17036
673 1 11.6494 3.89391 35.7514
674 1 46.4482 51.5779 7.64253
675 1 23.3125 7.5684 33.2209
676 1 0.099095 15.3679 22.8895
677 1 55.6782 36.2329 54.3847
678 1 15.6616 55.6548 17.6676
679 1 53.2588 12.4207 22.0782
680 1 28.5733 32.354 46.0107
681 1 0.0418285 26.0652 48.8593
682 1 7.40669 3.35098 44.6689
683 1 43.5485 12.5544 20.8023
684 1 38.4529 32.6332 37.4713
685 1 22.6475 54.9355 15.0708
686 1 44.9833 15.0189 10.9687
687 1 47.087 55.1582 28.2049
688 1 20.4544 7.05047 33.5494
689 2 21.4315 49.6515 24.1326
690 2 30.0685 50.2681 9.97436
691 2 34.2278 27.0839 38.9578
692 2 8.12669 42.4941 49.5722
693 2 44.9878 48.3762 22.4526
694 2 2.72621 51.3783 54.6593
695 2 17.7835 15.0983 45.3636
696 2 16.0568 40.8129 8.20925
697 2 1.49399 18.1977 36.2263
698 2 17.0987 18.8114 7.03753
699 2 44.76 11.2929 39.8921
700 2 38.6966 4.96737 3.43935
701 2 53.8119 27.5053 5.54446
702 2 36.2214 28.7917 27.1402
703 2 48.9832 45.7633 44.1835
704 2 54.8283 12.7326 17.6267
705 2 2.64981 36.9637 7.79632
706 2 2.20224 40.4267 44.3465
707 2 47.727 17.0141 18.8311
708 2 43.4044 55.4389 0.690979
709 2 44.0367 30.3676 42.2599
710 2 52.9648 48.3874 30.8636
711 1 35.3285 4.30814 47.3178
712 1 18.4558 30.237 52.9376
713 1 0.762643 49.2542 44.353
714 1 39.3566 27.3227 27.6762
715 1 0.566007 11.1838 44.7177
716 1 2.64951 15.9293 50.957
717 1 47.3308 1.21061 3.64749
718 1 4.25679 41.7443 55.9433
719 1 41.9348 16.8195 52.5054
720 1 19.3898 16.0764 13.21
721 1 30.9882 6.59536 5.03376
722 1 31.9075 37.6908 55.7696
723 1 19.3383 14.9566 15.9562
724 1 48.5799 37.4723 53.4332
725 1 13.0937 45.816 35.2127
726 1 31.6921 39.1051 42.8097
727 1 31.2378 46.41 6.8351
728 1 28.04 0.286996 55.7124
729 1 41.5768 18.3321 42.1857
730 1 11.7932 7.811 32.5342
731 1 54.2901 10.9328 20.0733
732 1 12.8011 1.16998 14.8371
733 1 36.1663 52.8069 55.0997
734 1 37.1536 43.6108 18.0735
735 1 38.6037 0.815702 -0.084884
736 1 51.8718 18.89 50.4967
737 1 30.9017 42.1428 27.6568
738 1 0.754633 11.6898 6.38406
739 1 21.7609 17.1229 2.91863
740 1 40.5474 35.2379 49.3506
741 1 53.797 9.38314 32.8321
742 1 17.6746 32.6096 16.6159
743 1 44.9801 29.4645 27.0621
744 1 33.3145 55.5509 40.4219
745 1 45.1147 12.3259 12.4516
746 1 20.3384 17.7902 20.968
747 1 0.416918 3.1848 36.1073
748 1 45.708 53.181 0.250186
749 1 17.2686 12.9842 42.7508
750 1 23.7665 21.3718 5.80592
751 1 19.1443 32.8679 33.7905
752 1 14.9207 48.0195 38.7309
753 1 20.1031 9.65195 43.682
754 1 36.2018 54.2154 26.4939
755 1 26.3945 18.6131 15.3334
756 1 31.5487 49.4212 54.0249
757 1 10.0489 23.0107 29.743
758 1 54.8992 27.34 20.4993
759 1 45.036 6.5681 18.7091
760 1 19.2238 32.7941 54.6751
761 1 53.0862 12.3836 41.0431
762 1 30.6019 52.8228 11.9162
763 1 24.1751 17.9902 8.7716
764 1 18.3268 13.3151 21.3629
765 1 42.3259 19.8016 40.1369
766 1 20.8542 31.9841 6.36443
767 1 1.79039 45.8255 22.1911
768 1 25.6562 22.1606 35.5495
769 1 17.9161 48.6193 54.5752
770 1 18.7775 3.69422 4.69711
771 1 11.8554 38.3876 44.2604
772 1 29.9271 13.1377 52.4627
773 1 10.4408 16.3394 45.8098
774 1 35.0713 5.12961 25.8663
775 1 46.8503 41.9125 29.9423
776 1 25.0935 56.0182 22.5135
777 1 46.2185 47.6506 25.6438
778 1 22.0547 33.5842 47.9726
779 1 41.3101 27.0619 44.8418
780 1 31.3161 47.3782 41.1348
781 1 20.2634 38.124 24.9508
782 1 4.81945 19.1551 15.4743
783 1 50.0867 0.948179 36.9274
784 1 44.438 27.8344 24.1166
785 1 27.6662 25.9717 48.146
786 1 15.6429 7.59403 41.9915
787 1 5.51102 31.3003 53.9102
788 1 2.27232 10.2454 37.2223
789 1 16.1081 44.5834 26.7037
790 1 51.6265 29.8755 43.4179
791 1 35.6107 19.9464 27.0711
792 1 26.1461 55.1561 19.3466
793 1 2.51822 50.422 22.3397
794 1 30.141 25.7098 27.9376
795 1 -0.124556 20.623 34.2308
796 1 44.8114 12.6228 3.98261
797 1 18.7127 11.2185 13.9388
798 1 42.4946 29.3195 54.3125
799 1 17.9142 37.9455 1.8842
800 1 17.0233 30.9838 54.948
801 1 48.814 48.13 10.9244
802 1 20.9659 15.2744 36.7958
803 1 40.0528 45.288 40.026
804 1 51.9207 36.866 9.51681
805 1 38.6806 44.6827 32.283
806 1 13.1431 15.2939 37.7114
807 1 55.6229 15.8371 34.5217
808 1 49.2244 8.00634 38.5086
809 1 6.31203 14.1989 0.719301
810 1 7.88135 40.9559 32.4942
811 1 33.506 21.9196 47.9975
812 1 37.1797 3.28425 54.856
813 1 0.988342 11.4237 2.46325
814 1 46.1545 4.35164 20.0924
815 1 4.60512 8.81175 41.2977
816 1 50.1159 5.11732 35.5326
817 1 44.5521 43.5353 29.2529
818 1 54.9187 49.1571 55.111
819 1 18.163 37.1439 43.4087
820 1 53.2681 28.1289 38.1903
821 1 32.1136 29.9218 38.9481
822 1 0.978805 4.05906 29.28
823 1 53.7519 46.5858 38.0277
824 1 53.7154 54.2424 29.4986
825 1 17.2886 54.3476 30.1089
826 1 16.3973 50.5217 4.12325
827 1 19.8894 33.7332 22.6971
828 1 31.9427 20.2733 20.1285
829 1 49.3817 55.9893 29.4371
830 1 51.1407 43.5473 4.27945
831 2 7.09045 40.4457 40.121
832 2 23.8359 14.4689 2.94891
833 2 20.2786 43.4867 23.5882
834 2 43.174 26.9608 46.9265
835 2 24.9275 -0.229711 27.831
836 2 23.9458 14.0405 32.508
837 2 15.8761 27.1553 17.5486
838 2 23.1984 42.3452 47.5643
839 2 28.6821 35.558 31.2567
840 2 19.9224 15.8575 53.8051
841 2 16.0777 27.5047 26.5077
842 2 47.0621 9.57472 45.5584
843 2 42.2092 1.42154 29.8498
844 2 31.3358 15.4293 18.4851
845 2 8.14977 51.7229 16.2716
846 2 41.3985 41.2014 48.7196
847 2 48.4272 55.16 10.7439
848 2 47.8134 44.3857 26.0358
849 2 23.1185 17.295 34.8915
850 2 22.5792 32.2978 44.5345
851 2 48.4833 0.214273 53.989
852 2 46.3136 38.6618 20.5181
853 1 33.962 42.9179 9.89891
854 1 30.4611 42.3424 46.8398
855 1 47.7453 26.732 14.9528
856 1 5.93153 27.9469 33.2526
857 1 55.2377 17.1007 40.3393
858 1 14.2965 50.4133 49.0868
859 1 36.5934 24.4202 38.8738
860 1 9.30248 37.8433 4.05135
861 1 51.7377 36.5175 29.4437
862 1 54.739 30.7826 5.63701
863 1 33.3467 11.261 10.516
864 1 47.4558 27.0975 49.781
865 1 14.5458 26.3797 14.3395
866 1 12.344 32.0377 54.4301
867 1 50.8965 21.9937 37.0628
868 1 49.3862 1.73836 34.4254
869 1 56.0716 26.217 53.4307
870 1 33.4705 24.5122 20.9249
871 1 10.2838 27.9431 14.9021
872 1 53.367 38.1461 40.1252
873 1 12.4498 39.3366 31.9002
874 1 53.9061 46.0409 1.38009
875 1 41.9258 29.3883 48.3205
876 1 0.218338 16.7113 31.3083
877 1 0.134357 27.4377 22.6106
878 1 4.18218 35.7377 20.2379
879 1 10.6986 14.0949 30.9008
880 1 51.8122 11.3592 1.76629
881 1 32.0196 12.7542 48.036
882 1 44.8333 22.5938 52.6263
883 1 29.5764 21.6949 8.03264
884 1 51.4415 54.7488 36.6734
885 1 29.9478 23.2002 0.986516
886 1 39.4347 47.7825 2.22701
887 1 7.07594 15.4798 19.8986
888 1 2.67115 29.9015 47.0371
889 1 46.2366 7.52102 34.0574
890 1 -0.168567 7.35763 6.57072
891 1 53.0939 20.3745 37.591
892 1 40.9593 2.00042 18.7934
893 1 14.2428 51.2601 34.1265
894 1 9.05148 40.5717 9.71692
895 1 4.0863 47.0703 39.5073
896 1 2.75904 40.6184 17.9967
897 1 28.1772 52.7478 10.1516
898 1 41.0667 35.3826 42.4026
899 1 16.7512 19.1211 32.3534
900 1 5.2201 25.8945 1.47887
901 1 34.0547 37.2122 42.3698
902 1 25.6495 46.0253 25.9408
903 1 3.92616 26.4031 8.82928
904 1 36.0198 35.8914 11.7828
905 1 28.1109 30.1194 22.2697
906 1 17.7937 36.1295 10.1409
907 1 21.1541 45.8388 11.9363
908 1 1.333 6.15608 34.8822
909 1 45.5953 2.74773 40.8125
910 1 52.4594 38.6116 7.32527
911 1 12.9067 8.75587 25.1108
912 1 16.8322 18.2926 37.0411
913 1 3.80615 45.311 5.95104
914 1 53.046 51.6455 30.8909
915 1 14.9042 22.7843 41.4485
916 1 26.32 27.3156 38.486
917 1 35.2916 55.8862 4.3262
918 1 50.5816 34.8686 14.4593
919 1 50.7417 41.6877 37.1928
920 1 11.8865 38.652 38.7211
921 1 36.0082 44.2907 10.8398
922 1 17.616 41.658 32.0458
923 1 51.9513 3.2691 36.3662
924 1 0.806981 11.4397 16.2092
925 1 44.9335 54.4172 6.96671
926 1 28.1124 49.7822 51.9449
927 1 52.695 50.4429 46.4201
928 1 43.3163 9.48797 13.3399
929 1 50.3662 33.2963 7.36692
930 1 35.0454 55.8272 7.03861
931 1 17.2498 25.3513 32.1493
932 1 11.1954 55.506 47.5804
933 1 30.6941 6.99846 44.0548
934 1 24.5383 50.98 54.7221
935 1 5.10148 39.0763 55.3834
936 1 7.9445 32.9138 11.9579
937 1 39.2193 0.601179 42.4582
938 1 35.8169 8.60054 40.8749
939 1 5.70716 29.3978 15.908
940 1 8.78475 39.429 51.0533
941 1 36.4873 6.25261 35.5752
942 1 14.9913 46.5947 45.509
943 1 33.6826 36.9031 34.6874
944 1 9.0627 41.4216 16.1689
945 1 44.6456 20.7182 44.4846
946 1 9.76027 42.5521 44.6983
947 1 41.3385 31.1556 40.9081
948 1 15.7738 55.6472 43.9795
949 1 49.8092 50.0957 15.3531
950 1 39.6039 25.2581 49.0973
951 1 14.8132 43.3892 53.8832
952 1 43.7657 0.625965 48.8023
953 1 26.0663 22.5479 51.1479
954 1 11.2462 45.7039 40.8241
955 1 13.1341 21.948 15.302
956 1 11.9169 20.2759 8.23287
957 1 46.8571 43.8755 51.3925
958 1 14.42 17.8675 27.047
959 1 31.3014 50.332 35.6211
960 1 53.9184 13.9635 12.342
961 1 36.9273 41.5276 42.5983
962 1 42.6192 8.20103 21.7501
963 1 7.43232 30.3495 47.0506
964 1 25.3268 14.5781 44.477
965 1 15.4478 30.4595 35.8396
966 1 24.7344 42.7386 31.6993
967 1 8.35638 7.18521 7.23992
968 1 42.2029 11.6114 44.3694
969 1 32.0194 37.2645 50.5929
970 1 31.4222 17.2025 15.8394
971 1 47.4104 5.09848 42.2223
972 1 50.6184 6.67907 52.1826
973 2 45.1727 4.12032 25.4583
974 2 46.3133 39.4071 34.8325
975 2 53.5678 38.9551 27.9191
976 2 17.1189 30.532 50.0064
977 2 52.7723 36.2703 16.1834
978 2 52.288 35.9914 19.7954
979 2 32.9737 42.2672 40.8621
980 2 54.9876 6.28467 44.7769
981 2 36.4839 11.9935 9.75601
982 2 54.4496 29.8896 49.1518
983 2 12.319 31.1423 1.46857
984 2 46.5389 22.5277 34.6092
985 2 51.0774 1.70364 12.1314
986 2 7.15041 18.3161 37.8281
987 2 20.0632 6.71961 5.01749
988 2 2.26968 27.1173 51.7075
989 2 39.9146 27.9018 32.4218
990 2 54.3812 9.72073 15.038
991 2 22.8748 21.1805 17.6531
992 2 16.5185 15.669 54.7889
993 2 1.49728 15.6049 56.0772
994 2 53.68 22.7846 35.4279
995 1 54.1575 3.15214 43.5484
996 1 51.2737 25.3646 47.1465
997 1 24.816 2.2128 48.4965
998 1 3.55147 49.2861 27.0602
999 1 25.1106 51.1094 52.1577
1000 1 19.5281 8.76754 47.7132
1001 1 30.6511 30.6976 36.5642
1002 1 52.8152 26.3533 8.22188
1003 1 13.9875 29.0129 30.763
1004 1 9.10481 40.9014 6.88964