ITEM: TIMESTEP
0
ITEM: NUMBER OF ATOMS
9088
ITEM: BOX BOUNDS pp pp pp
-3.4331743046402430e-01 5.6227810056385493e+01
-3.4331743046402430e-01 5.6227810056385493e+01
-3.4331743046402430e-01 5.6227810056385493e+01
ITEM: ATOMS id type x y z
1 1 24.8597 45.7508 52.8025
2 1 44.3099 4.25704 36.4205
3 1 19.6546 10.3914 21.7737
4 1 37.3335 49.4093 44.467
5 1 25.6895 10.743 29.5553
6 1 27.2679 25.2773 26.8692
7 1 13.5008 22.6337 12.4745
8 1 47.7275 6.62819 54.2103
9 1 55.3075 52.3914 54.1995
10 1 37.3643 13.2284 53.4078
11 1 48.6236 35.933 32.262
12 1 35.9765 19.5349 36.7658
13 1 34.524 54.0892 28.8225
14 1 12.8866 54.716 51.8425
15 1 0.326003 34.9898 27.2517
16 1 23.1036 55.4339 36.3292
17 1 50.6271 9.81446 28.0373
18 1 4.55742 48.5781 30.0829
19 1 28.9645 35.1236 24.7421
20 1 45.4398 1.94387 22.1105
21 1 25.3171 51.3733 52.1604
22 1 54.4353 41.6946 0.209488
23 1 14.376 29.8896 50.2404
24 1 1.77486 12.0913 55.6336
25 1 22.194 44.5285 40.4621
26 1 19.9958 27.9111 43.5612
27 1 34.5497 31.1584 0.215225
28 1 42.2061 55.4102 16.9018
29 1 24.9964 39.1462 8.94041
30 1 41.1367 4.97277 43.9896
31 1 32.8031 11.1481 2.87293
32 1 38.1844 12.5634 31.767
33 1 19.4291 44.5487 53.4979
34 1 14.4429 24.3326 1.80448
35 1 9.18751 8.36917 47.7413
36 1 29.2543 44.5279 46.5652
37 1 43.4214 6.77838 19.9912
38 1 40.3313 47.6595 6.93566
39 1 12.9327 25.9874 0.161292
40 1 9.01753 11.247 47.7993
41 1 47.0483 40.9288 0.830825
42 1 9.0847 41.6111 15.9029
43 1 22.3055 22.1833 12.1549
44 1 50.7257 52.2184 23.6004
45 1 12.8615 43.7596 55.9613
46 1 0.0100161 17.5794 10.9441
47 1 40.6613 9.52472 29.2754
48 1 20.4028 23.0421 43.7815
49 1 53.7552 15.6711 32.6523
50 1 22.4933 5.23661 32.7367
51 1 50.2638 32.2878 30.3674
52 1 25.7452 11.6615 45.2309
53 1 52.7713 20.7071 1.02743
54 1 0.928358 18.5807 43.8874
55 1 40.132 45.0722 29.5911
56 1 11.246 28.5628 18.111
57 1 7.04637 33.0055 34.689
58 1 37.6341 11.4433 21.2635
59 1 1.17093 22.4717 33.5995
60 1 42.7733 44.7156 44.447
61 1 8.97029 25.99 4.16022
62 1 32.0881 12.7895 33.9915
63 1 49.4015 41.4604 26.7389
64 1 22.3147 4.05977 15.6966
65 1 42.4926 8.11583 6.04698
66 1 9.38917 42.1735 44.7408
67 1 5.45139 33.7316 49.9759
68 1 2.01462 28.2977 4.97398
69 1 34.5265 32.5209 50.4658
70 1 0.134141 13.2868 10.2329
71 1 52.4783 46.9772 28.1536
72 1 55.7263 29.9137 1.20534
73 1 40.8738 51.4054 7.0201
74 1 28.7755 43.28 27.7202
75 1 37.6557 19.3652 5.03109
76 1 40.2866 25.7473 4.86098
77 1 46.3385 47.8502 36.6445
78 1 40.7908 41.3375 12.0379
79 1 32.1542 23.6125 42.8173
80 1 35.8169 0.520793 0.856804
81 1 20.9721 21.5873 55.1189
82 1 9.32472 53.1374 35.7888
83 1 38.5897 41.2443 46.7863
84 1 43.1779 51.0175 53.363
85 1 39.6919 11.0618 38.4739
86 1 27.3559 26.6105 34.5501
87 1 19.3107 28.293 49.113
88 1 16.1531 11.2223 12.8999
89 1 4.12521 4.36456 39.4601
90 1 17.6172 36.581 47.7595
91 1 16.5962 5.6305 21.7873
92 1 10.3153 12.1118 19.5512
93 1 40.1798 12.9003 11.2817
94 1 29.1983 54.7034 42.5922
95 1 40.9294 24.338 18.8629
96 1 7.1851 0.225317 13.7859
97 1 5.08589 9.38597 37.1088
98 1 22.5129 23.7991 34.6071
99 1 42.2981 36.5408 5.66857
100 1 1.87945 46.8486 5.41688
101 1 12.5315 46.5012 45.3843
102 1 5.41219 5.97724 9.814
103 1 41.6898 43.3665 56.1264
104 1 9.01882 49.6584 44.8275
105 1 31.9008 13.7427 10.6325
106 1 19.9581 53.4704 41.6037
107 1 34.1639 2.50758 0.744154
108 1 42.0836 23.0657 53.5488
109 1 6.17264 9.46674 20.9514
110 1 31.7125 9.17005 10.4386
111 1 34.3939 8.74896 28.9885
112 1 10.9481 1.89913 6.93763
113 1 29.245 33.4178 11.4592
114 1 14.7182 17.1811 49.9274
115 1 46.6454 30.0616 34.9674
116 1 31.4698 0.663855 39.1602
117 1 49.0645 19.839 41.2733
118 1 14.7694 3.3041 53.9408
119 1 38.9618 35.8572 34.2695
120 1 16.6071 2.82721 37.579
121 2 11.9427 38.8974 35.1696
122 2 51.8216 18.6417 12.5529
123 2 55.2602 46.5618 20.8754
124 2 53.0125 29.9007 19.7366
125 2 54.0971 35.6774 38.7091
126 2 25.1368 7.35916 17.498
127 2 12.2332 51.8623 15.811
128 2 7.72184 29.9292 35.4798
129 2 55.4756 17.6884 7.45782
130 2 1.18609 21.0701 45.9853
131 2 53.7894 15.186 46.0656
132 2 39.4025 46.6286 17.4972
133 2 35.1188 42.9788 15.6145
134 2 15.1599 5.73056 8.69664
135 2 42.9298 34.1779 3.77785
136 2 10.1156 0.365116 31.884
137 2 41.26 24.2813 46.2211
138 2 5.59942 4.36227 49.3589
139 2 31.1483 14.6967 13.5952
140 2 45.7452 27.3717 38.8213
141 2 8.0624 38.2904 22.9154
142 2 29.804 23.5163 40.0957
143 1 7.31314 16.8457 31.9714
144 1 28.4011 22.1403 15.8777
145 1 54.3785 12.329 6.17558
146 1 51.2211 22.5936 15.3428
147 1 11.7002 44.0278 21.1662
148 1 11.8577 10.5653 33.134
149 1 47.7516 4.1229 40.1936
150 1 25.0026 25.5635 9.61397
151 1 15.5215 39.2394 53.1404
152 1 6.07498 27.2476 44.1772
153 1 50.1375 48.2142 29.5781
154 1 43.2181 42.2267 30.627
155 1 32.1432 18.2051 10.1597
156 1 12.0068 38.7039 7.60561
157 1 46.0917 28.7248 22.0357
158 1 30.4148 11.3717 55.1568
159 1 33.6986 53.808 12.5502
160 1 45.9142 9.6928 50.5188
161 1 2.83528 15.0221 31.2952
162 1 13.0894 12.9761 44.3883
163 1 21.1085 13.3145 24.6932
164 1 55.7661 38.6946 11.9035
165 1 52.0613 37.1683 3.92571
166 1 45.3426 41.6027 15.1857
167 1 31.738 39.5302 46.1508
168 1 46.3037 4.43969 55.2515
169 1 16.9114 45.0672 37.8488
170 1 39.5556 33.8921 47.1682
171 1 29.7634 32.6312 20.8168
172 1 3.16121 43.065 25.8304
173 1 4.88333 35.4378 8.4279
174 1 25.2279 55.8711 49.0673
175 1 21.1377 28.569 15.33
176 1 39.6216 37.1587 6.69834
177 1 10.156 5.07328 24.8452
178 1 24.2161 9.33796 27.6003
179 1 12.7705 6.27487 36.7409
180 1 49.9497 17.1589 6.97084
181 1 31.3546 44.0084 34.4301
182 1 51.7495 28.0075 51.2156
183 1 25.5527 7.95462 7.97794
184 1 37.7691 48.8559 23.9285
185 1 33.9425 16.9702 35.9188
186 1 35.0008 18.0604 25.216
187 1 1.73751 6.85451 53.5395
188 1 28.5548 39.4839 3.10374
189 1 13.7194 41.2139 33.8883
190 1 34.7412 42.9117 12.6294
191 1 25.3949 48.1787 9.85128
192 1 45.7483 2.61193 8.23368
193 1 37.6367 8.53236 13.3355
194 1 36.0741 4.26225 30.783
195 1 55.8233 45.6114 53.5508
196 1 33.8917 48.5716 20.4336
197 1 6.82809 9.04806 49.3203
198 1 7.38524 3.30621 55.596
199 1 10.3657 40.025 -0.00955439
200 1 39.9501 20.4047 41.2698
201 1 27.9979 19.4902 22.6163
202 1 43.9591 49.8695 17.239
203 1 26.2029 17.5293 31.8552
204 1 1.58541 33.6028 18.5888
205 1 14.5529 14.3488 46.2493
206 1 27.7112 45.2682 35.5598
207 1 0.326869 45.9241 37.6464
208 1 32.068 4.76716 10.6056
209 1 38.9776 6.56577 50.4988
210 1 27.5057 21.8567 41.5726
211 1 4.58318 7.80226 19.5255
212 1 48.1637 33.9799 41.6056
213 1 22.5903 12.3681 51.0537
214 1 0.87073 37.9379 1.98023
215 1 53.3674 33.225 20.4192
216 1 54.3825 24.1477 48.8933
217 1 27.6584 20.8182 28.7559
218 1 1.22551 9.53551 54.7218
219 1 40.2598 7.4145 17.865
220 1 19.2661 9.29892 34.7896
221 1 45.8085 43.4986 8.54244
222 1 48.3226 12.3907 16.3638
223 1 9.88885 20.0501 39.2597
224 1 17.4092 28.2374 10.315
225 1 42.1681 46.8975 39.21
226 1 6.5271 33.0694 39.5992
227 1 20.1335 45.0392 33.3703
228 1 0.0561272 20.2542 52.6502
229 1 10.067 5.6909 47.9901
230 1 31.0546 30.2113 41.4919
231 1 47.8867 23.1318 19.7284
232 1 34.6108 10.1 17.2647
233 1 52.4239 48.1241 36.7548
234 1 9.66311 37.8377 4.29113
235 1 50.0107 19.2999 52.6075
236 1 7.02437 2.80717 44.5003
237 1 55.1169 34.0248 17.7424
238 1 29.7184 56.2124 44.8538
239 1 33.7193 28.5805 5.82247
240 1 12.8092 15.4131 54.5574
241 1 20.5914 49.3854 10.5169
242 1 50.6903 7.30142 36.0189
243 1 9.45577 30.4456 19.2888
244 1 25.698 2.36239 40.2004
245 1 1.28039 27.9448 19.8042
246 1 5.98178 4.78827 3.62388
247 1 43.4993 12.9736 27.5164
248 1 44.5511 0.0498979 45.7285
249 1 8.09136 34.7965 50.0235
250 1 23.3688 24.465 17.7262
251 1 37.1663 55.5724 8.56341
252 1 14.8831 24.431 44.9054
253 1 2.87364 27.1102 48.2341
254 1 3.80819 43.5027 36.6185
255 1 44.2891 9.47841 13.1341
256 1 31.4707 47.6234 24.334
257 1 1.62135 12.185 34.9708
258 1 33.4589 18.725 27.5595
259 1 45.8232 45.6992 55.3019
260 1 25.0259 41.6017 34.3997
261 1 32.1999 10.2638 39.2601
262 1 46.3769 47.9842 17.1154
263 2 44.0901 24.7883 29.1297
264 2 25.4763 47.7629 1.72722
265 2 50.0529 6.93264 49.5134
266 2 6.91579 24.6624 38.6196
267 2 14.3405 21.3762 1.26088
268 2 4.63153 2.852 24.805
269 2 15.2339 2.64668 16.8661
270 2 44.4055 43.3405 53.7465
271 2 54.6227 44.7959 25.6171
272 2 33.4127 40.4395 13.8708
273 2 32.2062 8.23201 36.6211
274 2 53.259 26.8276 30.5059
275 2 27.4851 7.13106 53.0225
276 2 56.1785 14.1657 3.97033
277 2 1.06463 43.0465 39.2619
278 2 10.139 35.5456 18.5147
279 2 44.124 51.6425 46.6789
280 2 20.0592 55.244 22.0616
281 2 41.4505 16.9526 14.2573
282 2 15.257 28.8086 8.02976
283 2 46.9278 47.8875 28.8046
284 2 17.2737 26.7178 34.2472
285 1 12.8087 30.2884 3.55719
286 1 47.5457 32.9074 20.2847
287 1 40.5054 1.662 38.2604
288 1 15.7113 22.5658 40.5499
289 1 7.61697 20.9706 53.6477
290 1 51.0906 12.956 23.8274
291 1 33.4023 41.5057 32.7678
292 1 34.718 7.90232 34.6236
293 1 53.8738 25.2103 0.773877
294 1 30.7672 32.8743 41.9768
295 1 47.4355 24.8713 29.5324
296 1 13.8599 33.9902 33.0344
297 1 48.6103 14.0252 33.6227
298 1 33.3636 23.4887 12.6293
299 1 49.5328 2.44448 13.8067
300 1 24.7176 31.8542 9.66969
301 1 24.0552 52.4234 23.6392
302 1 47.9506 35.9519 24.0584
303 1 54.1421 3.19002 1.20664
304 1 51.9206 48.4524 51.4338
305 1 36.9878 46.5523 30.6508
306 1 27.9861 0.519592 55.0641
307 1 4.9817 40.3183 32.4675
308 1 40.3182 54.0237 45.6199
309 1 49.7855 31.134 28.2243
310 1 9.68005 3.64723 -0.0790251
311 1 38.1387 35.1363 5.03208
312 1 10.2943 7.85774 25.5945
313 1 0.741426 55.7819 19.0911
314 1 30.59 47.1102 0.35604
315 1 4.75769 6.7841 14.4122
316 1 45.8564 15.8697 51.3062
317 1 25.1958 44.9432 46.3082
318 1 6.00591 23.3464 11.2459
319 1 3.24955 4.39631 15.0792
320 1 12.4513 28.487 32.9258
321 1 26.3243 38.9928 34.3067
322 1 55.194 21.7664 22.7119
323 1 28.0435 10.3074 28.0702
324 1 18.7548 9.13051 32.1406
325 1 21.7203 45.997 43.1613
326 1 16.5601 31.9698 41.1169
327 1 11.9823 48.3071 26.1975
328 1 0.673005 7.80461 36.6958
329 1 4.75071 24.8275 45.1234
330 1 18.3525 14.5256 33.9191
331 1 10.7628 35.5 54.9018
332 1 7.04694 30.6525 10.6446
333 1 3.17047 1.6313 3.91696
334 1 33.8041 34.9545 22.6273
335 1 51.0213 35.2543 50.8591
336 1 47.4553 21.0065 12.2742
337 1 0.915397 34.1998 7.43998
338 1 15.0432 13.6344 29.6934
339 1 2.87626 14.3401 10.4929
340 1 25.2034 23.4297 26.04
341 1 31.5826 47.1479 40.4694
342 1 55.935 22.7762 20.4847
343 1 54.2117 4.75755 17.0346
344 1 33.49 15.8692 11.4614
345 1 49.2462 16.6464 3.79727
346 1 50.3933 49.8894 15.7251
347 1 19.8929 18.142 11.1493
348 1 25.687 8.15173 31.9671
349 1 4.47477 37.4602 10.2494
350 1 4.38861 47.5602 33.0839
351 1 45.3174 35.5105 5.55998
352 1 4.02741 40.9093 24.7883
353 1 0.109901 33.6546 47.4415
354 1 53.9449 37.9127 43.9883
355 1 48.922 26.8128 41.0512
356 1 9.78107 39.891 43.1303
357 1 18.6928 39.6017 52.8678
358 1 27.4556 27.2807 -0.142633
359 1 34.1762 45.5736 54.6037
360 1 25.4284 13.564 47.3368
361 1 23.4124 15.6584 46.1251
362 1 53.6819 54.2113 1.2807
363 1 44.262 18.0942 14.2888
364 1 4.43424 18.8627 35.9599
365 1 27.1538 52.2003 14.2416
366 1 9.38363 12.4635 29.3423
367 1 13.3033 51.3269 44.252
368 1 24.5097 34.1916 22.4479
369 1 40.5418 30.0557 16.172
370 1 9.81784 3.20296 10.9078
371 1 13.7094 9.4576 10.3986
372 1 13.4682 33.0692 15.0267
373 1 -0.0700328 40.9673 49.226
374 1 47.4906 50.7828 2.33716
375 1 18.1161 1.84028 32.9202
376 1 41.3493 47.5682 26.9737
377 1 31.7626 25.0515 0.712369
378 1 36.1578 46.0138 16.4716
379 1 47.8885 38.2533 22.6368
380 1 4.8285 32.32 27.1605
381 1 16.2353 16.6 52.0342
382 1 50.5842 18.5941 4.88036
383 1 21.147 10.4552 24.1911
384 1 1.33351 12.8108 37.826
385 1 29.8936 8.89617 19.8504
386 1 36.0921 38.9202 23.038
387 1 27.1465 45.6836 41.5213
388 1 22.5496 10.18 37.3787
389 1 26.4263 14.127 13.6892
390 1 45.5092 48.848 31.7435
391 1 17.6017 6.89398 54.3853
392 1 47.5737 51.1443 35.6635
393 1 3.3059 28.0341 0.658642
394 1 14.1552 32.5991 3.79455
395 1 54.972 5.05137 47.8095
396 1 14.6998 48.6281 21.9903
397 1 20.2835 32.4248 29.391
398 1 8.28827 22.363 51.7676
399 1 7.16539 53.7929 41.6018
400 1 35.9307 42.7129 27.7867
401 1 16.7753 45.007 4.34401
402 1 32.3627 48.0497 43.6249
403 1 15.9052 39.1955 22.9925
404 1 25.1852 37.2394 48.5073
405 2 19.968 7.98201 13.8537
406 2 36.0171 30.9532 7.68299
407 2 34.5269 12.9477 12.7603
408 2 25.0984 49.8547 12.5341
409 2 45.2252 0.0206095 16.3947
410 2 38.0885 50.453 13.7248
411 2 5.71288 41.7988 17.0625
412 2 54.0044 8.5977 35.8867
413 2 31.4886 21.5684 45.4401
414 2 12.8183 35.0409 47.6532
415 2 55.8852 51.9189 8.97506
416 2 52.1024 43.0016 55.1721
417 2 44.3254 4.81108 9.90701
418 2 7.47024 36.1648 10.6635
419 2 15.6737 54.4699 22.4016
420 2 23.9139 23.2806 23.2021
421 2 42.2662 49.2323 9.41261
422 2 32.3601 15.8695 8.281
423 2 8.06088 -0.111315 42.9249
424 2 52.5308 10.383 4.81291
425 2 48.3016 51.9516 38.8286
426 2 37.55 8.81436 38.529
427 1 17.9438 23.3071 42.0822
428 1 9.66253 50.434 13.9604
429 1 38.2488 2.14498 5.5385
430 1 22.6263 1.68822 15.1158
431 1 23.1437 44.9626 24.3897
432 1 30.9591 6.84137 44.079
433 1 25.9401 23.3044 17.041
434 1 20.0833 35.2104 47.5424
435 1 23.3632 52.222 8.36446
436 1 32.6282 31.7682 48.5487
437 1 28.8874 22.3314 37.1876
438 1 52.5164 15.6052 40.533
439 1 1.44377 38.5225 54.0116
440 1 12.5792 11.2646 26.38
441 1 22.5538 14.1534 11.0238
442 1 39.6087 30.5208 7.22144
443 1 35.6238 11.3352 27.705
444 1 13.9444 45.1488 39.8942
445 1 5.04239 15.0017 18.3039
446 1 33.6965 25.8081 43.6186
447 1 21.1459 52.4175 10.2356
448 1 32.3344 14.2346 54.8255
449 1 54.2836 7.05028 28.9515
450 1 54.7159 38.1753 46.5868
451 1 25.6082 51.9393 6.1096
452 1 54.3982 10.7888 20.2425
453 1 12.6062 26.7418 22.6875
454 1 9.37995 32.9149 51.2589
455 1 19.5568 18.2258 25.0394
456 1 31.5712 1.47649 36.0201
457 1 53.7987 41.1809 19.7823
458 1 27.4883 20.0571 36.7268
459 1 2.68572 34.5845 9.50161
460 1 50.3721 15.7508 38.5176
461 1 6.04362 16.7606 15.4718
462 1 48.9264 27.9194 9.59188
463 1 11.1851 10.6649 3.98738
464 1 31.8283 52.5932 22.6378
465 1 9.95224 2.13487 34.4364
466 1 6.7007 1.36584 27.4097
467 1 35.2855 19.3612 43.7085
468 1 54.9585 9.08342 51.0675
469 1 9.53595 33.1614 20.5484
470 1 14.4872 33.531 11.8407
471 1 26.8392 9.92493 3.12456
472 1 13.6171 23.1105 38.3184
473 1 50.0344 41.2444 45.6266
474 1 44.8071 26.185 21.9147
475 1 23.2852 25.1525 20.4872
476 1 12.8836 42.75 30.8685
477 1 48.8938 2.79928 36.8789
478 1 36.251 10.6623 33.5858
479 1 55.5703 25.5138 35.4082
480 1 47.584 12.1066 4.64967
481 1 18.6201 49.2515 41.7662
482 1 30.0358 44.6123 37.1199
483 1 46.7282 19.3669 34.3131
484 1 9.49631 27.5435 55.2713
485 1 21.099 45.0001 26.0009
486 1 48.8926 3.39793 4.56062
487 1 25.8748 17.3477 26.9357
488 1 15.9841 45.8226 27.0243
489 1 2.8364 44.9081 13.9097
490 1 25.5412 52.7083 26.4409
491 1 24.8935 8.77632 20.6144
492 1 27.2053 24.7635 41.9732
493 1 15.0126 40.7946 31.5451
494 1 42.8105 12.2786 12.3206
495 1 7.63894 15.1755 3.14847
496 1 39.5019 18.2838 36.9051
497 1 13.5845 42.7918 27.946
498 1 5.40487 11.8785 16.6639
499 1 34.4846 30.4333 20.258
500 1 49.5476 1.76291 31.2973
501 1 49.1874 53.6893 55.0253
502 1 3.7292 44.8009 8.92967
503 1 52.7174 14.5324 49.032
504 1 35.4892 50.2956 18.5429
505 1 36.6849 24.7661 0.662875
506 1 28.3209 50.687 39.3911
507 1 5.68729 47.2395 16.1758
508 1 10.4152 45.6767 16.7675
509 1 53.9306 29.6114 8.2153
510 1 27.0511 3.43612 49.7401
511 1 47.18 5.28598 5.21184
512 1 13.0162 53.4899 13.1833
513 1 14.8317 15.9379 23.6459
514 1 31.2765 26.5632 20.4565
515 1 29.4414 12.5979 27.6081
516 1 5.05199 40.6327 37.0698
517 1 12.0955 6.99677 18.2864
518 1 24.3726 11.9862 13.3991
519 1 10.0922 7.39337 44.7825
520 1 35.774 17.7145 4.3463
521 1 48.5081 25.4634 34.9476
522 1 9.38025 18.9051 2.24445
523 1 36.8345 16.0515 25.9949
524 1 40.2175 51.9715 32.1384
525 1 19.3106 36.5169 31.8285
526 1 21.3347 16.9827 36.9219
527 1 40.8486 13.8056 26.014
528 1 2.49622 6.66575 6.15656
529 1 41.1071 4.51499 30.321
530 1 0.741448 47.3212 51.9963
531 1 22.0852 1.62707 26.1537
532 1 48.8377 7.53029 13.6066
533 1 43.4263 7.8039 10.4066
534 1 18.4453 33.0581 6.39451
535 1 34.0214 48.8052 52.2402
536 1 37.7957 31.3276 20.2887
537 1 19.3785 22.1948 20.8617
538 1 20.5161 21.4591 47.9241
539 1 28.7442 38.0802 33.3532
540 1 36.6915 8.74122 27.3187
541 1 41.3123 40.0074 9.47876
542 1 32.1712 3.5916 24.7964
543 1 38.3301 45.2105 35.0509
544 1 32.0062 34.5156 15.3257
545 1 50.9653 27.119 5.42465
546 1 7.55653 38.3112 25.8505
547 2 15.4544 40.207 26.3866
548 2 12.7357 46.9949 0.961719
549 2 34.6028 51.5555 21.1859
550 2 1.08127 49.9398 13.9576
551 2 52.6991 8.21263 20.1788
552 2 10.066 6.83422 35.3664
553 2 37.9405 9.0874 16.8161
554 2 23.7958 5.65696 52.9006
555 2 14.9478 13.1308 21.8561
556 2 12.6341 41.3287 43.3964
557 2 14.0776 5.65862 33.8798
558 2 17.2281 32.8028 3.54582
559 2 40.416 17.2089 20.7844
560 2 5.11069 15.6615 29.5331
561 2 38.937 12.2184 50.8728
562 2 3.66943 19.7979 28.4225
563 2 30.4988 47.0546 34.6975
564 2 16.5153 5.28929 39.7808
565 2 20.3715 21.6808 35.2701
566 2 31.302 13.574 38.6938
567 2 44.869 38.2824 0.316452
568 2 43.8607 18.0244 20.0102
569 1 16.0241 56.0982 17.3362
570 1 54.8141 51.849 0.545281
571 1 24.3271 22.9396 7.37639
572 1 48.3417 15.6756 49.9403
573 1 22.2818 15.0598 22.6072
574 1 30.97 1.05708 13.9486
575 1 23.2059 17.6733 30.7593
576 1 24.356 2.32762 22.6191
577 1 0.105978 7.71641 13.3298
578 1 55.2665 40.0976 44.6496
579 1 27.4106 36.5028 49.8575
580 1 12.3519 11.8099 55.8125
581 1 32.8139 56.155 4.98202
582 1 15.5396 23.8182 22.2343
583 1 45.2883 25.7063 18.1943
584 1 36.7089 5.80182 40.7931
585 1 33.6147 7.92927 23.3589
586 1 55.5808 0.225676 31.0629
587 1 11.4013 52.4084 51.1544
588 1 54.4309 4.57821 11.2073
589 1 46.5033 36.7815 51.5531
590 1 1.38003 8.96453 7.60202
591 1 23.4166 7.0193 37.9185
592 1 52.8709 33.6028 6.43772
593 1 24.4313 34.4577 47.1611
594 1 2.85618 42.4028 41.7896
595 1 34.5745 16.7736 44.3655
596 1 5.19858 1.97036 39.5822
597 1 18.3014 37.8762 7.13949
598 1 10.2718 47.4587 39.4397
599 1 53.5211 7.5094 24.8048
600 1 11.4757 39.9304 5.56772
601 1 20.3653 47.6513 3.79694
602 1 2.77568 42.7456 15.7732
603 1 25.0615 35.4053 -0.0456255
604 1 14.3423 16.0808 28.6653
605 1 20.6851 32.0893 6.65364
606 1 20.4555 38.7544 42.4513
607 1 39.186 13.7522 33.8773
608 1 43.3085 33.7038 0.352849
609 1 34.5534 30.32 12.3581
610 1 43.7667 5.2561 44.8756
611 1 20.1849 55.6184 37.2091
612 1 18.125 47.1047 45.5516
613 1 13.7033 3.08862 0.471473
614 1 54.1796 33.7713 10.9471
615 1 5.76746 42.8361 41.5714
616 1 51.4632 24.1169 29.8245
617 1 16.3796 11.7471 51.8666
618 1 47.621 -0.00207737 18.7702
619 1 30.3558 -0.0517684 25.1629
620 1 33.3402 30.1102 22.9128
621 1 53.1426 8.8617 27.3089
622 1 3.07148 38.0797 46.6109
623 1 14.5009 50.6944 4.5778
624 1 35.0172 7.43832 53.8072
625 1 7.80728 25.9782 24.3189
626 1 31.6587 26.6828 26.3998
627 1 33.6498 50.76 7.91718
628 1 31.784 7.48488 18.0555
629 1 44.4241 48.2107 5.0108
630 1 38.396 13.3928 29.0663
631 1 43.7418 28.7848 13.7536
632 1 20.4059 16.4766 29.5462
633 1 23.341 6.9196 6.48995
634 1 48.1492 45.8996 17.7945
635 1 26.6546 49.4728 37.5147
636 1 3.81498 5.88756 17.6287
637 1 49.6447 14.2732 30.9457
638 1 45.0479 2.83904 28.729
639 1 26.9777 3.05771 2.15671
640 1 39.2722 49.6253 8.2363
641 1 44.0817 35.6268 38.6199
642 1 53.9629 18.466 10.2834
643 1 4.08755 18.7269 33.3657
644 1 32.208 52.7731 27.6978
645 1 49.4552 14.7124 52.6034
646 1 13.0621 31.3674 12.4592
647 1 15.2909 42.3652 10.8025
648 1 10.4014 33.3626 45.4321
649 1 9.92887 18.9099 27.8822
650 1 13.9932 10.0684 2.98798
651 1 27.5387 27.8664 23.7521
652 1 17.1162 39.6995 4.92805
653 1 51.7291 28.4588 48.3747
654 1 29.7509 34.4656 56.2029
655 1 42.9919 11.1359 29.5396
656 1 37.1265 51.9994 40.1015
657 1 41.8198 25.4971 7.70648
658 1 25.1454 8.32549 54.4383
659 1 32.483 38.4527 37.5859
660 1 5.53214 55.7543 18.102
661 1 46.3827 36.0731 12.9187
662 1 19.8949 35.7871 37.3607
663 1 22.3923 33.4697 8.31148
664 1 55.2465 50.0792 48.3147
665 1 28.9507 5.24346 4.48541
666 1 22.0169 15.3571 32.0828
667 1 45.8685 31.3105 21.5442
668 1 40.6203 18.5124 51.3262
669 1 51.9396 24.3852 13.4588
670 1 34.0503 45.7944 14.825
671 1 28.8872 47.1574 14.4084
672 1 2.04013 18.3972 8.99439
673 1 13.8128 9.3136 37.7098
674 1 45.1503 -0.177545 4.42659
675 1 2.22148 39.7009 0.282056
676 1 55.6697 20.1824 43.4751
677 1 55.8581 36.0674 54.3905
678 1 17.4788 55.1135 19.7062
679 1 45.4014 8.90863 16.646
680 1 28.6211 31.9355 46.1041
681 1 -0.0725918 26.1359 53.268
682 1 8.54893 3.05201 42.1025
683 1 34.3356 12.8457 37.7097
684 1 39.9547 34.9204 36.9844
685 1 23.4381 55.2966 15.0716
686 1 45.0501 15.0833 10.6481
687 1 47.4463 55.2161 28.2203
688 1 24.2459 4.44031 38.9083
689 2 21.8988 49.7039 23.897
690 2 30.8938 50.4998 9.82021
691 2 34.3762 27.0059 38.8774
692 2 13.9171 36.8416 53.7489
693 2 45.047 48.2182 22.583
694 2 7.294 52.1639 54.6501
695 2 17.4773 14.9879 45.35
696 2 16.6218 40.9555 7.75903
697 2 1.61989 17.8795 36.1856
698 2 17.1124 18.1056 6.86358
699 2 44.7096 10.9129 39.9362
700 2 38.2921 4.71653 3.02806
701 2 53.8885 27.7455 5.42238
702 2 36.4222 28.7667 26.8499
703 2 49.3699 45.9116 44.3907
704 2 54.4914 12.57 17.6128
705 2 2.15744 37.0775 7.52744
706 2 2.07738 40.6743 44.3437
707 2 47.8045 17.0676 18.7566
708 2 43.2197 54.6054 0.368899
709 2 44.4011 30.6546 42.3983
710 2 53.2471 48.4177 30.8646
711 1 44.5508 1.6213 51.4642
712 1 22.1502 4.91354 55.731
713 1 1.03454 49.6429 44.1947
714 1 44.2988 32.0328 26.3682
715 1 48.8776 14.5524 44.5052
716 1 2.67019 15.8897 51.3098
717 1 43.7021 7.88318 51.5485
718 1 8.84377 38.7672 51.1859
719 1 46.0598 30.6732 44.8719
720 1 19.0108 16.4026 13.1547
721 1 31.1942 6.78914 5.05207
722 1 30.2657 38.3607 1.29583
723 1 19.1953 14.8096 15.7162
724 1 40.5986 39.7386 51.7709
725 1 18.231 55.9925 34.7608
726 1 27.9214 49.3642 43.0465
727 1 32.6731 44.7483 16.9252
728 1 28.815 1.284 1.30211
729 1 51.9049 20.6966 54.9609
730 1 5.93468 42.5996 26.6489
731 1 40.8765 7.75188 23.4182
732 1 13.0109 0.819026 14.8327
733 1 51.9609 9.74533 37.7764
734 1 36.4813 46.2401 24.1959
735 1 51.2265 41.1424 43.012
736 1 42.6395 10.5696 2.34017
737 1 34.803 42.4332 30.3829
738 1 0.557367 11.6242 6.76515
739 1 22.9405 22.8676 53.4789
740 1 41.258 31.457 44.1293
741 1 53.3018 11.3386 28.1846
742 1 14.435 11.2457 39.4569
743 1 33.9445 33.0828 26.7507
744 1 33.5299 55.5269 40.3509
745 1 48.2729 12.0182 10.5754
746 1 11.9259 20.8803 28.5712
747 1 0.578604 2.9128 36.0507
748 1 43.3489 51.9199 7.93429
749 1 17.0048 12.881 42.9627
750 1 51.7269 5.53712 21.3359
751 1 30.7243 44.2225 29.646
752 1 21.2027 12.4127 30.131
753 1 18.2817 9.52371 45.511
754 1 25.3573 2.34539 29.4605
755 1 26.619 25.0239 18.8384
756 1 30.8864 -0.256642 52.7579
757 1 15.1842 37.2896 25.108
758 1 54.6514 27.2142 20.1954
759 1 47.4335 1.03478 3.34699
760 1 17.7784 41.42 0.532348
761 1 55.4937 6.87513 15.977
762 1 41.0743 43.4317 4.34417
763 1 24.6484 17.5569 8.89894
764 1 23.127 18.0858 27.7626
765 1 43.4256 25.9853 32.1604
766 1 38.1743 19.079 50.8459
767 1 13.3791 9.44378 30.6723
768 1 26.4816 22.3859 35.7135
769 1 17.8531 48.559 54.8228
770 1 15.0049 3.89171 2.85606
771 1 11.7356 38.3073 44.3257
772 1 30.4231 15.5716 48.7038
773 1 10.1727 16.5224 45.9342
774 1 41.2119 -0.110888 43.7228
775 1 47.1137 33.8992 34.1041
776 1 25.9951 1.22277 20.8942
777 1 4.9509 -0.213874 37.9886
778 1 22.1251 33.558 48.1353
779 1 40.9011 26.851 44.33
780 1 22.707 53.4865 45.176
781 1 10.0827 31.7201 11.574
782 1 6.1175 21.5943 15.5275
783 1 50.6651 0.76299 36.469
784 1 38.5481 23.4432 17.885
785 1 30.783 25.0573 44.8812
786 1 9.84178 10.0918 35.2387
787 1 5.15574 31.1648 54.325
788 1 2.4498 10.2191 37.1275
789 1 11.8343 25.4205 44.9328
790 1 43.8974 35.3736 52.4594
791 1 36.0466 19.9732 27.202
792 1 25.5496 1.97972 18.0921
793 1 8.02194 1.11085 11.3306
794 1 27.4585 27.6642 18.5546
795 1 48.8029 4.31286 15.8753
796 1 3.24594 54.8202 53.8642
797 1 18.9654 10.982 13.5901
798 1 54.0186 26.1028 52.8989
799 1 15.6859 25.8666 9.74244
800 1 17.1002 30.7236 55.4048
801 1 49.3055 48.702 10.7992
802 1 9.40652 27.3948 22.7089
803 1 37.382 48.1251 39.2978
804 1 52.3113 36.821 9.27974
805 1 42.7288 45.0441 28.9324
806 1 9.47767 15.0369 33.2713
807 1 43.0816 5.30092 48.3331
808 1 46.2004 2.76704 38.0707
809 1 17.868 30.0622 5.9235
810 1 7.98857 40.9533 32.0966
811 1 33.7845 22.183 47.9616
812 1 34.5391 54.7982 47.3983
813 1 12.8409 3.20597 9.23052
814 1 41.0229 1.61985 27.1836
815 1 4.49436 8.90231 41.7331
816 1 50.4873 12.1793 33.1927
817 1 44.8645 43.5491 29.0192
818 1 48.2886 47.0921 39.1295
819 1 21.9228 35.3175 1.17229
820 1 53.8982 18.0166 30.3993
821 1 14.4135 36.918 22.1463
822 1 0.959621 4.03184 28.6784
823 1 55.5114 50.05 39.9514
824 1 6.83838 46.8723 20.1312
825 1 15.7288 49.2648 32.5789
826 1 17.1147 51.0895 3.97405
827 1 24.9507 49.7303 43.1142
828 1 38.6231 40.3534 53.5816
829 1 49.5474 56.0378 29.5629
830 1 51.5999 43.4977 3.865
831 2 7.28151 40.1424 40.0355
832 2 24.0736 14.3815 2.89107
833 2 20.2308 43.2675 23.4095
834 2 42.9362 29.1175 45.773
835 2 27.214 55.8477 27.6038
836 2 19.9103 17.4678 32.6345
837 2 15.8218 27.2795 18.3363
838 2 22.8253 42.8074 47.9048
839 2 29.0125 35.6882 31.3191
840 2 19.815 16.1216 53.5099
841 2 15.6492 26.9384 26.4783
842 2 47.6195 9.40118 45.4469
843 2 42.2597 1.32673 29.9125
844 2 31.393 15.3316 18.1304
845 2 8.36717 52.1065 16.1896
846 2 41.6157 41.3417 48.6798
847 2 48.5501 55.4937 10.3891
848 2 48.1889 44.3755 25.8886
849 2 23.487 17.2085 34.1504
850 2 22.9304 32.0215 44.6821
851 2 48.4414 -0.27352 53.6501
852 2 46.552 38.6832 20.1378
853 1 30.5644 49.1872 13.3787
854 1 30.4795 42.0828 46.7315
855 1 48.1859 26.6652 14.6809
856 1 50.5651 12.8432 26.3261
857 1 1.99526 23.1005 41.3297
858 1 14.082 48.6241 44.5855
859 1 50.9527 19.9893 22.8066
860 1 7.69865 36.154 5.7007
861 1 52.2537 36.7691 29.1119
862 1 54.7318 30.7377 5.64714
863 1 33.7943 11.1655 10.4031
864 1 31.7759 21.3862 3.92621
865 1 14.7357 26.8193 14.4526
866 1 2.92692 41.5472 1.81232
867 1 8.68593 17.5665 40.5247
868 1 52.0412 2.75483 35.7877
869 1 53.6012 23.7145 51.2821
870 1 55.6983 28.7114 28.8242
871 1 10.2803 28.5259 15.3039
872 1 53.4134 37.8838 40.8686
873 1 21.921 44.2057 8.77157
874 1 54.4749 46.0381 1.39894
875 1 55.0294 24.9702 44.2213
876 1 42.0964 6.13159 15.1899
877 1 0.196992 27.5169 22.4599
878 1 37.3333 18.0171 22.162
879 1 3.14427 29.4204 30.1331
880 1 52.0891 11.4237 1.57689
881 1 33.3747 19.4159 47.9094
882 1 44.8223 22.54 52.9129
883 1 9.22894 17.1082 4.44813
884 1 51.6877 54.5381 36.2083
885 1 13.1585 29.5291 52.6292
886 1 33.571 38.1078 1.60797
887 1 7.21252 15.8053 20.1141
888 1 7.72117 25.7434 0.284945
889 1 44.4059 3.90228 53.6813
890 1 2.02923 48.1315 2.88873
891 1 44.5537 22.8257 42.4815
892 1 19.1416 45.7007 5.24037
893 1 24.8678 52.5408 43.6588
894 1 9.54933 48.1347 6.63071
895 1 8.44782 43.1849 28.4488
896 1 2.57044 40.8797 17.7995
897 1 29.0299 53.0113 5.02049
898 1 40.352 27.4873 47.4312
899 1 16.9007 19.0859 31.9352
900 1 16.5157 27.272 50.3154
901 1 40.1862 48.5912 40.5394
902 1 24.7478 56.0531 29.8513
903 1 18.9088 55.7537 9.28393
904 1 35.855 35.7224 11.7769
905 1 28.4302 30.3118 22.2765
906 1 8.39736 16.7647 26.5525
907 1 27.5188 47.6819 16.5993
908 1 1.19984 5.93131 35.0076
909 1 45.302 2.88098 40.8136
910 1 50.4454 40.1674 8.22017
911 1 12.8827 8.6753 24.9724
912 1 21.0435 14.1288 45.0918
913 1 55.6091 0.832388 49.6758
914 1 53.2643 51.739 30.8502
915 1 18.2597 30.9071 53.1906
916 1 17.5847 38.7161 32.459
917 1 31.6825 5.69268 49.9513
918 1 50.5655 35.2758 13.8401
919 1 46.8045 42.7693 37.1426
920 1 12.9734 25.701 27.3964
921 1 40.9746 -0.299605 19.2602
922 1 17.4638 41.7972 31.5795
923 1 54.2298 2.9509 32.245
924 1 0.621299 11.4634 16.2664
925 1 49.6732 54.1655 5.91273
926 1 27.9247 49.7649 51.4259
927 1 51.7761 3.01579 38.6409
928 1 38.2193 19.0987 19.7277
929 1 50.2574 33.3082 7.22409
930 1 39.5559 49.871 17.0775
931 1 23.6805 20.8447 34.3457
932 1 30.3435 50.8416 30.9875
933 1 28.5884 6.88649 40.9717
934 1 24.4985 51.1758 54.8167
935 1 53.0999 53.2145 12.7164
936 1 22.1694 25.3706 30.6626
937 1 45.3767 33.108 44.0185
938 1 34.9157 13.6801 46.3888
939 1 52.4665 46.1798 49.8563
940 1 53.9348 6.21242 2.4999
941 1 33.1363 54.3405 38.0822
942 1 15.4051 46.6164 45.6751
943 1 31.4051 39.266 43.135
944 1 11.0501 42.826 17.2506
945 1 36.1303 26.6286 54.9776
946 1 14.5984 44.0393 44.4539
947 1 41.5594 25.527 34.5959
948 1 15.6999 55.5813 43.6834
949 1 49.3574 7.47972 33.805
950 1 38.8176 15.2344 43.8092
951 1 14.7295 43.3729 54.0845
952 1 44.5469 0.586098 48.3555
953 1 26.3959 24.2414 5.95876
954 1 54.4315 -0.0731486 28.0636
955 1 12.867 21.8749 15.3574
956 1 3.79087 13.4131 0.244842
957 1 50.5707 45.6514 54.0218
958 1 54.2108 23.855 30.2381
959 1 22.1395 51.3398 -0.183399
960 1 53.827 14.1108 12.5747
961 1 37.2929 41.0104 3.34238
962 1 34.8397 7.32163 18.3636
963 1 7.85723 29.9705 47.498
964 1 25.7305 14.716 44.352
965 1 16.7811 32.658 33.7782
966 1 25.1577 42.5079 31.0516
967 1 14.8809 4.04039 47.9349
968 1 49.7515 10.4822 47.8787
969 1 34.4788 39.4903 55.9471
970 1 37.0573 26.5139 24.7211
971 1 32.5805 7.44986 39.6196
972 1 40.895 9.62988 46.5927
973 2 45.2755 4.20736 25.7114
974 2 46.2956 39.5076 35.5426
975 2 53.6954 38.9953 27.6877
976 2 17.2248 30.8382 49.8411
977 2 52.8885 35.8046 16.197
978 2 52.7887 36.3345 19.8641
979 2 34.0293 42.4878 40.5542
980 2 55.1755 6.31918 45.0117
981 2 36.8172 11.503 9.46762
982 2 54.316 29.8229 49.3541
983 2 12.2611 31.4394 0.61045
984 2 46.6323 22.9824 34.4357
985 2 51.7615 2.15412 10.5401
986 2 7.17351 18.2809 37.6697
987 2 16.4394 7.61546 5.71669
988 2 2.31614 27.0351 51.867
989 2 40.202 27.8313 32.2847
990 2 54.2934 9.57339 14.8583
991 2 23.045 21.4643 17.6935
992 2 16.4052 15.6415 54.8511
993 2 1.43149 15.5625 55.8881
994 2 53.7916 22.9546 35.4714
995 1 54.6995 3.21065 44.1572
996 1 49.8631 26.6439 49.5848
997 1 22.953 2.91597 45.9738
998 1 4.87675 48.9073 23.3301
999 1 20.8197 46.9094 50.6288
1000 1 19.4457 8.98619 47.9483
1001 1 34.118 29.7063 41.1411
1002 1 52.7914 26.5412 7.9955
1003 1 13.7669 29.5209 18.1702