units           metal
boundary        p p p
atom_style      atomic
read_data      ../../data/T${T}.dat
read_data      ../../data/T380.dat
Reading data file ...
  orthogonal box = (-0.21378474 -0.21378474 -0.21378474) to (56.098277 56.098277 56.098277)
  3 by 4 by 4 MPI processor grid
  reading atoms ...
  9088 atoms
  reading velocities ...
  9088 velocities
  read_data CPU = 0.052 seconds
mass            1  26.98	#Al
mass            2  150.36	#Sm
pair_style      eam/fs
pair_coeff      * *  ../../Al90Sm10_MendelevM_2014.eam.fs  Al Sm

neighbor        2.0 bin
neigh_modify    delay 1

timestep 0.01
thermo 1000
reset_timestep 0
thermo_style custom step temp pe etotal press vol lx ly lz
fix             1 all nvt temp ${T} ${T} 0.1
fix             1 all nvt temp 380 ${T} 0.1
fix             1 all nvt temp 380 380 0.1
thermo_modify flush yes
fix nodrift all momentum 1  linear 1 1 1
fix com_seed all recenter INIT INIT INIT shift all
fix dsf all deform 1 x  wiggle 1.0  10000.0 y volume z volume units box
fix ps1 all ave/time 1 1 10000 c_thermo_press[1] c_thermo_press[2]  c_thermo_press[3] c_thermo_press[4]  c_thermo_press[5] c_thermo_press[6]  file  stress.${T}
fix ps1 all ave/time 1 1 10000 c_thermo_press[1] c_thermo_press[2]  c_thermo_press[3] c_thermo_press[4]  c_thermo_press[5] c_thermo_press[6]  file  stress.380
dump            1 all custom 1000000 dump.${T} id type x y z
dump            1 all custom 1000000 dump.380 id type x y z
dump_modify 1 sort id
run 10000000
Neighbor list info ...
  update every 1 steps, delay 1 steps, check yes
  max neighbors/atom: 2000, page size: 100000
  master list distance cutoff = 10
  ghost atom cutoff = 10
  binsize = 5, bins = 12 12 12
  1 neighbor lists, perpetual/occasional/extra = 1 0 0
  (1) pair eam/fs/intel, perpetual
      attributes: half, newton on, intel
      pair build: half/bin/newton/intel
      stencil: half/bin/3d/newton
      bin: intel
Per MPI rank memory allocation (min/avg/max) = 6.284 | 6.397 | 6.491 Mbytes
Step Temp PotEng TotEng Press Volume Lx Ly Lz 
       0    378.82974    -37838.46   -37393.492    220.80937    178568.27    56.312062    56.312062    56.312062 
    1000    377.33946    -37818.21   -37374.992    569.48257    178568.27    56.318345    56.308921    56.308921 
    2000    380.67589   -37819.536   -37372.399    689.38842    178568.27    56.324628     56.30578     56.30578 
    3000    376.82003   -37826.832   -37384.225    335.35461    178568.27    56.330911     56.30264     56.30264 
    4000     378.9389   -37823.121   -37378.024    456.57324    178568.27    56.337192    56.299501    56.299501 
    5000    371.19574   -37822.485   -37386.483    303.86292    178568.27    56.343473    56.296363    56.296363 
    6000    383.07662   -37810.033   -37360.077    924.61307    178568.27    56.349752    56.293226    56.293226 
    7000    387.23609   -37816.928   -37362.086    615.63703    178568.27     56.35603    56.290091    56.290091 
    8000    377.98653   -37817.689   -37373.711    371.47963    178568.27    56.362306    56.286957    56.286957 
    9000      380.401   -37822.117   -37375.303    352.37552    178568.27    56.368581    56.283824    56.283824 
   10000    378.12014   -37818.933   -37374.798    391.50984    178568.27    56.374853    56.280693    56.280693 
   11000    380.30651   -37824.538   -37377.834    374.27511    178568.27    56.381122    56.277564    56.277564 
   12000    384.93986   -37824.101   -37371.956    331.33272    178568.27    56.387389    56.274436    56.274436 
   13000    380.20349   -37815.039   -37368.457    651.96158    178568.27    56.393653    56.271311    56.271311 
   14000    382.70302   -37820.844   -37371.326    699.58136    178568.27    56.399913    56.268188    56.268188 
   15000    377.49317   -37812.221   -37368.822    646.06782    178568.27     56.40617    56.265067    56.265067 
   16000    382.16159   -37817.177   -37368.295    559.24585    178568.27    56.412424    56.261948    56.261948 
   17000    374.73916   -37819.707   -37379.543    400.88828    178568.27    56.418673    56.258832    56.258832 
   18000    381.11302   -37825.508   -37377.857    219.13864    178568.27    56.424918    56.255719    56.255719 
   19000    380.20925   -37817.178    -37370.59    685.19262    178568.27    56.431159    56.252608    56.252608 
   20000    381.43589   -37817.339   -37369.309    480.95415    178568.27    56.437395      56.2495      56.2495 
   21000    379.15749   -37825.001   -37379.647    476.37061    178568.27    56.443626    56.246395    56.246395 
   22000     385.6533   -37827.166   -37374.182    328.48178    178568.27    56.449852    56.243293    56.243293 
   23000     375.7858   -37826.153    -37384.76    338.92444    178568.27    56.456073    56.240195    56.240195 
   24000     376.0509   -37815.844   -37374.139    643.21441    178568.27    56.462288    56.237099    56.237099 
   25000     386.0772   -37818.321    -37364.84     661.8619    178568.27    56.468497    56.234007    56.234007 
   26000     381.8658   -37817.904   -37369.369    660.69574    178568.27    56.474699    56.230919    56.230919 
   27000    380.88783   -37826.829   -37379.443    408.64234    178568.27    56.480896    56.227835    56.227835 
   28000    375.29403   -37819.079   -37378.263    658.25155    178568.27    56.487085    56.224754    56.224754 
   29000    373.71832   -37821.822   -37382.857    359.22744    178568.27    56.493268    56.221677    56.221677 
   30000    384.24954   -37813.206   -37361.872    800.00778    178568.27    56.499443    56.218605    56.218605 
   31000    381.19496   -37825.381   -37377.634      393.609    178568.27    56.505612    56.215536    56.215536 
   32000    383.39376   -37814.721   -37364.392    853.18169    178568.27    56.511772    56.212472    56.212472 
   33000    374.55836   -37818.726   -37378.774    579.71692    178568.27    56.517925    56.209412    56.209412 
   34000    376.65881    -37817.72   -37375.301    574.65171    178568.27    56.524069    56.206357    56.206357 
   35000    377.98672   -37820.225   -37376.247    506.25048    178568.27    56.530205    56.203306    56.203306 
   36000    382.09593   -37820.879   -37372.075    449.41464    178568.27    56.536333    56.200261    56.200261 
   37000    382.80675   -37816.488   -37366.849     499.8921    178568.27    56.542452     56.19722     56.19722 
   38000    376.56741   -37813.542   -37371.231    763.68346    178568.27    56.548561    56.194184    56.194184 
   39000    376.12273   -37814.137   -37372.348    644.66371    178568.27    56.554661    56.191153    56.191153 
   40000    383.22186   -37819.334   -37369.206    573.15852    178568.27    56.560752    56.188128    56.188128 
   41000    384.75922   -37821.216   -37369.283    621.97759    178568.27    56.566833    56.185107    56.185107 
   42000    376.02334   -37815.368   -37373.696    511.99749    178568.27    56.572904    56.182093    56.182093 
   43000    383.26852   -37819.964   -37369.781    649.34623    178568.27    56.578964    56.179084    56.179084 
   44000    383.00672   -37819.428   -37369.553    744.57413    178568.27    56.585014     56.17608     56.17608 
   45000    388.14347   -37817.835   -37361.927    684.67543    178568.27    56.591053    56.173083    56.173083 
   46000    376.68675     -37818.1   -37375.648    422.04013    178568.27    56.597081    56.170091    56.170091 
   47000    376.98462   -37815.763   -37372.961    652.07758    178568.27    56.603098    56.167106    56.167106 
   48000    382.42668   -37816.983    -37367.79    605.13747    178568.27    56.609104    56.164126    56.164126 
   49000    384.46165   -37817.205   -37365.621    544.71182    178568.27    56.615097    56.161153    56.161153 
   50000    376.88246   -37819.389   -37376.708    499.55024    178568.27    56.621079    56.158187    56.158187 
   51000    374.86947   -37819.298   -37378.981    360.78269    178568.27    56.627049    56.155226    56.155226 
   52000    378.02235   -37821.219   -37377.199    461.07341    178568.27    56.633006    56.152273    56.152273 
   53000    384.85263   -37816.815   -37364.772    560.50775    178568.27     56.63895    56.149326    56.149326 
   54000      382.417    -37825.96   -37376.778    332.51305    178568.27    56.644882    56.146386    56.146386 
   55000    375.78368   -37819.851    -37378.46    560.31452    178568.27      56.6508    56.143453    56.143453 
   56000    379.31859   -37816.142     -37370.6    669.43758    178568.27    56.656705    56.140528    56.140528 
   57000    382.14186   -37820.311   -37371.453    451.57392    178568.27    56.662596    56.137609    56.137609 
   58000    380.77143   -37813.904   -37366.655    712.00329    178568.27    56.668474    56.134698    56.134698 
   59000    376.76823   -37817.516   -37374.969    687.61849    178568.27    56.674337    56.131794    56.131794 
   60000    377.49953   -37818.208   -37374.802    606.08288    178568.27    56.680187    56.128897    56.128897 
   61000    388.20241   -37824.472   -37368.495     545.8762    178568.27    56.686021    56.126009    56.126009 
   62000    383.93898   -37821.998   -37371.029    399.24299    178568.27    56.691841    56.123128    56.123128 
   63000    374.60781   -37818.868   -37378.859    473.13937    178568.27    56.697646    56.120255    56.120255 
   64000    375.25985    -37821.84   -37381.064     338.8067    178568.27    56.703436    56.117389    56.117389 
   65000    386.46343   -37813.923   -37359.988    638.72093    178568.27     56.70921    56.114532    56.114532 
   66000    381.30724   -37820.283   -37372.404    491.46719    178568.27    56.714969    56.111684    56.111684 
   67000    381.64226   -37822.113   -37373.841    379.66033    178568.27    56.720711    56.108843    56.108843 
   68000    376.52376   -37812.286   -37370.027     846.2557    178568.27    56.726438    56.106011    56.106011 
   69000    381.42935   -37823.484   -37375.462     414.5365    178568.27    56.732148    56.103187    56.103187 
   70000    381.03101   -37816.219   -37368.665    872.39528    178568.27    56.737841    56.100372    56.100372 
   71000    374.10218   -37822.418   -37383.002    401.27623    178568.27    56.743518    56.097566    56.097566 
   72000    372.98611   -37817.372   -37379.267    376.78721    178568.27    56.749178    56.094768    56.094768 
   73000    384.71646   -37818.779   -37366.896     643.3607    178568.27     56.75482     56.09198     56.09198 
   74000    383.49004   -37823.871   -37373.429     431.7971    178568.27    56.760445    56.089201    56.089201 
   75000    375.51849    -37823.65   -37382.571    368.51082    178568.27    56.766053     56.08643     56.08643 
   76000    385.45144   -37820.282   -37367.535    598.32352    178568.27    56.771642    56.083669    56.083669 
   77000    377.06543   -37820.433   -37377.537    438.49956    178568.27    56.777213    56.080918    56.080918 
   78000    374.18598   -37813.717   -37374.203    610.16207    178568.27    56.782766    56.078175    56.078175 
   79000    377.23724   -37822.463   -37379.365    307.56469    178568.27      56.7883    56.075443    56.075443 
   80000     379.3557   -37809.448   -37363.861    841.58317    178568.27    56.793816     56.07272     56.07272 
   81000    377.81608   -37814.929   -37371.151    736.44277    178568.27    56.799312    56.070007    56.070007 
   82000    381.60562   -37820.867   -37372.638    543.42526    178568.27    56.804789    56.067303    56.067303 
   83000     376.9247   -37808.279   -37365.548    819.89295    178568.27    56.810247     56.06461     56.06461 
   84000     383.1638   -37813.482   -37363.423    797.34937    178568.27    56.815685    56.061927    56.061927 
   85000    379.35335   -37818.411   -37372.827    427.00007    178568.27    56.821104    56.059254    56.059254 
   86000    380.40008   -37816.527   -37369.714     611.4814    178568.27    56.826502    56.056591    56.056591 
   87000    373.43143   -37813.395   -37374.767    608.88562    178568.27    56.831879    56.053939    56.053939 
   88000    382.26307   -37817.997   -37368.996    512.39728    178568.27    56.837237    56.051297    56.051297 
   89000     379.7343   -37817.411    -37371.38    730.37745    178568.27    56.842573    56.048666    56.048666 
   90000    380.85866   -37820.342    -37372.99    617.54363    178568.27    56.847889    56.046046    56.046046 
   91000    375.75693   -37809.186   -37367.827    869.96805    178568.27    56.853183    56.043436    56.043436 
   92000    385.26801   -37816.286   -37363.755    435.01986    178568.27    56.858456    56.040837    56.040837 
   93000    380.74987   -37822.766   -37375.542    509.81092    178568.27    56.863708    56.038249    56.038249 
   94000    376.59704   -37818.693   -37376.347     498.4905    178568.27    56.868938    56.035673    56.035673 
   95000     391.1681   -37815.567   -37356.106    769.79821    178568.27    56.874145    56.033107    56.033107 
   96000    377.17118   -37820.094   -37377.073    383.89325    178568.27    56.879331    56.030553    56.030553 
   97000    379.42836   -37817.237   -37371.565    145.12058    178568.27    56.884494     56.02801     56.02801 
   98000      379.065   -37822.177   -37376.932    406.16575    178568.27    56.889635    56.025478    56.025478 
   99000    376.86884   -37816.287   -37373.622    683.12719    178568.27    56.894753    56.022959    56.022959 
  100000    377.77054   -37820.212   -37376.487    508.60723    178568.27    56.899847     56.02045     56.02045 
  101000    380.28933   -37822.536   -37375.853     569.5646    178568.27    56.904919    56.017954    56.017954 
  102000    380.24064   -37816.511   -37369.886    767.57201    178568.27    56.909967    56.015469    56.015469 
  103000    379.96421   -37823.228   -37376.927    345.64342    178568.27    56.914992    56.012997    56.012997 
  104000    383.91531   -37818.037   -37367.095    604.61903    178568.27    56.919992    56.010536    56.010536 
  105000    386.48079   -37814.148   -37360.193    528.03741    178568.27    56.924969    56.008088    56.008088 
  106000    380.79506   -37809.815   -37362.538     850.3919    178568.27    56.929922    56.005651    56.005651 
  107000    380.65901   -37811.264   -37364.147    1014.0283    178568.27     56.93485    56.003228    56.003228 
  108000    383.20422   -37817.389   -37367.282    635.40621    178568.27    56.939753    56.000816    56.000816 
  109000    376.86493   -37821.568   -37378.908    566.55673    178568.27    56.944632    55.998417    55.998417 
  110000    385.31246   -37813.868   -37361.285    915.44192    178568.27    56.949486    55.996031    55.996031 
  111000    379.75951   -37812.437   -37366.377    769.61969    178568.27    56.954315    55.993657    55.993657 
  112000    383.73286   -37819.102   -37368.374    657.07297    178568.27    56.959118    55.991296    55.991296 
  113000    383.14158   -37817.057   -37367.024    401.92457    178568.27    56.963896    55.988948    55.988948 
  114000    385.59611   -37809.919   -37357.003    712.71549    178568.27    56.968648    55.986612    55.986612 
  115000    380.34988   -37814.571   -37367.817    714.67001    178568.27    56.973374     55.98429     55.98429 
  116000    381.44184   -37819.563   -37371.526    369.69492    178568.27    56.978074    55.981981    55.981981 
  117000    384.59089   -37814.943   -37363.208    674.05449    178568.27    56.982748    55.979685    55.979685 
  118000    380.12045    -37820.63   -37374.145    548.57301    178568.27    56.987395    55.977403    55.977403 
  119000    379.96113   -37813.892   -37367.595    615.11665    178568.27    56.992015    55.975134    55.975134 
  120000    384.77384   -37813.659   -37361.709     802.1234    178568.27    56.996609    55.972878    55.972878 
  121000    386.17679   -37818.607   -37365.008     454.7041    178568.27    57.001176    55.970636    55.970636 
  122000     374.4113    -37817.91   -37378.131    540.37955    178568.27    57.005715    55.968407    55.968407 
  123000    371.83073   -37812.241   -37375.494    805.33623    178568.27    57.010228    55.966192    55.966192 
  124000    377.60337   -37811.398    -37367.87    606.08066    178568.27    57.014712    55.963991    55.963991 
  125000    380.38371   -37814.426   -37367.632    657.06003    178568.27    57.019169    55.961804    55.961804 
  126000     390.3471   -37811.755   -37353.258    868.08729    178568.27    57.023598    55.959631    55.959631 
  127000    377.39945   -37810.318    -37367.03    735.38743    178568.27    57.027999    55.957471    55.957471 
  128000    381.66986   -37807.748   -37359.444    825.93484    178568.27    57.032371    55.955326    55.955326 
  129000     381.0629   -37815.177   -37367.585    532.21111    178568.27    57.036715    55.953195    55.953195 
  130000    381.55867   -37814.562   -37366.388    601.16456    178568.27    57.041031    55.951079    55.951079 
  131000    380.05551   -37813.666   -37367.257    742.69524    178568.27    57.045317    55.948976    55.948976 
  132000    378.83356   -37814.763    -37369.79    599.40704    178568.27    57.049575    55.946889    55.946889 
  133000    379.21384   -37815.579   -37370.159    575.53311    178568.27    57.053804    55.944815    55.944815 
  134000    381.19543   -37817.078   -37369.331    831.64943    178568.27    57.058003    55.942757    55.942757 
  135000    377.61709   -37808.827   -37365.283    617.48516    178568.27    57.062173    55.940712    55.940712 
  136000    377.75772   -37822.261   -37378.551    545.66818    178568.27    57.066313    55.938683    55.938683 
  137000    379.96131   -37821.907    -37375.61     537.7151    178568.27    57.070424    55.936669    55.936669 
  138000    379.87509   -37804.993   -37358.797    929.19777    178568.27    57.074505    55.934669    55.934669 
  139000    381.73414   -37805.676   -37357.296    778.06978    178568.27    57.078555    55.932684    55.932684 
  140000    378.66707   -37815.325   -37370.547    412.99334    178568.27    57.082575    55.930715    55.930715 
  141000    382.26142    -37808.68   -37359.681    867.41639    178568.27    57.086565     55.92876     55.92876 
  142000    372.21905    -37817.46   -37380.256    436.80109    178568.27    57.090524    55.926821    55.926821 
  143000    382.50851   -37816.916   -37367.626    730.18117    178568.27    57.094453    55.924896    55.924896 
  144000    384.11836   -37819.949   -37368.769    486.74093    178568.27    57.098351    55.922988    55.922988 
  145000    389.62689   -37811.544   -37353.894    735.90616    178568.27    57.102217    55.921094    55.921094 
  146000    376.20639   -37813.068   -37371.181    704.37865    178568.27    57.106053    55.919216    55.919216 
  147000    374.91809   -37816.336   -37375.962    430.04805    178568.27    57.109857    55.917354    55.917354 
  148000     381.8381   -37807.794   -37359.292    714.53682    178568.27    57.113629    55.915507    55.915507 
  149000    378.54799   -37812.577    -37367.94    753.64571    178568.27     57.11737    55.913676    55.913676 
  150000    377.62215   -37809.549   -37365.999    732.49994    178568.27    57.121079    55.911861    55.911861 
  151000    379.69915   -37812.024   -37366.035    658.43275    178568.27    57.124756    55.910061    55.910061 
  152000    372.65475   -37812.396    -37374.68    713.60115    178568.27    57.128401    55.908277    55.908277 
  153000     384.6897   -37812.497   -37360.646    651.34499    178568.27    57.132014     55.90651     55.90651 
  154000    381.40468   -37818.086   -37370.093    639.20928    178568.27    57.135595    55.904758    55.904758 
  155000    381.53195    -37815.85   -37367.707    639.90049    178568.27    57.139143    55.903022    55.903022 
  156000    384.30378   -37808.313   -37356.915    874.29867    178568.27    57.142658    55.901303    55.901303 
  157000    376.90697   -37807.795   -37365.085    655.36764    178568.27    57.146141    55.899599    55.899599 
  158000     375.3455   -37822.139   -37381.263    358.35095    178568.27     57.14959    55.897912    55.897912 
  159000    380.01459   -37807.973   -37361.613    775.93735    178568.27    57.153007    55.896241    55.896241 
  160000     378.8683   -37806.068   -37361.055    1148.9141    178568.27     57.15639    55.894587    55.894587 
  161000    382.15378   -37810.268   -37361.395    742.74049    178568.27     57.15974    55.892949    55.892949 
  162000    379.16923   -37813.803   -37368.436     650.0321    178568.27    57.163057    55.891328    55.891328 
  163000    383.65894   -37812.622   -37361.982    715.69206    178568.27     57.16634    55.889723    55.889723 
  164000    382.18553   -37812.038   -37363.128    596.59614    178568.27    57.169589    55.888134    55.888134 
  165000    381.75517   -37809.534    -37361.13    802.22053    178568.27    57.172804    55.886563    55.886563 
  166000    375.99524   -37812.415   -37370.775    696.79421    178568.27    57.175986    55.885008    55.885008 
  167000    381.28011   -37812.113   -37364.266    727.67267    178568.27    57.179133     55.88347     55.88347 
  168000    381.59922   -37809.219   -37360.998    500.31366    178568.27    57.182246    55.881949    55.881949 
  169000    383.62443   -37813.051   -37362.451     819.1987    178568.27    57.185325    55.880444    55.880444 
  170000    379.58031   -37815.357   -37369.507    466.23759    178568.27    57.188369    55.878957    55.878957 
  171000    376.98928   -37813.854   -37371.048    717.98299    178568.27    57.191378    55.877487    55.877487 
  172000    378.88172   -37815.191   -37370.162     607.7455    178568.27    57.194353    55.876034    55.876034 
  173000    378.18267   -37810.129   -37365.921    778.43095    178568.27    57.197293    55.874597    55.874597 
  174000    377.75345   -37805.673   -37361.969    748.55987    178568.27    57.200199    55.873179    55.873179 
  175000    384.96689   -37814.633   -37362.456    703.45913    178568.27    57.203069    55.871777    55.871777 
  176000    378.21454   -37805.107   -37360.861    846.82497    178568.27    57.205904    55.870392    55.870392 
  177000     375.3094   -37807.756   -37366.923    963.20124    178568.27    57.208703    55.869025    55.869025 
  178000     381.7304   -37807.909   -37359.533    759.46554    178568.27    57.211467    55.867676    55.867676 
  179000    379.79035   -37810.614   -37364.517    687.71121    178568.27    57.214196    55.866343    55.866343 
  180000    385.22268   -37808.557   -37356.079    874.56681    178568.27    57.216889    55.865029    55.865029 
  181000    379.09843   -37810.955   -37365.671    851.88781    178568.27    57.219547    55.863731    55.863731 
  182000    384.45801   -37810.075   -37358.496    834.41018    178568.27    57.222168    55.862452    55.862452 
  183000    378.95516   -37810.411   -37365.295    850.00906    178568.27    57.224754     55.86119     55.86119 
  184000     383.3541   -37809.282   -37358.999    826.20387    178568.27    57.227303    55.859945    55.859945 
  185000     379.0722    -37806.18   -37360.927    679.77386    178568.27    57.229817    55.858719    55.858719 
  186000     373.6284    -37814.23   -37375.371    678.47531    178568.27    57.232294     55.85751     55.85751 
  187000    381.50194   -37803.359   -37355.252    881.38148    178568.27    57.234735    55.856319    55.856319 
  188000    374.56799   -37804.914   -37364.951    962.08234    178568.27    57.237139    55.855145    55.855145 
  189000    380.84285   -37810.852   -37363.519     656.8012    178568.27    57.239507     55.85399     55.85399 
  190000    378.03739   -37800.676   -37356.639    927.62725    178568.27    57.241839    55.852853    55.852853 
  191000    380.03946   -37803.085   -37356.695    839.80746    178568.27    57.244133    55.851733    55.851733 
  192000     386.0699   -37810.037   -37356.564    772.13098    178568.27    57.246391    55.850632    55.850632 
  193000    376.76189   -37809.991   -37367.452    602.53475    178568.27    57.248612    55.849548    55.849548 
  194000    382.80988   -37810.976   -37361.332    646.55563    178568.27    57.250796    55.848483    55.848483 
  195000    380.88109   -37813.547   -37366.169    506.14532    178568.27    57.252943    55.847436    55.847436 
  196000    379.10975   -37807.761   -37362.464    728.33035    178568.27    57.255053    55.846407    55.846407 
  197000    375.98278   -37811.363   -37369.738    840.37951    178568.27    57.257125    55.845396    55.845396 
  198000    379.34807   -37803.058   -37357.481    949.09788    178568.27     57.25916    55.844404    55.844404 
  199000    376.60299   -37805.934   -37363.581    786.83886    178568.27    57.261158     55.84343     55.84343 
  200000    379.27713   -37816.116   -37370.622    582.65833    178568.27    57.263119    55.842474    55.842474 
  201000    381.41585    -37813.57   -37365.564    789.74107    178568.27    57.265041    55.841536    55.841536 
  202000    390.07022   -37807.779   -37349.608    964.88357    178568.27    57.266927    55.840617    55.840617 
  203000    377.06362   -37806.468   -37363.574    1121.3359    178568.27    57.268774    55.839716    55.839716 
  204000     380.3837   -37809.612   -37362.818    787.79923    178568.27    57.270584    55.838834    55.838834 
  205000    373.03817   -37810.016    -37371.85    736.41856    178568.27    57.272356     55.83797     55.83797 
  206000    387.29878   -37802.235   -37347.319     949.6432    178568.27     57.27409    55.837125    55.837125 
  207000    381.43548   -37805.868   -37357.839    754.52274    178568.27    57.275786    55.836298    55.836298 
  208000    380.40479   -37812.855   -37366.036     660.2308    178568.27    57.277444     55.83549     55.83549 
  209000    380.25735   -37806.745     -37360.1    773.70706    178568.27    57.279064    55.834701    55.834701 
  210000    386.67807   -37808.568   -37354.381    801.97528    178568.27    57.280645     55.83393     55.83393 
  211000    382.84099   -37814.245   -37364.565    629.33303    178568.27    57.282189    55.833178    55.833178 
  212000    379.00033   -37811.064   -37365.895     738.9093    178568.27    57.283694    55.832444    55.832444 
  213000    386.92087   -37806.318   -37351.845    945.08132    178568.27    57.285161    55.831729    55.831729 
  214000    379.26235    -37805.87   -37360.394    863.23956    178568.27    57.286589    55.831033    55.831033 
  215000    382.17015   -37813.219   -37364.327    686.20074    178568.27    57.287979    55.830356    55.830356 
  216000    374.28676   -37805.369   -37365.736    589.14712    178568.27     57.28933    55.829697    55.829697 
  217000     379.3412   -37811.394   -37365.825    531.12165    178568.27    57.290643    55.829058    55.829058 
  218000     379.5386    -37807.92   -37362.118    820.78211    178568.27    57.291917    55.828437    55.828437 
  219000    379.82859   -37809.783   -37363.641     780.1969    178568.27    57.293153    55.827835    55.827835 
  220000    376.36317   -37799.851   -37357.779    1005.4868    178568.27    57.294349    55.827252    55.827252 
  221000    385.70854   -37809.641   -37356.593    950.73419    178568.27    57.295507    55.826688    55.826688 
  222000    381.96568   -37804.621   -37355.969     902.1639    178568.27    57.296626    55.826143    55.826143 
  223000    379.34671   -37807.531   -37361.955    880.07271    178568.27    57.297707    55.825616    55.825616 
  224000    373.68612   -37808.631   -37369.705    643.34046    178568.27    57.298748    55.825109    55.825109 
  225000     374.1237   -37805.126   -37365.685    925.31861    178568.27     57.29975    55.824621    55.824621 
  226000    381.24076   -37810.841   -37363.041    721.89578    178568.27    57.300714    55.824151    55.824151 
  227000    385.32815   -37809.573   -37356.972    929.20951    178568.27    57.301638    55.823701    55.823701 
  228000    381.93361   -37805.386   -37356.772    778.07766    178568.27    57.302524     55.82327     55.82327 
  229000    377.05937   -37800.508   -37357.619    854.32887    178568.27     57.30337    55.822858    55.822858 
  230000    384.09848   -37811.274   -37360.117    754.63902    178568.27    57.304177    55.822465    55.822465 
  231000    384.52954   -37813.265   -37361.602    660.87763    178568.27    57.304945    55.822091    55.822091 
  232000    383.58865   -37800.286   -37349.727    1158.5731    178568.27    57.305673    55.821736    55.821736 
  233000    379.90115   -37805.706   -37359.479     723.1664    178568.27    57.306363      55.8214      55.8214 
  234000    379.13167   -37802.699   -37357.376    992.49453    178568.27    57.307013    55.821083    55.821083 
  235000    375.66132   -37811.752   -37370.505     662.7798    178568.27    57.307624    55.820786    55.820786 
  236000    378.84445   -37806.542   -37361.556    738.49793    178568.27    57.308196    55.820507    55.820507 
  237000    377.31145   -37807.637   -37364.452    762.66101    178568.27    57.308728    55.820248    55.820248 
  238000    379.05082   -37805.246   -37360.018    983.03684    178568.27    57.309221    55.820008    55.820008 
  239000    380.17605   -37806.489   -37359.939    1135.0494    178568.27    57.309675    55.819787    55.819787 
  240000    381.36768   -37808.341   -37360.392    734.75927    178568.27    57.310089    55.819585    55.819585 
  241000    380.13378   -37810.935   -37364.435    709.97072    178568.27    57.310464    55.819403    55.819403 
  242000    374.11571   -37810.691    -37371.26    679.20847    178568.27    57.310799    55.819239    55.819239 
  243000    379.23894   -37806.128   -37360.679    743.31593    178568.27    57.311095    55.819095    55.819095 
  244000    379.79558   -37804.503     -37358.4    934.31381    178568.27    57.311352     55.81897     55.81897 
  245000     381.5549   -37808.152   -37359.982    818.96211    178568.27    57.311569    55.818865    55.818865 
  246000    378.41699    -37811.63   -37367.146     743.7703    178568.27    57.311746    55.818778    55.818778 
  247000    376.57409   -37813.142   -37370.823    789.01165    178568.27    57.311884    55.818711    55.818711 
  248000    382.26251   -37804.291    -37355.29    1096.1863    178568.27    57.311983    55.818663    55.818663 
  249000    383.44249   -37813.733   -37363.347    672.87241    178568.27    57.312042    55.818634    55.818634 
  250000    380.46383   -37806.225   -37359.337    893.44161    178568.27    57.312062    55.818624    55.818624 
  251000    376.41528   -37812.242   -37370.109    768.85503    178568.27    57.312042    55.818634    55.818634 
  252000    377.17418   -37813.649   -37370.625    648.58893    178568.27    57.311983    55.818663    55.818663 
  253000    376.52489   -37808.217   -37365.956    761.95183    178568.27    57.311884    55.818711    55.818711 
  254000    379.04393   -37807.961   -37362.741    717.68082    178568.27    57.311746    55.818778    55.818778 
  255000    375.55153   -37816.929   -37375.811    472.24307    178568.27    57.311569    55.818865    55.818865 
  256000    384.67673   -37805.245   -37353.409    938.16136    178568.27    57.311352     55.81897     55.81897 
  257000    378.04132    -37807.84   -37363.798    820.33442    178568.27    57.311095    55.819095    55.819095 
  258000    386.78138   -37805.683   -37351.375    830.91896    178568.27    57.310799    55.819239    55.819239 
  259000    375.88427   -37804.465   -37362.957    742.65351    178568.27    57.310464    55.819403    55.819403 
  260000    381.55473   -37816.849    -37368.68    486.70738    178568.27    57.310089    55.819585    55.819585 
  261000    381.27325   -37802.501   -37354.663    786.98969    178568.27    57.309675    55.819787    55.819787 
  262000    374.59551   -37806.166   -37366.171    787.65113    178568.27    57.309221    55.820008    55.820008 
  263000    384.13624   -37811.835   -37360.633    814.03921    178568.27    57.308728    55.820248    55.820248 
  264000    379.64987   -37807.382    -37361.45    634.64689    178568.27    57.308196    55.820507    55.820507 
  265000    382.82484   -37810.176   -37360.515    653.78566    178568.27    57.307624    55.820786    55.820786 
  266000     380.5062   -37803.671   -37356.733    850.11267    178568.27    57.307013    55.821083    55.821083 
  267000    378.16718   -37808.263   -37364.073    717.38768    178568.27    57.306363      55.8214      55.8214 
  268000    379.40235    -37807.15   -37361.509     882.7296    178568.27    57.305673    55.821736    55.821736 
  269000    377.31176   -37807.032   -37363.846    700.94026    178568.27    57.304945    55.822091    55.822091 
  270000    378.73375   -37806.665    -37361.81    874.16167    178568.27    57.304177    55.822465    55.822465 
  271000    375.61513   -37810.115   -37368.923    818.65922    178568.27     57.30337    55.822858    55.822858 
  272000    376.68965   -37809.311   -37366.857    684.72966    178568.27    57.302524     55.82327     55.82327 
  273000     377.1314    -37811.45   -37368.476     782.4489    178568.27    57.301638    55.823701    55.823701 
  274000    384.24857    -37805.64   -37354.306    851.57448    178568.27    57.300714    55.824151    55.824151 
  275000    380.21842   -37806.296   -37359.696    808.75241    178568.27     57.29975    55.824621    55.824621 
  276000    378.51363   -37812.843   -37368.246    698.40506    178568.27    57.298748    55.825109    55.825109 
  277000    378.43829    -37815.09   -37370.581    690.20253    178568.27    57.297707    55.825616    55.825616 
  278000    375.76235   -37813.027   -37371.661    687.06942    178568.27    57.296626    55.826143    55.826143 
  279000    379.37907   -37808.404   -37362.791    847.44973    178568.27    57.295507    55.826688    55.826688 
  280000    379.78497   -37803.072   -37356.982     880.0472    178568.27    57.294349    55.827252    55.827252 
  281000      379.742   -37815.859   -37369.819    664.05495    178568.27    57.293153    55.827835    55.827835 
  282000      382.461   -37803.263   -37354.029    738.12565    178568.27    57.291917    55.828437    55.828437 
  283000    383.61529   -37809.379   -37358.789    786.32428    178568.27    57.290643    55.829058    55.829058 
  284000    375.18757   -37816.513   -37375.823    521.45907    178568.27     57.28933    55.829697    55.829697 
  285000    382.22116   -37811.134   -37362.182    746.99136    178568.27    57.287979    55.830356    55.830356 
  286000    376.67945   -37811.008   -37368.566    558.16454    178568.27    57.286589    55.831033    55.831033 
  287000     381.5881   -37805.587   -37357.378    890.99333    178568.27    57.285161    55.831729    55.831729 
  288000    378.38275   -37806.038   -37361.595    913.88275    178568.27    57.283694    55.832444    55.832444 
  289000    378.81038   -37801.124   -37356.178    1156.8314    178568.27    57.282189    55.833178    55.833178 
  290000    387.98176   -37808.291   -37352.573    814.76503    178568.27    57.280645     55.83393     55.83393 
  291000    376.56163   -37809.648   -37367.344    720.47987    178568.27    57.279064    55.834701    55.834701 
  292000    377.52967   -37801.433   -37357.992    948.12964    178568.27    57.277444     55.83549     55.83549 
  293000    377.43731   -37811.629   -37368.296    728.60278    178568.27    57.275786    55.836298    55.836298 
  294000    379.31986   -37806.258   -37360.714    1030.0941    178568.27     57.27409    55.837125    55.837125 
  295000    376.78121   -37810.186   -37367.623    669.89082    178568.27    57.272356     55.83797     55.83797 
  296000    381.57112    -37811.63   -37363.441    733.30838    178568.27    57.270584    55.838834    55.838834 
  297000    378.70083   -37808.091   -37363.274     616.7338    178568.27    57.268774    55.839716    55.839716 
  298000    371.68547   -37813.963   -37377.386    756.36848    178568.27    57.266927    55.840617    55.840617 
  299000    382.14956   -37819.051   -37370.183     685.2771    178568.27    57.265041    55.841536    55.841536 
  300000    379.99049   -37808.911   -37362.579    964.69011    178568.27    57.263119    55.842474    55.842474 
  301000    381.44251   -37809.061   -37361.024    855.39606    178568.27    57.261158     55.84343     55.84343 
  302000    383.20381    -37812.93   -37362.824    638.96873    178568.27     57.25916    55.844404    55.844404 
  303000    380.06773   -37810.637   -37364.214    666.19815    178568.27    57.257125    55.845396    55.845396 
  304000    378.72964   -37803.328   -37358.477     941.3765    178568.27    57.255053    55.846407    55.846407 
  305000    376.01794   -37804.665   -37362.999    880.78579    178568.27    57.252943    55.847436    55.847436 
  306000    376.09791   -37807.606   -37365.846    847.46028    178568.27    57.250796    55.848483    55.848483 
  307000      383.251   -37813.689   -37363.527    731.91396    178568.27    57.248612    55.849548    55.849548 
  308000    381.30088   -37815.605   -37367.734    730.31167    178568.27    57.246391    55.850632    55.850632 
  309000    379.15936   -37802.102   -37356.746    961.13091    178568.27    57.244133    55.851733    55.851733 
  310000    380.67186   -37810.345   -37363.213    924.20985    178568.27    57.241839    55.852853    55.852853 
  311000    379.14251   -37808.754   -37363.419    741.81385    178568.27    57.239507     55.85399     55.85399 
  312000    377.33173   -37803.652   -37360.443    1160.8912    178568.27    57.237139    55.855145    55.855145 
  313000    381.86217   -37809.085   -37360.555    824.21895    178568.27    57.234735    55.856319    55.856319 
  314000    374.92245   -37810.323   -37369.944    652.61257    178568.27    57.232294     55.85751     55.85751 
  315000    380.16185   -37814.554   -37368.021     691.2432    178568.27    57.229817    55.858719    55.858719 
  316000    379.40194   -37810.351   -37364.711    796.36851    178568.27    57.227303    55.859945    55.859945 
  317000    380.54576    -37812.42   -37365.436    750.59154    178568.27    57.224754     55.86119     55.86119 
  318000    381.66156   -37813.149   -37364.855    806.84095    178568.27    57.222168    55.862452    55.862452 
  319000    380.47783   -37820.315   -37373.411    607.57844    178568.27    57.219547    55.863731    55.863731 
  320000    376.67545   -37808.385   -37365.947     707.0989    178568.27    57.216889    55.865029    55.865029 
  321000    382.79955   -37811.401    -37361.77    847.85892    178568.27    57.214196    55.866343    55.866343 
  322000    377.00144   -37809.351    -37366.53    858.81023    178568.27    57.211467    55.867676    55.867676 
  323000    377.30406    -37811.33   -37368.154    702.24706    178568.27    57.208703    55.869025    55.869025 
  324000    381.81552   -37805.482   -37357.006    910.82195    178568.27    57.205904    55.870392    55.870392 
  325000    375.17504   -37816.262   -37375.587    551.72486    178568.27    57.203069    55.871777    55.871777 
  326000    377.29582   -37810.646    -37367.48    801.88456    178568.27    57.200199    55.873179    55.873179 
  327000    383.83073   -37812.913   -37362.071    572.37542    178568.27    57.197293    55.874597    55.874597 
  328000    377.41468   -37802.593   -37359.287    941.32851    178568.27    57.194353    55.876034    55.876034 
  329000    380.28783   -37806.697   -37360.016    934.95119    178568.27    57.191378    55.877487    55.877487 
  330000    381.68862   -37815.983   -37367.657    588.21162    178568.27    57.188369    55.878957    55.878957 
  331000    380.79552   -37814.419   -37367.142    663.63354    178568.27    57.185325    55.880444    55.880444 
  332000    381.58645   -37814.105   -37365.898    791.80232    178568.27    57.182246    55.881949    55.881949 
  333000    374.65942   -37812.003   -37371.933    703.66472    178568.27    57.179133     55.88347     55.88347 
  334000    380.21116   -37818.978   -37372.387    474.60664    178568.27    57.175986    55.885008    55.885008 
  335000    379.76327   -37816.145    -37370.08    613.36044    178568.27    57.172804    55.886563    55.886563 
  336000    383.22473   -37814.741    -37364.61    844.89052    178568.27    57.169589    55.888134    55.888134 
  337000    376.54271   -37807.395   -37365.112    788.93241    178568.27     57.16634    55.889723    55.889723 
  338000    380.08457   -37807.479   -37361.037    1022.9902    178568.27    57.163057    55.891328    55.891328 
  339000    384.70091   -37814.304   -37362.439    720.04676    178568.27     57.15974    55.892949    55.892949 
  340000    377.21211   -37817.147   -37374.079    412.90906    178568.27     57.15639    55.894587    55.894587 
  341000    375.59128   -37811.582   -37370.418    858.29199    178568.27    57.153007    55.896241    55.896241 
  342000    377.65202   -37812.123   -37368.538     747.7649    178568.27     57.14959    55.897912    55.897912 
  343000     379.0069   -37811.724   -37366.547     582.7795    178568.27    57.146141    55.899599    55.899599 
  344000    382.25778   -37820.484   -37371.489     387.0377    178568.27    57.142658    55.901303    55.901303 
  345000    382.28196   -37814.461   -37365.438    618.78945    178568.27    57.139143    55.903022    55.903022 
  346000     378.8931   -37806.325   -37361.282    715.78582    178568.27    57.135595    55.904758    55.904758 
  347000    382.63297    -37808.37   -37358.935    551.14507    178568.27    57.132014     55.90651     55.90651 
  348000    381.19703   -37807.766   -37360.017    900.53943    178568.27    57.128401    55.908277    55.908277 
  349000    380.24514   -37815.502   -37368.871    690.66094    178568.27    57.124756    55.910061    55.910061 
  350000    375.17128   -37808.264   -37367.592    953.42187    178568.27    57.121079    55.911861    55.911861 
  351000    381.51823   -37812.491   -37364.365    720.45612    178568.27     57.11737    55.913676    55.913676 
  352000    381.80787   -37821.528   -37373.062    388.99287    178568.27    57.113629    55.915507    55.915507 
  353000    381.63162   -37819.491   -37371.231    534.59612    178568.27    57.109857    55.917354    55.917354 
  354000      381.056   -37812.373   -37364.789    670.28403    178568.27    57.106053    55.919216    55.919216 
  355000    377.28123   -37814.657   -37371.507    757.28193    178568.27    57.102217    55.921094    55.921094 
  356000    381.15086   -37811.924   -37364.229    826.31029    178568.27    57.098351    55.922988    55.922988 
  357000    378.13819   -37810.088   -37365.932    857.15736    178568.27    57.094453    55.924896    55.924896 
  358000    382.44371   -37816.866   -37367.653    697.70055    178568.27    57.090524    55.926821    55.926821 
  359000    377.37223   -37809.076    -37365.82    647.13742    178568.27    57.086565     55.92876     55.92876 
  360000    384.40775    -37812.81    -37361.29     677.2496    178568.27    57.082575    55.930715    55.930715 
  361000    384.20821   -37813.414   -37362.128    765.49956    178568.27    57.078555    55.932684    55.932684 
  362000    376.64411   -37814.232   -37371.831    517.20101    178568.27    57.074505    55.934669    55.934669 
  363000    380.43223    -37815.28   -37368.429    738.64284    178568.27    57.070424    55.936669    55.936669 
  364000    377.56656   -37821.735    -37378.25    432.21877    178568.27    57.066313    55.938683    55.938683 
  365000    384.75979   -37813.228   -37361.294    794.02753    178568.27    57.062173    55.940712    55.940712 
  366000    378.77023   -37805.713   -37360.814    791.97328    178568.27    57.058003    55.942757    55.942757 
  367000    384.41165   -37809.494   -37357.969    785.99489    178568.27    57.053804    55.944815    55.944815 
  368000    381.64089   -37812.008   -37363.737    798.81508    178568.27    57.049575    55.946889    55.946889 
  369000    380.73598    -37815.32   -37368.113    767.58285    178568.27    57.045317    55.948976    55.948976 
  370000    386.65268   -37821.846   -37367.689    591.28529    178568.27    57.041031    55.951079    55.951079 
  371000    378.15185   -37817.529   -37373.357    515.79517    178568.27    57.036715    55.953195    55.953195 
  372000    378.57377   -37814.349   -37369.681    657.77463    178568.27    57.032371    55.955326    55.955326 
  373000    378.43332   -37811.554   -37367.052    582.24249    178568.27    57.027999    55.957471    55.957471 
  374000    383.28667   -37817.115   -37366.911    628.05117    178568.27    57.023598    55.959631    55.959631 
  375000    374.54193   -37814.077   -37374.145    641.69783    178568.27    57.019169    55.961804    55.961804 
  376000    382.86432   -37812.817   -37363.109    837.41867    178568.27    57.014712    55.963991    55.963991 
  377000    382.10421   -37810.315     -37361.5    860.18095    178568.27    57.010228    55.966192    55.966192 
  378000    380.99572   -37806.783   -37359.271    914.49634    178568.27    57.005715    55.968407    55.968407 
  379000    379.56429   -37806.304   -37360.473    797.85151    178568.27    57.001176    55.970636    55.970636 
  380000    382.00357   -37813.893   -37365.196    678.61594    178568.27    56.996609    55.972878    55.972878 
  381000    378.90164   -37811.371   -37366.318    927.12909    178568.27    56.992015    55.975134    55.975134 
  382000    380.74508   -37816.689   -37369.471    609.08478    178568.27    56.987395    55.977403    55.977403 
  383000    379.03719   -37809.145   -37363.933    783.02497    178568.27    56.982748    55.979685    55.979685 
  384000    377.10917   -37819.975   -37377.027    503.10537    178568.27    56.978074    55.981981    55.981981 
  385000    384.20718   -37814.487   -37363.203    720.66122    178568.27    56.973374     55.98429     55.98429 
  386000    383.17111    -37824.01   -37373.942    496.62572    178568.27    56.968648    55.986612    55.986612 
  387000    380.77866   -37815.178   -37367.921    674.22449    178568.27    56.963896    55.988948    55.988948 
  388000    385.07439   -37820.386   -37368.083    493.41483    178568.27    56.959118    55.991296    55.991296 
  389000    382.57784   -37810.083   -37360.712    812.86252    178568.27    56.954315    55.993657    55.993657 
  390000    378.46924   -37812.877   -37368.332    506.53443    178568.27    56.949486    55.996031    55.996031 
  391000    375.93025   -37813.957   -37372.394    428.11268    178568.27    56.944632    55.998417    55.998417 
  392000    382.59343   -37822.894   -37373.504    481.73263    178568.27    56.939753    56.000816    56.000816 
  393000    378.63349   -37816.782   -37372.044    535.79491    178568.27     56.93485    56.003228    56.003228 
  394000    380.02642   -37808.934    -37362.56    716.45409    178568.27    56.929922    56.005651    56.005651 
  395000    380.72451   -37817.099   -37369.905    684.89695    178568.27    56.924969    56.008088    56.008088 
  396000    378.04508   -37818.449   -37374.402    601.67816    178568.27    56.919992    56.010536    56.010536 
  397000    379.82972   -37812.628   -37366.485    743.69826    178568.27    56.914992    56.012997    56.012997 
  398000    378.85261   -37819.278   -37374.283    503.72896    178568.27    56.909967    56.015469    56.015469 
  399000    377.13091   -37812.827   -37369.854    960.86512    178568.27    56.904919    56.017954    56.017954 
  400000    374.92074   -37811.779   -37371.402    752.30184    178568.27    56.899847     56.02045     56.02045 
  401000    381.70113   -37817.052    -37368.71    723.37058    178568.27    56.894753    56.022959    56.022959 
  402000    385.46161   -37818.267   -37365.509    525.24393    178568.27    56.889635    56.025478    56.025478 
  403000    384.52839   -37814.561   -37362.899    570.56105    178568.27    56.884494     56.02801     56.02801 
  404000    378.12519    -37809.02   -37364.879     617.6695    178568.27    56.879331    56.030553    56.030553 
  405000    377.57527   -37811.308   -37367.813    648.57702    178568.27    56.874145    56.033107    56.033107 
  406000    382.14118   -37818.006   -37369.148    603.02815    178568.27    56.868938    56.035673    56.035673 
  407000    382.83994   -37820.084   -37370.405    430.25112    178568.27    56.863708    56.038249    56.038249 
  408000    380.20543   -37817.233   -37370.649    577.30457    178568.27    56.858456    56.040837    56.040837 
  409000     384.4066   -37823.756   -37372.237    430.95803    178568.27    56.853183    56.043436    56.043436 
  410000    381.05596    -37814.31   -37366.727    461.14609    178568.27    56.847889    56.046046    56.046046 
  411000    379.74747   -37818.796   -37372.749    543.84989    178568.27    56.842573    56.048666    56.048666 
  412000    382.01563   -37813.992   -37365.282    612.08655    178568.27    56.837237    56.051297    56.051297 
  413000     379.5824   -37820.622   -37374.769    571.23472    178568.27    56.831879    56.053939    56.053939 
  414000    383.70652   -37813.546   -37362.849    649.07733    178568.27    56.826502    56.056591    56.056591 
  415000    378.33067   -37818.055   -37373.672    550.17139    178568.27    56.821104    56.059254    56.059254 
  416000    380.39227   -37823.346   -37376.542    521.84767    178568.27    56.815685    56.061927    56.061927 
  417000    379.12059   -37815.205   -37369.895    809.44933    178568.27    56.810247     56.06461     56.06461 
  418000    379.52816    -37821.14   -37375.351    400.80796    178568.27    56.804789    56.067303    56.067303 
  419000    380.82797   -37821.503   -37374.187    574.37906    178568.27    56.799312    56.070007    56.070007 
  420000    379.52542   -37819.413   -37373.627    595.22795    178568.27    56.793816     56.07272     56.07272 
  421000    383.73385   -37813.565   -37362.836    823.56481    178568.27      56.7883    56.075443    56.075443 
  422000    379.35234   -37821.293   -37375.711     686.9335    178568.27    56.782766    56.078175    56.078175 
  423000    377.14339    -37806.68   -37363.692    718.33244    178568.27    56.777213    56.080918    56.080918 
  424000    380.14557   -37816.473   -37369.959    612.46451    178568.27    56.771642    56.083669    56.083669 
  425000    383.17715   -37818.166   -37368.092    567.84675    178568.27    56.766053     56.08643     56.08643 
  426000    374.46494    -37821.85   -37382.008    382.27244    178568.27    56.760445    56.089201    56.089201 
  427000    381.99964   -37813.303   -37364.611    975.74478    178568.27     56.75482     56.09198     56.09198 
  428000    371.81189   -37823.827   -37387.102     339.7615    178568.27    56.749178    56.094768    56.094768 
  429000    383.39834   -37816.112   -37365.777    584.69988    178568.27    56.743518    56.097566    56.097566 
  430000    381.56897   -37822.969   -37374.784    532.12452    178568.27    56.737841    56.100372    56.100372 
  431000     378.2511   -37810.531   -37366.242    779.98464    178568.27    56.732148    56.103187    56.103187 
  432000    384.58628   -37809.768   -37358.038    892.31633    178568.27    56.726438    56.106011    56.106011 
  433000    381.03382   -37819.675   -37372.118    478.78975    178568.27    56.720711    56.108843    56.108843 
  434000    379.73022   -37818.654   -37372.628    269.13188    178568.27    56.714969    56.111684    56.111684 
  435000    379.56921   -37818.507    -37372.67     341.6925    178568.27     56.70921    56.114532    56.114532 
  436000    385.82303   -37819.656   -37366.473    554.58517    178568.27    56.703436    56.117389    56.117389 
  437000    378.81183   -37813.086   -37368.138    654.90092    178568.27    56.697646    56.120255    56.120255 
  438000    374.45743   -37824.684   -37384.851    329.77407    178568.27    56.691841    56.123128    56.123128 
  439000    380.55265   -37820.416   -37373.423    479.10631    178568.27    56.686021    56.126009    56.126009 
  440000     379.4409   -37824.885   -37379.199    422.48623    178568.27    56.680187    56.128897    56.128897 
  441000    380.12749   -37820.293     -37373.8    327.45906    178568.27    56.674337    56.131794    56.131794 
  442000    375.81532   -37823.001   -37381.573    421.35276    178568.27    56.668474    56.134698    56.134698 
  443000    386.65046   -37822.327   -37368.172    601.81273    178568.27    56.662596    56.137609    56.137609 
  444000    377.00457   -37818.291   -37375.466    540.61819    178568.27    56.656705    56.140528    56.140528 
  445000    378.84322   -37818.226   -37373.241    531.64151    178568.27      56.6508    56.143453    56.143453 
  446000    378.56163   -37816.867   -37372.214    532.00477    178568.27    56.644882    56.146386    56.146386 
  447000    381.79479   -37818.934   -37370.483    773.02727    178568.27     56.63895    56.149326    56.149326 
  448000    381.68594    -37825.08   -37376.756    383.79272    178568.27    56.633006    56.152273    56.152273 
  449000    385.67891   -37824.083    -37371.07    301.14311    178568.27    56.627049    56.155226    56.155226 
  450000    381.80624   -37821.028   -37372.563    287.24491    178568.27    56.621079    56.158187    56.158187 
  451000    375.68776   -37822.119   -37380.841    695.80289    178568.27    56.615097    56.161153    56.161153 
  452000    379.47223   -37822.086   -37376.363    496.07383    178568.27    56.609104    56.164126    56.164126 
  453000    386.49685   -37821.654    -37367.68    656.30345    178568.27    56.603098    56.167106    56.167106 
  454000    378.76111   -37824.354   -37379.466    537.70107    178568.27    56.597081    56.170091    56.170091 
  455000    381.17963    -37823.65   -37375.921    520.29374    178568.27    56.591053    56.173083    56.173083 
  456000    376.29528   -37817.056   -37375.064    704.73002    178568.27    56.585014     56.17608     56.17608 
  457000    379.46363   -37821.553    -37375.84    400.55392    178568.27    56.578964    56.179084    56.179084 
  458000    379.24934   -37820.648   -37375.186    688.01175    178568.27    56.572904    56.182093    56.182093 
  459000     377.0374   -37816.911   -37374.048      392.945    178568.27    56.566833    56.185107    56.185107 
  460000    372.46015   -37813.657    -37376.17    756.65072    178568.27    56.560752    56.188128    56.188128 
  461000    377.40495    -37812.79   -37369.495    696.00851    178568.27    56.554661    56.191153    56.191153 
  462000     377.0288   -37820.164   -37377.311    568.03062    178568.27    56.548561    56.194184    56.194184 
  463000    381.03947   -37823.152   -37375.588    505.14522    178568.27    56.542452     56.19722     56.19722 
  464000    381.39786   -37816.015    -37368.03    713.37159    178568.27    56.536333    56.200261    56.200261 
  465000    377.78465   -37821.173   -37377.432    605.86164    178568.27    56.530205    56.203306    56.203306 
  466000    380.94985   -37821.156   -37373.697    521.24051    178568.27    56.524069    56.206357    56.206357 
  467000    382.34314   -37824.345    -37375.25    472.07823    178568.27    56.517925    56.209412    56.209412 
  468000    380.04177   -37817.856   -37371.464    634.95891    178568.27    56.511772    56.212472    56.212472 
  469000    381.34586   -37813.933   -37366.009    597.36353    178568.27    56.505612    56.215536    56.215536 
  470000    375.93866   -37817.747   -37376.175    670.05461    178568.27    56.499443    56.218605    56.218605 
  471000    381.16725   -37820.349   -37372.635    510.92863    178568.27    56.493268    56.221677    56.221677 
  472000    383.03416   -37819.207     -37369.3    537.45689    178568.27    56.487085    56.224754    56.224754 
  473000    381.75167   -37816.496   -37368.095    934.49594    178568.27    56.480896    56.227835    56.227835 
  474000    377.81009   -37812.613   -37368.843    900.73683    178568.27    56.474699    56.230919    56.230919 
  475000    382.54809   -37823.931   -37374.595    446.79331    178568.27    56.468497    56.234007    56.234007 
  476000    376.11178   -37808.217   -37366.441     871.7695    178568.27    56.462288    56.237099    56.237099 
  477000    380.02741   -37822.546   -37376.171    665.96459    178568.27    56.456073    56.240195    56.240195 
  478000    385.00037   -37820.059   -37367.842    577.64878    178568.27    56.449852    56.243293    56.243293 
  479000    377.94303    -37818.06   -37374.133    665.61222    178568.27    56.443626    56.246395    56.246395 
  480000     382.3445   -37818.526   -37369.429    453.14929    178568.27    56.437395      56.2495      56.2495 
  481000    377.09402   -37819.478   -37376.549     545.9059    178568.27    56.431159    56.252608    56.252608 
  482000    377.44232   -37809.764   -37366.425    1048.4486    178568.27    56.424918    56.255719    56.255719 
  483000     380.7705   -37822.398    -37375.15    384.58991    178568.27    56.418673    56.258832    56.258832 
  484000    381.95319   -37814.893   -37366.256    632.06471    178568.27    56.412424    56.261948    56.261948 
  485000    380.47711   -37814.061   -37367.157    679.16051    178568.27     56.40617    56.265067    56.265067 
  486000    373.34006   -37820.906   -37382.385    583.68382    178568.27    56.399913    56.268188    56.268188 
  487000    378.51725   -37815.686   -37371.084    678.51018    178568.27    56.393653    56.271311    56.271311 
  488000    379.11751   -37819.158   -37373.851    571.74133    178568.27    56.387389    56.274436    56.274436 
  489000    379.68075   -37815.248    -37369.28    636.03761    178568.27    56.381122    56.277564    56.277564 
  490000    383.99347   -37826.301   -37375.268    308.95493    178568.27    56.374853    56.280693    56.280693 
  491000    380.13996    -37817.34   -37370.833    648.90292    178568.27    56.368581    56.283824    56.283824 
  492000    379.24373   -37821.341   -37375.886     425.1737    178568.27    56.362306    56.286957    56.286957 
  493000    381.68386   -37821.348   -37373.028    412.05721    178568.27     56.35603    56.290091    56.290091 
  494000    379.56615   -37825.415   -37379.581    419.05104    178568.27    56.349752    56.293226    56.293226 
  495000    379.44291   -37826.343   -37380.654    507.53224    178568.27    56.343473    56.296363    56.296363 
  496000    380.07994   -37820.671   -37374.234    553.87463    178568.27    56.337192    56.299501    56.299501 
  497000    383.40914   -37817.869   -37367.522    518.96296    178568.27    56.330911     56.30264     56.30264 
  498000    377.86016   -37816.303   -37372.473    838.76431    178568.27    56.324628     56.30578     56.30578 
  499000    378.71617   -37817.354   -37372.519    647.46206    178568.27    56.318345    56.308921    56.308921 
  500000    377.15807   -37827.298   -37384.293    350.62677    178568.27    56.312062    56.312062    56.312062 
  501000    379.25825   -37821.562   -37376.091    538.72156    178568.27    56.305779    56.315204    56.315204 
  502000    384.44721   -37819.171   -37367.604    427.96485    178568.27    56.299496    56.318346    56.318346 
  503000    380.38276   -37815.561   -37368.768    644.28983    178568.27    56.293214    56.321489    56.321489 
  504000    381.09587   -37817.687   -37370.057    605.80587    178568.27    56.286932    56.324631    56.324631 
  505000    382.22121   -37814.796   -37365.844    730.17584    178568.27    56.280651    56.327774    56.327774 
  506000    383.39632   -37821.518   -37371.186    406.01694    178568.27    56.274372    56.330917    56.330917 
  507000    375.04852   -37820.365   -37379.838     420.1003    178568.27    56.268094    56.334059    56.334059 
  508000    382.08543   -37824.818   -37376.025    356.11761    178568.27    56.261818    56.337201    56.337201 
  509000    377.30909   -37817.405   -37374.223    619.25806    178568.27    56.255544    56.340343    56.340343 
  510000    376.98978   -37820.734   -37377.927    507.03578    178568.27    56.249272    56.343484    56.343484 
  511000    384.26863   -37819.106   -37367.749    452.69019    178568.27    56.243002    56.346624    56.346624 
  512000    382.95588   -37823.659   -37373.844    489.52691    178568.27    56.236735    56.349763    56.349763 
  513000    385.38902   -37816.494   -37363.821     707.5384    178568.27    56.230471    56.352902    56.352902 
  514000    382.60039    -37811.67   -37362.273    766.84258    178568.27    56.224211    56.356039    56.356039 
  515000    380.65945   -37816.735   -37369.618     577.2225    178568.27    56.217954    56.359175    56.359175 
  516000    383.93231   -37819.018   -37368.056    387.77235    178568.27      56.2117     56.36231     56.36231 
  517000    376.65491   -37815.367   -37372.953    809.80876    178568.27    56.205451    56.365443    56.365443 
  518000    383.69488   -37826.427   -37375.744    552.70274    178568.27    56.199206    56.368575    56.368575 
  519000    381.06608   -37812.041   -37364.446    773.05527    178568.27    56.192965    56.371705    56.371705 
  520000    382.62343   -37824.742   -37375.317    366.23764    178568.27    56.186729    56.374834    56.374834 
  521000    384.79181   -37813.572     -37361.6    842.87362    178568.27    56.180498     56.37796     56.37796 
  522000    377.44153   -37822.541   -37379.203    591.49648    178568.27    56.174272    56.381084    56.381084 
  523000    377.79502   -37820.218   -37376.465    403.49861    178568.27    56.168051    56.384206    56.384206 
  524000    381.14358   -37820.684   -37372.997    636.00063    178568.27    56.161837    56.387326    56.387326 
  525000    376.86809   -37816.161   -37373.496    403.14282    178568.27    56.155628    56.390443    56.390443 
  526000    380.17735   -37821.967   -37375.416    530.75552    178568.27    56.149425    56.393557    56.393557 
  527000    380.79634   -37817.089    -37369.81    530.56308    178568.27    56.143229    56.396669    56.396669 
  528000    383.96698   -37814.833    -37363.83    530.72255    178568.27    56.137039    56.399778    56.399778 
  529000    378.78442   -37821.669   -37376.754    601.78831    178568.27    56.130856    56.402884    56.402884 
  530000    382.94364   -37819.691    -37369.89    597.34522    178568.27    56.124681    56.405987    56.405987 
  531000    383.36494    -37822.59   -37372.294    542.14658    178568.27    56.118513    56.409087    56.409087 
  532000    382.33387    -37812.75   -37363.666    705.99708    178568.27    56.112352    56.412183    56.412183 
  533000    380.64405   -37815.203   -37368.104     743.9595    178568.27    56.106199    56.415276    56.415276 
  534000    382.68871   -37825.065   -37375.564    488.28029    178568.27    56.100055    56.418366    56.418366 
  535000    384.52918   -37819.336   -37367.673    668.96635    178568.27    56.093919    56.421452    56.421452 
  536000    377.65432   -37812.274   -37368.686    549.00642    178568.27    56.087791    56.424534    56.424534 
  537000    376.08421    -37819.79   -37378.046    526.42953    178568.27    56.081673    56.427612    56.427612 
  538000    380.72126   -37816.791   -37369.601    567.57027    178568.27    56.075563    56.430685    56.430685 
  539000    378.78533   -37828.065   -37383.149     273.4524    178568.27    56.069463    56.433755    56.433755 
  540000    381.64592   -37822.028   -37373.752    603.04849    178568.27    56.063372     56.43682     56.43682 
  541000    379.68909   -37831.048    -37385.07    208.75196    178568.27    56.057291    56.439881    56.439881 
  542000    378.96126    -37821.06   -37375.937    648.82287    178568.27    56.051221    56.442938    56.442938 
  543000    385.20252   -37814.876   -37362.422    617.06177    178568.27     56.04516    56.445989    56.445989 
  544000     380.8265   -37811.892   -37364.578    581.61572    178568.27     56.03911    56.449036    56.449036 
  545000    378.14447   -37821.203   -37377.039    714.33849    178568.27    56.033071    56.452078    56.452078 
  546000    380.47399   -37819.124   -37372.224    612.14918    178568.27    56.027043    56.455115    56.455115 
  547000    381.94226   -37818.306   -37369.681    589.25597    178568.27    56.021026    56.458147    56.458147 
  548000    380.09194    -37823.73   -37377.279     612.1103    178568.27    56.015021    56.461173    56.461173 
  549000    376.77681   -37818.133   -37375.576     688.0554    178568.27    56.009027    56.464194    56.464194 
  550000    377.23862   -37814.864   -37371.764    650.97279    178568.27    56.003045    56.467209    56.467209 
  551000    385.65366   -37815.517   -37362.533    663.77252    178568.27    55.997076    56.470219    56.470219 
  552000    377.95544   -37812.557   -37368.616    924.87013    178568.27    55.991118    56.473223    56.473223 
  553000    379.98913   -37824.618   -37378.288    620.14671    178568.27    55.985174    56.476221    56.476221 
  554000    377.47486   -37817.329   -37373.952    523.63465    178568.27    55.979243    56.479213    56.479213 
  555000    374.71907   -37820.726   -37380.586     305.2523    178568.27    55.973324    56.482199    56.482199 
  556000    373.53318   -37812.218   -37373.471    473.78295    178568.27    55.967419    56.485179    56.485179 
  557000     381.4552   -37808.723   -37360.671    920.11998    178568.27    55.961528    56.488152    56.488152 
  558000    382.37835   -37813.081   -37363.944    797.57435    178568.27     55.95565    56.491118    56.491118 
  559000    380.92964   -37810.611   -37363.176    842.74593    178568.27    55.949787    56.494078    56.494078 
  560000    375.48809   -37812.524    -37371.48    707.94026    178568.27    55.943938    56.497032    56.497032 
  561000    380.82393   -37814.514   -37367.203    919.79264    178568.27    55.938103    56.499978    56.499978 
  562000    378.67417   -37818.042   -37373.256    586.36221    178568.27    55.932283    56.502918    56.502918 
  563000    375.83424   -37821.417   -37379.967    711.00374    178568.27    55.926478     56.50585     56.50585 
  564000    377.74206   -37822.985   -37379.294    497.22367    178568.27    55.920688    56.508775    56.508775 
  565000    383.69928   -37822.122   -37371.434    597.39326    178568.27    55.914914    56.511693    56.511693 
  566000    383.46522   -37820.209   -37369.796    559.82031    178568.27    55.909156    56.514603    56.514603 
  567000    377.52604    -37813.35   -37369.913     626.4382    178568.27    55.903413    56.517505    56.517505 
  568000    382.25544   -37814.693     -37365.7    660.59127    178568.27    55.897687      56.5204      56.5204 
  569000    379.64958   -37807.823   -37361.891    871.32576    178568.27    55.891976    56.523288    56.523288 
  570000    382.91595   -37820.644   -37370.876    476.78043    178568.27    55.886283    56.526167    56.526167 
  571000    380.71737   -37817.762   -37370.577    700.27639    178568.27    55.880606    56.529038    56.529038 
  572000     377.4881   -37817.725   -37374.332    523.93365    178568.27    55.874946    56.531901    56.531901 
  573000    380.37669   -37817.409   -37370.624    529.45035    178568.27    55.869304    56.534755    56.534755 
  574000    374.89262    -37815.36   -37375.016     654.7389    178568.27    55.863679    56.537602    56.537602 
  575000    382.06823   -37812.444   -37363.672    582.09652    178568.27    55.858072    56.540439    56.540439 
  576000    379.12054   -37813.038   -37367.728    1026.4766    178568.27    55.852482    56.543268    56.543268 
  577000    384.03086   -37816.831   -37365.754    604.89005    178568.27    55.846911    56.546088    56.546088 
  578000    378.56018   -37818.695   -37374.043    698.45378    178568.27    55.841358      56.5489      56.5489 
  579000    383.19007   -37817.342   -37367.252    675.84373    178568.27    55.835824    56.551702    56.551702 
  580000    374.81479   -37816.575   -37376.323    660.42709    178568.27    55.830308    56.554496    56.554496 
  581000    376.54927   -37820.038   -37377.749    473.06732    178568.27    55.824812     56.55728     56.55728 
  582000    383.70168   -37805.662   -37354.971    778.84961    178568.27    55.819335    56.560054    56.560054 
  583000    376.07814   -37814.352   -37372.615    740.40975    178568.27    55.813877     56.56282     56.56282 
  584000    382.47221   -37819.396   -37370.149    579.07555    178568.27    55.808439    56.565575    56.565575 
  585000    379.81767   -37812.813   -37366.684    782.87416    178568.27    55.803021    56.568322    56.568322 
  586000    383.78246   -37810.997   -37360.211    724.08437    178568.27    55.797623    56.571058    56.571058 
  587000    374.19326   -37815.784   -37376.261    572.32846    178568.27    55.792245    56.573784    56.573784 
  588000    379.81223   -37818.008   -37371.885    494.23725    178568.27    55.786887    56.576501    56.576501 
  589000    383.34725    -37821.62   -37371.345    729.76849    178568.27    55.781551    56.579207    56.579207 
  590000    382.13235   -37809.585   -37360.738     798.8099    178568.27    55.776235    56.581903    56.581903 
  591000    380.02538   -37816.919   -37370.546     451.6578    178568.27    55.770941    56.584588    56.584588 
  592000    378.02843   -37810.216   -37366.189     958.3847    178568.27    55.765668    56.587264    56.587264 
  593000    379.49393   -37813.589    -37367.84    862.84189    178568.27    55.760416    56.589928    56.589928 
  594000    373.25162   -37812.252   -37373.835     590.6549    178568.27    55.755186    56.592582    56.592582 
  595000    379.93413   -37814.542   -37368.276     614.0324    178568.27    55.749979    56.595225    56.595225 
  596000    381.01833   -37822.059    -37374.52    629.66949    178568.27    55.744793    56.597858    56.597858 
  597000    381.07055   -37820.421   -37372.821    450.71183    178568.27     55.73963    56.600479    56.600479 
  598000    383.19818   -37814.281   -37364.181    812.29911    178568.27    55.734489    56.603089    56.603089 
  599000    381.21769   -37811.575   -37363.802    942.99779    178568.27    55.729372    56.605688    56.605688 
  600000    376.19467   -37818.276   -37376.402    637.13771    178568.27    55.724277    56.608276    56.608276 
  601000    380.63751   -37815.308   -37368.216    728.57763    178568.27    55.719205    56.610852    56.610852 
  602000     385.0092   -37809.639   -37357.412      931.855    178568.27    55.714157    56.613417    56.613417 
  603000    378.25407   -37819.398   -37375.106    597.70961    178568.27    55.709133     56.61597     56.61597 
  604000    377.53313   -37809.858   -37366.412    781.79931    178568.27    55.704132    56.618511    56.618511 
  605000    381.97748   -37815.576    -37366.91    687.06077    178568.27    55.699155     56.62104     56.62104 
  606000    381.94386   -37808.233   -37359.607    802.05285    178568.27    55.694202    56.623558    56.623558 
  607000    379.12168   -37804.012   -37358.701     935.9069    178568.27    55.689274    56.626063    56.626063 
  608000    377.29269   -37816.407   -37373.244    630.25307    178568.27    55.684371    56.628556    56.628556 
  609000     376.7088   -37810.129   -37367.651    832.61224    178568.27    55.679492    56.631037    56.631037 
  610000    381.61662   -37818.317   -37370.075    496.99012    178568.27    55.674638    56.633506    56.633506 
  611000    379.94783   -37815.165   -37368.883    761.87028    178568.27    55.669809    56.635962    56.635962 
  612000    376.30626   -37813.399   -37371.395    620.07579    178568.27    55.665006    56.638405    56.638405 
  613000    376.41835   -37815.381   -37373.245    601.86181    178568.27    55.660228    56.640836    56.640836 
  614000    377.06404   -37813.881   -37370.986    681.50696    178568.27    55.655476    56.643254    56.643254 
  615000    382.50935   -37814.182   -37364.891    807.50579    178568.27     55.65075    56.645659    56.645659 
  616000     379.5386   -37805.213   -37359.412    893.24905    178568.27     55.64605    56.648051    56.648051 
  617000    374.57771   -37813.728   -37373.754     585.5495    178568.27    55.641377     56.65043     56.65043 
  618000    382.20772   -37806.717   -37357.781    1053.3164    178568.27    55.636729    56.652796    56.652796 
  619000    378.61952   -37814.405   -37369.684    876.55657    178568.27    55.632109    56.655149    56.655149 
  620000    384.48014   -37813.235    -37361.63    774.97588    178568.27    55.627515    56.657488    56.657488 
  621000    375.34431   -37808.541   -37367.667    905.93094    178568.27    55.622948    56.659814    56.659814 
  622000    379.88195   -37816.218   -37370.014    639.24022    178568.27    55.618409    56.662126    56.662126 
  623000    378.56285   -37818.565    -37373.91    678.86599    178568.27    55.613897    56.664425    56.664425 
  624000    381.92966   -37811.902   -37363.292    634.34323    178568.27    55.609412    56.666709    56.666709 
  625000    381.78706   -37821.272    -37372.83    493.68332    178568.27    55.604955     56.66898     56.66898 
  626000    384.63718   -37814.623   -37362.833    846.69729    178568.27    55.600526    56.671237    56.671237 
  627000    380.85262   -37809.197   -37361.852    1029.4365    178568.27    55.596126     56.67348     56.67348 
  628000    384.29416   -37816.164   -37364.777    678.93063    178568.27    55.591753    56.675709    56.675709 
  629000    381.82245   -37815.372   -37366.888    715.54166    178568.27    55.587409    56.677924    56.677924 
  630000    383.75554   -37806.533   -37355.779    1085.4589    178568.27    55.583093    56.680124    56.680124 
  631000    381.80709   -37808.098   -37359.633    1017.2188    178568.27    55.578807     56.68231     56.68231 
  632000    382.46863   -37807.641   -37358.398    937.38472    178568.27    55.574549    56.684481    56.684481 
  633000    377.27701   -37813.371   -37370.227    913.80595    178568.27     55.57032    56.686638    56.686638 
  634000    383.96085   -37806.484   -37355.489    853.37703    178568.27    55.566121    56.688779    56.688779 
  635000    375.39552   -37809.724   -37368.789    613.78519    178568.27    55.561951    56.690907    56.690907 
  636000    382.62379   -37816.339   -37366.914    874.33338    178568.27    55.557811    56.693019    56.693019 
  637000    378.73986   -37809.128   -37364.265    1046.5751    178568.27      55.5537    56.695116    56.695116 
  638000    377.93916   -37809.485   -37365.562    960.47697    178568.27     55.54962    56.697199    56.697199 
  639000    381.55604   -37813.807   -37365.637    648.08356    178568.27    55.545569    56.699266    56.699266 
  640000     384.1045   -37807.101   -37355.937    762.18401    178568.27    55.541549    56.701318    56.701318 
  641000    376.62655    -37803.93   -37361.549    955.51603    178568.27    55.537559    56.703355    56.703355 
  642000    380.64846   -37807.673   -37360.568    989.03009    178568.27      55.5336    56.705376    56.705376 
  643000    376.28994   -37815.697   -37373.712    896.84042    178568.27    55.529671    56.707382    56.707382 
  644000    379.34628   -37811.023   -37365.448      846.359    178568.27    55.525774    56.709372    56.709372 
  645000    378.36108   -37809.703   -37365.285    980.28782    178568.27    55.521907    56.711347    56.711347 
  646000    382.15664   -37807.751   -37358.875    1096.2748    178568.27    55.518072    56.713305    56.713305 
  647000    377.05432   -37815.674   -37372.791    655.58196    178568.27    55.514268    56.715248    56.715248 
  648000    379.57584   -37813.071   -37367.227    687.51318    178568.27    55.510495    56.717176    56.717176 
  649000      385.323   -37814.259   -37361.664    905.63544    178568.27    55.506754    56.719087    56.719087 
  650000    375.33765   -37812.068   -37371.201    747.63902    178568.27    55.503045    56.720982    56.720982 
  651000    376.89486   -37803.128   -37360.432    1010.6345    178568.27    55.499368    56.722861    56.722861 
  652000    389.18387   -37805.943   -37348.812    1023.2523    178568.27    55.495723    56.724724    56.724724 
  653000    379.12434   -37810.702   -37365.388    742.43446    178568.27     55.49211     56.72657     56.72657 
  654000    379.03973   -37811.498   -37366.283     868.2145    178568.27     55.48853    56.728401    56.728401 
  655000    377.37877   -37808.948   -37365.684    896.70392    178568.27    55.484982    56.730214    56.730214 
  656000    378.48673   -37808.939   -37364.374    966.62018    178568.27    55.481466    56.732011    56.732011 
  657000    382.58178   -37808.381   -37359.005    939.12585    178568.27    55.477984    56.733792    56.733792 
  658000    379.97813   -37807.675   -37361.357    784.44276    178568.27    55.474534    56.735556    56.735556 
  659000    381.75603    -37807.25   -37358.844    1059.9865    178568.27    55.471118    56.737303    56.737303 
  660000    381.32503    -37811.64    -37363.74    908.88401    178568.27    55.467734    56.739034    56.739034 
  661000    375.62273   -37805.843   -37364.641    1067.4464    178568.27    55.464384    56.740747    56.740747 
  662000    380.47488   -37803.846   -37356.946    971.23477    178568.27    55.461068    56.742444    56.742444 
  663000    383.21129   -37810.472   -37360.357    999.16424    178568.27    55.457785    56.744123    56.744123 
  664000    377.61306   -37805.734   -37362.195    850.99981    178568.27    55.454535    56.745785    56.745785 
  665000    384.17567   -37806.203   -37354.955    1120.5205    178568.27     55.45132    56.747431    56.747431 
  666000    381.79929   -37815.827   -37367.371    840.59351    178568.27    55.448139    56.749058    56.749058 
  667000    380.56985   -37806.117   -37359.105    981.51285    178568.27    55.444991    56.750669    56.750669 
  668000    379.00894   -37808.526   -37363.347    987.08938    178568.27    55.441878    56.752262    56.752262 
  669000    382.24673   -37806.371   -37357.389    1026.5426    178568.27      55.4388    56.753838    56.753838 
  670000    383.20367   -37809.405   -37359.299    813.01822    178568.27    55.435755    56.755396    56.755396 
  671000    381.57612   -37812.977   -37364.783    712.69471    178568.27    55.432746    56.756937    56.756937 
  672000    382.63806   -37807.308   -37357.866    710.76808    178568.27    55.429771     56.75846     56.75846 
  673000    382.36735   -37813.377   -37364.254    818.20246    178568.27    55.426831    56.759966    56.759966 
  674000    382.40625   -37802.127   -37352.958    1080.1888    178568.27    55.423926    56.761453    56.761453 
  675000    377.57883   -37805.181   -37361.681    918.32488    178568.27    55.421056    56.762923    56.762923 
  676000    373.69375    -37808.53   -37369.594    878.92335    178568.27    55.418221    56.764375    56.764375 
  677000    382.60907   -37811.402   -37361.995    714.51594    178568.27    55.415421    56.765809    56.765809 
  678000    381.35403   -37814.561   -37366.627    813.90028    178568.27    55.412657    56.767224    56.767224 
  679000    373.46072    -37809.25   -37370.588    631.05918    178568.27    55.409928    56.768622    56.768622 
  680000    377.48222   -37804.025    -37360.64    983.93219    178568.27    55.407235    56.770002    56.770002 
  681000    384.50156   -37809.561   -37357.931    824.22072    178568.27    55.404578    56.771363    56.771363 
  682000    380.28941   -37809.909   -37363.226    966.78971    178568.27    55.401956    56.772706    56.772706 
[...]
 9838000    383.75317   -37812.547   -37361.796    797.09488    178568.27    55.461068    56.742444    56.742444 
 9839000    383.89527   -37805.497   -37354.579    936.21921    178568.27    55.464384    56.740747    56.740747 
 9840000    378.70356   -37805.728   -37360.907    1027.7455    178568.27    55.467734    56.739034    56.739034 
 9841000    377.62238   -37805.191   -37361.641     867.5683    178568.27    55.471118    56.737303    56.737303 
 9842000     382.2752   -37808.284   -37359.268    841.38151    178568.27    55.474534    56.735556    56.735556 
 9843000    376.02573   -37814.285    -37372.61    564.76551    178568.27    55.477984    56.733792    56.733792 
 9844000    379.84029   -37806.773   -37360.617    1047.4424    178568.27    55.481466    56.732011    56.732011 
 9845000    378.86234   -37806.394   -37361.387    927.49612    178568.27    55.484982    56.730214    56.730214 
 9846000    376.44293    -37807.58   -37365.416    824.87784    178568.27     55.48853    56.728401    56.728401 
 9847000    374.88173   -37811.074   -37370.743    766.58157    178568.27     55.49211     56.72657     56.72657 
 9848000    384.45375   -37805.159   -37353.584    979.72438    178568.27    55.495723    56.724724    56.724724 
 9849000    382.43515   -37804.556   -37355.353      1038.74    178568.27    55.499368    56.722861    56.722861 
 9850000    386.58839   -37816.194   -37362.112    831.79801    178568.27    55.503045    56.720982    56.720982 
 9851000    379.68081   -37805.891   -37359.923    830.85501    178568.27    55.506754    56.719087    56.719087 
 9852000    376.20921   -37805.358   -37363.467    955.44678    178568.27    55.510495    56.717176    56.717176 
 9853000    375.12254   -37812.931   -37372.317    501.49441    178568.27    55.514268    56.715248    56.715248 
 9854000    379.63094   -37812.313   -37366.403    719.92968    178568.27    55.518072    56.713305    56.713305 
 9855000    384.30416   -37805.677   -37354.279    882.46716    178568.27    55.521907    56.711347    56.711347 
 9856000    379.94539   -37808.433   -37362.155    930.61164    178568.27    55.525774    56.709372    56.709372 
 9857000    383.46807   -37811.868   -37361.451    885.33542    178568.27    55.529671    56.707382    56.707382 
 9858000    377.75419   -37812.001   -37368.296    693.66771    178568.27      55.5336    56.705376    56.705376 
 9859000    378.80058   -37806.245    -37361.31    886.80242    178568.27    55.537559    56.703355    56.703355 
 9860000    382.01776   -37801.619   -37352.906    1047.3184    178568.27    55.541549    56.701318    56.701318 
 9861000    379.71729   -37806.205   -37360.194    921.55546    178568.27    55.545569    56.699266    56.699266 
 9862000    386.25403   -37812.336   -37358.647    812.03759    178568.27     55.54962    56.697199    56.697199 
 9863000    381.64172   -37808.098   -37359.827    758.36723    178568.27      55.5537    56.695116    56.695116 
 9864000    378.24993   -37812.216   -37367.929    741.25552    178568.27    55.557811    56.693019    56.693019 
 9865000    382.32782   -37805.638   -37356.561    1262.3849    178568.27    55.561951    56.690907    56.690907 
 9866000    379.49699   -37814.476   -37368.724    729.69713    178568.27    55.566121    56.688779    56.688779 
 9867000    377.88872   -37819.817   -37375.953    635.84087    178568.27     55.57032    56.686638    56.686638 
 9868000    379.34526     -37815.5   -37369.926    673.71829    178568.27    55.574549    56.684481    56.684481 
 9869000    381.86929   -37806.668    -37358.13    875.13095    178568.27    55.578807     56.68231     56.68231 
 9870000    376.16306   -37806.016    -37364.18    815.49364    178568.27    55.583093    56.680124    56.680124 
 9871000    381.68839   -37811.815   -37363.489    538.33499    178568.27    55.587409    56.677924    56.677924 
 9872000    378.79438   -37810.373   -37365.446    879.41592    178568.27    55.591753    56.675709    56.675709 
 9873000    382.29263   -37817.871   -37368.835    711.89278    178568.27    55.596126     56.67348     56.67348 
 9874000    377.35425   -37815.536     -37372.3    718.24253    178568.27    55.600526    56.671237    56.671237 
 9875000    381.41287    -37811.64   -37363.638    1031.6387    178568.27    55.604955     56.66898     56.66898 
 9876000    377.47227   -37816.366   -37372.992    757.30407    178568.27    55.609412    56.666709    56.666709 
 9877000    375.70106   -37812.432   -37371.139    684.01325    178568.27    55.613897    56.664425    56.664425 
 9878000    382.98837   -37812.565   -37362.712    838.75986    178568.27    55.618409    56.662126    56.662126 
 9879000    377.35277   -37811.152   -37367.918    891.79864    178568.27    55.622948    56.659814    56.659814 
 9880000    380.23062   -37810.072   -37363.458    833.55206    178568.27    55.627515    56.657488    56.657488 
 9881000    381.74553   -37810.404   -37362.011    778.42198    178568.27    55.632109    56.655149    56.655149 
 9882000    378.78328   -37816.309   -37371.395    490.53918    178568.27    55.636729    56.652796    56.652796 
 9883000     386.9331   -37806.928   -37352.441    851.91824    178568.27    55.641377     56.65043     56.65043 
 9884000    381.86336   -37815.439   -37366.907    675.23821    178568.27     55.64605    56.648051    56.648051 
 9885000    380.92037   -37809.542   -37362.118    803.64595    178568.27     55.65075    56.645659    56.645659 
 9886000     383.6458   -37805.876    -37355.25    933.56143    178568.27    55.655476    56.643254    56.643254 
 9887000    379.07548   -37814.906   -37369.649    873.69392    178568.27    55.660228    56.640836    56.640836 
 9888000    376.92193    -37819.88   -37377.153    387.07914    178568.27    55.665006    56.638405    56.638405 
 9889000     370.6639    -37820.44   -37385.063    426.45214    178568.27    55.669809    56.635962    56.635962 
 9890000     378.4386   -37814.946   -37370.437    530.10364    178568.27    55.674638    56.633506    56.633506 
 9891000     383.0322   -37807.456   -37357.551    979.59189    178568.27    55.679492    56.631037    56.631037 
 9892000    375.66437   -37814.709   -37373.459    603.51415    178568.27    55.684371    56.628556    56.628556 
 9893000    378.29657   -37817.212    -37372.87    764.21813    178568.27    55.689274    56.626063    56.626063 
 9894000    380.54472   -37811.575   -37364.593    707.02196    178568.27    55.694202    56.623558    56.623558 
 9895000    380.09723   -37813.768   -37367.311    695.48638    178568.27    55.699155     56.62104     56.62104 
 9896000     381.3647   -37820.374   -37372.428    374.38466    178568.27    55.704132    56.618511    56.618511 
 9897000    377.83432   -37809.931   -37366.132    940.15283    178568.27    55.709133     56.61597     56.61597 
 9898000    381.53234   -37813.189   -37365.046    672.16806    178568.27    55.714157    56.613417    56.613417 
 9899000    377.95697   -37820.092   -37376.149    357.45009    178568.27    55.719205    56.610852    56.610852 
 9900000     379.4611   -37820.017   -37374.307    589.97031    178568.27    55.724277    56.608276    56.608276 
 9901000    383.79567   -37813.511    -37362.71    653.21033    178568.27    55.729372    56.605688    56.605688 
 9902000    380.90885   -37812.785   -37365.374    762.99034    178568.27    55.734489    56.603089    56.603089 
 9903000    382.45639   -37801.881   -37352.653    1069.0441    178568.27     55.73963    56.600479    56.600479 
 9904000    383.04655   -37811.687   -37361.766     837.8135    178568.27    55.744793    56.597858    56.597858 
 9905000    386.76779   -37815.148   -37360.855    736.60085    178568.27    55.749979    56.595225    56.595225 
 9906000    380.34865   -37816.886   -37370.134    538.53157    178568.27    55.755186    56.592582    56.592582 
 9907000    381.64778   -37818.595   -37370.317    722.07158    178568.27    55.760416    56.589928    56.589928 
 9908000    383.05216   -37812.848    -37362.92    655.19775    178568.27    55.765668    56.587264    56.587264 
 9909000    375.13874   -37811.473    -37370.84    891.62282    178568.27    55.770941    56.584588    56.584588 
 9910000    379.47239   -37814.522   -37368.799    681.64272    178568.27    55.776235    56.581903    56.581903 
 9911000    380.47312   -37814.729   -37367.831    509.95533    178568.27    55.781551    56.579207    56.579207 
 9912000    382.22765    -37814.14    -37365.18    667.36935    178568.27    55.786887    56.576501    56.576501 
 9913000    379.61598   -37813.628   -37367.736    701.49656    178568.27    55.792245    56.573784    56.573784 
 9914000    382.28029   -37813.898   -37364.876     893.3255    178568.27    55.797623    56.571058    56.571058 
 9915000    383.60202   -37807.628   -37357.054    694.14482    178568.27    55.803021    56.568322    56.568322 
 9916000     382.0022   -37798.666   -37349.971    1108.3549    178568.27    55.808439    56.565575    56.565575 
 9917000    379.07993   -37815.628   -37370.365    561.12742    178568.27    55.813877     56.56282     56.56282 
 9918000    377.46318   -37815.768   -37372.404    721.87163    178568.27    55.819335    56.560054    56.560054 
 9919000    384.67624   -37811.112   -37359.276    713.93358    178568.27    55.824812     56.55728     56.55728 
 9920000    388.47274   -37817.194   -37360.899    857.91994    178568.27    55.830308    56.554496    56.554496 
 9921000    381.64183   -37814.277   -37366.005    751.21031    178568.27    55.835824    56.551702    56.551702 
 9922000     378.9236    -37815.54   -37370.461    405.60114    178568.27    55.841358      56.5489      56.5489 
 9923000    379.56484    -37824.29   -37378.458    411.64321    178568.27    55.846911    56.546088    56.546088 
 9924000    373.43808   -37816.696   -37378.061    565.62213    178568.27    55.852482    56.543268    56.543268 
 9925000    375.51736   -37813.969   -37372.891     715.9347    178568.27    55.858072    56.540439    56.540439 
 9926000     384.1796    -37811.85   -37360.598    967.02293    178568.27    55.863679    56.537602    56.537602 
 9927000    373.53459   -37826.193   -37387.445    414.89107    178568.27    55.869304    56.534755    56.534755 
 9928000    384.72011    -37814.04   -37362.153    717.70826    178568.27    55.874946    56.531901    56.531901 
 9929000    387.92401   -37820.591    -37364.94    732.38106    178568.27    55.880606    56.529038    56.529038 
 9930000    379.90679   -37817.611   -37371.377    968.01414    178568.27    55.886283    56.526167    56.526167 
 9931000    381.48808   -37813.489   -37365.399    764.22668    178568.27    55.891976    56.523288    56.523288 
 9932000    375.11159   -37817.494   -37376.893    512.55927    178568.27    55.897687      56.5204      56.5204 
 9933000     377.1103   -37809.889    -37366.94    718.79783    178568.27    55.903413    56.517505    56.517505 
 9934000    377.80492   -37821.362   -37377.598    458.11702    178568.27    55.909156    56.514603    56.514603 
 9935000    382.59386   -37816.143   -37366.753     554.6405    178568.27    55.914914    56.511693    56.511693 
 9936000    380.37097   -37816.794   -37370.015    656.29654    178568.27    55.920688    56.508775    56.508775 
 9937000    376.38063   -37817.627   -37375.535    603.24532    178568.27    55.926478     56.50585     56.50585 
 9938000    375.78189   -37815.556   -37374.168    559.35073    178568.27    55.932283    56.502918    56.502918 
 9939000    378.11582   -37815.309   -37371.179    889.41198    178568.27    55.938103    56.499978    56.499978 
 9940000    377.14616   -37810.841    -37367.85    694.54644    178568.27    55.943938    56.497032    56.497032 
 9941000    381.34197   -37820.693   -37372.774    524.05386    178568.27    55.949787    56.494078    56.494078 
 9942000    379.86969   -37811.504   -37365.314    916.20947    178568.27     55.95565    56.491118    56.491118 
 9943000    380.46438   -37820.268    -37373.38    661.23126    178568.27    55.961528    56.488152    56.488152 
 9944000    380.93416   -37810.532   -37363.092    864.57809    178568.27    55.967419    56.485179    56.485179 
 9945000    381.99084   -37821.978   -37373.297    548.41448    178568.27    55.973324    56.482199    56.482199 
 9946000    380.31577   -37807.289   -37360.576    774.12126    178568.27    55.979243    56.479213    56.479213 
 9947000    380.82659   -37808.862   -37361.549    869.53995    178568.27    55.985174    56.476221    56.476221 
 9948000    385.53735   -37820.186   -37367.339    532.33648    178568.27    55.991118    56.473223    56.473223 
 9949000      385.335   -37822.834   -37370.225    687.33581    178568.27    55.997076    56.470219    56.470219 
 9950000    375.52117   -37809.899   -37368.816    693.79606    178568.27    56.003045    56.467209    56.467209 
 9951000      375.593   -37818.377   -37377.211    440.61495    178568.27    56.009027    56.464194    56.464194 
 9952000    377.23374   -37819.323   -37376.229    567.81144    178568.27    56.015021    56.461173    56.461173 
 9953000    379.35921    -37815.89     -37370.3    570.18745    178568.27    56.021026    56.458147    56.458147 
 9954000    379.87298   -37814.655   -37368.461    856.29598    178568.27    56.027043    56.455115    56.455115 
 9955000    377.64571   -37819.607    -37376.03    545.38032    178568.27    56.033071    56.452078    56.452078 
 9956000    379.37613   -37818.832   -37373.221    612.33643    178568.27     56.03911    56.449036    56.449036 
 9957000    382.98733   -37817.714   -37367.863     419.4014    178568.27     56.04516    56.445989    56.445989 
 9958000     379.5499   -37813.988   -37368.173    720.38407    178568.27    56.051221    56.442938    56.442938 
 9959000    381.27652   -37817.272    -37369.43    681.48675    178568.27    56.057291    56.439881    56.439881 
 9960000    372.96484   -37816.162   -37378.083    593.55915    178568.27    56.063372     56.43682     56.43682 
 9961000    386.72021   -37811.817    -37357.58    964.64018    178568.27    56.069463    56.433755    56.433755 
 9962000    382.34838   -37824.646   -37375.545    410.71751    178568.27    56.075563    56.430685    56.430685 
 9963000    378.49058   -37820.143   -37375.573    511.85841    178568.27    56.081673    56.427612    56.427612 
 9964000    379.26534     -37815.6    -37370.12    677.86948    178568.27    56.087791    56.424534    56.424534 
 9965000    382.19751     -37814.1   -37365.175    754.55139    178568.27    56.093919    56.421452    56.421452 
 9966000    382.74847   -37813.852   -37364.281    693.36295    178568.27    56.100055    56.418366    56.418366 
 9967000    370.00863   -37819.119   -37384.512    641.77469    178568.27    56.106199    56.415276    56.415276 
 9968000    376.97476   -37820.739   -37377.949    496.88476    178568.27    56.112352    56.412183    56.412183 
 9969000    383.62276   -37821.037   -37370.439    470.26311    178568.27    56.118513    56.409087    56.409087 
 9970000    374.99269   -37819.826   -37379.364    453.45904    178568.27    56.124681    56.405987    56.405987 
 9971000    378.96542   -37823.475   -37378.347    663.85098    178568.27    56.130856    56.402884    56.402884 
 9972000    381.08288   -37819.809   -37372.194    753.00017    178568.27    56.137039    56.399778    56.399778 
 9973000    377.08711   -37815.262    -37372.34    653.49694    178568.27    56.143229    56.396669    56.396669 
 9974000    377.25957   -37818.177   -37375.053    246.96503    178568.27    56.149425    56.393557    56.393557 
 9975000    376.15522   -37815.169   -37373.342    471.51421    178568.27    56.155628    56.390443    56.390443 
 9976000    378.38022   -37820.155   -37375.715    505.25191    178568.27    56.161837    56.387326    56.387326 
 9977000    386.07088     -37818.5   -37365.026    587.84469    178568.27    56.168051    56.384206    56.384206 
 9978000    374.79486   -37821.095   -37380.866    446.48847    178568.27    56.174272    56.381084    56.381084 
 9979000     382.1956   -37813.895   -37364.973    566.16702    178568.27    56.180498     56.37796     56.37796 
 9980000    385.50075   -37810.494    -37357.69    846.69006    178568.27    56.186729    56.374834    56.374834 
 9981000     383.1105    -37820.57   -37370.574     665.2139    178568.27    56.192965    56.371705    56.371705 
 9982000    374.68225   -37813.123   -37373.026    556.70743    178568.27    56.199206    56.368575    56.368575 
 9983000    378.69068   -37815.316   -37370.511    553.78285    178568.27    56.205451    56.365443    56.365443 
 9984000    378.60844   -37816.534   -37371.825    602.46529    178568.27      56.2117     56.36231     56.36231 
 9985000    383.67129   -37811.103   -37360.447    835.67089    178568.27    56.217954    56.359175    56.359175 
 9986000    382.95725   -37819.715   -37369.898     659.7178    178568.27    56.224211    56.356039    56.356039 
 9987000    372.02452   -37814.125    -37377.15    469.49898    178568.27    56.230471    56.352902    56.352902 
 9988000     380.5688    -37819.17   -37372.159    753.34661    178568.27    56.236735    56.349763    56.349763 
 9989000    379.30651   -37817.735   -37372.207    802.84669    178568.27    56.243002    56.346624    56.346624 
 9990000    382.91308   -37819.893   -37370.128     545.8183    178568.27    56.249272    56.343484    56.343484 
 9991000    380.07324   -37814.844   -37368.415    763.72342    178568.27    56.255544    56.340343    56.340343 
 9992000    381.98516   -37822.801   -37374.126    491.15753    178568.27    56.261818    56.337201    56.337201 
 9993000    380.27765    -37823.91   -37377.241    488.55592    178568.27    56.268094    56.334059    56.334059 
 9994000    381.00156   -37823.258   -37375.739    415.60774    178568.27    56.274372    56.330917    56.330917 
 9995000    382.75203   -37814.957   -37365.382    514.61291    178568.27    56.280651    56.327774    56.327774 
 9996000    381.00881   -37815.651   -37368.123    765.38983    178568.27    56.286932    56.324631    56.324631 
 9997000    376.18161   -37822.646   -37380.788    250.57951    178568.27    56.293214    56.321489    56.321489 
 9998000    383.09208   -37822.815    -37372.84     571.1082    178568.27    56.299496    56.318346    56.318346 
 9999000    382.73005   -37826.864   -37377.314    277.55203    178568.27    56.305779    56.315204    56.315204 
10000000    384.07647   -37820.769   -37369.638    648.75039    178568.27    56.312062    56.312062    56.312062 
Loop time of 4704.65 on 48 procs for 10000000 steps with 9088 atoms

Performance: 1836.479 ns/day, 0.013 hours/ns, 2125.555 timesteps/s
99.3% CPU use with 48 MPI tasks x 1 OpenMP threads

MPI task timing breakdown:
Section |  min time  |  avg time  |  max time  |%varavg| %total
---------------------------------------------------------------
Pair    | 3293.6     | 3404.2     | 3525       |  92.2 | 72.36
Neigh   | 145.96     | 157.95     | 174.93     |  54.4 |  3.36
Comm    | 642.23     | 741.43     | 886.64     | 193.5 | 15.76
Output  | 0.33084    | 0.37961    | 2.3561     |  46.8 |  0.01
Modify  | 319.15     | 345.83     | 389.2      | 113.0 |  7.35
Other   |            | 54.88      |            |       |  1.17

Nlocal:        189.333 ave         199 max         178 min
Histogram: 1 2 5 4 8 10 9 3 0 6
Nghost:        2101.23 ave        2125 max        2076 min
Histogram: 1 0 2 8 14 6 13 1 2 1
Neighs:        20036.3 ave       21681 max       18744 min
Histogram: 2 2 10 14 4 2 7 1 4 2

Total # of neighbors = 961743
Ave neighs/atom = 105.82559
Neighbor list builds = 980647
Dangerous builds = 0
write_restart rst.${T}
write_restart rst.380
System init for write_restart ...
clear
OMP_NUM_THREADS environment is not set. Defaulting to 1 thread. (../comm.cpp:94)
  using 1 OpenMP thread(s) per MPI task
package intel 1
jump dms400.lmp
#MD-DMS by Ha-Bin Yu
variable T equal 400
log log.${T}
log log.400
