units           metal
boundary        p p p
atom_style      atomic
read_data      ../../data/T${T}.dat
read_data      ../../data/T320.dat
Reading data file ...
  orthogonal box = (-0.19091029 -0.19091029 -0.19091029) to (56.075403 56.075403 56.075403)
  4 by 3 by 4 MPI processor grid
  reading atoms ...
  9088 atoms
  reading velocities ...
  9088 velocities
  read_data CPU = 0.023 seconds
mass            1  26.98	#Al
mass            2  150.36	#Sm
pair_style      eam/fs
pair_coeff      * *  ../../Al90Sm10_MendelevM_2014.eam.fs  Al Sm

neighbor        2.0 bin
neigh_modify    delay 1

timestep 0.01
thermo 1000
reset_timestep 0
thermo_style custom step temp pe etotal press vol lx ly lz
fix             1 all nvt temp ${T} ${T} 0.1
fix             1 all nvt temp 320 ${T} 0.1
fix             1 all nvt temp 320 320 0.1
thermo_modify flush yes
fix nodrift all momentum 1  linear 1 1 1
fix com_seed all recenter INIT INIT INIT shift all
fix dsf all deform 1 x  wiggle 1.0  10000.0 y volume z volume units box
fix ps1 all ave/time 1 1 10000 c_thermo_press[1] c_thermo_press[2]  c_thermo_press[3] c_thermo_press[4]  c_thermo_press[5] c_thermo_press[6]  file  stress.${T}
fix ps1 all ave/time 1 1 10000 c_thermo_press[1] c_thermo_press[2]  c_thermo_press[3] c_thermo_press[4]  c_thermo_press[5] c_thermo_press[6]  file  stress.320
dump            1 all custom 1000000 dump.${T} id type x y z
dump            1 all custom 1000000 dump.320 id type x y z
dump_modify 1 sort id
run 10000000
Neighbor list info ...
  update every 1 steps, delay 1 steps, check yes
  max neighbors/atom: 2000, page size: 100000
  master list distance cutoff = 10
  ghost atom cutoff = 10
  binsize = 5, bins = 12 12 12
  1 neighbor lists, perpetual/occasional/extra = 1 0 0
  (1) pair eam/fs/intel, perpetual
      attributes: half, newton on, intel
      pair build: half/bin/newton/intel
      stencil: half/bin/3d/newton
      bin: intel
Per MPI rank memory allocation (min/avg/max) = 6.299 | 6.398 | 6.477 Mbytes
Step Temp PotEng TotEng Press Volume Lx Ly Lz 
       0    319.82953   -37911.462   -37535.794   -149.83712    178133.41    56.266313    56.266313    56.266313 
    1000    317.96982   -37898.006   -37524.523    320.26479    178133.41    56.272596    56.263172    56.263172 
    2000    322.23945    -37890.44   -37511.942    596.47706    178133.41    56.278879    56.260031    56.260031 
    3000    320.35133   -37897.279   -37520.998    444.00517    178133.41    56.285162    56.256891    56.256891 
    4000    316.10639   -37900.536   -37529.241    308.71709    178133.41    56.291443    56.253752    56.253752 
    5000    318.62252   -37898.003   -37523.753    230.66346    178133.41    56.297724    56.250614    56.250614 
    6000    322.08645   -37893.938   -37515.619    438.78167    178133.41    56.304003    56.247478    56.247478 
    7000     317.5486   -37906.103   -37533.114   -110.43379    178133.41    56.310281    56.244342    56.244342 
    8000     322.1109   -37896.485   -37518.138    68.460979    178133.41    56.316558    56.241208    56.241208 
    9000    315.52768   -37898.839   -37528.224    278.29586    178133.41    56.322832    56.238075    56.238075 
   10000    320.42232   -37895.849   -37519.485    364.72122    178133.41    56.329104    56.234944    56.234944 
   11000    320.50696   -37900.704    -37524.24     142.8785    178133.41    56.335373    56.231815    56.231815 
   12000    313.86033   -37900.466    -37531.81   -44.965297    178133.41     56.34164    56.228688    56.228688 
   13000    320.26367   -37902.866   -37526.688    313.96585    178133.41    56.347904    56.225562    56.225562 
   14000    321.74697   -37896.018   -37518.099    269.93194    178133.41    56.354164    56.222439    56.222439 
   15000    321.58308   -37898.315   -37520.588    203.82651    178133.41    56.360422    56.219318    56.219318 
   16000    319.35939   -37897.671   -37522.555    141.91581    178133.41    56.366675    56.216199    56.216199 
   17000     322.6366   -37896.018   -37517.053    402.50678    178133.41    56.372924    56.213083    56.213083 
   18000    317.11442    -37903.36   -37530.882    13.716159    178133.41     56.37917     56.20997     56.20997 
   19000    324.15705   -37898.583   -37517.832    334.50352    178133.41     56.38541    56.206859    56.206859 
   20000    321.09311   -37899.247   -37522.095    114.35408    178133.41    56.391646    56.203751    56.203751 
   21000    320.59557   -37893.443   -37516.875    497.74415    178133.41    56.397878    56.200646    56.200646 
   22000    323.45062   -37895.081    -37515.16    237.50093    178133.41    56.404103    56.197544    56.197544 
   23000    318.14825   -37899.791   -37526.098    160.69147    178133.41    56.410324    56.194446    56.194446 
   24000    312.77109   -37900.269   -37532.892    280.13506    178133.41    56.416539     56.19135     56.19135 
   25000    319.70753   -37901.606   -37526.082    208.90251    178133.41    56.422748    56.188259    56.188259 
   26000     318.5739   -37897.409   -37523.216    527.25404    178133.41     56.42895     56.18517     56.18517 
   27000    325.32368   -37899.184   -37517.063    390.69756    178133.41    56.435147    56.182086    56.182086 
   28000    323.01081   -37896.006   -37516.602    517.66889    178133.41    56.441336    56.179005    56.179005 
   29000    317.18191   -37901.582   -37529.024    238.10207    178133.41    56.447519    56.175929    56.175929 
   30000    312.86843   -37893.927   -37526.436     263.3754    178133.41    56.453695    56.172856    56.172856 
   31000    325.12868   -37899.108   -37517.216    273.21076    178133.41    56.459863    56.169787    56.169787 
   32000    314.26038   -37896.474   -37527.347    201.53361    178133.41    56.466023    56.166723    56.166723 
   33000    320.90249   -37896.268    -37519.34    379.74128    178133.41    56.472176    56.163663    56.163663 
   34000    315.52356   -37899.352   -37528.742    99.169193    178133.41     56.47832    56.160608    56.160608 
   35000    319.17728   -37897.995   -37523.093    256.09302    178133.41    56.484456    56.157558    56.157558 
   36000    322.46452   -37896.888   -37518.126    262.44614    178133.41    56.490584    56.154512    56.154512 
   37000    322.20103   -37897.572   -37519.119    424.52171    178133.41    56.496703    56.151471    56.151471 
   38000    319.74154   -37888.607   -37513.043    429.74829    178133.41    56.502812    56.148435    56.148435 
   39000    322.16077   -37902.978   -37524.573    62.847267    178133.41    56.508912    56.145404    56.145404 
   40000    319.80916   -37888.433   -37512.789    432.79866    178133.41    56.515003    56.142379    56.142379 
   41000    318.46354   -37900.503    -37526.44    132.91578    178133.41    56.521084    56.139359    56.139359 
   42000    320.16497   -37895.734   -37519.673    410.99859    178133.41    56.527155    56.136344    56.136344 
   43000    320.71565   -37899.041   -37522.333    205.76204    178133.41    56.533215    56.133335    56.133335 
   44000    320.30999   -37900.995   -37524.763    325.26134    178133.41    56.539265    56.130332    56.130332 
   45000    316.86952   -37897.025   -37524.834    310.32289    178133.41    56.545304    56.127334    56.127334 
   46000    319.65983   -37893.019   -37517.551    385.55312    178133.41    56.551332    56.124343    56.124343 
   47000    319.80777   -37895.206   -37519.564    398.79567    178133.41    56.557349    56.121357    56.121357 
   48000     323.8705   -37896.882   -37516.468    390.96445    178133.41    56.563355    56.118378    56.118378 
   49000    318.03493   -37893.212   -37519.653    357.23992    178133.41    56.569348    56.115405    56.115405 
   50000    321.90014   -37892.061   -37513.962    472.75795    178133.41     56.57533    56.112438    56.112438 
   51000    317.42224   -37896.411   -37523.571    110.70138    178133.41      56.5813    56.109478    56.109478 
   52000    320.12831   -37893.956   -37517.937    509.24303    178133.41    56.587257    56.106525    56.106525 
   53000    322.26089   -37896.457   -37517.934    306.66984    178133.41    56.593201    56.103578    56.103578 
   54000    320.56136   -37898.249   -37521.721    349.28912    178133.41    56.599133    56.100638    56.100638 
   55000    321.89903    -37895.78   -37517.682    503.14667    178133.41    56.605051    56.097705    56.097705 
   56000    322.66267   -37901.612   -37522.616    215.70186    178133.41    56.610956    56.094779    56.094779 
   57000    317.14758   -37898.371   -37525.853    276.93747    178133.41    56.616848    56.091861    56.091861 
   58000    319.83245   -37899.305   -37523.633    434.13037    178133.41    56.622725    56.088949    56.088949 
   59000    318.18615   -37900.237     -37526.5    146.25367    178133.41    56.628589    56.086046    56.086046 
   60000    315.91407   -37892.859   -37521.791    110.44496    178133.41    56.634438    56.083149    56.083149 
   61000    321.09386   -37896.017   -37518.865    244.61218    178133.41    56.640272     56.08026     56.08026 
   62000    316.37833   -37890.103    -37518.49    290.71375    178133.41    56.646092     56.07738     56.07738 
   63000    323.29799   -37888.869   -37509.127    507.20701    178133.41    56.651897    56.074506    56.074506 
   64000    322.83127    -37900.47   -37521.277     369.8529    178133.41    56.657687    56.071641    56.071641 
   65000    322.87096   -37892.334   -37513.094    387.28397    178133.41    56.663461    56.068784    56.068784 
   66000    319.34617    -37895.48    -37520.38    395.70582    178133.41     56.66922    56.065935    56.065935 
   67000    317.14113   -37897.863   -37525.353    92.330092    178133.41    56.674962    56.063095    56.063095 
   68000    320.02392   -37887.016    -37511.12    671.00678    178133.41    56.680689    56.060263    56.060263 
   69000    322.76081   -37892.048   -37512.937    508.83683    178133.41    56.686399    56.057439    56.057439 
   70000    315.14082   -37896.751   -37526.591    217.64518    178133.41    56.692092    56.054624    56.054624 
   71000    320.60157   -37892.597   -37516.023    551.14755    178133.41    56.697769    56.051818    56.051818 
   72000    324.83882   -37896.708   -37515.157    366.30392    178133.41    56.703429    56.049021    56.049021 
   73000    318.07533   -37894.657    -37521.05    96.979104    178133.41    56.709071    56.046232    56.046232 
   74000    322.97082    -37897.04   -37517.682    341.19873    178133.41    56.714696    56.043453    56.043453 
   75000    322.70354   -37899.172   -37520.129    109.81356    178133.41    56.720304    56.040682    56.040682 
   76000    320.12159   -37896.822   -37520.811    409.43441    178133.41    56.725893    56.037921    56.037921 
   77000    321.08769   -37899.528   -37522.382    89.711079    178133.41    56.731464     56.03517     56.03517 
   78000    319.58227   -37893.739   -37518.362    220.03429    178133.41    56.737017    56.032428    56.032428 
   79000     323.0208   -37893.356    -37513.94    459.34942    178133.41    56.742551    56.029695    56.029695 
   80000    318.16709   -37894.891   -37521.176    319.00312    178133.41    56.748067    56.026972    56.026972 
   81000    322.71063   -37894.017   -37514.966    491.63225    178133.41    56.753563    56.024259    56.024259 
   82000    324.95214   -37898.132   -37516.447    345.86275    178133.41    56.759041    56.021556    56.021556 
   83000    315.59452    -37893.96   -37523.267    281.11974    178133.41    56.764498    56.018863    56.018863 
   84000     319.9182   -37896.136   -37520.364    319.17724    178133.41    56.769936     56.01618     56.01618 
   85000    319.93669   -37885.973    -37510.18    691.93503    178133.41    56.775355    56.013507    56.013507 
   86000    315.26743   -37894.995   -37524.686      460.172    178133.41    56.780753    56.010844    56.010844 
   87000    323.55953   -37895.293   -37515.244    273.27963    178133.41    56.786131    56.008192    56.008192 
   88000     317.7918   -37891.838   -37518.564    357.99466    178133.41    56.791488     56.00555     56.00555 
   89000    321.73124   -37893.704   -37515.803    354.60311    178133.41    56.796824    56.002919    56.002919 
   90000     323.3341   -37897.739   -37517.955    305.70583    178133.41     56.80214    56.000298    56.000298 
   91000    320.78576   -37893.723   -37516.932    211.82625    178133.41    56.807434    55.997689    55.997689 
   92000    319.76794   -37892.136   -37516.541     565.9958    178133.41    56.812708     55.99509     55.99509 
   93000     316.8445    -37889.71   -37517.549    315.24065    178133.41    56.817959    55.992502    55.992502 
   94000    320.58294   -37896.918   -37520.366    294.89496    178133.41    56.823189    55.989925    55.989925 
   95000    320.47332   -37893.109   -37516.685    422.45033    178133.41    56.828397     55.98736     55.98736 
   96000    321.55407   -37893.715   -37516.022    487.94271    178133.41    56.833582    55.984806    55.984806 
   97000    323.20488   -37900.297   -37520.665    236.24607    178133.41    56.838745    55.982263    55.982263 
   98000    321.33082   -37890.618   -37513.187    531.80407    178133.41    56.843886    55.979731    55.979731 
   99000    321.02489   -37890.973   -37513.901    421.72279    178133.41    56.849004    55.977211    55.977211 
  100000    321.23596   -37889.957   -37512.637    591.79333    178133.41    56.854098    55.974703    55.974703 
  101000    321.29984   -37898.646   -37521.251    312.12988    178133.41     56.85917    55.972207    55.972207 
  102000    326.90746   -37895.047   -37511.066    345.09715    178133.41    56.864218    55.969722    55.969722 
  103000    317.14536   -37896.728   -37524.213     352.7836    178133.41    56.869243     55.96725     55.96725 
  104000    320.95281   -37895.365   -37518.378    433.41572    178133.41    56.874243    55.964789    55.964789 
  105000    319.95089   -37893.958   -37518.148    459.70362    178133.41     56.87922    55.962341    55.962341 
  106000    318.45819   -37893.644   -37519.588    438.43538    178133.41    56.884173    55.959905    55.959905 
  107000    314.92045   -37891.959   -37522.057    525.90185    178133.41    56.889101    55.957481    55.957481 
  108000     323.3518    -37892.08   -37512.275    403.08641    178133.41    56.894005    55.955069    55.955069 
  109000    321.50631   -37894.675   -37517.038    456.23537    178133.41    56.898883     55.95267     55.95267 
  110000    320.57468   -37899.081   -37522.538     198.8119    178133.41    56.903737    55.950284    55.950284 
  111000    326.51225   -37895.653   -37512.136    305.78959    178133.41    56.908566     55.94791     55.94791 
  112000    320.01993   -37888.797   -37512.906    415.55105    178133.41    56.913369    55.945549    55.945549 
  113000    324.48269   -37891.431   -37510.297    378.47745    178133.41    56.918147    55.943201    55.943201 
  114000    324.01749   -37890.589   -37510.002    603.19604    178133.41    56.922899    55.940866    55.940866 
  115000     312.5933   -37892.616   -37525.448    481.79688    178133.41    56.927625    55.938544    55.938544 
  116000     322.8838   -37894.451   -37515.196    252.55357    178133.41    56.932325    55.936235    55.936235 
  117000    314.52681   -37890.385   -37520.946    430.61319    178133.41    56.936999    55.933939    55.933939 
  118000    318.79207   -37890.973   -37516.524    331.78856    178133.41    56.941646    55.931656    55.931656 
  119000    321.31686   -37897.378   -37519.963    158.50462    178133.41    56.946267    55.929387    55.929387 
  120000    318.50053   -37885.032   -37510.925    621.96686    178133.41     56.95086    55.927131    55.927131 
  121000    322.10775   -37897.032   -37518.689    307.96225    178133.41    56.955427    55.924889    55.924889 
  122000    324.96059   -37897.047   -37515.353    250.55738    178133.41    56.959967    55.922661    55.922661 
  123000    321.85606    -37896.28   -37518.232    308.66073    178133.41    56.964479    55.920446    55.920446 
  124000    321.46762   -37892.434   -37514.842    520.22138    178133.41    56.968963    55.918245    55.918245 
  125000    322.45666    -37893.19   -37514.436    441.89673    178133.41     56.97342    55.916058    55.916058 
  126000    319.82296    -37892.52    -37516.86    542.96212    178133.41    56.977849    55.913884    55.913884 
  127000    318.31514   -37895.985   -37522.096    428.88392    178133.41     56.98225    55.911725    55.911725 
  128000    323.63909   -37892.976   -37512.834    498.60172    178133.41    56.986622     55.90958     55.90958 
  129000     317.7914   -37902.299   -37529.025    86.451445    178133.41    56.990966    55.907449    55.907449 
  130000    316.02317   -37896.851   -37525.654    233.10822    178133.41    56.995282    55.905333    55.905333 
  131000    317.92337   -37892.602   -37519.173     590.6034    178133.41    56.999569     55.90323     55.90323 
  132000    321.82107   -37896.321   -37518.315    255.20638    178133.41    57.003826    55.901143    55.901143 
  133000    317.05543   -37892.494   -37520.085    388.60323    178133.41    57.008055    55.899069    55.899069 
  134000    317.69468    -37886.46     -37513.3     585.8002    178133.41    57.012254    55.897011    55.897011 
  135000    316.60571   -37894.021    -37522.14    197.13831    178133.41    57.016424    55.894967    55.894967 
  136000    319.21898   -37892.995   -37518.045    468.16718    178133.41    57.020565    55.892937    55.892937 
  137000    323.43138   -37888.882   -37508.984     475.0699    178133.41    57.024675    55.890923    55.890923 
  138000    322.41803   -37891.357   -37512.649    446.01244    178133.41    57.028756    55.888923    55.888923 
  139000    323.16443   -37884.023   -37504.438    568.93755    178133.41    57.032806    55.886938    55.886938 
  140000    324.56842   -37892.733   -37511.499    702.26123    178133.41    57.036826    55.884969    55.884969 
  141000    320.70248   -37893.987   -37517.294    284.07679    178133.41    57.040816    55.883014    55.883014 
  142000    319.73155   -37890.348   -37514.795    542.81213    178133.41    57.044776    55.881075    55.881075 
  143000    321.67836   -37889.014   -37511.175    450.54379    178133.41    57.048704    55.879151    55.879151 
  144000    319.88613   -37899.214    -37523.48    195.71245    178133.41    57.052602    55.877242    55.877242 
  145000    321.70179   -37886.316   -37508.449     452.4084    178133.41    57.056468    55.875349    55.875349 
  146000    322.81868   -37891.574   -37512.395    437.02894    178133.41    57.060304    55.873471    55.873471 
  147000    319.32948   -37887.298   -37512.218    571.55396    178133.41    57.064108    55.871608    55.871608 
  148000    319.08632   -37892.457   -37517.662    527.59638    178133.41     57.06788    55.869762    55.869762 
  149000    319.69829   -37886.702   -37511.189    493.09382    178133.41    57.071621    55.867931    55.867931 
  150000    320.84996   -37887.843   -37510.977    446.18028    178133.41     57.07533    55.866115    55.866115 
  151000    324.54893   -37892.254   -37511.043    500.54427    178133.41    57.079007    55.864316    55.864316 
  152000    321.00255    -37886.68   -37509.634    395.93843    178133.41    57.082652    55.862532    55.862532 
  153000    322.54324   -37892.885    -37514.03    541.27068    178133.41    57.086265    55.860764    55.860764 
  154000     318.4859   -37890.341   -37516.252    387.27865    178133.41    57.089846    55.859013    55.859013 
  155000      319.491   -37893.245   -37517.975    284.36467    178133.41    57.093394    55.857277    55.857277 
  156000    319.93137   -37891.574   -37515.787    406.48569    178133.41    57.096909    55.855557    55.855557 
  157000    320.66356   -37889.214   -37512.567    754.66249    178133.41    57.100392    55.853854    55.853854 
  158000    318.82164   -37889.019   -37514.536    334.79865    178133.41    57.103841    55.852167    55.852167 
  159000    318.28643    -37886.72   -37512.865    664.76863    178133.41    57.107258    55.850496    55.850496 
  160000    319.79873   -37885.761   -37510.129    614.77212    178133.41    57.110641    55.848842    55.848842 
  161000    319.11917   -37890.522   -37515.689    534.45147    178133.41    57.113991    55.847204    55.847204 
  162000      318.766   -37889.358   -37514.939    587.75949    178133.41    57.117308    55.845582    55.845582 
  163000      321.431   -37888.114   -37510.565    482.27143    178133.41    57.120591    55.843978    55.843978 
  164000    320.81473   -37889.472   -37512.647    524.98925    178133.41     57.12384    55.842389    55.842389 
  165000    322.52045   -37886.012   -37507.184     583.4437    178133.41    57.127055    55.840818    55.840818 
  166000    322.23394    -37890.53   -37512.038    470.17643    178133.41    57.130237    55.839263    55.839263 
  167000     318.0753   -37887.612   -37514.005     497.2705    178133.41    57.133384    55.837725    55.837725 
  168000    323.93936    -37894.34   -37513.846    253.79671    178133.41    57.136497    55.836204    55.836204 
  169000    316.84833   -37889.234   -37517.068    471.09381    178133.41    57.139576      55.8347      55.8347 
  170000    317.68199   -37890.691   -37517.546    273.98405    178133.41     57.14262    55.833212    55.833212 
  171000    315.79831   -37889.312   -37518.379    482.46862    178133.41     57.14563    55.831742    55.831742 
  172000    320.67176   -37885.023   -37508.366    360.08381    178133.41    57.148604    55.830289    55.830289 
  173000    317.87564   -37891.616   -37518.244    395.04053    178133.41    57.151545    55.828853    55.828853 
  174000    322.97224   -37889.577   -37510.218    436.58162    178133.41     57.15445    55.827434    55.827434 
  175000     317.4146   -37890.044   -37517.213    296.88041    178133.41     57.15732    55.826032    55.826032 
  176000    319.59121   -37895.123   -37519.736    272.53343    178133.41    57.160155    55.824648    55.824648 
  177000    322.52426   -37889.877   -37511.044    569.39249    178133.41    57.162954    55.823281    55.823281 
  178000    321.10406   -37885.736   -37508.571    586.34517    178133.41    57.165718    55.821931    55.821931 
  179000    318.49736   -37882.413   -37508.311    547.12899    178133.41    57.168447    55.820599    55.820599 
  180000    318.87529   -37890.493   -37515.946    407.75137    178133.41     57.17114    55.819284    55.819284 
  181000    324.91908   -37890.709   -37509.064    384.04589    178133.41    57.173798    55.817987    55.817987 
  182000    319.89956   -37886.901   -37511.151    498.91482    178133.41    57.176419    55.816707    55.816707 
  183000    319.54761    -37895.47   -37520.134    344.48922    178133.41    57.179005    55.815445    55.815445 
  184000    319.02133   -37888.228    -37513.51    580.72808    178133.41    57.181554    55.814201    55.814201 
  185000    319.82344    -37880.83   -37505.169      647.411    178133.41    57.184068    55.812974    55.812974 
  186000    320.83261   -37888.876    -37512.03     208.9865    178133.41    57.186545    55.811765    55.811765 
  187000    320.16682   -37887.986   -37511.922    394.26675    178133.41    57.188986    55.810574    55.810574 
  188000    317.93287   -37888.804   -37515.364    365.70293    178133.41     57.19139    55.809401    55.809401 
  189000    320.21628   -37886.591   -37510.469    520.23186    178133.41    57.193758    55.808246    55.808246 
  190000    316.71739    -37894.66   -37522.647    489.76831    178133.41     57.19609    55.807108    55.807108 
  191000    319.91753   -37890.478   -37514.707    416.82804    178133.41    57.198384    55.805989    55.805989 
  192000     321.5712     -37888.3   -37510.587    668.61704    178133.41    57.200642    55.804887    55.804887 
  193000    317.66414   -37893.769   -37520.645    184.23434    178133.41    57.202863    55.803804    55.803804 
  194000    317.87164   -37894.026   -37520.658    308.19077    178133.41    57.205047    55.802739    55.802739 
  195000     321.0868   -37889.458   -37512.314     425.4295    178133.41    57.207194    55.801692    55.801692 
  196000    319.72657   -37891.012   -37515.465    384.69214    178133.41    57.209304    55.800663    55.800663 
  197000    321.10134   -37895.282    -37518.12    150.00772    178133.41    57.211376    55.799652    55.799652 
  198000    321.96539   -37891.041   -37512.865    599.43677    178133.41    57.213412     55.79866     55.79866 
  199000    321.80847   -37882.416   -37504.424    614.96379    178133.41    57.215409    55.797685    55.797685 
  200000    317.85676   -37886.843   -37513.493    482.71124    178133.41     57.21737     55.79673     55.79673 
  201000    317.44185   -37892.006   -37519.143    607.86419    178133.41    57.219293    55.795792    55.795792 
  202000    323.13049   -37888.826   -37509.281    568.80007    178133.41    57.221178    55.794873    55.794873 
  203000    315.61184   -37880.109   -37509.395    631.35479    178133.41    57.223025    55.793972    55.793972 
  204000    319.17231   -37886.636    -37511.74    563.83312    178133.41    57.224835     55.79309     55.79309 
  205000    321.90262   -37889.919   -37511.816    482.11838    178133.41    57.226607    55.792226    55.792226 
  206000    323.64276   -37883.178   -37503.032     648.4453    178133.41    57.228341    55.791381    55.791381 
  207000    317.75509   -37888.498   -37515.267    572.06609    178133.41    57.230037    55.790554    55.790554 
  208000    316.57635   -37891.381   -37519.535    396.94095    178133.41    57.231695    55.789746    55.789746 
  209000    317.59369   -37882.414   -37509.373    574.62844    178133.41    57.233315    55.788957    55.788957 
  210000    320.10072   -37886.623   -37510.637    507.74325    178133.41    57.234896    55.788186    55.788186 
  211000    320.16152   -37885.317    -37509.26    551.68005    178133.41     57.23644    55.787434    55.787434 
  212000    317.45585   -37886.478   -37513.598    382.36885    178133.41    57.237945      55.7867      55.7867 
  213000    320.69535   -37891.107   -37514.422    373.30356    178133.41    57.239412    55.785985    55.785985 
  214000    324.41413   -37884.162   -37503.109    774.98175    178133.41     57.24084    55.785289    55.785289 
  215000    314.00663   -37885.066   -37516.238    521.17762    178133.41     57.24223    55.784612    55.784612 
  216000    323.92794   -37879.969   -37499.488    603.71256    178133.41    57.243581    55.783954    55.783954 
  217000    323.35378   -37888.962   -37509.155     512.6801    178133.41    57.244894    55.783314    55.783314 
  218000    316.46085   -37889.244   -37517.533    303.13187    178133.41    57.246168    55.782693    55.782693 
  219000    325.44372   -37888.567   -37506.305    485.90928    178133.41    57.247404    55.782091    55.782091 
  220000    319.63921   -37890.131   -37514.687    447.06927    178133.41      57.2486    55.781508    55.781508 
  221000    321.22675   -37896.489   -37519.181     474.9385    178133.41    57.249758    55.780944    55.780944 
  222000     318.3487   -37889.057   -37515.129    359.42941    178133.41    57.250878    55.780399    55.780399 
  223000     323.9599     -37885.3   -37504.781    449.85567    178133.41    57.251958    55.779873    55.779873 
  224000    317.89234   -37887.802    -37514.41    360.14971    178133.41    57.252999    55.779365    55.779365 
  225000    320.15867   -37891.307   -37515.253    516.46487    178133.41    57.254002    55.778877    55.778877 
  226000    323.89351   -37887.067   -37506.626    500.44021    178133.41    57.254965    55.778408    55.778408 
  227000    321.90005   -37878.985   -37500.886    645.81233    178133.41    57.255889    55.777957    55.777957 
  228000    320.00895   -37878.691   -37502.813    931.76386    178133.41    57.256775    55.777526    55.777526 
  229000     322.8569   -37889.129   -37509.906    463.50956    178133.41    57.257621    55.777114    55.777114 
  230000    320.99576   -37881.426   -37504.389    631.29263    178133.41    57.258428    55.776721    55.776721 
  231000    323.31172   -37896.505   -37516.747    227.13899    178133.41    57.259196    55.776347    55.776347 
  232000    320.42378   -37884.625   -37508.259     567.9819    178133.41    57.259925    55.775992    55.775992 
  233000    317.33373   -37890.397   -37517.661    340.50621    178133.41    57.260614    55.775656    55.775656 
  234000    323.26596   -37888.997   -37509.293    605.50026    178133.41    57.261264     55.77534     55.77534 
  235000     325.8564    -37887.98   -37505.233    568.79662    178133.41    57.261875    55.775042    55.775042 
  236000    315.85254   -37891.109   -37520.112    242.87158    178133.41    57.262447    55.774764    55.774764 
  237000    321.19075   -37886.248   -37508.981    447.50279    178133.41    57.262979    55.774504    55.774504 
  238000    320.49975    -37883.12   -37506.665    640.97381    178133.41    57.263472    55.774264    55.774264 
  239000    326.45435    -37888.88    -37505.43      446.839    178133.41    57.263926    55.774043    55.774043 
  240000    322.34333   -37888.779   -37510.158    438.39628    178133.41     57.26434    55.773842    55.773842 
  241000    321.00897   -37883.576   -37506.523    441.83934    178133.41    57.264715    55.773659    55.773659 
  242000    319.06084   -37887.163   -37512.398    645.20549    178133.41     57.26505    55.773496    55.773496 
  243000    319.90114   -37889.355   -37513.603    582.47196    178133.41    57.265346    55.773352    55.773352 
  244000    320.41722   -37889.629   -37513.271    384.22099    178133.41    57.265603    55.773227    55.773227 
  245000    321.14015   -37887.044   -37509.837    461.66744    178133.41     57.26582    55.773121    55.773121 
  246000    314.10764   -37885.989   -37517.043    534.68849    178133.41    57.265997    55.773035    55.773035 
  247000     322.7396   -37892.199   -37513.113    251.04903    178133.41    57.266136    55.772967    55.772967 
  248000    321.52602   -37887.666   -37510.006    502.73662    178133.41    57.266234    55.772919    55.772919 
  249000    314.85467   -37887.323   -37517.499    565.58256    178133.41    57.266293     55.77289     55.77289 
  250000    326.55571   -37888.767   -37505.198    538.44212    178133.41    57.266313    55.772881    55.772881 
  251000     320.2244   -37885.355   -37509.224    710.99354    178133.41    57.266293     55.77289     55.77289 
  252000    321.91897   -37886.696   -37508.575    700.64602    178133.41    57.266234    55.772919    55.772919 
  253000    320.42654   -37885.856   -37509.488    437.98641    178133.41    57.266136    55.772967    55.772967 
  254000    321.77608   -37883.447   -37505.493    575.05806    178133.41    57.265997    55.773035    55.773035 
  255000    319.27841   -37886.235   -37511.215    597.18814    178133.41     57.26582    55.773121    55.773121 
  256000    315.51083   -37883.368   -37512.773    595.35235    178133.41    57.265603    55.773227    55.773227 
  257000    317.54655   -37880.742   -37507.756    688.06682    178133.41    57.265346    55.773352    55.773352 
  258000    320.14104   -37887.513    -37511.48    375.71225    178133.41     57.26505    55.773496    55.773496 
  259000    319.37208   -37888.964   -37513.834    441.76753    178133.41    57.264715    55.773659    55.773659 
  260000    319.32336   -37886.454    -37511.38     482.1585    178133.41     57.26434    55.773842    55.773842 
  261000    322.54558    -37892.57   -37513.712      395.669    178133.41    57.263926    55.774043    55.774043 
  262000    320.20731   -37901.287   -37525.176    101.82103    178133.41    57.263472    55.774264    55.774264 
  263000    320.15849   -37881.086   -37505.032    817.28155    178133.41    57.262979    55.774504    55.774504 
  264000    319.87234   -37882.389   -37506.671    761.28639    178133.41    57.262447    55.774764    55.774764 
  265000    324.68557   -37886.102   -37504.731    351.75864    178133.41    57.261875    55.775042    55.775042 
  266000    319.05693   -37890.241   -37515.481    339.30385    178133.41    57.261264     55.77534     55.77534 
  267000    316.50923   -37887.365   -37515.598    651.28365    178133.41    57.260614    55.775656    55.775656 
  268000    324.79084    -37888.53   -37507.035    641.32681    178133.41    57.259925    55.775992    55.775992 
  269000    323.22448   -37891.039   -37511.384    686.37943    178133.41    57.259196    55.776347    55.776347 
  270000    324.29798   -37888.351   -37507.435    455.53132    178133.41    57.258428    55.776721    55.776721 
  271000    318.09619   -37891.265   -37517.633    421.87716    178133.41    57.257621    55.777114    55.777114 
  272000    320.91988   -37884.085   -37507.137    677.17331    178133.41    57.256775    55.777526    55.777526 
  273000    319.78373   -37888.224    -37512.61    545.67842    178133.41    57.255889    55.777957    55.777957 
  274000    317.57576   -37880.231   -37507.211    705.95265    178133.41    57.254965    55.778408    55.778408 
  275000    321.36166   -37886.217   -37508.749    428.97783    178133.41    57.254002    55.778877    55.778877 
  276000    316.81304   -37892.112   -37519.988    298.51473    178133.41    57.252999    55.779365    55.779365 
  277000    319.75464   -37884.565   -37508.985    565.65151    178133.41    57.251958    55.779873    55.779873 
  278000     319.2073   -37890.145   -37515.208    310.05379    178133.41    57.250878    55.780399    55.780399 
  279000    321.24631   -37885.549   -37508.218    641.13825    178133.41    57.249758    55.780944    55.780944 
  280000    319.26571     -37891.1   -37516.095     587.6301    178133.41      57.2486    55.781508    55.781508 
  281000    321.74816   -37891.594   -37513.673    467.73855    178133.41    57.247404    55.782091    55.782091 
  282000    321.98342   -37890.341   -37512.143    524.05804    178133.41    57.246168    55.782693    55.782693 
  283000    316.63561   -37890.176    -37518.26    182.46155    178133.41    57.244894    55.783314    55.783314 
  284000    321.11743   -37883.084   -37505.904    597.96351    178133.41    57.243581    55.783954    55.783954 
  285000    320.12732   -37888.176   -37512.158    487.30043    178133.41     57.24223    55.784612    55.784612 
  286000    319.19091   -37881.787    -37506.87     717.5177    178133.41     57.24084    55.785289    55.785289 
  287000    323.15936   -37889.327   -37509.748    506.14618    178133.41    57.239412    55.785985    55.785985 
  288000    320.13832   -37891.119   -37515.089    427.19861    178133.41    57.237945      55.7867      55.7867 
  289000    318.66608   -37884.237   -37509.936    471.24805    178133.41     57.23644    55.787434    55.787434 
  290000    324.95639    -37895.84   -37514.151    343.48205    178133.41    57.234896    55.788186    55.788186 
  291000    323.86693   -37884.706   -37504.296    655.32817    178133.41    57.233315    55.788957    55.788957 
  292000    319.82855   -37889.993   -37514.327    334.43189    178133.41    57.231695    55.789746    55.789746 
  293000    320.55772   -37886.676   -37510.154    503.35998    178133.41    57.230037    55.790554    55.790554 
  294000    316.54233   -37886.257   -37514.451     475.4716    178133.41    57.228341    55.791381    55.791381 
  295000    318.25755   -37890.407   -37516.586    338.49625    178133.41    57.226607    55.792226    55.792226 
  296000    316.98197   -37891.457   -37519.134    325.37451    178133.41    57.224835     55.79309     55.79309 
  297000    316.24075   -37888.603   -37517.151    249.68564    178133.41    57.223025    55.793972    55.793972 
  298000    319.17189   -37889.621   -37514.726    528.34775    178133.41    57.221178    55.794873    55.794873 
  299000     319.5555   -37893.986   -37518.641    238.16354    178133.41    57.219293    55.795792    55.795792 
  300000    317.33571   -37889.283   -37516.544    383.23468    178133.41     57.21737     55.79673     55.79673 
  301000    323.74643   -37887.954   -37507.686    567.48762    178133.41    57.215409    55.797685    55.797685 
  302000    317.19553    -37882.26   -37509.686    451.62371    178133.41    57.213412     55.79866     55.79866 
  303000    321.25003   -37889.759   -37512.423    517.82985    178133.41    57.211376    55.799652    55.799652 
  304000    322.91685   -37893.066   -37513.772    445.12052    178133.41    57.209304    55.800663    55.800663 
  305000    318.76857    -37889.62   -37515.199    387.46369    178133.41    57.207194    55.801692    55.801692 
  306000    318.26658   -37886.021   -37512.189    252.18705    178133.41    57.205047    55.802739    55.802739 
  307000    321.65177    -37891.29   -37513.483    411.34177    178133.41    57.202863    55.803804    55.803804 
  308000    317.76217   -37891.345   -37518.106    341.77898    178133.41    57.200642    55.804887    55.804887 
  309000    317.65911   -37889.767   -37516.649    439.21183    178133.41    57.198384    55.805989    55.805989 
  310000    321.11134   -37890.457   -37513.284    593.77481    178133.41     57.19609    55.807108    55.807108 
  311000    319.28648   -37883.646   -37508.616    527.40683    178133.41    57.193758    55.808246    55.808246 
  312000    318.60774   -37883.458   -37509.225    479.52184    178133.41     57.19139    55.809401    55.809401 
  313000    320.11317   -37889.945   -37513.945    462.25225    178133.41    57.188986    55.810574    55.810574 
  314000    319.83868   -37888.872   -37513.194    522.86625    178133.41    57.186545    55.811765    55.811765 
  315000    320.21649   -37890.307   -37514.185     414.9798    178133.41    57.184068    55.812974    55.812974 
  316000    320.63358   -37884.551   -37507.939    718.22221    178133.41    57.181554    55.814201    55.814201 
  317000    319.03328   -37887.692   -37512.959    519.74952    178133.41    57.179005    55.815445    55.815445 
  318000    319.32101   -37887.075   -37512.005    443.69935    178133.41    57.176419    55.816707    55.816707 
  319000    320.79385   -37888.277   -37511.477    504.99885    178133.41    57.173798    55.817987    55.817987 
  320000    319.76274   -37889.331   -37513.742    499.64323    178133.41     57.17114    55.819284    55.819284 
  321000    323.56105   -37889.795   -37509.744    591.25127    178133.41    57.168447    55.820599    55.820599 
  322000    315.73897   -37889.774   -37518.911    340.34698    178133.41    57.165718    55.821931    55.821931 
  323000    322.50071   -37883.927   -37505.122    474.12285    178133.41    57.162954    55.823281    55.823281 
  324000    320.98163   -37893.564   -37516.543    398.03166    178133.41    57.160155    55.824648    55.824648 
  325000    315.26909   -37886.716   -37516.405    610.14955    178133.41     57.15732    55.826032    55.826032 
  326000    320.81037   -37887.943   -37511.124    481.64371    178133.41     57.15445    55.827434    55.827434 
  327000    324.35264   -37886.855   -37505.875    597.59108    178133.41    57.151545    55.828853    55.828853 
  328000    321.48625   -37891.878   -37514.265    342.69533    178133.41    57.148604    55.830289    55.830289 
  329000    324.22277   -37885.968    -37505.14    419.88961    178133.41     57.14563    55.831742    55.831742 
  330000    323.55092   -37891.629    -37511.59      329.035    178133.41     57.14262    55.833212    55.833212 
  331000    319.97192   -37893.415    -37517.58    318.78767    178133.41    57.139576      55.8347      55.8347 
  332000    319.77017   -37887.694   -37512.096    458.32568    178133.41    57.136497    55.836204    55.836204 
  333000    318.09435   -37886.621   -37512.991    637.13328    178133.41    57.133384    55.837725    55.837725 
  334000    320.05878   -37888.603   -37512.666    383.58974    178133.41    57.130237    55.839263    55.839263 
  335000    318.37884   -37889.918   -37515.954    498.79725    178133.41    57.127055    55.840818    55.840818 
  336000    317.42504   -37895.273   -37522.429    292.31511    178133.41     57.12384    55.842389    55.842389 
  337000    318.93086   -37890.485   -37515.873    450.00152    178133.41    57.120591    55.843978    55.843978 
  338000    316.21029   -37891.684   -37520.267    232.37584    178133.41    57.117308    55.845582    55.845582 
  339000    323.14866   -37888.566       -37509    269.05934    178133.41    57.113991    55.847204    55.847204 
  340000    322.68323   -37892.832   -37513.813    297.54518    178133.41    57.110641    55.848842    55.848842 
  341000     320.5785   -37897.238   -37520.691    63.748394    178133.41    57.107258    55.850496    55.850496 
  342000     315.8005   -37882.008   -37511.073    545.55741    178133.41    57.103841    55.852167    55.852167 
  343000    320.63427   -37888.611   -37511.998    502.29871    178133.41    57.100392    55.853854    55.853854 
  344000    318.28783   -37891.127    -37517.27    466.48267    178133.41    57.096909    55.855557    55.855557 
  345000    319.72078   -37892.313   -37516.773    422.28991    178133.41    57.093394    55.857277    55.857277 
  346000     321.1182   -37885.578   -37508.397    527.01025    178133.41    57.089846    55.859013    55.859013 
  347000    318.49993   -37888.503   -37514.397    509.24435    178133.41    57.086265    55.860764    55.860764 
  348000    322.27101   -37885.498   -37506.962     565.5543    178133.41    57.082652    55.862532    55.862532 
  349000    318.13179   -37887.587   -37513.914    309.35237    178133.41    57.079007    55.864316    55.864316 
  350000    319.74305   -37892.985   -37517.419    298.20008    178133.41     57.07533    55.866115    55.866115 
  351000    320.52822   -37896.202   -37519.713    406.07259    178133.41    57.071621    55.867931    55.867931 
  352000    323.99989   -37889.445   -37508.879    410.53239    178133.41     57.06788    55.869762    55.869762 
  353000     316.7222   -37885.837    -37513.82    468.90967    178133.41    57.064108    55.871608    55.871608 
  354000    324.47112   -37893.895   -37512.776    472.86948    178133.41    57.060304    55.873471    55.873471 
  355000    319.84426   -37893.187   -37517.502    491.29468    178133.41    57.056468    55.875349    55.875349 
  356000    319.52432   -37887.355   -37512.046    545.08119    178133.41    57.052602    55.877242    55.877242 
  357000    322.21702   -37887.648   -37509.176    523.40776    178133.41    57.048704    55.879151    55.879151 
  358000    317.79249   -37891.981   -37518.706    284.86043    178133.41    57.044776    55.881075    55.881075 
  359000    322.41595   -37894.752   -37516.046    444.49177    178133.41    57.040816    55.883014    55.883014 
  360000    324.57249   -37884.507   -37503.268     443.2933    178133.41    57.036826    55.884969    55.884969 
  361000    316.74684   -37893.269   -37521.222    291.96041    178133.41    57.032806    55.886938    55.886938 
  362000    319.98788   -37892.862   -37517.009    493.01596    178133.41    57.028756    55.888923    55.888923 
  363000     320.6074   -37891.129   -37514.548    513.10627    178133.41    57.024675    55.890923    55.890923 
  364000    322.79299   -37887.985   -37508.836    449.08981    178133.41    57.020565    55.892937    55.892937 
  365000     318.0083   -37893.362   -37519.834    385.33276    178133.41    57.016424    55.894967    55.894967 
  366000     319.8058   -37894.368   -37518.728    441.66318    178133.41    57.012254    55.897011    55.897011 
  367000    323.33042    -37894.45    -37514.67    528.50292    178133.41    57.008055    55.899069    55.899069 
  368000    324.22879   -37895.006   -37514.172    272.61501    178133.41    57.003826    55.901143    55.901143 
  369000    318.71243   -37896.748   -37522.393    451.42403    178133.41    56.999569     55.90323     55.90323 
  370000    321.24437   -37893.376   -37516.046    418.53237    178133.41    56.995282    55.905333    55.905333 
  371000    317.83524   -37892.581   -37519.256    228.86331    178133.41    56.990966    55.907449    55.907449 
  372000    321.27171   -37891.788   -37514.427     519.2563    178133.41    56.986622     55.90958     55.90958 
  373000    324.14292   -37897.293   -37516.559    302.52622    178133.41     56.98225    55.911725    55.911725 
  374000    318.82655   -37893.719    -37519.23     400.6674    178133.41    56.977849    55.913884    55.913884 
  375000    320.70921   -37893.601     -37516.9    308.89523    178133.41     56.97342    55.916058    55.916058 
  376000    319.69576   -37897.898   -37522.388    232.99572    178133.41    56.968963    55.918245    55.918245 
  377000    318.66195   -37893.406    -37519.11    354.62144    178133.41    56.964479    55.920446    55.920446 
  378000    318.80493    -37890.03   -37515.566     419.9188    178133.41    56.959967    55.922661    55.922661 
  379000    322.18431    -37892.87   -37514.437    722.33557    178133.41    56.955427    55.924889    55.924889 
  380000    319.19483   -37889.826   -37514.904    507.62959    178133.41     56.95086    55.927131    55.927131 
  381000    321.11316   -37895.583   -37518.408    197.67275    178133.41    56.946267    55.929387    55.929387 
  382000    317.71579   -37894.152   -37520.967    229.48129    178133.41    56.941646    55.931656    55.931656 
  383000    321.40706    -37890.95    -37513.43    313.73087    178133.41    56.936999    55.933939    55.933939 
  384000    327.08968    -37891.44   -37507.244    429.84305    178133.41    56.932325    55.936235    55.936235 
  385000    319.17409   -37890.896   -37515.998    412.74396    178133.41    56.927625    55.938544    55.938544 
  386000    318.92463   -37892.435    -37517.83    253.66317    178133.41    56.922899    55.940866    55.940866 
  387000    321.59109   -37895.599   -37517.862    614.76457    178133.41    56.918147    55.943201    55.943201 
  388000    321.13517   -37893.325   -37516.124    447.05796    178133.41    56.913369    55.945549    55.945549 
  389000    321.61429   -37892.775   -37515.011    371.81785    178133.41    56.908566     55.94791     55.94791 
  390000    321.30101   -37899.425   -37522.029    247.31623    178133.41    56.903737    55.950284    55.950284 
  391000    321.87079   -37897.387   -37519.322    36.485839    178133.41    56.898883     55.95267     55.95267 
  392000    319.02537   -37894.953    -37520.23    334.54929    178133.41    56.894005    55.955069    55.955069 
  393000    322.24435   -37890.332   -37511.828    438.24542    178133.41    56.889101    55.957481    55.957481 
  394000    322.60778   -37892.702   -37513.771    357.20519    178133.41    56.884173    55.959905    55.959905 
  395000     320.3871   -37894.693    -37518.37      375.647    178133.41     56.87922    55.962341    55.962341 
  396000     321.8374   -37897.629   -37519.603    424.46448    178133.41    56.874243    55.964789    55.964789 
  397000    320.76112   -37891.221   -37514.459    386.40443    178133.41    56.869243     55.96725     55.96725 
  398000    324.90136   -37894.792   -37513.167    384.36652    178133.41    56.864218    55.969722    55.969722 
  399000     321.9002   -37891.799   -37513.699    577.45198    178133.41     56.85917    55.972207    55.972207 
  400000    317.86192   -37894.478   -37521.122    509.10107    178133.41    56.854098    55.974703    55.974703 
  401000    320.91763   -37894.445   -37517.499    412.33084    178133.41    56.849004    55.977211    55.977211 
  402000    318.56067   -37889.798   -37515.621    421.40983    178133.41    56.843886    55.979731    55.979731 
  403000    316.77288   -37889.697    -37517.62    521.95504    178133.41    56.838745    55.982263    55.982263 
  404000    326.38032   -37894.403   -37511.041    424.46355    178133.41    56.833582    55.984806    55.984806 
  405000    319.46891   -37892.791   -37517.547    522.24592    178133.41    56.828397     55.98736     55.98736 
  406000    318.21029   -37894.192   -37520.427    302.39674    178133.41    56.823189    55.989925    55.989925 
  407000    318.25258   -37893.005    -37519.19    525.72332    178133.41    56.817959    55.992502    55.992502 
  408000    313.62943   -37894.619   -37526.234    221.84577    178133.41    56.812708     55.99509     55.99509 
  409000    315.47089   -37889.097   -37518.549    294.68441    178133.41    56.807434    55.997689    55.997689 
  410000    317.91989   -37892.385   -37518.961    319.40644    178133.41     56.80214    56.000298    56.000298 
  411000    319.50727   -37894.454   -37519.165    398.60147    178133.41    56.796824    56.002919    56.002919 
  412000    321.24848   -37898.322   -37520.987    130.18848    178133.41    56.791488     56.00555     56.00555 
  413000    313.95659    -37893.52   -37524.751     314.7298    178133.41    56.786131    56.008192    56.008192 
  414000    319.24008   -37895.553   -37520.577    388.10331    178133.41    56.780753    56.010844    56.010844 
  415000    320.27417   -37897.442   -37521.252    159.86096    178133.41    56.775355    56.013507    56.013507 
  416000    321.66429   -37896.255   -37518.432    329.68369    178133.41    56.769936     56.01618     56.01618 
  417000    315.71542   -37892.559   -37521.724    367.86921    178133.41    56.764498    56.018863    56.018863 
  418000    317.35733   -37896.568   -37523.804    412.52748    178133.41    56.759041    56.021556    56.021556 
  419000     321.0336   -37893.801   -37516.719    332.37705    178133.41    56.753563    56.024259    56.024259 
  420000    315.49896   -37901.441    -37530.86    245.52988    178133.41    56.748067    56.026972    56.026972 
  421000    319.79649   -37893.145   -37517.516    432.30613    178133.41    56.742551    56.029695    56.029695 
  422000    316.69688   -37893.864   -37521.876     381.2119    178133.41    56.737017    56.032428    56.032428 
  423000    319.18499   -37893.025   -37518.114    300.77869    178133.41    56.731464     56.03517     56.03517 
  424000    319.06229   -37895.305   -37520.538    394.07021    178133.41    56.725893    56.037921    56.037921 
  425000    320.56239   -37897.513   -37520.985    125.45418    178133.41    56.720304    56.040682    56.040682 
  426000    325.59355    -37892.69   -37510.252     402.2635    178133.41    56.714696    56.043453    56.043453 
  427000    319.69149   -37900.412   -37524.907    285.86601    178133.41    56.709071    56.046232    56.046232 
  428000    322.03105   -37891.894   -37513.641    468.24543    178133.41    56.703429    56.049021    56.049021 
  429000     322.0838   -37891.451   -37513.136    463.86439    178133.41    56.697769    56.051818    56.051818 
  430000    320.93786   -37894.799    -37517.83    388.32095    178133.41    56.692092    56.054624    56.054624 
  431000    318.09298   -37900.945   -37527.317    165.63105    178133.41    56.686399    56.057439    56.057439 
  432000    323.61405   -37898.135   -37518.022    287.30599    178133.41    56.680689    56.060263    56.060263 
  433000    317.18409   -37899.518   -37526.958    168.50567    178133.41    56.674962    56.063095    56.063095 
  434000    322.49717   -37894.701     -37515.9    301.67251    178133.41     56.66922    56.065935    56.065935 
  435000    323.11693   -37899.667   -37520.138    266.65189    178133.41    56.663461    56.068784    56.068784 
  436000    318.71953   -37894.621   -37520.257    277.64666    178133.41    56.657687    56.071641    56.071641 
  437000    319.86622   -37893.254   -37517.543    286.85931    178133.41    56.651897    56.074506    56.074506 
  438000    318.53152   -37894.859   -37520.716    366.26369    178133.41    56.646092     56.07738     56.07738 
  439000    322.54073   -37896.759   -37517.906    301.30881    178133.41    56.640272     56.08026     56.08026 
  440000    315.24258   -37893.727   -37523.447    250.63922    178133.41    56.634438    56.083149    56.083149 
  441000    325.84594   -37897.019   -37514.284    266.34444    178133.41    56.628589    56.086046    56.086046 
  442000    316.10876   -37894.427    -37523.13    364.93272    178133.41    56.622725    56.088949    56.088949 
  443000    323.85039   -37897.796   -37517.405    582.28483    178133.41    56.616848    56.091861    56.091861 
  444000    319.81114   -37897.178   -37521.532    503.36932    178133.41    56.610956    56.094779    56.094779 
  445000    317.18698   -37894.035   -37521.472    432.71041    178133.41    56.605051    56.097705    56.097705 
  446000    319.20301   -37895.382    -37520.45    445.74828    178133.41    56.599133    56.100638    56.100638 
  447000    321.23309   -37891.714   -37514.398    328.60713    178133.41    56.593201    56.103578    56.103578 
  448000    319.31098   -37899.468   -37524.409    88.203977    178133.41    56.587257    56.106525    56.106525 
  449000    320.46461   -37890.861   -37514.447    229.00691    178133.41      56.5813    56.109478    56.109478 
  450000    317.23571   -37894.488   -37521.867     456.5482    178133.41     56.57533    56.112438    56.112438 
  451000    317.82134   -37894.499   -37521.191    372.55257    178133.41    56.569348    56.115405    56.115405 
  452000     320.1475   -37895.592   -37519.551    268.76709    178133.41    56.563355    56.118378    56.118378 
  453000    321.24635   -37898.273   -37520.942    241.04361    178133.41    56.557349    56.121357    56.121357 
  454000    321.10206   -37897.311   -37520.149    274.12786    178133.41    56.551332    56.124343    56.124343 
  455000    317.73001   -37902.674   -37529.472        135.8    178133.41    56.545304    56.127334    56.127334 
  456000    318.99501   -37888.928   -37514.241    369.36748    178133.41    56.539265    56.130332    56.130332 
  457000    311.78507   -37899.649    -37533.43    197.01754    178133.41    56.533215    56.133335    56.133335 
  458000    317.15808   -37895.964   -37523.435    205.63979    178133.41    56.527155    56.136344    56.136344 
  459000    321.65212   -37896.945   -37519.136    413.91986    178133.41    56.521084    56.139359    56.139359 
  460000    316.29442    -37901.41   -37529.895    79.718652    178133.41    56.515003    56.142379    56.142379 
  461000    321.12495   -37901.275   -37524.085    274.76923    178133.41    56.508912    56.145404    56.145404 
  462000    316.79707    -37895.64   -37523.534    372.72762    178133.41    56.502812    56.148435    56.148435 
  463000    315.97795   -37892.421   -37521.278     454.5844    178133.41    56.496703    56.151471    56.151471 
  464000     317.6806   -37897.946   -37524.803    301.05829    178133.41    56.490584    56.154512    56.154512 
  465000    317.19753     -37898.2   -37525.623    379.50141    178133.41    56.484456    56.157558    56.157558 
  466000    324.43513   -37903.382   -37522.304    225.27781    178133.41     56.47832    56.160608    56.160608 
  467000    320.61324   -37899.882   -37523.294     318.8536    178133.41    56.472176    56.163663    56.163663 
  468000    317.01435   -37899.288   -37526.928    23.292872    178133.41    56.466023    56.166723    56.166723 
  469000    318.69745     -37900.1   -37525.762     95.05417    178133.41    56.459863    56.169787    56.169787 
  470000    322.87216   -37891.678   -37512.437    604.04713    178133.41    56.453695    56.172856    56.172856 
  471000    320.99437   -37896.166    -37519.13    468.90034    178133.41    56.447519    56.175929    56.175929 
  472000    321.04014   -37897.906   -37520.816    461.38855    178133.41    56.441336    56.179005    56.179005 
  473000    316.55864   -37901.692   -37529.867    450.93695    178133.41    56.435147    56.182086    56.182086 
  474000    320.16456     -37896.8   -37520.739     331.1566    178133.41     56.42895     56.18517     56.18517 
  475000    321.37044    -37896.17   -37518.693    299.42698    178133.41    56.422748    56.188259    56.188259 
  476000    315.86163   -37890.296   -37519.289     441.0508    178133.41    56.416539     56.19135     56.19135 
  477000    320.05592   -37899.982   -37524.049    149.03835    178133.41    56.410324    56.194446    56.194446 
  478000    322.01507   -37902.828   -37524.593     220.4038    178133.41    56.404103    56.197544    56.197544 
  479000    317.71221    -37902.92    -37529.74    116.31019    178133.41    56.397878    56.200646    56.200646 
  480000      321.314   -37897.463   -37520.052    260.76587    178133.41    56.391646    56.203751    56.203751 
  481000    319.13391   -37894.876   -37520.025    399.49657    178133.41     56.38541    56.206859    56.206859 
  482000    322.15673    -37899.43   -37521.029    258.16742    178133.41     56.37917     56.20997     56.20997 
  483000    320.40784   -37897.787    -37521.44    548.35605    178133.41    56.372924    56.213083    56.213083 
  484000    318.56728   -37898.413   -37524.228    155.96104    178133.41    56.366675    56.216199    56.216199 
  485000     321.6092   -37898.366   -37520.608     261.8143    178133.41    56.360422    56.219318    56.219318 
  486000    321.85414   -37892.558   -37514.512    352.30657    178133.41    56.354164    56.222439    56.222439 
  487000    321.62202   -37897.828   -37520.055    545.12614    178133.41    56.347904    56.225562    56.225562 
  488000    320.49811   -37894.338   -37517.885    375.03882    178133.41     56.34164    56.228688    56.228688 
  489000    313.70665   -37890.088   -37521.612    554.44183    178133.41    56.335373    56.231815    56.231815 
  490000    318.27339   -37903.676   -37529.836    167.38416    178133.41    56.329104    56.234944    56.234944 
  491000     320.1233   -37899.644   -37523.631    284.42874    178133.41    56.322832    56.238075    56.238075 
  492000    318.24794   -37896.671   -37522.861    394.38097    178133.41    56.316558    56.241208    56.241208 
  493000    318.80709   -37898.245   -37523.778    210.03328    178133.41    56.310281    56.244342    56.244342 
  494000    319.22278   -37891.583   -37516.628    394.22844    178133.41    56.304003    56.247478    56.247478 
  495000    322.11641   -37897.841   -37519.487    209.78011    178133.41    56.297724    56.250614    56.250614 
  496000    320.13693    -37896.75   -37520.721    227.00548    178133.41    56.291443    56.253752    56.253752 
  497000    324.38422   -37897.713   -37516.696    362.81977    178133.41    56.285162    56.256891    56.256891 
  498000    316.34595    -37899.48   -37527.904    130.72662    178133.41    56.278879    56.260031    56.260031 
  499000    322.05765   -37895.735    -37517.45     330.1447    178133.41    56.272596    56.263172    56.263172 
  500000    320.35796   -37898.916   -37522.628    182.36813    178133.41    56.266313    56.266313    56.266313 
  501000    317.96713   -37895.735   -37522.255     659.7835    178133.41     56.26003    56.269455    56.269455 
  502000    314.55673    -37903.98   -37534.506   -102.99696    178133.41    56.253747    56.272597    56.272597 
  503000    320.54079   -37894.187   -37517.684    449.41689    178133.41    56.247465     56.27574     56.27574 
  504000    319.33986   -37898.199   -37523.107     88.48476    178133.41    56.241183    56.278882    56.278882 
  505000    317.00287   -37900.593   -37528.245    276.80609    178133.41    56.234902    56.282025    56.282025 
  506000    319.49985   -37899.853   -37524.573    338.89199    178133.41    56.228623    56.285168    56.285168 
  507000    317.12587    -37899.07   -37526.578    270.25324    178133.41    56.222345     56.28831     56.28831 
  508000    316.15608   -37887.387   -37516.034    610.15366    178133.41    56.216069    56.291452    56.291452 
  509000    317.62811   -37894.153   -37521.071    301.00185    178133.41    56.209795    56.294594    56.294594 
  510000    323.46964   -37905.768   -37525.825    247.88165    178133.41    56.203523    56.297735    56.297735 
  511000    325.91953   -37891.693   -37508.873    440.77757    178133.41    56.197253    56.300875    56.300875 
  512000    315.96195   -37896.269   -37525.145    471.20261    178133.41    56.190986    56.304014    56.304014 
  513000     325.0766   -37895.876   -37514.045    413.43598    178133.41    56.184723    56.307153    56.307153 
  514000     322.5057   -37894.021    -37515.21    275.08637    178133.41    56.178462     56.31029     56.31029 
  515000    317.60253   -37904.964   -37531.912     24.09288    178133.41    56.172205    56.313426    56.313426 
  516000    316.51039   -37896.496   -37524.727    222.78495    178133.41    56.165951    56.316561    56.316561 
  517000     319.6698   -37896.776   -37521.296    263.07872    178133.41    56.159702    56.319695    56.319695 
  518000    316.84234   -37896.249   -37524.091    322.75912    178133.41    56.153457    56.322826    56.322826 
  519000      318.304   -37896.406   -37522.531     417.1692    178133.41    56.147216    56.325956    56.325956 
  520000    317.45696   -37898.193   -37525.312    307.71729    178133.41     56.14098    56.329085    56.329085 
  521000    321.31981   -37899.481   -37522.063     374.9738    178133.41    56.134749    56.332211    56.332211 
  522000    319.49585   -37892.175   -37516.899    673.59384    178133.41    56.128523    56.335335    56.335335 
  523000    315.95573   -37901.156   -37530.038    230.52178    178133.41    56.122302    56.338457    56.338457 
  524000    315.79718    -37896.99   -37526.059    174.78596    178133.41    56.116088    56.341577    56.341577 
  525000    323.00961   -37895.871   -37516.468    512.87587    178133.41    56.109879    56.344694    56.344694 
  526000    317.27674   -37889.002   -37516.333    382.05454    178133.41    56.103676    56.347808    56.347808 
  527000    319.61294   -37903.782   -37528.369     49.12612    178133.41     56.09748     56.35092     56.35092 
  528000    317.36215   -37898.959   -37526.189    340.48412    178133.41     56.09129    56.354029    56.354029 
  529000    320.46012   -37901.305   -37524.897     126.2194    178133.41    56.085107    56.357136    56.357136 
  530000    317.65958    -37900.63   -37527.511    273.52206    178133.41    56.078932    56.360239    56.360239 
  531000     318.7405   -37901.571   -37527.183    163.60128    178133.41    56.072764    56.363338    56.363338 
  532000    326.37089   -37895.942   -37512.591    477.08111    178133.41    56.066603    56.366435    56.366435 
  533000    318.95691   -37900.733    -37526.09    129.98196    178133.41    56.060451    56.369528    56.369528 
  534000    318.64881   -37898.409   -37524.128    149.22339    178133.41    56.054306    56.372617    56.372617 
  535000    320.24629   -37899.496   -37523.338    383.53581    178133.41     56.04817    56.375703    56.375703 
  536000    319.68611   -37888.439    -37512.94    751.52177    178133.41    56.042042    56.378785    56.378785 
  537000    320.54403   -37893.713   -37517.206    315.12557    178133.41    56.035924    56.381863    56.381863 
  538000    322.41352   -37898.602     -37519.9    284.16715    178133.41    56.029814    56.384937    56.384937 
  539000    324.39322   -37898.001   -37516.973    321.39444    178133.41    56.023714    56.388006    56.388006 
  540000    326.87842    -37897.55   -37513.603    384.62236    178133.41    56.017623    56.391072    56.391072 
  541000    317.82083   -37896.693   -37523.385    389.57326    178133.41    56.011542    56.394133    56.394133 
  542000    315.56702       -37901   -37530.339    186.56621    178133.41    56.005472    56.397189    56.397189 
  543000    320.77306   -37896.148   -37519.372    192.24805    178133.41    55.999411    56.400241    56.400241 
  544000    320.86396   -37896.681   -37519.798    435.92825    178133.41    55.993361    56.403288    56.403288 
  545000    321.94768   -37894.164   -37516.008    466.31298    178133.41    55.987322     56.40633     56.40633 
  546000    316.88858   -37896.232   -37524.019    217.39186    178133.41    55.981294    56.409367    56.409367 
  547000    317.80777   -37893.817   -37520.525    511.23491    178133.41    55.975277    56.412398    56.412398 
  548000    319.31858   -37893.728   -37518.661    473.13275    178133.41    55.969272    56.415425    56.415425 
  549000    322.57404   -37891.417   -37512.526    459.60557    178133.41    55.963278    56.418446    56.418446 
  550000    316.83978   -37893.393   -37521.237    271.95099    178133.41    55.957296    56.421461    56.421461 
  551000    320.83602   -37889.227   -37512.377    400.14659    178133.41    55.951327    56.424471    56.424471 
  552000    322.23892    -37892.87   -37514.372    429.74982    178133.41     55.94537    56.427475    56.427475 
  553000    320.86179   -37898.034   -37521.154     273.9886    178133.41    55.939425    56.430473    56.430473 
  554000    317.90506   -37894.891   -37521.484    370.48041    178133.41    55.933494    56.433465    56.433465 
  555000    318.82748   -37897.344   -37522.854    236.41005    178133.41    55.927575    56.436451    56.436451 
  556000    319.45306   -37902.351   -37527.126    53.624144    178133.41     55.92167     56.43943     56.43943 
  557000    316.43911   -37895.594   -37523.908    531.30539    178133.41    55.915779    56.442404    56.442404 
  558000     316.1277   -37898.035   -37526.716    305.74648    178133.41    55.909901     56.44537     56.44537 
  559000    318.65908   -37896.517   -37522.224    315.01058    178133.41    55.904038     56.44833     56.44833 
  560000    316.43465   -37899.593   -37527.913    172.15676    178133.41    55.898189    56.451284    56.451284 
  561000    320.70134   -37896.061   -37519.369    380.95482    178133.41    55.892354     56.45423     56.45423 
  562000    325.75151   -37894.974   -37512.351    332.09434    178133.41    55.886534    56.457169    56.457169 
  563000    316.59412   -37893.476   -37521.608    312.48165    178133.41    55.880729    56.460102    56.460102 
  564000    319.86645   -37894.933   -37519.222    372.39854    178133.41     55.87494    56.463027    56.463027 
  565000    318.89267    -37898.81   -37524.243    179.31926    178133.41    55.869165    56.465945    56.465945 
  566000    320.77377   -37890.411   -37513.634    481.30975    178133.41    55.863407    56.468855    56.468855 
  567000    316.42462   -37894.497   -37522.829    263.52784    178133.41    55.857664    56.471757    56.471757 
  568000    319.12856   -37893.143   -37518.299    539.74831    178133.41    55.851938    56.474652    56.474652 
  569000    316.23095   -37889.821   -37518.381    490.06903    178133.41    55.846227     56.47754     56.47754 
  570000    322.02336    -37899.31   -37521.065    452.37815    178133.41    55.840534    56.480419    56.480419 
  571000    325.01519   -37888.648    -37506.89    763.78352    178133.41    55.834857     56.48329     56.48329 
  572000    322.85272   -37900.811   -37521.592    280.96773    178133.41    55.829197    56.486153    56.486153 
  573000    322.56663   -37898.894   -37520.011    321.27808    178133.41    55.823555    56.489007    56.489007 
  574000    320.10575   -37892.518   -37516.526    414.22917    178133.41     55.81793    56.491854    56.491854 
  575000    322.42598   -37895.427    -37516.71    338.17943    178133.41    55.812323    56.494691    56.494691 
  576000    314.15332    -37895.14    -37526.14    324.85425    178133.41    55.806733     56.49752     56.49752 
  577000    317.47015   -37893.565   -37520.668    584.30268    178133.41    55.801162    56.500341    56.500341 
  578000    326.03388   -37893.421   -37510.466    374.41782    178133.41    55.795609    56.503152    56.503152 
  579000    320.33599   -37896.525   -37520.263    212.01712    178133.41    55.790075    56.505955    56.505955 
  580000    315.85853   -37894.138   -37523.135    567.98665    178133.41     55.78456    56.508748    56.508748 
  581000    320.34597   -37895.027   -37518.753    368.36862    178133.41    55.779063    56.511532    56.511532 
  582000    323.76685   -37894.898   -37514.606    471.23233    178133.41    55.773586    56.514307    56.514307 
  583000    319.91919   -37898.341   -37522.568    319.53177    178133.41    55.768128    56.517072    56.517072 
  584000    318.80409   -37896.771   -37522.308    225.22409    178133.41     55.76269    56.519828    56.519828 
  585000    317.67001   -37897.534   -37524.403    248.71778    178133.41    55.757272    56.522574    56.522574 
  586000    322.98962   -37897.815   -37518.436    306.48169    178133.41    55.751874     56.52531     56.52531 
  587000    317.97816   -37895.584   -37522.091     273.9375    178133.41    55.746496    56.528037    56.528037 
  588000    315.75592    -37896.62   -37525.737    264.48894    178133.41    55.741139    56.530753    56.530753 
  589000    321.39576    -37901.41   -37523.903    161.67045    178133.41    55.735802    56.533459    56.533459 
  590000    320.80113   -37895.502   -37518.693    522.78861    178133.41    55.730486    56.536155    56.536155 
  591000    322.82404   -37892.449   -37513.264    354.83382    178133.41    55.725192    56.538841    56.538841 
  592000    325.71085    -37891.41   -37508.835    553.81474    178133.41    55.719919    56.541516    56.541516 
  593000    321.15695   -37893.385   -37516.158    475.85046    178133.41    55.714667    56.544181    56.544181 
  594000    316.22005   -37890.222   -37518.794    603.47195    178133.41    55.709438    56.546835    56.546835 
  595000    322.03934   -37892.416   -37514.152    460.87635    178133.41     55.70423    56.549478    56.549478 
  596000    320.27184   -37890.745   -37514.558    449.12731    178133.41    55.699044    56.552111    56.552111 
  597000    315.78856    -37889.93   -37519.009    419.84691    178133.41    55.693881    56.554732    56.554732 
  598000    323.13812     -37900.6   -37521.046    167.62792    178133.41     55.68874    56.557342    56.557342 
  599000    320.48811   -37886.839   -37510.398    468.69424    178133.41    55.683623    56.559941    56.559941 
  600000    317.80076   -37896.925    -37523.64    321.18189    178133.41    55.678528    56.562529    56.562529 
  601000    322.53836   -37894.304   -37515.455    585.32826    178133.41    55.673456    56.565105    56.565105 
  602000    323.74239   -37897.214   -37516.951    312.02279    178133.41    55.668408     56.56767     56.56767 
  603000    319.51217   -37890.318   -37515.023    482.05578    178133.41    55.663384    56.570223    56.570223 
  604000    324.53917    -37898.94    -37517.74    220.38546    178133.41    55.658383    56.572764    56.572764 
  605000     314.9075   -37891.833   -37521.947    515.38069    178133.41    55.653406    56.575293    56.575293 
  606000    314.67087   -37890.706   -37521.098    375.63373    178133.41    55.648454    56.577811    56.577811 
  607000    316.93287   -37894.713   -37522.448    303.86055    178133.41    55.643525    56.580316    56.580316 
  608000    316.80705    -37888.84   -37516.723    520.83526    178133.41    55.638622    56.582809    56.582809 
  609000    321.66478   -37891.319   -37513.495    530.86101    178133.41    55.633743     56.58529     56.58529 
  610000    317.48014   -37888.667   -37515.759    604.66322    178133.41    55.628889    56.587759    56.587759 
  611000    320.89701   -37898.127   -37521.205    341.74017    178133.41    55.624061    56.590215    56.590215 
  612000      322.109   -37888.971   -37510.626    454.78377    178133.41    55.619257    56.592659    56.592659 
  613000    321.38146   -37885.792   -37508.301    750.91937    178133.41    55.614479    56.595089    56.595089 
  614000    317.02488   -37890.577   -37518.204     486.0781    178133.41    55.609727    56.597508    56.597508 
  615000    318.23161   -37893.242   -37519.451    456.15263    178133.41    55.605001    56.599913    56.599913 
  616000    316.58631   -37896.776   -37524.918    232.08005    178133.41    55.600301    56.602305    56.602305 
  617000     319.6642   -37891.517   -37516.044    480.41295    178133.41    55.595628    56.604684    56.604684 
  618000    321.56602   -37887.126   -37509.419    611.44768    178133.41     55.59098     56.60705     56.60705 
  619000    323.65657    -37888.93   -37508.767    613.32776    178133.41     55.58636    56.609403    56.609403 
  620000    318.62696   -37885.495    -37511.24    682.18162    178133.41    55.581766    56.611742    56.611742 
  621000    316.86073    -37884.34   -37512.159    638.35652    178133.41    55.577199    56.614068    56.614068 
  622000     318.7724   -37895.449   -37521.024    405.45622    178133.41     55.57266     56.61638     56.61638 
  623000    322.28695   -37891.387   -37512.833     558.6881    178133.41    55.568148    56.618678    56.618678 
  624000    325.97982   -37885.154   -37502.263    614.99597    178133.41    55.563663    56.620963    56.620963 
  625000    322.26938   -37886.195   -37507.661    545.78192    178133.41    55.559206    56.623234    56.623234 
  626000    323.75363   -37891.307    -37511.03    350.14026    178133.41    55.554778    56.625491    56.625491 
  627000    321.51901   -37895.036   -37517.384    446.84645    178133.41    55.550377    56.627734    56.627734 
  628000    320.82213   -37889.337   -37512.503    545.14377    178133.41    55.546004    56.629963    56.629963 
  629000    319.16876   -37896.152    -37521.26    532.35169    178133.41     55.54166    56.632178    56.632178 
  630000    315.95947   -37889.789   -37518.667    552.70628    178133.41    55.537345    56.634378    56.634378 
  631000    318.47437   -37895.791   -37521.715    329.36081    178133.41    55.533058    56.636564    56.636564 
  632000    325.06378   -37890.434   -37508.618    506.01187    178133.41      55.5288    56.638735    56.638735 
  633000    317.90586   -37895.537   -37522.129    399.61863    178133.41    55.524571    56.640892    56.640892 
  634000    319.64445   -37899.142   -37523.692    354.27023    178133.41    55.520372    56.643034    56.643034 
  635000    318.69066   -37885.808   -37511.478    572.53823    178133.41    55.516202    56.645161    56.645161 
  636000    313.36304   -37887.059   -37518.987    663.41995    178133.41    55.512062    56.647273    56.647273 
  637000    320.99649   -37889.679    -37512.64    407.40824    178133.41    55.507951    56.649371    56.649371 
  638000    318.50875   -37892.518   -37518.402    499.40914    178133.41    55.503871    56.651453    56.651453 
  639000    324.37916   -37892.008   -37510.997    579.03947    178133.41     55.49982     56.65352     56.65352 
  640000    319.58901   -37888.649   -37513.264    569.10242    178133.41      55.4958    56.655572    56.655572 
  641000    319.75422   -37895.724   -37520.145    398.32937    178133.41     55.49181    56.657609    56.657609 
  642000    319.54434   -37890.603    -37515.27     483.2549    178133.41    55.487851     56.65963     56.65963 
  643000    322.32521   -37893.228   -37514.629     555.8718    178133.41    55.483922    56.661636    56.661636 
  644000    321.61496   -37894.842   -37517.077    352.64525    178133.41    55.480025    56.663626    56.663626 
  645000    322.74825   -37890.383   -37511.288    391.73897    178133.41    55.476158    56.665601    56.665601 
  646000    324.70883   -37888.027   -37506.628    545.85334    178133.41    55.472323     56.66756     56.66756 
  647000    319.37354   -37889.692    -37514.56    527.57238    178133.41    55.468519    56.669503    56.669503 
  648000    319.58509   -37892.349   -37516.968    393.95109    178133.41    55.464746     56.67143     56.67143 
  649000    318.65246    -37890.88   -37516.595    483.83146    178133.41    55.461005    56.673342    56.673342 
  650000    328.53779    -37889.17   -37503.274    669.62208    178133.41    55.457296    56.675237    56.675237 
  651000    316.33058   -37886.136   -37514.579    574.61473    178133.41    55.453619    56.677116    56.677116 
  652000    322.96028   -37886.883   -37507.538    584.47487    178133.41    55.449974    56.678979    56.678979 
  653000    321.06657   -37890.541    -37513.42    586.36585    178133.41    55.446361    56.680825    56.680825 
  654000    321.84647   -37884.901   -37506.864    785.27764    178133.41    55.442781    56.682655    56.682655 
  655000    324.10017    -37886.53   -37505.846    453.84021    178133.41    55.439233    56.684469    56.684469 
  656000    320.79269   -37887.055   -37510.256    615.27487    178133.41    55.435717    56.686266    56.686266 
  657000    320.03867   -37885.771   -37509.858    718.61642    178133.41    55.432235    56.688047    56.688047 
  658000      321.601   -37886.869   -37509.121    578.49684    178133.41    55.428785    56.689811    56.689811 
  659000    322.72741   -37883.992   -37504.921    681.52333    178133.41    55.425369    56.691558    56.691558 
  660000    320.13918    -37883.35   -37507.319    474.21411    178133.41    55.421985    56.693289    56.693289 
  661000    318.65842   -37890.586   -37516.294    516.06918    178133.41    55.418635    56.695002    56.695002 
  662000    321.33432   -37893.301   -37515.865     467.5919    178133.41    55.415319    56.696699    56.696699 
  663000    323.20569   -37886.114   -37506.481    596.42586    178133.41    55.412036    56.698378    56.698378 
  664000    318.63563   -37879.031   -37504.766    657.94418    178133.41    55.408787    56.700041    56.700041 
  665000    316.84088   -37888.481   -37516.323     591.6889    178133.41    55.405571    56.701686    56.701686 
  666000    323.62853    -37881.96    -37501.83    785.77274    178133.41     55.40239    56.703314    56.703314 
  667000    317.07686    -37883.65   -37511.215     629.7268    178133.41    55.399242    56.704924    56.704924 
  668000     323.2714   -37895.747   -37516.037    311.47256    178133.41    55.396129    56.706518    56.706518 
  669000    321.32839   -37884.312   -37506.884    657.01181    178133.41    55.393051    56.708094    56.708094 
  670000    315.73893   -37886.786   -37515.924    474.87927    178133.41    55.390007    56.709652    56.709652 
  671000    321.79922   -37885.486   -37507.505    854.70905    178133.41    55.386997    56.711193    56.711193 
  672000    320.07032   -37885.418   -37509.467    661.30689    178133.41    55.384022    56.712716    56.712716 
  673000    315.73526   -37892.463   -37521.605    227.90599    178133.41    55.381082    56.714221    56.714221 
  674000    321.98683   -37884.103   -37505.902    507.29738    178133.41    55.378177    56.715709    56.715709 
  675000    320.71417   -37884.928   -37508.221    650.95287    178133.41    55.375307    56.717178    56.717178 
  676000    315.04046   -37882.287   -37512.245    744.15651    178133.41    55.372472     56.71863     56.71863 
  677000    324.62668   -37889.536   -37508.234    438.56348    178133.41    55.369672    56.720064    56.720064 
  678000     319.5683    -37883.93   -37508.569    611.79894    178133.41    55.366908     56.72148     56.72148 
  679000    320.15856   -37888.681   -37512.627    559.31138    178133.41    55.364179    56.722878    56.722878 
  680000    318.13296   -37886.309   -37512.634    589.36765    178133.41    55.361486    56.724257    56.724257 
  681000    320.83933   -37885.034    -37508.18     555.1881    178133.41    55.358829    56.725619    56.725619 
  682000     319.1236   -37884.865   -37510.026    573.72421    178133.41    55.356207    56.726962    56.726962 
[...]
 9838000    320.40285   -37886.404   -37510.063    661.41333    178133.41    55.415319    56.696699    56.696699 
 9839000     316.4995   -37889.984   -37518.227    337.63766    178133.41    55.418635    56.695002    56.695002 
 9840000    318.58731   -37896.402   -37522.193    371.63606    178133.41    55.421985    56.693289    56.693289 
 9841000    319.05609   -37884.488   -37509.729    611.54969    178133.41    55.425369    56.691558    56.691558 
 9842000    316.90963   -37888.072   -37515.835    513.09417    178133.41    55.428785    56.689811    56.689811 
 9843000    315.69442   -37887.766   -37516.956    613.45294    178133.41    55.432235    56.688047    56.688047 
 9844000    321.43903   -37885.291   -37507.733    627.63398    178133.41    55.435717    56.686266    56.686266 
 9845000    321.06952   -37889.999   -37512.875     460.0191    178133.41    55.439233    56.684469    56.684469 
 9846000    322.36765   -37894.401   -37515.752    456.39362    178133.41    55.442781    56.682655    56.682655 
 9847000    321.76907   -37885.661   -37507.716     750.1941    178133.41    55.446361    56.680825    56.680825 
 9848000    315.10273   -37885.547   -37515.432    751.15273    178133.41    55.449974    56.678979    56.678979 
 9849000     316.2444   -37887.337    -37515.88     475.4494    178133.41    55.453619    56.677116    56.677116 
 9850000    323.53267    -37888.77   -37508.752    543.48174    178133.41    55.457296    56.675237    56.675237 
 9851000    314.86724   -37885.867   -37516.028     528.3034    178133.41    55.461005    56.673342    56.673342 
 9852000    317.41914   -37884.011   -37511.175    646.93441    178133.41    55.464746     56.67143     56.67143 
 9853000    322.10557   -37885.813   -37507.472    611.94474    178133.41    55.468519    56.669503    56.669503 
 9854000    320.97104   -37887.936   -37510.927    616.75278    178133.41    55.472323     56.66756     56.66756 
 9855000    318.14088   -37889.076   -37515.392    616.13541    178133.41    55.476158    56.665601    56.665601 
 9856000     318.9724   -37895.276   -37520.615     375.6439    178133.41    55.480025    56.663626    56.663626 
 9857000    320.51257   -37893.849   -37517.379    412.73367    178133.41    55.483922    56.661636    56.661636 
 9858000    318.54225     -37891.1   -37516.945    514.55647    178133.41    55.487851     56.65963     56.65963 
 9859000    319.88951   -37890.266   -37514.528     441.0563    178133.41     55.49181    56.657609    56.657609 
 9860000    317.46893   -37888.698   -37515.803    384.59949    178133.41      55.4958    56.655572    56.655572 
 9861000    321.95144   -37892.121   -37513.961    254.53247    178133.41     55.49982     56.65352     56.65352 
 9862000    319.31703   -37886.007   -37510.941    677.73382    178133.41    55.503871    56.651453    56.651453 
 9863000    318.39219   -37890.281   -37516.302    388.93296    178133.41    55.507951    56.649371    56.649371 
 9864000    322.00131   -37888.384   -37510.166    564.51449    178133.41    55.512062    56.647273    56.647273 
 9865000    318.44842     -37885.4   -37511.355    604.36816    178133.41    55.516202    56.645161    56.645161 
 9866000    320.43793    -37889.73   -37513.348     590.5536    178133.41    55.520372    56.643034    56.643034 
 9867000    321.24394    -37894.55   -37517.221    461.98918    178133.41    55.524571    56.640892    56.640892 
 9868000    321.86782   -37884.912    -37506.85    481.69592    178133.41      55.5288    56.638735    56.638735 
 9869000    325.75676   -37892.199    -37509.57    591.22189    178133.41    55.533058    56.636564    56.636564 
 9870000    321.64568   -37887.803   -37510.002    542.18793    178133.41    55.537345    56.634378    56.634378 
 9871000    319.60114   -37889.251   -37513.852    263.65095    178133.41     55.54166    56.632178    56.632178 
 9872000    321.19259   -37890.499   -37513.231    390.86257    178133.41    55.546004    56.629963    56.629963 
 9873000    318.90228   -37891.068   -37516.489    438.29654    178133.41    55.550377    56.627734    56.627734 
 9874000    322.76584   -37886.617   -37507.501    506.70505    178133.41    55.554778    56.625491    56.625491 
 9875000    317.19981   -37897.083   -37524.504    185.29449    178133.41    55.559206    56.623234    56.623234 
 9876000    316.57734   -37887.557   -37515.709    672.61491    178133.41    55.563663    56.620963    56.620963 
 9877000    318.12572   -37889.724   -37516.058    508.54053    178133.41    55.568148    56.618678    56.618678 
 9878000    322.27659   -37892.907   -37514.365    366.12957    178133.41     55.57266     56.61638     56.61638 
 9879000    322.65704   -37892.745   -37513.756    309.31075    178133.41    55.577199    56.614068    56.614068 
 9880000    317.33127   -37889.052   -37516.319    356.16157    178133.41    55.581766    56.611742    56.611742 
 9881000    320.93901   -37887.271     -37510.3    404.33607    178133.41     55.58636    56.609403    56.609403 
 9882000    317.63155   -37890.725   -37517.639    328.42017    178133.41     55.59098     56.60705     56.60705 
 9883000    318.48492   -37897.617   -37523.529    224.94333    178133.41    55.595628    56.604684    56.604684 
 9884000    322.69531   -37888.913   -37509.879    776.38145    178133.41    55.600301    56.602305    56.602305 
 9885000    316.80775   -37890.849   -37518.731     360.7489    178133.41    55.605001    56.599913    56.599913 
 9886000    321.06262    -37890.87   -37513.754     536.8801    178133.41    55.609727    56.597508    56.597508 
 9887000    324.02085   -37891.456   -37510.866    506.06245    178133.41    55.614479    56.595089    56.595089 
 9888000    318.17623   -37888.923   -37515.197    525.03352    178133.41    55.619257    56.592659    56.592659 
 9889000    319.60666    -37891.99   -37516.584    317.45197    178133.41    55.624061    56.590215    56.590215 
 9890000    319.59736   -37889.764   -37514.369    450.04963    178133.41    55.628889    56.587759    56.587759 
 9891000    315.87739   -37897.807   -37526.781    256.54756    178133.41    55.633743     56.58529     56.58529 
 9892000    320.00433   -37891.467   -37515.594    429.52775    178133.41    55.638622    56.582809    56.582809 
 9893000    317.69961   -37892.217   -37519.051    510.22454    178133.41    55.643525    56.580316    56.580316 
 9894000    320.20198   -37889.484   -37513.379    435.86095    178133.41    55.648454    56.577811    56.577811 
 9895000     321.1369   -37891.726   -37514.523    283.99367    178133.41    55.653406    56.575293    56.575293 
 9896000    316.48089   -37896.306   -37524.572    188.49995    178133.41    55.658383    56.572764    56.572764 
 9897000    319.68264    -37896.26   -37520.765    342.45888    178133.41    55.663384    56.570223    56.570223 
 9898000    322.25923   -37894.516   -37515.995    279.53428    178133.41    55.668408     56.56767     56.56767 
 9899000    320.07753   -37889.518   -37513.559    480.53736    178133.41    55.673456    56.565105    56.565105 
 9900000    318.75715   -37894.702   -37520.294    248.14907    178133.41    55.678528    56.562529    56.562529 
 9901000    323.72025   -37892.766   -37512.529    385.25789    178133.41    55.683623    56.559941    56.559941 
 9902000    321.46835   -37887.962    -37510.37    430.95177    178133.41     55.68874    56.557342    56.557342 
 9903000    321.08695   -37888.586   -37511.441    426.89448    178133.41    55.693881    56.554732    56.554732 
 9904000    318.87802   -37895.192   -37520.642    416.74176    178133.41    55.699044    56.552111    56.552111 
 9905000    320.36778   -37893.419   -37517.119    409.24819    178133.41     55.70423    56.549478    56.549478 
 9906000    316.99455   -37902.002   -37529.665    95.309472    178133.41    55.709438    56.546835    56.546835 
 9907000    314.28498   -37894.796   -37525.641    136.07563    178133.41    55.714667    56.544181    56.544181 
 9908000    324.86727   -37901.758   -37520.173    160.52583    178133.41    55.719919    56.541516    56.541516 
 9909000     318.6958    -37892.71   -37518.374    421.79418    178133.41    55.725192    56.538841    56.538841 
 9910000    316.03826   -37890.861   -37519.646    413.55681    178133.41    55.730486    56.536155    56.536155 
 9911000    319.03828   -37897.867   -37523.129    299.34783    178133.41    55.735802    56.533459    56.533459 
 9912000    329.66885   -37885.151   -37497.926    768.81228    178133.41    55.741139    56.530753    56.530753 
 9913000     318.7428    -37893.01   -37518.619    368.33104    178133.41    55.746496    56.528037    56.528037 
 9914000    322.46218   -37892.899   -37514.139    447.13972    178133.41    55.751874     56.52531     56.52531 
 9915000    320.15697   -37889.482    -37513.43    446.21112    178133.41    55.757272    56.522574    56.522574 
 9916000    318.00771     -37894.5   -37520.973    358.97456    178133.41     55.76269    56.519828    56.519828 
 9917000    320.30332   -37885.263   -37509.039    530.59678    178133.41    55.768128    56.517072    56.517072 
 9918000    317.52535   -37894.182   -37521.221    371.67456    178133.41    55.773586    56.514307    56.514307 
 9919000    317.78104   -37893.116   -37519.855    340.99116    178133.41    55.779063    56.511532    56.511532 
 9920000    319.09115   -37893.179   -37518.379    384.75924    178133.41     55.78456    56.508748    56.508748 
 9921000    321.27949   -37894.703   -37517.332    263.83414    178133.41    55.790075    56.505955    56.505955 
 9922000    321.31589   -37902.318   -37524.905    87.709852    178133.41    55.795609    56.503152    56.503152 
 9923000    313.02116   -37893.697   -37526.026     419.7794    178133.41    55.801162    56.500341    56.500341 
 9924000    323.30857   -37899.969   -37520.215    242.14715    178133.41    55.806733     56.49752     56.49752 
 9925000     316.6399    -37895.44   -37523.519    267.27922    178133.41    55.812323    56.494691    56.494691 
 9926000    314.15921   -37896.289   -37527.281    391.63259    178133.41     55.81793    56.491854    56.491854 
 9927000    320.42577   -37894.303   -37517.935    436.17501    178133.41    55.823555    56.489007    56.489007 
 9928000    316.74489    -37898.95   -37526.906    332.68554    178133.41    55.829197    56.486153    56.486153 
 9929000    317.50754   -37901.406   -37528.466    300.99133    178133.41    55.834857     56.48329     56.48329 
 9930000    322.33413   -37893.338   -37514.728    431.39976    178133.41    55.840534    56.480419    56.480419 
 9931000    317.24034   -37899.161   -37526.535    100.72528    178133.41    55.846227     56.47754     56.47754 
 9932000     315.7073   -37893.356   -37522.531    411.30966    178133.41    55.851938    56.474652    56.474652 
 9933000    317.05739   -37897.485   -37525.074    138.72295    178133.41    55.857664    56.471757    56.471757 
 9934000    324.20996   -37896.466   -37515.653    247.87037    178133.41    55.863407    56.468855    56.468855 
 9935000    315.23543   -37887.982   -37517.711     467.2621    178133.41    55.869165    56.465945    56.465945 
 9936000    316.13171   -37898.021   -37526.696    230.30839    178133.41     55.87494    56.463027    56.463027 
 9937000    322.90124   -37901.952   -37522.676    325.23706    178133.41    55.880729    56.460102    56.460102 
 9938000    321.05452   -37897.039   -37519.933    351.14563    178133.41    55.886534    56.457169    56.457169 
 9939000    323.20005   -37893.836    -37514.21    381.97585    178133.41    55.892354     56.45423     56.45423 
 9940000    318.10586   -37892.776   -37519.133    379.01926    178133.41    55.898189    56.451284    56.451284 
 9941000    321.16524   -37899.248   -37522.011   -22.530566    178133.41    55.904038     56.44833     56.44833 
 9942000    320.70236   -37899.608   -37522.915    278.68588    178133.41    55.909901     56.44537     56.44537 
 9943000    326.65159   -37896.135   -37512.454    350.26487    178133.41    55.915779    56.442404    56.442404 
 9944000    321.04138   -37895.543   -37518.452    243.89715    178133.41     55.92167     56.43943     56.43943 
 9945000    317.44464   -37901.518   -37528.652    23.079373    178133.41    55.927575    56.436451    56.436451 
 9946000    318.02348   -37896.176    -37522.63    374.21348    178133.41    55.933494    56.433465    56.433465 
 9947000    325.78243   -37895.975   -37513.315    442.55888    178133.41    55.939425    56.430473    56.430473 
 9948000    327.70283   -37899.715   -37514.799    480.94096    178133.41     55.94537    56.427475    56.427475 
 9949000    325.58779   -37899.527   -37517.096    140.94478    178133.41    55.951327    56.424471    56.424471 
 9950000    321.67718   -37899.933   -37522.095    245.90817    178133.41    55.957296    56.421461    56.421461 
 9951000    322.90699   -37895.325   -37516.042    449.05605    178133.41    55.963278    56.418446    56.418446 
 9952000    320.43523   -37898.624   -37522.245    435.09221    178133.41    55.969272    56.415425    56.415425 
 9953000    319.44433   -37899.739   -37524.523    330.11571    178133.41    55.975277    56.412398    56.412398 
 9954000     315.9818   -37893.419   -37522.271    426.05496    178133.41    55.981294    56.409367    56.409367 
 9955000    318.14895   -37895.065   -37521.371    362.31054    178133.41    55.987322     56.40633     56.40633 
 9956000    319.53959   -37898.337    -37523.01    267.10921    178133.41    55.993361    56.403288    56.403288 
 9957000    315.80434   -37893.417   -37522.477    545.99609    178133.41    55.999411    56.400241    56.400241 
 9958000    321.73519   -37894.974   -37517.068    387.37285    178133.41    56.005472    56.397189    56.397189 
 9959000    318.10824    -37894.84   -37521.195    377.66723    178133.41    56.011542    56.394133    56.394133 
 9960000    318.64623   -37899.838    -37525.56    181.84934    178133.41    56.017623    56.391072    56.391072 
 9961000    317.04002   -37893.391       -37521    378.53013    178133.41    56.023714    56.388006    56.388006 
 9962000     319.9921   -37890.596   -37514.737    489.64189    178133.41    56.029814    56.384937    56.384937 
 9963000    323.04297   -37895.452    -37516.01    325.49654    178133.41    56.035924    56.381863    56.381863 
 9964000    326.95817   -37900.598   -37516.557    210.40827    178133.41    56.042042    56.378785    56.378785 
 9965000    318.63914   -37889.814   -37515.545    574.23143    178133.41     56.04817    56.375703    56.375703 
 9966000    323.16806   -37899.071   -37519.482    72.105657    178133.41    56.054306    56.372617    56.372617 
 9967000    314.29699   -37899.187   -37530.018    170.40692    178133.41    56.060451    56.369528    56.369528 
 9968000    319.75816    -37898.62   -37523.036    351.04603    178133.41    56.066603    56.366435    56.366435 
 9969000    320.17069    -37899.28   -37523.212   -46.285103    178133.41    56.072764    56.363338    56.363338 
 9970000      319.872   -37902.186   -37526.469    -111.7919    178133.41    56.078932    56.360239    56.360239 
 9971000    320.38363   -37904.354   -37528.036    211.65267    178133.41    56.085107    56.357136    56.357136 
 9972000    319.30788   -37899.328   -37524.273    111.64565    178133.41     56.09129    56.354029    56.354029 
 9973000    318.89114   -37896.536    -37521.97     419.3361    178133.41     56.09748     56.35092     56.35092 
 9974000    319.01879   -37896.516   -37521.801    394.31718    178133.41    56.103676    56.347808    56.347808 
 9975000    318.94203   -37895.256    -37520.63    289.17973    178133.41    56.109879    56.344694    56.344694 
 9976000    318.16584   -37895.954   -37522.241    140.18337    178133.41    56.116088    56.341577    56.341577 
 9977000    314.94061   -37897.238   -37527.313    445.55839    178133.41    56.122302    56.338457    56.338457 
 9978000    321.74717    -37898.36    -37520.44    191.41378    178133.41    56.128523    56.335335    56.335335 
 9979000     319.5942   -37893.149   -37517.758    446.93764    178133.41    56.134749    56.332211    56.332211 
 9980000     318.3443   -37899.858   -37525.935    238.37712    178133.41     56.14098    56.329085    56.329085 
 9981000    314.98669   -37890.012   -37520.033    358.49595    178133.41    56.147216    56.325956    56.325956 
 9982000    322.75727    -37898.01   -37518.903    368.60394    178133.41    56.153457    56.322826    56.322826 
 9983000    319.69334   -37902.168   -37526.661    130.63745    178133.41    56.159702    56.319695    56.319695 
 9984000    322.84198   -37895.259   -37516.053    381.21515    178133.41    56.165951    56.316561    56.316561 
 9985000    323.43944   -37890.164   -37510.256    561.30994    178133.41    56.172205    56.313426    56.313426 
 9986000    315.54372   -37898.728   -37528.095    363.44903    178133.41    56.178462     56.31029     56.31029 
 9987000    322.55518   -37895.534   -37516.665    208.65689    178133.41    56.184723    56.307153    56.307153 
 9988000    316.13535   -37899.102   -37527.774    175.11595    178133.41    56.190986    56.304014    56.304014 
 9989000    323.22577   -37903.151   -37523.494    121.59808    178133.41    56.197253    56.300875    56.300875 
 9990000    321.07895   -37894.852   -37517.716    369.68267    178133.41    56.203523    56.297735    56.297735 
 9991000    317.30621   -37899.651   -37526.947    263.83711    178133.41    56.209795    56.294594    56.294594 
 9992000    316.31145   -37896.003   -37524.467    292.96645    178133.41    56.216069    56.291452    56.291452 
 9993000    323.92468   -37897.118    -37516.64    479.50914    178133.41    56.222345     56.28831     56.28831 
 9994000    318.78813   -37899.096   -37524.652     267.7732    178133.41    56.228623    56.285168    56.285168 
 9995000    322.93843   -37896.301   -37516.981    345.29103    178133.41    56.234902    56.282025    56.282025 
 9996000    318.90686   -37900.188   -37525.604    223.96288    178133.41    56.241183    56.278882    56.278882 
 9997000    321.02142   -37900.617   -37523.549    176.30021    178133.41    56.247465     56.27574     56.27574 
 9998000     323.1924   -37903.782   -37524.164    33.723244    178133.41    56.253747    56.272597    56.272597 
 9999000    322.46504   -37899.851   -37521.087    156.40943    178133.41     56.26003    56.269455    56.269455 
10000000     321.9499   -37891.391   -37513.233    564.14851    178133.41    56.266313    56.266313    56.266313 
Loop time of 4604.28 on 48 procs for 10000000 steps with 9088 atoms

Performance: 1876.513 ns/day, 0.013 hours/ns, 2171.890 timesteps/s
99.3% CPU use with 48 MPI tasks x 1 OpenMP threads

MPI task timing breakdown:
Section |  min time  |  avg time  |  max time  |%varavg| %total
---------------------------------------------------------------
Pair    | 3248.6     | 3383.3     | 3505.4     |  88.1 | 73.48
Neigh   | 116.85     | 126.7      | 138.29     |  46.8 |  2.75
Comm    | 608.08     | 698.44     | 866.15     | 194.8 | 15.17
Output  | 0.33517    | 0.382      | 2.3085     |  45.5 |  0.01
Modify  | 306.51     | 341.39     | 383.34     | 102.3 |  7.41
Other   |            | 54.11      |            |       |  1.18

Nlocal:        189.333 ave         196 max         179 min
Histogram: 1 1 4 0 8 7 8 10 7 2
Nghost:        2108.27 ave        2128 max        2093 min
Histogram: 2 4 6 11 5 9 7 3 0 1
Neighs:        20088.5 ave       21307 max       18721 min
Histogram: 1 2 5 5 9 10 6 2 5 3

Total # of neighbors = 964250
Ave neighs/atom = 106.10145
Neighbor list builds = 786861
Dangerous builds = 0
write_restart rst.${T}
write_restart rst.320
System init for write_restart ...
clear
OMP_NUM_THREADS environment is not set. Defaulting to 1 thread. (../comm.cpp:94)
  using 1 OpenMP thread(s) per MPI task
package intel 1
jump dms340.lmp
#MD-DMS by Ha-Bin Yu
variable T equal 340
log log.${T}
log log.340
