units           metal
boundary        p p p
atom_style      atomic
read_data      ../../data/T${T}.dat
read_data      ../../data/T670.dat
Reading data file ...
  orthogonal box = (-0.34331743 -0.34331743 -0.34331743) to (56.227810 56.227810 56.227810)
  4 by 4 by 3 MPI processor grid
  reading atoms ...
  9088 atoms
  reading velocities ...
  9088 velocities
  read_data CPU = 0.055 seconds
mass            1  26.98	#Al
mass            2  150.36	#Sm
pair_style      eam/fs
pair_coeff      * *  ../../Al90Sm10_MendelevM_2014.eam.fs  Al Sm

neighbor        2.0 bin
neigh_modify    delay 1

timestep 0.01
thermo 1000
reset_timestep 0
thermo_style custom step temp pe etotal press vol lx ly lz
fix             1 all nvt temp ${T} ${T} 0.1
fix             1 all nvt temp 670 ${T} 0.1
fix             1 all nvt temp 670 670 0.1
thermo_modify flush yes
fix nodrift all momentum 1  linear 1 1 1
fix com_seed all recenter INIT INIT INIT shift all
fix dsf all deform 1 x  wiggle 1.0  10000.0 y volume z volume units box
fix ps1 all ave/time 1 1 10000 c_thermo_press[1] c_thermo_press[2]  c_thermo_press[3] c_thermo_press[4]  c_thermo_press[5] c_thermo_press[6]  file  stress.${T}
fix ps1 all ave/time 1 1 10000 c_thermo_press[1] c_thermo_press[2]  c_thermo_press[3] c_thermo_press[4]  c_thermo_press[5] c_thermo_press[6]  file  stress.670
dump            1 all custom 1000000 dump.${T} id type x y z
dump            1 all custom 1000000 dump.670 id type x y z
dump_modify 1 sort id
run 10000000
Neighbor list info ...
  update every 1 steps, delay 1 steps, check yes
  max neighbors/atom: 2000, page size: 100000
  master list distance cutoff = 10
  ghost atom cutoff = 10
  binsize = 5, bins = 12 12 12
  1 neighbor lists, perpetual/occasional/extra = 1 0 0
  (1) pair eam/fs/intel, perpetual
      attributes: half, newton on, intel
      pair build: half/bin/newton/intel
      stencil: half/bin/3d/newton
      bin: intel
Per MPI rank memory allocation (min/avg/max) = 6.248 | 6.384 | 6.446 Mbytes
Step Temp PotEng TotEng Press Volume Lx Ly Lz 
       0    674.07399   -37440.295   -36648.537    817.42395    181044.15    56.571127    56.571127    56.571127 
    1000    666.17703   -37409.614   -36627.131    1372.0886    181044.15    56.577411    56.567986    56.567986 
    2000    679.42119   -37417.652   -36619.613     942.5534    181044.15    56.583694    56.564846    56.564846 
    3000    673.58076   -37403.738   -36612.559    1347.6589    181044.15    56.589976    56.561706    56.561706 
    4000    670.17141    -37412.68   -36625.506    893.59507    181044.15    56.596258    56.558567    56.558567 
    5000    672.55865    -37406.88   -36616.902    1399.8208    181044.15    56.602538    56.555429    56.555429 
    6000    667.46362   -37425.258   -36641.264    728.74404    181044.15    56.608818    56.552292    56.552292 
    7000     670.0714   -37408.784   -36621.727    1362.6732    181044.15    56.615096    56.549156    56.549156 
    8000    672.60196   -37409.086   -36619.056    1248.6905    181044.15    56.621372    56.546022    56.546022 
    9000    678.18197   -37417.222   -36620.638    1156.6064    181044.15    56.627646    56.542889    56.542889 
   10000    666.00802   -37422.909   -36640.625    941.73401    181044.15    56.633918    56.539758    56.539758 
   11000    676.27158   -37409.448   -36615.108    1356.8472    181044.15    56.640188    56.536629    56.536629 
   12000    674.55383   -37419.578   -36627.256    1113.8503    181044.15    56.646454    56.533502    56.533502 
   13000    674.67677   -37409.855   -36617.388    992.04876    181044.15    56.652718    56.530376    56.530376 
   14000    654.71409   -37415.035   -36646.017    1023.7938    181044.15    56.658979    56.527253    56.527253 
   15000    671.02066   -37407.742   -36619.569    1079.8154    181044.15    56.665236    56.524132    56.524132 
   16000    676.85625    -37411.47   -36616.444    949.97012    181044.15    56.671489    56.521013    56.521013 
   17000    663.61396   -37413.315   -36633.842     1083.195    181044.15    56.677739    56.517897    56.517897 
   18000    670.43598   -37416.028   -36628.543    1201.6789    181044.15    56.683984    56.514784    56.514784 
   19000    672.55957    -37430.07   -36640.091    935.05107    181044.15    56.690225    56.511673    56.511673 
   20000    666.14744   -37422.622   -36640.174    978.50592    181044.15    56.696461    56.508565    56.508565 
   21000    671.02412   -37423.552   -36635.376    903.84945    181044.15    56.702692     56.50546     56.50546 
   22000    658.86877   -37412.247   -36638.348    953.53383    181044.15    56.708918    56.502358    56.502358 
   23000    663.32386   -37407.569   -36628.438    1293.0814    181044.15    56.715138    56.499259    56.499259 
   24000    656.19397   -37412.002   -36641.245    1315.9119    181044.15    56.721353    56.496164    56.496164 
   25000    666.67758   -37415.956   -36632.885    1106.4812    181044.15    56.727562    56.493072    56.493072 
   26000    670.22069   -37414.714   -36627.482    1080.9032    181044.15    56.733765    56.489984    56.489984 
   27000    668.12557    -37426.12   -36641.349    674.05392    181044.15    56.739961    56.486899    56.486899 
   28000    676.22247   -37414.713   -36620.431      922.536    181044.15    56.746151    56.483818    56.483818 
   29000    665.63426   -37413.864   -36632.019    1007.4694    181044.15    56.752333    56.480742    56.480742 
   30000    668.07495   -37408.825   -36624.113     1352.255    181044.15    56.758509    56.477669    56.477669 
   31000    663.64838   -37406.488   -36626.975    1390.2176    181044.15    56.764677      56.4746      56.4746 
   32000    679.86061   -37421.804   -36623.249    1093.6469    181044.15    56.770837    56.471536    56.471536 
   33000     666.7982    -37427.82   -36644.608    780.78442    181044.15     56.77699    56.468476    56.468476 
   34000    668.82007   -37416.918   -36631.331    1042.4161    181044.15    56.783135    56.465421    56.465421 
   35000    653.32951   -37418.213    -36650.82    804.31576    181044.15    56.789271     56.46237     56.46237 
   36000    681.08888   -37416.744   -36616.746     899.8548    181044.15    56.795398    56.459324    56.459324 
   37000    664.42585   -37418.249   -36637.823    920.00035    181044.15    56.801517    56.456283    56.456283 
   38000    679.47523   -37422.677   -36624.574      1078.53    181044.15    56.807626    56.453247    56.453247 
   39000    672.26437   -37413.953    -36624.32    1137.9984    181044.15    56.813727    56.450217    56.450217 
   40000    669.94193   -37421.109   -36634.204    895.03734    181044.15    56.819817    56.447191    56.447191 
   41000    677.64231   -37406.429   -36610.479    1366.5075    181044.15    56.825898    56.444171    56.444171 
   42000    662.04012    -37401.82   -36624.196    1119.4706    181044.15    56.831969    56.441156    56.441156 
   43000     668.9515   -37411.333   -36625.591    1209.8104    181044.15    56.838029    56.438147    56.438147 
   44000    674.43388   -37417.623   -36625.442    1279.2274    181044.15    56.844079    56.435143    56.435143 
   45000     674.6345    -37413.23   -36620.813    1427.7577    181044.15    56.850119    56.432146    56.432146 
   46000    665.81083   -37427.412   -36645.359    957.48996    181044.15    56.856147    56.429154    56.429154 
   47000    664.74911   -37417.041   -36636.236    996.65002    181044.15    56.862164    56.426168    56.426168 
   48000    670.30569     -37415.2   -36627.868     1016.192    181044.15    56.868169    56.423189    56.423189 
   49000    670.50987   -37411.482    -36623.91    1062.1663    181044.15    56.874163    56.420216    56.420216 
   50000    670.38742   -37422.113   -36634.684      992.362    181044.15    56.880144    56.417249    56.417249 
   51000    673.04646   -37409.401    -36618.85    1315.7494    181044.15    56.886114    56.414289    56.414289 
   52000    680.57851   -37413.375   -36613.977    1329.7074    181044.15    56.892071    56.411335    56.411335 
   53000    660.20246   -37419.105    -36643.64    588.20363    181044.15    56.898016    56.408388    56.408388 
   54000     661.0949   -37425.887   -36649.374    704.32339    181044.15    56.903947    56.405448    56.405448 
   55000    665.51202    -37422.29   -36640.588    838.28938    181044.15    56.909865    56.402515    56.402515 
   56000    676.11755   -37419.753   -36625.594    802.93866    181044.15     56.91577    56.399589    56.399589 
   57000     670.1691   -37409.109   -36621.938    1448.5494    181044.15    56.921662    56.396671    56.396671 
   58000    675.57652   -37421.617   -36628.094    967.90301    181044.15    56.927539    56.393759    56.393759 
   59000    668.03572   -37408.757   -36624.091    1513.0326    181044.15    56.933403    56.390855    56.390855 
   60000    666.56009   -37428.574   -36645.641    759.76896    181044.15    56.939252    56.387959    56.387959 
   61000    675.66024   -37411.114   -36617.492    1189.6642    181044.15    56.945087     56.38507     56.38507 
   62000    668.18634   -37418.981   -36634.139    1151.2058    181044.15    56.950907    56.382189    56.382189 
   63000    664.48856   -37418.459   -36637.959    761.08297    181044.15    56.956711    56.379315    56.379315 
   64000    664.47756   -37411.485   -36630.999    1169.3683    181044.15    56.962501     56.37645     56.37645 
   65000    679.02978   -37408.544   -36610.965    1462.0593    181044.15    56.968275    56.373593    56.373593 
   66000    660.77205   -37416.452   -36640.318    1045.1371    181044.15    56.974034    56.370744    56.370744 
   67000    666.57888   -37414.174   -36631.219    1385.4752    181044.15    56.979777    56.367903    56.367903 
   68000     672.4298   -37415.217    -36625.39    1426.8354    181044.15    56.985503    56.365071    56.365071 
   69000    661.98858   -37418.284   -36640.721    1295.6045    181044.15    56.991213    56.362247    56.362247 
   70000    672.51554    -37414.37   -36624.442    1313.3927    181044.15    56.996907    56.359432    56.359432 
   71000    671.83144   -37420.159   -36631.035    1103.8378    181044.15    57.002584    56.356626    56.356626 
   72000    675.92314   -37413.297   -36619.366    1167.5675    181044.15    57.008243    56.353828    56.353828 
   73000    678.79124    -37417.54    -36620.24    982.52437    181044.15    57.013886    56.351039    56.351039 
   74000    676.04175   -37420.843   -36626.774    843.47752    181044.15    57.019511     56.34826     56.34826 
   75000    678.12234   -37404.136   -36607.623    1551.9003    181044.15    57.025118    56.345489    56.345489 
   76000    673.64266   -37409.984   -36618.732     1159.117    181044.15    57.030707    56.342728    56.342728 
   77000    667.95866   -37415.605    -36631.03    1229.6235    181044.15    57.036279    56.339976    56.339976 
   78000    665.38859     -37410.8   -36629.244    965.04223    181044.15    57.041831    56.337234    56.337234 
   79000    665.96028   -37419.303   -36637.075    974.53149    181044.15    57.047366    56.334501    56.334501 
   80000     671.9071   -37416.088   -36626.874     1122.594    181044.15    57.052881    56.331778    56.331778 
   81000    670.32009   -37418.489    -36631.14     1089.062    181044.15    57.058378    56.329065    56.329065 
   82000    671.28379   -37426.117   -36637.636    925.95433    181044.15    57.063855    56.326362    56.326362 
   83000    661.99143   -37419.044   -36641.477    851.57656    181044.15    57.069313    56.323668    56.323668 
   84000    671.23879   -37413.359    -36624.93    1147.1109    181044.15    57.074751    56.320985    56.320985 
   85000    660.58948   -37421.868   -36645.948    851.30129    181044.15    57.080169    56.318312    56.318312 
   86000    668.29325   -37411.718   -36626.749     1175.089    181044.15    57.085567    56.315649    56.315649 
   87000     671.6035    -37417.67   -36628.813    910.96022    181044.15    57.090945    56.312996    56.312996 
   88000    672.39246   -37416.981   -36627.197    868.70796    181044.15    57.096302    56.310354    56.310354 
   89000    678.49469   -37405.966   -36609.015    1331.2937    181044.15    57.101639    56.307723    56.307723 
   90000    676.34145   -37422.986   -36628.564    637.56862    181044.15    57.106954    56.305102    56.305102 
   91000    669.97092   -37433.173   -36646.234    683.58659    181044.15    57.112249    56.302493    56.302493 
   92000    671.39988   -37412.824   -36624.206    1188.0024    181044.15    57.117522    56.299894    56.299894 
   93000    664.76496    -37411.45   -36630.625      1337.18    181044.15    57.122773    56.297306    56.297306 
   94000    669.72435   -37411.422   -36624.772      1495.47    181044.15    57.128003    56.294729    56.294729 
   95000    663.86649   -37410.142   -36630.373    1335.8681    181044.15    57.133211    56.292163    56.292163 
   96000    671.06863   -37404.586   -36616.358    1427.6015    181044.15    57.138396    56.289608    56.289608 
   97000    672.80861    -37424.16   -36633.888    935.94932    181044.15     57.14356    56.287065    56.287065 
   98000    672.04559   -37420.107   -36630.731    1021.0479    181044.15      57.1487    56.284534    56.284534 
   99000    672.71656    -37409.65   -36619.485    1247.1521    181044.15    57.153818    56.282014    56.282014 
  100000     660.4578   -37412.339   -36636.573    1321.6317    181044.15    57.158913    56.279505    56.279505 
  101000    675.87167   -37412.627   -36618.757    1469.7956    181044.15    57.163984    56.277009    56.277009 
  102000    670.65999   -37411.807   -36624.058    1082.5129    181044.15    57.169032    56.274524    56.274524 
  103000    667.74028   -37426.076   -36641.757    732.26882    181044.15    57.174057    56.272051    56.272051 
  104000    674.64848   -37418.683    -36626.25    981.08663    181044.15    57.179058     56.26959     56.26959 
  105000    666.68323   -37411.859   -36628.782    1171.0662    181044.15    57.184035    56.267142    56.267142 
  106000    672.10749   -37409.045   -36619.596    1171.4233    181044.15    57.188987    56.264705    56.264705 
  107000    676.71717   -37435.485   -36640.622    575.86656    181044.15    57.193915    56.262281    56.262281 
  108000    673.67004   -37410.077   -36618.793    1183.6804    181044.15    57.198819     56.25987     56.25987 
  109000     676.2502   -37418.755   -36624.441    1128.1604    181044.15    57.203698     56.25747     56.25747 
  110000    661.94259   -37407.525   -36630.015    1091.9745    181044.15    57.208551    56.255084    56.255084 
  111000    663.67156   -37411.242   -36631.702    890.52825    181044.15     57.21338     56.25271     56.25271 
  112000     683.3305   -37405.538   -36602.907    1390.6732    181044.15    57.218183    56.250349    56.250349 
  113000    673.05943   -37412.734   -36622.168    1126.8748    181044.15    57.222961       56.248       56.248 
  114000     666.1279   -37405.916   -36623.491    1192.3622    181044.15    57.227713    56.245665    56.245665 
  115000    674.94675   -37413.699   -36620.915    961.33451    181044.15    57.232439    56.243343    56.243343 
  116000    678.91121   -37411.685   -36614.245    1153.1642    181044.15    57.237139    56.241033    56.241033 
  117000    674.99851     -37406.5   -36613.656    1548.5496    181044.15    57.241813    56.238737    56.238737 
  118000    675.48831   -37416.249   -36622.829    685.82547    181044.15     57.24646    56.236455    56.236455 
  119000    677.20451   -37405.698   -36610.263     1325.004    181044.15    57.251081    56.234185    56.234185 
  120000    673.12742   -37402.323   -36611.676    1704.7433    181044.15    57.255675    56.231929    56.231929 
  121000    677.08662   -37410.629   -36615.332    1153.3328    181044.15    57.260241    56.229687    56.229687 
  122000    675.12674   -37421.784   -36628.789    911.68228    181044.15    57.264781    56.227458    56.227458 
  123000    664.66958   -37416.178   -36635.466    1034.6848    181044.15    57.269293    56.225243    56.225243 
  124000    659.51422   -37413.838   -36639.181    1119.8622    181044.15    57.273777    56.223042    56.223042 
  125000    669.43737   -37419.473   -36633.161    924.42395    181044.15    57.278234    56.220854    56.220854 
  126000    670.76669    -37414.43   -36626.556    1108.7778    181044.15    57.282663    56.218681    56.218681 
  127000    679.86904   -37424.268   -36625.703    1050.5483    181044.15    57.287064    56.216522    56.216522 
  128000     672.5297   -37408.227   -36618.283    1272.2838    181044.15    57.291437    56.214376    56.214376 
  129000    675.07671    -37408.38   -36615.443    1222.9812    181044.15    57.295781    56.212245    56.212245 
  130000    672.75807   -37408.762   -36618.549     1416.819    181044.15    57.300096    56.210128    56.210128 
  131000    661.04198   -37413.402   -36636.951    911.67284    181044.15    57.304383    56.208026    56.208026 
  132000    667.14059   -37398.705    -36615.09    1410.0923    181044.15    57.308641    56.205938    56.205938 
  133000    671.29351   -37412.663   -36624.171    1209.5038    181044.15    57.312869    56.203864    56.203864 
  134000    676.90271   -37401.295   -36606.214    1620.3143    181044.15    57.317069    56.201805    56.201805 
  135000    670.55243   -37411.253   -36623.631    1190.5963    181044.15    57.321239    56.199761    56.199761 
  136000    669.55867    -37406.25   -36619.795    1471.8328    181044.15    57.325379    56.197731    56.197731 
  137000    662.78362   -37414.808   -36636.311    704.66719    181044.15    57.329489    56.195717    56.195717 
  138000    667.12315   -37409.526   -36625.932    1112.1042    181044.15     57.33357    56.193717    56.193717 
  139000    663.81538   -37413.064   -36633.355    1062.0426    181044.15     57.33762    56.191732    56.191732 
  140000    670.14021    -37415.41   -36628.272      801.502    181044.15    57.341641    56.189762    56.189762 
  141000    667.14837   -37416.156   -36632.533    1016.5961    181044.15    57.345631    56.187807    56.187807 
  142000     680.6663   -37429.558   -36630.056    643.66765    181044.15     57.34959    56.185868    56.185868 
  143000    674.28651   -37412.444   -36620.436    1059.9577    181044.15    57.353518    56.183944    56.183944 
  144000    670.63197   -37411.439   -36623.724    1181.0152    181044.15    57.357416    56.182035    56.182035 
  145000    672.81555   -37407.331   -36617.051    1420.9629    181044.15    57.361282    56.180141    56.180141 
  146000    666.52881   -37408.979   -36626.083    891.25716    181044.15    57.365118    56.178263    56.178263 
  147000    664.99737   -37413.913   -36632.815     1269.859    181044.15    57.368922      56.1764      56.1764 
  148000    670.08063   -37407.663   -36620.595    1602.6886    181044.15    57.372694    56.174553    56.174553 
  149000    663.23974   -37404.338   -36625.305    1201.1541    181044.15    57.376435    56.172722    56.172722 
  150000    667.27922   -37412.088    -36628.31    1182.6141    181044.15    57.380144    56.170907    56.170907 
  151000    670.01611   -37418.476   -36631.484    1037.6363    181044.15    57.383822    56.169107    56.169107 
  152000    669.97993   -37416.598   -36629.649    1568.9199    181044.15    57.387467    56.167323    56.167323 
  153000    677.35272   -37407.401   -36611.791    1447.1489    181044.15     57.39108    56.165555    56.165555 
  154000    673.42819   -37404.927   -36613.927    1518.2072    181044.15     57.39466    56.163803    56.163803 
  155000    662.17447   -37407.804   -36630.022    1374.7279    181044.15    57.398208    56.162067    56.162067 
  156000    668.70961   -37408.418    -36622.96    1188.0848    181044.15    57.401723    56.160347    56.160347 
  157000    667.37578   -37420.878   -36636.987    951.48832    181044.15    57.405206    56.158644    56.158644 
  158000    667.30203   -37417.555   -36633.751    883.81022    181044.15    57.408656    56.156957    56.156957 
  159000    665.21635   -37398.501   -36617.146    1603.3653    181044.15    57.412072    56.155286    56.155286 
  160000    660.41586   -37410.662   -36634.946    1143.8036    181044.15    57.415455    56.153631    56.153631 
  161000    667.20664   -37413.906   -36630.214    1175.8663    181044.15    57.418805    56.151993    56.151993 
  162000    676.94588   -37395.424   -36600.292    1651.7058    181044.15    57.422122    56.150371    56.150371 
  163000    664.41423   -37410.134   -36629.722    1083.8157    181044.15    57.425405    56.148766    56.148766 
  164000    672.65505   -37427.423   -36637.332    690.47371    181044.15    57.428654    56.147178    56.147178 
  165000     664.1479   -37414.206   -36634.107    1156.1007    181044.15     57.43187    56.145606    56.145606 
  166000    669.22956    -37411.38   -36625.311    1508.7172    181044.15    57.435051    56.144051    56.144051 
  167000    667.42357   -37422.784   -36638.837    974.16698    181044.15    57.438198    56.142513    56.142513 
  168000    669.59169   -37409.725   -36623.231    1280.1272    181044.15    57.441311    56.140992    56.140992 
  169000    667.09531   -37397.015   -36613.453    1504.1787    181044.15     57.44439    56.139487    56.139487 
  170000    673.55591   -37412.859   -36621.709    1348.8344    181044.15    57.447434       56.138       56.138 
  171000    671.29565   -37420.384   -36631.889    1150.0803    181044.15    57.450444    56.136529    56.136529 
  172000    668.65945   -37418.938   -36633.539    973.95001    181044.15    57.453419    56.135076    56.135076 
  173000    674.61259   -37417.001    -36624.61    1175.8149    181044.15    57.456359     56.13364     56.13364 
  174000     662.9696   -37413.798   -36635.083    1312.1612    181044.15    57.459264    56.132221    56.132221 
  175000    677.89889   -37423.126   -36626.875    1130.8902    181044.15    57.462134    56.130819    56.130819 
  176000    669.18294   -37403.612   -36617.599    1516.6794    181044.15    57.464969    56.129434    56.129434 
  177000    674.92072   -37424.626   -36631.873    741.00104    181044.15    57.467769    56.128067    56.128067 
  178000    663.78415   -37405.259   -36625.587    976.93331    181044.15    57.470533    56.126717    56.126717 
  179000    670.41849   -37413.923   -36626.458    1059.1568    181044.15    57.473261    56.125385    56.125385 
  180000    667.62499   -37411.267   -36627.084    1365.3164    181044.15    57.475955     56.12407     56.12407 
  181000     670.3886   -37402.957   -36615.527    1485.4672    181044.15    57.478612    56.122772    56.122772 
  182000    670.67864    -37411.72   -36623.949    1356.9316    181044.15    57.481233    56.121493    56.121493 
  183000    674.89733   -37423.148   -36630.422    742.99308    181044.15    57.483819     56.12023     56.12023 
  184000    674.38605   -37414.126   -36622.001    1167.5127    181044.15    57.486369    56.118986    56.118986 
  185000    673.04679   -37406.908   -36616.356    1554.8062    181044.15    57.488882    56.117759    56.117759 
  186000    669.07984   -37412.219   -36626.326    1486.6217    181044.15    57.491359     56.11655     56.11655 
  187000    682.54932    -37396.59   -36594.876    1697.6498    181044.15      57.4938    56.115359    56.115359 
  188000    669.47751   -37395.299    -36608.94    1599.1952    181044.15    57.496205    56.114185    56.114185 
  189000    670.52506   -37415.213   -36627.623    841.32314    181044.15    57.498573     56.11303     56.11303 
  190000    662.68952   -37413.508   -36635.122    1009.8417    181044.15    57.500904    56.111892    56.111892 
  191000    664.26724    -37399.59   -36619.351    1377.6103    181044.15    57.503199    56.110773    56.110773 
  192000    671.87815   -37405.193   -36616.014    1380.9671    181044.15    57.505456    56.109671    56.109671 
  193000    665.41449   -37403.489   -36621.902     1512.151    181044.15    57.507677    56.108588    56.108588 
  194000    677.21031   -37398.869   -36603.426     1657.459    181044.15    57.509861    56.107522    56.107522 
  195000    662.38438   -37423.007   -36644.979    1327.1596    181044.15    57.512008    56.106475    56.106475 
  196000    664.23042   -37414.848   -36634.652    1203.5785    181044.15    57.514118    56.105446    56.105446 
  197000    665.75692   -37418.126   -36636.137    1158.0287    181044.15    57.516191    56.104435    56.104435 
  198000    677.03449   -37413.743   -36618.507    1287.3884    181044.15    57.518226    56.103443    56.103443 
  199000    676.42567   -37421.815   -36627.294    1177.4621    181044.15    57.520224    56.102468    56.102468 
  200000    668.37971   -37411.887   -36626.817    1184.7889    181044.15    57.522184    56.101512    56.101512 
  201000    674.49523    -37394.23   -36601.976    1539.5359    181044.15    57.524107    56.100575    56.100575 
  202000    675.59639   -37409.069   -36615.522    1271.1252    181044.15    57.525992    56.099655    56.099655 
  203000    671.09437   -37408.605   -36620.347    1337.1718    181044.15     57.52784    56.098755    56.098755 
  204000    666.32546   -37411.767    -36629.11    1417.2666    181044.15    57.529649    56.097872    56.097872 
  205000    678.93424   -37401.323   -36603.855    1355.0044    181044.15    57.531421    56.097008    56.097008 
  206000    672.80221   -37413.135    -36622.87    1141.1851    181044.15    57.533155    56.096163    56.096163 
  207000    667.29604   -37417.748   -36633.951    920.77504    181044.15    57.534851    56.095336    56.095336 
  208000     674.4463    -37406.39   -36614.195    1241.6177    181044.15    57.536509    56.094528    56.094528 
  209000    674.35033   -37408.048   -36615.965    1393.7552    181044.15    57.538129    56.093738    56.093738 
  210000    673.81528   -37412.049   -36620.595    1129.1818    181044.15    57.539711    56.092967    56.092967 
  211000    681.56098   -37409.977   -36609.424    1359.4893    181044.15    57.541254    56.092215    56.092215 
  212000    662.87894   -37422.913   -36644.304    978.87663    181044.15    57.542759    56.091481    56.091481 
  213000    673.14765   -37407.664   -36616.993    1119.3697    181044.15    57.544226    56.090767    56.090767 
  214000    679.42652   -37412.093   -36614.047     1278.857    181044.15    57.545654     56.09007     56.09007 
  215000    669.86702   -37407.946   -36621.129      1301.27    181044.15    57.547044    56.089393    56.089393 
  216000    675.57356   -37417.124   -36623.604     1176.961    181044.15    57.548396    56.088735    56.088735 
  217000    670.36289   -37418.316   -36630.916    910.39665    181044.15    57.549708    56.088095    56.088095 
  218000    673.08009   -37410.622   -36620.031    1092.9033    181044.15    57.550983    56.087474    56.087474 
  219000    673.89809   -37411.894   -36620.342    1104.6534    181044.15    57.552218    56.086872    56.086872 
  220000    661.56993   -37398.118   -36621.046     1238.488    181044.15    57.553415    56.086289    56.086289 
  221000    669.76176   -37412.096   -36625.403    1068.8309    181044.15    57.554573    56.085725    56.085725 
  222000    668.84603   -37415.102   -36629.484    1093.5197    181044.15    57.555692    56.085179    56.085179 
  223000    664.98685    -37416.44   -36635.355    1290.1545    181044.15    57.556772    56.084653    56.084653 
  224000    665.17113   -37411.666   -36630.365    1162.4662    181044.15    57.557813    56.084146    56.084146 
  225000    663.84227    -37396.88    -36617.14    1652.4515    181044.15    57.558816    56.083657    56.083657 
  226000    668.58916   -37406.258   -36620.942    1469.2842    181044.15    57.559779    56.083188    56.083188 
  227000    663.42819   -37423.064    -36643.81    1018.5111    181044.15    57.560704    56.082738    56.082738 
  228000    669.68521   -37411.458   -36624.855    950.88935    181044.15    57.561589    56.082306    56.082306 
  229000    665.37838   -37417.612   -36636.068     878.2718    181044.15    57.562435    56.081894    56.081894 
  230000    672.24222   -37398.379   -36608.772    1757.6841    181044.15    57.563242    56.081501    56.081501 
  231000    671.94458   -37411.508    -36622.25    1515.4673    181044.15     57.56401    56.081127    56.081127 
  232000    672.70635   -37414.551   -36624.399    1347.0006    181044.15    57.564739    56.080772    56.080772 
  233000    667.42132   -37395.909   -36611.965    1774.2964    181044.15    57.565428    56.080436    56.080436 
  234000    679.07153   -37411.978   -36614.349    1129.3149    181044.15    57.566079    56.080119    56.080119 
  235000    674.89221   -37406.405   -36613.686     1630.599    181044.15    57.566689    56.079822    56.079822 
  236000    667.29173   -37402.868   -36619.076    1541.2386    181044.15    57.567261    56.079543    56.079543 
  237000    664.82863   -37411.035   -36630.136    1133.5955    181044.15    57.567793    56.079284    56.079284 
  238000    662.91195   -37408.525   -36629.877    1212.0289    181044.15    57.568286    56.079044    56.079044 
  239000    671.55609   -37413.957   -36625.156    1100.4223    181044.15     57.56874    56.078823    56.078823 
  240000     666.6493   -37412.825   -36629.787    1239.7467    181044.15    57.569154    56.078621    56.078621 
  241000    665.26553   -37415.243    -36633.83    1071.1412    181044.15    57.569529    56.078439    56.078439 
  242000    669.05048   -37411.591   -36625.733    1166.6018    181044.15    57.569864    56.078275    56.078275 
  243000    668.31836   -37404.228    -36619.23    1500.0319    181044.15     57.57016    56.078131    56.078131 
  244000    674.38428   -37406.322   -36614.199     1555.974    181044.15    57.570417    56.078006    56.078006 
  245000    672.56102   -37399.997   -36610.016    1519.1166    181044.15    57.570634      56.0779      56.0779 
  246000     669.5069   -37403.588   -36617.194    1212.1557    181044.15    57.570812    56.077814    56.077814 
  247000    668.75097   -37393.859   -36608.353    1498.9741    181044.15     57.57095    56.077747    56.077747 
  248000    673.21159   -37404.416    -36613.67    1614.1308    181044.15    57.571049    56.077699    56.077699 
  249000    667.32905   -37413.752   -36629.916    1222.1953    181044.15    57.571108     56.07767     56.07767 
  250000    672.07091   -37425.114   -36635.708    1007.3168    181044.15    57.571127     56.07766     56.07766 
  251000    664.31649   -37411.308   -36631.011       1441.7    181044.15    57.571108     56.07767     56.07767 
  252000    665.28108   -37416.362   -36634.932    1032.1263    181044.15    57.571049    56.077699    56.077699 
  253000     670.6461   -37409.265   -36621.533    1498.7154    181044.15     57.57095    56.077747    56.077747 
  254000    675.16049   -37414.348   -36621.314    1325.6317    181044.15    57.570812    56.077814    56.077814 
  255000    666.72176    -37414.08   -36630.958    1125.5886    181044.15    57.570634      56.0779      56.0779 
  256000    669.15304   -37414.719   -36628.741    1245.9645    181044.15    57.570417    56.078006    56.078006 
  257000    673.05953   -37402.961   -36612.394      1657.72    181044.15     57.57016    56.078131    56.078131 
  258000    670.60413   -37412.794   -36625.111     1044.547    181044.15    57.569864    56.078275    56.078275 
  259000    667.93656   -37402.168   -36617.618    1362.1208    181044.15    57.569529    56.078439    56.078439 
  260000    682.10951    -37416.34   -36615.144    1363.8032    181044.15    57.569154    56.078621    56.078621 
  261000    658.66552   -37413.445   -36639.785    1038.4294    181044.15     57.56874    56.078823    56.078823 
  262000    662.64333   -37393.325   -36614.993    1582.9008    181044.15    57.568286    56.079044    56.079044 
  263000    667.31922   -37406.777   -36622.953    1080.8479    181044.15    57.567793    56.079284    56.079284 
  264000    675.68806   -37407.413   -36613.759    1084.6812    181044.15    57.567261    56.079543    56.079543 
  265000     676.7909   -37423.186   -36628.236    1044.8143    181044.15    57.566689    56.079822    56.079822 
  266000    667.66936     -37406.5   -36622.265    1554.5189    181044.15    57.566079    56.080119    56.080119 
  267000    675.01527   -37410.971   -36618.107     1388.668    181044.15    57.565428    56.080436    56.080436 
  268000    675.55018   -37414.067   -36620.574    1020.9942    181044.15    57.564739    56.080772    56.080772 
  269000    677.58137   -37396.207   -36600.329    1490.6679    181044.15     57.56401    56.081127    56.081127 
  270000    672.64719   -37419.045   -36628.962     1251.212    181044.15    57.563242    56.081501    56.081501 
  271000    670.05655   -37402.724   -36615.685    1352.4749    181044.15    57.562435    56.081894    56.081894 
  272000    668.77967   -37412.218   -36626.678    1054.6699    181044.15    57.561589    56.082306    56.082306 
  273000    670.88914   -37420.298    -36632.28    976.08964    181044.15    57.560704    56.082738    56.082738 
  274000    675.63371   -37407.551   -36613.961    1404.1371    181044.15    57.559779    56.083188    56.083188 
  275000    670.24026    -37402.25   -36614.994    1207.5484    181044.15    57.558816    56.083657    56.083657 
  276000    668.37116     -37414.5    -36629.44    1061.3831    181044.15    57.557813    56.084146    56.084146 
  277000    658.58262   -37415.326   -36641.763    1295.9167    181044.15    57.556772    56.084653    56.084653 
  278000     669.1337   -37412.132   -36626.177    1279.9165    181044.15    57.555692    56.085179    56.085179 
  279000    671.26796   -37406.713   -36618.251     1456.685    181044.15    57.554573    56.085725    56.085725 
  280000    662.73576   -37402.801    -36624.36    1410.8575    181044.15    57.553415    56.086289    56.086289 
  281000    672.45933   -37412.108   -36622.246    1319.6232    181044.15    57.552218    56.086872    56.086872 
  282000    670.58433   -37414.386   -36626.726    1288.1146    181044.15    57.550983    56.087474    56.087474 
  283000    671.75076   -37415.557   -36626.527    1364.8232    181044.15    57.549708    56.088095    56.088095 
  284000    673.84294   -37388.513   -36597.026    1955.8896    181044.15    57.548396    56.088735    56.088735 
  285000    675.93212   -37413.961    -36620.02    1302.6628    181044.15    57.547044    56.089393    56.089393 
  286000    671.81932   -37417.742   -36628.631    1028.0618    181044.15    57.545654     56.09007     56.09007 
  287000    669.82231   -37405.559   -36618.795    1406.3249    181044.15    57.544226    56.090767    56.090767 
  288000    655.91143   -37398.351   -36627.926    1326.1434    181044.15    57.542759    56.091481    56.091481 
  289000    671.99379   -37406.769   -36617.453    1204.0667    181044.15    57.541254    56.092215    56.092215 
  290000    682.31582    -37406.64     -36605.2    1514.2376    181044.15    57.539711    56.092967    56.092967 
  291000    663.90688   -37398.538   -36618.721    1664.5793    181044.15    57.538129    56.093738    56.093738 
  292000    670.13781   -37407.364   -36620.229    1132.2364    181044.15    57.536509    56.094528    56.094528 
  293000    666.19696   -37419.826   -36637.319    869.33238    181044.15    57.534851    56.095336    56.095336 
  294000    671.49919   -37413.465   -36624.731    1055.1454    181044.15    57.533155    56.096163    56.096163 
  295000    683.49882   -37405.113   -36602.284     1383.862    181044.15    57.531421    56.097008    56.097008 
  296000    663.66852    -37404.44   -36624.904     1398.693    181044.15    57.529649    56.097872    56.097872 
  297000    670.20381   -37406.672   -36619.459    1301.0157    181044.15     57.52784    56.098755    56.098755 
  298000    672.08815   -37399.363   -36609.937    1641.4407    181044.15    57.525992    56.099655    56.099655 
  299000    672.85087   -37402.499   -36612.177    1332.9511    181044.15    57.524107    56.100575    56.100575 
  300000    674.90902   -37416.589   -36623.849    1244.3721    181044.15    57.522184    56.101512    56.101512 
  301000    671.25705   -37417.523   -36629.073    1265.1857    181044.15    57.520224    56.102468    56.102468 
  302000    667.57846     -37421.1   -36636.971    1043.4003    181044.15    57.518226    56.103443    56.103443 
  303000     678.6266    -37419.14   -36622.034    1071.2792    181044.15    57.516191    56.104435    56.104435 
  304000     667.1195   -37420.391   -36636.802    513.20842    181044.15    57.514118    56.105446    56.105446 
  305000    671.47269   -37408.945   -36620.242    1433.8137    181044.15    57.512008    56.106475    56.106475 
  306000    671.41596   -37397.543   -36608.906    1596.9664    181044.15    57.509861    56.107522    56.107522 
  307000    663.19174   -37410.893   -36631.917    1303.4095    181044.15    57.507677    56.108588    56.108588 
  308000    668.28972   -37403.726   -36618.761    1439.2071    181044.15    57.505456    56.109671    56.109671 
  309000    670.93602   -37409.523   -36621.451    1489.0505    181044.15    57.503199    56.110773    56.110773 
  310000    672.33229   -37421.485   -36631.772    1250.8728    181044.15    57.500904    56.111892    56.111892 
  311000    666.86363   -37411.713   -36628.424     1492.902    181044.15    57.498573     56.11303     56.11303 
  312000    670.93676   -37405.263   -36617.189    1822.3199    181044.15    57.496205    56.114185    56.114185 
  313000     666.4093   -37415.317   -36632.562    1243.8965    181044.15      57.4938    56.115359    56.115359 
  314000    677.18305   -37408.592   -36613.182    1263.1749    181044.15    57.491359     56.11655     56.11655 
  315000    672.57525   -37410.734   -36620.736    1215.8538    181044.15    57.488882    56.117759    56.117759 
  316000    658.04024   -37420.494   -36647.568    779.19103    181044.15    57.486369    56.118986    56.118986 
  317000    674.18435   -37409.792   -36617.904    1421.6589    181044.15    57.483819     56.12023     56.12023 
  318000    665.80008   -37408.409   -36626.369    1013.0732    181044.15    57.481233    56.121493    56.121493 
  319000     680.7758   -37406.437   -36606.806    1391.2195    181044.15    57.478612    56.122772    56.122772 
  320000    672.49563   -37400.122   -36610.217    1525.6923    181044.15    57.475955     56.12407     56.12407 
  321000     680.3258    -37404.47   -36605.368    1600.6033    181044.15    57.473261    56.125385    56.125385 
  322000    662.30595   -37415.378   -36637.442    1201.7109    181044.15    57.470533    56.126717    56.126717 
  323000    668.79095    -37395.27   -36609.717    1642.5619    181044.15    57.467769    56.128067    56.128067 
  324000    668.82075   -37395.085   -36609.497    1881.4434    181044.15    57.464969    56.129434    56.129434 
  325000    670.90059   -37409.653   -36621.622    1247.7741    181044.15    57.462134    56.130819    56.130819 
  326000    676.70571   -37397.166   -36602.316    1829.1546    181044.15    57.459264    56.132221    56.132221 
  327000    668.24141   -37404.065   -36619.158    1606.3549    181044.15    57.456359     56.13364     56.13364 
  328000    678.44266   -37411.142   -36614.252    1386.0372    181044.15    57.453419    56.135076    56.135076 
  329000    661.56768   -37408.771   -36631.702    1365.8632    181044.15    57.450444    56.136529    56.136529 
  330000    669.02432   -37408.124   -36622.296    1459.3052    181044.15    57.447434       56.138       56.138 
  331000    675.98316   -37413.922   -36619.921    1415.5414    181044.15     57.44439    56.139487    56.139487 
  332000    673.31991   -37399.106   -36608.233    1421.1966    181044.15    57.441311    56.140992    56.140992 
  333000    670.42334   -37400.103   -36612.632    1600.3548    181044.15    57.438198    56.142513    56.142513 
  334000    680.13818    -37405.32   -36606.439    1640.9277    181044.15    57.435051    56.144051    56.144051 
  335000    673.12432   -37402.652   -36612.009    1614.7273    181044.15     57.43187    56.145606    56.145606 
  336000    665.83359   -37400.195   -36618.116    1626.6806    181044.15    57.428654    56.147178    56.147178 
  337000    670.60963   -37403.946   -36616.257    1434.9521    181044.15    57.425405    56.148766    56.148766 
  338000    671.19806   -37407.607   -36619.226    1444.9961    181044.15    57.422122    56.150371    56.150371 
  339000    673.57487   -37407.702    -36616.53    1409.8168    181044.15    57.418805    56.151993    56.151993 
  340000    660.99518    -37406.08   -36629.684    1364.1698    181044.15    57.415455    56.153631    56.153631 
  341000    660.01448   -37408.925   -36633.681    1218.3725    181044.15    57.412072    56.155286    56.155286 
  342000    666.77828   -37407.617   -36624.428    1402.7653    181044.15    57.408656    56.156957    56.156957 
  343000     667.7524   -37410.086   -36625.752    1450.4357    181044.15    57.405206    56.158644    56.158644 
  344000    674.38309    -37400.57   -36608.448    1518.8827    181044.15    57.401723    56.160347    56.160347 
  345000    685.03309   -37426.337   -36621.706    740.93172    181044.15    57.398208    56.162067    56.162067 
  346000    681.72068   -37417.353   -36616.613    1092.5102    181044.15     57.39466    56.163803    56.163803 
  347000    672.00243   -37408.438   -36619.113    1279.4574    181044.15     57.39108    56.165555    56.165555 
  348000    670.22988   -37407.989   -36620.746    1255.1025    181044.15    57.387467    56.167323    56.167323 
  349000    672.80628   -37420.753   -36630.484    1138.8665    181044.15    57.383822    56.169107    56.169107 
  350000     675.6642   -37413.762   -36620.136    1283.8402    181044.15    57.380144    56.170907    56.170907 
  351000    671.98043   -37410.127   -36620.828    1221.4248    181044.15    57.376435    56.172722    56.172722 
  352000    666.02503   -37392.864    -36610.56    1911.2902    181044.15    57.372694    56.174553    56.174553 
  353000    671.36416   -37408.898   -36620.322    1193.7559    181044.15    57.368922      56.1764      56.1764 
  354000    676.96505   -37418.912   -36623.758    1248.3686    181044.15    57.365118    56.178263    56.178263 
  355000    669.10104   -37414.376   -36628.459    1119.7577    181044.15    57.361282    56.180141    56.180141 
  356000    673.66467   -37401.705   -36610.427    1534.1507    181044.15    57.357416    56.182035    56.182035 
  357000    656.47264   -37417.526   -36646.441     1168.897    181044.15    57.353518    56.183944    56.183944 
  358000    665.89495   -37404.805   -36622.654    1423.7523    181044.15     57.34959    56.185868    56.185868 
  359000    672.97992    -37414.86   -36624.387    1094.2522    181044.15    57.345631    56.187807    56.187807 
  360000    672.02224   -37411.092   -36621.744    1516.3139    181044.15    57.341641    56.189762    56.189762 
  361000    667.37957   -37415.529   -36631.634    1268.7584    181044.15     57.33762    56.191732    56.191732 
  362000    678.31218   -37407.931   -36611.194    1521.5062    181044.15     57.33357    56.193717    56.193717 
  363000    669.53178   -37421.024     -36634.6    1329.3319    181044.15    57.329489    56.195717    56.195717 
  364000    672.93848   -37408.363   -36617.938    1526.9243    181044.15    57.325379    56.197731    56.197731 
  365000    678.95879   -37410.567   -36613.071    1485.7454    181044.15    57.321239    56.199761    56.199761 
  366000     671.2447   -37407.783   -36619.348    1257.4964    181044.15    57.317069    56.201805    56.201805 
  367000     664.0031   -37413.646   -36633.717    1159.5258    181044.15    57.312869    56.203864    56.203864 
  368000    679.81748   -37415.164   -36616.659     1106.031    181044.15    57.308641    56.205938    56.205938 
  369000    660.59814   -37402.857   -36626.928    1305.9847    181044.15    57.304383    56.208026    56.208026 
  370000    662.68357   -37415.928   -36637.548    1052.6454    181044.15    57.300096    56.210128    56.210128 
  371000    669.25942   -37394.431   -36608.327    1669.9055    181044.15    57.295781    56.212245    56.212245 
  372000    677.17288   -37403.807   -36608.408    1489.9348    181044.15    57.291437    56.214376    56.214376 
  373000    676.19145   -37413.443   -36619.198    984.69863    181044.15    57.287064    56.216522    56.216522 
  374000     659.0364   -37411.905   -36637.809    1293.4181    181044.15    57.282663    56.218681    56.218681 
  375000    678.84512   -37413.746   -36616.383    1386.3981    181044.15    57.278234    56.220854    56.220854 
  376000    664.50489   -37423.418   -36642.899    860.79716    181044.15    57.273777    56.223042    56.223042 
  377000    673.34611   -37411.044   -36620.141    1510.0421    181044.15    57.269293    56.225243    56.225243 
  378000    670.11931    -37409.27   -36622.156    1243.4647    181044.15    57.264781    56.227458    56.227458 
  379000     663.7442   -37399.692   -36620.067    1658.8052    181044.15    57.260241    56.229687    56.229687 
  380000    671.46151   -37411.778   -36623.089     1460.346    181044.15    57.255675    56.231929    56.231929 
  381000    665.64818    -37412.77   -36630.909    1190.5139    181044.15    57.251081    56.234185    56.234185 
  382000    667.72018   -37414.235    -36629.94    926.28666    181044.15     57.24646    56.236455    56.236455 
  383000    668.27977   -37410.989   -36626.036    1208.7402    181044.15    57.241813    56.238737    56.238737 
  384000    669.77336   -37402.141   -36615.434    1416.4406    181044.15    57.237139    56.241033    56.241033 
  385000    673.28975   -37407.146   -36616.309    1010.4439    181044.15    57.232439    56.243343    56.243343 
  386000    671.26908   -37402.029   -36613.565     1217.615    181044.15    57.227713    56.245665    56.245665 
  387000    670.29045   -37406.338   -36619.024    1404.4027    181044.15    57.222961       56.248       56.248 
  388000    669.46202   -37421.646   -36635.304    777.97638    181044.15    57.218183    56.250349    56.250349 
  389000     673.5138   -37411.716   -36620.615    1077.7197    181044.15     57.21338     56.25271     56.25271 
  390000    670.08026   -37400.469   -36613.402     1647.593    181044.15    57.208551    56.255084    56.255084 
  391000    673.26961   -37414.163   -36623.349    1146.9742    181044.15    57.203698     56.25747     56.25747 
  392000    672.99287   -37426.245   -36635.756    741.29249    181044.15    57.198819     56.25987     56.25987 
  393000    678.40857   -37408.875   -36612.025    1269.7824    181044.15    57.193915    56.262281    56.262281 
  394000    666.79291   -37407.513   -36624.307    1493.4651    181044.15    57.188987    56.264705    56.264705 
  395000    669.32678   -37412.224   -36626.042    1390.6678    181044.15    57.184035    56.267142    56.267142 
  396000    670.11509   -37418.826   -36631.717    1198.1813    181044.15    57.179058     56.26959     56.26959 
  397000    663.53657    -37424.62   -36645.238     747.1119    181044.15    57.174057    56.272051    56.272051 
  398000    670.62578   -37415.015   -36627.307    1081.9504    181044.15    57.169032    56.274524    56.274524 
  399000    670.80032   -37399.501   -36611.588    1492.7706    181044.15    57.163984    56.277009    56.277009 
  400000    663.06337    -37419.87   -36641.044    688.62814    181044.15    57.158913    56.279505    56.279505 
  401000    670.91409   -37406.534   -36618.487    1447.9917    181044.15    57.153818    56.282014    56.282014 
  402000    672.71167   -37424.907   -36634.748    722.88721    181044.15      57.1487    56.284534    56.284534 
  403000    669.88356   -37404.902   -36618.065    1381.5068    181044.15     57.14356    56.287065    56.287065 
  404000    657.54578   -37417.622   -36645.277    1143.5088    181044.15    57.138396    56.289608    56.289608 
  405000     668.3834   -37411.973   -36626.899    1155.1409    181044.15    57.133211    56.292163    56.292163 
  406000    675.53442   -37420.841   -36627.367    913.73087    181044.15    57.128003    56.294729    56.294729 
  407000    669.66374   -37411.362   -36624.784    1334.5981    181044.15    57.122773    56.297306    56.297306 
  408000    676.82936   -37407.422   -36612.427    1133.3206    181044.15    57.117522    56.299894    56.299894 
  409000    678.56704    -37407.78   -36610.744    1168.0967    181044.15    57.112249    56.302493    56.302493 
  410000    665.64521   -37402.745   -36620.887    1266.6697    181044.15    57.106954    56.305102    56.305102 
  411000    673.92144   -37424.076   -36632.497    781.66649    181044.15    57.101639    56.307723    56.307723 
  412000    672.04376   -37418.639   -36629.266    1177.7284    181044.15    57.096302    56.310354    56.310354 
  413000    665.98691   -37412.502   -36630.242     1287.943    181044.15    57.090945    56.312996    56.312996 
  414000    660.74345   -37429.849   -36653.748    882.56775    181044.15    57.085567    56.315649    56.315649 
  415000    659.68855   -37413.839   -36638.978    1163.5193    181044.15    57.080169    56.318312    56.318312 
  416000    656.25443     -37411.3   -36640.472    1209.0968    181044.15    57.074751    56.320985    56.320985 
  417000    670.97689    -37413.93   -36625.809    947.02216    181044.15    57.069313    56.323668    56.323668 
  418000    674.21829   -37418.173   -36626.245    1378.0421    181044.15    57.063855    56.326362    56.326362 
  419000    677.92987   -37407.712   -36611.424    1539.7836    181044.15    57.058378    56.329065    56.329065 
  420000    670.37545   -37414.612   -36627.198    1174.1396    181044.15    57.052881    56.331778    56.331778 
  421000    675.10428   -37424.171   -36631.202    784.23886    181044.15    57.047366    56.334501    56.334501 
  422000    655.53138   -37405.782   -36635.804    1412.2833    181044.15    57.041831    56.337234    56.337234 
  423000    669.83515   -37413.493   -36626.714    1206.8604    181044.15    57.036279    56.339976    56.339976 
  424000    669.56972   -37421.563   -36635.095    839.79621    181044.15    57.030707    56.342728    56.342728 
  425000     661.0559   -37400.738   -36624.271    1436.7884    181044.15    57.025118    56.345489    56.345489 
  426000    680.30586   -37406.952   -36607.873    1437.9992    181044.15    57.019511     56.34826     56.34826 
  427000    667.47824    -37404.78   -36620.768    1465.3574    181044.15    57.013886    56.351039    56.351039 
  428000    666.10806    -37407.54   -36625.138    1103.1078    181044.15    57.008243    56.353828    56.353828 
  429000    668.00893   -37417.437   -36632.803    988.16132    181044.15    57.002584    56.356626    56.356626 
  430000    677.15887   -37411.957   -36616.575    1322.0434    181044.15    56.996907    56.359432    56.359432 
  431000    677.95573   -37410.845   -36614.528    1414.6365    181044.15    56.991213    56.362247    56.362247 
  432000    675.48309   -37417.046   -36623.632     1013.423    181044.15    56.985503    56.365071    56.365071 
  433000    671.09037   -37417.028   -36628.774    1303.9913    181044.15    56.979777    56.367903    56.367903 
  434000    668.20743   -37430.701   -36645.833    803.88573    181044.15    56.974034    56.370744    56.370744 
  435000    668.92107   -37411.404   -36625.698    1194.1068    181044.15    56.968275    56.373593    56.373593 
  436000    669.13997   -37422.769   -36636.806    988.79604    181044.15    56.962501     56.37645     56.37645 
  437000    660.51717   -37415.978   -36640.143    1305.9959    181044.15    56.956711    56.379315    56.379315 
  438000    675.31364   -37428.989   -36635.774    692.56807    181044.15    56.950907    56.382189    56.382189 
  439000    660.03297   -37415.982   -36640.716    1113.3523    181044.15    56.945087     56.38507     56.38507 
  440000    674.90361   -37421.997   -36629.264    1034.2467    181044.15    56.939252    56.387959    56.387959 
  441000    658.24272    -37418.71   -36645.546      1119.55    181044.15    56.933403    56.390855    56.390855 
  442000    661.76516   -37405.955   -36628.654    1167.3597    181044.15    56.927539    56.393759    56.393759 
  443000    669.68691   -37415.544   -36628.939    888.42874    181044.15    56.921662    56.396671    56.396671 
  444000    669.93558   -37417.987   -36631.089    1249.7284    181044.15     56.91577    56.399589    56.399589 
  445000    673.29395   -37418.651   -36627.809    894.78685    181044.15    56.909865    56.402515    56.402515 
  446000    670.04316   -37415.789   -36628.765    1302.6363    181044.15    56.903947    56.405448    56.405448 
  447000    673.26479   -37416.845   -36626.037    1380.2857    181044.15    56.898016    56.408388    56.408388 
  448000    661.13581   -37406.129   -36629.567    1488.7965    181044.15    56.892071    56.411335    56.411335 
  449000        672.2   -37408.876   -36619.319    1417.0303    181044.15    56.886114    56.414289    56.414289 
  450000    675.25836   -37407.823   -36614.673    1270.3092    181044.15    56.880144    56.417249    56.417249 
  451000     683.0092   -37406.389   -36604.136    1627.8751    181044.15    56.874163    56.420216    56.420216 
  452000    667.70507   -37417.949   -36633.671     876.3096    181044.15    56.868169    56.423189    56.423189 
  453000    666.65608   -37408.816    -36625.77    1529.4495    181044.15    56.862164    56.426168    56.426168 
  454000    660.06133   -37413.728   -36638.429    1299.1043    181044.15    56.856147    56.429154    56.429154 
  455000    677.45955    -37422.56   -36626.825    916.69368    181044.15    56.850119    56.432146    56.432146 
  456000    670.37208   -37411.232   -36623.822    1445.1738    181044.15    56.844079    56.435143    56.435143 
  457000    663.76287   -37412.473   -36632.825    1228.6585    181044.15    56.838029    56.438147    56.438147 
  458000    669.65776   -37409.148   -36622.577    1338.7037    181044.15    56.831969    56.441156    56.441156 
  459000    657.70829   -37413.969   -36641.434    1108.9148    181044.15    56.825898    56.444171    56.444171 
  460000    663.38099   -37405.715   -36626.517     1462.511    181044.15    56.819817    56.447191    56.447191 
  461000    672.47156   -37421.147    -36631.27     993.6079    181044.15    56.813727    56.450217    56.450217 
  462000    675.53477   -37412.192   -36618.718     1335.903    181044.15    56.807626    56.453247    56.453247 
  463000    672.43958   -37420.402   -36630.563    1103.5004    181044.15    56.801517    56.456283    56.456283 
  464000    671.40895   -37416.673   -36628.045    1192.1902    181044.15    56.795398    56.459324    56.459324 
  465000    679.20129   -37420.784   -36623.003    1257.1917    181044.15    56.789271     56.46237     56.46237 
  466000    672.99384   -37405.151   -36614.662    1331.5103    181044.15    56.783135    56.465421    56.465421 
  467000    667.78003   -37399.325   -36614.959    1598.9255    181044.15     56.77699    56.468476    56.468476 
  468000    679.47256   -37419.399     -36621.3    964.85976    181044.15    56.770837    56.471536    56.471536 
  469000    666.89608   -37414.459   -36631.131    1162.2688    181044.15    56.764677      56.4746      56.4746 
  470000    673.75605   -37401.625    -36610.24      1842.24    181044.15    56.758509    56.477669    56.477669 
  471000    670.26439   -37415.433   -36628.149    985.19006    181044.15    56.752333    56.480742    56.480742 
  472000    669.06705   -37415.006   -36629.129    1145.8769    181044.15    56.746151    56.483818    56.483818 
  473000    671.60407   -37412.327    -36623.47    1283.8402    181044.15    56.739961    56.486899    56.486899 
  474000    677.73602   -37418.887   -36622.827    1207.4521    181044.15    56.733765    56.489984    56.489984 
  475000    674.82656   -37423.704   -36631.062    1215.4376    181044.15    56.727562    56.493072    56.493072 
  476000    668.97785   -37409.199   -36623.426    1098.7277    181044.15    56.721353    56.496164    56.496164 
  477000    664.34718   -37406.797   -36626.464    1181.9406    181044.15    56.715138    56.499259    56.499259 
  478000    663.31473   -37417.758   -36638.637    1048.0044    181044.15    56.708918    56.502358    56.502358 
  479000    670.09412   -37395.382   -36608.298    2005.5454    181044.15    56.702692     56.50546     56.50546 
  480000    665.36971   -37426.343   -36644.809    816.05226    181044.15    56.696461    56.508565    56.508565 
  481000       668.05   -37420.335   -36635.652    749.62163    181044.15    56.690225    56.511673    56.511673 
  482000    680.47201    -37407.36   -36608.087    1271.1633    181044.15    56.683984    56.514784    56.514784 
  483000    674.21526   -37418.313   -36626.389     855.8655    181044.15    56.677739    56.517897    56.517897 
  484000    663.38417   -37410.512    -36631.31    1332.4835    181044.15    56.671489    56.521013    56.521013 
  485000      660.873   -37414.929   -36638.676    1138.2001    181044.15    56.665236    56.524132    56.524132 
  486000    676.20787   -37418.998   -36624.733    1300.1269    181044.15    56.658979    56.527253    56.527253 
  487000    669.65214   -37409.859   -36623.294    1485.1757    181044.15    56.652718    56.530376    56.530376 
  488000    667.45217   -37430.295   -36646.314    892.90867    181044.15    56.646454    56.533502    56.533502 
  489000    675.77196   -37423.975   -36630.222    1159.0117    181044.15    56.640188    56.536629    56.536629 
  490000    663.52741   -37417.385   -36638.014    800.97909    181044.15    56.633918    56.539758    56.539758 
  491000     674.2622   -37417.557   -36625.577    1091.7253    181044.15    56.627646    56.542889    56.542889 
  492000    679.00815   -37409.661   -36612.107      1088.87    181044.15    56.621372    56.546022    56.546022 
  493000    669.20485   -37414.169    -36628.13    1299.9841    181044.15    56.615096    56.549156    56.549156 
  494000    674.13667   -37420.169   -36628.337    1043.2594    181044.15    56.608818    56.552292    56.552292 
  495000      676.042   -37405.762   -36611.692    1840.4133    181044.15    56.602538    56.555429    56.555429 
  496000    666.66117   -37412.728   -36629.677    1346.1288    181044.15    56.596258    56.558567    56.558567 
  497000     678.1196   -37414.286   -36617.775    1173.3677    181044.15    56.589976    56.561706    56.561706 
  498000    663.06656   -37412.401   -36633.572    1655.6652    181044.15    56.583694    56.564846    56.564846 
  499000     675.0111   -37411.937   -36619.077    1305.5687    181044.15    56.577411    56.567986    56.567986 
  500000    665.39347   -37409.905   -36628.342    1327.6036    181044.15    56.571127    56.571127    56.571127 
  501000    678.60115   -37413.835   -36616.759    1492.0917    181044.15    56.564844    56.574269    56.574269 
  502000    675.64434   -37412.996   -36619.393    1360.8131    181044.15    56.558561    56.577412    56.577412 
  503000    677.48873   -37408.331   -36612.561     1275.094    181044.15    56.552279    56.580554    56.580554 
  504000    679.45626   -37412.073   -36613.993    994.87837    181044.15    56.545997    56.583697    56.583697 
  505000    669.74601   -37418.412   -36631.737    1274.1974    181044.15    56.539717    56.586839    56.586839 
  506000    673.65328   -37405.508   -36614.243    1778.5157    181044.15    56.533437    56.589982    56.589982 
  507000    681.44615   -37413.117   -36612.699    1273.0955    181044.15    56.527159    56.593124    56.593124 
  508000    662.06921   -37412.743   -36635.085    1265.8493    181044.15    56.520883    56.596266    56.596266 
  509000     667.1919   -37413.615    -36629.94    1587.0745    181044.15    56.514609    56.599408    56.599408 
  510000     669.5086   -37402.491   -36616.095    1923.3604    181044.15    56.508337    56.602549    56.602549 
  511000    683.65703   -37424.385    -36621.37    1099.1525    181044.15    56.502067    56.605689    56.605689 
  512000    675.06516   -37407.643    -36614.72    1483.6137    181044.15    56.495801    56.608829    56.608829 
  513000    670.63859   -37408.686   -36620.963    1329.7084    181044.15    56.489537    56.611967    56.611967 
  514000    667.05689   -37411.513   -36627.996    1331.9284    181044.15    56.483276    56.615104    56.615104 
  515000    668.09425   -37416.859   -36632.124    1271.8211    181044.15    56.477019     56.61824     56.61824 
  516000    669.77721   -37417.713   -36631.001    921.19297    181044.15    56.470766    56.621375    56.621375 
  517000    662.69994   -37404.184   -36625.786     1584.949    181044.15    56.464516    56.624509    56.624509 
  518000    660.82142   -37435.921   -36659.729    522.06269    181044.15    56.458271     56.62764     56.62764 
  519000    675.84709   -37402.431    -36608.59    1595.2015    181044.15     56.45203     56.63077     56.63077 
  520000    665.63517   -37416.987    -36635.14    1005.2249    181044.15    56.445794    56.633898    56.633898 
  521000    669.00908   -37421.816   -36636.006    1054.2837    181044.15    56.439563    56.637025    56.637025 
  522000    671.39504   -37416.236   -36627.624    981.52811    181044.15    56.433337    56.640149    56.640149 
  523000    660.36828    -37412.74    -36637.08    1447.2491    181044.15    56.427117    56.643271    56.643271 
  524000    672.86496   -37414.386   -36624.048    1329.1978    181044.15    56.420902     56.64639     56.64639 
  525000    667.62652   -37422.835    -36638.65    1163.6309    181044.15    56.414693    56.649507    56.649507 
  526000    663.07318   -37418.038   -36639.201    1083.7015    181044.15     56.40849    56.652622    56.652622 
  527000    673.91304   -37414.504   -36622.935     1328.288    181044.15    56.402294    56.655734    56.655734 
  528000     676.4921   -37415.373   -36620.774    1202.6275    181044.15    56.396104    56.658843    56.658843 
  529000     671.1018   -37426.536   -36638.269    655.75273    181044.15    56.389922    56.661949    56.661949 
  530000    662.29134   -37412.583   -36634.664    1152.2337    181044.15    56.383746    56.665052    56.665052 
  531000     668.5582   -37424.057   -36638.778    721.16761    181044.15    56.377578    56.668151    56.668151 
  532000    674.60543    -37410.18   -36617.797     1585.826    181044.15    56.371418    56.671248    56.671248 
  533000    670.16829   -37411.239   -36624.068    1221.1416    181044.15    56.365265    56.674341    56.674341 
  534000    672.29026    -37411.89   -36622.226    1081.1536    181044.15     56.35912     56.67743     56.67743 
  535000    679.47306   -37427.919   -36629.819    883.79139    181044.15    56.352984    56.680516    56.680516 
  536000    658.71709   -37417.471   -36643.751    776.38793    181044.15    56.346857    56.683597    56.683597 
  537000    681.21696    -37423.16   -36623.011    1115.7361    181044.15    56.340738    56.686675    56.686675 
  538000    666.28071   -37417.228   -36634.624    1103.3834    181044.15    56.334628    56.689749    56.689749 
  539000    672.02832   -37406.325   -36616.969    1446.4941    181044.15    56.328528    56.692819    56.692819 
  540000    677.19221   -37415.193   -36619.772    1174.3598    181044.15    56.322438    56.695884    56.695884 
  541000    674.94657   -37413.201   -36620.417    1114.1872    181044.15    56.316357    56.698945    56.698945 
  542000    675.01006   -37415.045   -36622.187    1382.1283    181044.15    56.310286    56.702001    56.702001 
  543000      674.063   -37421.675   -36629.929    1265.6265    181044.15    56.304225    56.705053    56.705053 
  544000    677.24098   -37428.123   -36632.644     1108.526    181044.15    56.298176    56.708099    56.708099 
  545000    672.96032   -37406.849   -36616.398    1569.2299    181044.15    56.292136    56.711141    56.711141 
  546000    671.16207   -37400.115   -36611.777    1672.8431    181044.15    56.286108    56.714178    56.714178 
  547000    666.22355   -37406.967    -36624.43      1253.57    181044.15    56.280091    56.717209    56.717209 
  548000    671.60005   -37414.375   -36625.522    1172.2734    181044.15    56.274086    56.720236    56.720236 
  549000    679.22196   -37412.083   -36614.278    1175.5373    181044.15    56.268092    56.723257    56.723257 
  550000    667.74059   -37411.202   -36626.882    1433.1283    181044.15     56.26211    56.726272    56.726272 
  551000    661.26692   -37416.381   -36639.666    871.12923    181044.15    56.256141    56.729282    56.729282 
  552000     666.7612   -37404.822   -36621.653    1400.3794    181044.15    56.250184    56.732285    56.732285 
  553000    671.23866   -37421.737   -36633.309    1114.6707    181044.15    56.244239    56.735283    56.735283 
  554000    676.38741   -37420.497   -36626.021    801.80016    181044.15    56.238308    56.738275    56.738275 
  555000    674.32172   -37415.852   -36623.802    1096.5828    181044.15     56.23239    56.741261    56.741261 
  556000    668.84012   -37407.675   -36622.064     1372.253    181044.15    56.226485     56.74424     56.74424 
  557000    665.41393   -37420.977   -36639.391    1189.4851    181044.15    56.220593    56.747213    56.747213 
  558000     666.0295   -37423.554   -36641.245    682.03456    181044.15    56.214716     56.75018     56.75018 
  559000    665.49427   -37400.617   -36618.936     1715.679    181044.15    56.208852     56.75314     56.75314 
  560000    681.76366   -37405.564   -36604.774    1248.7862    181044.15    56.203003    56.756093    56.756093 
  561000    659.47863   -37414.886   -36640.271    1103.4582    181044.15    56.197168    56.759039    56.759039 
  562000    664.09011    -37405.71   -36625.679    1650.6757    181044.15    56.191348    56.761979    56.761979 
  563000    669.78369   -37407.972   -36621.252    1607.4017    181044.15    56.185543    56.764911    56.764911 
  564000     680.7302   -37414.315   -36614.738    1435.5424    181044.15    56.179754    56.767836    56.767836 
  565000    674.52896   -37420.949   -36628.656    1213.6547    181044.15     56.17398    56.770753    56.770753 
  566000    666.61552   -37407.015   -36624.018    1312.6649    181044.15    56.168221    56.773663    56.773663 
  567000     672.0628    -37405.23   -36615.834    1478.2816    181044.15    56.162478    56.776566    56.776566 
  568000    669.91931   -37408.042   -36621.164    1577.5693    181044.15    56.156752     56.77946     56.77946 
  569000     662.6821   -37406.791   -36628.413    1339.7109    181044.15    56.151042    56.782347    56.782347 
  570000    673.02554    -37408.61   -36618.083    1422.2291    181044.15    56.145348    56.785226    56.785226 
  571000    668.63567   -37400.822   -36615.451    1560.1588    181044.15    56.139671    56.788097    56.788097 
  572000     660.9671   -37400.438   -36624.075     1653.317    181044.15    56.134012     56.79096     56.79096 
  573000    671.48234     -37407.1   -36618.386    1503.0241    181044.15    56.128369    56.793815    56.793815 
  574000    666.05121   -37409.306   -36626.971     1491.428    181044.15    56.122744    56.796661    56.796661 
  575000    681.63686    -37410.59   -36609.948    1330.0077    181044.15    56.117137    56.799498    56.799498 
  576000    671.50448   -37401.893   -36613.152    1507.2773    181044.15    56.111548    56.802327    56.802327 
  577000    674.43933   -37412.881   -36620.694    1449.5087    181044.15    56.105976    56.805147    56.805147 
  578000    668.77866   -37419.707   -36634.169    1020.2233    181044.15    56.100424    56.807958    56.807958 
  579000     664.1115   -37396.504   -36616.447    1673.8116    181044.15    56.094889    56.810761    56.810761 
  580000    670.67157   -37411.631   -36623.869    1179.6139    181044.15    56.089374    56.813554    56.813554 
  581000    682.06725   -37412.445   -36611.298    1686.8579    181044.15    56.083877    56.816338    56.816338 
  582000    674.51707   -37424.182   -36631.903    909.22234    181044.15      56.0784    56.819112    56.819112 
  583000    670.35858   -37417.152   -36629.757    1141.2217    181044.15    56.072942    56.821877    56.821877 
  584000    661.15443   -37407.781   -36631.198    1280.6188    181044.15    56.067504    56.824633    56.824633 
  585000    663.73714   -37408.936   -36629.319    1228.2985    181044.15    56.062086    56.827379    56.827379 
  586000    673.72881   -37398.917   -36607.564    1516.0237    181044.15    56.056688    56.830115    56.830115 
  587000    670.49095   -37399.473   -36611.924    1656.1601    181044.15     56.05131    56.832841    56.832841 
  588000    667.36263   -37397.325   -36613.449    1583.7691    181044.15    56.045953    56.835557    56.835557 
  589000    665.28263   -37401.499   -36620.066    1648.5422    181044.15    56.040616    56.838263    56.838263 
  590000    664.09227   -37409.559   -36629.525    1209.4919    181044.15    56.035301    56.840959    56.840959 
  591000    676.18063   -37406.091   -36611.858    1331.4602    181044.15    56.030006    56.843645    56.843645 
  592000    673.14288   -37409.839   -36619.174     1054.752    181044.15    56.024733     56.84632     56.84632 
  593000    673.53528   -37415.034   -36623.909    1019.4489    181044.15    56.019482    56.848984    56.848984 
  594000    681.82536   -37422.904   -36622.041    1164.2337    181044.15    56.014252    56.851638    56.851638 
  595000    678.40137   -37409.383   -36612.541    1257.3043    181044.15    56.009044    56.854281    56.854281 
  596000    659.14363   -37405.577   -36631.355    1493.5823    181044.15    56.003859    56.856913    56.856913 
  597000    670.69727   -37411.318   -36623.525    1472.9219    181044.15    55.998695    56.859534    56.859534 
  598000    667.99399   -37410.057    -36625.44    1311.0124    181044.15    55.993555    56.862144    56.862144 
  599000    675.78723   -37399.719   -36605.948    1737.5684    181044.15    55.988437    56.864743    56.864743 
  600000    684.18561   -37400.559   -36596.923    1696.0675    181044.15    55.983342     56.86733     56.86733 
  601000    669.16153   -37423.179   -36637.191    785.90832    181044.15    55.978271    56.869906    56.869906 
  602000    671.34069    -37416.47   -36627.922    1281.1131    181044.15    55.973223    56.872471    56.872471 
  603000    668.08452   -37407.194   -36622.471    1233.7324    181044.15    55.968198    56.875024    56.875024 
  604000     666.6311   -37410.137    -36627.12    1308.1542    181044.15    55.963197    56.877565    56.877565 
  605000    675.29463   -37425.366   -36632.174    844.63382    181044.15     55.95822    56.880094    56.880094 
  606000    668.20782   -37408.777   -36623.909    1391.9533    181044.15    55.953268    56.882611    56.882611 
  607000     669.0186   -37403.184   -36617.364    1543.8628    181044.15     55.94834    56.885116    56.885116 
  608000     676.8349   -37400.416   -36605.415    1442.5324    181044.15    55.943436    56.887609    56.887609 
  609000    681.49923   -37392.868   -36592.388    1493.0156    181044.15    55.938557     56.89009     56.89009 
  610000    669.20556    -37409.89    -36623.85    1578.4547    181044.15    55.933703    56.892558    56.892558 
  611000    670.65877   -37418.115   -36630.368    1361.2115    181044.15    55.928875    56.895014    56.895014 
  612000    679.53292   -37413.768   -36615.597    1374.3429    181044.15    55.924072    56.897458    56.897458 
  613000    664.58282     -37405.8    -36625.19    1245.7017    181044.15    55.919294    56.899888    56.899888 
  614000    657.72547   -37400.213   -36627.657    1436.9977    181044.15    55.914542    56.902306    56.902306 
  615000    675.05188   -37407.851   -36614.944    1666.5105    181044.15    55.909816    56.904711    56.904711 
  616000    673.49757   -37410.532   -36619.451    1271.2411    181044.15    55.905116    56.907103    56.907103 
  617000    664.81689   -37400.944   -36620.059    1737.6802    181044.15    55.900442    56.909482    56.909482 
  618000    654.25573   -37405.802   -36637.322    1414.2552    181044.15    55.895795    56.911848    56.911848 
  619000    672.76948   -37398.424   -36608.197    1819.2242    181044.15    55.891174      56.9142      56.9142 
  620000     673.3659   -37397.037    -36606.11     1650.504    181044.15     55.88658    56.916539    56.916539 
  621000    676.13557   -37410.857   -36616.677      1484.81    181044.15    55.882014    56.918865    56.918865 
  622000    670.11081   -37425.708   -36638.605    880.93706    181044.15    55.877474    56.921177    56.921177 
  623000    666.26481   -37408.963   -36626.377    1139.2875    181044.15    55.872962    56.923475    56.923475 
  624000    668.35258   -37413.595   -36628.557    1436.0776    181044.15    55.868478    56.925759    56.925759 
  625000    661.13383   -37396.185   -36619.626    1545.1762    181044.15    55.864021     56.92803     56.92803 
  626000     673.8345   -37411.238   -36619.761    1527.4684    181044.15    55.859592    56.930287    56.930287 
  627000    680.63506   -37399.533   -36600.068    1737.0628    181044.15    55.855191     56.93253     56.93253 
  628000    661.61295   -37398.132    -36621.01    1840.0822    181044.15    55.850818    56.934758    56.934758 
  629000    661.88718   -37399.713   -36622.269    1718.4547    181044.15    55.846474    56.936973    56.936973 
  630000    663.35428   -37403.515   -36624.347    1639.8437    181044.15    55.842159    56.939173    56.939173 
  631000    671.88088   -37423.369   -36634.187    870.66594    181044.15    55.837872    56.941358    56.941358 
  632000    668.62198    -37400.47   -36615.115    1628.8284    181044.15    55.833614    56.943529    56.943529 
  633000    678.02601    -37409.05   -36612.649    1568.2256    181044.15    55.829386    56.945686    56.945686 
  634000    670.46324   -37409.898   -36622.381    1484.1688    181044.15    55.825186    56.947828    56.947828 
  635000     667.6944   -37414.879   -36630.614    737.27507    181044.15    55.821016    56.949955    56.949955 
  636000    669.10481   -37409.364   -36623.442    1321.7698    181044.15    55.816876    56.952067    56.952067 
  637000    670.97038     -37408.1   -36619.987     1373.884    181044.15    55.812766    56.954164    56.954164 
  638000    661.78139   -37409.363   -36632.043    1399.7441    181044.15    55.808685    56.956246    56.956246 
  639000     666.1274   -37414.463   -36632.038    1266.2951    181044.15    55.804634    56.958313    56.958313 
  640000    670.59948   -37396.423   -36608.745    1745.9322    181044.15    55.800614    56.960365    56.960365 
  641000    666.04774    -37403.72   -36621.389    1571.4807    181044.15    55.796624    56.962401    56.962401 
  642000    670.32486    -37407.14   -36619.785    1470.1837    181044.15    55.792665    56.964422    56.964422 
  643000    665.64804   -37404.662   -36622.801    1833.4433    181044.15    55.788737    56.966428    56.966428 
  644000    669.22672   -37397.603   -36611.538    1618.7954    181044.15    55.784839    56.968418    56.968418 
  645000    669.25356   -37415.356   -36629.259    1381.2173    181044.15    55.780972    56.970392    56.970392 
  646000    684.89858   -37392.369   -36587.896    1934.2423    181044.15    55.777137    56.972351    56.972351 
  647000    668.92943   -37403.883   -36618.167     1367.482    181044.15    55.773333    56.974294    56.974294 
  648000     663.1094   -37398.828   -36619.949    1675.4068    181044.15    55.769561    56.976221    56.976221 
  649000      678.458    -37412.87   -36615.962    1474.4965    181044.15     55.76582    56.978132    56.978132 
  650000    671.31834   -37411.361   -36622.839      1504.76    181044.15     55.76211    56.980027    56.980027 
  651000    663.39106   -37392.322   -36613.112    1829.9312    181044.15    55.758433    56.981906    56.981906 
  652000    663.01518   -37403.935   -36625.166    1548.0422    181044.15    55.754788    56.983768    56.983768 
  653000    670.26984   -37400.728   -36613.438      1710.48    181044.15    55.751175    56.985615    56.985615 
  654000    674.69217   -37392.046   -36599.561    1935.2535    181044.15    55.747595    56.987445    56.987445 
  655000    671.77244   -37399.982   -36610.927    1622.9862    181044.15    55.744047    56.989258    56.989258 
  656000    667.93723   -37403.091    -36618.54    1416.0551    181044.15    55.740532    56.991055    56.991055 
  657000    672.42831   -37398.457   -36608.632    1901.1974    181044.15    55.737049    56.992836    56.992836 
  658000    666.14517   -37399.706    -36617.26    1667.9009    181044.15    55.733599    56.994599    56.994599 
  659000    678.60945   -37412.776   -36615.691    1428.6515    181044.15    55.730183    56.996346    56.996346 
  660000    668.07747   -37405.115     -36620.4    1445.2249    181044.15      55.7268    56.998077    56.998077 
  661000     664.6398   -37397.379   -36616.702      1547.49    181044.15     55.72345     56.99979     56.99979 
  662000    660.09946   -37398.299   -36622.955    1546.1244    181044.15    55.720133    57.001486    57.001486 
  663000    659.01169   -37406.985   -36632.918     1344.364    181044.15     55.71685    57.003166    57.003166 
  664000    663.17016   -37401.152   -36622.201    1898.0827    181044.15    55.713601    57.004828    57.004828 
  665000    676.27356   -37408.877   -36614.535     1702.307    181044.15    55.710385    57.006473    57.006473 
  666000    674.94435    -37398.31   -36605.529    2068.2479    181044.15    55.707204    57.008101    57.008101 
  667000    673.24941   -37404.724   -36613.934    1436.1181    181044.15    55.704057    57.009711    57.009711 
  668000    666.58585   -37410.828   -36627.865    1515.6328    181044.15    55.700944    57.011304    57.011304 
  669000    673.22262   -37398.129    -36607.37    1831.7356    181044.15    55.697865     57.01288     57.01288 
  670000    662.51806   -37405.987   -36627.802    1414.7493    181044.15    55.694821    57.014438    57.014438 
  671000    677.47133   -37398.079    -36602.33    1725.1567    181044.15    55.691811    57.015978    57.015978 
  672000    662.75967    -37422.67   -36644.202    908.11174    181044.15    55.688836    57.017501    57.017501 
  673000    674.12091   -37404.105   -36612.292    1603.8551    181044.15    55.685896    57.019006    57.019006 
  674000    671.54418   -37403.829   -36615.042    1460.9845    181044.15    55.682991    57.020494    57.020494 
  675000    673.41148   -37409.205   -36618.224     1198.902    181044.15    55.680121    57.021963    57.021963 
  676000     661.6726   -37397.724   -36620.532    1875.6785    181044.15    55.677286    57.023415    57.023415 
  677000    680.07795   -37394.644   -36595.833    1948.0658    181044.15    55.674486    57.024849    57.024849 
  678000     665.1818   -37401.406   -36620.092    1222.3023    181044.15    55.671722    57.026264    57.026264 
  679000    681.29876   -37404.345     -36604.1    1839.0123    181044.15    55.668994    57.027662    57.027662 
  680000    673.61385   -37412.968    -36621.75    1313.4525    181044.15      55.6663    57.029041    57.029041 
  681000    670.16559   -37398.564   -36611.397    1310.6815    181044.15    55.663643    57.030403    57.030403 
  682000    670.95068   -37407.899   -36619.809    1560.5379    181044.15    55.661022    57.031746    57.031746 
[...]
 9838000    673.43184   -37406.643   -36615.638    1403.7759    181044.15    55.720133    57.001486    57.001486 
 9839000    667.18273   -37402.275    -36618.61    1498.2429    181044.15     55.72345     56.99979     56.99979 
 9840000    674.67247   -37405.488   -36613.027    1400.2484    181044.15      55.7268    56.998077    56.998077 
 9841000    672.01896   -37409.619   -36620.275     1183.182    181044.15    55.730183    56.996346    56.996346 
 9842000    675.96929   -37401.102   -36607.117    1494.4092    181044.15    55.733599    56.994599    56.994599 
 9843000     677.1979   -37402.114   -36606.686    1559.2887    181044.15    55.737049    56.992836    56.992836 
 9844000    656.28125   -37405.519   -36634.659    1303.4581    181044.15    55.740532    56.991055    56.991055 
 9845000    660.95168    -37404.03   -36627.685    1432.1155    181044.15    55.744047    56.989258    56.989258 
 9846000    672.36927   -37406.365   -36616.608    1335.4538    181044.15    55.747595    56.987445    56.987445 
 9847000    663.21484   -37410.541   -36631.538    1310.0062    181044.15    55.751175    56.985615    56.985615 
 9848000    674.68031    -37399.07   -36606.599    1547.4871    181044.15    55.754788    56.983768    56.983768 
 9849000    666.84314   -37405.981   -36622.716    1270.2422    181044.15    55.758433    56.981906    56.981906 
 9850000    673.41959   -37394.576   -36603.586    1769.1029    181044.15     55.76211    56.980027    56.980027 
 9851000    660.89682   -37401.551    -36625.27    1575.1168    181044.15     55.76582    56.978132    56.978132 
 9852000    671.47874   -37422.281   -36633.571    847.81011    181044.15    55.769561    56.976221    56.976221 
 9853000    672.62328   -37407.105   -36617.051    1104.8236    181044.15    55.773333    56.974294    56.974294 
 9854000    680.87634   -37405.339   -36605.591    1524.9201    181044.15    55.777137    56.972351    56.972351 
 9855000    678.99085   -37403.393    -36605.86    1290.1117    181044.15    55.780972    56.970392    56.970392 
 9856000    665.91831   -37407.365   -36625.186    1533.3297    181044.15    55.784839    56.968418    56.968418 
 9857000     671.4962    -37399.87   -36611.139    1501.6286    181044.15    55.788737    56.966428    56.966428 
 9858000    675.35852   -37390.692   -36597.425    1816.2333    181044.15    55.792665    56.964422    56.964422 
 9859000    670.28585   -37400.785   -36613.476    1685.4081    181044.15    55.796624    56.962401    56.962401 
 9860000    668.95044   -37399.117   -36613.376    1289.7007    181044.15    55.800614    56.960365    56.960365 
 9861000    669.68676   -37409.719   -36623.114    1064.6526    181044.15    55.804634    56.958313    56.958313 
 9862000    674.46411   -37407.136   -36614.919    1329.1528    181044.15    55.808685    56.956246    56.956246 
 9863000    667.12886   -37401.762   -36618.161    1450.5771    181044.15    55.812766    56.954164    56.954164 
 9864000    677.51099   -37405.501   -36609.705    1397.2891    181044.15    55.816876    56.952067    56.952067 
 9865000      660.052   -37415.769    -36640.48    1098.8019    181044.15    55.821016    56.949955    56.949955 
 9866000    663.25011   -37412.488   -36633.443     1031.635    181044.15    55.825186    56.947828    56.947828 
 9867000    666.41443   -37416.677   -36633.915    850.35837    181044.15    55.829386    56.945686    56.945686 
 9868000    667.81842   -37404.594   -36620.183    1461.0405    181044.15    55.833614    56.943529    56.943529 
 9869000    670.40139   -37393.998   -36606.553    1757.5565    181044.15    55.837872    56.941358    56.941358 
 9870000    668.50885   -37406.749   -36621.527    1559.5259    181044.15    55.842159    56.939173    56.939173 
 9871000    671.17398   -37409.497   -36621.145    1472.9926    181044.15    55.846474    56.936973    56.936973 
 9872000    677.83239   -37400.327   -36604.154     1453.635    181044.15    55.850818    56.934758    56.934758 
 9873000    668.65457   -37408.634   -36623.241    1126.1959    181044.15    55.855191     56.93253     56.93253 
 9874000    667.87523   -37416.111   -36631.634    1032.8682    181044.15    55.859592    56.930287    56.930287 
 9875000    665.32363   -37404.172   -36622.692    1388.5834    181044.15    55.864021     56.92803     56.92803 
 9876000    674.02317   -37415.855   -36624.157    850.94291    181044.15    55.868478    56.925759    56.925759 
 9877000    672.78495   -37402.793   -36612.548    1489.3816    181044.15    55.872962    56.923475    56.923475 
 9878000    672.15919   -37392.944   -36603.435    1729.3634    181044.15    55.877474    56.921177    56.921177 
 9879000    663.05906    -37422.06    -36643.24    925.22229    181044.15    55.882014    56.918865    56.918865 
 9880000    674.16969   -37422.767   -36630.896     936.8724    181044.15     55.88658    56.916539    56.916539 
 9881000    669.59475    -37407.65   -36621.153    1277.3236    181044.15    55.891174      56.9142      56.9142 
 9882000    665.98279   -37399.135   -36616.881    1604.3201    181044.15    55.895795    56.911848    56.911848 
 9883000    661.74524   -37411.695   -36634.418    1159.2777    181044.15    55.900442    56.909482    56.909482 
 9884000    673.65628   -37411.058    -36619.79     1288.155    181044.15    55.905116    56.907103    56.907103 
 9885000     670.8759   -37398.328   -36610.326    1410.9349    181044.15    55.909816    56.904711    56.904711 
 9886000    668.41135   -37409.985   -36624.878    1068.9935    181044.15    55.914542    56.902306    56.902306 
 9887000    660.28928   -37416.078   -36640.511    1003.6254    181044.15    55.919294    56.899888    56.899888 
 9888000    672.13767   -37406.741   -36617.257    1115.6365    181044.15    55.924072    56.897458    56.897458 
 9889000    671.23984   -37401.269    -36612.84    1913.3504    181044.15    55.928875    56.895014    56.895014 
 9890000    665.62877   -37406.057   -36624.218    1227.1324    181044.15    55.933703    56.892558    56.892558 
 9891000    668.87777   -37409.338   -36623.682    1226.1579    181044.15    55.938557     56.89009     56.89009 
 9892000     657.9207   -37409.427   -36636.642    1132.7319    181044.15    55.943436    56.887609    56.887609 
 9893000    669.50178   -37403.685   -36617.297    1399.2434    181044.15     55.94834    56.885116    56.885116 
 9894000    677.24991   -37402.177   -36606.688     1351.212    181044.15    55.953268    56.882611    56.882611 
 9895000    670.90789   -37410.032   -36621.993    1165.6977    181044.15     55.95822    56.880094    56.880094 
 9896000     661.2496   -37396.758   -36620.062    1559.2676    181044.15    55.963197    56.877565    56.877565 
 9897000    663.23436   -37411.456    -36632.43     1475.653    181044.15    55.968198    56.875024    56.875024 
 9898000     672.7227    -37414.36   -36624.188    1234.2253    181044.15    55.973223    56.872471    56.872471 
 9899000    666.69066    -37417.94   -36634.853    907.99526    181044.15    55.978271    56.869906    56.869906 
 9900000    661.56374   -37415.274    -36638.21    899.69302    181044.15    55.983342     56.86733     56.86733 
 9901000     680.4397   -37399.045    -36599.81    1513.2978    181044.15    55.988437    56.864743    56.864743 
 9902000    658.39702   -37411.191   -36637.847    1093.4108    181044.15    55.993555    56.862144    56.862144 
 9903000    681.41422   -37409.361   -36608.981    1107.2838    181044.15    55.998695    56.859534    56.859534 
 9904000    679.36212   -37405.744   -36607.774    1357.3795    181044.15    56.003859    56.856913    56.856913 
 9905000    670.52655   -37408.093   -36620.502    1202.2481    181044.15    56.009044    56.854281    56.854281 
 9906000    673.57894   -37408.746   -36617.569    1477.9688    181044.15    56.014252    56.851638    56.851638 
 9907000    663.32101   -37403.627   -36624.499    1571.2021    181044.15    56.019482    56.848984    56.848984 
 9908000    675.96445   -37412.578   -36618.599    1292.4954    181044.15    56.024733     56.84632     56.84632 
 9909000     681.3368   -37392.853   -36592.564    1771.5847    181044.15    56.030006    56.843645    56.843645 
 9910000     675.0437   -37411.617   -36618.719    1392.1546    181044.15    56.035301    56.840959    56.840959 
 9911000    669.84519   -37397.642   -36610.851    1339.6955    181044.15    56.040616    56.838263    56.838263 
 9912000    669.21866    -37402.54   -36616.485     1346.281    181044.15    56.045953    56.835557    56.835557 
 9913000    666.98225   -37404.507   -36621.079    1483.6434    181044.15     56.05131    56.832841    56.832841 
 9914000    661.08798   -37411.972   -36635.467    1156.2401    181044.15    56.056688    56.830115    56.830115 
 9915000    671.01696   -37411.714   -36623.546     1488.429    181044.15    56.062086    56.827379    56.827379 
 9916000    672.52001   -37394.045   -36604.111     1650.466    181044.15    56.067504    56.824633    56.824633 
 9917000    663.98599   -37413.212   -36633.303    1076.1272    181044.15    56.072942    56.821877    56.821877 
 9918000    671.52225   -37416.624   -36627.863    743.74574    181044.15      56.0784    56.819112    56.819112 
 9919000    675.52448   -37406.675   -36613.213    1216.2566    181044.15    56.083877    56.816338    56.816338 
 9920000    673.32102   -37413.702   -36622.828    1164.9158    181044.15    56.089374    56.813554    56.813554 
 9921000    671.21895   -37424.418   -36636.013    732.60215    181044.15    56.094889    56.810761    56.810761 
 9922000    675.20141   -37403.632    -36610.55    1439.8483    181044.15    56.100424    56.807958    56.807958 
 9923000    666.24654   -37409.783   -36627.218    1037.8871    181044.15    56.105976    56.805147    56.805147 
 9924000    672.83747   -37409.282   -36618.976    1172.9032    181044.15    56.111548    56.802327    56.802327 
 9925000    673.04891   -37401.463   -36610.909    1343.6248    181044.15    56.117137    56.799498    56.799498 
 9926000    677.83818   -37410.731   -36614.551    1178.0165    181044.15    56.122744    56.796661    56.796661 
 9927000    668.72112   -37407.359   -36621.888    959.86997    181044.15    56.128369    56.793815    56.793815 
 9928000    669.16724   -37416.002   -36630.007    1241.6166    181044.15    56.134012     56.79096     56.79096 
 9929000    673.15179   -37415.053   -36624.377    1230.0752    181044.15    56.139671    56.788097    56.788097 
 9930000    663.84871   -37406.127   -36626.379    1313.6856    181044.15    56.145348    56.785226    56.785226 
 9931000    667.69136   -37399.091    -36614.83     1453.163    181044.15    56.151042    56.782347    56.782347 
 9932000     674.4576   -37408.198   -36615.988    1313.2195    181044.15    56.156752     56.77946     56.77946 
 9933000    675.98457   -37407.704   -36613.701    1428.8932    181044.15    56.162478    56.776566    56.776566 
 9934000      670.469   -37418.244    -36630.72    906.51964    181044.15    56.168221    56.773663    56.773663 
 9935000    663.71715   -37399.616   -36620.023    1292.1818    181044.15     56.17398    56.770753    56.770753 
 9936000    672.14413     -37418.8   -36629.308    1072.8889    181044.15    56.179754    56.767836    56.767836 
 9937000    671.58584    -37410.81   -36621.974    1401.4212    181044.15    56.185543    56.764911    56.764911 
 9938000    657.57219   -37398.558   -36626.182    1352.9443    181044.15    56.191348    56.761979    56.761979 
 9939000    671.90338   -37410.771   -36621.562    1037.6095    181044.15    56.197168    56.759039    56.759039 
 9940000    663.52738   -37416.283   -36636.912    1124.2576    181044.15    56.203003    56.756093    56.756093 
 9941000    672.46182   -37408.123   -36618.258    1468.0627    181044.15    56.208852     56.75314     56.75314 
 9942000     663.2199   -37412.438   -36633.428       1087.8    181044.15    56.214716     56.75018     56.75018 
 9943000    672.67449   -37393.957   -36603.842    1713.7609    181044.15    56.220593    56.747213    56.747213 
 9944000    668.35212   -37410.105   -36625.067    1115.9304    181044.15    56.226485     56.74424     56.74424 
 9945000    671.88959    -37400.19   -36610.997    1536.1989    181044.15     56.23239    56.741261    56.741261 
 9946000    677.53242   -37410.968   -36615.147    1289.0793    181044.15    56.238308    56.738275    56.738275 
 9947000    666.60396    -37412.37   -36629.386    1250.9956    181044.15    56.244239    56.735283    56.735283 
 9948000    678.96407   -37424.452    -36626.95    1089.0131    181044.15    56.250184    56.732285    56.732285 
 9949000    660.74399    -37403.86   -36627.759     1336.383    181044.15    56.256141    56.729282    56.729282 
 9950000    667.83202   -37408.963   -36624.536     1256.991    181044.15     56.26211    56.726272    56.726272 
 9951000    663.86368   -37417.966   -36638.201    929.96821    181044.15    56.268092    56.723257    56.723257 
 9952000    666.45417   -37417.631   -36634.823    1201.6218    181044.15    56.274086    56.720236    56.720236 
 9953000    662.63822   -37421.838   -36643.511    949.68392    181044.15    56.280091    56.717209    56.717209 
 9954000    666.46192   -37403.878   -36621.061     1576.976    181044.15    56.286108    56.714178    56.714178 
 9955000    679.66184   -37415.126   -36616.805     1097.252    181044.15    56.292136    56.711141    56.711141 
 9956000    669.14905   -37403.686   -36617.712    1337.0434    181044.15    56.298176    56.708099    56.708099 
 9957000    679.65308   -37423.175   -36624.863    682.57416    181044.15    56.304225    56.705053    56.705053 
 9958000    670.79897   -37409.216   -36621.305    1569.9955    181044.15    56.310286    56.702001    56.702001 
 9959000    668.82648   -37418.337   -36632.743    1038.4171    181044.15    56.316357    56.698945    56.698945 
 9960000    659.04028   -37413.519   -36639.419    1080.4176    181044.15    56.322438    56.695884    56.695884 
 9961000    674.45969   -37416.986   -36624.775    739.91631    181044.15    56.328528    56.692819    56.692819 
 9962000    662.72611   -37411.198   -36632.768     1166.357    181044.15    56.334628    56.689749    56.689749 
 9963000    669.37059   -37408.149   -36621.915    1462.9642    181044.15    56.340738    56.686675    56.686675 
 9964000    672.50476   -37413.537   -36623.622    1077.3815    181044.15    56.346857    56.683597    56.683597 
 9965000    662.92162   -37421.516   -36642.857       1046.4    181044.15    56.352984    56.680516    56.680516 
 9966000    664.72877     -37413.2   -36632.419    1450.2946    181044.15     56.35912     56.67743     56.67743 
 9967000     677.9282   -37412.522   -36616.236     1317.905    181044.15    56.365265    56.674341    56.674341 
 9968000    662.49697   -37414.419   -36636.258    1185.3882    181044.15    56.371418    56.671248    56.671248 
 9969000    673.02706   -37397.274   -36606.745    1738.3877    181044.15    56.377578    56.668151    56.668151 
 9970000    666.67685   -37395.779   -36612.709     1706.096    181044.15    56.383746    56.665052    56.665052 
 9971000    677.53635    -37417.51   -36621.685    1238.7041    181044.15    56.389922    56.661949    56.661949 
 9972000    672.00593   -37409.125   -36619.796      1312.15    181044.15    56.396104    56.658843    56.658843 
 9973000    667.64575   -37409.336   -36625.128    1237.9571    181044.15    56.402294    56.655734    56.655734 
 9974000    661.58867   -37412.094   -36635.001    967.01509    181044.15     56.40849    56.652622    56.652622 
 9975000    663.38962   -37400.045   -36620.836    1440.8543    181044.15    56.414693    56.649507    56.649507 
 9976000    670.69302   -37410.904   -36623.117    1313.6263    181044.15    56.420902     56.64639     56.64639 
 9977000    675.39274   -37396.871   -36603.564    1547.6626    181044.15    56.427117    56.643271    56.643271 
 9978000    674.41852   -37406.774    -36614.61    1414.2051    181044.15    56.433337    56.640149    56.640149 
 9979000    668.70169   -37418.419   -36632.971    994.47955    181044.15    56.439563    56.637025    56.637025 
 9980000     670.8382    -37407.75   -36619.792    1290.0763    181044.15    56.445794    56.633898    56.633898 
 9981000    665.95364   -37420.878   -36638.658    825.70731    181044.15     56.45203     56.63077     56.63077 
 9982000    665.31677   -37396.564   -36615.092    1349.9868    181044.15    56.458271     56.62764     56.62764 
 9983000    664.58167   -37411.087   -36630.478    959.89158    181044.15    56.464516    56.624509    56.624509 
 9984000    660.21833   -37408.697   -36633.213    1381.0761    181044.15    56.470766    56.621375    56.621375 
 9985000    672.17726   -37419.554   -36630.024    1124.2622    181044.15    56.477019     56.61824     56.61824 
 9986000    663.63574   -37418.193   -36638.695    862.18802    181044.15    56.483276    56.615104    56.615104 
 9987000    670.02562   -37404.422   -36617.419    1493.9769    181044.15    56.489537    56.611967    56.611967 
 9988000    666.01909   -37415.092   -36632.795    910.03945    181044.15    56.495801    56.608829    56.608829 
 9989000    665.77407   -37421.556   -36639.546    652.47078    181044.15    56.502067    56.605689    56.605689 
 9990000    653.83215   -37404.074   -36636.092    1202.9443    181044.15    56.508337    56.602549    56.602549 
 9991000    668.71867   -37412.531   -36627.063    1056.0071    181044.15    56.514609    56.599408    56.599408 
 9992000    665.19265   -37403.548   -36622.221    1433.0102    181044.15    56.520883    56.596266    56.596266 
 9993000     672.6809   -37403.972   -36613.849    1366.4808    181044.15    56.527159    56.593124    56.593124 
 9994000    670.88051   -37415.043   -36627.035    955.02079    181044.15    56.533437    56.589982    56.589982 
 9995000    664.27728   -37414.163   -36633.912    1007.0202    181044.15    56.539717    56.586839    56.586839 
 9996000    668.04337    -37414.56   -36629.885    1053.1822    181044.15    56.545997    56.583697    56.583697 
 9997000    676.77749   -37423.743   -36628.809     1063.043    181044.15    56.552279    56.580554    56.580554 
 9998000    671.50523    -37408.49   -36619.749    1265.3203    181044.15    56.558561    56.577412    56.577412 
 9999000    667.29507   -37411.756    -36627.96    1121.9674    181044.15    56.564844    56.574269    56.574269 
10000000    663.97564   -37421.388   -36641.491    700.57019    181044.15    56.571127    56.571127    56.571127 
Loop time of 4838.18 on 48 procs for 10000000 steps with 9088 atoms

Performance: 1785.796 ns/day, 0.013 hours/ns, 2066.894 timesteps/s
99.3% CPU use with 48 MPI tasks x 1 OpenMP threads

MPI task timing breakdown:
Section |  min time  |  avg time  |  max time  |%varavg| %total
---------------------------------------------------------------
Pair    | 3291.9     | 3394.2     | 3525.2     |  87.0 | 70.15
Neigh   | 240.79     | 262.41     | 289.55     |  71.4 |  5.42
Comm    | 654.74     | 767.77     | 889.67     | 176.8 | 15.87
Output  | 0.50798    | 0.54915    | 2.1885     |  32.3 |  0.01
Modify  | 326.66     | 352.47     | 402.15     |  98.8 |  7.29
Other   |            | 60.8       |            |       |  1.26

Nlocal:        189.333 ave         197 max         178 min
Histogram: 1 0 2 4 11 5 9 9 5 2
Nghost:        2085.50 ave        2111 max        2056 min
Histogram: 1 2 2 4 7 15 9 5 2 1
Neighs:        19747.8 ave       20993 max       18642 min
Histogram: 3 3 6 8 12 2 5 4 3 2

Total # of neighbors = 947892
Ave neighs/atom = 104.30150
Neighbor list builds = 1632831
Dangerous builds = 0
write_restart rst.${T}
write_restart rst.670
System init for write_restart ...
clear
OMP_NUM_THREADS environment is not set. Defaulting to 1 thread. (../comm.cpp:94)
  using 1 OpenMP thread(s) per MPI task
package intel 1
jump dms650.lmp
#MD-DMS by Ha-Bin Yu
variable T equal 650
log log.${T}
log log.650
