units           metal
boundary        p p p
atom_style      atomic
read_data      ../../data/T${T}.dat
read_data      ../../data/T400.dat
Reading data file ...
  orthogonal box = (-0.22619405 -0.22619405 -0.22619405) to (56.110687 56.110687 56.110687)
  4 by 3 by 4 MPI processor grid
  reading atoms ...
  9088 atoms
  reading velocities ...
  9088 velocities
  read_data CPU = 0.066 seconds
mass            1  26.98	#Al
mass            2  150.36	#Sm
pair_style      eam/fs
pair_coeff      * *  ../../Al90Sm10_MendelevM_2014.eam.fs  Al Sm

neighbor        2.0 bin
neigh_modify    delay 1

timestep 0.01
thermo 1000
reset_timestep 0
thermo_style custom step temp pe etotal press vol lx ly lz
fix             1 all nvt temp ${T} ${T} 0.1
fix             1 all nvt temp 400 ${T} 0.1
fix             1 all nvt temp 400 400 0.1
thermo_modify flush yes
fix nodrift all momentum 1  linear 1 1 1
fix com_seed all recenter INIT INIT INIT shift all
fix dsf all deform 1 x  wiggle 1.0  10000.0 y volume z volume units box
fix ps1 all ave/time 1 1 10000 c_thermo_press[1] c_thermo_press[2]  c_thermo_press[3] c_thermo_press[4]  c_thermo_press[5] c_thermo_press[6]  file  stress.${T}
fix ps1 all ave/time 1 1 10000 c_thermo_press[1] c_thermo_press[2]  c_thermo_press[3] c_thermo_press[4]  c_thermo_press[5] c_thermo_press[6]  file  stress.400
dump            1 all custom 1000000 dump.${T} id type x y z
dump            1 all custom 1000000 dump.400 id type x y z
dump_modify 1 sort id
run 10000000
Neighbor list info ...
  update every 1 steps, delay 1 steps, check yes
  max neighbors/atom: 2000, page size: 100000
  master list distance cutoff = 10
  ghost atom cutoff = 10
  binsize = 5, bins = 12 12 12
  1 neighbor lists, perpetual/occasional/extra = 1 0 0
  (1) pair eam/fs/intel, perpetual
      attributes: half, newton on, intel
      pair build: half/bin/newton/intel
      stencil: half/bin/3d/newton
      bin: intel
Per MPI rank memory allocation (min/avg/max) = 6.330 | 6.397 | 6.460 Mbytes
Step Temp PotEng TotEng Press Volume Lx Ly Lz 
       0    402.24802   -37816.711   -37344.235   -429.80525    178804.48    56.336881    56.336881    56.336881 
    1000     396.4777   -37794.583   -37328.886    111.81204    178804.48    56.343164    56.333739    56.333739 
    2000    398.04919   -37791.668   -37324.124    367.62217    178804.48    56.349447    56.330599    56.330599 
    3000    399.76882   -37790.081   -37320.518    376.98763    178804.48    56.355729    56.327459    56.327459 
    4000    394.50064   -37794.757   -37331.382    109.86707    178804.48    56.362011     56.32432     56.32432 
    5000    396.20579   -37789.597   -37324.218    174.17422    178804.48    56.368291    56.321182    56.321182 
    6000    403.02056   -37790.303    -37316.92    344.44306    178804.48    56.374571    56.318045    56.318045 
    7000    403.67374   -37790.162   -37316.012    376.98467    178804.48    56.380849     56.31491     56.31491 
    8000    398.52231   -37787.368   -37319.269     440.7394    178804.48    56.387125    56.311775    56.311775 
    9000    400.88298   -37787.453   -37316.581    474.36613    178804.48    56.393399    56.308643    56.308643 
   10000    402.79234   -37790.992   -37317.877    45.613081    178804.48    56.399671    56.305512    56.305512 
   11000     402.0029   -37787.348    -37315.16    272.02185    178804.48    56.405941    56.302382    56.302382 
   12000    402.43103   -37794.285   -37321.595    271.07787    178804.48    56.412208    56.299255    56.299255 
   13000    401.00274   -37794.984   -37323.972    301.86505    178804.48    56.418471     56.29613     56.29613 
   14000    397.71413   -37792.996   -37325.846   -89.438636    178804.48    56.424732    56.293006    56.293006 
   15000    407.03907   -37790.084   -37311.981    251.93797    178804.48    56.430989    56.289885    56.289885 
   16000    400.51958   -37788.245     -37317.8    369.67742    178804.48    56.437242    56.286767    56.286767 
   17000    398.18735   -37794.988   -37327.283    247.46563    178804.48    56.443492    56.283651    56.283651 
   18000    401.35931   -37796.118   -37324.687    125.67236    178804.48    56.449737    56.280537    56.280537 
   19000    400.92631   -37794.313    -37323.39    118.11615    178804.48    56.455978    56.277426    56.277426 
   20000    396.84738   -37790.572    -37324.44    289.69706    178804.48    56.462214    56.274318    56.274318 
   21000    406.31313   -37791.285   -37314.035    202.08447    178804.48    56.468445    56.271214    56.271214 
   22000    401.19251   -37793.402   -37322.167    193.06062    178804.48    56.474671    56.268112    56.268112 
   23000    402.26367   -37794.412   -37321.919     268.8079    178804.48    56.480892    56.265013    56.265013 
   24000    396.43513   -37793.959   -37328.312    100.80891    178804.48    56.487106    56.261918    56.261918 
   25000    397.79058   -37794.073   -37326.833    271.93498    178804.48    56.493315    56.258826    56.258826 
   26000    401.68758   -37793.542   -37321.725    367.89102    178804.48    56.499518    56.255738    56.255738 
   27000     395.2591   -37790.699   -37326.433    71.320126    178804.48    56.505714    56.252653    56.252653 
   28000    401.59455    -37798.78   -37327.072    438.26476    178804.48    56.511904    56.249573    56.249573 
   29000    400.64836   -37797.352   -37326.756    106.01203    178804.48    56.518086    56.246496    56.246496 
   30000    394.85917   -37799.393   -37335.597    91.684891    178804.48    56.524262    56.243423    56.243423 
   31000    400.28023   -37798.498   -37328.334   -5.6812127    178804.48     56.53043    56.240355    56.240355 
   32000    403.07139   -37785.749   -37312.307    241.97128    178804.48    56.536591     56.23729     56.23729 
   33000    399.11592   -37794.316    -37325.52      107.962    178804.48    56.542743    56.234231    56.234231 
   34000    403.69832   -37790.295   -37316.116    195.01686    178804.48    56.548888    56.231175    56.231175 
   35000    399.42829   -37789.202   -37320.038    410.89484    178804.48    56.555024    56.228125    56.228125 
   36000    394.88683    -37792.15   -37328.321    66.222543    178804.48    56.561151    56.225079    56.225079 
   37000    402.42028   -37796.257   -37323.579    72.816901    178804.48     56.56727    56.222038    56.222038 
   38000    394.92918   -37790.846   -37326.967     266.8068    178804.48     56.57338    56.219002    56.219002 
   39000    399.15529   -37788.499   -37319.656    173.33218    178804.48     56.57948    56.215971    56.215971 
   40000    402.15643   -37789.604   -37317.236    321.79713    178804.48    56.585571    56.212946    56.212946 
   41000    400.96413   -37795.917    -37324.95    165.21519    178804.48    56.591651    56.209926    56.209926 
   42000    400.89284   -37796.265   -37325.382   -106.76757    178804.48    56.597722    56.206911    56.206911 
   43000    404.26246   -37793.013   -37318.171    223.90601    178804.48    56.603783    56.203902    56.203902 
   44000    395.62566   -37789.626   -37324.929    398.27051    178804.48    56.609833    56.200899    56.200899 
   45000    399.82875   -37787.395   -37317.761    338.14981    178804.48    56.615872    56.197901    56.197901 
   46000     400.5866   -37796.669   -37326.145    193.23237    178804.48      56.6219     56.19491     56.19491 
   47000    400.40491   -37793.807   -37323.497    176.34739    178804.48    56.627917    56.191924    56.191924 
   48000    403.55356   -37792.593   -37318.585    102.25815    178804.48    56.633922    56.188945    56.188945 
   49000    401.49539   -37791.889   -37320.298    216.11515    178804.48    56.639916    56.185972    56.185972 
   50000      400.442   -37789.298   -37318.944     223.4348    178804.48    56.645898    56.183005    56.183005 
   51000    405.58316   -37783.031   -37306.638    554.19749    178804.48    56.651867    56.180045    56.180045 
   52000    402.89172   -37790.569   -37317.338     110.0842    178804.48    56.657824    56.177091    56.177091 
   53000    397.61473   -37792.254   -37325.221    189.88898    178804.48    56.663769    56.174145    56.174145 
   54000    395.53256   -37793.403   -37328.816    445.24432    178804.48      56.6697    56.171205    56.171205 
   55000    403.37787   -37790.413   -37316.611    193.77196    178804.48    56.675619    56.168272    56.168272 
   56000    402.01072   -37787.314   -37315.118    292.98632    178804.48    56.681524    56.165346    56.165346 
   57000    394.01265   -37794.659   -37331.857     210.5926    178804.48    56.687415    56.162427    56.162427 
   58000    401.46285   -37800.853     -37329.3    247.55428    178804.48    56.693293    56.159516    56.159516 
   59000    402.55353   -37788.479   -37315.645    204.91335    178804.48    56.699156    56.156612    56.156612 
   60000    404.32175   -37796.237   -37321.326    246.84607    178804.48    56.705005    56.153716    56.153716 
   61000     400.4384   -37790.195   -37319.845    92.261071    178804.48     56.71084    56.150827    56.150827 
   62000    402.29864   -37784.713   -37312.179     427.9328    178804.48     56.71666    56.147946    56.147946 
   63000    396.40622   -37795.838   -37330.224    118.63465    178804.48    56.722465    56.145073    56.145073 
   64000    398.86888   -37800.057    -37331.55   -87.172292    178804.48    56.728254    56.142208    56.142208 
   65000    402.40039   -37787.178   -37314.523    406.48682    178804.48    56.734029    56.139351    56.139351 
   66000    400.01642   -37783.536   -37313.682    408.81633    178804.48    56.739787    56.136502    56.136502 
   67000    401.11546   -37785.709   -37314.564    541.88235    178804.48     56.74553    56.133661    56.133661 
   68000    402.02151   -37792.259    -37320.05    -20.41745    178804.48    56.751256    56.130829    56.130829 
   69000    402.61595   -37789.535   -37316.628    348.80587    178804.48    56.756966    56.128005    56.128005 
   70000    400.92432   -37803.068   -37332.147   -10.076387    178804.48     56.76266     56.12519     56.12519 
   71000    395.87575   -37788.296   -37323.306     155.1609    178804.48    56.768337    56.122384    56.122384 
   72000     395.8468    -37798.21   -37333.254    210.58024    178804.48    56.773996    56.119587    56.119587 
   73000    399.91697   -37790.754   -37321.017    314.49121    178804.48    56.779639    56.116798    56.116798 
   74000    403.47944   -37789.903   -37315.981     384.2486    178804.48    56.785264    56.114019    56.114019 
   75000     404.0816   -37792.169    -37317.54    203.23394    178804.48    56.790871    56.111248    56.111248 
   76000    399.56429   -37789.066   -37319.743    258.87178    178804.48    56.796461    56.108487    56.108487 
   77000    399.61577   -37797.123    -37327.74    158.45844    178804.48    56.802032    56.105736    56.105736 
   78000    394.81768   -37800.827   -37337.079    97.539009    178804.48    56.807585    56.102993    56.102993 
   79000    401.09647   -37797.975   -37326.852    322.20702    178804.48    56.813119    56.100261    56.100261 
   80000    401.83163   -37788.452   -37316.466    453.96263    178804.48    56.818634    56.097538    56.097538 
   81000    403.86886   -37785.718   -37311.338    534.15366    178804.48    56.824131    56.094825    56.094825 
   82000    404.14079   -37796.099     -37321.4     151.9848    178804.48    56.829608    56.092121    56.092121 
   83000     395.2437   -37785.165   -37320.917     333.8984    178804.48    56.835066    56.089428    56.089428 
   84000    399.27103    -37790.41   -37321.431    315.47668    178804.48    56.840504    56.086745    56.086745 
   85000    398.65849   -37788.331   -37320.072    289.80423    178804.48    56.845922    56.084072    56.084072 
   86000    400.51391   -37781.753   -37311.314    399.65978    178804.48     56.85132    56.081409    56.081409 
   87000    396.90552   -37789.035   -37322.835    211.20058    178804.48    56.856698    56.078757    56.078757 
   88000    400.00815    -37789.06   -37319.216    438.39282    178804.48    56.862055    56.076115    56.076115 
   89000    400.46278   -37784.823   -37314.444    457.10171    178804.48    56.867392    56.073484    56.073484 
   90000    397.28922    -37782.34   -37315.689    467.57226    178804.48    56.872708    56.070863    56.070863 
   91000     399.3056   -37778.332   -37309.313    612.95577    178804.48    56.878002    56.068254    56.068254 
   92000    395.27095   -37793.826   -37329.546    9.2577749    178804.48    56.883275    56.065655    56.065655 
   93000    399.04795   -37787.282   -37318.565    108.00898    178804.48    56.888527    56.063067    56.063067 
   94000    402.16804   -37778.647   -37306.266    448.52106    178804.48    56.893756     56.06049     56.06049 
   95000    396.46585   -37789.568   -37323.884    99.312209    178804.48    56.898964    56.057925    56.057925 
   96000    401.00425   -37778.959   -37307.945    606.98392    178804.48     56.90415     56.05537     56.05537 
   97000    400.31236   -37781.896   -37311.694     468.3785    178804.48    56.909313    56.052828    56.052828 
   98000    399.40802    -37787.31   -37318.171    131.25512    178804.48    56.914453    56.050296    56.050296 
   99000    400.75939   -37790.809   -37320.082    258.25956    178804.48    56.919571    56.047776    56.047776 
  100000    400.81717   -37783.401   -37312.607    281.79123    178804.48    56.924666    56.045268    56.045268 
  101000    397.99467   -37787.515   -37320.036    356.12047    178804.48    56.929738    56.042772    56.042772 
  102000    399.79407   -37786.077   -37316.484    451.07839    178804.48    56.934786    56.040287    56.040287 
  103000    398.15237   -37788.759   -37321.095    515.59142    178804.48     56.93981    56.037814    56.037814 
  104000    401.05565   -37792.513   -37321.438    34.928384    178804.48    56.944811    56.035354    56.035354 
  105000     399.4359   -37787.532    -37318.36    435.56282    178804.48    56.949788    56.032905    56.032905 
  106000    404.75111   -37789.424   -37314.008    215.69797    178804.48     56.95474    56.030469    56.030469 
  107000      396.236   -37794.349   -37328.936    137.50631    178804.48    56.959668    56.028045    56.028045 
  108000     403.6696   -37795.679   -37321.534    475.29208    178804.48    56.964572    56.025634    56.025634 
  109000    392.09778    -37780.87   -37320.317    483.93089    178804.48    56.969451    56.023234    56.023234 
  110000      403.305   -37779.646   -37305.929     506.7932    178804.48    56.974305    56.020848    56.020848 
  111000    398.32697   -37796.656   -37328.787   -2.1169242    178804.48    56.979133    56.018474    56.018474 
  112000    399.19842   -37793.737   -37324.844    188.84643    178804.48    56.983937    56.016113    56.016113 
  113000    403.91171   -37785.378   -37310.948    274.74045    178804.48    56.988714    56.013765    56.013765 
  114000      395.327   -37790.254   -37325.908    382.08332    178804.48    56.993466     56.01143     56.01143 
  115000    398.29152   -37780.159   -37312.331    448.48709    178804.48    56.998193    56.009108    56.009108 
  116000    403.96562   -37791.248   -37316.755     256.1051    178804.48    57.002893    56.006799    56.006799 
  117000    398.59067   -37777.541   -37309.361    617.02662    178804.48    57.007566    56.004503    56.004503 
  118000    402.92202   -37788.834   -37315.567    148.81052    178804.48    57.012214     56.00222     56.00222 
  119000    396.65896   -37793.687   -37327.776    214.27873    178804.48    57.016834    55.999951    55.999951 
  120000    406.65871   -37796.562   -37318.906    253.24042    178804.48    57.021428    55.997695    55.997695 
  121000    399.99084   -37791.457   -37321.633    173.02864    178804.48    57.025995    55.995453    55.995453 
  122000    401.08466   -37782.827   -37311.719    575.17363    178804.48    57.030534    55.993224    55.993224 
  123000    405.58202   -37786.547   -37310.156    371.74197    178804.48    57.035046    55.991009    55.991009 
  124000    398.87139   -37785.033   -37316.523    115.82581    178804.48    57.039531    55.988808    55.988808 
  125000    403.58414    -37789.33   -37315.286    99.353908    178804.48    57.043987    55.986621    55.986621 
  126000    400.93847    -37792.59   -37321.652    277.73233    178804.48    57.048416    55.984448    55.984448 
  127000    395.87307   -37791.222   -37326.235    118.46247    178804.48    57.052817    55.982289    55.982289 
  128000    402.35264   -37788.041   -37315.443    472.46773    178804.48     57.05719    55.980143    55.980143 
  129000    398.87562   -37787.103   -37318.589    326.26361    178804.48    57.061534    55.978013    55.978013 
  130000    395.98645   -37782.283   -37317.162    408.65327    178804.48    57.065849    55.975896    55.975896 
  131000    398.21435   -37782.874   -37315.137    393.77477    178804.48    57.070136    55.973794    55.973794 
  132000    399.18324   -37796.097   -37327.222    238.91964    178804.48    57.074394    55.971706    55.971706 
  133000    392.02223    -37791.32   -37330.856    171.21342    178804.48    57.078622    55.969632    55.969632 
  134000    400.48846   -37793.141   -37322.733    138.08367    178804.48    57.082822    55.967574    55.967574 
  135000    396.37859       -37788   -37322.419    250.75469    178804.48    57.086992    55.965529    55.965529 
  136000    400.50334   -37790.373   -37319.947    256.40112    178804.48    57.091132      55.9635      55.9635 
  137000    409.45632   -37789.371   -37308.429    329.72185    178804.48    57.095243    55.961485    55.961485 
  138000    399.36851   -37782.273    -37313.18    506.21279    178804.48    57.099323    55.959486    55.959486 
  139000    396.48806    -37778.01     -37312.3    644.86497    178804.48    57.103374    55.957501    55.957501 
  140000    399.35367   -37792.961   -37323.885    253.95432    178804.48    57.107394    55.955531    55.955531 
  141000    401.08258   -37783.423   -37312.316    636.81641    178804.48    57.111384    55.953577    55.953577 
  142000    398.54422    -37785.18   -37317.055    350.89324    178804.48    57.115343    55.951637    55.951637 
  143000    405.04861   -37786.602   -37310.837    457.68809    178804.48    57.119272    55.949713    55.949713 
  144000    397.60731     -37792.1   -37325.076    158.64179    178804.48    57.123169    55.947805    55.947805 
  145000    404.52126   -37789.824   -37314.679      168.804    178804.48    57.127036    55.945911    55.945911 
  146000    401.63315   -37781.159   -37309.406    610.84759    178804.48    57.130871    55.944033    55.944033 
  147000     399.9912   -37785.916   -37316.091    449.82211    178804.48    57.134675    55.942171    55.942171 
  148000    398.75015   -37790.429   -37322.062    285.82352    178804.48    57.138448    55.940324    55.940324 
  149000    399.74119   -37790.859   -37321.328    287.20349    178804.48    57.142189    55.938493    55.938493 
  150000    402.38448   -37791.153   -37318.518    406.72751    178804.48    57.145898    55.936677    55.936677 
  151000    404.25257   -37786.843   -37312.013      335.455    178804.48    57.149575    55.934878    55.934878 
  152000    404.26849   -37788.514   -37313.665    549.89838    178804.48     57.15322    55.933094    55.933094 
  153000    398.27261   -37780.483   -37312.677     452.9073    178804.48    57.156833    55.931326    55.931326 
  154000    402.31799   -37786.562   -37314.005    369.01295    178804.48    57.160413    55.929575    55.929575 
  155000    394.15753   -37786.919   -37323.946    321.61273    178804.48    57.163961    55.927839    55.927839 
  156000    403.60323   -37786.983   -37312.916    314.35561    178804.48    57.167477    55.926119    55.926119 
  157000    405.66269   -37788.177   -37311.691    484.87829    178804.48    57.170959    55.924416    55.924416 
  158000    408.90263   -37788.697   -37308.405    334.30322    178804.48    57.174409    55.922729    55.922729 
  159000    399.23467   -37787.713   -37318.778    191.39119    178804.48    57.177825    55.921058    55.921058 
  160000    401.47023    -37778.67   -37307.108    796.10803    178804.48    57.181209    55.919404    55.919404 
  161000    402.39374   -37788.159   -37315.513    487.57363    178804.48    57.184559    55.917766    55.917766 
  162000    400.28445   -37785.718    -37315.55    118.39679    178804.48    57.187875    55.916144    55.916144 
  163000    397.10079   -37788.035   -37321.606    271.22928    178804.48    57.191158    55.914539    55.914539 
  164000    402.86174    -37791.57   -37318.374    338.19942    178804.48    57.194407    55.912951    55.912951 
  165000    397.72204   -37787.629    -37320.47    319.88243    178804.48    57.197623    55.911379    55.911379 
  166000    398.03151   -37777.581   -37310.058    620.44112    178804.48    57.200804    55.909824    55.909824 
  167000    404.15601   -37780.435   -37305.719    605.50298    178804.48    57.203951    55.908286    55.908286 
  168000    396.93115   -37787.408   -37321.177    378.82373    178804.48    57.207064    55.906765    55.906765 
  169000     400.8053   -37789.646   -37318.865    280.01147    178804.48    57.210143    55.905261    55.905261 
  170000    395.87915   -37774.887   -37309.893    453.23453    178804.48    57.213187    55.903774    55.903774 
  171000    403.03698   -37781.816   -37308.414    517.45403    178804.48    57.216197    55.902303    55.902303 
  172000    399.07668   -37779.309   -37310.559    807.77589    178804.48    57.219172     55.90085     55.90085 
  173000    396.81882   -37780.298     -37314.2    596.70006    178804.48    57.222112    55.899414    55.899414 
  174000    397.87802   -37787.936   -37320.593    364.89153    178804.48    57.225017    55.897995    55.897995 
  175000    399.00977    -37779.43   -37310.759    486.95092    178804.48    57.227887    55.896593    55.896593 
  176000    402.05469   -37781.313   -37309.065    469.01565    178804.48    57.230722    55.895209    55.895209 
  177000    400.20238   -37783.757   -37313.684    468.91931    178804.48    57.233522    55.893842    55.893842 
  178000    402.06415   -37787.556   -37315.297    311.14504    178804.48    57.236286    55.892492    55.892492 
  179000    399.76563   -37775.308   -37305.748    625.58399    178804.48    57.239015     55.89116     55.89116 
  180000     397.9099   -37788.106   -37320.726     293.1581    178804.48    57.241708    55.889845    55.889845 
  181000    407.27922   -37791.372   -37312.987    270.91799    178804.48    57.244365    55.888548    55.888548 
  182000    398.72618    -37786.78   -37318.442    614.70468    178804.48    57.246987    55.887268    55.887268 
  183000     404.7257   -37787.889   -37312.503    544.68293    178804.48    57.249572    55.886006    55.886006 
  184000    400.52058   -37779.941   -37309.495     401.8981    178804.48    57.252122    55.884762    55.884762 
  185000    397.32579   -37790.331   -37323.637    278.76486    178804.48    57.254635    55.883535    55.883535 
  186000    400.04848   -37774.947   -37305.055    738.88509    178804.48    57.257113    55.882326    55.882326 
  187000    396.77352   -37781.871   -37315.826      333.998    178804.48    57.259553    55.881135    55.881135 
  188000    399.35076   -37778.049   -37308.977    452.73463    178804.48    57.261958    55.879962    55.879962 
  189000    394.84436   -37786.307   -37322.528    686.02673    178804.48    57.264326    55.878806    55.878806 
  190000    404.26555   -37781.885    -37307.04    539.32352    178804.48    57.266657    55.877669    55.877669 
  191000    397.99482   -37787.311   -37319.832    240.23409    178804.48    57.268952    55.876549    55.876549 
  192000     402.9482   -37782.918    -37309.62    396.74299    178804.48     57.27121    55.875448    55.875448 
  193000    404.43004   -37791.411   -37316.373    275.10645    178804.48    57.273431    55.874365    55.874365 
  194000    400.24759   -37790.617   -37320.491     100.8248    178804.48    57.275615    55.873299    55.873299 
  195000    397.93673    -37779.46   -37312.049    577.48354    178804.48    57.277761    55.872252    55.872252 
  196000     394.2924    -37785.87   -37322.739    208.18053    178804.48    57.279871    55.871223    55.871223 
  197000    398.84303   -37780.774   -37312.299    482.18695    178804.48    57.281944    55.870212    55.870212 
  198000    403.05191   -37793.949    -37320.53     310.9041    178804.48    57.283979     55.86922     55.86922 
  199000    402.78231   -37776.821   -37303.719    843.86889    178804.48    57.285977    55.868246    55.868246 
  200000    403.91586   -37782.957   -37308.523    479.34445    178804.48    57.287937     55.86729     55.86729 
  201000    400.22687   -37774.466   -37304.365    641.50472    178804.48     57.28986    55.866352    55.866352 
  202000     402.9021    -37781.96   -37308.717    658.67476    178804.48    57.291745    55.865433    55.865433 
  203000    395.00284   -37770.835    -37306.87    620.90773    178804.48    57.293593    55.864532    55.864532 
  204000    402.16008   -37777.022    -37304.65    718.49887    178804.48    57.295403     55.86365     55.86365 
  205000     399.4924   -37789.081   -37319.843    282.45495    178804.48    57.297174    55.862786    55.862786 
  206000    406.93626   -37782.692    -37304.71    623.25632    178804.48    57.298908    55.861941    55.861941 
  207000    396.27968   -37781.655    -37316.19    319.50415    178804.48    57.300604    55.861114    55.861114 
  208000     404.2044   -37791.202   -37316.429    264.54837    178804.48    57.302262    55.860306    55.860306 
  209000     399.3563   -37783.139   -37314.061     390.6878    178804.48    57.303882    55.859517    55.859517 
  210000    401.88478   -37780.355   -37308.306    432.03929    178804.48    57.305464    55.858746    55.858746 
  211000    400.40235   -37780.393   -37310.086    692.35079    178804.48    57.307007    55.857993    55.857993 
  212000    401.98326   -37783.845   -37311.681    188.38143    178804.48    57.308512     55.85726     55.85726 
  213000     398.1307   -37781.299    -37313.66    279.14729    178804.48    57.309979    55.856545    55.856545 
  214000    404.04456    -37784.87   -37310.284     520.6821    178804.48    57.311408    55.855849    55.855849 
  215000    400.07313   -37785.231    -37315.31    448.14662    178804.48    57.312797    55.855172    55.855172 
  216000    395.69544    -37783.94   -37319.162    403.59208    178804.48    57.314149    55.854513    55.854513 
  217000    399.18948   -37780.954   -37312.071    595.96536    178804.48    57.315462    55.853874    55.853874 
  218000    399.47013   -37783.448   -37314.235    275.35155    178804.48    57.316736    55.853253    55.853253 
  219000     400.2716    -37784.54   -37314.386    460.85009    178804.48    57.317971    55.852651    55.852651 
  220000     398.7623   -37785.411    -37317.03    519.20522    178804.48    57.319168    55.852068    55.852068 
  221000    393.15585    -37784.39   -37322.594    229.57346    178804.48    57.320326    55.851504    55.851504 
  222000    405.91836   -37787.014   -37310.227    359.13747    178804.48    57.321445    55.850958    55.850958 
  223000    392.44444   -37787.157   -37326.197    290.52628    178804.48    57.322525    55.850432    55.850432 
  224000    400.72687    -37786.58   -37315.891    178.27045    178804.48    57.323567    55.849925    55.849925 
  225000    401.08113   -37783.418   -37312.314    564.92349    178804.48    57.324569    55.849437    55.849437 
  226000    398.12403   -37781.756   -37314.125    274.29735    178804.48    57.325532    55.848967    55.848967 
  227000     402.5969   -37788.873   -37315.988    135.88522    178804.48    57.326457    55.848517    55.848517 
  228000    397.36227   -37782.733   -37315.996    431.63012    178804.48    57.327342    55.848086    55.848086 
  229000    401.41936   -37776.578   -37305.076    527.65238    178804.48    57.328188    55.847674    55.847674 
  230000    400.53077    -37780.17   -37309.712    438.62086    178804.48    57.328995    55.847281    55.847281 
  231000    400.60882    -37782.19    -37311.64    484.77479    178804.48    57.329763    55.846906    55.846906 
  232000    397.54885   -37787.198   -37320.243    152.13907    178804.48    57.330492    55.846552    55.846552 
  233000    406.34654   -37776.864   -37299.575    674.58929    178804.48    57.331182    55.846216    55.846216 
  234000    396.06224   -37783.304   -37318.095    680.33672    178804.48    57.331832    55.845899    55.845899 
  235000    397.15551   -37785.656   -37319.163    223.23608    178804.48    57.332443    55.845601    55.845601 
  236000     407.3012   -37785.705   -37307.294    255.48912    178804.48    57.333014    55.845323    55.845323 
  237000    402.43311    -37783.27   -37310.577    472.39287    178804.48    57.333547    55.845064    55.845064 
  238000    398.46033   -37784.117   -37316.091    563.28008    178804.48     57.33404    55.844824    55.844824 
  239000    396.74917    -37778.55   -37312.534    680.42076    178804.48    57.334493    55.844603    55.844603 
  240000    401.11148   -37779.784   -37308.643    493.51477    178804.48    57.334907    55.844401    55.844401 
  241000    401.11595   -37782.982   -37311.837    445.21574    178804.48    57.335282    55.844219    55.844219 
  242000    398.10906    -37791.66   -37324.046    189.25313    178804.48    57.335618    55.844055    55.844055 
  243000    400.96523   -37790.027   -37319.059    45.874491    178804.48    57.335914    55.843911    55.843911 
  244000    405.10914   -37783.211   -37307.376    541.01564    178804.48     57.33617    55.843786    55.843786 
  245000    400.34212   -37783.248   -37313.012    325.84081    178804.48    57.336387     55.84368     55.84368 
  246000    398.02944   -37784.834   -37317.314     181.5037    178804.48    57.336565    55.843594    55.843594 
  247000    401.91369   -37783.526   -37311.444     498.9809    178804.48    57.336703    55.843527    55.843527 
  248000    396.79593   -37778.779   -37312.708    493.10331    178804.48    57.336802    55.843479    55.843479 
  249000     396.4091   -37781.778   -37316.161    417.29292    178804.48    57.336861     55.84345     55.84345 
  250000    397.31998   -37786.193   -37319.506    457.97891    178804.48    57.336881     55.84344     55.84344 
  251000    404.95915   -37782.086   -37306.427    560.11264    178804.48    57.336861     55.84345     55.84345 
  252000    392.67841   -37787.024   -37325.789    319.68302    178804.48    57.336802    55.843479    55.843479 
  253000    396.44409    -37780.82   -37315.162    325.28342    178804.48    57.336703    55.843527    55.843527 
  254000    400.09907   -37781.338   -37311.387    684.16588    178804.48    57.336565    55.843594    55.843594 
  255000    396.73192   -37779.528   -37313.532    459.94007    178804.48    57.336387     55.84368     55.84368 
  256000    399.93065   -37781.738   -37311.985    590.73512    178804.48     57.33617    55.843786    55.843786 
  257000    404.00305   -37789.183   -37314.647     675.2388    178804.48    57.335914    55.843911    55.843911 
  258000    399.97522   -37787.277   -37317.471    252.58845    178804.48    57.335618    55.844055    55.844055 
  259000    400.21438   -37784.885   -37314.798    349.64429    178804.48    57.335282    55.844219    55.844219 
  260000    404.06629   -37779.198   -37304.587    509.33693    178804.48    57.334907    55.844401    55.844401 
  261000    398.96016   -37784.939   -37316.326    302.28011    178804.48    57.334493    55.844603    55.844603 
  262000    396.64881   -37781.077   -37315.178    599.63779    178804.48     57.33404    55.844824    55.844824 
  263000    402.96472   -37781.223   -37307.906    457.98516    178804.48    57.333547    55.845064    55.845064 
  264000    403.79555   -37788.386   -37314.093    283.67797    178804.48    57.333014    55.845323    55.845323 
  265000    400.82827   -37784.778    -37313.97    371.58958    178804.48    57.332443    55.845601    55.845601 
  266000    399.98652   -37777.268   -37307.449    565.89266    178804.48    57.331832    55.845899    55.845899 
  267000    403.57303   -37778.926   -37304.895    531.97729    178804.48    57.331182    55.846216    55.846216 
  268000    403.47191    -37784.97   -37311.057    512.89511    178804.48    57.330492    55.846552    55.846552 
  269000     393.6114   -37781.977   -37319.646    493.52741    178804.48    57.329763    55.846906    55.846906 
  270000    399.97587   -37775.815   -37306.008    739.56361    178804.48    57.328995    55.847281    55.847281 
  271000    402.85856   -37783.614   -37310.422    455.34324    178804.48    57.328188    55.847674    55.847674 
  272000       395.81   -37783.771   -37318.858    428.68305    178804.48    57.327342    55.848086    55.848086 
  273000    399.97497   -37782.744   -37312.938    403.77441    178804.48    57.326457    55.848517    55.848517 
  274000     398.3706   -37774.382   -37306.462    612.29307    178804.48    57.325532    55.848967    55.848967 
  275000    395.69241   -37782.803   -37318.028    519.89478    178804.48    57.324569    55.849437    55.849437 
  276000     398.3993   -37778.399   -37310.444    801.14437    178804.48    57.323567    55.849925    55.849925 
  277000    402.11983   -37779.416   -37307.092    358.64605    178804.48    57.322525    55.850432    55.850432 
  278000    397.76392    -37786.08   -37318.871     332.7191    178804.48    57.321445    55.850958    55.850958 
  279000    403.91361   -37786.645   -37312.214     319.3501    178804.48    57.320326    55.851504    55.851504 
  280000    397.83609   -37780.061   -37312.768    443.63082    178804.48    57.319168    55.852068    55.852068 
  281000    396.82993   -37777.527   -37311.416    496.51896    178804.48    57.317971    55.852651    55.852651 
  282000     406.1259   -37773.976   -37296.946    764.75267    178804.48    57.316736    55.853253    55.853253 
  283000      397.162    -37790.62   -37324.118    261.36943    178804.48    57.315462    55.853874    55.853874 
  284000     396.8735    -37788.14   -37321.978    393.02571    178804.48    57.314149    55.854513    55.854513 
  285000    396.91063   -37783.921   -37317.715    587.17856    178804.48    57.312797    55.855172    55.855172 
  286000    402.25397   -37781.919   -37309.436    649.22836    178804.48    57.311408    55.855849    55.855849 
  287000    396.41979   -37783.899    -37318.27    435.71239    178804.48    57.309979    55.856545    55.856545 
  288000    402.38465   -37779.727   -37307.091     749.1175    178804.48    57.308512     55.85726     55.85726 
  289000    397.35051    -37784.43   -37317.708    559.75576    178804.48    57.307007    55.857993    55.857993 
  290000    403.50052   -37783.729   -37309.783    547.62233    178804.48    57.305464    55.858746    55.858746 
  291000    406.37522   -37781.889   -37304.566    681.44894    178804.48    57.303882    55.859517    55.859517 
  292000    402.65051   -37780.596   -37307.648     447.3448    178804.48    57.302262    55.860306    55.860306 
  293000    400.06877   -37779.702   -37309.786    757.09298    178804.48    57.300604    55.861114    55.861114 
  294000    397.19914   -37788.727   -37322.182    226.73647    178804.48    57.298908    55.861941    55.861941 
  295000    403.73353   -37784.554   -37310.334    608.02682    178804.48    57.297174    55.862786    55.862786 
  296000    401.42143   -37779.625   -37308.121    577.31942    178804.48    57.295403     55.86365     55.86365 
  297000    397.26515   -37787.321   -37320.698     166.2755    178804.48    57.293593    55.864532    55.864532 
  298000    399.19374   -37785.888       -37317    431.36766    178804.48    57.291745    55.865433    55.865433 
  299000    394.97709   -37781.214   -37317.279    472.37186    178804.48     57.28986    55.866352    55.866352 
  300000    397.14609   -37787.391   -37320.908    244.86821    178804.48    57.287937     55.86729     55.86729 
  301000    399.39622   -37783.202   -37314.076     599.9636    178804.48    57.285977    55.868246    55.868246 
  302000    401.33189   -37786.899     -37315.5    527.88171    178804.48    57.283979     55.86922     55.86922 
  303000    397.60243   -37786.598   -37319.579     491.8188    178804.48    57.281944    55.870212    55.870212 
  304000    408.71255    -37788.32   -37308.251    395.03671    178804.48    57.279871    55.871223    55.871223 
  305000    404.06377   -37778.372   -37303.764    543.06147    178804.48    57.277761    55.872252    55.872252 
  306000    396.29775   -37789.076    -37323.59    354.17397    178804.48    57.275615    55.873299    55.873299 
  307000    406.36407   -37786.723   -37309.413    160.26009    178804.48    57.273431    55.874365    55.874365 
  308000    396.37982   -37783.721   -37318.138    501.76006    178804.48     57.27121    55.875448    55.875448 
  309000    395.90603    -37781.71   -37316.684    315.53778    178804.48    57.268952    55.876549    55.876549 
  310000     402.8694   -37792.939   -37319.734    148.84356    178804.48    57.266657    55.877669    55.877669 
  311000     400.9305   -37785.608   -37314.681    441.90308    178804.48    57.264326    55.878806    55.878806 
  312000    399.82162   -37783.295    -37313.67    606.51769    178804.48    57.261958    55.879962    55.879962 
  313000    399.51561   -37784.535   -37315.269    69.600613    178804.48    57.259553    55.881135    55.881135 
  314000    398.78096   -37781.389   -37312.987    613.61251    178804.48    57.257113    55.882326    55.882326 
  315000    398.24036   -37777.401   -37309.633    659.07691    178804.48    57.254635    55.883535    55.883535 
  316000    401.19231   -37781.219   -37309.984    596.41563    178804.48    57.252122    55.884762    55.884762 
  317000    402.11279    -37787.67   -37315.354    556.36548    178804.48    57.249572    55.886006    55.886006 
  318000    400.71414   -37777.558   -37306.884    516.99799    178804.48    57.246987    55.887268    55.887268 
  319000    407.61672    -37784.23   -37305.449    551.27837    178804.48    57.244365    55.888548    55.888548 
  320000    391.47194   -37790.034   -37330.216   -13.374678    178804.48    57.241708    55.889845    55.889845 
  321000    397.24923   -37785.819   -37319.215    452.50097    178804.48    57.239015     55.89116     55.89116 
  322000    399.83904   -37787.591   -37317.945    440.82635    178804.48    57.236286    55.892492    55.892492 
  323000    401.15697   -37789.211   -37318.018    388.21515    178804.48    57.233522    55.893842    55.893842 
  324000    397.51063   -37783.989   -37317.078    239.37337    178804.48    57.230722    55.895209    55.895209 
  325000    396.97695   -37782.942   -37316.658    644.57056    178804.48    57.227887    55.896593    55.896593 
  326000    398.11973   -37776.557   -37308.931    380.67474    178804.48    57.225017    55.897995    55.897995 
  327000    397.33769    -37779.72   -37313.012    505.29283    178804.48    57.222112    55.899414    55.899414 
  328000    389.16476   -37786.736   -37329.629    221.30731    178804.48    57.219172     55.90085     55.90085 
  329000    396.11666   -37781.175   -37315.902     462.1066    178804.48    57.216197    55.902303    55.902303 
  330000     409.1276   -37779.479   -37298.923    756.60323    178804.48    57.213187    55.903774    55.903774 
  331000     393.8008   -37780.159   -37317.606     718.2166    178804.48    57.210143    55.905261    55.905261 
  332000    393.49444   -37791.747   -37329.554    51.585152    178804.48    57.207064    55.906765    55.906765 
  333000    402.33677   -37780.224   -37307.645    580.04382    178804.48    57.203951    55.908286    55.908286 
  334000    401.50902   -37780.872   -37309.265    711.43451    178804.48    57.200804    55.909824    55.909824 
  335000    402.96264    -37784.47   -37311.156    453.03984    178804.48    57.197623    55.911379    55.911379 
  336000    406.53877    -37779.46   -37301.945     620.9292    178804.48    57.194407    55.912951    55.912951 
  337000     405.2889   -37783.224   -37307.176    298.55441    178804.48    57.191158    55.914539    55.914539 
  338000    399.62812   -37789.718    -37320.32    288.32756    178804.48    57.187875    55.916144    55.916144 
  339000    398.76245   -37782.984   -37314.603    443.15593    178804.48    57.184559    55.917766    55.917766 
  340000    408.90875   -37782.514   -37302.215    377.53709    178804.48    57.181209    55.919404    55.919404 
  341000     395.4072   -37779.538   -37315.098    625.65502    178804.48    57.177825    55.921058    55.921058 
  342000    404.02246   -37780.616   -37306.057    587.03882    178804.48    57.174409    55.922729    55.922729 
  343000    401.61006   -37784.225   -37312.499     487.7067    178804.48    57.170959    55.924416    55.924416 
  344000    401.78578   -37783.594   -37311.662    545.13349    178804.48    57.167477    55.926119    55.926119 
  345000    398.83439   -37782.717   -37314.252    385.46172    178804.48    57.163961    55.927839    55.927839 
  346000    402.65163    -37789.24   -37316.291    50.745994    178804.48    57.160413    55.929575    55.929575 
  347000    403.42011   -37776.393   -37302.541    607.75959    178804.48    57.156833    55.931326    55.931326 
  348000    398.59157   -37787.807   -37319.626    365.78464    178804.48     57.15322    55.933094    55.933094 
  349000    394.33171   -37785.941   -37322.764    207.62831    178804.48    57.149575    55.934878    55.934878 
  350000    401.29229   -37783.325   -37311.972    540.65992    178804.48    57.145898    55.936677    55.936677 
  351000    398.47848   -37782.027   -37313.979    415.57154    178804.48    57.142189    55.938493    55.938493 
  352000    396.36403   -37785.849   -37320.285    469.34459    178804.48    57.138448    55.940324    55.940324 
  353000    395.60779   -37777.966    -37313.29    275.17705    178804.48    57.134675    55.942171    55.942171 
  354000    395.45679   -37786.314   -37321.815    319.31096    178804.48    57.130871    55.944033    55.944033 
  355000    401.82992   -37784.766   -37312.782    429.02074    178804.48    57.127036    55.945911    55.945911 
  356000    401.74978    -37789.49     -37317.6    553.34981    178804.48    57.123169    55.947805    55.947805 
  357000    396.30321   -37778.066   -37312.574    381.87853    178804.48    57.119272    55.949713    55.949713 
  358000    403.66846   -37783.735   -37309.591    351.57576    178804.48    57.115343    55.951637    55.951637 
  359000    397.42661   -37786.595   -37319.783    472.75862    178804.48    57.111384    55.953577    55.953577 
  360000    394.97763   -37787.128   -37323.193    274.73159    178804.48    57.107394    55.955531    55.955531 
  361000    399.90946   -37784.958    -37315.23    405.43853    178804.48    57.103374    55.957501    55.957501 
  362000    401.57487   -37788.425   -37316.741    154.17173    178804.48    57.099323    55.959486    55.959486 
  363000    397.28815   -37789.088   -37322.438    112.77894    178804.48    57.095243    55.961485    55.961485 
  364000    398.83042   -37785.701    -37317.24    347.44438    178804.48    57.091132      55.9635      55.9635 
  365000    397.56099   -37784.607   -37317.637    254.86651    178804.48    57.086992    55.965529    55.965529 
  366000    404.40274   -37789.177    -37314.17    272.26034    178804.48    57.082822    55.967574    55.967574 
  367000    396.36096   -37788.292   -37322.732     83.48024    178804.48    57.078622    55.969632    55.969632 
  368000    392.69271   -37785.288   -37324.037    218.91468    178804.48    57.074394    55.971706    55.971706 
  369000    401.37151   -37793.245   -37321.799     85.38117    178804.48    57.070136    55.973794    55.973794 
  370000    401.88597   -37785.762   -37313.712     504.2363    178804.48    57.065849    55.975896    55.975896 
  371000     400.3239    -37785.86   -37315.645    436.00061    178804.48    57.061534    55.978013    55.978013 
  372000    404.31011   -37778.604   -37303.706    620.32873    178804.48     57.05719    55.980143    55.980143 
  373000    395.38688   -37784.564   -37320.147    372.61008    178804.48    57.052817    55.982289    55.982289 
  374000     397.6786   -37793.209   -37326.101    379.29935    178804.48    57.048416    55.984448    55.984448 
  375000    404.63586   -37781.118   -37305.838     556.8735    178804.48    57.043987    55.986621    55.986621 
  376000    397.13622   -37782.258   -37315.787    419.50041    178804.48    57.039531    55.988808    55.988808 
  377000    394.97325    -37794.62    -37330.69    23.304055    178804.48    57.035046    55.991009    55.991009 
  378000    400.65753   -37790.345   -37319.738    277.56846    178804.48    57.030534    55.993224    55.993224 
  379000    399.16132   -37784.254   -37315.404    282.45334    178804.48    57.025995    55.995453    55.995453 
  380000    404.07243   -37796.185   -37321.566    100.23695    178804.48    57.021428    55.997695    55.997695 
  381000     396.6719   -37782.568   -37316.643    287.30282    178804.48    57.016834    55.999951    55.999951 
  382000    401.85592   -37793.188   -37321.173    285.61555    178804.48    57.012214     56.00222     56.00222 
  383000    403.32965   -37780.965    -37307.22    593.59873    178804.48    57.007566    56.004503    56.004503 
  384000    396.30752   -37789.308    -37323.81    252.92583    178804.48    57.002893    56.006799    56.006799 
  385000    398.91586   -37786.732   -37318.171    429.17929    178804.48    56.998193    56.009108    56.009108 
  386000    400.77456    -37788.24   -37317.496     236.8678    178804.48    56.993466     56.01143     56.01143 
  387000    403.42887   -37790.089   -37316.226    325.71012    178804.48    56.988714    56.013765    56.013765 
  388000    400.57633   -37792.599   -37322.087    174.44338    178804.48    56.983937    56.016113    56.016113 
  389000    400.58057   -37788.626   -37318.109    164.93943    178804.48    56.979133    56.018474    56.018474 
  390000    404.37945    -37788.01   -37313.031    250.74905    178804.48    56.974305    56.020848    56.020848 
  391000    401.18813   -37791.046   -37319.816    137.07725    178804.48    56.969451    56.023234    56.023234 
  392000    397.08756       -37786   -37319.587    77.783234    178804.48    56.964572    56.025634    56.025634 
  393000     399.2206   -37782.903   -37313.983    378.89936    178804.48    56.959668    56.028045    56.028045 
  394000    396.88253   -37789.044   -37322.871     352.7047    178804.48     56.95474    56.030469    56.030469 
  395000    397.53566   -37787.679   -37320.739      293.822    178804.48    56.949788    56.032905    56.032905 
  396000    399.46182   -37788.102   -37318.899    383.03874    178804.48    56.944811    56.035354    56.035354 
  397000    389.67984   -37780.144   -37322.431    287.14233    178804.48     56.93981    56.037814    56.037814 
  398000    407.15189   -37788.135     -37309.9    254.54929    178804.48    56.934786    56.040287    56.040287 
  399000    395.59992   -37789.926    -37325.26    300.92609    178804.48    56.929738    56.042772    56.042772 
  400000    400.09593   -37794.586   -37324.638    307.81755    178804.48    56.924666    56.045268    56.045268 
  401000    402.21464   -37792.972   -37320.536   -7.0334668    178804.48    56.919571    56.047776    56.047776 
  402000    400.79723   -37795.106   -37324.334     112.1863    178804.48    56.914453    56.050296    56.050296 
  403000    402.28034   -37788.376   -37315.863    99.105072    178804.48    56.909313    56.052828    56.052828 
  404000    398.54548   -37791.026     -37322.9    212.62819    178804.48     56.90415     56.05537     56.05537 
  405000    403.09946   -37779.973   -37306.498    733.51733    178804.48    56.898964    56.057925    56.057925 
  406000    395.65635   -37788.067   -37323.334    301.03811    178804.48    56.893756     56.06049     56.06049 
  407000    405.17999    -37795.34   -37319.421    231.31013    178804.48    56.888527    56.063067    56.063067 
  408000    399.67346   -37791.934   -37322.483    114.69542    178804.48    56.883275    56.065655    56.065655 
  409000    394.37776   -37786.683   -37323.452     321.8387    178804.48    56.878002    56.068254    56.068254 
  410000    402.06901   -37785.858   -37313.593    368.07724    178804.48    56.872708    56.070863    56.070863 
  411000    399.67463   -37787.262    -37317.81    382.46442    178804.48    56.867392    56.073484    56.073484 
  412000    404.77577   -37788.851   -37313.407     303.0562    178804.48    56.862055    56.076115    56.076115 
  413000    397.75208   -37795.173   -37327.979    125.01627    178804.48    56.856698    56.078757    56.078757 
  414000    401.17865   -37788.672   -37317.453    296.49038    178804.48     56.85132    56.081409    56.081409 
  415000     398.8172   -37785.357   -37316.912    474.33199    178804.48    56.845922    56.084072    56.084072 
  416000    399.42254   -37794.711   -37325.554    259.54539    178804.48    56.840504    56.086745    56.086745 
  417000    395.22532   -37788.531   -37324.304    421.44156    178804.48    56.835066    56.089428    56.089428 
  418000    403.34978   -37794.453   -37320.683   -11.880943    178804.48    56.829608    56.092121    56.092121 
  419000    400.95983   -37802.774   -37331.812     92.78919    178804.48    56.824131    56.094825    56.094825 
  420000    402.26353   -37789.884   -37317.391    381.48787    178804.48    56.818634    56.097538    56.097538 
  421000    400.94763   -37791.967   -37321.019    211.85516    178804.48    56.813119    56.100261    56.100261 
  422000    399.44301   -37792.137   -37322.957    169.82386    178804.48    56.807585    56.102993    56.102993 
  423000    396.36498   -37790.851   -37325.285     55.98326    178804.48    56.802032    56.105736    56.105736 
  424000    401.52126   -37788.688   -37317.067    453.51642    178804.48    56.796461    56.108487    56.108487 
  425000    400.29882   -37789.834   -37319.648    572.17891    178804.48    56.790871    56.111248    56.111248 
  426000    406.35924   -37789.792   -37312.488    464.33544    178804.48    56.785264    56.114019    56.114019 
  427000    398.16051   -37790.611   -37322.937    265.21782    178804.48    56.779639    56.116798    56.116798 
  428000    406.71887   -37788.252   -37310.525      384.753    178804.48    56.773996    56.119587    56.119587 
  429000    394.42127    -37791.88   -37328.598    232.26615    178804.48    56.768337    56.122384    56.122384 
  430000    401.70633   -37792.918   -37321.079    253.87203    178804.48     56.76266     56.12519     56.12519 
  431000    407.27529   -37792.916   -37314.535    225.70543    178804.48    56.756966    56.128005    56.128005 
  432000    400.01013   -37788.835   -37318.988    442.00995    178804.48    56.751256    56.130829    56.130829 
  433000    403.24942   -37794.205   -37320.553    212.67445    178804.48     56.74553    56.133661    56.133661 
  434000    403.42004   -37785.813   -37311.961    386.60048    178804.48    56.739787    56.136502    56.136502 
  435000     395.9822   -37786.341   -37321.226    70.507045    178804.48    56.734029    56.139351    56.139351 
  436000    401.39647    -37788.38   -37316.905    339.80804    178804.48    56.728254    56.142208    56.142208 
  437000     398.1411   -37796.881    -37329.23    52.255218    178804.48    56.722465    56.145073    56.145073 
  438000    392.31258   -37787.738   -37326.933    363.14825    178804.48     56.71666    56.147946    56.147946 
  439000    405.11631   -37788.918   -37313.074    433.02275    178804.48     56.71084    56.150827    56.150827 
  440000    400.47935    -37786.74   -37316.343    501.71549    178804.48    56.705005    56.153716    56.153716 
  441000    403.03514   -37789.407   -37316.007    305.58803    178804.48    56.699156    56.156612    56.156612 
  442000    402.52768   -37784.556   -37311.752     601.3289    178804.48    56.693293    56.159516    56.159516 
  443000    400.90587   -37791.889    -37320.99    366.80905    178804.48    56.687415    56.162427    56.162427 
  444000    406.57479   -37799.136   -37321.579     195.1304    178804.48    56.681524    56.165346    56.165346 
  445000    404.10481    -37798.89   -37324.234    172.27912    178804.48    56.675619    56.168272    56.168272 
  446000    405.63653   -37798.925   -37322.469    140.64895    178804.48      56.6697    56.171205    56.171205 
  447000    397.97201   -37790.587   -37323.134    324.67299    178804.48    56.663769    56.174145    56.174145 
  448000    407.53426   -37790.524    -37311.84     546.4894    178804.48    56.657824    56.177091    56.177091 
  449000     404.3561   -37791.804   -37316.853    399.87467    178804.48    56.651867    56.180045    56.180045 
  450000    397.75427   -37795.694   -37328.497    104.91399    178804.48    56.645898    56.183005    56.183005 
  451000    400.82937   -37794.666   -37323.858    173.47318    178804.48    56.639916    56.185972    56.185972 
  452000    403.62475   -37792.674   -37318.582    450.63364    178804.48    56.633922    56.188945    56.188945 
  453000    395.15819   -37795.091   -37330.943    185.71248    178804.48    56.627917    56.191924    56.191924 
  454000    401.04375   -37789.932   -37318.871    121.12061    178804.48      56.6219     56.19491     56.19491 
  455000    400.27223   -37789.202   -37319.048    368.10446    178804.48    56.615872    56.197901    56.197901 
  456000    401.22362   -37795.509   -37324.237    88.512397    178804.48    56.609833    56.200899    56.200899 
  457000    395.17318   -37793.131   -37328.966    239.25164    178804.48    56.603783    56.203902    56.203902 
  458000    407.93161   -37789.179   -37310.028    382.53423    178804.48    56.597722    56.206911    56.206911 
  459000    399.75065   -37789.693   -37320.151    370.75123    178804.48    56.591651    56.209926    56.209926 
  460000    399.31081   -37787.265    -37318.24    346.64793    178804.48    56.585571    56.212946    56.212946 
  461000    398.30055   -37795.521   -37327.682    296.97389    178804.48     56.57948    56.215971    56.215971 
  462000    402.39014   -37790.415   -37317.773    304.48074    178804.48     56.57338    56.219002    56.219002 
  463000    400.84307   -37792.001   -37321.176    340.80831    178804.48     56.56727    56.222038    56.222038 
  464000    397.39641   -37786.351   -37319.575    361.50043    178804.48    56.561151    56.225079    56.225079 
  465000    396.04424   -37793.406   -37328.218    262.98356    178804.48    56.555024    56.228125    56.228125 
  466000    401.80725   -37793.293   -37321.335    142.58721    178804.48    56.548888    56.231175    56.231175 
  467000     398.6334   -37792.514   -37324.285    280.24273    178804.48    56.542743    56.234231    56.234231 
  468000    397.30313   -37797.252   -37330.585    123.06097    178804.48    56.536591     56.23729     56.23729 
  469000    396.42661   -37798.518   -37332.881    64.633877    178804.48     56.53043    56.240355    56.240355 
  470000    395.09604   -37791.005    -37326.93    349.87148    178804.48    56.524262    56.243423    56.243423 
  471000    397.38552   -37796.662   -37329.899    320.13164    178804.48    56.518086    56.246496    56.246496 
  472000    401.61424     -37793.4    -37321.67     359.9781    178804.48    56.511904    56.249573    56.249573 
  473000    396.91509   -37793.193   -37326.982    220.07939    178804.48    56.505714    56.252653    56.252653 
  474000    397.85891    -37797.32       -37330    273.42718    178804.48    56.499518    56.255738    56.255738 
  475000    398.69963   -37802.592   -37334.284    46.196932    178804.48    56.493315    56.258826    56.258826 
  476000    399.03385   -37790.446   -37321.746    270.37634    178804.48    56.487106    56.261918    56.261918 
  477000    399.78506   -37795.324   -37325.741    364.11591    178804.48    56.480892    56.265013    56.265013 
  478000    403.69991   -37798.344   -37324.164   -53.873255    178804.48    56.474671    56.268112    56.268112 
  479000    400.86542   -37794.671   -37323.819     192.8909    178804.48    56.468445    56.271214    56.271214 
  480000     401.0616   -37793.924   -37322.842    207.57375    178804.48    56.462214    56.274318    56.274318 
  481000     396.6888   -37797.295    -37331.35   -41.475506    178804.48    56.455978    56.277426    56.277426 
  482000    402.48249   -37797.876   -37325.125      184.198    178804.48    56.449737    56.280537    56.280537 
  483000    396.49584   -37785.233   -37319.514    522.41841    178804.48    56.443492    56.283651    56.283651 
  484000    398.63482   -37796.343   -37328.112    184.44343    178804.48    56.437242    56.286767    56.286767 
  485000    400.33206   -37795.644   -37325.419    144.64927    178804.48    56.430989    56.289885    56.289885 
  486000    405.60326   -37794.605   -37318.189    354.25696    178804.48    56.424732    56.293006    56.293006 
  487000     402.1969   -37791.326   -37318.911    453.10889    178804.48    56.418471     56.29613     56.29613 
  488000    401.27417   -37799.255   -37327.924  -0.28051514    178804.48    56.412208    56.299255    56.299255 
  489000    402.27503   -37784.547    -37312.04    713.78314    178804.48    56.405941    56.302382    56.302382 
  490000    396.75973   -37789.505   -37323.476    238.70637    178804.48    56.399671    56.305512    56.305512 
  491000     404.1515   -37790.071    -37315.36    370.59921    178804.48    56.393399    56.308643    56.308643 
  492000    392.59296   -37790.022   -37328.888    360.88687    178804.48    56.387125    56.311775    56.311775 
  493000    399.05042    -37797.08    -37328.36     376.5396    178804.48    56.380849     56.31491     56.31491 
  494000    402.84122   -37795.012    -37321.84    396.27783    178804.48    56.374571    56.318045    56.318045 
  495000    398.65877   -37782.598   -37314.339    473.37284    178804.48    56.368291    56.321182    56.321182 
  496000    398.96418   -37798.657   -37330.039    90.921127    178804.48    56.362011     56.32432     56.32432 
  497000    400.09267   -37802.096   -37332.153   -1.5108609    178804.48    56.355729    56.327459    56.327459 
  498000    399.38854   -37792.456   -37323.339    201.66257    178804.48    56.349447    56.330599    56.330599 
  499000    403.02328   -37796.258   -37322.872    72.197206    178804.48    56.343164    56.333739    56.333739 
  500000    405.83506   -37801.117   -37324.429    16.890065    178804.48    56.336881    56.336881    56.336881 
  501000    398.36053   -37785.824   -37317.915    376.22778    178804.48    56.330598    56.340023    56.340023 
  502000    398.48324   -37785.662   -37317.609    257.41655    178804.48    56.324315    56.343165    56.343165 
  503000    402.18992   -37792.511   -37320.104    292.47732    178804.48    56.318032    56.346307    56.346307 
  504000    400.17586   -37789.413   -37319.372    271.27737    178804.48    56.311751     56.34945     56.34945 
  505000    399.81953   -37787.775   -37318.152    548.86638    178804.48     56.30547    56.352593    56.352593 
  506000    404.28577   -37787.075   -37312.207    406.37961    178804.48    56.299191    56.355735    56.355735 
  507000    401.90097    -37792.39   -37320.322    454.08012    178804.48    56.292913    56.358878    56.358878 
  508000    401.93584   -37792.933   -37320.824    35.600438    178804.48    56.286636     56.36202     56.36202 
  509000     403.4834   -37785.521   -37311.595    366.85565    178804.48    56.280362    56.365161    56.365161 
  510000    393.94903   -37787.693   -37324.966    308.84016    178804.48     56.27409    56.368302    56.368302 
  511000    399.48377   -37787.504   -37318.275    205.00404    178804.48    56.267821    56.371443    56.371443 
  512000    398.27798   -37803.027   -37335.215   -28.268644    178804.48    56.261554    56.374582    56.374582 
  513000    400.78563   -37791.756   -37320.999    241.24881    178804.48     56.25529     56.37772     56.37772 
  514000    399.11943   -37790.802   -37322.002    253.21405    178804.48     56.24903    56.380858    56.380858 
  515000    398.08075   -37797.944   -37330.364    103.13568    178804.48    56.242772    56.383994    56.383994 
  516000    399.61024    -37791.81   -37322.433    109.26977    178804.48    56.236519    56.387129    56.387129 
  517000    398.24317   -37791.138   -37323.367    283.86329    178804.48     56.23027    56.390262    56.390262 
  518000    401.38898   -37799.699   -37328.233   -21.424689    178804.48    56.224024    56.393394    56.393394 
  519000    397.41661   -37788.779   -37321.979    353.08096    178804.48    56.217784    56.396524    56.396524 
  520000    395.70414   -37796.316   -37331.528    26.379146    178804.48    56.211547    56.399652    56.399652 
  521000    405.01523   -37789.804   -37314.079    292.08089    178804.48    56.205316    56.402778    56.402778 
  522000     402.8209    -37786.31   -37313.161    404.06796    178804.48     56.19909    56.405903    56.405903 
  523000    394.40662   -37788.829   -37325.565    444.33583    178804.48     56.19287    56.409024    56.409024 
  524000    403.72667   -37793.565   -37319.353    252.79908    178804.48    56.186655    56.412144    56.412144 
  525000    398.44421   -37792.228   -37324.221    45.298535    178804.48    56.180446    56.415261    56.415261 
  526000    399.67574   -37789.088   -37319.634    513.86581    178804.48    56.174244    56.418376    56.418376 
  527000    403.74886   -37785.489   -37311.251    538.76289    178804.48    56.168047    56.421488    56.421488 
  528000    396.87386   -37789.821   -37323.658    362.48862    178804.48    56.161858    56.424597    56.424597 
  529000     407.3353   -37788.859   -37310.408    252.66292    178804.48    56.155675    56.427703    56.427703 
  530000    401.95193   -37789.273   -37317.145    276.21257    178804.48    56.149499    56.430806    56.430806 
  531000    404.59624   -37794.073    -37318.84    230.93908    178804.48    56.143331    56.433906    56.433906 
  532000    405.12989   -37790.582   -37314.722    312.34944    178804.48    56.137171    56.437002    56.437002 
  533000    396.20068   -37793.041   -37327.669    538.36703    178804.48    56.131018    56.440095    56.440095 
  534000    402.44843   -37788.477   -37315.767    407.25769    178804.48    56.124874    56.443184    56.443184 
  535000    402.61316   -37790.215   -37317.311    511.25877    178804.48    56.118737     56.44627     56.44627 
  536000    401.45312   -37794.625   -37323.084    330.10863    178804.48     56.11261    56.449352    56.449352 
  537000    403.61975   -37790.095   -37316.009    266.05943    178804.48    56.106491     56.45243     56.45243 
  538000     400.6644   -37791.553   -37320.938    214.79652    178804.48    56.100382    56.455504    56.455504 
  539000    399.92097   -37788.834   -37319.092    295.73017    178804.48    56.094281    56.458574    56.458574 
  540000    404.49261   -37781.686   -37306.575    591.56137    178804.48    56.088191    56.461639    56.461639 
  541000     403.4305   -37782.483   -37308.619    539.71513    178804.48     56.08211      56.4647      56.4647 
  542000    397.77258   -37791.255   -37324.037    371.71342    178804.48    56.076039    56.467756    56.467756 
  543000    396.68832   -37785.556   -37319.612    617.51402    178804.48    56.069979    56.470808    56.470808 
  544000    403.62732   -37789.087   -37314.992    513.05688    178804.48    56.063929    56.473855    56.473855 
  545000    399.64433   -37787.733   -37318.316    459.90372    178804.48     56.05789    56.476897    56.476897 
  546000    407.08168    -37788.06   -37309.907    441.29962    178804.48    56.051861    56.479933    56.479933 
  547000    396.69906   -37789.786   -37323.828    261.20075    178804.48    56.045845    56.482965    56.482965 
  548000    400.13452   -37793.837   -37323.844    224.22956    178804.48    56.039839    56.485991    56.485991 
  549000    394.45152   -37788.279   -37324.961    383.72647    178804.48    56.033845    56.489012    56.489012 
  550000    399.85357   -37790.403    -37320.74     623.6905    178804.48    56.027864    56.492028    56.492028 
  551000    396.24188   -37786.772   -37321.352    403.43449    178804.48    56.021894    56.495037    56.495037 
  552000    394.67558   -37795.538   -37331.957    190.85825    178804.48    56.015937    56.498041    56.498041 
  553000    405.24297   -37792.885   -37316.891    237.69033    178804.48    56.009993    56.501039    56.501039 
  554000    404.14124   -37789.017   -37314.318    598.50246    178804.48    56.004061    56.504031    56.504031 
  555000    403.33223   -37795.267   -37321.518    337.73205    178804.48    55.998143    56.507017    56.507017 
  556000    400.33901   -37784.862   -37314.629    532.37694    178804.48    55.992238    56.509997    56.509997 
  557000    398.74834   -37787.955   -37319.591     354.6893    178804.48    55.986346     56.51297     56.51297 
  558000    396.44679   -37786.996   -37321.335      342.078    178804.48    55.980469    56.515937    56.515937 
  559000    403.78473   -37794.525   -37320.245    176.80672    178804.48    55.974605    56.518897    56.518897 
  560000    401.72243   -37791.356   -37319.498    333.18017    178804.48    55.968756     56.52185     56.52185 
  561000    401.39492   -37790.598   -37319.125    280.37945    178804.48    55.962922    56.524796    56.524796 
  562000    398.32198   -37792.328   -37324.464    214.89539    178804.48    55.957102    56.527736    56.527736 
  563000    402.89636   -37787.872   -37314.635    37.287117    178804.48    55.951297    56.530668    56.530668 
  564000    396.00531   -37795.872   -37330.729    484.93357    178804.48    55.945507    56.533593    56.533593 
  565000    399.61269   -37784.362   -37314.982    423.35747    178804.48    55.939733    56.536511    56.536511 
  566000    401.22206   -37793.763   -37322.493     236.2084    178804.48    55.933974    56.539421    56.539421 
  567000    401.03578   -37798.866   -37327.815    40.632186    178804.48    55.928232    56.542324    56.542324 
  568000    400.58616   -37791.528   -37321.004    295.91625    178804.48    55.922505    56.545219    56.545219 
  569000    400.53944   -37784.577   -37314.109    547.68571    178804.48    55.916795    56.548106    56.548106 
  570000    396.71197   -37783.543    -37317.57    552.20603    178804.48    55.911101    56.550985    56.550985 
  571000    400.26981   -37786.462    -37316.31    524.09255    178804.48    55.905425    56.553856    56.553856 
  572000    395.35416   -37794.223   -37329.845    347.70212    178804.48    55.899765    56.556719    56.556719 
  573000    395.80527    -37787.46   -37322.552    160.70188    178804.48    55.894122    56.559573    56.559573 
  574000    400.09889   -37795.273   -37325.322    122.71595    178804.48    55.888498     56.56242     56.56242 
  575000    396.19111   -37787.464   -37322.103    273.53658    178804.48     55.88289    56.565257    56.565257 
  576000    399.81426    -37791.98   -37322.364     232.4144    178804.48    55.877301    56.568086    56.568086 
  577000    395.78363    -37790.22   -37325.338    371.95137    178804.48     55.87173    56.570906    56.570906 
  578000    400.40772   -37783.466   -37313.152    572.29435    178804.48    55.866177    56.573718    56.573718 
  579000    399.50314    -37788.03   -37318.779     137.7361    178804.48    55.860643     56.57652     56.57652 
  580000    403.13514   -37794.463   -37320.946    234.83597    178804.48    55.855127    56.579314    56.579314 
  581000    402.24693   -37791.709   -37319.235    346.94878    178804.48    55.849631    56.582098    56.582098 
  582000    400.66348   -37792.863   -37322.249    374.88705    178804.48    55.844153    56.584872    56.584872 
  583000    397.97532   -37774.785   -37307.329    515.77743    178804.48    55.838696    56.587638    56.587638 
  584000    393.05295    -37789.23   -37327.556    274.33242    178804.48    55.833258    56.590393    56.590393 
  585000    403.64661   -37793.479   -37319.361    308.25169    178804.48    55.827839    56.593139    56.593139 
  586000    400.65772   -37789.882   -37319.274    346.12184    178804.48    55.822441    56.595876    56.595876 
  587000    398.32857   -37783.351    -37315.48    444.94355    178804.48    55.817063    56.598602    56.598602 
  588000    404.53196   -37788.297   -37313.139    118.56345    178804.48    55.811706    56.601318    56.601318 
  589000    398.20122   -37784.625   -37316.903    364.44425    178804.48     55.80637    56.604025    56.604025 
  590000    402.39884   -37792.197   -37319.545    3.9659328    178804.48    55.801054    56.606721    56.606721 
  591000    399.64014   -37787.679   -37318.267    254.13938    178804.48    55.795759    56.609406    56.609406 
  592000    401.10158   -37779.657   -37308.528      686.992    178804.48    55.790486    56.612081    56.612081 
  593000    402.10864   -37779.922   -37307.611    467.73902    178804.48    55.785235    56.614746    56.614746 
  594000    396.86154   -37779.769   -37313.621    475.08389    178804.48    55.780005      56.6174      56.6174 
  595000    402.54311   -37791.678   -37318.856    105.86998    178804.48    55.774797    56.620043    56.620043 
  596000    402.07547   -37788.809   -37316.536    303.65679    178804.48    55.769612    56.622675    56.622675 
  597000    394.01631   -37791.085   -37328.278    338.59153    178804.48    55.764449    56.625297    56.625297 
  598000    399.82578   -37787.984   -37318.354     140.3117    178804.48    55.759308    56.627907    56.627907 
  599000     403.1873   -37785.056   -37311.477     431.7119    178804.48     55.75419    56.630506    56.630506 
  600000    396.95049   -37783.287   -37317.034    391.09124    178804.48    55.749095    56.633093    56.633093 
  601000    402.08538   -37786.353   -37314.069    202.80636    178804.48    55.744024    56.635669    56.635669 
  602000    399.45295   -37784.549   -37315.356    360.69544    178804.48    55.738976    56.638234    56.638234 
  603000    401.17606   -37780.463   -37309.247    660.23975    178804.48    55.733951    56.640787    56.640787 
  604000    397.55076   -37780.767   -37313.809     456.8048    178804.48     55.72895    56.643328    56.643328 
  605000    397.76241   -37789.027   -37321.821      181.183    178804.48    55.723974    56.645858    56.645858 
  606000    404.99962   -37786.142   -37310.435    278.07932    178804.48    55.719021    56.648375    56.648375 
  607000    395.92415   -37781.868   -37316.821    465.82006    178804.48    55.714093     56.65088     56.65088 
  608000    400.65081   -37790.503   -37319.904    218.75547    178804.48    55.709189    56.653374    56.653374 
  609000    405.54955   -37781.316   -37304.963    746.92336    178804.48    55.704311    56.655854    56.655854 
  610000    402.96765   -37783.002   -37309.682    647.69842    178804.48    55.699457    56.658323    56.658323 
  611000    401.30452   -37781.086   -37309.719    587.79842    178804.48    55.694628    56.660779    56.660779 
  612000    401.01571   -37790.427   -37319.399    315.04789    178804.48    55.689825    56.663223    56.663223 
  613000    400.81513   -37782.104   -37311.312    472.73243    178804.48    55.685047    56.665653    56.665653 
  614000    398.42514     -37784.7   -37316.715    332.92959    178804.48    55.680295    56.668071    56.668071 
  615000    399.65497   -37786.512   -37317.082    421.28603    178804.48    55.675569    56.670476    56.670476 
  616000    395.92205   -37777.955    -37312.91     675.5173    178804.48    55.670869    56.672869    56.672869 
  617000    402.47073    -37786.79   -37314.053    248.65354    178804.48    55.666195    56.675248    56.675248 
  618000    401.61256   -37786.373   -37314.644    567.69417    178804.48    55.661548    56.677614    56.677614 
  619000     406.6211   -37789.409   -37311.797    235.74785    178804.48    55.656927    56.679966    56.679966 
  620000    404.02173   -37783.386   -37308.827    460.41385    178804.48    55.652334    56.682305    56.682305 
  621000    399.99574   -37781.943   -37312.114    398.45428    178804.48    55.647767    56.684631    56.684631 
  622000    400.50005   -37787.425   -37317.003    235.44333    178804.48    55.643227    56.686943    56.686943 
  623000    404.09677    -37787.79   -37313.143    251.79671    178804.48    55.638715    56.689242    56.689242 
  624000     400.6751   -37784.952   -37314.324    383.89848    178804.48    55.634231    56.691527    56.691527 
  625000    396.01196   -37794.713   -37329.563    235.34536    178804.48    55.629774    56.693797    56.693797 
  626000    402.12087   -37786.593   -37314.267    351.17591    178804.48    55.625345    56.696054    56.696054 
  627000    401.56186   -37785.813   -37314.143    451.96746    178804.48    55.620944    56.698297    56.698297 
  628000    398.24871   -37790.549   -37322.771    537.02378    178804.48    55.616572    56.700526    56.700526 
  629000    399.96041   -37775.394   -37305.605    562.13191    178804.48    55.612228    56.702741    56.702741 
  630000    399.06522   -37784.759   -37316.023    209.38483    178804.48    55.607912    56.704941    56.704941 
  631000    399.57204   -37786.354   -37317.022    408.95508    178804.48    55.603625    56.707127    56.707127 
  632000    397.00507   -37789.786   -37323.469    419.15712    178804.48    55.599368    56.709298    56.709298 
  633000    399.20777   -37792.353   -37323.449    219.24709    178804.48    55.595139    56.711454    56.711454 
  634000    396.54401   -37780.656   -37314.881    426.85069    178804.48     55.59094    56.713596    56.713596 
  635000     400.2361    -37783.03   -37312.918    527.92697    178804.48     55.58677    56.715724    56.715724 
  636000    399.71111   -37783.915    -37314.42    597.24416    178804.48    55.582629    56.717836    56.717836 
  637000    398.89811   -37789.128   -37320.588    400.22619    178804.48    55.578519    56.719933    56.719933 
  638000    404.92935   -37790.543   -37314.918     136.8977    178804.48    55.574438    56.722016    56.722016 
  639000    399.61822   -37783.329   -37313.942    560.60172    178804.48    55.570388    56.724083    56.724083 
  640000    400.91953   -37781.459   -37310.544    434.08808    178804.48    55.566367    56.726135    56.726135 
  641000    396.82975   -37785.969   -37319.858    271.72012    178804.48    55.562378    56.728171    56.728171 
  642000    399.88741   -37781.159   -37311.456    531.35929    178804.48    55.558418    56.730193    56.730193 
  643000    395.82257   -37785.151   -37320.223    77.044565    178804.48     55.55449    56.732198    56.732198 
  644000     398.6314   -37779.927     -37311.7    563.96476    178804.48    55.550592    56.734189    56.734189 
  645000    400.24595   -37785.596   -37315.472    494.77583    178804.48    55.546726    56.736163    56.736163 
  646000    399.43413   -37783.895   -37314.725    433.08039    178804.48     55.54289    56.738122    56.738122 
  647000    400.01865    -37779.96   -37310.103    545.45165    178804.48    55.539086    56.740065    56.740065 
  648000    399.06042   -37778.947   -37310.216    545.88395    178804.48    55.535314    56.741992    56.741992 
  649000    397.28114   -37792.279   -37325.638    132.16583    178804.48    55.531573    56.743904    56.743904 
  650000    398.07698    -37777.99   -37310.414    656.68176    178804.48    55.527864    56.745799    56.745799 
  651000    401.63323   -37777.654   -37305.901    647.07644    178804.48    55.524187    56.747678    56.747678 
  652000    404.69243    -37781.87   -37306.524     623.0151    178804.48    55.520541     56.74954     56.74954 
  653000    401.78638   -37795.658   -37323.725    111.47059    178804.48    55.516929    56.751387    56.751387 
  654000    401.27018   -37797.942   -37326.616    103.76971    178804.48    55.513348    56.753217    56.753217 
  655000    397.46438   -37788.062   -37321.205    288.53143    178804.48      55.5098    56.755031    56.755031 
  656000    404.25177   -37781.743   -37306.914    572.04461    178804.48    55.506285    56.756828    56.756828 
  657000    404.97414   -37782.134   -37306.457    561.87648    178804.48    55.502802    56.758609    56.758609 
  658000    401.68844   -37781.808    -37309.99    337.20242    178804.48    55.499353    56.760372    56.760372 
  659000     400.5959   -37788.138   -37317.603    402.93719    178804.48    55.495936     56.76212     56.76212 
  660000     396.1958    -37777.59   -37312.224     637.7698    178804.48    55.492553     56.76385     56.76385 
  661000     401.1532   -37778.528   -37307.339    545.48816    178804.48    55.489203    56.765563    56.765563 
  662000    399.49235   -37780.252   -37311.013    568.16848    178804.48    55.485886     56.76726     56.76726 
  663000    402.43224   -37783.316   -37310.624    518.72489    178804.48    55.482603    56.768939    56.768939 
  664000    393.22363   -37789.829   -37327.953    317.55566    178804.48    55.479354    56.770602    56.770602 
  665000    401.90575   -37781.183   -37309.109    608.08317    178804.48    55.476139    56.772247    56.772247 
  666000    396.89388   -37779.663   -37313.476    558.89385    178804.48    55.472957    56.773875    56.773875 
  667000    406.90197   -37783.651   -37305.709    571.67138    178804.48     55.46981    56.775485    56.775485 
  668000     396.3402   -37786.302   -37320.766     449.5951    178804.48    55.466697    56.777079    56.777079 
  669000    399.18809   -37783.707   -37314.826    490.51139    178804.48    55.463618    56.778654    56.778654 
  670000    397.79009   -37782.798   -37315.559    450.41291    178804.48    55.460574    56.780213    56.780213 
  671000    397.18412   -37779.505   -37312.978    747.57868    178804.48    55.457564    56.781753    56.781753 
  672000    393.80576   -37778.944   -37316.385    587.97248    178804.48    55.454589    56.783276    56.783276 
  673000    400.33946   -37781.182   -37310.949     630.1001    178804.48    55.451649    56.784782    56.784782 
  674000    396.94692    -37785.28   -37319.031    539.26088    178804.48    55.448744    56.786269    56.786269 
  675000    396.63324    -37784.24   -37318.359    365.90194    178804.48    55.445874    56.787739    56.787739 
  676000    398.58373   -37778.871     -37310.7    405.70799    178804.48    55.443039    56.789191    56.789191 
  677000    402.39286   -37772.063   -37299.418    752.77919    178804.48     55.44024    56.790625    56.790625 
  678000    407.08258   -37780.669   -37302.515    619.35514    178804.48    55.437475    56.792041    56.792041 
  679000    405.02699   -37780.109    -37304.37    695.86993    178804.48    55.434747    56.793438    56.793438 
  680000    395.78874   -37781.095   -37316.207    251.73438    178804.48    55.432054    56.794818    56.794818 
  681000    407.29955   -37781.034   -37302.625    419.30697    178804.48    55.429396    56.796179    56.796179 
  682000    402.29786   -37786.683   -37314.149    379.86878    178804.48    55.426775    56.797522    56.797522 
[...]
 9838000    402.74799   -37776.962   -37303.899    551.18586    178804.48    55.485886     56.76726     56.76726 
 9839000    397.64357   -37784.419   -37317.352    481.10756    178804.48    55.489203    56.765563    56.765563 
 9840000    400.87174   -37780.611   -37309.752    485.28051    178804.48    55.492553     56.76385     56.76385 
 9841000    393.69146   -37787.506   -37325.082      343.126    178804.48    55.495936     56.76212     56.76212 
 9842000     399.7008   -37789.517   -37320.034     279.8054    178804.48    55.499353    56.760372    56.760372 
 9843000    394.31033   -37787.026   -37323.874    627.44657    178804.48    55.502802    56.758609    56.758609 
 9844000    401.97575   -37789.687   -37317.531    466.06309    178804.48    55.506285    56.756828    56.756828 
 9845000    402.95082   -37785.513   -37312.212     372.9927    178804.48      55.5098    56.755031    56.755031 
 9846000    395.02681   -37784.387   -37320.394    518.14194    178804.48    55.513348    56.753217    56.753217 
 9847000    396.32584   -37785.716   -37320.197    451.88823    178804.48    55.516929    56.751387    56.751387 
 9848000    405.20014   -37786.267   -37310.324    419.57702    178804.48    55.520541     56.74954     56.74954 
 9849000    393.28783   -37785.206   -37323.255    298.04644    178804.48    55.524187    56.747678    56.747678 
 9850000    402.94658   -37782.888   -37309.592    586.08625    178804.48    55.527864    56.745799    56.745799 
 9851000     397.5266   -37776.788   -37309.858    537.52469    178804.48    55.531573    56.743904    56.743904 
 9852000    392.74934   -37790.968    -37329.65    195.83028    178804.48    55.535314    56.741992    56.741992 
 9853000    393.99987   -37780.633   -37317.846    780.70202    178804.48    55.539086    56.740065    56.740065 
 9854000    397.64896   -37772.836   -37305.763    793.53509    178804.48     55.54289    56.738122    56.738122 
 9855000    399.68298   -37786.741   -37317.279    403.32634    178804.48    55.546726    56.736163    56.736163 
 9856000     399.1598   -37789.937   -37321.089    221.77606    178804.48    55.550592    56.734189    56.734189 
 9857000    402.59393   -37786.136   -37313.254    489.29989    178804.48     55.55449    56.732198    56.732198 
 9858000    398.04546    -37784.51   -37316.971    624.12504    178804.48    55.558418    56.730193    56.730193 
 9859000    403.04369   -37789.639    -37316.23    286.48024    178804.48    55.562378    56.728171    56.728171 
 9860000     397.8927   -37780.108   -37312.748     481.3432    178804.48    55.566367    56.726135    56.726135 
 9861000    399.29239    -37781.27   -37312.266    802.62947    178804.48    55.570388    56.724083    56.724083 
 9862000    398.42869   -37785.477   -37317.488    282.07573    178804.48    55.574438    56.722016    56.722016 
 9863000    398.60508   -37782.252   -37314.055    422.20933    178804.48    55.578519    56.719933    56.719933 
 9864000    395.91935   -37786.462   -37321.421    329.65496    178804.48    55.582629    56.717836    56.717836 
 9865000    402.78251   -37787.096   -37313.993    513.62455    178804.48     55.58677    56.715724    56.715724 
 9866000    400.32484   -37793.231   -37323.014    250.62842    178804.48     55.59094    56.713596    56.713596 
 9867000    403.16202   -37789.931   -37316.382    328.63286    178804.48    55.595139    56.711454    56.711454 
 9868000    404.26015   -37775.925   -37301.086    761.66362    178804.48    55.599368    56.709298    56.709298 
 9869000    401.91301   -37784.389   -37312.307    496.31519    178804.48    55.603625    56.707127    56.707127 
 9870000    402.51502   -37789.117   -37316.328    425.66297    178804.48    55.607912    56.704941    56.704941 
 9871000     397.8459   -37786.304       -37319    161.36345    178804.48    55.612228    56.702741    56.702741 
 9872000    403.45908   -37783.494   -37309.596     739.5076    178804.48    55.616572    56.700526    56.700526 
 9873000    401.73253   -37779.303   -37307.433    759.80176    178804.48    55.620944    56.698297    56.698297 
 9874000    391.16103   -37780.182   -37320.729    419.62557    178804.48    55.625345    56.696054    56.696054 
 9875000    398.03701   -37784.182   -37316.653    518.47425    178804.48    55.629774    56.693797    56.693797 
 9876000    403.25981   -37785.478   -37311.814    586.06659    178804.48    55.634231    56.691527    56.691527 
 9877000    404.10153   -37785.427   -37310.775    352.15308    178804.48    55.638715    56.689242    56.689242 
 9878000      403.457   -37779.842   -37305.947    349.44269    178804.48    55.643227    56.686943    56.686943 
 9879000    393.96008   -37782.728   -37319.988    573.36319    178804.48    55.647767    56.684631    56.684631 
 9880000    398.43078   -37789.772   -37321.781    435.80612    178804.48    55.652334    56.682305    56.682305 
 9881000    397.77758   -37780.086   -37312.861    484.49376    178804.48    55.656927    56.679966    56.679966 
 9882000    397.17968   -37781.363   -37314.841    444.74389    178804.48    55.661548    56.677614    56.677614 
 9883000    398.83164   -37784.858   -37316.396    610.97767    178804.48    55.666195    56.675248    56.675248 
 9884000    396.02256   -37780.156   -37314.993    724.60169    178804.48    55.670869    56.672869    56.672869 
 9885000    396.78676   -37785.221   -37319.161    425.87207    178804.48    55.675569    56.670476    56.670476 
 9886000    398.19498   -37789.052   -37321.337    494.54073    178804.48    55.680295    56.668071    56.668071 
 9887000    398.96213   -37781.709   -37313.094    547.80859    178804.48    55.685047    56.665653    56.665653 
 9888000    405.72371   -37792.094   -37315.536    300.67588    178804.48    55.689825    56.663223    56.663223 
 9889000     397.9843   -37780.567     -37313.1    527.42059    178804.48    55.694628    56.660779    56.660779 
 9890000     402.1768   -37784.719   -37312.328    337.24043    178804.48    55.699457    56.658323    56.658323 
 9891000    398.38419   -37781.977   -37314.041    540.93379    178804.48    55.704311    56.655854    56.655854 
 9892000    396.03187   -37785.546   -37320.372    381.00544    178804.48    55.709189    56.653374    56.653374 
 9893000    399.77534   -37788.312   -37318.741     464.2469    178804.48    55.714093     56.65088     56.65088 
 9894000     400.6781   -37782.402   -37311.771    738.71307    178804.48    55.719021    56.648375    56.648375 
 9895000    400.63517    -37782.94   -37312.359    611.89372    178804.48    55.723974    56.645858    56.645858 
 9896000     396.4519   -37785.518   -37319.851    319.11181    178804.48     55.72895    56.643328    56.643328 
 9897000    406.86022   -37784.753    -37306.86    389.52689    178804.48    55.733951    56.640787    56.640787 
 9898000    401.21299   -37792.963   -37321.704    134.74486    178804.48    55.738976    56.638234    56.638234 
 9899000    402.68959   -37792.029   -37319.035    331.01784    178804.48    55.744024    56.635669    56.635669 
 9900000    405.60986   -37783.467   -37307.043    447.87748    178804.48    55.749095    56.633093    56.633093 
 9901000    401.72742   -37782.999   -37311.135    444.90381    178804.48     55.75419    56.630506    56.630506 
 9902000    402.18974   -37782.574   -37310.167    531.29104    178804.48    55.759308    56.627907    56.627907 
 9903000    405.23979   -37785.495   -37309.506    422.30656    178804.48    55.764449    56.625297    56.625297 
 9904000    396.40289   -37785.254   -37319.644    420.21806    178804.48    55.769612    56.622675    56.622675 
 9905000    398.17972   -37785.619   -37317.922    305.84961    178804.48    55.774797    56.620043    56.620043 
 9906000    398.87329   -37791.117   -37322.606    169.88527    178804.48    55.780005      56.6174      56.6174 
 9907000    392.82294   -37793.128   -37331.723    274.40798    178804.48    55.785235    56.614746    56.614746 
 9908000    396.30869    -37786.36   -37320.861    269.42493    178804.48    55.790486    56.612081    56.612081 
 9909000    402.80672   -37794.465   -37321.334    232.07773    178804.48    55.795759    56.609406    56.609406 
 9910000    403.54592   -37785.261   -37311.261    551.98388    178804.48    55.801054    56.606721    56.606721 
 9911000    398.72489   -37795.264   -37326.927    293.67643    178804.48     55.80637    56.604025    56.604025 
 9912000    396.91516   -37785.744   -37319.533    548.69625    178804.48    55.811706    56.601318    56.601318 
 9913000    395.79394   -37786.897   -37322.002    216.14823    178804.48    55.817063    56.598602    56.598602 
 9914000    407.62425   -37787.965   -37309.175    407.79069    178804.48    55.822441    56.595876    56.595876 
 9915000    400.78754   -37789.649   -37318.889    411.93062    178804.48    55.827839    56.593139    56.593139 
 9916000    405.80874   -37787.687    -37311.03    518.45856    178804.48    55.833258    56.590393    56.590393 
 9917000    404.31357   -37784.237   -37309.335    560.90699    178804.48    55.838696    56.587638    56.587638 
 9918000    405.24143   -37788.983   -37312.992    312.56917    178804.48    55.844153    56.584872    56.584872 
 9919000    394.11762   -37795.176   -37332.251    155.76836    178804.48    55.849631    56.582098    56.582098 
 9920000    394.11917   -37780.878   -37317.951    489.46885    178804.48    55.855127    56.579314    56.579314 
 9921000     406.3957   -37791.651   -37314.304    336.51341    178804.48    55.860643     56.57652     56.57652 
 9922000    401.86744   -37786.748    -37314.72    385.26781    178804.48    55.866177    56.573718    56.573718 
 9923000    408.51625   -37791.173   -37311.335    323.70845    178804.48     55.87173    56.570906    56.570906 
 9924000    400.51591   -37790.939   -37320.498    250.89198    178804.48    55.877301    56.568086    56.568086 
 9925000    397.99437   -37791.406   -37323.927    475.22889    178804.48     55.88289    56.565257    56.565257 
 9926000    399.92957       -37794   -37324.248    211.60446    178804.48    55.888498     56.56242     56.56242 
 9927000    399.66465   -37792.207   -37322.767    232.20897    178804.48    55.894122    56.559573    56.559573 
 9928000    398.17998   -37792.481   -37324.784     237.4249    178804.48    55.899765    56.556719    56.556719 
 9929000    397.06967   -37786.975   -37320.582    366.41753    178804.48    55.905425    56.553856    56.553856 
 9930000    400.75774   -37788.073   -37317.349    412.20016    178804.48    55.911101    56.550985    56.550985 
 9931000    395.43605   -37788.358   -37323.884    310.28583    178804.48    55.916795    56.548106    56.548106 
 9932000     398.7409   -37785.682   -37317.326     455.0115    178804.48    55.922505    56.545219    56.545219 
 9933000    400.87551   -37788.248   -37317.385    396.63402    178804.48    55.928232    56.542324    56.542324 
 9934000    397.45215   -37789.903   -37323.061    393.69199    178804.48    55.933974    56.539421    56.539421 
 9935000    397.87796   -37795.053   -37327.711    287.41537    178804.48    55.939733    56.536511    56.536511 
 9936000    401.69967   -37790.411    -37318.58    330.10457    178804.48    55.945507    56.533593    56.533593 
 9937000    399.53399   -37786.666   -37317.379    286.69057    178804.48    55.951297    56.530668    56.530668 
 9938000    404.03202   -37796.657   -37322.086    57.507155    178804.48    55.957102    56.527736    56.527736 
 9939000    399.26462   -37792.415   -37323.444    427.97167    178804.48    55.962922    56.524796    56.524796 
 9940000    391.79162   -37793.431   -37333.238    56.148243    178804.48    55.968756     56.52185     56.52185 
 9941000    400.48137   -37790.426   -37320.025   -15.081518    178804.48    55.974605    56.518897    56.518897 
 9942000    401.55328    -37784.43   -37312.771    421.03725    178804.48    55.980469    56.515937    56.515937 
 9943000    400.68593   -37788.076   -37317.436    424.44303    178804.48    55.986346     56.51297     56.51297 
 9944000    403.09424   -37784.977   -37311.508    536.02536    178804.48    55.992238    56.509997    56.509997 
 9945000    398.30098   -37789.732   -37321.893    408.81363    178804.48    55.998143    56.507017    56.507017 
 9946000    407.25443   -37787.706    -37309.35    518.61822    178804.48    56.004061    56.504031    56.504031 
 9947000    394.79325    -37790.07   -37326.351    332.10574    178804.48    56.009993    56.501039    56.501039 
 9948000    397.47953   -37792.288   -37325.414    458.95666    178804.48    56.015937    56.498041    56.498041 
 9949000    402.13553   -37788.054   -37315.711    511.37207    178804.48    56.021894    56.495037    56.495037 
 9950000    396.92481   -37786.515   -37320.293    412.36979    178804.48    56.027864    56.492028    56.492028 
 9951000    398.03557   -37794.765   -37327.238    179.01359    178804.48    56.033845    56.489012    56.489012 
 9952000    401.22486    -37793.51   -37322.236    264.34813    178804.48    56.039839    56.485991    56.485991 
 9953000    401.99691   -37798.092   -37325.912   -26.572799    178804.48    56.045845    56.482965    56.482965 
 9954000    395.68585   -37791.233   -37326.465    219.02167    178804.48    56.051861    56.479933    56.479933 
 9955000    403.51817   -37780.778    -37306.81    564.69629    178804.48     56.05789    56.476897    56.476897 
 9956000    400.73703   -37793.926   -37323.225    148.89531    178804.48    56.063929    56.473855    56.473855 
 9957000    403.79543   -37801.008   -37326.715    21.878951    178804.48    56.069979    56.470808    56.470808 
 9958000    399.22752   -37784.702   -37315.774    366.78261    178804.48    56.076039    56.467756    56.467756 
 9959000    397.15004   -37796.516   -37330.029    182.14421    178804.48     56.08211      56.4647      56.4647 
 9960000    395.55245    -37784.14    -37319.53    370.94287    178804.48    56.088191    56.461639    56.461639 
 9961000    397.19463   -37792.614   -37326.074    102.44481    178804.48    56.094281    56.458574    56.458574 
 9962000    400.16233   -37795.537   -37325.512    196.17843    178804.48    56.100382    56.455504    56.455504 
 9963000    406.56209   -37795.716   -37318.173    373.56228    178804.48    56.106491     56.45243     56.45243 
 9964000    398.52044   -37786.599   -37318.502    182.61352    178804.48     56.11261    56.449352    56.449352 
 9965000    395.07251   -37782.026   -37317.979    523.90335    178804.48    56.118737     56.44627     56.44627 
 9966000     402.0207   -37780.032   -37307.823    759.92292    178804.48    56.124874    56.443184    56.443184 
 9967000    396.30566   -37792.605    -37327.11    90.543062    178804.48    56.131018    56.440095    56.440095 
 9968000    401.85487     -37795.3   -37323.286     230.6006    178804.48    56.137171    56.437002    56.437002 
 9969000    398.81594    -37794.08   -37325.636     377.3779    178804.48    56.143331    56.433906    56.433906 
 9970000    396.79564   -37787.739   -37321.668    327.23935    178804.48    56.149499    56.430806    56.430806 
 9971000    393.36011   -37793.236     -37331.2    79.014115    178804.48    56.155675    56.427703    56.427703 
 9972000    396.25584   -37790.899   -37325.462    468.11033    178804.48    56.161858    56.424597    56.424597 
 9973000    397.71383   -37790.293   -37323.144    293.08709    178804.48    56.168047    56.421488    56.421488 
 9974000     398.4587   -37789.622   -37321.598    152.03423    178804.48    56.174244    56.418376    56.418376 
 9975000    396.07895    -37794.79    -37329.56    287.12886    178804.48    56.180446    56.415261    56.415261 
 9976000    400.43544    -37785.03   -37314.684    428.72799    178804.48    56.186655    56.412144    56.412144 
 9977000    390.42472   -37796.707   -37338.119    284.64095    178804.48     56.19287    56.409024    56.409024 
 9978000    398.60861   -37785.296   -37317.096     492.4927    178804.48     56.19909    56.405903    56.405903 
 9979000    405.49591   -37789.439   -37313.149    350.77844    178804.48    56.205316    56.402778    56.402778 
 9980000    392.65662    -37793.22   -37332.011     191.5824    178804.48    56.211547    56.399652    56.399652 
 9981000    400.15567   -37796.669   -37326.651    243.59637    178804.48    56.217784    56.396524    56.396524 
 9982000    402.46543   -37799.496   -37326.765    144.74253    178804.48    56.224024    56.393394    56.393394 
 9983000    403.88834   -37794.114   -37319.712    369.67479    178804.48     56.23027    56.390262    56.390262 
 9984000    397.04522   -37786.035   -37319.671    318.78171    178804.48    56.236519    56.387129    56.387129 
 9985000     400.9087   -37792.134   -37321.232    239.17786    178804.48    56.242772    56.383994    56.383994 
 9986000    396.03316   -37792.017   -37326.841    457.61489    178804.48     56.24903    56.380858    56.380858 
 9987000    394.38741    -37797.84   -37334.597    171.21657    178804.48     56.25529     56.37772     56.37772 
 9988000    395.79458   -37792.283   -37327.388    180.80801    178804.48    56.261554    56.374582    56.374582 
 9989000    403.65078   -37791.004   -37316.881     311.8255    178804.48    56.267821    56.371443    56.371443 
 9990000    402.01228    -37790.01   -37317.812    448.03981    178804.48     56.27409    56.368302    56.368302 
 9991000    398.46268   -37792.788   -37324.759    326.56784    178804.48    56.280362    56.365161    56.365161 
 9992000    404.34216   -37788.979   -37314.044    491.77962    178804.48    56.286636     56.36202     56.36202 
 9993000    405.84921   -37791.922   -37315.216    184.80402    178804.48    56.292913    56.358878    56.358878 
 9994000    400.40436    -37793.01     -37322.7    160.79954    178804.48    56.299191    56.355735    56.355735 
 9995000    404.05908   -37793.011   -37318.408    348.42727    178804.48     56.30547    56.352593    56.352593 
 9996000    403.63967   -37787.419   -37313.309    632.96885    178804.48    56.311751     56.34945     56.34945 
 9997000     401.1685   -37794.353   -37323.146    351.27671    178804.48    56.318032    56.346307    56.346307 
 9998000    398.87621   -37789.711   -37321.196    329.70241    178804.48    56.324315    56.343165    56.343165 
 9999000    399.36637   -37794.519   -37325.428    186.93315    178804.48    56.330598    56.340023    56.340023 
10000000    402.82516   -37794.987   -37321.834    95.557534    178804.48    56.336881    56.336881    56.336881 
Loop time of 4671.54 on 48 procs for 10000000 steps with 9088 atoms

Performance: 1849.498 ns/day, 0.013 hours/ns, 2140.623 timesteps/s
99.3% CPU use with 48 MPI tasks x 1 OpenMP threads

MPI task timing breakdown:
Section |  min time  |  avg time  |  max time  |%varavg| %total
---------------------------------------------------------------
Pair    | 3267.6     | 3390.5     | 3505.7     |  82.1 | 72.58
Neigh   | 153.82     | 167.13     | 182.04     |  53.4 |  3.58
Comm    | 627.09     | 714.16     | 868.71     | 179.5 | 15.29
Output  | 0.32889    | 0.3772     | 2.3177     |  46.1 |  0.01
Modify  | 315.27     | 344.07     | 384.45     | 102.9 |  7.37
Other   |            | 55.26      |            |       |  1.18

Nlocal:        189.333 ave         201 max         179 min
Histogram: 3 4 1 5 9 16 4 3 2 1
Nghost:        2106.81 ave        2121 max        2091 min
Histogram: 2 2 4 5 9 6 9 4 2 5
Neighs:        20009.0 ave       21213 max       18492 min
Histogram: 2 0 3 9 7 5 8 7 4 3

Total # of neighbors = 960430
Ave neighs/atom = 105.68112
Neighbor list builds = 1040756
Dangerous builds = 0
write_restart rst.${T}
write_restart rst.400
System init for write_restart ...
clear
OMP_NUM_THREADS environment is not set. Defaulting to 1 thread. (../comm.cpp:94)
  using 1 OpenMP thread(s) per MPI task
package intel 1
jump dms420.lmp
#MD-DMS by Ha-Bin Yu
variable T equal 420
log log.${T}
log log.420
