units           metal
boundary        p p p
atom_style      atomic
read_data      ../../data/T${T}.dat
read_data      ../../data/T560.dat
Reading data file ...
  orthogonal box = (-0.28341892 -0.28341892 -0.28341892) to (56.167912 56.167912 56.167912)
  3 by 4 by 4 MPI processor grid
  reading atoms ...
  9088 atoms
  reading velocities ...
  9088 velocities
  read_data CPU = 0.034 seconds
mass            1  26.98	#Al
mass            2  150.36	#Sm
pair_style      eam/fs
pair_coeff      * *  ../../Al90Sm10_MendelevM_2014.eam.fs  Al Sm

neighbor        2.0 bin
neigh_modify    delay 1

timestep 0.01
thermo 1000
reset_timestep 0
thermo_style custom step temp pe etotal press vol lx ly lz
fix             1 all nvt temp ${T} ${T} 0.1
fix             1 all nvt temp 560 ${T} 0.1
fix             1 all nvt temp 560 560 0.1
thermo_modify flush yes
fix nodrift all momentum 1  linear 1 1 1
fix com_seed all recenter INIT INIT INIT shift all
fix dsf all deform 1 x  wiggle 1.0  10000.0 y volume z volume units box
fix ps1 all ave/time 1 1 10000 c_thermo_press[1] c_thermo_press[2]  c_thermo_press[3] c_thermo_press[4]  c_thermo_press[5] c_thermo_press[6]  file  stress.${T}
fix ps1 all ave/time 1 1 10000 c_thermo_press[1] c_thermo_press[2]  c_thermo_press[3] c_thermo_press[4]  c_thermo_press[5] c_thermo_press[6]  file  stress.560
dump            1 all custom 1000000 dump.${T} id type x y z
dump            1 all custom 1000000 dump.560 id type x y z
dump_modify 1 sort id
run 10000000
Neighbor list info ...
  update every 1 steps, delay 1 steps, check yes
  max neighbors/atom: 2000, page size: 100000
  master list distance cutoff = 10
  ghost atom cutoff = 10
  binsize = 5, bins = 12 12 12
  1 neighbor lists, perpetual/occasional/extra = 1 0 0
  (1) pair eam/fs/intel, perpetual
      attributes: half, newton on, intel
      pair build: half/bin/newton/intel
      stencil: half/bin/3d/newton
      bin: intel
Per MPI rank memory allocation (min/avg/max) = 6.289 | 6.396 | 6.513 Mbytes
Step Temp PotEng TotEng Press Volume Lx Ly Lz 
       0    565.34449   -37606.853   -36942.807     1119.915    179896.43     56.45133     56.45133     56.45133 
    1000    557.02126   -37581.084   -36926.814    1597.9572    179896.43    56.457614    56.448189    56.448189 
    2000    557.96476   -37579.693   -36924.315    1409.2995    179896.43    56.463897    56.445048    56.445048 
    3000    553.37626   -37560.381   -36910.392    1861.0951    179896.43    56.470179    56.441909    56.441909 
    4000    559.10066       -37576   -36919.287    1519.4967    179896.43    56.476461     56.43877     56.43877 
    5000    564.93259   -37569.513   -36905.951    1973.2884    179896.43    56.482741    56.435632    56.435632 
    6000     563.9795   -37581.088   -36918.645     1534.328    179896.43    56.489021    56.432495    56.432495 
    7000    561.43711   -37574.568   -36915.112     1786.911    179896.43    56.495299    56.429359    56.429359 
    8000    566.58157   -37575.235   -36909.736    1626.5217    179896.43    56.501575    56.426225    56.426225 
    9000     558.9211   -37584.999   -36928.498    1438.7708    179896.43    56.507849    56.423092    56.423092 
   10000      572.464   -37559.374   -36886.965    2280.0403    179896.43    56.514121    56.419961    56.419961 
   11000    560.71306   -37571.246   -36912.639    1747.8135    179896.43     56.52039    56.416832    56.416832 
   12000    564.61368   -37584.798    -36921.61    1255.0235    179896.43    56.526657    56.413705    56.413705 
   13000    560.19227   -37586.427   -36928.432    1268.3572    179896.43    56.532921    56.410579    56.410579 
   14000    561.66388    -37575.63   -36915.907    1881.7533    179896.43    56.539182    56.407456    56.407456 
   15000    564.00713   -37579.438   -36916.963    1460.2266    179896.43    56.545439    56.404335    56.404335 
   16000    559.96666   -37588.836   -36931.106    1408.7384    179896.43    56.551692    56.401216    56.401216 
   17000    549.60093   -37579.989   -36934.435    1323.1537    179896.43    56.557942      56.3981      56.3981 
   18000     559.9284    -37582.05   -36924.366    1335.1198    179896.43    56.564187    56.394987    56.394987 
   19000    559.20887   -37567.431   -36910.592    1779.0259    179896.43    56.570428    56.391876    56.391876 
   20000     554.3055   -37581.258   -36930.178    1436.4939    179896.43    56.576664    56.388768    56.388768 
   21000    561.76951   -37580.195   -36920.348    1620.7142    179896.43    56.582895    56.385663    56.385663 
   22000    556.78526   -37577.649   -36923.656     1593.391    179896.43    56.589121    56.382561    56.382561 
   23000    542.76044   -37591.846   -36954.327    953.58541    179896.43    56.595341    56.379463    56.379463 
   24000     556.6989   -37573.562   -36919.671    1587.6254    179896.43    56.601556    56.376367    56.376367 
   25000    547.12596   -37577.126   -36934.479    1568.7779    179896.43    56.607765    56.373275    56.373275 
   26000    555.60449    -37586.57   -36933.964    1424.7232    179896.43    56.613968    56.370187    56.370187 
   27000    562.59015   -37570.626   -36909.815    1764.3615    179896.43    56.620164    56.367103    56.367103 
   28000    562.12358   -37573.833    -36913.57    1878.7983    179896.43    56.626354    56.364022    56.364022 
   29000     558.4856   -37582.097   -36926.107    1319.0433    179896.43    56.632536    56.360945    56.360945 
   30000    561.14149   -37585.182   -36926.073    1708.9621    179896.43    56.638712    56.357872    56.357872 
   31000    558.24667   -37573.568   -36917.859    1545.6925    179896.43     56.64488    56.354804    56.354804 
   32000    556.56068   -37574.816   -36921.087    1622.3803    179896.43     56.65104     56.35174     56.35174 
   33000     558.8068   -37584.424   -36928.057    1375.2047    179896.43    56.657193     56.34868     56.34868 
   34000    553.83952   -37571.972   -36921.439    1771.0567    179896.43    56.663338    56.345625    56.345625 
   35000    570.67039   -37580.407   -36910.105    1672.9866    179896.43    56.669474    56.342574    56.342574 
   36000    558.75206   -37572.541   -36916.238    1493.1547    179896.43    56.675601    56.339528    56.339528 
   37000    561.06351   -37576.622   -36917.604    1689.8511    179896.43     56.68172    56.336487    56.336487 
   38000     558.3423   -37583.322   -36927.501    1334.6084    179896.43    56.687829    56.333451    56.333451 
   39000    558.64798   -37568.441    -36912.26    1887.4792    179896.43     56.69393     56.33042     56.33042 
   40000    553.75035   -37589.344   -36938.916    1085.1841    179896.43     56.70002    56.327395    56.327395 
   41000    554.04878   -37581.039    -36930.26    1422.4416    179896.43    56.706101    56.324375    56.324375 
   42000    565.72417   -37574.277   -36909.785    1742.2816    179896.43    56.712172     56.32136     56.32136 
   43000    563.08105   -37581.602   -36920.215     1530.224    179896.43    56.718232    56.318351    56.318351 
   44000    557.05962   -37583.302   -36928.987    1523.5502    179896.43    56.724282    56.315347    56.315347 
   45000    560.80161   -37574.095   -36915.384    1676.4916    179896.43    56.730322     56.31235     56.31235 
   46000    556.58983   -37584.844   -36931.081    1283.8697    179896.43     56.73635    56.309358    56.309358 
   47000    552.52194     -37575.8   -36926.815     1500.146    179896.43    56.742367    56.306373    56.306373 
   48000    565.97988    -37572.32   -36907.527    1798.2088    179896.43    56.748372    56.303393    56.303393 
   49000      567.673   -37581.161   -36914.379    1359.9297    179896.43    56.754366     56.30042     56.30042 
   50000    555.92362   -37573.822   -36920.841    1834.3987    179896.43    56.760347    56.297453    56.297453 
   51000    568.11864   -37576.831   -36909.526    1794.8811    179896.43    56.766317    56.294493    56.294493 
   52000    555.83252   -37575.889   -36923.015    1792.7171    179896.43    56.772274     56.29154     56.29154 
   53000    557.11315   -37580.586   -36926.209    1696.0541    179896.43    56.778218    56.288593    56.288593 
   54000    558.48726   -37576.183   -36920.192    1482.2918    179896.43     56.78415    56.285653    56.285653 
   55000    557.44907   -37577.867   -36923.094    1497.5083    179896.43    56.790068     56.28272     56.28272 
   56000    563.57994   -37577.666   -36915.693    1579.4085    179896.43    56.795973    56.279794    56.279794 
   57000    563.02824   -37571.947   -36910.621    1559.1624    179896.43    56.801865    56.276875    56.276875 
   58000    558.64844   -37574.498   -36918.316    1584.7958    179896.43    56.807742    56.273964    56.273964 
   59000     553.4067   -37566.907   -36916.883    2082.9498    179896.43    56.813606     56.27106     56.27106 
   60000    563.56532   -37572.173   -36910.216    1599.8003    179896.43    56.819455    56.268164    56.268164 
   61000    554.30681   -37580.103   -36929.021    1712.3885    179896.43     56.82529    56.265275    56.265275 
   62000    563.17094   -37569.887   -36908.394    1826.5731    179896.43     56.83111    56.262394    56.262394 
   63000     555.7276   -37569.043   -36916.292     1759.716    179896.43    56.836914    56.259521    56.259521 
   64000    556.93702   -37576.701    -36922.53    1622.9885    179896.43    56.842704    56.256655    56.256655 
   65000     561.1714   -37582.364   -36923.219    1427.2363    179896.43    56.848478    56.253798    56.253798 
   66000     558.5663   -37564.032   -36907.947     1987.057    179896.43    56.854237    56.250949    56.250949 
   67000    565.05966   -37571.818   -36908.107    1808.6741    179896.43     56.85998    56.248109    56.248109 
   68000    558.98472   -37576.142   -36919.566    1518.4617    179896.43    56.865706    56.245276    56.245276 
   69000    562.94857   -37576.117   -36914.885    1536.2865    179896.43    56.871416    56.242453    56.242453 
   70000    566.47739   -37580.942   -36915.565    1676.2691    179896.43     56.87711    56.239638    56.239638 
   71000    562.85649   -37584.969   -36923.845    1276.5695    179896.43    56.882787    56.236831    56.236831 
   72000    559.76359   -37567.547   -36910.056     1809.905    179896.43    56.888446    56.234034    56.234034 
   73000    569.52131   -37571.989   -36903.036    1385.9705    179896.43    56.894089    56.231245    56.231245 
   74000    556.30417   -37573.723   -36920.296    1698.3013    179896.43    56.899714    56.228466    56.228466 
   75000    562.03726   -37572.333   -36912.171    1869.7917    179896.43    56.905321    56.225695    56.225695 
   76000    556.77568   -37571.338   -36917.357    1684.1163    179896.43     56.91091    56.222934    56.222934 
   77000    552.86434   -37574.323   -36924.935     1655.179    179896.43    56.916482    56.220182    56.220182 
   78000    563.30831   -37571.014    -36909.36    1670.6328    179896.43    56.922034     56.21744     56.21744 
   79000    563.64415   -37573.051   -36911.002     1694.183    179896.43    56.927569    56.214707    56.214707 
   80000    558.99658   -37578.491   -36921.901    1555.0831    179896.43    56.933084    56.211984    56.211984 
   81000     558.5944   -37574.991   -36918.873    1575.1338    179896.43    56.938581    56.209271    56.209271 
   82000    558.09232   -37580.628     -36925.1    1268.5323    179896.43    56.944058    56.206568    56.206568 
   83000    567.26922    -37558.79   -36892.483    2096.6839    179896.43    56.949516    56.203875    56.203875 
   84000    557.99392   -37573.258   -36917.846    1548.0874    179896.43    56.954954    56.201191    56.201191 
   85000    555.96691   -37572.438   -36919.407    1707.1831    179896.43    56.960372    56.198518    56.198518 
   86000    557.69811   -37567.635   -36912.571     1678.996    179896.43     56.96577    56.195855    56.195855 
   87000    556.26387   -37579.634   -36926.254    1380.7958    179896.43    56.971148    56.193203    56.193203 
   88000    563.25652   -37578.534    -36916.94     1542.213    179896.43    56.976505    56.190561    56.190561 
   89000    558.49876   -37580.834   -36924.828    1315.8018    179896.43    56.981842     56.18793     56.18793 
   90000    564.83747   -37570.302   -36906.851    1726.0642    179896.43    56.987157    56.185309    56.185309 
   91000    554.35517   -37574.615   -36923.477    1742.7805    179896.43    56.992452      56.1827      56.1827 
   92000    554.50764   -37560.291   -36908.973     1907.974    179896.43    56.997725    56.180101    56.180101 
   93000    566.23194   -37566.467   -36901.378    2092.7026    179896.43    57.002976    56.177513    56.177513 
   94000    550.65301    -37579.72    -36932.93    1511.5943    179896.43    57.008206    56.174936    56.174936 
   95000    552.57967   -37567.755   -36918.702    1900.8255    179896.43    57.013414     56.17237     56.17237 
   96000     560.5585    -37581.96   -36923.536    1503.1757    179896.43    57.018599    56.169816    56.169816 
   97000    558.41735   -37569.463   -36913.553    1850.4946    179896.43    57.023763    56.167273    56.167273 
   98000     558.3156   -37577.912   -36922.122    1651.2671    179896.43    57.028903    56.164741    56.164741 
   99000    563.19412   -37573.309   -36911.789    1648.7088    179896.43    57.034021    56.162221    56.162221 
  100000    556.77859   -37574.516   -36920.531    1794.9361    179896.43    57.039116    56.159713    56.159713 
  101000    559.02666    -37574.06   -36917.434    1454.5628    179896.43    57.044187    56.157217    56.157217 
  102000    553.90469   -37575.577   -36924.967      1627.23    179896.43    57.049235    56.154732    56.154732 
  103000    557.55168   -37571.861   -36916.968    1553.0721    179896.43     57.05426    56.152259    56.152259 
  104000    563.01057   -37576.101   -36914.796    1791.6411    179896.43    57.059261    56.149799    56.149799 
  105000    561.67234   -37569.175   -36909.442    1927.6613    179896.43    57.064238     56.14735     56.14735 
  106000    567.80291   -37577.813   -36910.879     1492.096    179896.43     57.06919    56.144914    56.144914 
  107000     567.3038   -37579.635   -36913.288      1606.62    179896.43    57.074118     56.14249     56.14249 
  108000    559.11325   -37579.216   -36922.489     1592.145    179896.43    57.079022    56.140078    56.140078 
  109000     555.0855   -37568.304   -36916.308    1637.7877    179896.43    57.083901    56.137679    56.137679 
  110000    562.87745   -37571.838    -36910.69    1755.0183    179896.43    57.088754    56.135292    56.135292 
  111000     553.9728   -37573.412   -36922.723    1712.9436    179896.43    57.093583    56.132919    56.132919 
  112000    553.33873   -37578.299   -36928.355    1464.3134    179896.43    57.098386    56.130557    56.130557 
  113000    557.61529   -37564.543   -36909.575    1968.4938    179896.43    57.103164    56.128209    56.128209 
  114000    552.37257   -37580.803   -36931.993    1447.4829    179896.43    57.107916    56.125874    56.125874 
  115000     558.2674   -37578.701   -36922.967    1435.1814    179896.43    57.112642    56.123552    56.123552 
  116000    553.69227   -37580.757   -36930.397    1491.5657    179896.43    57.117342    56.121242    56.121242 
  117000     566.0299       -37567   -36902.149    1625.5081    179896.43    57.122016    56.118946    56.118946 
  118000    558.11581   -37572.693   -36917.138    1641.8779    179896.43    57.126663    56.116664    56.116664 
  119000    563.06006   -37560.694   -36899.331    2060.6054    179896.43    57.131284    56.114395    56.114395 
  120000    560.05788   -37567.973   -36910.136    1604.0519    179896.43    57.135878    56.112139    56.112139 
  121000    549.47874   -37579.737   -36934.327    1276.4452    179896.43    57.140444    56.109896    56.109896 
  122000    556.91074   -37560.703   -36906.562    1995.7408    179896.43    57.144984    56.107668    56.107668 
  123000    564.22112   -37575.847    -36913.12    1686.1854    179896.43    57.149496    56.105453    56.105453 
  124000    554.44112   -37569.813   -36918.574    1495.9949    179896.43     57.15398    56.103252    56.103252 
  125000    550.24556   -37576.751    -36930.44    1492.5005    179896.43    57.158437    56.101064    56.101064 
  126000    558.52972    -37564.51   -36908.468    1664.2753    179896.43    57.162866    56.098891    56.098891 
  127000    561.50605    -37574.39   -36914.852    1762.3575    179896.43    57.167267    56.096732    56.096732 
  128000    552.54967   -37575.459   -36926.441    1438.1113    179896.43    57.171639    56.094586    56.094586 
  129000    563.32858   -37580.758    -36919.08    1578.8971    179896.43    57.175984    56.092455    56.092455 
  130000    561.27133   -37571.018   -36911.756    1871.8964    179896.43    57.180299    56.090339    56.090339 
  131000    548.26276   -37572.222   -36928.239    1399.1544    179896.43    57.184586    56.088236    56.088236 
  132000    551.11348   -37584.845   -36937.514    1401.1236    179896.43    57.188844    56.086148    56.086148 
  133000    567.55234    -37577.87    -36911.23    1469.2629    179896.43    57.193072    56.084075    56.084075 
  134000    560.44926   -37570.675   -36912.379    1681.9034    179896.43    57.197272    56.082016    56.082016 
  135000    560.09188   -37578.035   -36920.158    1554.8779    179896.43    57.201442    56.079972    56.079972 
  136000    559.78967   -37565.755   -36908.233    1925.6508    179896.43    57.205582    56.077942    56.077942 
  137000      555.885   -37560.618   -36907.683     1903.527    179896.43    57.209692    56.075928    56.075928 
  138000    563.73929   -37571.793   -36909.632    1928.2655    179896.43    57.213773    56.073928    56.073928 
  139000     548.7299   -37560.889   -36916.358     2052.206    179896.43    57.217823    56.071943    56.071943 
  140000    554.89017   -37579.064   -36927.297    1540.5793    179896.43    57.221844    56.069973    56.069973 
  141000     554.7852   -37567.078   -36915.434    1773.0919    179896.43    57.225834    56.068019    56.068019 
  142000    564.41065   -37577.642   -36914.692    1579.8125    179896.43    57.229793    56.066079    56.066079 
  143000    560.39987    -37579.15   -36920.911    1681.3509    179896.43    57.233721    56.064155    56.064155 
  144000    555.10248   -37564.628   -36912.612    1775.4875    179896.43    57.237619    56.062246    56.062246 
  145000    558.32143   -37570.619   -36914.822    1808.2762    179896.43    57.241485    56.060353    56.060353 
  146000    565.19016   -37565.443   -36901.578    2115.2587    179896.43    57.245321    56.058475    56.058475 
  147000    561.79568   -37573.063   -36913.185     1582.959    179896.43    57.249125    56.056612    56.056612 
  148000    562.01609   -37572.173   -36912.036    1619.4027    179896.43    57.252897    56.054765    56.054765 
  149000     554.6147   -37570.804   -36919.361    1600.5236    179896.43    57.256638    56.052934    56.052934 
  150000    561.67011   -37573.436   -36913.705    1650.9586    179896.43    57.260347    56.051119    56.051119 
  151000    555.67948   -37565.349   -36912.655    1942.8359    179896.43    57.264025    56.049319    56.049319 
  152000    557.26293   -37571.109   -36916.555    1659.1778    179896.43     57.26767    56.047535    56.047535 
  153000    558.38942   -37562.789   -36906.912    1931.4046    179896.43    57.271283    56.045767    56.045767 
  154000    570.87413   -37567.507   -36896.966    1988.0094    179896.43    57.274863    56.044015    56.044015 
  155000    556.16495    -37574.54   -36921.276     1579.736    179896.43    57.278411     56.04228     56.04228 
  156000    566.27463   -37568.376   -36903.237    1990.4576    179896.43    57.281926     56.04056     56.04056 
  157000    563.38071   -37568.936   -36907.197    1888.7032    179896.43    57.285409    56.038856    56.038856 
  158000    561.57614   -37566.049   -36906.429    2277.6811    179896.43    57.288859    56.037169    56.037169 
  159000     562.0678   -37565.896   -36905.699    1860.4986    179896.43    57.292275    56.035498    56.035498 
  160000    565.27509    -37568.15   -36904.185    1744.0109    179896.43    57.295658    56.033844    56.033844 
  161000    566.29009   -37568.686   -36903.529    1808.8003    179896.43    57.299008    56.032206    56.032206 
  162000    565.34608   -37583.538    -36919.49    1169.3626    179896.43    57.302325    56.030584    56.030584 
  163000      560.476   -37574.181   -36915.853    1571.6974    179896.43    57.305608    56.028979    56.028979 
  164000    558.94424   -37572.441   -36915.912    1633.4018    179896.43    57.308857    56.027391    56.027391 
  165000    564.15539   -37574.163   -36911.513    1843.6202    179896.43    57.312072    56.025819    56.025819 
  166000    560.00898   -37564.635   -36906.856    1778.3575    179896.43    57.315254    56.024264    56.024264 
  167000    565.45898   -37565.398   -36901.217    1831.0782    179896.43    57.318401    56.022726    56.022726 
  168000    555.49696       -37565   -36912.521     1826.941    179896.43    57.321514    56.021205    56.021205 
  169000    552.93349    -37563.42   -36913.952    1988.0872    179896.43    57.324593    56.019701    56.019701 
  170000    563.77339   -37574.117   -36911.916    1598.9268    179896.43    57.327637    56.018213    56.018213 
  171000    558.34298   -37569.077   -36913.255    1579.7612    179896.43    57.330647    56.016743    56.016743 
  172000    554.35831   -37568.978   -36917.835    1722.6313    179896.43    57.333622    56.015289    56.015289 
  173000     569.4134   -37563.526     -36894.7    1998.2006    179896.43    57.336562    56.013853    56.013853 
  174000    560.95801   -37567.431   -36908.537    1654.4367    179896.43    57.339467    56.012434    56.012434 
  175000    562.53376   -37572.835   -36912.091    1773.2696    179896.43    57.342337    56.011033    56.011033 
  176000    570.16497   -37566.601   -36896.892     1678.415    179896.43    57.345172    56.009648    56.009648 
  177000    559.92894   -37566.313   -36908.628    1938.7445    179896.43    57.347972    56.008281    56.008281 
  178000    565.04112   -37562.762   -36899.072    2051.6726    179896.43    57.350736    56.006931    56.006931 
  179000     562.8915   -37559.648   -36898.483    1944.4696    179896.43    57.353464    56.005599    56.005599 
  180000    569.67939   -37559.239   -36890.101    1999.3104    179896.43    57.356158    56.004284    56.004284 
  181000    563.39297   -37569.472   -36907.718    1751.6534    179896.43    57.358815    56.002987    56.002987 
  182000    562.61276   -37566.999   -36906.162    1795.0602    179896.43    57.361436    56.001707    56.001707 
  183000    561.82374   -37570.172   -36910.261     1908.459    179896.43    57.364022    56.000445    56.000445 
  184000     559.3721   -37562.914   -36905.883    1952.0001    179896.43    57.366572      55.9992      55.9992 
  185000    558.27535   -37558.914   -36903.171    2256.7162    179896.43    57.369085    55.997974    55.997974 
  186000    563.69917   -37567.367   -36905.253    1733.6179    179896.43    57.371562    55.996765    55.996765 
  187000     560.6523   -37564.962   -36906.427    1842.4921    179896.43    57.374003    55.995573    55.995573 
  188000    560.88112    -37568.04   -36909.236    1846.3474    179896.43    57.376408      55.9944      55.9944 
  189000    557.19007   -37566.904   -36912.436    2028.8953    179896.43    57.378776    55.993245    55.993245 
  190000    567.10584   -37565.344   -36899.229    1907.3355    179896.43    57.381107    55.992107    55.992107 
  191000    557.10453   -37559.602   -36905.234    2197.2368    179896.43    57.383402    55.990988    55.990988 
  192000    561.25467   -37565.299   -36906.057    1625.7142    179896.43    57.385659    55.989886    55.989886 
  193000    562.92954   -37560.799   -36899.589    2233.5326    179896.43     57.38788    55.988803    55.988803 
  194000    555.12059   -37568.267    -36916.23    1900.4106    179896.43    57.390064    55.987737    55.987737 
  195000    565.29289   -37562.306   -36898.321    2087.7685    179896.43    57.392211     55.98669     55.98669 
  196000    561.74585   -37571.092   -36911.273    1939.1229    179896.43    57.394321    55.985661    55.985661 
  197000    565.66529   -37569.064   -36904.641     1654.258    179896.43    57.396394     55.98465     55.98465 
  198000    557.72822   -37568.954   -36913.854    1723.9065    179896.43    57.398429    55.983658    55.983658 
  199000    565.27679   -37570.045   -36906.078    1655.0507    179896.43    57.400427    55.982684    55.982684 
  200000    552.06849   -37570.142   -36921.689    1816.8894    179896.43    57.402387    55.981728    55.981728 
  201000    558.94472    -37568.06   -36911.531    1803.1005    179896.43     57.40431     55.98079     55.98079 
  202000    551.84841   -37576.824    -36928.63    1779.2507    179896.43    57.406195    55.979871    55.979871 
  203000    559.82164   -37561.904   -36904.345    2094.8974    179896.43    57.408043     55.97897     55.97897 
  204000    563.94442    -37565.47   -36903.068     2001.937    179896.43    57.409852    55.978088    55.978088 
  205000    559.66293   -37557.923   -36900.551    2222.4452    179896.43    57.411624    55.977224    55.977224 
  206000    555.37117   -37559.567   -36907.235     1999.956    179896.43    57.413358    55.976379    55.976379 
  207000    557.38319   -37570.786   -36916.091    1620.3938    179896.43    57.415054    55.975552    55.975552 
  208000    557.10859   -37565.995   -36911.623     1738.292    179896.43    57.416712    55.974744    55.974744 
  209000    554.78392   -37564.883   -36913.241     1894.508    179896.43    57.418332    55.973954    55.973954 
  210000    561.23224   -37572.054   -36912.838     1609.993    179896.43    57.419914    55.973183    55.973183 
  211000    559.86907   -37565.798   -36908.183     1865.199    179896.43    57.421457    55.972431    55.972431 
  212000    557.96686   -37563.244   -36907.864     1928.202    179896.43    57.422962    55.971697    55.971697 
  213000    562.14479   -37569.026   -36908.738    1818.9552    179896.43    57.424429    55.970982    55.970982 
  214000    555.63491   -37569.216   -36916.574    1803.5127    179896.43    57.425857    55.970286    55.970286 
  215000    562.86491   -37574.862   -36913.728    1658.5185    179896.43    57.427247    55.969609    55.969609 
  216000    565.25184   -37569.998   -36906.061    1752.2007    179896.43    57.428599    55.968951    55.968951 
  217000    565.85271   -37566.726   -36902.083    1951.3244    179896.43    57.429911    55.968311    55.968311 
  218000    564.39037   -37577.232   -36914.306    1884.0719    179896.43    57.431186     55.96769     55.96769 
  219000    559.61767   -37567.596   -36910.276    1842.6421    179896.43    57.432421    55.967088    55.967088 
  220000    560.30763   -37573.198   -36915.068     1518.929    179896.43    57.433618    55.966505    55.966505 
  221000    557.88741   -37575.232   -36919.944    1472.1482    179896.43    57.434776    55.965941    55.965941 
  222000    555.26852   -37569.087   -36916.876    1491.5475    179896.43    57.435895    55.965396    55.965396 
  223000    559.98115   -37565.538   -36907.791    2023.1977    179896.43    57.436975    55.964869    55.964869 
  224000    552.26024   -37563.402   -36914.724    1874.7626    179896.43    57.438016    55.964362    55.964362 
  225000     552.6222   -37558.004   -36908.901    1984.5555    179896.43    57.439019    55.963874    55.963874 
  226000    565.79925   -37559.418   -36894.837    1961.2571    179896.43    57.439982    55.963404    55.963404 
  227000    562.55177   -37571.832   -36911.067    1754.3118    179896.43    57.440907    55.962954    55.962954 
  228000    557.78433   -37565.817   -36910.651    1732.2055    179896.43    57.441792    55.962523    55.962523 
  229000     562.0447   -37559.673   -36899.503    2092.5274    179896.43    57.442638     55.96211     55.96211 
  230000    556.81876   -37556.763   -36902.731    1938.0169    179896.43    57.443445    55.961717    55.961717 
  231000    557.68973   -37562.893   -36907.838    1779.3943    179896.43    57.444213    55.961343    55.961343 
  232000    563.13205   -37561.189   -36899.741    2094.9183    179896.43    57.444942    55.960988    55.960988 
  233000     546.6493   -37567.611   -36925.524    1641.8966    179896.43    57.445631    55.960653    55.960653 
  234000    560.51684   -37570.308   -36911.933     1657.044    179896.43    57.446281    55.960336    55.960336 
  235000    566.01025   -37572.573   -36907.745    1746.2427    179896.43    57.446892    55.960038    55.960038 
  236000    559.59843   -37563.453   -36906.156    1775.7088    179896.43    57.447464     55.95976     55.95976 
  237000    561.72206   -37569.553   -36909.761    1898.5753    179896.43    57.447996    55.959501    55.959501 
  238000    554.62657   -37566.941   -36915.484    1940.4649    179896.43    57.448489     55.95926     55.95926 
  239000    560.28342   -37573.671   -36915.569    1789.2057    179896.43    57.448943     55.95904     55.95904 
  240000    553.81237   -37562.495   -36911.995     1992.963    179896.43    57.449357    55.958838    55.958838 
  241000    564.51114   -37573.541   -36910.473    2015.5033    179896.43    57.449732    55.958655    55.958655 
  242000    554.90583   -37577.397   -36925.612    1866.5788    179896.43    57.450067    55.958492    55.958492 
  243000    567.65018   -37570.542   -36903.788    1632.7523    179896.43    57.450363    55.958348    55.958348 
  244000    554.59662   -37550.958   -36899.536    2183.8167    179896.43     57.45062    55.958223    55.958223 
  245000    561.81721   -37567.473   -36907.569    1760.0183    179896.43    57.450837    55.958117    55.958117 
  246000    550.65629   -37557.532   -36910.739    2084.3919    179896.43    57.451015    55.958031    55.958031 
  247000    567.81652   -37564.204   -36897.254      2028.74    179896.43    57.451153    55.957963    55.957963 
  248000    569.75492   -37567.127   -36897.901     1611.823    179896.43    57.451252    55.957915    55.957915 
  249000    568.80011   -37561.997   -36893.892    1917.6475    179896.43    57.451311    55.957886    55.957886 
  250000     563.5898   -37565.065    -36903.08    1577.6144    179896.43     57.45133    55.957877    55.957877 
  251000    561.81303   -37556.935   -36897.036     2133.866    179896.43    57.451311    55.957886    55.957886 
  252000    559.71076   -37558.564   -36901.135    2220.5372    179896.43    57.451252    55.957915    55.957915 
  253000    562.92125   -37562.321   -36901.121    1653.9992    179896.43    57.451153    55.957963    55.957963 
  254000    568.26417   -37575.325    -36907.85     1544.629    179896.43    57.451015    55.958031    55.958031 
  255000    564.86822   -37564.956   -36901.469    2094.2092    179896.43    57.450837    55.958117    55.958117 
  256000    559.15239   -37567.788   -36911.015    1766.9415    179896.43     57.45062    55.958223    55.958223 
  257000    559.10035   -37555.608   -36898.896    1977.8753    179896.43    57.450363    55.958348    55.958348 
  258000    560.32555   -37566.679   -36908.528    1919.7358    179896.43    57.450067    55.958492    55.958492 
  259000    554.48914   -37574.256    -36922.96    1592.2713    179896.43    57.449732    55.958655    55.958655 
  260000    568.80256   -37565.541   -36897.432    2167.8286    179896.43    57.449357    55.958838    55.958838 
  261000    552.95936    -37555.24   -36905.741    2176.7349    179896.43    57.448943     55.95904     55.95904 
  262000    560.98073   -37575.252   -36916.332       1337.7    179896.43    57.448489     55.95926     55.95926 
  263000    558.43797    -37557.23   -36901.296    2216.0919    179896.43    57.447996    55.959501    55.959501 
  264000    556.77972   -37568.199   -36914.213    1746.0267    179896.43    57.447464     55.95976     55.95976 
  265000    557.02971   -37562.536   -36908.256    2083.2758    179896.43    57.446892    55.960038    55.960038 
  266000    552.45299    -37559.55   -36910.646    1795.6017    179896.43    57.446281    55.960336    55.960336 
  267000    557.60227   -37566.665   -36911.712     1823.728    179896.43    57.445631    55.960653    55.960653 
  268000     556.8873   -37564.759   -36910.646    1924.8866    179896.43    57.444942    55.960988    55.960988 
  269000    561.34588   -37562.871   -36903.522    1701.1106    179896.43    57.444213    55.961343    55.961343 
  270000    559.95104   -37560.796   -36903.085    1957.6684    179896.43    57.443445    55.961717    55.961717 
  271000     556.4328   -37564.697   -36911.118    1624.5581    179896.43    57.442638     55.96211     55.96211 
  272000    573.10468   -37566.302   -36893.141    1905.0696    179896.43    57.441792    55.962523    55.962523 
  273000     565.4405   -37566.365   -36902.206    2047.2555    179896.43    57.440907    55.962954    55.962954 
  274000    562.30005    -37560.73    -36900.26    2181.1653    179896.43    57.439982    55.963404    55.963404 
  275000    552.67716   -37572.538   -36923.371    1845.8939    179896.43    57.439019    55.963874    55.963874 
  276000    549.73961   -37564.522   -36918.805     2131.425    179896.43    57.438016    55.964362    55.964362 
  277000     570.7279   -37571.754   -36901.385     1659.035    179896.43    57.436975    55.964869    55.964869 
  278000    561.05812   -37562.132    -36903.12    2082.2909    179896.43    57.435895    55.965396    55.965396 
  279000    562.92907   -37567.968   -36906.758    1688.8532    179896.43    57.434776    55.965941    55.965941 
  280000    558.48262   -37560.172   -36904.185     2127.094    179896.43    57.433618    55.966505    55.966505 
  281000    556.79982   -37572.589   -36918.579    1647.6235    179896.43    57.432421    55.967088    55.967088 
  282000    560.81198   -37569.786   -36911.064    1718.7275    179896.43    57.431186     55.96769     55.96769 
  283000    565.44727   -37559.699   -36895.532     1745.591    179896.43    57.429911    55.968311    55.968311 
  284000    557.35069   -37579.075   -36924.418    1378.9863    179896.43    57.428599    55.968951    55.968951 
  285000    561.21002   -37566.511   -36907.321    1844.8226    179896.43    57.427247    55.969609    55.969609 
  286000    558.13517    -37556.93   -36901.351    1958.5222    179896.43    57.425857    55.970286    55.970286 
  287000    565.97289   -37566.895   -36902.111    1769.0526    179896.43    57.424429    55.970982    55.970982 
  288000    562.55629    -37569.27   -36908.498    1811.9558    179896.43    57.422962    55.971697    55.971697 
  289000    554.86336   -37563.397   -36911.661    1828.1543    179896.43    57.421457    55.972431    55.972431 
  290000    561.09635   -37565.742   -36906.685    2003.4281    179896.43    57.419914    55.973183    55.973183 
  291000    567.42421   -37566.303   -36899.814    1887.8834    179896.43    57.418332    55.973954    55.973954 
  292000    570.72133   -37569.668   -36899.306    1750.1392    179896.43    57.416712    55.974744    55.974744 
  293000    548.97777   -37568.351   -36923.529    1692.0444    179896.43    57.415054    55.975552    55.975552 
  294000    562.86178   -37563.496   -36902.365    1853.8656    179896.43    57.413358    55.976379    55.976379 
  295000    565.29794   -37567.876   -36903.884    2029.2244    179896.43    57.411624    55.977224    55.977224 
  296000    555.51913   -37557.929   -36905.423    2151.4149    179896.43    57.409852    55.978088    55.978088 
  297000    558.69571   -37565.778   -36909.542    1876.1448    179896.43    57.408043     55.97897     55.97897 
  298000    553.38481   -37581.546   -36931.548    1466.9171    179896.43    57.406195    55.979871    55.979871 
  299000    566.07706   -37579.506     -36914.6    1701.4805    179896.43     57.40431     55.98079     55.98079 
  300000    565.38812   -37575.174   -36911.076     1567.484    179896.43    57.402387    55.981728    55.981728 
  301000    556.55786   -37567.545    -36913.82    1676.2921    179896.43    57.400427    55.982684    55.982684 
  302000    567.79871   -37573.697   -36906.768    1712.4444    179896.43    57.398429    55.983658    55.983658 
  303000    562.77824   -37565.787   -36904.755    1945.4796    179896.43    57.396394     55.98465     55.98465 
  304000    563.93922   -37569.373   -36906.978    1781.2265    179896.43    57.394321    55.985661    55.985661 
  305000    555.83696   -37568.675   -36915.796    1617.5709    179896.43    57.392211     55.98669     55.98669 
  306000    553.78639   -37569.972   -36919.502    1780.9894    179896.43    57.390064    55.987737    55.987737 
  307000    557.77853   -37566.976   -36911.817    1722.3738    179896.43     57.38788    55.988803    55.988803 
  308000    558.92721   -37562.292   -36905.784    1903.5803    179896.43    57.385659    55.989886    55.989886 
  309000    564.92093   -37566.165   -36902.616    1986.9199    179896.43    57.383402    55.990988    55.990988 
  310000    567.15114   -37571.821   -36905.653    2061.1953    179896.43    57.381107    55.992107    55.992107 
  311000    561.72238   -37561.822    -36902.03    2091.2939    179896.43    57.378776    55.993245    55.993245 
  312000    557.57305   -37565.157   -36910.238    1779.1613    179896.43    57.376408      55.9944      55.9944 
  313000    573.85454   -37568.489   -36894.446    1751.0317    179896.43    57.374003    55.995573    55.995573 
  314000    564.23241   -37573.832   -36911.092    1712.8945    179896.43    57.371562    55.996765    55.996765 
  315000    558.75296   -37567.643   -36911.339    1959.4089    179896.43    57.369085    55.997974    55.997974 
  316000    560.22256   -37568.427   -36910.397    1586.7977    179896.43    57.366572      55.9992      55.9992 
  317000    569.17748   -37570.915   -36902.367    1832.0022    179896.43    57.364022    56.000445    56.000445 
  318000    566.53564   -37571.286   -36905.841    1737.7316    179896.43    57.361436    56.001707    56.001707 
  319000     564.5743   -37569.686   -36906.545    1807.7785    179896.43    57.358815    56.002987    56.002987 
  320000    561.12522   -37574.051    -36914.96    1590.5298    179896.43    57.356158    56.004284    56.004284 
  321000       554.11   -37559.841   -36908.991    2069.7673    179896.43    57.353464    56.005599    56.005599 
  322000    551.54731   -37570.042   -36922.201    1644.7993    179896.43    57.350736    56.006931    56.006931 
  323000     558.4428   -37571.788   -36915.848    1616.4181    179896.43    57.347972    56.008281    56.008281 
  324000     563.6769   -37572.526   -36910.439    1846.5192    179896.43    57.345172    56.009648    56.009648 
  325000    563.98925   -37564.791   -36902.336     1890.197    179896.43    57.342337    56.011033    56.011033 
  326000    557.41923   -37568.551   -36913.814    1709.6755    179896.43    57.339467    56.012434    56.012434 
  327000    567.99401   -37566.002   -36898.843    1936.4425    179896.43    57.336562    56.013853    56.013853 
  328000    554.67682    -37581.22   -36929.703    1470.0017    179896.43    57.333622    56.015289    56.015289 
  329000    551.61978   -37572.951   -36925.026    1582.0339    179896.43    57.330647    56.016743    56.016743 
  330000    560.86437   -37565.431   -36906.647    2129.7149    179896.43    57.327637    56.018213    56.018213 
  331000    561.39473   -37561.787    -36902.38    1948.9278    179896.43    57.324593    56.019701    56.019701 
  332000    570.35588   -37568.408   -36898.475     1950.332    179896.43    57.321514    56.021205    56.021205 
  333000    561.89539   -37578.313   -36918.318    1376.9289    179896.43    57.318401    56.022726    56.022726 
  334000    567.27154   -37564.424   -36898.115    2075.7728    179896.43    57.315254    56.024264    56.024264 
  335000    565.38692   -37560.759   -36896.662    2049.4611    179896.43    57.312072    56.025819    56.025819 
  336000    567.76471   -37574.913   -36908.024     1692.566    179896.43    57.308857    56.027391    56.027391 
  337000    562.78632    -37572.34   -36911.299    1883.4051    179896.43    57.305608    56.028979    56.028979 
  338000    562.76438   -37569.181   -36908.166    1812.5883    179896.43    57.302325    56.030584    56.030584 
  339000    557.62787   -37564.917   -36909.935    2009.6766    179896.43    57.299008    56.032206    56.032206 
  340000    559.06553   -37572.828   -36916.157     1824.973    179896.43    57.295658    56.033844    56.033844 
  341000    562.57625    -37561.76   -36900.965    1996.8081    179896.43    57.292275    56.035498    56.035498 
  342000    558.35456   -37572.921   -36917.085    1739.7807    179896.43    57.288859    56.037169    56.037169 
  343000    558.62321   -37554.885   -36898.734     2038.857    179896.43    57.285409    56.038856    56.038856 
  344000    554.74347   -37568.568   -36916.973    1874.1809    179896.43    57.281926     56.04056     56.04056 
  345000    559.65297   -37579.755   -36922.394    1560.0067    179896.43    57.278411     56.04228     56.04228 
  346000    559.55242   -37566.632   -36909.389    2045.6348    179896.43    57.274863    56.044015    56.044015 
  347000    560.08453   -37562.849   -36904.981    2025.7347    179896.43    57.271283    56.045767    56.045767 
  348000    560.70824   -37574.218   -36915.617    1824.0965    179896.43     57.26767    56.047535    56.047535 
  349000    556.80985   -37573.302    -36919.28    1698.1732    179896.43    57.264025    56.049319    56.049319 
  350000    565.94537   -37555.791   -36891.039    1992.5084    179896.43    57.260347    56.051119    56.051119 
  351000    562.45097    -37553.39   -36892.743    2147.1268    179896.43    57.256638    56.052934    56.052934 
  352000    563.73471   -37567.112   -36904.957    1986.6289    179896.43    57.252897    56.054765    56.054765 
  353000    559.89229   -37585.031   -36927.389    1442.2369    179896.43    57.249125    56.056612    56.056612 
  354000     559.8013   -37583.459   -36925.924    1495.8431    179896.43    57.245321    56.058475    56.058475 
  355000    562.23278   -37567.272   -36906.881    1802.1382    179896.43    57.241485    56.060353    56.060353 
  356000    566.42709   -37571.188    -36905.87    1775.5875    179896.43    57.237619    56.062246    56.062246 
  357000    560.79107   -37566.396   -36907.698     2001.728    179896.43    57.233721    56.064155    56.064155 
  358000    562.03921   -37565.028   -36904.864    2125.7719    179896.43    57.229793    56.066079    56.066079 
  359000    567.22176   -37563.465   -36897.214    2007.1429    179896.43    57.225834    56.068019    56.068019 
  360000    558.33163   -37562.374   -36906.565    1753.0388    179896.43    57.221844    56.069973    56.069973 
  361000    556.70394   -37564.829   -36910.932     1703.665    179896.43    57.217823    56.071943    56.071943 
  362000    559.72426   -37573.123   -36915.678    1628.4609    179896.43    57.213773    56.073928    56.073928 
  363000    563.22564   -37566.517    -36904.96    1898.7342    179896.43    57.209692    56.075928    56.075928 
  364000    567.13583   -37579.259   -36913.108    1603.3234    179896.43    57.205582    56.077942    56.077942 
  365000    563.82256   -37584.048   -36921.789    1430.7487    179896.43    57.201442    56.079972    56.079972 
  366000    560.39822   -37568.403   -36910.166    2124.2542    179896.43    57.197272    56.082016    56.082016 
  367000    554.71371   -37569.831   -36918.272    1780.9394    179896.43    57.193072    56.084075    56.084075 
  368000    568.01826   -37566.638   -36899.451    2093.8402    179896.43    57.188844    56.086148    56.086148 
  369000    563.22026   -37575.451     -36913.9    1468.5897    179896.43    57.184586    56.088236    56.088236 
  370000    553.77273   -37562.942   -36912.488    1772.9015    179896.43    57.180299    56.090339    56.090339 
  371000    558.61054   -37572.745   -36916.609    1456.7555    179896.43    57.175984    56.092455    56.092455 
  372000    563.70113   -37573.303   -36911.187    1752.9336    179896.43    57.171639    56.094586    56.094586 
  373000    559.51892    -37566.88   -36909.676    1878.2881    179896.43    57.167267    56.096732    56.096732 
  374000    562.52379   -37573.295   -36912.562    1760.3802    179896.43    57.162866    56.098891    56.098891 
  375000    554.73392   -37566.492   -36914.909    1684.0696    179896.43    57.158437    56.101064    56.101064 
  376000    569.04558   -37578.996   -36910.602     1749.383    179896.43     57.15398    56.103252    56.103252 
  377000    564.34524   -37571.179   -36908.307    1746.5549    179896.43    57.149496    56.105453    56.105453 
  378000    556.25827   -37570.362   -36916.988    1808.6001    179896.43    57.144984    56.107668    56.107668 
  379000    565.78699    -37567.24   -36902.674    1797.1157    179896.43    57.140444    56.109896    56.109896 
  380000    561.16154   -37580.794   -36921.661    1443.5639    179896.43    57.135878    56.112139    56.112139 
  381000    556.08053   -37573.067   -36919.902    1667.6087    179896.43    57.131284    56.114395    56.114395 
  382000    557.95395   -37577.612   -36922.246    1748.5263    179896.43    57.126663    56.116664    56.116664 
  383000    560.74845   -37576.261   -36917.613    1409.3527    179896.43    57.122016    56.118946    56.118946 
  384000    573.42441   -37571.159   -36897.622    1766.6768    179896.43    57.117342    56.121242    56.121242 
  385000    553.79408    -37578.32   -36927.841    1397.0654    179896.43    57.112642    56.123552    56.123552 
  386000    559.90488   -37577.358   -36919.701    1464.2573    179896.43    57.107916    56.125874    56.125874 
  387000    556.25778   -37576.707   -36923.334    1582.3451    179896.43    57.103164    56.128209    56.128209 
  388000    557.34797   -37576.835   -36922.181    1484.6412    179896.43    57.098386    56.130557    56.130557 
  389000    552.60913   -37576.045   -36926.957    1304.8837    179896.43    57.093583    56.132919    56.132919 
  390000    553.22436   -37583.624   -36933.814    1551.8211    179896.43    57.088754    56.135292    56.135292 
  391000    564.10438   -37573.641   -36911.051    1735.4336    179896.43    57.083901    56.137679    56.137679 
  392000    558.72384   -37567.017   -36910.747     1794.716    179896.43    57.079022    56.140078    56.140078 
  393000    559.67137   -37580.404   -36923.021    1315.6743    179896.43    57.074118     56.14249     56.14249 
  394000    558.92859   -37579.244   -36922.733    1836.3884    179896.43     57.06919    56.144914    56.144914 
  395000    565.24426   -37574.884   -36910.955    1577.1277    179896.43    57.064238     56.14735     56.14735 
  396000    561.28068   -37563.865   -36904.592    2032.5399    179896.43    57.059261    56.149799    56.149799 
  397000    559.01175   -37574.665   -36918.057    1908.0785    179896.43     57.05426    56.152259    56.152259 
  398000    560.01404   -37574.095    -36916.31    1752.6314    179896.43    57.049235    56.154732    56.154732 
  399000    561.08081   -37563.474   -36904.436     1896.658    179896.43    57.044187    56.157217    56.157217 
  400000    563.69581   -37574.842   -36912.732    1773.8363    179896.43    57.039116    56.159713    56.159713 
  401000    551.75648   -37567.098   -36919.012    1676.5072    179896.43    57.034021    56.162221    56.162221 
  402000    552.36463   -37572.488   -36923.688    1647.2928    179896.43    57.028903    56.164741    56.164741 
  403000    564.88693   -37579.276   -36915.767    1384.7615    179896.43    57.023763    56.167273    56.167273 
  404000    568.49374   -37564.723   -36896.978     2169.888    179896.43    57.018599    56.169816    56.169816 
  405000    558.23793   -37573.629    -36917.93         1600    179896.43    57.013414     56.17237     56.17237 
  406000     559.1091   -37568.466   -36911.744    1714.1932    179896.43    57.008206    56.174936    56.174936 
  407000    560.03738   -37580.587   -36922.775    1274.4157    179896.43    57.002976    56.177513    56.177513 
  408000    553.69197   -37570.683   -36920.323    1772.7421    179896.43    56.997725    56.180101    56.180101 
  409000    563.56198    -37573.29   -36911.337    1745.6762    179896.43    56.992452      56.1827      56.1827 
  410000    550.58026   -37587.441   -36940.736    1347.4642    179896.43    56.987157    56.185309    56.185309 
  411000    559.92905   -37581.405    -36923.72    1743.4463    179896.43    56.981842     56.18793     56.18793 
  412000    570.48696   -37574.941   -36904.854    1906.0225    179896.43    56.976505    56.190561    56.190561 
  413000    568.10033   -37564.085   -36896.802    1958.8886    179896.43    56.971148    56.193203    56.193203 
  414000     562.4376   -37570.499   -36909.867    1893.2942    179896.43     56.96577    56.195855    56.195855 
  415000    562.48686   -37577.253   -36916.563    1795.0858    179896.43    56.960372    56.198518    56.198518 
  416000    559.05554   -37581.579   -36924.919    1463.4868    179896.43    56.954954    56.201191    56.201191 
  417000    559.78342   -37568.403   -36910.889    1775.6542    179896.43    56.949516    56.203875    56.203875 
  418000     560.1119   -37564.505   -36906.605    1517.6379    179896.43    56.944058    56.206568    56.206568 
  419000    561.98723   -37578.725   -36918.622    1645.0146    179896.43    56.938581    56.209271    56.209271 
  420000    553.92832   -37577.155   -36926.518    1457.0335    179896.43    56.933084    56.211984    56.211984 
  421000    571.46477   -37566.319   -36895.084    1904.3395    179896.43    56.927569    56.214707    56.214707 
  422000    557.05995   -37564.925    -36910.61    2101.1421    179896.43    56.922034     56.21744     56.21744 
  423000    570.23276   -37566.951   -36897.163    1829.4493    179896.43    56.916482    56.220182    56.220182 
  424000    559.96777   -37567.069   -36909.338    1879.0245    179896.43     56.91091    56.222934    56.222934 
  425000    557.01556   -37574.019   -36919.756    1627.5269    179896.43    56.905321    56.225695    56.225695 
  426000    565.37483   -37578.489   -36914.407    1664.8943    179896.43    56.899714    56.228466    56.228466 
  427000    561.30539   -37566.652    -36907.35    1946.3784    179896.43    56.894089    56.231245    56.231245 
  428000    560.80241   -37571.264   -36912.553    1704.7217    179896.43    56.888446    56.234034    56.234034 
  429000    558.71115   -37584.112   -36927.857    1486.6722    179896.43    56.882787    56.236831    56.236831 
  430000    562.31317   -37579.035   -36918.549    1453.4481    179896.43     56.87711    56.239638    56.239638 
  431000    559.04078   -37577.582    -36920.94    1444.3653    179896.43    56.871416    56.242453    56.242453 
  432000    559.13759   -37578.475    -36921.72     1341.718    179896.43    56.865706    56.245276    56.245276 
  433000    552.59707   -37575.052   -36925.979    1601.3238    179896.43     56.85998    56.248109    56.248109 
  434000     559.8589    -37574.04   -36916.437    1838.6812    179896.43    56.854237    56.250949    56.250949 
  435000     559.7302   -37570.777   -36913.325     1734.961    179896.43    56.848478    56.253798    56.253798 
  436000    565.22392    -37569.93   -36906.026    1651.3712    179896.43    56.842704    56.256655    56.256655 
  437000    561.47049   -37566.258   -36906.762    1776.8674    179896.43    56.836914    56.259521    56.259521 
  438000      560.719   -37566.177   -36907.564    1891.8656    179896.43     56.83111    56.262394    56.262394 
  439000    563.59441   -37570.418   -36908.428     1701.126    179896.43     56.82529    56.265275    56.265275 
  440000     560.1213   -37588.143   -36930.231    1531.4424    179896.43    56.819455    56.268164    56.268164 
  441000    552.29433   -37575.205   -36926.488    1339.1921    179896.43    56.813606     56.27106     56.27106 
  442000    560.63898   -37571.984   -36913.465    1927.3833    179896.43    56.807742    56.273964    56.273964 
  443000    565.48341   -37564.395   -36900.186    2108.2652    179896.43    56.801865    56.276875    56.276875 
  444000    559.74988   -37578.233   -36920.758    1575.0207    179896.43    56.795973    56.279794    56.279794 
  445000    556.67268   -37571.405   -36917.545    1825.2683    179896.43    56.790068     56.28272     56.28272 
  446000    554.02101   -37581.152   -36930.406    1475.4002    179896.43     56.78415    56.285653    56.285653 
  447000    553.60949   -37576.544   -36926.281    1680.2871    179896.43    56.778218    56.288593    56.288593 
  448000    561.64969    -37568.91   -36909.203     1853.531    179896.43    56.772274     56.29154     56.29154 
  449000    560.10848   -37567.329   -36909.432    1729.5309    179896.43    56.766317    56.294493    56.294493 
  450000    560.72426   -37572.081   -36913.461    1761.4673    179896.43    56.760347    56.297453    56.297453 
  451000    563.52153    -37574.27   -36912.365    1720.1242    179896.43    56.754366     56.30042     56.30042 
  452000    557.96762   -37569.006   -36913.625    1715.9931    179896.43    56.748372    56.303393    56.303393 
  453000    561.81596   -37579.921    -36920.02    1390.4736    179896.43    56.742367    56.306373    56.306373 
  454000    563.45548   -37575.626   -36913.799    1519.8385    179896.43     56.73635    56.309358    56.309358 
  455000    557.91686    -37558.29   -36902.968    1939.0842    179896.43    56.730322     56.31235     56.31235 
  456000    564.51281     -37578.5   -36915.431    1367.2312    179896.43    56.724282    56.315347    56.315347 
  457000    565.27577    -37572.25   -36908.284    1772.5353    179896.43    56.718232    56.318351    56.318351 
  458000    558.49441   -37571.868   -36915.868    1733.1112    179896.43    56.712172     56.32136     56.32136 
  459000    564.41944    -37559.69    -36896.73    2480.4748    179896.43    56.706101    56.324375    56.324375 
  460000    561.77941   -37562.332   -36902.473     1977.531    179896.43     56.70002    56.327395    56.327395 
  461000    555.35957    -37569.76   -36917.442    1564.5214    179896.43     56.69393     56.33042     56.33042 
  462000    557.32704   -37582.919    -36928.29    1484.9447    179896.43    56.687829    56.333451    56.333451 
  463000    563.12222   -37556.716    -36895.28    2346.3719    179896.43     56.68172    56.336487    56.336487 
  464000    563.25194   -37561.526   -36899.937    2300.0366    179896.43    56.675601    56.339528    56.339528 
  465000    567.00599   -37579.089   -36913.091    1493.1827    179896.43    56.669474    56.342574    56.342574 
  466000    554.67372    -37570.23   -36918.717    1871.0892    179896.43    56.663338    56.345625    56.345625 
  467000    557.60615   -37569.053   -36914.096    1797.8176    179896.43    56.657193     56.34868     56.34868 
  468000    564.85958   -37571.808   -36908.331    1874.3514    179896.43     56.65104     56.35174     56.35174 
  469000    563.84241   -37580.536   -36918.254    1560.9659    179896.43     56.64488    56.354804    56.354804 
  470000    559.85709   -37579.888   -36922.288    1623.1526    179896.43    56.638712    56.357872    56.357872 
  471000    560.38779    -37561.77   -36903.546    2025.0749    179896.43    56.632536    56.360945    56.360945 
  472000    566.38785   -37581.131    -36915.86    1568.5971    179896.43    56.626354    56.364022    56.364022 
  473000    555.18907   -37577.273   -36925.156    1679.5114    179896.43    56.620164    56.367103    56.367103 
  474000    556.95026   -37584.379   -36930.193    1673.4431    179896.43    56.613968    56.370187    56.370187 
  475000    555.07629   -37571.227   -36919.242    1640.0431    179896.43    56.607765    56.373275    56.373275 
  476000    556.74483   -37574.566   -36920.621    1571.5279    179896.43    56.601556    56.376367    56.376367 
  477000     563.4739    -37574.86   -36913.011    1559.0679    179896.43    56.595341    56.379463    56.379463 
  478000    562.84637   -37577.789   -36916.677    1807.0316    179896.43    56.589121    56.382561    56.382561 
  479000    562.30975   -37585.909   -36925.427    1244.1823    179896.43    56.582895    56.385663    56.385663 
  480000    577.69863    -37573.25   -36894.692    1961.1377    179896.43    56.576664    56.388768    56.388768 
  481000     558.9547   -37587.829   -36931.288    1345.8971    179896.43    56.570428    56.391876    56.391876 
  482000    563.67138   -37578.947   -36916.866    1746.3877    179896.43    56.564187    56.394987    56.394987 
  483000    559.07837   -37574.064   -36917.377    1781.7496    179896.43    56.557942      56.3981      56.3981 
  484000    558.72177   -37570.374   -36914.107    1852.3208    179896.43    56.551692    56.401216    56.401216 
  485000    565.82757   -37567.842   -36903.228    2153.7899    179896.43    56.545439    56.404335    56.404335 
  486000    557.37143   -37580.112   -36925.431    1244.1617    179896.43    56.539182    56.407456    56.407456 
  487000    555.84102   -37579.513   -36926.629    1467.3252    179896.43    56.532921    56.410579    56.410579 
  488000    556.71839    -37579.34   -36925.425     1666.612    179896.43    56.526657    56.413705    56.413705 
  489000    562.23162   -37565.055   -36904.665    1757.0282    179896.43     56.52039    56.416832    56.416832 
  490000    564.50828   -37569.032   -36905.968     1913.792    179896.43    56.514121    56.419961    56.419961 
  491000    563.04466   -37569.376   -36908.031     1563.984    179896.43    56.507849    56.423092    56.423092 
  492000    560.76166     -37573.1   -36914.436    1418.5959    179896.43    56.501575    56.426225    56.426225 
  493000    554.33611   -37574.177   -36923.061    1674.0703    179896.43    56.495299    56.429359    56.429359 
  494000    567.96271    -37566.64   -36899.518    1787.9798    179896.43    56.489021    56.432495    56.432495 
  495000     564.4789   -37573.187   -36910.158    1860.9596    179896.43    56.482741    56.435632    56.435632 
  496000    559.93151   -37566.089   -36908.401    1937.2328    179896.43    56.476461     56.43877     56.43877 
  497000    556.15707   -37572.759   -36919.504    1868.6494    179896.43    56.470179    56.441909    56.441909 
  498000     553.7055   -37575.049   -36924.674    1589.3539    179896.43    56.463897    56.445048    56.445048 
  499000     564.7874   -37576.784   -36913.392    1644.5207    179896.43    56.457614    56.448189    56.448189 
  500000    551.80004   -37567.394   -36919.257    1757.9313    179896.43     56.45133     56.45133     56.45133 
  501000    561.72984   -37574.001     -36914.2    1722.8509    179896.43    56.445047    56.454472    56.454472 
  502000    559.89835   -37571.229   -36913.579    1892.0763    179896.43    56.438764    56.457615    56.457615 
  503000     560.5179   -37570.414   -36912.037    1689.1376    179896.43    56.432482    56.460757    56.460757 
  504000    558.18973   -37569.491   -36913.849    2073.9997    179896.43      56.4262      56.4639      56.4639 
  505000    561.62064   -37581.508   -36921.836    1318.9947    179896.43     56.41992    56.467042    56.467042 
  506000    557.52322   -37570.073   -36915.214    1630.2062    179896.43     56.41364    56.470185    56.470185 
  507000    556.60084   -37581.148   -36927.372    1540.0304    179896.43    56.407362    56.473327    56.473327 
  508000    568.50899   -37571.938   -36904.175    1684.1935    179896.43    56.401086    56.476469    56.476469 
  509000    561.87258   -37576.499   -36916.531     1574.467    179896.43    56.394812    56.479611    56.479611 
  510000    558.77912     -37582.5   -36926.165     1463.383    179896.43     56.38854    56.482752    56.482752 
  511000    561.68493    -37572.95   -36913.202    1673.8022    179896.43     56.38227    56.485892    56.485892 
  512000      561.832   -37584.787   -36924.867    1316.7424    179896.43    56.376004    56.489032    56.489032 
  513000    565.10878   -37570.818   -36907.049    1837.0513    179896.43     56.36974     56.49217     56.49217 
  514000    553.30203   -37573.034   -36923.133    1558.5298    179896.43    56.363479    56.495307    56.495307 
  515000    550.07957   -37570.362   -36924.245    1663.4644    179896.43    56.357222    56.498444    56.498444 
  516000    560.25574   -37570.124   -36912.055     2014.281    179896.43    56.350969    56.501578    56.501578 
  517000    557.76994   -37574.911   -36919.761    1701.8186    179896.43    56.344719    56.504712    56.504712 
  518000    561.21774   -37568.982   -36909.783    1711.7317    179896.43    56.338474    56.507843    56.507843 
  519000    554.86629   -37572.912   -36921.173    1746.2958    179896.43    56.332233    56.510973    56.510973 
  520000     569.3991   -37566.477   -36897.668    1915.0172    179896.43    56.325997    56.514102    56.514102 
  521000    543.91386   -37567.384   -36928.509    1697.2847    179896.43    56.319766    56.517228    56.517228 
  522000    557.03095   -37575.277   -36920.995    1661.3391    179896.43     56.31354    56.520352    56.520352 
  523000    559.71252   -37576.379   -36918.948    1726.0454    179896.43     56.30732    56.523474    56.523474 
  524000    554.24388   -37577.353   -36926.346    1655.2986    179896.43    56.301105    56.526594    56.526594 
  525000    564.20132   -37583.482   -36920.778    1513.0156    179896.43    56.294896    56.529711    56.529711 
  526000     557.7731   -37569.755   -36914.602     1884.918    179896.43    56.288693    56.532825    56.532825 
  527000    558.73766   -37562.834   -36906.548    2157.9921    179896.43    56.282497    56.535937    56.535937 
  528000    565.86468   -37571.279   -36906.622     1846.583    179896.43    56.276307    56.539046    56.539046 
  529000    548.08135   -37575.839    -36932.07    1884.6676    179896.43    56.270125    56.542152    56.542152 
  530000    556.59401   -37579.564   -36925.796    1451.6218    179896.43    56.263949    56.545255    56.545255 
  531000    561.32283   -37581.801   -36922.479      1411.13    179896.43    56.257781    56.548355    56.548355 
  532000    549.21765   -37572.856   -36927.752    1843.4112    179896.43     56.25162    56.551451    56.551451 
  533000    562.21111   -37581.452   -36921.086    1592.7716    179896.43    56.245468    56.554544    56.554544 
  534000    556.85905   -37566.682   -36912.603    1915.7666    179896.43    56.239323    56.557634    56.557634 
  535000    565.65294   -37565.858   -36901.449    1773.0488    179896.43    56.233187    56.560719    56.560719 
  536000    564.69282   -37570.285   -36907.004    1939.8629    179896.43     56.22706    56.563801    56.563801 
  537000    555.76741   -37569.961   -36917.164    1963.7586    179896.43    56.220941    56.566879    56.566879 
  538000    557.91146   -37583.822   -36928.507    1476.0739    179896.43    56.214831    56.569953    56.569953 
  539000    562.66473   -37573.311   -36912.413    1459.0036    179896.43    56.208731    56.573022    56.573022 
  540000    558.78118   -37561.953   -36905.616    2113.1666    179896.43    56.202641    56.576088    56.576088 
  541000    564.72477    -37570.05   -36906.731    1972.0792    179896.43     56.19656    56.579149    56.579149 
  542000    555.10785    -37581.79   -36929.767    1479.7989    179896.43    56.190489    56.582205    56.582205 
  543000    553.00945   -37574.397   -36924.839    1761.7793    179896.43    56.184428    56.585257    56.585257 
  544000    552.05229   -37576.066   -36927.632    1787.4124    179896.43    56.178379    56.588303    56.588303 
  545000     558.1769   -37572.536   -36916.908    2043.0208    179896.43    56.172339    56.591345    56.591345 
  546000    557.68224   -37580.033   -36924.987    1706.0038    179896.43    56.166311    56.594382    56.594382 
  547000     559.2463   -37580.958   -36924.075    1633.6125    179896.43    56.160294    56.597414    56.597414 
  548000    553.94071   -37567.853   -36917.202    1715.1815    179896.43    56.154289     56.60044     56.60044 
  549000    564.02649   -37572.909    -36910.41    1645.9539    179896.43    56.148295    56.603461    56.603461 
  550000    548.83862   -37572.765   -36928.107    1715.3119    179896.43    56.142313    56.606476    56.606476 
  551000    558.28072   -37580.907   -36925.158     1567.523    179896.43    56.136344    56.609486    56.609486 
  552000    562.45363   -37572.449   -36911.798    1945.7668    179896.43    56.130387     56.61249     56.61249 
  553000    565.27426   -37574.907   -36910.943    1681.8984    179896.43    56.124442    56.615488    56.615488 
  554000    556.74323   -37566.761   -36912.818    1934.6647    179896.43    56.118511     56.61848     56.61848 
  555000    561.55144   -37576.837   -36917.246    1700.3221    179896.43    56.112593    56.621465    56.621465 
  556000    558.74792   -37578.385   -36922.086    1820.0165    179896.43    56.106688    56.624445    56.624445 
  557000    567.61565   -37581.603   -36914.889    1760.8275    179896.43    56.100796    56.627418    56.627418 
  558000    562.40296   -37582.527   -36921.936    1584.9423    179896.43    56.094919    56.630385    56.630385 
  559000    552.24198   -37564.196   -36915.539    1987.3127    179896.43    56.089055    56.633345    56.633345 
  560000    564.39953   -37567.446    -36904.51    1744.8509    179896.43    56.083206    56.636298    56.636298 
  561000    566.32487   -37573.481   -36908.283    1897.2198    179896.43    56.077371    56.639244    56.639244 
  562000    558.42271   -37572.176    -36916.26    1408.0452    179896.43    56.071551    56.642184    56.642184 
  563000    560.28771   -37565.395   -36907.289    1878.0439    179896.43    56.065746    56.645116    56.645116 
  564000    559.70474   -37573.615   -36916.193     1800.154    179896.43    56.059957    56.648041    56.648041 
  565000    567.79179   -37578.619   -36911.698    1741.5924    179896.43    56.054183    56.650958    56.650958 
  566000    559.93011   -37581.116    -36923.43    1663.0349    179896.43    56.048424    56.653869    56.653869 
  567000    560.96291   -37567.013   -36908.113    1812.4687    179896.43    56.042681    56.656771    56.656771 
  568000    564.18239   -37571.582   -36908.901    2124.8972    179896.43    56.036955    56.659666    56.659666 
  569000    561.82399   -37569.744   -36909.833     1761.528    179896.43    56.031245    56.662553    56.662553 
  570000    550.55981   -37588.357   -36941.676     1166.842    179896.43    56.025551    56.665432    56.665432 
  571000    559.17214   -37573.395   -36916.599    2053.3824    179896.43    56.019874    56.668303    56.668303 
  572000    561.96587   -37587.481   -36927.403    1684.4538    179896.43    56.014215    56.671166    56.671166 
  573000     558.9834   -37576.927   -36920.353    1787.1405    179896.43    56.008572     56.67402     56.67402 
  574000     557.3106    -37563.48    -36908.87    1852.9011    179896.43    56.002947    56.676867    56.676867 
  575000    559.70819   -37567.794   -36910.368    1949.3135    179896.43     55.99734    56.679704    56.679704 
  576000    557.19174   -37569.646   -36915.176    1562.7756    179896.43    55.991751    56.682533    56.682533 
  577000    557.54176   -37578.521    -36923.64    1722.9275    179896.43    55.986179    56.685353    56.685353 
  578000    559.82571   -37568.294    -36910.73    1822.9042    179896.43    55.980627    56.688165    56.688165 
  579000    557.69696   -37566.112   -36911.048    2004.6535    179896.43    55.975092    56.690967    56.690967 
  580000    558.04902    -37565.74   -36910.263     2123.517    179896.43    55.969577     56.69376     56.69376 
  581000    560.46811   -37585.554   -36927.236    1598.6613    179896.43     55.96408    56.696544    56.696544 
  582000    557.08565    -37571.74   -36917.394    1739.1701    179896.43    55.958603    56.699319    56.699319 
  583000    560.50302    -37572.71    -36914.35    1662.6277    179896.43    55.953145    56.702084    56.702084 
  584000    559.89539    -37567.42   -36909.774    2138.3868    179896.43    55.947707     56.70484     56.70484 
  585000     556.2489   -37572.126   -36918.763    1841.0832    179896.43    55.942289    56.707586    56.707586 
  586000    559.36418    -37572.06   -36915.038    1818.5628    179896.43    55.936891    56.710322    56.710322 
  587000    568.17568   -37567.454   -36900.083    1997.8214    179896.43    55.931513    56.713048    56.713048 
  588000    563.41404   -37576.273   -36914.495     1777.133    179896.43    55.926156    56.715764    56.715764 
  589000     555.9663   -37570.523   -36917.492    1580.3162    179896.43    55.920819     56.71847     56.71847 
  590000    558.27308   -37576.454   -36920.714    1887.3609    179896.43    55.915504    56.721166    56.721166 
  591000    565.77596    -37575.57   -36911.017     1706.066    179896.43    55.910209    56.723852    56.723852 
  592000    563.92088   -37575.685   -36913.311    1574.8388    179896.43    55.904936    56.726527    56.726527 
  593000     563.9454   -37568.241   -36905.838    1777.6332    179896.43    55.899685    56.729192    56.729192 
  594000    557.84307    -37562.25   -36907.015    1906.6759    179896.43    55.894455    56.731845    56.731845 
  595000    556.60329   -37569.786   -36916.007    2005.6669    179896.43    55.889247    56.734488    56.734488 
  596000    562.39208   -37576.451   -36915.872    1780.1951    179896.43    55.884062    56.737121    56.737121 
  597000    564.29711   -37567.699   -36904.883    1928.0203    179896.43    55.878898    56.739742    56.739742 
  598000    560.21837   -37576.511   -36918.486    1818.7802    179896.43    55.873758    56.742352    56.742352 
  599000    566.85944   -37575.843   -36910.017    1697.4226    179896.43     55.86864    56.744951    56.744951 
  600000    558.92106    -37560.63   -36904.128    1965.1024    179896.43    55.863545    56.747538    56.747538 
  601000    562.17886   -37569.547   -36909.219     1895.112    179896.43    55.858474    56.750114    56.750114 
  602000     559.5196   -37568.288   -36911.084    1926.3003    179896.43    55.853425    56.752679    56.752679 
  603000    555.20212   -37569.421   -36917.288    1817.0288    179896.43    55.848401    56.755232    56.755232 
  604000    545.49883   -37565.609   -36924.874    1735.9898    179896.43      55.8434    56.757773    56.757773 
  605000    553.10081   -37564.354   -36914.689    1856.5488    179896.43    55.838423    56.760302    56.760302 
  606000    559.82814   -37563.963   -36906.396    2001.2976    179896.43    55.833471     56.76282     56.76282 
  607000    565.30251   -37572.897     -36908.9     2034.006    179896.43    55.828543    56.765325    56.765325 
  608000    561.92152   -37576.986    -36916.96    1862.2533    179896.43    55.823639    56.767818    56.767818 
  609000    558.27546   -37570.678   -36914.935     1847.254    179896.43     55.81876    56.770299    56.770299 
  610000    568.50995   -37558.742   -36890.977    2042.9011    179896.43    55.813906    56.772767    56.772767 
  611000    570.03907   -37567.158   -36897.597    2404.7531    179896.43    55.809078    56.775223    56.775223 
  612000    557.35482   -37566.214   -36911.552    1944.6723    179896.43    55.804275    56.777667    56.777667 
  613000    558.14267   -37563.743   -36908.156    2131.0588    179896.43    55.799497    56.780097    56.780097 
  614000    568.11668   -37567.452    -36900.15    1916.8907    179896.43    55.794745    56.782515    56.782515 
  615000    559.41264   -37572.735   -36915.657    1731.6188    179896.43    55.790019     56.78492     56.78492 
  616000    561.51795   -37574.684   -36915.132     1507.798    179896.43    55.785319    56.787312    56.787312 
  617000    562.24627   -37565.461   -36905.054     2319.224    179896.43    55.780645    56.789691    56.789691 
  618000    567.81091   -37570.061   -36903.118    1727.3731    179896.43    55.775998    56.792057    56.792057 
  619000    565.81741   -37568.469   -36903.868    2094.5388    179896.43    55.771377     56.79441     56.79441 
  620000    568.08384   -37568.264       -36901    1913.4345    179896.43    55.766783    56.796749    56.796749 
  621000    560.29048    -37569.49    -36911.38    1929.8432    179896.43    55.762217    56.799074    56.799074 
  622000    564.35316   -37566.089   -36903.207    1903.7897    179896.43    55.757677    56.801386    56.801386 
  623000    554.61406   -37571.263    -36919.82    1640.7396    179896.43    55.753165    56.803685    56.803685 
  624000    558.26211   -37561.225   -36905.498    2200.7889    179896.43     55.74868     56.80597     56.80597 
  625000    557.34869   -37573.379   -36918.725    1599.1561    179896.43    55.744224     56.80824     56.80824 
  626000    557.44197   -37565.347   -36910.583    1911.0091    179896.43    55.739795    56.810497    56.810497 
  627000    559.20608     -37567.3   -36910.464    1864.9028    179896.43    55.735394     56.81274     56.81274 
  628000    555.29547   -37573.734   -36921.491     1767.226    179896.43    55.731021    56.814969    56.814969 
  629000    562.16542   -37580.674   -36920.362    1665.0667    179896.43    55.726677    56.817183    56.817183 
  630000    570.61068   -37559.441   -36889.209    2075.7802    179896.43    55.722362    56.819383    56.819383 
  631000    556.24907   -37562.223    -36908.86    2237.7138    179896.43    55.718075    56.821569    56.821569 
  632000    558.42628   -37575.894   -36919.974    1742.1586    179896.43    55.713817     56.82374     56.82374 
  633000    550.08191    -37574.26   -36928.141    1585.2249    179896.43    55.709589    56.825897    56.825897 
  634000    562.74025   -37564.273   -36903.286    1960.0631    179896.43    55.705389    56.828039    56.828039 
  635000    550.71218   -37558.844   -36911.984    2025.3626    179896.43    55.701219    56.830166    56.830166 
  636000    560.98251   -37557.849   -36898.926    2038.3791    179896.43    55.697079    56.832278    56.832278 
  637000    555.96244   -37572.238   -36919.212    1681.9263    179896.43    55.692969    56.834375    56.834375 
  638000    556.26467   -37575.387   -36922.005    1824.1922    179896.43    55.688888    56.836457    56.836457 
  639000    556.37344   -37558.201   -36904.692    2263.3072    179896.43    55.684837    56.838524    56.838524 
  640000    553.01469   -37570.884   -36921.321     1801.449    179896.43    55.680817    56.840576    56.840576 
  641000    559.04323   -37558.454   -36901.809    2186.5556    179896.43    55.676827    56.842613    56.842613 
  642000    569.76812   -37569.731   -36900.489    1893.4178    179896.43    55.672868    56.844634    56.844634 
  643000    556.45046   -37564.423   -36910.824     1799.704    179896.43     55.66894     56.84664     56.84664 
  644000    565.44598   -37568.225   -36904.059    1660.7507    179896.43    55.665042     56.84863     56.84863 
  645000    556.25284   -37565.616   -36912.248    1850.5283    179896.43    55.661175    56.850604    56.850604 
  646000    558.32131   -37566.264   -36910.467    1978.9582    179896.43     55.65734    56.852563    56.852563 
  647000     560.7643   -37568.395   -36909.728    1697.0661    179896.43    55.653536    56.854506    56.854506 
  648000    544.78188   -37566.569   -36926.675    1748.5698    179896.43    55.649763    56.856433    56.856433 
  649000    566.81063   -37562.596   -36896.828    1811.5465    179896.43    55.646023    56.858344    56.858344 
  650000    555.15332   -37567.834   -36915.758    2004.8757    179896.43    55.642313    56.860239    56.860239 
  651000    557.11501   -37562.527   -36908.147     2337.037    179896.43    55.638636    56.862118    56.862118 
  652000    561.13778   -37571.431   -36912.326    1649.6841    179896.43    55.634991    56.863981    56.863981 
  653000    555.38209   -37568.336   -36915.991     1818.228    179896.43    55.631378    56.865827    56.865827 
  654000    557.37661   -37563.104   -36908.417    2000.5793    179896.43    55.627798    56.867657    56.867657 
  655000    566.66897   -37558.268   -36892.666    2115.3395    179896.43     55.62425    56.869471    56.869471 
  656000    545.31325   -37564.971   -36924.453    2032.3754    179896.43    55.620735    56.871268    56.871268 
  657000    550.43115   -37557.827   -36911.298    2031.5803    179896.43    55.617252    56.873049    56.873049 
  658000    564.71538   -37565.132   -36901.824     2186.307    179896.43    55.613802    56.874813    56.874813 
  659000    565.10285   -37558.684   -36894.922     2170.257    179896.43    55.610386     56.87656     56.87656 
  660000    565.57388   -37568.942   -36904.626    1851.1665    179896.43    55.607003     56.87829     56.87829 
  661000    553.16162   -37566.807    -36917.07    1791.0478    179896.43    55.603653    56.880003    56.880003 
  662000    559.78078   -37565.122   -36907.611    1974.1117    179896.43    55.600336      56.8817      56.8817 
  663000    558.31575   -37576.859   -36921.068    1533.1508    179896.43    55.597053    56.883379    56.883379 
  664000    556.72383   -37557.138   -36903.217    2141.2892    179896.43    55.593804    56.885041    56.885041 
  665000    556.32839   -37565.806    -36912.35    1868.5597    179896.43    55.590588    56.886686    56.886686 
  666000    558.30897   -37567.678   -36911.896     1915.868    179896.43    55.587407    56.888314    56.888314 
  667000     559.3219   -37574.302    -36917.33    1802.7482    179896.43     55.58426    56.889925    56.889925 
  668000    562.22205   -37567.864   -36907.485    2121.6716    179896.43    55.581147    56.891518    56.891518 
  669000    563.56045   -37565.334   -36903.383     1794.251    179896.43    55.578068    56.893094    56.893094 
  670000    558.87932   -37566.809   -36910.357    1748.6471    179896.43    55.575024    56.894652    56.894652 
  671000    560.13184   -37564.707   -36906.783    1934.0913    179896.43    55.572014    56.896192    56.896192 
  672000    564.34743    -37562.44   -36899.565    2235.5877    179896.43    55.569039    56.897715    56.897715 
  673000    553.82091   -37566.054   -36915.543    2072.4214    179896.43    55.566099    56.899221    56.899221 
  674000    552.26967   -37574.813   -36926.124    1516.8661    179896.43    55.563194    56.900708    56.900708 
  675000    558.11822    -37564.23   -36908.672    1993.5766    179896.43    55.560324    56.902178    56.902178 
  676000    561.10056   -37566.374   -36907.313     1995.696    179896.43    55.557489     56.90363     56.90363 
  677000    568.15304   -37554.031   -36886.686    2367.5322    179896.43    55.554689    56.905063    56.905063 
  678000    566.74552   -37570.554   -36904.862    1954.9975    179896.43    55.551925    56.906479    56.906479 
  679000    553.77863    -37566.87   -36916.409    1965.1559    179896.43    55.549197    56.907877    56.907877 
  680000    547.06572   -37560.759   -36918.183    1950.3272    179896.43    55.546503    56.909256    56.909256 
  681000    552.41488   -37559.592   -36910.733    2222.5928    179896.43    55.543846    56.910618    56.910618 
  682000    556.04068   -37561.951   -36908.833    1882.7405    179896.43    55.541224    56.911961    56.911961 
[...]
 9838000    560.57632    -37566.75   -36908.305    1926.5373    179896.43    55.600336      56.8817      56.8817 
 9839000     543.0236   -37575.976   -36938.148    1476.5143    179896.43    55.603653    56.880003    56.880003 
 9840000    560.77696   -37576.587   -36917.905    1642.7113    179896.43    55.607003     56.87829     56.87829 
 9841000    559.55276   -37568.389   -36911.146    1598.3664    179896.43    55.610386     56.87656     56.87656 
 9842000    554.33236   -37556.446   -36905.334     1793.439    179896.43    55.613802    56.874813    56.874813 
 9843000    558.28374   -37567.941   -36912.188    1660.6274    179896.43    55.617252    56.873049    56.873049 
 9844000    563.39254   -37567.385   -36905.631    1991.1339    179896.43    55.620735    56.871268    56.871268 
 9845000    560.59601   -37559.155   -36900.686    1958.6686    179896.43     55.62425    56.869471    56.869471 
 9846000    555.36236   -37570.774   -36918.453    1797.4486    179896.43    55.627798    56.867657    56.867657 
 9847000    564.73177   -37572.833   -36909.506    1712.5322    179896.43    55.631378    56.865827    56.865827 
 9848000    561.25214   -37569.961   -36910.722     1834.796    179896.43    55.634991    56.863981    56.863981 
 9849000    549.94753   -37562.462     -36916.5    1961.3921    179896.43    55.638636    56.862118    56.862118 
 9850000    554.78199   -37562.682   -36911.042    1966.3819    179896.43    55.642313    56.860239    56.860239 
 9851000    563.61795   -37573.673   -36911.654    1623.3111    179896.43    55.646023    56.858344    56.858344 
 9852000    557.27143   -37567.425   -36912.862    1812.4186    179896.43    55.649763    56.856433    56.856433 
 9853000    564.71705   -37559.328   -36896.019    2125.9555    179896.43    55.653536    56.854506    56.854506 
 9854000    555.85343   -37558.607   -36905.709    2013.2864    179896.43     55.65734    56.852563    56.852563 
 9855000    554.15186   -37565.492   -36914.592    1850.9106    179896.43    55.661175    56.850604    56.850604 
 9856000    560.34971   -37567.317   -36909.137    1573.7281    179896.43    55.665042     56.84863     56.84863 
 9857000    559.80056   -37572.604   -36915.069    1674.5527    179896.43     55.66894     56.84664     56.84664 
 9858000    557.28864   -37561.809   -36907.225     1777.785    179896.43    55.672868    56.844634    56.844634 
 9859000    558.20983   -37573.725   -36918.059    1586.3484    179896.43    55.676827    56.842613    56.842613 
 9860000    558.03103   -37570.769   -36915.313    1412.6088    179896.43    55.680817    56.840576    56.840576 
 9861000    565.13831    -37561.49   -36897.686    1989.6602    179896.43    55.684837    56.838524    56.838524 
 9862000    569.57315   -37575.127   -36906.114    1693.5038    179896.43    55.688888    56.836457    56.836457 
 9863000    566.47678   -37569.091   -36903.715    1991.5839    179896.43    55.692969    56.834375    56.834375 
 9864000    554.39359    -37559.85   -36908.666    1956.9237    179896.43    55.697079    56.832278    56.832278 
 9865000     556.6828   -37570.979   -36917.107    1710.0203    179896.43    55.701219    56.830166    56.830166 
 9866000    561.10594   -37562.997   -36903.929    2097.2783    179896.43    55.705389    56.828039    56.828039 
 9867000    565.88161   -37563.971   -36899.294    2118.7607    179896.43    55.709589    56.825897    56.825897 
 9868000    555.26029   -37564.473   -36912.272     1811.787    179896.43    55.713817     56.82374     56.82374 
 9869000    560.74487   -37569.992   -36911.349    1778.9588    179896.43    55.718075    56.821569    56.821569 
 9870000    556.47621   -37560.327   -36906.697    2009.4457    179896.43    55.722362    56.819383    56.819383 
 9871000    561.78544   -37580.628   -36920.762    1610.1944    179896.43    55.726677    56.817183    56.817183 
 9872000    563.47085   -37566.121   -36904.275    2009.2003    179896.43    55.731021    56.814969    56.814969 
 9873000    557.89693   -37559.874   -36904.576     1989.426    179896.43    55.735394     56.81274     56.81274 
 9874000    563.84666   -37567.129   -36904.842    2028.2112    179896.43    55.739795    56.810497    56.810497 
 9875000    557.84635   -37570.332   -36915.093    1404.2571    179896.43    55.744224     56.80824     56.80824 
 9876000    557.51465   -37574.429    -36919.58    1845.1321    179896.43     55.74868     56.80597     56.80597 
 9877000    556.96757   -37563.936   -36909.729    2115.9341    179896.43    55.753165    56.803685    56.803685 
 9878000    558.33125    -37573.38   -36917.572    1561.6455    179896.43    55.757677    56.801386    56.801386 
 9879000    559.05718   -37574.738   -36918.076    1656.0352    179896.43    55.762217    56.799074    56.799074 
 9880000    569.28339   -37573.533    -36904.86    1621.4971    179896.43    55.766783    56.796749    56.796749 
 9881000    554.85541   -37561.397   -36909.671    1967.5706    179896.43    55.771377     56.79441     56.79441 
 9882000    566.46576   -37561.933   -36896.569    1869.4853    179896.43    55.775998    56.792057    56.792057 
 9883000    564.46932   -37566.245   -36903.226    1954.0432    179896.43    55.780645    56.789691    56.789691 
 9884000    553.99302   -37577.985   -36927.272    1452.7062    179896.43    55.785319    56.787312    56.787312 
 9885000    560.27251   -37576.108   -36918.019    1497.8892    179896.43    55.790019     56.78492     56.78492 
 9886000     562.5548   -37567.277   -36906.507    1782.0762    179896.43    55.794745    56.782515    56.782515 
 9887000    553.95853   -37563.708   -36913.035    1936.4561    179896.43    55.799497    56.780097    56.780097 
 9888000    560.42256   -37571.888   -36913.623    1579.9504    179896.43    55.804275    56.777667    56.777667 
 9889000    558.19467   -37583.261   -36927.613    1452.8709    179896.43    55.809078    56.775223    56.775223 
 9890000    566.06073   -37572.735   -36907.847    1652.1587    179896.43    55.813906    56.772767    56.772767 
 9891000    564.96949   -37565.566    -36901.96     1885.735    179896.43     55.81876    56.770299    56.770299 
 9892000    563.33043   -37570.132   -36908.451    1955.4937    179896.43    55.823639    56.767818    56.767818 
 9893000    561.82693    -37564.22   -36904.306    1826.4603    179896.43    55.828543    56.765325    56.765325 
 9894000    566.92178   -37570.716   -36904.817    1659.9613    179896.43    55.833471     56.76282     56.76282 
 9895000    557.80291   -37574.559   -36919.371    1401.5068    179896.43    55.838423    56.760302    56.760302 
 9896000    568.59149   -37558.595   -36890.735    2106.2551    179896.43      55.8434    56.757773    56.757773 
 9897000    552.58365   -37563.193   -36914.135    2032.2618    179896.43    55.848401    56.755232    56.755232 
 9898000     551.1563   -37577.405   -36930.024    1385.6301    179896.43    55.853425    56.752679    56.752679 
 9899000    552.13469   -37574.585   -36926.054    1609.5759    179896.43    55.858474    56.750114    56.750114 
 9900000    561.07324    -37570.18   -36911.151    1680.5307    179896.43    55.863545    56.747538    56.747538 
 9901000    561.58105   -37568.634   -36909.008    1784.9632    179896.43     55.86864    56.744951    56.744951 
 9902000    558.46787   -37570.959    -36914.99     1652.903    179896.43    55.873758    56.742352    56.742352 
 9903000    567.07851    -37560.48   -36894.397    2016.6232    179896.43    55.878898    56.739742    56.739742 
 9904000    556.05639   -37572.691   -36919.555    1853.2074    179896.43    55.884062    56.737121    56.737121 
 9905000    559.43727   -37563.169   -36906.061    1762.2527    179896.43    55.889247    56.734488    56.734488 
 9906000    558.91976    -37564.42   -36907.921     2009.405    179896.43    55.894455    56.731845    56.731845 
 9907000    557.85897   -37568.723   -36913.469    1962.5296    179896.43    55.899685    56.729192    56.729192 
 9908000    558.10923   -37581.501   -36925.953    1479.5416    179896.43    55.904936    56.726527    56.726527 
 9909000    557.32393   -37578.866   -36924.241    1581.3033    179896.43    55.910209    56.723852    56.723852 
 9910000     562.3959   -37563.105   -36902.522    1924.4454    179896.43    55.915504    56.721166    56.721166 
 9911000    556.95291   -37570.633   -36916.443    1714.0272    179896.43    55.920819     56.71847     56.71847 
 9912000    556.50832   -37573.601   -36919.934    1799.3076    179896.43    55.926156    56.715764    56.715764 
 9913000    556.79876   -37558.776   -36904.768    2007.6457    179896.43    55.931513    56.713048    56.713048 
 9914000    558.32577   -37570.667   -36914.865    1546.1774    179896.43    55.936891    56.710322    56.710322 
 9915000    561.32962    -37566.59    -36907.26    1925.0326    179896.43    55.942289    56.707586    56.707586 
 9916000    567.62624   -37575.135   -36908.409    1531.2804    179896.43    55.947707     56.70484     56.70484 
 9917000    556.25539   -37580.085   -36926.714    1617.7238    179896.43    55.953145    56.702084    56.702084 
 9918000     565.7817   -37566.309   -36901.749    2000.8551    179896.43    55.958603    56.699319    56.699319 
 9919000    562.21915   -37567.568   -36907.193    2002.8198    179896.43     55.96408    56.696544    56.696544 
 9920000    554.25644   -37566.586   -36915.564    1993.6955    179896.43    55.969577     56.69376     56.69376 
 9921000    565.21971   -37578.698   -36914.798    1612.4655    179896.43    55.975092    56.690967    56.690967 
 9922000    559.95156   -37569.311   -36911.599    1960.1385    179896.43    55.980627    56.688165    56.688165 
 9923000    569.71352   -37572.964   -36903.786    1953.9252    179896.43    55.986179    56.685353    56.685353 
 9924000    557.66654   -37576.315   -36921.287     1538.017    179896.43    55.991751    56.682533    56.682533 
 9925000    553.79411   -37571.445   -36920.966    1997.5982    179896.43     55.99734    56.679704    56.679704 
 9926000    559.75841   -37573.023   -36915.538    1581.0153    179896.43    56.002947    56.676867    56.676867 
 9927000    560.94265   -37569.094   -36910.218    1821.7084    179896.43    56.008572     56.67402     56.67402 
 9928000    569.29444   -37565.265   -36896.579    1977.8119    179896.43    56.014215    56.671166    56.671166 
 9929000    560.20895   -37569.127   -36911.113    1839.4862    179896.43    56.019874    56.668303    56.668303 
 9930000    556.02542   -37571.839   -36918.738    1460.9243    179896.43    56.025551    56.665432    56.665432 
 9931000     561.2927   -37575.714   -36916.426    1776.6077    179896.43    56.031245    56.662553    56.662553 
 9932000    555.30452    -37572.09   -36919.837    1687.2209    179896.43    56.036955    56.659666    56.659666 
 9933000     560.3695   -37578.766   -36920.563    1417.8375    179896.43    56.042681    56.656771    56.656771 
 9934000     553.8838   -37574.436   -36923.851    1795.5574    179896.43    56.048424    56.653869    56.653869 
 9935000    561.68168   -37568.135   -36908.391    1570.9941    179896.43    56.054183    56.650958    56.650958 
 9936000    570.40288   -37560.039   -36890.052    2061.1062    179896.43    56.059957    56.648041    56.648041 
 9937000    559.64233   -37571.716   -36914.367     1825.385    179896.43    56.065746    56.645116    56.645116 
 9938000     561.1873   -37571.971   -36912.808    1758.8876    179896.43    56.071551    56.642184    56.642184 
 9939000    554.29808   -37566.518   -36915.447    1990.2713    179896.43    56.077371    56.639244    56.639244 
 9940000     565.9644   -37568.395   -36903.621    1649.6776    179896.43    56.083206    56.636298    56.636298 
 9941000    562.37434    -37568.22   -36907.662    2036.6825    179896.43    56.089055    56.633345    56.633345 
 9942000    561.40335   -37568.255   -36908.838    1999.5878    179896.43    56.094919    56.630385    56.630385 
 9943000    561.28574   -37569.975   -36910.696    1686.3754    179896.43    56.100796    56.627418    56.627418 
 9944000    555.72666   -37578.894   -36926.144    1363.0363    179896.43    56.106688    56.624445    56.624445 
 9945000    556.55198   -37566.767   -36913.049    1861.8485    179896.43    56.112593    56.621465    56.621465 
 9946000    553.43969   -37572.259   -36922.196    1468.7582    179896.43    56.118511     56.61848     56.61848 
 9947000    565.05437   -37563.812   -36900.107    2184.8274    179896.43    56.124442    56.615488    56.615488 
 9948000    564.86458   -37582.339   -36918.856    1420.4612    179896.43    56.130387     56.61249     56.61249 
 9949000    556.10352   -37576.309   -36923.117    1636.1861    179896.43    56.136344    56.609486    56.609486 
 9950000    562.23452   -37568.491   -36908.098    1831.2183    179896.43    56.142313    56.606476    56.606476 
 9951000    561.18441   -37576.883   -36917.723    1405.7156    179896.43    56.148295    56.603461    56.603461 
 9952000    555.79279   -37570.669   -36917.842     1710.016    179896.43    56.154289     56.60044     56.60044 
 9953000    559.97353   -37571.447    -36913.71    1786.4908    179896.43    56.160294    56.597414    56.597414 
 9954000    562.90879    -37567.06   -36905.874    1890.6117    179896.43    56.166311    56.594382    56.594382 
 9955000     552.8024   -37579.252   -36929.937    1391.6665    179896.43    56.172339    56.591345    56.591345 
 9956000    569.45916    -37571.99   -36903.111    1557.4555    179896.43    56.178379    56.588303    56.588303 
 9957000    568.65792   -37588.399   -36920.461    1184.5592    179896.43    56.184428    56.585257    56.585257 
 9958000    565.02124   -37573.662   -36909.995    1551.9977    179896.43    56.190489    56.582205    56.582205 
 9959000    561.55795   -37573.446   -36913.847    1796.5859    179896.43     56.19656    56.579149    56.579149 
 9960000    563.96597   -37572.625   -36910.198    1523.8263    179896.43    56.202641    56.576088    56.576088 
 9961000    567.92426   -37584.839   -36917.762    1505.5925    179896.43    56.208731    56.573022    56.573022 
 9962000    553.76682    -37575.84   -36925.393    1457.0238    179896.43    56.214831    56.569953    56.569953 
 9963000    562.39612   -37576.576   -36915.993    1524.7946    179896.43    56.220941    56.566879    56.566879 
 9964000    567.61089   -37575.479   -36908.771    1541.6566    179896.43     56.22706    56.563801    56.563801 
 9965000    571.51709   -37578.039   -36906.742    1681.7952    179896.43    56.233187    56.560719    56.560719 
 9966000    563.54124   -37574.429     -36912.5    1643.0405    179896.43    56.239323    56.557634    56.557634 
 9967000    563.14849   -37579.369   -36917.902    1495.9646    179896.43    56.245468    56.554544    56.554544 
 9968000    559.95158   -37576.477   -36918.766    1717.2448    179896.43     56.25162    56.551451    56.551451 
 9969000    560.18027   -37574.586   -36916.606    1680.3893    179896.43    56.257781    56.548355    56.548355 
 9970000    569.42711    -37577.45   -36908.608    1660.7271    179896.43    56.263949    56.545255    56.545255 
 9971000     559.7196   -37572.961   -36915.522    1828.1292    179896.43    56.270125    56.542152    56.542152 
 9972000    567.03695   -37579.216   -36913.181    1604.3689    179896.43    56.276307    56.539046    56.539046 
 9973000    559.30727   -37572.453   -36915.498    1675.1953    179896.43    56.282497    56.535937    56.535937 
 9974000    566.61577   -37568.135   -36902.596    1718.2464    179896.43    56.288693    56.532825    56.532825 
 9975000    555.39208   -37574.061   -36921.705    1205.8922    179896.43    56.294896    56.529711    56.529711 
 9976000    552.93109   -37580.945   -36931.479    1537.2611    179896.43    56.301105    56.526594    56.526594 
 9977000    561.31134    -37577.59   -36918.281    1670.0872    179896.43     56.30732    56.523474    56.523474 
 9978000    551.43045   -37574.608   -36926.905    1491.1312    179896.43     56.31354    56.520352    56.520352 
 9979000    568.71591   -37574.193   -36906.186    1809.1273    179896.43    56.319766    56.517228    56.517228 
 9980000     568.4867   -37580.876   -36913.139    1424.3161    179896.43    56.325997    56.514102    56.514102 
 9981000    556.68604   -37585.152   -36931.276    1290.5251    179896.43    56.332233    56.510973    56.510973 
 9982000    561.34064   -37575.602   -36916.259    1575.2568    179896.43    56.338474    56.507843    56.507843 
 9983000    564.37711   -37571.166   -36908.256    1694.5194    179896.43    56.344719    56.504712    56.504712 
 9984000    563.61971   -37569.296   -36907.276    1803.1956    179896.43    56.350969    56.501578    56.501578 
 9985000    550.28203   -37578.913   -36932.559    1437.7691    179896.43    56.357222    56.498444    56.498444 
 9986000    561.23387   -37573.474   -36914.256     1776.931    179896.43    56.363479    56.495307    56.495307 
 9987000    562.81448   -37571.986   -36910.912    1860.3893    179896.43     56.36974     56.49217     56.49217 
 9988000    565.22802   -37568.803   -36904.894    1902.6474    179896.43    56.376004    56.489032    56.489032 
 9989000    555.55993   -37567.412   -36914.858    1475.5258    179896.43     56.38227    56.485892    56.485892 
 9990000    560.99569   -37572.886   -36913.948    1716.2312    179896.43     56.38854    56.482752    56.482752 
 9991000    565.58822   -37577.757   -36913.425     1651.909    179896.43    56.394812    56.479611    56.479611 
 9992000    562.72736   -37574.581   -36913.608    1525.8675    179896.43    56.401086    56.476469    56.476469 
 9993000    563.47131   -37579.127   -36917.281    1558.2915    179896.43    56.407362    56.473327    56.473327 
 9994000    556.89547   -37582.812    -36928.69    1534.7619    179896.43     56.41364    56.470185    56.470185 
 9995000    564.04719   -37576.701   -36914.179    1536.3855    179896.43     56.41992    56.467042    56.467042 
 9996000    563.40305   -37583.749   -36921.983    1500.0078    179896.43      56.4262      56.4639      56.4639 
 9997000    567.62366   -37570.194    -36903.47    1641.7226    179896.43    56.432482    56.460757    56.460757 
 9998000    552.93703   -37577.924   -36928.451    1631.5472    179896.43    56.438764    56.457615    56.457615 
 9999000    569.83006   -37582.491   -36913.176    1370.5354    179896.43    56.445047    56.454472    56.454472 
10000000    566.01035   -37581.522   -36916.694    1530.8521    179896.43     56.45133     56.45133     56.45133 
Loop time of 4815.72 on 48 procs for 10000000 steps with 9088 atoms

Performance: 1794.124 ns/day, 0.013 hours/ns, 2076.533 timesteps/s
99.3% CPU use with 48 MPI tasks x 1 OpenMP threads

MPI task timing breakdown:
Section |  min time  |  avg time  |  max time  |%varavg| %total
---------------------------------------------------------------
Pair    | 3309.6     | 3418       | 3527.2     |  82.9 | 70.98
Neigh   | 209.81     | 228.66     | 252.48     |  66.8 |  4.75
Comm    | 673        | 767.37     | 886.91     | 182.8 | 15.93
Output  | 0.32345    | 0.37122    | 2.3218     |  46.7 |  0.01
Modify  | 325.92     | 345.2      | 378.13     |  78.0 |  7.17
Other   |            | 56.15      |            |       |  1.17

Nlocal:        189.333 ave         198 max         180 min
Histogram: 2 2 5 9 4 5 9 5 5 2
Nghost:        2092.83 ave        2111 max        2074 min
Histogram: 2 2 6 8 6 7 6 5 3 3
Neighs:        19873.9 ave       21329 max       18773 min
Histogram: 4 4 11 6 7 4 2 5 4 1

Total # of neighbors = 953946
Ave neighs/atom = 104.96765
Neighbor list builds = 1425603
Dangerous builds = 0
write_restart rst.${T}
write_restart rst.560
System init for write_restart ...
clear
OMP_NUM_THREADS environment is not set. Defaulting to 1 thread. (../comm.cpp:94)
  using 1 OpenMP thread(s) per MPI task
package intel 1
jump dms580.lmp
#MD-DMS by Ha-Bin Yu
variable T equal 580
log log.${T}
log log.580
