units           metal
boundary        p p p
atom_style      atomic
read_data      ../../data/T${T}.dat
read_data      ../../data/T420.dat
Reading data file ...
  orthogonal box = (-0.2229877 -0.2229877 -0.2229877) to (56.107480 56.107480 56.107480)
  3 by 4 by 4 MPI processor grid
  reading atoms ...
  9088 atoms
  reading velocities ...
  9088 velocities
  read_data CPU = 0.026 seconds
mass            1  26.98	#Al
mass            2  150.36	#Sm
pair_style      eam/fs
pair_coeff      * *  ../../Al90Sm10_MendelevM_2014.eam.fs  Al Sm

neighbor        2.0 bin
neigh_modify    delay 1

timestep 0.01
thermo 1000
reset_timestep 0
thermo_style custom step temp pe etotal press vol lx ly lz
fix             1 all nvt temp ${T} ${T} 0.1
fix             1 all nvt temp 420 ${T} 0.1
fix             1 all nvt temp 420 420 0.1
thermo_modify flush yes
fix nodrift all momentum 1  linear 1 1 1
fix com_seed all recenter INIT INIT INIT shift all
fix dsf all deform 1 x  wiggle 1.0  10000.0 y volume z volume units box
fix ps1 all ave/time 1 1 10000 c_thermo_press[1] c_thermo_press[2]  c_thermo_press[3] c_thermo_press[4]  c_thermo_press[5] c_thermo_press[6]  file  stress.${T}
fix ps1 all ave/time 1 1 10000 c_thermo_press[1] c_thermo_press[2]  c_thermo_press[3] c_thermo_press[4]  c_thermo_press[5] c_thermo_press[6]  file  stress.420
dump            1 all custom 1000000 dump.${T} id type x y z
dump            1 all custom 1000000 dump.420 id type x y z
dump_modify 1 sort id
run 10000000
Neighbor list info ...
  update every 1 steps, delay 1 steps, check yes
  max neighbors/atom: 2000, page size: 100000
  master list distance cutoff = 10
  ghost atom cutoff = 10
  binsize = 5, bins = 12 12 12
  1 neighbor lists, perpetual/occasional/extra = 1 0 0
  (1) pair eam/fs/intel, perpetual
      attributes: half, newton on, intel
      pair build: half/bin/newton/intel
      stencil: half/bin/3d/newton
      bin: intel
Per MPI rank memory allocation (min/avg/max) = 6.291 | 6.396 | 6.467 Mbytes
Step Temp PotEng TotEng Press Volume Lx Ly Lz 
       0    426.95946   -37786.282   -37284.781    851.97358    178743.43    56.330468    56.330468    56.330468 
    1000    427.09678   -37769.991   -37268.328    1279.6636    178743.43    56.336751    56.327327    56.327327 
    2000    412.39324   -37768.404   -37284.013    1294.1183    178743.43    56.343034    56.324186    56.324186 
    3000    417.00514    -37760.33   -37270.521    1384.1391    178743.43    56.349316    56.321046    56.321046 
    4000    422.19264   -37772.703   -37276.801    1282.2087    178743.43    56.355598    56.317907    56.317907 
    5000     423.0563   -37763.744   -37266.828    1556.1508    178743.43    56.361879    56.314769    56.314769 
    6000     423.1096   -37771.217   -37274.238    1200.1827    178743.43    56.368158    56.311632    56.311632 
    7000    418.52445   -37768.687   -37277.093     1304.126    178743.43    56.374436    56.308497    56.308497 
    8000    415.16346    -37766.21   -37278.564     1487.477    178743.43    56.380712    56.305363    56.305363 
    9000    419.45875   -37764.014   -37271.324    1252.4644    178743.43    56.386987     56.30223     56.30223 
   10000    416.56188   -37776.165   -37286.876    1191.0975    178743.43    56.393259    56.299099    56.299099 
   11000    418.70343    -37773.02   -37281.217    1166.5343    178743.43    56.399528     56.29597     56.29597 
   12000    417.55305   -37763.039   -37272.587    1538.5123    178743.43    56.405795    56.292842    56.292842 
   13000     419.6673   -37770.595    -37277.66    1378.1081    178743.43    56.412059    56.289717    56.289717 
   14000    415.76657   -37764.948   -37276.594    1042.3012    178743.43    56.418319    56.286594    56.286594 
   15000    422.98909   -37763.614   -37266.777    1420.1291    178743.43    56.424576    56.283473    56.283473 
   16000    424.27394    -37770.07   -37271.723    1376.5276    178743.43     56.43083    56.280354    56.280354 
   17000    425.25864   -37769.459   -37269.956    1248.2944    178743.43    56.437079    56.277238    56.277238 
   18000    416.70615   -37772.141   -37282.684    1154.0197    178743.43    56.443324    56.274124    56.274124 
   19000    423.15265   -37759.401   -37262.371    1433.2104    178743.43    56.449565    56.271014    56.271014 
   20000    414.28604   -37765.574   -37278.959    1449.8157    178743.43    56.455801    56.267906    56.267906 
   21000    419.60541   -37760.721   -37267.858     1447.786    178743.43    56.462032    56.264801    56.264801 
   22000    424.95745   -37771.439   -37272.289    1237.4089    178743.43    56.468258    56.261699    56.261699 
   23000    423.88372   -37762.822   -37264.934    1254.8079    178743.43    56.474479      56.2586      56.2586 
   24000    418.96157   -37768.372   -37276.265    1336.1883    178743.43    56.480694    56.255505    56.255505 
   25000    419.88349   -37769.759   -37276.569     1258.679    178743.43    56.486902    56.252413    56.252413 
   26000    420.11565   -37766.279   -37272.816    1505.6932    178743.43    56.493105    56.249325    56.249325 
   27000    422.85917   -37767.568   -37270.883    1499.7824    178743.43    56.499301    56.246241    56.246241 
   28000    425.80001   -37770.084   -37269.945    1326.9183    178743.43    56.505491     56.24316     56.24316 
   29000    417.13049   -37762.566    -37272.61    1424.7786    178743.43    56.511674    56.240083    56.240083 
   30000    419.83371   -37760.436   -37267.305    1506.7815    178743.43    56.517849     56.23701     56.23701 
   31000    420.36551    -37763.99   -37270.234     1399.042    178743.43    56.524017    56.233942    56.233942 
   32000    419.20084   -37767.969   -37275.581    1294.9032    178743.43    56.530178    56.230878    56.230878 
   33000    414.77623   -37760.355   -37273.164    1273.8117    178743.43    56.536331    56.227818    56.227818 
   34000    425.22661   -37771.233   -37271.767    1339.3131    178743.43    56.542475    56.224763    56.224763 
   35000    416.79999   -37768.464   -37278.896    1131.0986    178743.43    56.548611    56.221712    56.221712 
   36000    414.81643   -37770.351   -37283.113    1000.9439    178743.43    56.554739    56.218666    56.218666 
   37000    419.50591    -37764.63   -37271.884    1367.6274    178743.43    56.560857    56.215625    56.215625 
   38000    421.52869   -37774.565   -37279.443    1259.0552    178743.43    56.566967     56.21259     56.21259 
   39000    420.21858   -37761.505   -37267.921    1254.1817    178743.43    56.573067    56.209559    56.209559 
   40000    419.41829   -37768.647   -37276.003    1360.2766    178743.43    56.579158    56.206533    56.206533 
   41000    420.37731   -37769.502   -37275.733    1343.0441    178743.43    56.585239    56.203513    56.203513 
   42000    421.80009   -37767.656   -37272.215     1259.329    178743.43     56.59131    56.200498    56.200498 
   43000    421.70786   -37773.581   -37278.248    1327.2919    178743.43     56.59737    56.197489    56.197489 
   44000     421.6543   -37770.435   -37275.166    1391.3828    178743.43     56.60342    56.194486    56.194486 
   45000    423.80265   -37772.625   -37274.832    1065.9901    178743.43    56.609459    56.191489    56.191489 
   46000    418.48759   -37764.539   -37272.989    1197.3876    178743.43    56.615487    56.188497    56.188497 
   47000    423.79241   -37772.061   -37274.279    1156.4994    178743.43    56.621504    56.185511    56.185511 
   48000    420.91976   -37762.345   -37267.938    1267.2787    178743.43     56.62751    56.182532    56.182532 
   49000    413.26046   -37763.712   -37278.301      1292.23    178743.43    56.633503    56.179559    56.179559 
   50000     422.0655   -37767.183    -37271.43    1167.6883    178743.43    56.639485    56.176592    56.176592 
   51000    426.90345   -37769.043   -37267.607    1375.5886    178743.43    56.645455    56.173632    56.173632 
   52000    419.52138   -37764.716   -37271.952    1426.7404    178743.43    56.651412    56.170679    56.170679 
   53000    420.54729   -37769.354   -37275.384    1200.2019    178743.43    56.657356    56.167732    56.167732 
   54000    419.61015   -37765.934   -37273.065    1385.4262    178743.43    56.663288    56.164792    56.164792 
   55000    421.32322   -37768.082   -37273.202    1255.1275    178743.43    56.669206    56.161859    56.161859 
   56000    416.54281    -37779.68   -37290.414    980.66867    178743.43    56.675111    56.158933    56.158933 
   57000    424.72394   -37770.239   -37271.363    1227.2201    178743.43    56.681002    56.156015    56.156015 
   58000    419.16477   -37766.784   -37274.439    1349.2988    178743.43     56.68688    56.153103    56.153103 
   59000    422.79006   -37768.191   -37271.587    1436.2959    178743.43    56.692743    56.150199    56.150199 
   60000    419.42546   -37769.161   -37276.509    1175.3875    178743.43    56.698593    56.147303    56.147303 
   61000    422.39715   -37771.657   -37275.515    1162.9832    178743.43    56.704427    56.144414    56.144414 
   62000    421.62603   -37773.303   -37278.067    1128.4836    178743.43    56.710247    56.141533    56.141533 
   63000     419.6219   -37763.455   -37270.573    1605.1503    178743.43    56.716052     56.13866     56.13866 
   64000    418.16007   -37770.094   -37278.929    1181.4699    178743.43    56.721842    56.135795    56.135795 
   65000    421.89105   -37769.368    -37273.82      1366.43    178743.43    56.727616    56.132938    56.132938 
   66000    423.74209   -37761.041   -37263.319     1540.297    178743.43    56.733374    56.130089    56.130089 
   67000    422.77962   -37772.453   -37275.861    1240.2194    178743.43    56.739117    56.127249    56.127249 
   68000    414.36959   -37770.692   -37283.979    1152.2786    178743.43    56.744844    56.124416    56.124416 
   69000    420.73857   -37770.875   -37276.681    1548.9572    178743.43    56.750554    56.121593    56.121593 
   70000     424.4358   -37765.737     -37267.2    1598.8712    178743.43    56.756247    56.118778    56.118778 
   71000    418.99775   -37762.857   -37270.708    1397.4954    178743.43    56.761924    56.115971    56.115971 
   72000    418.21322   -37763.093   -37271.866    1439.9081    178743.43    56.767584    56.113174    56.113174 
   73000    415.33992   -37763.844   -37275.991    1386.4528    178743.43    56.773226    56.110385    56.110385 
   74000    416.32857   -37759.237   -37270.223    1578.0164    178743.43    56.778851    56.107606    56.107606 
   75000    417.35648   -37760.406   -37270.185    1328.6409    178743.43    56.784459    56.104836    56.104836 
   76000    414.22106   -37763.637   -37277.098    1358.7931    178743.43    56.790048    56.102075    56.102075 
   77000     421.7835   -37767.122   -37271.701    1246.0735    178743.43    56.795619    56.099323    56.099323 
   78000    425.83187    -37755.72   -37255.544    1630.6133    178743.43    56.801172    56.096581    56.096581 
   79000    416.69651   -37763.773   -37274.326    1415.2421    178743.43    56.806706    56.093848    56.093848 
   80000     424.3495    -37765.06   -37266.625    1318.9565    178743.43    56.812222    56.091125    56.091125 
   81000    415.51358   -37765.065   -37277.008    1185.2208    178743.43    56.817718    56.088412    56.088412 
   82000    424.18522   -37763.466   -37265.223    1645.5579    178743.43    56.823195    56.085709    56.085709 
   83000    419.32679    -37758.43   -37265.894    1590.9366    178743.43    56.828653    56.083016    56.083016 
   84000    421.10703   -37765.268   -37270.642    1386.4231    178743.43    56.834091    56.080332    56.080332 
   85000    417.42126   -37765.579   -37275.281    1408.3634    178743.43    56.839509    56.077659    56.077659 
   86000    421.33377   -37774.299   -37279.406    1116.5165    178743.43    56.844908    56.074997    56.074997 
   87000    421.72924    -37761.88   -37266.523    1460.4217    178743.43    56.850285    56.072344    56.072344 
   88000    420.79363   -37760.483   -37266.224    1532.5619    178743.43    56.855643    56.069703    56.069703 
   89000    416.25193   -37767.831   -37278.907    1242.7326    178743.43    56.860979    56.067071    56.067071 
   90000    414.53059   -37764.523   -37277.621    1289.4284    178743.43    56.866295    56.064451    56.064451 
   91000     422.3897   -37764.579   -37268.446    1269.0665    178743.43    56.871589    56.061841    56.061841 
   92000    417.98535   -37772.372   -37281.412    1120.6298    178743.43    56.876862    56.059242    56.059242 
   93000     418.3259   -37762.643   -37271.282    1421.0967    178743.43    56.882114    56.056655    56.056655 
   94000    429.18479    -37768.22   -37264.105    1489.6466    178743.43    56.887344    56.054078    56.054078 
   95000    418.47265   -37759.497   -37267.964    1243.8753    178743.43    56.892551    56.051512    56.051512 
   96000    421.92581   -37767.455   -37271.867    1256.6706    178743.43    56.897737    56.048958    56.048958 
   97000    422.65623   -37764.847     -37268.4    1337.1504    178743.43      56.9029    56.046415    56.046415 
   98000    421.76701   -37769.737   -37274.335    1277.9323    178743.43    56.908041    56.043884    56.043884 
   99000    424.32585   -37752.322   -37253.914    1676.5026    178743.43    56.913159    56.041364    56.041364 
  100000    418.86203   -37763.476   -37271.486     1558.479    178743.43    56.918253    56.038856    56.038856 
  101000    421.56795   -37766.338    -37271.17    1205.4424    178743.43    56.923325    56.036359    56.036359 
  102000    417.38241   -37763.544   -37273.292    1526.9431    178743.43    56.928373    56.033875    56.033875 
  103000    422.96461   -37763.367   -37266.558    1539.1343    178743.43    56.933398    56.031402    56.031402 
  104000    424.93606   -37769.889   -37270.764    1395.6726    178743.43    56.938398    56.028941    56.028941 
  105000    415.76092   -37767.798   -37279.451     1246.669    178743.43    56.943375    56.026493    56.026493 
  106000    420.97654   -37761.757   -37267.284    1521.0339    178743.43    56.948328    56.024057    56.024057 
  107000    417.18241   -37767.626   -37277.609     1334.223    178743.43    56.953256    56.021633    56.021633 
  108000    424.79743   -37763.424   -37264.462    1471.0171    178743.43    56.958159    56.019221    56.019221 
  109000    416.48673   -37762.778   -37273.578    1338.1972    178743.43    56.963038    56.016822    56.016822 
  110000    417.36879    -37766.29   -37276.054    1166.2036    178743.43    56.967892    56.014436    56.014436 
  111000    419.80931   -37755.909   -37262.806    1512.7123    178743.43    56.972721    56.012062    56.012062 
  112000     421.0407   -37768.581   -37274.032    1367.5595    178743.43    56.977524    56.009701    56.009701 
  113000    419.08064   -37770.365   -37278.119    1255.0495    178743.43    56.982302    56.007353    56.007353 
  114000    423.54252   -37756.982   -37259.495    1602.3601    178743.43    56.987054    56.005017    56.005017 
  115000    414.89105   -37761.877   -37274.551    1487.8089    178743.43     56.99178    56.002695    56.002695 
  116000    424.33591   -37767.465   -37269.046    1339.8323    178743.43     56.99648    56.000386    56.000386 
  117000    422.42236   -37763.827   -37267.656    1336.2779    178743.43    57.001154     55.99809     55.99809 
  118000    417.49024   -37766.404   -37276.026    1147.4419    178743.43    57.005801    55.995808    55.995808 
  119000    412.83766   -37763.439   -37278.525    1202.3438    178743.43    57.010421    55.993539    55.993539 
  120000    425.61404   -37766.514   -37266.593    1560.3123    178743.43    57.015015    55.991283    55.991283 
  121000    415.11657   -37760.637   -37273.047    1363.8168    178743.43    57.019582    55.989041    55.989041 
  122000    414.10841   -37765.427    -37279.02    1249.9817    178743.43    57.024121    55.986812    55.986812 
  123000    419.53066   -37765.698   -37272.923    1508.5015    178743.43    57.028633    55.984597    55.984597 
  124000    418.60414   -37758.941   -37267.254    1574.5067    178743.43    57.033118    55.982396    55.982396 
  125000    416.42754   -37765.281   -37276.151    1454.2501    178743.43    57.037575    55.980209    55.980209 
  126000      422.423   -37762.869   -37266.697    1407.6024    178743.43    57.042004    55.978036    55.978036 
  127000    420.15155   -37757.566   -37264.061    1332.1039    178743.43    57.046405    55.975876    55.975876 
  128000    420.95417    -37763.28   -37268.832    1355.4748    178743.43    57.050777    55.973731    55.973731 
  129000    422.78271   -37766.401   -37269.806    1268.2949    178743.43    57.055121      55.9716      55.9716 
  130000    415.71639    -37748.46   -37260.165    1895.8254    178743.43    57.059437    55.969484    55.969484 
  131000    425.52767   -37766.276   -37266.457    1400.4245    178743.43    57.063723    55.967381    55.967381 
  132000    422.58346   -37760.241    -37263.88    1320.1579    178743.43    57.067981    55.965293    55.965293 
  133000     420.0415   -37756.677   -37263.302    1529.7016    178743.43     57.07221     55.96322     55.96322 
  134000    426.23756   -37769.987   -37269.334    1321.9872    178743.43    57.076409    55.961161    55.961161 
  135000    418.70558    -37764.11   -37272.304    1428.1855    178743.43    57.080579    55.959117    55.959117 
  136000    423.05605   -37767.972   -37271.056    1300.6218    178743.43    57.084719    55.957088    55.957088 
  137000    416.63898   -37767.477   -37278.098    1218.3831    178743.43     57.08883    55.955073    55.955073 
  138000    422.61445   -37758.356   -37261.959    1510.9179    178743.43    57.092911    55.953074    55.953074 
  139000    421.27916   -37761.266   -37266.437    1434.3444    178743.43    57.096961    55.951089    55.951089 
  140000    416.49715       -37765   -37275.788    1414.7395    178743.43    57.100981    55.949119    55.949119 
  141000    420.72546   -37758.318   -37264.139    1443.8084    178743.43    57.104971    55.947165    55.947165 
  142000    418.05999   -37763.458    -37272.41    1529.0469    178743.43     57.10893    55.945225    55.945225 
  143000    419.84217   -37754.415   -37261.274     1525.072    178743.43    57.112859    55.943301    55.943301 
  144000    416.02242   -37758.481   -37269.826    1566.3914    178743.43    57.116756    55.941392    55.941392 
  145000    411.48596   -37763.683   -37280.357    1336.8082    178743.43    57.120623    55.939499    55.939499 
  146000    420.09324   -37764.718   -37271.282    1345.6834    178743.43    57.124458    55.937621    55.937621 
  147000    423.58941   -37763.685   -37266.142    1587.8599    178743.43    57.128262    55.935759    55.935759 
  148000    420.07081   -37752.062   -37258.652    1594.0008    178743.43    57.132035    55.933912    55.933912 
  149000    420.72297   -37769.111   -37274.936    1185.2143    178743.43    57.135776    55.932081    55.932081 
  150000     423.5545   -37764.065   -37266.563    1471.7238    178743.43    57.139485    55.930265    55.930265 
  151000    423.52542   -37759.372   -37261.905    1566.1256    178743.43    57.143162    55.928466    55.928466 
  152000     419.9077   -37763.043   -37269.825    1381.7871    178743.43    57.146807    55.926682    55.926682 
  153000    419.61261   -37758.953   -37266.081    1486.7461    178743.43     57.15042    55.924914    55.924914 
  154000    421.73005   -37758.143   -37262.785    1656.4191    178743.43    57.154001    55.923162    55.923162 
  155000    419.74565   -37760.828     -37267.8    1416.6544    178743.43    57.157549    55.921427    55.921427 
  156000    421.85212   -37761.761   -37266.259     1409.906    178743.43    57.161064    55.919707    55.919707 
  157000    420.09013   -37768.385   -37274.952    1141.1314    178743.43    57.164546    55.918004    55.918004 
  158000    428.43924   -37774.148   -37270.908    1127.2397    178743.43    57.167996    55.916317    55.916317 
  159000    416.29679   -37752.315   -37263.339    1687.0382    178743.43    57.171413    55.914646    55.914646 
  160000    417.70372    -37759.71   -37269.081    1558.3926    178743.43    57.174796    55.912991    55.912991 
  161000    420.73228   -37759.321   -37265.134    1375.0385    178743.43    57.178146    55.911353    55.911353 
  162000    419.34736   -37757.425   -37264.865     1660.587    178743.43    57.181463    55.909732    55.909732 
  163000    425.89901   -37763.597   -37263.342    1461.4896    178743.43    57.184745    55.908127    55.908127 
  164000    414.45539   -37758.109   -37271.295    1453.2168    178743.43    57.187995    55.906539    55.906539 
  165000    412.75641   -37759.664   -37274.846    1526.4768    178743.43     57.19121    55.904967    55.904967 
  166000    420.64724   -37762.821   -37268.735    1224.5054    178743.43    57.194391    55.903412    55.903412 
  167000    422.31307   -37760.169   -37264.126    1486.2436    178743.43    57.197539    55.901874    55.901874 
  168000    423.71005   -37763.787   -37266.103    1349.0646    178743.43    57.200652    55.900353    55.900353 
  169000    421.36647   -37759.913   -37264.982    1441.5972    178743.43     57.20373    55.898849    55.898849 
  170000    422.07751   -37761.603   -37265.837    1589.4272    178743.43    57.206775    55.897361    55.897361 
  171000     420.2207   -37765.667   -37272.081    1440.3531    178743.43    57.209784    55.895891    55.895891 
  172000    416.46813   -37761.807   -37272.629    1377.0438    178743.43    57.212759    55.894438    55.894438 
  173000    415.49768   -37752.904   -37264.866    1657.4492    178743.43    57.215699    55.893002    55.893002 
  174000    419.89243   -37767.245   -37274.045    1239.2945    178743.43    57.218604    55.891583    55.891583 
  175000    419.98498   -37763.972   -37270.664    1502.3779    178743.43    57.221475    55.890181    55.890181 
  176000     419.8811   -37752.276   -37259.089    1652.9835    178743.43    57.224309    55.888797    55.888797 
  177000    421.54715   -37756.764   -37261.621    1630.2687    178743.43    57.227109     55.88743     55.88743 
  178000    420.21013   -37757.291   -37263.717    1577.1437    178743.43    57.229873     55.88608     55.88608 
  179000    425.45163    -37753.94    -37254.21    2012.7588    178743.43    57.232602    55.884748    55.884748 
  180000     420.4417   -37759.945     -37266.1    1503.5466    178743.43    57.235295    55.883433    55.883433 
  181000    416.19646   -37761.286   -37272.427    1657.9453    178743.43    57.237952    55.882136    55.882136 
  182000    421.25968   -37756.333   -37261.527    1503.9809    178743.43    57.240574    55.880856    55.880856 
  183000    424.16977   -37750.339   -37252.115    1987.6519    178743.43     57.24316    55.879594    55.879594 
  184000    417.94935   -37753.539   -37262.621    1681.3714    178743.43    57.245709    55.878349    55.878349 
  185000    417.49951   -37755.523   -37265.133    1617.2924    178743.43    57.248223    55.877123    55.877123 
  186000    416.45724   -37761.345    -37272.18    1568.1428    178743.43      57.2507    55.875914    55.875914 
  187000    421.02863   -37762.489   -37267.954    1570.1609    178743.43    57.253141    55.874723    55.874723 
  188000    423.57975   -37752.345   -37254.814    1825.8964    178743.43    57.255545     55.87355     55.87355 
  189000    412.50443   -37763.532    -37279.01    1179.9643    178743.43    57.257913    55.872394    55.872394 
  190000    424.16292   -37769.882   -37271.666    1370.5103    178743.43    57.260245    55.871257    55.871257 
  191000    414.77244   -37760.192   -37273.006    1501.8737    178743.43    57.262539    55.870137    55.870137 
  192000    419.75708   -37762.321    -37269.28    1393.0413    178743.43    57.264797    55.869036    55.869036 
  193000    419.04934   -37753.205   -37260.995    1587.4165    178743.43    57.267018    55.867952    55.867952 
  194000    420.09485    -37762.04   -37268.602    1341.5782    178743.43    57.269202    55.866887    55.866887 
  195000    421.80847   -37752.608   -37257.157    1602.3211    178743.43    57.271349     55.86584     55.86584 
  196000    420.30774   -37762.185   -37268.497    1558.3098    178743.43    57.273459    55.864811    55.864811 
  197000    421.83733   -37755.263   -37259.779    1776.5373    178743.43    57.275531      55.8638      55.8638 
  198000    424.02887   -37756.594   -37258.536    1658.4851    178743.43    57.277566    55.862808    55.862808 
  199000    422.72677   -37757.091   -37260.562    1486.1832    178743.43    57.279564    55.861834    55.861834 
  200000    425.63449   -37756.874    -37256.93    1432.0238    178743.43    57.281525    55.860878    55.860878 
  201000    419.62945    -37763.91   -37271.019    1309.0357    178743.43    57.283447     55.85994     55.85994 
  202000    421.30231   -37770.066    -37275.21    1316.4826    178743.43    57.285333    55.859021    55.859021 
  203000    425.74466    -37752.91   -37252.836    1617.2538    178743.43     57.28718     55.85812     55.85812 
  204000    421.75949   -37760.314   -37264.921    1389.4718    178743.43     57.28899    55.857238    55.857238 
  205000    417.03004   -37756.012   -37266.174    1523.8884    178743.43    57.290762    55.856374    55.856374 
  206000    419.67545   -37752.138   -37259.192    1581.2878    178743.43    57.292496    55.855529    55.855529 
  207000    421.54779   -37761.403   -37266.258     1449.054    178743.43    57.294192    55.854702    55.854702 
  208000    426.56978   -37765.354   -37264.311    1329.1778    178743.43     57.29585    55.853894    55.853894 
  209000    419.91323   -37763.073   -37269.848    1385.0205    178743.43     57.29747    55.853105    55.853105 
  210000    426.28534   -37756.228   -37255.519    1648.1564    178743.43    57.299051    55.852334    55.852334 
  211000    420.98139   -37758.226   -37263.747    1569.3475    178743.43    57.300595    55.851581    55.851581 
  212000    419.65439   -37759.794   -37266.873    1493.2027    178743.43      57.3021    55.850848    55.850848 
  213000    412.52911   -37759.238   -37274.687    1613.5275    178743.43    57.303567    55.850133    55.850133 
  214000    423.09048   -37755.659   -37258.702    1593.3919    178743.43    57.304995    55.849437    55.849437 
  215000    419.80195   -37759.137   -37266.043    1672.4726    178743.43    57.306385     55.84876     55.84876 
  216000    423.46268   -37761.332   -37263.938    1361.1612    178743.43    57.307736    55.848101    55.848101 
  217000    422.75593   -37756.877   -37260.314    1660.6744    178743.43    57.309049    55.847462    55.847462 
  218000    418.57515   -37757.576   -37265.923    1677.3165    178743.43    57.310323    55.846841    55.846841 
  219000    426.53254   -37752.014   -37251.014    1496.1686    178743.43    57.311559    55.846239    55.846239 
  220000    414.64291   -37756.865   -37269.831    1433.9182    178743.43    57.312755    55.845656    55.845656 
  221000     417.5421   -37760.151   -37269.711    1514.0845    178743.43    57.313913    55.845092    55.845092 
  222000    418.33439   -37757.198   -37265.827    1450.2027    178743.43    57.315032    55.844546    55.844546 
  223000     417.5094   -37755.983   -37265.582    1657.5027    178743.43    57.316113     55.84402     55.84402 
  224000    424.50737   -37754.628   -37256.008    1627.9873    178743.43    57.317154    55.843513    55.843513 
  225000    419.38308   -37760.875   -37268.274    1398.5813    178743.43    57.318156    55.843025    55.843025 
  226000    418.27569    -37765.58   -37274.279    1159.6277    178743.43     57.31912    55.842555    55.842555 
  227000    422.05656   -37750.223   -37254.481     1590.117    178743.43    57.320044    55.842105    55.842105 
  228000    427.79341   -37757.244   -37254.763    1660.5177    178743.43    57.320929    55.841674    55.841674 
  229000    424.23914   -37762.377   -37264.072    1385.3412    178743.43    57.321776    55.841262    55.841262 
  230000    420.84868   -37764.064    -37269.74    1422.9081    178743.43    57.322583    55.840869    55.840869 
  231000    422.00217   -37751.801   -37256.123    1722.7852    178743.43    57.323351    55.840495    55.840495 
  232000    421.39056   -37747.463   -37252.503    1675.4821    178743.43    57.324079     55.84014     55.84014 
  233000    414.36181   -37755.096   -37268.392    1651.5686    178743.43    57.324769    55.839804    55.839804 
  234000    424.21123   -37759.411   -37261.138    1600.7764    178743.43    57.325419    55.839487    55.839487 
  235000    421.11449   -37757.923   -37263.288    1425.3152    178743.43     57.32603     55.83919     55.83919 
  236000    417.43674   -37764.829   -37274.513    1379.9084    178743.43    57.326602    55.838911    55.838911 
  237000    417.20821    -37753.07   -37263.023    1481.1995    178743.43    57.327134    55.838652    55.838652 
  238000    422.63849   -37757.009   -37260.583    1718.4426    178743.43    57.327627    55.838412    55.838412 
  239000    419.80336   -37758.876   -37265.781     1505.999    178743.43    57.328081    55.838191    55.838191 
  240000     421.7884   -37753.803   -37258.376    1621.4806    178743.43    57.328495    55.837989    55.837989 
  241000    418.31874   -37751.722    -37260.37    1675.9357    178743.43     57.32887    55.837807    55.837807 
  242000    422.26597   -37753.194   -37257.206    1711.4128    178743.43    57.329205    55.837643    55.837643 
  243000    422.48103   -37753.206   -37256.966     1503.226    178743.43    57.329501    55.837499    55.837499 
  244000    419.86446   -37761.108   -37267.941       1427.5    178743.43    57.329758    55.837374    55.837374 
  245000    423.50257   -37752.139   -37254.699    1673.4921    178743.43    57.329975    55.837268    55.837268 
  246000    421.98284   -37765.055   -37269.399    1411.6062    178743.43    57.330152    55.837182    55.837182 
  247000     419.4628   -37764.245   -37271.549     1275.491    178743.43     57.33029    55.837115    55.837115 
  248000    415.57508   -37759.089   -37270.959    1580.4489    178743.43    57.330389    55.837067    55.837067 
  249000    423.48345   -37764.883   -37267.465    1464.2735    178743.43    57.330448    55.837038    55.837038 
  250000    419.36162   -37752.219   -37259.642    1675.2709    178743.43    57.330468    55.837028    55.837028 
  251000    418.35562   -37752.465    -37261.07     1713.876    178743.43    57.330448    55.837038    55.837038 
  252000    421.36688   -37758.054   -37263.122    1464.7165    178743.43    57.330389    55.837067    55.837067 
  253000    424.90669   -37756.959   -37257.869    1627.7734    178743.43     57.33029    55.837115    55.837115 
  254000    420.74752   -37765.253   -37271.048    1296.6463    178743.43    57.330152    55.837182    55.837182 
  255000    416.22558   -37757.423    -37268.53    1464.1138    178743.43    57.329975    55.837268    55.837268 
  256000      422.744   -37759.908   -37263.359    1765.1033    178743.43    57.329758    55.837374    55.837374 
  257000    420.37556   -37760.849   -37267.081    1499.8947    178743.43    57.329501    55.837499    55.837499 
  258000     417.9382   -37758.625    -37267.72    1516.4198    178743.43    57.329205    55.837643    55.837643 
  259000    422.47826   -37749.078    -37252.84    1686.8044    178743.43     57.32887    55.837807    55.837807 
  260000    420.65836   -37756.721   -37262.621    1551.7625    178743.43    57.328495    55.837989    55.837989 
  261000    416.18026   -37764.843   -37276.003    1255.7633    178743.43    57.328081    55.838191    55.838191 
  262000    425.12743   -37761.035   -37261.686    1726.5869    178743.43    57.327627    55.838412    55.838412 
  263000    424.87364   -37753.011    -37253.96    1940.1239    178743.43    57.327134    55.838652    55.838652 
  264000    421.51992   -37753.223   -37258.112    1640.1924    178743.43    57.326602    55.838911    55.838911 
  265000    418.08096   -37762.469   -37271.397    1489.8144    178743.43     57.32603     55.83919     55.83919 
  266000    423.09482   -37758.053   -37261.092     1619.527    178743.43    57.325419    55.839487    55.839487 
  267000      425.058   -37766.492   -37267.224    1514.2715    178743.43    57.324769    55.839804    55.839804 
  268000    416.91908   -37758.703   -37268.995    1345.0124    178743.43    57.324079     55.84014     55.84014 
  269000    425.93015   -37758.657   -37258.365     1475.505    178743.43    57.323351    55.840495    55.840495 
  270000    418.73897   -37755.588   -37263.743    1471.0433    178743.43    57.322583    55.840869    55.840869 
  271000    423.54696   -37751.607   -37254.115    1676.9638    178743.43    57.321776    55.841262    55.841262 
  272000    419.62719   -37749.779    -37256.89    1648.9661    178743.43    57.320929    55.841674    55.841674 
  273000    425.20027   -37755.211   -37255.776    1733.0708    178743.43    57.320044    55.842105    55.842105 
  274000     416.3485   -37755.454   -37266.417      1682.95    178743.43     57.31912    55.842555    55.842555 
  275000    423.79637   -37750.789   -37253.004    1916.4858    178743.43    57.318156    55.843025    55.843025 
  276000    416.23372   -37763.417   -37274.515    1390.7683    178743.43    57.317154    55.843513    55.843513 
  277000    419.04114   -37763.057   -37270.857    1301.5701    178743.43    57.316113     55.84402     55.84402 
  278000    422.02781   -37758.232   -37262.523    1626.9041    178743.43    57.315032    55.844546    55.844546 
  279000    420.81232    -37749.81    -37255.53    1643.0213    178743.43    57.313913    55.845092    55.845092 
  280000     422.2804   -37764.197   -37268.192    1437.8372    178743.43    57.312755    55.845656    55.845656 
  281000    419.27214   -37750.986   -37258.514    1752.4584    178743.43    57.311559    55.846239    55.846239 
  282000    422.65265   -37756.243   -37259.801    1709.2057    178743.43    57.310323    55.846841    55.846841 
  283000    420.40719   -37756.771   -37262.967    1605.9947    178743.43    57.309049    55.847462    55.847462 
  284000    410.38971   -37756.736   -37274.697    1546.4848    178743.43    57.307736    55.848101    55.848101 
  285000    422.09304   -37761.507   -37265.722    1413.3703    178743.43    57.306385     55.84876     55.84876 
  286000    418.80718   -37747.988   -37256.062    1562.7991    178743.43    57.304995    55.849437    55.849437 
  287000    422.14215   -37755.159   -37259.316    1607.6429    178743.43    57.303567    55.850133    55.850133 
  288000    426.34408   -37752.211   -37251.433    1615.8876    178743.43      57.3021    55.850848    55.850848 
  289000    425.99246   -37757.344   -37256.979    1455.2727    178743.43    57.300595    55.851581    55.851581 
  290000    418.60898   -37760.239   -37268.547    1435.0509    178743.43    57.299051    55.852334    55.852334 
  291000    418.68739   -37755.637   -37263.852    1604.2389    178743.43     57.29747    55.853105    55.853105 
  292000    421.44418   -37755.705   -37260.682    1499.3992    178743.43     57.29585    55.853894    55.853894 
  293000    422.29802   -37755.685   -37259.659    1536.2835    178743.43    57.294192    55.854702    55.854702 
  294000    422.91896   -37765.149   -37268.394    1474.2452    178743.43    57.292496    55.855529    55.855529 
  295000    418.98498   -37761.414    -37269.28    1263.5678    178743.43    57.290762    55.856374    55.856374 
  296000    425.85557   -37757.606   -37257.401    1809.9671    178743.43     57.28899    55.857238    55.857238 
  297000    417.09764   -37752.348    -37262.43    1721.1067    178743.43     57.28718     55.85812     55.85812 
  298000    429.53302   -37762.424     -37257.9    1418.0156    178743.43    57.285333    55.859021    55.859021 
  299000    419.46689   -37763.429   -37270.729    1663.8502    178743.43    57.283447     55.85994     55.85994 
  300000    418.26447    -37760.35   -37269.062    1512.2707    178743.43    57.281525    55.860878    55.860878 
  301000    424.96733   -37755.456   -37256.295     1640.952    178743.43    57.279564    55.861834    55.861834 
  302000    421.17456   -37759.748   -37265.042    1447.2141    178743.43    57.277566    55.862808    55.862808 
  303000    422.01925   -37753.856   -37258.158    1300.8702    178743.43    57.275531      55.8638      55.8638 
  304000    421.70543    -37756.79    -37261.46    1595.2404    178743.43    57.273459    55.864811    55.864811 
  305000    418.35658   -37753.889   -37262.492    1465.8124    178743.43    57.271349     55.86584     55.86584 
  306000    419.53682   -37757.743    -37264.96    1349.2638    178743.43    57.269202    55.866887    55.866887 
  307000    422.98139   -37757.997   -37261.169    1644.8831    178743.43    57.267018    55.867952    55.867952 
  308000    418.37432   -37761.176   -37269.759    1633.7983    178743.43    57.264797    55.869036    55.869036 
  309000    415.14776   -37760.377   -37272.749    1178.6113    178743.43    57.262539    55.870137    55.870137 
  310000    414.34946   -37760.599    -37273.91    1093.8172    178743.43    57.260245    55.871257    55.871257 
  311000    416.51063   -37758.087   -37268.859    1760.1127    178743.43    57.257913    55.872394    55.872394 
  312000    416.25442   -37754.161   -37265.234    1708.4468    178743.43    57.255545     55.87355     55.87355 
  313000    428.39419   -37760.876   -37257.689    1530.7448    178743.43    57.253141    55.874723    55.874723 
  314000    418.56571   -37771.138   -37279.496    1327.5465    178743.43      57.2507    55.875914    55.875914 
  315000    417.60215   -37769.341   -37278.831    1444.3926    178743.43    57.248223    55.877123    55.877123 
  316000    418.43426   -37748.668   -37257.181    1651.1062    178743.43    57.245709    55.878349    55.878349 
  317000    428.03243   -37763.232    -37260.47    1531.6836    178743.43     57.24316    55.879594    55.879594 
  318000    420.47118   -37759.696   -37265.816    1758.6743    178743.43    57.240574    55.880856    55.880856 
  319000    422.51689   -37759.841   -37263.558    1689.7819    178743.43    57.237952    55.882136    55.882136 
  320000    414.68881    -37757.75   -37270.662    1465.0808    178743.43    57.235295    55.883433    55.883433 
  321000    422.52499   -37756.521   -37260.228    1477.8146    178743.43    57.232602    55.884748    55.884748 
  322000    422.49968   -37759.217   -37262.955    1515.7168    178743.43    57.229873     55.88608     55.88608 
  323000    424.16002    -37761.03   -37262.817    1459.1971    178743.43    57.227109     55.88743     55.88743 
  324000    419.75212   -37760.959   -37267.924    1428.5237    178743.43    57.224309    55.888797    55.888797 
  325000    421.07838    -37753.27   -37258.677    1760.0185    178743.43    57.221475    55.890181    55.890181 
  326000    417.49894   -37758.702   -37268.313    1497.8047    178743.43    57.218604    55.891583    55.891583 
  327000    418.88015   -37752.458   -37260.447    1458.8039    178743.43    57.215699    55.893002    55.893002 
  328000    421.26579   -37760.286   -37265.473    1589.9116    178743.43    57.212759    55.894438    55.894438 
  329000     416.8088   -37765.158    -37275.58    1295.6158    178743.43    57.209784    55.895891    55.895891 
  330000    415.41051   -37760.478   -37272.542     1356.383    178743.43    57.206775    55.897361    55.897361 
  331000    431.47062   -37755.726   -37248.926    1782.2707    178743.43     57.20373    55.898849    55.898849 
  332000    421.22096   -37761.796   -37267.036    1375.0667    178743.43    57.200652    55.900353    55.900353 
  333000    418.73191   -37763.396   -37271.559    1350.4966    178743.43    57.197539    55.901874    55.901874 
  334000    423.31169   -37756.952   -37259.735    1625.9565    178743.43    57.194391    55.903412    55.903412 
  335000    423.09557   -37750.525   -37253.563    1580.5497    178743.43     57.19121    55.904967    55.904967 
  336000    417.36649   -37758.168   -37267.935    1360.1375    178743.43    57.187995    55.906539    55.906539 
  337000    417.71517   -37747.059   -37256.416    1888.8373    178743.43    57.184745    55.908127    55.908127 
  338000    419.72643   -37766.748   -37273.743    1193.5534    178743.43    57.181463    55.909732    55.909732 
  339000    428.11784     -37757.2   -37254.339    1646.9798    178743.43    57.178146    55.911353    55.911353 
  340000    414.79926   -37767.694   -37280.476    1443.7932    178743.43    57.174796    55.912991    55.912991 
  341000    421.34434   -37763.832   -37268.926    1453.7742    178743.43    57.171413    55.914646    55.914646 
  342000    425.76287   -37760.292   -37260.197    1379.9707    178743.43    57.167996    55.916317    55.916317 
  343000    422.66593   -37759.908    -37263.45    1614.7143    178743.43    57.164546    55.918004    55.918004 
  344000     416.7337   -37754.256   -37264.766    1700.8342    178743.43    57.161064    55.919707    55.919707 
  345000    417.10193    -37766.32   -37276.397    1382.8893    178743.43    57.157549    55.921427    55.921427 
  346000    422.03588    -37758.88   -37263.162    1532.9338    178743.43    57.154001    55.923162    55.923162 
  347000    421.01872   -37767.037   -37272.514    1453.7949    178743.43     57.15042    55.924914    55.924914 
  348000    420.57219   -37762.906   -37268.908    1638.6303    178743.43    57.146807    55.926682    55.926682 
  349000    416.72829   -37761.953   -37272.469    1132.9957    178743.43    57.143162    55.928466    55.928466 
  350000    421.60579    -37769.21   -37273.998    1051.0386    178743.43    57.139485    55.930265    55.930265 
  351000    419.78549   -37757.906   -37264.832    1595.2798    178743.43    57.135776    55.932081    55.932081 
  352000    413.70834   -37765.517    -37279.58    1324.4251    178743.43    57.132035    55.933912    55.933912 
  353000     418.5327   -37766.878   -37275.275    1337.7378    178743.43    57.128262    55.935759    55.935759 
  354000    420.87597   -37764.775    -37270.42     1406.036    178743.43    57.124458    55.937621    55.937621 
  355000    422.37936   -37764.279   -37268.158    1428.1137    178743.43    57.120623    55.939499    55.939499 
  356000    421.83128   -37763.424   -37267.947    1566.1219    178743.43    57.116756    55.941392    55.941392 
  357000    417.94573   -37765.859   -37274.945    1117.5045    178743.43    57.112859    55.943301    55.943301 
  358000    421.89638   -37758.745   -37263.191    1348.0303    178743.43     57.10893    55.945225    55.945225 
  359000    419.76007   -37758.753   -37265.708    1546.9826    178743.43    57.104971    55.947165    55.947165 
  360000    418.48996   -37761.542   -37269.989    1374.2552    178743.43    57.100981    55.949119    55.949119 
  361000    423.83515   -37759.182   -37261.351    1351.6447    178743.43    57.096961    55.951089    55.951089 
  362000    418.85494   -37760.121   -37268.139    1469.9076    178743.43    57.092911    55.953074    55.953074 
  363000     421.9554   -37764.178   -37268.555    1389.1732    178743.43     57.08883    55.955073    55.955073 
  364000    421.73746   -37760.217    -37264.85    1620.1219    178743.43    57.084719    55.957088    55.957088 
  365000    415.56844   -37762.844   -37274.722    1113.9708    178743.43    57.080579    55.959117    55.959117 
  366000    418.34607   -37762.451   -37271.067    1552.4744    178743.43    57.076409    55.961161    55.961161 
  367000    422.25611   -37760.409   -37264.432    1670.2103    178743.43     57.07221     55.96322     55.96322 
  368000    421.80865   -37756.481    -37261.03    1633.6126    178743.43    57.067981    55.965293    55.965293 
  369000    416.73623   -37755.461   -37265.968    1559.9209    178743.43    57.063723    55.967381    55.967381 
  370000    419.79173   -37761.801   -37268.719    1269.6667    178743.43    57.059437    55.969484    55.969484 
  371000     420.1638   -37771.078    -37277.56    1212.5243    178743.43    57.055121      55.9716      55.9716 
  372000    421.90391   -37754.451   -37258.889    1664.9367    178743.43    57.050777    55.973731    55.973731 
  373000    414.59506   -37763.323   -37276.345    1422.5021    178743.43    57.046405    55.975876    55.975876 
  374000     418.4026   -37768.406   -37276.956    1279.0414    178743.43    57.042004    55.978036    55.978036 
  375000    414.46396   -37760.387   -37273.564    1623.3747    178743.43    57.037575    55.980209    55.980209 
  376000    417.53439   -37759.885   -37269.455    1590.8407    178743.43    57.033118    55.982396    55.982396 
  377000    420.09376   -37765.289   -37271.853    1234.5285    178743.43    57.028633    55.984597    55.984597 
  378000    420.80263   -37764.838   -37270.569    1385.9372    178743.43    57.024121    55.986812    55.986812 
  379000    421.95178   -37757.958   -37262.339    1631.6179    178743.43    57.019582    55.989041    55.989041 
  380000    423.84346   -37771.129   -37273.288    1294.1051    178743.43    57.015015    55.991283    55.991283 
  381000    418.91399   -37769.072   -37277.021    1069.9751    178743.43    57.010421    55.993539    55.993539 
  382000    420.70067   -37764.654   -37270.505     1364.506    178743.43    57.005801    55.995808    55.995808 
  383000    422.33862   -37769.892   -37273.819    974.55293    178743.43    57.001154     55.99809     55.99809 
  384000    418.54399   -37760.796    -37269.18    1561.4565    178743.43     56.99648    56.000386    56.000386 
  385000    426.82202   -37761.284   -37259.944    1450.2388    178743.43     56.99178    56.002695    56.002695 
  386000    425.42246   -37755.331   -37255.635    1651.2401    178743.43    56.987054    56.005017    56.005017 
  387000    419.56199   -37770.878   -37278.066    1254.7255    178743.43    56.982302    56.007353    56.007353 
  388000    425.53161   -37767.309   -37267.486    1502.1298    178743.43    56.977524    56.009701    56.009701 
  389000    415.38069   -37762.342   -37274.441    1378.0808    178743.43    56.972721    56.012062    56.012062 
  390000     415.6015    -37761.81    -37273.65    1398.0123    178743.43    56.967892    56.014436    56.014436 
  391000    415.07486   -37765.947   -37278.405    1240.2425    178743.43    56.963038    56.016822    56.016822 
  392000    419.70977   -37767.436    -37274.45    1351.7817    178743.43    56.958159    56.019221    56.019221 
  393000    422.70551   -37770.179   -37273.675    1390.3371    178743.43    56.953256    56.021633    56.021633 
  394000      422.728   -37760.403   -37263.872    1378.0091    178743.43    56.948328    56.024057    56.024057 
  395000    421.41109   -37765.098   -37270.114    1358.0606    178743.43    56.943375    56.026493    56.026493 
  396000    423.57755   -37761.503   -37263.975    1553.7964    178743.43    56.938398    56.028941    56.028941 
  397000    424.78564    -37762.65   -37263.702    1342.2577    178743.43    56.933398    56.031402    56.031402 
  398000    421.77433   -37758.746   -37263.335    1560.7693    178743.43    56.928373    56.033875    56.033875 
  399000    419.95925   -37766.518   -37273.239    1261.5714    178743.43    56.923325    56.036359    56.036359 
  400000    420.02484   -37766.634   -37273.278    1316.0906    178743.43    56.918253    56.038856    56.038856 
  401000    419.40533   -37754.316   -37261.688    1815.1413    178743.43    56.913159    56.041364    56.041364 
  402000    423.05326   -37759.307   -37262.394    1526.2895    178743.43    56.908041    56.043884    56.043884 
  403000    423.62663   -37767.016    -37269.43    1159.6607    178743.43      56.9029    56.046415    56.046415 
  404000     426.0614   -37756.402   -37255.956     1741.447    178743.43    56.897737    56.048958    56.048958 
  405000    419.86602   -37760.434   -37267.265    1630.4973    178743.43    56.892551    56.051512    56.051512 
  406000    421.99816   -37752.093   -37256.419    1943.9958    178743.43    56.887344    56.054078    56.054078 
  407000    417.23834   -37771.344   -37281.261    1260.7655    178743.43    56.882114    56.056655    56.056655 
  408000    421.76389   -37779.613   -37284.214    1111.0807    178743.43    56.876862    56.059242    56.059242 
  409000    422.79285   -37771.461   -37274.854    1163.3624    178743.43    56.871589    56.061841    56.061841 
  410000     422.0629   -37764.579    -37268.83    1381.5022    178743.43    56.866295    56.064451    56.064451 
  411000    420.56099   -37767.402   -37273.417    1393.5779    178743.43    56.860979    56.067071    56.067071 
  412000    412.16066   -37771.425   -37287.307    1098.7828    178743.43    56.855643    56.069703    56.069703 
  413000    419.26066   -37763.554   -37271.096    1374.4298    178743.43    56.850285    56.072344    56.072344 
  414000    419.41304    -37771.07   -37278.433    1361.8774    178743.43    56.844908    56.074997    56.074997 
  415000    417.14209   -37770.889   -37280.919    1112.9668    178743.43    56.839509    56.077659    56.077659 
  416000    426.63487   -37763.322   -37262.202    1578.0224    178743.43    56.834091    56.080332    56.080332 
  417000    420.17852   -37764.719   -37271.183    1302.3686    178743.43    56.828653    56.083016    56.083016 
  418000    423.51191   -37767.181    -37269.73    1335.9739    178743.43    56.823195    56.085709    56.085709 
  419000    426.81088   -37764.746    -37263.42    1461.1428    178743.43    56.817718    56.088412    56.088412 
  420000    418.08733   -37765.159   -37274.079     1322.197    178743.43    56.812222    56.091125    56.091125 
  421000    424.53304   -37769.186   -37270.535    1265.4976    178743.43    56.806706    56.093848    56.093848 
  422000    413.76245    -37766.11    -37280.11    1419.1366    178743.43    56.801172    56.096581    56.096581 
  423000    420.48872   -37762.709   -37268.809    1428.0523    178743.43    56.795619    56.099323    56.099323 
  424000    422.40701   -37774.129   -37277.975    1406.9693    178743.43    56.790048    56.102075    56.102075 
  425000    421.79984   -37772.086   -37276.645    1081.0053    178743.43    56.784459    56.104836    56.104836 
  426000    418.75972    -37765.37     -37273.5    1265.0034    178743.43    56.778851    56.107606    56.107606 
  427000    418.63307   -37776.216   -37284.495    1192.3467    178743.43    56.773226    56.110385    56.110385 
  428000    419.76528   -37764.874   -37271.823    1335.8172    178743.43    56.767584    56.113174    56.113174 
  429000    420.34274    -37762.55   -37268.821    1537.8767    178743.43    56.761924    56.115971    56.115971 
  430000    421.03905    -37766.67   -37272.123     1272.755    178743.43    56.756247    56.118778    56.118778 
  431000    425.87134   -37760.458   -37260.236    1631.2915    178743.43    56.750554    56.121593    56.121593 
  432000    424.80656    -37761.82   -37262.848    1444.9681    178743.43    56.744844    56.124416    56.124416 
  433000    415.70241   -37763.141   -37274.862    1324.2676    178743.43    56.739117    56.127249    56.127249 
  434000    419.78465   -37761.361   -37268.288     1360.986    178743.43    56.733374    56.130089    56.130089 
  435000    425.93739   -37769.994   -37269.694    1321.6714    178743.43    56.727616    56.132938    56.132938 
  436000    421.16479    -37761.37   -37266.676     1586.386    178743.43    56.721842    56.135795    56.135795 
  437000    419.91286   -37768.347   -37275.123    1364.4221    178743.43    56.716052     56.13866     56.13866 
  438000    418.80042   -37774.375   -37282.457    1331.5942    178743.43    56.710247    56.141533    56.141533 
  439000    420.41003   -37766.858    -37273.05    1148.0537    178743.43    56.704427    56.144414    56.144414 
  440000    423.45529   -37765.301   -37267.916    1420.2873    178743.43    56.698593    56.147303    56.147303 
  441000    417.13645   -37761.537   -37271.574    1469.1366    178743.43    56.692743    56.150199    56.150199 
  442000    415.46782    -37754.19   -37266.187    1501.1518    178743.43     56.68688    56.153103    56.153103 
  443000     424.2137    -37769.51   -37271.234    1180.8585    178743.43    56.681002    56.156015    56.156015 
  444000    419.22377   -37758.064   -37265.649    1596.5566    178743.43    56.675111    56.158933    56.158933 
  445000    423.18295   -37767.858   -37270.793    1452.6017    178743.43    56.669206    56.161859    56.161859 
  446000    416.83491   -37762.684   -37273.076    1236.6357    178743.43    56.663288    56.164792    56.164792 
  447000    415.03884   -37768.168   -37280.669     1198.996    178743.43    56.657356    56.167732    56.167732 
  448000    418.40918   -37767.973   -37276.515    1262.2865    178743.43    56.651412    56.170679    56.170679 
  449000    422.62471   -37767.535   -37271.125    1361.6138    178743.43    56.645455    56.173632    56.173632 
  450000    417.21027   -37772.988   -37282.938    1265.7535    178743.43    56.639485    56.176592    56.176592 
  451000    418.66638   -37763.061   -37271.301    1315.7725    178743.43    56.633503    56.179559    56.179559 
  452000    423.23328   -37763.584    -37266.46    1409.5055    178743.43     56.62751    56.182532    56.182532 
  453000    416.82577   -37767.725   -37278.127     1208.516    178743.43    56.621504    56.185511    56.185511 
  454000    420.24749   -37772.384   -37278.767    1338.5679    178743.43    56.615487    56.188497    56.188497 
  455000    421.39859   -37764.305   -37269.335     1473.372    178743.43    56.609459    56.191489    56.191489 
  456000     415.5275   -37768.019   -37279.946    1236.4878    178743.43     56.60342    56.194486    56.194486 
  457000    419.77339   -37771.502   -37278.441     1159.863    178743.43     56.59737    56.197489    56.197489 
  458000    422.11331   -37768.452   -37272.644    1261.6595    178743.43     56.59131    56.200498    56.200498 
  459000    418.21956   -37770.554   -37279.319    850.42208    178743.43    56.585239    56.203513    56.203513 
  460000    417.87818   -37762.664    -37271.83    1202.5245    178743.43    56.579158    56.206533    56.206533 
  461000    418.11695   -37771.805    -37280.69    1306.1062    178743.43    56.573067    56.209559    56.209559 
  462000     421.4363   -37773.375   -37278.361     994.5227    178743.43    56.566967     56.21259     56.21259 
  463000    420.07207   -37766.204   -37272.793    1376.9074    178743.43    56.560857    56.215625    56.215625 
  464000    423.51829   -37770.739    -37273.28    1167.1015    178743.43    56.554739    56.218666    56.218666 
  465000    413.49994   -37769.592   -37283.901    1208.1232    178743.43    56.548611    56.221712    56.221712 
  466000    423.17024   -37768.805   -37271.754    1432.5117    178743.43    56.542475    56.224763    56.224763 
  467000     423.0238   -37763.745   -37266.867    1456.4824    178743.43    56.536331    56.227818    56.227818 
  468000    417.36639   -37771.558   -37281.325    1048.8473    178743.43    56.530178    56.230878    56.230878 
  469000     416.8119   -37770.269   -37280.687    1134.1644    178743.43    56.524017    56.233942    56.233942 
  470000     415.5203   -37766.146   -37278.081    1295.2143    178743.43    56.517849     56.23701     56.23701 
  471000     416.6965   -37762.427    -37272.98    1484.9151    178743.43    56.511674    56.240083    56.240083 
  472000    414.47709   -37766.471   -37279.632    1381.7477    178743.43    56.505491     56.24316     56.24316 
  473000    427.23704   -37770.864   -37269.037    1533.2005    178743.43    56.499301    56.246241    56.246241 
  474000    425.51314   -37768.416   -37268.613    1435.9594    178743.43    56.493105    56.249325    56.249325 
  475000    417.60095   -37767.118    -37276.61    1141.4879    178743.43    56.486902    56.252413    56.252413 
  476000    421.23995   -37766.621   -37271.838    1435.8913    178743.43    56.480694    56.255505    56.255505 
  477000    420.52452       -37769   -37275.057    1214.1011    178743.43    56.474479      56.2586      56.2586 
  478000    421.58349   -37774.268   -37279.081    1114.0664    178743.43    56.468258    56.261699    56.261699 
  479000    421.25907   -37769.413   -37274.607    1396.0959    178743.43    56.462032    56.264801    56.264801 
  480000    412.96183   -37764.235   -37279.175    1199.4146    178743.43    56.455801    56.267906    56.267906 
  481000    422.24667   -37766.877   -37270.912    1116.5371    178743.43    56.449565    56.271014    56.271014 
  482000    417.84261   -37770.803    -37280.01    1253.8019    178743.43    56.443324    56.274124    56.274124 
  483000    415.60561   -37763.266   -37275.101    1521.2057    178743.43    56.437079    56.277238    56.277238 
  484000    419.38474    -37766.85   -37274.246    1307.0637    178743.43     56.43083    56.280354    56.280354 
  485000    418.88351    -37768.83   -37276.815     1190.101    178743.43    56.424576    56.283473    56.283473 
  486000     416.9342   -37766.667   -37276.942    1420.4913    178743.43    56.418319    56.286594    56.286594 
  487000    420.80282   -37772.733   -37278.463    1322.3184    178743.43    56.412059    56.289717    56.289717 
  488000    423.74432   -37771.189   -37273.464    1142.2875    178743.43    56.405795    56.292842    56.292842 
  489000    420.01342   -37759.183    -37265.84    1328.1365    178743.43    56.399528     56.29597     56.29597 
  490000    418.39138   -37768.341   -37276.904    1075.5361    178743.43    56.393259    56.299099    56.299099 
  491000    417.71978   -37760.432   -37269.784    1340.5853    178743.43    56.386987     56.30223     56.30223 
  492000    421.50966   -37762.575   -37267.476    1525.2797    178743.43    56.380712    56.305363    56.305363 
  493000    415.88128   -37768.606   -37280.117    1020.0715    178743.43    56.374436    56.308497    56.308497 
  494000    424.69869   -37765.366    -37266.52     1368.877    178743.43    56.368158    56.311632    56.311632 
  495000    420.71984   -37769.083   -37274.911    1229.1627    178743.43    56.361879    56.314769    56.314769 
  496000    420.79865   -37771.004   -37276.739    1150.8335    178743.43    56.355598    56.317907    56.317907 
  497000    421.09028   -37764.913   -37270.306    1624.7627    178743.43    56.349316    56.321046    56.321046 
  498000    418.09304   -37774.144   -37283.057     1330.035    178743.43    56.343034    56.324186    56.324186 
  499000    416.27879   -37769.156   -37280.201    1248.8476    178743.43    56.336751    56.327327    56.327327 
  500000    423.57384   -37772.247   -37274.722    1329.1702    178743.43    56.330468    56.330468    56.330468 
  501000    420.94828   -37766.171   -37271.731    1166.2683    178743.43    56.324185     56.33361     56.33361 
  502000    422.27934   -37766.336   -37270.332     1292.123    178743.43    56.317902    56.336752    56.336752 
  503000    416.30411    -37767.57   -37278.584    1352.2432    178743.43     56.31162    56.339895    56.339895 
  504000    412.91839   -37769.868    -37284.86     1232.782    178743.43    56.305338    56.343037    56.343037 
  505000    415.45171   -37761.979   -37273.995    1309.6626    178743.43    56.299057     56.34618     56.34618 
  506000    414.27586   -37770.851   -37284.248    1602.5473    178743.43    56.292778    56.349323    56.349323 
  507000      418.257   -37773.948   -37282.668    1250.4536    178743.43      56.2865    56.352465    56.352465 
  508000    421.19748   -37767.302   -37272.568    1373.6916    178743.43    56.280224    56.355607    56.355607 
  509000    422.60816   -37756.123   -37259.733    1697.3313    178743.43    56.273949    56.358749    56.358749 
  510000    418.67529   -37769.979   -37278.208    1200.2043    178743.43    56.267678     56.36189     56.36189 
  511000    426.00803   -37762.734    -37262.35    1402.9497    178743.43    56.261408     56.36503     56.36503 
  512000    418.75454   -37776.424    -37284.56    974.16206    178743.43    56.255141    56.368169    56.368169 
  513000    421.38856   -37762.392   -37267.434    1524.9169    178743.43    56.248877    56.371308    56.371308 
  514000     422.9149   -37770.514   -37273.763    1122.0017    178743.43    56.242617    56.374445    56.374445 
  515000    412.91597   -37769.541   -37284.535    1221.2128    178743.43     56.23636    56.377581    56.377581 
  516000    415.50665   -37769.707   -37281.658    1062.9822    178743.43    56.230106    56.380716    56.380716 
  517000    415.84448   -37766.561   -37278.116    1279.2161    178743.43    56.223857    56.383849    56.383849 
  518000    424.74575     -37772.8   -37273.899    1130.6659    178743.43    56.217612    56.386981    56.386981 
  519000    416.98922   -37762.689   -37272.899    1549.3026    178743.43    56.211371    56.390111    56.390111 
  520000    418.44454   -37766.143   -37274.644    1409.9237    178743.43    56.205135    56.393239    56.393239 
  521000    417.92366   -37763.188     -37272.3    1366.5295    178743.43    56.198904    56.396366    56.396366 
  522000     422.5388   -37778.684   -37282.375    1042.8349    178743.43    56.192678     56.39949     56.39949 
  523000    418.59891    -37768.07   -37276.389    1356.7536    178743.43    56.186457    56.402612    56.402612 
  524000    419.21129   -37769.341   -37276.941    1212.4957    178743.43    56.180242    56.405731    56.405731 
  525000    420.06201   -37767.069    -37273.67    1529.3737    178743.43    56.174034    56.408849    56.408849 
  526000    426.46074   -37760.478   -37259.563    1685.0543    178743.43    56.167831    56.411963    56.411963 
  527000    420.07581   -37772.814   -37279.399    1254.9559    178743.43    56.161635    56.415075    56.415075 
  528000    416.65172   -37769.276   -37279.882    1208.4996    178743.43    56.155445    56.418184    56.418184 
  529000    422.62894   -37767.072   -37270.658    1423.6248    178743.43    56.149262     56.42129     56.42129 
  530000     416.8579   -37768.966    -37279.33    1299.8949    178743.43    56.143087    56.424393    56.424393 
  531000    424.01975   -37769.389   -37271.341    1027.9069    178743.43    56.136919    56.427493    56.427493 
  532000    423.45341   -37765.117   -37267.734    1625.1739    178743.43    56.130758    56.430589    56.430589 
  533000    415.40952   -37771.532   -37283.597     1305.045    178743.43    56.124605    56.433682    56.433682 
  534000    420.80693   -37764.003   -37269.729     1712.877    178743.43    56.118461    56.436772    56.436772 
  535000    415.00969   -37764.227   -37276.762    1608.8271    178743.43    56.112325    56.439857    56.439857 
  536000     415.8983   -37758.691   -37270.183    1515.5781    178743.43    56.106197    56.442939    56.442939 
  537000    418.08567   -37770.445   -37279.367    1263.3546    178743.43    56.100079    56.446017    56.446017 
  538000     421.5195   -37770.466   -37275.354    1308.8309    178743.43    56.093969    56.449091    56.449091 
  539000    420.51462   -37764.151    -37270.22    1658.9258    178743.43    56.087869    56.452161    56.452161 
  540000    409.36162    -37768.39   -37287.559    994.12714    178743.43    56.081778    56.455226    56.455226 
  541000    417.57627   -37759.451   -37268.971    1638.1548    178743.43    56.075697    56.458287    56.458287 
  542000    422.31669   -37765.126   -37269.078    1370.0106    178743.43    56.069627    56.461343    56.461343 
  543000    418.67446   -37766.903   -37275.134    1378.0191    178743.43    56.063566    56.464395    56.464395 
  544000    418.89878   -37758.158   -37266.125    1506.1579    178743.43    56.057516    56.467442    56.467442 
  545000    419.73625   -37767.761   -37274.744    1337.6387    178743.43    56.051477    56.470484    56.470484 
  546000    427.60467   -37761.188   -37258.929    1659.9151    178743.43    56.045449    56.473521    56.473521 
  547000    421.50289   -37769.112    -37274.02    1426.1578    178743.43    56.039432    56.476552    56.476552 
  548000     419.5421   -37763.527   -37270.738    1500.8923    178743.43    56.033426    56.479579    56.479579 
  549000    426.20238   -37768.979   -37268.367    1156.0208    178743.43    56.027433      56.4826      56.4826 
  550000    424.16369    -37765.63   -37267.412    1366.7076    178743.43    56.021451    56.485615    56.485615 
  551000     421.3345    -37770.49   -37275.596    1358.4032    178743.43    56.015482    56.488625    56.488625 
  552000    421.71137   -37770.265   -37274.928    1333.0624    178743.43    56.009524    56.491629    56.491629 
  553000    421.89985    -37761.69   -37266.132    1539.4798    178743.43     56.00358    56.494627    56.494627 
  554000    416.15738   -37772.264   -37283.451    1218.7655    178743.43    55.997648    56.497619    56.497619 
  555000    418.85938    -37774.68   -37282.694    1346.5746    178743.43     55.99173    56.500605    56.500605 
  556000    416.06318   -37763.758   -37275.055    1183.0511    178743.43    55.985825    56.503584    56.503584 
  557000    418.23936   -37764.581   -37273.323    1314.6353    178743.43    55.979934    56.506557    56.506557 
  558000    423.67916   -37760.345   -37262.697    1609.6782    178743.43    55.974056    56.509524    56.509524 
  559000    421.12037   -37763.463   -37268.821     1507.238    178743.43    55.968193    56.512484    56.512484 
  560000    419.18708   -37768.514   -37276.143    1396.2502    178743.43    55.962343    56.515437    56.515437 
  561000    422.69012   -37771.503   -37275.017    1321.4434    178743.43    55.956509    56.518384    56.518384 
  562000    421.96049    -37766.92    -37271.29    1432.5306    178743.43    55.950689    56.521323    56.521323 
  563000    418.25596   -37763.867   -37272.589     1356.505    178743.43    55.944884    56.524255    56.524255 
  564000    424.22181   -37762.802   -37264.516    1360.0201    178743.43    55.939094    56.527181    56.527181 
  565000    414.47525   -37765.371   -37278.534     1261.552    178743.43     55.93332    56.530098    56.530098 
  566000    421.59355   -37763.207   -37268.009    1340.9605    178743.43    55.927562    56.533008    56.533008 
  567000    423.06473   -37773.205   -37276.279    1340.2654    178743.43    55.921819    56.535911    56.535911 
  568000    416.26736   -37765.031   -37276.089    1372.3151    178743.43    55.916092    56.538806    56.538806 
  569000    416.15306   -37759.576   -37270.768    1442.6457    178743.43    55.910382    56.541693    56.541693 
  570000    418.32097   -37771.488   -37280.134    1066.3412    178743.43    55.904689    56.544572    56.544572 
  571000    421.02532   -37765.503   -37270.972    1368.7232    178743.43    55.899012    56.547443    56.547443 
  572000    419.93355   -37766.799    -37273.55    1303.8965    178743.43    55.893352    56.550306    56.550306 
  573000    422.67939   -37757.438   -37260.965     1595.215    178743.43     55.88771    56.553161    56.553161 
  574000    418.48031   -37770.543   -37279.002    1232.3855    178743.43    55.882085    56.556007    56.556007 
  575000    414.04167   -37765.949   -37279.621    1317.9669    178743.43    55.876478    56.558845    56.558845 
  576000    418.19559   -37765.456   -37274.249     1068.319    178743.43    55.870888    56.561674    56.561674 
  577000    424.33257     -37761.4   -37262.984    1599.0713    178743.43    55.865317    56.564494    56.564494 
  578000    417.50374   -37754.975   -37264.581    1480.3064    178743.43    55.859764    56.567305    56.567305 
  579000    424.92712   -37764.005   -37264.891    1534.2997    178743.43     55.85423    56.570108    56.570108 
  580000    423.48168   -37762.251   -37264.835    1314.1684    178743.43    55.848714    56.572901    56.572901 
  581000    418.75544   -37772.791   -37280.926    1009.5163    178743.43    55.843218    56.575685    56.575685 
  582000    415.84564   -37767.384   -37278.937    1413.8852    178743.43    55.837741     56.57846     56.57846 
  583000    418.51345   -37756.343   -37264.762    1575.9378    178743.43    55.832283    56.581225    56.581225 
  584000    419.43853   -37767.826   -37275.159    1377.0423    178743.43    55.826845    56.583981    56.583981 
  585000    418.14362   -37759.866    -37268.72    1426.8866    178743.43    55.821427    56.586727    56.586727 
  586000      422.875   -37761.661   -37264.958    1631.4278    178743.43    55.816028    56.589463    56.589463 
  587000     417.9388   -37759.145   -37268.239    1655.4911    178743.43    55.810651    56.592189    56.592189 
  588000    416.95948   -37761.277   -37271.522    1546.5102    178743.43    55.805293    56.594906    56.594906 
  589000    420.52009   -37770.238   -37276.301    1086.3959    178743.43    55.799957    56.597612    56.597612 
  590000    422.31346   -37764.304    -37268.26    1645.2055    178743.43    55.794641    56.600308    56.600308 
  591000    425.73597   -37760.251   -37260.187     1402.283    178743.43    55.789347    56.602994    56.602994 
  592000    417.93539   -37760.105   -37269.204    1595.9328    178743.43    55.784074    56.605669    56.605669 
  593000    418.87265   -37764.486   -37272.484    1421.2921    178743.43    55.778822    56.608333    56.608333 
  594000    417.98712   -37765.516   -37274.553     1326.525    178743.43    55.773592    56.610987    56.610987 
  595000    419.72006   -37759.777   -37266.779    1637.4007    178743.43    55.768385    56.613631    56.613631 
  596000    418.30576    -37766.85   -37275.514    1511.1984    178743.43    55.763199    56.616263    56.616263 
  597000    414.57576   -37759.211   -37272.256    1467.5839    178743.43    55.758036    56.618884    56.618884 
  598000    418.49212   -37756.112   -37264.556    1650.7997    178743.43    55.752895    56.621494    56.621494 
  599000    423.67511   -37761.268   -37263.625    1254.6279    178743.43    55.747778    56.624093    56.624093 
  600000     424.4285   -37757.925   -37259.397    1689.7153    178743.43    55.742683    56.626681    56.626681 
  601000    416.03355   -37762.149   -37273.481    1524.6471    178743.43    55.737611    56.629257    56.629257 
  602000    414.54882    -37761.06   -37274.136    1322.1909    178743.43    55.732563    56.631822    56.631822 
  603000     416.4555   -37760.298   -37271.134    1558.0092    178743.43    55.727538    56.634375    56.634375 
  604000    420.36971   -37764.007   -37270.247     1441.249    178743.43    55.722538    56.636916    56.636916 
  605000    428.07925   -37765.981   -37263.165    1341.4826    178743.43    55.717561    56.639445    56.639445 
  606000    422.60056   -37760.129   -37263.748    1767.3152    178743.43    55.712608    56.641963    56.641963 
  607000    426.09337   -37763.079   -37262.595    1694.7144    178743.43     55.70768    56.644468    56.644468 
  608000    420.82837   -37765.641   -37271.342    1397.6463    178743.43    55.702777    56.646961    56.646961 
  609000    417.88096   -37766.494   -37275.657    1132.4071    178743.43    55.697898    56.649442    56.649442 
  610000    420.66528   -37762.415   -37268.307    1594.0612    178743.43    55.693044    56.651911    56.651911 
  611000    421.59509   -37751.452   -37256.252    1638.4739    178743.43    55.688215    56.654367    56.654367 
  612000    428.46395   -37751.573   -37248.304    1702.1681    178743.43    55.683412     56.65681     56.65681 
  613000    417.38386   -37758.556   -37268.303    1744.2563    178743.43    55.678634    56.659241    56.659241 
  614000    421.51851   -37768.432   -37273.322    1318.4083    178743.43    55.673882    56.661659    56.661659 
  615000    423.60939   -37763.192   -37265.626    1366.0777    178743.43    55.669156    56.664064    56.664064 
  616000    414.05171   -37763.317   -37276.977    1588.3683    178743.43    55.664456    56.666456    56.666456 
  617000    421.00811   -37756.969   -37262.458    1664.9061    178743.43    55.659782    56.668835    56.668835 
  618000    416.11576   -37745.894    -37257.13    1754.0365    178743.43    55.655135    56.671201    56.671201 
  619000     425.3574   -37760.625   -37261.005    1489.7035    178743.43    55.650515    56.673554    56.673554 
  620000    415.08328   -37764.968   -37277.416    1373.2706    178743.43    55.645921    56.675893    56.675893 
  621000    431.61996   -37764.852   -37257.877    1499.8783    178743.43    55.641354    56.678219    56.678219 
  622000    410.59896   -37761.344    -37279.06     1317.247    178743.43    55.636815    56.680531    56.680531 
  623000      419.732   -37754.413   -37261.401    1681.1315    178743.43    55.632303     56.68283     56.68283 
  624000    419.45706   -37757.012   -37264.323    1644.1218    178743.43    55.627818    56.685114    56.685114 
  625000    424.46469   -37757.961    -37259.39     1541.678    178743.43    55.623361    56.687385    56.687385 
  626000    417.48983   -37765.151   -37274.773    1356.1834    178743.43    55.618932    56.689642    56.689642 
  627000     417.5059   -37760.679   -37270.282    1465.9014    178743.43    55.614532    56.691885    56.691885 
  628000    427.66125    -37761.04   -37258.715    1261.1933    178743.43    55.610159    56.694114    56.694114 
  629000    411.96813   -37755.888   -37271.996    1681.5948    178743.43    55.605815    56.696328    56.696328 
  630000     431.1409   -37759.954   -37253.542    1549.1569    178743.43    55.601499    56.698529    56.698529 
  631000    422.50688   -37759.459   -37263.188    1523.1491    178743.43    55.597213    56.700714    56.700714 
  632000    419.16097   -37761.504   -37269.163    1515.1212    178743.43    55.592955    56.702886    56.702886 
  633000     420.3053   -37758.181   -37264.496     1294.374    178743.43    55.588726    56.705042    56.705042 
  634000    421.08484   -37761.667   -37267.066    1412.2228    178743.43    55.584527    56.707184    56.707184 
  635000    418.65887   -37764.384   -37272.632    1306.8817    178743.43    55.580357    56.709311    56.709311 
  636000    425.43981   -37758.231   -37258.515    1477.3143    178743.43    55.576217    56.711424    56.711424 
  637000     422.1303   -37763.023   -37267.195    1436.0416    178743.43    55.572106    56.713521    56.713521 
  638000     424.0096   -37761.831   -37263.794    1413.3921    178743.43    55.568026    56.715603    56.715603 
  639000    413.51061   -37755.575   -37269.871    1902.5039    178743.43    55.563975    56.717671    56.717671 
  640000    421.77488   -37760.412   -37265.001    1607.5363    178743.43    55.559955    56.719723    56.719723 
  641000    421.97055   -37759.401    -37263.76    1661.3746    178743.43    55.555965    56.721759    56.721759 
  642000    417.19257   -37759.125   -37269.096    1580.4866    178743.43    55.552006     56.72378     56.72378 
  643000    422.92166    -37754.49   -37257.732    1836.4999    178743.43    55.548077    56.725786    56.725786 
  644000     423.7218   -37756.506   -37258.808     1836.517    178743.43     55.54418    56.727776    56.727776 
  645000    418.25009   -37758.062   -37266.791    1776.0649    178743.43    55.540313    56.729751    56.729751 
  646000    417.36749   -37762.368   -37272.133    1505.3855    178743.43    55.536478     56.73171     56.73171 
  647000    421.48145   -37763.513   -37268.447    1376.8794    178743.43    55.532674    56.733653    56.733653 
  648000    421.89192   -37749.913   -37254.364    1893.7222    178743.43    55.528901     56.73558     56.73558 
  649000    420.65622   -37757.015   -37262.918    1495.2256    178743.43     55.52516    56.737491    56.737491 
  650000    413.93213   -37755.256   -37269.057    1384.8589    178743.43    55.521451    56.739386    56.739386 
  651000    422.28518   -37762.979   -37266.969    1549.0604    178743.43    55.517774    56.741266    56.741266 
  652000    416.15074   -37752.449   -37263.644    1862.5756    178743.43    55.514129    56.743128    56.743128 
  653000    420.45377    -37760.83    -37266.97    1467.8665    178743.43    55.510516    56.744975    56.744975 
  654000    427.18507   -37761.602   -37259.836    1456.7682    178743.43    55.506935    56.746805    56.746805 
  655000    418.00539   -37761.705   -37270.722    1473.5229    178743.43    55.503387    56.748619    56.748619 
  656000    421.18327     -37759.9   -37265.183    1671.4437    178743.43    55.499872    56.750416    56.750416 
  657000    418.89213   -37755.017   -37262.992    1590.0415    178743.43     55.49639    56.752196    56.752196 
  658000    421.51681   -37758.606   -37263.498    1450.0106    178743.43     55.49294     56.75396     56.75396 
  659000    417.89259   -37758.022   -37267.171    1398.5932    178743.43    55.489523    56.755708    56.755708 
  660000    419.60244   -37754.472   -37261.612    1782.4624    178743.43     55.48614    56.757438    56.757438 
  661000    425.25398   -37760.388   -37260.891    1339.1686    178743.43     55.48279    56.759151    56.759151 
  662000    422.09553    -37754.94   -37259.152    1789.2378    178743.43    55.479474    56.760848    56.760848 
  663000    423.79048   -37754.486   -37256.707    1583.9491    178743.43    55.476191    56.762527    56.762527 
  664000    422.03754   -37750.751   -37255.031     1845.453    178743.43    55.472941     56.76419     56.76419 
  665000    426.29881   -37750.214   -37249.489    1763.5131    178743.43    55.469726    56.765835    56.765835 
  666000    414.98845   -37762.558   -37275.118    1296.8925    178743.43    55.466545    56.767463    56.767463 
  667000    421.71759   -37762.118   -37266.774    1626.2141    178743.43    55.463397    56.769073    56.769073 
  668000    425.48461   -37756.889    -37257.12     1713.951    178743.43    55.460284    56.770667    56.770667 
  669000    411.06954   -37755.425   -37272.588    1656.7584    178743.43    55.457206    56.772242    56.772242 
  670000    422.65658   -37763.531   -37267.084    1360.9424    178743.43    55.454161    56.773801    56.773801 
  671000     416.0334    -37756.81   -37268.142    1621.3455    178743.43    55.451152    56.775341    56.775341 
  672000    416.63569   -37752.668   -37263.293    1573.4586    178743.43    55.448177    56.776864    56.776864 
  673000     413.5645   -37754.229   -37268.461    1711.1461    178743.43    55.445237     56.77837     56.77837 
  674000    418.90546    -37759.38   -37267.339    1458.4066    178743.43    55.442332    56.779857    56.779857 
  675000    414.05365   -37762.775   -37276.433    1236.9842    178743.43    55.439462    56.781327    56.781327 
  676000    420.10721   -37763.766   -37270.313    1317.6942    178743.43    55.436627    56.782779    56.782779 
  677000    419.97341   -37751.672   -37258.377    1931.9467    178743.43    55.433827    56.784213    56.784213 
  678000    424.73133   -37758.582   -37259.698     1480.626    178743.43    55.431063    56.785628    56.785628 
  679000    420.69717   -37756.276   -37262.131    1372.6855    178743.43    55.428334    56.787026    56.787026 
  680000    415.21487   -37761.616    -37273.91    1362.9523    178743.43    55.425641    56.788406    56.788406 
  681000    421.76249   -37757.048   -37261.651     1673.534    178743.43    55.422984    56.789767    56.789767 
  682000    418.19155   -37757.613   -37266.411    1474.3486    178743.43    55.420362     56.79111     56.79111 
[...]
 9838000    423.50767    -37761.76   -37264.314    1402.6645    178743.43    55.479474    56.760848    56.760848 
 9839000    418.82906   -37764.724   -37272.773    1517.3415    178743.43     55.48279    56.759151    56.759151 
 9840000    416.74699   -37762.663   -37273.158    1433.2231    178743.43     55.48614    56.757438    56.757438 
 9841000    421.06794   -37756.265   -37261.685    1591.6612    178743.43    55.489523    56.755708    56.755708 
 9842000    420.14279   -37758.798   -37265.304    1468.1499    178743.43     55.49294     56.75396     56.75396 
 9843000    417.38984   -37762.975   -37272.714     1471.069    178743.43     55.49639    56.752196    56.752196 
 9844000    420.86357   -37756.475   -37262.134    1462.9752    178743.43    55.499872    56.750416    56.750416 
 9845000    422.44913   -37755.638   -37259.434     1366.904    178743.43    55.503387    56.748619    56.748619 
 9846000    415.25037   -37754.363   -37266.616     1462.812    178743.43    55.506935    56.746805    56.746805 
 9847000    416.04282   -37756.862   -37268.184    1495.0891    178743.43    55.510516    56.744975    56.744975 
 9848000    423.36861    -37748.34   -37251.056    1809.1019    178743.43    55.514129    56.743128    56.743128 
 9849000    428.20242   -37757.607   -37254.646    1684.1888    178743.43    55.517774    56.741266    56.741266 
 9850000      418.473   -37765.963    -37274.43    1523.7228    178743.43    55.521451    56.739386    56.739386 
 9851000     421.0717   -37752.622   -37258.037    1624.3012    178743.43     55.52516    56.737491    56.737491 
 9852000    423.48659   -37754.892    -37257.47    1991.3042    178743.43    55.528901     56.73558     56.73558 
 9853000    422.90465    -37756.13   -37259.391    1804.2627    178743.43    55.532674    56.733653    56.733653 
 9854000    420.14125   -37758.424   -37264.932    1464.3831    178743.43    55.536478     56.73171     56.73171 
 9855000    424.27441   -37758.903   -37260.556    1723.5243    178743.43    55.540313    56.729751    56.729751 
 9856000    421.59228   -37753.044   -37257.847    1644.8303    178743.43     55.54418    56.727776    56.727776 
 9857000    419.79765   -37755.065   -37261.976    1538.8678    178743.43    55.548077    56.725786    56.725786 
 9858000    423.09928   -37755.822   -37258.855    1625.6923    178743.43    55.552006     56.72378     56.72378 
 9859000     417.0226   -37756.566   -37266.736     1398.168    178743.43    55.555965    56.721759    56.721759 
 9860000    417.45501   -37751.859   -37261.522    1635.6753    178743.43    55.559955    56.719723    56.719723 
 9861000    416.85994   -37760.486   -37270.847    1404.4289    178743.43    55.563975    56.717671    56.717671 
 9862000    421.33618   -37759.158   -37264.262    1615.0521    178743.43    55.568026    56.715603    56.715603 
 9863000    425.06992   -37754.252    -37254.97    1632.3496    178743.43    55.572106    56.713521    56.713521 
 9864000     411.7753   -37758.979   -37275.313    1496.2072    178743.43    55.576217    56.711424    56.711424 
 9865000    422.76033    -37753.39   -37256.822     1507.752    178743.43    55.580357    56.709311    56.709311 
 9866000    419.45019   -37765.611    -37272.93    1283.6909    178743.43    55.584527    56.707184    56.707184 
 9867000    426.06565    -37766.98   -37266.529    1301.4358    178743.43    55.588726    56.705042    56.705042 
 9868000     418.6869   -37752.828   -37261.043    1750.1198    178743.43    55.592955    56.702886    56.702886 
 9869000    416.22377   -37767.527   -37278.636    1402.6685    178743.43    55.597213    56.700714    56.700714 
 9870000    422.34927   -37761.293   -37265.207    1377.2416    178743.43    55.601499    56.698529    56.698529 
 9871000    427.24078   -37764.807   -37262.975    1470.7908    178743.43    55.605815    56.696328    56.696328 
 9872000     417.8235   -37763.686   -37272.916    1392.8199    178743.43    55.610159    56.694114    56.694114 
 9873000     421.7878   -37754.765   -37259.338    1732.1389    178743.43    55.614532    56.691885    56.691885 
 9874000     417.1945   -37759.726   -37269.695    1602.9806    178743.43    55.618932    56.689642    56.689642 
 9875000    419.18378   -37758.437    -37266.07     1551.353    178743.43    55.623361    56.687385    56.687385 
 9876000    421.67405   -37759.828   -37264.535    1470.5933    178743.43    55.627818    56.685114    56.685114 
 9877000    420.25322   -37762.922   -37269.298    1667.6641    178743.43    55.632303     56.68283     56.68283 
 9878000    421.89179   -37761.361   -37265.812    1331.0157    178743.43    55.636815    56.680531    56.680531 
 9879000    419.59953   -37757.188   -37264.332    1426.1366    178743.43    55.641354    56.678219    56.678219 
 9880000    424.07829   -37764.126   -37266.009    1319.4679    178743.43    55.645921    56.675893    56.675893 
 9881000     423.9829   -37758.842   -37260.838     1499.772    178743.43    55.650515    56.673554    56.673554 
 9882000    419.33927   -37761.866   -37269.315    1510.3149    178743.43    55.655135    56.671201    56.671201 
 9883000    421.91095   -37761.593   -37266.022    1611.6256    178743.43    55.659782    56.668835    56.668835 
 9884000      420.021   -37768.074   -37274.723    1314.5183    178743.43    55.664456    56.666456    56.666456 
 9885000    424.31982   -37761.719   -37263.318    1541.9908    178743.43    55.669156    56.664064    56.664064 
 9886000    421.39474   -37767.465     -37272.5    1166.2582    178743.43    55.673882    56.661659    56.661659 
 9887000    416.40958   -37760.898   -37271.789    1548.6763    178743.43    55.678634    56.659241    56.659241 
 9888000    414.49407     -37760.2    -37273.34    1631.0497    178743.43    55.683412     56.65681     56.65681 
 9889000    418.69134   -37760.206   -37268.417    1316.3573    178743.43    55.688215    56.654367    56.654367 
 9890000    418.79776   -37754.973   -37263.059    1667.5553    178743.43    55.693044    56.651911    56.651911 
 9891000    425.78051   -37766.102   -37265.986    1379.6764    178743.43    55.697898    56.649442    56.649442 
 9892000    421.56934    -37765.92    -37270.75    1425.9113    178743.43    55.702777    56.646961    56.646961 
 9893000    416.01456    -37757.09   -37268.445    1526.7256    178743.43     55.70768    56.644468    56.644468 
 9894000    425.54409   -37763.125   -37263.286    1467.4024    178743.43    55.712608    56.641963    56.641963 
 9895000    422.34379     -37771.6    -37275.52    1147.5395    178743.43    55.717561    56.639445    56.639445 
 9896000    421.51032   -37767.574   -37272.474    1393.3719    178743.43    55.722538    56.636916    56.636916 
 9897000    419.71023   -37763.922   -37270.936    1424.4885    178743.43    55.727538    56.634375    56.634375 
 9898000     418.1975   -37766.056   -37274.847    1366.0588    178743.43    55.732563    56.631822    56.631822 
 9899000    424.16955     -37758.9   -37260.676     1510.942    178743.43    55.737611    56.629257    56.629257 
 9900000    418.65329   -37765.029   -37273.284    1384.5448    178743.43    55.742683    56.626681    56.626681 
 9901000    423.21387   -37761.676   -37264.575    1471.8752    178743.43    55.747778    56.624093    56.624093 
 9902000    418.21475   -37770.615   -37279.385    1305.0907    178743.43    55.752895    56.621494    56.621494 
 9903000    418.01727   -37756.937   -37265.939    1581.8999    178743.43    55.758036    56.618884    56.618884 
 9904000    415.49954   -37767.803   -37279.763    1366.8515    178743.43    55.763199    56.616263    56.616263 
 9905000    416.81194   -37771.777   -37282.196     1003.335    178743.43    55.768385    56.613631    56.613631 
 9906000    423.84139   -37765.919   -37268.081    1241.5597    178743.43    55.773592    56.610987    56.610987 
 9907000    419.27141   -37765.112   -37272.641    1255.0017    178743.43    55.778822    56.608333    56.608333 
 9908000    414.43696   -37766.753   -37279.961    1372.6587    178743.43    55.784074    56.605669    56.605669 
 9909000    422.21965   -37757.615   -37261.681    1852.7017    178743.43    55.789347    56.602994    56.602994 
 9910000    418.48216   -37760.384    -37268.84    1336.5898    178743.43    55.794641    56.600308    56.600308 
 9911000    420.52995   -37755.967   -37262.018    1645.5021    178743.43    55.799957    56.597612    56.597612 
 9912000    422.17641   -37762.666   -37266.783    1574.4017    178743.43    55.805293    56.594906    56.594906 
 9913000    416.92637   -37759.481   -37269.765    1581.4073    178743.43    55.810651    56.592189    56.592189 
 9914000    421.61762   -37769.178   -37273.951    1263.0029    178743.43    55.816028    56.589463    56.589463 
 9915000    419.29095   -37764.096   -37271.603    1309.0133    178743.43    55.821427    56.586727    56.586727 
 9916000    418.08915   -37766.201   -37275.119    1428.0008    178743.43    55.826845    56.583981    56.583981 
 9917000    419.37653   -37764.913   -37272.318    1393.7134    178743.43    55.832283    56.581225    56.581225 
 9918000    420.73954   -37768.201   -37274.006    1035.9903    178743.43    55.837741     56.57846     56.57846 
 9919000    420.74739   -37768.562   -37274.358    1269.9345    178743.43    55.843218    56.575685    56.575685 
 9920000    414.13608   -37758.739     -37272.3    1329.5542    178743.43    55.848714    56.572901    56.572901 
 9921000    419.21013   -37763.506   -37271.107    1450.4865    178743.43     55.85423    56.570108    56.570108 
 9922000    421.37583    -37763.09   -37268.148    1359.0569    178743.43    55.859764    56.567305    56.567305 
 9923000    419.54685    -37762.47   -37269.676    1391.2793    178743.43    55.865317    56.564494    56.564494 
 9924000    416.16447   -37771.384   -37282.563    1278.8857    178743.43    55.870888    56.561674    56.561674 
 9925000    421.44544   -37758.148   -37263.124    1600.9791    178743.43    55.876478    56.558845    56.558845 
 9926000    423.76006   -37767.116   -37269.372    1301.0543    178743.43    55.882085    56.556007    56.556007 
 9927000    422.04239   -37761.216   -37265.491    1489.4842    178743.43     55.88771    56.553161    56.553161 
 9928000    419.72239   -37764.096   -37271.095    1364.0536    178743.43    55.893352    56.550306    56.550306 
 9929000    425.00768   -37763.765   -37264.557    1371.9065    178743.43    55.899012    56.547443    56.547443 
 9930000    420.05811   -37759.081   -37265.686     1529.197    178743.43    55.904689    56.544572    56.544572 
 9931000    420.29192   -37769.924   -37276.255    1211.4293    178743.43    55.910382    56.541693    56.541693 
 9932000    421.38794   -37758.087    -37263.13    1631.2543    178743.43    55.916092    56.538806    56.538806 
 9933000    420.01373   -37764.458   -37271.116    1496.2045    178743.43    55.921819    56.535911    56.535911 
 9934000     416.2636   -37763.458    -37274.52    1261.3714    178743.43    55.927562    56.533008    56.533008 
 9935000    417.90768   -37763.785   -37272.916    1651.4253    178743.43     55.93332    56.530098    56.530098 
 9936000    422.18053   -37767.437   -37271.549    1239.4303    178743.43    55.939094    56.527181    56.527181 
 9937000    421.23364   -37773.321   -37278.545    1119.8878    178743.43    55.944884    56.524255    56.524255 
 9938000    421.93098   -37759.892   -37264.297    1518.3654    178743.43    55.950689    56.521323    56.521323 
 9939000    423.72536   -37762.917   -37265.215    1470.9751    178743.43    55.956509    56.518384    56.518384 
 9940000    427.17189   -37760.585   -37258.835    1721.9516    178743.43    55.962343    56.515437    56.515437 
 9941000    415.68301   -37769.951   -37281.695     1188.763    178743.43    55.968193    56.512484    56.512484 
 9942000    420.38926   -37769.805   -37276.021    1273.5865    178743.43    55.974056    56.509524    56.509524 
 9943000     418.5842   -37766.502   -37274.839    1378.9958    178743.43    55.979934    56.506557    56.506557 
 9944000    418.85123   -37774.031   -37282.054     1572.211    178743.43    55.985825    56.503584    56.503584 
 9945000    417.19144   -37764.499   -37274.471    1272.6597    178743.43     55.99173    56.500605    56.500605 
 9946000    421.18886   -37761.434   -37266.711     1565.209    178743.43    55.997648    56.497619    56.497619 
 9947000    421.87078   -37768.296   -37272.772    1439.3519    178743.43     56.00358    56.494627    56.494627 
 9948000    420.38779    -37762.27   -37268.488    1502.3426    178743.43    56.009524    56.491629    56.491629 
 9949000    419.91649   -37765.872   -37272.644    1354.5207    178743.43    56.015482    56.488625    56.488625 
 9950000    414.55381   -37763.833   -37276.903    1343.8777    178743.43    56.021451    56.485615    56.485615 
 9951000    420.29676   -37765.358   -37271.683    1250.4224    178743.43    56.027433      56.4826      56.4826 
 9952000    417.33497   -37768.139   -37277.943    1171.8829    178743.43    56.033426    56.479579    56.479579 
 9953000    422.00947   -37769.053   -37273.366    1299.7942    178743.43    56.039432    56.476552    56.476552 
 9954000    422.72695   -37765.872   -37269.342     1522.817    178743.43    56.045449    56.473521    56.473521 
 9955000    429.41591   -37763.202   -37258.816    1625.3138    178743.43    56.051477    56.470484    56.470484 
 9956000     426.2153   -37762.893   -37262.266    1239.4178    178743.43    56.057516    56.467442    56.467442 
 9957000    417.05672   -37766.908   -37277.039    1244.4545    178743.43    56.063566    56.464395    56.464395 
 9958000    415.85585   -37771.519    -37283.06    1317.9444    178743.43    56.069627    56.461343    56.461343 
 9959000    425.67485   -37761.825   -37261.833    1350.7524    178743.43    56.075697    56.458287    56.458287 
 9960000    414.16797   -37776.607   -37290.131    846.33396    178743.43    56.081778    56.455226    56.455226 
 9961000    430.27061    -37760.08    -37254.69    1514.8901    178743.43    56.087869    56.452161    56.452161 
 9962000    422.99711   -37764.266   -37267.419    1258.1602    178743.43    56.093969    56.449091    56.449091 
 9963000     421.6305   -37777.905   -37282.663    839.83822    178743.43    56.100079    56.446017    56.446017 
 9964000    423.08288    -37761.89   -37264.943    1533.0541    178743.43    56.106197    56.442939    56.442939 
 9965000    414.35913   -37761.392   -37274.691    1482.3159    178743.43    56.112325    56.439857    56.439857 
 9966000    414.55333   -37764.472   -37277.543    1484.8236    178743.43    56.118461    56.436772    56.436772 
 9967000    419.53003   -37770.688   -37277.913    1136.8733    178743.43    56.124605    56.433682    56.433682 
 9968000    413.32286   -37766.535   -37281.052    1127.8314    178743.43    56.130758    56.430589    56.430589 
 9969000    429.50219   -37768.954   -37264.467    1358.9691    178743.43    56.136919    56.427493    56.427493 
 9970000    420.55114   -37767.621   -37273.647    1320.1421    178743.43    56.143087    56.424393    56.424393 
 9971000    417.84845   -37767.147   -37276.347    1367.0919    178743.43    56.149262     56.42129     56.42129 
 9972000    419.30719   -37769.281   -37276.768    1103.9333    178743.43    56.155445    56.418184    56.418184 
 9973000    419.05917   -37772.584   -37280.363    1325.9879    178743.43    56.161635    56.415075    56.415075 
 9974000    426.33015   -37759.984   -37259.222    1685.6007    178743.43    56.167831    56.411963    56.411963 
 9975000    421.73917   -37771.017   -37275.648    1157.6993    178743.43    56.174034    56.408849    56.408849 
 9976000    423.65076   -37778.435    -37280.82    1251.9608    178743.43    56.180242    56.405731    56.405731 
 9977000    420.30686   -37771.226   -37277.539    1127.2751    178743.43    56.186457    56.402612    56.402612 
 9978000    416.70102   -37766.627   -37277.175    1330.9165    178743.43    56.192678     56.39949     56.39949 
 9979000    414.41015   -37765.188   -37278.427    1602.0906    178743.43    56.198904    56.396366    56.396366 
 9980000     416.8994   -37766.991   -37277.306    1145.3917    178743.43    56.205135    56.393239    56.393239 
 9981000    425.47438   -37764.243   -37264.486    1589.3333    178743.43    56.211371    56.390111    56.390111 
 9982000    422.95717   -37762.779   -37265.979    1451.5503    178743.43    56.217612    56.386981    56.386981 
 9983000     424.4986   -37770.839   -37272.229    1164.2948    178743.43    56.223857    56.383849    56.383849 
 9984000    419.04386   -37773.617   -37281.413    1056.3247    178743.43    56.230106    56.380716    56.380716 
 9985000    428.38721   -37765.224   -37262.046    1602.3062    178743.43     56.23636    56.377581    56.377581 
 9986000    423.73081   -37773.474   -37275.765    1295.4578    178743.43    56.242617    56.374445    56.374445 
 9987000       418.64   -37765.107   -37273.378    1485.2549    178743.43    56.248877    56.371308    56.371308 
 9988000    423.15354   -37768.178   -37271.147    1534.2157    178743.43    56.255141    56.368169    56.368169 
 9989000    424.05899   -37769.857   -37271.763    1355.6473    178743.43    56.261408     56.36503     56.36503 
 9990000    424.02219   -37769.672   -37271.621    1360.6671    178743.43    56.267678     56.36189     56.36189 
 9991000    427.55755   -37772.523   -37270.319     918.0989    178743.43    56.273949    56.358749    56.358749 
 9992000    424.15321   -37775.764   -37277.559    1016.3124    178743.43    56.280224    56.355607    56.355607 
 9993000    420.30875   -37774.465   -37280.776    1268.8428    178743.43      56.2865    56.352465    56.352465 
 9994000    419.08831   -37771.348   -37279.092    1125.1014    178743.43    56.292778    56.349323    56.349323 
 9995000    423.48762   -37771.241   -37273.818    1274.1734    178743.43    56.299057     56.34618     56.34618 
 9996000    419.48193   -37762.268    -37269.55    1382.6763    178743.43    56.305338    56.343037    56.343037 
 9997000    416.54159   -37770.754    -37281.49    1262.4448    178743.43     56.31162    56.339895    56.339895 
 9998000    419.76395   -37770.732   -37277.683    1299.5512    178743.43    56.317902    56.336752    56.336752 
 9999000    422.60363   -37764.237   -37267.852     1281.594    178743.43    56.324185     56.33361     56.33361 
10000000    422.74021   -37766.317   -37269.772    1458.7374    178743.43    56.330468    56.330468    56.330468 
Loop time of 4750.34 on 48 procs for 10000000 steps with 9088 atoms

Performance: 1818.817 ns/day, 0.013 hours/ns, 2105.113 timesteps/s
99.3% CPU use with 48 MPI tasks x 1 OpenMP threads

MPI task timing breakdown:
Section |  min time  |  avg time  |  max time  |%varavg| %total
---------------------------------------------------------------
Pair    | 3303.6     | 3416.3     | 3543.7     |  92.5 | 71.92
Neigh   | 162.82     | 176.24     | 195.43     |  58.3 |  3.71
Comm    | 643.75     | 753.76     | 903.45     | 202.3 | 15.87
Output  | 0.34974    | 0.39681    | 2.3018     |  44.1 |  0.01
Modify  | 323.92     | 348.74     | 394.39     | 110.1 |  7.34
Other   |            | 54.92      |            |       |  1.16

Nlocal:        189.333 ave         198 max         178 min
Histogram: 1 2 1 4 9 6 7 9 5 4
Nghost:        2102.04 ave        2120 max        2079 min
Histogram: 1 1 3 7 9 8 4 6 4 5
Neighs:        20018.7 ave       21576 max       18792 min
Histogram: 5 5 4 7 4 11 6 2 3 1

Total # of neighbors = 960896
Ave neighs/atom = 105.73239
Neighbor list builds = 1094649
Dangerous builds = 0
write_restart rst.${T}
write_restart rst.420
System init for write_restart ...
clear
OMP_NUM_THREADS environment is not set. Defaulting to 1 thread. (../comm.cpp:94)
  using 1 OpenMP thread(s) per MPI task
package intel 1
jump dms440.lmp
#MD-DMS by Ha-Bin Yu
variable T equal 440
log log.${T}
log log.440
