ITEM: TIMESTEP
0
ITEM: NUMBER OF ATOMS
32000
ITEM: BOX BOUNDS pp pp pp
-35.4957 35.4957
-35.4957 35.4957
-35.4957 35.4957
ITEM: ATOMS id type x y z
1 1 7.03976 -0.177059 -25.902
2 1 2.23812 25.2421 -4.12619
3 1 -4.03363 33.6991 -10.4958
4 1 28.1735 20.4528 32.3394
5 1 35.4954 29.8691 -17.3281
6 2 -24.2499 12.0204 -15.8547
7 1 -23.3703 -27.3057 26.1775
8 1 7.31235 -3.06766 -32.8626
9 1 7.40933 19.2481 17.2858
10 1 -4.96185 23.4368 2.04037
11 2 -10.9613 24.9119 6.57628
12 1 -17.3741 12.5896 27.0913
13 1 30.7095 -10.5617 -21.1336
14 1 -23.503 -33.7896 -16.0346
15 1 -11.564 -15.4618 -5.01961
16 1 -1.58992 25.4207 -34.6579
17 2 -17.2972 -13.5282 33.1928
18 1 -7.22157 -28.7552 -19.5403
19 1 -4.06163 34.5137 -33.7658
20 1 -1.32372 -8.13836 -13.0526
21 2 -30.4685 -2.61347 -0.942975
22 2 -17.8627 24.5445 20.493
23 1 -22.1234 -24.5181 -5.48334
24 1 22.2139 -12.1087 -33.4731
25 1 -12.2882 -33.6544 -25.0389
26 1 -23.047 -15.5996 -6.0823
27 1 15.1126 29.7408 -25.336
28 1 2.79894 -7.66046 -16.2862
29 1 16.6773 -26.0566 28.8113
30 1 -13.9759 26.9357 -6.08615
31 1 33.5181 -32.5376 -21.5318
32 1 5.33345 31.2732 27.0127
33 1 9.5138 17.697 -13.7399
34 2 -16.7701 -23.041 -22.2724
35 1 4.72143 28.5583 -32.7144
36 2 -30.9918 -6.19882 -19.6801
37 2 34.4016 -0.617588 12.543
38 1 -26.2565 26.6405 10.4509
39 1 29.6999 -1.71245 5.60735
40 1 11.2842 -10.2953 31.2727
41 2 17.5803 -34.0076 19.236
42 1 -30.7571 -0.593034 -34.9433
43 1 -1.66003 -27.1058 -26.7034
44 1 11.7982 23.1815 -26.7922
45 1 33.1735 -3.06332 -8.64237
46 1 34.7763 31.6081 -25.4177
47 1 7.65991 9.16337 -25.1269
48 1 -16.9516 -22.3185 16.1981
49 1 15.6142 -4.52557 2.38248
50 1 17.8699 12.2598 35.1071
51 2 -12.9083 15.9567 7.31853
52 1 -27.7557 -10.1732 -1.68411
53 1 7.87686 29.1006 -4.52898
54 1 -30.4508 -0.408475 14.3708
55 1 -20.2361 3.59471 13.1721
56 2 -32.0935 -15.368 -18.9391
57 1 -33.6016 -1.5592 -26.7082
58 1 -23.5762 3.17235 -18.9705
59 1 3.3135 -15.5292 -12.8542
60 2 26.7543 9.54402 1.77077
61 2 17.922 30.6186 -6.35693
62 1 -8.43547 10.7069 -2.94854
63 1 -22.1574 20.1122 1.53044
64 1 9.90974 -28.6443 29.3468
65 1 -13.4784 -5.43054 -24.429
66 1 33.8094 22.4276 25.6649
67 1 21.1193 -0.492549 30.5417
68 1 -19.8251 25.3424 -10.7913
69 1 -3.66693 5.94199 -25.0108
70 1 -0.503313 -11.2518 -5.57045
71 2 -9.59949 -25.3701 9.7161
72 1 7.17278 -13.3597 -17.3198
73 2 7.36748 -31.3882 10.8608
74 1 -14.0184 11.3145 -29.6904
75 1 -30.7332 22.6168 -9.6527
76 1 33.16 -22.1128 23.6059
77 1 8.13699 23.5513 21.3166
78 1 31.2249 17.0035 25.4859
79 1 25.0549 -10.8572 -8.28163
80 1 -11.13 -5.65828 -22.7262
81 1 -0.266561 14.8776 6.65857
82 1 6.45092 6.87458 -6.59921
83 2 0.773446 7.31138 -11.9159
84 2 -32.5189 12.0457 7.35232
85 1 7.10428 -0.0708684 3.11642
86 1 8.83288 -18.0643 24.824
87 1 23.8296 10.8035 16.7529
88 1 16.6873 3.36745 -24.7745
89 1 -4.7787 15.0754 1.14934
90 2 12.3925 -26.4018 -33.1767
91 2 24.3035 35.0033 -29.8307
92 1 -30.6721 14.0868 -16.0142
93 1 -25.3931 7.4429 -32.9513
94 1 28.6841 -31.8743 1.61853
95 2 -18.3027 1.55163 -5.08126
96 1 -3.74515 23.1278 -13.4025
97 1 -21.5307 13.6219 11.4261
98 2 -15.4535 -22.6617 -34.1585
99 2 -25.3171 31.8404 18.6863
100 1 21.7715 -31.5265 -0.33733
101 1 -31.2669 -26.4097 23.1705
102 2 27.8547 20.2616 9.99284
103 1 9.00544 22.888 -19.3473
104 1 -15.6875 -2.9078 0.149687
105 1 12.0626 -26.4716 -20.6051
106 1 -16.6066 -10.4235 -35.4628
107 1 11.3587 -24.3758 31.7523
108 1 33.5913 -13.062 19.4278
109 2 10.8094 -26.7091 0.45041
110 2 -16.3792 14.2168 -8.49557
111 1 -5.28941 12.3542 21.1742
112 1 26.3587 21.1959 -8.92034
113 1 2.00163 -3.14368 14.5496
114 1 -21.4231 -5.54079 33.0052
115 2 -24.6532 31.8353 35.0061
116 1 25.2617 33.5796 -24.249
117 1 17.1909 -25.4877 15.521
118 1 11.1449 0.629758 -7.70412
119 1 -22.9522 -9.97332 -21.2257
120 1 -5.8831 35.182 -25.1141
121 2 -2.65374 4.63531 -9.214
122 2 3.69573 32.7178 17.07
123 1 -16.1318 -11.2959 33.3366
124 1 -9.35997 -6.07776 -16.9126
125 1 7.84258 35.1009 8.92101
126 1 -18.5708 -34.7509 -8.77934
127 1 33.9268 30.2607 29.6708
128 2 14.2737 10.7986 4.32847
129 1 13.4469 -26.4715 -35.1743
130 2 -25.2241 24.9659 20.1408
131 1 30.1929 14.3032 -18.8175
132 1 18.5573 16.0926 -35.4463
133 1 -11.8864 -19.2604 25.728
134 2 16.0325 30.1581 6.62964
135 1 -24.0935 -17.2912 -1.6151
136 1 -33.4755 -35.2471 31.6098
137 1 17.6028 21.5424 30.2063
138 2 -26.7209 -9.68186 9.54002
139 1 -18.1178 -27.5219 -20.6942
140 2 31.8337 25.5383 8.24159
141 1 -19.9148 25.4811 26.6639
142 1 -29.7841 -11.4764 -28.2407
143 1 -6.6725 15.9382 14.7055
144 1 -31.3159 -16.2658 24.6705
145 1 32.9301 -30.2778 -10.139
146 1 29.5572 -29.5914 19.7805
147 1 -21.3908 13.0107 -13.3721
148 1 -3.57234 -5.35915 -15.3739
149 2 -19.6278 12.4279 19.8096
150 1 -22.0648 -8.85046 16.977
151 1 32.2618 -1.22979 -22.8702
152 1 23.6857 -33.153 -24.5634
153 1 11.6489 10.3658 33.4937
154 1 2.18576 18.0147 -22.6339
155 1 30.115 -10.4557 -11.0641
156 2 -2.54899 -10.1089 24.1104
157 1 33.8041 -2.07182 8.41818
158 2 27.1716 34.2084 -15.3739
159 1 6.04495 -28.8993 -10.2588
160 1 -8.94621 -2.23866 -0.14685
161 1 12.7661 -17.5988 -26.6361
162 1 29.0381 -7.25625 -23.744
163 2 19.9775 31.01 32.2234
164 1 21.2381 -5.79108 -25.2731
165 1 -33.2038 30.8895 1.59871
166 1 9.22871 -30.7704 27.3363
167 1 -34.0484 2.54242 12.7228
168 2 33.525 5.02461 11.3426
169 1 -11.556 -20.5123 23.5968
170 1 -25.6804 18.7191 -30.1787
171 2 5.60698 15.8978 19.6543
172 1 -16.6848 27.7788 -23.4963
173 1 17.8938 7.40345 -8.64448
174 1 -32.3163 -7.38701 6.59526
175 1 -21.0035 -32.3976 23.3929
176 2 11.217 15.5681 -28.5869
177 2 32.5384 9.35594 -21.2384
178 1 -8.65558 -3.29384 22.5973
179 1 5.63066 0.554608 -15.9356
180 1 -1.29688 3.96625 -3.42964
181 1 -6.54002 33.1608 31.8332
182 2 -16.9342 -7.78984 -7.37167
183 1 -8.54939 24.7044 23.0194
184 2 -9.1301 -14.9971 22.1575
185 1 22.7374 -7.32245 -21.9166
186 1 28.6126 -32.713 15.2653
187 1 20.337 -22.9743 -19.3776
188 1 -26.2766 22.8352 -9.37848
189 2 21.2948 -11.0141 23.1709
190 2 26.4485 5.82994 3.76639
191 1 15.1413 18.9508 -10.0806
192 1 -20.4254 27.7464 0.884989
193 1 13.4885 5.94954 17.7805
194 1 -33.514 5.7434 -27.5063
195 1 -21.7616 -19.2559 25.7627
196 2 19.7664 -18.9395 -30.0251
197 1 -12.8614 -20.735 27.3997
198 2 -26.1708 13.3224 -12.4522
199 1 -1.37911 33.0852 29.1078
200 1 5.8296 17.0148 -5.31411
201 1 -13.8948 -20.2109 -33.4272
202 1 -2.13744 -30.0732 27.5315
203 2 2.64219 22.9013 22.1431
204 1 -31.4513 -30.5744 -14.4073
205 1 18.4888 -13.7711 -32.6054
206 1 -26.9325 -15.7569 -28.3701
207 1 31.9617 -17.1432 -27.6538
208 1 -6.88458 13.432 6.26244
209 2 3.02564 8.3767 15.4096
210 2 12.1594 12.1163 29.0659
211 1 -4.39422 -11.6368 -14.9107
212 1 -24.6776 -12.9232 -3.99035
213 1 -29.0552 24.4896 21.2122
214 1 -34.7606 6.69089 29.3361
215 1 -6.2235 -1.79207 -7.7544
216 1 -13.1646 -13.473 23.5416
217 1 -22.2796 -22.7261 -33.5727
218 1 24.6113 -26.1138 25.8221
219 1 19.9519 -14.5261 29.5434
220 1 16.7613 7.39946 -13.1261
221 1 34.7691 -20.5856 8.25271
222 2 3.72974 -29.6052 -19.6731
223 1 18.2666 21.042 6.7934
224 1 -25.5684 32.1442 24.5747
225 1 -0.740486 -2.85394 -10.4371
226 1 19.6336 -34.3828 -34.4617
227 1 -18.9732 -5.9188 34.5881
228 1 -28.8679 -31.9263 -22.384
229 2 -23.9973 -28.4323 -29.3287
230 1 28.632 32.4856 -13.888
231 1 13.2115 -31.8874 22.455
232 1 -12.157 27.8237 -19.7621
233 1 13.8228 -14.0793 29.6813
234 1 -1.43027 -23.2407 -0.484674
235 1 4.16359 15.0149 6.23635
236 1 -25.4993 -30.684 -2.39374
237 1 17.8552 27.29 3.64354
238 1 -32.3447 15.7141 -35.1855
239 1 3.15183 13.4754 30.7468
240 1 33.1555 -2.7512 -20.7392
241 1 -14.4036 -21.9293 -19.7937
242 2 0.519301 -27.4243 -30.1679
243 1 30.8087 33.6319 7.34887
244 1 -7.34222 -16.5308 34.1499
245 1 12.0968 32.1804 -23.4041
246 1 0.411595 -22.1992 7.73225
247 1 -20.7248 14.9228 5.43156
248 1 -23.5006 29.7985 -9.30172
249 1 9.71209 -34.2568 -2.78756
250 1 -18.3235 34.5416 -28.4519
251 1 19.1679 4.5179 20.8191
252 1 24.2326 -11.5534 9.83622
253 1 34.6177 -19.76 -24.2816
254 1 -9.26351 -9.57936 -10.1766
255 1 35.4745 -22.7446 -17.9235
256 1 -14.352 27.3674 -30.7941
257 2 -4.85805 -26.1282 -4.83873
258 1 18.9229 18.4811 -14.9729
259 1 -28.4839 6.5024 29.2906
260 2 32.9841 2.15454 -14.8813
261 1 16.9134 -28.2301 -30.7338
262 1 -32.4219 28.6538 13.9778
263 2 20.0917 32.7808 17.5981
264 1 16.1372 14.7952 -4.03413
265 1 23.3949 -10.9286 21.8921
266 1 6.35605 -20.9442 -10.572
267 1 -4.33171 -22.0393 -25.2768
268 1 -29.7191 12.7373 -20.8971
269 1 21.7311 27.7129 -30.8329
270 2 4.06613 8.37527 21.2238
271 1 11.8004 -19.5033 12.0317
272 1 14.8272 11.6038 24.2997
273 1 -9.19767 17.2269 31.2014
274 2 32.0176 -0.820859 -17.1029
275 1 33.0663 -12.6682 -34.069
276 1 4.29523 18.0626 10.9144
277 1 5.35015 24.9754 -22.0623
278 2 26.9265 -8.89229 -31.1745
279 1 -15.6626 9.99216 -5.26207
280 1 -28.0625 -28.8166 -30.6601
281 2 -1.94667 17.3487 -27.3213
282 1 3.29065 -14.5823 -16.8867
283 1 4.54282 -35.3706 -5.00706
284 1 -12.5646 26.6945 -32.7169
285 2 16.9318 20.4543 -5.48824
286 1 -23.1698 33.5697 -18.7576
287 2 21.5214 -24.5348 -33.6927
288 1 20.968 -9.00996 -32.6865
289 1 -8.74351 -7.45176 8.48916
290 2 11.8661 34.6319 19.7545
291 1 0.842702 20.406 12.7046
292 1 18.7534 -33.8387 21.2764
293 1 -29.1344 4.60871 -26.4666
294 1 -32.069 16.5305 -3.51518
295 2 -33.4933 18.8398 -12.5835
296 2 27.9684 34.8679 -31.0833
297 2 8.99618 -2.51296 -27.3948
298 1 -14.8039 18.4242 10.0214
299 1 1.01465 -33.706 28.652
300 1 20.3126 -27.009 -17.5281
301 2 -12.2473 22.5411 -26.5713
302 2 -30.8406 28.395 -33.6601
303 1 -21.587 -7.3744 -14.4025
304 1 -5.61569 -23.4116 14.9935
305 2 30.1717 6.16699 28.4579
306 1 -24.519 2.2106 -23.1293
307 1 -35.2009 -25.7083 -32.9934
308 2 14.1997 -2.84281 12.3225
309 1 12.5059 -25.2235 24.4387
310 1 -18.7792 -8.82028 -29.7724
311 1 27.8605 30.2475 1.34247
312 2 2.94305 -25.5357 3.0732
313 1 -15.0163 11.0636 -27.363
314 1 -10.8014 -21.2854 -1.43372
315 1 -16.089 8.38059 13.8241
316 1 16.5373 -10.4294 -11.8814
317 1 -15.1626 17.9356 30.219
318 1 34.5463 23.2657 16.7512
319 1 14.0137 -5.5558 -11.1869
320 1 2.13113 -33.7101 -8.66086
321 1 -33.3205 21.2658 -11.9242
322 1 33.841 -0.837242 -2.06168
323 1 13.7757 -13.2362 -22.5558
324 1 -3.08742 -6.74779 30.1932
325 1 5.23958 -14.676 -20.9046
326 1 2.90629 -28.5468 -31.1207
327 1 34.0288 -3.45243 18.3603
328 1 16.4551 -0.599427 31.0335
329 1 35.449 16.5348 -5.82636
330 2 15.8699 -0.509069 -6.91162
331 1 29.4495 2.38658 8.53231
332 1 -18.9836 -18.3606 15.0479
333 1 -14.9017 -2.22081 5.33115
334 1 26.7913 -3.49189 15.8961
335 2 20.3042 12.4128 23.5511
336 1 21.4976 23.4743 28.6829
337 1 32.0142 -14.7002 -14.6246
338 1 21.6889 -11.6517 -26.8632
339 2 15.0698 -10.7542 13.8739
340 1 33.1138 -34.3162 -34.6348
341 1 3.5703 -18.624 -19.0089
342 1 -2.82866 -1.06532 2.73081
343 1 33.0275 9.26992 15.8403
344 1 -25.9126 -3.88161 2.64538
345 1 12.5343 34.5765 7.71306
346 1 -27.2582 -25.6328 -18.8612
347 1 -10.2431 27.0069 -18.2396
348 1 -33.3123 -33.3135 -15.035
349 1 -19.1023 11.1081 3.17612
350 1 -20.6979 -15.5065 12.4738
351 1 11.2506 -2.74789 -26.7174
352 1 22.6571 24.125 25.1159
353 1 4.68383 -31.8597 28.2345
354 2 -27.6724 25.7229 34.4542
355 1 -24.1246 13.783 -13.5184
356 1 -22.0069 9.14814 20.723
357 1 -0.992355 31.0482 -32.567
358 1 -2.66391 26.3523 12.6453
359 1 34.6355 -29.6376 4.68041
360 1 11.385 -16.6141 32.5577
361 1 15.2715 2.91098 -4.92277
362 1 30.1327 13.2557 27.8381
363 2 -14.9937 -8.62947 -25.5468
364 1 -19.3489 24.7289 10.4976
365 1 25.1769 14.228 -26.1593
366 1 -21.8102 -26.8694 32.424
367 1 17.035 15.0629 4.40998
368 1 23.3389 -19.5724 7.59734
369 1 -18.8224 -11.5614 7.16389
370 1 32.741 3.48972 -32.136
371 1 11.2364 -32.3938 -17.4673
372 1 29.3977 10.4932 -4.87373
373 1 33.7817 23.4148 -10.864
374 1 25.9721 -6.86775 -15.984
375 1 -9.15276 9.08102 6.75182
376 1 27.1792 5.80291 8.20114
377 2 14.5439 -8.54786 -34.0178
378 2 -28.9563 -6.2568 11.5365
379 2 -10.8819 -22.0493 14.5879
380 2 1.90542 -22.5397 6.01291
381 1 -3.57726 13.0819 -18.6248
382 2 31.6838 -34.3897 -9.96399
383 1 5.03103 -18.0725 21.9194
384 1 -0.297678 20.9162 -14.7305
385 1 -10.4888 -22.6511 -14.6311
386 1 -0.995113 30.9094 -0.840734
387 1 -8.48956 28.5541 20.2883
388 2 -21.5761 -5.76561 11.5689
389 1 -1.41363 -19.2617 -8.44083
390 2 26.2997 -35.3888 6.63046
391 1 20.7364 7.07551 6.34265
392 1 -0.221607 19.2293 -1.76231
393 2 -17.086 5.91205 23.4451
394 2 -33.7507 -18.6888 27.3667
395 2 -31.9296 -30.5555 -20.8708
396 1 18.2562 27.7928 -10.4515
397 1 16.7351 -1.1704 26.8437
398 2 14.4352 23.0026 33.4577
399 2 -18.8684 -17.1424 19.0494
400 1 -19.7424 -24.6031 11.2758
401 1 -19.2121 -20.4211 22.5791
402 1 27.7344 -20.9403 -13.1363
403 1 33.9832 -1.31051 -4.59293
404 1 -1.23994 -22.0342 30.0692
405 1 -17.9712 -20.609 20.447
406 1 -28.8448 -0.355548 -30.3681
407 2 -16.763 -21.7503 27.8925
408 2 19.8577 -12.3877 29.1005
409 2 16.1742 -34.8636 -31.6404
410 1 -3.92955 -7.80087 -2.20223
411 1 16.3443 26.1945 27.066
412 1 -4.44661 8.00511 -2.61626
413 1 27.2531 23.8712 -21.2416
414 1 4.95618 -6.38666 -34.8752
415 1 -16.7265 13.6436 7.98374
416 1 -33.0643 -17.3464 -29.8435
417 1 19.3698 1.66572 -4.68326
418 1 27.9982 -29.4129 -20.2334
419 1 -7.5009 16.0833 33.0797
420 1 -32.2777 -10.3149 27.402
421 2 -8.72771 -31.8535 16.587
422 1 -28.493 -32.0611 29.053
423 1 14.5745 2.48623 30.3172
424 1 -15.7747 -34.6247 8.82389
425 2 -16.1021 5.82868 -31.4453
426 1 14.7872 21.4312 -15.8313
427 1 -26.018 -25.3771 31.7583
428 1 -14.6358 7.29457 -16.1322
429 1 6.3578 -32.7998 35.3376
430 1 26.0887 -12.036 11.7011
431 1 -18.7871 -2.19176 14.4028
432 1 -12.2552 -0.648037 17.6284
433 1 -4.83824 4.53084 3.73775
434 2 1.12823 -31.0958 -23.0673
435 2 18.3188 13.8699 -30.0422
436 1 11.1218 -20.0845 -26.4538
437 1 14.3286 32.2332 32.1964
438 1 26.1019 32.9926 19.8287
439 2 -35.1562 -6.40917 -11.7993
440 2 3.07766 -23.2883 -16.3553
441 1 29.2547 -16.3756 32.4843
442 1 16.8137 11.0214 33.0304
443 1 -22.7437 13.0897 -29.6964
444 2 -1.27711 -14.7798 22.3361
445 1 -21.0769 12.482 6.59784
446 1 32.2829 -6.36084 -1.46706
447 2 -19.7145 21.2221 6.88563
448 2 -18.6433 -1.958 12.108
449 1 -12.4844 22.3333 21.8389
450 1 -23.9186 31.3146 -24.0158
451 1 -23.2301 17.2578 35.403
452 1 8.85506 12.1957 -1.87807
453 1 -10.2016 14.3649 -32.1089
454 1 35.193 -8.11314 -25.7819
455 1 29.9818 -26.8156 20.9118
456 2 9.92388 5.82285 8.20169
457 1 -20.7451 6.99625 32.5614
458 1 20.0626 11.5342 6.26005
459 1 26.6807 -27.2488 -17.5849
460 1 -7.94782 -35.3871 -29.2427
461 2 28.2295 26.3544 34.1657
462 2 34.1417 -26.2321 -29.6198
463 1 29.5071 25.1244 -29.2892
464 1 -23.0127 23.411 -20.6549
465 1 6.19071 -1.7581 1.2963
466 1 -4.6661 14.3336 22.1128
467 1 -33.9606 -20.5138 -11.7422
468 1 0.531172 -32.3303 -13.0637
469 2 9.13155 24.1096 14.4629
470 1 -19.1532 2.15112 8.61569
471 1 -31.7451 -10.973 -9.90581
472 1 19.5073 -15.6718 20.0324
473 2 26.6686 17.1518 -19.1328
474 1 -24.9804 -6.86454 9.46818
475 1 2.22291 -17.3124 10.4282
476 2 33.0709 26.1771 -24.5446
477 1 10.1466 3.49842 30.2102
478 1 34.9334 20.8739 14.8474
479 1 30.3077 8.26913 11.1446
480 2 11.5813 -15.6907 21.1861
481 2 -31.2201 34.7197 32.3829
482 2 -3.11642 24.9465 32.7959
483 1 26.1231 -6.19993 -18.3048
484 1 6.77513 22.2596 14.4583
485 1 -26.1931 -22.1179 -26.7707
486 1 -23.2508 21.7142 23.5031
487 2 -21.3339 -24.0851 15.1658
488 1 -9.0864 21.1931 16.698
489 2 -30.9358 11.2987 -5.82806
490 2 -27.7252 -34.398 -6.5215
491 2 -24.9454 5.6384 -10.1771
492 1 -31.6453 30.1824 -30.1973
493 1 -19.7897 -23.745 -11.2472
494 1 8.57993 19.8521 -31.8416
495 1 7.16897 8.26713 -14.591
496 1 -12.5166 -18.4562 -33.1933
497 2 -11.2307 -15.7806 5.56687
498 1 4.43322 0.237051 -11.3287
499 1 -11.0833 26.7859 34.4764
500 1 -6.06726 18.862 -34.1312
501 1 -6.38648 -5.96388 24.3826
502 2 27.5099 26.319 -26.3742
503 1 2.67694 29.55 -11.7165
504 1 -9.55718 -11.0968 -12.1928
505 2 21.9164 -21.411 -20.1665
506 1 21.6275 -2.78024 6.83635
507 1 -26.8228 -0.515715 10.8213
508 1 -19.8219 13.9124 -3.39851
509 2 1.36232 11.6856 -28.2332
510 1 7.24067 -12.5726 0.196846
511 1 33.688 -27.1649 5.52613
512 1 -16.4206 11.8877 31.6825
513 1 22.6938 -9.26972 -14.323
514 1 -28.1399 8.49611 -6.98752
515 1 15.8627 23.211 -0.0540794
516 1 -4.2746 -29.3329 34.7918
517 1 3.77543 -31.6185 -8.05011
518 1 -18.6419 -21.6814 -25.7772
519 2 29.3842 27.1956 -21.2474
520 1 16.7369 34.1928 -6.12512
521 1 25.0725 -34.0045 -29.1571
522 2 -5.4324 -30.8431 -35.0453
523 1 -15.6497 27.9531 15.1863
524 1 0.90918 19.6208 -18.8005
525 1 9.69023 22.4317 -13.5021
526 1 25.3128 32.8866 3.45628
527 1 -16.3209 -12.5492 -31.3415
528 1 -9.47393 -2.71322 5.52415
529 1 -11.2816 18.322 -17.035
530 1 -26.8007 21.9663 18.5606
531 1 5.21995 21.7528 28.1836
532 2 30.6834 6.29848 -23.9505
533 1 20.3673 14.9996 31.6247
534 1 -16.2462 25.5726 21.6743
535 1 -6.17146 -11.6146 18.0772
536 2 -17.678 22.1658 -9.32439
537 2 6.64967 -13.9037 -7.98817
538 1 -7.10895 28.8159 -14.1003
539 2 15.1749 -28.7753 6.79872
540 1 -5.6771 6.14137 30.3421
541 1 22.2661 32.5393 28.2334
542 2 -20.0598 -12.4742 -2.84365
543 1 14.8796 34.3796 31.2837
544 1 6.05436 -29.5676 15.2819
545 2 31.5179 -13.5726 7.92221
546 1 31.0287 -12.8021 -21.9213
547 1 33.4826 2.91349 32.1751
548 2 -32.3301 -32.5365 18.1377
549 1 14.5894 -24.9509 10.459
550 2 11.4802 0.425001 -17.2821
551 1 -26.6039 26.9226 -11.5072
552 1 22.31 31.426 -12.8402
553 1 27.1763 -18.6509 10.9533
554 1 -4.20519 7.78721 7.60314
555 1 23.0004 7.50658 -31.4856
556 1 -17.6146 -9.85078 -7.12113
557 1 35.4869 22.5099 27.622
558 1 -32.8649 17.229 -24.3978
559 2 -11.1302 34.9012 35.193
560 1 -19.9664 15.7266 -27.3707
561 1 13.5546 -1.1642 2.39799
562 1 -23.5151 20.8601 8.10119
563 1 -23.9211 34.8259 14.8803
564 1 -5.84451 13.8559 -30.7452
565 1 14.7532 -15.9893 -19.8602
566 1 31.7004 -33.5393 29.2163
567 2 31.9864 4.5442 -10.4844
568 1 -31.0108 -14.4034 4.61056
569 2 -6.37166 -13.4421 -26.8883
570 1 -34.6055 -2.27003 -35.4199
571 1 -11.0708 -26.9474 -13.6182
572 1 34.1011 -1.23584 -28.7094
573 1 -5.03195 -17.7043 19.7593
574 1 25.9688 -33.2322 3.9754
575 2 -8.3681 -26.094 -27.0331
576 1 -23.5818 0.149468 -22.4697
577 2 -7.88349 -8.34656 6.39627
578 1 -18.7722 15.0799 -16.4325
579 1 22.9299 23.5256 -3.00942
580 1 -11.3692 -8.91767 24.726
581 2 14.5405 3.82091 -30.7965
582 1 13.5045 -28.3425 -21.0948
583 2 -10.4747 -13.7866 -3.8845
584 1 -33.831 16.7144 12.178
585 2 33.9288 8.05662 -25.0741
586 2 11.9127 -23.2177 -25.2167
587 1 28.2644 -1.89685 -14.5221
588 2 19.0783 32.3707 -2.86485
589 1 31.3429 -0.257534 1.12662
590 1 24.6028 -22.5052 0.332954
591 1 25.7477 -21.5437 -24.7847
592 1 28.0834 -9.64051 9.02253
593 2 -33.6536 -10.4797 3.33893
594 1 -22.6888 27.9994 -8.07895
595 2 23.0214 24.62 14.1998
596 2 -19.1426 -35.0584 -24.1482
597 1 32.8381 8.01519 -12.7152
598 1 18.4896 15.5061 -19.438
599 2 33.4494 -17.0123 2.7834
600 1 -19.1477 -19.0288 34.0906
601 1 18.0625 9.14744 15.7157
602 1 21.7005 -20.083 -22.0113
603 1 12.1577 27.127 -25.033
604 1 -13.0933 -24.3394 11.5796
605 1 24.3759 -30.3618 11.1373
606 1 -14.4613 13.4006 6.55608
607 1 -8.12868 -14.4963 8.18643
608 2 34.9284 29.4946 -26.3313
609 1 -23.9277 -13.276 -29.9769
610 1 35.4576 5.86337 10.4013
611 1 11.4592 -17.8057 30.3932
612 1 -23.0475 -7.42617 -29.2704
613 2 -9.15499 16.5716 -1.53858
614 1 34.6203 -16.7674 -17.6032
615 1 2.67275 19.1005 18.0653
616 1 13.2144 -21.0649 26.7716
617 2 -17.5699 16.8097 33.0533
618 1 -16.4524 -16.1005 -9.292
619 1 31.0703 -4.16991 -29.7673
620 1 28.0332 -2.16799 -7.18707
621 1 17.7485 -23.2316 -33.4498
622 2 -20.9096 16.8728 8.22563
623 1 22.5085 26.4034 4.48429
624 1 -19.9298 -35.1248 -20.253
625 1 23.3163 31.2422 -28.0803
626 1 -26.8037 -12.1591 23.0717
627 1 11.7118 -1.45488 -21.7005
628 1 -23.3088 -0.686858 6.07262
629 1 33.4399 -19.5971 14.6353
630 2 -1.70576 18.2216 16.5942
631 1 17.8375 1.0996 -24.4317
632 1 -8.78458 -9.84796 -6.14467
633 1 28.0668 -34.012 -2.45333
634 1 -27.7383 28.6411 -12.9775
635 1 15.893 32.887 17.1613
636 1 14.3094 7.16642 -19.1204
637 1 -6.52783 26.9051 14.4676
638 2 5.6491 -3.51018 -29.0329
639 1 -16.861 -35.2161 0.708265
640 1 0.405493 -20.4416 -4.62188
641 1 -12.0984 -11.2919 -30.3369
642 1 -6.90385 32.9421 -26.1358
643 1 0.426885 -22.8574 -22.3764
644 1 11.7963 22.5751 -31.0463
645 1 28.9282 28.9988 -7.68993
646 1 -12.956 25.6948 -20.2394
647 2 32.442 6.45781 -14.7465
648 1 6.55285 22.3516 -19.712
649 2 8.13189 12.952 7.99898
650 1 -18.2462 -4.29979 10.7443
651 2 -0.52187 -11.5593 -16.8108
652 1 -18.0335 -21.4145 5.52396
653 1 32.2692 -12.0517 26.3721
654 2 17.6416 31.7572 4.27245
655 1 -13.8679 -15.0014 -5.77792
656 2 -18.77 -8.81379 18.0219
657 2 34.0056 17.79 -11.8723
658 1 -21.1172 10.4887 -19.831
659 1 16.2988 -13.6278 29.0756
660 1 -30.8938 9.36488 30.1893
661 1 1.98813 -0.804476 -14.0643
662 1 -7.28101 -4.58686 15.5707
663 1 -19.1302 -27.169 -24.0276
664 2 -28.7061 28.9741 -26.7354
665 1 24.0278 15.9782 -27.7698
666 1 18.9998 22.7257 34.022
667 2 4.726 -18.4957 1.52053
668 1 25.173 31.6288 -20.7417
669 1 -28.4975 -19.0229 21.5618
670 1 4.06711 28.3769 -15.2538
671 2 -21.298 14.2737 28.6642
672 1 -6.01436 -4.47033 8.20423
673 2 25.3085 -15.7476 12.3889
674 2 28.1577 9.9095 21.5792
675 2 2.24562 0.049384 -2.86045
676 1 10.9997 -7.23883 35.2289
677 1 17.7631 -31.0749 -14.6813
678 1 19.3394 12.7567 15.1172
679 1 6.36789 -23.3466 7.95088
680 2 15.8276 -19.0602 -10.4159
681 1 27.4259 -6.92149 -29.861
682 1 17.0599 33.4318 11.8859
683 1 1.20665 11.6582 -22.3333
684 1 -9.46915 -27.9138 -19.5597
685 1 -25.6978 -26.4177 29.3995
686 1 -8.18227 -12.6016 25.4534
687 1 33.6545 34.1221 24.0681
688 1 -1.66833 -13.1792 -30.8928
689 1 14.0034 -17.2239 2.91237
690 1 -22.2728 18.4841 -6.92143
691 1 6.00691 -30.7519 4.70547
692 2 -20.6531 -5.5627 18.3511
693 2 1.92657 4.52979 -30.2841
694 1 -24.5728 -34.02 17.6027
695 1 27.8775 -30.5991 16.2476
696 2 -0.773436 28.1795 22.1466
697 2 2.2763 26.4341 0.529149
698 1 -15.1072 15.9573 -33.8558
699 1 22.9032 33.2362 -24.4038
700 1 15.8467 -26.1049 31.1103
701 1 -5.38958 14.7921 12.8795
702 1 -5.82163 15.2629 -1.12036
703 2 14.6377 -35.3934 -25.2918
704 1 22.1424 16.7869 18.7951
705 1 -34.4394 -0.106324 32.8301
706 1 -4.75269 -15.9488 -5.10951
707 1 -5.66627 -21.2121 -23.4758
708 2 -33.65 -13.5527 -22.0177
709 1 -3.64985 -14.1367 13.4696
710 1 -15.9619 -11.4111 3.41497
711 1 30.9426 -19.5207 29.6114
712 1 -19.8161 22.8269 22.5491
713 2 9.44858 12.7962 20.7425
714 1 -0.488147 32.1678 24.4023
715 1 -8.35292 8.06738 -35.2863
716 1 5.80378 20.1752 10.3242
717 1 11.0936 -33.6888 7.58883
718 1 -18.9712 -20.6412 16.0588
719 1 26.8382 25.044 -29.0286
720 1 -13.4267 26.7441 27.2414
721 1 -19.5323 23.1236 -3.79797
722 1 17.1325 -11.5269 14.5254
723 1 6.81767 -27.2393 22.7665
724 1 32.9802 22.5997 28.1076
725 1 -6.56137 -8.33058 25.1484
726 1 20.9974 -8.28938 -1.44693
727 1 -6.48255 16.3888 -33.6635
728 1 -33.9302 25.1949 1.20782
729 2 -20.4477 -16.1704 -2.0755
730 1 34.4944 -24.8087 8.92579
731 1 -17.1207 6.62689 -21.8111
732 1 32.2679 -25.1211 5.56633
733 1 20.0371 26.7013 -3.40746
734 1 34.3022 -9.65135 11.0429
735 2 -10.6037 -32.1935 0.761983
736 1 13.7749 -12.8586 -25.2415
737 1 1.02628 7.31573 30.562
738 1 -6.80131 -28.0918 9.09935
739 1 -22.0298 20.8932 26.507
740 1 13.5608 -8.01078 -1.85263
741 2 26.887 -9.17387 24.0549
742 1 -12.2765 -21.3804 18.7206
743 1 25.1894 29.1379 -20.75
744 1 -27.3902 27.0917 -7.22826
745 2 -5.36365 -5.80114 -22.6683
746 1 30.8129 26.8834 9.95907
747 1 -20.4694 -20.993 -15.8645
748 1 6.67082 -33.6146 16.533
749 2 2.71372 21.9304 -31.0658
750 2 4.30281 -25.8624 -13.157
751 1 -15.4869 -14.5719 -7.75909
752 1 -6.21785 16.5782 29.4018
753 1 -25.7941 2.84678 35.0528
754 1 -0.672663 -2.27975 2.45214
755 1 -31.9707 -30.7155 3.60018
756 1 -35.3716 -15.0145 -3.1003
757 1 2.57572 -2.27105 22.9256
758 1 14.0114 2.2411 6.18123
759 2 10.2685 -6.44267 5.60579
760 1 32.5948 16.5115 4.33001
761 1 1.7392 28.0342 17.6415
762 1 -32.9732 6.49127 10.5062
763 1 21.6972 -30.5587 -34.3189
764 1 31.0026 -32.047 -9.99796
765 1 -25.7286 16.918 -9.75868
766 2 0.884601 3.18051 -8.81945
767 1 10.9758 -7.9185 -19.0512
768 1 29.172 -26.6903 -0.416368
769 1 -3.53878 34.2906 19.3189
770 1 -22.0955 -9.95049 19.2626
771 1 -19.162 -22.505 23.9683
772 1 -11.8649 -9.65158 13.9054
773 1 -12.7264 -19.3294 19.713
774 2 -21.4833 -33.8185 25.2619
775 1 17.7835 21.2698 -3.22866
776 1 -15.0631 29.9662 -24.6118
777 2 -32.6191 28.7723 1.37369
778 1 17.0807 -7.65433 -32.9663
779 1 24.8299 -30.5797 -27.4408
780 1 -25.0668 -1.77081 -0.980413
781 1 -30.7612 32.1475 24.1144
782 1 -33.4525 -29.0323 31.5162
783 1 -22.6643 14.0396 -17.613
784 1 21.0727 11.7871 -19.8868
785 2 20.6119 1.93964 16.7189
786 1 -17.9683 26.5894 -19.5
787 2 -20.9566 7.24906 -24.386
788 1 -6.13043 29.9822 -20.8754
789 2 14.4222 -9.08726 33.0085
790 1 12.3048 -30.3848 -10.4329
791 2 10.0854 -0.356749 -35.0362
792 1 -22.7479 1.94213 -14.2279
793 2 -35.2411 -14.5063 9.16375
794 2 -22.8768 -19.0785 9.87901
795 2 3.71621 16.4147 -6.21948
796 1 31.8466 16.8629 -29.4851
797 2 26.0931 18.4855 -0.138596
798 1 6.76142 -1.105 -6.4706
799 2 -9.32882 -21.6443 26.6529
800 2 -12.7562 -5.55589 -1.77828
801 1 33.8382 -34.0199 4.7778
802 1 13.5527 31.8243 -15.7258
803 1 22.1525 3.40276 -0.496418
804 1 7.74116 -28.3078 -1.04214
805 1 -14.9134 -23.9658 16.9229
806 1 -16.6679 28.4105 -11.9455
807 1 22.7744 18.6236 -2.1566
808 1 31.3832 -8.46905 31.949
809 2 -16.7132 8.30415 -23.935
810 1 -6.64997 30.6651 23.3251
811 2 31.3511 -26.8228 -26.7453
812 1 30.7682 -22.5902 26.83
813 1 12.3616 32.0345 -33.9738
814 1 26.8374 -0.56014 21.2792
815 1 -17.9056 26.9687 -3.49067
816 1 -6.21364 0.533403 -23.3719
817 2 -1.96195 -6.00077 10.0793
818 1 1.46463 -18.4253 -35.4902
819 1 -13.3809 10.4498 -14.5327
820 1 30.2713 -4.41361 29.8243
821 1 13.3755 -0.662636 -20.2155
822 1 1.38637 -12.5149 -24.0573
823 1 -26.6021 -16.0626 -6.71941
824 2 -5.99333 -32.7905 -21.0692
825 2 -13.9295 -7.66175 29.5179
826 1 18.6327 0.454104 11.1531
827 1 22.5461 15.1755 16.7591
828 1 21.2273 32.5663 -30.1295
829 1 34.1552 0.0156712 -11.6671
830 1 -31.9074 20.3324 3.17748
831 1 -32.2612 -10.7106 1.59118
832 1 -4.8221 -12.7627 -6.07799
833 1 16.4538 5.17849 -0.815427
834 1 22.3945 -7.94608 -24.6115
835 1 -10.998 -19.0281 -16.4327
836 1 -28.4832 -17.0298 -34.6708
837 1 19.8955 -4.01606 -2.20851
838 1 -12.1865 -23.6205 20.1683
839 1 0.425945 16.1546 1.88687
840 1 20.7209 -12.2413 -13.8689
841 1 26.2173 13.122 -2.96879
842 1 14.4985 31.5151 -23.543
843 1 10.9203 -14.746 34.0895
844 1 8.13264 15.745 -17.5636
845 1 25.507 27.5904 -13.764
846 1 -16.1894 -9.87358 -9.43267
847 2 25.2261 -10.6528 -28.6552
848 1 13.3439 20.383 26.889
849 1 -13.483 -17.4587 8.70513
850 1 -26.3153 -8.06399 7.81539
851 1 -13.9895 31.6341 10.7244
852 1 -35.4546 28.2543 29.5951
853 1 -19.7524 22.6589 -8.29369
854 1 14.2563 31.3174 -10.4303
855 2 -19.6301 -23.0867 26.1533
856 1 22.5933 26.8946 31.1562
857 1 -8.09039 7.35051 1.25688
858 1 12.122 -6.62115 -24.0861
859 2 -2.22853 -28.9774 -27.5823
860 1 -30.9314 33.706 -6.39832
861 1 -15.5673 -8.02326 -0.763017
862 1 -15.0301 20.3443 16.2662
863 1 4.66406 14.2166 25.1383
864 1 16.9785 -30.1376 20.5387
865 1 19.2355 22.1688 -9.92357
866 2 23.9383 20.0361 8.11804
867 2 20.7969 7.72128 -30.711
868 1 21.0338 34.6979 17.1808
869 1 -23.4081 27.9871 4.57198
870 2 -10.0699 34.4329 -20.0884
871 1 25.5146 10.4336 -33.7515
872 1 15.8109 1.08813 -12.9376
873 1 7.57157 -21.4546 -26.1083
874 1 -9.76446 24.2763 -25.8268
875 1 -8.1671 2.79006 23.9145
876 1 30.1051 31.2908 -34.7008
877 1 -13.3669 -1.56167 26.5424
878 2 27.29 -31.9408 7.42215
879 1 -32.7003 4.06693 -14.6405
880 1 18.1274 4.09495 -29.6928
881 2 31.807 25.6463 -19.4118
882 1 13.5934 -2.23062 -33.9094
883 1 25.9965 7.18265 9.89433
884 1 -27.545 26.6242 12.6053
885 1 24.6155 15.9924 -19.253
886 2 29.7719 28.3983 -12.1385
887 1 -23.3864 -18.2966 -12.3517
888 1 31.7722 -10.7311 -17.0764
889 2 25.0608 34.8799 2.5465
890 1 27.4094 12.7395 -30.1714
891 2 -14.8512 18.7605 -14.7264
892 1 -25.5213 -3.11123 -34.086
893 2 21.3957 16.1679 2.81679
894 1 23.1346 -18.085 34.0289
895 1 24.5345 -27.5477 34.9005
896 2 7.07225 20.3607 8.12705
897 2 -7.78203 20.7341 -1.80325
898 2 11.2166 34.9079 23.8522
899 2 23.4156 -14.0508 -18.7358
900 1 28.665 -19.8562 30.3711
901 2 -33.607 34.6402 -31.1001
902 1 22.29 11.5419 24.3172
903 1 -13.9756 4.8605 14.7874
904 1 17.42 -20.713 14.7096
905 1 -12.7014 7.46702 -1.76074
906 1 -8.05718 4.4358 -18.746
907 1 31.9617 16.446 -22.5458
908 2 24.1728 27.4917 1.50004
909 1 6.61711 -18.5814 0.403551
910 2 -6.46083 26.816 1.26895
911 1 -21.7891 8.76077 -28.3572
912 1 -10.5627 26.465 30.287
913 1 13.7435 29.6783 3.23113
914 1 -9.75988 -3.35816 -2.4248
915 2 -28.9351 -22.0487 2.51838
916 2 -25.1861 -6.88563 11.696
917 1 -2.25165 19.472 -11.7279
918 1 -1.16745 -14.5169 3.99364
919 2 0.00705976 9.71162 27.4006
920 1 -28.08 33.9803 -28.9836
921 1 15.7922 -33.8729 27.3016
922 2 -17.9303 -29.027 33.7049
923 1 15.8345 -1.78205 29.0199
924 1 27.9698 -21.0003 32.6198
925 1 -20.9948 -0.262574 15.7353
926 2 4.28702 30.9903 -21.9856
927 1 -27.1116 23.2382 20.7622
928 1 -9.10182 7.47942 22.7239
929 2 7.89113 7.79762 -16.9174
930 1 -10.1731 16.8042 -15.3012
931 1 15.8592 28.1728 -20.0255
932 2 35.2279 -32.1546 4.62731
933 1 30.4576 28.3892 22.2527
934 1 -5.98602 30.6374 5.58105
935 1 14.5103 30.1535 32.9587
936 1 24.4504 11.7365 -31.5464
937 1 -4.83097 -28.4347 -16.4226
938 1 11.0151 -30.3161 -2.60286
939 1 -33.1789 -14.0333 20.4241
940 1 15.7698 19.9289 -35.0226
941 2 -5.00177 22.153 -8.5849
942 1 4.38604 21.7083 -16.0988
943 2 10.1241 21.7869 -22.4164
944 1 -26.0665 3.45961 26.0194
945 1 20.9458 10.5521 -25.6546
946 1 -11.8237 0.0788098 -20.9452
947 2 -35.0881 11.0689 -25.3658
948 1 -13.2786 -1.83156 -30.0528
949 1 -8.25512 -1.66899 -9.15458
950 1 13.1953 31.7367 -28.9575
951 1 -21.4354 -27.7168 -22.9894
952 1 8.76979 -32.6189 34.0014
953 1 19.5019 28.9078 -4.45454
954 1 10.155 1.60919 31.966
955 1 -5.65499 35.3497 -8.62405
956 2 12.0633 2.53209 -25.2878
957 1 -19.7449 -32.8309 -4.66968
958 2 -35.1573 4.31664 -13.0491