units           metal
boundary        p p p
atom_style      atomic
read_data      /HOME/hust_hbyu_1/Samples/Ni80P20_C20/dat/T360.dat
  orthogonal box = (-35.4469 -35.4469 -35.4469) to (35.4469 35.4469 35.4469)
  4 by 5 by 6 MPI processor grid
  reading atoms ...
  32000 atoms
  reading velocities ...
  32000 velocities
pair_style      eam/alloy
pair_coeff      * *   /HOME/hust_hbyu_1/Samples/Ni80P20_C20/dat/NiP.lammps.eam Ni P
mass            1  58.69
mass			2  30.97
neigh_modify    delay 5
timestep 0.01
thermo 100000
reset_timestep 0
thermo_style custom step temp pe etotal press vol lx ly lz
fix             1 all nvt temp 360 360 0.5
thermo_modify flush yes
fix dsf all deform 1 x  wiggle 0.5    300000.0   y volume z volume units box
fix ps1 all ave/time 1 1 300000 c_thermo_press[1] c_thermo_press[2]  c_thermo_press[3] c_thermo_press[4]  c_thermo_press[5] c_thermo_press[6]  file  YDMA360K-stress-300ns.txt
dump            1 all custom 10000000 YDMA360K-300ns.lammpstrj id type x y z
dump_modify 1 sort id
run 150000000
Neighbor list info ...
  1 neighbor list requests
  update every 1 steps, delay 5 steps, check yes
  master list distance cutoff = 8.5
  ghost atom cutoff = 8.5
Memory usage per processor = 3.51281 Mbytes
Step Temp PotEng TotEng Press Volume Lx Ly Lz 
       0    358.90905   -145082.45   -143597.94   -58.403404    356306.97    70.893775    70.893775    70.893775 
  100000    362.69977   -145017.28   -143517.09    965.32541    356306.97    70.904247     70.88854     70.88854 
  200000    358.69685   -145006.95   -143523.31    580.74173    356306.97    70.914713    70.883309    70.883309 
  300000     358.3502   -145008.86   -143526.65    1277.7862    356306.97    70.925171    70.878083    70.878083 
  400000    360.36236   -145024.69   -143534.16    926.35259    356306.97    70.935614    70.872865    70.872865 
  500000    358.18113   -145010.93   -143529.42    1152.1741    356306.97     70.94604    70.867658    70.867658 
  600000    361.70738   -145019.27   -143523.18    1041.6506    356306.97    70.956442    70.862463    70.862463 
  700000    360.91057   -145020.29   -143527.49    875.55851    356306.97    70.966817    70.857283    70.857283 
  800000    362.47928   -145009.08    -143509.8    1358.8444    356306.97     70.97716     70.85212     70.85212 
  900000    361.53451   -145012.61   -143517.23    1304.6591    356306.97    70.987466    70.846976    70.846976 
 1000000    358.38704   -145016.87   -143534.51     948.7276    356306.97    70.997731    70.841855    70.841855 
 1100000    359.62563   -145020.62   -143533.14    827.37043    356306.97    71.007951    70.836757    70.836757 
 1200000    358.54639   -145016.88   -143533.87    667.00818    356306.97     71.01812    70.831685    70.831685 
 1300000    361.11441   -145014.51   -143520.87    888.68829    356306.97    71.028235    70.826641    70.826641 
 1400000    359.22288   -145019.58   -143533.76    1006.2981    356306.97    71.038291    70.821628    70.821628 
 1500000    358.64458   -145015.12    -143531.7    837.14611    356306.97    71.048284    70.816647    70.816647 
 1600000    361.33605   -145015.29   -143520.73    967.46678    356306.97    71.058209    70.811701    70.811701 
 1700000    357.68158   -145004.41   -143524.97    1194.1136    356306.97    71.068061    70.806793    70.806793 
 1800000    361.04723   -145012.71   -143519.35    909.00064    356306.97    71.077838    70.801923    70.801923 
 1900000    359.85066   -145006.94   -143518.53    1454.2301    356306.97    71.087533    70.797095    70.797095 
 2000000    360.77531   -145011.61   -143519.37    1120.6414    356306.97    71.097144    70.792309    70.792309 
 2100000    361.20681   -145009.71   -143515.69    1051.2312    356306.97    71.106665     70.78757     70.78757 
 2200000    359.33423   -145015.09   -143528.82    786.61445    356306.97    71.116093    70.782877    70.782877 
 2300000    358.27837   -145010.78   -143528.87    1056.0598    356306.97    71.125423    70.778234    70.778234 
 2400000     361.1804   -145017.62   -143523.71    845.77737    356306.97    71.134652    70.773643    70.773643 
 2500000     358.5151   -144998.54   -143515.65    1348.8666    356306.97    71.143775    70.769105    70.769105 
 2600000    359.45985   -145011.27   -143524.48    1022.0949    356306.97    71.152789    70.764622    70.764622 
 2700000    359.15244    -145016.9   -143531.38      1058.48    356306.97    71.161689    70.760197    70.760197 
 2800000    360.08473   -145026.34   -143536.96    606.37858    356306.97    71.170471    70.755831    70.755831 
 2900000     357.3702   -145010.67   -143532.51    1299.3035    356306.97    71.179132    70.751526    70.751526 
 3000000    362.21024   -145004.57   -143506.39    1538.9513    356306.97    71.187668    70.747284    70.747284 
 3100000    359.97002   -145011.48   -143522.58    1177.5317    356306.97    71.196075    70.743107    70.743107 
 3200000    360.92228   -145007.15    -143514.3    1180.6135    356306.97    71.204349    70.738997    70.738997 
 3300000    358.46526    -145013.4   -143530.72    1033.2656    356306.97    71.212487    70.734955    70.734955 
 3400000    362.88328   -145018.58   -143517.63    1067.5267    356306.97    71.220486    70.730983    70.730983 
 3500000    360.49816   -145009.41   -143518.32    944.10922    356306.97    71.228341    70.727082    70.727082 
 3600000    362.03012   -145016.37   -143518.94    853.42856    356306.97    71.236049    70.723256    70.723256 
 3700000    358.83508   -145006.46   -143522.24    1154.7284    356306.97    71.243607    70.719504    70.719504 
 3800000    361.03236   -145020.01   -143526.71    918.58614    356306.97    71.251012    70.715829    70.715829 
 3900000    361.35044   -145012.46   -143517.84    1132.9935    356306.97     71.25826    70.712233    70.712233 
 4000000    357.86229   -145012.21   -143532.03    967.07714    356306.97    71.265348    70.708716    70.708716 
 4100000     359.0174   -145025.39   -143540.43     809.5652    356306.97    71.272273    70.705281    70.705281 
 4200000    357.71209   -145013.56   -143533.99    715.58241    356306.97    71.279032    70.701929    70.701929 
 4300000    358.43839   -144998.94   -143516.37    1121.9355    356306.97    71.285622     70.69866     70.69866 
 4400000    359.48121   -145018.18    -143531.3    1003.8556    356306.97     71.29204    70.695478    70.695478 
 4500000    357.90552   -145007.34   -143526.97    1261.1081    356306.97    71.298284    70.692383    70.692383 
 4600000    360.00892   -145017.04   -143527.98    904.60635    356306.97     71.30435    70.689375    70.689375 
 4700000    358.20123   -145015.63   -143534.04    940.23219    356306.97    71.310236    70.686458    70.686458 
 4800000    361.15316   -145002.91   -143509.11    1124.6051    356306.97    71.315939    70.683631    70.683631 
 4900000    359.40376   -145016.84   -143530.28    1101.5771    356306.97    71.321457    70.680897    70.680897 
 5000000    359.08075   -144998.54   -143513.32     1253.588    356306.97    71.326788    70.678256    70.678256 
 5100000    360.83297    -145020.5   -143528.03    763.34428    356306.97    71.331929    70.675709    70.675709 
 5200000    362.38559   -145010.51   -143511.61    1077.1669    356306.97    71.336877    70.673258    70.673258 
 5300000    360.12838   -145016.24   -143526.68    488.03899    356306.97    71.341631    70.670903    70.670903 
 5400000    358.00744   -145013.77   -143532.98    1073.2908    356306.97    71.346189    70.668646    70.668646 
 5500000    359.97535    -145010.7   -143521.78    1129.5414    356306.97    71.350548    70.666487    70.666487 
 5600000     362.4787   -144999.27   -143499.99    1245.7569    356306.97    71.354707    70.664427    70.664427 
 5700000    358.47302   -145005.83   -143523.11    1214.6818    356306.97    71.358664    70.662468    70.662468 
 5800000    358.24851   -145022.01   -143540.23    912.92651    356306.97    71.362416     70.66061     70.66061 
 5900000    362.05923   -145005.63   -143508.08     1304.824    356306.97    71.365964    70.658854    70.658854 
 6000000    360.68707   -145006.76   -143514.89    1296.0735    356306.97    71.369304    70.657201    70.657201 
 6100000    361.10022   -145016.14   -143522.56    1193.1541    356306.97    71.372435    70.655651    70.655651 
 6200000    356.98562   -145025.33   -143548.77     561.1557    356306.97    71.375357    70.654205    70.654205 
 6300000    356.91151   -145018.18   -143541.92    749.75259    356306.97    71.378067    70.652863    70.652863 
 6400000     361.4384   -145007.45   -143512.47    1001.1589    356306.97    71.380565    70.651627    70.651627 
 6500000    359.76032   -145002.81   -143514.77    1041.0441    356306.97    71.382849    70.650496    70.650496 
 6600000    361.37965   -145015.86   -143521.12    1243.9935    356306.97    71.384919    70.649472    70.649472 
 6700000    359.80762   -145003.01   -143514.77    1429.0487    356306.97    71.386773    70.648555    70.648555 
 6800000    363.11932   -145012.67   -143510.74     1028.746    356306.97    71.388412    70.647744    70.647744 
 6900000    362.49656   -145016.58   -143517.23    844.56193    356306.97    71.389833    70.647041    70.647041 
 7000000    359.84944   -144999.94   -143511.53    939.46709    356306.97    71.391036    70.646445    70.646445 
 7100000    361.48903   -145010.73   -143515.55    1382.7045    356306.97    71.392022    70.645958    70.645958 
 7200000     358.5594   -145007.91   -143524.84    1309.9451    356306.97    71.392789    70.645578    70.645578 
 7300000    361.63852   -145006.53   -143510.72    1101.0049    356306.97    71.393337    70.645307    70.645307 
 7400000    359.28979   -145016.88   -143530.79    842.55612    356306.97    71.393666    70.645144    70.645144 
 7500000    358.35037   -145007.92   -143525.71    1363.6874    356306.97    71.393775     70.64509     70.64509 
 7600000    359.65531   -145014.25   -143526.64    1378.5672    356306.97    71.393666    70.645144    70.645144 
 7700000    360.84139   -145014.99   -143522.48    1213.6544    356306.97    71.393337    70.645307    70.645307 
 7800000    360.75779   -145012.99   -143520.83    1181.5781    356306.97    71.392789    70.645578    70.645578 
 7900000    358.44097   -145013.61   -143531.03    1134.5724    356306.97    71.392022    70.645958    70.645958 
 8000000    364.58703   -145009.81   -143501.81    1345.6244    356306.97    71.391036    70.646445    70.646445 
 8100000    359.31953   -145009.63   -143523.41     1108.728    356306.97    71.389833    70.647041    70.647041 
 8200000    363.03991   -145013.87   -143512.27    884.22586    356306.97    71.388412    70.647744    70.647744 
 8300000    361.08083   -145005.96   -143512.46    1053.7291    356306.97    71.386773    70.648555    70.648555 
 8400000    359.36654   -145012.61    -143526.2     1131.762    356306.97    71.384919    70.649472    70.649472 
 8500000    358.24673   -145018.16   -143536.38    684.29413    356306.97    71.382849    70.650496    70.650496 
 8600000    358.69992   -145012.05    -143528.4    1204.6473    356306.97    71.380565    70.651627    70.651627 
 8700000    358.65094   -145008.86   -143525.41    969.17236    356306.97    71.378067    70.652863    70.652863 
 8800000    358.86612   -144992.05   -143507.71    1310.2447    356306.97    71.375357    70.654205    70.654205 
 8900000    361.73666   -145004.39   -143508.18    1174.0902    356306.97    71.372435    70.655651    70.655651 
 9000000    360.42737   -145010.93   -143520.13    960.91961    356306.97    71.369304    70.657201    70.657201 
 9100000     361.2547   -145018.74   -143524.52    1047.7558    356306.97    71.365964    70.658854    70.658854 
 9200000    358.94124   -145005.66   -143521.01    1283.7935    356306.97    71.362416     70.66061     70.66061 
 9300000    359.08948   -145001.33   -143516.06    1200.6991    356306.97    71.358664    70.662468    70.662468 
 9400000    364.15578      -144998   -143491.78    1338.1954    356306.97    71.354707    70.664427    70.664427 
 9500000     360.4767   -145021.78   -143530.78     1094.002    356306.97    71.350548    70.666487    70.666487 
 9600000    362.42748   -145002.41   -143503.34     1076.185    356306.97    71.346189    70.668646    70.668646 
 9700000    360.94161   -145017.43    -143524.5    1258.9185    356306.97    71.341631    70.670903    70.670903 
 9800000    359.61901   -145006.14   -143518.68    1087.3174    356306.97    71.336877    70.673258    70.673258 
 9900000    358.18073   -145012.13   -143530.63    886.37485    356306.97    71.331929    70.675709    70.675709 
10000000    360.70653   -145009.54   -143517.59    1333.6527    356306.97    71.326788    70.678256    70.678256 
10100000    357.80327    -145015.3   -143535.36    1089.0482    356306.97    71.321457    70.680897    70.680897 
10200000    361.48539   -145015.67   -143520.49    1091.5191    356306.97    71.315939    70.683631    70.683631 
10300000    360.96399   -145021.98   -143528.97     886.5988    356306.97    71.310236    70.686458    70.686458 
10400000    361.35073   -145009.93   -143515.32    1163.2916    356306.97     71.30435    70.689375    70.689375 
10500000     358.7892   -145005.18   -143521.16    1357.1568    356306.97    71.298284    70.692383    70.692383 
10600000    361.16276   -145010.89   -143517.05    1361.3662    356306.97     71.29204    70.695478    70.695478 
10700000    359.65029   -145021.13   -143533.54    902.38175    356306.97    71.285622     70.69866     70.69866 
10800000    360.32042   -145009.94   -143519.59    1001.2011    356306.97    71.279032    70.701929    70.701929 
10900000    358.32885   -145010.44   -143528.32    1066.4823    356306.97    71.272273    70.705281    70.705281 
11000000    361.63302   -145019.52   -143523.73    624.87333    356306.97    71.265348    70.708716    70.708716 
11100000    359.17155   -145009.75   -143524.14    1110.6802    356306.97     71.25826    70.712233    70.712233 
11200000    361.55815   -145012.94   -143517.47    1103.4808    356306.97    71.251012    70.715829    70.715829 
11300000    358.53664   -145012.48    -143529.5    1149.1991    356306.97    71.243607    70.719504    70.719504 
11400000    357.89601   -145009.05   -143528.73    848.20118    356306.97    71.236049    70.723256    70.723256 
11500000    359.85652   -145029.48   -143541.04    822.00826    356306.97    71.228341    70.727082    70.727082 
11600000     357.3046   -145003.96   -143526.08    1218.9458    356306.97    71.220486    70.730983    70.730983 
11700000    361.10343   -145020.22   -143526.63    1026.7375    356306.97    71.212487    70.734955    70.734955 
11800000    360.90498   -145016.56   -143523.79    969.91333    356306.97    71.204349    70.738997    70.738997 
11900000    358.28186   -145017.14   -143535.21    1013.2288    356306.97    71.196075    70.743107    70.743107 
12000000    359.40414    -145007.5   -143520.93    1014.4983    356306.97    71.187668    70.747284    70.747284 
12100000    359.96743   -145010.34   -143521.45    1315.7526    356306.97    71.179132    70.751526    70.751526 
12200000    359.34028   -145010.43   -143524.12    778.48991    356306.97    71.170471    70.755831    70.755831 
12300000    360.24924   -144997.72   -143507.66    1166.9278    356306.97    71.161689    70.760197    70.760197 
12400000    359.23022   -145027.54   -143541.69     749.1691    356306.97    71.152789    70.764622    70.764622 
12500000     362.4384   -145019.98   -143520.86    1008.3838    356306.97    71.143775    70.769105    70.769105 
12600000    358.23129   -145008.71      -143527    1299.5822    356306.97    71.134652    70.773643    70.773643 
12700000    359.84766   -145006.58   -143518.18    1000.4222    356306.97    71.125423    70.778234    70.778234 
12800000    360.81455   -145017.69   -143525.29    1205.5501    356306.97    71.116093    70.782877    70.782877 
12900000    358.29673   -145012.13   -143530.15    982.67635    356306.97    71.106665     70.78757     70.78757 
13000000    360.14069    -145016.3   -143526.68    913.78393    356306.97    71.097144    70.792309    70.792309 
13100000    358.88433   -145007.93   -143523.52    989.07445    356306.97    71.087533    70.797095    70.797095 
13200000    360.05431   -145007.39   -143518.13    1061.4654    356306.97    71.077838    70.801923    70.801923 
13300000    361.70562   -145014.02   -143517.93    973.02453    356306.97    71.068061    70.806793    70.806793 
13400000    358.46741   -145017.78   -143535.09    942.19435    356306.97    71.058209    70.811701    70.811701 
13500000    358.30667    -145012.7   -143530.68    922.55101    356306.97    71.048284    70.816647    70.816647 
13600000    360.47959   -145018.79   -143527.77    1027.6035    356306.97    71.038291    70.821628    70.821628 
13700000    361.59852   -145012.08   -143516.44    974.79303    356306.97    71.028235    70.826641    70.826641 
13800000     360.1848   -145021.18   -143531.39     684.2196    356306.97     71.01812    70.831685    70.831685 
13900000    354.17442   -145023.22   -143558.29    577.97882    356306.97    71.007951    70.836757    70.836757 
14000000    361.35294   -145023.57   -143528.94    801.24809    356306.97    70.997731    70.841855    70.841855 
14100000    360.93566   -145019.03   -143526.13    1006.4909    356306.97    70.987466    70.846976    70.846976 
14200000    359.15756   -145011.88   -143526.33    961.42419    356306.97     70.97716     70.85212     70.85212 
14300000    359.55842   -145027.17   -143539.96     836.9821    356306.97    70.966817    70.857283    70.857283 
14400000    363.15625   -145010.56   -143508.48    1267.6035    356306.97    70.956442    70.862463    70.862463 
14500000    360.80507   -145007.78   -143515.42    985.85594    356306.97     70.94604    70.867658    70.867658 
14600000    358.77892   -145018.63   -143534.65    1185.4205    356306.97    70.935614    70.872865    70.872865 
14700000    358.96904   -145021.92   -143537.15    841.64042    356306.97    70.925171    70.878083    70.878083 
14800000    364.41889   -145008.84   -143501.54    886.23585    356306.97    70.914713    70.883309    70.883309 
14900000    359.59022    -145021.2   -143533.87    722.81797    356306.97    70.904247     70.88854     70.88854 
15000000    359.97795   -145026.46   -143537.53    1019.4219    356306.97    70.893775    70.893775    70.893775 
15100000    357.76901   -145017.75   -143537.95    923.44822    356306.97    70.883304    70.899012    70.899012 
15200000    359.52968   -145003.83   -143516.75    1214.7446    356306.97    70.872838    70.904247    70.904247 
15300000    357.58872   -145019.68   -143540.63    645.04526    356306.97     70.86238    70.909478    70.909478 
15400000    357.98163   -145012.02   -143531.34    900.18801    356306.97    70.851936    70.914704    70.914704 
15500000    357.35319   -145020.83   -143542.75    1017.6017    356306.97    70.841511    70.919922    70.919922 
15600000     359.6191   -145010.47   -143523.01     1325.154    356306.97    70.831109    70.925129    70.925129 
15700000    361.01339   -145010.47   -143517.25    1177.0298    356306.97    70.820734    70.930324    70.930324 
15800000    358.79803   -145008.25   -143524.19    1008.6632    356306.97    70.810391    70.935504    70.935504 
15900000    359.43115   -145008.46   -143521.79    1449.8789    356306.97    70.800085    70.940667    70.940667 
16000000    357.78518   -145010.72   -143530.85     970.7394    356306.97     70.78982    70.945811    70.945811 
16100000    361.13705   -145022.56   -143528.83    1095.6759    356306.97      70.7796    70.950932    70.950932 
16200000    365.02265   -145011.25   -143501.45    1181.9341    356306.97     70.76943     70.95603     70.95603 
16300000     360.4862   -145014.38   -143523.34    1016.7937    356306.97    70.759315    70.961101    70.961101 
16400000    361.72504   -145013.69   -143517.52    810.85146    356306.97    70.749259    70.966144    70.966144 
16500000    358.32049   -145010.11   -143528.03     1242.837    356306.97    70.739267    70.971156    70.971156 
16600000    360.91609   -145015.97   -143523.15     1148.056    356306.97    70.729342    70.976135    70.976135 
16700000    361.29113   -145015.86   -143521.49    1207.6172    356306.97    70.719489    70.981079    70.981079 
16800000    364.28246   -145026.23   -143519.49    963.22034    356306.97    70.709713    70.985986    70.985986 
16900000    357.08289   -145011.34   -143534.38    1101.5529    356306.97    70.700018    70.990853    70.990853 
17000000    360.42994   -145001.48   -143510.67    1043.0047    356306.97    70.690407    70.995679    70.995679 
17100000    362.51847   -145022.18   -143522.73    801.15913    356306.97    70.680886    71.000461    71.000461 
17200000    362.38028   -145021.65   -143522.78    1077.6348    356306.97    70.671458    71.005196    71.005196 
17300000    360.61897   -145016.73   -143525.14    908.03238    356306.97    70.662127    71.009884    71.009884 
17400000       358.66    -145016.7   -143533.22    1052.9464    356306.97    70.652899    71.014522    71.014522 
17500000    359.69853   -145010.92   -143523.14     821.0654    356306.97    70.643775    71.019107    71.019107 
17600000    357.35399   -145008.37   -143530.29    1115.8859    356306.97    70.634762    71.023638    71.023638 
17700000    361.53291   -145022.05   -143526.68    1241.8759    356306.97    70.625862    71.028113    71.028113 
17800000    358.60814   -145013.87    -143530.6    1161.1734    356306.97     70.61708     71.03253     71.03253 
17900000    358.36478    -145021.2   -143538.93    830.45686    356306.97    70.608419    71.036886    71.036886 
18000000    363.11133   -145016.63   -143514.73    1083.7884    356306.97    70.599883     71.04118     71.04118 
18100000    360.77294   -145012.16   -143519.93    1118.6288    356306.97    70.591476     71.04541     71.04541 
18200000    359.47568   -145010.55   -143523.69    1153.4836    356306.97    70.583201    71.049574    71.049574 
18300000    359.39682   -145014.89   -143528.36    1043.8914    356306.97    70.575063    71.053671    71.053671 
18400000    360.50372   -145010.24   -143519.12    1428.4023    356306.97    70.567065    71.057697    71.057697 
18500000    359.76705   -145016.61   -143528.54     1183.509    356306.97     70.55921    71.061652    71.061652 
18600000    357.55082   -145022.13   -143543.23    742.42724    356306.97    70.551502    71.065534    71.065534 
18700000    357.35218   -145004.08      -143526    1318.7766    356306.97    70.543944    71.069341    71.069341 
18800000    359.42945   -145012.49   -143525.82    1208.3323    356306.97    70.536539    71.073071    71.073071 
18900000     360.7508   -145025.51   -143533.37    954.74994    356306.97    70.529291    71.076723    71.076723 
19000000    360.58355   -145012.35    -143520.9    1097.6584    356306.97    70.522203    71.080295    71.080295 
19100000    360.19704   -145011.55    -143521.7    893.09629    356306.97    70.515278    71.083785    71.083785 
19200000    359.16766   -145020.61   -143535.02    938.35574    356306.97    70.508519    71.087192    71.087192 
19300000    358.81643   -145009.93    -143525.8    1194.2305    356306.97    70.501929    71.090515    71.090515 
19400000    357.88504   -145013.92   -143533.64    803.85421    356306.97     70.49551    71.093751    71.093751 
19500000    358.88322   -145004.47   -143520.06    1288.1673    356306.97    70.489267    71.096899    71.096899 
19600000    358.30792   -145021.58   -143539.55    885.69439    356306.97    70.483201    71.099959    71.099959 
19700000    358.05516   -145024.19    -143543.2    643.64538    356306.97    70.477315    71.102928    71.102928 
19800000    359.16933   -145002.94   -143517.34    1417.4527    356306.97    70.471611    71.105805    71.105805 
19900000    357.86605   -145015.25   -143535.04    855.74892    356306.97    70.466093    71.108589    71.108589 
20000000    357.28638   -144998.71    -143520.9    1317.8509    356306.97    70.460763    71.111279    71.111279 
20100000    359.86429   -145008.02   -143519.55    865.15907    356306.97    70.455622    71.113873    71.113873 
20200000    359.29009   -145006.23   -143520.13    1329.3417    356306.97    70.450674     71.11637     71.11637 
20300000    361.23066   -145018.58   -143524.46    994.08332    356306.97    70.445919     71.11877     71.11877 
20400000    360.66803   -145013.11   -143521.31     1011.832    356306.97    70.441362    71.121071    71.121071 
20500000    361.79037    -145010.9   -143514.46     1251.067    356306.97    70.437003    71.123271    71.123271 
20600000    359.47147   -145015.75   -143528.91    844.09499    356306.97    70.432844    71.125371    71.125371 
20700000    362.98606   -145021.43   -143520.05    721.42822    356306.97    70.428887    71.127369    71.127369 
20800000    362.01632   -145014.77    -143517.4    1216.3434    356306.97    70.425134    71.129264    71.129264 
20900000    357.05351   -145011.94    -143535.1    1149.5798    356306.97    70.421587    71.131055    71.131055 
21000000     361.7769   -145016.92   -143520.54    1060.1997    356306.97    70.418247    71.132742    71.132742 
21100000    358.10298    -145009.4   -143528.22    1302.1911    356306.97    70.415116    71.134324    71.134324 
21200000    360.09184   -145017.89   -143528.48    1466.3882    356306.97    70.412194      71.1358      71.1358 
21300000    361.61009   -145011.05   -143515.36    1078.7454    356306.97    70.409484    71.137169    71.137169 
21400000    359.22678   -145009.62   -143523.79    1143.1557    356306.97    70.406986    71.138431    71.138431 
21500000    358.50092   -145007.49   -143524.66    1255.2015    356306.97    70.404702    71.139585    71.139585 
21600000    360.52852   -145007.01   -143515.79    1396.2059    356306.97    70.402632    71.140631    71.140631 
21700000    359.00992   -145014.17   -143529.23    1181.4246    356306.97    70.400777    71.141567    71.141567 
21800000     359.1274   -145014.59   -143529.16    946.85734    356306.97    70.399139    71.142395    71.142395 
21900000    356.51837   -145014.62   -143539.99    1234.2346    356306.97    70.397718    71.143113    71.143113 
22000000    359.77555   -145011.54   -143523.44    1131.7104    356306.97    70.396514    71.143721    71.143721 
22100000    359.93971   -145009.61   -143520.83    1295.0632    356306.97    70.395529    71.144219    71.144219 
22200000     362.0767   -145013.96   -143516.34    1170.1053    356306.97    70.394762    71.144607    71.144607 
22300000    360.82156   -145015.88   -143523.45    1071.7655    356306.97    70.394214    71.144884    71.144884 
22400000    357.30053   -145000.98   -143523.12    1238.9623    356306.97    70.393885     71.14505     71.14505 
22500000    361.80784   -145012.28   -143515.77    1150.8819    356306.97    70.393775    71.145106    71.145106 
22600000    358.92767   -145011.36   -143526.76    1326.2575    356306.97    70.393885     71.14505     71.14505 
22700000    359.85389   -144998.98   -143510.55    1341.1401    356306.97    70.394214    71.144884    71.144884 
22800000    360.84808   -145017.12   -143524.59    1131.6596    356306.97    70.394762    71.144607    71.144607 
22900000    359.98135   -145013.48   -143524.53    1020.5127    356306.97    70.395529    71.144219    71.144219 
23000000    360.82926   -145011.21   -143518.75    994.17725    356306.97    70.396514    71.143721    71.143721 
23100000    357.14117   -145011.17   -143533.96     1110.953    356306.97    70.397718    71.143113    71.143113 
23200000    362.09925   -144997.99   -143500.28    1496.2711    356306.97    70.399139    71.142395    71.142395 
23300000    362.60878   -145015.54   -143515.72     908.9701    356306.97    70.400777    71.141567    71.141567 
23400000    360.67412    -145012.9   -143521.08    1215.0088    356306.97    70.402632    71.140631    71.140631 
23500000    358.74707   -145009.22   -143525.37    1235.4152    356306.97    70.404702    71.139585    71.139585 
23600000    358.19709   -145022.55   -143540.98    868.54616    356306.97    70.406986    71.138431    71.138431 
23700000    361.24588    -145014.9   -143520.71    1221.0117    356306.97    70.409484    71.137169    71.137169 
23800000    358.77555   -145021.65   -143537.69     931.1672    356306.97    70.412194      71.1358      71.1358 
23900000    358.43865    -145007.9   -143525.33    1277.5097    356306.97    70.415116    71.134324    71.134324 
24000000    361.28543   -145008.26   -143513.91    1145.8892    356306.97    70.418247    71.132742    71.132742 
24100000    358.02722   -145019.93   -143539.06    997.45721    356306.97    70.421587    71.131055    71.131055 
24200000    360.84507    -145010.1   -143517.57     867.3929    356306.97    70.425134    71.129264    71.129264 
24300000    358.43237   -145004.07   -143521.52    919.95484    356306.97    70.428887    71.127369    71.127369 
24400000    358.13826   -145015.15   -143533.82    975.42154    356306.97    70.432844    71.125371    71.125371 
24500000    358.64414   -145008.17   -143524.75    1020.0971    356306.97    70.437003    71.123271    71.123271 
24600000     360.1934   -145024.34   -143534.51    749.92089    356306.97    70.441362    71.121071    71.121071 
24700000    359.19885   -144996.11    -143510.4    1298.6958    356306.97    70.445919     71.11877     71.11877 
24800000    359.47992   -145018.88      -143532    830.57773    356306.97    70.450674     71.11637     71.11637 
24900000    359.13786   -145009.04   -143523.58    1233.3037    356306.97    70.455622    71.113873    71.113873 
25000000    359.89031   -145009.09   -143520.52    1231.3881    356306.97    70.460763    71.111279    71.111279 
25100000    359.70055    -145012.7    -143524.9    820.62633    356306.97    70.466093    71.108589    71.108589 
25200000    358.97902   -145015.59   -143530.78    950.18227    356306.97    70.471611    71.105805    71.105805 
25300000    360.49388   -145006.88    -143515.8    1256.0848    356306.97    70.477315    71.102928    71.102928 
25400000    361.92708   -145004.74   -143507.74    1257.9364    356306.97    70.483201    71.099959    71.099959 
25500000    357.70003   -145014.69   -143535.17    731.08435    356306.97    70.489267    71.096899    71.096899 
25600000    359.86467   -145006.31   -143517.84    1346.1388    356306.97     70.49551    71.093751    71.093751 
25700000    358.20706   -145022.97   -143541.35    774.02064    356306.97    70.501929    71.090515    71.090515 
25800000    359.39225   -145008.61   -143522.09    933.39409    356306.97    70.508519    71.087192    71.087192 
25900000    357.71463   -145011.83   -143532.25    1372.5984    356306.97    70.515278    71.083785    71.083785 
26000000     361.3125   -145012.53   -143518.07    983.41483    356306.97    70.522203    71.080295    71.080295 
26100000    361.19485    -145011.6   -143517.63    1298.5514    356306.97    70.529291    71.076723    71.076723 
26200000    357.55253   -145014.25   -143535.34    1023.5558    356306.97    70.536539    71.073071    71.073071 
26300000    359.14921   -145015.52   -143530.01     1122.708    356306.97    70.543944    71.069341    71.069341 
26400000    358.51092   -145007.09   -143524.22    1286.2878    356306.97    70.551502    71.065534    71.065534 
26500000    357.79027   -145020.61   -143540.72    966.84663    356306.97     70.55921    71.061652    71.061652 
26600000     361.0779    -145007.1   -143513.61    1131.8684    356306.97    70.567065    71.057697    71.057697 
26700000    363.12754   -145010.23   -143508.26     1077.356    356306.97    70.575063    71.053671    71.053671 
26800000      360.893   -145016.88   -143524.15    1128.4877    356306.97    70.583201    71.049574    71.049574 
26900000     363.4269   -145018.74   -143515.53    737.53735    356306.97    70.591476     71.04541     71.04541 
27000000    358.69584   -145007.93    -143524.3    1282.0059    356306.97    70.599883     71.04118     71.04118 
27100000    361.73045   -145016.33   -143520.14     1334.581    356306.97    70.608419    71.036886    71.036886 
27200000    363.49113   -145015.89   -143512.42    1331.3848    356306.97     70.61708     71.03253     71.03253 
27300000    362.30144   -145012.34   -143513.79    1109.3725    356306.97    70.625862    71.028113    71.028113 
27400000    359.31359   -145020.84   -143534.65    814.25124    356306.97    70.634762    71.023638    71.023638 
27500000     358.8357   -145017.39   -143533.17    1005.5752    356306.97    70.643775    71.019107    71.019107 
27600000    360.34787    -145022.5   -143532.03    673.09364    356306.97    70.652899    71.014522    71.014522 
27700000    361.56867   -145017.97   -143522.45    1094.8494    356306.97    70.662127    71.009884    71.009884 
27800000    360.84198   -145025.57   -143533.05    976.79724    356306.97    70.671458    71.005196    71.005196 
27900000    358.09049   -145029.35   -143548.22     877.5077    356306.97    70.680886    71.000461    71.000461 
28000000    359.76708   -145008.35   -143520.28    1043.3466    356306.97    70.690407    70.995679    70.995679 
28100000    358.43495   -145023.61   -143541.05    862.23788    356306.97    70.700018    70.990853    70.990853 
28200000    360.04175   -145018.82   -143529.61    788.05382    356306.97    70.709713    70.985986    70.985986 
28300000    360.10309   -145027.91   -143538.45     672.6712    356306.97    70.719489    70.981079    70.981079 
28400000     360.3875   -145017.94    -143527.3    851.21373    356306.97    70.729342    70.976135    70.976135 
28500000    361.44608    -145028.2   -143533.19    762.60081    356306.97    70.739267    70.971156    70.971156 
28600000    359.00696   -145024.85   -143539.93    849.58641    356306.97    70.749259    70.966144    70.966144 
28700000    359.38002   -145022.85   -143536.39    784.73137    356306.97    70.759315    70.961101    70.961101 
28800000     359.0693   -145015.38    -143530.2    1015.7789    356306.97     70.76943     70.95603     70.95603 
28900000    357.07944   -145007.82   -143530.87     834.6783    356306.97      70.7796    70.950932    70.950932 
29000000    360.67058   -145013.18   -143521.38    1029.5604    356306.97     70.78982    70.945811    70.945811 
29100000    360.81391   -145016.79    -143524.4    1200.2657    356306.97    70.800085    70.940667    70.940667 
29200000    362.47437   -145012.61   -143513.34     988.8652    356306.97    70.810391    70.935504    70.935504 
29300000    359.97714   -145016.96   -143528.03    980.57959    356306.97    70.820734    70.930324    70.930324 
29400000    359.85428   -145012.05   -143523.63    1215.0563    356306.97    70.831109    70.925129    70.925129 
29500000      361.555   -145004.15   -143508.69    1158.1448    356306.97    70.841511    70.919922    70.919922 
29600000    358.91711   -145010.43   -143525.88    1040.0639    356306.97    70.851936    70.914704    70.914704 
29700000    360.55518   -145010.93    -143519.6     1273.175    356306.97     70.86238    70.909478    70.909478 
29800000    363.67268   -145003.97   -143499.75    1327.9906    356306.97    70.872838    70.904247    70.904247 
29900000    360.33211   -145028.29   -143537.89    933.83727    356306.97    70.883304    70.899012    70.899012 
30000000    359.08261   -145018.58   -143533.34    1179.7535    356306.97    70.893775    70.893775    70.893775 
30100000    361.15473   -145034.22   -143540.42     777.8326    356306.97    70.904247     70.88854     70.88854 
30200000    359.78706   -145021.55    -143533.4    934.93236    356306.97    70.914713    70.883309    70.883309 
30300000    359.47965   -145019.21   -143532.34    706.49695    356306.97    70.925171    70.878083    70.878083 
30400000     362.0288   -145026.35   -143528.92     996.8927    356306.97    70.935614    70.872865    70.872865 
30500000    363.30493   -145022.45   -143519.75    942.44348    356306.97     70.94604    70.867658    70.867658 
30600000    361.92063    -145015.6   -143518.62    918.23785    356306.97    70.956442    70.862463    70.862463 
30700000    360.79144   -145030.69   -143538.39    539.69373    356306.97    70.966817    70.857283    70.857283 
30800000     360.8615   -145023.45   -143530.85    843.69038    356306.97     70.97716     70.85212     70.85212 
30900000    356.31386    -145012.8   -143539.02    1040.0037    356306.97    70.987466    70.846976    70.846976 
31000000    358.80154   -145016.11   -143532.04    1025.9285    356306.97    70.997731    70.841855    70.841855 
31100000    359.60806   -145024.01    -143536.6    875.65145    356306.97    71.007951    70.836757    70.836757 
31200000     360.8424   -145019.03   -143526.51    939.31683    356306.97     71.01812    70.831685    70.831685 
31300000    357.50329   -145014.93   -143536.23    1098.7503    356306.97    71.028235    70.826641    70.826641 
31400000    358.30339   -145014.31    -143532.3    1059.4269    356306.97    71.038291    70.821628    70.821628 
31500000    362.49767    -145015.7   -143516.34    1121.0722    356306.97    71.048284    70.816647    70.816647 
31600000      360.761   -145011.07    -143518.9     1185.476    356306.97    71.058209    70.811701    70.811701 
31700000    358.00383   -145012.77      -143532    847.86078    356306.97    71.068061    70.806793    70.806793 
31800000    358.25955   -145023.85   -143542.02    727.15702    356306.97    71.077838    70.801923    70.801923 
31900000     362.4538    -145020.6   -143521.42    862.93943    356306.97    71.087533    70.797095    70.797095 
32000000    360.16038   -145022.46   -143532.76    912.61035    356306.97    71.097144    70.792309    70.792309 
32100000    358.13039   -145025.92   -143544.62    950.72041    356306.97    71.106665     70.78757     70.78757 
32200000    359.11781      -145009   -143523.62    1320.6355    356306.97    71.116093    70.782877    70.782877 
32300000    359.15588   -145016.43    -143530.9    921.65972    356306.97    71.125423    70.778234    70.778234 
32400000    358.67722   -145017.71   -143534.16    552.22499    356306.97    71.134652    70.773643    70.773643 
32500000     358.7021   -145009.61   -143525.95    1096.1133    356306.97    71.143775    70.769105    70.769105 
32600000    361.20968   -145018.56   -143524.53    990.13751    356306.97    71.152789    70.764622    70.764622 
32700000    359.64332   -145008.96   -143521.41    1129.3814    356306.97    71.161689    70.760197    70.760197 
32800000    360.59442   -145010.26   -143518.77    987.57993    356306.97    71.170471    70.755831    70.755831 
32900000    361.12128    -145013.8   -143520.13    1175.3911    356306.97    71.179132    70.751526    70.751526 
33000000    357.14396   -145010.55   -143533.33      830.864    356306.97    71.187668    70.747284    70.747284 
33100000    359.11853   -145020.09   -143534.71    1027.2068    356306.97    71.196075    70.743107    70.743107 
33200000    360.64133   -145020.03   -143528.35    801.31449    356306.97    71.204349    70.738997    70.738997 
33300000    358.11844   -145007.96   -143526.71    1367.1879    356306.97    71.212487    70.734955    70.734955 
33400000    361.36482   -145009.27   -143514.59    1055.1661    356306.97    71.220486    70.730983    70.730983 
33500000    359.75152   -145016.77   -143528.77    1041.1753    356306.97    71.228341    70.727082    70.727082 
33600000    359.93221   -145007.94   -143519.19    1195.3058    356306.97    71.236049    70.723256    70.723256 
33700000    361.80404   -145011.57   -143515.07    940.31642    356306.97    71.243607    70.719504    70.719504 
33800000     361.6203   -145009.56   -143513.82    1204.5855    356306.97    71.251012    70.715829    70.715829 
33900000    358.97741   -145007.54   -143522.74    1047.4845    356306.97     71.25826    70.712233    70.712233 
34000000    361.59058   -145024.29   -143528.68    899.94965    356306.97    71.265348    70.708716    70.708716 
34100000    360.89526   -145003.33    -143510.6    1570.1187    356306.97    71.272273    70.705281    70.705281 
34200000    364.41129   -145008.85   -143501.58    1190.3546    356306.97    71.279032    70.701929    70.701929 
34300000    360.25421   -145028.21   -143538.13    595.72281    356306.97    71.285622     70.69866     70.69866 
34400000    360.34872   -145016.46   -143525.99    962.06451    356306.97     71.29204    70.695478    70.695478 
34500000    362.71814    -145015.6   -143515.33     1172.223    356306.97    71.298284    70.692383    70.692383 
34600000    360.77018   -145005.52   -143513.31    1205.4993    356306.97     71.30435    70.689375    70.689375 
34700000    360.05154   -145004.13   -143514.88    1553.7974    356306.97    71.310236    70.686458    70.686458 
34800000    360.62644    -145017.5   -143525.88     949.5368    356306.97    71.315939    70.683631    70.683631 
34900000    362.03438   -145007.38   -143509.94    1121.6795    356306.97    71.321457    70.680897    70.680897 
35000000    358.24228   -145010.09   -143528.33    1148.7197    356306.97    71.326788    70.678256    70.678256 
35100000    362.54155   -145006.65    -143507.1     1087.807    356306.97    71.331929    70.675709    70.675709 
35200000    357.51757   -145007.46    -143528.7    1013.9017    356306.97    71.336877    70.673258    70.673258 
35300000    360.11459   -145006.36   -143516.86    1154.4719    356306.97    71.341631    70.670903    70.670903 
35400000    360.84506   -145015.75   -143523.22    1181.4606    356306.97    71.346189    70.668646    70.668646 
35500000    358.53824   -145004.56   -143521.58    1102.2768    356306.97    71.350548    70.666487    70.666487 
35600000    362.11143    -145004.6   -143506.83    1177.7461    356306.97    71.354707    70.664427    70.664427 
35700000    355.59947   -145020.52   -143549.69    876.26869    356306.97    71.358664    70.662468    70.662468 
35800000    359.81551   -145011.66    -143523.4    1297.2751    356306.97    71.362416     70.66061     70.66061 
35900000    361.06207   -145016.11   -143522.69    1127.1437    356306.97    71.365964    70.658854    70.658854 
36000000    359.42497    -145009.7   -143523.04    1281.0647    356306.97    71.369304    70.657201    70.657201 
36100000    356.75009    -145015.6   -143540.01    974.13671    356306.97    71.372435    70.655651    70.655651 
36200000    359.19593    -145011.9   -143526.19    1009.3534    356306.97    71.375357    70.654205    70.654205 
36300000    360.45654   -144998.03   -143507.11    1396.5927    356306.97    71.378067    70.652863    70.652863 
36400000    360.03768   -145011.86   -143522.67    1191.6649    356306.97    71.380565    70.651627    70.651627 
36500000    359.79606   -145013.02   -143524.83    1081.3043    356306.97    71.382849    70.650496    70.650496 
36600000    361.79106   -145011.71   -143515.27    760.48657    356306.97    71.384919    70.649472    70.649472 
36700000    360.41912   -144999.35   -143508.58    1361.6072    356306.97    71.386773    70.648555    70.648555 
36800000    360.34669   -145022.69   -143532.23    1138.8006    356306.97    71.388412    70.647744    70.647744 
36900000    360.43259   -145014.54   -143523.72    1065.5608    356306.97    71.389833    70.647041    70.647041 
37000000    360.45799   -145017.29   -143526.36    950.82649    356306.97    71.391036    70.646445    70.646445 
37100000    358.65174   -145004.25   -143520.79    1174.1806    356306.97    71.392022    70.645958    70.645958 
37200000    357.00652   -145012.91   -143536.26     1092.726    356306.97    71.392789    70.645578    70.645578 
37300000    360.16429   -145010.45   -143520.74     1105.432    356306.97    71.393337    70.645307    70.645307 
37400000    359.78319   -145002.49   -143514.36     1063.904    356306.97    71.393666    70.645144    70.645144 
37500000    362.59193   -144999.59   -143499.84    1324.7631    356306.97    71.393775     70.64509     70.64509 
37600000    359.45384   -145012.44   -143525.67    919.27195    356306.97    71.393666    70.645144    70.645144 
37700000    359.22043   -145016.25   -143530.44    869.22844    356306.97    71.393337    70.645307    70.645307 
37800000    362.85698   -145012.17   -143511.32    944.69916    356306.97    71.392789    70.645578    70.645578 
37900000    361.60641   -145013.11   -143517.44    1362.7218    356306.97    71.392022    70.645958    70.645958 
38000000    359.64382   -145009.69   -143522.13    915.10292    356306.97    71.391036    70.646445    70.646445 
38100000    359.50515   -145010.54   -143523.56    1209.3837    356306.97    71.389833    70.647041    70.647041 
38200000      361.437   -145009.53   -143514.56    1012.5951    356306.97    71.388412    70.647744    70.647744 
38300000    362.22184   -145007.75   -143509.53    1157.1382    356306.97    71.386773    70.648555    70.648555 
38400000    360.24513   -145014.65   -143524.61    1264.8128    356306.97    71.384919    70.649472    70.649472 
38500000    359.93651   -145013.36   -143524.59    940.21321    356306.97    71.382849    70.650496    70.650496 
38600000     357.8394    -145016.5    -143536.4    947.28211    356306.97    71.380565    70.651627    70.651627 
38700000      362.296   -144998.82   -143500.29    1171.9673    356306.97    71.378067    70.652863    70.652863 
38800000    361.69616   -145015.44    -143519.4    1032.9264    356306.97    71.375357    70.654205    70.654205 
38900000    359.97046   -145014.52   -143525.61    981.12522    356306.97    71.372435    70.655651    70.655651 
39000000    361.79207   -145012.41   -143515.97    960.61497    356306.97    71.369304    70.657201    70.657201 
39100000    359.52725   -145009.99   -143522.92    1285.4238    356306.97    71.365964    70.658854    70.658854 
39200000    360.83382   -145009.69   -143517.21    1202.9736    356306.97    71.362416     70.66061     70.66061 
39300000    360.15274   -145007.66      -143518    1003.2578    356306.97    71.358664    70.662468    70.662468 
39400000    358.39596   -145021.41   -143539.02    955.70459    356306.97    71.354707    70.664427    70.664427 
39500000    359.57861   -145007.99   -143520.71    1210.0715    356306.97    71.350548    70.666487    70.666487 
39600000    356.28399   -145011.95   -143538.29    755.97321    356306.97    71.346189    70.668646    70.668646 
39700000    362.15364   -145000.36   -143502.43      1271.84    356306.97    71.341631    70.670903    70.670903 
39800000    359.67866   -144995.06   -143507.36    1306.1929    356306.97    71.336877    70.673258    70.673258 
39900000    357.86893   -144997.31   -143517.09    1277.4473    356306.97    71.331929    70.675709    70.675709 
40000000    358.28379   -145013.64   -143531.71     894.7075    356306.97    71.326788    70.678256    70.678256 
40100000    361.74878   -145003.04   -143506.78    1074.6656    356306.97    71.321457    70.680897    70.680897 
40200000    359.93584   -145017.73   -143528.96    1081.8365    356306.97    71.315939    70.683631    70.683631 
40300000    359.40241   -145020.97   -143534.41    902.43303    356306.97    71.310236    70.686458    70.686458 
40400000     361.2019   -145004.62   -143510.62    1260.8567    356306.97     71.30435    70.689375    70.689375 
40500000    360.78429   -145020.18   -143527.91     830.2879    356306.97    71.298284    70.692383    70.692383 
40600000    357.88056   -145018.44   -143538.17    977.38966    356306.97     71.29204    70.695478    70.695478 
40700000     357.8746   -145011.42   -143531.18    846.35931    356306.97    71.285622     70.69866     70.69866 
40800000    357.54128   -145001.12   -143522.26    1175.5396    356306.97    71.279032    70.701929    70.701929 
40900000    359.57262   -145012.55   -143525.29    1084.5143    356306.97    71.272273    70.705281    70.705281 
41000000    359.71037   -145029.03    -143541.2     932.8713    356306.97    71.265348    70.708716    70.708716 
41100000    359.73274   -145004.09   -143516.17    1068.6401    356306.97     71.25826    70.712233    70.712233 
41200000    361.45367   -145004.64    -143509.6    1231.0874    356306.97    71.251012    70.715829    70.715829 
41300000    360.45309   -145006.01   -143515.11    1327.0434    356306.97    71.243607    70.719504    70.719504 
41400000    358.59592   -145006.61   -143523.38    1112.1592    356306.97    71.236049    70.723256    70.723256 
41500000    362.65132   -145013.65   -143513.66     1134.822    356306.97    71.228341    70.727082    70.727082 
41600000    360.29494   -145009.94   -143519.69    1017.6003    356306.97    71.220486    70.730983    70.730983 
41700000    360.02915   -145016.46    -143527.3    1029.9618    356306.97    71.212487    70.734955    70.734955 
41800000    359.54252   -145027.96   -143540.82    1019.4749    356306.97    71.204349    70.738997    70.738997 
41900000    360.58383   -145015.87   -143524.42    988.05732    356306.97    71.196075    70.743107    70.743107 
42000000    362.02166   -145020.35   -143522.95     779.9761    356306.97    71.187668    70.747284    70.747284 
42100000    361.73869   -145009.91   -143513.68    1303.4319    356306.97    71.179132    70.751526    70.751526 
42200000    357.16347   -145019.14   -143541.85    1010.8863    356306.97    71.170471    70.755831    70.755831 
42300000    360.89433   -145025.87   -143533.14    920.92605    356306.97    71.161689    70.760197    70.760197 
42400000    358.77434    -145019.6   -143535.64    937.57583    356306.97    71.152789    70.764622    70.764622 
42500000      363.399    -144998.9   -143495.82    1297.5267    356306.97    71.143775    70.769105    70.769105 
42600000    360.44463   -145016.35   -143525.48    1135.6739    356306.97    71.134652    70.773643    70.773643 
42700000    356.85256   -145017.98   -143541.97    965.59198    356306.97    71.125423    70.778234    70.778234 
42800000    359.55438   -145017.53   -143530.34    1130.5751    356306.97    71.116093    70.782877    70.782877 
42900000     360.8407   -145024.85   -143532.35    1092.9574    356306.97    71.106665     70.78757     70.78757 
43000000    359.78183   -145008.24   -143520.11    1379.3712    356306.97    71.097144    70.792309    70.792309 
43100000    363.11637   -145012.94   -143511.02    932.19499    356306.97    71.087533    70.797095    70.797095 
43200000    359.30071   -145009.41   -143523.27    1337.0463    356306.97    71.077838    70.801923    70.801923 
43300000    362.50992   -145007.82    -143508.4    997.50618    356306.97    71.068061    70.806793    70.806793 
43400000    357.77276   -145019.61    -143539.8     1019.075    356306.97    71.058209    70.811701    70.811701 
43500000    358.39962    -145005.3   -143522.89    1340.5874    356306.97    71.048284    70.816647    70.816647 
43600000    359.23002   -145007.36   -143521.52    1310.0566    356306.97    71.038291    70.821628    70.821628 
43700000    358.68714   -144999.82   -143516.22    1411.2809    356306.97    71.028235    70.826641    70.826641 
43800000    359.41031    -145013.7    -143527.1    950.46924    356306.97     71.01812    70.831685    70.831685 
43900000    360.49477   -145015.84   -143524.76      1091.03    356306.97    71.007951    70.836757    70.836757 
44000000    360.93043   -145019.22   -143526.34    1085.9411    356306.97    70.997731    70.841855    70.841855 
44100000    360.60359   -145020.55   -143529.03    961.84359    356306.97    70.987466    70.846976    70.846976 
44200000    359.15087   -145013.41   -143527.89     1089.709    356306.97     70.97716     70.85212     70.85212 
44300000    361.81551    -145013.2   -143516.66    1132.3357    356306.97    70.966817    70.857283    70.857283 
44400000    356.74348   -145027.21   -143551.65    1186.2888    356306.97    70.956442    70.862463    70.862463 
44500000    358.97972   -145016.56   -143531.75    950.07457    356306.97     70.94604    70.867658    70.867658 
44600000    362.96904   -145030.21    -143528.9    824.23836    356306.97    70.935614    70.872865    70.872865 
44700000    359.29557   -145015.26   -143529.14    1179.6032    356306.97    70.925171    70.878083    70.878083 
44800000    358.15281   -145005.47   -143524.08    1082.1976    356306.97    70.914713    70.883309    70.883309 
44900000    358.77445    -144998.6   -143514.64    1157.9569    356306.97    70.904247     70.88854     70.88854 
45000000    358.58989   -145025.95   -143542.75    688.70348    356306.97    70.893775    70.893775    70.893775 
45100000    358.13483   -145024.53   -143543.21    722.02735    356306.97    70.883304    70.899012    70.899012 
45200000    361.69274   -145013.14   -143517.11    1046.5721    356306.97    70.872838    70.904247    70.904247 
45300000    360.07765   -145020.77   -143531.42    857.98442    356306.97     70.86238    70.909478    70.909478 
45400000    360.65558   -145020.93   -143529.19     1183.229    356306.97    70.851936    70.914704    70.914704 
45500000    357.27113   -145008.28   -143530.54    1051.4581    356306.97    70.841511    70.919922    70.919922 
45600000    358.37838   -145026.14   -143543.82    869.78961    356306.97    70.831109    70.925129    70.925129 
45700000    359.56893   -145030.37   -143543.12     839.2088    356306.97    70.820734    70.930324    70.930324 
45800000    362.66269   -145025.67   -143525.62    925.27547    356306.97    70.810391    70.935504    70.935504 
45900000    359.39998    -145010.7   -143524.15    1167.0524    356306.97    70.800085    70.940667    70.940667 
46000000    359.75551   -145027.54   -143539.52    914.92281    356306.97     70.78982    70.945811    70.945811 
46100000    359.35334   -145025.27   -143538.92    888.39439    356306.97      70.7796    70.950932    70.950932 
46200000    356.78289   -145006.93   -143531.21    1140.4027    356306.97     70.76943     70.95603     70.95603 
46300000    360.65625   -145014.97   -143523.22    919.05184    356306.97    70.759315    70.961101    70.961101 
46400000    358.36314   -145030.08   -143547.82    603.47967    356306.97    70.749259    70.966144    70.966144 
46500000    357.98515   -145028.65   -143547.95    582.93286    356306.97    70.739267    70.971156    70.971156 
46600000    358.07803    -145018.3   -143537.22    962.55995    356306.97    70.729342    70.976135    70.976135 
46700000    360.51801   -145009.21   -143518.04    1244.9867    356306.97    70.719489    70.981079    70.981079 
46800000    360.22258   -145007.23   -143517.27    1102.9072    356306.97    70.709713    70.985986    70.985986 
46900000     360.7756   -145011.91   -143519.67    1037.3866    356306.97    70.700018    70.990853    70.990853 
47000000    359.36745   -145022.79   -143536.38    874.40418    356306.97    70.690407    70.995679    70.995679 
47100000    360.75451   -145016.29   -143524.14    839.34832    356306.97    70.680886    71.000461    71.000461 
47200000    358.29014   -145014.92   -143532.96    1032.2154    356306.97    70.671458    71.005196    71.005196 
47300000     362.6027   -145014.73   -143514.94     1225.051    356306.97    70.662127    71.009884    71.009884 
47400000    357.89682   -145021.49   -143541.16    649.39026    356306.97    70.652899    71.014522    71.014522 
47500000    359.79987   -145014.65   -143526.45    943.01097    356306.97    70.643775    71.019107    71.019107 
47600000    359.56039   -145015.45   -143528.24    1155.3262    356306.97    70.634762    71.023638    71.023638 
47700000    358.76558   -145021.52   -143537.59    1085.7312    356306.97    70.625862    71.028113    71.028113 
47800000     354.2553   -145010.97    -143545.7    987.41654    356306.97     70.61708     71.03253     71.03253 
47900000    360.87747   -145021.41   -143528.75    815.08867    356306.97    70.608419    71.036886    71.036886 
48000000    362.07315   -145011.03   -143513.42    1261.9099    356306.97    70.599883     71.04118     71.04118 
48100000    359.76954   -145021.79   -143533.71    1162.6297    356306.97    70.591476     71.04541     71.04541 
48200000    362.07048   -145012.76   -143515.17    1130.4958    356306.97    70.583201    71.049574    71.049574 
48300000    357.62588   -145013.86   -143534.65    1289.0209    356306.97    70.575063    71.053671    71.053671 
48400000    359.92432   -145029.37   -143540.65       788.07    356306.97    70.567065    71.057697    71.057697 
48500000    360.25921   -145019.29   -143529.19    1330.5458    356306.97     70.55921    71.061652    71.061652 
48600000    361.52143    -145021.2   -143525.88    1099.5189    356306.97    70.551502    71.065534    71.065534 
48700000    360.80836   -145020.75   -143528.38    1006.0993    356306.97    70.543944    71.069341    71.069341 
48800000    356.74353   -145012.03   -143536.47    1042.0673    356306.97    70.536539    71.073071    71.073071 
48900000    359.46029   -145010.53   -143523.73     966.6155    356306.97    70.529291    71.076723    71.076723 
49000000    358.84333   -145014.08   -143529.83    886.40487    356306.97    70.522203    71.080295    71.080295 
49100000    361.25261   -145026.97   -143532.76    905.54222    356306.97    70.515278    71.083785    71.083785 
49200000     360.1418   -145017.82    -143528.2    1172.6468    356306.97    70.508519    71.087192    71.087192 
49300000    363.14495   -145017.58   -143515.54    1013.1106    356306.97    70.501929    71.090515    71.090515 
49400000    358.18943   -145021.57   -143540.03     910.8861    356306.97     70.49551    71.093751    71.093751 
49500000    357.38509   -145008.96   -143530.74    1066.4609    356306.97    70.489267    71.096899    71.096899 
49600000    359.76776   -145024.48   -143536.41    1153.1718    356306.97    70.483201    71.099959    71.099959 
49700000    361.60927   -145011.27   -143515.58    1201.5343    356306.97    70.477315    71.102928    71.102928 
49800000    356.36928   -145015.95   -143541.94    1106.1001    356306.97    70.471611    71.105805    71.105805 
49900000    358.69422   -145021.53    -143537.9    1124.3827    356306.97    70.466093    71.108589    71.108589 
50000000    362.15023   -145008.14   -143510.22    1191.7332    356306.97    70.460763    71.111279    71.111279 
50100000     360.4578   -145023.43    -143532.5    1009.1848    356306.97    70.455622    71.113873    71.113873 
50200000    359.13298   -145012.39   -143526.95    1005.4852    356306.97    70.450674     71.11637     71.11637 
50300000    360.18961   -145011.07   -143521.26    1062.8695    356306.97    70.445919     71.11877     71.11877 
50400000    360.70262    -145009.7   -143517.76    1380.6097    356306.97    70.441362    71.121071    71.121071 
50500000    359.84731   -145013.83   -143525.43    1185.6582    356306.97    70.437003    71.123271    71.123271 
50600000    362.90676   -145015.72   -143514.67    1043.2539    356306.97    70.432844    71.125371    71.125371 
50700000    360.71109   -145016.36   -143524.39    1183.7718    356306.97    70.428887    71.127369    71.127369 
50800000    358.92119   -145005.75   -143521.18     1333.325    356306.97    70.425134    71.129264    71.129264 
50900000     356.5233   -145016.07   -143541.42    1068.0502    356306.97    70.421587    71.131055    71.131055 
51000000    361.40945   -145004.05   -143509.19    1125.3742    356306.97    70.418247    71.132742    71.132742 
51100000    360.78563   -145018.72   -143526.44    865.04608    356306.97    70.415116    71.134324    71.134324 
51200000    361.51629   -145021.19   -143525.89    885.43892    356306.97    70.412194      71.1358      71.1358 
51300000    358.21319   -145026.91   -143545.27    874.60764    356306.97    70.409484    71.137169    71.137169 
51400000    358.64979   -145009.39   -143525.94    1298.2932    356306.97    70.406986    71.138431    71.138431 
51500000    362.77128   -145020.87   -143520.38    843.84213    356306.97    70.404702    71.139585    71.139585 
51600000    359.99168   -145020.95   -143531.95    853.67304    356306.97    70.402632    71.140631    71.140631 
51700000    360.08874   -145006.18   -143516.78    1377.1611    356306.97    70.400777    71.141567    71.141567 
51800000    362.01851   -145015.94   -143518.56    753.47254    356306.97    70.399139    71.142395    71.142395 
51900000    358.32858   -145008.03   -143525.92    1033.0652    356306.97    70.397718    71.143113    71.143113 
52000000    357.53834    -145010.6   -143531.75    939.38571    356306.97    70.396514    71.143721    71.143721 
52100000    361.22683   -145013.57   -143519.46    1294.8037    356306.97    70.395529    71.144219    71.144219 
52200000    361.77696   -145009.35   -143512.97    1142.6382    356306.97    70.394762    71.144607    71.144607 
52300000    363.42822   -145004.32   -143501.11    1183.7288    356306.97    70.394214    71.144884    71.144884 
52400000    360.27478   -145008.89   -143518.72    1292.9668    356306.97    70.393885     71.14505     71.14505 
52500000    357.58601   -145010.98   -143531.94    1146.0769    356306.97    70.393775    71.145106    71.145106 
52600000    361.28913   -145005.62   -143511.25    1280.8826    356306.97    70.393885     71.14505     71.14505 
52700000    357.42483   -145017.53   -143539.15    986.07864    356306.97    70.394214    71.144884    71.144884 
52800000    360.35929   -145019.88   -143529.37      1030.97    356306.97    70.394762    71.144607    71.144607 
52900000    359.44591   -145009.11   -143522.37    1114.0758    356306.97    70.395529    71.144219    71.144219 
53000000    359.70711   -145007.28   -143519.46    1001.0548    356306.97    70.396514    71.143721    71.143721 
53100000    361.60501   -145010.42   -143514.75    1287.7644    356306.97    70.397718    71.143113    71.143113 
53200000    359.10544   -145019.43    -143534.1    1165.9568    356306.97    70.399139    71.142395    71.142395 
53300000    359.03469   -145011.35   -143526.31    1085.1633    356306.97    70.400777    71.141567    71.141567 
53400000     361.9388   -145012.45    -143515.4    1204.6388    356306.97    70.402632    71.140631    71.140631 
53500000    361.82112   -145022.18   -143525.62      944.835    356306.97    70.404702    71.139585    71.139585 
53600000    362.27471   -145017.09   -143518.65    1151.5716    356306.97    70.406986    71.138431    71.138431 
53700000    362.17071   -145024.75   -143526.74    1066.7191    356306.97    70.409484    71.137169    71.137169 
53800000    360.34221   -145008.55   -143518.11    1044.0829    356306.97    70.412194      71.1358      71.1358 
53900000    359.03616   -145012.67   -143527.62    1259.1392    356306.97    70.415116    71.134324    71.134324 
54000000    361.87937   -145008.28   -143511.47    1105.1192    356306.97    70.418247    71.132742    71.132742 
54100000    359.92528   -145012.03   -143523.31    1125.5283    356306.97    70.421587    71.131055    71.131055 
54200000     358.9239   -145007.57   -143522.99    1300.8129    356306.97    70.425134    71.129264    71.129264 
54300000    360.35937   -145014.44   -143523.92     1254.368    356306.97    70.428887    71.127369    71.127369 
54400000    359.22076   -145016.35   -143530.54     1171.038    356306.97    70.432844    71.125371    71.125371 
54500000    361.46303   -145002.71   -143507.63    1536.1325    356306.97    70.437003    71.123271    71.123271 
54600000    358.17797    -145010.9    -143529.4    966.34899    356306.97    70.441362    71.121071    71.121071 
54700000    360.08184   -145024.03   -143534.66    1001.1657    356306.97    70.445919     71.11877     71.11877 
54800000    361.63619   -145010.57   -143514.77    1111.5449    356306.97    70.450674     71.11637     71.11637 
54900000    359.03747      -145038   -143552.95    887.43516    356306.97    70.455622    71.113873    71.113873 
55000000    360.07668   -145015.78   -143526.44    814.76283    356306.97    70.460763    71.111279    71.111279 
55100000    358.65785   -145023.57   -143540.09    1092.6421    356306.97    70.466093    71.108589    71.108589 
55200000    361.66854    -145014.3   -143518.37    1019.8614    356306.97    70.471611    71.105805    71.105805 
55300000    361.82557   -145010.91   -143514.33    1294.8163    356306.97    70.477315    71.102928    71.102928 
55400000    360.42265    -145012.7   -143521.92    843.61953    356306.97    70.483201    71.099959    71.099959 
55500000    362.12927   -145019.88   -143522.04    1245.0817    356306.97    70.489267    71.096899    71.096899 
55600000     360.8869   -145020.25   -143527.55    1177.5471    356306.97     70.49551    71.093751    71.093751 
55700000    360.63692   -145013.07    -143521.4     1068.454    356306.97    70.501929    71.090515    71.090515 
55800000    359.24572   -145015.44   -143529.53    826.48013    356306.97    70.508519    71.087192    71.087192 
55900000     357.5851   -145010.99   -143531.95    1097.8862    356306.97    70.515278    71.083785    71.083785 
56000000     358.9901   -145009.59   -143524.74    1139.3971    356306.97    70.522203    71.080295    71.080295 
56100000     362.1647   -145015.24   -143517.26    1012.4585    356306.97    70.529291    71.076723    71.076723 
56200000    358.22898   -145008.88   -143527.18    1282.0486    356306.97    70.536539    71.073071    71.073071 
56300000    358.39573   -144998.95   -143516.55    1297.2065    356306.97    70.543944    71.069341    71.069341 
56400000    363.51091   -145008.12   -143504.57    1142.5543    356306.97    70.551502    71.065534    71.065534 
56500000    356.61289   -145013.29   -143538.27    1223.0716    356306.97     70.55921    71.061652    71.061652 
56600000    358.32357    -145009.4    -143527.3    1063.5204    356306.97    70.567065    71.057697    71.057697 
56700000      358.816   -145024.49   -143540.36    821.18534    356306.97    70.575063    71.053671    71.053671 
56800000    359.41693   -145004.56   -143517.94    1159.7364    356306.97    70.583201    71.049574    71.049574 
56900000    357.08944   -145020.99      -143544    751.93143    356306.97    70.591476     71.04541     71.04541 
57000000    359.38304   -145026.08    -143539.6    930.75654    356306.97    70.599883     71.04118     71.04118 
57100000    359.00328   -145012.79   -143527.88    879.49975    356306.97    70.608419    71.036886    71.036886 
57200000    360.85028   -145015.24    -143522.7     985.5188    356306.97     70.61708     71.03253     71.03253 
57300000    360.29418    -145015.8   -143525.55    909.79571    356306.97    70.625862    71.028113    71.028113 
57400000    358.10323   -145014.27   -143533.08    966.30422    356306.97    70.634762    71.023638    71.023638 
57500000    359.55264   -145012.11   -143524.93    1058.0742    356306.97    70.643775    71.019107    71.019107 
57600000    362.89273   -145020.37   -143519.38    831.81706    356306.97    70.652899    71.014522    71.014522 
57700000    361.15882   -145033.63    -143539.8    863.18722    356306.97    70.662127    71.009884    71.009884 
57800000    356.98858   -145003.56   -143526.98    1356.3127    356306.97    70.671458    71.005196    71.005196 
57900000    359.54972   -145018.16   -143530.99    834.02841    356306.97    70.680886    71.000461    71.000461 
58000000    357.98673   -145021.38   -143540.68    1013.1207    356306.97    70.690407    70.995679    70.995679 
58100000    360.63618    -145026.5   -143534.84    1010.1318    356306.97    70.700018    70.990853    70.990853 
58200000    359.80816   -145003.08   -143514.84    1327.9259    356306.97    70.709713    70.985986    70.985986 
58300000    360.46766   -145018.85   -143527.89    923.94338    356306.97    70.719489    70.981079    70.981079 
58400000    361.53759   -145012.02   -143516.63    1391.0259    356306.97    70.729342    70.976135    70.976135 
58500000    357.86751   -145019.96   -143539.75    1006.1922    356306.97    70.739267    70.971156    70.971156 
58600000    358.87482   -145013.53   -143529.15     1018.429    356306.97    70.749259    70.966144    70.966144 
58700000    360.09165   -145024.23   -143534.82     965.4555    356306.97    70.759315    70.961101    70.961101 
58800000    357.32605   -145013.13   -143535.16    1005.2198    356306.97     70.76943     70.95603     70.95603 
58900000     359.0733   -145018.79   -143533.59     1051.149    356306.97      70.7796    70.950932    70.950932 
59000000     360.3578   -145016.18   -143525.67     936.8062    356306.97     70.78982    70.945811    70.945811 
59100000    359.16655   -145019.19    -143533.6    719.07313    356306.97    70.800085    70.940667    70.940667 
59200000    363.66085   -145023.53   -143519.36    853.80368    356306.97    70.810391    70.935504    70.935504 
59300000    357.94559   -145007.53      -143527    1088.3554    356306.97    70.820734    70.930324    70.930324 
59400000    360.37951   -145020.92   -143530.32    1028.9985    356306.97    70.831109    70.925129    70.925129 
59500000    360.69337   -145026.32   -143534.42    887.19805    356306.97    70.841511    70.919922    70.919922 
59600000    358.55909   -145013.92   -143530.85    1127.0063    356306.97    70.851936    70.914704    70.914704 
59700000    356.90591   -145022.92   -143546.68    872.81808    356306.97     70.86238    70.909478    70.909478 
59800000    360.80408   -145013.19   -143520.84    981.60823    356306.97    70.872838    70.904247    70.904247 
59900000    361.66745   -145021.39   -143525.46    813.39989    356306.97    70.883304    70.899012    70.899012 
60000000    360.45252   -145015.81   -143524.91    1023.3661    356306.97    70.893775    70.893775    70.893775 
60100000    362.32835   -145007.16    -143508.5    1036.5982    356306.97    70.904247     70.88854     70.88854 
60200000    359.51978    -145011.8   -143524.76    1107.0524    356306.97    70.914713    70.883309    70.883309 
60300000    358.66487   -145015.92   -143532.41     1051.083    356306.97    70.925171    70.878083    70.878083 
60400000    362.07438   -145016.64   -143519.03    1367.3521    356306.97    70.935614    70.872865    70.872865 
60500000    358.75468   -145023.51   -143539.63    1066.6806    356306.97     70.94604    70.867658    70.867658 
60600000    359.23586    -145025.4   -143539.53    761.93567    356306.97    70.956442    70.862463    70.862463 
60700000    358.29205   -145014.11   -143532.14       1054.5    356306.97    70.966817    70.857283    70.857283 
60800000    360.22548   -145014.69   -143524.72    1121.2456    356306.97     70.97716     70.85212     70.85212 
60900000    360.36212    -145008.3   -143517.77    1190.6081    356306.97    70.987466    70.846976    70.846976 
61000000    360.64668   -145017.38   -143525.67    893.29864    356306.97    70.997731    70.841855    70.841855 
61100000    360.76739   -145014.38   -143522.17    1107.6063    356306.97    71.007951    70.836757    70.836757 
61200000    361.02875   -145012.98   -143519.69    891.22066    356306.97     71.01812    70.831685    70.831685 
61300000    361.55464   -145016.52   -143521.06     1038.294    356306.97    71.028235    70.826641    70.826641 
61400000    359.93479   -145006.83   -143518.06    1370.0903    356306.97    71.038291    70.821628    70.821628 
61500000    359.92737   -145017.79   -143529.06    978.44597    356306.97    71.048284    70.816647    70.816647 
61600000    360.79067   -145005.07   -143512.77    1243.3542    356306.97    71.058209    70.811701    70.811701 
61700000    358.60364    -145026.3   -143543.04    824.26249    356306.97    71.068061    70.806793    70.806793 
61800000    359.40994   -145019.58   -143532.99    993.15535    356306.97    71.077838    70.801923    70.801923 
61900000    361.80322    -145009.4   -143512.91     1235.367    356306.97    71.087533    70.797095    70.797095 
62000000    361.19927   -145020.88   -143526.88    1088.7295    356306.97    71.097144    70.792309    70.792309 
62100000    361.64646   -145020.22   -143524.38    842.57226    356306.97    71.106665     70.78757     70.78757 
62200000     358.1749    -145006.8   -143525.32    1002.6646    356306.97    71.116093    70.782877    70.782877 
62300000    358.54086   -145008.65   -143525.65    1045.9616    356306.97    71.125423    70.778234    70.778234 
62400000    358.02253   -145006.67   -143525.82    1222.0181    356306.97    71.134652    70.773643    70.773643 
62500000    359.40437   -145025.07    -143538.5    780.62158    356306.97    71.143775    70.769105    70.769105 
62600000    357.41344   -145018.31   -143539.97    853.96383    356306.97    71.152789    70.764622    70.764622 
62700000     361.5223   -145014.48   -143519.15     1179.037    356306.97    71.161689    70.760197    70.760197 
62800000    360.10111   -145022.67   -143533.22    1004.6368    356306.97    71.170471    70.755831    70.755831 
62900000    360.43956   -145009.36   -143518.51    1091.5479    356306.97    71.179132    70.751526    70.751526 
63000000    358.39062   -145023.99   -143541.61    990.44569    356306.97    71.187668    70.747284    70.747284 
63100000    359.54672   -145007.26   -143520.11    1100.9834    356306.97    71.196075    70.743107    70.743107 
63200000    359.14543   -145020.43   -143534.94    1096.6592    356306.97    71.204349    70.738997    70.738997 
63300000    361.50556   -145024.71   -143529.45    789.61631    356306.97    71.212487    70.734955    70.734955 
63400000    356.25396   -145017.94    -143544.4    828.01315    356306.97    71.220486    70.730983    70.730983 
63500000    362.98255   -145013.38   -143512.01    1277.4907    356306.97    71.228341    70.727082    70.727082 
63600000    360.44382   -145013.93   -143523.06    1066.7378    356306.97    71.236049    70.723256    70.723256 
63700000    360.45078   -145014.14   -143523.25    1133.1542    356306.97    71.243607    70.719504    70.719504 
63800000    359.49413      -145004   -143517.07    1270.9268    356306.97    71.251012    70.715829    70.715829 
63900000    361.95062   -145019.67   -143522.57    800.90375    356306.97     71.25826    70.712233    70.712233 
64000000    358.92303   -145018.63   -143534.05    522.97751    356306.97    71.265348    70.708716    70.708716 
64100000    360.60066   -145005.39   -143513.87    1231.4083    356306.97    71.272273    70.705281    70.705281 
64200000    358.59287   -145022.47   -143539.26    825.96601    356306.97    71.279032    70.701929    70.701929 
64300000    359.97914   -145013.59   -143524.64    962.13838    356306.97    71.285622     70.69866     70.69866 
64400000    360.30498   -145008.62   -143518.33     1076.267    356306.97     71.29204    70.695478    70.695478 
64500000    357.41941   -145001.64   -143523.29    1300.1159    356306.97    71.298284    70.692383    70.692383 
64600000    362.65337   -145006.52   -143506.52    1233.2782    356306.97     71.30435    70.689375    70.689375 
64700000    359.29266   -145013.23   -143527.12    761.29586    356306.97    71.310236    70.686458    70.686458 
64800000    362.91689   -145004.79   -143503.69    1426.4302    356306.97    71.315939    70.683631    70.683631 
64900000    360.64428   -145001.93   -143510.23    1046.9524    356306.97    71.321457    70.680897    70.680897 
65000000    359.47496   -145021.75   -143534.89    943.21517    356306.97    71.326788    70.678256    70.678256 
65100000    357.44331   -145026.81   -143548.35    642.66345    356306.97    71.331929    70.675709    70.675709 
65200000     356.8186   -145017.67    -143541.8     830.3429    356306.97    71.336877    70.673258    70.673258 
65300000    358.71214   -145012.35   -143528.64    940.99602    356306.97    71.341631    70.670903    70.670903 
65400000    358.24253   -145025.68   -143543.92    756.67558    356306.97    71.346189    70.668646    70.668646 
65500000    360.30921   -145003.23   -143512.92    1166.4739    356306.97    71.350548    70.666487    70.666487 
65600000    361.06838   -145010.46   -143517.01    942.64423    356306.97    71.354707    70.664427    70.664427 
65700000    360.51294   -145014.36   -143523.21    934.63594    356306.97    71.358664    70.662468    70.662468 
65800000    360.14415   -144993.04   -143503.41     1449.357    356306.97    71.362416     70.66061     70.66061 
65900000    359.69709   -145009.18   -143521.41    1101.6386    356306.97    71.365964    70.658854    70.658854 
66000000    359.67578   -145009.49    -143521.8    1123.1054    356306.97    71.369304    70.657201    70.657201 
66100000    361.28402   -145006.77   -143512.43    1257.2738    356306.97    71.372435    70.655651    70.655651 
66200000     364.5159   -145018.15   -143510.45    1231.8469    356306.97    71.375357    70.654205    70.654205 
66300000    358.64173   -145005.98   -143522.57    1250.5926    356306.97    71.378067    70.652863    70.652863 
66400000    359.98412   -145021.74   -143532.78    743.26307    356306.97    71.380565    70.651627    70.651627 
66500000    359.75077   -145007.04   -143519.04     1427.356    356306.97    71.382849    70.650496    70.650496 
66600000    361.95027   -145022.43   -143525.33    854.46512    356306.97    71.384919    70.649472    70.649472 
66700000     360.8031   -144998.57   -143506.22    1347.5771    356306.97    71.386773    70.648555    70.648555 
66800000    360.75896   -145007.64   -143515.48    1293.8346    356306.97    71.388412    70.647744    70.647744 
66900000      359.679   -145001.74   -143514.03    1348.5869    356306.97    71.389833    70.647041    70.647041 
67000000      358.451   -145006.19   -143523.57    1149.9693    356306.97    71.391036    70.646445    70.646445 
67100000    359.42931    -145019.1   -143532.43    795.63841    356306.97    71.392022    70.645958    70.645958 
67200000     358.6061   -145013.12   -143529.85    1199.8517    356306.97    71.392789    70.645578    70.645578 
67300000    359.10315   -144998.55   -143513.23    1432.4038    356306.97    71.393337    70.645307    70.645307 
67400000     360.9439    -145021.7   -143528.77    852.82741    356306.97    71.393666    70.645144    70.645144 
67500000    359.24936    -144999.2   -143513.28     1467.052    356306.97    71.393775     70.64509     70.64509 
67600000    359.05816   -145016.82   -143531.69    1297.6948    356306.97    71.393666    70.645144    70.645144 
67700000    359.07918   -145011.41   -143526.19    1051.2361    356306.97    71.393337    70.645307    70.645307 
67800000    359.73637   -145016.62   -143528.68    826.56276    356306.97    71.392789    70.645578    70.645578 
67900000    358.64285   -145013.71   -143530.29    972.34142    356306.97    71.392022    70.645958    70.645958 
68000000    359.08403    -145004.9   -143519.66    1264.7433    356306.97    71.391036    70.646445    70.646445 
68100000    358.40813   -145013.57   -143531.12    1095.1235    356306.97    71.389833    70.647041    70.647041 
68200000    359.83036   -145007.68   -143519.35    1364.7297    356306.97    71.388412    70.647744    70.647744 
68300000    356.76781   -145005.22   -143529.56    1193.9709    356306.97    71.386773    70.648555    70.648555 
68400000    361.34272   -145007.09   -143512.51     1599.148    356306.97    71.384919    70.649472    70.649472 
68500000    360.13665   -145020.86   -143531.26     906.1996    356306.97    71.382849    70.650496    70.650496 
68600000    360.21638    -145012.4   -143522.48    1058.3838    356306.97    71.380565    70.651627    70.651627 
68700000    361.24814   -145017.92   -143523.73    940.15504    356306.97    71.378067    70.652863    70.652863 
68800000    356.73513   -145025.17   -143549.65    906.30952    356306.97    71.375357    70.654205    70.654205 
68900000    361.49429   -145000.82   -143505.61    1456.3667    356306.97    71.372435    70.655651    70.655651 
[...]
133400000      358.878   -145007.23   -143522.84    980.69767    356306.97    71.058209    70.811701    70.811701 
133500000    356.93148   -145010.46   -143534.12    1135.2461    356306.97    71.048284    70.816647    70.816647 
133600000    361.89968   -145012.18   -143515.29    1107.3608    356306.97    71.038291    70.821628    70.821628 
133700000    359.88764   -145004.29   -143515.72    1052.2188    356306.97    71.028235    70.826641    70.826641 
133800000    360.77752   -145002.11   -143509.86    1114.0957    356306.97     71.01812    70.831685    70.831685 
133900000    360.57324   -145017.79   -143526.39     1123.051    356306.97    71.007951    70.836757    70.836757 
134000000    360.52882   -145023.52    -143532.3    995.58012    356306.97    70.997731    70.841855    70.841855 
134100000    360.46796   -145028.32   -143537.36    744.76609    356306.97    70.987466    70.846976    70.846976 
134200000    356.93805   -145031.79   -143555.43     724.4904    356306.97     70.97716     70.85212     70.85212 
134300000    358.56836   -145023.18   -143540.07    941.74687    356306.97    70.966817    70.857283    70.857283 
134400000    356.83292   -145006.12   -143530.19     1085.136    356306.97    70.956442    70.862463    70.862463 
134500000    361.09665   -145007.88   -143514.31    1489.6053    356306.97     70.94604    70.867658    70.867658 
134600000    358.41213   -145020.23   -143537.76    799.12811    356306.97    70.935614    70.872865    70.872865 
134700000    360.35495   -145015.87   -143525.37     1113.797    356306.97    70.925171    70.878083    70.878083 
134800000    356.54125   -145014.34   -143539.62    1080.8035    356306.97    70.914713    70.883309    70.883309 
134900000    361.70445   -145012.77   -143516.69    863.21441    356306.97    70.904247     70.88854     70.88854 
135000000    359.85317   -145018.67   -143530.25    1017.8743    356306.97    70.893775    70.893775    70.893775 
135100000    358.24298   -145013.87   -143532.11    866.66806    356306.97    70.883304    70.899012    70.899012 
135200000    362.96648   -145029.49   -143528.19    614.42826    356306.97    70.872838    70.904247    70.904247 
135300000    356.27243   -145011.11    -143537.5     1123.545    356306.97     70.86238    70.909478    70.909478 
135400000    358.75253    -145026.1   -143542.23    727.63611    356306.97    70.851936    70.914704    70.914704 
135500000    358.86903   -145015.91   -143531.55    1062.4875    356306.97    70.841511    70.919922    70.919922 
135600000    362.02082   -145010.15   -143512.76     1160.166    356306.97    70.831109    70.925129    70.925129 
135700000    360.88104   -145025.12   -143532.44    700.37823    356306.97    70.820734    70.930324    70.930324 
135800000    357.38414   -145013.35   -143535.14    1227.0666    356306.97    70.810391    70.935504    70.935504 
135900000    360.87778   -145021.02   -143528.35    764.34557    356306.97    70.800085    70.940667    70.940667 
136000000    359.38879    -145014.6    -143528.1    1229.3055    356306.97     70.78982    70.945811    70.945811 
136100000    358.65683   -145024.24   -143540.76    873.36487    356306.97      70.7796    70.950932    70.950932 
136200000    360.22195   -145016.63   -143526.68    1028.1855    356306.97     70.76943     70.95603     70.95603 
136300000    358.36924   -145016.04   -143533.75     921.2874    356306.97    70.759315    70.961101    70.961101 
136400000    361.68931   -145022.55   -143526.53    882.38876    356306.97    70.749259    70.966144    70.966144 
136500000    360.74914   -145023.97   -143531.84    481.40133    356306.97    70.739267    70.971156    70.971156 
136600000    356.20051   -145011.56   -143538.24    1023.6014    356306.97    70.729342    70.976135    70.976135 
136700000    358.47391   -145018.32    -143535.6    949.04015    356306.97    70.719489    70.981079    70.981079 
136800000    360.25162   -145010.17    -143520.1    1018.4407    356306.97    70.709713    70.985986    70.985986 
136900000    358.66321   -145002.35   -143518.84    1535.0283    356306.97    70.700018    70.990853    70.990853 
137000000    359.92134    -145012.2   -143523.49    957.14306    356306.97    70.690407    70.995679    70.995679 
137100000    360.82022   -145016.04   -143523.62    912.95228    356306.97    70.680886    71.000461    71.000461 
137200000    358.39392   -145009.67   -143527.28    970.54883    356306.97    70.671458    71.005196    71.005196 
137300000    359.82676   -145005.59   -143517.28    1235.8961    356306.97    70.662127    71.009884    71.009884 
137400000    360.24589   -145016.12   -143526.07    1150.4893    356306.97    70.652899    71.014522    71.014522 
137500000    359.68547   -145016.89   -143529.16    1012.6099    356306.97    70.643775    71.019107    71.019107 
137600000    361.42279   -145021.13   -143526.21    833.56828    356306.97    70.634762    71.023638    71.023638 
137700000    359.75916   -145006.92   -143518.88    1080.2969    356306.97    70.625862    71.028113    71.028113 
137800000     361.5967   -145011.22   -143515.59    1130.3153    356306.97     70.61708     71.03253     71.03253 
137900000    362.04385   -145008.81   -143511.33    1384.8223    356306.97    70.608419    71.036886    71.036886 
138000000    359.04645   -145012.14   -143527.06    1198.4127    356306.97    70.599883     71.04118     71.04118 
138100000    358.07956   -145016.25   -143535.16    972.41326    356306.97    70.591476     71.04541     71.04541 
138200000    360.84499   -145014.81   -143522.29    968.66047    356306.97    70.583201    71.049574    71.049574 
138300000     359.7786   -145020.35   -143532.23    917.28862    356306.97    70.575063    71.053671    71.053671 
138400000    362.65084   -145025.81   -143525.81    844.71266    356306.97    70.567065    71.057697    71.057697 
138500000     360.0509   -145020.48   -143531.24     869.0906    356306.97     70.55921    71.061652    71.061652 
138600000    361.18222   -145013.53   -143519.61    858.63639    356306.97    70.551502    71.065534    71.065534 
138700000    361.05088   -145015.51   -143522.13    1055.4479    356306.97    70.543944    71.069341    71.069341 
138800000    357.39628   -145006.68   -143528.42    1226.0837    356306.97    70.536539    71.073071    71.073071 
138900000    357.78561   -145019.29   -143539.42    797.13231    356306.97    70.529291    71.076723    71.076723 
139000000    361.71922   -145016.45   -143520.31    919.31337    356306.97    70.522203    71.080295    71.080295 
139100000    361.72478   -145011.99   -143515.82    1075.8805    356306.97    70.515278    71.083785    71.083785 
139200000    360.08442   -144994.22   -143504.84    1464.6246    356306.97    70.508519    71.087192    71.087192 
139300000    360.62344   -145023.33   -143531.72    1269.5114    356306.97    70.501929    71.090515    71.090515 
139400000    360.46508   -145024.66    -143533.7    729.74307    356306.97     70.49551    71.093751    71.093751 
139500000    358.80884   -145010.76   -143526.65    1131.1656    356306.97    70.489267    71.096899    71.096899 
139600000     361.6444   -145026.78   -143530.95    820.89969    356306.97    70.483201    71.099959    71.099959 
139700000    361.09535   -145016.64   -143523.08    780.09396    356306.97    70.477315    71.102928    71.102928 
139800000     358.4137   -145013.38   -143530.91    698.84162    356306.97    70.471611    71.105805    71.105805 
139900000    359.89972   -145002.55   -143513.93    1478.7281    356306.97    70.466093    71.108589    71.108589 
140000000    361.68902   -145014.03   -143518.01    1163.4802    356306.97    70.460763    71.111279    71.111279 
140100000    364.44969   -145010.84    -143503.4    1279.8936    356306.97    70.455622    71.113873    71.113873 
140200000    359.82869   -145003.33   -143515.01    976.12746    356306.97    70.450674     71.11637     71.11637 
140300000    359.00228   -145017.52   -143532.62    1117.2156    356306.97    70.445919     71.11877     71.11877 
140400000     361.2125   -145017.53   -143523.48    892.14572    356306.97    70.441362    71.121071    71.121071 
140500000    358.45972   -145007.71   -143525.05    1346.1104    356306.97    70.437003    71.123271    71.123271 
140600000    359.11075    -145010.2   -143524.85    1254.2731    356306.97    70.432844    71.125371    71.125371 
140700000    360.98669   -145022.24   -143529.13    749.98357    356306.97    70.428887    71.127369    71.127369 
140800000      360.622   -145004.15   -143512.55    1236.1526    356306.97    70.425134    71.129264    71.129264 
140900000    360.36541    -145015.7   -143525.16    963.77612    356306.97    70.421587    71.131055    71.131055 
141000000    361.70527   -145018.41   -143522.33    817.82206    356306.97    70.418247    71.132742    71.132742 
141100000    357.60981   -145024.53   -143545.39    723.36905    356306.97    70.415116    71.134324    71.134324 
141200000    360.80539   -145023.41   -143531.05    690.28636    356306.97    70.412194      71.1358      71.1358 
141300000    357.14588   -145010.65   -143533.42    994.17035    356306.97    70.409484    71.137169    71.137169 
141400000    361.81177   -145003.45   -143506.92     1444.274    356306.97    70.406986    71.138431    71.138431 
141500000    357.55024   -145018.72   -143539.82    1133.4336    356306.97    70.404702    71.139585    71.139585 
141600000    360.36048   -145019.42    -143528.9    1014.1159    356306.97    70.402632    71.140631    71.140631 
141700000    360.95246   -145021.54   -143528.57     788.4953    356306.97    70.400777    71.141567    71.141567 
141800000    359.39144   -145007.85   -143521.34    1067.2664    356306.97    70.399139    71.142395    71.142395 
141900000    357.74461   -145008.71      -143529    991.23966    356306.97    70.397718    71.143113    71.143113 
142000000     357.4568   -145019.68   -143541.17    1050.6745    356306.97    70.396514    71.143721    71.143721 
142100000    361.19233   -145014.83   -143520.87     1019.282    356306.97    70.395529    71.144219    71.144219 
142200000    358.20592   -145008.66   -143527.05     1375.652    356306.97    70.394762    71.144607    71.144607 
142300000    361.85954   -145019.78   -143523.06     1127.882    356306.97    70.394214    71.144884    71.144884 
142400000    359.04469    -145014.5   -143529.42    1117.8204    356306.97    70.393885     71.14505     71.14505 
142500000    358.63909   -145004.34   -143520.94    1026.0573    356306.97    70.393775    71.145106    71.145106 
142600000    359.25236   -145022.41   -143536.47    1089.6994    356306.97    70.393885     71.14505     71.14505 
142700000    359.73379   -145014.34   -143526.41    1495.6774    356306.97    70.394214    71.144884    71.144884 
142800000    363.06604      -145013   -143511.29    845.65629    356306.97    70.394762    71.144607    71.144607 
142900000    357.88676   -145021.97   -143541.68    911.05681    356306.97    70.395529    71.144219    71.144219 
143000000    360.38096   -145005.79   -143515.18    1001.4777    356306.97    70.396514    71.143721    71.143721 
143100000    360.33795   -145016.36   -143525.93    1022.3215    356306.97    70.397718    71.143113    71.143113 
143200000    358.08801   -145004.27   -143523.15    1097.1267    356306.97    70.399139    71.142395    71.142395 
143300000    358.92639   -145015.15   -143530.56    1069.5686    356306.97    70.400777    71.141567    71.141567 
143400000     358.6213   -145007.17   -143523.84    1136.5335    356306.97    70.402632    71.140631    71.140631 
143500000    360.88907   -145017.34   -143524.64    1108.9634    356306.97    70.404702    71.139585    71.139585 
143600000    358.32164   -145016.68   -143534.59    1094.4151    356306.97    70.406986    71.138431    71.138431 
143700000    363.05023   -145014.13   -143512.49    894.98954    356306.97    70.409484    71.137169    71.137169 
143800000    361.92319   -145007.93   -143510.94    849.34298    356306.97    70.412194      71.1358      71.1358 
143900000    360.70292   -145001.99   -143510.05    1085.1803    356306.97    70.415116    71.134324    71.134324 
144000000     357.5117    -145012.9   -143534.16    1026.1116    356306.97    70.418247    71.132742    71.132742 
144100000    360.67416   -145015.82      -143524    1104.6955    356306.97    70.421587    71.131055    71.131055 
144200000    359.88461   -145014.06    -143525.5    1128.3526    356306.97    70.425134    71.129264    71.129264 
144300000      359.571   -145018.37   -143531.11    972.92607    356306.97    70.428887    71.127369    71.127369 
144400000    362.83883   -145004.06   -143503.29    1219.6323    356306.97    70.432844    71.125371    71.125371 
144500000     355.5365   -145015.95   -143545.39    1004.3527    356306.97    70.437003    71.123271    71.123271 
144600000    359.13171   -145008.17   -143522.73    1272.5386    356306.97    70.441362    71.121071    71.121071 
144700000    361.82799   -145002.79    -143506.2    1179.4096    356306.97    70.445919     71.11877     71.11877 
144800000    360.18645   -145026.66   -143536.86    848.78886    356306.97    70.450674     71.11637     71.11637 
144900000    360.74331   -145002.69   -143510.58    1319.4879    356306.97    70.455622    71.113873    71.113873 
145000000     360.5349   -145020.36   -143529.11    692.44282    356306.97    70.460763    71.111279    71.111279 
145100000    360.74571   -145022.98   -143530.87    701.14026    356306.97    70.466093    71.108589    71.108589 
145200000    360.07499   -145022.27   -143532.93    836.03624    356306.97    70.471611    71.105805    71.105805 
145300000      359.171   -145004.07   -143518.46     1108.478    356306.97    70.477315    71.102928    71.102928 
145400000     359.1885   -144998.75   -143513.08    1227.3756    356306.97    70.483201    71.099959    71.099959 
145500000    360.89219   -145020.22    -143527.5    1224.6063    356306.97    70.489267    71.096899    71.096899 
145600000    356.77956   -145014.82   -143539.11    1349.1627    356306.97     70.49551    71.093751    71.093751 
145700000    359.39485   -145014.18   -143527.66    735.22786    356306.97    70.501929    71.090515    71.090515 
145800000    358.51873   -145017.76   -143534.85    1133.6365    356306.97    70.508519    71.087192    71.087192 
145900000    362.42263   -145012.25    -143513.2    1142.7802    356306.97    70.515278    71.083785    71.083785 
146000000    359.11313   -145013.57   -143528.21     1275.307    356306.97    70.522203    71.080295    71.080295 
146100000    358.92685   -145022.48   -143537.89    843.63552    356306.97    70.529291    71.076723    71.076723 
146200000    357.28267    -144999.8   -143522.01    1134.5203    356306.97    70.536539    71.073071    71.073071 
146300000    358.90756   -145014.54   -143530.02    1239.5086    356306.97    70.543944    71.069341    71.069341 
146400000    359.93786   -145033.83   -143545.06    767.58315    356306.97    70.551502    71.065534    71.065534 
146500000    358.71484   -145016.91   -143533.19    995.21232    356306.97     70.55921    71.061652    71.061652 
146600000    363.17491   -145023.43   -143521.27    979.73275    356306.97    70.567065    71.057697    71.057697 
146700000    360.17567    -145008.6   -143518.85    1195.8181    356306.97    70.575063    71.053671    71.053671 
146800000    358.10765   -145025.89   -143544.69    610.43067    356306.97    70.583201    71.049574    71.049574 
146900000    359.52984   -145015.79    -143528.7    1314.2035    356306.97    70.591476     71.04541     71.04541 
147000000    356.98222   -145017.17   -143540.62    845.30326    356306.97    70.599883     71.04118     71.04118 
147100000    358.24018      -145017   -143535.25    745.88806    356306.97    70.608419    71.036886    71.036886 
147200000    360.81703   -145003.33   -143510.92    1025.5958    356306.97     70.61708     71.03253     71.03253 
147300000     359.0118   -145027.35   -143542.41    876.79066    356306.97    70.625862    71.028113    71.028113 
147400000    360.99371    -145009.6   -143516.46    1220.5568    356306.97    70.634762    71.023638    71.023638 
147500000    357.13596   -145020.03   -143542.85    919.23132    356306.97    70.643775    71.019107    71.019107 
147600000    359.64337   -145009.98   -143522.42    1247.8707    356306.97    70.652899    71.014522    71.014522 
147700000    362.34847   -145017.86   -143519.12    933.92153    356306.97    70.662127    71.009884    71.009884 
147800000    359.83915   -145006.79   -143518.42    1201.1009    356306.97    70.671458    71.005196    71.005196 
147900000    358.55037   -145010.07   -143527.03    1164.9361    356306.97    70.680886    71.000461    71.000461 
148000000    358.01103   -144996.97   -143516.16    1345.1112    356306.97    70.690407    70.995679    70.995679 
148100000    358.43175   -145013.19   -143530.65    998.77285    356306.97    70.700018    70.990853    70.990853 
148200000    360.95748   -145025.08   -143532.09    616.45494    356306.97    70.709713    70.985986    70.985986 
148300000    359.53542   -145022.36   -143535.25    1112.5666    356306.97    70.719489    70.981079    70.981079 
148400000    359.89726   -145029.73   -143541.13    614.33664    356306.97    70.729342    70.976135    70.976135 
148500000    359.85607   -145030.13   -143541.69    795.09596    356306.97    70.739267    70.971156    70.971156 
148600000    360.29188   -145004.28   -143514.05    1082.7409    356306.97    70.749259    70.966144    70.966144 
148700000    363.40164   -145007.27   -143504.17    1113.9773    356306.97    70.759315    70.961101    70.961101 
148800000    360.87874   -145009.75   -143517.09    1162.9699    356306.97     70.76943     70.95603     70.95603 
148900000    359.97862   -145016.81   -143527.87    1055.0233    356306.97      70.7796    70.950932    70.950932 
149000000    360.41381   -145007.45   -143516.71    1260.3135    356306.97     70.78982    70.945811    70.945811 
149100000    358.43505   -145018.82   -143536.27    645.67596    356306.97    70.800085    70.940667    70.940667 
149200000    361.01368   -145016.36   -143523.14    1193.7914    356306.97    70.810391    70.935504    70.935504 
149300000    360.14523   -145012.84   -143523.21    1260.1704    356306.97    70.820734    70.930324    70.930324 
149400000    360.60543   -145015.46   -143523.93    1089.5451    356306.97    70.831109    70.925129    70.925129 
149500000    361.50323   -145018.79   -143523.54    1002.0713    356306.97    70.841511    70.919922    70.919922 
149600000    359.64675   -145015.34   -143527.77    1018.7353    356306.97    70.851936    70.914704    70.914704 
149700000    357.58924   -145023.13   -143544.07      895.085    356306.97     70.86238    70.909478    70.909478 
149800000    356.84357   -145015.63   -143539.66    449.68423    356306.97    70.872838    70.904247    70.904247 
149900000    359.79468   -145031.77   -143543.59    789.53614    356306.97    70.883304    70.899012    70.899012 
150000000    360.78898   -145020.54   -143528.24    947.95969    356306.97    70.893775    70.893775    70.893775 
Loop time of 338141 on 120 procs (120 MPI x 1 OpenMP) for 150000000 steps with 32000 atoms

Pair  time (%) = 254406 (75.2367)
Neigh time (%) = 10071.8 (2.97859)
Comm  time (%) = 52193.4 (15.4354)
Outpt time (%) = 1.78445 (0.000527724)
Other time (%) = 21467.8 (6.34877)

Nlocal:    266.667 ave 277 max 256 min
Histogram: 3 2 16 23 19 16 19 6 11 5
Nghost:    2535.28 ave 2564 max 2512 min
Histogram: 2 8 16 21 25 22 18 5 1 2
Neighs:    30820.3 ave 32705 max 28630 min
Histogram: 2 8 12 11 14 23 19 17 8 6

Total # of neighbors = 3698435
Ave neighs/atom = 115.576
Neighbor list builds = 9267763
Dangerous builds = 0
write_restart  dms300ns_360-10c.rst
clear
WARNING: OMP_NUM_THREADS environment is not set. (../comm.cpp:89)
  using 1 OpenMP thread(s) per MPI task
#jump YDMA380-300ns.lmp
