ITEM: TIMESTEP
0
ITEM: NUMBER OF ATOMS
32000
ITEM: BOX BOUNDS pp pp pp
-35.4589 35.4589
-35.4589 35.4589
-35.4589 35.4589
ITEM: ATOMS id type x y z 
1 1 6.93495 -0.0636798 -25.6658 
2 1 1.78194 25.6162 -3.5613 
3 1 -4.23764 33.5395 -10.5522 
4 1 28.3766 20.5289 32.2904 
5 1 35.0366 29.7587 -17.2464 
6 2 -24.1367 12.7366 -16.667 
7 1 -23.5396 -27.1916 26.032 
8 1 7.28191 -3.09812 -32.8258 
9 1 7.60946 19.1451 16.4561 
10 1 -4.80874 23.423 2.3042 
11 2 -11.0069 25.2422 6.42914 
12 1 -14.9817 12.0731 26.6166 
13 1 30.5918 -10.7911 -21.4666 
14 1 -23.7538 -33.6825 -16.1324 
15 1 -11.6321 -15.5362 -5.12105 
16 1 -2.55334 25.4299 -32.61 
17 2 -17.2588 -13.546 33.2525 
18 1 -7.31203 -28.7306 -19.4563 
19 1 -4.57946 34.378 -33.4405 
20 1 -1.54876 -8.18779 -13.0196 
21 2 -30.2211 -2.38417 -0.763767 
22 2 -17.6462 25.0174 20.732 
23 1 -21.1616 -26.7699 -4.77296 
24 1 22.153 -12.1833 -33.4398 
25 1 -12.3571 -33.592 -24.6618 
26 1 -27.3857 -16.8441 -8.79177 
27 1 15.212 30.1975 -25.372 
28 1 2.82561 -7.7144 -16.1943 
29 1 11.509 -21.027 29.6984 
30 1 -12.2469 26.3666 -7.75796 
31 1 33.4256 -32.7118 -21.1425 
32 1 5.6563 31.1815 27.2239 
33 1 9.42885 17.7581 -13.7027 
34 2 -16.6769 -23.0942 -21.8785 
35 1 4.90001 28.531 -32.5788 
36 2 -30.9288 -6.29234 -19.2896 
37 2 34.5558 -0.485395 12.4419 
38 1 -26.1021 26.819 10.1702 
39 1 29.4688 -1.70729 5.48081 
40 1 12.3683 -8.50637 31.5594 
41 2 17.4087 -34.0947 19.0801 
42 1 -31.3724 0.61321 -32.837 
43 1 -1.65718 -26.7507 -26.7428 
44 1 11.8637 23.1845 -26.9082 
45 1 33.396 -2.99702 -8.90037 
46 1 34.5362 31.7611 -25.9055 
47 1 7.47175 9.05745 -25.042 
48 1 -17.0651 -22.2276 16.2949 
49 1 15.441 -4.96475 2.59516 
50 1 17.9543 12.145 34.9395 
51 2 -12.8874 16.2702 7.14803 
52 1 -27.6524 -9.9313 -1.62955 
53 1 7.95325 28.5248 -4.80539 
54 1 -30.2654 -0.593346 14.1936 
55 1 -21.1143 -0.592725 15.3741 
56 2 -31.9209 -15.3217 -18.7073 
57 1 -32.0388 -0.804256 -28.3037 
58 1 -23.5893 2.99566 -19.1212 
59 1 2.71347 -15.3282 -12.9871 
60 2 26.6928 9.22687 1.74321 
61 2 16.9886 30.5076 -6.09002 
62 1 -8.44955 10.9056 -3.04801 
63 1 -22.0666 20.9816 -0.874967 
64 1 10.2229 -28.2118 26.4762 
65 1 -13.6109 -5.22207 -24.174 
66 1 33.8989 22.3851 25.6749 
67 1 23.0249 -0.940408 32.0237 
68 1 -21.1607 22.9261 -10.9621 
69 1 -3.26974 4.64228 -27.0925 
70 1 -0.577491 -11.3582 -5.52304 
71 2 -9.49539 -25.2058 10.1815 
72 1 7.1968 -13.0057 -17.1168 
73 2 7.17185 -31.3864 11.0548 
74 1 -13.8658 11.1454 -29.7134 
75 1 -29.8768 22.9018 -7.49267 
76 1 32.8664 -22.0635 23.156 
77 1 8.04708 23.3971 20.7234 
78 1 32.1039 15.0549 27.3903 
79 1 24.8861 -10.8271 -8.27688 
80 1 -11.2069 -5.39206 -22.6196 
81 1 -0.663536 14.769 6.56266 
82 1 6.57316 7.03024 -6.55473 
83 2 0.530871 7.34576 -11.72 
84 2 -31.3124 10.8546 8.10808 
85 1 5.70788 1.05117 5.0048 
86 1 8.79968 -18.0619 24.6572 
87 1 23.0166 10.8636 16.6206 
88 1 16.6758 3.61575 -24.8364 
89 1 -4.77846 14.6579 1.13127 
90 2 12.4515 -26.4811 -33.2133 
91 2 24.4955 35.0164 -29.8637 
92 1 -32.1455 14.7196 -15.9808 
93 1 -25.3159 7.09866 -33.1621 
94 1 28.9297 -32.0147 1.70997 
95 2 -18.395 1.62312 -4.82776 
96 1 -3.66343 23.1442 -13.6995 
97 1 -21.5877 13.5906 11.1105 
98 2 -15.3813 -22.8182 -34.0789 
99 2 -25.3552 31.4675 18.8663 
100 1 21.5872 -31.4928 -0.63111 
101 1 -31.1396 -26.4752 23.0764 
102 2 27.7651 20.0863 10.2486 
103 1 9.26559 22.7777 -19.6434 
104 1 -15.6504 -2.8363 -0.0903563 
105 1 12.2957 -26.7987 -20.2643 
106 1 -18.6114 -11.5572 32.7383 
107 1 11.7403 -25.6361 33.9878 
108 1 33.3468 -12.8336 19.7659 
109 2 10.8045 -26.9769 0.253522 
110 2 -16.2013 14.211 -8.37368 
111 1 -5.11649 12.3648 21.1448 
112 1 26.2846 21.1873 -8.89947 
113 1 1.66618 -3.25443 14.474 
114 1 -23.0895 -6.04265 35.3235 
115 2 -24.436 31.829 34.9074 
116 1 24.2247 31.6478 -24.7341 
117 1 17.3378 -25.3693 15.3659 
118 1 10.9599 0.836766 -7.60972 
119 1 -22.7493 -10.1973 -21.2189 
120 1 -5.83414 34.5877 -25.3319 
121 2 -2.45704 4.75332 -9.2261 
122 2 3.29968 32.5631 17.1126 
123 1 -16.3377 -11.3276 33.4414 
124 1 -9.17806 -8.68487 -16.857 
125 1 7.95796 35.4412 9.04236 
126 1 -18.9069 -34.9339 -8.74162 
127 1 30.3468 29.0705 32.0655 
128 2 14.3495 10.8452 4.34483 
129 1 13.4949 -26.0121 -35.3307 
130 2 -25.2572 24.794 20.0185 
131 1 31.6268 12.8916 -20.3727 
132 1 18.7993 16.3197 35.3303 
133 1 -11.9593 -19.1281 25.6861 
134 2 15.667 30.1966 6.73813 
135 1 -23.7093 -17.4645 -1.83498 
136 1 -33.3129 -35.3144 31.8232 
137 1 17.7505 21.6249 30.3687 
138 2 -26.5824 -10.142 9.64966 
139 1 -18.1083 -27.5195 -20.3698 
140 2 31.6253 25.5113 8.45064 
141 1 -22.019 28.2721 29.5845 
142 1 -27.8181 -11.8375 -29.835 
143 1 -6.96719 15.4838 14.3947 
144 1 -31.4034 -16.588 24.6738 
145 1 32.5466 -29.8059 -10.063 
146 1 29.0177 -28.8668 22.0225 
147 1 -20.8812 13.0672 -13.6792 
148 1 -3.71134 -5.30475 -15.3858 
149 2 -19.7486 12.4404 19.6976 
150 1 -22.2909 -9.00918 16.9156 
151 1 32.16 -1.11115 -22.7392 
152 1 21.6922 -33.5854 -20.9428 
153 1 11.5674 10.5752 33.5848 
154 1 2.11644 17.9611 -22.6384 
155 1 29.7582 -10.3573 -11.0037 
156 2 -2.84554 -9.94164 23.7235 
157 1 34.012 -2.2581 8.47272 
158 2 26.9445 34.1902 -15.6023 
159 1 6.1169 -28.6337 -10.6985 
160 1 -9.00314 -2.0237 -0.15321 
161 1 12.5721 -17.5044 -26.6664 
162 1 29.3056 -7.17406 -23.9723 
163 2 19.8431 31.102 32.4223 
164 1 20.945 -5.80673 -25.3013 
165 1 -27.5185 33.0432 1.86983 
166 1 9.56783 -30.8108 27.4615 
167 1 -33.8593 2.71336 12.6538 
168 2 33.5961 5.03324 11.2562 
169 1 -11.6064 -20.4553 23.6275 
170 1 -25.6156 18.6612 -29.9386 
171 2 5.30585 16.096 19.6756 
172 1 -17.1948 27.8999 -20.9047 
173 1 13.2689 3.75001 -6.36254 
174 1 -32.5976 -7.41683 6.56761 
175 1 -20.7702 -32.472 23.2849 
176 2 10.9223 15.446 -28.7999 
177 2 32.6781 9.38863 -21.4481 
178 1 -8.6497 -3.21146 22.4168 
179 1 5.52931 0.609835 -15.8148 
180 1 -1.15193 3.88001 -3.19648 
181 1 -6.04666 33.2963 31.7623 
182 2 -17.1013 -7.97497 -6.90928 
183 1 -8.64686 24.4528 22.9477 
184 2 -9.27477 -14.9997 21.8571 
185 1 22.7161 -7.21041 -21.7552 
186 1 28.5561 -32.8054 15.1666 
187 1 20.5542 -23.1895 -19.0375 
188 1 -23.1731 20.0844 -2.63462 
189 2 21.2216 -9.96109 22.5338 
190 2 26.3004 5.82378 3.7393 
191 1 15.0531 19.2446 -10.2093 
192 1 -19.9846 28.0762 0.896173 
193 1 13.2736 5.64583 18.0385 
194 1 -33.4739 6.14881 -27.9441 
195 1 -21.9299 -19.0965 25.7394 
196 2 19.8112 -19.0431 -29.9409 
197 1 -12.985 -20.5748 27.6086 
198 2 -26.6028 12.6956 -12.2215 
199 1 -1.1232 33.1826 29.1408 
200 1 5.55112 16.6255 -5.19584 
201 1 -14.0541 -20.7159 -33.6673 
202 1 -2.01912 -29.9516 27.6779 
203 2 2.44602 22.8081 22.2047 
204 1 -31.3581 -30.1855 -14.4252 
205 1 18.4127 -13.911 -32.6215 
206 1 -26.8682 -15.9296 -28.4202 
207 1 31.9985 -17.1869 -27.6178 
208 1 -7.01069 13.6817 6.38063 
209 2 2.79264 8.59008 15.3768 
210 2 12.1353 12.0763 29.2652 
211 1 -4.50221 -11.3942 -15.4173 
212 1 -24.8826 -12.9378 -3.93544 
213 1 -29.1861 24.3447 21.0413 
214 1 -34.5292 6.67144 29.2889 
215 1 -6.23244 -1.64248 -7.92099 
216 1 -12.3991 -16.0861 23.3213 
217 1 -22.5814 -22.8218 -33.7124 
218 1 25.62 -26.8811 21.2396 
219 1 19.6012 -14.6112 29.4947 
220 1 17.219 4.79182 -14.0655 
221 1 -35.059 -20.9195 10.2649 
222 2 3.72899 -29.1843 -19.8703 
223 1 18.0176 21.0606 6.91974 
224 1 -25.643 32.262 24.5958 
225 1 -0.5451 -2.57685 -10.2854 
226 1 20.1222 -34.2812 -34.8822 
227 1 -18.8116 -6.21514 34.5747 
228 1 -29.0731 -31.9702 -22.1702 
229 2 -24.0949 -28.3676 -29.1246 
230 1 26.3771 32.2725 -14.3896 
231 1 12.9673 -31.8716 22.1928 
232 1 -11.8479 27.9054 -19.8941 
233 1 13.6105 -14.1518 29.5641 
234 1 -1.53146 -23.2054 -0.311335 
235 1 6.88277 16.0693 5.43157 
236 1 -25.4794 -30.8614 -2.48541 
237 1 17.9179 27.0297 3.6568 
238 1 -31.6017 17.6391 34.4531 
239 1 3.12647 13.8646 31.1553 
240 1 33.1446 -2.56189 -20.8886 
241 1 -14.2653 -22.3905 -19.6291 
242 2 0.0664196 -27.3339 -29.9538 
243 1 30.7757 33.6094 7.21029 
244 1 -6.17724 -14.628 35.2779 
245 1 12.0701 32.259 -23.4731 
246 1 -1.21277 -19.8269 4.27607 
247 1 -21.1108 14.6874 5.41765 
248 1 -21.0049 26.0529 -9.07012 
249 1 11.5867 32.0468 -2.90078 
250 1 -17.9299 34.446 -28.4694 
251 1 22.8502 6.50549 21.4455 
252 1 24.0477 -11.185 9.86861 
253 1 34.7408 -19.6399 -24.0877 
254 1 -9.03015 -9.53299 -10.259 
255 1 35.3292 -22.3699 -18.1939 
256 1 -14.2439 26.8678 -30.2448 
257 2 -4.80947 -26.1001 -4.85526 
258 1 18.8983 18.6225 -14.9778 
259 1 -29.1171 5.86879 27.2071 
260 2 33.0661 2.28487 -14.5133 
261 1 17.166 -27.9133 -30.6652 
262 1 -32.3582 28.1744 14.1388 
263 2 20.3303 32.7757 17.7846 
264 1 16.0547 15.0082 -4.22557 
265 1 23.1853 -10.6825 21.7556 
266 1 6.31373 -21.0192 -10.397 
267 1 -4.48539 -21.7443 -25.6872 
268 1 -29.5259 12.2814 -21.229 
269 1 20.6379 30.6943 -34.781 
270 2 3.78257 8.56283 21.2272 
271 1 13.1837 -18.5114 10.0239 
272 1 15.0197 11.5411 24.721 
273 1 -9.39406 17.4804 31.5918 
274 2 32.1854 -0.718147 -17.2217 
275 1 33.16 -12.6558 -34.2181 
276 1 4.70492 17.939 10.7093 
277 1 5.25991 25.2082 -21.931 
278 2 26.4837 -8.47922 -31.4301 
279 1 -15.6615 9.72063 -5.19264 
280 1 -28.1821 -29.0518 -30.6601 
281 2 -1.76215 17.1919 -27.1942 
282 1 3.21998 -14.3585 -17.1442 
283 1 4.1177 -35.0909 -4.99264 
284 1 -6.824 29.1551 -29.2339 
285 2 17.0694 20.1309 -5.65379 
286 1 -23.1308 33.4581 -18.5138 
287 2 21.7271 -24.2091 -33.5772 
288 1 20.1306 -11.0871 -34.1245 
289 1 -8.71961 -7.85332 8.64455 
290 2 11.4467 34.4862 19.694 
291 1 0.731353 20.224 12.6664 
292 1 17.4956 34.7709 20.3045 
293 1 -29.207 4.4909 -26.5441 
294 1 -32.7388 14.9464 -5.55538 
295 2 -33.5365 19.13 -12.088 
296 2 28.0762 34.8476 -31.0722 
297 2 8.92212 -2.51594 -27.3159 
298 1 -14.6665 18.552 9.63262 
299 1 1.28077 -33.988 28.7716 
300 1 20.4987 -27.2116 -17.6845 
301 2 -12.2468 22.4788 -26.1878 
302 2 -30.7576 28.0778 -33.8731 
303 1 -21.2714 -7.20077 -14.345 
304 1 -5.63771 -23.3289 15.2063 
305 2 30.0903 5.86098 28.8126 
306 1 -24.1972 1.85588 -23.1702 
307 1 -35.241 -25.559 -32.9469 
308 2 14.1624 -2.60659 12.1762 
309 1 15.7732 -23.8935 16.5633 
310 1 -15.956 -9.85141 -32.708 
311 1 27.9332 30.2685 1.25826 
312 2 3.81351 -25.8379 3.56929 
313 1 -14.9271 11.2666 -27.4972 
314 1 -10.7476 -21.5723 -1.03126 
315 1 -15.6156 8.98037 13.4852 
316 1 16.6106 -10.3996 -11.7766 
317 1 -15.2431 18.0733 30.3867 
318 1 34.4062 22.8096 16.8162 
319 1 13.6276 -5.3771 -10.9973 
320 1 2.29398 -33.3811 -8.63735 
321 1 -33.4466 21.3004 -12.2174 
322 1 33.9818 -0.505659 -2.39789 
323 1 13.5455 -12.9098 -22.3402 
324 1 -3.04676 -7.03706 30.1762 
325 1 5.07473 -14.4584 -20.8148 
326 1 2.88132 -28.2151 -31.2516 
327 1 33.8144 -3.26291 18.3421 
328 1 15.5822 -1.68891 28.9595 
329 1 34.9232 14.788 -7.38427 
330 2 15.7214 -0.251255 -6.98017 
331 1 29.0893 2.24252 8.36044 
332 1 -19.0674 -18.3086 15.1027 
333 1 -14.925 -2.28302 5.67471 
334 1 26.4977 -3.36031 15.8707 
335 2 20.479 12.5715 23.891 
336 1 21.4335 23.6889 28.5856 
337 1 31.3692 -14.0966 -14.6107 
338 1 21.4128 -11.7369 -27.1136 
339 2 15.1278 -10.7545 13.8439 
340 1 33.2689 -34.3881 -34.6187 
341 1 3.30761 -18.758 -19.3724 
342 1 -3.25422 -0.868842 2.46509 
343 1 33.5528 9.23636 13.7167 
344 1 -25.7016 -4.07632 2.7127 
345 1 12.1739 34.6718 7.57968 
346 1 -27.4144 -25.8423 -18.6779 
347 1 -10.3125 27.174 -17.8767 
348 1 -33.519 -32.9869 -14.7897 
349 1 -19.3735 11.0718 0.658444 
350 1 -20.7084 -15.2596 12.2644 
351 1 11.2145 -2.85016 -26.7365 
352 1 22.9437 24.1875 24.9672 
353 1 5.01886 -31.9738 28.1993 
354 2 -27.5319 25.626 34.4108 
355 1 -23.9329 13.4143 -13.9926 
356 1 -21.5653 9.24456 20.8366 
357 1 -1.03868 30.9582 -32.4734 
358 1 -2.06211 28.7831 12.367 
359 1 34.5412 -29.4846 4.39034 
360 1 11.2894 -16.6524 32.7432 
361 1 14.8258 2.33581 -4.86317 
362 1 29.8846 15.283 28.6333 
363 2 -15.0811 -8.65951 -25.7919 
364 1 -19.2278 24.6581 10.3458 
365 1 23.9204 13.191 -24.2871 
366 1 -21.869 -26.896 32.2003 
367 1 17.0994 14.8799 4.58832 
368 1 23.3861 -19.7065 7.62824 
369 1 -16.481 -10.3995 8.0397 
370 1 32.8824 3.3937 -32.0918 
371 1 11.2008 -32.2789 -17.1769 
372 1 29.9283 10.5754 -4.82473 
373 1 33.595 23.2559 -10.9667 
374 1 25.6713 -6.58527 -16.0478 
375 1 -9.38468 9.43843 6.67918 
376 1 27.3049 5.52354 8.09657 
377 2 14.6612 -8.45639 -33.7367 
378 2 -29.1498 -6.51394 11.3643 
379 2 -10.8258 -21.887 14.4163 
380 2 1.83761 -22.7169 6.19525 
381 1 -3.36941 13.1757 -18.6611 
382 2 31.6288 -34.3636 -10.0034 
383 1 3.13056 -19.0626 22.0927 
384 1 -0.117267 19.982 -16.6373 
385 1 -10.4875 -22.6349 -14.7078 
386 1 -0.949299 31.06 -0.543603 
387 1 -8.74575 25.8765 20.904 
388 2 -21.7854 -5.69984 11.4023 
389 1 -1.24485 -19.2215 -8.54764 
390 2 25.965 -35.1773 6.51113 
391 1 20.881 6.76487 6.09212 
392 1 -0.318662 18.934 -1.86753 
393 2 -17.1305 5.95744 23.8136 
394 2 -33.7688 -18.4257 27.3332 
395 2 -32.0899 -30.4321 -20.7235 
396 1 19.9579 23.9581 -10.8302 
397 1 16.6796 -1.1957 26.6769 
398 2 14.4938 22.8416 33.4874 
399 2 -19.0464 -16.7242 19.2938 
400 1 -19.6736 -24.6522 11.1415 
401 1 -19.2829 -20.2752 22.6381 
402 1 27.4878 -21.0156 -13.5091 
403 1 33.8036 -1.48609 -4.4111 
404 1 -1.26266 -21.8836 30.1727 
405 1 -17.7919 -20.4852 20.7554 
406 1 -27.9894 -0.216338 -29.2757 
407 2 -16.6272 -21.7775 28.185 
408 2 19.5027 -12.3246 28.9223 
409 2 17.4973 -34.1102 -30.5779 
410 1 -2.61876 -6.01963 -1.64024 
411 1 16.4475 26.2095 27.0626 
412 1 -4.41432 7.8486 -2.36028 
413 1 27.0436 24.2206 -21.6926 
414 1 4.89958 -6.54616 -35.0203 
415 1 -16.692 13.7282 7.94289 
416 1 -33.1591 -17.3326 -29.8764 
417 1 19.3325 1.72376 -4.70568 
418 1 27.9336 -29.5477 -20.2475 
419 1 -7.74288 15.9061 33.2282 
420 1 -32.5251 -10.5981 27.5229 
421 2 -9.08067 -32.134 16.3016 
422 1 -28.6199 -32.1385 29.1036 
423 1 13.3012 2.56834 32.6726 
424 1 -15.8834 -34.428 8.68381 
425 2 -16.0718 5.87629 -31.4135 
426 1 17.8144 15.1968 -14.6453 
427 1 -26.1281 -25.4654 31.765 
428 1 -13.3444 9.00071 -17.059 
429 1 6.22035 -32.2982 -35.4245 
430 1 25.875 -11.9791 11.2556 
431 1 -15.6046 -0.263874 14.5724 
432 1 -12.7521 -0.713746 17.8093 
433 1 -5.10876 4.89213 8.32756 
434 2 1.07468 -31.3257 -22.9685 
435 2 18.2382 14.4567 -30.0346 
436 1 11.1172 -20.0624 -26.3127 
437 1 16.3109 -34.2051 34.3374 
438 1 26.3053 33.1731 19.5436 
439 2 -35.0365 -6.22478 -11.9895 
440 2 3.22814 -23.1021 -16.1783 
441 1 28.9947 -16.3192 32.3843 
442 1 16.8913 10.8716 33.0078 
443 1 -22.7209 12.9121 -29.5407 
444 2 -1.34661 -14.8297 22.3276 
445 1 -21.1638 12.2988 6.171 
446 1 32.3923 -6.34561 -1.36844 
447 2 -19.7153 21.3931 7.28615 
448 2 -18.7955 -2.08877 11.861 
449 1 -12.2056 22.3922 22.1005 
450 1 -23.7955 31.2488 -24.4169 
451 1 -25.4103 17.9442 -34.8412 
452 1 8.66257 11.8785 -1.82481 
453 1 -11.1557 18.1363 -35.3004 
454 1 34.8934 -8.04279 -25.7732 
455 1 29.8077 -26.7384 21.1185 
456 2 10.1028 5.99151 8.3936 
457 1 -20.5465 6.6842 32.4692 
458 1 20.2518 11.5293 6.1474 
459 1 26.5318 -27.3103 -17.903 
460 1 -7.56153 -35.4408 -29.5728 
461 2 27.732 26.3072 33.9365 
462 2 34.1564 -26.1175 -29.7272 
463 1 29.888 25.1998 -29.171 
464 1 -23.1729 22.6582 -21.0449 
465 1 5.98794 -1.61876 1.20004 
466 1 -4.76579 14.6131 22.0567 
467 1 -33.8402 -20.718 -11.6684 
468 1 0.365044 -32.3336 -13.2769 
469 2 9.30162 24.0624 14.0889 
470 1 -19.2146 2.44738 8.71651 
471 1 -33.0156 -11.9978 -10.4819 
472 1 19.4916 -15.5953 20.2462 
473 2 26.5197 16.9748 -18.6903 
474 1 -25.4695 -6.69793 9.43329 
475 1 2.751 -17.0177 10.6207 
476 2 33.0988 26.1821 -24.7271 
477 1 10.1408 3.72882 30.1093 
478 1 34.8891 20.9892 15.0958 
479 1 29.9841 8.2139 11.2271 
480 2 11.5589 -15.9186 21.1032 
481 2 -31.2061 34.4494 32.3605 
482 2 -3.08251 24.8842 32.6268 
483 1 25.9546 -5.97084 -18.5715 
484 1 7.58664 25.0419 15.1788 
485 1 -26.3149 -22.3117 -26.4177 
486 1 -23.442 21.8266 23.8747 
487 2 -21.2309 -24.4048 15.144 
488 1 -8.80989 21.3164 16.9984 
489 2 -30.5041 11.731 -5.90694 
490 2 -27.9262 -34.3846 -6.81133 
491 2 -24.8871 5.44357 -10.2467 
492 1 -31.6352 30.396 -29.8882 
493 1 -20.0829 -23.8353 -11.148 
494 1 8.55755 20.048 -31.7313 
495 1 7.18003 8.39237 -14.5809 
496 1 -12.9318 -18.423 -33.5973 
497 2 -11.0107 -16.2196 5.57276 
498 1 3.38639 -1.4129 -11.8927 
499 1 -10.881 26.6772 34.3845 
500 1 -7.27018 21.7754 -35.3556 
501 1 -6.4822 -5.99532 24.4421 
502 2 27.6909 26.476 -26.3894 
503 1 2.99003 29.1791 -11.3975 
504 1 -9.95379 -11.0134 -12.4932 
505 2 21.9185 -21.2897 -20.0535 
506 1 25.001 -1.41614 5.13947 
507 1 -29.1143 -0.372786 9.63196 
508 1 -21.4757 18.3426 -3.03184 
509 2 1.42425 11.4156 -27.8153 
510 1 7.43993 -12.5132 -0.139148 
511 1 33.7323 -27.3707 5.10146 
512 1 -16.4908 12.4888 32.0844 
513 1 22.719 -9.07562 -14.4173 
514 1 -28.1432 8.61854 -6.59616 
515 1 15.5417 22.524 -0.037313 
516 1 -4.30304 -29.424 35.0523 
517 1 3.65356 -28.8574 -4.69735 
518 1 -16.7005 -20.4041 -25.4865 
519 2 29.1351 27.2812 -21.2041 
520 1 17.1557 -34.092 -8.99522 
521 1 25.2728 -33.7447 -29.5845 
522 2 -5.71294 -30.8472 -34.7354 
523 1 -16.0643 24.8163 24.2658 
524 1 0.558815 19.4034 -18.8963 
525 1 11.3416 21.1072 -15.2548 
526 1 25.2265 32.9564 3.29191 
527 1 -16.1935 -12.0542 -31.4529 
528 1 -9.63193 -2.55135 5.52042 
529 1 -11.3337 18.3595 -17.0172 
530 1 -26.7832 21.5146 18.2182 
531 1 5.46633 22.0686 28.2242 
532 2 30.6442 6.47689 -23.9744 
533 1 20.3681 15.1909 31.7856 
534 1 -14.4507 25.5531 20.0512 
535 1 -6.23919 -11.5331 18.2543 
536 2 -17.7521 22.6937 -8.58642 
537 2 6.68458 -13.4434 -8.03256 
538 1 -7.03962 29.1056 -14.1357 
539 2 15.1434 -28.7205 6.63696 
540 1 -5.38797 6.08558 30.2412 
541 1 22.3718 32.5683 27.75 
542 2 -20.1387 -12.5537 -2.61256 
543 1 10.4575 33.8874 28.3231 
544 1 5.984 -29.4721 15.5029 
545 2 31.5661 -13.4979 7.78429 
546 1 31.1696 -13.3916 -21.6865 
547 1 33.4886 2.94392 31.983 
548 2 -32.3208 -32.4936 17.7445 
549 1 15.0151 -25.263 10.3508 
550 2 11.8601 0.442266 -17.2679 
551 1 -26.9081 26.956 -11.4525 
552 1 22.5598 31.275 -12.7041 
553 1 26.9744 -18.5723 10.6638 
554 1 -4.56841 7.38583 7.65884 
555 1 23.077 7.72872 -31.0182 
556 1 -17.5734 -10.1393 -6.98789 
557 1 -35.2971 22.6084 27.3397 
558 1 -32.7192 17.3822 -24.6141 
559 2 -10.8022 35.1472 35.3545 
560 1 -19.8812 14.9506 -27.3088 
561 1 11.844 -0.987164 1.39254 
562 1 -23.4803 20.5858 8.16449 
563 1 -22.7177 32.6204 15.673 
564 1 -5.60627 13.9314 -30.9569 
565 1 14.6423 -16.0926 -19.8995 
566 1 31.9099 -33.4779 28.9678 
567 2 33.0559 4.60299 -10.1529 
568 1 -31.0595 -14.5245 4.73898 
569 2 -6.38935 -13.6874 -27.2197 
570 1 -34.4288 -2.50327 35.2676 
571 1 -10.9162 -26.794 -13.5708 
572 1 32.2137 0.136375 -26.2225 
573 1 -4.87334 -17.6489 19.3778 
574 1 25.5935 -33.3697 4.04214 
575 2 -8.70369 -26.4251 -27.2064 
576 1 -23.2368 -0.0999375 -22.5185 
577 2 -8.15883 -8.45528 6.41228 
578 1 -18.7729 16.0447 -16.0066 
579 1 23.071 23.6931 -3.12435 
580 1 -11.5093 -9.31285 24.8994 
581 2 14.4626 4.00883 -30.7031 
582 1 13.5456 -28.6141 -21.0321 
583 2 -10.5938 -13.7274 -3.9298 
584 1 -34.1626 16.6482 12.0715 
585 2 34.0862 8.22025 -25.3524 
586 2 11.6163 -23.1651 -25.1692 
587 1 28.2382 -1.47951 -14.5216 
588 2 18.7348 32.1291 -3.31398 
589 1 31.4735 -0.465394 0.965475 
590 1 24.5192 -22.5406 0.638468 
591 1 25.4007 -21.1331 -24.6709 
592 1 31.308 -15.7275 2.80942 
593 2 -33.8325 -10.4456 3.53465 
594 1 -22.7296 27.296 -7.69428 
595 2 23.2079 24.3891 14.206 
596 2 -19.5018 -35.0345 -24.2732 
597 1 33.1957 7.93727 -12.7219 
598 1 18.6988 15.8067 -19.3482 
599 2 33.3348 -16.9897 2.84507 
600 1 -19.0287 -18.8955 33.858 
601 1 18.0176 9.20755 15.7094 
602 1 21.5384 -20.1327 -22.0533 
603 1 12.1795 26.9685 -24.9992 
604 1 -13.1861 -24.5023 12.2892 
605 1 24.3483 -30.185 11.1813 
606 1 -14.392 13.2049 6.58233 
607 1 -8.39553 -14.6479 8.02772 
608 2 34.775 29.6932 -26.5554 
609 1 -24.1473 -13.5141 -29.7733 
610 1 -35.3593 5.87015 10.4843 
611 1 11.2346 -17.6202 30.4123 
612 1 -23.2966 -7.34358 -29.3037 
613 2 -9.27324 16.8258 -1.68061 
614 1 34.3151 -16.9716 -17.0235 
615 1 2.39732 18.9782 17.9678 
616 1 7.39334 -19.7526 23.5527 
617 2 -17.7246 16.7558 32.9811 
618 1 -19.7426 -17.5818 -4.84575 
619 1 30.8251 -4.34669 -29.9788 
620 1 28.3001 -1.99122 -7.17197 
621 1 17.6801 -23.1322 -33.6261 
622 2 -20.763 16.8575 8.21969 
623 1 21.8719 27.4602 2.01789 
624 1 -19.8333 -35.2311 -20.0606 
625 1 23.1748 31.8146 -28.7175 
626 1 -27.1773 -12.0338 23.5648 
627 1 11.8527 -3.28866 -23.0791 
628 1 -23.446 -1.05961 6.14306 
629 1 33.7797 -19.5627 14.2848 
630 2 -1.8218 18.0465 16.602 
631 1 17.8882 1.67037 -24.1947 
632 1 -8.92233 -9.92703 -6.05283 
633 1 27.7795 -33.8508 -2.57936 
634 1 -27.4833 32.056 -11.2344 
635 1 16.6002 32.6673 16.5906 
636 1 14.1443 7.40836 -19.3245 
637 1 -6.26412 27.1218 14.4839 
638 2 5.48949 -3.60883 -28.9281 
639 1 -16.6725 -35.2914 0.896339 
640 1 0.838888 -20.6402 -4.49028 
641 1 -12.3162 -11.8621 -30.2318 
642 1 -2.74986 32.6496 -27.1267 
643 1 0.107419 -22.7628 -22.1152 
644 1 11.8197 22.6043 -31.177 
645 1 30.0154 25.7294 -9.02552 
646 1 -13.2725 25.8202 -20.5296 
647 2 32.7078 6.5189 -14.389 
648 1 6.20507 22.1777 -19.7931 
649 2 8.18762 12.4444 7.65839 
650 1 -18.2752 -4.2191 10.6659 
651 2 -0.578237 -11.5629 -16.8779 
652 1 -17.6076 -21.1075 5.65264 
653 1 32.0835 -12.1048 26.2961 
654 2 17.7047 31.5556 4.11474 
655 1 -13.8766 -15.0035 -5.9875 
656 2 -18.6912 -8.84774 18.0142 
657 2 33.6672 17.4304 -12.3284 
658 1 -21.0922 10.6072 -19.9979 
659 1 16.1394 -13.5387 28.811 
660 1 -33.0262 10.0711 31.8157 
661 1 3.17189 -0.333676 -16.224 
662 1 -6.96513 -4.69744 15.6622 
663 1 -19.1084 -26.8274 -24.1178 
664 2 -28.6142 28.941 -27.3447 
665 1 23.8236 16.3252 -27.6316 
666 1 19.0545 22.7229 34.3544 
667 2 4.9279 -18.3121 2.16776 
668 1 25.3852 31.4033 -20.6605 
669 1 -28.5967 -18.9658 21.328 
670 1 3.78833 30.2692 -16.1886 
671 2 -21.1419 14.0748 28.6191 
672 1 -6.3702 -4.44648 8.07218 
673 2 25.4228 -16.017 12.5182 
674 2 28.2572 9.95741 21.4727 
675 2 1.79345 0.182901 -3.08712 
676 1 12.7929 -8.01312 34.0762 
677 1 15.7982 -31.5083 -15.8547 
678 1 19.229 12.7821 15.2161 
679 1 3.8147 -21.8963 11.7158 
680 2 15.8198 -19.1192 -10.5278 
681 1 27.213 -6.44624 -30.199 
682 1 16.9823 33.0366 11.9234 
683 1 1.23844 11.7588 -22.058 
684 1 -9.45966 -27.8174 -19.3774 
685 1 -25.7787 -26.3975 29.4458 
686 1 -8.23531 -12.6385 25.4613 
687 1 33.7472 33.7534 23.7019 
688 1 -1.7953 -13.4238 -31.0174 
689 1 10.5001 -18.7863 0.544888 
690 1 -27.8612 19.2557 -3.50069 
691 1 6.2925 -30.6122 4.90008 
692 2 -20.81 -5.80984 18.7622 
693 2 1.71893 4.48611 -30.1463 
694 1 -24.1577 -34.2008 17.7025 
695 1 25.2918 -31.2867 13.6357 
696 2 -0.878537 28.2526 22.4122 
697 2 2.14968 26.6316 0.429567 
698 1 -14.8667 16.0381 -33.5008 
699 1 22.5469 32.8029 -21.0685 
700 1 15.911 -26.2265 31.0962 
701 1 -5.07476 14.7405 12.8093 
702 1 -5.81013 15.0607 -0.932759 
703 2 14.5692 -35.372 -25.2919 
704 1 21.8618 16.9572 18.8424 
705 1 -34.1706 0.0337788 32.4731 
706 1 -4.55133 -16.1523 -5.04077 
707 1 -5.71489 -21.1458 -23.0652 
708 2 -33.6342 -13.412 -22.0346 
709 1 -3.63606 -14.063 13.3029 
710 1 -16.1221 -11.7729 3.37373 
711 1 30.4661 -19.5137 29.518 
712 1 -19.7566 22.8488 22.4199 
713 2 9.59106 12.4463 20.4556 
714 1 -0.419486 32.3336 24.4068 
715 1 -8.43702 8.12996 -35.3783 
716 1 5.82466 19.9328 10.1569 
717 1 10.8753 -33.8124 7.4634 
718 1 -19.1364 -20.7218 16.1772 
719 1 26.9227 24.959 -28.9821 
720 1 -10.4186 26.8385 30.3854 
721 1 -18.1073 21.2624 -2.67807 
722 1 17.2762 -11.4014 14.2987 
723 1 6.92613 -27.2963 22.9054 
724 1 33.2948 22.538 28.1128 
725 1 1.74675 -8.58206 26.4002 
726 1 21.0018 -8.22227 -1.2334 
727 1 -6.30659 16.074 -33.7856 
728 1 -34.3826 25.326 1.60648 
729 2 -20.1265 -16.1901 -1.79336 
730 1 34.341 -25.0776 9.22926 
731 1 -17.3444 7.2279 -21.8499 
732 1 32.3169 -25.329 5.77592 
733 1 20.0371 26.4905 -3.4444 
734 1 34.0489 -9.54794 11.3224 
735 2 -10.5882 -32.2304 0.759664 
736 1 13.3248 -12.7081 -24.9476 
737 1 1.10532 7.21066 30.602 
738 1 -6.64618 -28.0178 9.27981 
739 1 -21.7028 20.9186 26.5283 
740 1 13.5676 -8.17275 -1.98964 
741 2 26.9332 -8.10739 24.2963 
742 1 -12.4554 -21.3701 18.6397 
743 1 24.7995 28.9482 -20.7928 
744 1 -27.3574 26.1108 -6.42309 
745 2 -5.22571 -5.78488 -22.4883 
746 1 29.4547 26.1611 9.17299 
747 1 -20.6688 -20.9455 -15.4377 
748 1 6.73767 -33.4413 16.5051 
749 2 2.79608 22.2469 -31.2199 
750 2 4.19736 -25.8148 -13.2734 
751 1 -14.0124 -10.7382 -9.79427 
752 1 -6.44882 16.4923 29.1176 
753 1 -25.2882 3.10817 34.9882 
754 1 0.896484 -0.981488 1.67424 
755 1 -31.396 -30.334 3.41569 
756 1 -35.2073 -14.8172 -2.96312 
757 1 2.46192 -1.92999 22.8794 
758 1 12.7689 0.151462 6.94685 
759 2 10.0828 -6.2397 5.81709 
760 1 32.56 16.4245 4.55216 
761 1 1.0414 25.7074 17.1894 
762 1 -31.2617 6.14107 14.6139 
763 1 21.7117 -30.3257 -34.4509 
764 1 31.1316 -31.8847 -9.82352 
765 1 -25.3137 14.498 -12.1141 
766 2 0.908777 2.90475 -8.78118 
767 1 11.2573 -7.76209 -18.8623 
768 1 29.3018 -26.1532 -0.440273 
769 1 -3.01374 33.9912 19.2944 
770 1 -20.6468 -10.2023 18.3139 
771 1 -19.6557 -22.1389 24.23 
772 1 -13.5735 -12.3096 13.0731 
773 1 -12.8324 -19.4136 19.8966 
774 2 -21.5382 -33.6682 25.2042 
775 1 17.4443 21.3892 -3.44207 
776 1 -14.415 33.6267 -25.7531 
777 2 -32.4913 28.4595 1.7796 
778 1 16.965 -7.69793 -32.7238 
779 1 24.9168 -30.377 -27.5186 
780 1 -25.0438 -1.43709 -0.84471 
781 1 -30.7404 32.2017 24.2299 
782 1 -33.4796 -29.0306 31.5308 
783 1 -22.6736 14.2406 -17.7635 
784 1 20.8553 11.9274 -20.0671 
785 2 20.4925 2.00356 16.6302 
786 1 -19.0227 27.0796 -16.9726 
787 2 -21.0741 7.22082 -24.204 
788 1 -5.88235 29.8019 -20.974 
789 2 14.431 -8.96039 33.0219 
790 1 12.3817 -30.1852 -10.2252 
791 2 9.89169 -0.556634 -34.8139 
792 1 -22.6518 1.99016 -14.2491 
793 2 -35.1505 -14.6361 9.36752 
794 2 -22.8991 -19.1307 10.0773 
795 2 3.55071 16.0913 -6.17262 
796 1 31.8111 17.0308 -29.0424 
797 2 26.0382 18.4763 0.0733263 
798 1 6.81682 -1.37016 -6.44852 
799 2 -8.94398 -21.3913 26.4744 
800 2 -12.5639 -5.46165 -1.66506 
801 1 34.0438 -34.1477 4.77772 
802 1 14.2735 29.4287 -9.68353 
803 1 22.0974 3.57397 -0.457957 
804 1 7.1054 -28.7787 -1.22222 
805 1 -15.1052 -23.8001 16.7876 
806 1 -16.6861 28.0271 -12.1928 
807 1 23.0081 21.253 -3.24488 
808 1 30.8796 -8.42326 31.7669 
809 2 -16.7601 8.29989 -23.7675 
810 1 -6.87812 30.7445 23.4217 
811 2 30.5812 -26.3439 -27.0895 
812 1 28.1141 -28.5299 26.0964 
813 1 12.9322 33.6377 32.8322 
814 1 26.835 -0.511346 21.3523 
815 1 -16.0655 26.3778 -7.68612 
816 1 -5.89044 0.224602 -23.0724 
817 2 -2.05259 -5.74132 10.149 
818 1 1.65559 -18.4751 -35.3527 
819 1 -13.5082 12.1444 -10.5949 
820 1 31.817 -2.75492 29.0616 
821 1 15.8237 0.0213987 -21.0181 
822 1 1.64518 -12.6122 -23.946 
823 1 -26.5693 -16.0495 -6.58076 
824 2 -5.95449 -33.1686 -21.4222 
825 2 -13.908 -7.5095 29.1737 
826 1 19.3612 0.708081 11.3873 
827 1 22.4076 15.0865 16.8741 
828 1 21.3745 32.8587 -30.0482 
829 1 34.3866 0.132701 -11.5162 
830 1 -32.0123 20.3831 3.29608 
831 1 -32.3746 -10.5176 1.75448 
832 1 -4.66609 -12.6279 -6.14961 
833 1 16.3462 5.35874 -0.66665 
834 1 22.1343 -8.1522 -24.7179 
835 1 -11.164 -19.1972 -16.5835 
836 1 -28.7369 -17.051 -34.4629 
837 1 19.737 -4.27655 -1.60754 
838 1 -12.1978 -23.6047 20.1483 
839 1 0.330478 15.8796 2.01077 
840 1 20.5077 -11.6733 -13.6731 
841 1 26.1738 13.1692 -2.78195 
842 1 14.2792 31.1097 -23.4625 
843 1 10.9672 -14.4732 34.0382 
844 1 8.07806 15.8617 -17.7121 
845 1 29.5799 26.6495 -11.2779 
846 1 -15.1033 -12.772 -13.4612 
847 2 25.0906 -10.4804 -28.7198 
848 1 13.3477 20.2113 26.9462 
849 1 -13.3744 -17.5537 8.83004 
850 1 -29.7485 -10.8682 7.02287 
851 1 -13.8359 31.6219 10.8437 
852 1 -33.8803 29.168 32.0514 
853 1 -20.455 21.1284 -5.73977 
854 1 15.7959 27.7208 -16.023 
855 2 -19.6611 -23.2269 26.1721 
856 1 22.061 27.1157 31.0775 
857 1 -8.46141 7.30535 1.02414 
858 1 14.2411 -6.61973 -22.3939 
859 2 -2.4584 -28.468 -27.8382 
860 1 -30.7893 33.652 -5.89711 
861 1 -15.5875 -7.96849 -0.726597 
862 1 -15.0206 20.172 16.59 
863 1 4.30741 14.7046 27.4394 
864 1 17.4893 -30.1071 20.0462 
865 1 19.0498 22.0266 -9.8538 
866 2 23.8408 19.9876 8.45445 
867 2 20.9859 7.43059 -30.4508 
868 1 21.1532 34.8295 17.3824 
869 1 -23.195 28.0314 4.49701 
870 2 -10.0058 34.201 -20.1548 
871 1 25.1713 11.1095 -33.7581 
872 1 13.1462 0.691488 -11.7581 
873 1 7.59954 -21.2929 -26.0356 
874 1 -11.94 24.855 -26.2889 
875 1 -8.66124 2.74739 24.3483 
876 1 30.0905 31.373 -34.9123 
877 1 -13.2766 -1.4588 26.2805 
878 2 27.3345 -31.862 7.39755 
879 1 -32.7041 3.83594 -14.6507 
880 1 18.1781 3.84564 -29.3658 
881 2 31.8974 25.481 -19.7177 
882 1 13.3895 -2.39443 -33.768 
883 1 26.0443 7.21893 9.44744 
884 1 -27.3681 27.1405 12.3367 
885 1 24.459 15.8039 -19.2757 
886 2 29.9453 28.601 -12.0151 
887 1 -23.7351 -18.0887 -11.757 
888 1 31.7303 -10.7637 -17.1662 
889 2 25.1205 35.0228 2.33206 
890 1 25.2357 15.7332 -29.5837 
891 2 -14.2394 17.3926 -15.0436 
892 1 -25.7218 -3.14263 -34.314 
893 2 21.5917 16.4517 2.92284 
894 1 22.931 -18.0643 34.0451 
895 1 24.3932 -27.6108 34.7241 
896 2 7.07202 20.5781 7.99902 
897 2 -7.79598 21.056 -2.11167 
898 2 11.413 34.559 23.4764 
899 2 23.0868 -13.8875 -18.8873 
900 1 29.1795 -21.7624 30.8755 
901 2 -33.1189 34.5643 -31.3937 
902 1 20.9172 10.5866 25.7953 
903 1 -14.0452 4.95766 14.8775 
904 1 17.7843 -20.8105 14.7599 
905 1 -12.6189 7.51993 -2.09641 
906 1 -7.65943 4.23972 -18.7979 
907 1 34.6807 13.5598 -23.2177 
908 2 24.2859 27.7261 1.11553 
909 1 5.17032 -16.7668 4.01954 
910 2 -6.32182 26.6516 1.16308 
911 1 -21.8698 8.70953 -28.1356 
912 1 -12.6952 29.7871 32.3889 
913 1 13.5357 29.4691 3.30451 
914 1 -9.66968 -3.26958 -2.26166 
915 2 -28.6841 -22.2969 2.90086 
916 2 -25.3509 -7.08367 11.6439 
917 1 -2.31461 19.4587 -11.5616 
918 1 -1.23887 -14.7143 3.78598 
919 2 0.234616 9.71195 27.3951 
920 1 -27.7679 34.3114 -29.0691 
921 1 15.6692 -33.4652 27.2319 
922 2 -18.2633 -28.9983 34.1103 
923 1 12.7263 -3.85862 26.3421 
924 1 26.3851 -19.6217 32.2025 
925 1 -16.251 -1.84088 12.3785 
926 2 4.19052 31.2755 -21.7018 
927 1 -26.8958 23.2431 20.7925 
928 1 -7.27295 8.84491 22.4084 