units           metal
boundary        p p p
atom_style      atomic
read_data      /HOME/hust_hbyu_1/Samples/Ni80P20_C20/dat/T555.dat
  orthogonal box = (-35.5739 -35.5739 -35.5739) to (35.5739 35.5739 35.5739)
  4 by 5 by 6 MPI processor grid
  reading atoms ...
  32000 atoms
  reading velocities ...
  32000 velocities
pair_style      eam/alloy
pair_coeff      * *   /HOME/hust_hbyu_1/Samples/Ni80P20_C20/dat/NiP.lammps.eam Ni P
mass            1  58.69
mass			2  30.97
neigh_modify    delay 5
timestep 0.01
thermo 100000
reset_timestep 0
thermo_style custom step temp pe etotal press vol lx ly lz
fix             1 all nvt temp 555 555 0.5
thermo_modify flush yes
fix dsf all deform 1 x  wiggle 0.5    300000.0   y volume z volume units box
fix ps1 all ave/time 1 1 300000 c_thermo_press[1] c_thermo_press[2]  c_thermo_press[3] c_thermo_press[4]  c_thermo_press[5] c_thermo_press[6]  file  YDMA555K-stress-300ns.txt
dump            1 all custom 10000000 YDMA555K-300ns.lammpstrj id type x y z
dump_modify 1 sort id
run 150000000
Neighbor list info ...
  1 neighbor list requests
  update every 1 steps, delay 5 steps, check yes
  master list distance cutoff = 8.5
  ghost atom cutoff = 8.5
Memory usage per processor = 3.51183 Mbytes
Step Temp PotEng TotEng Press Volume Lx Ly Lz 
       0    554.37406   -144079.13   -141786.13    139.72696    360149.38    71.147704    71.147704    71.147704 
  100000    556.23336   -143956.29    -141655.6    2618.0348    360149.38    71.158176    71.142469    71.142469 
  200000    554.69667   -143962.91   -141668.58     1954.527    360149.38    71.168642    71.137238    71.137238 
  300000    552.47189   -143953.51   -141668.38    1859.2771    360149.38      71.1791    71.132012    71.132012 
  400000    559.60224    -143956.4   -141641.77    1960.5042    360149.38    71.189543    71.126794    71.126794 
  500000    561.06804      -143932   -141611.31    2839.9508    360149.38    71.199969    71.121587    71.121587 
  600000    559.44708   -143925.43   -141611.45    2806.8246    360149.38    71.210371    71.116392    71.116392 
  700000    553.02528   -143957.14   -141669.71     1797.152    360149.38    71.220746    71.111212    71.111212 
  800000    554.36301   -143947.66   -141654.71     2447.895    360149.38    71.231089    71.106049    71.106049 
  900000    552.57147   -143953.52   -141667.97    2690.7373    360149.38    71.241395    71.100905    71.100905 
 1000000    555.81059   -143953.89   -141654.95    2370.0999    360149.38     71.25166    71.095783    71.095783 
 1100000     553.3335   -143959.11   -141670.41    2072.9529    360149.38     71.26188    71.090685    71.090685 
 1200000    556.14374   -143957.75   -141657.44    2164.1114    360149.38    71.272049    71.085613    71.085613 
 1300000    555.59232   -143951.81   -141653.77     2548.032    360149.38    71.282164     71.08057     71.08057 
 1400000    552.93031    -143958.1   -141671.07    2145.7356    360149.38     71.29222    71.075556    71.075556 
 1500000    558.51551   -143957.13      -141647    2429.3121    360149.38    71.302213    71.070576    71.070576 
 1600000    555.06009   -143960.97   -141665.13    2640.4234    360149.38    71.312138     71.06563     71.06563 
 1700000    556.28682   -143969.75   -141668.84    2016.1177    360149.38     71.32199    71.060721    71.060721 
 1800000    556.62646   -143944.44   -141642.13    2718.6043    360149.38    71.331767    71.055851    71.055851 
 1900000    556.30344   -143944.06   -141643.08    2748.6011    360149.38    71.341462    71.051023    71.051023 
 2000000    557.78269   -143979.52   -141672.42    1853.7324    360149.38    71.351073    71.046238    71.046238 
 2100000    555.55618   -143977.16   -141679.27     2007.265    360149.38    71.360594    71.041498    71.041498 
 2200000    555.10962   -143960.37   -141664.33    1887.4495    360149.38    71.370022    71.036805    71.036805 
 2300000    553.09065   -143967.05   -141679.36    1746.8852    360149.38    71.379352    71.032162    71.032162 
 2400000    552.95714   -143962.11   -141674.97    2488.2422    360149.38    71.388581    71.027571    71.027571 
 2500000    559.22953   -143966.93   -141653.85    1911.7878    360149.38    71.397704    71.023033    71.023033 
 2600000    551.63241   -143963.19   -141681.53    2076.0242    360149.38    71.406718     71.01855     71.01855 
 2700000    557.50496   -143953.94      -141648     2550.758    360149.38    71.415618    71.014125    71.014125 
 2800000    560.88905   -143954.11   -141634.16    2583.8151    360149.38      71.4244    71.009759    71.009759 
 2900000    555.32198   -143941.99   -141645.07    2778.4243    360149.38    71.433061    71.005454    71.005454 
 3000000    554.44203   -143954.77   -141661.49     2030.316    360149.38    71.441597    71.001212    71.001212 
 3100000    551.98051   -143962.79   -141679.69    2125.3383    360149.38    71.450004    70.997035    70.997035 
 3200000    555.31613   -143978.99   -141682.09    1674.7199    360149.38    71.458278    70.992924    70.992924 
 3300000    555.45045   -143978.25    -141680.8    2028.5102    360149.38    71.466416    70.988882    70.988882 
 3400000    557.46781   -143949.74   -141643.94    2774.5273    360149.38    71.474415     70.98491     70.98491 
 3500000    555.58355   -143962.64   -141664.64    2481.0179    360149.38     71.48227    70.981009    70.981009 
 3600000    555.87523   -143967.98   -141668.77    2189.2459    360149.38    71.489978    70.977183    70.977183 
 3700000     557.9018    -143942.5   -141634.91    2814.2704    360149.38    71.497536    70.973431    70.973431 
 3800000    558.67031   -143974.82   -141664.05    2190.0963    360149.38    71.504941    70.969756    70.969756 
 3900000    558.65593   -143943.56   -141632.85    2601.5587    360149.38    71.512189    70.966159    70.966159 
 4000000    556.56304   -143946.77   -141644.72     2574.669    360149.38    71.519277    70.962643    70.962643 
 4100000    554.93468   -143934.02    -141638.7    2933.6634    360149.38    71.526202    70.959207    70.959207 
 4200000    554.30335    -143959.4    -141666.7    2573.0074    360149.38    71.532961    70.955855    70.955855 
 4300000    558.34774   -143955.11   -141645.68    2335.2459    360149.38    71.539551    70.952587    70.952587 
 4400000    556.20923   -143946.08   -141645.49    2847.5392    360149.38    71.545969    70.949404    70.949404 
 4500000    552.96451   -143971.12   -141683.96    1977.7201    360149.38    71.552213    70.946308    70.946308 
 4600000     555.3009   -143951.89   -141655.06    2715.4589    360149.38    71.558279    70.943301    70.943301 
 4700000    556.11725   -143939.74   -141639.53    2752.4931    360149.38    71.564165    70.940384    70.940384 
 4800000    556.06347   -143952.77   -141652.79    2357.4113    360149.38    71.569868    70.937557    70.937557 
 4900000    560.16818   -143963.16    -141646.2    2052.2257    360149.38    71.575386    70.934823    70.934823 
 5000000     558.2853   -143941.96   -141632.79    2834.5752    360149.38    71.580717    70.932181    70.932181 
 5100000    555.58509   -143954.94   -141656.94    3075.8999    360149.38    71.585858    70.929634    70.929634 
 5200000    552.54375   -143964.09   -141678.66    1974.8113    360149.38    71.590806    70.927183    70.927183 
 5300000    556.01096   -143955.68   -141655.91    2749.9054    360149.38     71.59556    70.924828    70.924828 
 5400000    554.53752   -143978.87   -141685.19    1920.1765    360149.38    71.600118    70.922571    70.922571 
 5500000    553.09401   -143967.95   -141680.24    2074.4936    360149.38    71.604477    70.920412    70.920412 
 5600000    555.68333   -143974.41   -141675.99    2427.6116    360149.38    71.608636    70.918352    70.918352 
 5700000    554.78446   -143957.44   -141662.74    2534.6735    360149.38    71.612593    70.916393    70.916393 
 5800000    553.49039   -143961.51   -141672.17    2842.2858    360149.38    71.616345    70.914535    70.914535 
 5900000    553.80323    -143963.5   -141672.86    2450.6077    360149.38    71.619893    70.912779    70.912779 
 6000000    551.99383   -143959.65    -141676.5    2551.6218    360149.38    71.623233    70.911125    70.911125 
 6100000    557.41832   -143964.66   -141659.07    2113.0075    360149.38    71.626364    70.909575    70.909575 
 6200000     553.1983   -143947.88   -141659.75    2678.0248    360149.38    71.629286    70.908129    70.908129 
 6300000    552.01383   -143949.34   -141666.11    2468.2338    360149.38    71.631996    70.906788    70.906788 
 6400000    555.56671   -143962.84   -141664.91    2694.9846    360149.38    71.634494    70.905552    70.905552 
 6500000    552.36292   -143974.24   -141689.56    2003.7049    360149.38    71.636778    70.904421    70.904421 
 6600000    555.24892   -143948.59   -141651.97    2719.8023    360149.38    71.638848    70.903397    70.903397 
 6700000    553.22124   -143963.72   -141675.49    2081.3284    360149.38    71.640702    70.902479    70.902479 
 6800000    556.23356   -143966.41   -141665.72    2088.6875    360149.38    71.642341    70.901668    70.901668 
 6900000    558.30265   -143961.58   -141652.33    2392.0882    360149.38    71.643762    70.900965    70.900965 
 7000000    560.25958   -143954.43   -141637.09    2368.5521    360149.38    71.644965     70.90037     70.90037 
 7100000    554.31387   -143951.58   -141658.83    2686.2237    360149.38    71.645951    70.899882    70.899882 
 7200000    557.87449   -143930.54   -141623.07    2579.6453    360149.38    71.646718    70.899503    70.899503 
 7300000    551.69596   -143954.86   -141672.94    2233.1491    360149.38    71.647266    70.899231    70.899231 
 7400000    554.08919   -143964.77   -141672.95    2613.9632    360149.38    71.647595    70.899069    70.899069 
 7500000    555.70295   -143942.15   -141643.65    2740.5885    360149.38    71.647704    70.899014    70.899014 
 7600000    552.91045   -143963.75    -141676.8    2654.2484    360149.38    71.647595    70.899069    70.899069 
 7700000    554.76026   -143947.88   -141653.28    3105.4839    360149.38    71.647266    70.899231    70.899231 
 7800000    553.70364    -143941.3   -141651.07    3056.1758    360149.38    71.646718    70.899503    70.899503 
 7900000    557.29565   -143947.46   -141642.38     3291.888    360149.38    71.645951    70.899882    70.899882 
 8000000    561.31901   -143949.46   -141627.73    3168.5132    360149.38    71.644965     70.90037     70.90037 
 8100000    560.10833   -143945.68   -141628.96    2588.1686    360149.38    71.643762    70.900965    70.900965 
 8200000    554.31214   -143955.94    -141663.2    2774.8542    360149.38    71.642341    70.901668    70.901668 
 8300000    555.77972   -143938.19   -141639.38    2893.2462    360149.38    71.640702    70.902479    70.902479 
 8400000    553.22633   -143941.25      -141653    2855.8502    360149.38    71.638848    70.903397    70.903397 
 8500000    548.06185   -143946.13   -141679.24    2391.5018    360149.38    71.636778    70.904421    70.904421 
 8600000    556.29828   -143943.01   -141642.05    2711.8788    360149.38    71.634494    70.905552    70.905552 
 8700000    555.41193   -143943.53   -141646.23    2902.7896    360149.38    71.631996    70.906788    70.906788 
 8800000    554.56205   -143947.82   -141654.04    2768.4069    360149.38    71.629286    70.908129    70.908129 
 8900000    552.28828   -143958.66   -141674.29    2541.6737    360149.38    71.626364    70.909575    70.909575 
 9000000    555.29796   -143967.68   -141670.86    2724.0146    360149.38    71.623233    70.911125    70.911125 
 9100000    551.60604   -143947.35   -141665.79    3237.3111    360149.38    71.619893    70.912779    70.912779 
 9200000    554.60593   -143934.28   -141640.32    3248.3244    360149.38    71.616345    70.914535    70.914535 
 9300000    550.78592   -143949.65   -141671.49    2476.0447    360149.38    71.612593    70.916393    70.916393 
 9400000    556.39794   -143934.43   -141633.06    3250.8516    360149.38    71.608636    70.918352    70.918352 
 9500000    552.67849   -143948.04   -141662.06    2879.5381    360149.38    71.604477    70.920412    70.920412 
 9600000    554.67511   -143944.28   -141650.03    2584.0213    360149.38    71.600118    70.922571    70.922571 
 9700000    561.30071   -143929.22   -141607.57    2681.5318    360149.38     71.59556    70.924828    70.924828 
 9800000    556.87037   -143966.95   -141663.63    1890.7282    360149.38    71.590806    70.927183    70.927183 
 9900000    549.89101   -143959.23   -141684.78    2339.6069    360149.38    71.585858    70.929634    70.929634 
10000000    557.63412   -143956.74   -141650.25    2461.3788    360149.38    71.580717    70.932181    70.932181 
10100000    551.93522   -143961.87   -141678.96    2414.9732    360149.38    71.575386    70.934823    70.934823 
10200000    552.43428   -143957.54   -141672.56     2540.498    360149.38    71.569868    70.937557    70.937557 
10300000    553.28869   -143954.51      -141666    2494.1289    360149.38    71.564165    70.940384    70.940384 
10400000    553.19029   -143937.14   -141649.04    2847.2293    360149.38    71.558279    70.943301    70.943301 
10500000    555.42733   -143941.83   -141644.47    2869.9799    360149.38    71.552213    70.946308    70.946308 
10600000    555.77352   -143935.76   -141636.97    2990.8289    360149.38    71.545969    70.949404    70.949404 
10700000    555.11291   -143941.07   -141645.01    2513.2778    360149.38    71.539551    70.952587    70.952587 
10800000    555.18753   -143938.24   -141641.88    2867.6684    360149.38    71.532961    70.955855    70.955855 
10900000    548.16227   -143932.36   -141665.05    3002.6471    360149.38    71.526202    70.959207    70.959207 
11000000    556.88036   -143942.07    -141638.7    3066.5487    360149.38    71.519277    70.962643    70.962643 
11100000    552.28951   -143928.26   -141643.88    3182.0609    360149.38    71.512189    70.966159    70.966159 
11200000    552.34454   -143942.61      -141658    2668.6977    360149.38    71.504941    70.969756    70.969756 
11300000    553.29863      -143926   -141637.45    3291.6316    360149.38    71.497536    70.973431    70.973431 
11400000     555.0998   -143916.66   -141620.65    3587.4796    360149.38    71.489978    70.977183    70.977183 
11500000    554.00108   -143917.47   -141626.01    3667.7174    360149.38     71.48227    70.981009    70.981009 
11600000    554.41169   -143947.61   -141654.45    2808.4004    360149.38    71.474415     70.98491     70.98491 
11700000    556.38636   -143940.33   -141639.01    3197.3535    360149.38    71.466416    70.988882    70.988882 
11800000    555.07265    -143987.2   -141691.31    1939.9563    360149.38    71.458278    70.992924    70.992924 
11900000    555.34031   -143942.52   -141645.52    3340.0672    360149.38    71.450004    70.997035    70.997035 
12000000    558.20568   -143963.88   -141655.03    2134.9514    360149.38    71.441597    71.001212    71.001212 
12100000    551.63728   -143968.18    -141686.5    2063.5154    360149.38    71.433061    71.005454    71.005454 
12200000    555.73223   -143952.86   -141654.24    2275.4475    360149.38      71.4244    71.009759    71.009759 
12300000    553.47157   -143952.65   -141663.38    2522.6584    360149.38    71.415618    71.014125    71.014125 
12400000    554.95385   -143942.09   -141646.69    2907.9623    360149.38    71.406718     71.01855     71.01855 
12500000    555.27474   -143968.94   -141672.21    1959.8432    360149.38    71.397704    71.023033    71.023033 
12600000     559.4001   -143931.85   -141618.07     3078.964    360149.38    71.388581    71.027571    71.027571 
12700000    554.16382   -143948.56   -141656.43    2558.5788    360149.38    71.379352    71.032162    71.032162 
12800000    549.46848   -143949.75   -141677.04    2639.7862    360149.38    71.370022    71.036805    71.036805 
12900000    550.43397   -143948.99   -141672.29    2859.6757    360149.38    71.360594    71.041498    71.041498 
13000000    555.71263   -143923.04    -141624.5     3324.225    360149.38    71.351073    71.046238    71.046238 
13100000    553.37984   -143949.23   -141660.34    2712.4991    360149.38    71.341462    71.051023    71.051023 
13200000     551.8022   -143958.17    -141675.8     2233.142    360149.38    71.331767    71.055851    71.055851 
13300000    555.78356    -143957.4   -141658.57    1982.2805    360149.38     71.32199    71.060721    71.060721 
13400000     553.3798   -143958.28    -141669.4    2551.1196    360149.38    71.312138     71.06563     71.06563 
13500000    555.49133    -143965.4   -141667.78     2690.742    360149.38    71.302213    71.070576    71.070576 
13600000    554.09392   -143946.97   -141655.13    2494.3362    360149.38     71.29222    71.075556    71.075556 
13700000    553.61844    -143955.5   -141665.62    2343.7757    360149.38    71.282164     71.08057     71.08057 
13800000    555.17136    -143965.9    -141669.6    2311.2701    360149.38    71.272049    71.085613    71.085613 
13900000    556.66946   -143946.44   -141643.95     2563.229    360149.38     71.26188    71.090685    71.090685 
14000000    554.35133   -143937.28   -141644.37    2723.0407    360149.38     71.25166    71.095783    71.095783 
14100000    552.45693   -143940.18   -141655.11    2834.2736    360149.38    71.241395    71.100905    71.100905 
14200000    553.73319   -143985.05    -141694.7    2089.8187    360149.38    71.231089    71.106049    71.106049 
14300000     555.3057   -143950.92   -141654.06    3109.4197    360149.38    71.220746    71.111212    71.111212 
14400000    553.87924   -143948.46   -141657.51    2956.0833    360149.38    71.210371    71.116392    71.116392 
14500000    554.31648   -143961.94   -141669.18       2150.1    360149.38    71.199969    71.121587    71.121587 
14600000    556.39504   -143957.68   -141656.32    2845.8032    360149.38    71.189543    71.126794    71.126794 
14700000    552.84253   -143947.87   -141661.21    2688.9646    360149.38      71.1791    71.132012    71.132012 
14800000    549.35736   -143964.33   -141692.08    2685.1428    360149.38    71.168642    71.137238    71.137238 
14900000    555.03278   -143965.01   -141669.29    2446.8334    360149.38    71.158176    71.142469    71.142469 
15000000    554.49456   -143953.03   -141659.53    2867.3785    360149.38    71.147704    71.147704    71.147704 
15100000    552.11662   -143950.48   -141666.82    2933.5678    360149.38    71.137233    71.152941    71.152941 
15200000    557.59915    -143963.8   -141657.46    2827.5086    360149.38    71.126767    71.158176    71.158176 
15300000    559.18054   -143963.77   -141650.89    2521.5026    360149.38    71.116309    71.163407    71.163407 
15400000     558.3921   -143974.06   -141664.45    2131.4631    360149.38    71.105865    71.168633    71.168633 
15500000    558.99381    -143958.8    -141646.7    1986.5402    360149.38     71.09544    71.173851    71.173851 
15600000    555.62826   -143953.26   -141655.08    2715.2201    360149.38    71.085038    71.179058    71.179058 
15700000    557.51935    -143962.6   -141656.59    2612.6934    360149.38    71.074663    71.184253    71.184253 
15800000    555.90798   -143948.72   -141649.38    2670.7554    360149.38     71.06432    71.189433    71.189433 
15900000    550.57693   -143936.11   -141658.81    2478.6137    360149.38    71.054014    71.194596    71.194596 
16000000    550.59035   -143945.77   -141668.42    2622.5204    360149.38    71.043748    71.199739    71.199739 
16100000    553.44399   -143951.04   -141661.89     2369.446    360149.38    71.033529    71.204861    71.204861 
16200000    555.02591   -143934.14   -141638.44    2976.7755    360149.38    71.023359    71.209958    71.209958 
16300000    556.00292   -143944.84   -141645.11    2918.6131    360149.38    71.013244     71.21503     71.21503 
16400000    554.53573    -143940.3   -141646.63    2808.8745    360149.38    71.003188    71.220073    71.220073 
16500000    555.98305   -143927.24   -141627.58    3100.2144    360149.38    70.993196    71.225085    71.225085 
16600000    554.89958   -143959.16   -141663.99    2229.4743    360149.38    70.983271    71.230064    71.230064 
16700000    552.39361    -143944.5   -141659.69    2404.5376    360149.38    70.973418    71.235008    71.235008 
16800000     554.9581   -143956.37   -141660.96    2186.6412    360149.38    70.963642    71.239914    71.239914 
16900000    552.43924   -143957.64   -141672.64    2612.8994    360149.38    70.953947    71.244782    71.244782 
17000000    555.19578   -143952.98   -141656.59    2645.6781    360149.38    70.944336    71.249607    71.249607 
17100000    556.00041    -143933.1   -141633.38    3259.4323    360149.38    70.934815    71.254389    71.254389 
17200000    555.51657   -143951.05   -141653.33    2780.0792    360149.38    70.925387    71.259124    71.259124 
17300000    557.32443   -143958.37   -141653.17    2402.9492    360149.38    70.916056    71.263812    71.263812 
17400000    553.56637   -143947.16    -141657.5    3032.2037    360149.38    70.906827    71.268449    71.268449 
17500000    551.37447   -143929.49    -141648.9    2748.4552    360149.38    70.897704    71.273035    71.273035 
17600000    553.26481   -143949.36   -141660.95    2816.9403    360149.38    70.888691    71.277566    71.277566 
17700000    556.87607   -143929.72   -141626.37    3349.7018    360149.38    70.879791    71.282041    71.282041 
17800000    559.14356   -143949.05   -141636.33    2574.7877    360149.38    70.871009    71.286457    71.286457 
17900000    554.08321   -143952.82   -141661.03    2925.6099    360149.38    70.862348    71.290813    71.290813 
18000000    552.84661   -143949.62   -141662.94    2361.2837    360149.38    70.853812    71.295107    71.295107 
18100000    555.37689   -143944.66   -141647.51    2522.5446    360149.38    70.845405    71.299337    71.299337 
18200000    558.88955    -143935.5   -141623.82    2454.5381    360149.38     70.83713    71.303502    71.303502 
18300000    554.54537      -143950   -141656.29    2337.3789    360149.38    70.828992    71.307598    71.307598 
18400000     556.4547   -143943.72   -141642.12    2874.7833    360149.38    70.820994    71.311624    71.311624 
18500000    554.52247   -143906.62   -141613.01    3139.6967    360149.38    70.813139    71.315579    71.315579 
18600000    555.37068   -143947.27   -141650.15    2645.7608    360149.38    70.805431    71.319461    71.319461 
18700000    555.73445    -143940.3   -141641.67    2873.2869    360149.38    70.797873    71.323268    71.323268 
18800000      556.284   -143930.83   -141629.93    2603.6582    360149.38    70.790468    71.326998    71.326998 
18900000    557.85713   -143921.56   -141614.15    3056.6254    360149.38     70.78322     71.33065     71.33065 
19000000    556.54347   -143934.65   -141632.68    2443.7552    360149.38    70.776132    71.334221    71.334221 
19100000    553.62699   -143960.44   -141670.53    2594.3583    360149.38    70.769207    71.337712    71.337712 
19200000     556.1355   -143937.87   -141637.59    2605.2502    360149.38    70.762448    71.341118    71.341118 
19300000    554.12181   -143923.68   -141631.73    2894.7474    360149.38    70.755858    71.344441    71.344441 
19400000    557.73389   -143939.62   -141632.72    2628.2258    360149.38    70.749439    71.347677    71.347677 
19500000     559.2537   -143936.14   -141622.95    2644.6461    360149.38    70.743196    71.350825    71.350825 
19600000    554.37095   -143921.25   -141628.27    3457.8422    360149.38     70.73713    71.353884    71.353884 
19700000    552.55888   -143945.92   -141660.43    2677.5022    360149.38    70.731244    71.356853    71.356853 
19800000    554.30425   -143931.17   -141638.46    2619.5283    360149.38     70.72554     71.35973     71.35973 
19900000    556.69359   -143928.58   -141625.98    2838.3014    360149.38    70.720022    71.362514    71.362514 
20000000    553.39104   -143928.17   -141639.24    3252.6201    360149.38    70.714692    71.365204    71.365204 
20100000    557.28622   -143934.25   -141629.21    3121.4545    360149.38    70.709551    71.367798    71.367798 
20200000    555.72034   -143939.54   -141640.98    2692.5195    360149.38    70.704603    71.370295    71.370295 
20300000    556.58947   -143931.27   -141629.11    3154.8388    360149.38    70.699848    71.372695    71.372695 
20400000     554.2753   -143949.44   -141656.85    2537.6937    360149.38    70.695291    71.374996    71.374996 
20500000    556.14665   -143949.28   -141648.95    2423.9125    360149.38    70.690932    71.377196    71.377196 
20600000    558.78411   -143956.32   -141645.08     2705.503    360149.38    70.686773    71.379296    71.379296 
20700000    552.99618   -143928.13   -141640.83    2682.8855    360149.38    70.682816    71.381294    71.381294 
20800000    557.19772   -143941.09   -141636.42    2511.8114    360149.38    70.679063    71.383189    71.383189 
20900000     554.6502   -143938.87   -141644.73     2465.064    360149.38    70.675516     71.38498     71.38498 
21000000    553.21777   -143944.14   -141655.92     2263.559    360149.38    70.672176    71.386667    71.386667 
21100000    553.90258   -143936.87   -141645.82    2649.3224    360149.38    70.669045    71.388249    71.388249 
21200000    556.23429   -143940.07   -141639.38    2517.7024    360149.38    70.666123    71.389724    71.389724 
21300000    552.26403   -143950.73   -141666.46    2145.8061    360149.38    70.663413    71.391093    71.391093 
21400000    554.11386   -143943.62    -141651.7    2612.6415    360149.38    70.660915    71.392355    71.392355 
21500000    553.74875   -143928.08   -141637.67    2476.8182    360149.38    70.658631    71.393509    71.393509 
21600000    556.88887   -143926.91   -141623.51    3299.8913    360149.38    70.656561    71.394555    71.394555 
21700000    559.57076   -143936.86   -141622.36    2874.0957    360149.38    70.654706    71.395492    71.395492 
21800000    554.87469   -143934.98   -141639.91    2617.4373    360149.38    70.653068    71.396319    71.396319 
21900000    554.31755   -143927.39   -141634.62    3242.6177    360149.38    70.651647    71.397038    71.397038 
22000000    558.71954   -143943.87    -141632.9    2284.3197    360149.38    70.650443    71.397646    71.397646 
22100000    552.45908   -143915.11   -141630.03    3041.5185    360149.38    70.649458    71.398144    71.398144 
22200000    554.05335   -143932.08   -141640.41    2815.3526    360149.38    70.648691    71.398531    71.398531 
22300000    555.65029   -143929.94   -141631.66    3099.3994    360149.38    70.648143    71.398808    71.398808 
22400000    555.10894   -143955.46   -141659.42    2246.1004    360149.38    70.647814    71.398974    71.398974 
22500000    554.31246   -143942.06   -141649.32    2408.1532    360149.38    70.647704     71.39903     71.39903 
22600000     555.1754   -143955.94   -141659.63    2113.0823    360149.38    70.647814    71.398974    71.398974 
22700000    557.32177   -143943.19      -141638    2772.7295    360149.38    70.648143    71.398808    71.398808 
22800000    557.93657    -143935.8   -141628.07    2538.6234    360149.38    70.648691    71.398531    71.398531 
22900000    554.66526   -143950.92   -141656.72     2813.868    360149.38    70.649458    71.398144    71.398144 
23000000    558.64136   -143939.39   -141628.74    3009.0892    360149.38    70.650443    71.397646    71.397646 
23100000    557.64169   -143947.38   -141640.86     2780.266    360149.38    70.651647    71.397038    71.397038 
23200000    558.14326   -143963.16   -141654.57    2127.4509    360149.38    70.653068    71.396319    71.396319 
23300000    554.05652   -143936.38    -141644.7    2927.0824    360149.38    70.654706    71.395492    71.395492 
23400000    554.29218   -143938.19   -141645.53    2911.4977    360149.38    70.656561    71.394555    71.394555 
23500000    557.54814   -143926.42   -141620.29    3099.8573    360149.38    70.658631    71.393509    71.393509 
23600000    554.92274   -143926.89   -141631.62    3114.4028    360149.38    70.660915    71.392355    71.392355 
23700000     555.1441   -143948.26   -141652.07    2457.7154    360149.38    70.663413    71.391093    71.391093 
23800000    555.95285   -143962.95   -141663.43     2738.025    360149.38    70.666123    71.389724    71.389724 
23900000    559.13871   -143940.35   -141627.64     3106.384    360149.38    70.669045    71.388249    71.388249 
24000000    559.71443   -143940.73   -141625.65    2537.7918    360149.38    70.672176    71.386667    71.386667 
24100000    556.22017   -143944.81   -141644.17    2484.5273    360149.38    70.675516     71.38498     71.38498 
24200000    552.58022    -143948.9   -141663.32    2438.1164    360149.38    70.679063    71.383189    71.383189 
24300000    553.65985   -143955.75    -141665.7    2410.0087    360149.38    70.682816    71.381294    71.381294 
24400000    553.84995    -143949.3   -141658.47    2238.0512    360149.38    70.686773    71.379296    71.379296 
24500000    553.63265   -143944.73    -141654.8    2567.1524    360149.38    70.690932    71.377196    71.377196 
24600000    559.33138   -143976.23   -141662.73    2229.5144    360149.38    70.695291    71.374996    71.374996 
24700000    554.31335   -143958.96   -141666.21    2202.0161    360149.38    70.699848    71.372695    71.372695 
24800000     551.0644   -143945.55   -141666.24     2320.444    360149.38    70.704603    71.370295    71.370295 
24900000    555.18433   -143959.61   -141663.26    2334.2448    360149.38    70.709551    71.367798    71.367798 
25000000    553.05967   -143958.35   -141670.79    2475.7001    360149.38    70.714692    71.365204    71.365204 
25100000     554.5193    -143933.8    -141640.2    2334.5236    360149.38    70.720022    71.362514    71.362514 
25200000    552.35677   -143963.77   -141679.11    2277.7921    360149.38     70.72554     71.35973     71.35973 
25300000    553.48413   -143970.57   -141681.26    2306.4197    360149.38    70.731244    71.356853    71.356853 
25400000     559.9715   -143965.68   -141649.53    2300.9959    360149.38     70.73713    71.353884    71.353884 
25500000    554.05387   -143981.83   -141690.15    1783.0547    360149.38    70.743196    71.350825    71.350825 
25600000    558.62485   -143957.99   -141647.41    2575.5052    360149.38    70.749439    71.347677    71.347677 
25700000    555.68676   -143945.85   -141647.42    2786.2536    360149.38    70.755858    71.344441    71.344441 
25800000    555.46372   -143941.91    -141644.4    2113.8203    360149.38    70.762448    71.341118    71.341118 
25900000    557.09845    -143955.4   -141651.13    2220.9514    360149.38    70.769207    71.337712    71.337712 
26000000    552.45316    -143966.7   -141681.65    2480.2391    360149.38    70.776132    71.334221    71.334221 
26100000    554.10038   -143964.06    -141672.2    2221.1737    360149.38     70.78322     71.33065     71.33065 
26200000    553.50844   -143952.65   -141663.23    2305.2028    360149.38    70.790468    71.326998    71.326998 
26300000    552.48084   -143961.04   -141675.87    2465.8403    360149.38    70.797873    71.323268    71.323268 
26400000    554.03762   -143934.09   -141642.49    3106.5432    360149.38    70.805431    71.319461    71.319461 
26500000    552.48443   -143952.69    -141667.5     2380.979    360149.38    70.813139    71.315579    71.315579 
26600000    553.82582   -143961.88   -141671.14    2266.3279    360149.38    70.820994    71.311624    71.311624 
26700000    559.41449   -143958.03   -141644.18    2554.6846    360149.38    70.828992    71.307598    71.307598 
26800000    557.98994   -143961.94   -141653.99    2308.6571    360149.38     70.83713    71.303502    71.303502 
26900000    554.24252   -143939.55   -141647.09    2620.5399    360149.38    70.845405    71.299337    71.299337 
27000000    554.63617   -143933.48    -141639.4    2908.6316    360149.38    70.853812    71.295107    71.295107 
27100000    556.84347   -143955.16   -141651.95    2371.1565    360149.38    70.862348    71.290813    71.290813 
27200000    554.85231   -143926.77   -141631.79    3111.9655    360149.38    70.871009    71.286457    71.286457 
27300000    555.31338   -143937.49   -141640.61    3028.2862    360149.38    70.879791    71.282041    71.282041 
27400000    554.27549   -143934.87   -141642.27    2746.3101    360149.38    70.888691    71.277566    71.277566 
27500000     552.6621   -143956.04   -141670.12    2293.2735    360149.38    70.897704    71.273035    71.273035 
27600000    554.14956   -143956.66   -141664.59    2323.7617    360149.38    70.906827    71.268449    71.268449 
27700000    556.01421   -143931.75   -141631.96    2559.1473    360149.38    70.916056    71.263812    71.263812 
27800000    556.77317   -143946.79   -141643.87    2428.7736    360149.38    70.925387    71.259124    71.259124 
27900000    556.50065   -143942.37   -141640.57    2561.6188    360149.38    70.934815    71.254389    71.254389 
28000000    562.61897   -143955.11      -141628    2705.2196    360149.38    70.944336    71.249607    71.249607 
28100000    552.80042   -143934.63   -141648.14    2993.2926    360149.38    70.953947    71.244782    71.244782 
28200000    555.70067   -143944.41   -141645.92    2714.8548    360149.38    70.963642    71.239914    71.239914 
28300000    554.90349   -143952.55   -141657.37    2737.4016    360149.38    70.973418    71.235008    71.235008 
28400000    553.43476    -143957.4   -141668.29    2653.9631    360149.38    70.983271    71.230064    71.230064 
28500000    553.96033   -143939.18   -141647.89    2726.4987    360149.38    70.993196    71.225085    71.225085 
28600000    554.99464   -143911.88   -141616.32    3140.4399    360149.38    71.003188    71.220073    71.220073 
28700000    553.39186   -143946.29   -141657.36    2666.0555    360149.38    71.013244     71.21503     71.21503 
28800000    552.92172    -143964.3    -141677.3    2112.1281    360149.38    71.023359    71.209958    71.209958 
28900000    557.26085   -143938.84    -141633.9     2819.338    360149.38    71.033529    71.204861    71.204861 
29000000    555.60805   -143943.81   -141645.71    2850.7328    360149.38    71.043748    71.199739    71.199739 
29100000    554.06202    -143934.8   -141643.09    2547.0374    360149.38    71.054014    71.194596    71.194596 
29200000    551.11989   -143959.46   -141679.93    2322.6996    360149.38     71.06432    71.189433    71.189433 
29300000    556.63537   -143942.25    -141639.9    2756.5251    360149.38    71.074663    71.184253    71.184253 
29400000    555.49409   -143942.21   -141644.58    2636.7101    360149.38    71.085038    71.179058    71.179058 
29500000      556.369   -143954.71   -141653.46    2597.4495    360149.38     71.09544    71.173851    71.173851 
29600000    555.02596   -143961.69   -141665.99    2689.6428    360149.38    71.105865    71.168633    71.168633 
29700000    553.95873   -143957.69    -141666.4    2447.4061    360149.38    71.116309    71.163407    71.163407 
29800000    553.47945   -143939.03   -141649.73    2671.2125    360149.38    71.126767    71.158176    71.158176 
29900000    550.75532   -143945.58   -141667.55    2497.4337    360149.38    71.137233    71.152941    71.152941 
30000000    557.45985   -143960.85   -141655.08    2283.1583    360149.38    71.147704    71.147704    71.147704 
30100000    555.27527   -143941.47   -141644.75    1943.2005    360149.38    71.158176    71.142469    71.142469 
30200000     554.1914   -143945.65    -141653.4    2482.2566    360149.38    71.168642    71.137238    71.137238 
30300000    554.51161    -143931.6   -141638.03    2707.0944    360149.38      71.1791    71.132012    71.132012 
30400000    556.74001   -143932.12   -141629.33     2847.042    360149.38    71.189543    71.126794    71.126794 
30500000    552.38423   -143958.33   -141673.56     1796.712    360149.38    71.199969    71.121587    71.121587 
30600000    553.25754   -143948.41   -141660.03    2755.7683    360149.38    71.210371    71.116392    71.116392 
30700000    550.90277   -143939.82   -141661.18    2473.1712    360149.38    71.220746    71.111212    71.111212 
30800000    556.11529    -143935.8    -141635.6    2734.4433    360149.38    71.231089    71.106049    71.106049 
30900000    556.71411   -143944.17   -141641.49     2979.559    360149.38    71.241395    71.100905    71.100905 
31000000    554.11605   -143942.17   -141650.23    2791.2996    360149.38     71.25166    71.095783    71.095783 
31100000     555.1543   -143920.94   -141624.72     3206.983    360149.38     71.26188    71.090685    71.090685 
31200000    554.51058   -143941.57   -141648.01    2643.9564    360149.38    71.272049    71.085613    71.085613 
31300000    554.75154   -143932.36    -141637.8    2780.5943    360149.38    71.282164     71.08057     71.08057 
31400000    555.56246   -143933.93   -141636.02    2974.7018    360149.38     71.29222    71.075556    71.075556 
31500000    557.60722   -143932.04   -141625.67    2615.2164    360149.38    71.302213    71.070576    71.070576 
31600000    560.03611   -143942.75   -141626.33    2819.2178    360149.38    71.312138     71.06563     71.06563 
31700000    556.62873   -143938.51   -141636.18    2931.4086    360149.38     71.32199    71.060721    71.060721 
31800000    555.44602   -143956.58   -141659.15    2910.1946    360149.38    71.331767    71.055851    71.055851 
31900000    553.69122   -143955.76   -141665.58    2485.6322    360149.38    71.341462    71.051023    71.051023 
32000000    551.33772   -143945.49   -141665.05     2688.692    360149.38    71.351073    71.046238    71.046238 
32100000     554.1809   -143948.98   -141656.78    2321.0562    360149.38    71.360594    71.041498    71.041498 
32200000    553.29058   -143952.17   -141663.65    2613.2853    360149.38    71.370022    71.036805    71.036805 
32300000    555.24626   -143939.18   -141642.57    3097.6398    360149.38    71.379352    71.032162    71.032162 
32400000      557.975    -143925.9   -141618.01    3365.1721    360149.38    71.388581    71.027571    71.027571 
32500000    557.02168   -143925.27   -141621.32     2599.476    360149.38    71.397704    71.023033    71.023033 
32600000    555.25827    -143933.8   -141637.14     2786.216    360149.38    71.406718     71.01855     71.01855 
32700000    555.09749   -143938.33   -141642.34    2789.7394    360149.38    71.415618    71.014125    71.014125 
32800000    556.91524   -143956.03   -141652.52    2460.8889    360149.38      71.4244    71.009759    71.009759 
32900000    557.56404   -143939.03   -141632.84    3242.3029    360149.38    71.433061    71.005454    71.005454 
33000000    556.43736   -143932.04   -141630.51     3142.788    360149.38    71.441597    71.001212    71.001212 
33100000    551.49532   -143923.41   -141642.32    2708.5437    360149.38    71.450004    70.997035    70.997035 
33200000    556.46059   -143919.43    -141617.8     3223.592    360149.38    71.458278    70.992924    70.992924 
33300000    555.10285   -143942.64   -141646.62    2650.8066    360149.38    71.466416    70.988882    70.988882 
33400000    549.41987   -143946.55   -141674.04    2484.1685    360149.38    71.474415     70.98491     70.98491 
33500000    558.03647   -143962.12   -141653.97    2129.8207    360149.38     71.48227    70.981009    70.981009 
33600000    552.07643    -143935.5   -141652.01    2666.1575    360149.38    71.489978    70.977183    70.977183 
33700000    552.94791   -143945.89   -141658.79    2695.7573    360149.38    71.497536    70.973431    70.973431 
33800000    550.32519   -143934.89   -141658.64    2796.4411    360149.38    71.504941    70.969756    70.969756 
33900000    555.44154   -143946.04   -141648.62    2163.1279    360149.38    71.512189    70.966159    70.966159 
34000000    551.25558   -143953.82   -141673.72    2184.4012    360149.38    71.519277    70.962643    70.962643 
34100000    554.62529   -143950.52   -141656.48    2319.3592    360149.38    71.526202    70.959207    70.959207 
34200000    556.38649   -143939.48   -141638.16    2228.4915    360149.38    71.532961    70.955855    70.955855 
34300000    554.46901   -143947.01   -141653.61    2467.2041    360149.38    71.539551    70.952587    70.952587 
34400000     559.0458   -143936.34   -141624.02    2370.0025    360149.38    71.545969    70.949404    70.949404 
34500000    553.00993   -143943.15    -141655.8     2286.084    360149.38    71.552213    70.946308    70.946308 
34600000    552.14028   -143935.63   -141651.87    2894.2007    360149.38    71.558279    70.943301    70.943301 
34700000    554.35005   -143944.18   -141651.28    2303.4669    360149.38    71.564165    70.940384    70.940384 
34800000    554.02179   -143933.02   -141641.47    2876.7658    360149.38    71.569868    70.937557    70.937557 
34900000    553.96771   -143947.89   -141656.57    2471.2956    360149.38    71.575386    70.934823    70.934823 
35000000    551.00642   -143955.39   -141676.32    2143.0313    360149.38    71.580717    70.932181    70.932181 
35100000    558.13039    -143933.1   -141624.56    2712.2217    360149.38    71.585858    70.929634    70.929634 
35200000    552.21466   -143942.25   -141658.18    2734.7804    360149.38    71.590806    70.927183    70.927183 
35300000    556.91292    -143933.3    -141629.8    2716.4372    360149.38     71.59556    70.924828    70.924828 
35400000    552.16772   -143918.09   -141634.22    2854.9765    360149.38    71.600118    70.922571    70.922571 
35500000    559.82641   -143933.45   -141617.89    3040.5125    360149.38    71.604477    70.920412    70.920412 
35600000    554.25227    -143935.9    -141643.4    3067.1869    360149.38    71.608636    70.918352    70.918352 
35700000    558.48938   -143945.43   -141635.41    2632.3443    360149.38    71.612593    70.916393    70.916393 
35800000    555.57403   -143944.53   -141646.57    2555.5996    360149.38    71.616345    70.914535    70.914535 
35900000    556.02017   -143954.57   -141654.76    2246.7511    360149.38    71.619893    70.912779    70.912779 
36000000    554.35499   -143956.75   -141663.83    2555.7568    360149.38    71.623233    70.911125    70.911125 
36100000    554.35183   -143944.19   -141651.28    2708.4114    360149.38    71.626364    70.909575    70.909575 
36200000    554.87441   -143956.78   -141661.71    2573.5174    360149.38    71.629286    70.908129    70.908129 
36300000    556.09494   -143929.88   -141629.76    2640.7739    360149.38    71.631996    70.906788    70.906788 
36400000    552.68102   -143944.55   -141658.55    2528.2395    360149.38    71.634494    70.905552    70.905552 
36500000    557.54369   -143940.84   -141634.73    2674.3191    360149.38    71.636778    70.904421    70.904421 
36600000    553.43217   -143943.11   -141654.01    2612.1711    360149.38    71.638848    70.903397    70.903397 
36700000    552.81452   -143940.33   -141653.78    2761.5174    360149.38    71.640702    70.902479    70.902479 
36800000    555.00688   -143940.32   -141644.71    2647.7283    360149.38    71.642341    70.901668    70.901668 
36900000    556.41436    -143942.2   -141640.77     2588.644    360149.38    71.643762    70.900965    70.900965 
37000000    554.77993   -143967.11   -141672.43    2042.8748    360149.38    71.644965     70.90037     70.90037 
37100000     553.0665   -143962.44   -141674.85    2778.6345    360149.38    71.645951    70.899882    70.899882 
37200000    555.93237   -143950.18   -141650.74    3117.5259    360149.38    71.646718    70.899503    70.899503 
37300000    553.44738    -143950.5   -141661.34    2568.3078    360149.38    71.647266    70.899231    70.899231 
37400000    555.23244   -143936.62   -141640.07    2656.2899    360149.38    71.647595    70.899069    70.899069 
37500000    550.38932   -143915.13   -141638.62    3252.0683    360149.38    71.647704    70.899014    70.899014 
37600000    556.81826   -143949.18   -141646.08     2339.314    360149.38    71.647595    70.899069    70.899069 
37700000     555.3796    -143923.9   -141626.74    2681.2789    360149.38    71.647266    70.899231    70.899231 
37800000    552.76439   -143962.11   -141675.77    2412.7663    360149.38    71.646718    70.899503    70.899503 
37900000    553.89259   -143957.76   -141666.75    2830.2305    360149.38    71.645951    70.899882    70.899882 
38000000    555.23997   -143959.76   -141663.18    2329.6451    360149.38    71.644965     70.90037     70.90037 
38100000    553.90133   -143931.83   -141640.79    2372.4423    360149.38    71.643762    70.900965    70.900965 
38200000    557.52706   -143925.48   -141619.44    2972.2426    360149.38    71.642341    70.901668    70.901668 
38300000      552.267   -143980.48   -141696.19    1949.6091    360149.38    71.640702    70.902479    70.902479 
38400000    554.70409   -143951.58   -141657.21    2428.6172    360149.38    71.638848    70.903397    70.903397 
38500000    554.99645   -143941.57   -141645.99    2678.0181    360149.38    71.636778    70.904421    70.904421 
38600000    551.89476   -143926.06   -141643.31    3053.0336    360149.38    71.634494    70.905552    70.905552 
38700000    551.02157   -143928.24   -141649.11    2357.4396    360149.38    71.631996    70.906788    70.906788 
38800000    553.23389   -143934.37   -141646.08    2773.4095    360149.38    71.629286    70.908129    70.908129 
38900000    555.92266   -143911.59   -141612.19    2957.5943    360149.38    71.626364    70.909575    70.909575 
39000000    553.33421   -143951.84   -141663.14    2676.9905    360149.38    71.623233    70.911125    70.911125 
39100000    555.47152   -143919.28   -141621.74    3307.1485    360149.38    71.619893    70.912779    70.912779 
39200000    550.11949   -143947.65   -141672.25     2441.747    360149.38    71.616345    70.914535    70.914535 
39300000    552.37712   -143956.06   -141671.32    2471.1734    360149.38    71.612593    70.916393    70.916393 
39400000     553.1358   -143929.93   -141642.05    2947.0942    360149.38    71.608636    70.918352    70.918352 
39500000    556.93066   -143929.04   -141625.46    2731.8964    360149.38    71.604477    70.920412    70.920412 
39600000    554.83577   -143926.95   -141632.04     3033.461    360149.38    71.600118    70.922571    70.922571 
39700000    558.43447   -143940.31   -141630.52    2457.7527    360149.38     71.59556    70.924828    70.924828 
39800000    552.82013    -143935.6   -141649.02    2625.4674    360149.38    71.590806    70.927183    70.927183 
39900000    556.53754   -143931.01   -141629.06    2894.4515    360149.38    71.585858    70.929634    70.929634 
40000000    556.64201   -143930.81   -141628.43    2814.1396    360149.38    71.580717    70.932181    70.932181 
40100000    554.42581   -143913.91   -141620.69    3491.5385    360149.38    71.575386    70.934823    70.934823 
40200000     557.6486    -143915.3   -141608.76    3507.9988    360149.38    71.569868    70.937557    70.937557 
40300000    552.97213   -143928.67   -141641.47    2773.3219    360149.38    71.564165    70.940384    70.940384 
40400000    552.13154   -143924.34   -141640.62    2733.0493    360149.38    71.558279    70.943301    70.943301 
40500000    557.80586   -143920.83   -141613.64    3390.0266    360149.38    71.552213    70.946308    70.946308 
40600000    556.55868   -143936.87   -141634.83    2754.1895    360149.38    71.545969    70.949404    70.949404 
40700000    554.16537   -143933.13   -141640.99    2909.5599    360149.38    71.539551    70.952587    70.952587 
40800000    557.12665   -143949.46   -141645.08    2440.6317    360149.38    71.532961    70.955855    70.955855 
40900000    555.09901   -143931.49   -141635.49    3075.1367    360149.38    71.526202    70.959207    70.959207 
41000000    552.31157   -143933.02   -141648.56    2835.9541    360149.38    71.519277    70.962643    70.962643 
41100000    557.43238   -143938.68   -141633.03    2605.3338    360149.38    71.512189    70.966159    70.966159 
41200000    557.55015   -143932.23    -141626.1    2780.3083    360149.38    71.504941    70.969756    70.969756 
41300000    558.73781   -143936.41   -141625.36    2765.1542    360149.38    71.497536    70.973431    70.973431 
41400000    557.23298   -143909.01   -141604.18    3534.5208    360149.38    71.489978    70.977183    70.977183 
41500000    556.89336    -143943.2   -141639.78    3099.6454    360149.38     71.48227    70.981009    70.981009 
41600000    556.13788   -143940.34   -141640.05    2929.2334    360149.38    71.474415     70.98491     70.98491 
41700000    553.02785   -143934.59   -141647.16    2834.1824    360149.38    71.466416    70.988882    70.988882 
41800000    551.84695   -143937.38   -141654.83    2809.8517    360149.38    71.458278    70.992924    70.992924 
41900000    553.52496   -143954.92   -141665.43    2870.4638    360149.38    71.450004    70.997035    70.997035 
42000000    558.17293   -143929.25   -141620.54    2729.7081    360149.38    71.441597    71.001212    71.001212 
42100000    551.95435   -143945.51   -141662.52    2555.1744    360149.38    71.433061    71.005454    71.005454 
42200000    558.79784   -143921.57   -141610.27    3470.9583    360149.38      71.4244    71.009759    71.009759 
42300000    549.83972   -143946.39   -141672.14    2444.0297    360149.38    71.415618    71.014125    71.014125 
42400000    557.28368   -143921.24   -141616.21    3187.6404    360149.38    71.406718     71.01855     71.01855 
42500000    557.99916   -143947.44   -141639.44    3191.0774    360149.38    71.397704    71.023033    71.023033 
42600000    555.86923   -143918.36   -141619.17    3333.0549    360149.38    71.388581    71.027571    71.027571 
42700000     557.7596   -143943.46   -141636.46    2984.1113    360149.38    71.379352    71.032162    71.032162 
42800000    562.17051    -143936.9   -141611.65    3145.6204    360149.38    71.370022    71.036805    71.036805 
42900000    554.27829   -143929.48   -141636.88    3089.0066    360149.38    71.360594    71.041498    71.041498 
43000000     555.3613   -143932.41   -141635.33     3375.884    360149.38    71.351073    71.046238    71.046238 
43100000    557.82217    -143938.2   -141630.94    2546.6544    360149.38    71.341462    71.051023    71.051023 
43200000    554.14419   -143923.49   -141631.44    3006.1923    360149.38    71.331767    71.055851    71.055851 
43300000     555.4398    -143937.3    -141639.9    3011.6623    360149.38     71.32199    71.060721    71.060721 
43400000    554.99772   -143949.62   -141654.04    2010.1773    360149.38    71.312138     71.06563     71.06563 
43500000    555.49844      -143967   -141669.35    2215.1509    360149.38    71.302213    71.070576    71.070576 
43600000    548.64931   -143924.27   -141654.95    2735.3768    360149.38     71.29222    71.075556    71.075556 
43700000    554.42839   -143931.86   -141638.63    2675.6003    360149.38    71.282164     71.08057     71.08057 
43800000    552.93634   -143926.38   -141639.33    3083.0674    360149.38    71.272049    71.085613    71.085613 
43900000    555.94904   -143929.94   -141630.43    3370.5533    360149.38     71.26188    71.090685    71.090685 
44000000    559.16676    -143950.3   -141637.47    2557.0271    360149.38     71.25166    71.095783    71.095783 
44100000    547.99772   -143954.69   -141688.07    2661.4322    360149.38    71.241395    71.100905    71.100905 
44200000    555.28354   -143946.32   -141649.56    2619.4629    360149.38    71.231089    71.106049    71.106049 
44300000    551.91476   -143935.37   -141652.54    2636.3574    360149.38    71.220746    71.111212    71.111212 
44400000    556.10281   -143933.05    -141632.9    2725.4029    360149.38    71.210371    71.116392    71.116392 
44500000    555.72358   -143934.64   -141636.06    2524.4588    360149.38    71.199969    71.121587    71.121587 
44600000    553.54112   -143939.82   -141650.27    2657.3753    360149.38    71.189543    71.126794    71.126794 
44700000    556.45019   -143913.26   -141611.67    2607.6552    360149.38      71.1791    71.132012    71.132012 
44800000    554.71104   -143923.76   -141629.37    2872.3838    360149.38    71.168642    71.137238    71.137238 
44900000    555.69359   -143934.44   -141635.98    2678.6554    360149.38    71.158176    71.142469    71.142469 
45000000     555.0725   -143929.84   -141633.96    3021.1709    360149.38    71.147704    71.147704    71.147704 
45100000    558.70572   -143920.25   -141609.34    3201.0031    360149.38    71.137233    71.152941    71.152941 
45200000     555.5779   -143943.08    -141645.1    2687.6748    360149.38    71.126767    71.158176    71.158176 
45300000    556.52535   -143930.18   -141628.28    3060.8008    360149.38    71.116309    71.163407    71.163407 
45400000    555.24726    -143944.3   -141647.69    2115.3241    360149.38    71.105865    71.168633    71.168633 
45500000    554.37147   -143932.84   -141639.85    2289.9121    360149.38     71.09544    71.173851    71.173851 
45600000    552.51814   -143928.81   -141643.48    2871.6048    360149.38    71.085038    71.179058    71.179058 
45700000    554.71411   -143934.32   -141639.91    2999.1661    360149.38    71.074663    71.184253    71.184253 
45800000    555.88705   -143931.75    -141632.5    2292.8644    360149.38     71.06432    71.189433    71.189433 
45900000    554.45821   -143922.55    -141629.2    2575.7441    360149.38    71.054014    71.194596    71.194596 
46000000     555.8395   -143946.26    -141647.2    2486.9085    360149.38    71.043748    71.199739    71.199739 
46100000    558.25022   -143942.15   -141633.12    2345.0528    360149.38    71.033529    71.204861    71.204861 
46200000     555.5604   -143941.53   -141643.62    2143.3951    360149.38    71.023359    71.209958    71.209958 
46300000    554.89651   -143915.77   -141620.61    3259.3552    360149.38    71.013244     71.21503     71.21503 
46400000    554.70084   -143929.15    -141634.8    2847.1241    360149.38    71.003188    71.220073    71.220073 
46500000    549.33211   -143920.88   -141648.73    2808.8607    360149.38    70.993196    71.225085    71.225085 
46600000    555.73173    -143928.2   -141629.59    2906.4978    360149.38    70.983271    71.230064    71.230064 
46700000    554.20206   -143943.11   -141650.82    2623.2535    360149.38    70.973418    71.235008    71.235008 
46800000    556.57038   -143935.93   -141633.85    2488.7466    360149.38    70.963642    71.239914    71.239914 
46900000    554.67782   -143925.99   -141631.73    3029.6725    360149.38    70.953947    71.244782    71.244782 
47000000    558.14915    -143930.1   -141621.48    3440.2573    360149.38    70.944336    71.249607    71.249607 
47100000    552.69447   -143918.31   -141632.25    3380.2086    360149.38    70.934815    71.254389    71.254389 
47200000    558.11611    -143950.2   -141641.72    2005.1119    360149.38    70.925387    71.259124    71.259124 
47300000    555.59971   -143934.99   -141636.92     2578.518    360149.38    70.916056    71.263812    71.263812 
47400000    553.71791   -143920.68   -141630.39    3312.0224    360149.38    70.906827    71.268449    71.268449 
47500000    557.99645   -143932.02   -141624.04    2618.3998    360149.38    70.897704    71.273035    71.273035 
47600000    554.70453   -143925.47    -141631.1    2889.6507    360149.38    70.888691    71.277566    71.277566 
47700000    554.57188   -143946.89   -141653.07      2559.89    360149.38    70.879791    71.282041    71.282041 
47800000    549.57044   -143925.88   -141652.75    2867.6602    360149.38    70.871009    71.286457    71.286457 
47900000    555.93676   -143962.16    -141662.7    2374.9368    360149.38    70.862348    71.290813    71.290813 
48000000    551.78806   -143945.59   -141663.28    2844.1971    360149.38    70.853812    71.295107    71.295107 
48100000    559.27554   -143936.85   -141623.57    2372.4473    360149.38    70.845405    71.299337    71.299337 
48200000    554.33231   -143938.76   -141645.94    2443.0483    360149.38     70.83713    71.303502    71.303502 
48300000    554.34882   -143941.86   -141648.97     2616.877    360149.38    70.828992    71.307598    71.307598 
48400000    554.68133   -143940.54   -141646.27    2661.6487    360149.38    70.820994    71.311624    71.311624 
48500000    555.80585   -143927.29   -141628.37    3151.2523    360149.38    70.813139    71.315579    71.315579 
48600000    558.30393   -143927.77   -141618.52    3441.8158    360149.38    70.805431    71.319461    71.319461 
48700000    556.34786    -143941.8   -141640.64    2591.2234    360149.38    70.797873    71.323268    71.323268 
48800000    561.32633   -143942.63   -141620.87    2426.5373    360149.38    70.790468    71.326998    71.326998 
48900000    552.08954   -143935.81   -141652.26    2680.2879    360149.38     70.78322     71.33065     71.33065 
49000000    551.29345   -143929.53   -141649.28    2532.7491    360149.38    70.776132    71.334221    71.334221 
49100000    553.62882   -143915.24   -141625.33    3313.6438    360149.38    70.769207    71.337712    71.337712 
49200000    556.55356   -143944.38   -141642.36    2315.4273    360149.38    70.762448    71.341118    71.341118 
49300000    555.38056   -143930.48   -141633.31    2816.8179    360149.38    70.755858    71.344441    71.344441 
49400000    551.30702   -143930.65   -141650.33    2930.8211    360149.38    70.749439    71.347677    71.347677 
49500000    554.22025   -143928.24   -141635.88    2853.9382    360149.38    70.743196    71.350825    71.350825 
49600000    556.28041   -143951.91   -141651.02    2697.9408    360149.38     70.73713    71.353884    71.353884 
49700000    552.08392   -143941.15   -141657.63    2742.9997    360149.38    70.731244    71.356853    71.356853 
49800000    557.06124   -143955.77   -141651.66    2971.2506    360149.38     70.72554     71.35973     71.35973 
49900000    557.73681   -143951.01    -141644.1     2842.676    360149.38    70.720022    71.362514    71.362514 
50000000    559.16603    -143979.2   -141666.38    1801.3317    360149.38    70.714692    71.365204    71.365204 
50100000    554.35056   -143948.57   -141655.66    2532.1043    360149.38    70.709551    71.367798    71.367798 
50200000    556.57218   -143953.81   -141651.72    2184.0794    360149.38    70.704603    71.370295    71.370295 
50300000    551.93881   -143944.03    -141661.1    2515.0484    360149.38    70.699848    71.372695    71.372695 
50400000     556.1223   -143939.34   -141639.11    2591.3533    360149.38    70.695291    71.374996    71.374996 
50500000    554.33805   -143958.66   -141665.81    2284.9126    360149.38    70.690932    71.377196    71.377196 
50600000    556.16534   -143952.69   -141652.29    1990.9707    360149.38    70.686773    71.379296    71.379296 
50700000    556.58724   -143953.81   -141651.65    2240.3017    360149.38    70.682816    71.381294    71.381294 
50800000    555.92657   -143931.69   -141632.27    2625.5159    360149.38    70.679063    71.383189    71.383189 
50900000    552.45831   -143942.92   -141657.85    2430.4941    360149.38    70.675516     71.38498     71.38498 
51000000    548.46258   -143934.83   -141666.28    2827.4451    360149.38    70.672176    71.386667    71.386667 
51100000     554.4965   -143940.92   -141647.41    2524.0531    360149.38    70.669045    71.388249    71.388249 
51200000    555.79953    -143950.3    -141651.4    2644.6525    360149.38    70.666123    71.389724    71.389724 
51300000    553.93737    -143907.8   -141616.61    3264.8304    360149.38    70.663413    71.391093    71.391093 
51400000    552.62853    -143948.5   -141662.72    2598.2027    360149.38    70.660915    71.392355    71.392355 
51500000    555.38425   -143948.03   -141650.86    2220.7581    360149.38    70.658631    71.393509    71.393509 
51600000    553.63321   -143963.66   -141673.73    2385.5735    360149.38    70.656561    71.394555    71.394555 
51700000    553.79356   -143962.29    -141671.7    2241.4229    360149.38    70.654706    71.395492    71.395492 
51800000    553.67871    -143939.4   -141649.28    2811.1857    360149.38    70.653068    71.396319    71.396319 
51900000    555.79121    -143964.2   -141665.34    2470.1511    360149.38    70.651647    71.397038    71.397038 
52000000     560.4048   -143942.74   -141624.79    2776.8582    360149.38    70.650443    71.397646    71.397646 
52100000    553.29919   -143936.75    -141648.2    2396.1041    360149.38    70.649458    71.398144    71.398144 
52200000      551.892   -143934.08   -141651.35    3040.0501    360149.38    70.648691    71.398531    71.398531 
52300000    556.84081   -143909.34   -141606.13    3729.5475    360149.38    70.648143    71.398808    71.398808 
52400000    557.42607   -143926.63      -141621    2674.5676    360149.38    70.647814    71.398974    71.398974 
52500000     554.1594   -143923.52   -141631.41    2789.5786    360149.38    70.647704     71.39903     71.39903 
52600000     553.2106   -143949.56   -141661.37    2367.8462    360149.38    70.647814    71.398974    71.398974 
52700000    554.54652   -143953.11   -141659.39    2692.6849    360149.38    70.648143    71.398808    71.398808 
52800000    554.20076   -143930.48    -141638.2    2848.3344    360149.38    70.648691    71.398531    71.398531 
52900000    557.25507   -143941.21   -141636.29    2563.5384    360149.38    70.649458    71.398144    71.398144 
53000000    552.24372   -143938.84   -141654.65    2712.3403    360149.38    70.650443    71.397646    71.397646 
53100000    556.79381   -143931.64   -141628.63    2992.7267    360149.38    70.651647    71.397038    71.397038 
53200000    552.24995   -143950.91    -141666.7    2595.4556    360149.38    70.653068    71.396319    71.396319 
53300000     554.3454   -143926.43   -141633.55    3178.9208    360149.38    70.654706    71.395492    71.395492 
53400000    558.70857   -143954.64   -141643.72    2855.1344    360149.38    70.656561    71.394555    71.394555 
53500000    549.74456   -143946.13   -141672.28    2541.6679    360149.38    70.658631    71.393509    71.393509 
53600000    555.03001   -143959.96   -141664.25    2098.3083    360149.38    70.660915    71.392355    71.392355 
53700000    557.87647   -143945.06   -141637.57    2636.9568    360149.38    70.663413    71.391093    71.391093 
53800000    557.09186   -143936.69   -141632.45    2479.1767    360149.38    70.666123    71.389724    71.389724 
53900000    552.27392   -143946.27   -141661.95    2502.3029    360149.38    70.669045    71.388249    71.388249 
54000000    554.20239    -143954.3   -141662.02    2716.3036    360149.38    70.672176    71.386667    71.386667 
54100000    553.12763   -143918.54    -141630.7    3169.7331    360149.38    70.675516     71.38498     71.38498 
54200000    558.71868   -143926.98   -141616.01    3278.8664    360149.38    70.679063    71.383189    71.383189 
54300000    556.17559   -143951.54   -141651.09    2723.1195    360149.38    70.682816    71.381294    71.381294 
54400000    557.90347   -143941.16   -141633.56    2870.2758    360149.38    70.686773    71.379296    71.379296 
54500000    555.85809   -143942.77   -141643.63    2708.9827    360149.38    70.690932    71.377196    71.377196 
54600000    554.25774   -143924.75   -141632.24    2804.9876    360149.38    70.695291    71.374996    71.374996 
54700000    549.69631   -143957.52   -141683.87    2092.4056    360149.38    70.699848    71.372695    71.372695 
54800000    550.54583   -143936.58   -141659.42    2798.8427    360149.38    70.704603    71.370295    71.370295 
54900000    554.37671   -143948.64   -141655.63    2702.8804    360149.38    70.709551    71.367798    71.367798 
55000000    553.53218      -143950   -141660.48    2244.6849    360149.38    70.714692    71.365204    71.365204 
55100000    550.37594   -143942.33   -141665.86    2933.1133    360149.38    70.720022    71.362514    71.362514 
55200000    550.83105   -143951.31   -141672.97    2257.2196    360149.38     70.72554     71.35973     71.35973 
55300000    555.89515   -143958.12   -141658.83    2314.4671    360149.38    70.731244    71.356853    71.356853 
55400000     553.9041   -143947.59   -141656.54    2222.6621    360149.38     70.73713    71.353884    71.353884 
55500000    556.37853   -143949.34   -141648.05      2344.53    360149.38    70.743196    71.350825    71.350825 
55600000    559.96728   -143946.78   -141630.65    2345.4351    360149.38    70.749439    71.347677    71.347677 
55700000    551.98815   -143942.82   -141659.69    2357.4198    360149.38    70.755858    71.344441    71.344441 
55800000    547.91145   -143948.53   -141682.26     2309.276    360149.38    70.762448    71.341118    71.341118 
55900000     557.3993   -143958.02   -141652.51     1965.354    360149.38    70.769207    71.337712    71.337712 
56000000    554.47328    -143941.1   -141647.69    2658.8534    360149.38    70.776132    71.334221    71.334221 
56100000    554.95996    -143935.1   -141639.68    3034.5668    360149.38     70.78322     71.33065     71.33065 
56200000    550.24579   -143916.78   -141640.86    2978.7955    360149.38    70.790468    71.326998    71.326998 
56300000    557.24705   -143931.19    -141626.3    2585.9602    360149.38    70.797873    71.323268    71.323268 
56400000    557.15739   -143926.78   -141622.27    2534.0028    360149.38    70.805431    71.319461    71.319461 
56500000    552.12144   -143964.51   -141680.83     2137.322    360149.38    70.813139    71.315579    71.315579 
56600000    550.29486   -143958.92    -141682.8    2269.3808    360149.38    70.820994    71.311624    71.311624 
56700000    555.30737   -143934.07   -141637.21    2790.7965    360149.38    70.828992    71.307598    71.307598 
56800000    551.52249   -143939.16   -141657.95    2841.2054    360149.38     70.83713    71.303502    71.303502 
56900000    550.19592   -143929.75   -141654.03    2938.3663    360149.38    70.845405    71.299337    71.299337 
57000000    555.35023   -143938.61   -141641.57    2816.7155    360149.38    70.853812    71.295107    71.295107 
57100000    553.21752   -143931.12    -141642.9      2798.02    360149.38    70.862348    71.290813    71.290813 
57200000    556.68184   -143932.78   -141630.24    2852.8351    360149.38    70.871009    71.286457    71.286457 
57300000    555.19081   -143940.42   -141644.05      3284.48    360149.38    70.879791    71.282041    71.282041 
57400000    554.85228   -143930.02   -141635.04    2998.8206    360149.38    70.888691    71.277566    71.277566 
57500000    557.49369   -143956.36   -141650.46    2391.4365    360149.38    70.897704    71.273035    71.273035 
57600000     549.5776   -143949.95   -141676.79    2225.1294    360149.38    70.906827    71.268449    71.268449 
57700000     552.0461   -143948.71   -141665.34    2703.3499    360149.38    70.916056    71.263812    71.263812 
57800000    556.12136   -143937.65   -141637.43    2775.8491    360149.38    70.925387    71.259124    71.259124 
57900000    554.46432   -143940.04   -141646.67    2767.0978    360149.38    70.934815    71.254389    71.254389 
58000000    550.52501   -143952.86   -141675.78    2555.4749    360149.38    70.944336    71.249607    71.249607 
58100000     555.6935    -143963.5   -141665.04    2166.3736    360149.38    70.953947    71.244782    71.244782 
58200000    559.55816   -143958.81   -141644.37    2675.2774    360149.38    70.963642    71.239914    71.239914 
58300000    555.15163   -143923.65   -141627.43    3243.9705    360149.38    70.973418    71.235008    71.235008 
58400000    555.66159   -143956.27   -141657.95    2866.1762    360149.38    70.983271    71.230064    71.230064 
58500000    558.53717   -143948.93   -141638.72     2880.343    360149.38    70.993196    71.225085    71.225085 
58600000      558.735   -143978.53   -141667.49    1999.4632    360149.38    71.003188    71.220073    71.220073 
58700000    556.91433   -143952.22   -141648.71    2461.7059    360149.38    71.013244     71.21503     71.21503 
58800000    553.42389   -143954.55   -141665.48    1601.1145    360149.38    71.023359    71.209958    71.209958 
58900000    558.32937   -143938.05   -141628.69    2792.4214    360149.38    71.033529    71.204861    71.204861 
59000000    551.05698   -143943.13   -141663.85    2536.8323    360149.38    71.043748    71.199739    71.199739 
59100000    550.70657    -143952.2   -141674.37     2544.936    360149.38    71.054014    71.194596    71.194596 
59200000    557.82333   -143962.64   -141655.37    2685.7257    360149.38     71.06432    71.189433    71.189433 
59300000    555.57633   -143940.67    -141642.7    2896.6456    360149.38    71.074663    71.184253    71.184253 
59400000    556.15224   -143947.33   -141646.97    2500.7975    360149.38    71.085038    71.179058    71.179058 
59500000    555.87927   -143956.15   -141656.92    2293.4189    360149.38     71.09544    71.173851    71.173851 
59600000    555.80979   -143948.88   -141649.94    2586.0929    360149.38    71.105865    71.168633    71.168633 
59700000    557.14931   -143951.06   -141646.58    2295.6175    360149.38    71.116309    71.163407    71.163407 
59800000    556.25869   -143950.18   -141649.39    2834.5496    360149.38    71.126767    71.158176    71.158176 
59900000    554.86326   -143942.04   -141647.02    2515.3432    360149.38    71.137233    71.152941    71.152941 
60000000    553.15448   -143942.72   -141654.76    2905.5669    360149.38    71.147704    71.147704    71.147704 
60100000    553.20226   -143969.18   -141681.03    2249.8542    360149.38    71.158176    71.142469    71.142469 
60200000    556.76619   -143949.14   -141646.25    2500.8995    360149.38    71.168642    71.137238    71.137238 
60300000    558.31416   -143959.16   -141649.86    2351.8449    360149.38      71.1791    71.132012    71.132012 
60400000    557.33993    -143975.1   -141669.84    1624.1579    360149.38    71.189543    71.126794    71.126794 
60500000    554.28617    -143940.9   -141648.26    2679.8733    360149.38    71.199969    71.121587    71.121587 
60600000    556.18271   -143952.76   -141652.28    2595.6128    360149.38    71.210371    71.116392    71.116392 
60700000    558.53392   -143950.55   -141640.34    2619.3614    360149.38    71.220746    71.111212    71.111212 
60800000    550.35662   -143962.73   -141686.35    1891.0575    360149.38    71.231089    71.106049    71.106049 
60900000    552.38367   -143953.69   -141668.92    2201.9959    360149.38    71.241395    71.100905    71.100905 
61000000    552.54812   -143970.97   -141685.52    2183.6704    360149.38     71.25166    71.095783    71.095783 
61100000     554.9351   -143926.57   -141631.25    3147.6358    360149.38     71.26188    71.090685    71.090685 
61200000    555.06668   -143966.34   -141670.48    2176.7691    360149.38    71.272049    71.085613    71.085613 
61300000    554.38221    -143936.5   -141643.47    2651.6977    360149.38    71.282164     71.08057     71.08057 
61400000    558.77136   -143950.17   -141638.98    2797.9713    360149.38     71.29222    71.075556    71.075556 
61500000    555.92463   -143956.38   -141656.97    2840.4895    360149.38    71.302213    71.070576    71.070576 
61600000    556.34194   -143955.12   -141653.98    2875.4534    360149.38    71.312138     71.06563     71.06563 
61700000    554.24009   -143958.82   -141666.37    2674.6122    360149.38     71.32199    71.060721    71.060721 
61800000    557.20656   -143954.08   -141649.37    2271.1496    360149.38    71.331767    71.055851    71.055851 
61900000    560.05922   -143953.02    -141636.5     2307.736    360149.38    71.341462    71.051023    71.051023 
62000000    557.07203   -143978.89   -141674.73    2018.3662    360149.38    71.351073    71.046238    71.046238 
62100000    557.32443    -143943.5   -141638.29     2616.817    360149.38    71.360594    71.041498    71.041498 
62200000     552.8661   -143946.11   -141659.35     2356.417    360149.38    71.370022    71.036805    71.036805 
62300000    558.62824   -143937.99    -141627.4    2559.1494    360149.38    71.379352    71.032162    71.032162 
62400000     556.8673   -143957.28   -141653.97    2380.3557    360149.38    71.388581    71.027571    71.027571 
62500000    552.71514   -143953.52   -141667.38    2392.8896    360149.38    71.397704    71.023033    71.023033 
62600000    554.86139   -143947.16   -141652.15    2659.2264    360149.38    71.406718     71.01855     71.01855 
62700000     554.6722   -143930.26   -141636.03    3371.6805    360149.38    71.415618    71.014125    71.014125 
62800000    555.93874   -143952.55   -141653.07    2623.5267    360149.38      71.4244    71.009759    71.009759 
62900000    554.61954   -143926.43   -141632.41    2843.5005    360149.38    71.433061    71.005454    71.005454 
63000000    554.86745   -143964.87   -141669.83    2192.0208    360149.38    71.441597    71.001212    71.001212 
63100000    555.92541   -143952.65   -141653.23     2615.047    360149.38    71.450004    70.997035    70.997035 
63200000    554.72752   -143945.37   -141650.91      3004.52    360149.38    71.458278    70.992924    70.992924 
63300000    556.36765   -143948.11   -141646.87    2348.2062    360149.38    71.466416    70.988882    70.988882 
63400000    555.10777   -143921.89   -141625.86    2703.9812    360149.38    71.474415     70.98491     70.98491 
63500000    553.78164   -143943.26   -141652.71    2425.7452    360149.38     71.48227    70.981009    70.981009 
63600000    555.76629   -143962.07   -141663.31    2170.1997    360149.38    71.489978    70.977183    70.977183 
63700000    558.36095   -143943.25   -141633.76    2602.3572    360149.38    71.497536    70.973431    70.973431 
63800000    555.08579   -143950.75    -141654.8    2294.4947    360149.38    71.504941    70.969756    70.969756 
63900000    554.60894    -143936.4   -141642.43    2545.5837    360149.38    71.512189    70.966159    70.966159 
64000000    559.10253   -143930.52   -141617.97    3073.9403    360149.38    71.519277    70.962643    70.962643 
64100000    557.59604    -143932.9   -141626.57    2671.1142    360149.38    71.526202    70.959207    70.959207 
64200000    555.04076   -143964.79   -141669.03    1957.7993    360149.38    71.532961    70.955855    70.955855 
64300000     554.1898   -143937.48   -141645.24    2550.8535    360149.38    71.539551    70.952587    70.952587 
64400000    557.42718   -143940.28   -141634.65    2371.6842    360149.38    71.545969    70.949404    70.949404 
64500000     558.5018   -143934.97   -141624.89    2631.1449    360149.38    71.552213    70.946308    70.946308 
64600000    558.23935   -143941.43   -141632.44    2623.8159    360149.38    71.558279    70.943301    70.943301 
64700000    555.70174   -143954.19    -141655.7     2362.618    360149.38    71.564165    70.940384    70.940384 
64800000    552.04679    -143953.9   -141670.52    2362.6753    360149.38    71.569868    70.937557    70.937557 
64900000    557.80903   -143945.71    -141638.5    2392.8733    360149.38    71.575386    70.934823    70.934823 
65000000    551.22335   -143946.05   -141666.08    2192.4194    360149.38    71.580717    70.932181    70.932181 
65100000     555.4674   -143958.77   -141661.25    2030.2981    360149.38    71.585858    70.929634    70.929634 
65200000    557.84885   -143932.15   -141624.78    2754.1263    360149.38    71.590806    70.927183    70.927183 
65300000    556.88176   -143931.82   -141628.44     3130.039    360149.38     71.59556    70.924828    70.924828 
65400000    553.62843   -143947.79   -141657.88    2812.4865    360149.38    71.600118    70.922571    70.922571 
65500000    554.47001   -143936.25   -141642.85    3028.8751    360149.38    71.604477    70.920412    70.920412 
65600000     554.8397   -143930.78   -141635.85    2888.6693    360149.38    71.608636    70.918352    70.918352 
65700000    550.78031   -143978.55   -141700.42    1681.4152    360149.38    71.612593    70.916393    70.916393 
65800000    557.07388   -143929.67   -141625.51     2985.022    360149.38    71.616345    70.914535    70.914535 
65900000    556.17695   -143946.49   -141646.03    2858.5312    360149.38    71.619893    70.912779    70.912779 
66000000      554.635   -143954.63   -141660.55    2170.0411    360149.38    71.623233    70.911125    70.911125 
66100000    555.78179   -143934.75   -141635.93    3198.4468    360149.38    71.626364    70.909575    70.909575 
66200000    554.56761   -143929.78   -141635.98    3190.2549    360149.38    71.629286    70.908129    70.908129 
66300000    554.02994   -143917.91   -141626.33    3548.6283    360149.38    71.631996    70.906788    70.906788 
66400000    556.25124   -143946.26   -141645.49    2550.5042    360149.38    71.634494    70.905552    70.905552 
66500000    555.48253   -143945.66   -141648.08    2633.0351    360149.38    71.636778    70.904421    70.904421 
66600000      554.275   -143933.21   -141640.62    3082.2092    360149.38    71.638848    70.903397    70.903397 
66700000    555.82995   -143918.05   -141619.03     3152.508    360149.38    71.640702    70.902479    70.902479 
66800000    557.17967   -143944.71   -141640.11    2653.9447    360149.38    71.642341    70.901668    70.901668 
66900000    553.43841   -143922.89   -141633.76    3485.7641    360149.38    71.643762    70.900965    70.900965 
67000000    561.11904   -143931.83   -141610.93    2956.2279    360149.38    71.644965     70.90037     70.90037 
67100000    559.40074   -143933.16   -141619.37    3494.5085    360149.38    71.645951    70.899882    70.899882 
67200000    560.48594   -143941.68    -141623.4    2748.1273    360149.38    71.646718    70.899503    70.899503 
67300000    549.54746    -143940.7   -141667.67    3381.4975    360149.38    71.647266    70.899231    70.899231 
67400000    547.91453   -143935.45   -141669.17    2776.7531    360149.38    71.647595    70.899069    70.899069 
67500000    555.88908   -143917.83   -141618.56    3830.9706    360149.38    71.647704    70.899014    70.899014 
67600000    555.41476   -143927.87   -141630.57     3511.303    360149.38    71.647595    70.899069    70.899069 
67700000    552.57645   -143945.39   -141659.83    2813.4088    360149.38    71.647266    70.899231    70.899231 
67800000    555.99385   -143945.84   -141646.15    2876.1141    360149.38    71.646718    70.899503    70.899503 
67900000    557.04179   -143936.83    -141632.8    3197.1172    360149.38    71.645951    70.899882    70.899882 
68000000    555.62155   -143955.36    -141657.2    3195.4419    360149.38    71.644965     70.90037     70.90037 
68100000    552.69775   -143935.68   -141649.62     3011.662    360149.38    71.643762    70.900965    70.900965 
68200000    557.53315      -143942   -141635.94    2867.7966    360149.38    71.642341    70.901668    70.901668 
68300000    558.27782   -143916.68   -141607.53    3351.6069    360149.38    71.640702    70.902479    70.902479 
68400000    559.22241    -143946.5   -141633.45    2932.7069    360149.38    71.638848    70.903397    70.903397 
68500000    555.54564   -143949.65    -141651.8    2499.2782    360149.38    71.636778    70.904421    70.904421 
68600000    556.11646   -143943.72   -141643.51    2823.7694    360149.38    71.634494    70.905552    70.905552 
68700000    557.07916   -143944.65   -141640.46    3099.7686    360149.38    71.631996    70.906788    70.906788 
68800000    556.00112   -143924.68   -141624.95    3122.3652    360149.38    71.629286    70.908129    70.908129 
68900000    553.68602   -143920.27   -141630.11    2992.4581    360149.38    71.626364    70.909575    70.909575 
[...]
133400000    551.24826   -143956.35   -141676.28    2298.5295    360149.38    71.312138     71.06563     71.06563 
133500000    557.15682   -143957.55   -141653.04    2335.9444    360149.38    71.302213    71.070576    71.070576 
133600000    557.64992   -143942.62   -141636.07     2677.117    360149.38     71.29222    71.075556    71.075556 
133700000    556.92162   -143940.33    -141636.8    2776.2761    360149.38    71.282164     71.08057     71.08057 
133800000    555.45158   -143949.05    -141651.6    2412.9862    360149.38    71.272049    71.085613    71.085613 
133900000    552.66133   -143945.39   -141659.48    2696.9529    360149.38     71.26188    71.090685    71.090685 
134000000    560.12491   -143940.72   -141623.94    2753.8432    360149.38     71.25166    71.095783    71.095783 
134100000    553.65784    -143940.2   -141650.16    2481.3712    360149.38    71.241395    71.100905    71.100905 
134200000     555.4575   -143940.88    -141643.4    2763.3358    360149.38    71.231089    71.106049    71.106049 
134300000    556.62148   -143953.31   -141651.01     2624.108    360149.38    71.220746    71.111212    71.111212 
134400000     557.4957   -143937.24   -141631.33    2959.7505    360149.38    71.210371    71.116392    71.116392 
134500000    553.87606   -143951.54    -141660.6    2426.6126    360149.38    71.199969    71.121587    71.121587 
134600000    555.81868   -143946.92   -141647.95    2235.9573    360149.38    71.189543    71.126794    71.126794 
134700000    553.06783   -143955.53   -141667.94    1714.3318    360149.38      71.1791    71.132012    71.132012 
134800000    555.43418   -143938.58    -141641.2     2289.835    360149.38    71.168642    71.137238    71.137238 
134900000    554.93623    -143934.7   -141639.37    2618.3464    360149.38    71.158176    71.142469    71.142469 
135000000    561.09312   -143962.15   -141641.36    2015.5412    360149.38    71.147704    71.147704    71.147704 
135100000    553.80065   -143945.69   -141655.06    2809.3672    360149.38    71.137233    71.152941    71.152941 
135200000    555.43963   -143947.53   -141650.13    2056.7962    360149.38    71.126767    71.158176    71.158176 
135300000    555.17289   -143973.96   -141677.65    2357.6258    360149.38    71.116309    71.163407    71.163407 
135400000    558.44863   -143948.22   -141638.37    2729.2219    360149.38    71.105865    71.168633    71.168633 
135500000    554.00482   -143923.99   -141632.52      2591.07    360149.38     71.09544    71.173851    71.173851 
135600000      554.394   -143959.22   -141666.14    2583.4015    360149.38    71.085038    71.179058    71.179058 
135700000    556.02535    -143927.8   -141627.97    2691.5719    360149.38    71.074663    71.184253    71.184253 
135800000    559.98561   -143946.67   -141630.46    2664.9163    360149.38     71.06432    71.189433    71.189433 
135900000    552.16044   -143951.45   -141667.61    2279.9151    360149.38    71.054014    71.194596    71.194596 
136000000     560.6518   -143933.88   -141614.92     2899.803    360149.38    71.043748    71.199739    71.199739 
136100000    555.84215   -143968.38   -141669.31    1889.7112    360149.38    71.033529    71.204861    71.204861 
136200000    553.10957   -143945.59   -141657.82    2466.9967    360149.38    71.023359    71.209958    71.209958 
136300000    558.99063    -143925.6   -141613.51    3010.6923    360149.38    71.013244     71.21503     71.21503 
136400000    556.79969    -143935.1   -141632.07    2799.3599    360149.38    71.003188    71.220073    71.220073 
136500000    557.59682   -143934.59   -141628.26    2562.2266    360149.38    70.993196    71.225085    71.225085 
136600000      560.032   -143934.57   -141618.17    2886.8125    360149.38    70.983271    71.230064    71.230064 
136700000    555.90943   -143962.95    -141663.6    2441.4623    360149.38    70.973418    71.235008    71.235008 
136800000    552.28961   -143943.41   -141659.03    2419.5033    360149.38    70.963642    71.239914    71.239914 
136900000    558.15235   -143956.85   -141648.22     2499.974    360149.38    70.953947    71.244782    71.244782 
137000000    549.92321   -143952.92   -141678.33    2417.6552    360149.38    70.944336    71.249607    71.249607 
137100000    553.92909   -143963.49   -141672.33    2033.3981    360149.38    70.934815    71.254389    71.254389 
137200000    553.38689   -143927.68   -141638.77    2928.9258    360149.38    70.925387    71.259124    71.259124 
137300000    550.24924   -143937.12   -141661.19    2958.9813    360149.38    70.916056    71.263812    71.263812 
137400000    555.08294    -143945.9   -141649.97    2352.0761    360149.38    70.906827    71.268449    71.268449 
137500000    557.43681   -143947.45   -141641.78    2646.6568    360149.38    70.897704    71.273035    71.273035 
137600000    553.23558   -143948.43   -141660.14    2436.9431    360149.38    70.888691    71.277566    71.277566 
137700000     552.6514   -143955.23   -141669.35    2473.9052    360149.38    70.879791    71.282041    71.282041 
137800000     555.6767   -143959.69    -141661.3    2576.2214    360149.38    70.871009    71.286457    71.286457 
137900000    559.95307   -143956.96   -141640.88    2581.4297    360149.38    70.862348    71.290813    71.290813 
138000000    555.78902   -143934.89   -141636.04    2690.7732    360149.38    70.853812    71.295107    71.295107 
138100000    558.10673   -143939.84    -141631.4    2447.9924    360149.38    70.845405    71.299337    71.299337 
138200000    553.22081   -143963.95   -141675.72    2272.4577    360149.38     70.83713    71.303502    71.303502 
138300000    556.86784   -143959.59   -141656.28    2370.0294    360149.38    70.828992    71.307598    71.307598 
138400000    558.37302   -143930.81   -141621.27    2935.1591    360149.38    70.820994    71.311624    71.311624 
138500000    556.83957   -143963.23   -141660.03    2310.8552    360149.38    70.813139    71.315579    71.315579 
138600000    554.91262    -143935.6   -141640.37    3111.1177    360149.38    70.805431    71.319461    71.319461 
138700000    558.93248    -143920.7   -141608.85    3019.2789    360149.38    70.797873    71.323268    71.323268 
138800000    557.58081   -143929.13   -141622.87    3294.6625    360149.38    70.790468    71.326998    71.326998 
138900000     553.9285   -143950.86   -141659.71    2695.9335    360149.38     70.78322     71.33065     71.33065 
139000000    550.11278   -143942.06   -141666.68     3045.461    360149.38    70.776132    71.334221    71.334221 
139100000    555.46108   -143972.44   -141674.94    2264.5841    360149.38    70.769207    71.337712    71.337712 
139200000    550.67615   -143944.37   -141666.67    2376.0329    360149.38    70.762448    71.341118    71.341118 
139300000    554.27481   -143965.22   -141672.63    2573.1582    360149.38    70.755858    71.344441    71.344441 
139400000    556.17287   -143934.01   -141633.57    3366.0715    360149.38    70.749439    71.347677    71.347677 
139500000     553.6245   -143958.14   -141668.24    2267.9318    360149.38    70.743196    71.350825    71.350825 
139600000    555.70898   -143940.61   -141642.09    2643.1633    360149.38     70.73713    71.353884    71.353884 
139700000    555.29364   -143970.62   -141673.82    2232.6374    360149.38    70.731244    71.356853    71.356853 
139800000    550.01001   -143950.36   -141675.41     2537.768    360149.38     70.72554     71.35973     71.35973 
139900000    552.47537    -143948.9   -141663.75    2913.9682    360149.38    70.720022    71.362514    71.362514 
140000000    555.30881   -143957.96    -141661.1    2357.1886    360149.38    70.714692    71.365204    71.365204 
140100000    551.19479   -143940.27   -141660.42    2728.5926    360149.38    70.709551    71.367798    71.367798 
140200000    556.73893    -143934.4   -141631.62    3038.4198    360149.38    70.704603    71.370295    71.370295 
140300000    552.35316   -143949.05   -141664.41    2648.4881    360149.38    70.699848    71.372695    71.372695 
140400000    552.31652   -143939.29    -141654.8    2799.2755    360149.38    70.695291    71.374996    71.374996 
140500000    555.51916   -143946.05   -141648.32    2832.5809    360149.38    70.690932    71.377196    71.377196 
140600000     559.0188   -143959.89   -141647.68    2618.5278    360149.38    70.686773    71.379296    71.379296 
140700000    557.60043   -143970.16   -141663.81    2180.8901    360149.38    70.682816    71.381294    71.381294 
140800000    550.98628   -143931.71   -141652.72    2996.5581    360149.38    70.679063    71.383189    71.383189 
140900000    559.15479   -143965.37    -141652.6    2485.0687    360149.38    70.675516     71.38498     71.38498 
141000000    557.81264   -143953.91   -141646.69    2435.3717    360149.38    70.672176    71.386667    71.386667 
141100000    557.23519   -143989.72   -141684.88    1933.3932    360149.38    70.669045    71.388249    71.388249 
141200000    559.19009    -143938.8   -141625.88    3604.2957    360149.38    70.666123    71.389724    71.389724 
141300000    555.04141   -143950.15   -141654.39    2672.5942    360149.38    70.663413    71.391093    71.391093 
141400000    555.30691   -143938.19   -141641.33     2836.896    360149.38    70.660915    71.392355    71.392355 
141500000    558.20992   -143949.26    -141640.4    2707.5697    360149.38    70.658631    71.393509    71.393509 
141600000    553.92672   -143960.86   -141669.71    2271.4772    360149.38    70.656561    71.394555    71.394555 
141700000    555.68237   -143932.47   -141634.06     2981.456    360149.38    70.654706    71.395492    71.395492 
141800000    547.88345    -143928.8   -141662.65     2870.748    360149.38    70.653068    71.396319    71.396319 
141900000     557.5246   -143960.82   -141654.79    2202.4399    360149.38    70.651647    71.397038    71.397038 
142000000    556.95908   -143954.68   -141650.99    2321.3065    360149.38    70.650443    71.397646    71.397646 
142100000     554.8597    -143944.6    -141649.6    2257.3787    360149.38    70.649458    71.398144    71.398144 
142200000     557.8129   -143945.52    -141638.3    2936.8478    360149.38    70.648691    71.398531    71.398531 
142300000    554.77151   -143947.91   -141653.27    3089.5348    360149.38    70.648143    71.398808    71.398808 
142400000    554.20871   -143966.86   -141674.54    2667.3088    360149.38    70.647814    71.398974    71.398974 
142500000    551.95831   -143942.65   -141659.65    2999.1491    360149.38    70.647704     71.39903     71.39903 
142600000    555.64134   -143935.02   -141636.78    2664.1539    360149.38    70.647814    71.398974    71.398974 
142700000    553.15941   -143924.43   -141636.46    3725.0015    360149.38    70.648143    71.398808    71.398808 
142800000    556.25746   -143925.65   -141624.86    3268.0316    360149.38    70.648691    71.398531    71.398531 
142900000    554.95113   -143925.59    -141630.2    3100.7676    360149.38    70.649458    71.398144    71.398144 
143000000    553.47885   -143942.12   -141652.82     2941.896    360149.38    70.650443    71.397646    71.397646 
143100000    556.05567   -143949.51   -141649.56     2826.903    360149.38    70.651647    71.397038    71.397038 
143200000    549.89228   -143961.85   -141687.39    2681.3026    360149.38    70.653068    71.396319    71.396319 
143300000    554.79104    -143926.2   -141631.48    3045.3154    360149.38    70.654706    71.395492    71.395492 
143400000    553.50727   -143934.29   -141644.87    3167.0089    360149.38    70.656561    71.394555    71.394555 
143500000    552.69047   -143941.39   -141655.35    2500.4231    360149.38    70.658631    71.393509    71.393509 
143600000    552.44925   -143929.12   -141644.08    3138.0672    360149.38    70.660915    71.392355    71.392355 
143700000    553.55905   -143941.49   -141651.86    2996.1435    360149.38    70.663413    71.391093    71.391093 
143800000    556.87367    -143920.3   -141616.96    3271.5891    360149.38    70.666123    71.389724    71.389724 
143900000    555.35828   -143964.56   -141667.49    2171.1684    360149.38    70.669045    71.388249    71.388249 
144000000    555.50096   -143947.39   -141649.73    2842.6014    360149.38    70.672176    71.386667    71.386667 
144100000    555.32804   -143934.59   -141637.64    3291.4495    360149.38    70.675516     71.38498     71.38498 
144200000    552.16412   -143926.99   -141643.13    3503.7529    360149.38    70.679063    71.383189    71.383189 
144300000    555.78086    -143920.5   -141621.68    3164.6565    360149.38    70.682816    71.381294    71.381294 
144400000    557.09719   -143943.24   -141638.98    2386.7593    360149.38    70.686773    71.379296    71.379296 
144500000    555.31562   -143942.44   -141645.55    2797.5084    360149.38    70.690932    71.377196    71.377196 
144600000    556.90063   -143944.77   -141641.32    2923.9118    360149.38    70.695291    71.374996    71.374996 
144700000    556.35932   -143946.51    -141645.3    2661.4086    360149.38    70.699848    71.372695    71.372695 
144800000     553.1124   -143945.04   -141657.26    2566.9395    360149.38    70.704603    71.370295    71.370295 
144900000    548.53193   -143940.22   -141671.39    2631.4712    360149.38    70.709551    71.367798    71.367798 
145000000    559.68304   -143926.87   -141611.92    3224.0138    360149.38    70.714692    71.365204    71.365204 
145100000    553.90005   -143926.34    -141635.3    3287.3214    360149.38    70.720022    71.362514    71.362514 
145200000     556.2049   -143937.96   -141637.39    2905.9399    360149.38     70.72554     71.35973     71.35973 
145300000    554.60886   -143942.01   -141648.04    2672.6038    360149.38    70.731244    71.356853    71.356853 
145400000    555.57838   -143937.02   -141639.04    2866.8755    360149.38     70.73713    71.353884    71.353884 
145500000     557.5223   -143935.57   -141629.55    2445.9506    360149.38    70.743196    71.350825    71.350825 
145600000    551.93442   -143943.19   -141660.28    2412.5264    360149.38    70.749439    71.347677    71.347677 
145700000    558.29903   -143945.86   -141636.63    2704.6752    360149.38    70.755858    71.344441    71.344441 
145800000    557.71431   -143952.02    -141645.2     2300.216    360149.38    70.762448    71.341118    71.341118 
145900000    557.79952   -143934.79   -141627.63    3022.1859    360149.38    70.769207    71.337712    71.337712 
146000000    553.06337   -143929.97   -141642.39    2934.9865    360149.38    70.776132    71.334221    71.334221 
146100000    554.66803   -143928.62    -141634.4    2838.5469    360149.38     70.78322     71.33065     71.33065 
146200000    553.77903   -143947.54      -141657    2478.0678    360149.38    70.790468    71.326998    71.326998 
146300000    552.18939    -143957.3   -141673.34    2508.6657    360149.38    70.797873    71.323268    71.323268 
146400000    557.64607   -143947.26   -141640.73    2520.9137    360149.38    70.805431    71.319461    71.319461 
146500000    555.17704   -143899.85   -141603.53    3819.8703    360149.38    70.813139    71.315579    71.315579 
146600000    554.46566   -143922.13   -141628.75    2672.1242    360149.38    70.820994    71.311624    71.311624 
146700000     550.4354   -143924.02   -141647.32    2810.6196    360149.38    70.828992    71.307598    71.307598 
146800000    555.93529   -143924.88   -141625.43    3367.1656    360149.38     70.83713    71.303502    71.303502 
146900000     552.5429   -143921.45   -141636.03    2841.8928    360149.38    70.845405    71.299337    71.299337 
147000000    558.42019   -143930.42   -141620.68    2788.9866    360149.38    70.853812    71.295107    71.295107 
147100000    549.84227   -143928.01   -141653.75    2798.6624    360149.38    70.862348    71.290813    71.290813 
147200000    554.64417   -143934.61    -141640.5    3002.7373    360149.38    70.871009    71.286457    71.286457 
147300000    556.54073   -143937.79   -141635.83    2777.2834    360149.38    70.879791    71.282041    71.282041 
147400000    557.34917   -143916.13   -141610.83    3312.0109    360149.38    70.888691    71.277566    71.277566 
147500000    551.50203   -143929.78   -141648.66    3002.4664    360149.38    70.897704    71.273035    71.273035 
147600000    555.40989    -143931.3   -141634.02    2396.1425    360149.38    70.906827    71.268449    71.268449 
147700000    553.95706   -143934.51   -141643.23    2764.9296    360149.38    70.916056    71.263812    71.263812 
147800000     551.6178   -143940.55   -141658.95    2583.0302    360149.38    70.925387    71.259124    71.259124 
147900000     556.3503   -143919.29   -141618.11    3072.9279    360149.38    70.934815    71.254389    71.254389 
148000000    555.25924    -143945.2   -141648.54    2550.8937    360149.38    70.944336    71.249607    71.249607 
148100000    552.85746    -143916.1   -141629.38    3182.5606    360149.38    70.953947    71.244782    71.244782 
148200000     553.4809   -143935.47   -141646.17    2976.0276    360149.38    70.963642    71.239914    71.239914 
148300000    556.83204   -143930.41   -141627.24    3001.5869    360149.38    70.973418    71.235008    71.235008 
148400000    553.75026   -143932.22    -141641.8    2555.4264    360149.38    70.983271    71.230064    71.230064 
148500000    547.16742   -143943.54   -141680.35    2327.5792    360149.38    70.993196    71.225085    71.225085 
148600000    557.10915   -143927.99   -141623.68    2981.7762    360149.38    71.003188    71.220073    71.220073 
148700000    555.64648   -143934.78   -141636.52    3067.4791    360149.38    71.013244     71.21503     71.21503 
148800000    555.56063   -143958.35   -141660.44    2341.7419    360149.38    71.023359    71.209958    71.209958 
148900000    553.36625   -143945.44   -141656.61    2453.7297    360149.38    71.033529    71.204861    71.204861 
149000000    550.06814    -143928.6   -141653.41    3109.3713    360149.38    71.043748    71.199739    71.199739 
149100000    552.74102   -143926.65    -141640.4    3067.4444    360149.38    71.054014    71.194596    71.194596 
149200000    555.39047   -143946.44   -141649.24    2538.7655    360149.38     71.06432    71.189433    71.189433 
149300000    557.37517   -143930.08   -141624.67    3079.4625    360149.38    71.074663    71.184253    71.184253 
149400000    554.48266   -143944.38   -141650.94    3102.7237    360149.38    71.085038    71.179058    71.179058 
149500000    554.55351   -143933.82   -141640.08    2960.8235    360149.38     71.09544    71.173851    71.173851 
149600000    552.38144   -143937.49   -141652.74    2716.0841    360149.38    71.105865    71.168633    71.168633 
149700000    551.43146   -143940.48   -141659.65    2849.5127    360149.38    71.116309    71.163407    71.163407 
149800000    562.54138   -143942.14   -141615.36    2999.5683    360149.38    71.126767    71.158176    71.158176 
149900000    553.68809   -143940.98   -141650.82    2842.8909    360149.38    71.137233    71.152941    71.152941 
150000000     556.0613   -143929.24   -141629.27    2870.1468    360149.38    71.147704    71.147704    71.147704 
Loop time of 331911 on 120 procs (120 MPI x 1 OpenMP) for 150000000 steps with 32000 atoms

Pair  time (%) = 242810 (73.1551)
Neigh time (%) = 17257.8 (5.19953)
Comm  time (%) = 52823.6 (15.915)
Outpt time (%) = 2.00804 (0.000604993)
Other time (%) = 19017.9 (5.72981)

Nlocal:    266.667 ave 277 max 257 min
Histogram: 5 3 5 23 25 19 19 11 7 3
Nghost:    2518.67 ave 2555 max 2492 min
Histogram: 2 8 19 28 23 22 12 4 0 2
Neighs:    30447.3 ave 32202 max 28468 min
Histogram: 3 7 14 18 12 13 21 12 13 7

Total # of neighbors = 3653676
Ave neighs/atom = 114.177
Neighbor list builds = 15823518
Dangerous builds = 3002
write_restart  dms300ns_555-10c.rst
clear
WARNING: OMP_NUM_THREADS environment is not set. (../comm.cpp:89)
  using 1 OpenMP thread(s) per MPI task
#jump YDMA575-300ns.lmp
