units           metal
boundary        p p p
atom_style      atomic
read_data      /HOME/hust_hbyu_1/Samples/Ni80P20_C20/dat/T355.dat
  orthogonal box = (-35.4485 -35.4485 -35.4485) to (35.4485 35.4485 35.4485)
  4 by 5 by 6 MPI processor grid
  reading atoms ...
  32000 atoms
  reading velocities ...
  32000 velocities
pair_style      eam/alloy
pair_coeff      * *   /HOME/hust_hbyu_1/Samples/Ni80P20_C20/dat/NiP.lammps.eam Ni P
mass            1  58.69
mass			2  30.97
neigh_modify    delay 5
timestep 0.01
thermo 100000
reset_timestep 0
thermo_style custom step temp pe etotal press vol lx ly lz
fix             1 all nvt temp 355 355 0.5
thermo_modify flush yes
fix dsf all deform 1 x  wiggle 0.5    300000.0   y volume z volume units box
fix ps1 all ave/time 1 1 300000 c_thermo_press[1] c_thermo_press[2]  c_thermo_press[3] c_thermo_press[4]  c_thermo_press[5] c_thermo_press[6]  file  YDMA355K-stress-300ns.txt
dump            1 all custom 10000000 YDMA355K-300ns.lammpstrj id type x y z
dump_modify 1 sort id
run 150000000
Neighbor list info ...
  1 neighbor list requests
  update every 1 steps, delay 5 steps, check yes
  master list distance cutoff = 8.5
  ghost atom cutoff = 8.5
Memory usage per processor = 3.51254 Mbytes
Step Temp PotEng TotEng Press Volume Lx Ly Lz 
       0    354.82206   -145099.95   -143632.33   -1079.0093    356355.65    70.897004    70.897004    70.897004 
  100000    354.14459   -145034.42   -143569.61    301.96321    356355.65    70.907475    70.891769    70.891769 
  200000    356.50031   -145039.46   -143564.91  -0.50433446    356355.65    70.917942    70.886537    70.886537 
  300000    355.79587   -145024.05    -143552.4    431.88103    356355.65    70.928399    70.881312    70.881312 
  400000     357.0789   -145038.29   -143561.34    148.13329    356355.65    70.938843    70.876094    70.876094 
  500000    356.55691   -145043.66   -143568.87    200.17511    356355.65    70.949268    70.870886    70.870886 
  600000    351.07644   -145034.16   -143582.04    70.981334    356355.65    70.959671    70.865691    70.865691 
  700000    353.09285   -145026.06    -143565.6    684.58764    356355.65    70.970045    70.860511    70.860511 
  800000    355.02347   -145023.31   -143554.87    439.92431    356355.65    70.980388    70.855349    70.855349 
  900000    354.94062   -145036.13   -143568.02   -120.96151    356355.65    70.990695    70.850205    70.850205 
 1000000    356.65182   -145038.03   -143562.84    416.22427    356355.65     71.00096    70.845083    70.845083 
 1100000    354.16924   -145035.79   -143570.87    413.38072    356355.65    71.011179    70.839985    70.839985 
 1200000    355.24682   -145030.42   -143561.05    731.24438    356355.65    71.021349    70.834913    70.834913 
 1300000    356.55352   -145034.93   -143560.15    501.79906    356355.65    71.031464    70.829869    70.829869 
 1400000    354.75138   -145031.83   -143564.51    323.51152    356355.65     71.04152    70.824856    70.824856 
 1500000    353.25433   -145040.81   -143579.69    11.122558    356355.65    71.051512    70.819876    70.819876 
 1600000    353.80946   -145033.49   -143570.07    325.77718    356355.65    71.061437     70.81493     70.81493 
 1700000    354.84061   -145041.39    -143573.7    443.59186    356355.65     71.07129    70.810021    70.810021 
 1800000    353.67464   -145044.54   -143581.67    19.309638    356355.65    71.081066    70.805152    70.805152 
 1900000    356.21748   -145022.74   -143549.35    689.98334    356355.65    71.090762    70.800323    70.800323 
 2000000    353.88497   -145031.25   -143567.51    435.55916    356355.65    71.100372    70.795538    70.795538 
 2100000    355.11703   -145041.16   -143572.33    236.21566    356355.65    71.109894    70.790798    70.790798 
 2200000    353.31761   -145054.32   -143592.93   -315.46205    356355.65    71.119322    70.786106    70.786106 
 2300000    357.60629    -145053.4   -143574.27    173.15862    356355.65    71.128652    70.781463    70.781463 
 2400000    356.99537   -145036.29   -143559.69     321.6794    356355.65    71.137881    70.776872    70.776872 
 2500000    353.50251   -145034.23   -143572.08    420.78663    356355.65    71.147004    70.772334    70.772334 
 2600000    357.29529   -145039.53   -143561.69    16.966101    356355.65    71.156017    70.767851    70.767851 
 2700000    354.94067   -145033.48   -143565.37    112.62925    356355.65    71.164917    70.763426    70.763426 
 2800000    357.15932   -145033.84   -143556.55    391.93667    356355.65      71.1737     70.75906     70.75906 
 2900000    355.41021   -145041.55    -143571.5    433.71309    356355.65    71.182361    70.754755    70.754755 
 3000000    355.26212   -145045.61   -143576.18    327.89443    356355.65    71.190897    70.750513    70.750513 
 3100000     354.7088   -145035.73   -143568.59    336.51881    356355.65    71.199304    70.746336    70.746336 
 3200000    357.83065   -145045.41   -143565.36    283.91911    356355.65    71.207578    70.742225    70.742225 
 3300000    356.06632   -145035.97   -143563.21    358.36148    356355.65    71.215716    70.738183    70.738183 
 3400000    355.53988   -145030.56   -143559.97    614.02793    356355.65    71.223714    70.734211    70.734211 
 3500000    357.75357   -145036.23   -143556.49    254.60532    356355.65    71.231569    70.730311    70.730311 
 3600000    352.75972   -145039.12   -143580.03    212.69334    356355.65    71.239278    70.726484    70.726484 
 3700000    356.84803   -145033.33   -143557.33    555.55247    356355.65    71.246836    70.722733    70.722733 
 3800000    354.78474   -145014.56    -143547.1    906.45026    356355.65     71.25424    70.719058    70.719058 
 3900000    354.35719   -145029.89    -143564.2     584.7518    356355.65    71.261488    70.715461    70.715461 
 4000000    353.39374   -145035.64   -143573.94    459.70578    356355.65    71.268576    70.711945    70.711945 
 4100000    355.49854   -145037.13   -143566.72    133.49842    356355.65    71.275501     70.70851     70.70851 
 4200000    355.20092   -145039.14   -143569.96    366.36251    356355.65    71.282261    70.705157    70.705157 
 4300000    352.61925    -145037.5      -143579    491.31676    356355.65    71.288851    70.701889    70.701889 
 4400000    352.48428   -145035.07   -143577.13    280.92899    356355.65    71.295269    70.698707    70.698707 
 4500000    355.16378   -145036.96   -143567.94    258.76768    356355.65    71.301512    70.695611    70.695611 
 4600000    358.86026   -145032.26   -143547.95    548.00146    356355.65    71.307579    70.692604    70.692604 
 4700000     354.0921   -145032.57   -143567.98    353.05059    356355.65    71.313465    70.689687    70.689687 
 4800000    354.98239   -145038.15   -143569.87      301.073    356355.65    71.319168     70.68686     70.68686 
 4900000     352.4602   -145025.75    -143567.9    547.08674    356355.65    71.324686    70.684126    70.684126 
 5000000    355.67466   -145037.75   -143566.61    201.12682    356355.65    71.330017    70.681484    70.681484 
 5100000    353.62002   -145020.69   -143558.05    589.04512    356355.65    71.335157    70.678938    70.678938 
 5200000    354.68365   -145029.87   -143562.83    386.06637    356355.65    71.340106    70.676486    70.676486 
 5300000    352.80277   -145042.56    -143583.3    368.36657    356355.65     71.34486    70.674131    70.674131 
 5400000    353.35426   -145026.46   -143564.92     485.5891    356355.65    71.349417    70.671874    70.671874 
 5500000    354.84567    -145033.5   -143565.79    553.57949    356355.65    71.353777    70.669715    70.669715 
 5600000    355.06998   -145024.37   -143555.73    497.08308    356355.65    71.357936    70.667656    70.667656 
 5700000    354.22497   -145019.02   -143553.88     700.3336    356355.65    71.361892    70.665697    70.665697 
 5800000    352.92007   -145023.68   -143563.94    637.13779    356355.65    71.365645    70.663839    70.663839 
 5900000    353.31016   -145040.71   -143579.35    119.46673    356355.65    71.369192    70.662083    70.662083 
 6000000    357.05956   -145016.73   -143539.86    831.61754    356355.65    71.372532    70.660429    70.660429 
 6100000    355.65896   -145032.31   -143561.24    551.34662    356355.65    71.375664    70.658879    70.658879 
 6200000    354.44694   -145028.48   -143562.41     416.9089    356355.65    71.378585    70.657433    70.657433 
 6300000    351.96477    -145023.7    -143567.9    400.43562    356355.65    71.381296    70.656092    70.656092 
 6400000    356.77244   -145026.65   -143550.97    512.71686    356355.65    71.383793    70.654855    70.654855 
 6500000    353.52142   -145030.47   -143568.23    462.50292    356355.65    71.386078    70.653725    70.653725 
 6600000    353.79669   -145035.66   -143572.29    372.30683    356355.65    71.388148    70.652701    70.652701 
 6700000    355.31986   -145023.23   -143553.55    741.75787    356355.65    71.390002    70.651783    70.651783 
 6800000    357.74104   -145032.74   -143553.05    803.39362    356355.65     71.39164    70.650973    70.650973 
 6900000    357.99698   -145043.08   -143562.33    514.19138    356355.65    71.393061    70.650269    70.650269 
 7000000    358.53202   -145027.42   -143544.46    591.05967    356355.65    71.394265    70.649674    70.649674 
 7100000    357.55357   -145032.09   -143553.18    310.99423    356355.65     71.39525    70.649186    70.649186 
 7200000    355.00044   -145035.17   -143566.81    248.32535    356355.65    71.396017    70.648807    70.648807 
 7300000    355.59994   -145029.37   -143558.54    701.66667    356355.65    71.396565    70.648536    70.648536 
 7400000    355.23137   -145026.78   -143557.47    617.62482    356355.65    71.396894    70.648373    70.648373 
 7500000     353.8466   -145031.16   -143567.58    404.53917    356355.65    71.397004    70.648319    70.648319 
 7600000     355.4219      -145035    -143564.9    433.78644    356355.65    71.396894    70.648373    70.648373 
 7700000    356.17156   -145036.78   -143563.59    237.01093    356355.65    71.396565    70.648536    70.648536 
 7800000    357.09775    -145035.4   -143558.38    254.65691    356355.65    71.396017    70.648807    70.648807 
 7900000    355.46695   -145032.57   -143562.29    500.59782    356355.65     71.39525    70.649186    70.649186 
 8000000    355.58286   -145039.01   -143568.25    378.36483    356355.65    71.394265    70.649674    70.649674 
 8100000    354.46934   -145035.76   -143569.61    533.89837    356355.65    71.393061    70.650269    70.650269 
 8200000    356.84927   -145031.14   -143555.14    526.18145    356355.65     71.39164    70.650973    70.650973 
 8300000    353.29764   -145029.04   -143567.73    474.61475    356355.65    71.390002    70.651783    70.651783 
 8400000    354.78214   -145025.09   -143557.64    512.85275    356355.65    71.388148    70.652701    70.652701 
 8500000    356.15123   -145045.97   -143572.85    203.52948    356355.65    71.386078    70.653725    70.653725 
 8600000    355.66819   -145023.24   -143552.13    641.53334    356355.65    71.383793    70.654855    70.654855 
 8700000    352.93002   -145035.83   -143576.05    478.62622    356355.65    71.381296    70.656092    70.656092 
 8800000    354.21693   -145025.66   -143560.55    656.92075    356355.65    71.378585    70.657433    70.657433 
 8900000    356.79626    -145023.1   -143547.32    767.37362    356355.65    71.375664    70.658879    70.658879 
 9000000    351.99668    -145046.4   -143590.48    245.26383    356355.65    71.372532    70.660429    70.660429 
 9100000    354.11862   -145031.49   -143566.78    405.86014    356355.65    71.369192    70.662083    70.662083 
 9200000    354.76887   -145027.55   -143560.16    686.39368    356355.65    71.365645    70.663839    70.663839 
 9300000    355.99212   -145029.94   -143557.49    405.76478    356355.65    71.361892    70.665697    70.665697 
 9400000    352.29483    -145030.6   -143573.44    749.83237    356355.65    71.357936    70.667656    70.667656 
 9500000    355.03063   -145028.05   -143559.57    831.98475    356355.65    71.353777    70.669715    70.669715 
 9600000    354.01921   -145026.94   -143562.65    542.89052    356355.65    71.349417    70.671874    70.671874 
 9700000    354.91195   -145051.74   -143583.76    20.087223    356355.65     71.34486    70.674131    70.674131 
 9800000    357.56986   -145036.52   -143557.54    243.37138    356355.65    71.340106    70.676486    70.676486 
 9900000    356.85053   -145024.76   -143548.75    467.29547    356355.65    71.335157    70.678938    70.678938 
10000000    354.79966   -145032.46   -143564.94    351.94911    356355.65    71.330017    70.681484    70.681484 
10100000    355.39024   -145035.48   -143565.52    194.35576    356355.65    71.324686    70.684126    70.684126 
10200000    353.68779   -145037.72    -143574.8    278.71157    356355.65    71.319168     70.68686     70.68686 
10300000    353.43866   -145028.88   -143566.99    746.37249    356355.65    71.313465    70.689687    70.689687 
10400000    357.38033   -145028.62   -143550.43    256.49749    356355.65    71.307579    70.692604    70.692604 
10500000    356.75783   -145026.84   -143551.22    531.90268    356355.65    71.301512    70.695611    70.695611 
10600000    354.17135   -145037.65   -143572.73    242.22233    356355.65    71.295269    70.698707    70.698707 
10700000    354.96441   -145034.81   -143566.61    330.82819    356355.65    71.288851    70.701889    70.701889 
10800000    356.13272    -145029.2   -143556.17    591.02196    356355.65    71.282261    70.705157    70.705157 
10900000    354.50804   -145037.76   -143571.45    234.32096    356355.65    71.275501     70.70851     70.70851 
11000000    353.76504   -145035.96   -143572.71    304.13584    356355.65    71.268576    70.711945    70.711945 
11100000    357.49455   -145029.61   -143550.95    405.37547    356355.65    71.261488    70.715461    70.715461 
11200000    354.25296   -145030.74   -143565.48    589.61252    356355.65     71.25424    70.719058    70.719058 
11300000     356.8969   -145027.26   -143551.07    366.85136    356355.65    71.246836    70.722733    70.722733 
11400000     356.6789   -145034.18   -143558.88    500.12432    356355.65    71.239278    70.726484    70.726484 
11500000    355.43086   -145035.81   -143565.67    278.10367    356355.65    71.231569    70.730311    70.730311 
11600000    353.09786   -145047.35   -143586.87    217.43411    356355.65    71.223714    70.734211    70.734211 
11700000    356.26802   -145027.36   -143553.76    520.39868    356355.65    71.215716    70.738183    70.738183 
11800000    355.32414   -145039.44   -143569.75    249.66969    356355.65    71.207578    70.742225    70.742225 
11900000    353.58468    -145037.7   -143575.21    226.46168    356355.65    71.199304    70.746336    70.746336 
12000000    356.28155   -145040.18   -143566.53    387.29697    356355.65    71.190897    70.750513    70.750513 
12100000    353.66537   -145042.36   -143579.53    497.27299    356355.65    71.182361    70.754755    70.754755 
12200000    356.34305   -145039.96   -143566.06    380.93554    356355.65      71.1737     70.75906     70.75906 
12300000    356.09643   -145022.52   -143549.64     474.1655    356355.65    71.164917    70.763426    70.763426 
12400000    358.01028   -145038.52   -143557.72    522.81243    356355.65    71.156017    70.767851    70.767851 
12500000    353.34528   -145035.55   -143574.05    316.22679    356355.65    71.147004    70.772334    70.772334 
12600000    356.71264   -145031.25   -143555.81    313.32179    356355.65    71.137881    70.776872    70.776872 
12700000    356.80345   -145027.89   -143552.08    740.38879    356355.65    71.128652    70.781463    70.781463 
12800000    356.47502   -145017.31   -143542.86    594.87642    356355.65    71.119322    70.786106    70.786106 
12900000    358.23895   -145044.83   -143563.08    378.39833    356355.65    71.109894    70.790798    70.790798 
13000000    357.39003   -145025.63    -143547.4    506.00668    356355.65    71.100372    70.795538    70.795538 
13100000    358.41227   -145038.84   -143556.38    576.39516    356355.65    71.090762    70.800323    70.800323 
13200000    356.06749   -145049.62   -143576.86   -100.28254    356355.65    71.081066    70.805152    70.805152 
13300000    355.12112   -145045.31   -143576.46    148.31011    356355.65     71.07129    70.810021    70.810021 
13400000    356.05377   -145038.92   -143566.21    331.82496    356355.65    71.061437     70.81493     70.81493 
13500000    355.14984   -145026.42   -143557.45    621.01195    356355.65    71.051512    70.819876    70.819876 
13600000    354.88211   -145043.78   -143575.92    218.50906    356355.65     71.04152    70.824856    70.824856 
13700000    351.07843   -145037.08   -143584.95    272.59858    356355.65    71.031464    70.829869    70.829869 
13800000    354.45949   -145034.01    -143567.9    543.31444    356355.65    71.021349    70.834913    70.834913 
13900000    353.78003   -145035.33   -143572.02    363.52143    356355.65    71.011179    70.839985    70.839985 
14000000    353.27776   -145049.77   -143588.54    103.51517    356355.65     71.00096    70.845083    70.845083 
14100000    354.93613   -145023.13   -143555.05    778.63117    356355.65    70.990695    70.850205    70.850205 
14200000    355.13925   -145052.06   -143583.13    123.56732    356355.65    70.980388    70.855349    70.855349 
14300000    354.93071   -145037.91   -143569.84    451.61431    356355.65    70.970045    70.860511    70.860511 
14400000    353.15604   -145033.42   -143572.69    285.88969    356355.65    70.959671    70.865691    70.865691 
14500000    355.51592   -145040.46   -143569.97     20.02011    356355.65    70.949268    70.870886    70.870886 
14600000     354.8929   -145027.91      -143560    627.87935    356355.65    70.938843    70.876094    70.876094 
14700000    356.45327   -145029.61   -143555.25    563.33687    356355.65    70.928399    70.881312    70.881312 
14800000    354.93122   -145041.33   -143573.26    223.73584    356355.65    70.917942    70.886537    70.886537 
14900000    356.49742   -145045.52   -143570.98    148.30671    356355.65    70.907475    70.891769    70.891769 
15000000    354.69168   -145038.47    -143571.4    577.15771    356355.65    70.897004    70.897004    70.897004 
15100000    354.09591   -145038.55   -143573.94    320.56995    356355.65    70.886533     70.90224     70.90224 
15200000    354.73866   -145044.74   -143577.47    227.01964    356355.65    70.876066    70.907475    70.907475 
15300000    353.10517   -145028.92   -143568.41    207.56873    356355.65    70.865609    70.912707    70.912707 
15400000    352.47959   -145042.38   -143584.46    439.47157    356355.65    70.855165    70.917933    70.917933 
15500000    353.70833   -145034.29   -143571.28    465.56637    356355.65     70.84474    70.923151    70.923151 
15600000    353.67757   -145034.22   -143571.34    422.63992    356355.65    70.834337    70.928358    70.928358 
15700000    356.05156   -145053.35   -143580.65    33.143235    356355.65    70.823962    70.933553    70.933553 
15800000    356.14632   -145036.73   -143563.64    33.587797    356355.65     70.81362    70.938733    70.938733 
15900000    356.13956   -145032.11   -143559.05    108.20921    356355.65    70.803313    70.943896    70.943896 
16000000    357.20145    -145044.6   -143567.15    146.59102    356355.65    70.793048    70.949039    70.949039 
16100000    355.77486   -145037.61   -143566.05    216.96611    356355.65    70.782829    70.954161    70.954161 
16200000    354.66603   -145033.57    -143566.6    574.12976    356355.65    70.772659    70.959258    70.959258 
16300000    353.91327   -145044.34   -143580.49    324.85001    356355.65    70.762544     70.96433     70.96433 
16400000    353.16867   -145037.76   -143576.98    260.03546    356355.65    70.752488    70.969373    70.969373 
16500000    353.60642   -145037.76   -143575.18    72.852051    356355.65    70.742495    70.974385    70.974385 
16600000    354.79963      -145049   -143581.48   -8.6056613    356355.65    70.732571    70.979364    70.979364 
16700000    353.73454    -145039.5   -143576.38    191.01654    356355.65    70.722718    70.984308    70.984308 
16800000    354.90786    -145042.9   -143574.93    230.96639    356355.65    70.712942    70.989215    70.989215 
16900000     357.5714   -145030.43   -143551.44    466.58283    356355.65    70.703246    70.994082    70.994082 
17000000    358.95554   -145038.71   -143553.99    416.85664    356355.65    70.693636    70.998907    70.998907 
17100000    355.22695   -145047.33   -143578.04    81.146457    356355.65    70.684114    71.003689    71.003689 
17200000    355.97207   -145029.02   -143556.65    176.76189    356355.65    70.674686    71.008425    71.008425 
17300000    353.13973   -145039.64   -143578.99    336.51522    356355.65    70.665356    71.013113    71.013113 
17400000    356.27983   -145042.07   -143568.42    451.58273    356355.65    70.656127     71.01775     71.01775 
17500000    355.36337   -145035.87   -143566.02    332.95673    356355.65    70.647004    71.022336    71.022336 
17600000    355.71279   -145042.47   -143571.17    241.47658    356355.65     70.63799    71.026867    71.026867 
17700000    353.68329   -145035.86   -143572.96    211.21125    356355.65    70.629091    71.031342    71.031342 
17800000    353.18272   -145034.62   -143573.79    599.68756    356355.65    70.620308    71.035758    71.035758 
17900000    351.76619    -145035.2   -143580.23    311.08338    356355.65    70.611647    71.040115    71.040115 
18000000    354.13334   -145025.01   -143560.25    549.55164    356355.65    70.603111    71.044409    71.044409 
18100000    354.67171   -145038.44   -143571.45    204.56038    356355.65    70.594704    71.048639    71.048639 
18200000    354.53009   -145041.29   -143574.88     357.1747    356355.65     70.58643    71.052803    71.052803 
18300000    353.55904   -145041.11   -143578.72    296.78958    356355.65    70.578292    71.056899    71.056899 
18400000    355.33933   -145040.27   -143570.52    238.35617    356355.65    70.570294    71.060926    71.060926 
18500000    358.21602   -145030.43   -143548.78    753.26389    356355.65    70.562439    71.064881    71.064881 
18600000    355.20314   -145045.08   -143575.89   -62.402855    356355.65     70.55473    71.068763    71.068763 
18700000    357.96689   -145031.63   -143551.01     613.3515    356355.65    70.547172     71.07257     71.07257 
18800000    355.61889   -145038.26   -143567.35    226.26227    356355.65    70.539768      71.0763      71.0763 
18900000    353.11521   -145040.18   -143579.63     191.1244    356355.65     70.53252    71.079952    71.079952 
19000000    358.90542   -145038.56   -143554.06    373.21616    356355.65    70.525432    71.083524    71.083524 
19100000    353.20438   -145040.66   -143579.74    425.61106    356355.65    70.518506    71.087014    71.087014 
19200000    355.64472   -145052.56   -143581.55    117.26444    356355.65    70.511747    71.090421    71.090421 
19300000    355.58015   -145042.27   -143571.52    449.43594    356355.65    70.505157    71.093743    71.093743 
19400000    356.77767   -145039.79   -143564.09    144.83584    356355.65    70.498739    71.096979    71.096979 
19500000    356.62964   -145030.45   -143555.36    680.31313    356355.65    70.492495    71.100128    71.100128 
19600000    356.57727   -145031.31   -143556.44    316.12347    356355.65    70.486429    71.103187    71.103187 
19700000    354.79287   -145042.73   -143575.24    185.87689    356355.65    70.480543    71.106156    71.106156 
19800000    354.49104   -145031.42   -143565.18    271.46808    356355.65     70.47484    71.109033    71.109033 
19900000    356.30284   -145022.69   -143548.95    602.79936    356355.65    70.469322    71.111817    71.111817 
20000000    354.14267   -145030.34   -143565.54    292.25874    356355.65    70.463991    71.114507    71.114507 
20100000    354.21121   -145026.88    -143561.8    631.77004    356355.65    70.458851    71.117101    71.117101 
20200000    356.12411   -145034.72   -143561.72    432.61725    356355.65    70.453902    71.119599    71.119599 
20300000     353.4781   -145030.06      -143568    242.70117    356355.65    70.449148    71.121998    71.121998 
20400000    354.25295   -145042.16    -143576.9    307.22479    356355.65     70.44459    71.124299    71.124299 
20500000    353.79861   -145031.78    -143568.4    454.80694    356355.65    70.440231      71.1265      71.1265 
20600000    351.44085   -145037.95   -143584.32    201.00574    356355.65    70.436072      71.1286      71.1286 
20700000    358.91455   -145029.71   -143545.17    730.42125    356355.65    70.432116    71.130598    71.130598 
20800000    353.81408   -145030.16   -143566.71    606.98119    356355.65    70.428363    71.132493    71.132493 
20900000    352.72347   -145033.92   -143574.99    422.80092    356355.65    70.424816    71.134284    71.134284 
21000000    355.04572   -145029.85   -143561.31    337.24864    356355.65    70.421476    71.135971    71.135971 
21100000    354.55449   -145032.67   -143566.16    504.79498    356355.65    70.418344    71.137553    71.137553 
21200000    355.53313   -145028.25   -143557.69    551.60284    356355.65    70.415423    71.139028    71.139028 
21300000    355.71962   -145043.43    -143572.1    251.43252    356355.65    70.412712    71.140397    71.140397 
21400000    354.84909   -145021.31   -143553.58    701.25702    356355.65    70.410215    71.141659    71.141659 
21500000    356.92423   -145034.45   -143558.15    314.87738    356355.65     70.40793    71.142813    71.142813 
21600000    356.81933   -145032.94   -143557.06    327.98922    356355.65     70.40586    71.143859    71.143859 
21700000    356.90251   -145041.14   -143564.92    502.12962    356355.65    70.404006    71.144796    71.144796 
21800000    351.85588   -145035.43   -143580.08    383.67823    356355.65    70.402368    71.145624    71.145624 
21900000      358.401   -145040.23   -143557.81    168.11227    356355.65    70.400947    71.146342    71.146342 
22000000    354.97621   -145030.39   -143562.14    411.31436    356355.65    70.399743     71.14695     71.14695 
22100000    353.62545   -145031.55   -143568.89    426.83397    356355.65    70.398758    71.147448    71.147448 
22200000    353.88811   -145023.24   -143559.49    744.91851    356355.65    70.397991    71.147836    71.147836 
22300000    350.75967   -145040.24   -143589.43    134.06358    356355.65    70.397443    71.148112    71.148112 
22400000    354.12562   -145015.63   -143550.89    788.72025    356355.65    70.397114    71.148279    71.148279 
22500000    355.49947   -145037.55   -143567.14    284.31498    356355.65    70.397004    71.148334    71.148334 
22600000    354.46947   -145033.08   -143566.92    269.46041    356355.65    70.397114    71.148279    71.148279 
22700000    355.11697   -145034.33    -143565.5    219.76563    356355.65    70.397443    71.148112    71.148112 
22800000    357.20686   -145031.04   -143553.57    381.68489    356355.65    70.397991    71.147836    71.147836 
22900000    353.55497   -145035.39   -143573.02    629.27563    356355.65    70.398758    71.147448    71.147448 
23000000    355.71812   -145044.65   -143573.33   -63.651749    356355.65    70.399743     71.14695     71.14695 
23100000    354.78163   -145034.04   -143566.59    430.22389    356355.65    70.400947    71.146342    71.146342 
23200000    352.55887   -145039.93   -143581.68    497.88673    356355.65    70.402368    71.145624    71.145624 
23300000     351.0488   -145044.18   -143592.17     66.00953    356355.65    70.404006    71.144796    71.144796 
23400000    357.13987   -145028.91   -143551.71    613.44455    356355.65     70.40586    71.143859    71.143859 
23500000    352.88227   -145030.78   -143571.19    409.49349    356355.65     70.40793    71.142813    71.142813 
23600000    354.89713   -145034.54   -143566.62    400.83515    356355.65    70.410215    71.141659    71.141659 
23700000    354.58741   -145028.15   -143561.51    434.88704    356355.65    70.412712    71.140397    71.140397 
23800000    352.82652   -145041.97   -143582.61    471.34526    356355.65    70.415423    71.139028    71.139028 
23900000    354.15073   -145039.76   -143574.92    315.23945    356355.65    70.418344    71.137553    71.137553 
24000000    350.99681   -145038.87   -143587.08    181.65599    356355.65    70.421476    71.135971    71.135971 
24100000    352.27901   -145033.99   -143576.89    469.26954    356355.65    70.424816    71.134284    71.134284 
24200000    355.92764   -145026.63   -143554.45    646.16458    356355.65    70.428363    71.132493    71.132493 
24300000    354.37456      -145030   -143564.24    525.81872    356355.65    70.432116    71.130598    71.130598 
24400000     356.7736    -145026.9   -143551.21    473.29556    356355.65    70.436072      71.1286      71.1286 
24500000    353.86324   -145037.24   -143573.59    84.297208    356355.65    70.440231      71.1265      71.1265 
24600000    353.61763   -145034.62   -143571.99    449.26147    356355.65     70.44459    71.124299    71.124299 
24700000     355.4934   -145025.51   -143555.12    360.09027    356355.65    70.449148    71.121998    71.121998 
24800000    355.19203   -145035.06   -143565.92    73.427594    356355.65    70.453902    71.119599    71.119599 
24900000    354.80497   -145038.33   -143570.79    334.40275    356355.65    70.458851    71.117101    71.117101 
25000000    358.97651   -145030.74   -143545.94    279.77104    356355.65    70.463991    71.114507    71.114507 
25100000    356.66477   -145036.77   -143561.54    202.30366    356355.65    70.469322    71.111817    71.111817 
25200000    354.33859   -145033.81    -143568.2    322.41259    356355.65     70.47484    71.109033    71.109033 
25300000    354.80084   -145025.59   -143558.06     510.0277    356355.65    70.480543    71.106156    71.106156 
25400000    354.81653    -145035.3   -143567.71    423.56084    356355.65    70.486429    71.103187    71.103187 
25500000    357.16248   -145037.93   -143560.63    222.88421    356355.65    70.492495    71.100128    71.100128 
25600000    356.40499    -145041.2   -143567.04    226.99874    356355.65    70.498739    71.096979    71.096979 
25700000     354.8133   -145040.24   -143572.66    259.76692    356355.65    70.505157    71.093743    71.093743 
25800000    357.37165   -145039.92   -143561.76    211.55827    356355.65    70.511747    71.090421    71.090421 
25900000     356.5896   -145031.12   -143556.19    283.38972    356355.65    70.518506    71.087014    71.087014 
26000000     353.8226   -145024.75   -143561.27    279.78982    356355.65    70.525432    71.083524    71.083524 
26100000    354.21824   -145022.69   -143557.57    637.19801    356355.65     70.53252    71.079952    71.079952 
26200000    352.73782   -145038.49    -143579.5    198.77782    356355.65    70.539768      71.0763      71.0763 
26300000    356.67154   -145043.73   -143568.47    111.52369    356355.65    70.547172     71.07257     71.07257 
26400000    355.44008   -145037.01   -143566.84    3.1624974    356355.65     70.55473    71.068763    71.068763 
26500000    353.67976   -145028.38    -143565.5    544.13617    356355.65    70.562439    71.064881    71.064881 
26600000    355.09114   -145038.19   -143569.47    75.374447    356355.65    70.570294    71.060926    71.060926 
26700000    355.66432   -145028.99   -143557.89    368.02382    356355.65    70.578292    71.056899    71.056899 
26800000    352.33151   -145036.75   -143579.44    138.08455    356355.65     70.58643    71.052803    71.052803 
26900000    353.52837   -145037.88   -143575.62    390.68015    356355.65    70.594704    71.048639    71.048639 
27000000    354.55269      -145048    -143581.5    149.10246    356355.65    70.603111    71.044409    71.044409 
27100000    357.23068   -145044.72   -143567.15    291.03154    356355.65    70.611647    71.040115    71.040115 
27200000    355.89461   -145027.34   -143555.29    608.36885    356355.65    70.620308    71.035758    71.035758 
27300000    354.43578   -145043.76   -143577.74    71.916233    356355.65    70.629091    71.031342    71.031342 
27400000    354.48601   -145046.24   -143580.02   -57.414647    356355.65     70.63799    71.026867    71.026867 
27500000    355.14161   -145035.33    -143566.4    245.56326    356355.65    70.647004    71.022336    71.022336 
27600000    352.58108   -145035.32   -143576.98    354.02741    356355.65    70.656127     71.01775     71.01775 
27700000    354.56529   -145034.53   -143567.98    298.78695    356355.65    70.665356    71.013113    71.013113 
27800000    356.67999   -145038.25   -143562.95    445.46419    356355.65    70.674686    71.008425    71.008425 
27900000    355.91033    -145030.7   -143558.58    271.43153    356355.65    70.684114    71.003689    71.003689 
28000000    354.88276   -145030.32   -143562.46    481.05995    356355.65    70.693636    70.998907    70.998907 
28100000    357.40803   -145040.65   -143562.34    -37.47105    356355.65    70.703246    70.994082    70.994082 
28200000    353.86262    -145037.4   -143573.75    225.78459    356355.65    70.712942    70.989215    70.989215 
28300000    358.90295   -145027.95   -143543.46    476.65445    356355.65    70.722718    70.984308    70.984308 
28400000    356.78915   -145045.84   -143570.09    21.185872    356355.65    70.732571    70.979364    70.979364 
28500000    355.23001   -145039.47   -143570.17    454.73374    356355.65    70.742495    70.974385    70.974385 
28600000    353.92778    -145038.7   -143574.79    56.927422    356355.65    70.752488    70.969373    70.969373 
28700000    352.78401   -145038.93   -143579.75    451.59124    356355.65    70.762544     70.96433     70.96433 
28800000    355.30226   -145043.03   -143573.43    383.78797    356355.65    70.772659    70.959258    70.959258 
28900000    353.98841   -145037.67    -143573.5    176.31353    356355.65    70.782829    70.954161    70.954161 
29000000    356.75507   -145045.78   -143570.17    99.734166    356355.65    70.793048    70.949039    70.949039 
29100000    355.97898   -145046.18   -143573.78    127.49074    356355.65    70.803313    70.943896    70.943896 
29200000    355.50775   -145036.48   -143566.03    485.98918    356355.65     70.81362    70.938733    70.938733 
29300000    354.75507   -145045.48   -143578.14    198.25932    356355.65    70.823962    70.933553    70.933553 
29400000    355.88607   -145043.83   -143571.82    75.343871    356355.65    70.834337    70.928358    70.928358 
29500000    356.34083    -145028.8   -143554.91    366.17427    356355.65     70.84474    70.923151    70.923151 
29600000    357.53419   -145039.07   -143560.24    342.49695    356355.65    70.855165    70.917933    70.917933 
29700000     353.3662   -145042.89    -143581.3    175.89839    356355.65    70.865609    70.912707    70.912707 
29800000    353.59409   -145047.38   -143584.85    1.6039109    356355.65    70.876066    70.907475    70.907475 
29900000    355.81915   -145027.39   -143555.66    667.34347    356355.65    70.886533     70.90224     70.90224 
30000000    355.31339   -145034.67   -143565.02    270.33023    356355.65    70.897004    70.897004    70.897004 
30100000    354.34561   -145034.17   -143568.52    341.41392    356355.65    70.907475    70.891769    70.891769 
30200000    355.08537   -145035.05   -143566.35    275.50326    356355.65    70.917942    70.886537    70.886537 
30300000    355.03639   -145037.29   -143568.79    340.99235    356355.65    70.928399    70.881312    70.881312 
30400000     355.1671   -145021.69   -143552.65    832.19908    356355.65    70.938843    70.876094    70.876094 
30500000    354.86918   -145043.77   -143575.96    268.54053    356355.65    70.949268    70.870886    70.870886 
30600000    355.41556   -145032.11   -143562.05    206.12532    356355.65    70.959671    70.865691    70.865691 
30700000    354.92431   -145046.24    -143578.2    26.796296    356355.65    70.970045    70.860511    70.860511 
30800000    354.35629   -145040.45   -143574.76    87.452891    356355.65    70.980388    70.855349    70.855349 
30900000    355.27216   -145039.36   -143569.88    407.75919    356355.65    70.990695    70.850205    70.850205 
31000000    355.33234   -145026.28   -143556.55    421.13273    356355.65     71.00096    70.845083    70.845083 
31100000    356.15986   -145023.85    -143550.7    541.15183    356355.65    71.011179    70.839985    70.839985 
31200000    354.10724    -145041.2   -143576.54    465.19745    356355.65    71.021349    70.834913    70.834913 
31300000    353.91182   -145036.83   -143572.98    327.71955    356355.65    71.031464    70.829869    70.829869 
31400000    351.69981   -145044.27   -143589.57    123.83942    356355.65     71.04152    70.824856    70.824856 
31500000    355.86343   -145036.21   -143564.29     325.6793    356355.65    71.051512    70.819876    70.819876 
31600000    356.60162   -145031.15   -143556.18    330.91526    356355.65    71.061437     70.81493     70.81493 
31700000    353.44823   -145044.57   -143582.64    123.51889    356355.65     71.07129    70.810021    70.810021 
31800000    355.02971   -145031.04   -143562.57     135.4971    356355.65    71.081066    70.805152    70.805152 
31900000     355.6484   -145033.88   -143562.85    265.23733    356355.65    71.090762    70.800323    70.800323 
32000000    353.67246   -145038.92   -143576.06    61.215366    356355.65    71.100372    70.795538    70.795538 
32100000    353.82731   -145042.16   -143578.66    -40.71612    356355.65    71.109894    70.790798    70.790798 
32200000     353.9669   -145036.14   -143572.06    327.07956    356355.65    71.119322    70.786106    70.786106 
32300000    352.21467   -145039.72   -143582.89     132.9625    356355.65    71.128652    70.781463    70.781463 
32400000    354.49284   -145041.09   -143574.84    288.17766    356355.65    71.137881    70.776872    70.776872 
32500000    354.57233   -145028.98    -143562.4    545.54148    356355.65    71.147004    70.772334    70.772334 
32600000    354.88864    -145032.5   -143564.61    248.19917    356355.65    71.156017    70.767851    70.767851 
32700000     354.1944   -145031.45   -143566.44    132.36042    356355.65    71.164917    70.763426    70.763426 
32800000    355.55181    -145031.2   -143560.56    400.51475    356355.65      71.1737     70.75906     70.75906 
32900000    356.71975   -145022.77   -143547.31    673.31629    356355.65    71.182361    70.754755    70.754755 
33000000    356.72677   -145017.28   -143541.79    504.01951    356355.65    71.190897    70.750513    70.750513 
33100000    353.56501   -145044.38   -143581.97    58.428707    356355.65    71.199304    70.746336    70.746336 
33200000    357.23957   -145017.01    -143539.4    742.00399    356355.65    71.207578    70.742225    70.742225 
33300000    353.41148   -145033.87    -143572.1    662.39808    356355.65    71.215716    70.738183    70.738183 
33400000    355.79148   -145048.71   -143577.09    44.835885    356355.65    71.223714    70.734211    70.734211 
33500000    357.71138   -145028.69   -143549.12    485.97049    356355.65    71.231569    70.730311    70.730311 
33600000    352.20193   -145030.91   -143574.13    466.98659    356355.65    71.239278    70.726484    70.726484 
33700000    354.68811   -145048.35   -143581.29    311.62134    356355.65    71.246836    70.722733    70.722733 
33800000    352.61444   -145041.05   -143582.57    72.051109    356355.65     71.25424    70.719058    70.719058 
33900000    352.86917   -145038.16   -143578.63    144.58094    356355.65    71.261488    70.715461    70.715461 
34000000    356.16785   -145039.24   -143566.06    307.81492    356355.65    71.268576    70.711945    70.711945 
34100000    353.71261    -145029.4   -143566.38    351.36856    356355.65    71.275501     70.70851     70.70851 
34200000    351.60863   -145024.09   -143569.77    549.16092    356355.65    71.282261    70.705157    70.705157 
34300000    354.03549   -145039.42   -143575.06    135.47778    356355.65    71.288851    70.701889    70.701889 
34400000    352.62974   -145032.98   -143574.43    373.23155    356355.65    71.295269    70.698707    70.698707 
34500000    354.98356   -145028.12   -143559.84    486.00324    356355.65    71.301512    70.695611    70.695611 
34600000    356.61658   -145034.79   -143559.76    573.00154    356355.65    71.307579    70.692604    70.692604 
34700000    358.15191   -145037.45   -143556.06    402.12169    356355.65    71.313465    70.689687    70.689687 
34800000    352.23576   -145043.66   -143586.74    249.22178    356355.65    71.319168     70.68686     70.68686 
34900000    355.00376   -145040.52   -143572.16    393.26263    356355.65    71.324686    70.684126    70.684126 
35000000    354.41403   -145035.76   -143569.84    39.252014    356355.65    71.330017    70.681484    70.681484 
35100000    354.01674   -145025.56   -143561.27    446.46719    356355.65    71.335157    70.678938    70.678938 
35200000    353.76138   -145047.56   -143584.34    64.636057    356355.65    71.340106    70.676486    70.676486 
35300000    355.70168    -145025.3   -143554.05     642.3268    356355.65     71.34486    70.674131    70.674131 
35400000     353.2975   -145030.53   -143569.22    200.16449    356355.65    71.349417    70.671874    70.671874 
35500000    353.96114   -145019.59   -143555.54    453.07944    356355.65    71.353777    70.669715    70.669715 
35600000    355.13272    -145034.7    -143565.8    552.71209    356355.65    71.357936    70.667656    70.667656 
35700000    358.39472   -145039.66   -143557.27    193.04427    356355.65    71.361892    70.665697    70.665697 
35800000    352.88885   -145025.22    -143565.6    490.54433    356355.65    71.365645    70.663839    70.663839 
35900000    352.56133    -145023.7   -143565.44    488.60989    356355.65    71.369192    70.662083    70.662083 
36000000     354.4734   -145028.93   -143562.76     255.6368    356355.65    71.372532    70.660429    70.660429 
36100000    354.79464   -145037.99   -143570.49    546.07649    356355.65    71.375664    70.658879    70.658879 
36200000    355.46586   -145026.02   -143555.74    605.39208    356355.65    71.378585    70.657433    70.657433 
36300000    357.90965    -145036.5   -143556.12     414.5538    356355.65    71.381296    70.656092    70.656092 
36400000    355.33286   -145025.02   -143555.29    472.53798    356355.65    71.383793    70.654855    70.654855 
36500000    353.77474   -145027.26   -143563.98    345.54465    356355.65    71.386078    70.653725    70.653725 
36600000    353.61216   -145035.76   -143573.15    263.31923    356355.65    71.388148    70.652701    70.652701 
36700000    357.68898   -145039.92   -143560.44    329.74204    356355.65    71.390002    70.651783    70.651783 
36800000    356.89619   -145033.96   -143557.77    144.05698    356355.65     71.39164    70.650973    70.650973 
36900000    353.67455    -145026.8   -143563.93    255.05166    356355.65    71.393061    70.650269    70.650269 
37000000    356.47512   -145027.15    -143552.7    651.06554    356355.65    71.394265    70.649674    70.649674 
37100000    355.24222   -145019.61   -143550.26    768.42273    356355.65     71.39525    70.649186    70.649186 
37200000    356.25654   -145035.89   -143562.34    225.37671    356355.65    71.396017    70.648807    70.648807 
37300000    356.31118    -145031.7   -143557.93    462.92257    356355.65    71.396565    70.648536    70.648536 
37400000    355.71835   -145036.46   -143565.14    36.777216    356355.65    71.396894    70.648373    70.648373 
37500000    356.54234   -145025.03    -143550.3    451.97137    356355.65    71.397004    70.648319    70.648319 
37600000    356.56625   -145026.94   -143552.12    270.28854    356355.65    71.396894    70.648373    70.648373 
37700000    356.14642   -145030.86   -143557.77    390.08945    356355.65    71.396565    70.648536    70.648536 
37800000    357.40139   -145029.25   -143550.97    91.371393    356355.65    71.396017    70.648807    70.648807 
37900000    356.61695    -145031.1   -143556.06    375.30142    356355.65     71.39525    70.649186    70.649186 
38000000    355.62749   -145031.45    -143560.5    475.55021    356355.65    71.394265    70.649674    70.649674 
38100000    354.39789   -145031.46    -143565.6     198.9344    356355.65    71.393061    70.650269    70.650269 
38200000    356.47243   -145046.16   -143571.72    152.22228    356355.65     71.39164    70.650973    70.650973 
38300000    356.08982   -145037.25   -143564.39    482.34722    356355.65    71.390002    70.651783    70.651783 
38400000    349.80583   -145037.42   -143590.56    297.30348    356355.65    71.388148    70.652701    70.652701 
38500000    357.17833   -145046.74   -143569.38    272.31556    356355.65    71.386078    70.653725    70.653725 
38600000    357.87528    -145016.9   -143536.65    624.49001    356355.65    71.383793    70.654855    70.654855 
38700000    354.69106   -145021.69   -143554.62    536.60415    356355.65    71.381296    70.656092    70.656092 
38800000     356.6001   -145033.17    -143558.2    414.20401    356355.65    71.378585    70.657433    70.657433 
38900000    353.57391   -145007.62   -143545.17    740.84883    356355.65    71.375664    70.658879    70.658879 
39000000    353.97144   -145032.14   -143568.04    330.38555    356355.65    71.372532    70.660429    70.660429 
39100000    356.01679   -145032.92   -143560.36    446.17567    356355.65    71.369192    70.662083    70.662083 
39200000    354.86326   -145027.55   -143559.76    394.57607    356355.65    71.365645    70.663839    70.663839 
39300000      355.406   -145030.04   -143560.02    486.96998    356355.65    71.361892    70.665697    70.665697 
39400000    357.46976   -145030.62   -143552.05    341.02662    356355.65    71.357936    70.667656    70.667656 
39500000     356.6993   -145034.92   -143559.55    350.49651    356355.65    71.353777    70.669715    70.669715 
39600000    355.13844   -145034.45   -143565.53    363.80382    356355.65    71.349417    70.671874    70.671874 
39700000    352.69738   -145033.71   -143574.88    346.30867    356355.65     71.34486    70.674131    70.674131 
39800000    352.30967   -145030.97   -143573.75    414.78071    356355.65    71.340106    70.676486    70.676486 
39900000    355.18784   -145050.98   -143581.85    46.715884    356355.65    71.335157    70.678938    70.678938 
40000000    351.39434   -145027.51   -143574.08    207.89681    356355.65    71.330017    70.681484    70.681484 
40100000    352.58973   -145028.42   -143570.04     565.0003    356355.65    71.324686    70.684126    70.684126 
40200000    355.71569   -145022.92   -143551.61    628.99879    356355.65    71.319168     70.68686     70.68686 
40300000    356.11305   -145033.74   -143560.78    360.74058    356355.65    71.313465    70.689687    70.689687 
40400000    353.06654   -145038.07   -143577.72    63.668491    356355.65    71.307579    70.692604    70.692604 
40500000    350.80617   -145050.81   -143599.81    320.43942    356355.65    71.301512    70.695611    70.695611 
40600000    355.42278   -145020.04   -143549.94    517.57847    356355.65    71.295269    70.698707    70.698707 
40700000    353.54036   -145041.87   -143579.56    233.59538    356355.65    71.288851    70.701889    70.701889 
40800000    352.34152   -145036.31   -143578.96     432.2534    356355.65    71.282261    70.705157    70.705157 
40900000    354.37731   -145041.85   -143576.08    173.20616    356355.65    71.275501     70.70851     70.70851 
41000000    353.86522   -145030.36    -143566.7    440.15192    356355.65    71.268576    70.711945    70.711945 
41100000    355.74814   -145043.54   -143572.09    137.45384    356355.65    71.261488    70.715461    70.715461 
41200000    355.21225   -145044.49   -143575.26    201.01021    356355.65     71.25424    70.719058    70.719058 
41300000    353.96287   -145024.57   -143560.51    607.04235    356355.65    71.246836    70.722733    70.722733 
41400000    356.48238   -145034.16   -143559.68    550.16642    356355.65    71.239278    70.726484    70.726484 
41500000    354.33953    -145038.4   -143572.78    100.01647    356355.65    71.231569    70.730311    70.730311 
41600000    353.75965   -145040.24   -143577.02     118.8701    356355.65    71.223714    70.734211    70.734211 
41700000    358.55858   -145030.47    -143547.4    547.70394    356355.65    71.215716    70.738183    70.738183 
41800000    353.50472   -145045.09   -143582.92    100.07778    356355.65    71.207578    70.742225    70.742225 
41900000    353.60283   -145035.25   -143572.68    411.93685    356355.65    71.199304    70.746336    70.746336 
42000000    356.00207   -145030.28   -143557.79    463.39658    356355.65    71.190897    70.750513    70.750513 
42100000    355.84931   -145039.79   -143567.92    328.13245    356355.65    71.182361    70.754755    70.754755 
42200000    356.12209   -145021.25   -143548.26    550.39518    356355.65      71.1737     70.75906     70.75906 
42300000    353.75714   -145029.56   -143566.35    419.86783    356355.65    71.164917    70.763426    70.763426 
42400000    356.45654   -145047.33   -143572.96    305.79312    356355.65    71.156017    70.767851    70.767851 
42500000    353.81128   -145034.25   -143570.82    681.82332    356355.65    71.147004    70.772334    70.772334 
42600000    356.97404   -145034.11   -143557.59    564.18183    356355.65    71.137881    70.776872    70.776872 
42700000    354.42403   -145046.73   -143580.76    211.87723    356355.65    71.128652    70.781463    70.781463 
42800000    354.08945   -145031.71   -143567.13    296.40363    356355.65    71.119322    70.786106    70.786106 
42900000    355.10614   -145034.78   -143565.99    38.093234    356355.65    71.109894    70.790798    70.790798 
43000000    357.29301   -145044.72   -143566.89    -11.75534    356355.65    71.100372    70.795538    70.795538 
43100000    356.79105   -145031.93   -143556.17    605.89637    356355.65    71.090762    70.800323    70.800323 
43200000    351.16921   -145038.52   -143586.02    273.00475    356355.65    71.081066    70.805152    70.805152 
43300000    353.34701   -145044.92   -143583.41    415.46151    356355.65     71.07129    70.810021    70.810021 
43400000    352.52608   -145025.24   -143567.12    417.50041    356355.65    71.061437     70.81493     70.81493 
43500000     355.3426   -145040.44   -143570.67    155.87769    356355.65    71.051512    70.819876    70.819876 
43600000    354.16647   -145037.57   -143572.67    219.32303    356355.65     71.04152    70.824856    70.824856 
43700000    352.81028   -145038.91   -143579.61    291.87149    356355.65    71.031464    70.829869    70.829869 
43800000    357.25185   -145039.95   -143562.28    690.45352    356355.65    71.021349    70.834913    70.834913 
43900000    357.17963   -145047.31   -143569.94    259.76231    356355.65    71.011179    70.839985    70.839985 
44000000    354.65717   -145051.04   -143584.11    158.87717    356355.65     71.00096    70.845083    70.845083 
44100000    353.67957   -145039.13   -143576.24    206.95508    356355.65    70.990695    70.850205    70.850205 
44200000    357.51093   -145032.96   -143554.23    355.41902    356355.65    70.980388    70.855349    70.855349 
44300000    355.31372   -145036.72   -143567.08    240.00132    356355.65    70.970045    70.860511    70.860511 
44400000    355.92954   -145054.12   -143581.93    232.14235    356355.65    70.959671    70.865691    70.865691 
44500000    352.89185      -145037   -143577.37    414.58467    356355.65    70.949268    70.870886    70.870886 
44600000    355.37563   -145042.84   -143572.94    77.429902    356355.65    70.938843    70.876094    70.876094 
44700000    358.02601   -145040.02   -143559.15    65.478403    356355.65    70.928399    70.881312    70.881312 
44800000    354.22699   -145043.29   -143578.14    99.402011    356355.65    70.917942    70.886537    70.886537 
44900000    352.25857   -145032.88   -143575.87    199.99452    356355.65    70.907475    70.891769    70.891769 
45000000    354.39659   -145039.95    -143574.1    147.79382    356355.65    70.897004    70.897004    70.897004 
45100000     354.3992   -145026.11   -143560.24    397.93669    356355.65    70.886533     70.90224     70.90224 
45200000     359.1541   -145042.94   -143557.41     133.8674    356355.65    70.876066    70.907475    70.907475 
45300000    353.93241   -145038.83   -143574.89     435.5918    356355.65    70.865609    70.912707    70.912707 
45400000    357.30417   -145042.09   -143564.21     565.2788    356355.65    70.855165    70.917933    70.917933 
45500000     356.1686    -145037.5   -143564.31    280.13985    356355.65     70.84474    70.923151    70.923151 
45600000    355.15215   -145041.57   -143572.59    253.21544    356355.65    70.834337    70.928358    70.928358 
45700000    353.74021   -145034.34    -143571.2    234.21307    356355.65    70.823962    70.933553    70.933553 
45800000    355.66796    -145027.1   -143555.99     536.3302    356355.65     70.81362    70.938733    70.938733 
45900000    357.38155   -145032.54   -143554.34    281.05749    356355.65    70.803313    70.943896    70.943896 
46000000    355.40029   -145035.63   -143565.62     302.2299    356355.65    70.793048    70.949039    70.949039 
46100000    355.83971   -145038.73   -143566.91    276.64248    356355.65    70.782829    70.954161    70.954161 
46200000    356.87258   -145042.66   -143566.56    199.69218    356355.65    70.772659    70.959258    70.959258 
46300000    352.87854   -145024.99   -143565.41    855.80921    356355.65    70.762544     70.96433     70.96433 
46400000    356.00473   -145027.16   -143554.65    313.16819    356355.65    70.752488    70.969373    70.969373 
46500000     357.6187   -145042.18      -143563    223.51699    356355.65    70.742495    70.974385    70.974385 
46600000    355.32514   -145047.65   -143577.96    27.909974    356355.65    70.732571    70.979364    70.979364 
46700000    354.11525   -145029.04   -143564.35    533.35127    356355.65    70.722718    70.984308    70.984308 
46800000    358.46232   -145039.45   -143556.78    264.73947    356355.65    70.712942    70.989215    70.989215 
46900000    354.43873   -145036.92    -143570.9    90.886129    356355.65    70.703246    70.994082    70.994082 
47000000     355.8131   -145035.04   -143563.33    313.92957    356355.65    70.693636    70.998907    70.998907 
47100000    354.11388   -145037.34   -143572.65     521.3048    356355.65    70.684114    71.003689    71.003689 
47200000    352.08493   -145040.54   -143584.25    329.63159    356355.65    70.674686    71.008425    71.008425 
47300000     358.0146   -145024.25   -143543.43    688.32765    356355.65    70.665356    71.013113    71.013113 
47400000     356.5725   -145032.51   -143557.66     130.0572    356355.65    70.656127     71.01775     71.01775 
47500000    352.91753   -145042.85   -143583.11    135.72653    356355.65    70.647004    71.022336    71.022336 
47600000    356.41956   -145038.13   -143563.91    263.83988    356355.65     70.63799    71.026867    71.026867 
47700000    354.81836   -145042.47   -143574.87    396.00621    356355.65    70.629091    71.031342    71.031342 
47800000    352.94229   -145029.82   -143569.98    367.37024    356355.65    70.620308    71.035758    71.035758 
47900000    355.03121   -145045.18    -143576.7    310.83589    356355.65    70.611647    71.040115    71.040115 
48000000    353.62939   -145039.13   -143576.45    364.58346    356355.65    70.603111    71.044409    71.044409 
48100000     356.0886   -145025.46   -143552.61    276.96422    356355.65    70.594704    71.048639    71.048639 
48200000    353.38063   -145039.72   -143578.07    414.73129    356355.65     70.58643    71.052803    71.052803 
48300000    355.97008   -145038.15   -143565.79    434.31454    356355.65    70.578292    71.056899    71.056899 
48400000    355.64785   -145032.04   -143561.01    536.08823    356355.65    70.570294    71.060926    71.060926 
48500000     355.3841   -145039.91   -143569.97    187.15944    356355.65    70.562439    71.064881    71.064881 
48600000    352.42698   -145040.96   -143583.26    343.99826    356355.65     70.55473    71.068763    71.068763 
48700000    356.09097   -145035.61   -143562.75    514.20298    356355.65    70.547172     71.07257     71.07257 
48800000    354.49998   -145044.95   -143578.67    68.172535    356355.65    70.539768      71.0763      71.0763 
48900000    352.97541   -145039.97      -143580    274.77698    356355.65     70.53252    71.079952    71.079952 
49000000    356.30396    -145038.6   -143564.86    169.99681    356355.65    70.525432    71.083524    71.083524 
49100000    355.57864   -145048.21   -143577.47   -33.630394    356355.65    70.518506    71.087014    71.087014 
49200000    354.71087   -145032.67   -143565.51    495.49912    356355.65    70.511747    71.090421    71.090421 
49300000    353.55724   -145030.33   -143567.95    132.79472    356355.65    70.505157    71.093743    71.093743 
49400000     353.7643   -145031.05   -143567.81    615.80993    356355.65    70.498739    71.096979    71.096979 
49500000    356.01037   -145031.88   -143559.36    616.69883    356355.65    70.492495    71.100128    71.100128 
49600000    355.60919    -145026.9   -143556.03    616.41012    356355.65    70.486429    71.103187    71.103187 
49700000    355.90857   -145036.15   -143564.04    217.19012    356355.65    70.480543    71.106156    71.106156 
49800000    352.97841   -145045.59   -143585.61    318.09923    356355.65     70.47484    71.109033    71.109033 
49900000    355.64503   -145040.62   -143569.61    181.40398    356355.65    70.469322    71.111817    71.111817 
50000000    354.94474   -145028.87   -143560.75     450.3732    356355.65    70.463991    71.114507    71.114507 
50100000     352.6018   -145027.64   -143569.21    244.80691    356355.65    70.458851    71.117101    71.117101 
50200000     357.9325   -145028.83   -143548.36    408.42124    356355.65    70.453902    71.119599    71.119599 
50300000    354.50132   -145026.22   -143559.94    758.98183    356355.65    70.449148    71.121998    71.121998 
50400000    355.99834   -145039.18    -143566.7    268.13639    356355.65     70.44459    71.124299    71.124299 
50500000    352.79223   -145028.98   -143569.76    323.04446    356355.65    70.440231      71.1265      71.1265 
50600000     356.3585   -145043.23   -143569.26    362.01827    356355.65    70.436072      71.1286      71.1286 
50700000    353.55132   -145026.33   -143563.97     499.6367    356355.65    70.432116    71.130598    71.130598 
50800000    356.10923   -145030.45   -143557.52    523.59027    356355.65    70.428363    71.132493    71.132493 
50900000    355.16891   -145025.64   -143556.59    912.86167    356355.65    70.424816    71.134284    71.134284 
51000000    354.73488   -145045.24   -143577.99    230.83132    356355.65    70.421476    71.135971    71.135971 
51100000    354.05574   -145034.91   -143570.46     366.9214    356355.65    70.418344    71.137553    71.137553 
51200000    357.41468   -145041.09   -143562.75    447.79713    356355.65    70.415423    71.139028    71.139028 
51300000    356.07954   -145050.07   -143577.25    3.3115597    356355.65    70.412712    71.140397    71.140397 
51400000    357.53396   -145034.53    -143555.7    361.01124    356355.65    70.410215    71.141659    71.141659 
51500000    354.91718   -145028.01      -143560    374.26771    356355.65     70.40793    71.142813    71.142813 
51600000    354.26017   -145029.54   -143564.25     290.5047    356355.65     70.40586    71.143859    71.143859 
51700000    354.78507   -145050.16    -143582.7   -63.360352    356355.65    70.404006    71.144796    71.144796 
51800000    354.69793   -145037.05   -143569.95    350.75374    356355.65    70.402368    71.145624    71.145624 
51900000    355.00708   -145039.65   -143571.27    398.55586    356355.65    70.400947    71.146342    71.146342 
52000000    353.43987   -145028.86   -143566.96    583.93092    356355.65    70.399743     71.14695     71.14695 
52100000    355.07191   -145041.81   -143573.16   -31.223885    356355.65    70.398758    71.147448    71.147448 
52200000    355.47635    -145034.7   -143564.38    352.08803    356355.65    70.397991    71.147836    71.147836 
52300000    356.57847   -145040.12   -143565.24    3.6639267    356355.65    70.397443    71.148112    71.148112 
52400000    358.00439   -145031.31   -143550.53    482.95814    356355.65    70.397114    71.148279    71.148279 
52500000     355.2923   -145039.94   -143570.38     341.8198    356355.65    70.397004    71.148334    71.148334 
52600000    355.72341   -145028.17   -143556.82    463.42263    356355.65    70.397114    71.148279    71.148279 
52700000    353.49604   -145038.19   -143576.07    265.10384    356355.65    70.397443    71.148112    71.148112 
52800000    353.00939   -145017.59   -143557.47    707.87769    356355.65    70.397991    71.147836    71.147836 
52900000    355.46049   -145025.19   -143554.94    588.47481    356355.65    70.398758    71.147448    71.147448 
53000000    356.08916   -145039.03   -143566.18    259.53648    356355.65    70.399743     71.14695     71.14695 
53100000    355.53934    -145029.7   -143559.12    136.27819    356355.65    70.400947    71.146342    71.146342 
53200000    356.70112   -145035.45   -143560.06    348.03714    356355.65    70.402368    71.145624    71.145624 
53300000    356.90603   -145020.24   -143544.01    802.26144    356355.65    70.404006    71.144796    71.144796 
53400000    355.24656   -145039.79   -143570.42     336.1325    356355.65     70.40586    71.143859    71.143859 
53500000    355.66175    -145023.2   -143552.12    502.73207    356355.65     70.40793    71.142813    71.142813 
53600000    354.77119   -145033.49   -143566.09    603.10671    356355.65    70.410215    71.141659    71.141659 
53700000    355.36741   -145043.97    -143574.1    86.517811    356355.65    70.412712    71.140397    71.140397 
53800000    355.31852   -145051.91   -143582.24   -43.122533    356355.65    70.415423    71.139028    71.139028 
53900000    356.78597   -145028.48   -143552.74    465.25996    356355.65    70.418344    71.137553    71.137553 
54000000    353.01384   -145044.88   -143584.75    172.43303    356355.65    70.421476    71.135971    71.135971 
54100000    354.93445   -145030.03   -143561.95    476.19658    356355.65    70.424816    71.134284    71.134284 
54200000    353.21375    -145023.7   -143562.74    719.55494    356355.65    70.428363    71.132493    71.132493 
54300000    355.29316   -145038.08   -143568.52    440.66389    356355.65    70.432116    71.130598    71.130598 
54400000    356.40408   -145028.59   -143554.43    213.13707    356355.65    70.436072      71.1286      71.1286 
54500000    357.05398   -145040.52   -143563.67    320.90226    356355.65    70.440231      71.1265      71.1265 
54600000     353.6101   -145037.25   -143574.65    249.59736    356355.65     70.44459    71.124299    71.124299 
54700000    354.28831   -145035.04   -143569.63    302.32439    356355.65    70.449148    71.121998    71.121998 
54800000    355.24259   -145027.51   -143558.16    557.46148    356355.65    70.453902    71.119599    71.119599 
54900000     356.1572   -145021.37   -143548.24    577.35946    356355.65    70.458851    71.117101    71.117101 
55000000    352.97454   -145022.62   -143562.65    859.16231    356355.65    70.463991    71.114507    71.114507 
55100000    355.49132   -145044.08    -143573.7    112.50801    356355.65    70.469322    71.111817    71.111817 
55200000    356.33855    -145030.6   -143556.71    418.70792    356355.65     70.47484    71.109033    71.109033 
55300000    355.77909   -145049.28   -143577.71    41.170525    356355.65    70.480543    71.106156    71.106156 
55400000    357.29618   -145026.85   -143549.01    147.32107    356355.65    70.486429    71.103187    71.103187 
55500000    356.73147   -145031.11    -143555.6    575.66135    356355.65    70.492495    71.100128    71.100128 
55600000    356.31747   -145025.35   -143551.55    612.95146    356355.65    70.498739    71.096979    71.096979 
55700000    355.77006   -145033.35   -143561.82    351.17424    356355.65    70.505157    71.093743    71.093743 
55800000    354.39604   -145031.86   -143566.01     109.2801    356355.65    70.511747    71.090421    71.090421 
55900000    353.77902   -145034.98   -143571.68     213.1967    356355.65    70.518506    71.087014    71.087014 
56000000    352.62821   -145030.37   -143571.83    135.77744    356355.65    70.525432    71.083524    71.083524 
56100000    354.98087   -145033.28   -143565.01    412.01229    356355.65     70.53252    71.079952    71.079952 
56200000    355.91697   -145050.15      -143578    182.17867    356355.65    70.539768      71.0763      71.0763 
56300000    354.97381    -145022.6   -143554.36    379.75672    356355.65    70.547172     71.07257     71.07257 
56400000    354.30267   -145030.04   -143564.58    233.10898    356355.65     70.55473    71.068763    71.068763 
56500000    353.32222   -145047.72   -143586.31    201.00334    356355.65    70.562439    71.064881    71.064881 
56600000    356.10688   -145038.17   -143565.25    396.08325    356355.65    70.570294    71.060926    71.060926 
56700000    354.35129   -145036.23   -143570.56     429.6316    356355.65    70.578292    71.056899    71.056899 
56800000    353.18929   -145035.31   -143574.45    322.37705    356355.65     70.58643    71.052803    71.052803 
56900000    355.12003   -145035.24   -143566.39    365.74263    356355.65    70.594704    71.048639    71.048639 
57000000    357.57087   -145037.01   -143558.03    244.15256    356355.65    70.603111    71.044409    71.044409 
57100000    354.66478   -145030.84   -143563.88    538.70679    356355.65    70.611647    71.040115    71.040115 
57200000    355.38426   -145040.48   -143570.54    173.88702    356355.65    70.620308    71.035758    71.035758 
57300000    352.31384   -145032.02   -143574.78    181.73705    356355.65    70.629091    71.031342    71.031342 
57400000    354.41966    -145034.8   -143568.85    161.69652    356355.65     70.63799    71.026867    71.026867 
57500000    355.35522   -145043.37   -143573.55    176.12861    356355.65    70.647004    71.022336    71.022336 
57600000    355.64439   -145030.93   -143559.92    179.83789    356355.65    70.656127     71.01775     71.01775 
57700000    352.56265   -145026.19   -143567.92    408.30412    356355.65    70.665356    71.013113    71.013113 
57800000     356.0301   -145041.84   -143569.23    87.829209    356355.65    70.674686    71.008425    71.008425 
57900000     356.5749   -145024.31   -143549.45     324.5834    356355.65    70.684114    71.003689    71.003689 
58000000    353.75426   -145037.24   -143574.04    284.79557    356355.65    70.693636    70.998907    70.998907 
58100000    352.45813   -145034.76   -143576.93    180.75129    356355.65    70.703246    70.994082    70.994082 
58200000    355.73077   -145037.47    -143566.1    158.10983    356355.65    70.712942    70.989215    70.989215 
58300000    351.77694   -145035.14   -143580.12    303.59723    356355.65    70.722718    70.984308    70.984308 
58400000    357.48762   -145047.62   -143568.99   -15.738952    356355.65    70.732571    70.979364    70.979364 
58500000    353.42237   -145035.95   -143574.13    314.03887    356355.65    70.742495    70.974385    70.974385 
58600000    355.97251   -145040.88   -143568.51    137.19259    356355.65    70.752488    70.969373    70.969373 
58700000    352.97319   -145039.69   -143579.72    1.6748457    356355.65    70.762544     70.96433     70.96433 
58800000    354.75864   -145031.35      -143564    319.61466    356355.65    70.772659    70.959258    70.959258 
58900000    352.76005   -145048.82   -143589.73   -154.57067    356355.65    70.782829    70.954161    70.954161 
59000000    355.65461      -145030   -143558.94    270.34529    356355.65    70.793048    70.949039    70.949039 
59100000    352.45783   -145040.02   -143582.19    151.69128    356355.65    70.803313    70.943896    70.943896 
59200000    355.68342   -145040.31   -143569.14    405.01161    356355.65     70.81362    70.938733    70.938733 
59300000    354.94156    -145041.9   -143573.79    327.91255    356355.65    70.823962    70.933553    70.933553 
59400000    355.79922   -145026.11   -143554.45    479.03005    356355.65    70.834337    70.928358    70.928358 
59500000    353.16937   -145051.82   -143591.04    65.200483    356355.65     70.84474    70.923151    70.923151 
59600000    353.78561   -145044.41   -143581.09    252.34797    356355.65    70.855165    70.917933    70.917933 
59700000    352.41001   -145042.87   -143585.23    60.775964    356355.65    70.865609    70.912707    70.912707 
59800000    352.77154   -145030.18   -143571.05    219.50732    356355.65    70.876066    70.907475    70.907475 
59900000    355.06961    -145024.6   -143555.96    607.03594    356355.65    70.886533     70.90224     70.90224 
60000000    356.08876   -145038.67   -143565.81    428.60178    356355.65    70.897004    70.897004    70.897004 
60100000    356.77002   -145041.44   -143565.77    95.034764    356355.65    70.907475    70.891769    70.891769 
60200000    355.55001   -145034.13   -143563.51    377.99449    356355.65    70.917942    70.886537    70.886537 
60300000    351.72847   -145028.08   -143573.26    163.89349    356355.65    70.928399    70.881312    70.881312 
60400000    356.14105   -145029.96   -143556.89     645.3266    356355.65    70.938843    70.876094    70.876094 
60500000    354.53209   -145043.16   -143576.74    179.22509    356355.65    70.949268    70.870886    70.870886 
60600000    352.32954   -145041.04   -143583.73    127.87728    356355.65    70.959671    70.865691    70.865691 
60700000    353.22952   -145038.22    -143577.2    366.63079    356355.65    70.970045    70.860511    70.860511 
60800000    355.25228   -145038.98   -143569.58    153.99925    356355.65    70.980388    70.855349    70.855349 
60900000    353.75045   -145033.64   -143570.46    529.10825    356355.65    70.990695    70.850205    70.850205 
61000000    354.02923    -145042.1   -143577.77    175.83174    356355.65     71.00096    70.845083    70.845083 
61100000    354.07867   -145032.03   -143567.49    312.03413    356355.65    71.011179    70.839985    70.839985 
61200000    351.29603   -145029.54   -143576.51     198.8106    356355.65    71.021349    70.834913    70.834913 
61300000    355.35639    -145028.5   -143558.67    397.46148    356355.65    71.031464    70.829869    70.829869 
61400000     355.9209   -145025.87   -143553.72    629.70165    356355.65     71.04152    70.824856    70.824856 
61500000     353.1147   -145049.61   -143589.06    317.60205    356355.65    71.051512    70.819876    70.819876 
61600000    352.41815   -145031.64   -143573.97    723.24585    356355.65    71.061437     70.81493     70.81493 
61700000    354.04104   -145041.91   -143577.52    -33.39197    356355.65     71.07129    70.810021    70.810021 
61800000    357.51734   -145041.74   -143562.98    363.75713    356355.65    71.081066    70.805152    70.805152 
61900000    356.16987   -145030.59    -143557.4    581.63084    356355.65    71.090762    70.800323    70.800323 
62000000    354.00049   -145032.81    -143568.6    218.34138    356355.65    71.100372    70.795538    70.795538 
62100000    352.68904   -145047.31   -143588.52    142.68894    356355.65    71.109894    70.790798    70.790798 
62200000    354.45285   -145040.79    -143574.7    304.36917    356355.65    71.119322    70.786106    70.786106 
62300000    353.91126   -145030.75    -143566.9    738.32675    356355.65    71.128652    70.781463    70.781463 
62400000    356.20301   -145047.18   -143573.86   -52.190401    356355.65    71.137881    70.776872    70.776872 
62500000    357.15904   -145036.91   -143559.63    249.62152    356355.65    71.147004    70.772334    70.772334 
62600000    355.24111   -145037.13   -143567.78    269.81919    356355.65    71.156017    70.767851    70.767851 
62700000    357.15079   -145036.04   -143558.79    428.07302    356355.65    71.164917    70.763426    70.763426 
62800000    355.95563    -145043.8    -143571.5    104.22782    356355.65      71.1737     70.75906     70.75906 
62900000    356.51623   -145039.96   -143565.34    68.857902    356355.65    71.182361    70.754755    70.754755 
63000000    355.09869   -145024.99   -143556.24    659.93007    356355.65    71.190897    70.750513    70.750513 
63100000    355.45928   -145046.03   -143575.78    158.46935    356355.65    71.199304    70.746336    70.746336 
63200000      354.053    -145032.1   -143567.67    314.85789    356355.65    71.207578    70.742225    70.742225 
63300000    357.06488   -145017.63   -143540.74     454.6872    356355.65    71.215716    70.738183    70.738183 
63400000    355.69617   -145047.53   -143576.31    103.85317    356355.65    71.223714    70.734211    70.734211 
63500000    356.07593   -145037.36   -143564.56    372.97216    356355.65    71.231569    70.730311    70.730311 
63600000    355.93283   -145023.79   -143551.58    588.04719    356355.65    71.239278    70.726484    70.726484 
63700000    356.09163   -145033.36   -143560.49    400.45811    356355.65    71.246836    70.722733    70.722733 
63800000    354.62405   -145033.88   -143567.08    195.37389    356355.65     71.25424    70.719058    70.719058 
63900000    355.74175    -145023.7   -143552.29    576.82146    356355.65    71.261488    70.715461    70.715461 
64000000    352.57356   -145037.56   -143579.25    18.951132    356355.65    71.268576    70.711945    70.711945 
64100000    354.53741   -145026.69   -143560.25    296.45022    356355.65    71.275501     70.70851     70.70851 
64200000    355.55285   -145045.37   -143574.74    390.46898    356355.65    71.282261    70.705157    70.705157 
64300000    354.44302   -145032.01   -143565.97    353.93012    356355.65    71.288851    70.701889    70.701889 
64400000    352.14878   -145041.86    -143585.3    77.690264    356355.65    71.295269    70.698707    70.698707 
64500000    356.72123   -145047.39   -143571.92    30.085334    356355.65    71.301512    70.695611    70.695611 
64600000    354.23739    -145040.6   -143575.41    305.97499    356355.65    71.307579    70.692604    70.692604 
64700000    354.74428   -145037.82   -143570.53    239.31249    356355.65    71.313465    70.689687    70.689687 
64800000    350.66072   -145041.14   -143590.74    194.43473    356355.65    71.319168     70.68686     70.68686 
64900000     355.2906    -145034.1   -143564.54    216.78521    356355.65    71.324686    70.684126    70.684126 
65000000    351.83595   -145031.28   -143576.01    328.56771    356355.65    71.330017    70.681484    70.681484 
65100000    354.15935   -145028.25   -143563.38      541.242    356355.65    71.335157    70.678938    70.678938 
65200000    354.59043    -145027.8   -143561.15    346.58642    356355.65    71.340106    70.676486    70.676486 
65300000    358.71841   -145017.58   -143533.85    647.87682    356355.65     71.34486    70.674131    70.674131 
65400000    358.24323   -145034.18   -143552.42    394.20875    356355.65    71.349417    70.671874    70.671874 
65500000    352.55754   -145035.23   -143576.98     111.7234    356355.65    71.353777    70.669715    70.669715 
65600000    355.29301   -145028.36    -143558.8    487.98484    356355.65    71.357936    70.667656    70.667656 
65700000    354.45663   -145044.85   -143578.75    306.37491    356355.65    71.361892    70.665697    70.665697 
65800000    356.03792   -145038.51   -143565.87    423.10606    356355.65    71.365645    70.663839    70.663839 
65900000    355.40587   -145046.23    -143576.2    419.58635    356355.65    71.369192    70.662083    70.662083 
66000000    351.02299   -145029.55   -143577.65    311.06532    356355.65    71.372532    70.660429    70.660429 
66100000    352.91329   -145041.08   -143581.36    159.04702    356355.65    71.375664    70.658879    70.658879 
66200000    355.54512   -145034.75   -143564.15    353.11513    356355.65    71.378585    70.657433    70.657433 
66300000    355.23067   -145031.96   -143562.66    470.19928    356355.65    71.381296    70.656092    70.656092 
66400000    356.50002    -145022.6   -143548.04    311.78375    356355.65    71.383793    70.654855    70.654855 
66500000    354.04792   -145040.48   -143576.07    153.30236    356355.65    71.386078    70.653725    70.653725 
66600000    355.30332    -145025.4   -143555.79    558.99637    356355.65    71.388148    70.652701    70.652701 
66700000    358.13661   -145032.22    -143550.9    414.61227    356355.65    71.390002    70.651783    70.651783 
66800000    351.85348   -145037.16   -143581.83    183.06213    356355.65     71.39164    70.650973    70.650973 
66900000    353.76552   -145042.75   -143579.51    147.67528    356355.65    71.393061    70.650269    70.650269 
67000000    354.38067   -145031.09    -143565.3    489.98889    356355.65    71.394265    70.649674    70.649674 
67100000     358.6289   -145036.21   -143552.85    395.50871    356355.65     71.39525    70.649186    70.649186 
67200000    354.96991   -145035.38   -143567.15    417.12048    356355.65    71.396017    70.648807    70.648807 
67300000    355.83305      -145032    -143560.2    574.43577    356355.65    71.396565    70.648536    70.648536 
67400000    355.34601   -145029.85   -143560.07    414.80942    356355.65    71.396894    70.648373    70.648373 
67500000     354.7569   -145031.41   -143564.07    412.88758    356355.65    71.397004    70.648319    70.648319 
67600000    357.22534   -145034.85   -143557.29    222.29832    356355.65    71.396894    70.648373    70.648373 
67700000    356.35846   -145035.07    -143561.1    529.37817    356355.65    71.396565    70.648536    70.648536 
67800000    354.47094   -145047.06    -143580.9   -34.808457    356355.65    71.396017    70.648807    70.648807 
67900000     357.7806    -145038.6   -143558.75     117.9276    356355.65     71.39525    70.649186    70.649186 
68000000    355.94793   -145044.08   -143571.81    129.05802    356355.65    71.394265    70.649674    70.649674 
68100000    355.64744   -145036.71   -143565.68    277.01072    356355.65    71.393061    70.650269    70.650269 
68200000    356.43919   -145025.84   -143551.54    477.15407    356355.65     71.39164    70.650973    70.650973 
68300000    356.27864   -145036.71   -143563.07    305.80427    356355.65    71.390002    70.651783    70.651783 
68400000    349.99317   -145017.61   -143569.97    576.75906    356355.65    71.388148    70.652701    70.652701 
68500000    355.32991   -145042.96   -143573.24    221.36554    356355.65    71.386078    70.653725    70.653725 
68600000    358.39074   -145010.54   -143528.16    880.77245    356355.65    71.383793    70.654855    70.654855 
68700000    356.07289      -145023   -143550.22    368.32931    356355.65    71.381296    70.656092    70.656092 
68800000    356.29866   -145043.95   -143570.23    331.35673    356355.65    71.378585    70.657433    70.657433 
68900000      354.118   -145039.51   -143574.81    474.11371    356355.65    71.375664    70.658879    70.658879 
[...]
133400000    355.96898   -145036.13   -143563.77    155.23192    356355.65    71.061437     70.81493     70.81493 
133500000    354.03079   -145040.19   -143575.85    136.61063    356355.65    71.051512    70.819876    70.819876 
133600000    356.13042   -145041.49   -143568.47    232.31127    356355.65     71.04152    70.824856    70.824856 
133700000    350.74488   -145034.09   -143583.34    369.29931    356355.65    71.031464    70.829869    70.829869 
133800000    355.75952   -145035.65   -143564.15    193.82648    356355.65    71.021349    70.834913    70.834913 
133900000    355.48172   -145047.38   -143577.04    149.12543    356355.65    71.011179    70.839985    70.839985 
134000000    357.06495   -145043.83   -143566.94    112.23489    356355.65     71.00096    70.845083    70.845083 
134100000    353.17404   -145042.74   -143581.94    28.041826    356355.65    70.990695    70.850205    70.850205 
134200000    355.33014   -145034.97   -143565.26    67.325627    356355.65    70.980388    70.855349    70.855349 
134300000    354.03329    -145031.8   -143567.45    328.64973    356355.65    70.970045    70.860511    70.860511 
134400000    356.77344   -145040.49    -143564.8    155.06917    356355.65    70.959671    70.865691    70.865691 
134500000    353.89762   -145052.24   -143588.45    57.610846    356355.65    70.949268    70.870886    70.870886 
134600000    355.59941   -145034.28   -143563.45   -170.97612    356355.65    70.938843    70.876094    70.876094 
134700000    355.53729   -145040.57      -143570    288.39418    356355.65    70.928399    70.881312    70.881312 
134800000    356.20801   -145040.99   -143567.64    265.70077    356355.65    70.917942    70.886537    70.886537 
134900000    355.98706   -145030.12   -143557.68    332.95913    356355.65    70.907475    70.891769    70.891769 
135000000    358.80435   -145030.72   -143546.63    586.28414    356355.65    70.897004    70.897004    70.897004 
135100000    355.43821   -145049.24   -143579.08     32.94885    356355.65    70.886533     70.90224     70.90224 
135200000    356.57783   -145040.04   -143565.16    302.57512    356355.65    70.876066    70.907475    70.907475 
135300000    354.16525   -145043.72   -143578.83    75.498545    356355.65    70.865609    70.912707    70.912707 
135400000    355.26855   -145038.85   -143569.39    469.98916    356355.65    70.855165    70.917933    70.917933 
135500000    357.68996   -145044.92   -143565.44    284.70253    356355.65     70.84474    70.923151    70.923151 
135600000    355.37524    -145044.7    -143574.8   -207.90597    356355.65    70.834337    70.928358    70.928358 
135700000    355.85906   -145037.81   -143565.91    122.72303    356355.65    70.823962    70.933553    70.933553 
135800000    354.19935   -145032.46   -143567.42    380.65736    356355.65     70.81362    70.938733    70.938733 
135900000    354.23127    -145035.2   -143570.03    562.48395    356355.65    70.803313    70.943896    70.943896 
136000000     354.8643    -145042.5   -143574.71    181.41536    356355.65    70.793048    70.949039    70.949039 
136100000    356.00851   -145029.95   -143557.43    550.26622    356355.65    70.782829    70.954161    70.954161 
136200000    353.65174   -145034.11   -143571.34    218.40395    356355.65    70.772659    70.959258    70.959258 
136300000     352.9479   -145034.28   -143574.42     562.8441    356355.65    70.762544     70.96433     70.96433 
136400000    357.17618   -145034.52   -143557.17    516.86093    356355.65    70.752488    70.969373    70.969373 
136500000    353.77591   -145033.42   -143570.13     140.4447    356355.65    70.742495    70.974385    70.974385 
136600000     355.4713   -145040.63   -143570.34    468.52838    356355.65    70.732571    70.979364    70.979364 
136700000    355.35384   -145045.51    -143575.7    25.981285    356355.65    70.722718    70.984308    70.984308 
136800000     357.1651   -145037.97   -143560.67    328.78151    356355.65    70.712942    70.989215    70.989215 
136900000    355.28373   -145023.94   -143554.42    503.52233    356355.65    70.703246    70.994082    70.994082 
137000000    354.03064   -145038.17   -143573.83    207.57656    356355.65    70.693636    70.998907    70.998907 
137100000    355.07587   -145045.69   -143577.03    171.69527    356355.65    70.684114    71.003689    71.003689 
137200000    354.77183    -145036.7    -143569.3     288.0668    356355.65    70.674686    71.008425    71.008425 
137300000    351.76371   -145042.58   -143587.62    5.0606872    356355.65    70.665356    71.013113    71.013113 
137400000    355.41301   -145036.41   -143566.35    509.60673    356355.65    70.656127     71.01775     71.01775 
137500000      354.589    -145044.8   -143578.15    170.90046    356355.65    70.647004    71.022336    71.022336 
137600000    358.27176   -145025.87   -143543.99     834.9496    356355.65     70.63799    71.026867    71.026867 
137700000    353.87813   -145055.02   -143591.31    125.14629    356355.65    70.629091    71.031342    71.031342 
137800000    355.24934   -145034.84   -143565.46    339.82003    356355.65    70.620308    71.035758    71.035758 
137900000    352.71969   -145034.49   -143575.57    340.91141    356355.65    70.611647    71.040115    71.040115 
138000000    352.74136   -145033.37   -143574.36    321.65986    356355.65    70.603111    71.044409    71.044409 
138100000    353.85123   -145043.49   -143579.89    107.85652    356355.65    70.594704    71.048639    71.048639 
138200000    354.55715   -145047.85   -143581.33    92.567871    356355.65     70.58643    71.052803    71.052803 
138300000    353.00462   -145043.84   -143583.74    177.27362    356355.65    70.578292    71.056899    71.056899 
138400000    355.71985   -145015.68   -143544.35    896.09255    356355.65    70.570294    71.060926    71.060926 
138500000    357.75916   -145039.83   -143560.07    438.49434    356355.65    70.562439    71.064881    71.064881 
138600000    353.68585   -145040.64   -143577.73    505.57373    356355.65     70.55473    71.068763    71.068763 
138700000    352.74872   -145035.83    -143576.8    70.943775    356355.65    70.547172     71.07257     71.07257 
138800000    354.41962   -145038.09   -143572.14    283.50759    356355.65    70.539768      71.0763      71.0763 
138900000    357.86117   -145042.29   -143562.11    240.26873    356355.65     70.53252    71.079952    71.079952 
139000000    355.93943   -145036.48   -143564.24    490.13863    356355.65    70.525432    71.083524    71.083524 
139100000    356.65099   -145028.62   -143553.44    616.63377    356355.65    70.518506    71.087014    71.087014 
139200000    355.44025    -145037.4   -143567.23    216.61633    356355.65    70.511747    71.090421    71.090421 
139300000     355.4384   -145034.83   -143564.67    355.59799    356355.65    70.505157    71.093743    71.093743 
139400000    358.07874   -145036.76   -143555.68    581.63882    356355.65    70.498739    71.096979    71.096979 
139500000    352.72223   -145033.26   -143574.33    380.72627    356355.65    70.492495    71.100128    71.100128 
139600000    354.31029   -145032.58   -143567.09    388.46755    356355.65    70.486429    71.103187    71.103187 
139700000    355.12931   -145025.09    -143556.2     195.5798    356355.65    70.480543    71.106156    71.106156 
139800000    355.05479   -145035.07    -143566.5    457.86571    356355.65     70.47484    71.109033    71.109033 
139900000    357.04047   -145038.09    -143561.3    255.93233    356355.65    70.469322    71.111817    71.111817 
140000000    356.30992    -145028.1   -143554.33     445.6478    356355.65    70.463991    71.114507    71.114507 
140100000    355.18343   -145037.29   -143568.18    307.40033    356355.65    70.458851    71.117101    71.117101 
140200000    351.53427   -145036.61    -143582.6      291.153    356355.65    70.453902    71.119599    71.119599 
140300000    355.17859   -145027.87   -143558.78    560.49538    356355.65    70.449148    71.121998    71.121998 
140400000    353.84834   -145034.19   -143570.61    317.56755    356355.65     70.44459    71.124299    71.124299 
140500000    356.16261   -145029.96   -143556.81    625.19854    356355.65    70.440231      71.1265      71.1265 
140600000    356.98511   -145038.35   -143561.79     281.6197    356355.65    70.436072      71.1286      71.1286 
140700000    356.08699   -145030.47   -143557.63    372.82586    356355.65    70.432116    71.130598    71.130598 
140800000    357.82818   -145023.41   -143543.37    578.13469    356355.65    70.428363    71.132493    71.132493 
140900000    356.64005    -145031.1   -143555.97     359.9006    356355.65    70.424816    71.134284    71.134284 
141000000     354.5442   -145035.99   -143569.53    435.08421    356355.65    70.421476    71.135971    71.135971 
141100000    354.50575   -145035.73   -143569.42     305.8472    356355.65    70.418344    71.137553    71.137553 
141200000    354.53409   -145035.36   -143568.94    439.79736    356355.65    70.415423    71.139028    71.139028 
141300000     357.6115   -145044.32   -143565.17    295.94299    356355.65    70.412712    71.140397    71.140397 
141400000    354.87172   -145030.95   -143563.13     353.7702    356355.65    70.410215    71.141659    71.141659 
141500000    354.31296   -145053.33   -143587.83   -161.74544    356355.65     70.40793    71.142813    71.142813 
141600000    354.28655   -145035.81   -143570.42    304.61556    356355.65     70.40586    71.143859    71.143859 
141700000    352.53121   -145036.22   -143578.08    273.51462    356355.65    70.404006    71.144796    71.144796 
141800000    354.11304   -145028.05   -143563.37     666.4362    356355.65    70.402368    71.145624    71.145624 
141900000    354.64412   -145026.94   -143560.06    513.61506    356355.65    70.400947    71.146342    71.146342 
142000000    355.68934   -145041.93   -143570.73    276.44537    356355.65    70.399743     71.14695     71.14695 
142100000    355.64706   -145039.19   -143568.17    292.72757    356355.65    70.398758    71.147448    71.147448 
142200000    355.32114   -145038.51   -143568.83    42.907995    356355.65    70.397991    71.147836    71.147836 
142300000    353.74998   -145029.41   -143566.23    403.56031    356355.65    70.397443    71.148112    71.148112 
142400000    357.59953   -145043.77   -143564.67    273.85446    356355.65    70.397114    71.148279    71.148279 
142500000    353.00682   -145035.26   -143575.16    627.77314    356355.65    70.397004    71.148334    71.148334 
142600000    353.21972   -145031.23   -143570.24    166.96793    356355.65    70.397114    71.148279    71.148279 
142700000     355.6825   -145039.73   -143568.56    423.66451    356355.65    70.397443    71.148112    71.148112 
142800000    354.84289   -145024.96   -143557.26    694.24049    356355.65    70.397991    71.147836    71.147836 
142900000    354.36864   -145038.29   -143572.55   -18.548443    356355.65    70.398758    71.147448    71.147448 
143000000    353.22932   -145043.38   -143582.35    199.37201    356355.65    70.399743     71.14695     71.14695 
143100000    356.01994   -145037.51   -143564.94     388.4624    356355.65    70.400947    71.146342    71.146342 
143200000    354.43256   -145045.92   -143579.91    259.24584    356355.65    70.402368    71.145624    71.145624 
143300000    358.52263   -145021.73   -143538.81    425.48594    356355.65    70.404006    71.144796    71.144796 
143400000    354.22876    -145034.3   -143569.14    282.79869    356355.65     70.40586    71.143859    71.143859 
143500000    354.27395   -145025.56   -143560.22     389.0843    356355.65     70.40793    71.142813    71.142813 
143600000    355.99754   -145033.79   -143561.32    351.46773    356355.65    70.410215    71.141659    71.141659 
143700000    356.06409   -145045.71   -143572.96    217.36515    356355.65    70.412712    71.140397    71.140397 
143800000    355.92004   -145039.03   -143566.88    306.19768    356355.65    70.415423    71.139028    71.139028 
143900000    356.47293   -145034.37   -143559.93    238.38883    356355.65    70.418344    71.137553    71.137553 
144000000    355.64098   -145057.46   -143586.46    113.55616    356355.65    70.421476    71.135971    71.135971 
144100000    356.57513   -145046.36   -143571.49    48.723636    356355.65    70.424816    71.134284    71.134284 
144200000    355.62414   -145041.14   -143570.21    445.00982    356355.65    70.428363    71.132493    71.132493 
144300000    352.91974   -145038.73   -143578.98    126.00349    356355.65    70.432116    71.130598    71.130598 
144400000    357.71394   -145041.77   -143562.19     247.4262    356355.65    70.436072      71.1286      71.1286 
144500000    354.15403   -145037.23   -143572.38    440.12439    356355.65    70.440231      71.1265      71.1265 
144600000    356.37867    -145023.7   -143549.65    430.32557    356355.65     70.44459    71.124299    71.124299 
144700000    353.29276      -145038   -143576.71    79.319098    356355.65    70.449148    71.121998    71.121998 
144800000    355.45313   -145032.54   -143562.31    401.68601    356355.65    70.453902    71.119599    71.119599 
144900000    356.89552   -145036.55   -143560.36    273.44119    356355.65    70.458851    71.117101    71.117101 
145000000    354.10419   -145029.41   -143564.76     612.8393    356355.65    70.463991    71.114507    71.114507 
145100000    355.44459   -145047.34   -143577.15    193.50695    356355.65    70.469322    71.111817    71.111817 
145200000    356.70091   -145036.08   -143560.69    528.75084    356355.65     70.47484    71.109033    71.109033 
145300000    355.15472   -145042.98   -143573.99    87.820544    356355.65    70.480543    71.106156    71.106156 
145400000    355.75144   -145038.11   -143566.65    78.920737    356355.65    70.486429    71.103187    71.103187 
145500000    355.60034   -145038.81   -143567.98   -82.952957    356355.65    70.492495    71.100128    71.100128 
145600000    354.33075   -145037.75   -143572.17     450.8087    356355.65    70.498739    71.096979    71.096979 
145700000    354.20716   -145038.34   -143573.27    267.98556    356355.65    70.505157    71.093743    71.093743 
145800000    353.11792   -145045.14   -143584.57    116.71022    356355.65    70.511747    71.090421    71.090421 
145900000    355.91063   -145032.96   -143560.85    443.69444    356355.65    70.518506    71.087014    71.087014 
146000000    354.86985   -145037.95   -143570.13    118.00475    356355.65    70.525432    71.083524    71.083524 
146100000    354.15713   -145052.96    -143588.1   -7.1121581    356355.65     70.53252    71.079952    71.079952 
146200000      353.302   -145045.48   -143584.15    24.052257    356355.65    70.539768      71.0763      71.0763 
146300000    354.92438   -145034.77   -143566.73    180.05126    356355.65    70.547172     71.07257     71.07257 
146400000    351.79807    -145045.6   -143590.49    133.64138    356355.65     70.55473    71.068763    71.068763 
146500000    353.15315   -145037.77   -143577.06    296.84385    356355.65    70.562439    71.064881    71.064881 
146600000    354.53315   -145035.02   -143568.61    522.57132    356355.65    70.570294    71.060926    71.060926 
146700000    354.86505    -145020.2   -143552.41    646.62519    356355.65    70.578292    71.056899    71.056899 
146800000    358.00661   -145039.01   -143558.22    469.96148    356355.65     70.58643    71.052803    71.052803 
146900000    356.57107   -145046.59   -143571.74     247.6895    356355.65    70.594704    71.048639    71.048639 
147000000    353.72234   -145049.52   -143586.46    26.219623    356355.65    70.603111    71.044409    71.044409 
147100000    352.70916   -145032.69   -143573.81    548.83109    356355.65    70.611647    71.040115    71.040115 
147200000    354.59196   -145040.34   -143573.68    296.62866    356355.65    70.620308    71.035758    71.035758 
147300000     357.0894   -145029.17   -143552.17    222.75012    356355.65    70.629091    71.031342    71.031342 
147400000    354.57685   -145037.23   -143570.63    640.71407    356355.65     70.63799    71.026867    71.026867 
147500000    354.57522   -145041.02   -143574.43    505.40023    356355.65    70.647004    71.022336    71.022336 
147600000    352.01576   -145045.31    -143589.3    89.180842    356355.65    70.656127     71.01775     71.01775 
147700000    357.87124   -145036.18   -143555.96    551.76571    356355.65    70.665356    71.013113    71.013113 
147800000    350.80583    -145029.8   -143578.79    401.37261    356355.65    70.674686    71.008425    71.008425 
147900000    353.72208   -145045.27   -143582.21    294.34307    356355.65    70.684114    71.003689    71.003689 
148000000    355.17325   -145031.92   -143562.85     364.8732    356355.65    70.693636    70.998907    70.998907 
148100000    354.78456   -145044.97   -143577.51    241.23545    356355.65    70.703246    70.994082    70.994082 
148200000    354.30595   -145036.57   -143571.09    319.23524    356355.65    70.712942    70.989215    70.989215 
148300000    356.32228   -145042.36   -143568.54    279.67571    356355.65    70.722718    70.984308    70.984308 
148400000    352.35043   -145038.39      -143581    47.468402    356355.65    70.732571    70.979364    70.979364 
148500000    357.88533   -145044.81   -143564.52    227.80996    356355.65    70.742495    70.974385    70.974385 
148600000    355.84365    -145036.7   -143564.86    362.45296    356355.65    70.752488    70.969373    70.969373 
148700000    354.29124   -145027.62    -143562.2    432.90771    356355.65    70.762544     70.96433     70.96433 
148800000     354.0857   -145017.91   -143553.34    704.89231    356355.65    70.772659    70.959258    70.959258 
148900000    356.48768   -145038.94   -143564.44    95.882599    356355.65    70.782829    70.954161    70.954161 
149000000    355.36953   -145027.79   -143557.92    623.28014    356355.65    70.793048    70.949039    70.949039 
149100000    355.40794   -145032.54    -143562.5    235.27834    356355.65    70.803313    70.943896    70.943896 
149200000    354.98722   -145040.93   -143572.63    436.96719    356355.65     70.81362    70.938733    70.938733 
149300000    354.39408   -145037.46   -143571.62    361.22033    356355.65    70.823962    70.933553    70.933553 
149400000    353.79007   -145035.49   -143572.14    136.03547    356355.65    70.834337    70.928358    70.928358 
149500000    355.32291   -145034.49    -143564.8    214.84113    356355.65     70.84474    70.923151    70.923151 
149600000    352.54129   -145034.95   -143576.77    253.09297    356355.65    70.855165    70.917933    70.917933 
149700000    355.59851   -145056.54   -143585.71   -81.443318    356355.65    70.865609    70.912707    70.912707 
149800000    356.03469   -145029.66   -143557.04    350.98773    356355.65    70.876066    70.907475    70.907475 
149900000    355.93213    -145036.6   -143564.39    113.42781    356355.65    70.886533     70.90224     70.90224 
150000000    356.17164   -145035.66   -143562.46     231.1905    356355.65    70.897004    70.897004    70.897004 
Loop time of 339513 on 120 procs (120 MPI x 1 OpenMP) for 150000000 steps with 32000 atoms

Pair  time (%) = 248892 (73.3085)
Neigh time (%) = 9918.83 (2.92149)
Comm  time (%) = 56817.6 (16.7351)
Outpt time (%) = 2.60462 (0.000767164)
Other time (%) = 23881.8 (7.03414)

Nlocal:    266.667 ave 276 max 257 min
Histogram: 1 3 12 18 24 30 13 8 7 4
Nghost:    2534.74 ave 2558 max 2505 min
Histogram: 2 3 9 17 12 20 29 14 8 6
Neighs:    30813.1 ave 32978 max 28922 min
Histogram: 5 7 19 15 18 23 14 12 5 2

Total # of neighbors = 3697576
Ave neighs/atom = 115.549
Neighbor list builds = 9119787
Dangerous builds = 0
write_restart  dms300ns_355-10c.rst
clear
WARNING: OMP_NUM_THREADS environment is not set. (../comm.cpp:89)
  using 1 OpenMP thread(s) per MPI task
#jump YDMA375-300ns.lmp
