units           metal
boundary        p p p
atom_style      atomic
read_data      /HOME/hust_hbyu_1/Samples/Ni80P20_C20/dat/T455.dat
  orthogonal box = (-35.504 -35.504 -35.504) to (35.504 35.504 35.504)
  4 by 6 by 5 MPI processor grid
  reading atoms ...
  32000 atoms
  reading velocities ...
  32000 velocities
pair_style      eam/alloy
pair_coeff      * *   /HOME/hust_hbyu_1/Samples/Ni80P20_C20/dat/NiP.lammps.eam Ni P
mass            1  58.69
mass			2  30.97
neigh_modify    delay 5
timestep 0.01
thermo 100000
reset_timestep 0
thermo_style custom step temp pe etotal press vol lx ly lz
fix             1 all nvt temp 455 455 0.5
thermo_modify flush yes
fix dsf all deform 1 x  wiggle 0.5    300000.0   y volume z volume units box
fix ps1 all ave/time 1 1 300000 c_thermo_press[1] c_thermo_press[2]  c_thermo_press[3] c_thermo_press[4]  c_thermo_press[5] c_thermo_press[6]  file  YDMA455K-stress-300ns.txt
dump            1 all custom 10000000 YDMA455K-300ns.lammpstrj id type x y z
dump_modify 1 sort id
run 150000000
Neighbor list info ...
  1 neighbor list requests
  update every 1 steps, delay 5 steps, check yes
  master list distance cutoff = 8.5
  ghost atom cutoff = 8.5
Memory usage per processor = 3.50382 Mbytes
Step Temp PotEng TotEng Press Volume Lx Ly Lz 
       0    451.60627   -144604.23    -142736.3     731.5585    358033.41    71.008093    71.008093    71.008093 
  100000    453.28491   -144545.13   -142670.26    1380.9171    358033.41    71.018564    71.002858    71.002858 
  200000    455.71773   -144538.53   -142653.59    1584.5616    358033.41    71.029031    70.997627    70.997627 
  300000    455.39295   -144524.07   -142640.47    2082.8957    358033.41    71.039488    70.992401    70.992401 
  400000    458.35446   -144547.37   -142651.52    1534.6831    358033.41    71.049932    70.987183    70.987183 
  500000    457.95771   -144532.25   -142638.05    1886.4576    358033.41    71.060357    70.981975    70.981975 
  600000    454.58733    -144531.8   -142651.54    1594.1314    358033.41     71.07076    70.976781    70.976781 
  700000    454.22607   -144551.67    -142672.9    1392.8114    358033.41    71.081135    70.971601    70.971601 
  800000     452.6025   -144542.88   -142670.82    1569.8387    358033.41    71.091478    70.966438    70.966438 
  900000    454.40239   -144540.35   -142660.85    1408.6223    358033.41    71.101784    70.961294    70.961294 
 1000000     450.7092   -144547.64   -142683.42    1371.1618    358033.41    71.112049    70.956172    70.956172 
 1100000     458.9795   -144544.38   -142645.95    1579.1806    358033.41    71.122269    70.951074    70.951074 
 1200000    455.38886   -144542.01   -142658.43    1838.1972    358033.41    71.132438    70.946002    70.946002 
 1300000    457.07826   -144541.38   -142650.82     1711.173    358033.41    71.142553    70.940959    70.940959 
 1400000    456.06492   -144544.11   -142657.74    1662.9843    358033.41    71.152609    70.935945    70.935945 
 1500000    454.35064   -144518.77   -142639.49    2050.8472    358033.41    71.162602    70.930965    70.930965 
 1600000     452.0328   -144537.64   -142667.95    1506.4694    358033.41    71.172526    70.926019    70.926019 
 1700000    454.51814   -144523.47   -142643.49    1913.8262    358033.41    71.182379     70.92111     70.92111 
 1800000    452.93099   -144545.12   -142671.71    1197.9114    358033.41    71.192155    70.916241    70.916241 
 1900000    456.99908    -144550.5   -142660.27    1277.1352    358033.41    71.201851    70.911412    70.911412 
 2000000    452.53243   -144520.34   -142648.58     1749.486    358033.41    71.211461    70.906627    70.906627 
 2100000    454.59625   -144532.35   -142652.05    1671.1845    358033.41    71.220983    70.901887    70.901887 
 2200000    455.43673   -144512.24   -142628.47    2165.7095    358033.41    71.230411    70.897195    70.897195 
 2300000    457.44617   -144539.66   -142647.57    1791.6621    358033.41    71.239741    70.892552    70.892552 
 2400000    454.81828    -144531.1   -142649.89    1699.4979    358033.41     71.24897     70.88796     70.88796 
 2500000    453.73653    -144539.8   -142663.05    1672.1724    358033.41    71.258093    70.883422    70.883422 
 2600000    453.18266   -144533.76   -142659.31    1860.0755    358033.41    71.267107     70.87894     70.87894 
 2700000     451.6543   -144558.54   -142690.41    1171.6972    358033.41    71.276007    70.874514    70.874514 
 2800000    452.35752   -144530.15   -142659.11    1597.8347    358033.41    71.284789    70.870148    70.870148 
 2900000    453.49316   -144540.75   -142665.01    1511.8582    358033.41     71.29345    70.865843    70.865843 
 3000000    458.57366   -144528.31   -142631.56     1432.871    358033.41    71.301986    70.861601    70.861601 
 3100000    451.04758   -144541.65   -142676.03    1736.2092    358033.41    71.310393    70.857424    70.857424 
 3200000    458.14524   -144525.71   -142630.73    1910.5162    358033.41    71.318667    70.853314    70.853314 
 3300000    452.71689   -144527.25   -142654.72     1960.196    358033.41    71.326805    70.849272    70.849272 
 3400000    455.72842   -144551.44   -142666.46    1422.9489    358033.41    71.334803      70.8453      70.8453 
 3500000    455.26042   -144528.23   -142645.19    2022.2935    358033.41    71.342658    70.841399    70.841399 
 3600000    450.76664   -144539.52   -142675.06    1855.7041    358033.41    71.350367    70.837573    70.837573 
 3700000     456.9654   -144554.23   -142664.13    928.29446    358033.41    71.357925    70.833821    70.833821 
 3800000    457.71629   -144552.18   -142658.98      1423.82    358033.41     71.36533    70.830146    70.830146 
 3900000    453.25598   -144540.87   -142666.11    1421.2984    358033.41    71.372577     70.82655     70.82655 
 4000000    458.38925    -144531.1   -142635.11    2161.6638    358033.41    71.379666    70.823033    70.823033 
 4100000    455.79212   -144541.75   -142656.51    1952.0899    358033.41    71.386591    70.819598    70.819598 
 4200000    457.65523   -144528.82   -142635.87     1791.117    358033.41     71.39335    70.816245    70.816245 
 4300000     454.0848    -144526.4   -142648.22    1949.1841    358033.41     71.39994    70.812977    70.812977 
 4400000    454.81993   -144558.76   -142677.53    1391.8206    358033.41    71.406358    70.809794    70.809794 
 4500000    456.84603    -144540.4    -142650.8    1814.3103    358033.41    71.412602    70.806699    70.806699 
 4600000    454.11309   -144558.07   -142679.77    1385.9151    358033.41    71.418668    70.803692    70.803692 
 4700000    455.55814    -144547.7   -142663.42    1544.6146    358033.41    71.424554    70.800774    70.800774 
 4800000    455.93812   -144540.87   -142655.02    1387.8335    358033.41    71.430257    70.797948    70.797948 
 4900000    457.79641   -144533.16   -142639.63    1490.0478    358033.41    71.435775    70.795213    70.795213 
 5000000    454.77876   -144532.12   -142651.06    2119.0981    358033.41    71.441106    70.792572    70.792572 
 5100000    454.24029   -144538.16   -142659.33    1688.5807    358033.41    71.446247    70.790025    70.790025 
 5200000    455.18392   -144534.61   -142651.88    1684.5264    358033.41    71.451195    70.787574    70.787574 
 5300000    458.67872   -144552.97   -142655.78    1608.4114    358033.41    71.455949    70.785219    70.785219 
 5400000    457.52272   -144535.96   -142643.55    2135.1729    358033.41    71.460507    70.782962    70.782962 
 5500000    452.29082    -144534.8   -142664.04    1661.5477    358033.41    71.464866    70.780803    70.780803 
 5600000    459.72441   -144538.15   -142636.64    1860.7946    358033.41    71.469025    70.778743    70.778743 
 5700000    456.59784   -144547.27   -142658.69    1380.6912    358033.41    71.472981    70.776784    70.776784 
 5800000     453.7198   -144537.14   -142660.46    1606.4726    358033.41    71.476734    70.774926    70.774926 
 5900000    452.73904      -144540   -142667.39    1640.8549    358033.41    71.480281     70.77317     70.77317 
 6000000    457.14554      -144550   -142659.15    1591.7943    358033.41    71.483621    70.771517    70.771517 
 6100000    457.09327   -144525.63   -142635.01    1912.3308    358033.41    71.486753    70.769967    70.769967 
 6200000     453.7152   -144517.22   -142640.57    2047.7963    358033.41    71.489674     70.76852     70.76852 
 6300000    453.37821   -144524.86    -142649.6    1975.7939    358033.41    71.492385    70.767179    70.767179 
 6400000    458.53688   -144535.32   -142638.73     2200.883    358033.41    71.494883    70.765943    70.765943 
 6500000    450.34667   -144536.89   -142674.17    1761.3087    358033.41    71.497167    70.764812    70.764812 
 6600000    453.48124   -144526.56   -142650.88    1639.2003    358033.41    71.499237    70.763788    70.763788 
 6700000    453.02597   -144539.25   -142665.45    1562.0471    358033.41    71.501091     70.76287     70.76287 
 6800000    454.12504   -144526.11   -142647.76    1614.2817    358033.41    71.502729     70.76206     70.76206 
 6900000    456.04096   -144518.63   -142632.36    1892.8044    358033.41    71.504151    70.761357    70.761357 
 7000000    455.56586   -144535.47   -142651.16    2010.4128    358033.41    71.505354    70.760761    70.760761 
 7100000    454.47359   -144527.89    -142648.1    1893.6365    358033.41     71.50634    70.760273    70.760273 
 7200000    455.52976   -144527.71   -142643.54    1927.3133    358033.41    71.507107    70.759894    70.759894 
 7300000     456.2223   -144529.71   -142642.69    1891.4367    358033.41    71.507655    70.759623    70.759623 
 7400000    451.98072   -144532.87   -142663.39    1789.7542    358033.41    71.507984     70.75946     70.75946 
 7500000     455.9196   -144532.79   -142647.02     1834.153    358033.41    71.508093    70.759406    70.759406 
 7600000    454.62845   -144522.91   -142642.48    1952.9563    358033.41    71.507984     70.75946     70.75946 
 7700000    455.64577   -144545.39   -142660.75     1727.594    358033.41    71.507655    70.759623    70.759623 
 7800000    454.89851   -144525.48   -142643.93    2404.4845    358033.41    71.507107    70.759894    70.759894 
 7900000    454.24297   -144541.81   -142662.98    1641.2116    358033.41     71.50634    70.760273    70.760273 
 8000000    455.96003   -144528.61   -142642.67    1817.5999    358033.41    71.505354    70.760761    70.760761 
 8100000    454.03829   -144541.54   -142663.55    1684.1158    358033.41    71.504151    70.761357    70.761357 
 8200000    453.81148   -144521.04   -142643.99    1936.4242    358033.41    71.502729     70.76206     70.76206 
 8300000    455.65388   -144545.02   -142660.35    1200.9346    358033.41    71.501091     70.76287     70.76287 
 8400000     458.1933   -144537.77   -142642.59    1539.3258    358033.41    71.499237    70.763788    70.763788 
 8500000     457.4712   -144520.12   -142627.93    2162.3234    358033.41    71.497167    70.764812    70.764812 
 8600000    456.30838   -144525.78    -142638.4    2072.5772    358033.41    71.494883    70.765943    70.765943 
 8700000    458.69542   -144529.38   -142632.12    1938.5451    358033.41    71.492385    70.767179    70.767179 
 8800000    452.90769   -144543.02   -142669.71    1780.9227    358033.41    71.489674     70.76852     70.76852 
 8900000    455.86974   -144532.63   -142647.07    1603.9386    358033.41    71.486753    70.769967    70.769967 
 9000000    456.52016   -144526.28   -142638.03    1811.3159    358033.41    71.483621    70.771517    70.771517 
 9100000      458.245   -144539.18   -142643.79    1638.7632    358033.41    71.480281     70.77317     70.77317 
 9200000    458.85305   -144535.05   -142637.15    1827.2579    358033.41    71.476734    70.774926    70.774926 
 9300000    453.36016   -144524.53   -142649.35    1744.7331    358033.41    71.472981    70.776784    70.776784 
 9400000    456.84086   -144520.86   -142631.27     2247.098    358033.41    71.469025    70.778743    70.778743 
 9500000    456.22114   -144534.88   -142647.86    1971.6707    358033.41    71.464866    70.780803    70.780803 
 9600000    456.41003   -144524.24   -142636.44    2054.1379    358033.41    71.460507    70.782962    70.782962 
 9700000     450.6591   -144529.36   -142665.34    1749.7073    358033.41    71.455949    70.785219    70.785219 
 9800000    455.59892   -144539.13   -142654.68    1929.1232    358033.41    71.451195    70.787574    70.787574 
 9900000     456.2209   -144535.36   -142648.34    1462.0497    358033.41    71.446247    70.790025    70.790025 
10000000    454.02716   -144535.26   -142657.31    1886.7658    358033.41    71.441106    70.792572    70.792572 
10100000    452.19379   -144526.76    -142656.4    1757.7305    358033.41    71.435775    70.795213    70.795213 
10200000    452.64464   -144550.64   -142678.42    1557.9672    358033.41    71.430257    70.797948    70.797948 
10300000    455.75703   -144528.11   -142643.01    2015.8279    358033.41    71.424554    70.800774    70.800774 
10400000     451.4677    -144518.5   -142651.14    2164.5598    358033.41    71.418668    70.803692    70.803692 
10500000     455.9171   -144545.28   -142659.52    1552.3994    358033.41    71.412602    70.806699    70.806699 
10600000    455.15257   -144544.54   -142661.94    1646.0184    358033.41    71.406358    70.809794    70.809794 
10700000    458.14432    -144542.5   -142647.53    2178.0296    358033.41     71.39994    70.812977    70.812977 
10800000    459.79265   -144550.25   -142648.46    1654.6593    358033.41     71.39335    70.816245    70.816245 
10900000    454.02023   -144535.57   -142657.66    1567.4569    358033.41    71.386591    70.819598    70.819598 
11000000    453.17391   -144550.96   -142676.55    1445.6536    358033.41    71.379666    70.823033    70.823033 
11100000    454.90927   -144534.99    -142653.4    1874.0653    358033.41    71.372577     70.82655     70.82655 
11200000    451.92171    -144546.4   -142677.16     1424.355    358033.41     71.36533    70.830146    70.830146 
11300000    457.03041   -144544.27    -142653.9    1451.6794    358033.41    71.357925    70.833821    70.833821 
11400000    453.05291   -144556.15   -142682.23    1388.8227    358033.41    71.350367    70.837573    70.837573 
11500000    453.21249    -144541.3   -142666.73     1666.523    358033.41    71.342658    70.841399    70.841399 
11600000    454.56786   -144544.08    -142663.9    1575.2196    358033.41    71.334803      70.8453      70.8453 
11700000    458.06894   -144541.53   -142646.87    1659.4941    358033.41    71.326805    70.849272    70.849272 
11800000     456.4618   -144531.79   -142643.78    1694.8677    358033.41    71.318667    70.853314    70.853314 
11900000    453.69082   -144522.53   -142645.98    2269.6124    358033.41    71.310393    70.857424    70.857424 
12000000    450.24604   -144532.07   -142669.77    1735.2654    358033.41    71.301986    70.861601    70.861601 
12100000    457.71038   -144540.39   -142647.21    1744.0098    358033.41     71.29345    70.865843    70.865843 
12200000    456.06678   -144541.38      -142655    1584.9788    358033.41    71.284789    70.870148    70.870148 
12300000    453.81396   -144527.94   -142650.88    1709.4405    358033.41    71.276007    70.874514    70.874514 
12400000    452.61435   -144543.87   -142671.77    1673.5589    358033.41    71.267107     70.87894     70.87894 
12500000    452.84371   -144545.09   -142672.04    1775.8379    358033.41    71.258093    70.883422    70.883422 
12600000    453.25269    -144542.9   -142668.15    1411.0659    358033.41     71.24897     70.88796     70.88796 
12700000    455.93864   -144535.07   -142649.22    1519.8516    358033.41    71.239741    70.892552    70.892552 
12800000    454.19007   -144537.44   -142658.82    1895.4045    358033.41    71.230411    70.897195    70.897195 
12900000    454.41583   -144527.87   -142648.32    1858.7578    358033.41    71.220983    70.901887    70.901887 
13000000    454.07524   -144538.66   -142660.52    1910.2638    358033.41    71.211461    70.906627    70.906627 
13100000    451.84137   -144530.62   -142661.72    2071.6145    358033.41    71.201851    70.911412    70.911412 
13200000    455.71721   -144550.43   -142665.49    1644.2264    358033.41    71.192155    70.916241    70.916241 
13300000    457.69046   -144522.83   -142629.73    2223.5697    358033.41    71.182379     70.92111     70.92111 
13400000    454.61889      -144524   -142643.61    2137.0038    358033.41    71.172526    70.926019    70.926019 
13500000    454.54578   -144541.27   -142661.18    1400.2593    358033.41    71.162602    70.930965    70.930965 
13600000    453.04771   -144538.73   -142664.83    1940.4148    358033.41    71.152609    70.935945    70.935945 
13700000    457.15658   -144535.84   -142644.95    1639.4217    358033.41    71.142553    70.940959    70.940959 
13800000    454.40344   -144527.26   -142647.76    2073.4349    358033.41    71.132438    70.946002    70.946002 
13900000    450.36093   -144539.95   -142677.17    1598.2625    358033.41    71.122269    70.951074    70.951074 
14000000    455.61046   -144532.77   -142648.28    1628.5848    358033.41    71.112049    70.956172    70.956172 
14100000     454.8829   -144541.73   -142660.25    1547.0223    358033.41    71.101784    70.961294    70.961294 
14200000    454.89644    -144522.6   -142641.06    1870.7902    358033.41    71.091478    70.966438    70.966438 
14300000    459.22883   -144531.01   -142631.55    2143.6108    358033.41    71.081135    70.971601    70.971601 
14400000    453.17133   -144543.59   -142669.19    1464.2107    358033.41     71.07076    70.976781    70.976781 
14500000    455.74394    -144533.3   -142648.25    1855.2489    358033.41    71.060357    70.981975    70.981975 
14600000    454.70968   -144531.13   -142650.36    1832.0643    358033.41    71.049932    70.987183    70.987183 
14700000     457.8172   -144545.95   -142652.33    2020.9846    358033.41    71.039488    70.992401    70.992401 
14800000     455.3291   -144526.23    -142642.9    1922.6428    358033.41    71.029031    70.997627    70.997627 
14900000     453.4384   -144544.22   -142668.71    1801.5053    358033.41    71.018564    71.002858    71.002858 
15000000    451.52458    -144546.5   -142678.91    1448.6888    358033.41    71.008093    71.008093    71.008093 
15100000    454.64111   -144519.85   -142639.36    2140.2239    358033.41    70.997622    71.013329    71.013329 
15200000    453.05237   -144541.76   -142667.85    1958.9207    358033.41    70.987155    71.018564    71.018564 
15300000    455.78262   -144542.24   -142657.04    1815.5957    358033.41    70.976698    71.023796    71.023796 
15400000    454.83509   -144535.13   -142653.85    1836.3909    358033.41    70.966254    71.029022    71.029022 
15500000    452.97716   -144549.31   -142675.71    1445.7535    358033.41    70.955829     71.03424     71.03424 
15600000    458.00643   -144550.06   -142655.66    1169.0696    358033.41    70.945427    71.039447    71.039447 
15700000    452.39465   -144538.11   -142666.92    1891.5858    358033.41    70.935052    71.044642    71.044642 
15800000    454.26393   -144558.87   -142679.94    1134.2806    358033.41    70.924709    71.049822    71.049822 
15900000    458.49897   -144543.88   -142647.43    1820.4238    358033.41    70.914403    71.054985    71.054985 
16000000    455.83663   -144539.77   -142654.34    1432.4444    358033.41    70.904137    71.060128    71.060128 
16100000    454.65812   -144555.41   -142674.86    1348.3463    358033.41    70.893918     71.06525     71.06525 
16200000    452.94192   -144536.38   -142662.93    1436.1256    358033.41    70.883748    71.070347    71.070347 
16300000    457.37509   -144557.65   -142665.86    1527.7859    358033.41    70.873633    71.075419    71.075419 
16400000    453.36957   -144522.13    -142646.9     2028.819    358033.41    70.863577    71.080462    71.080462 
16500000    455.24034   -144532.26    -142649.3    1892.2345    358033.41    70.853585    71.085474    71.085474 
16600000    458.41271   -144541.99   -142645.91    1807.2821    358033.41     70.84366    71.090453    71.090453 
16700000    454.80819   -144534.73   -142653.56    2255.0242    358033.41    70.833807    71.095397    71.095397 
16800000    458.54444   -144527.51   -142630.89    1849.7689    358033.41    70.824031    71.100304    71.100304 
16900000    452.05051   -144543.39   -142673.62    1634.1458    358033.41    70.814335    71.105171    71.105171 
17000000    453.32161   -144539.79   -142664.76    1499.4116    358033.41    70.804725    71.109996    71.109996 
17100000     455.5841    -144540.5   -142656.11    1700.5093    358033.41    70.795204    71.114778    71.114778 
17200000    452.47013   -144555.08   -142683.57    1423.0681    358033.41    70.785776    71.119514    71.119514 
17300000    458.07577   -144533.37   -142638.68    1636.5013    358033.41    70.776445    71.124201    71.124201 
17400000    457.80795   -144537.12   -142643.54     1738.222    358033.41    70.767216    71.128839    71.128839 
17500000    455.10534   -144527.96   -142645.56     1850.739    358033.41    70.758093    71.133424    71.133424 
17600000    452.14516    -144554.3   -142684.14    1349.5089    358033.41     70.74908    71.137955    71.137955 
17700000     457.9146   -144513.67   -142619.65    2224.6249    358033.41     70.74018     71.14243     71.14243 
17800000    452.44028   -144540.62   -142669.24    1585.5017    358033.41    70.731397    71.146847    71.146847 
17900000     455.4249   -144541.66   -142657.93    1857.7307    358033.41    70.722736    71.151203    71.151203 
18000000    450.84178   -144531.48   -142666.71    1704.2963    358033.41    70.714201    71.155497    71.155497 
18100000    456.87772   -144532.35   -142642.61     1969.829    358033.41    70.705794    71.159727    71.159727 
18200000    454.40102   -144532.64   -142653.15    2043.6384    358033.41    70.697519    71.163891    71.163891 
18300000    457.01966   -144537.35   -142647.02    1459.5699    358033.41    70.689381    71.167988    71.167988 
18400000    455.16574   -144549.09   -142666.43    1254.6523    358033.41    70.681383    71.172014    71.172014 
18500000    454.80408   -144529.44   -142648.28    1998.5923    358033.41    70.673528    71.175969    71.175969 
18600000    457.71813   -144540.64   -142647.43    1638.8137    358033.41     70.66582    71.179851    71.179851 
18700000    453.87476   -144533.83   -142656.52    1997.0963    358033.41    70.658261    71.183658    71.183658 
18800000     456.2886   -144545.53   -142658.23    1606.3113    358033.41    70.650857    71.187388    71.187388 
18900000    456.41355   -144540.43   -142652.61    1796.7029    358033.41    70.643609     71.19104     71.19104 
19000000    456.98863   -144533.75   -142643.56    1805.8943    358033.41    70.636521    71.194612    71.194612 
19100000    455.42137   -144550.09   -142666.38    1411.9354    358033.41    70.629596    71.198102    71.198102 
19200000    457.01218   -144537.77   -142647.48    1667.6549    358033.41    70.622837    71.201509    71.201509 
19300000    455.29152   -144529.58   -142646.41    1814.5024    358033.41    70.616246    71.204831    71.204831 
19400000    455.96756   -144527.35   -142641.38      1983.91    358033.41    70.609828    71.208067    71.208067 
19500000    455.50256   -144538.55    -142654.5    1458.2689    358033.41    70.603585    71.211216    71.211216 
19600000    457.62652   -144521.01   -142628.17    2060.5588    358033.41    70.597519    71.214275    71.214275 
19700000    455.04553   -144538.03   -142655.87      1714.78    358033.41    70.591633    71.217244    71.217244 
19800000    457.18341   -144549.55   -142658.55    1553.3877    358033.41    70.585929    71.220121    71.220121 
19900000    456.32209      -144533   -142645.57     2096.906    358033.41    70.580411    71.222905    71.222905 
20000000    456.08222   -144529.26   -142642.82    1998.7455    358033.41     70.57508    71.225595    71.225595 
20100000    453.32436   -144548.21   -142673.18    1712.1661    358033.41     70.56994    71.228189    71.228189 
20200000    453.55985   -144542.26   -142666.24     1606.418    358033.41    70.564991    71.230686    71.230686 
20300000    453.89939   -144541.65   -142664.23    1762.3819    358033.41    70.560237    71.233086    71.233086 
20400000    457.57951   -144544.47   -142651.83    1840.5509    358033.41     70.55568    71.235387    71.235387 
20500000    457.01298   -144532.36   -142642.06    2051.2115    358033.41     70.55132    71.237587    71.237587 
20600000     457.2768   -144541.35   -142649.96    1633.0054    358033.41    70.547162    71.239687    71.239687 
20700000    455.90902   -144541.32   -142655.59    1711.8668    358033.41    70.543205    71.241685    71.241685 
20800000    453.06074   -144529.72   -142655.77    1728.9857    358033.41    70.539452     71.24358     71.24358 
20900000    456.55568   -144528.51   -142640.11    2077.1338    358033.41    70.535905    71.245371    71.245371 
21000000    457.24311    -144522.6   -142631.35    1759.4741    358033.41    70.532565    71.247058    71.247058 
21100000    456.35818   -144538.37   -142650.78     1957.509    358033.41    70.529433     71.24864     71.24864 
21200000    456.58233   -144539.54   -142651.03    1392.2893    358033.41    70.526512    71.250116    71.250116 
21300000    452.97429    -144546.2   -142672.61     1783.806    358033.41    70.523802    71.251485    71.251485 
21400000    456.81456   -144536.87   -142647.39    1764.2997    358033.41    70.521304    71.252747    71.252747 
21500000    455.46531   -144536.43   -142652.53    1787.7456    358033.41    70.519019    71.253901    71.253901 
21600000    452.35977   -144527.56   -142656.51    1795.6597    358033.41     70.51695    71.254946    71.254946 
21700000     453.3068   -144527.85   -142652.88    1851.9572    358033.41    70.515095    71.255883    71.255883 
21800000    455.34987   -144534.63   -142651.21    1876.8027    358033.41    70.513457    71.256711    71.256711 
21900000    456.94774   -144533.53    -142643.5    1837.7556    358033.41    70.512036    71.257429    71.257429 
22000000    457.99962   -144530.67   -142636.29    1840.6467    358033.41    70.510832    71.258037    71.258037 
22100000    457.87402   -144533.28   -142639.43    1635.4595    358033.41    70.509847    71.258535    71.258535 
22200000    456.54717   -144522.07   -142633.71    2099.6341    358033.41     70.50908    71.258923    71.258923 
22300000      455.024   -144536.27   -142654.21    1908.9795    358033.41    70.508532      71.2592      71.2592 
22400000    454.93077   -144522.37   -142640.69    1820.4722    358033.41    70.508203    71.259366    71.259366 
22500000    455.30414   -144527.19   -142643.96    1651.0259    358033.41    70.508093    71.259421    71.259421 
22600000    455.74912   -144526.48   -142641.41    1898.7018    358033.41    70.508203    71.259366    71.259366 
22700000    454.42268    -144539.2   -142659.62     1396.181    358033.41    70.508532      71.2592      71.2592 
22800000    456.74739   -144529.74   -142640.54    1824.4529    358033.41     70.50908    71.258923    71.258923 
22900000    455.43151   -144548.43   -142664.67    1497.5433    358033.41    70.509847    71.258535    71.258535 
23000000    457.02033   -144532.39   -142642.06    1903.2423    358033.41    70.510832    71.258037    71.258037 
23100000    457.02467   -144540.14   -142649.79    1600.4105    358033.41    70.512036    71.257429    71.257429 
23200000    454.69701   -144532.15   -142651.44    1786.4081    358033.41    70.513457    71.256711    71.256711 
23300000    453.15561   -144532.64    -142658.3    1666.7996    358033.41    70.515095    71.255883    71.255883 
23400000     455.3867   -144532.76   -142649.19     1687.222    358033.41     70.51695    71.254946    71.254946 
23500000    457.02534   -144547.35   -142657.01    1454.6978    358033.41    70.519019    71.253901    71.253901 
23600000    458.50095   -144552.92   -142656.47    1325.0061    358033.41    70.521304    71.252747    71.252747 
23700000    458.00372   -144541.58   -142647.19     1542.824    358033.41    70.523802    71.251485    71.251485 
23800000    452.21879   -144535.15   -142664.68    1779.1992    358033.41    70.526512    71.250116    71.250116 
23900000    452.83302    -144529.1    -142656.1    1723.3332    358033.41    70.529433     71.24864     71.24864 
24000000    459.24908   -144535.29   -142635.75    1490.1551    358033.41    70.532565    71.247058    71.247058 
24100000    454.26482   -144535.25   -142656.32    1711.6638    358033.41    70.535905    71.245371    71.245371 
24200000    457.41947   -144520.29   -142628.31    1774.3987    358033.41    70.539452     71.24358     71.24358 
24300000    453.48435   -144526.43   -142650.73    1685.8186    358033.41    70.543205    71.241685    71.241685 
24400000    453.53133   -144527.95   -142652.05    2020.1714    358033.41    70.547162    71.239687    71.239687 
24500000     455.9452   -144527.53   -142641.65    1932.1645    358033.41     70.55132    71.237587    71.237587 
24600000    458.99616    -144553.1    -142654.6    1759.5582    358033.41     70.55568    71.235387    71.235387 
24700000    456.16717   -144533.99   -142647.19    1898.2521    358033.41    70.560237    71.233086    71.233086 
24800000    459.15539   -144536.95   -142637.79    1570.6329    358033.41    70.564991    71.230686    71.230686 
24900000    454.49831   -144526.99   -142647.09     1840.374    358033.41     70.56994    71.228189    71.228189 
25000000    451.78826    -144529.7   -142661.01    1850.2918    358033.41     70.57508    71.225595    71.225595 
25100000    454.50234   -144536.36   -142656.45    1897.0619    358033.41    70.580411    71.222905    71.222905 
25200000    455.12001   -144526.73   -142644.27    1970.4667    358033.41    70.585929    71.220121    71.220121 
25300000    457.27221   -144531.18   -142639.82    2015.5051    358033.41    70.591633    71.217244    71.217244 
25400000    454.31815   -144543.04   -142663.89    1580.5851    358033.41    70.597519    71.214275    71.214275 
25500000    452.44573   -144531.92   -142660.52    1414.1152    358033.41    70.603585    71.211216    71.211216 
25600000    453.14771   -144545.32   -142671.01    1560.3202    358033.41    70.609828    71.208067    71.208067 
25700000     455.8516   -144532.92   -142647.43    1847.5117    358033.41    70.616246    71.204831    71.204831 
25800000    458.46132   -144535.44   -142639.15    1776.4412    358033.41    70.622837    71.201509    71.201509 
25900000    458.45746   -144527.28   -142631.01    2325.0889    358033.41    70.629596    71.198102    71.198102 
26000000    453.94184   -144538.19    -142660.6    1624.3133    358033.41    70.636521    71.194612    71.194612 
26100000    451.23992   -144530.15   -142663.73    1869.2823    358033.41    70.643609     71.19104     71.19104 
26200000    456.10242      -144532   -142645.47     1697.029    358033.41    70.650857    71.187388    71.187388 
26300000    453.82897    -144536.4   -142659.28    1570.9396    358033.41    70.658261    71.183658    71.183658 
26400000    454.24999   -144545.09   -142666.22    1671.8129    358033.41     70.66582    71.179851    71.179851 
26500000    456.39787    -144539.8   -142652.04    1478.8063    358033.41    70.673528    71.175969    71.175969 
26600000     458.4054   -144530.64   -142634.58     1831.038    358033.41    70.681383    71.172014    71.172014 
26700000    449.73665   -144530.32   -142670.12    1884.2181    358033.41    70.689381    71.167988    71.167988 
26800000    457.00553   -144536.57   -142646.31    1775.1041    358033.41    70.697519    71.163891    71.163891 
26900000    455.32505    -144529.5   -142646.19    1717.9093    358033.41    70.705794    71.159727    71.159727 
27000000    452.94646   -144534.18    -142660.7    1889.5394    358033.41    70.714201    71.155497    71.155497 
27100000    458.05489   -144541.15   -142646.55    1608.3339    358033.41    70.722736    71.151203    71.151203 
27200000    454.75104   -144539.42   -142658.48    1706.7679    358033.41    70.731397    71.146847    71.146847 
27300000    453.02501   -144547.71   -142673.91    1608.4409    358033.41     70.74018     71.14243     71.14243 
27400000    453.08075   -144537.37   -142663.34    1859.4361    358033.41     70.74908    71.137955    71.137955 
27500000    456.18009   -144547.54   -142660.69     1666.579    358033.41    70.758093    71.133424    71.133424 
27600000    454.36444   -144525.14    -142645.8     1951.884    358033.41    70.767216    71.128839    71.128839 
27700000    454.28035   -144541.47   -142662.47    1517.9282    358033.41    70.776445    71.124201    71.124201 
27800000    456.95638   -144535.17   -142645.11    1736.5922    358033.41    70.785776    71.119514    71.119514 
27900000    452.26537   -144537.41   -142666.76    1656.8964    358033.41    70.795204    71.114778    71.114778 
28000000    456.74884   -144546.34   -142657.14    1654.1696    358033.41    70.804725    71.109996    71.109996 
28100000    453.46712   -144544.15   -142668.52    1683.6197    358033.41    70.814335    71.105171    71.105171 
28200000    454.42813   -144528.81   -142649.21    2117.7908    358033.41    70.824031    71.100304    71.100304 
28300000    452.88541   -144532.73    -142659.5    1769.1211    358033.41    70.833807    71.095397    71.095397 
28400000    455.52688   -144537.38   -142653.23    1878.6018    358033.41     70.84366    71.090453    71.090453 
28500000    454.17399   -144522.38   -142643.82    1908.7408    358033.41    70.853585    71.085474    71.085474 
28600000    454.87151   -144527.01   -142645.57    1963.3382    358033.41    70.863577    71.080462    71.080462 
28700000    453.96177   -144538.79   -142661.12    1665.4673    358033.41    70.873633    71.075419    71.075419 
28800000    454.88155   -144529.04   -142647.56    1924.9498    358033.41    70.883748    71.070347    71.070347 
28900000    455.89246   -144531.84   -142646.18    1626.3715    358033.41    70.893918     71.06525     71.06525 
29000000    455.91155   -144531.13   -142645.39    2063.6145    358033.41    70.904137    71.060128    71.060128 
29100000    455.06006    -144525.9   -142643.69    1992.6248    358033.41    70.914403    71.054985    71.054985 
29200000    455.33177   -144537.02   -142653.68    1612.1505    358033.41    70.924709    71.049822    71.049822 
29300000     452.0133   -144543.67   -142674.06    1678.1081    358033.41    70.935052    71.044642    71.044642 
29400000    457.46806   -144528.83   -142636.66    1623.6377    358033.41    70.945427    71.039447    71.039447 
29500000    457.29732   -144535.05   -142643.58    1990.4986    358033.41    70.955829     71.03424     71.03424 
29600000    455.29668   -144545.11   -142661.92    1733.8629    358033.41    70.966254    71.029022    71.029022 
29700000    453.84895   -144539.92   -142662.71    1616.3788    358033.41    70.976698    71.023796    71.023796 
29800000    457.17543   -144536.81   -142645.84    1968.3049    358033.41    70.987155    71.018564    71.018564 
29900000    449.79974   -144535.01   -142674.55    1798.7873    358033.41    70.997622    71.013329    71.013329 
30000000    452.66504   -144541.34   -142669.03    1646.0532    358033.41    71.008093    71.008093    71.008093 
30100000    457.12742   -144551.37    -142660.6    1219.0995    358033.41    71.018564    71.002858    71.002858 
30200000    456.79361   -144547.74   -142658.35    1450.7353    358033.41    71.029031    70.997627    70.997627 
30300000    452.95791   -144525.06   -142651.54    2187.8189    358033.41    71.039488    70.992401    70.992401 
30400000    453.77329   -144524.91   -142648.01    1972.5521    358033.41    71.049932    70.987183    70.987183 
30500000    457.89712   -144524.67   -142630.72    2041.2682    358033.41    71.060357    70.981975    70.981975 
30600000    454.53009   -144537.73   -142657.71    1417.8945    358033.41     71.07076    70.976781    70.976781 
30700000     453.6119   -144526.38   -142650.16    1884.3405    358033.41    71.081135    70.971601    70.971601 
30800000    452.85541   -144533.75   -142660.65    2024.2831    358033.41    71.091478    70.966438    70.966438 
30900000    459.05021   -144529.67   -142630.95    1819.5123    358033.41    71.101784    70.961294    70.961294 
31000000    458.49009   -144548.84   -142652.43    1405.7498    358033.41    71.112049    70.956172    70.956172 
31100000    459.24529   -144545.46   -142645.94    1730.6532    358033.41    71.122269    70.951074    70.951074 
31200000    458.69535    -144537.9   -142640.65    1555.5458    358033.41    71.132438    70.946002    70.946002 
31300000    456.01833   -144526.87   -142640.69    2077.5993    358033.41    71.142553    70.940959    70.940959 
31400000    458.00749   -144539.87   -142645.46     1724.926    358033.41    71.152609    70.935945    70.935945 
31500000    455.81202   -144531.36   -142646.04    1888.5588    358033.41    71.162602    70.930965    70.930965 
31600000    458.31583   -144535.72   -142640.04    2011.3837    358033.41    71.172526    70.926019    70.926019 
31700000    454.53585   -144548.19   -142668.14    1433.6409    358033.41    71.182379     70.92111     70.92111 
31800000    454.68429   -144541.14   -142660.47    1537.9337    358033.41    71.192155    70.916241    70.916241 
31900000    455.93219   -144549.13    -142663.3    1417.8294    358033.41    71.201851    70.911412    70.911412 
32000000    456.26295   -144533.14   -142645.94    1676.4344    358033.41    71.211461    70.906627    70.906627 
32100000    456.78012   -144529.89   -142640.55    2078.7926    358033.41    71.220983    70.901887    70.901887 
32200000    459.24366    -144552.6   -142653.08    1464.3154    358033.41    71.230411    70.897195    70.897195 
32300000    455.23159   -144523.93   -142641.01    1753.8923    358033.41    71.239741    70.892552    70.892552 
32400000    453.89309    -144543.3   -142665.91    1587.7837    358033.41     71.24897     70.88796     70.88796 
32500000    455.77408   -144526.01   -142640.84    1756.3556    358033.41    71.258093    70.883422    70.883422 
32600000    453.46486   -144554.84   -142679.22    1159.3042    358033.41    71.267107     70.87894     70.87894 
32700000    452.65267   -144514.66    -142642.4     2122.945    358033.41    71.276007    70.874514    70.874514 
32800000    452.86334   -144539.58   -142666.45    1716.2469    358033.41    71.284789    70.870148    70.870148 
32900000    457.65146    -144537.9   -142644.96    1907.2488    358033.41     71.29345    70.865843    70.865843 
33000000    452.73798   -144544.92   -142672.31    1301.3422    358033.41    71.301986    70.861601    70.861601 
33100000    451.54497   -144550.13   -142682.45    1401.0084    358033.41    71.310393    70.857424    70.857424 
33200000    452.32079   -144539.88      -142669    1432.3252    358033.41    71.318667    70.853314    70.853314 
33300000    453.07872   -144540.35   -142666.33    1596.5156    358033.41    71.326805    70.849272    70.849272 
33400000    455.57231    -144534.5   -142650.16     1520.066    358033.41    71.334803      70.8453      70.8453 
33500000    454.76325   -144525.29    -142644.3    1750.0094    358033.41    71.342658    70.841399    70.841399 
33600000    454.01237    -144536.3   -142658.41    1758.7397    358033.41    71.350367    70.837573    70.837573 
33700000    455.43931   -144540.66   -142656.87    1472.7815    358033.41    71.357925    70.833821    70.833821 
33800000    457.64611   -144537.13   -142644.22    1916.2454    358033.41     71.36533    70.830146    70.830146 
33900000    453.10311   -144556.24   -142682.12    1133.2238    358033.41    71.372577     70.82655     70.82655 
34000000    456.23924   -144527.49   -142640.39    1359.7424    358033.41    71.379666    70.823033    70.823033 
34100000     452.8791   -144530.67   -142657.48    1747.8762    358033.41    71.386591    70.819598    70.819598 
34200000    460.13128    -144544.2      -142641    1410.3387    358033.41     71.39335    70.816245    70.816245 
34300000    453.09103   -144540.69   -142666.62    1930.0726    358033.41     71.39994    70.812977    70.812977 
34400000    452.55047   -144532.18   -142660.34    1751.1734    358033.41    71.406358    70.809794    70.809794 
34500000    456.00991   -144535.04   -142648.89    1909.2407    358033.41    71.412602    70.806699    70.806699 
34600000    455.48088   -144546.81   -142662.85    1604.9453    358033.41    71.418668    70.803692    70.803692 
34700000    450.98141   -144540.59   -142675.24    1775.8111    358033.41    71.424554    70.800774    70.800774 
34800000    455.87109      -144547   -142661.43    1403.4233    358033.41    71.430257    70.797948    70.797948 
34900000     453.0068   -144534.15   -142660.42    1660.1261    358033.41    71.435775    70.795213    70.795213 
35000000     452.9216   -144532.76   -142659.39    1457.2867    358033.41    71.441106    70.792572    70.792572 
35100000    450.90216   -144533.52    -142668.5    1619.6787    358033.41    71.446247    70.790025    70.790025 
35200000    456.95528    -144551.3   -142661.25    1311.1069    358033.41    71.451195    70.787574    70.787574 
35300000    458.04179    -144525.7   -142631.15    1848.5502    358033.41    71.455949    70.785219    70.785219 
35400000     452.2289   -144540.22   -142669.71    1336.9965    358033.41    71.460507    70.782962    70.782962 
35500000     454.7172   -144539.36   -142658.56    1900.7084    358033.41    71.464866    70.780803    70.780803 
35600000    455.24216   -144530.05   -142647.08    1990.5221    358033.41    71.469025    70.778743    70.778743 
35700000    457.61349   -144544.71   -142651.93    1404.3831    358033.41    71.472981    70.776784    70.776784 
35800000    455.84584   -144538.11   -142652.65    1867.4161    358033.41    71.476734    70.774926    70.774926 
35900000    454.27115   -144548.12   -142669.17    1536.1616    358033.41    71.480281     70.77317     70.77317 
36000000    454.76005   -144541.42   -142660.45    1695.1224    358033.41    71.483621    70.771517    70.771517 
36100000    453.91414   -144536.31   -142658.83    1907.6473    358033.41    71.486753    70.769967    70.769967 
36200000    457.01385   -144539.55   -142649.25     1653.158    358033.41    71.489674     70.76852     70.76852 
36300000    451.06475   -144541.34   -142675.65    1767.3641    358033.41    71.492385    70.767179    70.767179 
36400000    453.99972   -144521.43    -142643.6    1912.2133    358033.41    71.494883    70.765943    70.765943 
36500000    455.06968   -144515.64   -142633.38    2375.0769    358033.41    71.497167    70.764812    70.764812 
36600000    454.01578   -144524.46   -142646.56    1476.5248    358033.41    71.499237    70.763788    70.763788 
36700000    458.86519   -144526.16    -142628.2    1856.2391    358033.41    71.501091     70.76287     70.76287 
36800000    453.93141   -144536.16   -142658.61    1494.2046    358033.41    71.502729     70.76206     70.76206 
36900000    456.47914   -144526.78   -142638.69    1889.8087    358033.41    71.504151    70.761357    70.761357 
37000000    454.85608   -144539.67    -142658.3    1711.7301    358033.41    71.505354    70.760761    70.760761 
37100000    455.52532   -144536.66   -142652.52    1874.4946    358033.41     71.50634    70.760273    70.760273 
37200000     454.3576   -144532.05   -142652.74    1664.6124    358033.41    71.507107    70.759894    70.759894 
37300000    454.47893   -144530.88   -142651.07    1774.7213    358033.41    71.507655    70.759623    70.759623 
37400000    452.92516   -144542.86   -142669.47    1519.9864    358033.41    71.507984     70.75946     70.75946 
37500000    456.27506   -144550.92   -142663.68    1664.4292    358033.41    71.508093    70.759406    70.759406 
37600000    454.22531   -144537.23   -142658.46    1601.6047    358033.41    71.507984     70.75946     70.75946 
37700000    454.24809    -144530.2   -142651.34    1761.4819    358033.41    71.507655    70.759623    70.759623 
37800000    456.41662   -144519.09   -142631.26    2206.1646    358033.41    71.507107    70.759894    70.759894 
37900000    453.65409   -144523.34   -142646.94    2037.4093    358033.41     71.50634    70.760273    70.760273 
38000000    457.22012   -144509.74   -142618.59     2135.559    358033.41    71.505354    70.760761    70.760761 
38100000    450.87486   -144530.44   -142665.54    1784.5095    358033.41    71.504151    70.761357    70.761357 
38200000    456.37064    -144543.7   -142656.06    1634.0657    358033.41    71.502729     70.76206     70.76206 
38300000    456.21058   -144533.68   -142646.71    1782.7288    358033.41    71.501091     70.76287     70.76287 
38400000    455.21028   -144542.24   -142659.41    1447.1433    358033.41    71.499237    70.763788    70.763788 
38500000    457.68614   -144539.89   -142646.81    2034.3548    358033.41    71.497167    70.764812    70.764812 
38600000    457.17226   -144529.51   -142638.55     1754.617    358033.41    71.494883    70.765943    70.765943 
38700000    453.03696   -144552.14   -142678.29    1294.2195    358033.41    71.492385    70.767179    70.767179 
38800000    453.74116   -144540.45   -142663.69    1587.4376    358033.41    71.489674     70.76852     70.76852 
38900000    452.36964    -144540.4   -142669.31    1462.0244    358033.41    71.486753    70.769967    70.769967 
39000000    458.07655   -144539.75   -142645.05     1555.072    358033.41    71.483621    70.771517    70.771517 
39100000    459.32983   -144521.53   -142621.65    2049.1063    358033.41    71.480281     70.77317     70.77317 
39200000    454.44642   -144527.57   -142647.89    2068.4282    358033.41    71.476734    70.774926    70.774926 
39300000    456.85567   -144548.69   -142659.04    1512.7277    358033.41    71.472981    70.776784    70.776784 
39400000    452.01984   -144524.51   -142654.87    2000.0759    358033.41    71.469025    70.778743    70.778743 
39500000    455.06801   -144524.18   -142641.93    2023.0944    358033.41    71.464866    70.780803    70.780803 
39600000    455.91706   -144534.93   -142649.17    1761.6634    358033.41    71.460507    70.782962    70.782962 
39700000      453.913   -144528.21   -142650.73    1767.5283    358033.41    71.455949    70.785219    70.785219 
39800000     453.0797   -144527.97   -142653.95    1722.1732    358033.41    71.451195    70.787574    70.787574 
39900000      458.567   -144543.63    -142646.9    1449.2158    358033.41    71.446247    70.790025    70.790025 
40000000    452.04533   -144523.31   -142653.56    2061.0089    358033.41    71.441106    70.792572    70.792572 
40100000    454.45993   -144530.12   -142650.39    1798.9179    358033.41    71.435775    70.795213    70.795213 
40200000    448.88646   -144534.85   -142678.17    1593.1688    358033.41    71.430257    70.797948    70.797948 
40300000    453.72589   -144538.49    -142661.8    1960.8303    358033.41    71.424554    70.800774    70.800774 
40400000    455.91862   -144546.57    -142660.8    1180.3599    358033.41    71.418668    70.803692    70.803692 
40500000    454.43618   -144525.67   -142646.04    1969.1426    358033.41    71.412602    70.806699    70.806699 
40600000    454.32302   -144535.04   -142655.87    1675.4676    358033.41    71.406358    70.809794    70.809794 
40700000    455.86384    -144540.7   -142655.16    1789.6917    358033.41     71.39994    70.812977    70.812977 
40800000    457.64953   -144533.09   -142640.16    1362.2966    358033.41     71.39335    70.816245    70.816245 
40900000    455.66805   -144526.36   -142641.63     1894.186    358033.41    71.386591    70.819598    70.819598 
41000000    458.28368   -144551.48   -142655.93    1473.3931    358033.41    71.379666    70.823033    70.823033 
41100000    455.69132   -144523.61   -142638.79    1873.5392    358033.41    71.372577     70.82655     70.82655 
41200000    456.65774    -144532.6   -142643.78    1645.3722    358033.41     71.36533    70.830146    70.830146 
41300000    454.63408   -144523.57   -142643.11    1563.1834    358033.41    71.357925    70.833821    70.833821 
41400000    456.75152   -144542.69   -142653.47    1651.0356    358033.41    71.350367    70.837573    70.837573 
41500000    454.67092   -144548.52   -142667.91    1546.8753    358033.41    71.342658    70.841399    70.841399 
41600000    458.53679   -144515.89   -142619.29    1881.2342    358033.41    71.334803      70.8453      70.8453 
41700000    452.08971   -144549.62   -142679.69    1208.6088    358033.41    71.326805    70.849272    70.849272 
41800000    454.44731   -144526.92   -142647.24    1485.9688    358033.41    71.318667    70.853314    70.853314 
41900000    454.51971   -144552.49   -142672.51    1285.1738    358033.41    71.310393    70.857424    70.857424 
42000000    456.36346   -144532.69   -142645.08    1639.0603    358033.41    71.301986    70.861601    70.861601 
42100000    455.07246   -144557.31   -142675.04    1176.3311    358033.41     71.29345    70.865843    70.865843 
42200000    454.16905   -144537.65   -142659.12    1700.8818    358033.41    71.284789    70.870148    70.870148 
42300000    456.77677   -144539.84   -142650.52    1593.9185    358033.41    71.276007    70.874514    70.874514 
42400000    454.98771   -144547.54   -142665.62    1640.4237    358033.41    71.267107     70.87894     70.87894 
42500000    455.56066   -144551.41   -142667.12    1520.8145    358033.41    71.258093    70.883422    70.883422 
42600000    453.83292   -144529.71   -142652.57    1965.7695    358033.41     71.24897     70.88796     70.88796 
42700000    453.64774   -144532.23   -142655.85    1597.9695    358033.41    71.239741    70.892552    70.892552 
42800000     457.7456   -144527.78   -142634.46    2183.3082    358033.41    71.230411    70.897195    70.897195 
42900000    455.57115   -144523.36   -142639.03     1973.899    358033.41    71.220983    70.901887    70.901887 
43000000    451.14459   -144537.69   -142671.67    1434.9938    358033.41    71.211461    70.906627    70.906627 
43100000    456.03389   -144542.58   -142656.33    1649.5436    358033.41    71.201851    70.911412    70.911412 
43200000    459.58317   -144542.76   -142641.83    1392.5646    358033.41    71.192155    70.916241    70.916241 
43300000    456.36467   -144535.53   -142647.92    1586.4495    358033.41    71.182379     70.92111     70.92111 
43400000    455.82266   -144526.47    -142641.1    1499.3183    358033.41    71.172526    70.926019    70.926019 
43500000    457.94886   -144542.91   -142648.74    1484.6461    358033.41    71.162602    70.930965    70.930965 
43600000    456.22543   -144534.09   -142647.06    1557.2087    358033.41    71.152609    70.935945    70.935945 
43700000    454.91718   -144523.19   -142641.56    1770.0794    358033.41    71.142553    70.940959    70.940959 
43800000    453.65686   -144536.76   -142660.35    1427.7218    358033.41    71.132438    70.946002    70.946002 
43900000    454.34095    -144524.7   -142645.45    1994.6894    358033.41    71.122269    70.951074    70.951074 
44000000    455.75461   -144555.12   -142670.03    1366.7452    358033.41    71.112049    70.956172    70.956172 
44100000    454.21672   -144533.66   -142654.93    1575.2717    358033.41    71.101784    70.961294    70.961294 
44200000    454.04016   -144534.19   -142656.19    1850.2442    358033.41    71.091478    70.966438    70.966438 
44300000    452.66768   -144516.62    -142644.3    1876.1275    358033.41    71.081135    70.971601    70.971601 
44400000     455.3808   -144547.18   -142663.63    1680.8973    358033.41     71.07076    70.976781    70.976781 
44500000    453.50702   -144541.71   -142665.92    1660.6019    358033.41    71.060357    70.981975    70.981975 
44600000    453.69525   -144533.48   -142656.91    1476.1213    358033.41    71.049932    70.987183    70.987183 
44700000    451.17615   -144537.63   -142671.47    1627.3099    358033.41    71.039488    70.992401    70.992401 
44800000    457.75284   -144545.02   -142651.66    1527.3223    358033.41    71.029031    70.997627    70.997627 
44900000    458.07314   -144534.44   -142639.76    1562.7492    358033.41    71.018564    71.002858    71.002858 
45000000    453.50318    -144535.3   -142659.52    1800.6794    358033.41    71.008093    71.008093    71.008093 
45100000    456.03055   -144551.26   -142665.03    1369.5686    358033.41    70.997622    71.013329    71.013329 
45200000    453.87503   -144539.27   -142661.95    1383.5247    358033.41    70.987155    71.018564    71.018564 
45300000    458.34977   -144534.16   -142638.34    1608.2783    358033.41    70.976698    71.023796    71.023796 
45400000    454.66034   -144532.96    -142652.4    1528.4889    358033.41    70.966254    71.029022    71.029022 
45500000    454.34818   -144545.49   -142666.22    1441.5622    358033.41    70.955829     71.03424     71.03424 
45600000    454.54063   -144562.07      -142682    1170.3955    358033.41    70.945427    71.039447    71.039447 
45700000    455.73504    -144529.4   -142644.39    1727.3496    358033.41    70.935052    71.044642    71.044642 
45800000    454.74965   -144543.43    -142662.5    1314.5596    358033.41    70.924709    71.049822    71.049822 
45900000    453.18986   -144550.51   -142676.03    1352.5175    358033.41    70.914403    71.054985    71.054985 
46000000    454.33756   -144542.82    -142663.6    1731.0222    358033.41    70.904137    71.060128    71.060128 
46100000    455.14173   -144546.94   -142664.39    1418.2251    358033.41    70.893918     71.06525     71.06525 
46200000    458.11107   -144539.27   -142644.44    1816.5482    358033.41    70.883748    71.070347    71.070347 
46300000    454.83221   -144543.85   -142662.57    1233.4762    358033.41    70.873633    71.075419    71.075419 
46400000    454.92669   -144536.34   -142654.67    1544.7711    358033.41    70.863577    71.080462    71.080462 
46500000    454.54458   -144532.17   -142652.09     1829.869    358033.41    70.853585    71.085474    71.085474 
46600000    459.01374   -144541.33   -142642.76     1658.582    358033.41     70.84366    71.090453    71.090453 
46700000     451.1829   -144530.59    -142664.4    1782.1562    358033.41    70.833807    71.095397    71.095397 
46800000    452.06332   -144529.58   -142659.75    1512.9672    358033.41    70.824031    71.100304    71.100304 
46900000    457.30013   -144541.06   -142649.58    1558.8145    358033.41    70.814335    71.105171    71.105171 
47000000       451.09   -144543.82   -142678.03    1377.8441    358033.41    70.804725    71.109996    71.109996 
47100000    458.89547   -144531.95   -142633.87    1495.0558    358033.41    70.795204    71.114778    71.114778 
47200000    451.69577   -144551.01    -142682.7    1368.3634    358033.41    70.785776    71.119514    71.119514 
47300000    453.37858   -144556.96   -142681.69    1264.8733    358033.41    70.776445    71.124201    71.124201 
47400000     454.0225   -144543.22   -142665.29    1336.2085    358033.41    70.767216    71.128839    71.128839 
47500000     457.0607   -144529.44   -142638.95    1451.1967    358033.41    70.758093    71.133424    71.133424 
47600000    456.34392   -144544.34   -142656.81    1624.6447    358033.41     70.74908    71.137955    71.137955 
47700000    457.92467   -144531.28   -142637.21    1845.8612    358033.41     70.74018     71.14243     71.14243 
47800000    453.08466   -144534.25    -142660.2    1785.2765    358033.41    70.731397    71.146847    71.146847 
47900000     453.1072   -144533.41   -142659.27     1392.746    358033.41    70.722736    71.151203    71.151203 
48000000    456.31421   -144549.94   -142662.53    1547.1818    358033.41    70.714201    71.155497    71.155497 
48100000    453.53612   -144544.87   -142668.96    1327.2669    358033.41    70.705794    71.159727    71.159727 
48200000    454.84081   -144553.61    -142672.3     1243.256    358033.41    70.697519    71.163891    71.163891 
48300000     457.9016   -144541.34   -142647.37    1546.4985    358033.41    70.689381    71.167988    71.167988 
48400000    460.24308   -144538.78   -142635.13    1521.7134    358033.41    70.681383    71.172014    71.172014 
48500000    452.43226   -144538.64   -142667.29    1370.0828    358033.41    70.673528    71.175969    71.175969 
48600000    454.00444   -144538.25    -142660.4    1518.4886    358033.41     70.66582    71.179851    71.179851 
48700000    456.14773   -144542.66   -142655.94    1964.3428    358033.41    70.658261    71.183658    71.183658 
48800000    454.25505   -144546.91   -142668.02    1437.8389    358033.41    70.650857    71.187388    71.187388 
48900000    454.75504    -144528.9   -142647.94    1719.9562    358033.41    70.643609     71.19104     71.19104 
49000000    448.57892   -144531.93   -142676.52    1505.7715    358033.41    70.636521    71.194612    71.194612 
49100000    454.72604   -144543.82   -142662.99    2006.5878    358033.41    70.629596    71.198102    71.198102 
49200000    453.82468   -144542.38   -142665.27    1701.3489    358033.41    70.622837    71.201509    71.201509 
49300000    455.45958   -144540.12   -142656.25    1680.8293    358033.41    70.616246    71.204831    71.204831 
49400000    453.48664   -144552.03   -142676.32    1472.4652    358033.41    70.609828    71.208067    71.208067 
49500000    456.57336   -144555.91   -142667.43    1410.5819    358033.41    70.603585    71.211216    71.211216 
49600000    456.37238   -144531.53   -142643.88    1910.0224    358033.41    70.597519    71.214275    71.214275 
49700000    455.36656   -144532.54   -142649.05    1976.7692    358033.41    70.591633    71.217244    71.217244 
49800000    455.46899   -144549.13   -142665.22    1548.6063    358033.41    70.585929    71.220121    71.220121 
49900000    452.80115   -144548.66   -142675.78    1649.0941    358033.41    70.580411    71.222905    71.222905 
50000000    456.93393   -144553.09   -142663.13     1539.567    358033.41     70.57508    71.225595    71.225595 
50100000    452.88125   -144542.67   -142669.46    1675.9835    358033.41     70.56994    71.228189    71.228189 
50200000    454.81383   -144539.06   -142657.86    1953.1061    358033.41    70.564991    71.230686    71.230686 
50300000    454.81002   -144536.06   -142654.88    1921.3494    358033.41    70.560237    71.233086    71.233086 
50400000    456.28172   -144536.89   -142649.62    1710.8313    358033.41     70.55568    71.235387    71.235387 
50500000     453.6196   -144538.36    -142662.1    1933.6684    358033.41     70.55132    71.237587    71.237587 
50600000    454.73157   -144526.19   -142645.33     1999.979    358033.41    70.547162    71.239687    71.239687 
50700000    453.75911   -144527.53   -142650.69     1781.113    358033.41    70.543205    71.241685    71.241685 
50800000    457.41967   -144523.68   -142631.71    2132.5635    358033.41    70.539452     71.24358     71.24358 
50900000    454.14795   -144541.26   -142662.81    1469.4704    358033.41    70.535905    71.245371    71.245371 
51000000    454.37869   -144536.75   -142657.35     1975.557    358033.41    70.532565    71.247058    71.247058 
51100000     458.5177   -144542.72    -142646.2    1625.4308    358033.41    70.529433     71.24864     71.24864 
51200000    453.32427    -144544.2   -142669.17    1656.6715    358033.41    70.526512    71.250116    71.250116 
51300000    456.29345   -144540.15   -142652.83    1677.7307    358033.41    70.523802    71.251485    71.251485 
51400000     455.9782   -144552.31   -142666.29    1705.4179    358033.41    70.521304    71.252747    71.252747 
51500000    457.29356   -144534.05   -142642.59    1740.7698    358033.41    70.519019    71.253901    71.253901 
51600000     454.4868   -144533.51   -142653.66    1679.4359    358033.41     70.51695    71.254946    71.254946 
51700000     459.9437   -144521.06   -142618.65    2000.9152    358033.41    70.515095    71.255883    71.255883 
51800000    453.31665    -144548.3    -142673.3    1055.4348    358033.41    70.513457    71.256711    71.256711 
51900000    451.35013   -144542.89   -142676.02    1656.2495    358033.41    70.512036    71.257429    71.257429 
52000000    454.30221   -144555.45   -142676.37    1688.5212    358033.41    70.510832    71.258037    71.258037 
52100000    456.12502   -144529.65   -142643.03    1847.8639    358033.41    70.509847    71.258535    71.258535 
52200000    453.65346   -144541.59   -142665.19    1285.8194    358033.41     70.50908    71.258923    71.258923 
52300000    456.76521   -144513.86   -142624.59    2493.9429    358033.41    70.508532      71.2592      71.2592 
52400000    452.36302   -144548.15   -142677.09    1349.2365    358033.41    70.508203    71.259366    71.259366 
52500000    456.47805   -144540.47   -142652.39    1324.6065    358033.41    70.508093    71.259421    71.259421 
52600000     452.2465   -144522.49   -142651.91    1878.7605    358033.41    70.508203    71.259366    71.259366 
52700000    457.73279   -144535.09   -142641.82     1369.115    358033.41    70.508532      71.2592      71.2592 
52800000    457.48703   -144545.83   -142653.58    1546.1985    358033.41     70.50908    71.258923    71.258923 
52900000    455.60487    -144533.7   -142649.23    1682.8908    358033.41    70.509847    71.258535    71.258535 
53000000    455.97566   -144527.44   -142641.43     1945.377    358033.41    70.510832    71.258037    71.258037 
53100000    455.61028   -144538.44   -142653.94    1825.7125    358033.41    70.512036    71.257429    71.257429 
53200000    452.42573   -144528.91   -142657.58    1775.8014    358033.41    70.513457    71.256711    71.256711 
53300000    455.09816   -144518.22   -142635.85     1759.686    358033.41    70.515095    71.255883    71.255883 
53400000    453.55103   -144536.05   -142660.07    1469.0026    358033.41     70.51695    71.254946    71.254946 
53500000    454.53207      -144533   -142652.96    1921.2961    358033.41    70.519019    71.253901    71.253901 
53600000    454.05902   -144531.86   -142653.79    1947.9735    358033.41    70.521304    71.252747    71.252747 
53700000    452.74734   -144542.52   -142669.87     1507.471    358033.41    70.523802    71.251485    71.251485 
53800000    455.51537   -144521.21   -142637.11    1837.1356    358033.41    70.526512    71.250116    71.250116 
53900000    455.69886      -144536   -142651.14    1703.1784    358033.41    70.529433     71.24864     71.24864 
54000000    454.10877   -144533.27   -142654.99    1626.4703    358033.41    70.532565    71.247058    71.247058 
54100000    453.65753   -144537.74   -142661.32     1526.329    358033.41    70.535905    71.245371    71.245371 
54200000     453.4421   -144547.33    -142671.8    1580.9584    358033.41    70.539452     71.24358     71.24358 
54300000     452.8363   -144553.91   -142680.89    1398.6483    358033.41    70.543205    71.241685    71.241685 
54400000    456.80772   -144531.19   -142641.75    1501.4093    358033.41    70.547162    71.239687    71.239687 
54500000    458.41902   -144518.82   -142622.71    2094.6823    358033.41     70.55132    71.237587    71.237587 
54600000    452.65888   -144536.76   -142664.48    1609.0529    358033.41     70.55568    71.235387    71.235387 
54700000    457.27505    -144538.1   -142646.73     1560.354    358033.41    70.560237    71.233086    71.233086 
54800000    456.19479   -144560.56   -142673.65    1333.2131    358033.41    70.564991    71.230686    71.230686 
54900000    457.99953   -144548.02   -142653.65    1523.6302    358033.41     70.56994    71.228189    71.228189 
55000000    458.04957   -144533.93   -142639.34    1681.1965    358033.41     70.57508    71.225595    71.225595 
55100000    453.80564    -144546.7   -142669.67    1508.3523    358033.41    70.580411    71.222905    71.222905 
55200000    450.84134    -144549.5   -142684.73    1419.9253    358033.41    70.585929    71.220121    71.220121 
55300000    450.39452   -144521.28   -142658.36    1734.0366    358033.41    70.591633    71.217244    71.217244 
55400000    454.60269   -144519.37   -142639.05    1970.8943    358033.41    70.597519    71.214275    71.214275 
55500000    459.61413   -144527.12   -142626.06    1834.6339    358033.41    70.603585    71.211216    71.211216 
55600000    454.51005   -144539.13   -142659.18    1754.6794    358033.41    70.609828    71.208067    71.208067 
55700000    456.71057   -144531.71   -142642.66    1987.0258    358033.41    70.616246    71.204831    71.204831 
55800000    454.37416    -144535.7   -142656.32    1596.1815    358033.41    70.622837    71.201509    71.201509 
55900000     454.8319   -144548.98    -142667.7    1321.5597    358033.41    70.629596    71.198102    71.198102 
56000000    454.88503   -144529.05   -142647.56    1549.9074    358033.41    70.636521    71.194612    71.194612 
56100000    456.54181   -144525.41   -142637.06    1896.4169    358033.41    70.643609     71.19104     71.19104 
56200000    453.80162   -144545.81   -142668.79    1432.7205    358033.41    70.650857    71.187388    71.187388 
56300000    456.49685   -144530.33   -142642.17    2008.3957    358033.41    70.658261    71.183658    71.183658 
56400000    453.50605   -144547.55   -142671.76    1466.9627    358033.41     70.66582    71.179851    71.179851 
56500000    454.35647   -144536.99   -142657.68     1316.641    358033.41    70.673528    71.175969    71.175969 
56600000    452.55943   -144521.52   -142649.65    1890.3866    358033.41    70.681383    71.172014    71.172014 
56700000    454.73205   -144541.75   -142660.89     1712.087    358033.41    70.689381    71.167988    71.167988 
56800000    456.75527   -144548.42   -142659.19    1406.2747    358033.41    70.697519    71.163891    71.163891 
56900000    454.44159   -144533.99   -142654.33    1338.4243    358033.41    70.705794    71.159727    71.159727 
57000000    456.26686   -144526.95   -142639.74    1906.0429    358033.41    70.714201    71.155497    71.155497 
57100000    456.61611   -144536.47   -142647.81    1755.3507    358033.41    70.722736    71.151203    71.151203 
57200000    458.16997   -144534.75   -142639.67    1790.8787    358033.41    70.731397    71.146847    71.146847 
57300000    456.14595   -144548.91    -142662.2    1467.6793    358033.41     70.74018     71.14243     71.14243 
57400000    454.32827   -144544.78   -142665.59    1821.8545    358033.41     70.74908    71.137955    71.137955 
57500000    452.44757   -144539.88   -142668.47    1539.4702    358033.41    70.758093    71.133424    71.133424 
57600000     457.6114   -144524.87    -142632.1     1971.558    358033.41    70.767216    71.128839    71.128839 
57700000    454.83325   -144538.43   -142657.15    1862.4839    358033.41    70.776445    71.124201    71.124201 
57800000      454.548   -144531.63   -142651.53    1776.9211    358033.41    70.785776    71.119514    71.119514 
57900000     452.2783   -144538.69   -142667.98    1728.6848    358033.41    70.795204    71.114778    71.114778 
58000000    453.77701   -144546.01    -142669.1     1732.762    358033.41    70.804725    71.109996    71.109996 
58100000    457.66677   -144538.55   -142645.55    1689.9737    358033.41    70.814335    71.105171    71.105171 
58200000    457.50451   -144550.82   -142658.49    1325.2451    358033.41    70.824031    71.100304    71.100304 
58300000    455.71173   -144542.43   -142657.52    1355.0122    358033.41    70.833807    71.095397    71.095397 
58400000    458.17187   -144552.56   -142657.47    1718.1593    358033.41     70.84366    71.090453    71.090453 
58500000    455.27988   -144546.49   -142663.37    1231.2302    358033.41    70.853585    71.085474    71.085474 
58600000    451.26304   -144550.53   -142684.02    1224.6802    358033.41    70.863577    71.080462    71.080462 
58700000    457.13028   -144546.63   -142655.85     1610.136    358033.41    70.873633    71.075419    71.075419 
58800000    453.56498   -144543.87   -142667.84    1739.2057    358033.41    70.883748    71.070347    71.070347 
58900000    455.46618   -144521.05   -142637.15    1927.8927    358033.41    70.893918     71.06525     71.06525 
59000000    453.05905   -144546.41   -142672.47    1342.9009    358033.41    70.904137    71.060128    71.060128 
59100000    456.91857   -144537.74   -142647.84    1713.6437    358033.41    70.914403    71.054985    71.054985 
59200000    455.03907   -144553.56   -142671.43    1015.1936    358033.41    70.924709    71.049822    71.049822 
59300000    454.16764    -144529.6   -142651.07    1705.6819    358033.41    70.935052    71.044642    71.044642 
59400000    451.57443   -144533.78   -142665.98     1872.569    358033.41    70.945427    71.039447    71.039447 
59500000    456.83379   -144544.58   -142655.02    1810.8085    358033.41    70.955829     71.03424     71.03424 
59600000    457.40056   -144531.89   -142639.99     1880.611    358033.41    70.966254    71.029022    71.029022 
59700000    456.67511   -144545.13   -142656.23    1768.9042    358033.41    70.976698    71.023796    71.023796 
59800000    456.28032   -144538.05   -142650.79    1332.2213    358033.41    70.987155    71.018564    71.018564 
59900000    456.85479   -144560.83   -142671.19    1338.9057    358033.41    70.997622    71.013329    71.013329 
60000000    452.89958   -144545.24   -142671.96     1656.481    358033.41    71.008093    71.008093    71.008093 
60100000    454.65055   -144556.12    -142675.6    1369.6343    358033.41    71.018564    71.002858    71.002858 
60200000    455.11933   -144554.39   -142671.93    1298.8118    358033.41    71.029031    70.997627    70.997627 
60300000    457.03895   -144550.57   -142660.17     1618.454    358033.41    71.039488    70.992401    70.992401 
60400000    455.54493   -144545.23   -142661.01    1466.0526    358033.41    71.049932    70.987183    70.987183 
60500000    456.27743   -144562.01   -142674.75    1316.6169    358033.41    71.060357    70.981975    70.981975 
60600000    458.20321   -144545.37   -142650.15    1763.5241    358033.41     71.07076    70.976781    70.976781 
60700000     457.8765   -144540.62   -142646.76    1473.6589    358033.41    71.081135    70.971601    70.971601 
60800000    458.05561   -144537.29   -142642.69    1814.0226    358033.41    71.091478    70.966438    70.966438 
60900000    457.59845   -144545.92    -142653.2    1291.6221    358033.41    71.101784    70.961294    70.961294 
61000000    452.28155    -144529.9   -142659.18    1964.8129    358033.41    71.112049    70.956172    70.956172 
61100000    453.21215   -144529.46   -142654.88    1846.7017    358033.41    71.122269    70.951074    70.951074 
61200000    449.97658   -144529.84   -142668.65    1849.9398    358033.41    71.132438    70.946002    70.946002 
61300000    453.61754   -144559.98   -142683.73    1683.2326    358033.41    71.142553    70.940959    70.940959 
61400000    450.86713   -144552.14   -142687.27    1752.7218    358033.41    71.152609    70.935945    70.935945 
61500000    454.28914   -144544.17   -142665.14    1785.1769    358033.41    71.162602    70.930965    70.930965 
61600000    456.17184   -144548.24   -142661.42    1494.2869    358033.41    71.172526    70.926019    70.926019 
61700000    455.96542   -144534.08   -142648.12    1917.5523    358033.41    71.182379     70.92111     70.92111 
61800000    458.83504   -144545.42   -142647.59    1777.7064    358033.41    71.192155    70.916241    70.916241 
61900000    456.06466   -144545.68   -142659.31    1515.1944    358033.41    71.201851    70.911412    70.911412 
62000000     453.2578   -144550.03   -142675.27    1256.1351    358033.41    71.211461    70.906627    70.906627 
62100000    456.60817   -144558.95   -142670.33    1451.5561    358033.41    71.220983    70.901887    70.901887 
62200000    456.30199   -144558.79   -142671.44     1463.951    358033.41    71.230411    70.897195    70.897195 
62300000    456.13023   -144543.76   -142657.12    1664.6517    358033.41    71.239741    70.892552    70.892552 
62400000    455.20565   -144536.61   -142653.79    1672.6926    358033.41     71.24897     70.88796     70.88796 
62500000     456.1708   -144525.03   -142638.22    1729.3902    358033.41    71.258093    70.883422    70.883422 
62600000    454.69426   -144546.84   -142666.14     1354.896    358033.41    71.267107     70.87894     70.87894 
62700000    450.16969   -144537.26   -142675.28    1887.2175    358033.41    71.276007    70.874514    70.874514 
62800000    452.53014   -144547.98   -142676.23    1672.4488    358033.41    71.284789    70.870148    70.870148 
62900000    458.19749   -144550.47   -142655.27     1599.713    358033.41     71.29345    70.865843    70.865843 
63000000    452.46971   -144542.64   -142671.14    1295.8554    358033.41    71.301986    70.861601    70.861601 
63100000    454.11163   -144560.48   -142682.18    1146.5808    358033.41    71.310393    70.857424    70.857424 
63200000    455.61383   -144558.93   -142674.42    1075.6601    358033.41    71.318667    70.853314    70.853314 
63300000    452.24555   -144542.51   -142671.94    1574.1581    358033.41    71.326805    70.849272    70.849272 
63400000    454.84857   -144530.19   -142648.85    1729.6725    358033.41    71.334803      70.8453      70.8453 
63500000    453.92598   -144536.91   -142659.39    1446.7117    358033.41    71.342658    70.841399    70.841399 
63600000    452.64171   -144545.02    -142672.8    1434.5086    358033.41    71.350367    70.837573    70.837573 
63700000     452.0694   -144539.29   -142669.44    1517.4555    358033.41    71.357925    70.833821    70.833821 
63800000    453.79365   -144536.38    -142659.4    1577.6397    358033.41     71.36533    70.830146    70.830146 
63900000    452.39932   -144536.72   -142665.51    1428.4591    358033.41    71.372577     70.82655     70.82655 
64000000     458.8469   -144550.59   -142652.71    1499.7175    358033.41    71.379666    70.823033    70.823033 
64100000    453.17644   -144540.86   -142666.44    1625.9228    358033.41    71.386591    70.819598    70.819598 
64200000    456.41604   -144543.12   -142655.29    1406.0767    358033.41     71.39335    70.816245    70.816245 
64300000    456.44204   -144536.89   -142648.95     1547.331    358033.41     71.39994    70.812977    70.812977 
64400000    451.68352   -144545.08   -142676.83    1404.5278    358033.41    71.406358    70.809794    70.809794 
64500000    452.22273   -144537.48      -142667    1392.9354    358033.41    71.412602    70.806699    70.806699 
64600000    453.66416   -144542.49   -142666.05    1466.2641    358033.41    71.418668    70.803692    70.803692 
64700000    452.68871   -144545.82   -142673.41    1585.3301    358033.41    71.424554    70.800774    70.800774 
64800000    456.43461   -144557.38   -142669.47    1206.3205    358033.41    71.430257    70.797948    70.797948 
64900000    458.32704   -144540.04   -142644.31    1492.8818    358033.41    71.435775    70.795213    70.795213 
65000000    454.08402   -144546.04   -142667.86    1566.6801    358033.41    71.441106    70.792572    70.792572 
65100000    456.42836   -144539.53   -142651.65    1583.4074    358033.41    71.446247    70.790025    70.790025 
65200000     457.9596   -144544.27   -142650.06    1365.5249    358033.41    71.451195    70.787574    70.787574 
65300000    455.02478   -144531.05   -142648.98    1676.1302    358033.41    71.455949    70.785219    70.785219 
65400000    454.81923   -144532.73   -142651.51    1879.1262    358033.41    71.460507    70.782962    70.782962 
65500000    453.29906    -144538.6   -142663.66     1474.316    358033.41    71.464866    70.780803    70.780803 
65600000    459.29814   -144541.07   -142641.33    1646.4121    358033.41    71.469025    70.778743    70.778743 
65700000     452.6453    -144533.5   -142661.27     1616.965    358033.41    71.472981    70.776784    70.776784 
65800000    455.63464   -144547.88   -142663.29    1303.0681    358033.41    71.476734    70.774926    70.774926 
65900000    451.43896    -144528.9   -142661.66    1932.5229    358033.41    71.480281     70.77317     70.77317 
66000000    454.18999   -144539.67   -142661.05    1794.6131    358033.41    71.483621    70.771517    70.771517 
66100000    453.99112   -144544.05   -142666.25    1578.0178    358033.41    71.486753    70.769967    70.769967 
66200000    452.55262   -144547.51   -142675.66    1363.4679    358033.41    71.489674     70.76852     70.76852 
66300000    452.12769   -144536.12   -142666.03    2092.6582    358033.41    71.492385    70.767179    70.767179 
66400000    457.45118   -144528.63   -142636.52    1781.6573    358033.41    71.494883    70.765943    70.765943 
66500000    455.00207   -144541.72   -142659.75    1890.1609    358033.41    71.497167    70.764812    70.764812 
66600000    456.91536   -144550.63   -142660.74    1480.7527    358033.41    71.499237    70.763788    70.763788 
66700000    458.79894    -144537.9   -142640.22    1692.5712    358033.41    71.501091     70.76287     70.76287 
66800000    454.05253   -144533.87   -142655.82    1759.2995    358033.41    71.502729     70.76206     70.76206 
66900000    452.09384   -144554.58   -142684.63    1234.7306    358033.41    71.504151    70.761357    70.761357 
67000000    454.84275   -144527.34   -142646.02    2042.6072    358033.41    71.505354    70.760761    70.760761 
67100000    454.65054   -144542.59   -142662.07    1721.3821    358033.41     71.50634    70.760273    70.760273 
67200000    454.66243   -144543.61   -142663.04     1747.978    358033.41    71.507107    70.759894    70.759894 
67300000    453.23249   -144520.98   -142646.32    1961.2514    358033.41    71.507655    70.759623    70.759623 
67400000    453.63039   -144520.89   -142644.59    2069.3919    358033.41    71.507984     70.75946     70.75946 
67500000    452.65849   -144551.39   -142679.11    1412.4182    358033.41    71.508093    70.759406    70.759406 
67600000    455.00295    -144531.4   -142649.42    1812.9099    358033.41    71.507984     70.75946     70.75946 
67700000    455.20029   -144536.47   -142653.68    1920.7586    358033.41    71.507655    70.759623    70.759623 
67800000    454.16713    -144535.5   -142656.98    1434.0094    358033.41    71.507107    70.759894    70.759894 
67900000    455.61373   -144543.77   -142659.26    1657.7364    358033.41     71.50634    70.760273    70.760273 
68000000    456.89738   -144548.22   -142658.41    1534.7874    358033.41    71.505354    70.760761    70.760761 
68100000    454.02496    -144548.3   -142670.37    1410.7666    358033.41    71.504151    70.761357    70.761357 
68200000    451.77549    -144545.3   -142676.67     1416.614    358033.41    71.502729     70.76206     70.76206 
68300000    456.93346   -144531.52   -142641.55    1464.6283    358033.41    71.501091     70.76287     70.76287 
68400000    457.80727   -144549.13   -142655.55    1523.8423    358033.41    71.499237    70.763788    70.763788 
68500000    453.00151   -144539.46   -142665.76    1627.1022    358033.41    71.497167    70.764812    70.764812 
68600000    451.52662   -144545.53   -142677.93    1345.4149    358033.41    71.494883    70.765943    70.765943 
68700000    453.78834   -144537.55   -142660.59    1313.7433    358033.41    71.492385    70.767179    70.767179 
68800000    453.25065   -144542.21   -142667.47    1669.3677    358033.41    71.489674     70.76852     70.76852 
68900000    454.10972   -144532.68   -142654.39    1708.2133    358033.41    71.486753    70.769967    70.769967 
[...]
133400000    455.87829   -144532.17   -142646.57    1806.6637    358033.41    71.172526    70.926019    70.926019 
133500000     452.2161   -144532.49   -142662.03    1616.8051    358033.41    71.162602    70.930965    70.930965 
133600000    454.34475   -144552.01   -142672.75    1574.8259    358033.41    71.152609    70.935945    70.935945 
133700000    454.85205   -144525.78   -142644.42    2347.7032    358033.41    71.142553    70.940959    70.940959 
133800000    454.68696   -144542.24   -142661.56     1256.685    358033.41    71.132438    70.946002    70.946002 
133900000    455.56294   -144550.66   -142666.36    1251.3325    358033.41    71.122269    70.951074    70.951074 
134000000    454.86397   -144537.91    -142656.5    1663.2126    358033.41    71.112049    70.956172    70.956172 
134100000    458.84151   -144538.05   -142640.19     1552.632    358033.41    71.101784    70.961294    70.961294 
134200000    454.78515   -144550.69   -142669.61    1214.7883    358033.41    71.091478    70.966438    70.966438 
134300000    454.92913   -144528.31   -142646.63    1475.3787    358033.41    71.081135    70.971601    70.971601 
134400000    455.27531   -144543.26   -142660.15    1910.8137    358033.41     71.07076    70.976781    70.976781 
134500000    457.68509   -144549.78   -142656.71     1674.299    358033.41    71.060357    70.981975    70.981975 
134600000    458.13971   -144531.91   -142636.96    1741.2444    358033.41    71.049932    70.987183    70.987183 
134700000    454.31883   -144523.28   -142644.13     1824.989    358033.41    71.039488    70.992401    70.992401 
134800000    454.15072   -144537.16   -142658.71     1643.007    358033.41    71.029031    70.997627    70.997627 
134900000    452.54736   -144534.78   -142662.96    1726.5696    358033.41    71.018564    71.002858    71.002858 
135000000    457.80539    -144543.2   -142649.63    1777.5114    358033.41    71.008093    71.008093    71.008093 
135100000    457.23907   -144546.11   -142654.88    1663.9584    358033.41    70.997622    71.013329    71.013329 
135200000    453.40831   -144540.31   -142664.92    1565.7136    358033.41    70.987155    71.018564    71.018564 
135300000    455.27436   -144527.55   -142644.45    1701.3068    358033.41    70.976698    71.023796    71.023796 
135400000    455.87282   -144543.66   -142658.08    1432.7358    358033.41    70.966254    71.029022    71.029022 
135500000    455.79272   -144550.03   -142664.79    1279.0953    358033.41    70.955829     71.03424     71.03424 
135600000    454.70318   -144547.43   -142666.68      1329.79    358033.41    70.945427    71.039447    71.039447 
135700000    454.36258   -144537.28   -142657.95    1354.6084    358033.41    70.935052    71.044642    71.044642 
135800000    453.89577   -144534.34   -142656.93    1541.0618    358033.41    70.924709    71.049822    71.049822 
135900000    452.56547   -144546.79   -142674.89     1330.691    358033.41    70.914403    71.054985    71.054985 
136000000    450.57788   -144559.16   -142695.49    1179.2532    358033.41    70.904137    71.060128    71.060128 
136100000    455.33533   -144556.19   -142672.84    1374.5658    358033.41    70.893918     71.06525     71.06525 
136200000    458.20087   -144544.54   -142649.33    1659.0668    358033.41    70.883748    71.070347    71.070347 
136300000     457.3984   -144538.14   -142646.25    1537.0747    358033.41    70.873633    71.075419    71.075419 
136400000    454.62733   -144553.71   -142673.28    1358.1926    358033.41    70.863577    71.080462    71.080462 
136500000     455.0745   -144536.17   -142653.89    1861.0218    358033.41    70.853585    71.085474    71.085474 
136600000     457.6496   -144552.61   -142659.68    1517.9573    358033.41     70.84366    71.090453    71.090453 
136700000    457.81414   -144530.58   -142636.97    1647.2152    358033.41    70.833807    71.095397    71.095397 
136800000    452.49081   -144549.84   -142678.25    1610.9726    358033.41    70.824031    71.100304    71.100304 
136900000    454.44513   -144548.03   -142668.36     1640.589    358033.41    70.814335    71.105171    71.105171 
137000000    456.56712   -144538.91   -142650.45    1597.0304    358033.41    70.804725    71.109996    71.109996 
137100000    455.46678    -144541.3    -142657.4    1603.9397    358033.41    70.795204    71.114778    71.114778 
137200000    456.76177   -144549.93   -142660.67    1451.0325    358033.41    70.785776    71.119514    71.119514 
137300000    452.28284   -144538.61   -142667.88    1642.7733    358033.41    70.776445    71.124201    71.124201 
137400000    453.98652   -144548.18    -142670.4     1577.246    358033.41    70.767216    71.128839    71.128839 
137500000    454.24721    -144533.9   -142655.05     1365.553    358033.41    70.758093    71.133424    71.133424 
137600000    453.34278    -144536.8   -142661.68    1556.6722    358033.41     70.74908    71.137955    71.137955 
137700000    454.91764   -144549.26   -142667.63     1708.734    358033.41     70.74018     71.14243     71.14243 
137800000     455.5629   -144555.99   -142671.69    1649.8729    358033.41    70.731397    71.146847    71.146847 
137900000    454.85121   -144553.06   -142671.71    1400.8309    358033.41    70.722736    71.151203    71.151203 
138000000    455.63155   -144533.46   -142648.88    1986.2261    358033.41    70.714201    71.155497    71.155497 
138100000    452.89227   -144534.38   -142661.13    1511.1234    358033.41    70.705794    71.159727    71.159727 
138200000    455.30235   -144538.58   -142655.36    1501.8261    358033.41    70.697519    71.163891    71.163891 
138300000    455.60466   -144554.36   -142669.89    1289.8764    358033.41    70.689381    71.167988    71.167988 
138400000    456.69342   -144521.46   -142632.49    1971.2668    358033.41    70.681383    71.172014    71.172014 
138500000     456.8133   -144533.15   -142643.68    1908.7862    358033.41    70.673528    71.175969    71.175969 
138600000    455.84599   -144533.38   -142647.92    1898.8117    358033.41     70.66582    71.179851    71.179851 
138700000    457.51496   -144540.86   -142648.49    1518.1992    358033.41    70.658261    71.183658    71.183658 
138800000    452.03637   -144560.94   -142691.23    1213.7833    358033.41    70.650857    71.187388    71.187388 
138900000    454.01365   -144551.79    -142673.9    1134.4209    358033.41    70.643609     71.19104     71.19104 
139000000    455.94431   -144562.78    -142676.9    907.50032    358033.41    70.636521    71.194612    71.194612 
139100000    456.61297    -144547.9   -142659.26    1563.7484    358033.41    70.629596    71.198102    71.198102 
139200000    456.94928   -144533.33    -142643.3    1698.4922    358033.41    70.622837    71.201509    71.201509 
139300000    454.29054    -144530.4   -142651.37     1816.766    358033.41    70.616246    71.204831    71.204831 
139400000      455.649   -144536.95    -142652.3    1764.7773    358033.41    70.609828    71.208067    71.208067 
139500000    453.72083   -144558.61   -142681.93    1182.5477    358033.41    70.603585    71.211216    71.211216 
139600000     456.6704   -144551.63   -142662.75    1401.0951    358033.41    70.597519    71.214275    71.214275 
139700000    455.77944   -144554.33   -142669.14    1428.3978    358033.41    70.591633    71.217244    71.217244 
139800000    458.37844   -144541.46   -142645.52    1606.7201    358033.41    70.585929    71.220121    71.220121 
139900000    454.48287   -144540.75   -142660.92    1613.6046    358033.41    70.580411    71.222905    71.222905 
140000000    451.65784   -144537.03   -142668.88    1490.6234    358033.41     70.57508    71.225595    71.225595 
140100000    447.77586   -144553.95   -142701.86     1429.309    358033.41     70.56994    71.228189    71.228189 
140200000    455.66595   -144540.69   -142655.96    1800.0604    358033.41    70.564991    71.230686    71.230686 
140300000    454.79075   -144536.49   -142655.38    1487.8375    358033.41    70.560237    71.233086    71.233086 
140400000    455.32552   -144554.03   -142670.71    1479.2871    358033.41     70.55568    71.235387    71.235387 
140500000     454.0076   -144543.32   -142665.46    1581.9256    358033.41     70.55132    71.237587    71.237587 
140600000    456.54979   -144535.62   -142647.24    1893.7522    358033.41    70.547162    71.239687    71.239687 
140700000    455.88483   -144530.94   -142645.31    1627.1247    358033.41    70.543205    71.241685    71.241685 
140800000    452.95509   -144551.53   -142678.02    1677.1394    358033.41    70.539452     71.24358     71.24358 
140900000    456.85769   -144539.75    -142650.1    1710.9604    358033.41    70.535905    71.245371    71.245371 
141000000    455.26943   -144538.21   -142655.12    1712.1888    358033.41    70.532565    71.247058    71.247058 
141100000    455.16481   -144539.57   -142656.92    1583.0346    358033.41    70.529433     71.24864     71.24864 
141200000    452.76653   -144528.65   -142655.92    2032.8687    358033.41    70.526512    71.250116    71.250116 
141300000    450.90738   -144524.42   -142659.38    1949.3713    358033.41    70.523802    71.251485    71.251485 
141400000    453.86469   -144547.91   -142670.64    1502.9242    358033.41    70.521304    71.252747    71.252747 
141500000    456.92736    -144536.7   -142646.76    2131.2553    358033.41    70.519019    71.253901    71.253901 
141600000    455.49404   -144536.18   -142652.17    1574.4841    358033.41     70.51695    71.254946    71.254946 
141700000    461.21912   -144545.06   -142637.37    1518.6178    358033.41    70.515095    71.255883    71.255883 
141800000     458.1398   -144532.57   -142637.62    1930.9521    358033.41    70.513457    71.256711    71.256711 
141900000    455.75703   -144533.61   -142648.51    1639.0499    358033.41    70.512036    71.257429    71.257429 
142000000    457.22025   -144548.85    -142657.7    1848.0373    358033.41    70.510832    71.258037    71.258037 
142100000    457.21468   -144527.16   -142636.03    1914.0186    358033.41    70.509847    71.258535    71.258535 
142200000    456.15465   -144536.17   -142649.43    1563.8661    358033.41     70.50908    71.258923    71.258923 
142300000    455.09078   -144549.52   -142667.17    1661.0554    358033.41    70.508532      71.2592      71.2592 
142400000    456.12544   -144542.81   -142656.19    1643.3631    358033.41    70.508203    71.259366    71.259366 
142500000    453.94869   -144538.92    -142661.3     1461.896    358033.41    70.508093    71.259421    71.259421 
142600000    453.80602   -144547.05   -142670.02    1343.7151    358033.41    70.508203    71.259366    71.259366 
142700000    453.75665   -144526.25   -142649.42    1821.2703    358033.41    70.508532      71.2592      71.2592 
142800000    455.07424    -144530.8   -142648.52    1917.8901    358033.41     70.50908    71.258923    71.258923 
142900000    452.89163   -144545.74    -142672.5     1698.849    358033.41    70.509847    71.258535    71.258535 
143000000    456.62605   -144553.78   -142665.08    1196.3872    358033.41    70.510832    71.258037    71.258037 
143100000    457.33564    -144528.6   -142636.97     1840.635    358033.41    70.512036    71.257429    71.257429 
143200000    453.57933   -144533.54   -142657.45    1745.6527    358033.41    70.513457    71.256711    71.256711 
143300000     456.7652   -144539.89   -142650.62    2024.1738    358033.41    70.515095    71.255883    71.255883 
143400000    450.93107   -144550.16   -142685.02    1424.5832    358033.41     70.51695    71.254946    71.254946 
143500000    454.21357    -144539.7   -142660.98    1617.0134    358033.41    70.519019    71.253901    71.253901 
143600000    457.53238   -144524.26   -142631.82    2215.6331    358033.41    70.521304    71.252747    71.252747 
143700000    453.53866   -144549.39   -142673.47    1576.9781    358033.41    70.523802    71.251485    71.251485 
143800000    454.72486   -144551.45   -142670.62    1440.7514    358033.41    70.526512    71.250116    71.250116 
143900000    455.53486    -144550.4   -142666.22    1477.3091    358033.41    70.529433     71.24864     71.24864 
144000000    453.93159    -144538.9   -142661.35    1681.0897    358033.41    70.532565    71.247058    71.247058 
144100000    455.01162   -144554.51    -142672.5    1390.1575    358033.41    70.535905    71.245371    71.245371 
144200000    453.69355   -144559.03   -142682.47    1461.3674    358033.41    70.539452     71.24358     71.24358 
144300000    454.31923   -144562.65   -142683.49      1293.66    358033.41    70.543205    71.241685    71.241685 
144400000    455.59287    -144548.7   -142664.28    1781.9759    358033.41    70.547162    71.239687    71.239687 
144500000    455.18952   -144569.64   -142686.89    997.66378    358033.41     70.55132    71.237587    71.237587 
144600000    450.82756   -144536.32    -142671.6    1847.3571    358033.41     70.55568    71.235387    71.235387 
144700000    453.44967   -144548.71   -142673.15    1364.7411    358033.41    70.560237    71.233086    71.233086 
144800000    454.07121   -144542.08   -142663.95    1626.0519    358033.41    70.564991    71.230686    71.230686 
144900000    452.32876    -144543.8   -142672.88    1653.5793    358033.41     70.56994    71.228189    71.228189 
145000000    454.81253   -144546.04   -142664.85    1447.9097    358033.41     70.57508    71.225595    71.225595 
145100000    455.22495   -144540.52   -142657.62    1656.7351    358033.41    70.580411    71.222905    71.222905 
145200000    455.23981   -144545.49   -142662.53    1505.1977    358033.41    70.585929    71.220121    71.220121 
145300000    451.77335   -144549.81   -142681.18    1539.1136    358033.41    70.591633    71.217244    71.217244 
145400000    452.96815    -144539.5   -142665.94    2021.0251    358033.41    70.597519    71.214275    71.214275 
145500000    453.29329   -144525.66   -142650.75    2048.9167    358033.41    70.603585    71.211216    71.211216 
145600000    454.43962   -144525.89   -142646.24    1980.3629    358033.41    70.609828    71.208067    71.208067 
145700000    454.06761   -144530.23   -142652.12    1947.6586    358033.41    70.616246    71.204831    71.204831 
145800000    452.55762   -144550.01   -142678.14    1707.0371    358033.41    70.622837    71.201509    71.201509 
145900000     448.3432   -144547.53   -142693.09    1757.7641    358033.41    70.629596    71.198102    71.198102 
146000000    454.96369    -144534.4   -142652.59    1982.5196    358033.41    70.636521    71.194612    71.194612 
146100000    454.42183   -144545.23   -142665.65    1838.2765    358033.41    70.643609     71.19104     71.19104 
146200000    454.78812    -144526.3   -142645.21    1917.4929    358033.41    70.650857    71.187388    71.187388 
146300000     455.1338   -144545.59   -142663.07    1787.2223    358033.41    70.658261    71.183658    71.183658 
146400000    450.53746   -144527.38   -142663.87    1783.1449    358033.41     70.66582    71.179851    71.179851 
146500000    451.24856   -144542.14   -142675.69    1454.7735    358033.41    70.673528    71.175969    71.175969 
146600000     457.3597   -144533.28   -142641.55    1618.7491    358033.41    70.681383    71.172014    71.172014 
146700000    456.42375   -144540.45   -142652.59    1630.1504    358033.41    70.689381    71.167988    71.167988 
146800000    454.70277   -144526.65   -142645.91     2203.214    358033.41    70.697519    71.163891    71.163891 
146900000    452.28585   -144545.81   -142675.06    1497.6177    358033.41    70.705794    71.159727    71.159727 
147000000    454.75214   -144533.15   -142652.21    1743.3729    358033.41    70.714201    71.155497    71.155497 
147100000    447.72985   -144552.46   -142700.56    1590.3772    358033.41    70.722736    71.151203    71.151203 
147200000    455.06435   -144533.34   -142651.11    2141.6684    358033.41    70.731397    71.146847    71.146847 
147300000    456.87462   -144536.95   -142647.23    1793.1282    358033.41     70.74018     71.14243     71.14243 
147400000    458.07219   -144561.57   -142666.89    1237.1456    358033.41     70.74908    71.137955    71.137955 
147500000    456.99242   -144530.42   -142640.21    1660.5093    358033.41    70.758093    71.133424    71.133424 
147600000    453.44757   -144546.15    -142670.6    1436.4988    358033.41    70.767216    71.128839    71.128839 
147700000    455.25728   -144550.18   -142667.15    1529.2198    358033.41    70.776445    71.124201    71.124201 
147800000    455.32584    -144543.1   -142659.78    1560.2988    358033.41    70.785776    71.119514    71.119514 
147900000    452.02589   -144556.65   -142686.99    1353.5105    358033.41    70.795204    71.114778    71.114778 
148000000    455.90577    -144538.5   -142652.79    1779.7178    358033.41    70.804725    71.109996    71.109996 
148100000     454.7989   -144549.88   -142668.74    1244.8526    358033.41    70.814335    71.105171    71.105171 
148200000     456.3797   -144541.51   -142653.83    1926.4212    358033.41    70.824031    71.100304    71.100304 
148300000    455.52323   -144547.73    -142663.6    1722.4156    358033.41    70.833807    71.095397    71.095397 
148400000    454.53565   -144538.25    -142658.2     1557.713    358033.41     70.84366    71.090453    71.090453 
148500000     457.0349   -144546.61   -142656.22    1600.4204    358033.41    70.853585    71.085474    71.085474 
148600000    454.02029   -144553.18   -142675.26    1429.1273    358033.41    70.863577    71.080462    71.080462 
148700000    454.05131   -144552.26   -142674.22    1492.2969    358033.41    70.873633    71.075419    71.075419 
148800000    454.76219   -144555.27   -142674.28    1524.2052    358033.41    70.883748    71.070347    71.070347 
148900000    451.08243   -144547.39   -142681.62    1613.8182    358033.41    70.893918     71.06525     71.06525 
149000000    452.75889   -144524.41   -142651.71    2168.7765    358033.41    70.904137    71.060128    71.060128 
149100000    457.68517   -144544.92   -142651.84    1838.2423    358033.41    70.914403    71.054985    71.054985 
149200000    455.47219   -144537.29   -142653.37    1540.2771    358033.41    70.924709    71.049822    71.049822 
149300000    462.74248   -144541.92   -142627.92    1930.0425    358033.41    70.935052    71.044642    71.044642 
149400000    453.87114   -144525.03   -142647.73    1902.8651    358033.41    70.945427    71.039447    71.039447 
149500000    453.98409   -144561.57   -142683.81    1347.9766    358033.41    70.955829     71.03424     71.03424 
149600000    454.54291   -144557.24   -142677.16    1446.7272    358033.41    70.966254    71.029022    71.029022 
149700000    453.55023   -144550.77    -142674.8    1134.3499    358033.41    70.976698    71.023796    71.023796 
149800000    455.67603   -144544.87   -142660.11    1632.2078    358033.41    70.987155    71.018564    71.018564 
149900000    457.00356   -144563.31   -142673.05    1125.8326    358033.41    70.997622    71.013329    71.013329 
150000000    456.70815   -144541.85   -142652.81    1705.6605    358033.41    71.008093    71.008093    71.008093 
Loop time of 327694 on 120 procs (120 MPI x 1 OpenMP) for 150000000 steps with 32000 atoms

Pair  time (%) = 239801 (73.1784)
Neigh time (%) = 13659.5 (4.16839)
Comm  time (%) = 55197.1 (16.8441)
Outpt time (%) = 1.67938 (0.000512483)
Other time (%) = 19034.5 (5.80861)

Nlocal:    266.667 ave 278 max 259 min
Histogram: 7 6 21 27 20 24 6 4 4 1
Nghost:    2528.83 ave 2553 max 2501 min
Histogram: 3 5 4 15 18 30 20 18 3 4
Neighs:    30653 ave 32537 max 29159 min
Histogram: 5 8 17 24 23 19 11 8 4 1

Total # of neighbors = 3678363
Ave neighs/atom = 114.949
Neighbor list builds = 12550749
Dangerous builds = 53
write_restart  dms300ns_455-10c.rst
clear
WARNING: OMP_NUM_THREADS environment is not set. (../comm.cpp:89)
  using 1 OpenMP thread(s) per MPI task
#jump YDMA475-300ns.lmp
