units           metal
boundary        p p p
atom_style      atomic
read_data      /HOME/hust_hbyu_1/Samples/Ni80P20_C20/dat/T375.dat
  orthogonal box = (-35.4548 -35.4548 -35.4548) to (35.4548 35.4548 35.4548)
  4 by 5 by 6 MPI processor grid
  reading atoms ...
  32000 atoms
  reading velocities ...
  32000 velocities
pair_style      eam/alloy
pair_coeff      * *   /HOME/hust_hbyu_1/Samples/Ni80P20_C20/dat/NiP.lammps.eam Ni P
mass            1  58.69
mass			2  30.97
neigh_modify    delay 5
timestep 0.01
thermo 100000
reset_timestep 0
thermo_style custom step temp pe etotal press vol lx ly lz
fix             1 all nvt temp 375 375 0.5
thermo_modify flush yes
fix dsf all deform 1 x  wiggle 0.5    300000.0   y volume z volume units box
fix ps1 all ave/time 1 1 300000 c_thermo_press[1] c_thermo_press[2]  c_thermo_press[3] c_thermo_press[4]  c_thermo_press[5] c_thermo_press[6]  file  YDMA375K-stress-300ns.txt
dump            1 all custom 10000000 YDMA375K-300ns.lammpstrj id type x y z
dump_modify 1 sort id
run 150000000
Neighbor list info ...
  1 neighbor list requests
  update every 1 steps, delay 5 steps, check yes
  master list distance cutoff = 8.5
  ghost atom cutoff = 8.5
Memory usage per processor = 3.5125 Mbytes
Step Temp PotEng TotEng Press Volume Lx Ly Lz 
       0    375.66208   -145009.33   -143455.52    115.67702    356544.58    70.909531    70.909531    70.909531 
  100000    372.86479   -144944.96   -143402.72    969.50983    356544.58    70.920002    70.904296    70.904296 
  200000    374.28677      -144958   -143409.88    1010.8264    356544.58    70.930469    70.899064    70.899064 
  300000    372.47006   -144934.78   -143394.17    1063.9918    356544.58    70.940926    70.893838    70.893838 
  400000    373.11585   -144929.63   -143386.35    1626.9966    356544.58     70.95137    70.888621    70.888621 
  500000    374.71913   -144941.34   -143391.43    1373.5004    356544.58    70.961795    70.883413    70.883413 
  600000    374.91369   -144943.35   -143392.63    1260.4017    356544.58    70.972197    70.878218    70.878218 
  700000    375.74008   -144954.87   -143400.74    760.31824    356544.58    70.982572    70.873038    70.873038 
  800000    375.28268   -144941.16   -143388.91    1184.6839    356544.58    70.992915    70.867875    70.867875 
  900000    373.93664   -144935.38    -143388.7    1334.2029    356544.58    71.003221    70.862732    70.862732 
 1000000     373.0449   -144944.52   -143401.54    1115.4246    356544.58    71.013487     70.85761     70.85761 
 1100000    373.06927   -144929.21   -143386.12    1356.3365    356544.58    71.023706    70.852512    70.852512 
 1200000    375.49191   -144932.23   -143379.12    1273.7419    356544.58    71.033876     70.84744     70.84744 
 1300000    374.28631   -144930.52    -143382.4    1455.2204    356544.58    71.043991    70.842396    70.842396 
 1400000    375.42211   -144949.62    -143396.8     903.5042    356544.58    71.054047    70.837383    70.837383 
 1500000    371.51672   -144937.96   -143401.29    1497.3988    356544.58    71.064039    70.832402    70.832402 
 1600000    377.52844   -144929.75   -143368.22    1336.6552    356544.58    71.073964    70.827457    70.827457 
 1700000    376.27673   -144952.07   -143395.72    907.32569    356544.58    71.083817    70.822548    70.822548 
 1800000    374.98117   -144944.06   -143393.07    1228.7108    356544.58    71.093593    70.817678    70.817678 
 1900000    377.99596   -144945.44   -143381.97    1388.8257    356544.58    71.103289     70.81285     70.81285 
 2000000    374.34689   -144943.81   -143395.44    973.52666    356544.58    71.112899    70.808065    70.808065 
 2100000    376.09615   -144940.43   -143384.82    1440.7881    356544.58     71.12242    70.803325    70.803325 
 2200000    375.80371   -144929.13   -143374.74    1689.3487    356544.58    71.131848    70.798633    70.798633 
 2300000     374.0777   -144939.05   -143391.79    1279.6291    356544.58    71.141179     70.79399     70.79399 
 2400000    377.87665   -144938.69   -143375.72    1319.5926    356544.58    71.150408    70.789398    70.789398 
 2500000    376.99119   -144935.18   -143375.88     1085.329    356544.58    71.159531     70.78486     70.78486 
 2600000    375.09483   -144945.07   -143393.61    1165.2149    356544.58    71.168544    70.780378    70.780378 
 2700000    377.32155   -144944.59   -143383.92    1041.3965    356544.58    71.177444    70.775952    70.775952 
 2800000    374.45283   -144944.91    -143396.1    994.26312    356544.58    71.186226    70.771586    70.771586 
 2900000    373.92388   -144946.28   -143399.66    990.19272    356544.58    71.194888    70.767282    70.767282 
 3000000    374.05432   -144943.05   -143395.89    1413.2421    356544.58    71.203423     70.76304     70.76304 
 3100000    375.29357   -144931.33   -143379.04    1420.3146    356544.58     71.21183    70.758863    70.758863 
 3200000    377.87434   -144931.56   -143368.59    1345.7593    356544.58    71.220105    70.754752    70.754752 
 3300000    377.43777   -144938.28   -143377.12    1681.5182    356544.58    71.228243     70.75071     70.75071 
 3400000    373.16236   -144946.28   -143402.81    1105.8331    356544.58    71.236241    70.746738    70.746738 
 3500000    378.05328   -144942.58   -143378.88    1039.3767    356544.58    71.244096    70.742838    70.742838 
 3600000     373.3968   -144935.62   -143391.18    1455.0805    356544.58    71.251804    70.739011    70.739011 
 3700000    374.21525    -144943.7   -143395.87    1064.9418    356544.58    71.259362    70.735259    70.735259 
 3800000    373.18586   -144945.91   -143402.35    1311.6353    356544.58    71.266767    70.731585    70.731585 
 3900000    375.02727   -144947.37   -143396.18    1258.7385    356544.58    71.274015    70.727988    70.727988 
 4000000    375.98639   -144932.15   -143376.99    1435.9732    356544.58    71.281103    70.724471    70.724471 
 4100000    373.65092   -144931.15   -143385.66    1141.7593    356544.58    71.288028    70.721036    70.721036 
 4200000    376.85154    -144941.3   -143382.56    1453.8155    356544.58    71.294787    70.717684    70.717684 
 4300000     378.2111   -144946.71   -143382.35    1538.4885    356544.58    71.301377    70.714416    70.714416 
 4400000    376.37856   -144951.01   -143394.24    973.22046    356544.58    71.307796    70.711233    70.711233 
 4500000    372.90015   -144938.56   -143396.17    1343.0539    356544.58    71.314039    70.708138    70.708138 
 4600000     374.3572   -144931.84   -143383.43    1384.5345    356544.58    71.320105    70.705131    70.705131 
 4700000    376.73868   -144931.44   -143373.17     1602.474    356544.58    71.325991    70.702213    70.702213 
 4800000    375.11549   -144946.01   -143394.46    1277.5904    356544.58    71.331695    70.699387    70.699387 
 4900000    372.09713   -144941.57    -143402.5    1076.7089    356544.58    71.337213    70.696652    70.696652 
 5000000    373.93122   -144947.31   -143400.66    1257.8683    356544.58    71.342543    70.694011    70.694011 
 5100000    374.57116   -144946.12   -143396.82     1241.675    356544.58    71.347684    70.691464    70.691464 
 5200000    373.24359   -144947.96   -143404.15    1001.3744    356544.58    71.352633    70.689013    70.689013 
 5300000    374.27763   -144945.38   -143397.29     1320.353    356544.58    71.357387    70.686658    70.686658 
 5400000     373.2417    -144925.3    -143381.5     1530.097    356544.58    71.361944    70.684401    70.684401 
 5500000    377.48264   -144944.08   -143382.74    1337.8139    356544.58    71.366303    70.682242    70.682242 
 5600000    374.59024   -144947.19   -143397.81    1172.4025    356544.58    71.370462    70.680182    70.680182 
 5700000    374.10935   -144933.18   -143385.79    1308.5224    356544.58    71.374419    70.678223    70.678223 
 5800000     375.6025   -144929.83   -143376.26    1503.1273    356544.58    71.378172    70.676365    70.676365 
 5900000    375.26228   -144925.72   -143373.56    1585.4416    356544.58    71.381719    70.674609    70.674609 
 6000000     375.3299   -144932.46   -143380.02    1344.9828    356544.58    71.385059    70.672956    70.672956 
 6100000    377.84578   -144931.85   -143369.01    1323.3522    356544.58     71.38819    70.671406    70.671406 
 6200000    374.62225   -144934.37   -143384.86    1243.1513    356544.58    71.391112     70.66996     70.66996 
 6300000    373.67136   -144944.31   -143398.73    1075.3824    356544.58    71.393822    70.668618    70.668618 
 6400000    377.44225   -144947.04   -143385.87     893.3234    356544.58     71.39632    70.667382    70.667382 
 6500000    374.03704   -144926.32   -143379.23    1448.0542    356544.58    71.398605    70.666252    70.666252 
 6600000    376.65356   -144934.87   -143376.96    1333.7609    356544.58    71.400674    70.665227    70.665227 
 6700000    374.62193   -144938.07   -143388.56    1258.6003    356544.58    71.402529     70.66431     70.66431 
 6800000    376.15158   -144951.05   -143395.21    1188.4099    356544.58    71.404167    70.663499    70.663499 
 6900000    377.35489   -144953.46   -143392.64    999.13967    356544.58    71.405588    70.662796    70.662796 
 7000000    376.59433   -144957.45   -143399.78     874.7768    356544.58    71.406792      70.6622      70.6622 
 7100000    375.14201   -144933.86    -143382.2    1423.4488    356544.58    71.407777    70.661713    70.661713 
 7200000    374.93273   -144946.04   -143395.25    977.35532    356544.58    71.408544    70.661333    70.661333 
 7300000    372.24617   -144944.34   -143404.65    1207.8619    356544.58    71.409092    70.661062    70.661062 
 7400000    376.18065   -144935.66    -143379.7    1184.5493    356544.58    71.409421    70.660899    70.660899 
 7500000    374.03146   -144941.78   -143394.71    1340.5525    356544.58    71.409531    70.660845    70.660845 
 7600000    374.58492   -144941.17   -143391.82    1224.3385    356544.58    71.409421    70.660899    70.660899 
 7700000    373.73146   -144942.87   -143397.05     1479.824    356544.58    71.409092    70.661062    70.661062 
 7800000     378.8633   -144929.44   -143362.39    1273.6169    356544.58    71.408544    70.661333    70.661333 
 7900000    376.90323   -144940.87   -143381.92    1109.3809    356544.58    71.407777    70.661713    70.661713 
 8000000    376.70536   -144935.59   -143377.46    1308.6011    356544.58    71.406792      70.6622      70.6622 
 8100000    374.09453   -144941.23    -143393.9    1440.6695    356544.58    71.405588    70.662796    70.662796 
 8200000    374.32354   -144947.92   -143399.64    1204.0405    356544.58    71.404167    70.663499    70.663499 
 8300000    376.29513    -144934.2   -143377.77     1527.585    356544.58    71.402529     70.66431     70.66431 
 8400000    375.62084   -144933.33   -143379.69    1231.8604    356544.58    71.400674    70.665227    70.665227 
 8500000    371.27334   -144934.22   -143398.56    1213.5303    356544.58    71.398605    70.666252    70.666252 
 8600000    374.27175   -144944.48   -143396.42    1390.9671    356544.58     71.39632    70.667382    70.667382 
 8700000    374.27108   -144950.44   -143402.38    1180.1981    356544.58    71.393822    70.668618    70.668618 
 8800000    374.38834   -144944.66   -143396.12    841.31612    356544.58    71.391112     70.66996     70.66996 
 8900000    376.46451   -144933.49   -143376.36    1636.6717    356544.58     71.38819    70.671406    70.671406 
 9000000    374.32018   -144936.09   -143387.83    1338.9507    356544.58    71.385059    70.672956    70.672956 
 9100000     378.4121      -144935   -143369.81    1656.8273    356544.58    71.381719    70.674609    70.674609 
 9200000    375.54051   -144930.66   -143377.35    1367.9109    356544.58    71.378172    70.676365    70.676365 
 9300000    375.74593   -144959.87   -143405.71    867.39556    356544.58    71.374419    70.678223    70.678223 
 9400000    375.98482   -144948.42   -143393.27    979.06259    356544.58    71.370462    70.680182    70.680182 
 9500000     373.9475   -144943.86   -143397.14    1130.7973    356544.58    71.366303    70.682242    70.682242 
 9600000    373.87333    -144933.8   -143387.39    1113.1022    356544.58    71.361944    70.684401    70.684401 
 9700000     377.0036   -144942.53   -143383.17    1378.1339    356544.58    71.357387    70.686658    70.686658 
 9800000    377.67012   -144946.63   -143384.51    1281.5335    356544.58    71.352633    70.689013    70.689013 
 9900000    376.12098   -144936.16   -143380.45    1252.0177    356544.58    71.347684    70.691464    70.691464 
10000000    376.07984   -144940.69   -143385.15    1247.5217    356544.58    71.342543    70.694011    70.694011 
10100000    375.85381   -144942.62   -143388.02    1356.3488    356544.58    71.337213    70.696652    70.696652 
10200000    374.90182   -144942.98   -143392.31    1172.6261    356544.58    71.331695    70.699387    70.699387 
10300000    374.83394   -144936.85   -143386.47    1216.3057    356544.58    71.325991    70.702213    70.702213 
10400000    375.54706   -144934.39   -143381.05    1622.3011    356544.58    71.320105    70.705131    70.705131 
10500000    377.96021   -144934.77   -143371.45    1365.5035    356544.58    71.314039    70.708138    70.708138 
10600000    373.18012   -144952.33   -143408.78    1092.5278    356544.58    71.307796    70.711233    70.711233 
10700000    376.35244   -144939.63   -143382.97    1144.9549    356544.58    71.301377    70.714416    70.714416 
10800000    373.25526   -144930.08   -143386.23    1505.8497    356544.58    71.294787    70.717684    70.717684 
10900000    371.30325   -144949.84   -143414.06    1229.6199    356544.58    71.288028    70.721036    70.721036 
11000000    373.20952   -144939.62   -143395.95    1182.5132    356544.58    71.281103    70.724471    70.724471 
11100000    374.62279   -144943.97   -143394.46    1078.1074    356544.58    71.274015    70.727988    70.727988 
11200000    375.59138   -144942.76   -143389.24    1182.5911    356544.58    71.266767    70.731585    70.731585 
11300000     375.5861   -144948.24   -143394.74    1062.2997    356544.58    71.259362    70.735259    70.735259 
11400000    375.78177    -144956.8    -143402.5    881.72713    356544.58    71.251804    70.739011    70.739011 
11500000     373.8854   -144928.95   -143382.48    1710.6081    356544.58    71.244096    70.742838    70.742838 
11600000    373.36489   -144953.37   -143409.06    1046.2005    356544.58    71.236241    70.746738    70.746738 
11700000    376.28603   -144957.19    -143400.8    956.18122    356544.58    71.228243     70.75071     70.75071 
11800000    373.41075   -144926.34   -143381.84    1723.9402    356544.58    71.220105    70.754752    70.754752 
11900000     376.4258   -144946.12   -143389.15    1145.0517    356544.58     71.21183    70.758863    70.758863 
12000000    374.69686   -144953.91   -143404.09    1142.8718    356544.58    71.203423     70.76304     70.76304 
12100000    372.85011   -144944.15   -143401.97    1233.0252    356544.58    71.194888    70.767282    70.767282 
12200000    373.22388   -144945.84   -143402.11    1003.2732    356544.58    71.186226    70.771586    70.771586 
12300000    376.97445   -144940.39   -143381.15    1434.7695    356544.58    71.177444    70.775952    70.775952 
12400000    376.28386   -144946.02   -143389.63    1421.7244    356544.58    71.168544    70.780378    70.780378 
12500000     373.9862   -144939.77   -143392.89    1271.7677    356544.58    71.159531     70.78486     70.78486 
12600000    375.73043   -144938.31   -143384.22    1428.3138    356544.58    71.150408    70.789398    70.789398 
12700000    373.99701    -144943.9   -143396.97    1419.0441    356544.58    71.141179     70.79399     70.79399 
12800000    374.52169    -144947.1   -143398.01    1264.4213    356544.58    71.131848    70.798633    70.798633 
12900000     371.2371   -144944.68   -143409.18    1091.1914    356544.58     71.12242    70.803325    70.803325 
13000000      373.391   -144945.19   -143400.77    1187.2193    356544.58    71.112899    70.808065    70.808065 
13100000    375.79413   -144945.93   -143391.57    1177.6304    356544.58    71.103289     70.81285     70.81285 
13200000     375.4061   -144941.38   -143388.63    1204.2697    356544.58    71.093593    70.817678    70.817678 
13300000    376.86875   -144954.49   -143395.69     1102.951    356544.58    71.083817    70.822548    70.822548 
13400000    374.19221   -144947.88   -143400.15    1380.7643    356544.58    71.073964    70.827457    70.827457 
13500000    376.76657   -144941.04   -143382.66    1204.3318    356544.58    71.064039    70.832402    70.832402 
13600000    374.98976   -144938.54   -143387.51    1422.9532    356544.58    71.054047    70.837383    70.837383 
13700000    375.09988   -144942.91   -143391.42    1422.4501    356544.58    71.043991    70.842396    70.842396 
13800000    377.81056   -144930.61   -143367.91    1370.6014    356544.58    71.033876     70.84744     70.84744 
13900000    373.53005   -144948.24   -143403.24    1306.8493    356544.58    71.023706    70.852512    70.852512 
14000000    374.24499   -144941.41   -143393.46     1233.349    356544.58    71.013487     70.85761     70.85761 
14100000    373.48869   -144938.46   -143393.64    1324.7502    356544.58    71.003221    70.862732    70.862732 
14200000    373.39679   -144945.28   -143400.84    1341.2265    356544.58    70.992915    70.867875    70.867875 
14300000    375.39533   -144946.03   -143393.32    1269.1044    356544.58    70.982572    70.873038    70.873038 
14400000    376.98745   -144942.03   -143382.74    1186.7547    356544.58    70.972197    70.878218    70.878218 
14500000    376.25975   -144942.28      -143386    1457.2483    356544.58    70.961795    70.883413    70.883413 
14600000    375.26459    -144949.8   -143397.64    1076.8999    356544.58     70.95137    70.888621    70.888621 
14700000    370.27944    -144938.8   -143407.25    1131.8607    356544.58    70.940926    70.893838    70.893838 
14800000    374.55779   -144934.23   -143384.98    1315.7552    356544.58    70.930469    70.899064    70.899064 
14900000    374.37922   -144939.49   -143390.98    1476.3833    356544.58    70.920002    70.904296    70.904296 
15000000    372.99373      -144931   -143388.23    1754.2042    356544.58    70.909531    70.909531    70.909531 
15100000    375.18475   -144945.66   -143393.83    1496.1414    356544.58     70.89906    70.914767    70.914767 
15200000    375.38432   -144948.94   -143396.28    882.85742    356544.58    70.888593    70.920002    70.920002 
15300000     374.7997   -144949.54   -143399.29    1276.7507    356544.58    70.878135    70.925234    70.925234 
15400000    374.11294    -144940.3    -143392.9    1112.8921    356544.58    70.867692    70.930459    70.930459 
15500000    377.23156   -144954.41   -143394.11    1193.1083    356544.58    70.857266    70.935677    70.935677 
15600000     372.1031   -144952.71   -143413.62    1226.6055    356544.58    70.846864    70.940885    70.940885 
15700000    374.65818   -144939.18   -143389.52    1632.2211    356544.58    70.836489     70.94608     70.94608 
15800000    374.35852   -144941.34   -143392.92     1024.651    356544.58    70.826146     70.95126     70.95126 
15900000    373.69283    -144951.9   -143406.23    1252.2368    356544.58     70.81584    70.956423    70.956423 
16000000    374.87807   -144945.69   -143395.12    1162.1409    356544.58    70.805575    70.961566    70.961566 
16100000    375.67543   -144943.52   -143389.66     1058.811    356544.58    70.795355    70.966687    70.966687 
16200000    371.70116   -144942.32    -143404.9    1165.9631    356544.58    70.785186    70.971785    70.971785 
16300000     373.3348   -144942.86   -143398.68    1490.2052    356544.58    70.775071    70.976856    70.976856 
16400000    371.73644   -144938.35   -143400.78    1150.4478    356544.58    70.765015    70.981899    70.981899 
16500000    373.77733   -144941.09   -143395.07    1423.2086    356544.58    70.755022    70.986911    70.986911 
16600000    374.83022    -144942.6   -143392.23    1348.7095    356544.58    70.745097    70.991891    70.991891 
16700000    375.82557   -144952.32   -143397.83    930.04711    356544.58    70.735245    70.996835    70.996835 
16800000    377.86802   -144945.76   -143382.83    1146.6382    356544.58    70.725468    71.001741    71.001741 
16900000    374.81677   -144932.15   -143381.84    1739.2756    356544.58    70.715773    71.006609    71.006609 
17000000    378.00817   -144940.77   -143377.25    1295.3998    356544.58    70.706162    71.011434    71.011434 
17100000    376.38239    -144942.4   -143385.61    1113.4153    356544.58    70.696641    71.016216    71.016216 
17200000    376.79748   -144945.08   -143386.58    1227.4759    356544.58    70.687213    71.020952    71.020952 
17300000    377.56925   -144945.85   -143384.15    1253.3245    356544.58    70.677883    71.025639    71.025639 
17400000    376.97853   -144926.41   -143367.16    1787.3449    356544.58    70.668654    71.030277    71.030277 
17500000    377.31614   -144937.82   -143377.16    1310.6365    356544.58    70.659531    71.034862    71.034862 
17600000    374.21509   -144944.62   -143396.79    1438.1793    356544.58    70.650517    71.039393    71.039393 
17700000    375.85441   -144941.79   -143387.18    1273.6611    356544.58    70.641617    71.043868    71.043868 
17800000    378.13565   -144951.75   -143387.71    1119.6697    356544.58    70.632835    71.048285    71.048285 
17900000    372.25929   -144943.48   -143403.74    975.61964    356544.58    70.624174    71.052641    71.052641 
18000000    372.91143    -144939.3   -143396.86    1092.0582    356544.58    70.615638    71.056935    71.056935 
18100000    375.78264   -144941.64   -143387.33    1295.7938    356544.58    70.607231    71.061166    71.061166 
18200000    374.57039      -144956    -143406.7    803.80877    356544.58    70.598957     71.06533     71.06533 
18300000    377.68349    -144945.7   -143383.53    1047.7742    356544.58    70.590819    71.069426    71.069426 
18400000    374.46472    -144949.2   -143400.34    1082.9691    356544.58     70.58282    71.073453    71.073453 
18500000    377.52774    -144943.9   -143382.37    1216.0315    356544.58    70.574965    71.077408    71.077408 
18600000    377.07447   -144941.64   -143381.99    1600.9547    356544.58    70.567257     71.08129     71.08129 
18700000    372.94618   -144930.55   -143387.97    1478.1301    356544.58    70.559699    71.085096    71.085096 
18800000    373.48999   -144959.95   -143415.12    775.03222    356544.58    70.552294    71.088827    71.088827 
18900000    377.44134   -144940.92   -143379.75     1457.849    356544.58    70.545046    71.092478    71.092478 
19000000    375.75891   -144940.65   -143386.44    1211.9731    356544.58    70.537958     71.09605     71.09605 
19100000    376.23155   -144950.66   -143394.49    1279.0584    356544.58    70.531033     71.09954     71.09954 
19200000    376.27946   -144935.28   -143378.92    1196.3826    356544.58    70.524274    71.102948    71.102948 
19300000       373.26   -144937.47   -143393.59    1262.0646    356544.58    70.517684     71.10627     71.10627 
19400000    376.31329   -144932.12   -143375.61    1578.2582    356544.58    70.511266    71.109506    71.109506 
19500000    372.50108   -144940.58   -143399.84    1423.1668    356544.58    70.505022    71.112654    71.112654 
19600000    376.32573   -144933.81   -143377.25    1373.0255    356544.58    70.498956    71.115714    71.115714 
19700000    375.70794   -144931.87   -143377.87    1704.4814    356544.58     70.49307    71.118683    71.118683 
19800000    376.65252    -144933.8   -143375.89     1306.145    356544.58    70.487367     71.12156     71.12156 
19900000    373.31346   -144944.35   -143400.25    1026.3956    356544.58    70.481849    71.124344    71.124344 
20000000    373.36662   -144932.36   -143388.04    1592.4388    356544.58    70.476518    71.127034    71.127034 
20100000    376.02419    -144948.8    -143393.5    1151.2897    356544.58    70.471377    71.129628    71.129628 
20200000      375.726   -144942.08      -143388    1430.3477    356544.58    70.466429    71.132125    71.132125 
20300000    371.89686   -144941.66   -143403.42    1162.6423    356544.58    70.461675    71.134525    71.134525 
20400000    376.04364   -144942.25   -143386.86    1227.9701    356544.58    70.457117    71.136826    71.136826 
20500000    377.16459   -144935.19   -143375.17    1407.3413    356544.58    70.452758    71.139026    71.139026 
20600000      372.821   -144939.54   -143397.48    1281.0597    356544.58    70.448599    71.141126    71.141126 
20700000    375.09276   -144932.31   -143380.85    1284.1006    356544.58    70.444642    71.143124    71.143124 
20800000    377.76612   -144930.53   -143368.02    1501.5179    356544.58     70.44089    71.145019    71.145019 
20900000    373.20052   -144951.96   -143408.33    1115.3185    356544.58    70.437343    71.146811    71.146811 
21000000    373.93803   -144944.84   -143398.16    1203.0861    356544.58    70.434002    71.148497    71.148497 
21100000    377.47945   -144939.17   -143377.85    1150.8682    356544.58    70.430871    71.150079    71.150079 
21200000    375.19119   -144952.65   -143400.79    919.63618    356544.58    70.427949    71.151555    71.151555 
21300000    378.17784   -144948.01   -143383.79    1023.5526    356544.58    70.425239    71.152924    71.152924 
21400000    376.08305   -144928.45    -143372.9    1235.1028    356544.58    70.422741    71.154186    71.154186 
21500000    374.97754   -144939.96   -143388.98     1031.556    356544.58    70.420457     71.15534     71.15534 
21600000    375.82776   -144933.79    -143379.3     1468.752    356544.58    70.418387    71.156386    71.156386 
21700000    375.96125   -144935.38   -143380.33    1447.5997    356544.58    70.416533    71.157323    71.157323 
21800000    376.71486   -144938.89   -143380.72    1435.7597    356544.58    70.414895     71.15815     71.15815 
21900000    373.22836   -144938.45   -143394.71    1269.1518    356544.58    70.413473    71.158868    71.158868 
22000000    372.78925   -144946.57   -143404.64    1149.7665    356544.58     70.41227    71.159477    71.159477 
22100000    374.66799   -144938.73   -143389.03    1302.5759    356544.58    70.411284    71.159975    71.159975 
22200000    371.84249   -144951.18   -143413.16    826.74794    356544.58    70.410517    71.160362    71.160362 
22300000    373.56545   -144940.03   -143394.89    1249.6465    356544.58    70.409969    71.160639    71.160639 
22400000    374.02715   -144934.48   -143387.43     1242.828    356544.58     70.40964    71.160805    71.160805 
22500000    377.32785   -144929.94   -143369.23    1840.6608    356544.58    70.409531    71.160861    71.160861 
22600000    378.37619   -144937.81   -143372.78    1391.3604    356544.58     70.40964    71.160805    71.160805 
22700000     374.6868   -144933.59   -143383.81    1356.3567    356544.58    70.409969    71.160639    71.160639 
22800000    374.45765   -144946.12   -143397.29    1079.9203    356544.58    70.410517    71.160362    71.160362 
22900000    375.52995   -144945.34   -143392.08    1246.9555    356544.58    70.411284    71.159975    71.159975 
23000000    375.76608    -144936.4   -143382.16    1132.9209    356544.58     70.41227    71.159477    71.159477 
23100000    375.46105   -144940.44   -143387.46    1134.0398    356544.58    70.413473    71.158868    71.158868 
23200000    373.59739   -144945.37    -143400.1    1014.1038    356544.58    70.414895     71.15815     71.15815 
23300000    374.91436   -144939.01   -143388.29    1283.1443    356544.58    70.416533    71.157323    71.157323 
23400000    374.89575   -144931.16   -143380.52    1338.3327    356544.58    70.418387    71.156386    71.156386 
23500000    374.35954    -144936.2   -143387.78    1333.2359    356544.58    70.420457     71.15534     71.15534 
23600000    375.16585   -144940.34   -143388.58    1050.5299    356544.58    70.422741    71.154186    71.154186 
23700000    374.93313   -144943.32   -143392.52    1318.2935    356544.58    70.425239    71.152924    71.152924 
23800000    374.38415   -144945.62   -143397.09    1299.9122    356544.58    70.427949    71.151555    71.151555 
23900000    374.95247   -144927.64   -143376.77    1604.3329    356544.58    70.430871    71.150079    71.150079 
24000000    375.94502   -144943.71   -143388.72    1458.5793    356544.58    70.434002    71.148497    71.148497 
24100000    373.28487   -144934.62   -143390.64    1277.6988    356544.58    70.437343    71.146811    71.146811 
24200000    378.94924   -144945.18   -143377.77    1240.6633    356544.58     70.44089    71.145019    71.145019 
24300000    376.14209   -144938.58   -143382.78    1218.5123    356544.58    70.444642    71.143124    71.143124 
24400000    374.96739   -144947.35   -143396.42    1160.0413    356544.58    70.448599    71.141126    71.141126 
24500000    372.34684   -144948.21   -143408.11    1285.3553    356544.58    70.452758    71.139026    71.139026 
24600000    375.12102   -144943.23   -143391.66    1463.9465    356544.58    70.457117    71.136826    71.136826 
24700000    375.42095   -144947.06   -143394.25    1130.3937    356544.58    70.461675    71.134525    71.134525 
24800000    373.44916   -144950.06    -143405.4    1092.7918    356544.58    70.466429    71.132125    71.132125 
24900000     371.9712   -144934.65    -143396.1    1198.2754    356544.58    70.471377    71.129628    71.129628 
25000000    373.74008   -144933.43   -143387.57    1444.7753    356544.58    70.476518    71.127034    71.127034 
25100000     374.3608   -144941.97   -143393.54    1452.2222    356544.58    70.481849    71.124344    71.124344 
25200000    376.13985   -144933.05   -143377.26    1414.0783    356544.58    70.487367     71.12156     71.12156 
25300000    373.03572   -144946.85    -143403.9    1278.3458    356544.58     70.49307    71.118683    71.118683 
25400000     373.9263   -144942.24   -143395.61    1523.2091    356544.58    70.498956    71.115714    71.115714 
25500000    376.21704   -144934.46   -143378.36    1568.2676    356544.58    70.505022    71.112654    71.112654 
25600000     376.0437   -144946.95   -143391.56    1329.1128    356544.58    70.511266    71.109506    71.109506 
25700000    371.81793   -144951.27   -143413.36    1024.0586    356544.58    70.517684     71.10627     71.10627 
25800000    375.95122    -144943.7    -143388.7    1353.7526    356544.58    70.524274    71.102948    71.102948 
25900000    374.58194   -144926.41   -143377.07    1330.6364    356544.58    70.531033     71.09954     71.09954 
26000000    376.26432   -144929.22   -143372.92    1536.6836    356544.58    70.537958     71.09605     71.09605 
26100000    374.84213    -144961.6   -143411.18    885.85221    356544.58    70.545046    71.092478    71.092478 
26200000    376.13318   -144949.45   -143393.69    1368.2681    356544.58    70.552294    71.088827    71.088827 
26300000    374.52806   -144942.65   -143393.53    1060.1903    356544.58    70.559699    71.085096    71.085096 
26400000    373.50329   -144933.41   -143388.52    1176.6052    356544.58    70.567257     71.08129     71.08129 
26500000    375.70788    -144952.4    -143398.4    1000.5875    356544.58    70.574965    71.077408    71.077408 
26600000    375.99224   -144943.93   -143388.75    1241.0313    356544.58     70.58282    71.073453    71.073453 
26700000     374.5733   -144946.29   -143396.99    1345.7916    356544.58    70.590819    71.069426    71.069426 
26800000    374.03596   -144959.73   -143412.65    913.16918    356544.58    70.598957     71.06533     71.06533 
26900000    372.68356   -144944.31   -143402.81    1537.8515    356544.58    70.607231    71.061166    71.061166 
27000000    374.18186   -144938.05   -143390.36    1452.7791    356544.58    70.615638    71.056935    71.056935 
27100000     374.5219   -144942.06   -143392.97    1120.4685    356544.58    70.624174    71.052641    71.052641 
27200000    373.66712   -144933.78   -143388.22    1390.3762    356544.58    70.632835    71.048285    71.048285 
27300000    378.26721   -144957.92   -143393.33    1158.1306    356544.58    70.641617    71.043868    71.043868 
27400000    373.91315   -144947.07   -143400.49    1227.9618    356544.58    70.650517    71.039393    71.039393 
27500000    374.51333   -144946.99   -143397.93    1201.9456    356544.58    70.659531    71.034862    71.034862 
27600000    375.61819    -144947.8   -143394.17    1454.5661    356544.58    70.668654    71.030277    71.030277 
27700000    375.67139   -144960.87   -143407.02    1091.0976    356544.58    70.677883    71.025639    71.025639 
27800000    373.00367   -144936.32    -143393.5    1306.4273    356544.58    70.687213    71.020952    71.020952 
27900000    374.88468   -144942.67   -143392.08    1360.3934    356544.58    70.696641    71.016216    71.016216 
28000000    376.24588    -144938.6   -143382.37    1246.8002    356544.58    70.706162    71.011434    71.011434 
28100000    375.11728   -144952.98   -143401.42    1123.8847    356544.58    70.715773    71.006609    71.006609 
28200000    376.77293   -144945.71   -143387.31    1193.3992    356544.58    70.725468    71.001741    71.001741 
28300000    374.62959   -144954.93   -143405.39    1319.9088    356544.58    70.735245    70.996835    70.996835 
28400000    374.96422   -144945.53    -143394.6    1521.2968    356544.58    70.745097    70.991891    70.991891 
28500000    376.28708   -144946.13   -143389.73    1294.7594    356544.58    70.755022    70.986911    70.986911 
28600000    373.75297    -144948.8   -143402.89    1147.4704    356544.58    70.765015    70.981899    70.981899 
28700000     373.0405   -144953.95   -143410.98     1105.665    356544.58    70.775071    70.976856    70.976856 
28800000    373.04198   -144949.25   -143406.27    945.70542    356544.58    70.785186    70.971785    70.971785 
28900000    374.34515   -144949.65   -143401.29    1096.9268    356544.58    70.795355    70.966687    70.966687 
29000000    373.98265   -144937.14   -143390.27    1123.9466    356544.58    70.805575    70.961566    70.961566 
29100000    374.05451    -144945.6   -143398.43    1184.9227    356544.58     70.81584    70.956423    70.956423 
29200000    376.39898   -144934.71   -143377.85    1510.8534    356544.58    70.826146     70.95126     70.95126 
29300000    374.00949   -144940.81   -143393.83    1286.6759    356544.58    70.836489     70.94608     70.94608 
29400000    375.19676   -144954.83   -143402.95    881.14547    356544.58    70.846864    70.940885    70.940885 
29500000    375.05551   -144945.74   -143394.44    1308.9327    356544.58    70.857266    70.935677    70.935677 
29600000    375.60804   -144953.49    -143399.9    1033.5717    356544.58    70.867692    70.930459    70.930459 
29700000    371.80787   -144936.57    -143398.7    1477.7359    356544.58    70.878135    70.925234    70.925234 
29800000    374.65405   -144946.76   -143397.12    1382.5019    356544.58    70.888593    70.920002    70.920002 
29900000    376.76777   -144937.44   -143379.06    1445.9702    356544.58     70.89906    70.914767    70.914767 
30000000    375.18372   -144932.35   -143380.52    1569.3109    356544.58    70.909531    70.909531    70.909531 
30100000    375.73418   -144946.54   -143392.43    1525.2179    356544.58    70.920002    70.904296    70.904296 
30200000    374.06022   -144949.17   -143401.98    968.49135    356544.58    70.930469    70.899064    70.899064 
30300000    378.13692   -144954.57   -143390.52    1143.9198    356544.58    70.940926    70.893838    70.893838 
30400000    375.37317   -144933.86   -143381.25    1371.9237    356544.58     70.95137    70.888621    70.888621 
30500000    377.48747   -144935.49   -143374.12    1376.2046    356544.58    70.961795    70.883413    70.883413 
30600000    374.53579   -144939.68   -143390.53    1537.3214    356544.58    70.972197    70.878218    70.878218 
30700000    373.44556   -144952.83   -143408.19    1119.5453    356544.58    70.982572    70.873038    70.873038 
30800000    374.35219   -144952.44   -143404.05    1084.9971    356544.58    70.992915    70.867875    70.867875 
30900000    376.34497   -144939.68   -143383.04    1392.2077    356544.58    71.003221    70.862732    70.862732 
31000000    375.44303   -144938.75   -143385.84    1180.5956    356544.58    71.013487     70.85761     70.85761 
31100000    373.19991   -144953.63      -143410    1029.4432    356544.58    71.023706    70.852512    70.852512 
31200000    376.42742   -144945.26   -143388.28    1205.2932    356544.58    71.033876     70.84744     70.84744 
31300000    371.99884   -144944.15   -143405.49    1286.8832    356544.58    71.043991    70.842396    70.842396 
31400000    377.08175   -144961.82   -143402.13    1088.2751    356544.58    71.054047    70.837383    70.837383 
31500000    374.23108   -144955.52   -143407.62    926.69874    356544.58    71.064039    70.832402    70.832402 
31600000    375.51103   -144946.29    -143393.1    1162.3255    356544.58    71.073964    70.827457    70.827457 
31700000     375.7395   -144951.75   -143397.62    1140.3802    356544.58    71.083817    70.822548    70.822548 
31800000    376.06944    -144937.9    -143382.4    1840.8368    356544.58    71.093593    70.817678    70.817678 
31900000    376.79574   -144943.01   -143384.51    1372.1793    356544.58    71.103289     70.81285     70.81285 
32000000    372.97949   -144936.22    -143393.5    1337.5873    356544.58    71.112899    70.808065    70.808065 
32100000    377.31649   -144952.47   -143391.82    1047.4841    356544.58     71.12242    70.803325    70.803325 
32200000    375.29041   -144943.47   -143391.19     1057.899    356544.58    71.131848    70.798633    70.798633 
32300000    376.23084   -144945.13   -143388.97    1445.7467    356544.58    71.141179     70.79399     70.79399 
32400000    376.37992   -144942.12   -143385.33     1351.465    356544.58    71.150408    70.789398    70.789398 
32500000    374.96578   -144939.13    -143388.2    1451.5359    356544.58    71.159531     70.78486     70.78486 
32600000    374.16253   -144941.75   -143394.14    1368.2778    356544.58    71.168544    70.780378    70.780378 
32700000    374.91188   -144941.48   -143390.77    1471.2743    356544.58    71.177444    70.775952    70.775952 
32800000     374.1873   -144938.77   -143391.06    1277.2245    356544.58    71.186226    70.771586    70.771586 
32900000    377.81619   -144946.09   -143383.37    1101.7557    356544.58    71.194888    70.767282    70.767282 
33000000    373.76777   -144935.28    -143389.3    1489.6572    356544.58    71.203423     70.76304     70.76304 
33100000    372.44803   -144948.75   -143408.23     1010.931    356544.58     71.21183    70.758863    70.758863 
33200000    375.26515    -144942.4   -143390.23     1574.411    356544.58    71.220105    70.754752    70.754752 
33300000     373.8626   -144940.48   -143394.11    1284.2507    356544.58    71.228243     70.75071     70.75071 
33400000    372.58951   -144933.89   -143392.79    1783.4916    356544.58    71.236241    70.746738    70.746738 
33500000    376.05719   -144932.89   -143377.45    1573.3655    356544.58    71.244096    70.742838    70.742838 
33600000    376.88603   -144922.28   -143363.41    1688.5493    356544.58    71.251804    70.739011    70.739011 
33700000    376.07397   -144939.15   -143383.63    1578.7155    356544.58    71.259362    70.735259    70.735259 
33800000    375.22212      -144929      -143377    1732.6891    356544.58    71.266767    70.731585    70.731585 
33900000    374.15156   -144941.76    -143394.2    1303.2031    356544.58    71.274015    70.727988    70.727988 
34000000    375.12022   -144949.85   -143398.28    1304.0426    356544.58    71.281103    70.724471    70.724471 
34100000    374.63751   -144927.98    -143378.4    1410.5495    356544.58    71.288028    70.721036    70.721036 
34200000    375.75646   -144944.64   -143390.44    1486.9492    356544.58    71.294787    70.717684    70.717684 
34300000    371.45842    -144944.3   -143407.87    1097.1123    356544.58    71.301377    70.714416    70.714416 
34400000    373.66515    -144934.1   -143388.55    1779.7881    356544.58    71.307796    70.711233    70.711233 
34500000    374.65372   -144942.72   -143393.08    1284.7753    356544.58    71.314039    70.708138    70.708138 
34600000    375.90014   -144944.13   -143389.34    1205.5587    356544.58    71.320105    70.705131    70.705131 
34700000    373.29988   -144927.13   -143383.09    1445.5422    356544.58    71.325991    70.702213    70.702213 
34800000    376.63025   -144932.58   -143374.77    1321.2909    356544.58    71.331695    70.699387    70.699387 
34900000    372.50797   -144943.79   -143403.02    1132.3233    356544.58    71.337213    70.696652    70.696652 
35000000    374.44497   -144944.84   -143396.07    1131.2179    356544.58    71.342543    70.694011    70.694011 
35100000    376.61527   -144954.15   -143396.39    1169.3735    356544.58    71.347684    70.691464    70.691464 
35200000     376.1506   -144947.13    -143391.3    1205.6731    356544.58    71.352633    70.689013    70.689013 
35300000    374.81641   -144925.72    -143375.4    1731.3052    356544.58    71.357387    70.686658    70.686658 
35400000    374.81434    -144928.9   -143378.59    1672.8012    356544.58    71.361944    70.684401    70.684401 
35500000    372.92735   -144941.65   -143399.15    1244.4835    356544.58    71.366303    70.682242    70.682242 
35600000    373.77977    -144935.5   -143389.47     1507.971    356544.58    71.370462    70.680182    70.680182 
35700000    374.45376   -144943.56   -143394.75    1495.5907    356544.58    71.374419    70.678223    70.678223 
35800000    375.83242   -144933.16   -143378.64    1459.8051    356544.58    71.378172    70.676365    70.676365 
35900000    374.35199   -144950.56   -143402.16    1043.2708    356544.58    71.381719    70.674609    70.674609 
36000000    374.42694   -144938.91   -143390.21    1109.5034    356544.58    71.385059    70.672956    70.672956 
36100000     373.5461   -144936.26    -143391.2    1360.4535    356544.58     71.38819    70.671406    70.671406 
36200000     373.7737   -144951.72   -143405.72    1202.7817    356544.58    71.391112     70.66996     70.66996 
36300000    373.25379   -144940.94   -143397.09     1302.797    356544.58    71.393822    70.668618    70.668618 
36400000    375.25165   -144938.13   -143386.01    1388.3674    356544.58     71.39632    70.667382    70.667382 
36500000    375.27325    -144937.7   -143385.49    1306.5577    356544.58    71.398605    70.666252    70.666252 
36600000    374.24843   -144934.75   -143386.78    1449.4766    356544.58    71.400674    70.665227    70.665227 
36700000    375.40906   -144928.48   -143375.72    1668.2384    356544.58    71.402529     70.66431     70.66431 
36800000    375.47785   -144924.14   -143371.09    1577.3995    356544.58    71.404167    70.663499    70.663499 
36900000    375.85566   -144931.91   -143377.29    1425.1006    356544.58    71.405588    70.662796    70.662796 
37000000    375.05376   -144937.73   -143386.44    1487.5522    356544.58    71.406792      70.6622      70.6622 
37100000    376.09232   -144930.84   -143375.25    1538.3402    356544.58    71.407777    70.661713    70.661713 
37200000    375.63082   -144935.34   -143381.65    1263.8291    356544.58    71.408544    70.661333    70.661333 
37300000     374.3642    -144942.9   -143394.45    1385.0962    356544.58    71.409092    70.661062    70.661062 
37400000     373.2708   -144947.09   -143403.17    1405.2816    356544.58    71.409421    70.660899    70.660899 
37500000    373.54265   -144940.16   -143395.12    1343.3994    356544.58    71.409531    70.660845    70.660845 
37600000    373.96093    -144936.8   -143390.02    1275.4947    356544.58    71.409421    70.660899    70.660899 
37700000    373.61493   -144933.82   -143388.48    1288.7995    356544.58    71.409092    70.661062    70.661062 
37800000    374.96203   -144939.75   -143388.83    1425.9574    356544.58    71.408544    70.661333    70.661333 
37900000    375.15504   -144937.63   -143385.92    1356.2595    356544.58    71.407777    70.661713    70.661713 
38000000    375.49759   -144944.93    -143391.8    1398.1166    356544.58    71.406792      70.6622      70.6622 
38100000    376.40815   -144929.64   -143372.74    1634.1222    356544.58    71.405588    70.662796    70.662796 
38200000    373.22513   -144933.74   -143390.01    1620.0175    356544.58    71.404167    70.663499    70.663499 
38300000    375.23167   -144951.07   -143399.03    1195.6246    356544.58    71.402529     70.66431     70.66431 
38400000    376.41008   -144937.02   -143380.11    1164.5974    356544.58    71.400674    70.665227    70.665227 
38500000    372.36061   -144940.99   -143400.84    1153.2739    356544.58    71.398605    70.666252    70.666252 
38600000    374.33313   -144938.54   -143390.23    1337.3524    356544.58     71.39632    70.667382    70.667382 
38700000    374.59619   -144931.51   -143382.11    1451.9765    356544.58    71.393822    70.668618    70.668618 
38800000    376.96529   -144949.84   -143390.63    1389.6193    356544.58    71.391112     70.66996     70.66996 
38900000    378.64932   -144938.46   -143372.29    1323.2303    356544.58     71.38819    70.671406    70.671406 
39000000    373.90198   -144938.37   -143391.84    1368.5512    356544.58    71.385059    70.672956    70.672956 
39100000    375.15853   -144943.01   -143391.28    1271.1426    356544.58    71.381719    70.674609    70.674609 
39200000    376.19753   -144941.35   -143385.32    1553.9344    356544.58    71.378172    70.676365    70.676365 
39300000    373.94864   -144944.03   -143397.31    1217.1819    356544.58    71.374419    70.678223    70.678223 
39400000    374.91981   -144943.09   -143392.35    1486.9963    356544.58    71.370462    70.680182    70.680182 
39500000    377.55739    -144935.9   -143374.24    1423.3366    356544.58    71.366303    70.682242    70.682242 
39600000     371.6721   -144950.71    -143413.4    1118.1437    356544.58    71.361944    70.684401    70.684401 
39700000    374.00647   -144936.39   -143389.43    1520.9199    356544.58    71.357387    70.686658    70.686658 
39800000    374.04628   -144937.16   -143390.03    1451.1959    356544.58    71.352633    70.689013    70.689013 
39900000    374.59941   -144941.24   -143391.82    1598.3999    356544.58    71.347684    70.691464    70.691464 
40000000    372.75629   -144944.26   -143402.46    1477.5908    356544.58    71.342543    70.694011    70.694011 
40100000    375.82318   -144944.65   -143390.17    1515.3184    356544.58    71.337213    70.696652    70.696652 
40200000    376.86006   -144932.93   -143374.17    1527.4914    356544.58    71.331695    70.699387    70.699387 
40300000    375.86705   -144932.46    -143377.8    1405.8567    356544.58    71.325991    70.702213    70.702213 
40400000    378.26143   -144945.05   -143380.49    1194.0154    356544.58    71.320105    70.705131    70.705131 
40500000    373.97293   -144937.46   -143390.63    1150.1421    356544.58    71.314039    70.708138    70.708138 
40600000    372.67381   -144950.79   -143409.34     972.6356    356544.58    71.307796    70.711233    70.711233 
40700000    373.22632   -144939.68   -143395.94    1040.5534    356544.58    71.301377    70.714416    70.714416 
40800000    376.93866   -144941.67   -143382.58    1245.0193    356544.58    71.294787    70.717684    70.717684 
40900000    371.92659   -144939.15   -143400.79    1243.7807    356544.58    71.288028    70.721036    70.721036 
41000000    374.00512   -144950.44   -143403.48    1056.6076    356544.58    71.281103    70.724471    70.724471 
41100000    374.76534   -144938.85   -143388.74    1408.1284    356544.58    71.274015    70.727988    70.727988 
41200000    373.15739    -144940.7   -143397.24    1515.8608    356544.58    71.266767    70.731585    70.731585 
41300000    373.87557    -144954.3   -143407.88    1127.2418    356544.58    71.259362    70.735259    70.735259 
41400000    375.50561   -144940.64   -143387.48    1163.0325    356544.58    71.251804    70.739011    70.739011 
41500000    374.99286   -144940.92   -143389.87    1347.5121    356544.58    71.244096    70.742838    70.742838 
41600000    370.98211    -144936.3   -143401.84    1135.4649    356544.58    71.236241    70.746738    70.746738 
41700000    372.30299   -144938.16   -143398.25    1232.5591    356544.58    71.228243     70.75071     70.75071 
41800000    375.79849    -144932.6   -143378.23     1361.107    356544.58    71.220105    70.754752    70.754752 
41900000    375.43895   -144939.79    -143386.9    1197.1694    356544.58     71.21183    70.758863    70.758863 
42000000    373.60804   -144938.07   -143392.75    1398.9194    356544.58    71.203423     70.76304     70.76304 
42100000    376.76126      -144937   -143378.64    1628.2355    356544.58    71.194888    70.767282    70.767282 
42200000    378.33624   -144917.42   -143352.54    1788.5364    356544.58    71.186226    70.771586    70.771586 
42300000    372.54964    -144940.2   -143399.26    1577.0318    356544.58    71.177444    70.775952    70.775952 
42400000    373.73648   -144939.33   -143393.49    1380.1467    356544.58    71.168544    70.780378    70.780378 
42500000    377.56615   -144942.02   -143380.33    1110.1843    356544.58    71.159531     70.78486     70.78486 
42600000    374.87819   -144939.63   -143389.06    1249.4678    356544.58    71.150408    70.789398    70.789398 
42700000      376.287   -144951.35   -143394.95    835.73189    356544.58    71.141179     70.79399     70.79399 
42800000    374.03651   -144942.16   -143395.07    1114.7232    356544.58    71.131848    70.798633    70.798633 
42900000    374.30596   -144948.66   -143400.46    1147.2452    356544.58     71.12242    70.803325    70.803325 
43000000    377.84782   -144926.41   -143363.56    1707.4115    356544.58    71.112899    70.808065    70.808065 
43100000    372.78321   -144942.94   -143401.03    1153.2977    356544.58    71.103289     70.81285     70.81285 
43200000    374.50568   -144944.38   -143395.35     1164.341    356544.58    71.093593    70.817678    70.817678 
43300000     376.8212   -144949.98   -143391.37    1085.1859    356544.58    71.083817    70.822548    70.822548 
43400000    374.17772   -144949.22   -143401.54    1106.2138    356544.58    71.073964    70.827457    70.827457 
43500000    375.57542   -144944.01   -143390.55    1093.0426    356544.58    71.064039    70.832402    70.832402 
43600000    375.72957   -144941.06   -143386.97    1203.1457    356544.58    71.054047    70.837383    70.837383 
43700000     375.3766   -144937.53   -143384.89    1353.2095    356544.58    71.043991    70.842396    70.842396 
43800000    377.25532    -144944.8    -143384.4    1413.9847    356544.58    71.033876     70.84744     70.84744 
43900000    372.95222   -144937.17   -143394.56    1323.8878    356544.58    71.023706    70.852512    70.852512 
44000000    374.45592    -144950.3   -143401.48    904.64066    356544.58    71.013487     70.85761     70.85761 
44100000    376.34041   -144951.12    -143394.5    1030.3001    356544.58    71.003221    70.862732    70.862732 
44200000    378.27748   -144935.77   -143371.14     1631.666    356544.58    70.992915    70.867875    70.867875 
44300000    377.30027   -144935.56   -143374.97    1137.3698    356544.58    70.982572    70.873038    70.873038 
44400000    375.33425   -144953.34   -143400.89    1158.0177    356544.58    70.972197    70.878218    70.878218 
44500000    372.00334   -144932.26   -143393.58    1353.9491    356544.58    70.961795    70.883413    70.883413 
44600000    371.65868   -144945.18   -143407.92    1147.6995    356544.58     70.95137    70.888621    70.888621 
44700000    378.09228   -144941.05   -143377.18    1411.9907    356544.58    70.940926    70.893838    70.893838 
44800000    376.21452   -144948.64   -143392.54     1231.193    356544.58    70.930469    70.899064    70.899064 
44900000    373.35023   -144937.79   -143393.54     1236.532    356544.58    70.920002    70.904296    70.904296 
45000000    375.54065   -144947.01    -143393.7    1148.5284    356544.58    70.909531    70.909531    70.909531 
45100000    373.83776   -144938.71   -143392.44      1216.73    356544.58     70.89906    70.914767    70.914767 
45200000    375.33814   -144947.43   -143394.96     1218.179    356544.58    70.888593    70.920002    70.920002 
45300000    374.29875   -144943.51   -143395.34    1294.0099    356544.58    70.878135    70.925234    70.925234 
45400000    375.28018   -144947.52   -143395.29    1235.2136    356544.58    70.867692    70.930459    70.930459 
45500000    374.86296   -144950.15   -143399.64    1013.3481    356544.58    70.857266    70.935677    70.935677 
45600000     373.3158   -144939.47   -143395.36    1431.5655    356544.58    70.846864    70.940885    70.940885 
45700000     372.0028   -144944.38    -143405.7    991.07957    356544.58    70.836489     70.94608     70.94608 
45800000    375.60043   -144941.03   -143387.47    1548.3208    356544.58    70.826146     70.95126     70.95126 
45900000    375.54009   -144942.17   -143388.86    1372.7585    356544.58     70.81584    70.956423    70.956423 
46000000    374.77651   -144943.79   -143393.64    1061.6947    356544.58    70.805575    70.961566    70.961566 
46100000    375.28408   -144938.46   -143386.21    1580.1892    356544.58    70.795355    70.966687    70.966687 
46200000    376.70388   -144930.69   -143372.57     1417.782    356544.58    70.785186    70.971785    70.971785 
46300000     374.0599   -144937.33   -143390.14    1770.1179    356544.58    70.775071    70.976856    70.976856 
46400000     376.6179   -144942.99   -143385.22    1236.5543    356544.58    70.765015    70.981899    70.981899 
46500000    374.29531   -144930.21   -143382.05    1495.9028    356544.58    70.755022    70.986911    70.986911 
46600000    373.73746   -144949.22   -143403.37    1344.8643    356544.58    70.745097    70.991891    70.991891 
46700000    375.07384   -144957.82   -143406.44    1201.9461    356544.58    70.735245    70.996835    70.996835 
46800000    375.13761   -144946.32   -143394.68    1233.8374    356544.58    70.725468    71.001741    71.001741 
46900000    373.75561   -144947.69   -143401.77    1053.8701    356544.58    70.715773    71.006609    71.006609 
47000000    376.28206   -144943.31   -143386.93    977.08223    356544.58    70.706162    71.011434    71.011434 
47100000    376.80764   -144944.08   -143385.53    1214.6814    356544.58    70.696641    71.016216    71.016216 
47200000    375.04487   -144942.87   -143391.61    1147.9049    356544.58    70.687213    71.020952    71.020952 
47300000    373.55552   -144943.53   -143398.43    1248.3771    356544.58    70.677883    71.025639    71.025639 
47400000    376.35174    -144936.9   -143380.24    1477.5205    356544.58    70.668654    71.030277    71.030277 
47500000    373.16098   -144935.42   -143391.95    1600.5578    356544.58    70.659531    71.034862    71.034862 
47600000    373.94538   -144922.97   -143376.26    1685.5543    356544.58    70.650517    71.039393    71.039393 
47700000    378.58029   -144936.63   -143370.75    1301.9018    356544.58    70.641617    71.043868    71.043868 
47800000    377.55083   -144929.28   -143367.65    1265.3669    356544.58    70.632835    71.048285    71.048285 
47900000    374.27188    -144941.3   -143393.24    1331.4916    356544.58    70.624174    71.052641    71.052641 
48000000    375.24442   -144931.97   -143379.89    1456.4523    356544.58    70.615638    71.056935    71.056935 
48100000    373.65822   -144925.44   -143379.92    1379.6503    356544.58    70.607231    71.061166    71.061166 
48200000    374.11323   -144942.27   -143394.86    1233.8794    356544.58    70.598957     71.06533     71.06533 
48300000    375.97302   -144948.02   -143392.92    1140.0117    356544.58    70.590819    71.069426    71.069426 
48400000    373.52466   -144946.64   -143401.67    1200.5622    356544.58     70.58282    71.073453    71.073453 
48500000    374.27422   -144932.41   -143384.34    1314.7463    356544.58    70.574965    71.077408    71.077408 
48600000    375.92319   -144941.35   -143386.46    1382.0769    356544.58    70.567257     71.08129     71.08129 
48700000    376.73312   -144944.28   -143386.04    1496.1519    356544.58    70.559699    71.085096    71.085096 
48800000    373.63145   -144942.31    -143396.9    1288.7976    356544.58    70.552294    71.088827    71.088827 
48900000    373.83149   -144937.67   -143391.43    1339.6756    356544.58    70.545046    71.092478    71.092478 
49000000    370.75081   -144945.94   -143412.44    1234.4938    356544.58    70.537958     71.09605     71.09605 
49100000    372.06082   -144936.12   -143397.21    1343.5857    356544.58    70.531033     71.09954     71.09954 
49200000    373.82179   -144940.42   -143394.22    1349.9049    356544.58    70.524274    71.102948    71.102948 
49300000    374.32241   -144935.33   -143387.06    1385.4754    356544.58    70.517684     71.10627     71.10627 
49400000    374.53648   -144938.02   -143388.86    1135.1149    356544.58    70.511266    71.109506    71.109506 
49500000    374.87607   -144934.43   -143383.87    1248.9852    356544.58    70.505022    71.112654    71.112654 
49600000    374.78604   -144940.08   -143389.89    1334.0874    356544.58    70.498956    71.115714    71.115714 
49700000    376.24957   -144928.82   -143372.57     1303.652    356544.58     70.49307    71.118683    71.118683 
49800000     375.1995   -144938.34   -143386.44    1150.2957    356544.58    70.487367     71.12156     71.12156 
49900000    375.17733   -144928.28   -143376.48    1470.1741    356544.58    70.481849    71.124344    71.124344 
50000000    375.86443   -144950.59   -143395.95    1012.9357    356544.58    70.476518    71.127034    71.127034 
50100000    372.89558   -144941.06   -143398.69    1080.8283    356544.58    70.471377    71.129628    71.129628 
50200000    374.88039   -144935.58      -143385    1371.7127    356544.58    70.466429    71.132125    71.132125 
50300000    374.73523    -144942.7   -143392.72    1327.6431    356544.58    70.461675    71.134525    71.134525 
50400000    373.62717   -144938.15   -143392.75    1351.3011    356544.58    70.457117    71.136826    71.136826 
50500000    374.79382   -144931.79   -143381.57    1462.5753    356544.58    70.452758    71.139026    71.139026 
50600000     374.7978   -144934.89   -143384.65    1523.2506    356544.58    70.448599    71.141126    71.141126 
50700000    376.42001   -144923.62   -143366.67    1517.6344    356544.58    70.444642    71.143124    71.143124 
50800000    378.77097   -144948.57    -143381.9    1134.6028    356544.58     70.44089    71.145019    71.145019 
50900000    372.85185   -144931.82   -143389.63    1532.2034    356544.58    70.437343    71.146811    71.146811 
51000000    375.09196   -144939.08   -143387.62    1313.9958    356544.58    70.434002    71.148497    71.148497 
51100000    373.58353   -144938.21   -143392.99    1392.8894    356544.58    70.430871    71.150079    71.150079 
51200000    372.45023   -144956.39   -143415.86    1080.6848    356544.58    70.427949    71.151555    71.151555 
51300000    373.68873   -144942.21   -143396.56    1227.5019    356544.58    70.425239    71.152924    71.152924 
51400000    373.65204   -144937.59   -143392.09    1349.2445    356544.58    70.422741    71.154186    71.154186 
51500000     375.9471    -144936.3   -143381.31    1275.8572    356544.58    70.420457     71.15534     71.15534 
51600000    376.15699   -144941.79   -143385.93    1456.2971    356544.58    70.418387    71.156386    71.156386 
51700000    374.45837   -144940.07   -143391.23    1221.6879    356544.58    70.416533    71.157323    71.157323 
51800000    374.17169   -144929.71   -143382.06    1512.0677    356544.58    70.414895     71.15815     71.15815 
51900000    373.74452   -144939.47   -143393.59    1405.1925    356544.58    70.413473    71.158868    71.158868 
52000000     376.8104   -144934.66    -143376.1    1272.7826    356544.58     70.41227    71.159477    71.159477 
52100000    376.99475   -144931.88   -143372.56     1441.459    356544.58    70.411284    71.159975    71.159975 
52200000    373.85271   -144940.29   -143393.96    1141.4368    356544.58    70.410517    71.160362    71.160362 
52300000    376.75473   -144934.72   -143376.39    1532.0149    356544.58    70.409969    71.160639    71.160639 
52400000     375.7365   -144945.68   -143391.56    1092.7252    356544.58     70.40964    71.160805    71.160805 
52500000    374.58624    -144944.1   -143394.74    1317.8498    356544.58    70.409531    71.160861    71.160861 
52600000     375.7825   -144932.85   -143378.54    1431.3071    356544.58     70.40964    71.160805    71.160805 
52700000    375.60887   -144949.85   -143396.26     1124.133    356544.58    70.409969    71.160639    71.160639 
52800000    375.31687   -144936.95   -143384.57    1300.6174    356544.58    70.410517    71.160362    71.160362 
52900000    375.39144   -144948.97   -143396.28     1086.606    356544.58    70.411284    71.159975    71.159975 
53000000    372.10132   -144945.12   -143406.04    1155.8499    356544.58     70.41227    71.159477    71.159477 
53100000    375.38575   -144935.15   -143382.49    1375.7402    356544.58    70.413473    71.158868    71.158868 
53200000     373.6645   -144942.65    -143397.1    1225.6073    356544.58    70.414895     71.15815     71.15815 
53300000    372.51554   -144936.84   -143396.05     1284.408    356544.58    70.416533    71.157323    71.157323 
53400000    372.65108   -144942.18   -143400.83    1260.1701    356544.58    70.418387    71.156386    71.156386 
53500000    378.93777   -144938.18   -143370.82    1307.6559    356544.58    70.420457     71.15534     71.15534 
53600000    375.68775   -144930.15   -143376.23    1464.5013    356544.58    70.422741    71.154186    71.154186 
53700000     374.1686   -144940.97   -143393.34     1265.691    356544.58    70.425239    71.152924    71.152924 
53800000    377.23138   -144939.93   -143379.62    1299.9277    356544.58    70.427949    71.151555    71.151555 
53900000    375.46129   -144921.07   -143368.09     1842.788    356544.58    70.430871    71.150079    71.150079 
54000000    376.96529   -144950.05   -143390.84     1328.081    356544.58    70.434002    71.148497    71.148497 
54100000    378.39385   -144935.38   -143370.27    1106.0041    356544.58    70.437343    71.146811    71.146811 
54200000    376.06418   -144941.45   -143385.98    1561.6924    356544.58     70.44089    71.145019    71.145019 
54300000    376.07383    -144952.5   -143396.99    995.63762    356544.58    70.444642    71.143124    71.143124 
54400000    376.21638    -144938.6    -143382.5    1463.2986    356544.58    70.448599    71.141126    71.141126 
54500000    376.47743    -144938.9   -143381.72    1441.5706    356544.58    70.452758    71.139026    71.139026 
54600000    372.65835   -144924.81   -143383.43    1362.3443    356544.58    70.457117    71.136826    71.136826 
54700000    372.30385   -144939.17   -143399.25    1609.4324    356544.58    70.461675    71.134525    71.134525 
54800000    373.93184   -144953.83   -143407.18    971.97332    356544.58    70.466429    71.132125    71.132125 
54900000    378.49841   -144941.43   -143375.89    1281.5683    356544.58    70.471377    71.129628    71.129628 
55000000    373.96001   -144935.71   -143388.94    1511.3709    356544.58    70.476518    71.127034    71.127034 
55100000    374.59798   -144934.26   -143384.85    1574.5783    356544.58    70.481849    71.124344    71.124344 
55200000    374.67981   -144944.73   -143394.98    1405.9884    356544.58    70.487367     71.12156     71.12156 
55300000    376.53245   -144957.54   -143400.13    1091.7916    356544.58     70.49307    71.118683    71.118683 
55400000    373.44586   -144934.05    -143389.4    1444.1088    356544.58    70.498956    71.115714    71.115714 
55500000    375.95259    -144940.1   -143385.08    1261.7017    356544.58    70.505022    71.112654    71.112654 
55600000    375.64404   -144936.87   -143383.14    1412.4293    356544.58    70.511266    71.109506    71.109506 
55700000    373.75091   -144935.43   -143389.52    1503.9051    356544.58    70.517684     71.10627     71.10627 
55800000    372.83729   -144953.02   -143410.89    897.22794    356544.58    70.524274    71.102948    71.102948 
55900000    373.75266    -144928.7   -143382.79    1265.3559    356544.58    70.531033     71.09954     71.09954 
56000000    373.49287   -144934.29   -143389.45     1377.045    356544.58    70.537958     71.09605     71.09605 
56100000    373.84029    -144928.7   -143382.42    1691.6839    356544.58    70.545046    71.092478    71.092478 
56200000     372.0678   -144941.64    -143402.7    1213.8225    356544.58    70.552294    71.088827    71.088827 
56300000     373.2536   -144938.31   -143394.47    1550.1993    356544.58    70.559699    71.085096    71.085096 
56400000    374.32494   -144950.17   -143401.88    1088.4476    356544.58    70.567257     71.08129     71.08129 
56500000    376.34823   -144935.17   -143378.52    1511.2974    356544.58    70.574965    71.077408    71.077408 
56600000    376.42508    -144953.7   -143396.73    1010.4421    356544.58     70.58282    71.073453    71.073453 
56700000    379.26256   -144946.94   -143378.24    1345.5571    356544.58    70.590819    71.069426    71.069426 
56800000    372.82967    -144948.9   -143406.81    1158.4788    356544.58    70.598957     71.06533     71.06533 
56900000     376.8584   -144941.63   -143382.87    1344.4867    356544.58    70.607231    71.061166    71.061166 
57000000     374.6026    -144934.6   -143385.17    1294.9448    356544.58    70.615638    71.056935    71.056935 
57100000    376.67793   -144933.22   -143375.21      1445.73    356544.58    70.624174    71.052641    71.052641 
57200000    375.54338   -144932.02    -143378.7    1469.0915    356544.58    70.632835    71.048285    71.048285 
57300000     376.4565    -144946.5    -143389.4    1127.7115    356544.58    70.641617    71.043868    71.043868 
57400000      375.922   -144950.08    -143395.2    960.22877    356544.58    70.650517    71.039393    71.039393 
57500000    374.25845   -144959.62   -143411.61    896.44605    356544.58    70.659531    71.034862    71.034862 
57600000    375.69276   -144935.32   -143381.38    1382.8201    356544.58    70.668654    71.030277    71.030277 
57700000     374.9428   -144937.56   -143386.72    1243.1376    356544.58    70.677883    71.025639    71.025639 
57800000    375.71279    -144947.2   -143393.18    1240.5196    356544.58    70.687213    71.020952    71.020952 
57900000    377.86326   -144943.39   -143380.47    1210.0997    356544.58    70.696641    71.016216    71.016216 
58000000    374.11761   -144942.45   -143395.03     1111.012    356544.58    70.706162    71.011434    71.011434 
58100000    375.15377   -144943.03   -143391.32    1226.8613    356544.58    70.715773    71.006609    71.006609 
58200000    375.41337   -144936.76   -143383.98    1416.8925    356544.58    70.725468    71.001741    71.001741 
58300000    376.39164   -144938.55   -143381.72    1442.8347    356544.58    70.735245    70.996835    70.996835 
58400000    373.41159   -144938.61   -143394.11    1271.6401    356544.58    70.745097    70.991891    70.991891 
58500000    376.04464   -144953.31   -143397.91     1000.745    356544.58    70.755022    70.986911    70.986911 
58600000    371.57106   -144943.47   -143406.58    902.97997    356544.58    70.765015    70.981899    70.981899 
58700000    375.42955   -144936.15    -143383.3    1255.8982    356544.58    70.775071    70.976856    70.976856 
58800000    374.41478   -144944.59   -143395.94    1145.5412    356544.58    70.785186    70.971785    70.971785 
58900000    374.59497    -144945.1   -143395.71    1135.9975    356544.58    70.795355    70.966687    70.966687 
59000000    376.96055   -144939.08   -143379.89    1496.9048    356544.58    70.805575    70.961566    70.961566 
59100000    373.51041   -144945.49   -143400.58    1406.1131    356544.58     70.81584    70.956423    70.956423 
59200000    374.68267   -144947.15   -143397.39    1288.3427    356544.58    70.826146     70.95126     70.95126 
59300000    377.37957   -144933.55   -143372.64    1274.8966    356544.58    70.836489     70.94608     70.94608 
59400000    377.99631   -144945.58   -143382.11    1293.4061    356544.58    70.846864    70.940885    70.940885 
59500000     373.9447   -144944.21    -143397.5     1359.193    356544.58    70.857266    70.935677    70.935677 
59600000    373.99264   -144945.02   -143398.11    1291.3475    356544.58    70.867692    70.930459    70.930459 
59700000    373.74863   -144948.01   -143402.12    1076.6737    356544.58    70.878135    70.925234    70.925234 
59800000    370.79288      -144941   -143407.33    1386.9957    356544.58    70.888593    70.920002    70.920002 
59900000    376.19515    -144938.1   -143382.08    1167.9934    356544.58     70.89906    70.914767    70.914767 
60000000     376.2511    -144944.7   -143388.45    1091.3406    356544.58    70.909531    70.909531    70.909531 
60100000    377.91151    -144948.3   -143385.19    1186.5848    356544.58    70.920002    70.904296    70.904296 
60200000    375.79701   -144949.33   -143394.96    1098.3577    356544.58    70.930469    70.899064    70.899064 
60300000    374.57762   -144940.17   -143390.84    1332.5613    356544.58    70.940926    70.893838    70.893838 
60400000    377.46559    -144937.4   -143376.13    1066.8251    356544.58     70.95137    70.888621    70.888621 
60500000    374.77784    -144938.3   -143388.15    1327.3792    356544.58    70.961795    70.883413    70.883413 
60600000    374.27741   -144938.98    -143390.9    1192.9424    356544.58    70.972197    70.878218    70.878218 
60700000    374.12751   -144948.97   -143401.51    974.75894    356544.58    70.982572    70.873038    70.873038 
60800000    376.74736   -144953.91   -143395.61    1118.0496    356544.58    70.992915    70.867875    70.867875 
60900000    377.55522   -144948.81   -143387.16    1215.8632    356544.58    71.003221    70.862732    70.862732 
61000000     378.0876   -144950.42   -143386.58    1066.8653    356544.58    71.013487     70.85761     70.85761 
61100000    373.32819   -144937.04   -143392.88    1171.3455    356544.58    71.023706    70.852512    70.852512 
61200000    377.20019   -144942.12   -143381.95    981.36096    356544.58    71.033876     70.84744     70.84744 
61300000     370.0634   -144938.86    -143408.2    1347.9603    356544.58    71.043991    70.842396    70.842396 
61400000    377.57496   -144955.61   -143393.89    990.92967    356544.58    71.054047    70.837383    70.837383 
61500000    372.28048   -144939.68   -143399.86    1384.9986    356544.58    71.064039    70.832402    70.832402 
61600000    378.19952   -144955.48   -143391.17    937.10192    356544.58    71.073964    70.827457    70.827457 
61700000    376.38912   -144944.44   -143387.62    1302.5608    356544.58    71.083817    70.822548    70.822548 
61800000    372.99751   -144941.35   -143398.56    1480.5506    356544.58    71.093593    70.817678    70.817678 
61900000    378.49722   -144937.35   -143371.82     1215.389    356544.58    71.103289     70.81285     70.81285 
62000000    376.03857   -144941.69   -143386.32    1290.3851    356544.58    71.112899    70.808065    70.808065 
62100000    374.40364   -144942.08   -143393.47    1236.4058    356544.58     71.12242    70.803325    70.803325 
62200000    375.07756    -144934.5    -143383.1    1555.0285    356544.58    71.131848    70.798633    70.798633 
62300000    375.12562    -144921.9    -143370.3    1642.7193    356544.58    71.141179     70.79399     70.79399 
62400000    374.88106   -144940.65   -143390.07    1015.0592    356544.58    71.150408    70.789398    70.789398 
62500000    375.40133   -144954.02   -143401.28    1065.8406    356544.58    71.159531     70.78486     70.78486 
62600000     375.6982   -144946.44   -143392.48    903.93812    356544.58    71.168544    70.780378    70.780378 
62700000    377.56319   -144943.22   -143381.54    1193.7372    356544.58    71.177444    70.775952    70.775952 
62800000    373.78119   -144950.69   -143404.66    1248.8346    356544.58    71.186226    70.771586    70.771586 
62900000    376.24314   -144944.94   -143388.72    1062.3129    356544.58    71.194888    70.767282    70.767282 
63000000     374.1841   -144954.53   -143406.84    809.76386    356544.58    71.203423     70.76304     70.76304 
63100000    379.95882   -144943.21   -143371.62    1194.3049    356544.58     71.21183    70.758863    70.758863 
63200000    372.93088   -144936.53   -143394.01    992.11512    356544.58    71.220105    70.754752    70.754752 
63300000    376.50156   -144949.05   -143391.77    968.81936    356544.58    71.228243     70.75071     70.75071 
63400000    375.31407   -144946.18   -143393.81    1083.8763    356544.58    71.236241    70.746738    70.746738 
63500000    373.81673    -144934.3   -143388.12     1285.105    356544.58    71.244096    70.742838    70.742838 
63600000     372.1358   -144941.89   -143402.67    998.19577    356544.58    71.251804    70.739011    70.739011 
63700000    376.93555   -144937.68    -143378.6     1664.738    356544.58    71.259362    70.735259    70.735259 
63800000     376.5069   -144933.53   -143376.22    1432.7772    356544.58    71.266767    70.731585    70.731585 
63900000    378.00792   -144944.96   -143381.45    1485.8837    356544.58    71.274015    70.727988    70.727988 
64000000    375.85409   -144944.87   -143390.27    1303.3925    356544.58    71.281103    70.724471    70.724471 
64100000     377.0587   -144944.99    -143385.4    1038.2448    356544.58    71.288028    70.721036    70.721036 
64200000    373.15798   -144952.51   -143409.05    1159.9127    356544.58    71.294787    70.717684    70.717684 
64300000    375.65442   -144927.72   -143373.94    1639.1455    356544.58    71.301377    70.714416    70.714416 
64400000    375.96473   -144941.34   -143386.28     1242.938    356544.58    71.307796    70.711233    70.711233 
64500000    373.70856   -144948.88   -143403.15    1407.6617    356544.58    71.314039    70.708138    70.708138 
64600000    374.36111   -144940.66   -143392.23    1150.5858    356544.58    71.320105    70.705131    70.705131 
64700000    373.59646   -144937.73   -143392.46    997.11682    356544.58    71.325991    70.702213    70.702213 
64800000    374.97667   -144931.13   -143380.15    1325.2213    356544.58    71.331695    70.699387    70.699387 
64900000    374.02227   -144947.24   -143400.21    1227.4149    356544.58    71.337213    70.696652    70.696652 
65000000    375.27471   -144941.97   -143389.76    1091.4136    356544.58    71.342543    70.694011    70.694011 
65100000    373.88291   -144935.81   -143389.35    1115.4438    356544.58    71.347684    70.691464    70.691464 
65200000    374.94516   -144934.97   -143384.12    1380.7252    356544.58    71.352633    70.689013    70.689013 
65300000    378.06614   -144940.55    -143376.8     1088.468    356544.58    71.357387    70.686658    70.686658 
65400000    371.84947   -144935.26   -143397.22    1181.2959    356544.58    71.361944    70.684401    70.684401 
65500000    377.40813   -144938.66   -143377.63     1130.981    356544.58    71.366303    70.682242    70.682242 
65600000    374.50713    -144923.2   -143374.17     1750.686    356544.58    71.370462    70.680182    70.680182 
65700000    376.68669   -144940.51   -143382.46    1206.9376    356544.58    71.374419    70.678223    70.678223 
65800000    374.03427   -144944.75   -143397.67    1060.6441    356544.58    71.378172    70.676365    70.676365 
65900000    379.48127   -144930.57   -143360.96    1432.4058    356544.58    71.381719    70.674609    70.674609 
66000000    376.34464    -144941.3   -143384.67     911.8631    356544.58    71.385059    70.672956    70.672956 
66100000     376.6805   -144933.45   -143375.42    1599.5498    356544.58     71.38819    70.671406    70.671406 
66200000    377.53192   -144923.33   -143361.78    1782.4912    356544.58    71.391112     70.66996     70.66996 
66300000    373.24681   -144924.03   -143380.21    1733.4857    356544.58    71.393822    70.668618    70.668618 
66400000    373.36527   -144938.64   -143394.33    1180.4658    356544.58     71.39632    70.667382    70.667382 
66500000    373.70341   -144923.76   -143378.05    1618.4941    356544.58    71.398605    70.666252    70.666252 
66600000    374.93644   -144940.96   -143390.15    1177.9933    356544.58    71.400674    70.665227    70.665227 
66700000    378.62211      -144931   -143364.94    1461.4592    356544.58    71.402529     70.66431     70.66431 
66800000    371.44791   -144933.25   -143396.87    1353.8876    356544.58    71.404167    70.663499    70.663499 
66900000    377.15982   -144934.03   -143374.02     1273.838    356544.58    71.405588    70.662796    70.662796 
67000000    374.00719   -144939.09   -143392.12    1210.3132    356544.58    71.406792      70.6622      70.6622 
67100000     374.4183   -144948.76   -143400.09    1257.4014    356544.58    71.407777    70.661713    70.661713 
67200000    374.98708   -144941.12    -143390.1    1188.2636    356544.58    71.408544    70.661333    70.661333 
67300000    372.89382   -144925.05   -143382.68    1593.6543    356544.58    71.409092    70.661062    70.661062 
67400000    373.97826   -144948.13   -143401.29    803.12245    356544.58    71.409421    70.660899    70.660899 
67500000    375.45404   -144934.01   -143381.06    1569.4866    356544.58    71.409531    70.660845    70.660845 
67600000     373.7505   -144927.41   -143381.51    1307.6785    356544.58    71.409421    70.660899    70.660899 
67700000    371.11078   -144953.76   -143418.77      1259.61    356544.58    71.409092    70.661062    70.661062 
67800000    374.81064   -144936.53   -143386.24    1477.5706    356544.58    71.408544    70.661333    70.661333 
67900000    375.30529   -144944.33   -143391.99     1236.118    356544.58    71.407777    70.661713    70.661713 
68000000    376.23429   -144936.75   -143380.57    1642.8244    356544.58    71.406792      70.6622      70.6622 
68100000    371.22705   -144931.36   -143395.89    1270.6062    356544.58    71.405588    70.662796    70.662796 
68200000    372.53756   -144932.04   -143391.15    1442.5764    356544.58    71.404167    70.663499    70.663499 
68300000    377.22323   -144940.91   -143380.64    1204.1304    356544.58    71.402529     70.66431     70.66431 
68400000    375.31103   -144952.27   -143399.91    1241.8254    356544.58    71.400674    70.665227    70.665227 
68500000    377.07768    -144939.4   -143379.74    1251.7098    356544.58    71.398605    70.666252    70.666252 
68600000    377.24226   -144942.09   -143381.74    1247.4181    356544.58     71.39632    70.667382    70.667382 
68700000    374.35409   -144939.82   -143391.42    1249.9617    356544.58    71.393822    70.668618    70.668618 
68800000    372.68554   -144949.49   -143407.99     950.7163    356544.58    71.391112     70.66996     70.66996 
68900000    374.54061   -144935.46   -143386.29    1345.9466    356544.58     71.38819    70.671406    70.671406 
[...]
133400000    373.01251   -144952.47   -143409.62    979.01678    356544.58    71.073964    70.827457    70.827457 
133500000    374.92039   -144949.28   -143398.54    1288.3486    356544.58    71.064039    70.832402    70.832402 
133600000    376.61482   -144945.96   -143388.21     1154.153    356544.58    71.054047    70.837383    70.837383 
133700000    375.65776   -144932.18   -143378.38    1630.4871    356544.58    71.043991    70.842396    70.842396 
133800000    375.02024   -144946.43   -143395.27    1278.2248    356544.58    71.033876     70.84744     70.84744 
133900000    375.78874   -144949.46   -143395.12     875.9664    356544.58    71.023706    70.852512    70.852512 
134000000    375.60082   -144938.92   -143385.36    1224.3688    356544.58    71.013487     70.85761     70.85761 
134100000    375.17141   -144946.05   -143394.27    1108.1597    356544.58    71.003221    70.862732    70.862732 
134200000    372.07368   -144937.24   -143398.27    1447.8742    356544.58    70.992915    70.867875    70.867875 
134300000    375.82434   -144946.21   -143391.73    1213.1582    356544.58    70.982572    70.873038    70.873038 
134400000    374.22914   -144958.11   -143410.23    1377.1478    356544.58    70.972197    70.878218    70.878218 
134500000    376.43033   -144939.55   -143382.56    1380.7854    356544.58    70.961795    70.883413    70.883413 
134600000     374.2992   -144946.94   -143398.76    1161.0897    356544.58     70.95137    70.888621    70.888621 
134700000    376.35615   -144957.54   -143400.86    1190.9053    356544.58    70.940926    70.893838    70.893838 
134800000    373.59933   -144945.68    -143400.4     1223.819    356544.58    70.930469    70.899064    70.899064 
134900000    375.34082   -144946.82   -143394.34    1368.1583    356544.58    70.920002    70.904296    70.904296 
135000000    376.14858   -144951.44   -143395.62    1221.0755    356544.58    70.909531    70.909531    70.909531 
135100000    375.20534   -144946.61   -143394.69    1404.2179    356544.58     70.89906    70.914767    70.914767 
135200000    374.75268    -144946.7   -143396.65     880.6997    356544.58    70.888593    70.920002    70.920002 
135300000    377.61218   -144937.28    -143375.4    1016.8064    356544.58    70.878135    70.925234    70.925234 
135400000    376.30786   -144937.98    -143381.5    1302.7492    356544.58    70.867692    70.930459    70.930459 
135500000    373.02583   -144939.44   -143396.53    1262.2203    356544.58    70.857266    70.935677    70.935677 
135600000    373.11741   -144946.32   -143403.03    1256.6169    356544.58    70.846864    70.940885    70.940885 
135700000    370.52445   -144931.12   -143398.56    1365.4192    356544.58    70.836489     70.94608     70.94608 
135800000    375.66277   -144947.84   -143394.03    912.04722    356544.58    70.826146     70.95126     70.95126 
135900000    374.10213   -144939.05   -143391.69     1497.068    356544.58     70.81584    70.956423    70.956423 
136000000    373.50258   -144947.15   -143402.27    1193.0719    356544.58    70.805575    70.961566    70.961566 
136100000    376.28074    -144939.8   -143383.43     1144.539    356544.58    70.795355    70.966687    70.966687 
136200000    373.11055   -144945.71   -143402.45    1083.6071    356544.58    70.785186    70.971785    70.971785 
136300000    376.21021   -144940.76   -143384.69    1530.4395    356544.58    70.775071    70.976856    70.976856 
136400000    375.44487   -144934.67   -143381.75    1483.9201    356544.58    70.765015    70.981899    70.981899 
136500000    373.70783   -144956.35   -143410.62    1042.2984    356544.58    70.755022    70.986911    70.986911 
136600000    371.91373    -144946.5   -143408.19    1293.7511    356544.58    70.745097    70.991891    70.991891 
136700000    373.17797    -144936.7   -143393.16    1380.0629    356544.58    70.735245    70.996835    70.996835 
136800000    374.33497   -144953.34   -143405.01    1059.8667    356544.58    70.725468    71.001741    71.001741 
136900000     376.3932   -144929.74   -143372.91    1617.9054    356544.58    70.715773    71.006609    71.006609 
137000000     376.6656   -144947.76    -143389.8    1332.2081    356544.58    70.706162    71.011434    71.011434 
137100000    375.56537   -144945.58   -143392.17    1300.6783    356544.58    70.696641    71.016216    71.016216 
137200000    372.50999    -144933.4   -143392.63    1592.2157    356544.58    70.687213    71.020952    71.020952 
137300000    374.94195   -144953.51   -143402.67    907.90016    356544.58    70.677883    71.025639    71.025639 
137400000    377.00477   -144939.24   -143379.87     1408.715    356544.58    70.668654    71.030277    71.030277 
137500000    374.52565   -144942.21    -143393.1    1425.6568    356544.58    70.659531    71.034862    71.034862 
137600000    375.68375   -144940.57   -143386.67    1402.4234    356544.58    70.650517    71.039393    71.039393 
137700000    374.52111   -144949.82   -143400.72    1421.9006    356544.58    70.641617    71.043868    71.043868 
137800000    375.61011    -144951.1   -143397.51    1102.3094    356544.58    70.632835    71.048285    71.048285 
137900000     375.0567   -144940.01   -143388.71    1730.5923    356544.58    70.624174    71.052641    71.052641 
138000000    375.47873   -144945.32   -143392.27    1312.1934    356544.58    70.615638    71.056935    71.056935 
138100000    371.33511    -144939.7   -143403.78    1524.2616    356544.58    70.607231    71.061166    71.061166 
138200000    375.60253   -144949.49   -143395.92    1076.0523    356544.58    70.598957     71.06533     71.06533 
138300000     373.7201   -144947.02   -143401.24    1114.2664    356544.58    70.590819    71.069426    71.069426 
138400000    373.45807   -144935.36   -143390.66    1393.8577    356544.58     70.58282    71.073453    71.073453 
138500000    376.57039   -144951.85   -143394.28    987.86361    356544.58    70.574965    71.077408    71.077408 
138600000    378.24897   -144945.62   -143381.11    1406.9924    356544.58    70.567257     71.08129     71.08129 
138700000    373.68144   -144941.16   -143395.54    1157.7158    356544.58    70.559699    71.085096    71.085096 
138800000    373.77668   -144931.21   -143385.19    1418.4247    356544.58    70.552294    71.088827    71.088827 
138900000    377.39347   -144936.22   -143375.25    1343.8936    356544.58    70.545046    71.092478    71.092478 
139000000     376.3033   -144936.34   -143379.88    1452.7987    356544.58    70.537958     71.09605     71.09605 
139100000    377.12987   -144936.48   -143376.59    1149.6125    356544.58    70.531033     71.09954     71.09954 
139200000    373.73915   -144940.35   -143394.49    1355.8662    356544.58    70.524274    71.102948    71.102948 
139300000    373.88239   -144934.79   -143388.34    1411.4519    356544.58    70.517684     71.10627     71.10627 
139400000    378.40372   -144927.89   -143362.74    1806.7329    356544.58    70.511266    71.109506    71.109506 
139500000    373.74358   -144935.96   -143390.08    1449.4744    356544.58    70.505022    71.112654    71.112654 
139600000    373.56403   -144936.66   -143391.53    1399.3289    356544.58    70.498956    71.115714    71.115714 
139700000    373.50218    -144947.1   -143402.23     1351.327    356544.58     70.49307    71.118683    71.118683 
139800000    373.98358   -144951.73   -143404.86     1022.907    356544.58    70.487367     71.12156     71.12156 
139900000    373.43242   -144933.98   -143389.39    1768.5972    356544.58    70.481849    71.124344    71.124344 
140000000    376.10668   -144938.51   -143382.86    1336.5006    356544.58    70.476518    71.127034    71.127034 
140100000    373.75568    -144944.3   -143398.37    1225.1018    356544.58    70.471377    71.129628    71.129628 
140200000    372.28155   -144950.84   -143411.01    1249.2263    356544.58    70.466429    71.132125    71.132125 
140300000    372.59514   -144938.81   -143397.68     1236.048    356544.58    70.461675    71.134525    71.134525 
140400000    373.63048   -144933.34   -143387.93    1587.7476    356544.58    70.457117    71.136826    71.136826 
140500000    374.72536   -144940.89   -143390.95    1445.0829    356544.58    70.452758    71.139026    71.139026 
140600000    375.76917   -144933.73   -143379.47    1354.0387    356544.58    70.448599    71.141126    71.141126 
140700000      378.296   -144940.12   -143375.41    1440.8742    356544.58    70.444642    71.143124    71.143124 
140800000    375.87845   -144933.97   -143379.27     1542.502    356544.58     70.44089    71.145019    71.145019 
140900000    375.17107   -144937.61   -143385.82    1500.9797    356544.58    70.437343    71.146811    71.146811 
141000000     378.9962   -144952.06   -143384.46    1040.2122    356544.58    70.434002    71.148497    71.148497 
141100000    375.87622   -144921.37   -143366.67    1396.2757    356544.58    70.430871    71.150079    71.150079 
141200000    377.17324   -144942.66    -143382.6     1210.468    356544.58    70.427949    71.151555    71.151555 
141300000    376.13005   -144960.88   -143405.13    1404.8061    356544.58    70.425239    71.152924    71.152924 
141400000    374.75123   -144935.02   -143384.97    1587.4662    356544.58    70.422741    71.154186    71.154186 
141500000    373.35481   -144943.14   -143398.87    1294.6112    356544.58    70.420457     71.15534     71.15534 
141600000     373.4231   -144930.63   -143386.07    1369.7185    356544.58    70.418387    71.156386    71.156386 
141700000    371.67631   -144948.81   -143411.48    1088.2654    356544.58    70.416533    71.157323    71.157323 
141800000     376.7997   -144948.56   -143390.04    1136.4651    356544.58    70.414895     71.15815     71.15815 
141900000    374.79197   -144941.33   -143391.11    1596.3171    356544.58    70.413473    71.158868    71.158868 
142000000     377.8807      -144941   -143378.01    1574.4485    356544.58     70.41227    71.159477    71.159477 
142100000    373.46357   -144938.18   -143393.46    1508.1427    356544.58    70.411284    71.159975    71.159975 
142200000    373.77948   -144948.62   -143402.59    1337.8574    356544.58    70.410517    71.160362    71.160362 
142300000    371.72153   -144939.16   -143401.65    1118.6463    356544.58    70.409969    71.160639    71.160639 
142400000     374.0029   -144942.83   -143395.88    1195.2368    356544.58     70.40964    71.160805    71.160805 
142500000    374.66495   -144941.08   -143391.39    1526.8506    356544.58    70.409531    71.160861    71.160861 
142600000    376.13467   -144928.83   -143373.07    1495.7855    356544.58     70.40964    71.160805    71.160805 
142700000    373.82434   -144944.43   -143398.22     1219.113    356544.58    70.409969    71.160639    71.160639 
142800000    375.68588   -144937.21    -143383.3    1208.4549    356544.58    70.410517    71.160362    71.160362 
142900000    376.41333    -144951.5   -143394.58    967.67922    356544.58    70.411284    71.159975    71.159975 
143000000    376.45828   -144936.99   -143379.88    1444.0902    356544.58     70.41227    71.159477    71.159477 
143100000    371.55182   -144943.34   -143406.53    1119.2613    356544.58    70.413473    71.158868    71.158868 
143200000    374.28088   -144941.07   -143392.97     1270.893    356544.58    70.414895     71.15815     71.15815 
143300000     373.2191    -144938.5   -143394.79     1218.402    356544.58    70.416533    71.157323    71.157323 
143400000    380.99255   -144951.51   -143375.65    1107.5186    356544.58    70.418387    71.156386    71.156386 
143500000    374.95568   -144935.82   -143384.93    1485.3293    356544.58    70.420457     71.15534     71.15534 
143600000    374.68493   -144926.39   -143376.62    1548.5784    356544.58    70.422741    71.154186    71.154186 
143700000    374.76941   -144927.12      -143377    1579.0346    356544.58    70.425239    71.152924    71.152924 
143800000    373.07124   -144932.15   -143389.05    1214.6927    356544.58    70.427949    71.151555    71.151555 
143900000    373.44329   -144942.98   -143398.35    1560.3809    356544.58    70.430871    71.150079    71.150079 
144000000    377.01657   -144923.63   -143364.22    1407.1844    356544.58    70.434002    71.148497    71.148497 
144100000     377.5525   -144934.65   -143373.02    1464.8764    356544.58    70.437343    71.146811    71.146811 
144200000    374.15675   -144939.39   -143391.81    1277.7928    356544.58     70.44089    71.145019    71.145019 
144300000     372.9158   -144935.51   -143393.06    1422.3567    356544.58    70.444642    71.143124    71.143124 
144400000    370.20756   -144937.65    -143406.4    1181.4707    356544.58    70.448599    71.141126    71.141126 
144500000    376.15083   -144932.14    -143376.3    1417.6921    356544.58    70.452758    71.139026    71.139026 
144600000    377.16799   -144962.35   -143402.31    1190.9341    356544.58    70.457117    71.136826    71.136826 
144700000    373.34354   -144943.08   -143398.86    1374.9835    356544.58    70.461675    71.134525    71.134525 
144800000    371.75478   -144938.91   -143401.26    1299.7272    356544.58    70.466429    71.132125    71.132125 
144900000    375.77534   -144942.14   -143387.86    1559.4721    356544.58    70.471377    71.129628    71.129628 
145000000    376.04906   -144938.22   -143382.81    1371.4726    356544.58    70.476518    71.127034    71.127034 
145100000    374.43093   -144936.84   -143388.13    1162.2085    356544.58    70.481849    71.124344    71.124344 
145200000    374.79756   -144950.11   -143399.87    1324.1374    356544.58    70.487367     71.12156     71.12156 
145300000    370.41722   -144938.82    -143406.7    1470.1578    356544.58     70.49307    71.118683    71.118683 
145400000    374.80477    -144940.1   -143389.84    1242.7559    356544.58    70.498956    71.115714    71.115714 
145500000    377.11457   -144942.18   -143382.36    1626.9195    356544.58    70.505022    71.112654    71.112654 
145600000    375.87447   -144930.67   -143375.98    1295.5124    356544.58    70.511266    71.109506    71.109506 
145700000    376.06055   -144939.42   -143383.96    1352.2847    356544.58    70.517684     71.10627     71.10627 
145800000    375.61374   -144933.59   -143379.98    1366.2515    356544.58    70.524274    71.102948    71.102948 
145900000    376.19843   -144923.57   -143367.54    1592.4811    356544.58    70.531033     71.09954     71.09954 
146000000    371.43043   -144956.61    -143420.3    886.65989    356544.58    70.537958     71.09605     71.09605 
146100000    372.78774   -144935.96   -143394.04    1003.9076    356544.58    70.545046    71.092478    71.092478 
146200000    373.29901   -144949.88   -143405.84    1109.4391    356544.58    70.552294    71.088827    71.088827 
146300000    372.67535   -144949.29   -143407.83      1365.97    356544.58    70.559699    71.085096    71.085096 
146400000    373.43875   -144942.63   -143398.01    1147.6509    356544.58    70.567257     71.08129     71.08129 
146500000    375.98404   -144946.78   -143391.64    1193.8086    356544.58    70.574965    71.077408    71.077408 
146600000    373.54625    -144937.4   -143392.34    1469.3027    356544.58     70.58282    71.073453    71.073453 
146700000    375.51968   -144949.88   -143396.66    1110.6885    356544.58    70.590819    71.069426    71.069426 
146800000    375.46657   -144953.21   -143400.21    1079.3885    356544.58    70.598957     71.06533     71.06533 
146900000    376.30864   -144929.57   -143373.08    1606.3854    356544.58    70.607231    71.061166    71.061166 
147000000    376.23223   -144949.54   -143393.37    1050.8583    356544.58    70.615638    71.056935    71.056935 
147100000    374.89196   -144939.94   -143389.32    1419.4174    356544.58    70.624174    71.052641    71.052641 
147200000    376.19611   -144927.13   -143371.11     1590.909    356544.58    70.632835    71.048285    71.048285 
147300000    375.26306    -144954.3   -143402.14    850.11492    356544.58    70.641617    71.043868    71.043868 
147400000    375.11656   -144950.66    -143399.1    1147.1999    356544.58    70.650517    71.039393    71.039393 
147500000    372.79151   -144955.12   -143413.18    1027.4041    356544.58    70.659531    71.034862    71.034862 
147600000    373.94418   -144948.03   -143401.32     1514.346    356544.58    70.668654    71.030277    71.030277 
147700000    375.19839   -144949.43   -143397.54    1056.8332    356544.58    70.677883    71.025639    71.025639 
147800000    373.53947   -144934.06   -143389.02    1531.7177    356544.58    70.687213    71.020952    71.020952 
147900000    374.58242   -144938.13   -143388.79    1262.6404    356544.58    70.696641    71.016216    71.016216 
148000000    375.57325   -144961.48   -143408.04    942.06336    356544.58    70.706162    71.011434    71.011434 
148100000      376.867   -144949.21   -143390.41    1073.2755    356544.58    70.715773    71.006609    71.006609 
148200000    374.37176   -144941.57   -143393.09    1209.5382    356544.58    70.725468    71.001741    71.001741 
148300000    377.73726   -144946.43   -143384.03    1222.0095    356544.58    70.735245    70.996835    70.996835 
148400000    376.84504   -144951.49   -143392.79    1009.2997    356544.58    70.745097    70.991891    70.991891 
148500000      375.132   -144939.23   -143387.61    1344.5268    356544.58    70.755022    70.986911    70.986911 
148600000    371.26797   -144939.97   -143404.33    1478.8888    356544.58    70.765015    70.981899    70.981899 
148700000    375.31445    -144964.7   -143412.32    993.44545    356544.58    70.775071    70.976856    70.976856 
148800000    374.53947   -144955.62   -143406.45     1140.064    356544.58    70.785186    70.971785    70.971785 
148900000    375.10592   -144934.07   -143382.55    1575.7417    356544.58    70.795355    70.966687    70.966687 
149000000    374.81039   -144947.32   -143397.03    1411.7388    356544.58    70.805575    70.961566    70.961566 
149100000    374.11661   -144941.93   -143394.51    1480.7577    356544.58     70.81584    70.956423    70.956423 
149200000    375.02622   -144940.77   -143389.59    1215.3697    356544.58    70.826146     70.95126     70.95126 
149300000    374.35421   -144926.76   -143378.36    1662.1978    356544.58    70.836489     70.94608     70.94608 
149400000    374.45175   -144955.34   -143406.53    1047.8479    356544.58    70.846864    70.940885    70.940885 
149500000     377.1658   -144936.81   -143376.78    1486.5316    356544.58    70.857266    70.935677    70.935677 
149600000    375.68826    -144950.8   -143396.88    1221.4579    356544.58    70.867692    70.930459    70.930459 
149700000    376.82174   -144942.98   -143384.37    1159.0593    356544.58    70.878135    70.925234    70.925234 
149800000    377.27912   -144955.67   -143395.17    1201.0213    356544.58    70.888593    70.920002    70.920002 
149900000    377.43086   -144933.09   -143371.97    1479.9971    356544.58     70.89906    70.914767    70.914767 
150000000    374.75026   -144953.38   -143403.34    1038.6083    356544.58    70.909531    70.909531    70.909531 
Loop time of 327056 on 120 procs (120 MPI x 1 OpenMP) for 150000000 steps with 32000 atoms

Pair  time (%) = 241485 (73.8358)
Neigh time (%) = 10662.1 (3.26002)
Comm  time (%) = 51693.4 (15.8057)
Outpt time (%) = 2.02458 (0.000619031)
Other time (%) = 23214 (7.09787)

Nlocal:    266.667 ave 275 max 257 min
Histogram: 4 2 11 13 11 28 25 13 9 4
Nghost:    2533.07 ave 2553 max 2507 min
Histogram: 1 2 7 12 25 19 24 15 8 7
Neighs:    30802.3 ave 32789 max 28579 min
Histogram: 1 3 16 18 19 14 19 17 9 4

Total # of neighbors = 3696279
Ave neighs/atom = 115.509
Neighbor list builds = 9802731
Dangerous builds = 0
write_restart  dms300ns_375-10c.rst
clear
WARNING: OMP_NUM_THREADS environment is not set. (../comm.cpp:89)
  using 1 OpenMP thread(s) per MPI task
#jump YDMA395-300ns.lmp
