units           metal
boundary        p p p
atom_style      atomic
read_data      /HOME/hust_hbyu_1/Samples/Ni80P20_C20/dat/T560.dat
  orthogonal box = (-35.5703 -35.5703 -35.5703) to (35.5703 35.5703 35.5703)
  4 by 5 by 6 MPI processor grid
  reading atoms ...
  32000 atoms
  reading velocities ...
  32000 velocities
pair_style      eam/alloy
pair_coeff      * *   /HOME/hust_hbyu_1/Samples/Ni80P20_C20/dat/NiP.lammps.eam Ni P
mass            1  58.69
mass			2  30.97
neigh_modify    delay 5
timestep 0.01
thermo 100000
reset_timestep 0
thermo_style custom step temp pe etotal press vol lx ly lz
fix             1 all nvt temp 560 560 0.5
thermo_modify flush yes
fix dsf all deform 1 x  wiggle 0.5    300000.0   y volume z volume units box
fix ps1 all ave/time 1 1 300000 c_thermo_press[1] c_thermo_press[2]  c_thermo_press[3] c_thermo_press[4]  c_thermo_press[5] c_thermo_press[6]  file  YDMA560K-stress-300ns.txt
dump            1 all custom 10000000 YDMA560K-300ns.lammpstrj id type x y z
dump_modify 1 sort id
run 150000000
Neighbor list info ...
  1 neighbor list requests
  update every 1 steps, delay 5 steps, check yes
  master list distance cutoff = 8.5
  ghost atom cutoff = 8.5
Memory usage per processor = 3.51205 Mbytes
Step Temp PotEng TotEng Press Volume Lx Ly Lz 
       0     557.8149   -144031.49   -141724.26     2022.967    360041.71    71.140614    71.140614    71.140614 
  100000    560.52309   -143932.64    -141614.2    3570.4456    360041.71    71.151085    71.135379    71.135379 
  200000    559.78418   -143932.61   -141617.24    3454.0252    360041.71    71.161551    71.130147    71.130147 
  300000     556.9685   -143938.67   -141634.94    3389.1298    360041.71    71.172009    71.124921    71.124921 
  400000    554.94767   -143921.85   -141626.47    3655.2593    360041.71    71.182453    71.119703    71.119703 
  500000    560.06984   -143924.19   -141607.63    3726.4283    360041.71    71.192878    71.114496    71.114496 
  600000    557.46071   -143926.78   -141621.02    3647.9412    360041.71     71.20328    71.109301    71.109301 
  700000    561.71986    -143917.4   -141594.02    3865.0574    360041.71    71.213655    71.104121    71.104121 
  800000    558.59964    -143913.6   -141603.12     4162.529    360041.71    71.223998    71.098958    71.098958 
  900000    560.63368   -143931.92   -141613.03    3546.4817    360041.71    71.234304    71.093815    71.093815 
 1000000    558.41543   -143954.88   -141645.17    3549.9217    360041.71     71.24457    71.088693    71.088693 
 1100000    556.86648   -143913.27   -141609.96    4210.6681    360041.71    71.254789    71.083595    71.083595 
 1200000     562.1905   -143927.05   -141601.73    3692.2995    360041.71    71.264959    71.078523    71.078523 
 1300000    560.61996   -143928.69   -141609.86    3528.5079    360041.71    71.275074    71.073479    71.073479 
 1400000    562.17364   -143923.89   -141598.63    3856.1597    360041.71     71.28513    71.068466    71.068466 
 1500000    557.98589    -143925.7   -141617.76    3594.4292    360041.71    71.295122    71.063485    71.063485 
 1600000    556.01329   -143915.38    -141615.6     3872.804    360041.71    71.305047    71.058539    71.058539 
 1700000     555.3654   -143922.22   -141625.12    3894.8354    360041.71      71.3149     71.05363     71.05363 
 1800000    560.33439   -143898.65      -141581    4147.4338    360041.71    71.324676    71.048761    71.048761 
 1900000    562.90991   -143906.49   -141578.19    4007.6076    360041.71    71.334371    71.043932    71.043932 
 2000000    559.37679   -143906.76   -141593.07     3893.939    360041.71    71.343982    71.039147    71.039147 
 2100000    554.56178   -143918.05   -141624.27    3716.3394    360041.71    71.353503    71.034407    71.034407 
 2200000    558.61749   -143923.18   -141612.63    3873.9502    360041.71    71.362931    71.029715    71.029715 
 2300000     561.5809    -143932.8   -141609.99    3324.8157    360041.71    71.372262    71.025072    71.025072 
 2400000    558.38538   -143922.89    -141613.3    3432.3725    360041.71     71.38149     71.02048     71.02048 
 2500000    558.75349   -143909.79   -141598.67    3572.0953    360041.71    71.390614    71.015942    71.015942 
 2600000     557.1358   -143902.28   -141597.86    3494.6015    360041.71    71.399627    71.011459    71.011459 
 2700000    556.83483   -143908.82   -141605.64    3541.7912    360041.71    71.408527    71.007034    71.007034 
 2800000    557.15932   -143909.11   -141604.59     3614.403    360041.71    71.417309    71.002668    71.002668 
 2900000    558.10042   -143907.64   -141599.23    3891.7107    360041.71     71.42597    70.998363    70.998363 
 3000000    562.22324   -143912.67    -141587.2    3926.5756    360041.71    71.434506    70.994121    70.994121 
 3100000    557.62626   -143907.49   -141601.04    3756.3385    360041.71    71.442913    70.989944    70.989944 
 3200000    557.60403   -143926.04   -141619.68    3591.4469    360041.71    71.451188    70.985833    70.985833 
 3300000    557.71325   -143916.12   -141609.31    3637.5293    360041.71    71.459326    70.981791    70.981791 
 3400000    563.60906   -143896.29   -141565.09    3801.3592    360041.71    71.467324    70.977819    70.977819 
 3500000    558.03925   -143886.87   -141578.71    4246.3095    360041.71    71.475179    70.973919    70.973919 
 3600000    555.75521   -143930.99   -141632.28    3670.9123    360041.71    71.482887    70.970092    70.970092 
 3700000    561.16024   -143913.03   -141591.96    3779.7946    360041.71    71.490445     70.96634     70.96634 
 3800000    560.64284   -143931.04   -141612.11    3629.2431    360041.71     71.49785    70.962665    70.962665 
 3900000    562.27385   -143917.09   -141591.41    3587.5654    360041.71    71.505098    70.959069    70.959069 
 4000000    561.79611   -143908.75   -141585.05    3985.1327    360041.71    71.512186    70.955552    70.955552 
 4100000    560.94792   -143901.07   -141580.88    4180.0012    360041.71    71.519111    70.952117    70.952117 
 4200000    563.30095   -143918.12    -141588.2    3771.0983    360041.71     71.52587    70.948764    70.948764 
 4300000    558.22961   -143941.94   -141632.99    3412.5123    360041.71     71.53246    70.945496    70.945496 
 4400000     560.0939   -143924.96    -141608.3     3679.575    360041.71    71.538879    70.942313    70.942313 
 4500000    566.63014   -143908.42   -141564.73    4114.8011    360041.71    71.545122    70.939218    70.939218 
 4600000    558.70212    -143906.5    -141595.6    3439.1969    360041.71    71.551188    70.936211    70.936211 
 4700000    556.59942   -143905.82   -141603.61    4018.8192    360041.71    71.557074    70.933293    70.933293 
 4800000    563.57544   -143887.72   -141556.66    4779.7032    360041.71    71.562778    70.930467    70.930467 
 4900000    560.30116   -143909.91   -141592.39    3936.4969    360041.71    71.568296    70.927732    70.927732 
 5000000    561.66598   -143887.22   -141564.06    4722.5848    360041.71    71.573626    70.925091    70.925091 
 5100000    561.07159   -143908.89   -141588.19     4269.441    360041.71    71.578767    70.922544    70.922544 
 5200000     563.9483   -143886.95   -141554.35    4756.2983    360041.71    71.583715    70.920092    70.920092 
 5300000    558.14841   -143901.87   -141593.26    4192.5694    360041.71     71.58847    70.917737    70.917737 
 5400000    559.06304    -143882.4      -141570    4726.5027    360041.71    71.593027     70.91548     70.91548 
 5500000    561.33782   -143892.51   -141570.71    4170.3262    360041.71    71.597386    70.913321    70.913321 
 5600000     565.0552   -143891.47    -141554.3    4040.1777    360041.71    71.601545    70.911262    70.911262 
 5700000    560.66268   -143886.25   -141567.24    4569.5999    360041.71    71.605502    70.909303    70.909303 
 5800000    558.02425   -143905.69    -141597.6    3966.5833    360041.71    71.609255    70.907445    70.907445 
 5900000    560.63994      -143884   -141565.09    4019.1604    360041.71    71.612802    70.905688    70.905688 
 6000000    559.58778   -143919.28   -141604.71    3772.1063    360041.71    71.616142    70.904035    70.904035 
 6100000    558.41201   -143880.87   -141571.17    4475.3134    360041.71    71.619273    70.902485    70.902485 
 6200000    559.11849   -143897.37   -141584.75    3927.2838    360041.71    71.622195    70.901039    70.901039 
 6300000    559.21958   -143882.65   -141569.61    4720.0224    360041.71    71.624905    70.899697    70.899697 
 6400000    555.66855   -143856.94   -141558.59    4511.7866    360041.71    71.627403    70.898461    70.898461 
 6500000     559.7624   -143887.55   -141572.26    4340.7985    360041.71    71.629687     70.89733     70.89733 
 6600000    560.19009   -143894.36   -141577.31     4393.834    360041.71    71.631757    70.896306    70.896306 
 6700000    562.16177   -143898.51    -141573.3    4432.7377    360041.71    71.633612    70.895388    70.895388 
 6800000    558.50364   -143897.15   -141587.07    3710.4794    360041.71     71.63525    70.894578    70.894578 
 6900000    560.35565   -143899.84    -141582.1    4304.0736    360041.71    71.636671    70.893875    70.893875 
 7000000     560.1873   -143903.91   -141586.86    4243.7131    360041.71    71.637875    70.893279    70.893279 
 7100000     559.2849   -143887.35   -141574.04    4210.5116    360041.71     71.63886    70.892791    70.892791 
 7200000    553.97919   -143919.43   -141628.06    3412.4242    360041.71    71.639627    70.892412    70.892412 
 7300000    557.83913   -143905.34   -141598.01    3807.3894    360041.71    71.640175    70.892141    70.892141 
 7400000    563.29475   -143897.71   -141567.81    3805.2603    360041.71    71.640504    70.891978    70.891978 
 7500000    561.49835   -143902.03   -141579.56    4325.3935    360041.71    71.640614    70.891924    70.891924 
 7600000    561.03047   -143889.47   -141568.94     3983.995    360041.71    71.640504    70.891978    70.891978 
 7700000    563.46436   -143870.95   -141540.36    4057.0813    360041.71    71.640175    70.892141    70.892141 
 7800000    560.47758   -143906.24      -141588    3922.3804    360041.71    71.639627    70.892412    70.892412 
 7900000    558.01522   -143880.98   -141572.92    3938.1131    360041.71     71.63886    70.892791    70.892791 
 8000000    560.38996   -143894.17   -141576.29    3960.9964    360041.71    71.637875    70.893279    70.893279 
 8100000    562.42614   -143908.41    -141582.1    3564.4255    360041.71    71.636671    70.893875    70.893875 
 8200000    557.93001   -143891.85   -141584.14    4179.3399    360041.71     71.63525    70.894578    70.894578 
 8300000    560.53906   -143905.95   -141587.45    3769.6645    360041.71    71.633612    70.895388    70.895388 
 8400000    560.28732   -143899.07   -141581.61    4274.2745    360041.71    71.631757    70.896306    70.896306 
 8500000    564.66229   -143899.19   -141563.64    3908.1018    360041.71    71.629687     70.89733     70.89733 
 8600000    565.49386   -143913.05   -141574.05    3733.2606    360041.71    71.627403    70.898461    70.898461 
 8700000    562.52003   -143916.11   -141589.41    3520.8516    360041.71    71.624905    70.899697    70.899697 
 8800000    561.75061   -143888.47   -141564.96    4382.2645    360041.71    71.622195    70.901039    70.901039 
 8900000    559.47729   -143923.72   -141609.61    3053.0009    360041.71    71.619273    70.902485    70.902485 
 9000000    558.27962   -143894.96    -141585.8    3638.2634    360041.71    71.616142    70.904035    70.904035 
 9100000    563.56743    -143897.3   -141566.28    4015.8235    360041.71    71.612802    70.905688    70.905688 
 9200000    566.02543   -143932.25   -141591.06    3860.0728    360041.71    71.609255    70.907445    70.907445 
 9300000    560.90877   -143898.51   -141578.48    4438.5695    360041.71    71.605502    70.909303    70.909303 
 9400000    557.27775   -143909.46   -141604.45     3970.623    360041.71    71.601545    70.911262    70.911262 
 9500000    559.90685   -143892.89   -141577.01    4204.8857    360041.71    71.597386    70.913321    70.913321 
 9600000    560.38082   -143901.56   -141583.72    3937.8229    360041.71    71.593027     70.91548     70.91548 
 9700000      560.182   -143896.73   -141579.71    4124.2356    360041.71     71.58847    70.917737    70.917737 
 9800000    556.35031   -143906.06   -141604.88    3393.6936    360041.71    71.583715    70.920092    70.920092 
 9900000    559.76326   -143907.27   -141591.98    4111.2644    360041.71    71.578767    70.922544    70.922544 
10000000     557.2574   -143906.14   -141601.22    3664.8285    360041.71    71.573626    70.925091    70.925091 
10100000    556.68774   -143884.12   -141581.55    4534.0255    360041.71    71.568296    70.927732    70.927732 
10200000     561.0165   -143894.52   -141574.05     3880.656    360041.71    71.562778    70.930467    70.930467 
10300000    557.42472   -143929.72    -141624.1    3328.3391    360041.71    71.557074    70.933293    70.933293 
10400000    558.37787   -143888.02   -141578.46    4430.0449    360041.71    71.551188    70.936211    70.936211 
10500000    558.85722   -143889.36   -141577.82    4490.2077    360041.71    71.545122    70.939218    70.939218 
10600000    563.58806   -143899.25   -141568.14    4543.9061    360041.71    71.538879    70.942313    70.942313 
10700000    563.33062   -143930.96   -141600.92    3395.1444    360041.71     71.53246    70.945496    70.945496 
10800000     559.3001   -143932.98   -141619.61    3644.5918    360041.71     71.52587    70.948764    70.948764 
10900000    556.09155   -143893.28   -141593.18    4277.6481    360041.71    71.519111    70.952117    70.952117 
11000000    559.11305   -143933.87   -141621.27    3224.5322    360041.71    71.512186    70.955552    70.955552 
11100000     558.3101   -143895.24   -141585.96    3715.8047    360041.71    71.505098    70.959069    70.959069 
11200000    560.82349   -143906.69   -141587.02    4202.3654    360041.71     71.49785    70.962665    70.962665 
11300000    562.82349   -143893.49   -141565.54    4047.7574    360041.71    71.490445     70.96634     70.96634 
11400000    560.55819   -143917.86   -141599.28    3769.5466    360041.71    71.482887    70.970092    70.970092 
11500000    563.68553   -143890.46   -141558.95    4150.1811    360041.71    71.475179    70.973919    70.973919 
11600000    555.25007   -143915.58   -141618.96    4424.4949    360041.71    71.467324    70.977819    70.977819 
11700000     565.0531   -143916.29   -141579.12     3807.347    360041.71    71.459326    70.981791    70.981791 
11800000    558.50827   -143884.56   -141574.46    4356.4366    360041.71    71.451188    70.985833    70.985833 
11900000    557.82885   -143912.19    -141604.9    3728.8702    360041.71    71.442913    70.989944    70.989944 
12000000    554.78622   -143902.69   -141607.98    3964.3791    360041.71    71.434506    70.994121    70.994121 
12100000    560.55586   -143922.02   -141603.45    3454.9966    360041.71     71.42597    70.998363    70.998363 
12200000    558.64355   -143911.32   -141600.66    4370.8129    360041.71    71.417309    71.002668    71.002668 
12300000    562.79141   -143899.83   -141572.01    4407.8364    360041.71    71.408527    71.007034    71.007034 
12400000    561.95122   -143914.89   -141590.55     3791.695    360041.71    71.399627    71.011459    71.011459 
12500000    559.11537   -143907.36   -141594.75     4378.166    360041.71    71.390614    71.015942    71.015942 
12600000    555.79176   -143916.22   -141617.36    4037.0645    360041.71     71.38149     71.02048     71.02048 
12700000    558.27522   -143904.87   -141595.73    3914.4141    360041.71    71.372262    71.025072    71.025072 
12800000    559.51083    -143903.5   -141589.26    4332.9274    360041.71    71.362931    71.029715    71.029715 
12900000    562.50576   -143929.79   -141603.16    4021.5613    360041.71    71.353503    71.034407    71.034407 
13000000    556.75079   -143898.93    -141596.1    4276.1428    360041.71    71.343982    71.039147    71.039147 
13100000    560.88519   -143904.09   -141584.16    3996.6794    360041.71    71.334371    71.043932    71.043932 
13200000    557.55396   -143918.93   -141612.78    3794.2033    360041.71    71.324676    71.048761    71.048761 
13300000    561.14902    -143915.8   -141594.78    4284.9601    360041.71      71.3149     71.05363     71.05363 
13400000    560.17313   -143910.17   -141593.18    3904.3734    360041.71    71.305047    71.058539    71.058539 
13500000     559.3314   -143904.64   -141591.14    4085.7162    360041.71    71.295122    71.063485    71.063485 
13600000    559.97754   -143914.86   -141598.69    3717.8712    360041.71     71.28513    71.068466    71.068466 
13700000    559.36268   -143896.19   -141582.55    4129.8136    360041.71    71.275074    71.073479    71.073479 
13800000    561.75294   -143896.38   -141572.86    4012.0523    360041.71    71.264959    71.078523    71.078523 
13900000    556.22518   -143914.55   -141613.89    4049.8358    360041.71    71.254789    71.083595    71.083595 
14000000    562.74141   -143893.34   -141565.73    4377.2576    360041.71     71.24457    71.088693    71.088693 
14100000    558.15055   -143916.52    -141607.9    3743.2495    360041.71    71.234304    71.093815    71.093815 
14200000    561.01407    -143914.1   -141593.64    3635.6666    360041.71    71.223998    71.098958    71.098958 
14300000    560.44245   -143920.86   -141602.76    3410.8173    360041.71    71.213655    71.104121    71.104121 
14400000    559.77388   -143913.81   -141598.48     3858.688    360041.71     71.20328    71.109301    71.109301 
14500000    563.70403   -143899.15   -141567.56    3899.1769    360041.71    71.192878    71.114496    71.114496 
14600000    561.34187   -143900.37   -141578.55    3928.7399    360041.71    71.182453    71.119703    71.119703 
14700000     558.1384   -143873.65   -141565.08    4115.1243    360041.71    71.172009    71.124921    71.124921 
14800000    562.18544   -143923.15   -141597.84    3784.0189    360041.71    71.161551    71.130147    71.130147 
14900000    558.29107   -143908.13   -141598.93    4140.3132    360041.71    71.151085    71.135379    71.135379 
15000000    556.42598   -143892.38    -141590.9     3625.096    360041.71    71.140614    71.140614    71.140614 
15100000     559.4055   -143907.88   -141594.07    3758.9476    360041.71    71.130142     71.14585     71.14585 
15200000    564.64766   -143905.55   -141570.06      4281.19    360041.71    71.119676    71.151085    71.151085 
15300000    555.38708   -143886.75   -141589.56    4238.0213    360041.71    71.109218    71.156316    71.156316 
15400000    555.48816   -143908.61   -141611.01    4045.3694    360041.71    71.098775    71.161542    71.161542 
15500000     559.3802   -143905.29   -141591.58    4205.1404    360041.71    71.088349     71.16676     71.16676 
15600000    559.89156   -143897.21   -141581.39    4254.0982    360041.71    71.077947    71.171968    71.171968 
15700000    553.63539   -143913.83   -141623.89    3771.3227    360041.71    71.067572    71.177163    71.177163 
15800000    558.55655   -143914.95   -141604.65    3647.7991    360041.71    71.057229    71.182343    71.182343 
15900000    559.42547   -143923.25   -141609.36    3706.6821    360041.71    71.046923    71.187505    71.187505 
16000000    558.92806   -143910.62   -141598.79    4194.1165    360041.71    71.036658    71.192649    71.192649 
16100000    565.37213   -143911.91   -141573.42    4009.1896    360041.71    71.026438     71.19777     71.19777 
16200000    559.52205   -143910.26   -141595.97    4165.9382    360041.71    71.016269    71.202868    71.202868 
16300000    558.69142   -143895.77   -141584.92    4332.5089    360041.71    71.006154    71.207939    71.207939 
16400000    559.27088   -143896.12   -141582.86    4258.0552    360041.71    70.996098    71.212982    71.212982 
16500000    556.69847   -143920.11    -141617.5    4051.9303    360041.71    70.986105    71.217994    71.217994 
16600000    559.79986   -143914.21   -141598.77    3850.2326    360041.71     70.97618    71.222973    71.222973 
16700000    563.39848   -143914.57   -141584.25    4086.2419    360041.71    70.966328    71.227917    71.227917 
16800000    561.25433   -143932.45   -141610.99    3488.3003    360041.71    70.956551    71.232824    71.232824 
16900000     560.4914   -143895.81   -141577.51    4266.1028    360041.71    70.946856    71.237691    71.237691 
17000000    559.81608   -143932.87   -141617.36    3557.9142    360041.71    70.937245    71.242516    71.242516 
17100000    558.22112   -143927.76   -141618.85    3515.2147    360041.71    70.927724    71.247298    71.247298 
17200000    562.56182   -143926.61   -141599.75    4005.8355    360041.71    70.918296    71.252034    71.252034 
17300000    560.08144    -143878.2    -141561.6    4653.3607    360041.71    70.908966    71.256721    71.256721 
17400000     556.8664   -143884.85   -141581.54    4052.0812    360041.71    70.899737    71.261359    71.261359 
17500000    557.65409   -143917.89   -141611.32    3660.8674    360041.71    70.890614    71.265944    71.265944 
17600000    562.29602   -143901.08   -141575.31    3990.8454    360041.71      70.8816    71.270475    71.270475 
17700000    562.18862   -143902.26   -141576.94    3867.4255    360041.71      70.8727     71.27495     71.27495 
17800000     562.0115   -143894.94   -141570.35    4128.1592    360041.71    70.863918    71.279366    71.279366 
17900000    563.29483   -143885.99    -141556.1    4079.7296    360041.71    70.855257    71.283723    71.283723 
18000000    555.05703   -143907.87   -141612.05    3985.5481    360041.71    70.846721    71.288017    71.288017 
18100000    558.00286   -143921.65   -141613.64     3798.724    360041.71    70.838314    71.292247    71.292247 
18200000    558.19369   -143929.41   -141620.62    3459.6997    360041.71     70.83004    71.296411    71.296411 
18300000    560.65589   -143919.83   -141600.85    4509.5305    360041.71    70.821902    71.300507    71.300507 
18400000    559.17429   -143908.79   -141595.93    4245.3334    360041.71    70.813903    71.304534    71.304534 
18500000    558.62806   -143899.96   -141589.36    4047.2441    360041.71    70.806048    71.308489    71.308489 
18600000    564.01475   -143899.44   -141566.57    4340.4571    360041.71     70.79834     71.31237     71.31237 
18700000    558.29081   -143903.04   -141593.84    3833.5722    360041.71    70.790782    71.316177    71.316177 
18800000    561.25592   -143891.52   -141570.06    4387.0415    360041.71    70.783377    71.319907    71.319907 
18900000     561.2952   -143900.59   -141578.96    4106.9826    360041.71    70.776129    71.323559    71.323559 
19000000    560.08437   -143897.48   -141580.86    3598.9667    360041.71    70.769041    71.327131    71.327131 
19100000    560.35397   -143922.58   -141604.85     3607.592    360041.71    70.762116    71.330621    71.330621 
19200000    560.63774   -143888.56   -141569.65    3906.8731    360041.71    70.755357    71.334028    71.334028 
19300000    560.49286   -143908.51    -141590.2    3697.5297    360041.71    70.748767     71.33735     71.33735 
19400000    558.79087    -143884.4   -141573.14    4366.0624    360041.71    70.742349    71.340586    71.340586 
19500000     557.3011   -143903.83   -141598.72    3928.4117    360041.71    70.736105    71.343735    71.343735 
19600000    559.69969   -143914.38   -141599.35    3574.2495    360041.71    70.730039    71.346794    71.346794 
19700000     558.7869   -143883.89   -141572.64    4453.1749    360041.71    70.724153    71.349763    71.349763 
19800000     558.3801   -143899.96   -141590.39     3968.653    360041.71     70.71845     71.35264     71.35264 
19900000     561.1391   -143912.51   -141591.53    3935.2931    360041.71    70.712932    71.355424    71.355424 
20000000    560.31769   -143930.34   -141612.76    4063.9111    360041.71    70.707601    71.358113    71.358113 
20100000    553.65655   -143920.31   -141630.28    3913.1313    360041.71     70.70246    71.360708    71.360708 
20200000    564.27433   -143914.43   -141580.49     3432.219    360041.71    70.697512    71.363205    71.363205 
20300000    556.30093   -143916.35   -141615.38    3799.4276    360041.71    70.692758    71.365604    71.365604 
20400000    560.03974   -143907.74   -141591.31    3439.5269    360041.71      70.6882    71.367905    71.367905 
20500000    561.81037   -143917.37   -141593.61    3402.1369    360041.71    70.683841    71.370106    71.370106 
20600000    557.48241    -143920.2   -141614.34    3730.9548    360041.71    70.679682    71.372205    71.372205 
20700000    564.52652   -143900.04   -141565.05    4038.7265    360041.71    70.675725    71.374203    71.374203 
20800000    558.25175   -143912.31   -141603.27    3796.3247    360041.71    70.671973    71.376098    71.376098 
20900000    558.54479   -143888.02   -141577.77    4524.0643    360041.71    70.668425     71.37789     71.37789 
21000000     560.9503   -143889.29   -141569.09    4467.0542    360041.71    70.665085    71.379576    71.379576 
21100000    558.16373   -143907.72   -141599.05    4190.5134    360041.71    70.661954    71.381158    71.381158 
21200000     561.4841   -143905.27   -141582.86    3988.1074    360041.71    70.659032    71.382634    71.382634 
21300000    555.17785   -143925.31   -141628.98    3871.6648    360041.71    70.656322    71.384003    71.384003 
21400000    563.79795   -143915.46   -141583.48    3839.3188    360041.71    70.653824    71.385265    71.385265 
21500000    556.90187   -143915.95   -141612.49    3292.3903    360041.71     70.65154    71.386419    71.386419 
21600000    562.84457    -143909.8   -141581.77     3819.628    360041.71     70.64947    71.387464    71.387464 
21700000    558.51863   -143921.41   -141611.27    3651.4309    360041.71    70.647616    71.388401    71.388401 
21800000    559.32236   -143921.08   -141607.62    3439.8721    360041.71    70.645977    71.389229    71.389229 
21900000    562.03156   -143886.28    -141561.6    3810.4201    360041.71    70.644556    71.389947    71.389947 
22000000    558.19617   -143903.58   -141594.77    3846.8825    360041.71    70.643353    71.390555    71.390555 
22100000    557.08112   -143908.82   -141604.62    3496.2738    360041.71    70.642367    71.391053    71.391053 
22200000    565.40872   -143909.59   -141570.95     3938.363    360041.71      70.6416    71.391441    71.391441 
22300000    560.29475   -143909.74   -141592.25    3636.2644    360041.71    70.641052    71.391718    71.391718 
22400000    557.68123    -143906.9   -141600.23    4059.9404    360041.71    70.640723    71.391884    71.391884 
22500000    558.17922   -143893.21   -141584.47    3969.8703    360041.71    70.640614    71.391939    71.391939 
22600000    561.91698   -143907.95   -141583.75    3775.9764    360041.71    70.640723    71.391884    71.391884 
22700000    553.27851   -143918.06   -141629.59    3973.2644    360041.71    70.641052    71.391718    71.391718 
22800000    561.28547   -143902.51   -141580.93    3883.9398    360041.71      70.6416    71.391441    71.391441 
22900000    563.93931   -143902.48   -141569.92    3700.4343    360041.71    70.642367    71.391053    71.391053 
23000000    557.53036   -143917.26   -141611.21    3963.9175    360041.71    70.643353    71.390555    71.390555 
23100000    556.00223    -143902.3   -141602.57    3995.6713    360041.71    70.644556    71.389947    71.389947 
23200000    561.65328   -143899.63   -141576.53    4101.0631    360041.71    70.645977    71.389229    71.389229 
23300000    559.99999   -143900.94   -141584.67    3862.1726    360041.71    70.647616    71.388401    71.388401 
23400000    556.80409    -143907.2   -141604.14    4017.5235    360041.71     70.64947    71.387464    71.387464 
23500000    560.68043   -143899.63   -141580.55    4220.0423    360041.71     70.65154    71.386419    71.386419 
23600000     558.1963   -143912.78   -141603.97    4146.2598    360041.71    70.653824    71.385265    71.385265 
23700000    562.10591   -143906.51   -141581.53    4423.5416    360041.71    70.656322    71.384003    71.384003 
23800000    557.74868   -143893.78   -141586.83     4094.662    360041.71    70.659032    71.382634    71.382634 
23900000    563.03242    -143871.5   -141542.69    4324.2149    360041.71    70.661954    71.381158    71.381158 
24000000     565.7314   -143918.94   -141578.96    3680.1897    360041.71    70.665085    71.379576    71.379576 
24100000    561.00965   -143907.11   -141586.66    4167.3841    360041.71    70.668425     71.37789     71.37789 
24200000    555.81444   -143925.87   -141626.91    4113.1291    360041.71    70.671973    71.376098    71.376098 
24300000    558.44638    -143908.8   -141598.96    3899.1528    360041.71    70.675725    71.374203    71.374203 
24400000    559.81906    -143892.7   -141577.18    3912.7123    360041.71    70.679682    71.372205    71.372205 
24500000    554.95538   -143908.16   -141612.76    4264.0244    360041.71    70.683841    71.370106    71.370106 
24600000    558.78684   -143898.64   -141587.39     4182.178    360041.71      70.6882    71.367905    71.367905 
24700000    562.61386   -143888.28    -141561.2    4366.3135    360041.71    70.692758    71.365604    71.365604 
24800000    561.38791   -143899.43   -141577.42    4465.0451    360041.71    70.697512    71.363205    71.363205 
24900000    561.48351   -143906.42   -141584.02     3585.033    360041.71     70.70246    71.360708    71.360708 
25000000    555.07192   -143899.56   -141603.67    4034.0634    360041.71    70.707601    71.358113    71.358113 
25100000    558.58304   -143915.26   -141604.85    3664.3733    360041.71    70.712932    71.355424    71.355424 
25200000    559.87559   -143903.25   -141587.49     3842.181    360041.71     70.71845     71.35264     71.35264 
25300000    561.20428   -143915.33   -141594.08    3722.1527    360041.71    70.724153    71.349763    71.349763 
25400000    561.48919   -143884.68   -141562.25    4317.9389    360041.71    70.730039    71.346794    71.346794 
25500000    560.32613   -143897.82    -141580.2    4160.8658    360041.71    70.736105    71.343735    71.343735 
25600000    560.10594   -143895.53   -141578.82    4485.6939    360041.71    70.742349    71.340586    71.340586 
25700000    557.87004   -143904.41   -141596.95    4145.8943    360041.71    70.748767     71.33735     71.33735 
25800000    561.80377   -143893.52   -141569.79    4547.0737    360041.71    70.755357    71.334028    71.334028 
25900000    557.72058   -143916.67   -141609.83    3726.2235    360041.71    70.762116    71.330621    71.330621 
26000000    557.77056   -143911.87   -141604.82      3831.63    360041.71    70.769041    71.327131    71.327131 
26100000    566.78167      -143886   -141541.68    4257.9343    360041.71    70.776129    71.323559    71.323559 
26200000    558.36978      -143872   -141562.47    4516.1226    360041.71    70.783377    71.319907    71.319907 
26300000    562.26994   -143912.37   -141586.72    4005.9872    360041.71    70.790782    71.316177    71.316177 
26400000    560.46209    -143902.9   -141584.72    3812.2127    360041.71     70.79834     71.31237     71.31237 
26500000     560.3825   -143902.02   -141584.17    4194.7261    360041.71    70.806048    71.308489    71.308489 
26600000    560.72142    -143911.2   -141591.94    3914.0602    360041.71    70.813903    71.304534    71.304534 
26700000     565.3654   -143916.58   -141578.12    4260.7672    360041.71    70.821902    71.300507    71.300507 
26800000    560.77696   -143893.61   -141574.13    4238.1695    360041.71     70.83004    71.296411    71.296411 
26900000    561.78388   -143898.15    -141574.5    3929.8094    360041.71    70.838314    71.292247    71.292247 
27000000    562.98772   -143912.25   -141583.63    3842.1257    360041.71    70.846721    71.288017    71.288017 
27100000    556.49491   -143886.23   -141584.46    4485.2137    360041.71    70.855257    71.283723    71.283723 
27200000    563.12927   -143908.01    -141578.8    3708.5662    360041.71    70.863918    71.279366    71.279366 
27300000    557.55966   -143911.42   -141605.25    3791.0458    360041.71      70.8727     71.27495     71.27495 
27400000    559.91622   -143922.13   -141606.21     3914.451    360041.71      70.8816    71.270475    71.270475 
27500000    561.16983   -143911.64   -141590.53    4016.2767    360041.71    70.890614    71.265944    71.265944 
27600000    559.41726   -143907.68   -141593.82    4239.0688    360041.71    70.899737    71.261359    71.261359 
27700000    560.00985   -143932.41    -141616.1    4074.1359    360041.71    70.908966    71.256721    71.256721 
27800000    561.44497   -143914.55    -141592.3    3514.6216    360041.71    70.918296    71.252034    71.252034 
27900000    557.90367   -143908.77   -141601.17    4252.2654    360041.71    70.927724    71.247298    71.247298 
28000000    560.09093   -143916.88   -141600.24    3621.1095    360041.71    70.937245    71.242516    71.242516 
28100000    560.72311    -143930.9   -141611.64     3816.542    360041.71    70.946856    71.237691    71.237691 
28200000    558.57646   -143910.49   -141600.11     3791.153    360041.71    70.956551    71.232824    71.232824 
28300000     558.6041   -143901.32   -141590.82    4086.8573    360041.71    70.966328    71.227917    71.227917 
28400000    560.72404   -143904.83   -141585.56    4138.1257    360041.71     70.97618    71.222973    71.222973 
28500000    557.79263   -143892.11   -141584.97    4182.8721    360041.71    70.986105    71.217994    71.217994 
28600000    563.96195   -143898.38   -141565.72    4164.8186    360041.71    70.996098    71.212982    71.212982 
28700000     562.9997   -143939.29   -141610.61    3734.9408    360041.71    71.006154    71.207939    71.207939 
28800000    557.66417   -143887.43   -141580.82    4203.8818    360041.71    71.016269    71.202868    71.202868 
28900000    561.15281    -143901.4   -141580.36    4251.7906    360041.71    71.026438     71.19777     71.19777 
29000000     564.0078   -143911.74   -141578.89    3598.8771    360041.71    71.036658    71.192649    71.192649 
29100000    553.66962   -143921.75   -141631.66    3822.4753    360041.71    71.046923    71.187505    71.187505 
29200000    563.28989   -143931.79   -141601.91    3510.0274    360041.71    71.057229    71.182343    71.182343 
29300000    560.48342   -143905.95   -141587.68    4079.3812    360041.71    71.067572    71.177163    71.177163 
29400000    561.15405   -143911.61   -141590.56     3818.722    360041.71    71.077947    71.171968    71.171968 
29500000    564.83971    -143935.4   -141599.12    3459.9396    360041.71    71.088349     71.16676     71.16676 
29600000    559.84676   -143937.13   -141621.49    3038.3754    360041.71    71.098775    71.161542    71.161542 
29700000    559.18579   -143911.76   -141598.86    3848.9326    360041.71    71.109218    71.156316    71.156316 
29800000    560.41002   -143926.71   -141608.75    3362.5878    360041.71    71.119676    71.151085    71.151085 
29900000    559.23241   -143920.09      -141607    3643.7327    360041.71    71.130142     71.14585     71.14585 
30000000    559.80343   -143920.94   -141605.49    3560.3043    360041.71    71.140614    71.140614    71.140614 
30100000    563.30967   -143902.55   -141572.59    3933.9622    360041.71    71.151085    71.135379    71.135379 
30200000    561.29599   -143934.78   -141613.15     3430.975    360041.71    71.161551    71.130147    71.130147 
30300000    564.81563   -143916.75   -141580.56    3998.3198    360041.71    71.172009    71.124921    71.124921 
30400000    557.61136   -143923.63   -141617.24    3600.5517    360041.71    71.182453    71.119703    71.119703 
30500000      563.003    -143951.8   -141623.11    2799.3882    360041.71    71.192878    71.114496    71.114496 
30600000    558.71422   -143919.63   -141608.68    3404.0436    360041.71     71.20328    71.109301    71.109301 
30700000    558.12149   -143913.59   -141605.09    3787.2047    360041.71    71.213655    71.104121    71.104121 
30800000    559.88403   -143909.03   -141593.24    4017.6547    360041.71    71.223998    71.098958    71.098958 
30900000    558.96818   -143917.83   -141605.83    3577.0031    360041.71    71.234304    71.093815    71.093815 
31000000    559.54111   -143913.71   -141599.34    4206.4193    360041.71     71.24457    71.088693    71.088693 
31100000    560.44534    -143946.7   -141628.59    3429.6446    360041.71    71.254789    71.083595    71.083595 
31200000    555.14923   -143932.89   -141636.68    3428.0276    360041.71    71.264959    71.078523    71.078523 
31300000    565.23736   -143925.48   -141587.55    3395.1791    360041.71    71.275074    71.073479    71.073479 
31400000    557.43365   -143916.69   -141611.04    3787.9094    360041.71     71.28513    71.068466    71.068466 
31500000    559.37711   -143928.91   -141615.22     3373.439    360041.71    71.295122    71.063485    71.063485 
31600000    558.93173   -143926.47   -141614.61    3684.7446    360041.71    71.305047    71.058539    71.058539 
31700000    559.94973   -143926.09   -141610.03    3558.9535    360041.71      71.3149     71.05363     71.05363 
31800000    565.72481   -143893.59   -141553.65     4637.776    360041.71    71.324676    71.048761    71.048761 
31900000    560.33849   -143930.19   -141612.52    3308.2411    360041.71    71.334371    71.043932    71.043932 
32000000    559.27109   -143911.31   -141598.06    3944.9111    360041.71    71.343982    71.039147    71.039147 
32100000    560.78466   -143880.06   -141560.54    4476.5396    360041.71    71.353503    71.034407    71.034407 
32200000    558.65719   -143929.02    -141618.3    3838.3669    360041.71    71.362931    71.029715    71.029715 
32300000    563.44891   -143894.91   -141564.37    4331.4416    360041.71    71.372262    71.025072    71.025072 
32400000    560.27194   -143921.78   -141604.39    3176.7086    360041.71     71.38149     71.02048     71.02048 
32500000    563.32467   -143913.32    -141583.3    3694.9755    360041.71    71.390614    71.015942    71.015942 
32600000    561.87355   -143900.66   -141576.64    4028.6653    360041.71    71.399627    71.011459    71.011459 
32700000    563.89098    -143931.6   -141599.24    3392.6654    360041.71    71.408527    71.007034    71.007034 
32800000    567.56745   -143911.74   -141564.17    3815.6039    360041.71    71.417309    71.002668    71.002668 
32900000    562.56222   -143911.69   -141584.83    3814.6139    360041.71     71.42597    70.998363    70.998363 
33000000    555.42498    -143929.3   -141631.95    3362.0604    360041.71    71.434506    70.994121    70.994121 
33100000    558.98311    -143914.2   -141602.14     3787.257    360041.71    71.442913    70.989944    70.989944 
33200000    556.45365   -143909.18   -141607.58      3946.77    360041.71    71.451188    70.985833    70.985833 
33300000    556.96486   -143917.31    -141613.6     3313.761    360041.71    71.459326    70.981791    70.981791 
33400000    557.23288   -143944.87   -141640.04    2937.4973    360041.71    71.467324    70.977819    70.977819 
33500000    565.17234    -143929.5   -141591.84     3793.333    360041.71    71.475179    70.973919    70.973919 
33600000    564.49544   -143914.91   -141580.05    3884.4927    360041.71    71.482887    70.970092    70.970092 
33700000    559.53103    -143910.6   -141596.27    3923.6328    360041.71    71.490445     70.96634     70.96634 
33800000    562.12094   -143933.37   -141608.33    3288.5959    360041.71     71.49785    70.962665    70.962665 
33900000    560.40413   -143913.82   -141595.88    4081.6847    360041.71    71.505098    70.959069    70.959069 
34000000    561.29637   -143943.73    -141622.1      3174.72    360041.71    71.512186    70.955552    70.955552 
34100000    563.60731    -143928.9   -141597.71    3356.0295    360041.71    71.519111    70.952117    70.952117 
34200000    561.17675   -143925.64   -141604.51    3641.8559    360041.71     71.52587    70.948764    70.948764 
34300000    563.42468   -143914.39   -141583.95     3648.207    360041.71     71.53246    70.945496    70.945496 
34400000    559.03269   -143921.89   -141609.62    3571.8681    360041.71    71.538879    70.942313    70.942313 
34500000    552.06989   -143926.53   -141643.07    2928.1253    360041.71    71.545122    70.939218    70.939218 
34600000     565.7959   -143907.58   -141567.34    4001.0311    360041.71    71.551188    70.936211    70.936211 
34700000    559.05703   -143906.13   -141593.76     3815.523    360041.71    71.557074    70.933293    70.933293 
34800000    556.60147   -143939.73   -141637.51    3071.5573    360041.71    71.562778    70.930467    70.930467 
34900000     555.3365   -143921.22   -141624.24    3858.3001    360041.71    71.568296    70.927732    70.927732 
35000000    556.96494   -143920.37   -141616.65    3394.8583    360041.71    71.573626    70.925091    70.925091 
35100000    559.29919   -143920.56   -141607.19    3188.9833    360041.71    71.578767    70.922544    70.922544 
35200000    560.15117   -143921.96   -141605.07    3493.7602    360041.71    71.583715    70.920092    70.920092 
35300000     562.6359   -143934.63   -141607.46    3540.1648    360041.71     71.58847    70.917737    70.917737 
35400000    563.32771   -143914.91   -141584.88    3604.6057    360041.71    71.593027     70.91548     70.91548 
35500000    557.20954   -143916.95   -141612.22    4143.2102    360041.71    71.597386    70.913321    70.913321 
35600000    560.30454   -143906.64   -141589.11    3766.6094    360041.71    71.601545    70.911262    70.911262 
35700000    555.72017   -143906.97    -141608.4    3966.2159    360041.71    71.605502    70.909303    70.909303 
35800000    558.17823   -143917.33    -141608.6    4256.1476    360041.71    71.609255    70.907445    70.907445 
35900000    556.96805   -143907.27   -141603.54    3652.9542    360041.71    71.612802    70.905688    70.905688 
36000000    561.20676   -143919.22   -141597.96     3619.984    360041.71    71.616142    70.904035    70.904035 
36100000    560.12404   -143931.97   -141615.18    3452.2566    360041.71    71.619273    70.902485    70.902485 
36200000     557.1917   -143915.12   -141610.46    3333.3232    360041.71    71.622195    70.901039    70.901039 
36300000    556.66734   -143921.98    -141619.5    3216.5739    360041.71    71.624905    70.899697    70.899697 
36400000    555.56168   -143907.27   -141609.36    3469.4308    360041.71    71.627403    70.898461    70.898461 
36500000    554.33734   -143889.06   -141596.21    4400.2536    360041.71    71.629687     70.89733     70.89733 
36600000    558.42461   -143918.42   -141608.67    3516.8621    360041.71    71.631757    70.896306    70.896306 
36700000    559.40197   -143923.73   -141609.93    3207.6256    360041.71    71.633612    70.895388    70.895388 
36800000    560.08229   -143912.76   -141596.15    3808.4109    360041.71     71.63525    70.894578    70.894578 
36900000    559.91211    -143940.5   -141624.59    2739.6423    360041.71    71.636671    70.893875    70.893875 
37000000    558.76826   -143897.44   -141586.27    3934.4664    360041.71    71.637875    70.893279    70.893279 
37100000     558.1161   -143904.75   -141596.28    3732.2023    360041.71     71.63886    70.892791    70.892791 
37200000    562.58051   -143914.82   -141587.87    3551.0955    360041.71    71.639627    70.892412    70.892412 
37300000    559.85161   -143911.32   -141595.66    3440.1575    360041.71    71.640175    70.892141    70.892141 
37400000    560.82268   -143896.67      -141577    4140.2069    360041.71    71.640504    70.891978    70.891978 
37500000    560.91785   -143905.31   -141585.25    3735.5777    360041.71    71.640614    70.891924    70.891924 
37600000    559.00608   -143904.33   -141592.17     3821.532    360041.71    71.640504    70.891978    70.891978 
37700000    560.35146    -143903.9   -141586.18    4357.2906    360041.71    71.640175    70.892141    70.892141 
37800000    554.96324   -143911.38   -141615.95    3712.5784    360041.71    71.639627    70.892412    70.892412 
37900000     557.5283   -143887.29   -141581.24    4140.9737    360041.71     71.63886    70.892791    70.892791 
38000000    561.15694   -143944.12   -141623.07    3522.3966    360041.71    71.637875    70.893279    70.893279 
38100000    562.88986   -143885.51   -141557.28    4332.6669    360041.71    71.636671    70.893875    70.893875 
38200000    559.88271   -143910.54   -141594.76    3928.8655    360041.71     71.63525    70.894578    70.894578 
38300000     558.9866   -143877.19   -141565.12    4101.5366    360041.71    71.633612    70.895388    70.895388 
38400000    559.75458   -143884.02   -141568.77    4215.0037    360041.71    71.631757    70.896306    70.896306 
38500000    559.48966   -143898.49   -141584.33    3965.0672    360041.71    71.629687     70.89733     70.89733 
38600000    562.96662   -143907.83   -141579.29    3766.6763    360041.71    71.627403    70.898461    70.898461 
38700000    562.14503      -143901   -141575.86    3488.9532    360041.71    71.624905    70.899697    70.899697 
38800000     556.8269    -143922.9   -141619.76    3382.3463    360041.71    71.622195    70.901039    70.901039 
38900000     560.2755   -143924.36   -141606.95    3136.2223    360041.71    71.619273    70.902485    70.902485 
39000000    562.42327   -143909.86   -141583.57    3929.4167    360041.71    71.616142    70.904035    70.904035 
39100000    559.81438   -143909.63   -141594.13    3597.2401    360041.71    71.612802    70.905688    70.905688 
39200000    561.32508    -143919.7   -141597.95    3109.0016    360041.71    71.609255    70.907445    70.907445 
39300000    560.00218    -143919.9   -141603.62    3505.1011    360041.71    71.605502    70.909303    70.909303 
39400000    558.27915   -143903.72   -141594.57    3520.9571    360041.71    71.601545    70.911262    70.911262 
39500000    561.78544   -143906.95    -141583.3    3756.2125    360041.71    71.597386    70.913321    70.913321 
39600000    565.16685   -143892.92   -141555.28    4029.4596    360041.71    71.593027     70.91548     70.91548 
39700000    557.31837   -143896.58    -141591.4     4024.332    360041.71     71.58847    70.917737    70.917737 
39800000    566.87758   -143906.51   -141561.79    4114.5521    360041.71    71.583715    70.920092    70.920092 
39900000    560.54107   -143901.25   -141582.75    3754.0834    360041.71    71.578767    70.922544    70.922544 
40000000    563.69748   -143902.17   -141570.61    3712.4589    360041.71    71.573626    70.925091    70.925091 
40100000    560.19771   -143898.55   -141581.46    4260.9221    360041.71    71.568296    70.927732    70.927732 
40200000    557.82762   -143904.13   -141596.85    3743.7436    360041.71    71.562778    70.930467    70.930467 
40300000    561.83786   -143882.12   -141558.24    4224.4756    360041.71    71.557074    70.933293    70.933293 
40400000    556.70541    -143871.3   -141568.66    4614.5984    360041.71    71.551188    70.936211    70.936211 
40500000    567.01899   -143905.27   -141559.97    3619.9132    360041.71    71.545122    70.939218    70.939218 
40600000    562.85571   -143880.96   -141552.88    4650.0997    360041.71    71.538879    70.942313    70.942313 
40700000    560.02138   -143907.52   -141591.16    3941.3452    360041.71     71.53246    70.945496    70.945496 
40800000    565.39658   -143909.69    -141571.1    3944.0755    360041.71     71.52587    70.948764    70.948764 
40900000      558.563    -143915.3   -141604.97    3853.2082    360041.71    71.519111    70.952117    70.952117 
41000000    560.67281   -143907.06   -141588.01    4202.4202    360041.71    71.512186    70.955552    70.955552 
41100000    560.89402   -143898.84   -141578.87    3989.8676    360041.71    71.505098    70.959069    70.959069 
41200000    561.37502   -143906.68   -141584.72    3851.9918    360041.71     71.49785    70.962665    70.962665 
41300000    562.31659   -143919.22   -141593.37     3449.282    360041.71    71.490445     70.96634     70.96634 
41400000    559.71497   -143917.04   -141601.95    3614.8921    360041.71    71.482887    70.970092    70.970092 
41500000    560.75129   -143914.29   -141594.92    3559.6728    360041.71    71.475179    70.973919    70.973919 
41600000    560.02767   -143911.75   -141595.37    3812.1849    360041.71    71.467324    70.977819    70.977819 
41700000    557.14164   -143893.17   -141588.73    4082.3007    360041.71    71.459326    70.981791    70.981791 
41800000    560.41489   -143947.12   -141629.13    2840.4111    360041.71    71.451188    70.985833    70.985833 
41900000    557.96725   -143912.44   -141604.58    3722.8114    360041.71    71.442913    70.989944    70.989944 
42000000    556.22082   -143894.04   -141593.41    3551.5143    360041.71    71.434506    70.994121    70.994121 
42100000    560.29019   -143913.69   -141596.22    3474.0107    360041.71     71.42597    70.998363    70.998363 
42200000    565.38552   -143914.49   -141575.94    3742.0299    360041.71    71.417309    71.002668    71.002668 
42300000    561.55874   -143916.85   -141594.14    3297.6749    360041.71    71.408527    71.007034    71.007034 
42400000      562.579   -143916.16   -141589.23    3740.9092    360041.71    71.399627    71.011459    71.011459 
42500000     552.5467   -143896.41   -141610.97    3610.2376    360041.71    71.390614    71.015942    71.015942 
42600000    557.39714   -143893.17   -141587.67    4020.3986    360041.71     71.38149     71.02048     71.02048 
42700000    555.68937   -143887.09   -141588.65    4142.9591    360041.71    71.372262    71.025072    71.025072 
42800000    559.92554   -143913.43   -141597.47    3607.9975    360041.71    71.362931    71.029715    71.029715 
42900000    558.80267   -143914.59   -141603.27    3674.9242    360041.71    71.353503    71.034407    71.034407 
43000000    554.54921   -143910.92   -141617.19    3738.8787    360041.71    71.343982    71.039147    71.039147 
43100000    563.29464   -143913.66   -141583.77    3686.5646    360041.71    71.334371    71.043932    71.043932 
43200000    561.54827    -143905.8   -141583.13    4372.4058    360041.71    71.324676    71.048761    71.048761 
43300000    560.51157   -143905.73   -141587.35    4090.4197    360041.71      71.3149     71.05363     71.05363 
43400000    556.41473   -143914.74    -141613.3    3383.8407    360041.71    71.305047    71.058539    71.058539 
43500000    561.65641    -143920.6   -141597.48    3644.9132    360041.71    71.295122    71.063485    71.063485 
43600000     560.3485   -143916.91    -141599.2    3972.9286    360041.71     71.28513    71.068466    71.068466 
43700000    558.15689   -143911.01   -141602.36    3777.3423    360041.71    71.275074    71.073479    71.073479 
43800000    558.24573   -143903.84   -141594.83    3751.3267    360041.71    71.264959    71.078523    71.078523 
43900000    562.82316   -143908.85    -141580.9    3753.5406    360041.71    71.254789    71.083595    71.083595 
44000000    561.54869   -143913.56   -141590.89    3993.0126    360041.71     71.24457    71.088693    71.088693 
44100000    556.24374   -143911.67   -141610.94    3884.6094    360041.71    71.234304    71.093815    71.093815 
44200000    558.72269   -143912.47   -141601.49    4171.0078    360041.71    71.223998    71.098958    71.098958 
44300000    563.18396   -143912.56   -141583.12    3855.4436    360041.71    71.213655    71.104121    71.104121 
44400000    559.51349   -143905.06    -141590.8    3805.1118    360041.71     71.20328    71.109301    71.109301 
44500000    559.28482   -143909.68   -141596.37    3901.6474    360041.71    71.192878    71.114496    71.114496 
44600000    560.84445   -143922.71   -141602.94    3573.6134    360041.71    71.182453    71.119703    71.119703 
44700000     562.1971   -143923.74   -141598.39     3485.789    360041.71    71.172009    71.124921    71.124921 
44800000    560.30217    -143890.8   -141573.28    4215.1015    360041.71    71.161551    71.130147    71.130147 
44900000    557.23201   -143915.29   -141610.47    3845.6109    360041.71    71.151085    71.135379    71.135379 
45000000     562.1869   -143923.03   -141597.71    3690.2768    360041.71    71.140614    71.140614    71.140614 
45100000    559.87413   -143926.68   -141610.93    3070.9011    360041.71    71.130142     71.14585     71.14585 
45200000    563.44549   -143921.71   -141591.19    4275.7733    360041.71    71.119676    71.151085    71.151085 
45300000    557.68132   -143884.88    -141578.2    4539.7548    360041.71    71.109218    71.156316    71.156316 
45400000    560.15038   -143895.64   -141578.74    4459.9476    360041.71    71.098775    71.161542    71.161542 
45500000    563.33252    -143903.1   -141573.05    3772.6607    360041.71    71.088349     71.16676     71.16676 
45600000    560.50325   -143916.75    -141598.4    3964.6553    360041.71    71.077947    71.171968    71.171968 
45700000    560.58497   -143896.92   -141578.23    4127.5298    360041.71    71.067572    71.177163    71.177163 
45800000     557.9917   -143912.53   -141604.56    3754.5884    360041.71    71.057229    71.182343    71.182343 
45900000    557.78821   -143914.74   -141607.62    3504.5628    360041.71    71.046923    71.187505    71.187505 
46000000    562.22814   -143905.14   -141579.65    4026.4599    360041.71    71.036658    71.192649    71.192649 
46100000     560.6072   -143900.65   -141581.87    4042.3289    360041.71    71.026438     71.19777     71.19777 
46200000     559.3689   -143911.24   -141597.58    3912.3593    360041.71    71.016269    71.202868    71.202868 
46300000    564.11067   -143913.94   -141580.66    3760.1275    360041.71    71.006154    71.207939    71.207939 
46400000    562.09256   -143905.83   -141580.91    4041.8485    360041.71    70.996098    71.212982    71.212982 
46500000    560.35054   -143901.32    -141583.6    3833.9188    360041.71    70.986105    71.217994    71.217994 
46600000    557.90969   -143918.25   -141610.62    3506.2425    360041.71     70.97618    71.222973    71.222973 
46700000    560.14044   -143889.97   -141573.12    4196.4355    360041.71    70.966328    71.227917    71.227917 
46800000    557.99259    -143922.6   -141614.63    3726.2019    360041.71    70.956551    71.232824    71.232824 
46900000     556.7524   -143900.84      -141598    3967.9432    360041.71    70.946856    71.237691    71.237691 
47000000    554.04504   -143910.36   -141618.72     3733.593    360041.71    70.937245    71.242516    71.242516 
47100000     558.1191   -143910.14   -141601.66    4047.5389    360041.71    70.927724    71.247298    71.247298 
47200000    563.02845   -143909.88   -141581.09    3607.1883    360041.71    70.918296    71.252034    71.252034 
47300000    560.84322   -143910.02   -141590.26    3660.5445    360041.71    70.908966    71.256721    71.256721 
47400000    558.71037   -143901.88   -141590.94    3495.9917    360041.71    70.899737    71.261359    71.261359 
47500000    558.35436   -143899.75   -141590.29    3812.2313    360041.71    70.890614    71.265944    71.265944 
47600000    555.60027   -143912.39   -141614.32    3930.0872    360041.71      70.8816    71.270475    71.270475 
47700000     565.3095   -143898.92   -141560.69     4181.568    360041.71      70.8727     71.27495     71.27495 
47800000    559.61375   -143891.04   -141576.37    4273.7649    360041.71    70.863918    71.279366    71.279366 
47900000    556.50103   -143912.28   -141610.48    3902.2651    360041.71    70.855257    71.283723    71.283723 
48000000    561.23448   -143898.03   -141576.66    3971.1894    360041.71    70.846721    71.288017    71.288017 
48100000    553.31552   -143918.13   -141629.51    3735.7824    360041.71    70.838314    71.292247    71.292247 
48200000    559.30024      -143903   -141589.62    4080.5245    360041.71     70.83004    71.296411    71.296411 
48300000    557.67528   -143909.15   -141602.49    3707.1318    360041.71    70.821902    71.300507    71.300507 
48400000    562.76811   -143878.24   -141550.52     4377.264    360041.71    70.813903    71.304534    71.304534 
48500000    562.90066   -143868.11   -141539.84    4591.6939    360041.71    70.806048    71.308489    71.308489 
48600000    564.83374   -143892.68   -141556.42    4454.9773    360041.71     70.79834     71.31237     71.31237 
48700000    559.96565      -143903   -141586.87    4189.5495    360041.71    70.790782    71.316177    71.316177 
48800000    559.08207   -143894.97    -141582.5    4121.2047    360041.71    70.783377    71.319907    71.319907 
48900000    561.25884   -143896.04   -141574.57    4115.0827    360041.71    70.776129    71.323559    71.323559 
49000000    563.57384   -143896.47   -141565.42    3916.3704    360041.71    70.769041    71.327131    71.327131 
49100000    558.10122   -143936.09   -141627.68    3043.4495    360041.71    70.762116    71.330621    71.330621 
49200000    558.96076   -143929.65   -141617.68    3241.3892    360041.71    70.755357    71.334028    71.334028 
49300000     558.5678   -143895.51   -141585.16    4137.3194    360041.71    70.748767     71.33735     71.33735 
49400000    561.95092   -143898.38   -141574.05    3958.5458    360041.71    70.742349    71.340586    71.340586 
49500000    561.38279   -143923.21   -141601.22    3454.4782    360041.71    70.736105    71.343735    71.343735 
49600000    560.94828   -143881.67   -141561.48    4639.9528    360041.71    70.730039    71.346794    71.346794 
49700000    562.03493   -143888.66   -141563.97    4126.3292    360041.71    70.724153    71.349763    71.349763 
49800000    556.12141   -143896.23      -141596    3812.9996    360041.71     70.71845     71.35264     71.35264 
49900000    564.03405   -143899.44   -141566.48    4092.2656    360041.71    70.712932    71.355424    71.355424 
50000000    556.07253   -143883.12    -141583.1    4380.7253    360041.71    70.707601    71.358113    71.358113 
50100000    560.32516   -143864.98   -141547.36     4585.052    360041.71     70.70246    71.360708    71.360708 
50200000    567.48836   -143920.27   -141573.03    3629.0814    360041.71    70.697512    71.363205    71.363205 
50300000    557.93407   -143898.78   -141591.06     3967.321    360041.71    70.692758    71.365604    71.365604 
50400000    559.03325   -143884.53   -141572.26    4225.9554    360041.71      70.6882    71.367905    71.367905 
50500000    561.12865   -143875.98   -141555.04    4403.2458    360041.71    70.683841    71.370106    71.370106 
50600000    560.79307    -143900.1   -141580.55    3934.0931    360041.71    70.679682    71.372205    71.372205 
50700000    556.04093    -143885.9   -141586.01    4729.4476    360041.71    70.675725    71.374203    71.374203 
50800000    563.27023    -143880.7    -141550.9    4679.6437    360041.71    70.671973    71.376098    71.376098 
50900000    560.34987   -143871.22    -141553.5    4996.0661    360041.71    70.668425     71.37789     71.37789 
51000000    558.76687   -143901.26   -141590.09     4363.038    360041.71    70.665085    71.379576    71.379576 
51100000    559.77938   -143901.77   -141586.41    3999.6807    360041.71    70.661954    71.381158    71.381158 
51200000    559.90926   -143904.72   -141588.82     4058.446    360041.71    70.659032    71.382634    71.382634 
51300000    561.98275   -143891.92   -141567.45    4137.8181    360041.71    70.656322    71.384003    71.384003 
51400000    556.71101   -143908.33   -141605.66      3888.59    360041.71    70.653824    71.385265    71.385265 
51500000    560.87172   -143921.94   -141602.06     3931.978    360041.71     70.65154    71.386419    71.386419 
51600000    558.08439   -143899.35   -141591.01    3754.8028    360041.71     70.64947    71.387464    71.387464 
51700000    562.34975   -143923.07   -141597.08    3232.0792    360041.71    70.647616    71.388401    71.388401 
51800000    560.37644   -143899.77   -141581.95    3408.2834    360041.71    70.645977    71.389229    71.389229 
51900000    556.41355   -143923.01   -141621.57    3212.0583    360041.71    70.644556    71.389947    71.389947 
52000000    558.16926   -143922.87   -141614.17    3782.6119    360041.71    70.643353    71.390555    71.390555 
52100000    561.41199   -143918.19   -141596.08    3739.2287    360041.71    70.642367    71.391053    71.391053 
52200000    560.94884   -143899.68   -141579.48    4113.4652    360041.71      70.6416    71.391441    71.391441 
52300000    560.27798   -143897.27   -141579.85    3717.1132    360041.71    70.641052    71.391718    71.391718 
52400000    553.31207   -143915.85   -141627.24    3451.5807    360041.71    70.640723    71.391884    71.391884 
52500000    562.36209   -143891.16   -141565.12    4204.0214    360041.71    70.640614    71.391939    71.391939 
52600000    562.55371   -143894.51   -141567.67    3819.8503    360041.71    70.640723    71.391884    71.391884 
52700000    556.43478   -143894.31   -141592.79    3898.6031    360041.71    70.641052    71.391718    71.391718 
52800000    557.79544   -143910.34   -141603.19    3917.8685    360041.71      70.6416    71.391441    71.391441 
52900000    558.85899   -143899.05    -141587.5    4332.9547    360041.71    70.642367    71.391053    71.391053 
53000000    561.77397   -143920.92   -141597.31    3741.0599    360041.71    70.643353    71.390555    71.390555 
53100000    555.92853   -143868.91   -141569.48    4567.5768    360041.71    70.644556    71.389947    71.389947 
53200000    562.63362   -143914.74   -141587.58    3500.5731    360041.71    70.645977    71.389229    71.389229 
53300000    559.79299   -143875.07   -141559.66    4254.9989    360041.71    70.647616    71.388401    71.388401 
53400000    562.79235   -143908.15   -141580.33    3990.9349    360041.71     70.64947    71.387464    71.387464 
53500000    560.94894   -143905.25   -141585.05     3564.752    360041.71     70.65154    71.386419    71.386419 
53600000    561.96731   -143898.36   -141573.96    3805.5138    360041.71    70.653824    71.385265    71.385265 
53700000    563.52178   -143906.92   -141576.09    3628.6413    360041.71    70.656322    71.384003    71.384003 
53800000    561.03133   -143886.76   -141566.23    3918.9015    360041.71    70.659032    71.382634    71.382634 
53900000    556.95213   -143906.35   -141602.68    3650.6352    360041.71    70.661954    71.381158    71.381158 
54000000    557.66624   -143907.08   -141600.46    3958.3413    360041.71    70.665085    71.379576    71.379576 
54100000    562.01996   -143885.53    -141560.9     4301.745    360041.71    70.668425     71.37789     71.37789 
54200000    561.10781   -143884.46    -141563.6    3997.6567    360041.71    70.671973    71.376098    71.376098 
54300000    561.87115   -143887.75   -141563.74    4025.1458    360041.71    70.675725    71.374203    71.374203 
54400000     563.3021   -143887.48   -141557.55    4009.4557    360041.71    70.679682    71.372205    71.372205 
54500000     561.5497   -143931.42   -141608.74    3493.6577    360041.71    70.683841    71.370106    71.370106 
54600000    563.91228   -143915.73   -141583.28    3858.1723    360041.71      70.6882    71.367905    71.367905 
54700000    556.50352   -143903.89   -141602.08    3861.2571    360041.71    70.692758    71.365604    71.365604 
54800000    556.06896    -143928.7   -141628.69    3411.8602    360041.71    70.697512    71.363205    71.363205 
54900000    557.78775   -143917.55   -141610.43    3625.1038    360041.71     70.70246    71.360708    71.360708 
55000000    557.71754   -143924.11   -141617.28    3550.5104    360041.71    70.707601    71.358113    71.358113 
55100000    558.37703   -143932.39   -141622.84    3526.3543    360041.71    70.712932    71.355424    71.355424 
55200000    558.93211   -143912.79   -141600.93     3873.252    360041.71     70.71845     71.35264     71.35264 
55300000    562.15992   -143902.26   -141577.06    4075.9955    360041.71    70.724153    71.349763    71.349763 
55400000    563.15651   -143924.11   -141594.78    3821.7394    360041.71    70.730039    71.346794    71.346794 
55500000    557.79953   -143902.57    -141595.4    4108.3875    360041.71    70.736105    71.343735    71.343735 
55600000    561.26881   -143905.61   -141584.09    4214.1165    360041.71    70.742349    71.340586    71.340586 
55700000    561.83932   -143892.78   -141568.91    4277.8225    360041.71    70.748767     71.33735     71.33735 
55800000    559.71774   -143905.98   -141590.88    4316.5515    360041.71    70.755357    71.334028    71.334028 
55900000    559.13481    -143918.7   -141606.01    3891.0839    360041.71    70.762116    71.330621    71.330621 
56000000    559.22071   -143912.72   -141599.67    4014.4573    360041.71    70.769041    71.327131    71.327131 
56100000    561.33587   -143915.84   -141594.04    3711.2697    360041.71    70.776129    71.323559    71.323559 
56200000    561.80044    -143902.8   -141579.08     3964.377    360041.71    70.783377    71.319907    71.319907 
56300000    563.83355   -143916.52    -141584.4     4037.833    360041.71    70.790782    71.316177    71.316177 
56400000    556.80983   -143907.55   -141604.47    4259.3246    360041.71     70.79834     71.31237     71.31237 
56500000    562.23282    -143901.3    -141575.8    4292.9832    360041.71    70.806048    71.308489    71.308489 
56600000    559.50764   -143909.66   -141595.43    3953.8925    360041.71    70.813903    71.304534    71.304534 
56700000    562.14495   -143914.79   -141589.65    3642.2562    360041.71    70.821902    71.300507    71.300507 
56800000    563.17626   -143915.68   -141586.27     4320.546    360041.71     70.83004    71.296411    71.296411 
56900000    557.81842   -143922.68   -141615.43    3749.2042    360041.71    70.838314    71.292247    71.292247 
57000000     559.9032   -143939.64   -141623.77    3564.2985    360041.71    70.846721    71.288017    71.288017 
57100000    562.67676   -143906.14    -141578.8    3794.5521    360041.71    70.855257    71.283723    71.283723 
57200000    564.39981   -143914.36   -141579.89    3679.9188    360041.71    70.863918    71.279366    71.279366 
57300000    559.33029   -143901.16   -141587.66    4166.9586    360041.71      70.8727     71.27495     71.27495 
57400000    559.71672   -143909.27   -141594.17     4075.645    360041.71      70.8816    71.270475    71.270475 
57500000     557.3929   -143921.54   -141616.05     3808.222    360041.71    70.890614    71.265944    71.265944 
57600000    562.77309   -143903.89   -141576.15     4063.639    360041.71    70.899737    71.261359    71.261359 
57700000    564.99515   -143900.68   -141563.75    4250.5548    360041.71    70.908966    71.256721    71.256721 
57800000    555.58857   -143920.18   -141622.16    3703.3156    360041.71    70.918296    71.252034    71.252034 
57900000     561.2453   -143915.51   -141594.09    4049.1116    360041.71    70.927724    71.247298    71.247298 
58000000     557.0438    -143898.1   -141594.06    4030.5434    360041.71    70.937245    71.242516    71.242516 
58100000    565.42289    -143903.6    -141564.9    4064.3035    360041.71    70.946856    71.237691    71.237691 
58200000     559.3895   -143905.77   -141592.03     3840.711    360041.71    70.956551    71.232824    71.232824 
58300000    562.78024   -143923.43   -141595.66    3848.7714    360041.71    70.966328    71.227917    71.227917 
58400000    562.33159   -143905.13   -141579.22    4072.0621    360041.71     70.97618    71.222973    71.222973 
58500000    560.50908   -143909.89   -141591.51    3927.2123    360041.71    70.986105    71.217994    71.217994 
58600000    560.00043   -143895.04   -141578.77    4193.5183    360041.71    70.996098    71.212982    71.212982 
58700000    555.64946   -143933.91   -141635.64    3248.2101    360041.71    71.006154    71.207939    71.207939 
58800000    557.73604   -143906.72   -141599.82    3975.0801    360041.71    71.016269    71.202868    71.202868 
58900000    561.28288   -143928.46   -141606.88    3626.8946    360041.71    71.026438     71.19777     71.19777 
59000000    560.63609   -143919.89   -141600.99    3778.0141    360041.71    71.036658    71.192649    71.192649 
59100000    557.00983   -143918.95   -141615.05    3625.3619    360041.71    71.046923    71.187505    71.187505 
59200000    558.37915   -143927.83   -141618.26    3858.0723    360041.71    71.057229    71.182343    71.182343 
59300000    559.54469   -143923.37   -141608.98    3682.0209    360041.71    71.067572    71.177163    71.177163 
59400000    563.18055   -143926.38   -141596.96    3563.2588    360041.71    71.077947    71.171968    71.171968 
59500000    559.73773   -143908.13   -141592.94    3430.8796    360041.71    71.088349     71.16676     71.16676 
59600000     558.7154   -143928.13   -141617.18    3522.2963    360041.71    71.098775    71.161542    71.161542 
59700000    560.19844   -143924.42   -141607.33    3675.1029    360041.71    71.109218    71.156316    71.156316 
59800000     563.8508   -143911.81   -141579.61    3783.9359    360041.71    71.119676    71.151085    71.151085 
59900000    563.96579   -143905.68      -141573    3964.3257    360041.71    71.130142     71.14585     71.14585 
60000000    556.52005   -143927.76   -141625.89    3386.4837    360041.71    71.140614    71.140614    71.140614 
60100000    555.09191   -143915.61   -141619.64    3907.0068    360041.71    71.151085    71.135379    71.135379 
60200000    557.16648   -143924.02   -141619.47     3560.093    360041.71    71.161551    71.130147    71.130147 
60300000      559.023   -143894.74   -141582.51    3913.1614    360041.71    71.172009    71.124921    71.124921 
60400000    559.50593    -143894.9   -141580.67    3701.0571    360041.71    71.182453    71.119703    71.119703 
60500000    557.38335   -143911.49   -141606.04    3182.1256    360041.71    71.192878    71.114496    71.114496 
60600000     559.1018   -143911.82   -141599.26    3740.4812    360041.71     71.20328    71.109301    71.109301 
60700000     564.4662    -143911.8   -141577.06    3827.5757    360041.71    71.213655    71.104121    71.104121 
60800000    560.22909   -143920.48   -141603.26    3360.7103    360041.71    71.223998    71.098958    71.098958 
60900000    560.02335   -143894.44   -141578.07    4089.7156    360041.71    71.234304    71.093815    71.093815 
61000000    563.77629   -143923.35   -141591.46    3427.5456    360041.71     71.24457    71.088693    71.088693 
61100000    556.60469   -143909.46   -141607.24    3452.7677    360041.71    71.254789    71.083595    71.083595 
61200000    561.60833   -143922.27   -141599.35      3232.04    360041.71    71.264959    71.078523    71.078523 
61300000    562.84134   -143917.85   -141589.82    3454.1442    360041.71    71.275074    71.073479    71.073479 
61400000    561.29118   -143922.17   -141600.56    3313.2668    360041.71     71.28513    71.068466    71.068466 
61500000    558.39125      -143886   -141576.38    4116.9499    360041.71    71.295122    71.063485    71.063485 
61600000    559.06525   -143884.73   -141572.33    3854.6714    360041.71    71.305047    71.058539    71.058539 
61700000    559.92997   -143892.85   -141576.87    3908.9903    360041.71      71.3149     71.05363     71.05363 
61800000    557.35863   -143903.96   -141598.62    3938.3262    360041.71    71.324676    71.048761    71.048761 
61900000    560.89672    -143926.3   -141606.32    3270.8869    360041.71    71.334371    71.043932    71.043932 
62000000    558.23661   -143914.59   -141605.61    3671.2448    360041.71    71.343982    71.039147    71.039147 
62100000      559.054   -143900.55   -141588.19    3762.2369    360041.71    71.353503    71.034407    71.034407 
62200000    561.94286   -143890.89   -141566.59    3791.8783    360041.71    71.362931    71.029715    71.029715 
62300000    562.08898    -143901.3   -141576.39    3788.2399    360041.71    71.372262    71.025072    71.025072 
62400000    558.19422   -143904.05   -141595.25    3905.2308    360041.71     71.38149     71.02048     71.02048 
62500000    560.07782    -143891.8   -141575.21    4397.4243    360041.71    71.390614    71.015942    71.015942 
62600000    562.89698   -143902.29   -141574.04    4390.8315    360041.71    71.399627    71.011459    71.011459 
62700000    560.00209   -143903.38    -141587.1    3920.4838    360041.71    71.408527    71.007034    71.007034 
62800000    560.55657   -143923.17    -141604.6    3479.2714    360041.71    71.417309    71.002668    71.002668 
62900000    558.80632   -143907.82   -141596.49    3784.1448    360041.71     71.42597    70.998363    70.998363 
63000000    560.78141    -143874.9   -141555.39    4038.4339    360041.71    71.434506    70.994121    70.994121 
63100000     560.9486   -143907.73   -141587.53    3770.6305    360041.71    71.442913    70.989944    70.989944 
63200000    556.59128   -143919.46   -141617.29    3303.8188    360041.71    71.451188    70.985833    70.985833 
63300000    556.08766    -143897.3   -141597.22    3926.8571    360041.71    71.459326    70.981791    70.981791 
63400000    559.49463   -143890.99   -141576.81       4210.6    360041.71    71.467324    70.977819    70.977819 
63500000    558.37453   -143908.32   -141598.77    4021.4628    360041.71    71.475179    70.973919    70.973919 
63600000    565.47565   -143905.59   -141566.68    3879.3372    360041.71    71.482887    70.970092    70.970092 
63700000     561.0842    -143922.9   -141602.15    3768.2321    360041.71    71.490445     70.96634     70.96634 
63800000    560.72565   -143912.85   -141593.58     3377.794    360041.71     71.49785    70.962665    70.962665 
63900000    558.64595   -143894.03   -141583.37    4084.2699    360041.71    71.505098    70.959069    70.959069 
64000000    564.81847   -143894.09   -141557.89    4267.4525    360041.71    71.512186    70.955552    70.955552 
64100000    560.15682   -143905.25   -141588.33     4089.474    360041.71    71.519111    70.952117    70.952117 
64200000    559.42594    -143913.3    -141599.4    3964.9614    360041.71     71.52587    70.948764    70.948764 
64300000    561.76917    -143900.2   -141576.62    3866.8229    360041.71     71.53246    70.945496    70.945496 
64400000    563.26269   -143902.25   -141572.49    4308.7749    360041.71    71.538879    70.942313    70.942313 
64500000    560.81881   -143913.81   -141594.15    4303.7877    360041.71    71.545122    70.939218    70.939218 
64600000    558.10828    -143902.5   -141594.06    3867.8785    360041.71    71.551188    70.936211    70.936211 
64700000    557.70129   -143919.73   -141612.97    3484.6994    360041.71    71.557074    70.933293    70.933293 
64800000    562.81755   -143898.69   -141570.77    3741.5867    360041.71    71.562778    70.930467    70.930467 
64900000    561.09828   -143913.77   -141592.95    3326.3365    360041.71    71.568296    70.927732    70.927732 
65000000    556.56998   -143886.79   -141584.71    3918.6406    360041.71    71.573626    70.925091    70.925091 
65100000    561.91991   -143914.27   -141590.06    3717.0276    360041.71    71.578767    70.922544    70.922544 
65200000    557.25183   -143890.22   -141585.32    4208.1113    360041.71    71.583715    70.920092    70.920092 
65300000    561.27474   -143903.06   -141581.51    3799.2279    360041.71     71.58847    70.917737    70.917737 
65400000    564.76526   -143896.52   -141560.54    4215.9861    360041.71    71.593027     70.91548     70.91548 
65500000    561.94169   -143909.16   -141584.86    3909.3081    360041.71    71.597386    70.913321    70.913321 
65600000    558.03438      -143899   -141590.86     3962.744    360041.71    71.601545    70.911262    70.911262 
65700000    558.66437   -143879.29   -141568.55    4090.7029    360041.71    71.605502    70.909303    70.909303 
65800000    560.66593   -143888.12    -141569.1    4384.9831    360041.71    71.609255    70.907445    70.907445 
65900000    561.03659   -143913.34   -141592.78    3586.6606    360041.71    71.612802    70.905688    70.905688 
66000000     560.4337   -143903.35   -141585.29    3978.2494    360041.71    71.616142    70.904035    70.904035 
66100000    561.79802   -143899.99   -141576.28      3761.88    360041.71    71.619273    70.902485    70.902485 
66200000    554.86014   -143899.87   -141604.86    3592.3512    360041.71    71.622195    70.901039    70.901039 
66300000    563.03727   -143921.57   -141592.74     3320.024    360041.71    71.624905    70.899697    70.899697 
66400000    561.30285   -143931.89   -141610.23    3207.7957    360041.71    71.627403    70.898461    70.898461 
66500000    557.86561   -143898.96   -141591.52    3918.6449    360041.71    71.629687     70.89733     70.89733 
66600000    557.89263   -143921.39   -141613.84    3379.5716    360041.71    71.631757    70.896306    70.896306 
66700000    560.84935   -143888.74   -141568.96    4006.9174    360041.71    71.633612    70.895388    70.895388 
66800000    563.98582    -143886.1   -141553.34    4269.4937    360041.71     71.63525    70.894578    70.894578 
66900000    561.00945   -143908.26   -141587.81     4032.176    360041.71    71.636671    70.893875    70.893875 
67000000    561.26095   -143906.96   -141585.48    3871.6057    360041.71    71.637875    70.893279    70.893279 
67100000    563.31101   -143897.74   -141567.77    4252.2623    360041.71     71.63886    70.892791    70.892791 
67200000    559.72044   -143912.12   -141597.01    3578.8979    360041.71    71.639627    70.892412    70.892412 
67300000    562.23922   -143908.04   -141582.51    3949.2243    360041.71    71.640175    70.892141    70.892141 
67400000    557.43482   -143881.86    -141576.2    4265.2727    360041.71    71.640504    70.891978    70.891978 
67500000    561.88638      -143918   -141593.93    3476.2472    360041.71    71.640614    70.891924    70.891924 
67600000    560.88208   -143929.05   -141609.13    3336.3148    360041.71    71.640504    70.891978    70.891978 
67700000    561.86301   -143892.34   -141568.37    3932.6202    360041.71    71.640175    70.892141    70.892141 
67800000    560.78864   -143892.78   -141573.25    3893.3553    360041.71    71.639627    70.892412    70.892412 
67900000    563.83589    -143895.1   -141562.96    4468.2623    360041.71     71.63886    70.892791    70.892791 
68000000    560.51395   -143918.48   -141600.09    4126.3225    360041.71    71.637875    70.893279    70.893279 
68100000    563.16107   -143906.34      -141577    3685.0286    360041.71    71.636671    70.893875    70.893875 
68200000    555.88557   -143920.13   -141620.87     3570.996    360041.71     71.63525    70.894578    70.894578 
68300000    560.89288    -143932.4   -141612.43    3478.4199    360041.71    71.633612    70.895388    70.895388 
68400000    563.95892    -143920.1   -141587.45    3742.0905    360041.71    71.631757    70.896306    70.896306 
68500000    561.24481   -143906.39   -141584.97     3860.595    360041.71    71.629687     70.89733     70.89733 
68600000    560.81034   -143922.22    -141602.6    3418.3374    360041.71    71.627403    70.898461    70.898461 
68700000    563.07216    -143900.7   -141571.72    3987.5788    360041.71    71.624905    70.899697    70.899697 
68800000    557.86277   -143920.51   -141613.08    3411.1937    360041.71    71.622195    70.901039    70.901039 
68900000    557.73543   -143911.07   -141604.17    3582.2617    360041.71    71.619273    70.902485    70.902485 
[...]
133400000    560.52744   -143906.62   -141588.17    3940.4471    360041.71    71.305047    71.058539    71.058539 
133500000    560.38295   -143936.96   -141619.11    3828.2215    360041.71    71.295122    71.063485    71.063485 
133600000    554.79395   -143921.41   -141626.68    3899.4415    360041.71     71.28513    71.068466    71.068466 
133700000    561.87496   -143912.89   -141588.86    3807.9519    360041.71    71.275074    71.073479    71.073479 
133800000    559.68432   -143927.82   -141612.86    3724.7748    360041.71    71.264959    71.078523    71.078523 
133900000    560.18373    -143913.4   -141596.37    4090.9651    360041.71    71.254789    71.083595    71.083595 
134000000    563.55062   -143900.21   -141569.25    3939.8478    360041.71     71.24457    71.088693    71.088693 
134100000    557.58229   -143918.99   -141612.72    3782.6632    360041.71    71.234304    71.093815    71.093815 
134200000    557.22331   -143940.62   -141635.84     3159.873    360041.71    71.223998    71.098958    71.098958 
134300000    560.51418   -143924.81   -141606.42     3624.122    360041.71    71.213655    71.104121    71.104121 
134400000    561.69957   -143906.32   -141583.02    4565.5763    360041.71     71.20328    71.109301    71.109301 
134500000    557.89499   -143909.62   -141602.06    4429.1219    360041.71    71.192878    71.114496    71.114496 
134600000    559.22401   -143929.51   -141616.45    3419.4045    360041.71    71.182453    71.119703    71.119703 
134700000    561.29578   -143928.33    -141606.7     3759.514    360041.71    71.172009    71.124921    71.124921 
134800000    554.72402   -143912.02   -141617.57    3658.4175    360041.71    71.161551    71.130147    71.130147 
134900000    555.64337   -143919.19   -141620.94    3429.9472    360041.71    71.151085    71.135379    71.135379 
135000000    559.03981   -143897.78   -141585.48     3899.009    360041.71    71.140614    71.140614    71.140614 
135100000    560.40228   -143920.67   -141602.74    3658.4494    360041.71    71.130142     71.14585     71.14585 
135200000    560.65891   -143932.14   -141613.15    3635.9408    360041.71    71.119676    71.151085    71.151085 
135300000    556.33188   -143903.08   -141601.98    3970.9919    360041.71    71.109218    71.156316    71.156316 
135400000    558.73391   -143886.51   -141575.48    4559.5737    360041.71    71.098775    71.161542    71.161542 
135500000     556.6494   -143940.32   -141637.91     3387.062    360041.71    71.088349     71.16676     71.16676 
135600000    560.51676   -143915.34   -141596.93    3652.8644    360041.71    71.077947    71.171968    71.171968 
135700000    560.63857   -143932.86   -141613.95    3624.7685    360041.71    71.067572    71.177163    71.177163 
135800000    558.71639   -143902.29   -141591.33    4153.7777    360041.71    71.057229    71.182343    71.182343 
135900000    568.91227   -143906.87   -141553.74    3924.9926    360041.71    71.046923    71.187505    71.187505 
136000000    559.05444   -143924.78   -141612.42    3608.6199    360041.71    71.036658    71.192649    71.192649 
136100000    562.64619   -143906.76   -141579.54     3862.581    360041.71    71.026438     71.19777     71.19777 
136200000     556.8702   -143919.31   -141615.99    3921.0868    360041.71    71.016269    71.202868    71.202868 
136300000    555.88129   -143892.81   -141593.57    4217.0716    360041.71    71.006154    71.207939    71.207939 
136400000    558.49294    -143907.4   -141597.36    4334.6021    360041.71    70.996098    71.212982    71.212982 
136500000    557.44691   -143900.47   -141594.76    3932.2753    360041.71    70.986105    71.217994    71.217994 
136600000    554.02908   -143915.87    -141624.3    3817.3886    360041.71     70.97618    71.222973    71.222973 
136700000    559.66053   -143909.56   -141594.69     4164.643    360041.71    70.966328    71.227917    71.227917 
136800000     558.7243   -143925.09    -141614.1    3767.9527    360041.71    70.956551    71.232824    71.232824 
136900000    563.11818   -143899.84   -141570.67    4013.2998    360041.71    70.946856    71.237691    71.237691 
137000000    564.02295   -143922.36   -141589.45    4140.8284    360041.71    70.937245    71.242516    71.242516 
137100000    559.64386   -143892.36   -141577.57    4369.7252    360041.71    70.927724    71.247298    71.247298 
137200000    557.57391   -143897.68   -141591.45    4167.9197    360041.71    70.918296    71.252034    71.252034 
137300000     557.1374   -143887.67   -141583.24    4377.4684    360041.71    70.908966    71.256721    71.256721 
137400000    561.96697    -143922.2   -141597.79    3558.5948    360041.71    70.899737    71.261359    71.261359 
137500000    553.39737   -143905.75   -141616.79    3985.9465    360041.71    70.890614    71.265944    71.265944 
137600000    562.00618   -143894.95   -141570.38    4106.1226    360041.71      70.8816    71.270475    71.270475 
137700000    563.58789   -143905.43   -141574.32    3942.5516    360041.71      70.8727     71.27495     71.27495 
137800000    558.11439   -143902.94   -141594.47    4230.8875    360041.71    70.863918    71.279366    71.279366 
137900000    559.95618   -143900.66   -141584.57    4525.0871    360041.71    70.855257    71.283723    71.283723 
138000000     557.8779   -143876.38   -141568.89    4638.7614    360041.71    70.846721    71.288017    71.288017 
138100000    564.46683   -143900.19   -141565.45    4062.4626    360041.71    70.838314    71.292247    71.292247 
138200000     560.9538   -143902.91   -141582.69     3748.404    360041.71     70.83004    71.296411    71.296411 
138300000    559.86856   -143912.95   -141597.22    3880.5752    360041.71    70.821902    71.300507    71.300507 
138400000    557.34702   -143901.21   -141595.92    4399.6645    360041.71    70.813903    71.304534    71.304534 
138500000    560.38991   -143894.64   -141576.76     4431.516    360041.71    70.806048    71.308489    71.308489 
138600000    559.69793   -143927.79   -141612.77    3822.6515    360041.71     70.79834     71.31237     71.31237 
138700000    564.08209   -143894.77   -141561.62    4051.2366    360041.71    70.790782    71.316177    71.316177 
138800000    564.07179   -143907.94   -141574.83    3847.5602    360041.71    70.783377    71.319907    71.319907 
138900000    560.98676   -143924.53   -141604.18      3405.48    360041.71    70.776129    71.323559    71.323559 
139000000    555.93329   -143908.34   -141608.89    3868.7019    360041.71    70.769041    71.327131    71.327131 
139100000    558.78009   -143900.69   -141589.47    3999.7054    360041.71    70.762116    71.330621    71.330621 
139200000    557.41021   -143902.33   -141596.77    4235.5867    360041.71    70.755357    71.334028    71.334028 
139300000    557.76573   -143904.35   -141597.32    3795.2738    360041.71    70.748767     71.33735     71.33735 
139400000    562.96115   -143901.77   -141573.25    4066.5708    360041.71    70.742349    71.340586    71.340586 
139500000    559.58226   -143903.28   -141588.73    4388.5737    360041.71    70.736105    71.343735    71.343735 
139600000    554.13762   -143907.97   -141615.95    3636.8924    360041.71    70.730039    71.346794    71.346794 
139700000    560.98874   -143933.55    -141613.2    3405.8336    360041.71    70.724153    71.349763    71.349763 
139800000    560.12295    -143912.9   -141596.12    4208.4748    360041.71     70.71845     71.35264     71.35264 
139900000    557.39698   -143889.72   -141584.22    4224.7406    360041.71    70.712932    71.355424    71.355424 
140000000    563.32795   -143916.33    -141586.3    3769.8513    360041.71    70.707601    71.358113    71.358113 
140100000    557.77625   -143908.98   -141601.91    3719.6179    360041.71     70.70246    71.360708    71.360708 
140200000    559.47262   -143906.71   -141592.62    3686.8533    360041.71    70.697512    71.363205    71.363205 
140300000    558.42595   -143922.02   -141612.26    3679.1138    360041.71    70.692758    71.365604    71.365604 
140400000    563.65146   -143900.82   -141569.44    4087.7946    360041.71      70.6882    71.367905    71.367905 
140500000    554.98443   -143888.62   -141593.09    4605.1716    360041.71    70.683841    71.370106    71.370106 
140600000     561.2967   -143920.17   -141598.54    3937.6371    360041.71    70.679682    71.372205    71.372205 
140700000    563.52911   -143883.26   -141552.39    4860.0784    360041.71    70.675725    71.374203    71.374203 
140800000    560.86928   -143893.31   -141573.44    4424.7345    360041.71    70.671973    71.376098    71.376098 
140900000    564.54332   -143902.24   -141567.18    4267.3729    360041.71    70.668425     71.37789     71.37789 
141000000     559.2619   -143908.02   -141594.81    3789.0427    360041.71    70.665085    71.379576    71.379576 
141100000     559.1588   -143925.01   -141612.22    3956.0939    360041.71    70.661954    71.381158    71.381158 
141200000    565.09796   -143919.72   -141582.37    3620.7488    360041.71    70.659032    71.382634    71.382634 
141300000    560.22769   -143903.35   -141586.14    3855.8102    360041.71    70.656322    71.384003    71.384003 
141400000    559.53724   -143937.66   -141623.31    3672.4113    360041.71    70.653824    71.385265    71.385265 
141500000    556.41736   -143890.61   -141589.16    3926.5773    360041.71     70.65154    71.386419    71.386419 
141600000    561.61245   -143927.33   -141604.39    3383.8416    360041.71     70.64947    71.387464    71.387464 
141700000    561.07473   -143881.14   -141560.42    4263.9984    360041.71    70.647616    71.388401    71.388401 
141800000    558.08113    -143893.1   -141584.77    4133.8318    360041.71    70.645977    71.389229    71.389229 
141900000    557.89033    -143889.1   -141581.56    3979.1265    360041.71    70.644556    71.389947    71.389947 
142000000    562.17968    -143880.8   -141555.52    4423.7897    360041.71    70.643353    71.390555    71.390555 
142100000    558.05314   -143885.26   -141577.04    4238.4509    360041.71    70.642367    71.391053    71.391053 
142200000    562.39514    -143893.2   -141567.02    4270.9368    360041.71      70.6416    71.391441    71.391441 
142300000    561.42609   -143889.35   -141567.18    4515.4905    360041.71    70.641052    71.391718    71.391718 
142400000    556.30906    -143892.5    -141591.5     4020.704    360041.71    70.640723    71.391884    71.391884 
142500000    564.04095   -143887.94   -141554.96    4317.5572    360041.71    70.640614    71.391939    71.391939 
142600000    562.12403   -143890.61   -141565.55    4662.7243    360041.71    70.640723    71.391884    71.391884 
142700000    556.26363   -143902.94   -141602.12    3869.0941    360041.71    70.641052    71.391718    71.391718 
142800000    557.32907    -143897.4   -141592.18    4118.8951    360041.71      70.6416    71.391441    71.391441 
142900000    563.28883   -143911.99   -141582.12    3866.1146    360041.71    70.642367    71.391053    71.391053 
143000000    564.99177   -143891.74   -141554.83    4209.0551    360041.71    70.643353    71.390555    71.390555 
143100000    556.47188   -143893.46   -141591.79    4228.4479    360041.71    70.644556    71.389947    71.389947 
143200000    565.13165   -143903.92   -141566.42    3861.7626    360041.71    70.645977    71.389229    71.389229 
143300000    560.64105   -143896.38   -141577.46    4005.0865    360041.71    70.647616    71.388401    71.388401 
143400000    560.65725   -143901.23   -141582.24    3754.6043    360041.71     70.64947    71.387464    71.387464 
143500000      556.387   -143902.47   -141601.14    4002.9822    360041.71     70.65154    71.386419    71.386419 
143600000    562.81225   -143884.56   -141556.66    4435.4682    360041.71    70.653824    71.385265    71.385265 
143700000    562.78639   -143889.07   -141561.28    4230.4937    360041.71    70.656322    71.384003    71.384003 
143800000     561.3225   -143896.62   -141574.88    3795.7894    360041.71    70.659032    71.382634    71.382634 
143900000    558.19495   -143908.15   -141599.34    3576.7029    360041.71    70.661954    71.381158    71.381158 
144000000    558.26592   -143893.24   -141584.14    3855.1439    360041.71    70.665085    71.379576    71.379576 
144100000    560.97579   -143902.51   -141582.21    3697.8469    360041.71    70.668425     71.37789     71.37789 
144200000    553.78984   -143901.08    -141610.5    3576.4345    360041.71    70.671973    71.376098    71.376098 
144300000    561.16179   -143891.27   -141570.19     4520.408    360041.71    70.675725    71.374203    71.374203 
144400000    556.24079   -143889.32    -141588.6    4024.7909    360041.71    70.679682    71.372205    71.372205 
144500000    562.75758   -143900.27    -141572.6    3657.1421    360041.71    70.683841    71.370106    71.370106 
144600000     558.9192   -143874.24   -141562.44    4218.8651    360041.71      70.6882    71.367905    71.367905 
144700000    562.64161   -143909.15   -141581.95    3793.8399    360041.71    70.692758    71.365604    71.365604 
144800000    555.11845   -143887.44   -141591.36    4288.3226    360041.71    70.697512    71.363205    71.363205 
144900000    557.54181   -143870.67   -141564.57    4981.0183    360041.71     70.70246    71.360708    71.360708 
145000000    562.08007   -143884.79   -141559.92    4229.7294    360041.71    70.707601    71.358113    71.358113 
145100000    563.69143   -143896.59   -141565.05    4588.3706    360041.71    70.712932    71.355424    71.355424 
145200000    556.57476   -143870.81   -141568.71    4517.5115    360041.71     70.71845     71.35264     71.35264 
145300000    560.45267   -143891.92   -141573.78    4314.0072    360041.71    70.724153    71.349763    71.349763 
145400000    560.93179   -143900.75   -141580.63    3880.8965    360041.71    70.730039    71.346794    71.346794 
145500000    557.02359   -143866.32   -141562.36    4674.9177    360041.71    70.736105    71.343735    71.343735 
145600000    562.48945   -143874.56   -141547.99    4349.3653    360041.71    70.742349    71.340586    71.340586 
145700000    557.95437    -143895.6   -141587.79    3908.5484    360041.71    70.748767     71.33735     71.33735 
145800000    565.51353   -143873.86   -141534.79    4276.4138    360041.71    70.755357    71.334028    71.334028 
145900000     559.4736    -143866.2    -141552.1    4907.7178    360041.71    70.762116    71.330621    71.330621 
146000000    562.44487   -143884.39      -141558    4234.5469    360041.71    70.769041    71.327131    71.327131 
146100000    560.92403   -143878.05   -141557.96    4263.3579    360041.71    70.776129    71.323559    71.323559 
146200000    560.14147    -143913.6   -141596.75    3322.4334    360041.71    70.783377    71.319907    71.319907 
146300000     563.7617   -143902.14   -141570.31     4060.943    360041.71    70.790782    71.316177    71.316177 
146400000    557.26657    -143877.8   -141572.84    3958.6818    360041.71     70.79834     71.31237     71.31237 
146500000    560.54226   -143881.16   -141562.65    4411.2458    360041.71    70.806048    71.308489    71.308489 
146600000    556.80587   -143897.32   -141594.26    4074.0112    360041.71    70.813903    71.304534    71.304534 
146700000    556.10485   -143886.61   -141586.45    4656.9287    360041.71    70.821902    71.300507    71.300507 
146800000    563.08505   -143892.95   -141563.92     4190.975    360041.71     70.83004    71.296411    71.296411 
146900000    557.02885   -143885.51   -141581.53    4270.4315    360041.71    70.838314    71.292247    71.292247 
147000000    560.11202   -143903.29   -141586.56    4152.0044    360041.71    70.846721    71.288017    71.288017 
147100000    561.24195   -143904.94   -141583.53    4207.0565    360041.71    70.855257    71.283723    71.283723 
147200000    560.16118   -143899.98   -141583.05    4056.0005    360041.71    70.863918    71.279366    71.279366 
147300000    559.09459   -143870.69   -141558.16    4790.5346    360041.71      70.8727     71.27495     71.27495 
147400000    556.18495   -143899.65   -141599.16    4106.3311    360041.71      70.8816    71.270475    71.270475 
147500000    560.06277    -143911.7   -141595.17     4060.039    360041.71    70.890614    71.265944    71.265944 
147600000    563.34636   -143894.77   -141564.66    4638.6951    360041.71    70.899737    71.261359    71.261359 
147700000    560.00499   -143907.36   -141591.07    3862.0747    360041.71    70.908966    71.256721    71.256721 
147800000    563.00217   -143911.21   -141582.52    4139.2682    360041.71    70.918296    71.252034    71.252034 
147900000    560.96981   -143894.71   -141574.43    4367.8941    360041.71    70.927724    71.247298    71.247298 
148000000    558.45946   -143898.03   -141588.14    3812.8864    360041.71    70.937245    71.242516    71.242516 
148100000    561.12894   -143908.58   -141587.64    3799.3197    360041.71    70.946856    71.237691    71.237691 
148200000    558.28152    -143900.9   -141591.74    3774.5633    360041.71    70.956551    71.232824    71.232824 
148300000    556.91477   -143885.44   -141581.93    3975.7424    360041.71    70.966328    71.227917    71.227917 
148400000    561.14839   -143888.29   -141567.27    4018.5767    360041.71     70.97618    71.222973    71.222973 
148500000    560.77781   -143903.44   -141583.95    3572.9151    360041.71    70.986105    71.217994    71.217994 
148600000    563.31844   -143891.36   -141561.37    4523.5498    360041.71    70.996098    71.212982    71.212982 
148700000    562.56829   -143892.54   -141565.64    4082.0413    360041.71    71.006154    71.207939    71.207939 
148800000    558.59368   -143906.64   -141596.19    3890.5932    360041.71    71.016269    71.202868    71.202868 
148900000    560.51001   -143902.55   -141584.17    3938.5189    360041.71    71.026438     71.19777     71.19777 
149000000    560.67226   -143898.14   -141579.09    4366.8099    360041.71    71.036658    71.192649    71.192649 
149100000    561.85029   -143909.92      -141586     3788.656    360041.71    71.046923    71.187505    71.187505 
149200000    563.65848   -143874.68   -141543.28    4568.5323    360041.71    71.057229    71.182343    71.182343 
149300000    560.14677      -143882   -141565.13     4620.557    360041.71    71.067572    71.177163    71.177163 
149400000    564.46412   -143891.86   -141557.13    4217.4627    360041.71    71.077947    71.171968    71.171968 
149500000    558.12781   -143877.76   -141569.24     4698.382    360041.71    71.088349     71.16676     71.16676 
149600000    559.41366   -143889.09   -141575.25    4282.6261    360041.71    71.098775    71.161542    71.161542 
149700000    562.98548   -143900.01   -141571.39    4201.5527    360041.71    71.109218    71.156316    71.156316 
149800000      557.347   -143916.16   -141610.86    4232.0302    360041.71    71.119676    71.151085    71.151085 
149900000    558.58203   -143899.05   -141588.65    3924.3318    360041.71    71.130142     71.14585     71.14585 
150000000    560.41162   -143884.97      -141567    3917.9187    360041.71    71.140614    71.140614    71.140614 
Loop time of 345887 on 120 procs (120 MPI x 1 OpenMP) for 150000000 steps with 32000 atoms

Pair  time (%) = 253403 (73.2618)
Neigh time (%) = 17392.8 (5.02847)
Comm  time (%) = 54362.5 (15.7169)
Outpt time (%) = 7.22287 (0.00208822)
Other time (%) = 20721.3 (5.99077)

Nlocal:    266.667 ave 279 max 258 min
Histogram: 8 12 17 17 25 27 6 4 2 2
Nghost:    2517.14 ave 2536 max 2483 min
Histogram: 3 2 0 8 13 19 21 24 20 10
Neighs:    30450.9 ave 33143 max 28591 min
Histogram: 4 18 20 16 22 17 15 6 1 1

Total # of neighbors = 3654107
Ave neighs/atom = 114.191
Neighbor list builds = 15962069
Dangerous builds = 3564
write_restart  dms300ns_560-10c.rst
clear
WARNING: OMP_NUM_THREADS environment is not set. (../comm.cpp:89)
  using 1 OpenMP thread(s) per MPI task
#jump YDMA580-300ns.lmp
