ITEM: TIMESTEP
0
ITEM: NUMBER OF ATOMS
32000
ITEM: BOX BOUNDS pp pp pp
-35.5359 35.5359
-35.5359 35.5359
-35.5359 35.5359
ITEM: ATOMS id type x y z 
1 1 6.79636 -0.132328 -25.6976 
2 1 3.1524 22.0471 -11.7876 
3 1 -4.26958 33.8583 -10.7192 
4 1 29.5661 17.9866 33.3291 
5 1 35.3981 30.159 -17.3209 
6 2 -24.474 11.7989 -15.05 
7 1 -23.2562 -27.3632 26.2209 
8 1 5.60357 -3.43232 -31.273 
9 1 6.7186 22.9277 14.3454 
10 1 -4.68211 23.665 2.22696 
11 2 -11.2139 25.0572 6.39998 
12 1 -13.4059 11.544 28.2157 
13 1 30.6797 -10.7699 -21.5446 
14 1 -23.5285 -34.0362 -16.2136 
15 1 -11.6349 -15.6608 -5.22947 
16 1 5.42491 22.2976 34.2655 
17 2 -17.2961 -13.1782 33.4281 
18 1 -7.25319 -28.8629 -19.3965 
19 1 -5.15408 34.5769 -33.7716 
20 1 -1.3896 -8.20452 -13.1753 
21 2 -30.3673 -2.36727 -0.729874 
22 2 -17.9803 24.9688 20.7257 
23 1 -23.3402 -27.2024 -5.56059 
24 1 22.1483 -12.3444 -33.6424 
25 1 -12.1787 -34.0447 -25.2268 
26 1 -17.2793 -12.67 -10.9938 
27 1 15.2784 30.0529 -25.1217 
28 1 3.00915 -7.61173 -16.3249 
29 1 16.0471 -19.2217 23.3483 
30 1 -12.6201 23.2065 -11.6665 
31 1 33.56 -33.0336 -21.5803 
32 1 5.60859 31.4311 27.1227 
33 1 9.86848 17.7798 -13.7061 
34 2 -16.8365 -23.2932 -22.1422 
35 1 4.88935 28.4283 -32.2698 
36 2 -30.9885 -6.14598 -19.1063 
37 2 34.6787 -0.542411 12.5458 
38 1 -25.9797 27.0696 10.0463 
39 1 29.0783 -1.77489 5.57688 
40 1 13.5641 -2.57393 28.4783 
41 2 17.6455 -34.018 19.3248 
42 1 35.3704 -0.54794 -33.5594 
43 1 -1.66239 -27.0033 -26.8218 
44 1 11.8382 23.5083 -27.0582 
45 1 33.2822 -2.911 -9.12583 
46 1 34.5029 31.3492 -25.6459 
47 1 10.918 13.3151 -14.8339 
48 1 -16.7968 -22.4984 16.2357 
49 1 10.1831 -8.03732 -0.908058 
50 1 17.6546 12.2883 34.9695 
51 2 -12.7765 16.0106 6.35668 
52 1 -27.9128 -10.0897 -1.38886 
53 1 7.62845 29.2784 -4.50612 
54 1 -34.3932 2.63092 19.5589 
55 1 -26.4159 5.28219 4.26165 
56 2 -32.4276 -15.4464 -18.8107 
57 1 -33.8016 -0.927659 -26.6719 
58 1 -23.0381 2.7285 -18.8389 
59 1 10.5102 -15.1266 -12.891 
60 2 26.3436 9.25567 2.25376 
61 2 16.7059 30.299 -5.89362 
62 1 -2.88937 14.6737 -4.70444 
63 1 -25.4408 15.3238 0.99929 
64 1 10.432 -28.7973 29.2634 
65 1 -15.4856 -6.94667 -27.1194 
66 1 32.5497 12.2238 23.5961 
67 1 21.4126 -0.631962 30.9217 
68 1 -16.8591 24.247 -12.0222 
69 1 -5.36995 8.46644 -23.0025 
70 1 -0.365449 -11.4665 -5.58991 
71 2 -9.46101 -24.847 9.89994 
72 1 7.22593 -12.8468 -17.3835 
73 2 7.36558 -31.4028 11.1215 
74 1 -12.6291 10.9493 -33.5847 
75 1 -30.6888 23.0829 -9.65122 
76 1 32.4537 -23.2416 22.0279 
77 1 6.23445 21.1587 20.4494 
78 1 26.8118 12.251 24.6387 
79 1 25.0446 -10.9025 -8.42555 
80 1 -4.30654 -2.18386 -18.2223 
81 1 -0.580291 14.8977 6.7269 
82 1 6.43306 6.43855 -6.32004 
83 2 0.9378 7.51354 -12.1032 
84 2 -32.6198 12.1205 7.70956 
85 1 12.9847 -3.58561 6.31922 
86 1 9.16503 -17.6429 25.0365 
87 1 23.1754 10.6922 17.2124 
88 1 16.5705 3.73533 -25.0201 
89 1 -3.45162 15.8583 -0.774165 
90 2 12.3496 -26.4393 -33.0798 
91 2 24.3199 35.0616 -29.7563 
92 1 33.9771 14.9649 -15.134 
93 1 -25.552 7.16662 -32.9393 
94 1 29.2016 -31.8232 1.45952 
95 2 -18.3893 1.60883 -4.85288 
96 1 0.599939 19.3465 -8.37394 
97 1 -21.8998 13.4008 11.0134 
98 2 -15.1893 -22.6945 -34.2872 
99 2 -25.4045 31.6142 18.901 
100 1 21.7458 -31.5416 -0.772467 
101 1 31.7186 -25.4365 19.7061 
102 2 28.0029 20.295 10.5787 
103 1 8.29929 23.4175 -19.6294 
104 1 -15.5979 -3.29178 0.376457 
105 1 10.053 -25.9781 -20.2736 
106 1 -12.1851 -10.562 30.9232 
107 1 12.4886 -25.3293 34.0644 
108 1 33.4935 -12.8134 19.6624 
109 2 10.7732 -27.2642 -0.0531154 
110 2 -17.068 14.3506 -6.5472 
111 1 -5.23906 12.1601 21.3034 
112 1 26.2408 20.5009 -11.1652 
113 1 1.88358 -3.21227 14.4482 
114 1 -21.8562 -5.08538 30.4802 
115 2 -24.5806 32.0429 35.1927 
116 1 25.2404 34.5119 -24.1104 
117 1 16.917 -25.5911 15.3827 
118 1 13.2896 0.746125 -11.656 
119 1 -19.6957 -8.44519 -19.5458 
120 1 -4.72368 34.8972 -22.6846 
121 2 -2.8166 4.7968 -9.09255 
122 2 3.72784 32.8828 17.1793 
123 1 -18.6049 -13.6761 31.3356 
124 1 -12.7758 -10.3838 -14.4651 
125 1 8.01718 35.384 8.94899 
126 1 -18.8239 -34.7646 -8.74598 
127 1 34.4699 29.2562 27.6368 
128 2 14.0651 10.7899 4.45348 
129 1 13.5626 -25.702 -34.8684 
130 2 -25.2642 24.9781 19.9162 
131 1 21.3721 10.0559 -15.6634 
132 1 18.5359 16.3689 35.3456 
133 1 -11.8442 -19.3118 25.5915 
134 2 16.1342 30.1606 6.47944 
135 1 -25.3841 -16.819 -3.43567 
136 1 -33.1731 -35.4209 31.9456 
137 1 17.8813 21.8056 29.9845 
138 2 -26.3452 -9.91788 9.47286 
139 1 -18.1839 -27.3332 -20.5488 
140 2 31.8667 25.7174 8.3011 
141 1 -19.0564 24.6768 -32.0838 
142 1 -26.1635 -12.2212 -28.8909 
143 1 -7.09466 17.6618 16.3632 
144 1 -31.2656 -16.7885 24.4505 
145 1 34.6103 -30.5198 -10.488 
146 1 26.9892 -32.8853 22.8539 
147 1 -19.9757 18.1965 -6.96905 
148 1 -3.85548 -4.71477 -13.2944 
149 2 -19.6545 12.4617 19.5977 
150 1 -22.0963 -8.70919 16.7689 
151 1 32.2784 -1.16052 -22.9222 
152 1 16.6771 -34.5 -26.0314 
153 1 11.6173 10.6123 33.5763 
154 1 2.14164 17.8366 -22.6502 
155 1 31.4207 -6.46885 -13.7375 
156 2 -2.89309 -10.012 24.1323 
157 1 32.7685 -1.44531 7.81696 
158 2 27.1121 34.5373 -15.2995 
159 1 7.25959 -27.2605 -8.00602 
160 1 -9.09905 -1.391 0.871211 
161 1 12.3758 -17.3676 -26.8126 
162 1 28.5559 -5.55593 -25.3953 
163 2 19.8676 31.2665 32.2322 
164 1 21.0568 -6.01002 -25.4132 
165 1 -30.6892 31.1873 2.43859 
166 1 11.0353 -24.1246 21.7682 
167 1 -34.2852 2.71895 12.8594 
168 2 33.4706 4.80799 11.264 
169 1 -11.3191 -20.8952 23.8496 
170 1 -26.5874 14.2398 -30.0727 
171 2 5.40307 16.189 19.5208 
172 1 -16.6373 27.772 -23.4185 
173 1 21.6304 7.63989 -7.54086 
174 1 -32.4353 -7.28983 6.33824 
175 1 -21.1042 -32.1422 23.5238 
176 2 11.2592 15.6417 -28.6176 
177 2 32.9333 9.69916 -21.4949 
178 1 -8.67997 -3.14851 22.7817 
179 1 5.67592 0.389475 -15.7742 
180 1 -7.31239 4.92962 -2.25921 
181 1 -6.14708 33.6047 31.6746 
182 2 -16.8144 -7.51994 -7.31633 
183 1 -8.99448 26.0687 20.8398 
184 2 -9.30137 -14.7924 22.1142 
185 1 18.4524 -6.15187 -22.1958 
186 1 28.7567 -33.0514 15.1337 
187 1 20.8716 -25.444 -19.2649 
188 1 -24.5486 20.9349 -9.68173 
189 2 20.9626 -9.70841 22.7602 
190 2 26.0344 5.76389 4.08678 
191 1 13.7138 17.6712 -12.2002 
192 1 -22.6658 28.4307 0.108914 
193 1 13.577 5.66996 18.1477 
194 1 -33.6428 6.19699 -27.959 
195 1 -21.8156 -19.0588 25.8023 
196 2 20.0192 -18.9509 -29.8787 
197 1 -12.8477 -20.4457 27.5465 
198 2 -26.9936 12.9057 -12.4849 
199 1 -1.1805 33.4349 29.2514 
200 1 5.71025 16.8145 -4.97337 
201 1 -18.5603 -21.8296 -31.8654 
202 1 -2.0231 -29.9393 27.3875 
203 2 2.26577 23.2801 22.1592 
204 1 -31.2238 -30.5854 -14.4179 
205 1 18.404 -13.7759 -32.6765 
206 1 -27.0514 -16.032 -28.4743 
207 1 31.9581 -17.2094 -27.6753 
208 1 -6.91674 13.4651 6.10652 
209 2 2.96773 8.41562 15.3699 
210 2 11.971 12.3372 29.298 
211 1 -4.52483 -11.4135 -15.03 
212 1 -24.5304 -12.5379 -3.64874 
213 1 -29.2666 24.5077 21.1339 
214 1 -34.7617 2.26436 33.5066 
215 1 -7.11752 0.78293 -10.9023 
216 1 -10.7639 -1.71249 21.5131 
217 1 -22.7576 -22.6413 -33.7514 
218 1 27.4942 -27.2506 29.0465 
219 1 20.1028 -14.5418 29.4756 
220 1 17.6591 4.80085 -10.0277 
221 1 32.2674 -15.6406 5.53232 
222 2 3.93271 -29.5532 -19.7133 
223 1 18.1512 21.1169 6.83647 
224 1 -25.6832 32.5368 24.732 
225 1 -0.154869 -2.86176 -10.3935 
226 1 18.1425 -34.9715 -30.2365 
227 1 -17.0847 -7.41583 34.8533 
228 1 -28.6654 -32.1694 -22.1053 
229 2 -23.9744 -28.6409 -29.2429 
230 1 29.9444 29.8227 -14.0072 
231 1 8.35807 -31.8371 31.68 
232 1 -11.9977 27.9079 -19.6718 
233 1 13.7301 -14.1043 29.7238 
234 1 -1.39066 -23.2085 -0.200658 
235 1 0.983098 17.3846 11.4612 
236 1 -25.4284 -31.0226 -2.55514 
237 1 17.3129 29.4543 4.44507 
238 1 -27.3036 11.6342 33.3753 
239 1 2.96468 13.9716 30.7597 
240 1 32.9033 -2.65934 -20.9579 
241 1 -14.2612 -22.1455 -19.9072 
242 2 0.0157707 -27.8398 -30.0407 
243 1 30.7722 33.8052 7.27134 
244 1 -6.97653 -16.5418 34.3828 
245 1 10.0838 34.6801 -27.7261 
246 1 -3.12908 -20.3524 9.4027 
247 1 -22.4345 15.9449 6.66151 
248 1 -32.5193 34.6137 -5.61797 
249 1 9.73429 -34.1796 -3.27529 
250 1 -18.1785 34.4477 -28.6654 
251 1 18.2503 5.22589 22.9474 
252 1 25.6039 -12.6588 7.00233 
253 1 34.6209 -19.8555 -24.3473 
254 1 -2.19073 -12.5754 -7.0685 
255 1 34.5762 -22.3699 -12.491 
256 1 -13.8921 26.8948 -30.0873 
257 2 -4.25887 -25.9973 -4.58478 
258 1 17.0161 17.2337 -14.5846 
259 1 -32.3189 4.40863 25.5396 
260 2 33.008 2.39869 -14.376 
261 1 17.3591 -28.434 -30.6232 
262 1 -26.5143 32.5304 8.93527 
263 2 20.4478 32.8489 17.7674 
264 1 15.9859 14.7868 -3.86502 
265 1 20.7472 -8.14506 24.7836 
266 1 8.79733 -17.0123 -7.53653 
267 1 -4.38316 -22.0386 -25.819 
268 1 -26.9445 12.1817 -20.9633 
269 1 24.8936 28.5662 -33.8697 
270 2 4.05713 8.18701 20.781 
271 1 12.8481 -23.8904 9.07674 
272 1 14.7605 11.7555 24.6654 
273 1 -9.54359 17.6237 31.4818 
274 2 32.039 -0.939107 -17.2326 
275 1 32.0508 -14.6013 -33.2004 
276 1 4.60853 18.0691 10.6846 
277 1 5.32902 24.9685 -22.1153 
278 2 26.7528 -8.82271 -31.4219 
279 1 -11.604 9.52675 -7.44141 
280 1 -28.0749 -28.8573 -30.4037 
281 2 -1.98095 17.3994 -27.41 
282 1 3.24153 -14.3126 -17.0681 
283 1 3.26763 34.004 -4.20707 
284 1 -12.1972 19.1034 -29.1106 
285 2 16.9052 20.368 -5.97434 
286 1 -22.8998 33.4708 -18.5525 
287 2 21.7486 -24.5182 -33.7338 
288 1 20.832 -9.42605 -32.3946 
289 1 -11.7784 -9.56852 6.93525 
290 2 11.5837 34.5547 19.8467 
291 1 0.899363 20.4405 12.6553 
292 1 16.4354 -32.8992 21.1048 
293 1 -28.7818 4.54536 -28.6609 
294 1 -32.3984 15.9194 -1.04843 
295 2 -33.47 18.8411 -12.8921 
296 2 27.8809 34.612 -31.2413 
297 2 8.85183 -2.32045 -27.5503 
298 1 -16.5329 16.9522 8.79365 
299 1 1.20126 -33.9631 28.5614 
300 1 20.5025 -27.0539 -17.4391 
301 2 -12.0148 22.3061 -26.2569 
302 2 -30.674 28.1434 -34.2453 
303 1 -21.2691 -7.09768 -13.9935 
304 1 -5.20923 -23.3464 15.1211 
305 2 29.8589 5.71528 28.6735 
306 1 -24.3425 1.48188 -23.129 
307 1 -34.6835 -27.0934 -30.9425 
308 2 14.1756 -2.70261 12.269 
309 1 13.0379 -27.3613 23.9048 
310 1 -19.711 -10.2401 -29.6509 
311 1 27.8783 30.4468 1.62264 
312 2 3.16902 -25.5259 3.5004 
313 1 -15.3054 10.9297 -27.7287 
314 1 -11.8198 -20.2604 -3.16758 
315 1 -16.9007 9.18266 18.0165 
316 1 16.9569 -10.4454 -12.0865 
317 1 -19.9621 23.6263 29.587 
318 1 31.9664 21.734 17.9042 
319 1 13.8714 -5.15364 -11.2722 
320 1 2.30084 -33.3836 -8.64295 
321 1 -33.4004 21.3454 -12.005 
322 1 34.4425 -0.612176 -2.07021 
323 1 13.3649 -12.8536 -22.3392 
324 1 -3.17131 -6.88128 30.5468 
325 1 6.47303 -17.0739 -21.0695 
326 1 2.58655 -28.6935 -31.4927 
327 1 33.8822 -3.07557 18.4195 
328 1 17.7592 2.60342 28.8777 
329 1 -33.9663 23.8878 -8.92556 
330 2 16.1438 -0.735893 -7.05583 
331 1 30.7922 -0.505826 6.78205 
332 1 -19.1472 -18.3819 15.249 
333 1 -15.8534 -3.81862 8.18301 
334 1 26.587 -3.61534 15.8476 
335 2 20.572 12.0034 23.8799 
336 1 21.5447 23.6012 28.3184 
337 1 27.9609 -7.08525 -15.452 
338 1 21.4232 -11.5289 -27.1173 
339 2 15.3322 -10.5998 13.5659 
340 1 33.2582 -34.3013 -34.8033 
341 1 2.55878 -16.6011 -17.4878 
342 1 -0.921092 0.196812 2.75944 
343 1 -31.731 9.01901 12.996 
344 1 -25.6778 -4.06944 2.71052 
345 1 12.5421 34.6362 7.54946 
346 1 -27.599 -25.5152 -18.6955 
347 1 -9.76325 27.0419 -18.4888 
348 1 -33.0151 -33.3875 -15.0826 
349 1 -19.0771 11.0676 9.65134 
350 1 -20.5927 -15.2429 12.446 
351 1 11.2783 -3.04219 -26.9091 
352 1 22.8384 23.6111 24.4828 
353 1 4.53942 -31.5682 28.3961 
354 2 -27.6071 25.8657 34.4685 
355 1 -26.6402 12.8696 -14.578 
356 1 -22.4698 9.62033 20.6322 
357 1 -1.40599 31.0603 -32.7813 
358 1 -2.72592 26.4451 12.3402 
359 1 34.6428 -29.4785 4.45875 
360 1 11.7193 -17.6856 30.5405 
361 1 12.5317 5.7724 -3.06468 
362 1 26.557 10.4385 28.4303 
363 2 -15.3103 -8.86197 -25.5361 
364 1 -17.9993 22.5591 9.99189 
365 1 30.4726 13.4332 -30.8762 
366 1 -21.9945 -27.0325 32.1467 
367 1 17.4343 15.0241 4.3327 
368 1 23.3056 -19.8593 7.7193 
369 1 -12.5656 -7.23459 7.53351 
370 1 32.8222 3.56301 -32.083 
371 1 10.5996 -29.577 -17.6562 
372 1 24.316 9.6933 5.41926 
373 1 33.6899 23.1941 -11.013 
374 1 25.7029 -6.37949 -16.2122 
375 1 -5.90609 8.80201 4.45193 
376 1 26.9688 5.37565 7.77957 
377 2 14.8208 -8.37672 -33.8417 
378 2 -29.3158 -6.56039 11.4047 
379 2 -10.9415 -21.6666 14.6034 
380 2 1.55537 -22.3186 5.8576 
381 1 -3.31733 12.955 -18.783 
382 2 31.9537 -34.4269 -10.1564 
383 1 5.10565 -19.6292 15.8318 
384 1 -2.81062 20.2326 -13.965 
385 1 -9.9569 -22.5534 -15.3024 
386 1 2.16679 28.3143 -1.2258 
387 1 -13.1946 28.6213 18.5157 
388 2 -21.4119 -5.51929 11.6144 
389 1 -1.06674 -19.2989 -8.48392 
390 2 26.2974 -34.89 6.39646 
391 1 20.7568 6.83545 6.30905 
392 1 -1.96931 20.7048 -2.63016 
393 2 -17.1429 5.95967 23.6773 
394 2 -33.7417 -18.5089 27.1463 
395 2 -31.5953 -30.5889 -20.4569 
396 1 17.1014 25.3371 -16.0153 
397 1 16.8853 -1.14359 26.8448 
398 2 14.6335 23.2821 33.4606 
399 2 -18.9973 -16.6292 19.3907 
400 1 -19.4171 -24.4771 11.3727 
401 1 -19.2089 -19.9987 22.6237 
402 1 30.9639 -24.1122 -11.5991 
403 1 -34.6047 -1.59278 -5.4962 
404 1 -1.3492 -21.8869 30.2846 
405 1 -17.7107 -20.4073 20.6355 
406 1 -24.8132 3.82191 -29.5363 
407 2 -16.6314 -21.8838 27.9627 
408 2 19.9035 -12.2997 29.0046 
409 2 16.5524 -34.571 -31.5222 
410 1 -3.15291 -12.2716 -2.78268 
411 1 16.8598 26.428 26.9818 
412 1 -10.1134 9.84074 -5.36129 
413 1 27.1542 23.8237 -21.5161 
414 1 5.06763 -6.49696 -34.8047 
415 1 -19.9055 19.0836 7.44077 
416 1 -33.0354 -22.4544 -26.6748 
417 1 18.4244 -0.604424 -4.31753 
418 1 28.1646 -29.5456 -20.1345 
419 1 -7.96611 16.1199 33.1427 
420 1 -32.7805 -10.5712 27.3956 
421 2 -8.65471 -31.9749 16.0894 
422 1 -28.4907 -32.2092 29.1089 
423 1 16.1212 -1.06417 31.1101 
424 1 -15.8736 -34.8513 8.65288 
425 2 -14.4041 7.67213 -31.5369 
426 1 14.0346 22.9056 -12.9899 
427 1 -25.9392 -25.6062 31.8192 
428 1 -19.7375 16.2622 -16.26 
429 1 5.68435 -33.6579 -33.4032 
430 1 25.6228 -12.3711 11.3644 
431 1 -19.0214 -4.16846 14.9068 
432 1 -12.5167 -0.264382 17.5341 
433 1 -6.2602 5.87354 6.01002 
434 2 1.05217 -31.2282 -23.285 
435 2 18.337 14.1808 -30.0962 
436 1 10.826 -19.9146 -26.2933 
437 1 11.3337 35.4316 31.3007 
438 1 33.3251 26.2711 19.2264 
439 2 -35.3994 -6.50695 -11.8912 
440 2 3.2398 -22.9585 -16.3957 
441 1 28.8972 -16.527 32.5708 
442 1 16.2941 11.0072 33.0422 
443 1 -22.951 12.892 -30.0084 
444 2 -1.31872 -14.6319 22.4891 
445 1 -22.9154 9.93822 3.21738 
446 1 32.3847 -6.10181 -1.67017 
447 2 -19.6131 21.0236 6.47339 
448 2 -18.6082 -1.82368 11.6804 
449 1 -14.1499 26.2063 24.7912 
450 1 -24.0013 31.5391 -24.4436 
451 1 -22.1695 19.0741 33.444 
452 1 9.04381 11.8328 -1.9511 
453 1 -6.98241 17.5746 35.3131 
454 1 -30.9491 -15.9467 -23.9297 
455 1 22.7111 -28.8467 24.3983 
456 2 9.98374 5.8232 8.78559 
457 1 -23.4962 6.20518 32.775 
458 1 27.2912 12.9591 5.80406 
459 1 26.4566 -27.0925 -18.0003 
460 1 -5.9575 -32.3955 -33.253 
461 2 27.6255 26.2368 34.3908 
462 2 34.3275 -26.0645 -29.6652 
463 1 29.7156 25.4141 -29.4216 
464 1 -23.1924 22.7564 -20.9927 
465 1 5.82252 -1.54368 1.20167 
466 1 -4.70196 14.4635 22.1509 
467 1 33.2814 -21.1649 -10.5497 
468 1 0.698317 -29.5103 -13.2234 
469 2 9.31743 24.0356 14.3663 
470 1 -19.952 3.76627 11.0122 
471 1 -29.592 -10.9084 -8.11991 
472 1 19.3124 -15.7511 20.0734 
473 2 27.0028 17.3714 -19.0753 
474 1 -25.2738 -6.57214 9.54612 
475 1 2.80092 -16.7369 10.9505 
476 2 33.1374 26.452 -24.8207 
477 1 10.2353 3.41802 30.2302 
478 1 35.0936 21.0405 14.9178 
479 1 30.0821 8.81607 8.03697 
480 2 11.4724 -15.814 21.0849 
481 2 -30.8832 34.7781 32.5271 
482 2 -3.3267 24.7783 32.5908 
483 1 25.8835 -5.89236 -18.5776 
484 1 4.57077 22.5966 13.1871 
485 1 -26.2675 -22.3224 -26.5722 
486 1 -23.3965 21.9081 23.6103 
487 2 -21.0016 -24.0865 15.0603 
488 1 -9.08105 21.9637 19.3911 
489 2 -31.3919 13.1473 -4.63772 
490 2 -27.8373 -34.4447 -7.13954 
491 2 -25.0176 5.327 -10.4349 
492 1 -31.9156 30.3951 -30.1356 
493 1 -19.7779 -23.5204 -11.4206 
494 1 8.48298 19.5184 -31.7064 
495 1 7.49761 8.45653 -14.4147 
496 1 -3.48593 -21.2697 -30.6364 
497 2 -11.0533 -15.7891 5.66337 
498 1 4.76147 0.35233 -11.4852 
499 1 -10.9957 27.0756 34.5457 
500 1 -6.6194 19.2411 -33.9738 
501 1 -7.62276 -5.07226 22.1056 
502 2 27.3927 26.8183 -26.2634 
503 1 1.66186 26.5226 -12.3724 
504 1 -10.2205 -11.0422 -12.4711 
505 2 21.7645 -21.4097 -19.656 
506 1 23.294 1.0582 5.12262 
507 1 -26.8416 -4.17777 8.92561 
508 1 -20.1776 10.7643 -1.17985 
509 2 1.34639 11.5523 -28.1117 
510 1 4.88903 -11.8128 0.144086 
511 1 33.7023 -27.1979 5.48284 
512 1 -16.6951 9.96556 29.9168 
513 1 22.6451 -9.11135 -14.3863 
514 1 -28.213 8.47957 -6.53675 
515 1 15.6797 22.9466 -0.175581 
516 1 -4.30205 -29.4442 34.9829 
517 1 1.58113 -29.6755 -4.85781 
518 1 -22.6168 -20.7365 -27.7218 
519 2 29.4119 27.3658 -21.1269 
520 1 17.1633 -34.087 -9.28579 
521 1 24.994 -33.9488 -29.3681 
522 2 -5.71736 -31.1568 -35.1417 
523 1 -13.2959 24.1709 23.7593 
524 1 0.624748 19.3951 -19.0302 
525 1 10.1345 20.1482 -13.5578 
526 1 25.0557 33.0966 3.69934 
527 1 -16.8003 -12.7731 -31.4424 
528 1 -11.5816 -11.4611 5.36721 
529 1 -11.4202 17.9303 -16.8182 
530 1 -27.2438 21.8966 18.0824 
531 1 5.54297 21.9429 28.2048 
532 2 30.5641 6.58703 -24.1709 
533 1 20.3713 15.0039 31.8875 
534 1 -18.5408 28.7279 21.2259 
535 1 -6.15725 -11.2325 18.0929 
536 2 -17.2385 21.5538 -9.0131 
537 2 6.92587 -13.4091 -7.86868 
538 1 -6.55531 28.8348 -14.0066 
539 2 15.734 -28.9022 7.68228 
540 1 -4.01498 5.13718 31.0439 
541 1 22.4936 32.6158 28.1184 
542 2 -20.1027 -12.3183 -3.13089 
543 1 14.5946 30.1019 32.7735 
544 1 6.07319 -29.1886 15.2245 
545 2 32.1199 -14.0444 7.65324 
546 1 30.9579 -13.3614 -21.8124 
547 1 -35.3158 0.185624 34.9344 
548 2 -32.3186 -32.182 17.8915 
549 1 14.0861 -23.1804 11.2317 
550 2 11.4373 0.754116 -17.3627 
551 1 -27.1727 22.0456 -17.4107 
552 1 22.6148 31.4749 -12.6374 
553 1 25.0339 -18.0217 12.3458 
554 1 -4.51327 7.38321 7.5568 
555 1 23.1426 7.84653 -31.3681 
556 1 -15.9845 -11.8301 0.777124 
557 1 33.0705 22.5062 25.0869 
558 1 -32.8662 17.4204 -24.5222 
559 2 -11.2633 34.9337 35.5014 
560 1 -21.401 14.3027 -21.551 
561 1 16.1839 -4.09647 4.96052 
562 1 -23.8645 20.5256 7.75493 
563 1 -26.1221 -34.6414 15.6227 
564 1 -5.89628 14.0116 -31.0979 
565 1 16.3274 -18.3469 -19.3424 
566 1 31.5548 -33.3572 24.3088 
567 2 32.8632 4.63321 -10.2762 
568 1 -32.8123 -23.0068 8.09542 
569 2 -6.20725 -13.6731 -26.9648 
570 1 -34.4506 -2.12134 -35.3676 
571 1 -8.30582 -26.8792 -13.584 
572 1 -31.7225 1.23195 -30.3877 
573 1 -7.11726 -14.1949 22.1674 
574 1 25.957 -33.4233 4.26271 
575 2 -8.52719 -26.458 -27.3741 
576 1 -23.3761 -0.694213 -23.0186 
577 2 -8.16849 -8.40698 6.93515 
578 1 -17.8436 16.7279 -18.2175 
579 1 21.6527 27.7104 2.01849 
580 1 -11.7694 -8.91069 24.7226 
581 2 14.4982 3.9301 -30.8795 
582 1 13.1559 -24.4975 -22.1841 
583 2 -10.5661 -13.8952 -4.08853 
584 1 -34.3132 16.694 12.2982 
585 2 34.2154 8.32668 -25.4634 
586 2 11.7249 -22.8278 -25.0656 
587 1 28.1345 -1.59462 -14.8901 
588 2 18.9972 32.3748 -3.35841 
589 1 31.6666 0.0179095 1.57574 
590 1 24.4306 -22.5692 0.630465 
591 1 24.9478 -20.4125 -22.2944 
592 1 30.8234 -14.8748 9.46185 
593 2 -33.4426 -10.8208 3.48569 
594 1 -34.6529 -35.1214 -5.02953 
595 2 23.0036 24.7721 14.2928 
596 2 -19.4462 -34.9521 -24.2816 
597 1 33.0464 8.16926 -12.5211 
598 1 18.5905 15.651 -19.4278 
599 2 34.0718 -17.2304 2.53692 
600 1 -19.0748 -18.9923 33.8785 
601 1 18.58 9.03286 15.891 
602 1 21.9112 -19.7421 -22.2728 
603 1 11.9743 27.1088 -24.781 
604 1 -13.0872 -24.5034 12.0028 
605 1 24.6117 -30.2339 11.3641 
606 1 -14.5324 15.6835 8.95226 
607 1 -11.1985 -14.1597 9.06366 
608 2 34.9527 29.9099 -27.2902 
609 1 -24.3153 -13.5047 -29.9961 
610 1 35.4713 5.54367 10.8811 
611 1 12.4252 -18.9481 28.5751 
612 1 -24.3062 -5.85762 -30.8711 
613 2 -8.08607 16.806 -1.48171 
614 1 34.0149 -16.8082 -17.4674 
615 1 2.40431 19.3065 18.2517 
616 1 15.2546 -22.0704 33.8972 
617 2 -17.8332 17.2496 33.4408 
618 1 -15.3737 -13.6793 -16.4916 
619 1 31.0187 -4.31415 -30.1658 
620 1 27.8462 1.05943 -6.16663 
621 1 17.8336 -22.8983 -33.4104 
622 2 -20.7751 16.8456 7.99403 
623 1 23.0253 24.1924 3.93597 
624 1 -19.9766 -35.2414 -20.3636 
625 1 24.1706 30.0403 -30.3318 
626 1 -27.3395 -12.1566 23.3756 
627 1 15.5516 1.5622 -17.5309 
628 1 -19.6183 -2.50855 6.24863 
629 1 33.3843 -19.2836 14.6509 
630 2 -2.08849 18.3762 16.6319 
631 1 17.9402 1.46857 -24.302 
632 1 -9.00151 -9.98667 -6.18735 
633 1 31.0155 -29.7771 -2.36422 
634 1 -27.4332 24.9784 -11.7745 
635 1 13.3954 -35.4613 20.8686 
636 1 16.7094 7.94938 -19.8453 
637 1 -6.06351 25.4236 16.3024 
638 2 5.44486 -3.29488 -28.9194 
639 1 -18.001 -34.2611 2.36433 
640 1 1.06434 -18.6981 -1.78059 
641 1 -12.3006 -11.2974 -30.4162 
642 1 -4.4677 -31.4582 -31.4456 
643 1 0.00368221 -22.7783 -22.586 
644 1 11.7216 22.5935 -31.1579 
645 1 29.5433 33.7003 -7.72535 
646 1 -13.4017 25.8635 -20.0706 
647 2 32.5474 6.38845 -14.4405 
648 1 6.04006 22.2471 -20.1768 
649 2 7.73795 13.4203 7.71538 
650 1 -18.4112 -4.66861 10.6874 
651 2 -0.222221 -11.4423 -16.7556 
652 1 -18.8784 -21.9809 7.87415 
653 1 32.0697 -12.2394 26.451 
654 2 17.6844 31.8947 4.06096 
655 1 -13.8984 -15.1628 -5.69548 
656 2 -18.5692 -8.74689 18.0246 
657 2 34.2576 16.9971 -11.9743 
658 1 -21.8151 5.08784 -23.2319 
659 1 16.3959 -13.7516 29.0759 
660 1 -35.1075 10.1041 23.7012 
661 1 2.22175 -1.07775 -14.2561 
662 1 -7.3343 -4.59478 16.1107 
663 1 -19.1901 -27.0438 -24.2916 
664 2 -28.6383 28.7799 -26.7892 
665 1 20.0885 16.8678 -26.3836 
666 1 18.3434 22.9484 34.0712 
667 2 4.24299 -18.0871 1.59438 
668 1 25.2123 31.6487 -20.5245 
669 1 -28.5433 -19.0505 21.6219 
670 1 5.33287 24.9598 -12.0907 
671 2 -21.3301 13.9157 28.727 
672 1 -5.66023 -4.87852 7.8792 
673 2 25.4481 -15.7678 12.7943 
674 2 28.5079 10.2436 21.4412 
675 2 1.82538 -0.147788 -3.20663 
676 1 11.3232 -0.719453 33.9437 
677 1 16.8875 -33.1655 -13.7327 
678 1 19.1753 12.5944 15.2118 
679 1 3.58421 -26.1074 5.65438 
680 2 16.2109 -18.9177 -10.6051 
681 1 27.265 -6.64741 -30.1715 
682 1 15.8942 -34.1545 12.239 
683 1 1.2626 11.5612 -22.4604 
684 1 -9.53886 -27.9243 -19.4884 
685 1 -25.9118 -26.2167 29.5071 
686 1 -8.4465 -12.345 25.4772 
687 1 29.3052 -32.5394 23.518 
688 1 -2.3811 -15.1897 -30.6622 
689 1 16.9615 -19.3724 -0.75888 
690 1 -25.4092 18.0648 -6.91905 
691 1 4.02051 -33.2031 -4.09465 
692 2 -21.0255 -5.25844 18.4452 
693 2 1.67468 4.87207 -30.3786 
694 1 -24.2602 -35.1243 20.1372 
695 1 30.7701 -31.884 15.9063 
696 2 -0.77667 28.2753 22.361 
697 2 2.05286 26.6053 0.3433 
698 1 -11.3906 17.7022 -31.0163 
699 1 16.5171 -34.2986 -23.6054 
700 1 15.8945 -26.2089 31.3944 
701 1 -5.13606 14.8691 12.5091 
702 1 -17.3012 20.4987 -7.16111 
703 2 14.7394 -35.332 -25.0188 
704 1 21.8257 16.7663 18.9101 
705 1 -32.2486 -0.449886 31.9961 
706 1 -4.72238 -15.9671 -5.37155 
707 1 -3.1537 -21.3679 -23.3625 
708 2 -33.9501 -13.516 -22.1606 
709 1 -3.55676 -13.8996 13.3587 
710 1 -15.7618 -11.3231 3.39606 
711 1 30.791 -19.5141 29.6722 
712 1 -19.8781 22.8064 22.3779 
713 2 9.60885 12.4317 20.2764 
714 1 -0.526329 32.5668 24.3236 
715 1 -13.508 4.14358 -31.7415 
716 1 5.75299 20.1183 10.0327 
717 1 11.2019 -34.1696 7.3679 
718 1 -18.6784 -20.5648 16.2361 
719 1 26.8071 24.9922 -29.1627 
720 1 -23.2641 30.165 33.6942 
721 1 -23.6675 26.0707 -3.82857 
722 1 17.3352 -11.5011 14.2893 
723 1 8.3742 -29.1064 23.3852 
724 1 29.1355 23.41 24.3275 
725 1 -6.97439 -8.49317 25.3387 
726 1 22.4602 -9.81675 -2.71489 
727 1 -2.66267 21.2 -33.0079 
728 1 -34.0674 25.5612 1.62585 
729 2 -20.0867 -15.9598 -1.54646 
730 1 34.1314 -25.2587 9.20848 
731 1 -17.9501 11.2598 -20.5878 
732 1 34.1255 -25.2509 6.84905 
733 1 20.1818 26.6401 -3.84579 
734 1 32.1352 -8.24463 11.6864 
735 2 -10.8874 -32.3635 0.245004 
736 1 13.4474 -12.8116 -25.2512 
737 1 0.587189 7.36294 30.5467 
738 1 -6.59644 -27.8665 9.15672 
739 1 -22.2077 20.8088 27.0141 
740 1 15.859 -2.14434 -4.23903 
741 2 26.3398 -9.19912 23.6107 
742 1 -8.56386 -18.8421 18.9501 
743 1 25.0757 29.0914 -20.7104 
744 1 -28.4107 23.0105 -10.793 
745 2 -5.61178 -5.31964 -23.8837 
746 1 27.6757 27.5845 3.87228 
747 1 -20.5081 -20.7935 -15.5586 
748 1 6.70703 -33.6809 16.6139 
749 2 2.91712 21.8044 -31.2475 
750 2 4.34731 -25.5652 -13.3595 
751 1 -8.38242 -18.8397 -12.2139 
752 1 -6.34589 16.3996 29.0569 
753 1 -21.2502 1.19114 -28.6011 
754 1 0.655814 -1.30144 1.68188 
755 1 -31.558 -30.4052 3.43542 
756 1 -35.4735 -14.8107 -3.15987 
757 1 -3.15154 -5.4881 28.0904 
758 1 15.1088 0.535249 6.1415 
759 2 10.1742 -6.4527 5.61696 
760 1 32.1902 16.7168 4.44322 
761 1 -2.78411 28.1021 18.4466 
762 1 -28.2124 6.13433 14.3762 
763 1 21.2756 -30.4441 -34.3833 
764 1 32.4113 -33.3183 -5.26819 
765 1 -24.9474 16.6354 -11.732 
766 2 0.972508 2.95089 -8.79738 
767 1 11.3123 -7.16467 -19.1186 
768 1 -33.7484 -25.9385 -10.3063 
769 1 -3.37151 34.1972 19.1854 
770 1 -23.1435 -10.9136 21.6244 
771 1 -19.3296 -22.178 24.0786 
772 1 -13.5982 -13.0974 9.20299 
773 1 -13.9485 -19.231 21.7992 
774 2 -21.5888 -33.7702 25.1692 
775 1 17.5836 21.2472 -3.32213 
776 1 -12.1818 30.8128 -24.4231 
777 2 -32.4737 29.0587 0.815383 
778 1 16.8923 -7.60187 -32.9972 
779 1 24.7862 -30.5385 -27.3392 
780 1 -25.0466 -1.73008 -0.756722 
781 1 -31.4002 31.8087 23.2114 
782 1 -33.3827 -28.961 31.8013 
783 1 -20.9852 14.1748 -16.8977 
784 1 22.4413 10.8568 -18.1825 
785 2 20.7474 2.09147 16.9417 
786 1 -16.9042 27.772 -20.8234 
787 2 -20.4553 7.1097 -23.0934 
788 1 -5.86969 30.0264 -21.0475 
789 2 14.5511 -9.02 33.0218 
790 1 14.2579 -29.5422 -12.3484 
791 2 9.88306 -0.470727 -34.8755 
792 1 -22.7139 1.95973 -14.1314 
793 2 35.2056 -15.5741 9.4829 
794 2 -22.3982 -19.3477 9.83467 
795 2 3.70675 16.2088 -5.74536 
796 1 29.5007 18.0235 -29.0636 
797 2 26.0837 18.5873 0.307349 
798 1 6.96342 -1.40276 -6.07931 
799 2 -8.95608 -21.5206 26.5266 
800 2 -12.2003 -5.66273 -1.94386 
801 1 34.0866 -33.9028 4.68324 
802 1 13.6125 31.8752 -15.2943 
803 1 21.9958 3.78127 -0.271822 
804 1 8.17761 -33.7261 3.7129 
805 1 -15.0429 -24.1131 17.0513 
806 1 -12.3652 29.8585 -10.3169 
807 1 21.6701 23.6548 -0.891942 
808 1 31.0701 -8.62015 31.6599 
809 2 -16.3563 7.63319 -23.2041 
810 1 -6.85587 30.6239 23.0141 
811 2 31.4222 -26.6108 -27.0264 
812 1 -31.5281 -23.7444 17.9936 
813 1 15.0997 34.6246 -32.4015 
814 1 26.9093 -0.682453 21.724 
815 1 -11.9785 28.1052 -4.62912 
816 1 -5.15795 4.97702 -22.4365 
817 2 -1.8045 -5.7221 10.3784 
818 1 1.31077 -18.4042 35.3368 
819 1 -18.324 16.2827 -14.0597 
820 1 30.3196 -4.5874 29.5226 
821 1 10.8109 1.74445 -19.2413 
822 1 1.57816 -12.493 -24.2788 
823 1 -22.0512 -20.6916 -8.18551 
824 2 -5.84722 -32.9355 -21.242 
825 2 -13.8065 -7.36826 29.2695 
826 1 18.8348 0.44371 11.2027 
827 1 22.4291 15.2081 16.6526 
828 1 20.8183 33.1409 -29.9747 
829 1 34.2954 0.153116 -11.6824 
830 1 -32.2737 20.4301 3.35675 
831 1 -28.9471 -10.3843 4.51722 
832 1 -6.79018 -11.7362 -2.17307 
833 1 18.0226 8.05051 1.04918 
834 1 22.0534 -8.14368 -24.7813 
835 1 -10.84 -19.0039 -16.3526 
836 1 -28.623 -17.387 -34.6108 
837 1 19.839 -4.39046 -2.07452 
838 1 -12.4054 -23.7557 20.1441 
839 1 0.697506 17.6693 0.382172 
840 1 23.2253 -11.2063 -12.9995 
841 1 26.2483 13.2991 -2.72323 
842 1 19.8438 35.439 -31.77 
843 1 10.8726 -14.825 34.3344 
844 1 8.0597 15.7648 -17.5724 
845 1 22.827 26.85 -17.3633 
846 1 -9.9396 -2.05556 -19.8219 
847 2 25.1379 -10.4526 -28.8302 
848 1 13.1397 20.5692 26.9407 
849 1 -13.2686 -17.1634 8.66759 
850 1 -25.4602 -10.7546 7.2375 
851 1 -18.9622 29.4649 8.88783 
852 1 -35.4405 28.3523 29.7163 
853 1 -19.5268 21.2171 -14.35 
854 1 16.6047 33.0488 -12.5333 
855 2 -19.7361 -23.1368 26.0071 
856 1 22.3269 27.0854 31.307 
857 1 -8.68857 6.27533 -0.772251 
858 1 13.5325 -8.96861 -25.5818 
859 2 -2.43808 -28.8215 -27.9038 
860 1 -27.2514 32.7065 2.11456 
861 1 -18.1693 -16.445 -4.7641 
862 1 -15.2634 20.0626 16.3802 
863 1 11.0092 17.8894 21.4241 
864 1 17.219 -30.1961 20.3515 
865 1 19.2868 22.1933 -10.2608 
866 2 24.0675 20.3579 8.30832 
867 2 20.9474 7.74069 -30.3228 
868 1 21.3194 34.8493 17.587 
869 1 -23.471 27.6627 4.48504 
870 2 -10.0571 34.0975 -20.1468 
871 1 25.0845 10.8729 -33.7636 
872 1 15.4411 -0.600102 -11.3855 
873 1 7.60992 -21.1671 -26.0341 
874 1 -7.9137 27.1861 -30.6658 
875 1 -2.19613 2.74563 22.5975 
876 1 30.0364 31.6011 -34.7253 
877 1 -12.645 -0.083086 20.16 
878 2 27.4435 -31.5053 7.85523 
879 1 -32.787 3.89767 -14.5245 
880 1 18.1596 4.21238 -29.6829 
881 2 31.8861 25.6337 -19.5919 
882 1 13.4677 -2.02235 -33.6108 
883 1 25.7611 9.2571 8.45244 
884 1 -27.1744 24.9616 10.4604 
885 1 24.8558 16.4388 -19.3951 
886 2 30.2356 28.6642 -11.9918 
887 1 -22.3378 -16.855 -10.7733 
888 1 31.4873 -10.8684 -17.088 
889 2 25.3916 34.9425 2.3813 
890 1 31.4063 9.67248 -29.8251 
891 2 -13.6415 18.5779 -16.9487 
892 1 -25.7836 -3.18876 -33.6526 
893 2 21.8271 15.8624 3.04314 
894 1 22.9816 -18.1816 34.1141 
895 1 24.3421 -27.5447 35.0582 
896 2 7.00436 20.183 8.0711 
897 2 -7.8842 20.3626 -2.44823 
898 2 11.3984 35.0467 23.5166 
899 2 23.2235 -13.8515 -18.5384 
900 1 28.5417 -19.7931 30.8705 
901 2 -33.4777 34.9474 -31.3739 
902 1 22.717 11.6467 24.2615 
903 1 -13.8455 5.02276 14.6273 
904 1 18.8428 -17.3994 16.141 
905 1 -15.1068 12.0218 7.12265 
906 1 -7.87831 5.08835 -22.3822 
907 1 30.184 17.1847 -23.536 
908 2 24.2248 27.7497 1.29855 
909 1 9.34203 -14.3041 0.642167 
910 2 -6.83418 26.8685 1.4281 
911 1 -22.3464 8.68486 -28.113 
912 1 -14.8163 29.0235 31.4906 
913 1 16.6716 33.6167 8.07971 
914 1 -8.95632 -0.892537 -2.29442 
915 2 -28.7301 -21.5557 3.34064 
916 2 -25.1927 -6.88205 11.6944 
917 1 -2.3822 20.272 -5.42677 
918 1 4.42626 -23.3102 4.19347 
919 2 0.182308 9.53704 27.402 
920 1 -27.9785 33.8853 -29.2439 
921 1 19.7569 -31.4174 27.3534 
922 2 -18.255 -28.9869 34.0005 
923 1 13.6096 2.56106 32.5194 
924 1 28.5659 -18.801 33.2336 
925 1 -21.9533 -1.68232 12.552 
926 2 4.18248 31.2411 -21.52 
927 1 -26.9121 23.4209 20.8276 
928 1 -10.3644 6.99787 24.8276 