units           metal
boundary        p p p
atom_style      atomic
read_data      /HOME/hust_hbyu_1/Samples/Ni80P20_C20/dat/T570.dat
  orthogonal box = (-35.5895 -35.5895 -35.5895) to (35.5895 35.5895 35.5895)
  4 by 5 by 6 MPI processor grid
  reading atoms ...
  32000 atoms
  reading velocities ...
  32000 velocities
pair_style      eam/alloy
pair_coeff      * *   /HOME/hust_hbyu_1/Samples/Ni80P20_C20/dat/NiP.lammps.eam Ni P
mass            1  58.69
mass			2  30.97
neigh_modify    delay 5
timestep 0.01
thermo 100000
reset_timestep 0
thermo_style custom step temp pe etotal press vol lx ly lz
fix             1 all nvt temp 570 570 0.5
thermo_modify flush yes
fix dsf all deform 1 x  wiggle 0.5    300000.0   y volume z volume units box
fix ps1 all ave/time 1 1 300000 c_thermo_press[1] c_thermo_press[2]  c_thermo_press[3] c_thermo_press[4]  c_thermo_press[5] c_thermo_press[6]  file  YDMA570K-stress-300ns.txt
dump            1 all custom 10000000 YDMA570K-300ns.lammpstrj id type x y z
dump_modify 1 sort id
run 150000000
Neighbor list info ...
  1 neighbor list requests
  update every 1 steps, delay 5 steps, check yes
  master list distance cutoff = 8.5
  ghost atom cutoff = 8.5
Memory usage per processor = 3.51162 Mbytes
Step Temp PotEng TotEng Press Volume Lx Ly Lz 
       0    569.43758   -143918.29   -141562.98    1732.2287    360624.46    71.178974    71.178974    71.178974 
  100000    570.22324   -143829.19   -141470.64    2491.9911    360624.46    71.189446    71.173739    71.173739 
  200000    565.81681   -143848.73    -141508.4    2263.6201    360624.46    71.199912    71.168508    71.168508 
  300000    569.40997   -143817.97   -141462.78    3166.6811    360624.46     71.21037    71.163282    71.163282 
  400000    566.04657   -143806.77   -141465.49    3193.7183    360624.46    71.220813    71.158064    71.158064 
  500000    569.73364   -143809.33    -141452.8     2928.414    360624.46    71.231239    71.152857    71.152857 
  600000    572.06276   -143807.32   -141441.16    3033.0775    360624.46    71.241641    71.147662    71.147662 
  700000    567.38281   -143804.63   -141457.83     3280.148    360624.46    71.252016    71.142482    71.142482 
  800000    571.60748   -143794.69   -141430.41    3374.8682    360624.46    71.262359    71.137319    71.137319 
  900000    568.34316   -143816.21   -141465.44    2677.5103    360624.46    71.272665    71.132175    71.132175 
 1000000    570.39024   -143807.51   -141448.26    3669.3202    360624.46     71.28293    71.127053    71.127053 
 1100000    567.42097   -143812.51   -141465.54    3153.7807    360624.46     71.29315    71.121955    71.121955 
 1200000    566.81163   -143811.75   -141467.31    3404.2573    360624.46    71.303319    71.116883    71.116883 
 1300000    566.82868   -143824.34   -141479.83    2885.6621    360624.46    71.313434     71.11184     71.11184 
 1400000    563.51159   -143818.34   -141487.55    2846.2715    360624.46     71.32349    71.106826    71.106826 
 1500000    566.86766   -143813.54   -141468.86    2739.7543    360624.46    71.333483    71.101846    71.101846 
 1600000    569.54688   -143831.21   -141475.46    2366.8119    360624.46    71.343408      71.0969      71.0969 
 1700000    573.28359    -143791.4   -141420.19    3250.5019    360624.46     71.35326    71.091991    71.091991 
 1800000    572.37833   -143810.52   -141443.05    3002.6416    360624.46    71.363037    71.087121    71.087121 
 1900000    575.44308   -143812.42   -141432.28    3184.1989    360624.46    71.372732    71.082293    71.082293 
 2000000    567.57365   -143779.32   -141431.73    3993.7292    360624.46    71.382343    71.077508    71.077508 
 2100000    568.19159   -143819.96   -141469.81    2728.6917    360624.46    71.391864    71.072768    71.072768 
 2200000    573.53129   -143828.03   -141455.79    3212.9768    360624.46    71.401292    71.068075    71.068075 
 2300000    565.65257   -143818.59   -141478.94    2877.0195    360624.46    71.410622    71.063432    71.063432 
 2400000    569.51231   -143823.51   -141467.89    3024.0703    360624.46    71.419851    71.058841    71.058841 
 2500000    568.38713   -143818.72   -141467.76    2778.2847    360624.46    71.428974    71.054303    71.054303 
 2600000    568.16259   -143817.81   -141467.78    2838.2133    360624.46    71.437988     71.04982     71.04982 
 2700000    569.94808   -143821.09   -141463.68    3002.7347    360624.46    71.446888    71.045395    71.045395 
 2800000    572.64066   -143808.93   -141440.37    2576.8907    360624.46     71.45567    71.041029    71.041029 
 2900000    567.68923   -143831.98    -141483.9    2092.0172    360624.46    71.464331    71.036724    71.036724 
 3000000    570.11047   -143812.44   -141454.35    3263.6762    360624.46    71.472867    71.032482    71.032482 
 3100000    570.44321   -143821.05   -141461.59    2542.6129    360624.46    71.481274    71.028304    71.028304 
 3200000    564.16114   -143799.62   -141466.13    3360.0345    360624.46    71.489548    71.024194    71.024194 
 3300000    572.89744   -143800.49   -141430.88    3287.5547    360624.46    71.497686    71.020152    71.020152 
 3400000    572.56804   -143821.14   -141452.88    2953.2672    360624.46    71.505685     71.01618     71.01618 
 3500000    572.01094   -143806.54    -141440.6     2857.385    360624.46     71.51354    71.012279    71.012279 
 3600000    569.09394   -143837.36   -141483.48    2647.1761    360624.46    71.521248    71.008452    71.008452 
 3700000    565.05246      -143813   -141475.83    2747.4063    360624.46    71.528806    71.004701    71.004701 
 3800000    574.22175   -143802.25   -141427.16    3180.9716    360624.46    71.536211    71.001026    71.001026 
 3900000    571.57132   -143794.13      -141430     3205.135    360624.46    71.543459    70.997429    70.997429 
 4000000    572.82994   -143795.34      -141426     2950.757    360624.46    71.550547    70.993912    70.993912 
 4100000    571.05323   -143788.87   -141426.88    3628.7678    360624.46    71.557472    70.990477    70.990477 
 4200000    571.06543   -143804.14    -141442.1    3454.3016    360624.46    71.564231    70.987125    70.987125 
 4300000    569.36342   -143807.42   -141452.42    2701.1699    360624.46    71.570821    70.983856    70.983856 
 4400000    570.88934   -143778.82   -141417.51    3580.3177    360624.46    71.577239    70.980674    70.980674 
 4500000    567.47283   -143787.11   -141439.93    3633.4079    360624.46    71.583483    70.977578    70.977578 
 4600000    568.21464   -143787.33   -141437.08    3307.1864    360624.46    71.589549    70.974571    70.974571 
 4700000    571.47658   -143804.03   -141440.29    3237.7461    360624.46    71.595435    70.971653    70.971653 
 4800000    566.51718    -143824.7   -141481.47    2548.0065    360624.46    71.601138    70.968827    70.968827 
 4900000    571.18927   -143802.42   -141439.87    3152.2332    360624.46    71.606657    70.966092    70.966092 
 5000000    570.07714   -143812.73   -141454.78    3108.2572    360624.46    71.611987    70.963451    70.963451 
 5100000    566.00794    -143788.6   -141447.48    3305.3301    360624.46    71.617128    70.960904    70.960904 
 5200000    567.30132   -143791.44   -141444.97    3337.3681    360624.46    71.622076    70.958453    70.958453 
 5300000    568.53041   -143810.28   -141458.72    3308.7004    360624.46     71.62683    70.956098    70.956098 
 5400000    568.72563   -143800.29   -141447.93    2943.2105    360624.46    71.631388     70.95384     70.95384 
 5500000    570.13216      -143816   -141457.82    2384.3364    360624.46    71.635747    70.951681    70.951681 
 5600000    569.20108   -143802.34   -141448.01    3028.6375    360624.46    71.639906    70.949622    70.949622 
 5700000    570.82739   -143815.75    -141454.7    2864.1414    360624.46    71.643863    70.947663    70.947663 
 5800000    576.45589   -143802.49   -141418.16    3005.9981    360624.46    71.647615    70.945805    70.945805 
 5900000    569.82652   -143827.11    -141470.2    2880.6905    360624.46    71.651163    70.944049    70.944049 
 6000000    573.42421   -143808.26   -141436.47    2919.8126    360624.46    71.654503    70.942395    70.942395 
 6100000    573.09841   -143813.11   -141442.67    3090.0551    360624.46    71.657634    70.940845    70.940845 
 6200000    571.08848   -143830.03    -141467.9    2795.0032    360624.46    71.660556    70.939399    70.939399 
 6300000     571.1445   -143820.36   -141457.99    2856.8972    360624.46    71.663266    70.938057    70.938057 
 6400000    570.21776   -143816.56   -141458.03    3229.1845    360624.46    71.665764    70.936821    70.936821 
 6500000    568.17679   -143801.21   -141451.12    3194.7464    360624.46    71.668048    70.935691    70.935691 
 6600000    570.49834   -143814.78   -141455.09    3110.9098    360624.46    71.670118    70.934666    70.934666 
 6700000    569.88035   -143812.54    -141455.4    2983.0817    360624.46    71.671972    70.933749    70.933749 
 6800000    568.87573   -143814.07   -141461.09    2858.5875    360624.46    71.673611    70.932938    70.932938 
 6900000    569.18524    -143811.4   -141457.14     2823.384    360624.46    71.675032    70.932235    70.932235 
 7000000    572.50631   -143778.84   -141410.84    3565.4054    360624.46    71.676235    70.931639    70.931639 
 7100000    570.26591    -143781.1   -141422.37    3535.1205    360624.46    71.677221    70.931152    70.931152 
 7200000    571.84118   -143814.69   -141449.44    3385.6211    360624.46    71.677988    70.930772    70.930772 
 7300000    567.84208    -143791.8   -141443.09    3515.3724    360624.46    71.678536    70.930501    70.930501 
 7400000    569.25442   -143803.75   -141449.21    2764.8494    360624.46    71.678865    70.930338    70.930338 
 7500000    568.15059   -143800.61   -141450.63    3730.7815    360624.46    71.678974    70.930284    70.930284 
 7600000     569.0437   -143812.15   -141458.47    2868.9156    360624.46    71.678865    70.930338    70.930338 
 7700000     570.2849   -143812.15   -141453.34    2911.8221    360624.46    71.678536    70.930501    70.930501 
 7800000    567.46131   -143794.97   -141447.83    3046.4086    360624.46    71.677988    70.930772    70.930772 
 7900000    567.67109   -143816.62   -141468.62     3139.783    360624.46    71.677221    70.931152    70.931152 
 8000000    571.80207   -143800.22   -141435.13    3364.6519    360624.46    71.676235    70.931639    70.931639 
 8100000    566.04685   -143794.98    -141453.7    3429.9489    360624.46    71.675032    70.932235    70.932235 
 8200000    569.55799   -143819.99   -141464.18    2566.3732    360624.46    71.673611    70.932938    70.932938 
 8300000    567.60965   -143806.08   -141458.34    2742.4864    360624.46    71.671972    70.933749    70.933749 
 8400000    565.54291   -143801.93   -141462.73    2566.5649    360624.46    71.670118    70.934666    70.934666 
 8500000    567.33541   -143808.08   -141461.47    2941.5085    360624.46    71.668048    70.935691    70.935691 
 8600000     570.5981   -143805.54   -141445.43    3529.2746    360624.46    71.665764    70.936821    70.936821 
 8700000    568.64971   -143782.94   -141430.89    3247.2286    360624.46    71.663266    70.938057    70.938057 
 8800000    571.06848   -143796.55    -141434.5    3358.6188    360624.46    71.660556    70.939399    70.939399 
 8900000    570.05562   -143792.89   -141435.03    3309.6185    360624.46    71.657634    70.940845    70.940845 
 9000000    569.75786      -143781   -141424.37    3195.3943    360624.46    71.654503    70.942395    70.942395 
 9100000    572.33912   -143774.64   -141407.33    3599.1413    360624.46    71.651163    70.944049    70.944049 
 9200000    568.78622   -143807.62   -141455.01    3122.5378    360624.46    71.647615    70.945805    70.945805 
 9300000    573.04796   -143787.63   -141417.39    3564.7201    360624.46    71.643863    70.947663    70.947663 
 9400000    570.36376   -143774.04   -141414.91    3577.4702    360624.46    71.639906    70.949622    70.949622 
 9500000    572.18274   -143817.51   -141450.85    3070.9632    360624.46    71.635747    70.951681    70.951681 
 9600000    570.64929   -143789.24   -141428.92    3652.7185    360624.46    71.631388     70.95384     70.95384 
 9700000    568.85961   -143782.94   -141430.02    3613.9823    360624.46     71.62683    70.956098    70.956098 
 9800000    568.43785   -143799.85   -141448.68    3366.7937    360624.46    71.622076    70.958453    70.958453 
 9900000    570.62911   -143802.66   -141442.42    2913.4335    360624.46    71.617128    70.960904    70.960904 
10000000    571.56099    -143792.1   -141428.01    3373.6479    360624.46    71.611987    70.963451    70.963451 
10100000    571.67444   -143774.75   -141410.19    3745.9027    360624.46    71.606657    70.966092    70.966092 
10200000    568.74662   -143788.62   -141436.17    3523.5422    360624.46    71.601138    70.968827    70.968827 
10300000    565.99141    -143780.8   -141439.75    3741.0793    360624.46    71.595435    70.971653    70.971653 
10400000    569.38389   -143790.98    -141435.9    3221.9548    360624.46    71.589549    70.974571    70.974571 
10500000    569.72866   -143807.45   -141450.94    3047.7487    360624.46    71.583483    70.977578    70.977578 
10600000     567.1293   -143800.58   -141454.82    2830.5537    360624.46    71.577239    70.980674    70.980674 
10700000    566.12197   -143793.47   -141451.88    3019.2952    360624.46    71.570821    70.983856    70.983856 
10800000    572.27253   -143825.17   -141458.14    2569.1725    360624.46    71.564231    70.987125    70.987125 
10900000    571.94289   -143803.42   -141437.75    3248.4667    360624.46    71.557472    70.990477    70.990477 
11000000    569.69918   -143811.93   -141455.55    3405.0813    360624.46    71.550547    70.993912    70.993912 
11100000    570.74901   -143790.14   -141429.41    3429.8974    360624.46    71.543459    70.997429    70.997429 
11200000    572.82339   -143793.69   -141424.38    3695.5592    360624.46    71.536211    71.001026    71.001026 
11300000    573.18191   -143777.88   -141407.09    3968.6778    360624.46    71.528806    71.004701    71.004701 
11400000    573.56518   -143788.27   -141415.89    3521.3372    360624.46    71.521248    71.008452    71.008452 
11500000    570.42918   -143785.46   -141426.06    3503.3515    360624.46     71.51354    71.012279    71.012279 
11600000    569.76637   -143818.54   -141461.88    2660.3776    360624.46    71.505685     71.01618     71.01618 
11700000    569.20675   -143796.78   -141442.43    2767.7296    360624.46    71.497686    71.020152    71.020152 
11800000    572.20308   -143795.12   -141428.38     3259.643    360624.46    71.489548    71.024194    71.024194 
11900000    567.93388   -143787.88    -141438.8    3464.8915    360624.46    71.481274    71.028304    71.028304 
12000000    569.93753   -143799.07   -141441.69    3330.0017    360624.46    71.472867    71.032482    71.032482 
12100000    572.01856   -143812.26   -141446.27    3146.2583    360624.46    71.464331    71.036724    71.036724 
12200000    567.00039   -143793.78   -141448.56    2869.9011    360624.46     71.45567    71.041029    71.041029 
12300000    568.39462    -143821.2   -141470.21    3098.4829    360624.46    71.446888    71.045395    71.045395 
12400000    573.33508   -143830.65   -141459.23    2546.1927    360624.46    71.437988     71.04982     71.04982 
12500000    569.61245   -143825.64   -141469.61    3267.2998    360624.46    71.428974    71.054303    71.054303 
12600000    568.52494    -143823.9   -141472.37    3056.0094    360624.46    71.419851    71.058841    71.058841 
12700000     571.0642   -143789.75   -141427.72    3729.8541    360624.46    71.410622    71.063432    71.063432 
12800000    574.07708   -143792.53   -141418.03    3205.7511    360624.46    71.401292    71.068075    71.068075 
12900000    568.83297   -143817.16   -141464.36     3131.474    360624.46    71.391864    71.072768    71.072768 
13000000     570.8047   -143817.55   -141456.59    2782.4256    360624.46    71.382343    71.077508    71.077508 
13100000    568.35887   -143810.62   -141459.77    2808.2154    360624.46    71.372732    71.082293    71.082293 
13200000     573.3702   -143774.28   -141402.71    3867.7441    360624.46    71.363037    71.087121    71.087121 
13300000    573.11067   -143795.78   -141425.29    3480.5804    360624.46     71.35326    71.091991    71.091991 
13400000    570.43647   -143796.06   -141436.62    3229.9522    360624.46    71.343408      71.0969      71.0969 
13500000    572.72031   -143803.51   -141434.62    3118.8243    360624.46    71.333483    71.101846    71.101846 
13600000    567.55358   -143799.31   -141451.79    3144.8085    360624.46     71.32349    71.106826    71.106826 
13700000     569.1235   -143805.25   -141451.24     3086.995    360624.46    71.313434     71.11184     71.11184 
13800000    567.65448   -143808.42   -141460.49    2800.6703    360624.46    71.303319    71.116883    71.116883 
13900000     569.8849   -143792.65   -141435.49    3436.1386    360624.46     71.29315    71.121955    71.121955 
14000000    571.97251    -143797.3   -141431.51    3592.6393    360624.46     71.28293    71.127053    71.127053 
14100000    568.99368   -143817.52   -141464.05    3357.5434    360624.46    71.272665    71.132175    71.132175 
14200000    569.10587   -143786.15   -141432.21    3569.4116    360624.46    71.262359    71.137319    71.137319 
14300000    565.17539   -143784.58   -141446.91    3918.4224    360624.46    71.252016    71.142482    71.142482 
14400000     568.0803   -143822.62   -141472.93    2622.0801    360624.46    71.241641    71.147662    71.147662 
14500000     567.7708   -143799.77   -141451.36    3515.1033    360624.46    71.231239    71.152857    71.152857 
14600000    568.81347   -143810.93   -141458.21    2972.6169    360624.46    71.220813    71.158064    71.158064 
14700000    569.56963   -143789.59   -141433.73    4042.4029    360624.46     71.21037    71.163282    71.163282 
14800000    568.65127   -143807.24   -141455.19    2679.9647    360624.46    71.199912    71.168508    71.168508 
14900000    566.62113   -143801.73   -141458.07     3242.938    360624.46    71.189446    71.173739    71.173739 
15000000    573.34005   -143813.09   -141441.65    2557.3657    360624.46    71.178974    71.178974    71.178974 
15100000    568.52287   -143813.31   -141461.79    2984.9889    360624.46    71.168503    71.184211    71.184211 
15200000    569.67005   -143784.49   -141428.22    3402.1346    360624.46    71.158037    71.189446    71.189446 
15300000    566.89913    -143818.2   -141473.39    2988.0752    360624.46    71.147579    71.194677    71.194677 
15400000    567.72433   -143792.83   -141444.61    3528.2948    360624.46    71.137136    71.199903    71.199903 
15500000    571.05644   -143791.82   -141429.81    3419.1451    360624.46     71.12671    71.205121    71.205121 
15600000    569.03037    -143793.1   -141439.48     3420.807    360624.46    71.116308    71.210328    71.210328 
15700000    564.99353    -143778.8   -141441.88    3118.8237    360624.46    71.105933    71.215523    71.215523 
15800000    572.41958   -143806.67   -141439.03    3601.7378    360624.46     71.09559    71.220703    71.220703 
15900000    575.06727   -143784.39    -141405.8    3951.8676    360624.46    71.085284    71.225866    71.225866 
16000000    566.47651   -143782.66    -141439.6    3551.3585    360624.46    71.075019    71.231009    71.231009 
16100000    569.46383   -143811.48   -141456.07    3000.2267    360624.46    71.064799    71.236131    71.236131 
16200000    569.11996   -143821.58   -141467.59    2962.3536    360624.46     71.05463    71.241229    71.241229 
16300000    569.12445   -143801.04   -141447.03    3000.1122    360624.46    71.044515      71.2463      71.2463 
16400000    567.10987   -143810.37   -141464.69    2893.2292    360624.46    71.034459    71.251343    71.251343 
16500000      573.091   -143819.23   -141448.82    3045.6831    360624.46    71.024466    71.256355    71.256355 
16600000      569.728   -143823.42   -141466.91     2713.003    360624.46    71.014541    71.261334    71.261334 
16700000    576.31357   -143799.18   -141415.43    3684.5543    360624.46    71.004688    71.266278    71.266278 
16800000    570.00425   -143799.84   -141442.19    3318.6212    360624.46    70.994912    71.271184    71.271184 
16900000    564.92718   -143798.02   -141461.37    3407.2314    360624.46    70.985217    71.276052    71.276052 
17000000    562.91485   -143802.15   -141473.83    3295.1459    360624.46    70.975606    71.280877    71.280877 
17100000     569.9871   -143774.62   -141417.04    3586.0605    360624.46    70.966085    71.285659    71.285659 
17200000    575.07883    -143782.9   -141404.26    3439.4759    360624.46    70.956657    71.290394    71.290394 
17300000    565.91618   -143800.43   -141459.69    3492.7614    360624.46    70.947326    71.295082    71.295082 
17400000    570.36711   -143810.87   -141451.72    3012.8134    360624.46    70.938098    71.299719    71.299719 
17500000    570.46452    -143782.2   -141422.64    3603.6006    360624.46    70.928974    71.304305    71.304305 
17600000    571.83556   -143796.86   -141431.63    3015.6419    360624.46    70.919961    71.308836    71.308836 
17700000     574.0819   -143828.16   -141453.64     2922.153    360624.46    70.911061     71.31331     71.31331 
17800000    574.81311   -143829.02   -141451.49    2772.6183    360624.46    70.902279    71.317727    71.317727 
17900000    568.86973   -143814.19   -141461.24    3083.4101    360624.46    70.893618    71.322083    71.322083 
18000000     569.9367   -143844.22   -141486.85    2292.5589    360624.46    70.885082    71.326377    71.326377 
18100000    567.33001   -143801.46   -141454.87    3447.5394    360624.46    70.876675    71.330607    71.330607 
18200000    574.50881   -143816.26   -141439.98    3004.9331    360624.46    70.868401    71.334771    71.334771 
18300000    565.63133   -143783.84   -141444.27    2995.0224    360624.46    70.860262    71.338868    71.338868 
18400000    570.50392   -143795.36   -141435.65    3111.9236    360624.46    70.852264    71.342894    71.342894 
18500000    570.93176   -143799.92   -141438.43    3112.4505    360624.46    70.844409    71.346849    71.346849 
18600000    568.50086   -143808.62   -141457.19    3458.7048    360624.46    70.836701    71.350731    71.350731 
18700000    569.36193   -143799.17   -141444.18     3091.113    360624.46    70.829143    71.354538    71.354538 
18800000    572.78885   -143815.24   -141446.08     2882.475    360624.46    70.821738    71.358268    71.358268 
18900000    566.23519   -143807.26    -141465.2    2831.7974    360624.46     70.81449     71.36192     71.36192 
19000000    571.76974   -143802.05   -141437.09    3038.9453    360624.46    70.807402    71.365491    71.365491 
19100000    572.97982    -143799.9   -141429.95     3552.724    360624.46    70.800477    71.368981    71.368981 
19200000    569.88182   -143805.81   -141448.67    3274.4108    360624.46    70.793718    71.372388    71.372388 
19300000    570.56707   -143807.92   -141447.94    2950.4581    360624.46    70.787128     71.37571     71.37571 
19400000    570.91913   -143815.47   -141454.04    2896.6277    360624.46    70.780709    71.378946    71.378946 
19500000    567.70999   -143807.97   -141459.81    2769.1508    360624.46    70.774466    71.382095    71.382095 
19600000    570.68247   -143827.47   -141467.01     2383.907    360624.46      70.7684    71.385154    71.385154 
19700000     570.8417   -143812.38   -141451.27    2962.8749    360624.46    70.762514    71.388123    71.388123 
19800000    571.04949   -143817.19   -141455.22    2854.4231    360624.46     70.75681       71.391       71.391 
19900000    570.18072   -143808.12   -141449.74    2882.8127    360624.46    70.751292    71.393784    71.393784 
20000000    569.13161   -143800.18   -141446.14    3157.6006    360624.46    70.745962    71.396474    71.396474 
20100000    575.50144    -143801.2   -141420.82    3533.3807    360624.46    70.740821    71.399068    71.399068 
20200000    568.65316   -143775.01   -141422.95    3631.5578    360624.46    70.735873    71.401565    71.401565 
20300000    569.28138   -143802.41   -141447.75    2905.1022    360624.46    70.731119    71.403965    71.403965 
20400000    569.97015   -143822.51      -141465    3064.4395    360624.46    70.726561    71.406265    71.406265 
20500000    570.40045   -143814.57   -141455.28     3163.431    360624.46    70.722202    71.408466    71.408466 
20600000    573.83095   -143792.04   -141418.56    3686.7324    360624.46    70.718043    71.410566    71.410566 
20700000    570.68011   -143812.75    -141452.3    3288.4652    360624.46    70.714086    71.412563    71.412563 
20800000    577.53049   -143833.66   -141444.88    3045.4472    360624.46    70.710333    71.414458    71.414458 
20900000    567.93955   -143785.25   -141436.14    3550.0617    360624.46    70.706786     71.41625     71.41625 
21000000    569.23367   -143801.69   -141447.23    3326.1123    360624.46    70.703446    71.417937    71.417937 
21100000    569.04186   -143795.31   -141441.64      3216.92    360624.46    70.700315    71.419518    71.419518 
21200000    570.03406    -143803.7   -141445.93    2747.3227    360624.46    70.697393    71.420994    71.420994 
21300000    567.66938    -143802.9   -141454.91     3381.492    360624.46    70.694683    71.422363    71.422363 
21400000     568.5316   -143810.86    -141459.3    3476.3353    360624.46    70.692185    71.423625    71.423625 
21500000    575.79605   -143821.66   -141440.05    3032.6597    360624.46    70.689901    71.424779    71.424779 
21600000    573.73681   -143808.19    -141435.1    2918.7745    360624.46    70.687831    71.425824    71.425824 
21700000    571.25937   -143786.73   -141423.89    3645.7192    360624.46    70.685976    71.426761    71.426761 
21800000    573.99599   -143821.72   -141447.56    3041.3287    360624.46    70.684338    71.427589    71.427589 
21900000    567.58289   -143816.04   -141468.41    3332.0663    360624.46    70.682917    71.428307    71.428307 
22000000    570.89934   -143777.15    -141415.8    3741.2667    360624.46    70.681714    71.428915    71.428915 
22100000    568.51507   -143802.51   -141451.02    3152.9927    360624.46    70.680728    71.429413    71.429413 
22200000    565.85755   -143814.01   -141473.52    2788.2587    360624.46    70.679961    71.429801    71.429801 
22300000    574.40474   -143800.94   -141425.09    3431.7712    360624.46    70.679413    71.430078    71.430078 
22400000    570.33071   -143814.15   -141455.15     3249.281    360624.46    70.679084    71.430244    71.430244 
22500000    572.67799    -143802.1   -141433.39    2952.6317    360624.46    70.678974    71.430299    71.430299 
22600000    573.00738   -143825.83   -141455.76    3285.5092    360624.46    70.679084    71.430244    71.430244 
22700000     565.3114    -143782.8   -141444.56    3395.3771    360624.46    70.679413    71.430078    71.430078 
22800000    567.83099   -143813.17   -141464.51     2420.701    360624.46    70.679961    71.429801    71.429801 
22900000    569.64119   -143824.79   -141468.65    2524.4783    360624.46    70.680728    71.429413    71.429413 
23000000    571.84447   -143805.08   -141439.82    3328.3797    360624.46    70.681714    71.428915    71.428915 
23100000    573.28756   -143809.93    -141438.7    3229.6949    360624.46    70.682917    71.428307    71.428307 
23200000    570.25867   -143828.48   -141469.78    2745.3883    360624.46    70.684338    71.427589    71.427589 
23300000    570.34253   -143816.79   -141457.75     2833.128    360624.46    70.685976    71.426761    71.426761 
23400000     569.0112   -143819.55   -141466.01    3113.2445    360624.46    70.687831    71.425824    71.425824 
23500000    572.23059   -143821.97   -141455.11     3222.092    360624.46    70.689901    71.424779    71.424779 
23600000    567.81062   -143827.63   -141479.06    2847.2879    360624.46    70.692185    71.423625    71.423625 
23700000    568.80827   -143806.35   -141453.65    2885.6946    360624.46    70.694683    71.422363    71.422363 
23800000    569.74218   -143802.31   -141445.74    3107.1024    360624.46    70.697393    71.420994    71.420994 
23900000    569.78744   -143804.88   -141448.12    3663.5948    360624.46    70.700315    71.419518    71.419518 
24000000    567.49345   -143820.34   -141473.08    2593.8355    360624.46    70.703446    71.417937    71.417937 
24100000    570.80607   -143797.57    -141436.6    3583.0047    360624.46    70.706786     71.41625     71.41625 
24200000    568.80968   -143815.08   -141462.37    2623.2666    360624.46    70.710333    71.414458    71.414458 
24300000    571.11693   -143800.22   -141437.97    3549.4675    360624.46    70.714086    71.412563    71.412563 
24400000    568.22303   -143811.11   -141460.83    2996.2873    360624.46    70.718043    71.410566    71.410566 
24500000    573.72523    -143777.4   -141404.36    3856.3486    360624.46    70.722202    71.408466    71.408466 
24600000    567.52053   -143783.78    -141436.4    3913.2288    360624.46    70.726561    71.406265    71.406265 
24700000    567.50865   -143799.65   -141452.32    3289.8107    360624.46    70.731119    71.403965    71.403965 
24800000    569.07598   -143799.98   -141446.17    2973.6244    360624.46    70.735873    71.401565    71.401565 
24900000    568.29392   -143793.89   -141443.31    3153.2509    360624.46    70.740821    71.399068    71.399068 
25000000    573.12063   -143785.11   -141414.57    3917.3542    360624.46    70.745962    71.396474    71.396474 
25100000    564.39576   -143791.78   -141457.33    3397.8892    360624.46    70.751292    71.393784    71.393784 
25200000    568.19639   -143823.68   -141473.51    2404.0645    360624.46     70.75681       71.391       71.391 
25300000    569.80513   -143799.02   -141442.19    2855.9927    360624.46    70.762514    71.388123    71.388123 
25400000    571.27023   -143817.73   -141454.85    2861.5771    360624.46      70.7684    71.385154    71.385154 
25500000    572.83883    -143821.2   -141451.83    2967.8462    360624.46    70.774466    71.382095    71.382095 
25600000    566.55239    -143845.9   -141502.53    2213.1322    360624.46    70.780709    71.378946    71.378946 
25700000    571.52361      -143802   -141438.07    3320.9219    360624.46    70.787128     71.37571     71.37571 
25800000    573.48557   -143799.83   -141427.78    3349.7349    360624.46    70.793718    71.372388    71.372388 
25900000    573.05678   -143805.56   -141435.28    2820.6133    360624.46    70.800477    71.368981    71.368981 
26000000    570.73535   -143811.94   -141451.27    3208.1054    360624.46    70.807402    71.365491    71.365491 
26100000    571.60188   -143809.07   -141444.81    2897.3776    360624.46     70.81449     71.36192     71.36192 
26200000    568.91635   -143807.46   -141454.31    3437.1748    360624.46    70.821738    71.358268    71.358268 
26300000    573.78249   -143812.55   -141439.27    3132.0226    360624.46    70.829143    71.354538    71.354538 
26400000    572.77608   -143806.29   -141437.18    2524.4913    360624.46    70.836701    71.350731    71.350731 
26500000    568.18034   -143786.83   -141436.73     3558.194    360624.46    70.844409    71.346849    71.346849 
26600000    573.69352   -143813.22   -141440.31    2847.6963    360624.46    70.852264    71.342894    71.342894 
26700000     568.8435   -143826.14    -141473.3    2733.8958    360624.46    70.860262    71.338868    71.338868 
26800000    569.28904   -143820.62   -141465.93    3084.2287    360624.46    70.868401    71.334771    71.334771 
26900000     573.6027   -143787.32   -141414.78    3739.6254    360624.46    70.876675    71.330607    71.330607 
27000000    571.01869   -143786.89   -141425.04    3016.8625    360624.46    70.885082    71.326377    71.326377 
27100000    568.66669   -143792.77   -141440.66    3184.2139    360624.46    70.893618    71.322083    71.322083 
27200000    566.98718   -143781.96   -141436.79    3004.0801    360624.46    70.902279    71.317727    71.317727 
27300000    570.10779   -143795.79   -141437.72    3088.7538    360624.46    70.911061     71.31331     71.31331 
27400000    568.15917   -143804.18   -141454.16    2728.5985    360624.46    70.919961    71.308836    71.308836 
27500000    569.99132    -143773.6   -141416.01    3830.2994    360624.46    70.928974    71.304305    71.304305 
27600000    572.41585   -143789.96   -141422.33    3321.5733    360624.46    70.938098    71.299719    71.299719 
27700000    575.08788   -143787.16   -141408.48    3276.9477    360624.46    70.947326    71.295082    71.295082 
27800000    567.74862   -143790.09   -141441.77    3748.3537    360624.46    70.956657    71.290394    71.290394 
27900000    567.09278   -143806.25   -141460.64    3229.7072    360624.46    70.966085    71.285659    71.285659 
28000000     575.7788   -143793.02   -141411.48    3298.0863    360624.46    70.975606    71.280877    71.280877 
28100000    571.92694   -143815.03   -141449.42    3336.5483    360624.46    70.985217    71.276052    71.276052 
28200000    567.42204   -143827.97      -141481    2623.6333    360624.46    70.994912    71.271184    71.271184 
28300000    567.90153   -143816.92   -141467.97    2986.0711    360624.46    71.004688    71.266278    71.266278 
28400000    567.52819   -143817.01    -141469.6    3122.0511    360624.46    71.014541    71.261334    71.261334 
28500000    565.03332   -143816.32   -141479.23    2888.3669    360624.46    71.024466    71.256355    71.256355 
28600000    568.03513   -143805.41    -141455.9    3032.2204    360624.46    71.034459    71.251343    71.251343 
28700000    568.86643   -143828.07   -141475.12    2543.9183    360624.46    71.044515      71.2463      71.2463 
28800000    568.65036   -143822.96   -141470.91    2746.8132    360624.46     71.05463    71.241229    71.241229 
28900000    566.97638   -143795.21   -141450.09    3431.1203    360624.46    71.064799    71.236131    71.236131 
29000000     568.2875   -143810.87   -141460.32    2824.4713    360624.46    71.075019    71.231009    71.231009 
29100000    570.53879   -143798.62   -141438.76    3390.9228    360624.46    71.085284    71.225866    71.225866 
29200000    566.96686   -143799.59    -141454.5     3168.474    360624.46     71.09559    71.220703    71.220703 
29300000    571.62928   -143820.44   -141456.07    2242.2601    360624.46    71.105933    71.215523    71.215523 
29400000    567.01588   -143803.81   -141458.52    3395.0363    360624.46    71.116308    71.210328    71.210328 
29500000    568.02405   -143816.31   -141466.85     2911.142    360624.46     71.12671    71.205121    71.205121 
29600000    567.34678   -143812.56    -141465.9    3244.0724    360624.46    71.137136    71.199903    71.199903 
29700000    572.27859    -143795.8   -141428.75    3582.1043    360624.46    71.147579    71.194677    71.194677 
29800000    573.10213   -143793.53   -141423.07    2984.8542    360624.46    71.158037    71.189446    71.189446 
29900000    571.40933   -143772.59   -141409.13    3750.4429    360624.46    71.168503    71.184211    71.184211 
30000000    572.74998   -143785.11   -141416.11    3817.9817    360624.46    71.178974    71.178974    71.178974 
30100000    571.42853   -143788.26   -141424.72    3548.7866    360624.46    71.189446    71.173739    71.173739 
30200000    568.99468   -143813.34   -141459.86    2765.8997    360624.46    71.199912    71.168508    71.168508 
30300000    573.86531   -143796.34   -141422.72    2992.2119    360624.46     71.21037    71.163282    71.163282 
30400000    569.00406   -143788.72   -141435.21    2919.4348    360624.46    71.220813    71.158064    71.158064 
30500000    572.47142   -143789.22   -141421.37    3687.3661    360624.46    71.231239    71.152857    71.152857 
30600000     569.3739   -143796.09   -141441.04    3533.6267    360624.46    71.241641    71.147662    71.147662 
30700000    568.04454   -143816.19   -141466.65    2825.4407    360624.46    71.252016    71.142482    71.142482 
30800000    575.93515   -143827.15   -141444.97    2537.5615    360624.46    71.262359    71.137319    71.137319 
30900000    570.94329   -143832.68   -141471.15    2595.5973    360624.46    71.272665    71.132175    71.132175 
31000000    570.61806   -143809.26   -141449.08    3088.9659    360624.46     71.28293    71.127053    71.127053 
31100000     571.5504   -143770.01   -141405.97    3497.5362    360624.46     71.29315    71.121955    71.121955 
31200000    571.52961   -143782.03   -141418.07    3480.5082    360624.46    71.303319    71.116883    71.116883 
31300000    566.45261   -143794.85   -141451.89    3180.0256    360624.46    71.313434     71.11184     71.11184 
31400000    573.56767    -143794.5   -141422.11    3453.8833    360624.46     71.32349    71.106826    71.106826 
31500000    570.10895   -143765.59    -141407.5    3736.0795    360624.46    71.333483    71.101846    71.101846 
31600000    570.34051   -143792.14    -141433.1    3273.1993    360624.46    71.343408      71.0969      71.0969 
31700000    571.35129   -143814.16   -141450.94    3266.1568    360624.46     71.35326    71.091991    71.091991 
31800000    567.29804   -143796.39   -141449.94    3216.2959    360624.46    71.363037    71.087121    71.087121 
31900000    570.96894   -143793.87   -141432.23    3629.3869    360624.46    71.372732    71.082293    71.082293 
32000000    570.60514   -143796.47   -141436.33    3336.1448    360624.46    71.382343    71.077508    71.077508 
32100000    572.03264   -143810.15   -141444.11    2740.1657    360624.46    71.391864    71.072768    71.072768 
32200000    569.10303   -143792.94   -141439.02    3261.5122    360624.46    71.401292    71.068075    71.068075 
32300000    571.09358   -143810.22   -141448.06    3138.9886    360624.46    71.410622    71.063432    71.063432 
32400000    564.85712   -143817.73   -141481.37    2726.8586    360624.46    71.419851    71.058841    71.058841 
32500000    570.61641    -143816.4   -141456.22    3354.4299    360624.46    71.428974    71.054303    71.054303 
32600000    568.93672   -143798.09   -141444.86    3665.1615    360624.46    71.437988     71.04982     71.04982 
32700000    571.49926   -143802.21   -141438.38    3333.1391    360624.46    71.446888    71.045395    71.045395 
32800000    574.16057   -143819.83   -141444.99    3016.6363    360624.46     71.45567    71.041029    71.041029 
32900000    570.26434   -143818.77   -141460.05    3132.2878    360624.46    71.464331    71.036724    71.036724 
33000000    566.22049    -143818.3   -141476.31    3094.0432    360624.46    71.472867    71.032482    71.032482 
33100000     569.9796   -143818.56   -141461.02    2945.2353    360624.46    71.481274    71.028304    71.028304 
33200000    570.92306    -143796.1   -141434.65    3203.4902    360624.46    71.489548    71.024194    71.024194 
33300000    573.25331   -143810.94   -141439.85    2567.2977    360624.46    71.497686    71.020152    71.020152 
33400000    569.84582    -143812.7   -141455.71    3161.6505    360624.46    71.505685     71.01618     71.01618 
33500000    567.35895   -143800.61   -141453.91    3225.7522    360624.46     71.51354    71.012279    71.012279 
33600000    569.79029   -143792.04   -141435.28    3297.1178    360624.46    71.521248    71.008452    71.008452 
33700000    572.40609   -143805.95   -141438.36    3081.9312    360624.46    71.528806    71.004701    71.004701 
33800000     566.8161      -143807   -141462.54    3303.0027    360624.46    71.536211    71.001026    71.001026 
33900000    566.30955   -143814.02   -141471.66    2677.3807    360624.46    71.543459    70.997429    70.997429 
34000000    568.29121   -143785.41   -141434.84    3711.5532    360624.46    71.550547    70.993912    70.993912 
34100000    570.62998   -143828.85   -141468.61    2743.0973    360624.46    71.557472    70.990477    70.990477 
34200000    573.68429   -143787.45   -141414.58    3782.2647    360624.46    71.564231    70.987125    70.987125 
34300000    566.28864      -143796   -141453.72     2983.473    360624.46    71.570821    70.983856    70.983856 
34400000    569.34395   -143828.24   -141473.32    2477.9872    360624.46    71.577239    70.980674    70.980674 
34500000    569.97809   -143803.42   -141445.88    2972.2393    360624.46    71.583483    70.977578    70.977578 
34600000    568.63123   -143801.04   -141449.07    3309.5582    360624.46    71.589549    70.974571    70.974571 
34700000    568.00573   -143771.93   -141422.55    3771.9421    360624.46    71.595435    70.971653    70.971653 
34800000    570.49936   -143805.55   -141445.85    2820.1834    360624.46    71.601138    70.968827    70.968827 
34900000    567.41842   -143800.31   -141453.35     3063.443    360624.46    71.606657    70.966092    70.966092 
35000000    569.83663   -143758.63   -141401.67     3838.086    360624.46    71.611987    70.963451    70.963451 
35100000     570.0247   -143803.14    -141445.4    3004.4089    360624.46    71.617128    70.960904    70.960904 
35200000    570.65125   -143784.14   -141423.81    3792.5152    360624.46    71.622076    70.958453    70.958453 
35300000    566.94338   -143808.46   -141463.48    3375.7895    360624.46     71.62683    70.956098    70.956098 
35400000    570.80609   -143812.98   -141452.01    2568.5417    360624.46    71.631388     70.95384     70.95384 
35500000    570.36184    -143806.8   -141447.67    3295.9582    360624.46    71.635747    70.951681    70.951681 
35600000    570.10813   -143797.15   -141439.08    3395.3886    360624.46    71.639906    70.949622    70.949622 
35700000    570.83575   -143827.51   -141466.42    2401.9067    360624.46    71.643863    70.947663    70.947663 
35800000    569.03482   -143826.19   -141472.55    2654.8432    360624.46    71.647615    70.945805    70.945805 
35900000    573.53171   -143801.12   -141428.88    3403.3716    360624.46    71.651163    70.944049    70.944049 
36000000    566.25818   -143820.57   -141478.41    2196.4587    360624.46    71.654503    70.942395    70.942395 
36100000    566.67575   -143790.41   -141446.53    3551.5561    360624.46    71.657634    70.940845    70.940845 
36200000     569.2094   -143806.52   -141452.16    3189.6165    360624.46    71.660556    70.939399    70.939399 
36300000    572.53722   -143822.75   -141454.63    2962.7573    360624.46    71.663266    70.938057    70.938057 
36400000    564.43198   -143796.42   -141461.82    2949.7165    360624.46    71.665764    70.936821    70.936821 
36500000    569.55584   -143795.68   -141439.89    3147.1286    360624.46    71.668048    70.935691    70.935691 
36600000    571.64319   -143811.85   -141447.42    2998.7184    360624.46    71.670118    70.934666    70.934666 
36700000     566.2269   -143813.22   -141471.19     2635.449    360624.46    71.671972    70.933749    70.933749 
36800000    569.37842   -143804.47   -141449.41    3172.1061    360624.46    71.673611    70.932938    70.932938 
36900000    569.61182   -143812.63    -141456.6    3031.0128    360624.46    71.675032    70.932235    70.932235 
37000000    570.14663   -143830.97   -141472.73    2485.0838    360624.46    71.676235    70.931639    70.931639 
37100000    573.90396   -143813.98    -141440.2    3422.3876    360624.46    71.677221    70.931152    70.931152 
37200000    566.94618   -143814.42   -141469.42    2885.2066    360624.46    71.677988    70.930772    70.930772 
37300000    569.19813   -143831.07   -141476.76    3228.5149    360624.46    71.678536    70.930501    70.930501 
37400000    565.93477   -143803.74   -141462.93    3336.7296    360624.46    71.678865    70.930338    70.930338 
37500000    571.38543   -143807.85   -141444.49    3023.3958    360624.46    71.678974    70.930284    70.930284 
37600000    564.90484   -143815.84   -141479.28    2780.7311    360624.46    71.678865    70.930338    70.930338 
37700000    572.86731   -143813.22   -141443.73    2857.8657    360624.46    71.678536    70.930501    70.930501 
37800000    569.76179   -143802.36   -141445.71    3099.5444    360624.46    71.677988    70.930772    70.930772 
37900000    572.67551   -143799.81   -141431.11    3060.5954    360624.46    71.677221    70.931152    70.931152 
38000000     573.6985   -143801.92   -141428.99    3094.8119    360624.46    71.676235    70.931639    70.931639 
38100000    570.35417   -143810.42   -141451.32    3105.6114    360624.46    71.675032    70.932235    70.932235 
38200000    569.17444   -143826.41    -141472.2    2477.4933    360624.46    71.673611    70.932938    70.932938 
38300000    570.60271   -143798.53   -141438.41    3442.8213    360624.46    71.671972    70.933749    70.933749 
38400000     566.2946   -143801.06   -141458.75    2961.0786    360624.46    71.670118    70.934666    70.934666 
38500000    562.06485   -143815.37   -141490.56    2862.9825    360624.46    71.668048    70.935691    70.935691 
38600000    568.86586   -143805.19   -141452.25     3103.186    360624.46    71.665764    70.936821    70.936821 
38700000     573.4658   -143819.73   -141447.77     2747.157    360624.46    71.663266    70.938057    70.938057 
38800000    566.30905   -143812.96    -141470.6    2792.5775    360624.46    71.660556    70.939399    70.939399 
38900000    570.46191   -143810.63   -141451.09    2824.1874    360624.46    71.657634    70.940845    70.940845 
39000000    567.39687   -143820.37    -141473.5    2724.9875    360624.46    71.654503    70.942395    70.942395 
39100000    568.65573   -143830.77    -141478.7    2387.5267    360624.46    71.651163    70.944049    70.944049 
39200000    573.42283   -143843.72   -141471.93    2614.5574    360624.46    71.647615    70.945805    70.945805 
39300000     571.4892   -143782.02   -141418.23    3342.3269    360624.46    71.643863    70.947663    70.947663 
39400000    571.69693   -143798.14   -141433.49    3449.7943    360624.46    71.639906    70.949622    70.949622 
39500000    573.95854   -143804.11    -141430.1    3702.4891    360624.46    71.635747    70.951681    70.951681 
39600000    573.11134   -143809.69   -141439.19     3123.088    360624.46    71.631388     70.95384     70.95384 
39700000    566.91572   -143811.61   -141466.73    2966.7121    360624.46     71.62683    70.956098    70.956098 
39800000    570.44048   -143808.24   -141448.79    2994.3727    360624.46    71.622076    70.958453    70.958453 
39900000    570.55859   -143780.57   -141420.63    3546.6278    360624.46    71.617128    70.960904    70.960904 
40000000    570.73762   -143807.96   -141447.28    3116.8321    360624.46    71.611987    70.963451    70.963451 
40100000    570.37742   -143794.24   -141435.05    3571.8393    360624.46    71.606657    70.966092    70.966092 
40200000    571.62688   -143814.51   -141450.15    3179.2035    360624.46    71.601138    70.968827    70.968827 
40300000    569.25949   -143822.45   -141467.88    3040.8508    360624.46    71.595435    70.971653    70.971653 
40400000    566.79899   -143800.33   -141455.94    3246.3785    360624.46    71.589549    70.974571    70.974571 
40500000     568.7266   -143808.82   -141456.46    3059.7847    360624.46    71.583483    70.977578    70.977578 
40600000    573.88037   -143819.62   -141445.94    2769.9238    360624.46    71.577239    70.980674    70.980674 
40700000    573.98012   -143811.02   -141436.92    3356.7152    360624.46    71.570821    70.983856    70.983856 
40800000    570.43555   -143804.85   -141445.42    3092.9526    360624.46    71.564231    70.987125    70.987125 
40900000    569.66717   -143829.27   -141473.02    2492.7036    360624.46    71.557472    70.990477    70.990477 
41000000    573.58175   -143809.54   -141437.09    2911.5293    360624.46    71.550547    70.993912    70.993912 
41100000    569.45703    -143801.4   -141446.02    3289.6661    360624.46    71.543459    70.997429    70.997429 
41200000    569.68274   -143812.87   -141456.56    2800.3544    360624.46    71.536211    71.001026    71.001026 
41300000    571.07444   -143803.49   -141441.41    3252.6759    360624.46    71.528806    71.004701    71.004701 
41400000    573.07806   -143817.51   -141447.15     3236.269    360624.46    71.521248    71.008452    71.008452 
41500000    569.59316   -143787.64   -141431.69    3903.1048    360624.46     71.51354    71.012279    71.012279 
41600000     571.3621   -143789.36   -141426.09    3485.5813    360624.46    71.505685     71.01618     71.01618 
41700000    568.90932   -143812.58   -141459.46    3090.5802    360624.46    71.497686    71.020152    71.020152 
41800000    574.78523   -143788.44   -141411.02    3545.7921    360624.46    71.489548    71.024194    71.024194 
41900000    571.32954   -143814.13      -141451    3065.9063    360624.46    71.481274    71.028304    71.028304 
42000000    564.72785   -143825.69   -141489.87    2459.2932    360624.46    71.472867    71.032482    71.032482 
42100000    571.48964   -143831.62   -141467.83    2488.1794    360624.46    71.464331    71.036724    71.036724 
42200000    570.77936    -143794.5   -141433.64    3142.8968    360624.46     71.45567    71.041029    71.041029 
42300000    566.90169   -143798.67   -141453.85    3373.5072    360624.46    71.446888    71.045395    71.045395 
42400000    567.52625   -143806.71   -141459.31    2696.8879    360624.46    71.437988     71.04982     71.04982 
42500000    569.65889   -143808.84   -141452.62    2992.0871    360624.46    71.428974    71.054303    71.054303 
42600000    567.43018   -143819.99   -141472.98    2142.7396    360624.46    71.419851    71.058841    71.058841 
42700000    569.52001   -143794.86   -141439.21     3085.595    360624.46    71.410622    71.063432    71.063432 
42800000    569.95534   -143785.75   -141428.31    3320.7589    360624.46    71.401292    71.068075    71.068075 
42900000     569.9976   -143785.28   -141427.66    3231.6687    360624.46    71.391864    71.072768    71.072768 
43000000     574.4581   -143818.85   -141442.78    2675.9316    360624.46    71.382343    71.077508    71.077508 
43100000    563.59278    -143797.8   -141466.67    2902.3847    360624.46    71.372732    71.082293    71.082293 
43200000    568.84452   -143806.09   -141453.24    3275.4365    360624.46    71.363037    71.087121    71.087121 
43300000    568.07138   -143828.78   -141479.13    2707.6271    360624.46     71.35326    71.091991    71.091991 
43400000    572.95514   -143802.43   -141432.57    3381.4019    360624.46    71.343408      71.0969      71.0969 
43500000    564.87454   -143843.56   -141507.12    2193.6639    360624.46    71.333483    71.101846    71.101846 
43600000    572.50709    -143836.1    -141468.1    2313.7164    360624.46     71.32349    71.106826    71.106826 
43700000    575.13323    -143793.5   -141414.63    3478.0144    360624.46    71.313434     71.11184     71.11184 
43800000       567.96   -143811.97   -141462.78    3251.7999    360624.46    71.303319    71.116883    71.116883 
43900000     565.4474   -143787.64   -141448.84    3604.7254    360624.46     71.29315    71.121955    71.121955 
44000000    574.76852   -143786.25   -141408.89    3384.2621    360624.46     71.28293    71.127053    71.127053 
44100000    570.33516   -143810.61   -141451.59    3004.1984    360624.46    71.272665    71.132175    71.132175 
44200000     568.7352   -143804.92   -141452.52    3465.2941    360624.46    71.262359    71.137319    71.137319 
44300000    569.05546   -143814.13   -141460.41    3313.9923    360624.46    71.252016    71.142482    71.142482 
44400000    577.47382   -143821.65   -141433.11    3076.5822    360624.46    71.241641    71.147662    71.147662 
44500000      564.502   -143817.31   -141482.42    2867.0986    360624.46    71.231239    71.152857    71.152857 
44600000    570.54881   -143796.52   -141436.62     3470.843    360624.46    71.220813    71.158064    71.158064 
44700000    564.47529   -143813.61   -141478.83    3375.8372    360624.46     71.21037    71.163282    71.163282 
44800000    572.53932   -143832.34   -141464.21    2275.3888    360624.46    71.199912    71.168508    71.168508 
44900000    568.26508   -143792.26   -141441.81    3173.8233    360624.46    71.189446    71.173739    71.173739 
45000000    567.54253   -143788.51   -141441.05    3130.5631    360624.46    71.178974    71.178974    71.178974 
45100000    570.94033   -143792.54   -141431.02    3589.5259    360624.46    71.168503    71.184211    71.184211 
45200000    567.37637   -143818.83   -141472.05    3127.8013    360624.46    71.158037    71.189446    71.189446 
45300000    573.51226   -143801.24   -141429.08    3640.3893    360624.46    71.147579    71.194677    71.194677 
45400000    572.64673    -143799.1   -141430.53    3199.3883    360624.46    71.137136    71.199903    71.199903 
45500000    575.93995   -143800.11   -141417.91    3181.8256    360624.46     71.12671    71.205121    71.205121 
45600000    570.91193   -143785.02   -141423.61    3794.9546    360624.46    71.116308    71.210328    71.210328 
45700000    571.28813   -143790.73   -141427.77    3421.2892    360624.46    71.105933    71.215523    71.215523 
45800000    565.52998   -143805.67   -141466.53    2893.8051    360624.46     71.09559    71.220703    71.220703 
45900000    569.46633   -143808.42      -141453    3252.0352    360624.46    71.085284    71.225866    71.225866 
46000000    566.73963    -143807.3   -141463.15    3187.2565    360624.46    71.075019    71.231009    71.231009 
46100000    567.08916   -143811.09    -141465.5      3413.49    360624.46    71.064799    71.236131    71.236131 
46200000    566.57127   -143809.87   -141466.42    3235.5055    360624.46     71.05463    71.241229    71.241229 
46300000    571.65775   -143792.26   -141427.77    2932.9183    360624.46    71.044515      71.2463      71.2463 
46400000    569.54677   -143817.44   -141461.68     3222.057    360624.46    71.034459    71.251343    71.251343 
46500000    568.12932   -143782.13   -141432.24     3505.398    360624.46    71.024466    71.256355    71.256355 
46600000    574.11318   -143798.88   -141424.24    3343.3095    360624.46    71.014541    71.261334    71.261334 
46700000    569.14126   -143800.68    -141446.6    2934.7176    360624.46    71.004688    71.266278    71.266278 
46800000      568.808   -143783.24   -141430.53    3587.7262    360624.46    70.994912    71.271184    71.271184 
46900000    568.79942   -143782.24   -141429.58    3429.4668    360624.46    70.985217    71.276052    71.276052 
47000000    571.93722   -143800.51   -141434.87    3482.4191    360624.46    70.975606    71.280877    71.280877 
47100000    569.63388   -143792.51    -141436.4    3017.7534    360624.46    70.966085    71.285659    71.285659 
47200000    570.84918   -143781.17   -141420.02    3238.2402    360624.46    70.956657    71.290394    71.290394 
47300000    572.75941   -143805.17   -141436.13    3213.1171    360624.46    70.947326    71.295082    71.295082 
47400000    570.10574   -143783.58   -141425.52     3424.443    360624.46    70.938098    71.299719    71.299719 
47500000    574.91855   -143781.93   -141403.96    3762.4873    360624.46    70.928974    71.304305    71.304305 
47600000    570.08451    -143786.9   -141428.92    3969.3279    360624.46    70.919961    71.308836    71.308836 
47700000    568.72578   -143771.39   -141419.03    3851.5978    360624.46    70.911061     71.31331     71.31331 
47800000    569.91098   -143777.43   -141420.17    3648.3418    360624.46    70.902279    71.317727    71.317727 
47900000    569.79005   -143795.36   -141438.59    3198.1303    360624.46    70.893618    71.322083    71.322083 
48000000    573.67334   -143793.17   -141420.34    3571.4793    360624.46    70.885082    71.326377    71.326377 
48100000    568.02163   -143777.77   -141428.32    3763.9683    360624.46    70.876675    71.330607    71.330607 
48200000    565.54104   -143793.33   -141454.14    3245.4467    360624.46    70.868401    71.334771    71.334771 
48300000     569.2934   -143791.43   -141436.72    3476.8051    360624.46    70.860262    71.338868    71.338868 
48400000    569.08627   -143818.48   -141464.63      2945.73    360624.46    70.852264    71.342894    71.342894 
48500000    570.48549   -143776.38   -141416.74    3667.5783    360624.46    70.844409    71.346849    71.346849 
48600000    567.34736   -143779.38   -141432.72    3797.5956    360624.46    70.836701    71.350731    71.350731 
48700000    571.78552   -143792.85   -141427.83    3310.9106    360624.46    70.829143    71.354538    71.354538 
48800000    568.83311   -143783.44   -141430.63    3424.9054    360624.46    70.821738    71.358268    71.358268 
48900000    574.05727   -143790.18   -141415.77    3377.2057    360624.46     70.81449     71.36192     71.36192 
49000000    568.16482   -143805.34    -141455.3     3235.024    360624.46    70.807402    71.365491    71.365491 
49100000    573.60302   -143784.53      -141412    3864.6757    360624.46    70.800477    71.368981    71.368981 
49200000    571.17357   -143806.38    -141443.9    2978.2568    360624.46    70.793718    71.372388    71.372388 
49300000    569.43932   -143802.11    -141446.8    3049.9424    360624.46    70.787128     71.37571     71.37571 
49400000    568.14095   -143795.03   -141445.09    2986.2262    360624.46    70.780709    71.378946    71.378946 
49500000    568.08552   -143804.18   -141454.47    2969.2044    360624.46    70.774466    71.382095    71.382095 
49600000    570.86611   -143795.87   -141434.65    3306.0822    360624.46      70.7684    71.385154    71.385154 
49700000    569.08006   -143787.06   -141433.23    3609.1032    360624.46    70.762514    71.388123    71.388123 
49800000    564.67435   -143781.34   -141445.73    3370.3428    360624.46     70.75681       71.391       71.391 
49900000    567.91033   -143795.33   -141446.34    2965.2288    360624.46    70.751292    71.393784    71.393784 
50000000    568.78149   -143781.96   -141429.37    3616.0495    360624.46    70.745962    71.396474    71.396474 
50100000    568.53409   -143791.21   -141439.64    3352.2223    360624.46    70.740821    71.399068    71.399068 
50200000    570.34316   -143779.79   -141420.74    3109.0545    360624.46    70.735873    71.401565    71.401565 
50300000     571.5775   -143798.51   -141434.35     2692.186    360624.46    70.731119    71.403965    71.403965 
50400000    571.86549   -143794.32   -141428.97     3248.916    360624.46    70.726561    71.406265    71.406265 
50500000     567.1527      -143778   -141432.15    3227.6909    360624.46    70.722202    71.408466    71.408466 
50600000    566.19378   -143777.06   -141435.17     3138.949    360624.46    70.718043    71.410566    71.410566 
50700000    567.69644   -143806.47   -141458.37    3003.9767    360624.46    70.714086    71.412563    71.412563 
50800000    568.12644   -143812.76   -141462.88    2639.3765    360624.46    70.710333    71.414458    71.414458 
50900000    572.35571   -143798.56   -141431.19    3286.6828    360624.46    70.706786     71.41625     71.41625 
51000000    568.01333   -143802.99   -141453.58    2942.5971    360624.46    70.703446    71.417937    71.417937 
51100000    569.37548    -143782.7   -141427.65    3417.7811    360624.46    70.700315    71.419518    71.419518 
51200000     568.2728   -143789.67   -141439.18    3393.0658    360624.46    70.697393    71.420994    71.420994 
51300000    567.98452   -143784.77   -141435.48    3516.8197    360624.46    70.694683    71.422363    71.422363 
51400000    572.20118   -143787.66   -141420.92    3668.6848    360624.46    70.692185    71.423625    71.423625 
51500000    573.55247    -143795.3   -141422.98    3609.3591    360624.46    70.689901    71.424779    71.424779 
51600000    567.72666   -143786.65   -141438.42    3391.7289    360624.46    70.687831    71.425824    71.425824 
51700000    573.57111   -143778.38   -141405.97    3690.5062    360624.46    70.685976    71.426761    71.426761 
51800000    565.85142   -143801.32   -141460.84    3235.0041    360624.46    70.684338    71.427589    71.427589 
51900000    569.29415   -143766.36   -141411.64    3571.1797    360624.46    70.682917    71.428307    71.428307 
52000000    568.13022   -143801.01   -141451.12    3255.9333    360624.46    70.681714    71.428915    71.428915 
52100000    571.22353   -143821.48   -141458.78    2341.2176    360624.46    70.680728    71.429413    71.429413 
52200000    569.71141   -143806.05   -141449.61    3056.9357    360624.46    70.679961    71.429801    71.429801 
52300000    570.15394   -143783.77    -141425.5    3566.5654    360624.46    70.679413    71.430078    71.430078 
52400000    570.70839   -143826.82   -141466.26    2776.2097    360624.46    70.679084    71.430244    71.430244 
52500000    569.23677   -143801.92   -141447.45    3530.3529    360624.46    70.678974    71.430299    71.430299 
52600000    572.24243   -143820.52   -141453.61    2471.3395    360624.46    70.679084    71.430244    71.430244 
52700000    570.22304   -143811.87   -141453.32    3160.1623    360624.46    70.679413    71.430078    71.430078 
52800000    570.99773   -143793.19   -141431.43    3631.3386    360624.46    70.679961    71.429801    71.429801 
52900000    573.51894   -143791.63   -141419.44    3215.1515    360624.46    70.680728    71.429413    71.429413 
53000000    574.60841   -143800.47   -141423.77    3375.1055    360624.46    70.681714    71.428915    71.428915 
53100000     570.1917   -143809.03   -141450.61    2923.5942    360624.46    70.682917    71.428307    71.428307 
53200000    572.54515   -143799.84   -141431.68    3443.9194    360624.46    70.684338    71.427589    71.427589 
53300000    567.98771   -143807.54   -141458.23    3183.1298    360624.46    70.685976    71.426761    71.426761 
53400000      575.362   -143812.13   -141432.32    3395.0541    360624.46    70.687831    71.425824    71.425824 
53500000    570.86195    -143804.3   -141443.11    3214.8316    360624.46    70.689901    71.424779    71.424779 
53600000    570.99944   -143816.95   -141455.18    2856.0591    360624.46    70.692185    71.423625    71.423625 
53700000     575.0441   -143786.64   -141408.14    3647.9341    360624.46    70.694683    71.422363    71.422363 
53800000    566.73818    -143795.1   -141450.96    3037.9374    360624.46    70.697393    71.420994    71.420994 
53900000    566.62675   -143793.75   -141450.07    3450.2406    360624.46    70.700315    71.419518    71.419518 
54000000    567.95626   -143808.61   -141459.44     2918.997    360624.46    70.703446    71.417937    71.417937 
54100000     574.0035   -143820.97   -141446.78    2840.3191    360624.46    70.706786     71.41625     71.41625 
54200000    573.93554   -143808.19   -141434.28    2813.3521    360624.46    70.710333    71.414458    71.414458 
54300000    567.80118   -143804.76   -141456.22     2949.849    360624.46    70.714086    71.412563    71.412563 
54400000    570.21093   -143820.55   -141462.05    3115.5689    360624.46    70.718043    71.410566    71.410566 
54500000    572.96295   -143805.57   -141435.69    3108.2061    360624.46    70.722202    71.408466    71.408466 
54600000    566.83314   -143802.07   -141457.53    3514.6229    360624.46    70.726561    71.406265    71.406265 
54700000    570.86759   -143799.29   -141438.07    3395.9592    360624.46    70.731119    71.403965    71.403965 
54800000    573.39153   -143819.14   -141447.48    2784.0328    360624.46    70.735873    71.401565    71.401565 
54900000    570.84958   -143788.52   -141427.37    2856.3545    360624.46    70.740821    71.399068    71.399068 
55000000    565.40351   -143822.01   -141483.39    2319.1742    360624.46    70.745962    71.396474    71.396474 
55100000    570.61478   -143808.23   -141448.06    2955.5718    360624.46    70.751292    71.393784    71.393784 
55200000    572.86593   -143791.91   -141422.42    3427.3905    360624.46     70.75681       71.391       71.391 
55300000    571.03649   -143820.67   -141458.76    2953.5359    360624.46    70.762514    71.388123    71.388123 
55400000    567.92648   -143809.49   -141460.44    2911.1079    360624.46      70.7684    71.385154    71.385154 
55500000    571.61976   -143784.51   -141420.18    3255.1824    360624.46    70.774466    71.382095    71.382095 
55600000    570.68511   -143793.76    -141433.3    3798.3195    360624.46    70.780709    71.378946    71.378946 
55700000    568.86233   -143834.45   -141481.53    2748.1369    360624.46    70.787128     71.37571     71.37571 
55800000    570.49045   -143786.94   -141427.28    3466.5807    360624.46    70.793718    71.372388    71.372388 
55900000    569.24337   -143798.69   -141444.19    3380.9534    360624.46    70.800477    71.368981    71.368981 
56000000    570.09161   -143790.74   -141432.73    3401.5591    360624.46    70.807402    71.365491    71.365491 
56100000    568.16306   -143781.92   -141431.89    3798.2082    360624.46     70.81449     71.36192     71.36192 
56200000    569.26292   -143818.74   -141464.16    3254.4197    360624.46    70.821738    71.358268    71.358268 
56300000     574.5709   -143798.93   -141422.39    3487.4318    360624.46    70.829143    71.354538    71.354538 
56400000    571.43988   -143804.37   -141440.78    3278.3245    360624.46    70.836701    71.350731    71.350731 
56500000    569.09441   -143803.68   -141449.79    3171.7454    360624.46    70.844409    71.346849    71.346849 
56600000    568.20151    -143812.5    -141462.3    2807.3077    360624.46    70.852264    71.342894    71.342894 
56700000    571.67991   -143791.56   -141426.98    3580.7514    360624.46    70.860262    71.338868    71.338868 
56800000    568.53575   -143806.99   -141455.41    3158.4226    360624.46    70.868401    71.334771    71.334771 
56900000    569.60797   -143826.31    -141470.3    2913.3733    360624.46    70.876675    71.330607    71.330607 
57000000     567.7782   -143807.95   -141459.51    2924.5213    360624.46    70.885082    71.326377    71.326377 
57100000    568.34385   -143794.96   -141444.18    3512.4871    360624.46    70.893618    71.322083    71.322083 
57200000     566.7183   -143798.57   -141454.52    3378.6001    360624.46    70.902279    71.317727    71.317727 
57300000    568.64862    -143789.8   -141437.76    3424.0229    360624.46    70.911061     71.31331     71.31331 
57400000    569.69879   -143768.89   -141412.51    3864.5922    360624.46    70.919961    71.308836    71.308836 
57500000    567.64228   -143797.93   -141450.05    3377.4681    360624.46    70.928974    71.304305    71.304305 
57600000    568.86715   -143788.98   -141436.03    3421.4306    360624.46    70.938098    71.299719    71.299719 
57700000    565.38624   -143803.59   -141465.05    3015.5704    360624.46    70.947326    71.295082    71.295082 
57800000    570.13467    -143803.6   -141445.41    2840.7611    360624.46    70.956657    71.290394    71.290394 
57900000    569.41358   -143793.61    -141438.4    3526.6714    360624.46    70.966085    71.285659    71.285659 
58000000     567.7808   -143804.29   -141455.83     3240.929    360624.46    70.975606    71.280877    71.280877 
58100000    575.89222    -143799.2    -141417.2      3344.92    360624.46    70.985217    71.276052    71.276052 
58200000    569.31303   -143792.42   -141437.63     3423.897    360624.46    70.994912    71.271184    71.271184 
58300000    573.21994   -143789.54   -141418.59    3568.1472    360624.46    71.004688    71.266278    71.266278 
58400000    572.54854   -143785.44   -141417.27    3932.7651    360624.46    71.014541    71.261334    71.261334 
58500000    574.71687   -143796.36   -141419.22    3356.9251    360624.46    71.024466    71.256355    71.256355 
58600000       566.81   -143813.37   -141468.94    2805.0547    360624.46    71.034459    71.251343    71.251343 
58700000    573.10499   -143755.56   -141385.09     4116.729    360624.46    71.044515      71.2463      71.2463 
58800000    573.12216   -143784.96   -141414.41    3481.4427    360624.46     71.05463    71.241229    71.241229 
58900000    567.85458   -143789.51   -141440.75    2933.8932    360624.46    71.064799    71.236131    71.236131 
59000000     566.0423   -143781.44   -141440.18    3589.1675    360624.46    71.075019    71.231009    71.231009 
59100000    569.07589   -143798.21    -141444.4    3298.9382    360624.46    71.085284    71.225866    71.225866 
59200000    570.21179   -143793.68   -141435.17    3419.8193    360624.46     71.09559    71.220703    71.220703 
59300000    566.64201   -143802.17   -141458.42    3509.9762    360624.46    71.105933    71.215523    71.215523 
59400000    571.13468   -143805.96   -141443.63    3614.5415    360624.46    71.116308    71.210328    71.210328 
59500000    572.08476   -143795.56   -141429.31    3389.4525    360624.46     71.12671    71.205121    71.205121 
59600000    570.70074   -143781.24   -141420.71    3268.2813    360624.46    71.137136    71.199903    71.199903 
59700000    572.72973   -143795.96   -141427.04    3320.8443    360624.46    71.147579    71.194677    71.194677 
59800000     574.0466   -143800.27    -141425.9    3532.6961    360624.46    71.158037    71.189446    71.189446 
59900000    569.99011   -143807.26   -141449.67    3277.6901    360624.46    71.168503    71.184211    71.184211 
60000000    568.08783   -143792.21   -141442.48    3199.4599    360624.46    71.178974    71.178974    71.178974 
60100000    570.25552   -143793.73   -141435.04     3365.485    360624.46    71.189446    71.173739    71.173739 
60200000    570.94232      -143793   -141431.47    3381.1462    360624.46    71.199912    71.168508    71.168508 
60300000     566.9542   -143769.69   -141424.66    3516.4371    360624.46     71.21037    71.163282    71.163282 
60400000    569.40277   -143783.27    -141428.1    3320.5397    360624.46    71.220813    71.158064    71.158064 
60500000    567.66871   -143804.41   -141456.43    2727.8348    360624.46    71.231239    71.152857    71.152857 
60600000    566.44877   -143796.43   -141453.48    3261.3929    360624.46    71.241641    71.147662    71.147662 
60700000    570.87547   -143797.82   -141436.56    2845.0948    360624.46    71.252016    71.142482    71.142482 
60800000     565.4095    -143803.1   -141464.45    2917.4663    360624.46    71.262359    71.137319    71.137319 
60900000    570.01795   -143824.96   -141467.26    2551.7829    360624.46    71.272665    71.132175    71.132175 
61000000    574.22818   -143790.19   -141415.07    3312.9037    360624.46     71.28293    71.127053    71.127053 
61100000    570.38753   -143816.71   -141457.48    3191.7573    360624.46     71.29315    71.121955    71.121955 
61200000    568.03088   -143831.69   -141482.21    2612.6153    360624.46    71.303319    71.116883    71.116883 
61300000    567.35424   -143792.83   -141446.14    3075.0097    360624.46    71.313434     71.11184     71.11184 
61400000    573.10286   -143809.57   -141439.11    3273.0564    360624.46     71.32349    71.106826    71.106826 
61500000    575.34317   -143811.54   -141431.81    3091.1845    360624.46    71.333483    71.101846    71.101846 
61600000    573.29432   -143806.13   -141434.87    3165.4566    360624.46    71.343408      71.0969      71.0969 
61700000    567.34046   -143810.49   -141463.86    3394.9433    360624.46     71.35326    71.091991    71.091991 
61800000    568.72587   -143819.54   -141467.18    2832.9293    360624.46    71.363037    71.087121    71.087121 
61900000    567.59795   -143802.93   -141455.23    3039.5172    360624.46    71.372732    71.082293    71.082293 
62000000    566.51365   -143786.39   -141443.18    3452.2851    360624.46    71.382343    71.077508    71.077508 
62100000    573.26878   -143784.44   -141413.29    3123.5833    360624.46    71.391864    71.072768    71.072768 
62200000    569.09624   -143808.82   -141454.93    2699.2634    360624.46    71.401292    71.068075    71.068075 
62300000    573.12809   -143795.26   -141424.69    2993.1505    360624.46    71.410622    71.063432    71.063432 
62400000    572.71472   -143798.33   -141429.47    3156.5661    360624.46    71.419851    71.058841    71.058841 
62500000    575.28411   -143804.86   -141425.37    2907.6801    360624.46    71.428974    71.054303    71.054303 
62600000    572.85239   -143787.96   -141418.53    3415.9392    360624.46    71.437988     71.04982     71.04982 
62700000     569.0524   -143791.02   -141437.31    3128.1779    360624.46    71.446888    71.045395    71.045395 
62800000    568.49935   -143819.69   -141468.26    3107.1806    360624.46     71.45567    71.041029    71.041029 
62900000    572.16456   -143816.11   -141449.53    2981.3141    360624.46    71.464331    71.036724    71.036724 
63000000    568.81956   -143786.31   -141433.56    3750.5986    360624.46    71.472867    71.032482    71.032482 
63100000    569.22851   -143817.37   -141462.93    2798.9463    360624.46    71.481274    71.028304    71.028304 
63200000    572.58947   -143799.95   -141431.61    3507.3895    360624.46    71.489548    71.024194    71.024194 
63300000    566.90279   -143804.25   -141459.43    3329.6853    360624.46    71.497686    71.020152    71.020152 
63400000    566.47073   -143824.32   -141481.29    2565.3539    360624.46    71.505685     71.01618     71.01618 
63500000    562.95276   -143812.78    -141484.3     2458.909    360624.46     71.51354    71.012279    71.012279 
63600000    572.39583   -143815.18   -141447.64    2963.0902    360624.46    71.521248    71.008452    71.008452 
63700000    569.54882   -143816.03   -141460.26    2937.5519    360624.46    71.528806    71.004701    71.004701 
63800000    569.02629   -143801.22   -141447.62    3407.8952    360624.46    71.536211    71.001026    71.001026 
63900000    571.28811   -143824.65   -141461.69    2608.6135    360624.46    71.543459    70.997429    70.997429 
64000000    566.45784   -143800.93   -141457.95    3294.0461    360624.46    71.550547    70.993912    70.993912 
64100000    567.74995   -143790.54   -141442.22    3103.9927    360624.46    71.557472    70.990477    70.990477 
64200000     574.1696   -143809.94   -141435.06    3137.3128    360624.46    71.564231    70.987125    70.987125 
64300000    570.21001   -143815.89   -141457.39    3252.5303    360624.46    71.570821    70.983856    70.983856 
64400000    570.66342   -143791.42   -141431.04    3456.1568    360624.46    71.577239    70.980674    70.980674 
64500000    565.14935   -143809.04   -141471.48    3523.9221    360624.46    71.583483    70.977578    70.977578 
64600000    569.11793   -143801.21   -141447.23    3163.1519    360624.46    71.589549    70.974571    70.974571 
64700000    567.05915   -143776.71   -141431.25    3377.0613    360624.46    71.595435    70.971653    70.971653 
64800000    568.40162   -143814.45   -141463.43    3108.4838    360624.46    71.601138    70.968827    70.968827 
64900000    568.05276   -143813.26   -141463.68    2558.6437    360624.46    71.606657    70.966092    70.966092 
65000000    567.25401   -143799.48    -141453.2    3287.0701    360624.46    71.611987    70.963451    70.963451 
65100000    568.77718   -143809.83   -141457.26    2523.0235    360624.46    71.617128    70.960904    70.960904 
65200000    569.18061   -143806.98   -141452.74    2924.0522    360624.46    71.622076    70.958453    70.958453 
65300000    570.66903   -143806.85   -141446.45    2712.2966    360624.46     71.62683    70.956098    70.956098 
65400000    571.18814   -143791.08   -141428.54    3393.2851    360624.46    71.631388     70.95384     70.95384 
65500000    575.69884   -143774.96   -141393.76    4013.5534    360624.46    71.635747    70.951681    70.951681 
65600000    569.97492   -143817.25   -141459.73    2886.1689    360624.46    71.639906    70.949622    70.949622 
65700000    568.20173   -143806.67   -141456.48    2726.1294    360624.46    71.643863    70.947663    70.947663 
65800000    571.19316   -143826.75   -141464.18     2859.783    360624.46    71.647615    70.945805    70.945805 
65900000      570.041   -143814.78   -141456.98    3192.1471    360624.46    71.651163    70.944049    70.944049 
66000000    568.40879    -143806.5   -141455.45    3107.5764    360624.46    71.654503    70.942395    70.942395 
66100000    568.36299   -143809.29   -141458.43    2532.0461    360624.46    71.657634    70.940845    70.940845 
66200000    571.03233   -143818.86   -141456.96     2625.899    360624.46    71.660556    70.939399    70.939399 
66300000    573.01448   -143813.24   -141443.14     3203.504    360624.46    71.663266    70.938057    70.938057 
66400000    572.87769   -143790.46   -141420.92    3055.0966    360624.46    71.665764    70.936821    70.936821 
66500000    567.77866   -143772.69   -141424.24     4006.046    360624.46    71.668048    70.935691    70.935691 
66600000    568.46805   -143824.59   -141473.29    2712.3516    360624.46    71.670118    70.934666    70.934666 
66700000     564.4534   -143810.57   -141475.88    3178.0186    360624.46    71.671972    70.933749    70.933749 
66800000    573.96535   -143822.68   -141448.64    2757.3854    360624.46    71.673611    70.932938    70.932938 
66900000    574.94417   -143828.01   -141449.93    3306.9688    360624.46    71.675032    70.932235    70.932235 
67000000    571.66168   -143804.88   -141440.38    3099.0082    360624.46    71.676235    70.931639    70.931639 
67100000    567.49459   -143808.14   -141460.87    3148.2676    360624.46    71.677221    70.931152    70.931152 
67200000     570.3431   -143797.65    -141438.6    3613.4677    360624.46    71.677988    70.930772    70.930772 
67300000    574.51065   -143806.77   -141430.48     3444.092    360624.46    71.678536    70.930501    70.930501 
67400000    567.89848   -143828.81   -141479.87    2490.8574    360624.46    71.678865    70.930338    70.930338 
67500000    571.40382   -143784.05   -141420.61    3340.5508    360624.46    71.678974    70.930284    70.930284 
67600000    575.82926   -143814.44    -141432.7    3179.4884    360624.46    71.678865    70.930338    70.930338 
67700000    570.36809    -143809.3   -141450.14    3027.9437    360624.46    71.678536    70.930501    70.930501 
67800000    568.21845   -143817.64   -141467.38    2572.2656    360624.46    71.677988    70.930772    70.930772 
67900000    569.89069   -143814.63   -141457.45    2692.3051    360624.46    71.677221    70.931152    70.931152 
68000000    570.15275   -143803.96   -141445.69    3118.2786    360624.46    71.676235    70.931639    70.931639 
68100000    574.51083   -143806.81   -141430.52    3017.8443    360624.46    71.675032    70.932235    70.932235 
68200000    566.28644   -143797.73   -141455.46    3357.7722    360624.46    71.673611    70.932938    70.932938 
68300000    564.50733   -143818.39   -141483.48    3163.1804    360624.46    71.671972    70.933749    70.933749 
68400000    568.76472   -143822.16   -141469.64    3073.7595    360624.46    71.670118    70.934666    70.934666 
68500000    565.63603    -143824.3   -141484.72    2627.8069    360624.46    71.668048    70.935691    70.935691 
68600000    565.28855   -143824.84   -141486.69     2746.305    360624.46    71.665764    70.936821    70.936821 
68700000    569.00824   -143803.28   -141449.75    2799.2503    360624.46    71.663266    70.938057    70.938057 
68800000    568.64902   -143829.24    -141477.2    2572.4979    360624.46    71.660556    70.939399    70.939399 
68900000    566.78573    -143811.9   -141467.57    3140.8575    360624.46    71.657634    70.940845    70.940845 
[...]
133400000    570.85541   -143787.86   -141426.69    3924.7359    360624.46    71.343408      71.0969      71.0969 
133500000    572.15825   -143804.35   -141437.79    3045.0932    360624.46    71.333483    71.101846    71.101846 
133600000    570.48183   -143797.36   -141437.74    3182.1339    360624.46     71.32349    71.106826    71.106826 
133700000    569.08259   -143789.02   -141435.18    3313.7001    360624.46    71.313434     71.11184     71.11184 
133800000    573.31399   -143779.72   -141408.38    3609.3142    360624.46    71.303319    71.116883    71.116883 
133900000    572.03982   -143806.07      -141440    3148.2834    360624.46     71.29315    71.121955    71.121955 
134000000    571.59915   -143792.92   -141428.68    3454.2516    360624.46     71.28293    71.127053    71.127053 
134100000    573.78212   -143804.18    -141430.9    3032.7747    360624.46    71.272665    71.132175    71.132175 
134200000    570.97562   -143824.41   -141462.75    2525.4036    360624.46    71.262359    71.137319    71.137319 
134300000    569.12879   -143773.72   -141419.69    3680.3398    360624.46    71.252016    71.142482    71.142482 
134400000    567.55598   -143782.37   -141434.85    3302.5041    360624.46    71.241641    71.147662    71.147662 
134500000    576.29194   -143793.06    -141409.4    3066.5814    360624.46    71.231239    71.152857    71.152857 
134600000    569.02422   -143807.48   -141453.88     2959.967    360624.46    71.220813    71.158064    71.158064 
134700000    567.98024   -143803.81   -141454.53    3327.4299    360624.46     71.21037    71.163282    71.163282 
134800000    572.82288   -143818.79   -141449.48    2875.4583    360624.46    71.199912    71.168508    71.168508 
134900000    569.11626    -143809.9   -141455.92    3119.9159    360624.46    71.189446    71.173739    71.173739 
135000000     571.7232   -143814.02   -141449.26    3229.0999    360624.46    71.178974    71.178974    71.178974 
135100000    573.32786   -143804.12   -141432.72     3453.258    360624.46    71.168503    71.184211    71.184211 
135200000     570.0554   -143762.44   -141404.58    4204.5796    360624.46    71.158037    71.189446    71.189446 
135300000    569.62381   -143787.15   -141431.07    3236.9242    360624.46    71.147579    71.194677    71.194677 
135400000    570.90036   -143810.89   -141449.53    2353.8784    360624.46    71.137136    71.199903    71.199903 
135500000     566.1427   -143806.58    -141464.9    2801.1554    360624.46     71.12671    71.205121    71.205121 
135600000    567.35758    -143800.3    -141453.6    2935.5769    360624.46    71.116308    71.210328    71.210328 
135700000     570.0929   -143793.93   -141435.92    3509.5191    360624.46    71.105933    71.215523    71.215523 
135800000    573.10677   -143800.69    -141430.2    3631.1896    360624.46     71.09559    71.220703    71.220703 
135900000     572.6468   -143798.05   -141429.48    3824.5596    360624.46    71.085284    71.225866    71.225866 
136000000    568.94175   -143806.17   -141452.92     2822.845    360624.46    71.075019    71.231009    71.231009 
136100000    572.89041   -143781.51   -141411.92    3171.1147    360624.46    71.064799    71.236131    71.236131 
136200000    571.67021   -143807.53   -141442.99    2922.5221    360624.46     71.05463    71.241229    71.241229 
136300000    569.37133   -143816.82   -141461.79    2880.3123    360624.46    71.044515      71.2463      71.2463 
136400000    567.94572   -143811.92   -141462.79         3136    360624.46    71.034459    71.251343    71.251343 
136500000    570.98686   -143816.09   -141454.37    2815.1172    360624.46    71.024466    71.256355    71.256355 
136600000     568.6252   -143809.58   -141457.63    2978.7612    360624.46    71.014541    71.261334    71.261334 
136700000     571.0992   -143804.19   -141442.01    2723.6811    360624.46    71.004688    71.266278    71.266278 
136800000    575.17988   -143808.86    -141429.8    3130.7564    360624.46    70.994912    71.271184    71.271184 
136900000    565.61106   -143807.22   -141467.74    2831.3326    360624.46    70.985217    71.276052    71.276052 
137000000    571.52292   -143794.37   -141430.44    3555.0667    360624.46    70.975606    71.280877    71.280877 
137100000    567.45008   -143765.95   -141418.86    3774.4583    360624.46    70.966085    71.285659    71.285659 
137200000     568.4828   -143768.38   -141417.03    3645.3872    360624.46    70.956657    71.290394    71.290394 
137300000    571.22113   -143813.73   -141451.05    2761.3466    360624.46    70.947326    71.295082    71.295082 
137400000    568.95479   -143776.48   -141423.17     3536.634    360624.46    70.938098    71.299719    71.299719 
137500000    571.64078   -143790.84   -141426.42     3673.419    360624.46    70.928974    71.304305    71.304305 
137600000     568.3271    -143810.5   -141459.79    3316.4418    360624.46    70.919961    71.308836    71.308836 
137700000    568.50047   -143790.05   -141438.62    2997.3583    360624.46    70.911061     71.31331     71.31331 
137800000    574.71115   -143809.37   -141432.25    2999.7659    360624.46    70.902279    71.317727    71.317727 
137900000    571.38487   -143809.47   -141446.11    3646.0129    360624.46    70.893618    71.322083    71.322083 
138000000    571.39069   -143795.95   -141432.56    3276.1434    360624.46    70.885082    71.326377    71.326377 
138100000     566.8275   -143784.57   -141440.06    3419.9833    360624.46    70.876675    71.330607    71.330607 
138200000    569.71752   -143797.78   -141441.32    3293.0363    360624.46    70.868401    71.334771    71.334771 
138300000    567.85228   -143776.66   -141427.91    3422.2446    360624.46    70.860262    71.338868    71.338868 
138400000    569.18442   -143798.63   -141444.37    2657.5061    360624.46    70.852264    71.342894    71.342894 
138500000    568.46515   -143802.02   -141450.74    3052.5971    360624.46    70.844409    71.346849    71.346849 
138600000    568.63483   -143815.27   -141463.29    3026.3397    360624.46    70.836701    71.350731    71.350731 
138700000    567.82542   -143827.41   -141478.78    2164.6324    360624.46    70.829143    71.354538    71.354538 
138800000     568.8948   -143823.98   -141470.92    2501.1548    360624.46    70.821738    71.358268    71.358268 
138900000    574.41735   -143780.84   -141404.93    3674.2403    360624.46     70.81449     71.36192     71.36192 
139000000    569.56556   -143803.03    -141447.2     3204.122    360624.46    70.807402    71.365491    71.365491 
139100000    573.00054   -143785.76   -141415.72    3798.4674    360624.46    70.800477    71.368981    71.368981 
139200000     572.1756   -143785.38   -141418.75    3552.5926    360624.46    70.793718    71.372388    71.372388 
139300000    570.10511   -143783.36   -141425.29    3972.6365    360624.46    70.787128     71.37571     71.37571 
139400000    564.80789   -143795.97   -141459.81    3913.7876    360624.46    70.780709    71.378946    71.378946 
139500000    566.49883    -143803.8   -141460.65    3142.8139    360624.46    70.774466    71.382095    71.382095 
139600000    569.94497   -143799.41      -141442    3359.6998    360624.46      70.7684    71.385154    71.385154 
139700000    569.76884   -143810.04   -141453.37    3129.6386    360624.46    70.762514    71.388123    71.388123 
139800000    569.58339   -143789.59   -141433.68    3809.9534    360624.46     70.75681       71.391       71.391 
139900000    571.34964   -143802.34   -141439.13    3442.5125    360624.46    70.751292    71.393784    71.393784 
140000000    565.49099   -143804.91   -141465.93     2952.192    360624.46    70.745962    71.396474    71.396474 
140100000    570.12883   -143817.52   -141459.36    3066.9071    360624.46    70.740821    71.399068    71.399068 
140200000    569.39908   -143782.05    -141426.9    3460.7579    360624.46    70.735873    71.401565    71.401565 
140300000    569.49621   -143781.11   -141425.57    3860.7646    360624.46    70.731119    71.403965    71.403965 
140400000     565.9667   -143780.68   -141439.73    3170.9525    360624.46    70.726561    71.406265    71.406265 
140500000    567.31598    -143791.1   -141444.57    3216.9478    360624.46    70.722202    71.408466    71.408466 
140600000    570.28993   -143790.29   -141431.46    2783.9034    360624.46    70.718043    71.410566    71.410566 
140700000    569.26816   -143776.57   -141421.97    3189.0067    360624.46    70.714086    71.412563    71.412563 
140800000    573.49429   -143806.08   -141433.99    3198.3366    360624.46    70.710333    71.414458    71.414458 
140900000    572.27406    -143767.4   -141400.37    3502.9451    360624.46    70.706786     71.41625     71.41625 
141000000    572.23295   -143814.12   -141447.25    3059.3123    360624.46    70.703446    71.417937    71.417937 
141100000     570.5314   -143808.96   -141449.13    2843.3194    360624.46    70.700315    71.419518    71.419518 
141200000      570.492   -143792.57   -141432.91    3129.0551    360624.46    70.697393    71.420994    71.420994 
141300000    569.48044   -143790.29   -141434.81    3072.6568    360624.46    70.694683    71.422363    71.422363 
141400000    568.74033   -143792.95   -141440.53    3070.8423    360624.46    70.692185    71.423625    71.423625 
141500000    568.27231   -143815.84   -141465.36    2950.0879    360624.46    70.689901    71.424779    71.424779 
141600000    565.38306   -143802.98   -141464.45    3497.1751    360624.46    70.687831    71.425824    71.425824 
141700000    570.82003   -143808.86   -141447.84    2945.1309    360624.46    70.685976    71.426761    71.426761 
141800000    569.29931   -143798.57   -141443.83    2611.0407    360624.46    70.684338    71.427589    71.427589 
141900000    573.26854   -143793.47   -141422.32    3349.7844    360624.46    70.682917    71.428307    71.428307 
142000000    569.11824   -143810.31   -141456.33    2858.2228    360624.46    70.681714    71.428915    71.428915 
142100000    571.09933   -143807.16   -141444.98    3030.5203    360624.46    70.680728    71.429413    71.429413 
142200000    562.73614   -143821.55   -141493.97    2830.8976    360624.46    70.679961    71.429801    71.429801 
142300000    573.05308   -143809.62   -141439.36    3218.5964    360624.46    70.679413    71.430078    71.430078 
142400000    566.88146   -143792.73      -141448    3194.7298    360624.46    70.679084    71.430244    71.430244 
142500000    568.98862   -143794.96   -141441.51    3261.1901    360624.46    70.678974    71.430299    71.430299 
142600000    571.41217   -143820.32   -141456.85    3357.3227    360624.46    70.679084    71.430244    71.430244 
142700000    568.53071   -143811.75   -141460.19    2770.6526    360624.46    70.679413    71.430078    71.430078 
142800000    563.87692   -143795.44   -141463.13    3245.7534    360624.46    70.679961    71.429801    71.429801 
142900000    571.81998   -143796.28   -141431.12    2865.9884    360624.46    70.680728    71.429413    71.429413 
143000000    569.58945   -143819.52   -141463.58    3026.0887    360624.46    70.681714    71.428915    71.428915 
143100000    571.80606   -143790.54   -141425.44    3743.5945    360624.46    70.682917    71.428307    71.428307 
143200000    568.40224   -143800.88   -141449.86     3593.689    360624.46    70.684338    71.427589    71.427589 
143300000    564.04042   -143830.88    -141497.9    2425.5449    360624.46    70.685976    71.426761    71.426761 
143400000     566.7245   -143815.85   -141471.77    2758.0285    360624.46    70.687831    71.425824    71.425824 
143500000    568.81363    -143811.4   -141458.68    3095.3666    360624.46    70.689901    71.424779    71.424779 
143600000    570.55497    -143805.2   -141445.27    3235.4446    360624.46    70.692185    71.423625    71.423625 
143700000     569.3574   -143798.87   -141443.89    3115.5508    360624.46    70.694683    71.422363    71.422363 
143800000    566.18977   -143824.62   -141482.75    2954.9041    360624.46    70.697393    71.420994    71.420994 
143900000    567.69576   -143813.59   -141465.49    2927.9144    360624.46    70.700315    71.419518    71.419518 
144000000    572.77288   -143812.21   -141443.11     3132.719    360624.46    70.703446    71.417937    71.417937 
144100000    566.33333   -143807.04   -141464.57    3448.4147    360624.46    70.706786     71.41625     71.41625 
144200000    573.64238   -143805.21   -141432.51    3861.2012    360624.46    70.710333    71.414458    71.414458 
144300000    569.16354   -143802.47    -141448.3    3210.5697    360624.46    70.714086    71.412563    71.412563 
144400000    568.30219   -143795.49   -141444.89    3447.4166    360624.46    70.718043    71.410566    71.410566 
144500000    569.18704   -143776.98   -141422.72    3528.9143    360624.46    70.722202    71.408466    71.408466 
144600000    568.75845   -143791.11   -141438.62    3193.7943    360624.46    70.726561    71.406265    71.406265 
144700000    576.20862   -143811.09   -141427.77    2884.8257    360624.46    70.731119    71.403965    71.403965 
144800000    567.24252   -143819.55   -141473.32     2750.613    360624.46    70.735873    71.401565    71.401565 
144900000    567.79862   -143825.94   -141477.42      2609.03    360624.46    70.740821    71.399068    71.399068 
145000000    564.55267   -143797.06   -141461.96    3037.4571    360624.46    70.745962    71.396474    71.396474 
145100000    567.16438   -143825.06   -141479.16    2208.7499    360624.46    70.751292    71.393784    71.393784 
145200000    571.81564   -143801.64    -141436.5    3248.9403    360624.46     70.75681       71.391       71.391 
145300000    570.09475   -143803.75   -141445.73    3050.5521    360624.46    70.762514    71.388123    71.388123 
145400000    572.83601   -143851.27   -141481.91    2309.5922    360624.46      70.7684    71.385154    71.385154 
145500000    566.65139   -143809.49   -141465.71    3040.4548    360624.46    70.774466    71.382095    71.382095 
145600000    567.58481    -143794.9   -141447.25    3746.7588    360624.46    70.780709    71.378946    71.378946 
145700000      569.002   -143821.63   -141468.12     2418.774    360624.46    70.787128     71.37571     71.37571 
145800000    569.37587   -143811.61   -141456.56    2862.3476    360624.46    70.793718    71.372388    71.372388 
145900000    567.09941   -143807.41   -141461.77    3185.3676    360624.46    70.800477    71.368981    71.368981 
146000000    565.03457   -143821.47   -141484.38    2750.6829    360624.46    70.807402    71.365491    71.365491 
146100000    565.84015   -143773.77   -141433.35    3402.3111    360624.46     70.81449     71.36192     71.36192 
146200000    571.39394   -143797.74   -141434.34    2985.5268    360624.46    70.821738    71.358268    71.358268 
146300000     569.2164   -143811.77   -141457.38    2956.5864    360624.46    70.829143    71.354538    71.354538 
146400000    572.70406    -143792.3   -141423.48    3601.9029    360624.46    70.836701    71.350731    71.350731 
146500000    571.43209   -143803.26   -141439.71     3201.043    360624.46    70.844409    71.346849    71.346849 
146600000    570.50862   -143836.72   -141476.99    2747.4792    360624.46    70.852264    71.342894    71.342894 
146700000    572.47478   -143796.02   -141428.16    3008.7047    360624.46    70.860262    71.338868    71.338868 
146800000    571.82406   -143793.73   -141428.56    3474.9762    360624.46    70.868401    71.334771    71.334771 
146900000    569.40014   -143785.88   -141430.73     3048.157    360624.46    70.876675    71.330607    71.330607 
147000000    567.38884   -143811.22   -141464.39    2952.8015    360624.46    70.885082    71.326377    71.326377 
147100000    570.72024   -143820.48   -141459.87    2826.4216    360624.46    70.893618    71.322083    71.322083 
147200000    569.06086   -143802.88   -141449.14    2886.9549    360624.46    70.902279    71.317727    71.317727 
147300000    572.99652   -143787.04   -141417.01    3579.9899    360624.46    70.911061     71.31331     71.31331 
147400000    573.79625   -143787.54   -141414.21    3318.4869    360624.46    70.919961    71.308836    71.308836 
147500000    570.25227   -143781.61   -141422.93    3224.5395    360624.46    70.928974    71.304305    71.304305 
147600000    567.92275    -143794.9   -141445.86    3173.7563    360624.46    70.938098    71.299719    71.299719 
147700000     569.7227   -143757.55   -141401.07    3817.9219    360624.46    70.947326    71.295082    71.295082 
147800000    571.84227   -143788.37   -141423.12    3792.9384    360624.46    70.956657    71.290394    71.290394 
147900000     572.2479   -143810.57   -141443.64    2985.3361    360624.46    70.966085    71.285659    71.285659 
148000000    568.74086   -143818.98   -141466.56     2628.433    360624.46    70.975606    71.280877    71.280877 
148100000     570.2071   -143793.31   -141434.82    3245.2498    360624.46    70.985217    71.276052    71.276052 
148200000    568.81287   -143795.99   -141443.27    3236.1885    360624.46    70.994912    71.271184    71.271184 
148300000    571.76573   -143817.49   -141452.55    3090.1488    360624.46    71.004688    71.266278    71.266278 
148400000    568.80378   -143772.74   -141420.05    3604.5504    360624.46    71.014541    71.261334    71.261334 
148500000     568.6901   -143820.23   -141468.01    2824.0615    360624.46    71.024466    71.256355    71.256355 
148600000    571.38333   -143820.27   -141456.92     2762.639    360624.46    71.034459    71.251343    71.251343 
148700000    566.26743   -143823.94   -141481.75    3150.7124    360624.46    71.044515      71.2463      71.2463 
148800000    573.01646   -143777.53   -141407.42    3713.4785    360624.46     71.05463    71.241229    71.241229 
148900000    570.96335   -143816.12    -141454.5    3036.2341    360624.46    71.064799    71.236131    71.236131 
149000000    570.23055   -143803.49    -141444.9    3257.9197    360624.46    71.075019    71.231009    71.231009 
149100000     570.1569   -143823.32   -141465.04    2623.0678    360624.46    71.085284    71.225866    71.225866 
149200000    569.05856   -143789.34    -141435.6     3549.313    360624.46     71.09559    71.220703    71.220703 
149300000    570.08562   -143772.55   -141414.56    3675.0456    360624.46    71.105933    71.215523    71.215523 
149400000    565.56289   -143787.47   -141448.19    3671.9067    360624.46    71.116308    71.210328    71.210328 
149500000     562.9032   -143776.54   -141448.26    3796.0047    360624.46     71.12671    71.205121    71.205121 
149600000    571.47426   -143799.18   -141435.45    3521.0901    360624.46    71.137136    71.199903    71.199903 
149700000    568.23398   -143798.67   -141448.34    3263.1519    360624.46    71.147579    71.194677    71.194677 
149800000    569.07697   -143797.24   -141443.42    3330.4708    360624.46    71.158037    71.189446    71.189446 
149900000    568.64544   -143773.57   -141421.54    3633.8552    360624.46    71.168503    71.184211    71.184211 
150000000    570.61471   -143785.19   -141425.02    3549.8271    360624.46    71.178974    71.178974    71.178974 
Loop time of 323911 on 120 procs (120 MPI x 1 OpenMP) for 150000000 steps with 32000 atoms

Pair  time (%) = 239138 (73.8285)
Neigh time (%) = 17798.6 (5.4949)
Comm  time (%) = 51256.8 (15.8244)
Outpt time (%) = 0.696877 (0.000215145)
Other time (%) = 15716.1 (4.85199)

Nlocal:    266.667 ave 279 max 252 min
Histogram: 1 1 7 6 37 27 18 16 2 5
Nghost:    2516.2 ave 2546 max 2494 min
Histogram: 9 10 8 24 27 19 11 8 2 2
Neighs:    30400.8 ave 32782 max 27631 min
Histogram: 1 3 6 18 18 26 27 15 4 2

Total # of neighbors = 3648096
Ave neighs/atom = 114.003
Neighbor list builds = 16329669
Dangerous builds = 5079
write_restart  dms300ns_570-10c.rst
clear
WARNING: OMP_NUM_THREADS environment is not set. (../comm.cpp:89)
  using 1 OpenMP thread(s) per MPI task
#jump YDMA590-300ns.lmp
