ITEM: TIMESTEP
0
ITEM: NUMBER OF ATOMS
7200
ITEM: BOX BOUNDS xy xz yz pp pp pp
0.0000000000000000e+00 7.7459666924100006e+01 0.0000000000000000e+00
0.0000000000000000e+00 7.7459666924100006e+01 0.0000000000000000e+00
-1.2909944490000000e-01 1.2909944490000000e-01 0.0000000000000000e+00
ITEM: ATOMS id type x y z
1 1 12.6933 19.9986 0
2 1 14.8082 63.6861 0
3 1 75.9763 71.6824 0
4 1 19.9409 8.29723 0
5 1 34.6843 56.6315 0
6 1 57.3502 27.1644 0
7 2 2.53043 4.10443 0
8 2 64.3245 46.4153 0
9 1 41.3009 56.6078 0
10 2 19.6279 14.5578 0
11 2 25.7808 52.1429 0
12 1 54.8088 11.738 0
13 2 24.3519 5.68659 0
14 1 46.7414 70.1371 0
15 1 39.6128 31.6278 0
16 1 18.8377 14.8857 0
17 1 31.1229 40.8798 0
18 1 34.3262 6.01577 0
19 1 27.0478 57.6394 0
20 2 44.5953 3.96025 0
21 1 12.088 65.5626 0
22 1 53.8543 11.2638 0
23 1 75.2741 45.483 0
24 1 56.0444 67.5686 0
25 1 6.60425 70.2486 0
26 1 20.8688 67.353 0
27 2 28.9233 63.724 0
28 1 51.3319 74.3617 0
29 2 24.2295 46.5392 0
30 2 24.6906 30.5874 0
31 1 15.2879 53.1315 0
32 1 50.8666 38.3012 0
33 1 60.7339 48.227 0
34 2 44.988 9.85497 0
35 1 75.6258 62.7943 0
36 1 30.8198 60.529 0
37 1 22.1451 61.1979 0
38 1 47.1116 20.1577 0
39 1 22.5267 5.55386 0
40 2 24.927 59.0178 0
41 2 18.3846 64.3906 0
42 1 20.528 1.01264 0
43 1 18.2881 34.4068 0
44 1 34.9351 63.3661 0
45 1 3.09056 33.5098 0
46 1 68.9102 7.67736 0
47 1 73.9836 58.0982 0
48 1 43.7993 67.5584 0
49 2 77.241 3.90173 0
50 1 30.6267 67.0696 0
51 1 1.5202 9.94736 0
52 2 32.9606 24.3837 0
53 1 53.6978 18.83 0
54 1 49.6444 30.4546 0
55 1 9.46093 0.810202 0
56 1 46.2027 26.442 0
57 1 67.8035 42.9701 0
58 1 70.2902 69.2134 0
59 1 33.4681 2.21139 0
60 1 28.1674 2.02223 0
61 1 40.5589 75.7289 0
62 1 51.7855 45.2115 0
63 1 56.947 10.6123 0
64 1 50.4323 46.5212 0
65 1 67.3119 74.1966 0
66 2 55.574 11.2433 0
67 2 41.0226 36.2328 0
68 2 0.192906 29.268 0
69 1 61.7754 44.9462 0
70 1 8.15875 35.3037 0
71 2 7.29846 42.194 0
72 1 0.587845 4.17105 0
73 1 6.19429 63.7985 0
74 2 41.5347 23.1097 0
75 1 74.9449 53.1115 0
76 1 20.5142 46.9692 0
77 1 24.574 74.375 0
78 1 5.41347 15.6396 0
79 1 11.9477 72.8111 0
80 1 43.6447 17.2132 0
81 1 54.6945 62.8983 0
82 2 44.5403 17.0913 0
83 1 6.0092 32.598 0
84 1 32.7825 45.9487 0
85 1 34.5078 20.235 0
86 2 34.4964 64.9524 0
87 1 71.5043 34.3926 0
88 1 18.5619 54.5663 0
89 1 27.3952 12.5751 0
90 1 37.7448 38.1467 0
91 2 45.1753 41.6341 0
92 2 40.5037 56.8904 0
93 1 27.5016 16.877 0
94 1 33.6953 56.3077 0
95 2 39.4737 55.6716 0
96 1 63.2241 2.33833 0
97 1 43.0783 48.9993 0
98 2 1.87348 59.3863 0
99 1 61.7193 47.9988 0
100 2 32.6431 31.1243 0
101 1 46.7538 55.0523 0
102 1 57.0729 21.0819 0
103 1 57.6588 70.8243 0
104 1 2.57494 59.8988 0
105 2 40.6755 3.60657 0
106 2 29.8808 34.1953 0
107 1 13.1125 31.3075 0
108 1 0.346636 1.15871 0
109 1 35.674 41.7881 0
110 2 64.7079 27.3789 0
111 1 66.2537 12.0507 0
112 1 34.5688 73.4904 0
113 2 77.2582 59.8892 0
114 2 74.2218 28.5939 0
115 2 30.2745 12.8392 0
116 2 74.0607 52.8609 0
117 1 16.0978 45.7202 0
118 2 47.0657 26.6768 0
119 1 61.4294 76.4141 0
120 2 5.90891 49.5315 0
121 1 5.84103 3.48954 0
122 1 20.3707 33.4286 0
123 2 5.81623 17.5252 0
124 1 46.8484 58.0192 0
125 1 31.8497 27.8154 0
126 1 57.8635 51.8518 0
127 1 4.27065 58.7478 0
128 1 14.9314 23.3579 0
129 1 16.6342 52.0819 0
130 1 7.05744 2.21568 0
131 1 61.2565 24.0147 0
132 2 31.7499 41.4934 0
133 2 52.4823 6.8497 0
134 1 65.0777 50.9489 0
135 1 31.7806 30.6799 0
136 2 53.4024 47.7974 0
137 1 61.3731 56.6716 0
138 2 70.1117 47.7441 0
139 1 66.7417 27.6973 0
140 1 3.8718 21.7622 0
141 2 48.2134 64.3799 0
142 1 6.99503 22.5006 0
143 2 39.7426 70.8999 0
144 2 47.2112 75.3399 0
145 2 18.4156 52.7255 0
146 1 55.6895 4.48247 0
147 1 9.13316 38.7949 0
148 1 45.986 54.0436 0
149 2 68.8195 48.7327 0
150 1 32.9012 56.9259 0
151 2 29.5907 13.8868 0
152 1 48.5045 63.6054 0
153 2 17.3409 46.0699 0
154 2 33.7674 73.0813 0
155 1 69.9787 48.6899 0
156 1 43.1539 10.0391 0
157 1 49.3068 71.1875 0
158 1 60.1968 69.2652 0
159 2 10.8087 25.8268 0
160 1 38.1964 17.5337 0
161 1 7.06661 63.0428 0
162 2 74.4863 24.3744 0
163 1 30.888 27.4106 0
164 1 60.908 29.3463 0
165 1 72.1274 28.4315 0
166 1 1.4843 44.371 0
167 1 39.2259 0.619666 0
168 1 38.6369 73.7376 0
169 1 56.5175 30.9545 0
170 1 57.0937 2.49251 0
171 2 36.1 61.4864 0
172 2 34.4652 53.0957 0
173 2 43.9261 24.5302 0
174 2 27.3599 55.7458 0
175 2 31.6465 26.9588 0
176 1 46.424 16.7468 0
177 1 19.9086 58.2393 0
178 1 61.9959 61.6041 0
179 1 65.0363 25.4714 0
180 2 33.6662 38.9825 0
181 1 45.5073 28.0191 0
182 1 61.4381 58.8163 0
183 2 12.282 37.2398 0
184 1 4.92941 67.0878 0
185 2 67.3227 29.661 0
186 1 58.9547 35.0364 0
187 1 39.1368 46.8668 0
188 1 57.22 47.3396 0
189 2 62.8767 52.9106 0
190 1 22.8271 3.95074 0
191 1 71.5357 7.02988 0
192 1 65.6668 10.4378 0
193 2 10.6485 41.5468 0
194 2 69.3934 69.0487 0
195 1 10.8097 3.14333 0
196 2 49.4903 54.8421 0
197 2 20.547 9.81052 0
198 1 13.2942 60.8158 0
199 2 74.5921 66.1257 0
200 1 59.6484 28.6319 0
201 2 34.0052 1.47102 0
202 2 74.4224 54.663 0
203 1 52.3642 65.797 0
204 1 29.368 4.34808 0
205 1 54.5806 25.1779 0
206 2 35.9941 37.3598 0
207 2 13.5155 7.76669 0
208 1 33.7701 14.0309 0
209 1 12.1881 11.5736 0
210 2 5.85882 20.152 0
211 1 16.9673 7.9658 0
212 2 25.5679 6.39161 0
213 2 55.3903 27.504 0
214 1 71.1549 57.4648 0
215 2 67.1931 20.9075 0
216 1 20.4687 73.3474 0
217 1 59.4697 34.0075 0
218 2 56.39 57.8165 0
219 2 67.9365 42.1209 0
220 2 42.6684 64.1218 0
221 1 18.8107 44.6828 0
222 1 45.4439 13.0716 0
223 2 38.4718 67.1753 0
224 2 27.294 68.6539 0
225 1 32.6124 23.5522 0
226 2 67.0293 57.1383 0
227 2 6.95769 14.9625 0
228 1 35.1467 9.51126 0
229 1 69.7196 26.699 0
230 1 33.6028 73.9094 0
231 1 10.6301 34.3035 0
232 1 42.5664 12.6838 0
233 1 34.4278 7.70124 0
234 1 75.3428 8.01837 0
235 1 60.3684 59.2566 0
236 2 44.6665 70.3817 0
237 1 0.483253 61.3844 0
238 2 9.63625 21.2807 0
239 1 58.4852 4.83232 0
240 2 61.4462 46.0377 0
241 1 47.3099 66.7109 0
242 1 18.0938 30.0721 0
243 1 7.01547 56.0127 0
244 1 61.1347 64.597 0
245 1 10.9963 30.6979 0
246 1 1.81998 35.2308 0
247 1 64.977 49.9071 0
248 1 12.1193 0.3629 0
249 2 50.2578 41.4448 0
250 1 29.3108 10.9194 0
251 2 57.553 49.8968 0
252 2 67.0391 24.1839 0
253 1 20.2419 17.4608 0
254 1 54.7489 24.0737 0
255 1 65.5487 42.7234 0
256 1 33.291 6.32087 0
257 1 22.5149 57.6114 0
258 1 26.2974 37.6733 0
259 1 55.5686 56.2377 0
260 2 44.006 53.8236 0
261 2 26.5345 62.6365 0
262 1 24.4735 33.0609 0
263 2 12.9961 34.1729 0
264 2 71.8216 59.364 0
265 1 76.6544 46.4537 0
266 1 37.8517 44.9595 0
267 2 60.3656 23.9891 0
268 2 56.4644 45.5641 0
269 1 48.2188 21.0976 0
270 2 8.86931 47.0067 0
271 2 23.082 35.2986 0
272 2 21.0514 14.0508 0
273 1 14.8583 64.7528 0
274 1 32.3956 49.5353 0
275 1 8.43202 49.0311 0
276 1 75.1496 10.3072 0
277 2 15.3691 71.0468 0
278 1 7.88128 17.3492 0
279 1 4.2152 44.2486 0
280 1 20.3907 36.1636 0
281 1 30.5939 37.9967 0
282 2 75.9321 28.9975 0
283 1 76.3948 55.1404 0
284 2 54.1584 38.4084 0
285 1 70.4047 53.1186 0
286 1 11.2407 63.0108 0
287 1 18.814 76.4477 0
288 2 75.5891 4.84052 0
289 2 21.3609 38.9112 0
290 2 67.3568 76.634 0
291 1 34.2499 22.1763 0
292 1 27.665 58.4576 0
293 1 46.7363 19.1454 0
294 1 40.034 2.19279 0
295 1 69.5271 3.4255 0
296 2 73.1464 9.11696 0
297 1 41.7058 59.5152 0
298 1 72.5464 34.8458 0
299 2 49.7561 36.4508 0
300 1 39.1379 44.0678 0
301 1 73.4902 19.5454 0
302 1 50.7654 35.162 0
303 1 20.4844 31.1907 0
304 1 61.422 70.4729 0
305 2 57.9392 77.0683 0
306 1 62.2612 52.344 0
307 2 73.1349 38.4624 0
308 1 41.3176 5.2233 0
309 2 24.7742 17.2928 0
310 2 14.0823 13.1093 0
311 1 29.5039 49.9225 0
312 1 67.2916 61.6766 0
313 1 74.0872 0.300657 0
314 1 40.234 46.3486 0
315 2 56.0627 31.8061 0
316 2 39.4823 63.7308 0
317 1 51.392 21.1183 0
318 2 7.52724 30.06 0
319 1 31.383 26.1296 0
320 1 36.2939 62.4214 0
321 1 58.4376 68.9377 0
322 2 73.989 11.5179 0
323 2 24.9714 63.311 0
324 1 63.9372 41.7467 0
325 1 41.0572 6.1971 0
326 1 9.66545 58.5589 0
327 1 49.5657 57.4173 0
328 1 0.541076 36.857 0
329 1 41.5651 43.164 0
330 2 51.6872 35.0891 0
331 2 69.5242 2.54754 0
332 1 59.1328 29.6141 0
333 1 37.6842 12.3642 0
334 1 17.6441 36.1117 0
335 1 20.5758 38.5259 0
336 2 71.6331 75.9802 0
337 1 34.9425 34.0186 0
338 2 16.8282 1.22027 0
339 1 41.73 68.6753 0
340 1 18.9638 57.7624 0
341 2 73.6556 44.0541 0
342 1 67.0289 6.05371 0
343 2 56.3478 49.5226 0
344 2 22.6358 65.7974 0
345 1 8.17833 27.5755 0
346 1 17.2403 71.5485 0
347 1 36.1233 57.1773 0
348 1 58.6258 18.175 0
349 1 33.4779 20.6377 0
350 1 37.4404 31.5667 0
351 1 18.1198 53.6619 0
352 1 48.0045 31.0055 0
353 1 74.4743 27.7954 0
354 2 23.4388 26.0371 0
355 2 43.432 18.0268 0
356 2 11.5527 2.66601 0
357 1 68.9727 67.4795 0
358 1 24.3188 2.46774 0
359 1 22.997 13.5073 0
360 2 45.2693 31.2571 0
361 2 48.815 68.1323 0
362 1 27.3499 74.4123 0
363 2 36.9784 74.8202 0
364 1 13.0508 66.0302 0
365 2 8.72189 56.821 0
366 1 24.1978 50.4212 0
367 2 20.2127 23.4082 0
368 2 51.4496 54.4628 0
369 2 65.8054 70.9639 0
370 1 3.2555 27.5115 0
371 1 46.0972 73.4352 0
372 2 39.6571 9.52031 0
373 1 10.6637 31.6802 0
374 2 66.4879 41.2901 0
375 1 51.9505 53.8005 0
376 2 75.1444 42.984 0
377 2 58.1901 37.6926 0
378 1 20.3708 63.4829 0
379 1 14.4084 20.254 0
380 1 9.66927 62.1072 0
381 1 27.2897 23.417 0
382 1 30.916 24.0266 0
383 1 9.52322 11.3051 0
384 1 34.9345 52.3883 0
385 1 27.6149 77.1592 0
386 1 54.7631 40.2142 0
387 1 58.8188 77.1999 0
388 2 56.2604 56.7952 0
389 1 24.5392 56.4328 0
390 1 28.6879 13.8156 0
391 2 60.5412 25.835 0
392 2 30.4211 9.48328 0
393 2 38.6916 65.3875 0
394 1 10.2086 73.4303 0
395 1 53.4938 21.7737 0
396 1 13.5184 70.1167 0
397 1 47.026 17.7867 0
398 1 45.4647 70.9378 0
399 1 70.8923 18.5221 0
400 1 57.9593 75.1908 0
401 1 45.0487 11.8328 0
402 2 56.7602 15.0747 0
403 1 38.1046 51.9831 0
404 1 70.224 70.8835 0
405 2 72.8636 75.3452 0
406 1 34.2465 19.238 0
407 2 45.2404 21.2133 0
408 1 63.0476 30.0366 0
409 1 19.0233 60.5859 0
410 2 67.1231 16.4242 0
411 2 66.6389 36.3616 0
412 1 59.0339 38.2078 0
413 1 6.84663 36.4213 0
414 1 70.9023 48.1532 0
415 1 6.93485 41.4172 0
416 2 73.9181 61.9946 0
417 2 75.1173 12.4613 0
418 1 54.0379 29.9456 0
419 2 56.4752 46.8361 0
420 2 24.9299 55.638 0
421 1 61.6423 19.0464 0
422 1 1.60348 70.0528 0
423 1 4.39919 11.2114 0
424 1 61.3386 25.6799 0
425 1 58.6573 50.2818 0
426 1 56.0726 74.3487 0
427 2 39.6691 15.4073 0
428 1 50.6814 51.7334 0
429 1 60.5185 70.9087 0
430 1 36.8683 37.3931 0
431 1 1.70602 31.6792 0
432 1 63.3951 49.1222 0
433 1 28.999 68.9391 0
434 1 1.51548 42.566 0
435 1 63.9985 34.0496 0
436 2 67.5786 38.8377 0
437 2 44.6702 60.0111 0
438 1 39.377 62.8363 0
439 2 43.1739 12.0009 0
440 1 43.4139 44.2907 0
441 2 68.365 13.993 0
442 1 9.28927 37.7414 0
443 1 55.8157 16.8928 0
444 1 16.3727 74.9724 0
445 2 69.8873 67.3126 0
446 1 61.2213 41.9831 0
447 1 26.6721 70.617 0
448 1 46.6463 38.038 0
449 1 36.9262 73.3912 0
450 2 47.9611 60.5821 0
451 2 6.33764 61.2151 0
452 1 66.6762 10.742 0
453 1 27.3702 76.1073 0
454 2 62.8252 29.2173 0
455 2 26.118 67.7666 0
456 1 11.233 44.4784 0
457 2 18.4682 1.61772 0
458 1 38.5391 77.2533 0
459 2 15.6388 56.5333 0
460 1 5.6552 4.51117 0
461 2 28.3838 29.4264 0
462 1 45.8471 24.6498 0
463 1 76.1511 69.9805 0
464 1 9.09731 47.8389 0
465 2 40.3758 45.4906 0
466 1 22.135 12.5844 0
467 2 11.2654 1.09535 0
468 1 19.2491 36.5371 0
469 1 1.3795 1.5261 0
470 1 62.0033 10.7153 0
471 2 73.55 40.7282 0
472 1 24.9965 43.0203 0
473 1 61.8222 66.1177 0
474 1 33.5811 55.2442 0
475 1 22.5527 59.5654 0
476 2 39.1626 32.4154 0
477 1 59.3793 11.1672 0
478 2 33.2759 74.7279 0
479 1 33.3497 22.7939 0
480 1 20.1549 25.475 0
481 1 7.66139 18.344 0
482 1 11.2743 24.9951 0
483 2 0.606132 2.04389 0
484 1 13.9951 37.6706 0
485 1 21.5494 56.8944 0
486 1 7.10861 4.71724 0
487 2 69.8403 9.96641 0
488 1 59.2453 6.99299 0
489 1 52.825 16.0056 0
490 1 35.6852 31.4877 0
491 1 30.9691 41.9078 0
492 2 61.0976 10.4219 0
493 1 71.7615 8.12507 0
494 1 67.6988 31.5015 0
495 2 22.0357 48.9152 0
496 2 52.7864 42.4145 0
497 2 42.1824 7.36731 0
498 1 24.2534 25.5612 0
499 1 36.866 76.872 0
500 1 3.12861 3.42102 0
501 2 45.5361 43.9891 0
502 1 17.1381 24.7368 0
503 1 50.1498 9.80562 0
504 1 37.2846 33.0779 0
505 2 24.7245 76.8824 0
506 2 17.3578 64.9531 0
507 1 42.135 37.8004 0
508 1 13.2851 32.3197 0
509 1 29.5958 25.0708 0
510 1 6.79854 38.6789 0
511 1 68.2019 26.1974 0
512 1 54.5622 53.5594 0
513 1 12.2458 33.6328 0
514 1 25.1629 64.1364 0
515 2 61.4649 11.3563 0
516 2 11.1744 38.4397 0
517 2 74.6343 74.734 0
518 2 19.2685 54.1313 0
519 2 32.6669 1.94886 0
520 1 74.3151 36.8619 0
521 1 42.159 24.9611 0
522 2 24.1832 65.9135 0
523 1 77.1789 11.9353 0
524 1 69.8228 34.7768 0
525 1 22.3454 77.4134 0
526 2 0.596054 21.5714 0
527 1 49.5607 25.7902 0
528 2 74.2049 3.78206 0
529 2 34.3341 46.2121 0
530 1 7.91393 59.1555 0
531 2 74.4813 70.3069 0
532 2 32.9972 61.7369 0
533 1 72.3643 5.62874 0
534 1 34.4755 26.7987 0
535 1 29.2477 18.9125 0
536 1 32.3212 66.1893 0
537 1 34.839 48.2064 0
538 2 16.9902 21.5665 0
539 2 46.3175 76.8369 0
540 1 60.5871 40.3432 0
541 2 26.3508 8.88713 0
542 1 51.4927 58.0125 0
543 2 69.3885 55.6563 0
544 2 52.0447 10.734 0
545 1 28.9852 23.5129 0
546 1 34.6499 3.49602 0
547 1 10.5414 14.0742 0
548 2 22.581 3.07624 0
549 2 65.6947 23.7412 0
550 2 5.03481 39.231 0
551 1 30.0746 8.66017 0
552 2 70.1994 39.8911 0
553 2 29.0119 45.3837 0
554 1 52.429 62.5349 0
555 1 50.7457 57.0308 0
556 1 72.3722 67.3778 0
557 1 62.1367 53.4038 0
558 1 2.4382 68.4269 0
559 1 72.3833 35.9043 0
560 2 20.7167 60.4554 0
561 1 5.9722 1.23401 0
562 2 5.23822 11.4392 0
563 2 53.4236 49.2641 0
564 1 70.6793 67.7096 0
565 2 21.3817 1.28456 0
566 2 18.6506 23.6977 0
567 1 48.8534 42.4725 0
568 2 22.5562 73.924 0
569 2 16.2003 27.2245 0
570 1 73.1231 33.8372 0
571 1 1.2336 2.64902 0
572 2 6.56307 48.1638 0
573 2 77.0433 44.6085 0
574 1 3.43692 68.0201 0
575 1 17.6282 7.03091 0
576 1 16.2752 62.8477 0
577 1 43.1592 50.5996 0
578 2 67.3363 33.8804 0
579 2 45.3036 68.8538 0
580 1 62.374 42.3351 0
581 1 6.53737 60.3724 0
582 2 69.1954 59.8958 0
583 2 63.9011 58.9428 0
584 2 33.2054 65.8509 0
585 1 59.795 76.6606 0
586 1 48.5146 59.9342 0
587 2 15.27 21.7237 0
588 1 49.419 5.37272 0
589 2 53.8084 10.4111 0
590 1 24.3293 73.3196 0
591 1 55.7477 7.20107 0
592 1 48.4985 74.2506 0
593 1 44.5274 13.5323 0
594 1 60.0732 63.1003 0
595 1 72.5002 65.0358 0
596 2 6.87552 1.40141 0
597 1 3.21551 43.8183 0
598 1 68.9818 9.76344 0
599 1 2.48251 50.4844 0
600 1 77.3237 47.3723 0
601 2 42.4454 36.8482 0
602 1 62.1968 15.1226 0
603 2 70.4399 51.0293 0
604 2 63.0922 16.8959 0
605 1 52.4149 69.1715 0
606 1 41.561 3.59157 0
607 1 75.7457 1.72662 0
608 2 1.06261 40.1183 0
609 2 41.4351 77.4179 0
610 1 7.63484 49.9558 0
611 1 54.4256 59.4028 0
612 1 76.5709 6.86907 0
613 1 0.00953093 23.0365 0
614 2 50.2654 28.7377 0
615 1 34.5453 39.3025 0
616 1 40.0027 16.3918 0
617 1 68.2544 0.872134 0
618 2 11.8382 42.6458 0
619 2 54.2214 43.4529 0
620 2 70.8563 74.1408 0
621 2 57.7733 35.9698 0
622 1 61.4455 18.0207 0
623 1 38.0148 11.3265 0
624 2 20.5038 54.6237 0
625 1 26.6195 75.2779 0
626 1 74.5897 29.5486 0
627 2 3.25883 25.0145 0
628 1 28.7173 57.9508 0
629 2 0.607826 25.4091 0
630 1 28.7477 72.8347 0
631 1 57.2774 37.6324 0
632 1 21.447 64.7863 0
633 2 25.2651 71.9378 0
634 1 19.0254 50.1801 0
635 2 41.4562 44.0125 0
636 2 36.9379 40.9449 0
637 1 11.1923 11.2971 0
638 1 67.1345 40.7255 0
639 1 69.8107 45.8745 0
640 1 0.100929 53.4964 0
641 1 36.7488 33.9209 0
642 1 9.59242 33.772 0
643 1 50.7743 45.5396 0
644 2 18.8692 27.5901 0
645 1 56.7028 52.2005 0
646 1 46.6887 47.2729 0
647 2 23.7005 8.84367 0
648 1 64.6033 12.4563 0
649 2 10.6529 68.5585 0
650 2 46.1327 62.1399 0
651 1 46.4817 12.7988 0
652 1 29.3663 70.6203 0
653 2 14.1199 23.1871 0
654 2 10.1831 3.68791 0
655 1 5.45364 51.6567 0
656 1 72.108 53.5782 0
657 1 33.5457 46.6481 0
658 1 71.5167 13.0805 0
659 2 1.94627 66.1451 0
660 1 25.7248 35.8867 0
661 1 36.8192 9.79551 0
662 1 32.88 60.8751 0
663 1 10.7954 28.5274 0
664 1 58.1316 76.2059 0
665 2 48.9946 76.997 0
666 2 12.8109 57.9401 0
667 1 26.0802 73.6776 0
668 2 7.6562 75.9289 0
669 1 4.26967 9.05103 0
670 2 43.8765 37.9409 0
671 2 37.333 17.7071 0
672 1 10.456 19.5485 0
673 1 8.34911 16.3282 0
674 1 33.0345 42.7296 0
675 2 5.58359 57.3353 0
676 2 38.5678 6.74636 0
677 1 41.5929 54.3709 0
678 1 53.6363 39.1186 0
679 1 46.0803 69.2978 0
680 1 33.0016 54.3684 0
681 1 26.4967 53.9784 0
682 1 62.0916 59.7011 0
683 1 18.1073 59.159 0
684 1 65.4169 69.1131 0
685 2 35.9142 18.6133 0
686 1 50.4683 5.61711 0
687 1 41.4605 19.0546 0
688 2 53.6271 74.05 0
689 1 72.358 62.6066 0
690 1 66.5829 72.5464 0
691 1 41.6677 40.2511 0
692 2 59.6801 43.8845 0
693 1 73.5266 75.957 0
694 2 53.9652 64.654 0
695 1 43.434 11.0776 0
696 2 35.3034 47.4788 0
697 1 25.7246 12.8565 0
698 1 8.23576 3.35803 0
699 1 66.7441 14.0588 0
700 1 71.6505 46.6763 0
701 1 63.8247 30.8016 0
702 1 63.634 65.7987 0
703 2 72.351 1.15378 0
704 2 8.15949 60.8102 0
705 2 5.50972 7.90928 0
706 1 51.5566 52.2154 0
707 2 59.8445 38.5179 0
708 1 50.3937 43.3764 0
709 1 51.8553 73.4429 0
710 2 59.2357 27.095 0
711 1 56.1315 54.3492 0
712 2 62.8657 32.547 0
713 2 68.6551 70.4086 0
714 2 77.2917 63.8507 0
715 1 44.673 19.014 0
716 1 0.964757 29.7671 0
717 1 29.7808 63.6563 0
718 1 13.9324 3.41481 0
719 1 53.1105 36.984 0
720 2 49.0005 39.035 0
721 2 66.4932 40.0344 0
722 1 48.9909 8.09352 0
723 2 39.8689 75.2325 0
724 2 10.2807 59.1256 0
725 1 50.7887 39.6366 0
726 1 8.40961 28.708 0
727 2 12.4291 1.14452 0
728 1 66.3238 56.6559 0
729 2 21.7077 59.3487 0
730 1 33.1458 27.75 0
731 2 15.8583 35.794 0
732 1 16.4617 54.1548 0
733 1 30.0952 29.9122 0
734 2 66.1979 46.2916 0
735 1 67.2245 67.2769 0
736 1 47.1788 49.9093 0
737 2 3.85269 45.6809 0
738 1 13.5837 34.9039 0
739 1 16.5287 36.4659 0
740 1 48.2727 38.51 0
741 2 57.5393 55.664 0
742 1 58.8984 37.1841 0
743 1 27.2586 62.0136 0
744 2 72.813 19.0611 0
745 1 22.8164 72.4906 0
746 1 35.3404 10.6225 0
747 1 47.6127 76.157 0
748 2 43.0341 70.0688 0
749 2 22.9171 24.3325 0
750 1 55.227 35.0757 0
751 1 57.4089 40.1007 0
752 2 1.28357 70.9627 0
753 1 53.0033 40.0565 0
754 2 22.2972 15.2243 0
755 1 23.8741 49.1529 0
756 2 49.4824 75.761 0
757 1 48.8093 20.1064 0
758 1 6.02089 9.80417 0
759 1 61.7481 46.8226 0
760 1 11.9895 10.5615 0
761 1 70.57 71.89 0
762 1 15.2356 57.2791 0
763 2 75.9644 7.48188 0
764 1 74.3384 55.5387 0
765 2 47.4544 57.3362 0
766 1 65.6554 22.8493 0
767 1 13.1909 0.746127 0
768 1 65.578 8.36449 0
769 1 61.8056 49.7093 0
770 2 59.2691 72.0908 0
771 1 18.6883 40.1041 0
772 1 44.9699 51.3803 0
773 1 40.62 43.6638 0
774 2 33.2129 25.9253 0
775 1 72.089 29.4719 0
776 2 44.1938 43.0393 0
777 1 70.1975 55.5148 0
778 2 10.3846 62.6614 0
779 1 45.2705 25.6088 0
780 1 16.416 5.91805 0
781 1 30.4788 34.8587 0
782 1 57.5476 65.4037 0
783 1 60.6242 35.3881 0
784 1 70.721 50.2107 0
785 2 8.72501 11.0714 0
786 1 73.039 69.3961 0
787 1 20.6734 66.36 0
788 1 39.9744 54.9653 0
789 1 10.8308 4.20858 0
790 1 52.098 70.3262 0
791 1 46.1677 13.874 0
792 1 8.95022 24.8237 0
793 1 24.8086 15.3883 0
794 2 70.1442 16.2431 0
795 2 75.5791 13.8885 0
796 2 76.9268 67.3532 0
797 1 44.2189 66.008 0
798 1 38.1535 19.5413 0
799 1 44.532 76.4394 0
800 1 30.8133 71.0891 0
801 2 7.06345 26.6682 0
802 2 28.0552 45.691 0
803 2 23.1082 77.0357 0
804 2 52.4567 36.1662 0
805 1 23.52 71.7351 0
806 1 52.8328 71.0433 0
807 2 39.634 50.6024 0
808 1 50.2862 48.2815 0
809 2 37.18 62.3023 0
810 1 58.0164 0.513318 0
811 1 28.8141 60.9085 0
812 2 59.5103 48.0265 0
813 2 46.9715 58.8526 0
814 1 54.1469 31.0443 0
815 2 40.7033 17.0217 0
816 1 27.6358 35.2974 0
817 1 67.9808 75.9407 0
818 2 36.612 16.5828 0
819 2 46.0114 57.4737 0
820 1 67.7569 70.1561 0
821 1 16.5834 64.4923 0
822 1 56.3638 0.0267193 0
823 1 17.2121 55.6136 0
824 2 35.2438 42.5964 0
825 1 28.823 42.3741 0
826 1 34.4573 76.2621 0
827 1 7.60837 25.9931 0
828 1 76.5376 50.792 0
829 1 71.8336 39.9043 0
830 2 47.8028 65.95 0
831 2 43.0392 4.96105 0
832 1 73.6959 13.3299 0
833 1 26.4091 43.8824 0
834 2 48.2889 5.85187 0
835 1 68.0463 5.5801 0
836 1 57.7751 28.4794 0
837 1 56.3342 41.4454 0
838 1 38.8364 53.0243 0
839 1 15.9419 59.9588 0
840 2 15.6636 46.5546 0
841 1 36.6666 52.9933 0
842 2 10.961 60.879 0
843 1 5.29073 42.2648 0
844 1 61.394 20.7779 0
845 2 27.2116 3.1424 0
846 1 49.413 39.8897 0
847 1 10.8478 57.333 0
848 2 68.8228 47.2729 0
849 1 74.1865 10.6236 0
850 1 67.5934 20.1537 0
851 1 39.4473 19.0237 0
852 1 11.8742 1.70774 0
853 1 42.6839 61.7613 0
854 1 36.6983 70.6394 0
855 1 39.6658 26.1256 0
856 2 17.9941 41.8113 0
857 1 57.6547 33.9812 0
858 2 34.6707 29.2934 0
859 1 13.1056 64.3857 0
860 2 1.89251 58.2071 0
861 2 59.7927 39.9586 0
862 2 3.14801 68.9061 0
863 1 59.5424 24.4061 0
864 1 60.4087 53.2718 0
865 2 66.7496 67.951 0
866 1 61.3244 16.9139 0
867 2 32.6222 22.4289 0
868 1 36.9149 61.4568 0
869 1 62.4485 20.5323 0
870 1 77.3672 52.3547 0
871 1 62.4139 24.3061 0
872 1 42.1115 50.7971 0
873 1 50.1316 63.254 0
874 1 4.13336 71.48 0
875 1 33.3994 57.8569 0
876 2 51.4061 8.13654 0
877 1 13.4543 55.3167 0
878 2 15.1594 15.8957 0
879 1 76.4843 13.7473 0
880 2 31.3456 34.6026 0
881 2 52.1539 28.8005 0
882 2 47.8852 73.6145 0
883 1 26.7515 19.7146 0
884 1 55.9234 36.5567 0
885 1 38.933 4.19282 0
886 1 36.1304 59.8677 0
887 2 54.863 50.2309 0
888 1 0.634457 76.5548 0
889 2 59.0382 49.2798 0
890 2 8.11531 25.2012 0
891 1 37.8073 10.2183 0
892 1 39.608 68.4249 0
893 1 30.668 54.0392 0
894 1 76.9389 14.6924 0
895 2 33.9569 54.4023 0
896 1 37.2984 2.76871 0
897 2 35.7458 17.0729 0
898 1 30.6692 43.3737 0
899 1 1.90396 75.519 0
900 2 38.3204 0.624195 0
901 1 53.489 41.8607 0
902 1 23.9331 75.2075 0
903 1 37.8467 40.7774 0
904 2 77.374 37.4315 0
905 1 63.7458 62.3769 0
906 1 68.6316 44.6478 0
907 1 2.74246 28.4253 0
908 1 50.3028 23.0026 0
909 1 0.113239 48.3683 0
910 2 1.59294 50.3245 0
911 2 5.06165 3.85035 0
912 2 36.434 33.0639 0
913 2 32.7568 51.239 0
914 1 18.9357 12.8209 0
915 2 65.7002 3.4915 0
916 1 3.126 39.5694 0
917 2 6.18214 34.5594 0
918 2 19.1294 34.7196 0
919 1 8.03406 57.3078 0
920 1 15.9394 47.4088 0
921 1 0.988189 26.2695 0
922 2 48.6263 19.2732 0
923 2 12.686 24.216 0
924 1 39.1204 18.0195 0
925 1 65.716 47.1139 0
926 2 35.7284 35.5801 0
927 1 69.3511 0.829325 0
928 1 52.6054 59.7348 0
929 2 51.7491 31.84 0
930 2 20.5845 15.683 0
931 1 40.5337 47.8742 0
932 1 70.0254 38.7384 0
933 1 35.3178 22.3862 0
934 1 1.56031 60.2339 0
935 1 11.3092 50.5841 0
936 2 41.4185 4.4069 0
937 1 13.6508 72.9636 0
938 1 36.4998 67.951 0
939 2 49.9008 52.2466 0
940 1 75.6155 46.585 0
941 1 1.48827 18.0313 0
942 1 38.1885 30.1198 0
943 2 22.912 16.5479 0
944 2 1.84321 41.7258 0
945 1 40.5855 25.6355 0
946 1 64.8581 67.374 0
947 2 26.0051 0.0560989 0
948 1 38.8404 69.1742 0
949 1 25.4094 10.8114 0
950 2 5.10984 9.65946 0
951 1 69.3736 65.4052 0
952 2 52.2091 3.12697 0
953 2 7.67007 44.6552 0
954 2 29.7167 62.6951 0
955 1 27.0525 38.3921 0
956 2 60.053 11.8131 0
957 1 48.5837 23.5675 0
958 2 19.2238 2.40459 0
959 2 74.4947 26.882 0
960 2 28.7676 66.8639 0
961 1 48.1359 53.7968 0
962 1 23.7142 1.55923 0
963 1 17.9171 12.3948 0
964 2 8.5713 9.28903 0
965 2 53.8427 54.1135 0
966 1 2.31732 62.886 0
967 1 49.1631 34.6635 0
968 1 18.0436 77.1815 0
969 1 58.1806 24.5876 0
970 2 22.3247 4.73903 0
971 1 21.8759 14.3565 0
972 1 7.17671 24.9649 0
973 1 0.203965 35.8495 0
974 2 0.97157 35.5036 0
975 2 73.272 65.4825 0
976 2 33.6011 19.8245 0
977 1 36.9438 63.36 0
978 2 5.71049 0.386588 0
979 2 35.9693 66.0591 0
980 1 73.3227 14.2901 0
981 1 73.6606 57.0585 0
982 1 7.69507 54.5413 0
983 1 18.8628 24.4891 0
984 1 9.24663 57.511 0
985 1 35.0755 12.4291 0
986 1 37.7342 52.9202 0
987 2 18.6739 11.934 0
988 2 42.5916 35.3798 0
989 2 9.81233 34.6169 0
990 2 69.9516 52.3789 0
991 2 46.3199 14.8242 0
992 1 62.3974 34.4737 0
993 2 28.8776 5.96801 0
994 2 1.74652 54.6574 0
995 1 38.9601 22.7438 0
996 2 54.856 57.6913 0
997 2 43.6306 31.1711 0
998 2 59.7022 74.8418 0
999 2 39.3277 26.8809 0
1000 2 0.107472 49.2622 0
1001 1 41.7602 65.6657 0
1002 1 23.7715 33.847 0
1003 1 9.57228 53.9095 0
1004 1 8.03141 22.2544 0
1005 2 11.2077 23.5484 0
1006 2 67.7582 60.9416 0
1007 1 19.3199 20.353 0
1008 1 47.7173 16.9328 0
1009 1 31.813 33.8106 0
1010 1 11.4824 43.3936 0
1011 2 11.0207 22.0005 0
1012 2 2.84344 23.6135 0
1013 2 65.6006 57.1853 0
1014 1 73.9476 15.06 0
1015 1 75.0719 9.12381 0
1016 1 37.0004 48.3325 0
1017 2 67.9005 54.3111 0
1018 1 25.9432 25.663 0
1019 1 44.6498 29.3705 0
1020 2 31.3743 7.21039 0
1021 2 16.3321 24.5005 0
1022 1 4.57558 60.4505 0
1023 1 40.481 9.81462 0
1024 1 9.2466 67.1761 0
1025 1 36.8991 66.1358 0
1026 1 7.91595 40.0117 0
1027 1 47.1524 2.7536 0
1028 1 1.21207 32.6266 0
1029 1 48.3146 18.5022 0
1030 2 47.1016 48.264 0
1031 2 37.713 37.2633 0
1032 1 15.9882 72.8885 0
1033 1 58.6654 19.3452 0
1034 1 35.4547 29.5483 0
1035 1 65.0958 28.157 0
1036 2 73.2931 45.7596 0
1037 1 31.019 72.8514 0
1038 1 69.306 60.8298 0
1039 1 5.0769 32.1073 0
1040 2 64.9017 34.0903 0
1041 1 35.227 65.4772 0
1042 2 62.945 68.3773 0
1043 2 60.6728 58.4067 0
1044 1 73.5692 24.2846 0
1045 1 68.7558 23.6109 0
1046 1 40.6577 68.7286 0
1047 2 9.83703 47.4938 0
1048 1 53.2593 0.360516 0
1049 1 59.7762 48.883 0
1050 2 45.0891 6.91514 0
1051 1 43.5035 32.1281 0
1052 1 65.5403 44.4782 0
1053 2 32.6939 18.3897 0
1054 1 54.3699 6.17284 0
1055 2 32.6808 46.8594 0
1056 2 14.5058 45.1184 0
1057 1 11.7336 71.1454 0
1058 1 27.0745 6.71042 0
1059 1 9.27793 75.0536 0
1060 2 21.6934 42.0441 0
1061 1 10.5129 22.9769 0
1062 2 16.894 40.5552 0
1063 1 0.235121 67.8252 0
1064 1 23.3054 4.82651 0
1065 2 30.7413 53.155 0
1066 1 37.1332 46.6654 0
1067 1 13.7495 10.1615 0
1068 2 35.2713 67.3519 0
1069 1 68.6496 25.3018 0
1070 2 7.96147 34.4722 0
1071 2 49.6055 43.0106 0
1072 2 9.22631 48.706 0
1073 2 14.7763 2.68864 0
1074 2 32.8262 43.8989 0
1075 1 75.4403 49.4081 0
1076 1 41.295 7.29053 0
1077 1 41.8019 32.7396 0
1078 2 69.2763 27.807 0
1079 2 38.6777 10.5331 0
1080 2 29.5976 72.5534 0
1081 2 45.7563 48.9982 0
1082 2 6.2689 27.7496 0
1083 2 22.1178 19.8577 0
1084 1 44.1861 58.2778 0
1085 1 19.1486 52.2579 0
1086 1 70.4568 66.6582 0
1087 1 29.2012 71.7494 0
1088 1 44.8645 64.0074 0
1089 2 8.69385 31.489 0
1090 1 43.0117 34.5821 0
1091 2 27.3692 17.9005 0
1092 1 63.1134 53.7345 0
1093 1 68.7348 31.7215 0
1094 2 43.8181 55.6405 0
1095 1 25.0468 71.0761 0
1096 2 47.9713 20.2448 0
1097 1 76.4235 16.2769 0
1098 1 62.4696 43.3943 0
1099 1 31.5136 5.36196 0
1100 1 68.6107 3.89009 0
1101 1 74.8617 11.589 0
1102 1 25.5898 74.5678 0
1103 1 51.582 71.2794 0
1104 1 47.7502 58.4293 0
1105 1 47.9558 40.5883 0
1106 1 16.3457 71.08 0
1107 2 45.3261 63.2328 0
1108 1 55.42 31.1661 0
1109 1 72.7833 25.8333 0
1110 2 14.7979 12.0592 0
1111 1 2.53236 56.4701 0
1112 1 77.1321 19.002 0
1113 2 74.7146 7.29979 0
1114 2 14.2898 53.3425 0
1115 2 33.1996 49.2281 0
1116 1 0.0318934 64.6594 0
1117 1 66.5454 55.6625 0
1118 1 12.4804 74.8196 0
1119 2 11.1383 63.9441 0
1120 1 41.8497 58.5038 0
1121 2 21.0245 64.0364 0
1122 1 32.1621 32.7362 0
1123 2 22.8961 51.5615 0
1124 1 51.8274 63.3913 0
1125 2 14.4447 4.06821 0
1126 2 16.0865 20.1438 0
1127 1 77.4465 26.0429 0
1128 1 66.6441 53.114 0
1129 1 60.3768 39.2904 0
1130 1 30.2356 47.062 0
1131 1 63.5779 16.1353 0
1132 2 76.039 63.6022 0
1133 2 57.4737 20.3559 0
1134 2 20.605 71.8127 0
1135 1 1.37121 68.294 0
1136 2 50.3894 26.2612 0
1137 1 51.7271 61.8357 0
1138 1 30.4768 13.6776 0
1139 2 57.3937 52.7725 0
1140 2 9.62167 22.707 0
1141 1 75.4268 66.5845 0
1142 1 27.5854 51.4579 0
1143 1 48.2512 45.0659 0
1144 2 58.1898 17.2855 0
1145 1 38.005 61.8531 0
1146 1 16.0686 18.7939 0
1147 1 28.6774 25.6106 0
1148 1 10.5641 36.4886 0
1149 1 56.6109 28.6888 0
1150 2 65.4363 61.3675 0
1151 1 21.6515 4.05516 0
1152 1 59.657 51.7538 0
1153 1 73.884 30.3781 0
1154 1 12.8898 3.63514 0
1155 2 59.2304 20.1639 0
1156 1 45.3523 32.075 0
1157 1 12.806 18.0076 0
1158 2 58.3716 47.6457 0
1159 2 5.68918 70.4624 0
1160 1 34.0344 9.3479 0
1161 2 44.7237 57.2193 0
1162 1 16.4964 9.70496 0
1163 2 12.8154 72.7382 0
1164 1 23.9942 58.5357 0
1165 1 20.3469 45.9086 0
1166 2 14.8262 50.343 0
1167 1 28.3614 20.8433 0
1168 1 56.7807 64.7162 0
1169 1 19.3108 66.5757 0
1170 2 4.67295 34.7873 0
1171 1 48.0606 34.7993 0
1172 1 23.5359 5.91219 0
1173 1 51.2732 64.3816 0
1174 1 39.0173 29.4628 0
1175 2 62.4215 44.3012 0
1176 1 68.7398 37.0902 0
1177 1 47.6737 69.6076 0
1178 2 61.0288 47.3667 0
1179 1 71.3864 33.3112 0
1180 1 51.3532 17.3832 0
1181 1 54.5184 21.9056 0
1182 1 61.3418 73.9329 0
1183 2 43.1704 73.5223 0
1184 2 29.1547 22.6935 0
1185 1 17.3773 62.9321 0
1186 1 48.3129 49.829 0
1187 1 74.5482 72.3073 0
1188 2 4.64467 37.5632 0
1189 1 60.8048 65.5302 0
1190 1 28.5701 51.7903 0
1191 2 71.8767 4.9017 0
1192 1 25.0372 46.7445 0
1193 1 47.7838 19.4045 0
1194 2 17.2074 15.92 0
1195 1 73.6821 48.6482 0
1196 1 21.5635 49.6261 0
1197 1 35.5844 39.1691 0
1198 1 62.0074 75.543 0
1199 2 56.6824 61.4783 0
1200 1 28.4354 8.37527 0
1201 1 2.94655 72.8409 0
1202 1 5.80266 48.6762 0
1203 2 47.0413 13.4741 0
1204 1 57.9187 56.4766 0
1205 1 67.1079 49.5874 0
1206 1 52.0974 5.16245 0
1207 1 31.6662 63.1494 0
1208 1 75.1715 57.899 0
1209 2 65.045 59.8564 0
1210 1 68.8817 30.7225 0
1211 2 25.5897 38.2307 0
1212 1 33.9698 36.5456 0
1213 1 62.1698 68.0408 0
1214 1 60.0562 23.1881 0
1215 1 10.7113 71.5143 0
1216 1 11.326 49.4578 0
1217 2 68.0115 3.24995 0
1218 2 64.5321 22.7274 0
1219 1 30.181 15.4489 0
1220 1 64.1172 18.4454 0
1221 1 61.5654 54.3847 0
1222 2 65.9835 75.6041 0
1223 1 42.1589 48.2698 0
1224 1 0.849402 34.656 0
1225 1 3.57818 25.8692 0
1226 2 66.0293 65.0141 0
1227 1 39.996 58.581 0
1228 1 77.02 70.6395 0
1229 2 47.9257 9.64399 0
1230 1 25.2913 50.2206 0
1231 2 51.1816 19.3007 0
1232 1 67.2489 37.9772 0
1233 1 37.9915 59.2247 0
1234 1 1.92338 67.3997 0
1235 1 18.0929 45.6109 0
1236 1 51.043 62.6809 0
1237 1 37.7509 21.1498 0
1238 1 26.0257 8.07026 0
1239 1 13.3957 22.6833 0
1240 1 24.2232 62.7853 0
1241 1 76.7428 63.0462 0
1242 1 34.0083 58.6764 0