ITEM: TIMESTEP
0
ITEM: NUMBER OF ATOMS
7200
ITEM: BOX BOUNDS xy xz yz pp pp pp
0.0000000000000000e+00 7.7459666924100006e+01 0.0000000000000000e+00
0.0000000000000000e+00 7.7459666924100006e+01 0.0000000000000000e+00
-1.2909944490000000e-01 1.2909944490000000e-01 0.0000000000000000e+00
ITEM: ATOMS id type x y z
1 1 11.9813 20.0198 0
2 1 14.9956 64.0707 0
3 1 75.4651 71.1936 0
4 1 19.9596 8.42409 0
5 1 34.525 56.0267 0
6 1 56.9869 28.9371 0
7 2 5.48047 3.05511 0
8 2 64.8217 46.2618 0
9 1 42.3808 56.0547 0
10 2 18.9228 14.8016 0
11 2 25.4146 53.1498 0
12 1 55.2034 11.693 0
13 2 23.1481 6.02271 0
14 1 46.4335 70.0654 0
15 1 39.5195 31.3234 0
16 1 17.9101 15.0083 0
17 1 31.4974 40.0448 0
18 1 33.4529 6.17226 0
19 1 26.9647 57.7369 0
20 2 44.8446 3.69442 0
21 1 12.3727 65.8175 0
22 1 54.3694 11.0166 0
23 1 75.6144 45.7038 0
24 1 55.6817 66.2772 0
25 1 6.77075 70.5694 0
26 1 21.2115 67.7726 0
27 2 29.0448 63.8096 0
28 1 50.9792 74.0831 0
29 2 22.5948 47.7146 0
30 2 24.4225 31.6329 0
31 1 15.1689 53.1265 0
32 1 51.2525 38.2762 0
33 1 60.8756 48.4937 0
34 2 45.3995 9.73422 0
35 1 75.2746 63.1715 0
36 1 30.432 59.9361 0
37 1 22.2249 61.3784 0
38 1 45.9098 19.9682 0
39 1 22.3752 5.63837 0
40 2 24.8462 59.0865 0
41 2 18.6442 64.8265 0
42 1 20.9038 1.26372 0
43 1 18.8603 33.4655 0
44 1 34.391 62.676 0
45 1 3.56247 34.6083 0
46 1 68.8627 7.22098 0
47 1 73.5235 59.1867 0
48 1 43.618 68.1705 0
49 2 0.00504565 4.18034 0
50 1 31.0443 66.6129 0
51 1 1.12539 9.70437 0
52 2 33.1985 24.1339 0
53 1 53.6447 18.7444 0
54 1 49.6844 30.5704 0
55 1 9.78229 0.971318 0
56 1 45.8289 26.1842 0
57 1 67.5074 42.8708 0
58 1 70.2069 69.7684 0
59 1 33.7717 2.18944 0
60 1 28.4753 3.63935 0
61 1 40.619 76.0398 0
62 1 52.3093 45.269 0
63 1 57.2226 10.0735 0
64 1 50.7428 46.0201 0
65 1 67.7403 73.683 0
66 2 56.0547 11.5973 0
67 2 40.6453 36.0828 0
68 2 0.829126 29.0519 0
69 1 62.1321 45.2774 0
70 1 8.40905 35.3725 0
71 2 7.5714 42.4041 0
72 1 76.7782 3.175 0
73 1 6.29702 63.9959 0
74 2 41.5961 22.8105 0
75 1 75.4519 53.5003 0
76 1 19.653 46.6771 0
77 1 25.1578 74.416 0
78 1 3.47777 15.417 0
79 1 12.1202 73.305 0
80 1 43.5695 16.6894 0
81 1 55.2461 62.2254 0
82 2 44.4321 16.8191 0
83 1 5.8557 32.7961 0
84 1 32.8413 45.647 0
85 1 34.6573 20.814 0
86 2 34.6274 64.6965 0
87 1 71.6623 34.7212 0
88 1 18.5285 54.6108 0
89 1 27.8057 14.2102 0
90 1 37.7117 37.8867 0
91 2 45.3878 41.0047 0
92 2 41.4375 56.2852 0
93 1 27.7975 16.8229 0
94 1 33.4867 55.7177 0
95 2 40.0503 56.6659 0
96 1 64.7525 1.27266 0
97 1 43.98 49.0428 0
98 2 3.01001 60.0209 0
99 1 62.018 48.1421 0
100 2 32.2526 30.7542 0
101 1 47.0369 54.5981 0
102 1 56.4476 21.6179 0
103 1 57.2644 70.2492 0
104 1 2.71038 60.8497 0
105 2 40.8351 3.80744 0
106 2 30.6526 34.8323 0
107 1 13.1741 31.1551 0
108 1 0.450876 0.682637 0
109 1 34.6082 41.4197 0
110 2 65.5488 26.0843 0
111 1 66.1193 11.7204 0
112 1 33.6421 72.4265 0
113 2 0.367114 60.368 0
114 2 74.0276 29.8052 0
115 2 30.6059 12.6873 0
116 2 74.5294 53.6277 0
117 1 16.2902 45.8447 0
118 2 46.8135 26.6673 0
119 1 62.4236 0.0301128 0
120 2 5.93722 49.7878 0
121 1 6.26041 3.5298 0
122 1 19.895 33.0803 0
123 2 5.26688 17.7186 0
124 1 46.2064 57.6039 0
125 1 31.6554 27.1599 0
126 1 58.2723 52.1074 0
127 1 4.49978 58.9048 0
128 1 14.2459 23.3216 0
129 1 16.4938 52.1495 0
130 1 7.281 2.10446 0
131 1 59.1781 25.0447 0
132 2 31.1023 41.6211 0
133 2 52.6758 7.05993 0
134 1 65.9446 50.6912 0
135 1 31.4102 30.395 0
136 2 54.7427 46.9084 0
137 1 61.7529 56.6071 0
138 2 70.3684 47.9935 0
139 1 68.3103 27.2154 0
140 1 3.36252 21.9652 0
141 2 48.1406 63.5519 0
142 1 6.39435 22.5239 0
143 2 40.3718 70.1694 0
144 2 47.1924 75.3442 0
145 2 18.3625 52.8709 0
146 1 54.9388 4.37398 0
147 1 9.47708 39.016 0
148 1 46.1604 53.8744 0
149 2 68.0314 48.9284 0
150 1 32.6906 56.5662 0
151 2 29.7448 13.7314 0
152 1 49.0147 63.1676 0
153 2 17.4372 46.305 0
154 2 31.6934 73.3215 0
155 1 70.4892 48.9288 0
156 1 43.5342 10.3954 0
157 1 48.9979 71.1864 0
158 1 60.105 69.1355 0
159 2 10.5112 25.9612 0
160 1 38.2666 17.3644 0
161 1 7.19072 63.3956 0
162 2 73.2011 24.4882 0
163 1 30.5988 27.0455 0
164 1 60.1329 29.5116 0
165 1 74.7628 27.5232 0
166 1 1.89281 44.8731 0
167 1 39.0916 0.696079 0
168 1 38.0296 73.011 0
169 1 56.7174 31.2286 0
170 1 58.2011 2.31471 0
171 2 36.8412 60.9965 0
172 2 33.5618 53.7717 0
173 2 43.9113 24.3971 0
174 2 27.4634 55.7427 0
175 2 31.0731 26.2721 0
176 1 46.3245 16.4899 0
177 1 19.6069 58.6019 0
178 1 61.8338 61.5025 0
179 1 64.6396 24.4245 0
180 2 33.7977 39.705 0
181 1 45.0659 27.7567 0
182 1 61.697 58.5246 0
183 2 12.1822 37.324 0
184 1 5.2664 67.2751 0
185 2 67.2348 29.5424 0
186 1 59.1091 35.1299 0
187 1 39.5477 46.439 0
188 1 57.4965 47.5459 0
189 2 63.8266 53.1228 0
190 1 23.0197 4.17128 0
191 1 71.5678 7.69501 0
192 1 65.63 10.1349 0
193 2 11.0193 41.6253 0
194 2 68.3874 69.1414 0
195 1 10.9254 3.31404 0
196 2 49.0257 55.5387 0
197 2 19.8862 10.1568 0
198 1 13.4816 61.1806 0
199 2 75.8702 66.2778 0
200 1 59.8396 27.9448 0
201 2 34.1219 1.17598 0
202 2 74.6545 55.2554 0
203 1 52.0518 65.5633 0
204 1 29.3671 4.08383 0
205 1 55.742 25.8309 0
206 2 35.8735 37.053 0
207 2 14.2799 9.64531 0
208 1 33.8907 13.942 0
209 1 12.1051 11.4427 0
210 2 5.1749 20.3198 0
211 1 17.2463 8.05406 0
212 2 25.65 6.20914 0
213 2 55.2705 27.9209 0
214 1 71.1227 57.861 0
215 2 66.2111 21.8138 0
216 1 20.6626 73.8363 0
217 1 59.7393 34.1235 0
218 2 54.7974 58.4336 0
219 2 68.0917 42.1314 0
220 2 42.3648 63.7234 0
221 1 18.9809 45.1588 0
222 1 45.029 12.644 0
223 2 39.1629 67.7006 0
224 2 27.7519 68.637 0
225 1 32.4951 23.5925 0
226 2 66.381 57.3018 0
227 2 5.88295 16.2043 0
228 1 34.5872 9.14836 0
229 1 70.8305 26.9203 0
230 1 33.3802 74.1301 0
231 1 10.696 34.2 0
232 1 42.1273 12.988 0
233 1 35.0409 7.2607 0
234 1 76.1687 8.09462 0
235 1 60.6533 59.1506 0
236 2 44.5776 70.4718 0
237 1 77.1689 62.2162 0
238 2 9.30874 21.3664 0
239 1 58.7836 3.29878 0
240 2 61.8414 46.1091 0
241 1 47.3629 66.754 0
242 1 18.4827 30.4678 0
243 1 7.27703 56.3092 0
244 1 61.0829 64.3015 0
245 1 11.0055 30.7949 0
246 1 2.24641 35.6731 0
247 1 65.7655 49.6773 0
248 1 12.4913 0.62374 0
249 2 50.5913 41.4458 0
250 1 29.5964 9.317 0
251 2 57.9609 50.1565 0
252 2 66.1306 23.2972 0
253 1 19.9468 17.5934 0
254 1 54.3906 24.6969 0
255 1 65.5761 42.7106 0
256 1 31.5163 8.09991 0
257 1 22.0923 57.8643 0
258 1 26.2754 38.4824 0
259 1 55.6723 56.6709 0
260 2 43.9241 53.6903 0
261 2 26.237 62.5284 0
262 1 24.117 33.4058 0
263 2 12.6807 34.6069 0
264 2 71.4741 60.0499 0
265 1 76.9098 46.7275 0
266 1 38.1012 44.731 0
267 2 60.8414 24.0143 0
268 2 56.8838 45.6723 0
269 1 48.2885 21.2335 0
270 2 9.15137 47.0996 0
271 2 23.4212 33.9241 0
272 2 20.4558 14.5913 0
273 1 15.1993 65.1111 0
274 1 32.3712 49.9794 0
275 1 8.58888 49.1386 0
276 1 75.2407 9.89122 0
277 2 15.6856 71.3585 0
278 1 7.35303 17.3746 0
279 1 4.44854 44.4829 0
280 1 20.3511 35.6385 0
281 1 30.7747 38.4076 0
282 2 75.6738 27.6866 0
283 1 76.586 56.0033 0
284 2 54.3569 38.6704 0
285 1 70.9299 52.862 0
286 1 11.3979 63.3585 0
287 1 19.0003 76.8704 0
288 2 75.9178 3.60571 0
289 2 21.3283 39.0861 0
290 2 67.6584 76.3425 0
291 1 35.1589 22.6375 0
292 1 27.6572 58.5306 0
293 1 47.4838 19.2389 0
294 1 40.3175 2.15706 0
295 1 69.6579 3.13907 0
296 2 73.7512 8.93752 0
297 1 40.3862 59.0904 0
298 1 72.7272 35.0537 0
299 2 49.4048 36.6156 0
300 1 39.0848 43.7947 0
301 1 73.1351 19.6324 0
302 1 51.0373 35.4207 0
303 1 20.2574 32.1065 0
304 1 60.4797 71.3965 0
305 2 58.2944 76.4529 0
306 1 63.2033 52.5089 0
307 2 73.3817 38.6033 0
308 1 41.5427 5.30501 0
309 2 25.0511 17.1148 0
310 2 13.3601 12.7918 0
311 1 29.3022 49.5688 0
312 1 67.3864 61.6098 0
313 1 74.8801 75.9411 0
314 1 40.5504 45.8786 0
315 2 56.4024 32.0308 0
316 2 39.622 63.4803 0
317 1 51.2052 20.8058 0
318 2 7.07983 31.0119 0
319 1 30.9392 25.4133 0
320 1 36.1326 61.5226 0
321 1 58.5899 68.3456 0
322 2 73.9315 11.6602 0
323 2 25.1239 63.3891 0
324 1 64.45 41.4058 0
325 1 41.2506 6.31117 0
326 1 9.83501 58.9611 0
327 1 49.4569 54.6923 0
328 1 0.900162 36.9805 0
329 1 41.8069 42.6279 0
330 2 51.8944 35.1799 0
331 2 70.5348 2.91597 0
332 1 59.29 28.8315 0
333 1 37.0753 12.2289 0
334 1 17.1239 34.7727 0
335 1 20.6454 38.5413 0
336 2 72.3258 74.3907 0
337 1 34.8542 33.897 0
338 2 16.9905 1.61793 0
339 1 42.3482 68.5514 0
340 1 18.8325 57.8524 0
341 2 73.9638 44.1628 0
342 1 66.9515 5.74559 0
343 2 56.6832 49.6876 0
344 2 22.6922 66.0056 0
345 1 7.90088 27.5898 0
346 1 17.5905 71.794 0
347 1 35.3987 56.7031 0
348 1 56.3019 18.5353 0
349 1 33.7434 20.1674 0
350 1 37.153 31.3424 0
351 1 18.1014 53.6647 0
352 1 47.9462 31.0231 0
353 1 75.1557 25.822 0
354 2 22.5157 26.2046 0
355 2 43.4537 18.3124 0
356 2 11.7232 2.82868 0
357 1 68.3712 67.7435 0
358 1 23.9859 3.94767 0
359 1 22.3501 14.6885 0
360 2 45.3292 31.4885 0
361 2 48.0827 67.2006 0
362 1 27.0908 74.4902 0
363 2 37.8084 73.9259 0
364 1 13.3566 66.4063 0
365 2 8.97212 57.1807 0
366 1 24.8797 50.6146 0
367 2 19.7613 23.326 0
368 2 51.4004 54.9067 0
369 2 65.0993 70.9083 0
370 1 3.2657 28.2529 0
371 1 45.9705 73.5014 0
372 2 40.5016 9.9466 0
373 1 10.487 31.7935 0
374 2 66.7034 41.2218 0
375 1 52.5111 52.5195 0
376 2 75.4689 43.1782 0
377 2 58.3609 37.8796 0
378 1 20.4934 63.7947 0
379 1 13.7446 20.1804 0
380 1 9.93372 62.4407 0
381 1 26.7787 23.2833 0
382 1 30.6617 23.6464 0
383 1 9.52719 11.5705 0
384 1 34.9758 51.7418 0
385 1 28.5481 77.2139 0
386 1 55.0291 40.6422 0
387 1 58.671 77.216 0
388 2 56.0228 57.675 0
389 1 24.6048 56.6515 0
390 1 28.9239 13.6467 0
391 2 59.4565 27.1015 0
392 2 29.9008 10.1789 0
393 2 38.6765 64.9366 0
394 1 10.4747 73.7806 0
395 1 53.5398 22.0376 0
396 1 13.8082 70.5455 0
397 1 46.8723 17.4461 0
398 1 45.3206 70.9862 0
399 1 69.6842 18.4039 0
400 1 59.1376 74.6501 0
401 1 44.7591 11.6328 0
402 2 56.7971 16.7909 0
403 1 38.216 51.7003 0
404 1 69.4354 70.6458 0
405 2 73.9794 75.8059 0
406 1 34.219 19.0413 0
407 2 45.8051 21.6611 0
408 1 63.6017 30.1805 0
409 1 18.6183 61.3112 0
410 2 67.3721 16.5345 0
411 2 66.6795 36.443 0
412 1 59.0366 38.3989 0
413 1 7.0806 36.7063 0
414 1 71.297 48.3012 0
415 1 7.22715 41.6274 0
416 2 73.8272 62.3584 0
417 2 74.9815 12.4311 0
418 1 54.3463 30.2142 0
419 2 56.6807 47.1144 0
420 2 24.9216 55.7927 0
421 1 60.9753 19.9057 0
422 1 1.90904 70.4991 0
423 1 3.98123 11.8657 0
424 1 61.3566 27.1511 0
425 1 58.9107 50.5168 0
426 1 56.1061 73.8549 0
427 2 39.5244 14.9766 0
428 1 51.3207 50.9794 0
429 1 58.8339 71.0296 0
430 1 36.8542 37.1747 0
431 1 0.344194 29.7857 0
432 1 63.6009 48.9996 0
433 1 29.1841 69.403 0
434 1 1.7602 42.9349 0
435 1 64.0854 34.0523 0
436 2 68.1476 38.9587 0
437 2 43.9383 60.1311 0
438 1 38.7372 61.3473 0
439 2 41.3887 12.5208 0
440 1 43.4591 43.6648 0
441 2 68.4564 13.8256 0
442 1 9.70346 37.9199 0
443 1 54.4566 16.8487 0
444 1 16.6139 75.2458 0
445 2 69.3252 67.7068 0
446 1 61.7674 42.1092 0
447 1 26.9313 70.7477 0
448 1 47.0454 37.9631 0
449 1 37.0697 73.4874 0
450 2 48.4622 59.5959 0
451 2 6.61219 61.5374 0
452 1 66.5499 10.6144 0
453 1 28.4788 76.154 0
454 2 62.7648 29.7766 0
455 2 26.4881 68.0067 0
456 1 11.4647 44.5416 0
457 2 18.6331 2.22591 0
458 1 38.1071 0.0527628 0
459 2 15.6962 56.6776 0
460 1 5.80601 4.49372 0
461 2 27.8179 29.56 0
462 1 45.8376 24.4555 0
463 1 76.1219 69.6745 0
464 1 9.5681 48.018 0
465 2 40.7436 45.0351 0
466 1 21.4841 13.1502 0
467 2 11.6899 0.964054 0
468 1 19.3696 36.2139 0
469 1 1.79388 1.84028 0
470 1 61.8765 10.468 0
471 2 74.1108 40.8145 0
472 1 25.5393 42.8039 0
473 1 61.6756 66.0511 0
474 1 33.4224 54.6254 0
475 1 22.495 59.689 0
476 2 39.153 32.1533 0
477 1 60.7307 11.6007 0
478 2 34.3188 74.2318 0
479 1 33.4637 22.2628 0
480 1 19.8654 25.5792 0
481 1 7.09254 18.6513 0
482 1 10.8078 25.0887 0
483 2 1.01548 1.44292 0
484 1 14.4142 38.2226 0
485 1 21.262 57.1958 0
486 1 7.43541 4.8231 0
487 2 71.6245 10.1881 0
488 1 58.7637 5.95325 0
489 1 52.2402 15.3963 0
490 1 35.301 31.1643 0
491 1 30.5969 42.4155 0
492 2 61.3693 9.77744 0
493 1 72.6479 7.86794 0
494 1 67.5657 32.0212 0
495 2 22.2029 49.0404 0
496 2 52.8771 42.6298 0
497 2 40.8524 7.00926 0
498 1 23.4228 25.7407 0
499 1 36.6914 76.2988 0
500 1 3.15993 4.03863 0
501 2 45.4858 43.4203 0
502 1 16.6169 24.7106 0
503 1 50.2534 9.94304 0
504 1 37.0323 32.5785 0
505 2 26.8753 77.0354 0
506 2 17.7634 65.3021 0
507 1 42.0548 37.2533 0
508 1 12.8638 32.6866 0
509 1 28.9384 24.8441 0
510 1 7.23223 38.8129 0
511 1 69.1385 26.6041 0
512 1 54.5832 53.2623 0
513 1 11.8215 34.2645 0
514 1 25.3593 64.2077 0
515 2 61.5593 11.2732 0
516 2 11.4887 38.6521 0
517 2 75.6277 74.1287 0
518 2 19.3068 54.2148 0
519 2 32.8716 1.98336 0
520 1 74.4951 37.0329 0
521 1 42.1336 24.4627 0
522 2 24.2618 66.2145 0
523 1 77.0565 12.0883 0
524 1 70.5956 34.6707 0
525 1 22.6969 0.00899275 0
526 2 76.9214 21.9683 0
527 1 49.3408 26.3683 0
528 2 74.7765 4.86366 0
529 2 34.5246 46.1081 0
530 1 8.01101 59.5408 0
531 2 76.6232 68.9653 0
532 2 32.1592 60.8619 0
533 1 72.9156 5.33786 0
534 1 34.5031 27.1226 0
535 1 29.1189 19.1972 0
536 1 32.5085 65.7688 0
537 1 35.0111 47.9054 0
538 2 16.2628 21.5713 0
539 2 46.0044 76.8656 0
540 1 60.9845 40.5482 0
541 2 26.2461 8.27622 0
542 1 51.2182 56.8412 0
543 2 69.4819 55.4196 0
544 2 51.9693 10.7194 0
545 1 28.1823 22.7848 0
546 1 33.8406 3.23768 0
547 1 10.0942 14.2402 0
548 2 23.4077 3.34522 0
549 2 64.8932 22.7807 0
550 2 5.35845 39.5646 0
551 1 30.4053 8.57083 0
552 2 70.6671 40.138 0
553 2 29.4982 44.7548 0
554 1 53.0253 61.8462 0
555 1 49.9218 57.0827 0
556 1 73.1728 68.1596 0
557 1 62.1371 53.8688 0
558 1 2.71357 68.5434 0
559 1 72.765 36.1095 0
560 2 21.3217 61.4689 0
561 1 6.40914 1.42023 0
562 2 4.39454 11.1234 0
563 2 54.2171 48.7189 0
564 1 70.0315 68.1385 0
565 2 21.712 1.4524 0
566 2 18.107 23.6224 0
567 1 49.1453 42.3159 0
568 2 22.8685 74.2642 0
569 2 15.5844 27.339 0
570 1 73.2373 34.1626 0
571 1 0.332697 3.38729 0
572 2 6.73481 48.6477 0
573 2 77.3416 44.8279 0
574 1 3.74929 68.2558 0
575 1 18.4567 7.35016 0
576 1 16.4652 63.2088 0
577 1 43.1301 50.4954 0
578 2 67.6548 34.2647 0
579 2 45.5756 68.3186 0
580 1 62.7212 42.4919 0
581 1 6.72658 60.6987 0
582 2 68.8556 59.6643 0
583 2 64.1453 58.863 0
584 2 33.3307 65.4185 0
585 1 60.3638 77.0922 0
586 1 48.9986 58.8038 0
587 2 14.4646 21.6214 0
588 1 49.4315 5.30906 0
589 2 53.6968 10.5044 0
590 1 24.6241 73.519 0
591 1 56.0445 6.72044 0
592 1 48.4138 74.3395 0
593 1 44.1331 13.2859 0
594 1 59.7249 63.4318 0
595 1 72.2038 65.373 0
596 2 7.26108 1.14651 0
597 1 3.47367 44.0802 0
598 1 69.2037 8.86269 0
599 1 2.61838 50.9301 0
600 1 77.4223 47.6672 0
601 2 42.3108 36.2448 0
602 1 62.4031 14.1855 0
603 2 71.0309 50.9313 0
604 2 62.5111 16.4566 0
605 1 52.1247 69.0482 0
606 1 41.6392 4.13274 0
607 1 75.9435 1.32049 0
608 2 1.36121 40.3661 0
609 2 40.8429 0.532673 0
610 1 7.78112 49.8553 0
611 1 54.0039 58.6856 0
612 1 76.77 6.04119 0
613 1 0.152736 22.5419 0
614 2 50.4849 28.6475 0
615 1 34.4966 39.1384 0
616 1 39.8244 16.0048 0
617 1 67.6182 1.53181 0
618 2 12.0546 42.6577 0
619 2 54.1922 42.4662 0
620 2 70.969 73.5634 0
621 2 58.0561 36.1118 0
622 1 60.9807 18.1036 0
623 1 37.456 11.2215 0
624 2 20.5202 54.8341 0
625 1 27.0117 76.2433 0
626 1 73.6476 29.0025 0
627 2 1.31982 25.6909 0
628 1 28.6741 58.041 0
629 2 77.0443 26.4007 0
630 1 29.1631 73.0596 0
631 1 57.4489 37.8549 0
632 1 21.5678 65.1522 0
633 2 25.4898 71.9254 0
634 1 18.9951 50.6154 0
635 2 41.6479 43.5684 0
636 2 37.09 40.8667 0
637 1 11.1391 10.9733 0
638 1 67.3935 40.7448 0
639 1 70.3479 46.1803 0
640 1 0.288766 54.0591 0
641 1 36.6355 33.6273 0
642 1 9.67051 33.7525 0
643 1 50.192 45.0887 0
644 2 19.1954 27.2218 0
645 1 57.1152 52.151 0
646 1 46.3455 46.895 0
647 2 23.2277 9.90302 0
648 1 64.4809 12.3338 0
649 2 11.0226 68.9499 0
650 2 47.3604 62.167 0
651 1 46.3094 12.4671 0
652 1 29.5799 70.9748 0
653 2 13.5171 22.963 0
654 2 10.2896 3.89006 0
655 1 5.55425 51.6763 0
656 1 72.7046 53.8476 0
657 1 33.7147 46.4968 0
658 1 71.3942 13.0297 0
659 2 1.0041 66.1355 0
660 1 27.1269 35.2424 0
661 1 37.3658 9.70115 0
662 1 32.6423 60.0717 0
663 1 10.602 28.6104 0
664 1 57.8856 75.7271 0
665 2 49.1519 76.9404 0
666 2 12.8728 58.175 0
667 1 26.3282 73.6627 0
668 2 7.54409 76.389 0
669 1 4.30106 9.26846 0
670 2 43.887 37.6774 0
671 2 37.3376 17.5507 0
672 1 9.76674 19.4651 0
673 1 6.70858 16.5526 0
674 1 32.5736 42.9191 0
675 2 6.42612 58.4406 0
676 2 38.2276 6.17937 0
677 1 41.5481 54.3771 0
678 1 53.8522 39.3806 0
679 1 45.7859 69.1213 0
680 1 31.6895 53.6465 0
681 1 26.4052 53.9348 0
682 1 62.3393 59.3749 0
683 1 18.0646 59.3549 0
684 1 64.4335 68.9774 0
685 2 35.9547 18.7065 0
686 1 51.1422 5.57178 0
687 1 41.629 18.8576 0
688 2 53.4273 73.5045 0
689 1 72.113 62.5142 0
690 1 66.371 72.6652 0
691 1 41.742 39.8629 0
692 2 60.0234 43.9945 0
693 1 71.2963 77.0696 0
694 2 53.6852 64.2461 0
695 1 42.1317 11.8865 0
696 2 35.5802 47.1507 0
697 1 25.1949 12.8839 0
698 1 8.45863 3.51358 0
699 1 66.7901 13.6665 0
700 1 72.0231 46.9677 0
701 1 64.202 31.0811 0
702 1 63.4929 65.5368 0
703 2 72.3342 1.20751 0
704 2 8.30472 61.2201 0
705 2 5.00675 7.3291 0
706 1 52.2986 51.5397 0
707 2 59.8945 38.4511 0
708 1 50.4364 43.4165 0
709 1 51.5005 73.0478 0
710 2 60.6773 27.8391 0
711 1 55.9568 54.0158 0
712 2 62.9579 32.6067 0
713 2 68.5042 70.2906 0
714 2 0.678372 64.917 0
715 1 45.2609 19.0647 0
716 1 76.7223 29.8851 0
717 1 29.8169 63.38 0
718 1 14.0213 3.62079 0
719 1 53.4452 37.1267 0
720 2 49.3209 38.5797 0
721 2 66.9899 39.9655 0
722 1 49.0857 7.9611 0
723 2 39.9415 75.5005 0
724 2 10.5444 59.5495 0
725 1 50.8765 39.3546 0
726 1 8.35182 29.7503 0
727 2 12.8281 1.41584 0
728 1 67.5658 55.7358 0
729 2 21.662 59.6274 0
730 1 32.7885 27.439 0
731 2 16.7598 36.318 0
732 1 16.4764 54.2535 0
733 1 29.7123 29.4519 0
734 2 66.5083 46.2936 0
735 1 66.787 67.3362 0
736 1 47.0558 49.6594 0
737 2 4.24549 45.7141 0
738 1 13.6489 34.3468 0
739 1 17.9551 37.5085 0
740 1 48.5972 38.1298 0
741 2 57.2276 55.3864 0
742 1 59.1582 37.3448 0
743 1 27.1258 62.17 0
744 2 72.3097 19.1721 0
745 1 23.1315 72.7687 0
746 1 35.1479 10.0488 0
747 1 47.5728 76.2017 0
748 2 42.994 70.0585 0
749 2 22.2764 24.4298 0
750 1 55.36 35.1586 0
751 1 57.9098 40.3659 0
752 2 1.53181 71.2632 0
753 1 53.1436 40.2014 0
754 2 21.7491 15.3527 0
755 1 24.0901 49.9396 0
756 2 49.4141 76.0084 0
757 1 48.5506 19.6186 0
758 1 6.00535 9.74229 0
759 1 61.9809 47.0157 0
760 1 11.9903 10.34 0
761 1 70.1328 71.441 0
762 1 15.3 57.4255 0
763 2 77.1816 6.82667 0
764 1 75.0387 57.1061 0
765 2 46.9678 57.256 0
766 1 62.5373 22.8177 0
767 1 13.6226 1.03381 0
768 1 65.2356 7.95017 0
769 1 61.9251 49.9261 0
770 2 60.2125 72.3188 0
771 1 18.9494 39.9324 0
772 1 44.7258 50.9235 0
773 1 40.8964 43.1414 0
774 2 32.707 25.7511 0
775 1 71.6113 30.6375 0
776 2 44.3631 42.4178 0
777 1 70.4121 55.4049 0
778 2 10.5765 62.9767 0
779 1 45.2184 25.3651 0
780 1 17.0112 6.22709 0
781 1 30.7315 35.7317 0
782 1 57.3787 65.0585 0
783 1 60.8393 35.4889 0
784 1 70.7304 50.0175 0
785 2 8.66947 11.5212 0
786 1 73.5057 70.1298 0
787 1 20.8655 66.7074 0
788 1 39.8849 55.0191 0
789 1 11.0062 4.39505 0
790 1 51.7554 70.037 0
791 1 45.9326 13.4353 0
792 1 8.56065 25.0096 0
793 1 25.2556 15.0968 0
794 2 70.6308 16.2879 0
795 2 75.4363 13.921 0
796 2 75.7429 67.8742 0
797 1 44.4687 65.3444 0
798 1 38.4359 19.1617 0
799 1 44.1826 76.4782 0
800 1 30.5573 70.4795 0
801 2 6.37536 25.8032 0
802 2 27.9614 45.5343 0
803 2 23.5724 77.2371 0
804 2 52.653 36.2714 0
805 1 23.8457 72.0145 0
806 1 52.6391 70.5836 0
807 2 39.6354 50.5431 0
808 1 50.1908 47.7883 0
809 2 36.3145 62.3849 0
810 1 57.4784 76.7498 0
811 1 28.6934 61.1345 0
812 2 59.788 48.185 0
813 2 46.125 58.4715 0
814 1 54.397 31.2946 0
815 2 40.9545 17.0171 0
816 1 28.0814 34.7693 0
817 1 67.4954 75.4203 0
818 2 36.7855 16.0833 0
819 2 45.37 57.2448 0
820 1 66.7635 70.009 0
821 1 16.8993 65.0153 0
822 1 56.2585 76.7963 0
823 1 17.224 55.6383 0
824 2 35.118 40.7723 0
825 1 29.1497 41.4938 0
826 1 32.1226 75.1489 0
827 1 7.23192 25.9678 0
828 1 76.9098 51.2577 0
829 1 72.2333 40.1852 0
830 2 47.9255 64.6399 0
831 2 43.3115 4.65705 0
832 1 73.6626 14.1456 0
833 1 24.488 43.184 0
834 2 48.674 5.74409 0
835 1 68.1775 6.42684 0
836 1 57.833 27.4792 0
837 1 56.6095 41.5388 0
838 1 39.0988 53.1125 0
839 1 16.1629 60.2306 0
840 2 15.8376 46.6183 0
841 1 36.8606 52.7062 0
842 2 11.157 61.3079 0
843 1 5.55322 42.5555 0
844 1 63.1987 21.9138 0
845 2 27.0326 3.67708 0
846 1 49.8237 39.4309 0
847 1 11.0573 57.6942 0
848 2 69.0471 47.5566 0
849 1 74.0529 10.7697 0
850 1 67.3582 19.4842 0
851 1 39.4809 18.7379 0
852 1 12.1115 1.92759 0
853 1 42.6083 61.548 0
854 1 37.9599 70.1216 0
855 1 39.4623 25.6804 0
856 2 18.7712 41.8524 0
857 1 57.9554 34.2434 0
858 2 34.3712 28.9264 0
859 1 13.3447 64.6875 0
860 2 2.13929 58.4562 0
861 2 60.2599 40.1726 0
862 2 3.35822 69.102 0
863 1 59.9547 24.2173 0
864 1 60.3799 53.7866 0
865 2 66.0963 67.849 0
866 1 60.697 17.1232 0
867 2 31.5667 21.8388 0
868 1 37.106 61.8834 0
869 1 62.5535 20.2298 0
870 1 0.139191 52.8634 0
871 1 63.2853 26.0305 0
872 1 42.0149 50.6827 0
873 1 50.7828 62.3096 0
874 1 4.29659 71.7215 0
875 1 33.9135 57.8308 0
876 2 51.5394 8.08118 0
877 1 13.4148 55.4259 0
878 2 14.5638 16.0488 0
879 1 76.3385 13.8218 0
880 2 31.8167 33.4692 0
881 2 51.9767 29.4654 0
882 2 47.9299 73.6474 0
883 1 25.7372 20.0574 0
884 1 56.0593 36.8389 0
885 1 39.6848 4.24047 0
886 1 37.049 60.1687 0
887 2 54.9515 50.066 0
888 1 0.56468 76.4998 0
889 2 59.3842 49.7578 0
890 2 7.64784 25.1884 0
891 1 38.1026 10.4339 0
892 1 40.0342 67.7539 0
893 1 29.9745 53.4719 0
894 1 76.9647 14.7952 0
895 2 32.2887 52.967 0
896 1 37.4241 2.85714 0
897 2 35.6576 17.0285 0
898 1 30.6916 43.4602 0
899 1 2.26461 75.7604 0
900 2 38.0279 0.946601 0
901 1 53.4541 41.9151 0
902 1 24.4515 75.252 0
903 1 37.9463 40.632 0
904 2 0.295961 37.6406 0
905 1 63.7394 62.3433 0
906 1 68.8332 44.5855 0
907 1 3.6574 29.8882 0
908 1 50.2751 23.4734 0
909 1 0.260252 48.7041 0
910 2 1.76542 50.7053 0
911 2 4.94732 4.66258 0
912 2 36.2389 32.8703 0
913 2 31.939 51.3952 0
914 1 18.0389 13.0314 0
915 2 64.714 5.47499 0
916 1 3.52297 40.0219 0
917 2 5.12648 33.2383 0
918 2 19.5065 35.323 0
919 1 8.26538 57.7261 0
920 1 15.9553 47.5958 0
921 1 0.0641983 27.2696 0
922 2 50.9904 19.2328 0
923 2 12.3063 24.2061 0
924 1 39.2868 17.7547 0
925 1 66.3757 47.1733 0
926 2 35.5779 35.36 0
927 1 68.3965 0.749226 0
928 1 52.35 59.0311 0
929 2 52.2366 32.3862 0
930 2 20.0549 15.9555 0
931 1 40.8625 47.6064 0
932 1 70.4678 39.1021 0
933 1 34.4148 21.8703 0
934 1 2.03632 60.0349 0
935 1 10.8285 50.9187 0
936 2 42.2633 4.8212 0
937 1 13.9097 73.1202 0
938 1 36.7854 67.5842 0
939 2 49.7283 51.7245 0
940 1 75.8882 46.8394 0
941 1 77.0031 17.179 0
942 1 37.9237 30.0419 0
943 2 22.3457 16.7162 0
944 2 2.0468 42.0323 0
945 1 40.4532 25.4205 0
946 1 64.2861 67.149 0
947 2 24.7577 2.17552 0
948 1 39.343 68.5988 0
949 1 27.0208 12.5743 0
950 2 5.07199 9.70572 0
951 1 68.9739 65.7284 0
952 2 52.6018 2.85286 0
953 2 7.89052 44.9505 0
954 2 29.9813 62.4582 0
955 1 27.3484 38.4257 0
956 2 58.8816 11.089 0
957 1 48.3281 23.9203 0
958 2 19.4388 2.85983 0
959 2 74.6438 26.5375 0
960 2 29.1524 66.8293 0
961 1 49.4345 52.5884 0
962 1 24.0671 1.71684 0
963 1 16.3013 12.9458 0
964 2 8.60113 9.76365 0
965 2 53.7476 53.6955 0
966 1 0.699356 62.782 0
967 1 49.9883 35.821 0
968 1 18.3376 0.204727 0
969 1 58.8966 23.9934 0
970 2 22.4394 4.82019 0
971 1 21.3331 14.568 0
972 1 6.80418 25.0474 0
973 1 1.14894 35.8889 0
974 2 1.09662 35.0089 0
975 2 73.0973 65.4925 0
976 2 34.7835 19.9448 0
977 1 35.9272 63.175 0
978 2 4.8449 77.2479 0
979 2 35.9889 65.7057 0
980 1 72.6072 14.1074 0
981 1 73.7112 58.0936 0
982 1 8.00429 54.7641 0
983 1 18.3949 24.4361 0
984 1 9.42737 57.8904 0
985 1 34.6819 11.0319 0
986 1 38.0943 52.7423 0
987 2 18.0904 12.1138 0
988 2 42.3092 34.7664 0
989 2 9.95387 34.6608 0
990 2 69.9406 51.7851 0
991 2 46.3468 15.086 0
992 1 62.5216 34.5009 0
993 2 28.8206 5.9603 0
994 2 2.00516 54.9831 0
995 1 38.8453 22.359 0
996 2 54.7174 56.8461 0
997 2 43.6769 30.7145 0
998 2 59.5752 75.4061 0
999 2 39.2989 26.5381 0
1000 2 0.401301 49.5632 0
1001 1 41.7364 65.5847 0
1002 1 23.7582 34.7588 0
1003 1 9.72628 54.3509 0
1004 1 7.36476 22.3926 0
1005 2 10.6992 23.5776 0
1006 2 67.7954 60.8106 0
1007 1 18.876 20.3026 0
1008 1 47.9114 17.1629 0
1009 1 31.0593 33.0161 0
1010 1 11.5869 43.4886 0
1011 2 10.4637 22.2423 0
1012 2 2.39986 24.2327 0
1013 2 65.1813 55.9268 0
1014 1 73.961 15.1654 0
1015 1 76 9.15298 0
1016 1 37.1943 48.0218 0
1017 2 68.686 54.2824 0
1018 1 26.328 24.9803 0
1019 1 44.2479 29.08 0
1020 2 32.5717 6.4179 0
1021 2 15.8194 24.3073 0
1022 1 4.82133 60.7777 0
1023 1 41.1842 9.45856 0
1024 1 9.35983 67.3324 0
1025 1 36.9412 65.6647 0
1026 1 8.19622 40.16 0
1027 1 47.5383 2.65305 0
1028 1 2.2453 33.1305 0
1029 1 49.113 18.3753 0
1030 2 46.7159 47.9315 0
1031 2 37.6685 36.9826 0
1032 1 16.4274 73.1302 0
1033 1 57.7914 19.5326 0
1034 1 35.2219 29.4192 0
1035 1 66.1187 28.0126 0
1036 2 73.5858 45.8599 0
1037 1 30.8333 73.2903 0
1038 1 68.6099 60.4492 0
1039 1 5.20135 31.3327 0
1040 2 65.0303 34.1112 0
1041 1 35.2928 65.2157 0
1042 2 62.8252 68.2671 0
1043 2 60.8675 58.2749 0
1044 1 68.003 22.7807 0
1045 1 66.9744 23.3576 0
1046 1 40.973 68.3733 0
1047 2 10.3771 47.9339 0
1048 1 53.3077 0.147746 0
1049 1 59.9136 49.0816 0
1050 2 45.4724 6.37942 0
1051 1 43.6401 31.8062 0
1052 1 66.272 44.3186 0
1053 2 32.6541 18.4466 0
1054 1 55.0691 7.19984 0
1055 2 32.7907 46.5089 0
1056 2 14.6632 45.2221 0
1057 1 11.9302 71.586 0
1058 1 27.2383 5.9219 0
1059 1 9.39989 75.2406 0
1060 2 22.0612 41.9494 0
1061 1 9.98033 23.0845 0
1062 2 16.9283 41.3265 0
1063 1 0.175652 67.8897 0
1064 1 23.3333 5.18539 0
1065 2 29.5862 52.6533 0
1066 1 37.3068 46.2159 0
1067 1 13.8712 10.411 0
1068 2 35.6459 67.0616 0
1069 1 68.6258 23.7082 0
1070 2 8.07745 34.5247 0
1071 2 49.6852 42.992 0
1072 2 9.44498 48.9276 0
1073 2 15.8545 3.96474 0
1074 2 32.7878 43.8341 0
1075 1 75.8888 49.8144 0
1076 1 41.2811 7.77657 0
1077 1 41.7919 32.7416 0
1078 2 71.4368 26.2725 0
1079 2 39.0546 10.7827 0
1080 2 30.0198 72.9 0
1081 2 45.5488 48.7487 0
1082 2 6.16754 27.4545 0
1083 2 21.5398 20.0302 0
1084 1 44.1896 58.1394 0
1085 1 19.2553 52.3816 0
1086 1 69.9715 67.006 0
1087 1 29.5776 72.087 0
1088 1 44.8483 63.1379 0
1089 2 8.56407 31.4949 0
1090 1 43.1019 34.4707 0
1091 2 27.6904 17.7526 0
1092 1 63.2264 53.679 0
1093 1 69.1489 32.9831 0
1094 2 43.1864 55.5379 0
1095 1 25.309 71.1081 0
1096 2 48.286 18.8248 0
1097 1 76.064 17.5745 0
1098 1 62.8005 43.6423 0
1099 1 30.8989 5.23965 0
1100 1 68.0365 2.75225 0
1101 1 74.8385 11.5635 0
1102 1 26.1576 74.8058 0
1103 1 51.1387 70.886 0
1104 1 47.0831 58.1741 0
1105 1 48.4023 40.286 0
1106 1 16.5883 71.3001 0
1107 2 45.4092 62.4158 0
1108 1 55.6019 31.4023 0
1109 1 73.019 25.4509 0
1110 2 14.7431 11.8507 0
1111 1 2.67257 56.8308 0
1112 1 75.761 18.6645 0
1113 2 75.5581 7.45345 0
1114 2 14.2608 53.3693 0
1115 2 33.0235 49.4003 0
1116 1 77.2765 64.7195 0
1117 1 66.9061 56.5648 0
1118 1 12.7956 75.0991 0
1119 2 11.2188 64.3005 0
1120 1 40.8348 58.0899 0
1121 2 21.1996 64.3488 0
1122 1 31.9437 32.5028 0
1123 2 23.0255 51.8754 0
1124 1 52.4385 62.9497 0
1125 2 14.5026 4.37693 0
1126 2 15.3861 20.2256 0
1127 1 75.3026 24.1329 0
1128 1 67.1684 51.9413 0
1129 1 60.8603 39.579 0
1130 1 30.5107 47.351 0
1131 1 62.7363 15.1782 0
1132 2 75.9193 63.8068 0
1133 2 57.1653 21.0685 0
1134 2 20.978 72.141 0
1135 1 1.07784 68.478 0
1136 2 51.1497 27.0137 0
1137 1 51.1188 61.2715 0
1138 1 30.5407 13.5229 0
1139 2 57.7348 52.7591 0
1140 2 8.84176 22.8804 0
1141 1 75.0157 65.7909 0
1142 1 26.8463 51.9978 0
1143 1 48.1237 44.7802 0
1144 2 61.234 16.3154 0
1145 1 37.9038 62.5983 0
1146 1 15.393 18.8587 0
1147 1 28.3027 25.6722 0
1148 1 10.9066 36.689 0
1149 1 57.7179 29.6296 0
1150 2 65.4461 61.1587 0
1151 1 21.9932 4.12065 0
1152 1 60.0316 52.0118 0
1153 1 71.6217 29.629 0
1154 1 13.6797 4.61729 0
1155 2 58.6239 20.9828 0
1156 1 44.6348 32.2834 0
1157 1 12.2298 18.042 0
1158 2 58.4766 47.7879 0
1159 2 5.92624 70.7497 0
1160 1 33.1776 8.2246 0
1161 2 44.4396 56.1135 0
1162 1 16.3683 10.0364 0
1163 2 13.0739 73.2109 0
1164 1 24.0192 58.8589 0
1165 1 20.8736 45.3625 0
1166 2 15.0389 50.5742 0
1167 1 27.8947 20.3365 0
1168 1 56.3483 64.6497 0
1169 1 19.7192 66.9321 0
1170 2 6.46458 33.501 0
1171 1 48.5645 34.0086 0
1172 1 23.1571 6.8825 0
1173 1 51.753 63.8745 0
1174 1 38.9714 29.4962 0
1175 2 62.7013 44.5214 0
1176 1 68.4256 36.4639 0
1177 1 47.4727 69.9643 0
1178 2 61.2145 47.5389 0
1179 1 72.4252 32.6445 0
1180 1 52.0742 18.0204 0
1181 1 54.6757 23.0735 0
1182 1 59.8784 73.932 0
1183 2 42.915 73.4975 0
1184 2 28.1531 21.9209 0
1185 1 17.5796 63.1768 0
1186 1 48.3928 48.9899 0
1187 1 73.9846 72.1772 0
1188 2 4.88162 37.9835 0
1189 1 60.7356 65.3433 0
1190 1 28.2622 51.3767 0
1191 2 72.0532 5.18182 0
1192 1 24.3472 46.9815 0
1193 1 47.6664 18.238 0
1194 2 16.29 16.0256 0
1195 1 74.0605 48.8293 0
1196 1 21.76 49.779 0
1197 1 35.5342 38.9044 0
1198 1 62.0366 75.8115 0
1199 2 57.7873 62.5182 0
1200 1 27.6577 9.41359 0
1201 1 3.25473 73.1992 0
1202 1 5.88009 48.8823 0
1203 2 47.5159 12.5505 0
1204 1 57.5872 56.546 0
1205 1 66.852 50.1629 0
1206 1 52.1634 5.08839 0
1207 1 31.8565 62.6693 0
1208 1 75.4105 58.0969 0
1209 2 65.2697 59.7579 0
1210 1 69.7158 31.9843 0
1211 2 25.5225 35.4952 0
1212 1 33.9397 36.3197 0
1213 1 61.1077 68.8722 0
1214 1 60.4562 23.2263 0
1215 1 10.928 71.7852 0
1216 1 11.6868 49.7101 0
1217 2 68.9078 2.63463 0
1218 2 62.7849 21.0992 0
1219 1 30.2552 15.2851 0
1220 1 62.0375 18.0449 0
1221 1 61.758 54.8824 0
1222 2 66.039 74.5206 0
1223 1 42.1643 48.0921 0
1224 1 0.842042 34.1653 0
1225 1 2.46522 25.7896 0
1226 2 65.9431 65.048 0
1227 1 41.9285 57.0164 0
1228 1 76.4462 70.7784 0
1229 2 48.025 9.41017 0
1230 1 25.2995 49.6861 0
1231 2 53.0011 18.1191 0
1232 1 67.8836 38.1037 0
1233 1 39.0021 58.1236 0
1234 1 1.8789 67.8486 0
1235 1 18.2077 45.8254 0
1236 1 51.7931 62.0168 0
1237 1 37.9297 20.751 0
1238 1 24.5921 7.64088 0
1239 1 12.7992 22.591 0
1240 1 24.4127 62.8834 0
1241 1 76.2458 62.8315 0