ITEM: TIMESTEP
0
ITEM: NUMBER OF ATOMS
7200
ITEM: BOX BOUNDS xy xz yz pp pp pp
0.0000000000000000e+00 7.7459666924100006e+01 0.0000000000000000e+00
0.0000000000000000e+00 7.7459666924100006e+01 0.0000000000000000e+00
-1.2909944490000000e-01 1.2909944490000000e-01 0.0000000000000000e+00
ITEM: ATOMS id type x y z
1 1 12.1355 20.1309 0
2 1 14.8871 64.0345 0
3 1 75.1285 71.0705 0
4 1 20.3248 8.01293 0
5 1 34.5565 56.0083 0
6 1 56.7337 28.5531 0
7 2 5.40338 3.24798 0
8 2 64.7277 46.355 0
9 1 42.0996 56.1314 0
10 2 19.0655 14.6652 0
11 2 25.4126 53.256 0
12 1 55.1576 11.5988 0
13 2 23.2129 5.99891 0
14 1 46.4784 70.71 0
15 1 39.409 31.2818 0
16 1 18.1945 14.9038 0
17 1 31.434 40.0625 0
18 1 33.8272 5.82751 0
19 1 27.0128 57.731 0
20 2 44.7732 3.66226 0
21 1 12.2083 65.9635 0
22 1 54.3416 10.9089 0
23 1 75.5923 45.7249 0
24 1 55.9207 66.3806 0
25 1 6.61872 70.9435 0
26 1 21.1315 67.6196 0
27 2 28.9962 63.7704 0
28 1 51.2895 74.1811 0
29 2 22.6019 47.9246 0
30 2 25.3177 32.103 0
31 1 15.1396 53.4334 0
32 1 51.1237 37.9455 0
33 1 60.8152 48.6396 0
34 2 45.3503 9.68518 0
35 1 75.1674 63.1397 0
36 1 30.549 59.9994 0
37 1 22.2137 61.5067 0
38 1 45.849 19.8108 0
39 1 22.3945 5.68386 0
40 2 24.8363 59.1409 0
41 2 18.459 64.739 0
42 1 20.9532 1.1535 0
43 1 18.9974 33.4782 0
44 1 34.2831 62.6532 0
45 1 3.39732 34.5158 0
46 1 68.1187 7.67822 0
47 1 73.5799 59.1483 0
48 1 44.0345 68.315 0
49 2 77.2247 4.17835 0
50 1 31.009 66.6374 0
51 1 1.29612 10.0127 0
52 2 33.1592 24.2593 0
53 1 53.6245 18.6897 0
54 1 49.6921 30.2916 0
55 1 9.66902 0.951967 0
56 1 45.9986 26.073 0
57 1 67.4652 43.0779 0
58 1 69.7749 69.1055 0
59 1 34.1887 2.18246 0
60 1 28.5845 3.50429 0
61 1 40.5023 75.973 0
62 1 52.1986 45.038 0
63 1 57.1859 9.99475 0
64 1 50.6362 45.7335 0
65 1 66.9397 73.6963 0
66 2 56.026 11.5049 0
67 2 40.8386 35.9251 0
68 2 0.898416 29.1565 0
69 1 61.9377 45.3592 0
70 1 8.46415 35.5049 0
71 2 7.60834 42.2336 0
72 1 76.7551 3.39137 0
73 1 6.20444 64.1801 0
74 2 41.5661 22.7805 0
75 1 75.4692 53.3274 0
76 1 19.7331 46.9443 0
77 1 25.0097 74.5241 0
78 1 3.6503 15.5452 0
79 1 12.5609 73.3583 0
80 1 43.5288 16.6242 0
81 1 54.9955 62.3732 0
82 2 44.3992 16.7061 0
83 1 5.80923 32.9489 0
84 1 33.0315 45.7641 0
85 1 34.4996 20.8185 0
86 2 34.6123 64.772 0
87 1 71.5327 34.6994 0
88 1 18.4632 54.7859 0
89 1 27.7564 13.071 0
90 1 37.4699 37.928 0
91 2 45.8988 41.0267 0
92 2 41.225 56.1441 0
93 1 27.7761 16.9207 0
94 1 33.4635 55.6764 0
95 2 39.2172 56.7634 0
96 1 65.3482 1.28169 0
97 1 44.2344 49.03 0
98 2 2.9063 60.0674 0
99 1 61.9076 48.2289 0
100 2 32.4552 30.7437 0
101 1 47.6557 54.4438 0
102 1 56.0178 21.6408 0
103 1 56.6196 70.4469 0
104 1 2.69389 60.958 0
105 2 40.1151 3.02844 0
106 2 30.4834 34.7137 0
107 1 13.2291 31.334 0
108 1 0.764338 0.860504 0
109 1 35.73 41.6012 0
110 2 65.2171 25.4789 0
111 1 66.0229 12.0007 0
112 1 34.2056 72.8281 0
113 2 0.365081 60.3787 0
114 2 74.6207 29.4153 0
115 2 30.3082 12.8555 0
116 2 74.6562 53.6371 0
117 1 16.2667 45.9165 0
118 2 46.8142 26.4864 0
119 1 62.7548 0.0318609 0
120 2 5.99905 49.8205 0
121 1 6.24767 3.53286 0
122 1 19.9731 33.0074 0
123 2 5.39221 17.6911 0
124 1 46.3667 57.2383 0
125 1 31.7079 27.1901 0
126 1 58.0097 52.193 0
127 1 4.49246 58.9568 0
128 1 14.4671 23.4654 0
129 1 16.4827 52.2497 0
130 1 7.22576 2.03092 0
131 1 59.0751 24.9815 0
132 2 31.1893 41.8786 0
133 2 52.7041 6.9923 0
134 1 65.7667 50.9663 0
135 1 31.659 30.3415 0
136 2 55.1615 46.4837 0
137 1 61.6888 56.6737 0
138 2 70.4234 48.1216 0
139 1 68.3848 27.2383 0
140 1 3.57324 21.804 0
141 2 47.9721 63.5235 0
142 1 6.55364 22.6024 0
143 2 40.4685 70.1071 0
144 2 47.2655 75.234 0
145 2 18.3242 53.0507 0
146 1 54.9226 4.10997 0
147 1 9.47591 39.0309 0
148 1 46.2846 53.3977 0
149 2 67.9157 49.2014 0
150 1 32.7924 56.5543 0
151 2 29.4811 13.9287 0
152 1 48.8377 63.1393 0
153 2 17.3873 46.3523 0
154 2 31.4659 72.2455 0
155 1 70.4359 49.0281 0
156 1 43.5412 10.3256 0
157 1 49.1258 71.0845 0
158 1 60.2184 69.2389 0
159 2 10.611 26.0505 0
160 1 38.165 17.5095 0
161 1 7.15416 63.5573 0
162 2 72.7228 23.9999 0
163 1 30.5856 27.1547 0
164 1 60.2397 29.4657 0
165 1 75.7538 27.786 0
166 1 1.99555 44.8022 0
167 1 39.2695 0.829298 0
168 1 38.4577 72.8506 0
169 1 56.8019 30.9788 0
170 1 57.3709 0.951752 0
171 2 36.8128 61.0375 0
172 2 33.6954 53.7731 0
173 2 43.7825 24.3629 0
174 2 27.5451 55.9273 0
175 2 30.9479 26.3167 0
176 1 46.2527 16.2965 0
177 1 19.5706 58.6748 0
178 1 61.8232 61.3724 0
179 1 64.6295 24.8239 0
180 2 33.2927 39.5846 0
181 1 45.2374 27.625 0
182 1 61.7017 58.6318 0
183 2 12.1298 37.3774 0
184 1 5.11906 67.433 0
185 2 67.2301 29.4196 0
186 1 59.144 35.1469 0
187 1 39.5478 46.4235 0
188 1 57.2711 47.7487 0
189 2 63.7781 53.0941 0
190 1 23.2315 4.03454 0
191 1 71.7817 8.08239 0
192 1 65.4643 10.2449 0
193 2 11.0402 41.6007 0
194 2 68.5193 69.0552 0
195 1 11.0564 3.21001 0
196 2 49.4999 54.9617 0
197 2 20.2067 9.98322 0
198 1 13.3377 61.2496 0
199 2 75.6117 66.2161 0
200 1 59.9316 27.6989 0
201 2 34.6638 1.44439 0
202 2 74.5574 55.2351 0
203 1 52.3074 65.7939 0
204 1 29.6093 3.8502 0
205 1 56.1295 26.0728 0
206 2 35.8004 37.0072 0
207 2 13.9209 9.50177 0
208 1 33.7251 14.0302 0
209 1 12.1731 11.5621 0
210 2 5.37591 20.4791 0
211 1 17.1283 8.14476 0
212 2 24.7312 6.19184 0
213 2 56.0175 28.015 0
214 1 71.0997 57.8191 0
215 2 67.0437 22.369 0
216 1 20.6761 73.5741 0
217 1 59.614 34.2187 0
218 2 54.6765 58.5665 0
219 2 67.9917 42.3363 0
220 2 42.6132 63.8452 0
221 1 19.0851 45.3665 0
222 1 44.9747 12.491 0
223 2 39.1259 67.7579 0
224 2 27.7008 68.6736 0
225 1 32.4424 23.7506 0
226 2 66.3935 57.1774 0
227 2 6.03332 16.3559 0
228 1 34.5238 9.31797 0
229 1 71.03 26.8352 0
230 1 32.187 74.5046 0
231 1 10.8108 34.31 0
232 1 42.0259 12.9396 0
233 1 34.8661 7.69532 0
234 1 76.1336 8.31623 0
235 1 60.7622 59.019 0
236 2 44.6505 70.4111 0
237 1 77.0708 62.1499 0
238 2 9.34343 21.4518 0
239 1 58.5156 2.80625 0
240 2 61.7076 46.2389 0
241 1 47.3293 66.7241 0
242 1 18.5365 30.545 0
243 1 7.27707 56.2761 0
244 1 61.1403 64.3397 0
245 1 11.0286 30.8176 0
246 1 2.05657 35.5963 0
247 1 65.6287 49.8975 0
248 1 12.3569 0.70597 0
249 2 50.2869 41.1198 0
250 1 29.1074 9.43774 0
251 2 57.7034 50.2214 0
252 2 65.8071 23.2154 0
253 1 19.8724 17.4942 0
254 1 54.3979 25.0121 0
255 1 65.4415 42.9112 0
256 1 31.4766 8.59085 0
257 1 22.1189 57.9144 0
258 1 26.2476 38.6714 0
259 1 55.5385 56.83 0
260 2 43.9317 53.8957 0
261 2 26.2979 62.646 0
262 1 24.3989 33.7255 0
263 2 12.716 34.6899 0
264 2 71.4621 59.9571 0
265 1 77.0008 46.7471 0
266 1 38.1406 44.7589 0
267 2 61.5778 24.5594 0
268 2 56.7075 45.9706 0
269 1 48.1566 21.0889 0
270 2 9.12019 47.0269 0
271 2 22.6296 33.5741 0
272 2 20.4173 14.29 0
273 1 14.9394 65.135 0
274 1 32.3649 49.9777 0
275 1 8.69403 48.9484 0
276 1 75.3423 10.242 0
277 2 15.5339 71.3694 0
278 1 7.62239 17.3961 0
279 1 4.55171 44.4304 0
280 1 20.4609 35.7698 0
281 1 30.6917 38.4644 0
282 2 75.9747 26.4935 0
283 1 76.4705 55.7776 0
284 2 54.3525 38.3933 0
285 1 70.9673 52.9124 0
286 1 11.2873 63.4031 0
287 1 19.0698 76.7817 0
288 2 75.6678 3.87488 0
289 2 21.3966 39.1264 0
290 2 69.1774 76.4026 0
291 1 35.2398 22.5739 0
292 1 27.6957 58.5032 0
293 1 47.3636 19.0033 0
294 1 40.2894 2.1914 0
295 1 69.9107 3.3285 0
296 2 74.1947 8.49229 0
297 1 40.3541 59.8294 0
298 1 72.5894 35.1046 0
299 2 49.3162 36.4973 0
300 1 39.2621 43.7127 0
301 1 73.5424 19.6931 0
302 1 50.9646 35.2022 0
303 1 20.4522 32.0793 0
304 1 60.557 72.3916 0
305 2 59.1074 75.957 0
306 1 63.0798 52.5702 0
307 2 73.3773 38.7217 0
308 1 41.5765 5.24566 0
309 2 25.0015 16.9902 0
310 2 13.3405 12.9563 0
311 1 29.3257 49.4882 0
312 1 67.385 61.6063 0
313 1 74.7184 76.1357 0
314 1 40.549 45.9454 0
315 2 56.4216 31.7922 0
316 2 39.4549 63.4043 0
317 1 50.8637 20.5322 0
318 2 7.06928 31.2572 0
319 1 30.9382 25.4414 0
320 1 36.0867 61.6597 0
321 1 58.7146 68.4405 0
322 2 73.9642 11.9027 0
323 2 25.0765 63.3819 0
324 1 64.4358 41.5489 0
325 1 41.2614 6.25762 0
326 1 9.76999 58.8742 0
327 1 48.6773 54.8013 0
328 1 0.797829 37.0778 0
329 1 41.6851 42.6326 0
330 2 51.8673 34.9619 0
331 2 70.0175 4.20201 0
332 1 59.4649 28.722 0
333 1 36.9757 12.314 0
334 1 17.0638 34.7813 0
335 1 20.6484 38.7096 0
336 2 72.3203 74.3251 0
337 1 34.7641 33.7408 0
338 2 17.0921 1.56799 0
339 1 42.3661 68.3919 0
340 1 18.8081 57.9163 0
341 2 74.0457 44.2117 0
342 1 67.0189 5.8822 0
343 2 56.4137 49.8526 0
344 2 22.8289 66.0292 0
345 1 8.07664 27.7389 0
346 1 17.4376 71.8638 0
347 1 35.4385 56.5984 0
348 1 56.6029 18.9751 0
349 1 33.6947 20.1279 0
350 1 37.1912 31.1811 0
351 1 17.9387 53.8099 0
352 1 47.9286 30.7735 0
353 1 75.443 25.8037 0
354 2 22.5723 26.2227 0
355 2 43.4751 18.2802 0
356 2 11.8031 2.66692 0
357 1 68.4192 67.4796 0
358 1 24.245 3.6629 0
359 1 22.3727 14.5547 0
360 2 45.269 31.2946 0
361 2 47.9963 67.288 0
362 1 27.0517 74.581 0
363 2 37.9547 73.5446 0
364 1 13.1203 66.5525 0
365 2 8.94242 57.1828 0
366 1 24.9567 50.6175 0
367 2 19.8013 23.3425 0
368 2 51.3165 54.9832 0
369 2 65.183 70.5476 0
370 1 3.48434 28.372 0
371 1 45.9421 73.4859 0
372 2 40.5063 9.96875 0
373 1 10.4762 31.7286 0
374 2 66.5338 41.3307 0
375 1 52.2571 52.7658 0
376 2 75.449 43.137 0
377 2 58.2508 38.2443 0
378 1 20.4037 63.7712 0
379 1 13.8736 20.2121 0
380 1 9.80305 62.461 0
381 1 26.6762 23.3428 0
382 1 30.7188 23.6757 0
383 1 9.60284 11.6992 0
384 1 34.9283 51.6431 0
385 1 28.4316 77.1609 0
386 1 54.9992 40.5194 0
387 1 59.56 76.6679 0
388 2 55.9176 57.9012 0
389 1 24.58 56.6979 0
390 1 29.4676 13.0902 0
391 2 59.8671 26.7842 0
392 2 30.0445 10.2191 0
393 2 38.6636 64.8927 0
394 1 10.1353 73.7037 0
395 1 53.1206 21.8228 0
396 1 13.7453 70.5276 0
397 1 46.8486 17.2062 0
398 1 45.428 70.897 0
399 1 70.0076 18.0607 0
400 1 59.8801 74.1917 0
401 1 44.5328 11.4887 0
402 2 56.6224 16.9962 0
403 1 38.2957 51.627 0
404 1 69.2765 70.783 0
405 2 73.8147 76.2175 0
406 1 34.2059 19.1389 0
407 2 45.739 21.7635 0
408 1 63.6027 30.4419 0
409 1 18.5951 61.3708 0
410 2 67.4763 16.6885 0
411 2 66.6076 36.5731 0
412 1 58.9763 38.6819 0
413 1 7.21237 36.5984 0
414 1 71.3065 48.2955 0
415 1 7.04674 41.5788 0
416 2 73.6903 62.3707 0
417 2 75.1308 12.7651 0
418 1 54.4137 30.0951 0
419 2 56.5614 47.1571 0
420 2 24.9019 55.8864 0
421 1 60.2724 19.4176 0
422 1 2.00396 71.3202 0
423 1 4.21652 11.9729 0
424 1 60.7709 27.0241 0
425 1 58.8073 50.463 0
426 1 56.0678 73.7837 0
427 2 39.5433 14.8343 0
428 1 51.493 50.2344 0
429 1 59.107 71.123 0
430 1 36.6701 37.1197 0
431 1 0.0879532 29.5003 0
432 1 63.5627 49.0368 0
433 1 29.1506 69.496 0
434 1 1.77854 42.8567 0
435 1 64.1532 34.1853 0
436 2 68.0177 38.9917 0
437 2 43.9695 59.5589 0
438 1 38.9781 61.715 0
439 2 41.1909 12.6674 0
440 1 43.3958 43.6578 0
441 2 66.6268 15.3363 0
442 1 9.70199 38.0142 0
443 1 54.6314 16.8588 0
444 1 16.6577 75.3263 0
445 2 69.3585 67.504 0
446 1 61.7353 42.1581 0
447 1 26.9507 70.8274 0
448 1 47.0086 37.6428 0
449 1 37.1271 73.2926 0
450 2 48.1948 59.6006 0
451 2 6.52327 61.6777 0
452 1 66.6276 11.134 0
453 1 28.6288 76.0559 0
454 2 62.6525 29.9642 0
455 2 26.5244 67.8763 0
456 1 11.4796 44.6319 0
457 2 18.5305 1.84407 0
458 1 37.999 77.1347 0
459 2 15.5977 56.802 0
460 1 5.37828 4.1647 0
461 2 27.234 27.0451 0
462 1 45.7828 24.3175 0
463 1 75.804 69.7227 0
464 1 9.13902 47.884 0
465 2 40.7137 45.0998 0
466 1 21.7476 12.8517 0
467 2 11.5934 1.20634 0
468 1 19.4176 36.2738 0
469 1 1.9747 2.05632 0
470 1 61.7915 10.5525 0
471 2 73.908 40.8923 0
472 1 25.5406 43.0186 0
473 1 61.6056 65.8743 0
474 1 33.5092 54.6186 0
475 1 22.4599 59.8489 0
476 2 38.8949 32.0589 0
477 1 60.6036 11.6833 0
478 2 33.1175 74.5078 0
479 1 33.3609 22.3218 0
480 1 19.8995 25.6748 0
481 1 7.19424 18.5577 0
482 1 10.9417 25.2538 0
483 2 1.12817 1.68913 0
484 1 14.4896 38.2771 0
485 1 21.3125 57.1666 0
486 1 7.05199 4.58023 0
487 2 71.0511 10.3876 0
488 1 58.9959 5.43773 0
489 1 52.3693 15.2086 0
490 1 35.4757 31.103 0
491 1 30.61 42.6013 0
492 2 61.1538 9.89161 0
493 1 73.3717 8.968 0
494 1 67.6492 31.9892 0
495 2 22.6386 49.166 0
496 2 52.7098 42.3092 0
497 2 40.7316 6.89885 0
498 1 23.5834 25.925 0
499 1 35.8453 74.4581 0
500 1 2.63214 4.05903 0
501 2 45.5047 43.4272 0
502 1 16.791 24.7873 0
503 1 50.1817 9.78355 0
504 1 37.0846 32.778 0
505 2 26.5506 77.0899 0
506 2 17.5577 65.2585 0
507 1 42.1249 37.3418 0
508 1 13.0135 32.7392 0
509 1 28.9324 24.8383 0
510 1 7.03851 38.7666 0
511 1 69.2665 26.6715 0
512 1 54.4439 53.3699 0
513 1 11.9356 34.2947 0
514 1 25.3123 64.2824 0
515 2 61.3876 11.3386 0
516 2 11.4958 38.672 0
517 2 74.4569 74.5232 0
518 2 19.1348 54.2354 0
519 2 33.2816 1.93816 0
520 1 74.5023 37.0595 0
521 1 42.1171 24.4897 0
522 2 24.3824 66.0232 0
523 1 77.2399 12.267 0
524 1 70.4729 34.6339 0
525 1 22.7964 0.0430121 0
526 2 76.5883 22.3997 0
527 1 49.4947 26.1484 0
528 2 74.4249 5.17501 0
529 2 35.235 45.1851 0
530 1 7.82904 59.5594 0
531 2 76.3319 69.0009 0
532 2 32.1472 60.8407 0
533 1 72.8096 5.51429 0
534 1 34.5398 27.1129 0
535 1 29.0729 19.2128 0
536 1 32.6005 65.9142 0
537 1 35.1048 47.8604 0
538 2 16.4065 21.5713 0
539 2 45.9309 76.8104 0
540 1 60.8257 40.7366 0
541 2 24.9563 8.17766 0
542 1 51.2161 56.8499 0
543 2 69.5961 55.5566 0
544 2 51.9424 10.4864 0
545 1 28.2939 22.8452 0
546 1 34.3218 3.25219 0
547 1 10.1811 14.3265 0
548 2 23.5955 3.09583 0
549 2 65.4222 21.833 0
550 2 5.28459 39.4012 0
551 1 30.4395 8.34032 0
552 2 70.5691 40.2597 0
553 2 29.5889 44.8843 0
554 1 51.6751 62.331 0
555 1 50.2765 57.3357 0
556 1 72.9452 68.0419 0
557 1 62.0133 53.9445 0
558 1 2.51892 68.498 0
559 1 72.677 36.1606 0
560 2 21.374 61.4912 0
561 1 5.66191 0.585549 0
562 2 4.59481 11.1142 0
563 2 54.0626 48.8429 0
564 1 70.095 68.0828 0
565 2 21.8002 1.3912 0
566 2 18.2272 23.738 0
567 1 48.8898 42.1516 0
568 2 22.8481 74.044 0
569 2 15.7394 27.4446 0
570 1 73.1565 34.2272 0
571 1 0.390252 3.50566 0
572 2 6.66121 48.5728 0
573 2 77.4433 44.8873 0
574 1 3.7016 69.0127 0
575 1 18.2233 7.64788 0
576 1 16.4026 63.1786 0
577 1 43.3595 50.4842 0
578 2 67.7292 34.2284 0
579 2 45.7976 69.1573 0
580 1 62.6718 42.6131 0
581 1 6.64646 60.7963 0
582 2 68.6857 59.5956 0
583 2 64.0664 58.6397 0
584 2 33.4439 65.5661 0
585 1 61.0267 77.3866 0
586 1 48.6674 58.7405 0
587 2 14.6929 21.7111 0
588 1 49.56 5.19178 0
589 2 53.6927 10.3332 0
590 1 24.6121 73.5236 0
591 1 56.376 6.47311 0
592 1 48.5055 74.2624 0
593 1 44.0399 13.1777 0
594 1 59.7796 63.3451 0
595 1 72.1255 65.3502 0
596 2 7.13917 1.1548 0
597 1 3.53166 44.05 0
598 1 69.0899 9.22932 0
599 1 2.61599 51.0146 0
600 1 0.2492 47.5685 0
601 2 42.2004 36.0945 0
602 1 62.1642 14.3977 0
603 2 71.1504 50.8183 0
604 2 62.3139 16.5914 0
605 1 52.3828 69.2652 0
606 1 41.5574 4.04987 0
607 1 76.2953 1.35717 0
608 2 1.33894 40.2774 0
609 2 40.877 0.468548 0
610 1 7.86681 49.6934 0
611 1 53.8355 58.7856 0
612 1 76.6122 6.26824 0
613 1 77.0768 23.2108 0
614 2 50.5111 28.48 0
615 1 34.5098 38.7428 0
616 1 39.7293 16.1558 0
617 1 69.0503 2.65544 0
618 2 12.0691 42.7424 0
619 2 55.1802 42.4993 0
620 2 70.8595 73.8776 0
621 2 58.5672 35.8097 0
622 1 60.232 18.312 0
623 1 37.4458 11.3476 0
624 2 20.4134 54.8352 0
625 1 26.9751 76.2843 0
626 1 73.7901 29.1317 0
627 2 2.41774 25.0424 0
628 1 28.6574 58.092 0
629 2 0.0132289 25.6409 0
630 1 29.1155 73.08 0
631 1 56.9968 37.2439 0
632 1 21.5697 65.0952 0
633 2 25.5335 72.0613 0
634 1 18.7957 50.663 0
635 2 41.4914 43.6032 0
636 2 37.0142 40.74 0
637 1 11.186 10.9637 0
638 1 67.2685 40.8256 0
639 1 70.2919 46.339 0
640 1 0.199264 53.9837 0
641 1 36.5384 33.6897 0
642 1 9.79344 33.8352 0
643 1 50.2618 44.768 0
644 2 19.3483 27.3134 0
645 1 56.9203 52.3213 0
646 1 46.238 47.0504 0
647 2 23.7409 10.4581 0
648 1 64.293 12.4375 0
649 2 10.759 69.0412 0
650 2 47.0708 62.0972 0
651 1 46.0385 12.227 0
652 1 29.5148 70.9236 0
653 2 13.6786 23.1555 0
654 2 10.2868 3.63841 0
655 1 5.54322 51.8711 0
656 1 72.7697 53.9077 0
657 1 33.7775 46.5445 0
658 1 71.6016 13.2858 0
659 2 0.817319 66.2338 0
660 1 26.8066 35.6329 0
661 1 37.3275 9.74171 0
662 1 32.6968 60.0882 0
663 1 10.6885 28.6964 0
664 1 58.4617 75.3954 0
665 2 49.1557 76.8727 0
666 2 12.765 58.1858 0
667 1 26.3729 73.8185 0
668 2 7.70832 76.096 0
669 1 4.33696 9.20205 0
670 2 44.0361 37.7178 0
671 2 37.3079 17.533 0
672 1 9.99223 19.5513 0
673 1 6.93081 16.5684 0
674 1 32.7447 42.5451 0
675 2 4.93415 58.1445 0
676 2 37.9697 6.28718 0
677 1 41.3261 54.0686 0
678 1 53.8578 39.1227 0
679 1 46.586 69.6339 0
680 1 31.7241 53.639 0
681 1 26.3428 54.0001 0
682 1 62.3802 59.5368 0
683 1 18.036 59.4051 0
684 1 64.3798 68.8562 0
685 2 35.9222 18.7123 0
686 1 50.318 6.13423 0
687 1 41.5116 18.9306 0
688 2 53.5882 73.6473 0
689 1 71.9673 62.4934 0
690 1 66.0186 72.2217 0
691 1 41.6889 39.9248 0
692 2 59.8906 44.1614 0
693 1 71.2718 76.8764 0
694 2 53.6808 64.3897 0
695 1 42.3623 11.8394 0
696 2 35.6352 47.1456 0
697 1 25.6139 13.3734 0
698 1 8.38028 3.34991 0
699 1 66.6316 13.9241 0
700 1 72.0162 46.9585 0
701 1 64.1904 31.3183 0
702 1 63.6544 65.2619 0
703 2 71.9605 2.22414 0
704 2 8.29859 61.3348 0
705 2 4.89069 7.22395 0
706 1 52.2424 51.7339 0
707 2 59.8069 38.4286 0
708 1 50.3258 43.0813 0
709 1 51.6914 73.2078 0
710 2 60.3396 28.5937 0
711 1 55.9632 54.1737 0
712 2 62.8517 32.7668 0
713 2 68.3866 70.3996 0
714 2 0.541663 64.8335 0
715 1 45.2703 18.8556 0
716 1 76.4969 29.8577 0
717 1 29.7928 63.3855 0
718 1 14.2008 3.63104 0
719 1 53.3805 36.994 0
720 2 49.2774 38.4655 0
721 2 66.8998 39.9118 0
722 1 49.1261 7.93003 0
723 2 39.9102 75.3645 0
724 2 10.3877 59.5031 0
725 1 50.8179 39.2152 0
726 1 8.17624 29.9242 0
727 2 12.9273 1.42749 0
728 1 67.4664 55.6039 0
729 2 21.5696 59.7795 0
730 1 32.8167 27.4695 0
731 2 16.7079 36.3884 0
732 1 16.3637 54.3297 0
733 1 29.8576 29.5306 0
734 2 66.3761 46.4185 0
735 1 66.6722 67.2106 0
736 1 47.9138 49.4822 0
737 2 4.19996 45.7754 0
738 1 13.6839 34.4573 0
739 1 18.0255 37.5183 0
740 1 48.5766 37.971 0
741 2 57.1719 55.6854 0
742 1 59.0655 37.6626 0
743 1 27.078 62.1217 0
744 2 72.8471 19.0318 0
745 1 23.0727 72.6836 0
746 1 35.0867 10.2208 0
747 1 47.5072 76.076 0
748 2 43.067 69.9065 0
749 2 22.3388 24.4716 0
750 1 55.4182 35.1092 0
751 1 57.8429 40.2546 0
752 2 2.38672 70.4749 0
753 1 53.0533 39.8293 0
754 2 21.7317 15.2901 0
755 1 24.0925 49.9852 0
756 2 49.3394 75.8587 0
757 1 48.3829 19.4085 0
758 1 6.01824 9.69558 0
759 1 61.7721 47.0811 0
760 1 12.1867 10.4748 0
761 1 69.8382 71.6747 0
762 1 15.2043 57.5979 0
763 2 77.1244 7.02384 0
764 1 75.0986 57.0711 0
765 2 47.026 56.699 0
766 1 63.2455 22.683 0
767 1 13.7608 1.11241 0
768 1 65.373 8.03822 0
769 1 61.8195 50.0349 0
770 2 60.4685 73.5533 0
771 1 18.9025 40.0497 0
772 1 44.9599 51.051 0
773 1 40.7085 43.1864 0
774 2 32.6347 25.7229 0
775 1 71.7511 30.6182 0
776 2 43.6192 42.804 0
777 1 70.4328 55.3164 0
778 2 10.3786 63.1038 0
779 1 45.2659 25.241 0
780 1 17.0018 6.21112 0
781 1 29.6626 35.1314 0
782 1 57.4016 64.8273 0
783 1 60.7474 35.5543 0
784 1 70.7449 50.0367 0
785 2 8.90592 11.1699 0
786 1 73.1263 70.0975 0
787 1 20.9169 66.6039 0
788 1 39.815 54.8212 0
789 1 10.9399 4.25415 0
790 1 52.1116 70.2971 0
791 1 45.7412 13.2614 0
792 1 8.62444 25.0379 0
793 1 25.2201 15.024 0
794 2 71.2988 16.7407 0
795 2 75.6617 14.152 0
796 2 75.5177 67.8831 0
797 1 44.3858 65.3774 0
798 1 38.4018 19.0579 0
799 1 44.2666 76.4341 0
800 1 30.5367 70.5154 0
801 2 6.49773 25.9199 0
802 2 28.0756 45.5203 0
803 2 23.5955 77.1815 0
804 2 52.6541 35.9839 0
805 1 23.742 71.9061 0
806 1 52.9753 70.8566 0
807 2 39.8283 50.4547 0
808 1 50.4255 47.2054 0
809 2 36.2407 62.5478 0
810 1 58.4313 76.5177 0
811 1 28.6456 61.0528 0
812 2 59.6973 48.2859 0
813 2 46.1235 58.0478 0
814 1 54.4408 31.1786 0
815 2 41.1538 16.9747 0
816 1 28.099 34.4117 0
817 1 67.7688 75.6342 0
818 2 36.7895 16.1061 0
819 2 45.6296 56.7503 0
820 1 66.851 69.7412 0
821 1 16.7212 64.8709 0
822 1 56.7656 76.7368 0
823 1 17.164 55.77 0
824 2 35.3257 42.3661 0
825 1 29.2307 41.542 0
826 1 32.804 75.3658 0
827 1 7.34025 26.1587 0
828 1 76.8016 51.0914 0
829 1 72.1652 40.1931 0
830 2 47.8261 64.6022 0
831 2 43.2199 4.60858 0
832 1 73.9644 14.3745 0
833 1 24.5251 43.3224 0
834 2 48.5585 5.53477 0
835 1 68.3304 6.58705 0
836 1 58.1441 27.6663 0
837 1 56.4222 41.2754 0
838 1 38.9863 52.8307 0
839 1 16.0822 60.3378 0
840 2 15.7884 46.7092 0
841 1 36.8734 52.6003 0
842 2 11.004 61.1911 0
843 1 5.53277 42.4463 0
844 1 63.4813 21.5762 0
845 2 27.8975 2.32489 0
846 1 49.6953 39.3013 0
847 1 10.9139 57.6431 0
848 2 68.9725 47.6995 0
849 1 74.1652 11.0511 0
850 1 68.0468 19.726 0
851 1 39.4166 18.6915 0
852 1 12.1904 1.83818 0
853 1 42.3944 61.4603 0
854 1 37.6767 69.7172 0
855 1 39.4919 25.6642 0
856 2 18.8033 42.0382 0
857 1 57.8976 34.0944 0
858 2 34.5032 28.8246 0
859 1 13.1001 64.7814 0
860 2 2.11499 58.4973 0
861 2 60.2102 40.1389 0
862 2 2.89195 69.2497 0
863 1 59.0132 23.8112 0
864 1 60.2493 53.8205 0
865 2 66.0728 67.9778 0
866 1 60.5014 17.2247 0
867 2 31.5926 21.8313 0
868 1 37.1546 61.8768 0
869 1 62.1407 20.1754 0
870 1 77.4448 52.7939 0
871 1 62.7011 26.0857 0
872 1 42.3392 50.8057 0
873 1 50.6638 62.6424 0
874 1 4.00206 71.5539 0
875 1 34.0682 57.7502 0
876 2 51.627 7.89191 0
877 1 13.3313 55.6267 0
878 2 14.7227 15.9665 0
879 1 76.5517 14.0452 0
880 2 31.7558 33.5389 0
881 2 51.977 29.3783 0
882 2 47.9152 73.614 0
883 1 25.7719 19.9687 0
884 1 56.1268 36.6086 0
885 1 38.9251 5.02937 0
886 1 37.0314 60.0394 0
887 2 54.7858 50.2766 0
888 1 0.388984 76.5509 0
889 2 59.1574 49.6519 0
890 2 7.76464 25.3453 0
891 1 38.1562 10.4504 0
892 1 40.0143 67.8154 0
893 1 30.0318 53.6793 0
894 1 77.0273 14.9665 0
895 2 32.3984 53.0752 0
896 1 37.5546 2.65437 0
897 2 35.7415 17.1174 0
898 1 31.1218 43.6129 0
899 1 2.02165 75.7574 0
900 2 38.6118 0.291452 0
901 1 52.4906 41.4205 0
902 1 24.3056 75.3277 0
903 1 37.837 40.5505 0
904 2 0.13459 37.7075 0
905 1 63.6676 62.0432 0
906 1 68.9592 44.6347 0
907 1 3.75264 29.8447 0
908 1 50.7798 23.8436 0
909 1 0.350795 48.6539 0
910 2 1.76144 50.7783 0
911 2 4.54675 4.49441 0
912 2 36.2279 32.8247 0
913 2 31.985 51.6776 0
914 1 18.3228 12.91 0
915 2 64.7361 5.53423 0
916 1 3.40748 39.8928 0
917 2 5.02035 33.4476 0
918 2 19.5739 35.3923 0
919 1 8.20461 57.7961 0
920 1 16.0168 47.6683 0
921 1 0.19345 26.6187 0
922 2 50.8071 18.9461 0
923 2 12.3806 24.3689 0
924 1 39.2463 17.5995 0
925 1 66.2791 47.3028 0
926 2 35.5177 35.3368 0
927 1 68.904 77.4046 0
928 1 52.0531 59.1446 0
929 2 52.0869 32.1047 0
930 2 19.971 15.8252 0
931 1 40.83 47.5901 0
932 1 70.4016 39.0738 0
933 1 34.3793 21.9011 0
934 1 2.01539 60.1698 0
935 1 11.4631 50.6234 0
936 2 42.192 4.62847 0
937 1 14.2373 73.2615 0
938 1 36.6344 67.7308 0
939 2 50.3292 51.3674 0
940 1 75.8954 46.8481 0
941 1 77.2297 17.5888 0
942 1 37.9571 29.7536 0
943 2 22.2917 16.7185 0
944 2 2.00374 41.9728 0
945 1 40.4917 25.3306 0
946 1 64.5396 67.1565 0
947 2 25.1428 2.07558 0
948 1 39.2974 68.6091 0
949 1 26.7887 11.6882 0
950 2 5.11897 9.70548 0
951 1 68.9111 65.5845 0
952 2 52.6268 2.71151 0
953 2 7.9271 44.7925 0
954 2 29.8906 62.5111 0
955 1 27.3224 38.504 0
956 2 58.8264 10.9049 0
957 1 48.4267 23.6195 0
958 2 19.4491 2.73359 0
959 2 73.6142 25.113 0
960 2 29.0908 66.9071 0
961 1 49.3937 52.1453 0
962 1 24.3433 1.60837 0
963 1 16.2985 12.5729 0
964 2 8.59521 9.46416 0
965 2 53.6887 53.8145 0
966 1 0.595351 62.8717 0
967 1 49.9285 35.5627 0
968 1 18.3422 0.0778118 0
969 1 57.9801 23.4923 0
970 2 22.5183 4.61852 0
971 1 21.3381 14.5077 0
972 1 6.8602 25.139 0
973 1 0.974822 35.9895 0
974 2 1.06058 35.1193 0
975 2 72.9981 65.421 0
976 2 34.607 19.9358 0
977 1 36.0117 63.3821 0
978 2 3.15909 76.9512 0
979 2 36.0853 65.8527 0
980 1 72.9318 14.3273 0
981 1 73.7377 58.137 0
982 1 7.89898 54.6466 0
983 1 18.4881 24.5936 0
984 1 9.26995 57.9741 0
985 1 34.5156 11.1694 0
986 1 37.9651 52.6184 0
987 2 18.1722 12.0496 0
988 2 42.2752 34.8431 0
989 2 10.0278 34.7583 0
990 2 69.941 51.7715 0
991 2 46.2772 14.8066 0
992 1 62.5077 34.6282 0
993 2 29.0736 5.73552 0
994 2 2.00858 55.0218 0
995 1 38.891 22.246 0
996 2 54.6409 57.018 0
997 2 43.5369 30.9123 0
998 2 60.3613 74.9808 0
999 2 39.3427 26.5509 0
1000 2 0.456239 49.518 0
1001 1 41.6303 65.4377 0
1002 1 23.437 34.339 0
1003 1 9.5915 54.2537 0
1004 1 7.62157 22.443 0
1005 2 10.8298 23.6973 0
1006 2 67.8324 60.8568 0
1007 1 18.9147 20.2589 0
1008 1 47.8516 16.8884 0
1009 1 31.1146 32.9634 0
1010 1 11.629 43.5047 0
1011 2 10.5832 22.3353 0
1012 2 2.40097 23.2492 0
1013 2 65.0778 56.0503 0
1014 1 74.2201 15.491 0
1015 1 76.0553 9.39794 0
1016 1 37.1925 47.9465 0
1017 2 68.7183 54.2999 0
1018 1 26.2547 24.9902 0
1019 1 44.3256 29.0894 0
1020 2 32.4678 6.3321 0
1021 2 15.9623 24.5289 0
1022 1 4.80392 60.8653 0
1023 1 41.1202 9.36422 0
1024 1 9.34045 67.8316 0
1025 1 36.9927 65.9161 0
1026 1 8.07342 40.1412 0
1027 1 47.412 2.51085 0
1028 1 1.99714 32.9331 0
1029 1 48.9547 18.1932 0
1030 2 46.8879 48.0514 0
1031 2 37.6059 36.9978 0
1032 1 16.3558 73.2069 0
1033 1 57.6197 19.2699 0
1034 1 35.2799 29.2473 0
1035 1 65.8176 28.4081 0
1036 2 73.6093 45.9038 0
1037 1 31.1431 73.0967 0
1038 1 68.6264 60.4562 0
1039 1 5.50311 31.8661 0
1040 2 65.065 34.2445 0
1041 1 35.3999 65.1834 0
1042 2 62.7678 68.1301 0
1043 2 60.5943 58.1712 0
1044 1 67.7322 23.4716 0
1045 1 66.7232 23.1843 0
1046 1 41.0724 68.2214 0
1047 2 10.002 47.7168 0
1048 1 53.3686 0.0405815 0
1049 1 59.8712 49.1157 0
1050 2 45.4764 6.31547 0
1051 1 43.5047 31.8279 0
1052 1 66.2545 44.4957 0
1053 2 32.679 18.4867 0
1054 1 55.2241 7.09399 0
1055 2 32.8574 46.6704 0
1056 2 14.7665 45.2617 0
1057 1 11.9226 71.6732 0
1058 1 27.3825 6.01987 0
1059 1 9.15383 75.1803 0
1060 2 21.976 41.9826 0
1061 1 10.1574 23.1434 0
1062 2 17.0037 41.4464 0
1063 1 77.3836 67.7681 0
1064 1 23.2567 5.11966 0
1065 2 29.7703 52.8226 0
1066 1 37.3824 46.2462 0
1067 1 13.9208 10.4078 0
1068 2 35.5604 67.1382 0
1069 1 67.9524 24.4986 0
1070 2 8.32028 34.5294 0
1071 2 49.5158 42.7909 0
1072 2 9.53391 48.6323 0
1073 2 16.3209 3.57936 0
1074 2 33.825 45.3416 0
1075 1 75.9214 49.6983 0
1076 1 41.2528 7.57612 0
1077 1 41.7237 32.5952 0
1078 2 71.692 26.2875 0
1079 2 39.0291 10.8464 0
1080 2 29.9505 72.8461 0
1081 2 45.9894 48.9582 0
1082 2 6.36559 27.5821 0
1083 2 21.6205 19.9941 0
1084 1 44.2191 57.62 0
1085 1 19.2535 52.2943 0
1086 1 70.1049 66.9639 0
1087 1 29.51 71.9857 0
1088 1 44.6701 63.1348 0
1089 2 8.51621 31.6629 0
1090 1 43.0802 34.5194 0
1091 2 27.7469 17.8042 0
1092 1 63.0626 53.6648 0
1093 1 69.1462 32.9242 0
1094 2 43.528 55.2384 0
1095 1 25.2921 71.2003 0
1096 2 48.1799 18.5905 0
1097 1 76.2095 17.7726 0
1098 1 62.6394 43.7084 0
1099 1 31.0113 5.02882 0
1100 1 68.4443 1.75513 0
1101 1 74.8696 11.8968 0
1102 1 26.0326 74.8456 0
1103 1 51.2909 70.9738 0
1104 1 47.0245 58.0513 0
1105 1 48.2234 40.1541 0
1106 1 16.4345 71.4676 0
1107 2 45.1936 62.3553 0
1108 1 55.6843 31.2994 0
1109 1 72.7534 24.8864 0
1110 2 14.8309 11.8215 0
1111 1 2.72296 56.911 0
1112 1 76.183 18.8129 0
1113 2 75.4215 7.73027 0
1114 2 14.1835 53.5226 0
1115 2 33.0697 49.43 0
1116 1 77.1105 64.7296 0
1117 1 66.8971 56.4484 0
1118 1 12.2668 75.5105 0
1119 2 11.1625 64.409 0
1120 1 41.3453 58.0301 0
1121 2 21.2002 64.2735 0
1122 1 32.0628 32.4965 0
1123 2 23.0862 51.8826 0
1124 1 52.6801 61.9638 0
1125 2 14.7125 4.31404 0
1126 2 15.5276 20.143 0
1127 1 74.6426 24.1035 0
1128 1 67.21 52.0775 0
1129 1 60.9357 39.6342 0
1130 1 30.6438 47.2703 0
1131 1 62.4923 15.3788 0
1132 2 75.8499 63.6567 0
1133 2 55.9058 22.5769 0
1134 2 20.8335 71.9874 0
1135 1 0.756289 68.4882 0
1136 2 51.2789 26.906 0
1137 1 50.995 61.5239 0
1138 1 30.3598 13.7363 0
1139 2 57.5129 52.9415 0
1140 2 9.17457 22.9067 0
1141 1 74.8769 65.6265 0
1142 1 27.0597 52.3315 0
1143 1 48.1379 44.7461 0
1144 2 60.9443 16.4741 0
1145 1 38.0052 62.5399 0
1146 1 15.5875 18.8537 0
1147 1 28.2713 25.6428 0
1148 1 10.9279 36.7711 0
1149 1 57.5145 29.2754 0
1150 2 65.3868 61.056 0
1151 1 21.9745 3.8831 0
1152 1 59.7696 51.9778 0
1153 1 71.726 29.5635 0
1154 1 13.8616 4.625 0
1155 2 60.157 20.3064 0
1156 1 44.5296 32.26 0
1157 1 12.3821 18.105 0
1158 2 58.3511 47.9831 0
1159 2 5.67179 70.4609 0
1160 1 32.9669 7.70443 0
1161 2 43.916 56.6998 0
1162 1 15.8804 9.94732 0
1163 2 13.372 73.0075 0
1164 1 24.005 58.7707 0
1165 1 20.9869 45.423 0
1166 2 15.0303 50.7157 0
1167 1 28.0177 20.3506 0
1168 1 56.3331 64.7213 0
1169 1 19.5643 66.8316 0
1170 2 6.3809 33.699 0
1171 1 48.6167 33.8076 0
1172 1 22.9058 6.81677 0
1173 1 51.7093 64.0953 0
1174 1 38.8601 29.214 0
1175 2 62.5615 44.5947 0
1176 1 68.3435 36.5176 0
1177 1 48.4046 69.9161 0
1178 2 61.1636 47.7491 0
1179 1 72.4808 32.6514 0
1180 1 52.0868 17.8783 0
1181 1 54.2791 22.8946 0
1182 1 60.9918 74.2889 0
1183 2 43.028 73.3441 0
1184 2 28.1168 21.9754 0
1185 1 17.5014 63.283 0
1186 1 48.9594 49.4942 0
1187 1 73.8459 72.1319 0
1188 2 4.85556 37.7217 0
1189 1 60.6556 65.3065 0
1190 1 28.4192 51.3994 0
1191 2 72.1795 4.86589 0
1192 1 24.6633 46.9309 0
1193 1 47.5734 17.9529 0
1194 2 16.587 16.0381 0
1195 1 74.2157 48.9617 0
1196 1 21.973 49.7466 0
1197 1 35.5312 38.9957 0
1198 1 62.4846 76.4361 0
1199 2 57.7292 62.4991 0
1200 1 26.9725 8.85794 0
1201 1 2.82969 73.1584 0
1202 1 5.83974 48.9469 0
1203 2 47.5517 12.3332 0
1204 1 57.431 56.6229 0
1205 1 66.6535 50.3514 0
1206 1 52.1843 5.06056 0
1207 1 31.7753 62.7938 0
1208 1 75.4161 58.091 0
1209 2 65.3278 59.6837 0
1210 1 69.7559 31.964 0
1211 2 24.8033 35.4023 0
1212 1 33.7615 36.1554 0
1213 1 61.2826 68.9521 0
1214 1 61.6106 23.6677 0
1215 1 11.5922 72.6749 0
1216 1 11.2704 49.5281 0
1217 2 67.6007 2.0611 0
1218 2 61.5785 20.9164 0
1219 1 30.223 15.4232 0
1220 1 61.9381 18.0823 0
1221 1 61.6039 54.921 0
1222 2 66.2513 74.3611 0
1223 1 42.3785 48.0818 0
1224 1 0.784976 34.1974 0
1225 1 2.93976 25.7315 0
1226 2 65.8348 64.8746 0
1227 1 41.4755 56.9905 0
1228 1 76.1507 70.7907 0
1229 2 47.9958 9.28847 0
1230 1 25.5712 49.7439 0
1231 2 52.995 18.0513 0
1232 1 67.77 38.1026 0
1233 1 38.5938 58.5713 0
1234 1 1.66207 67.8792 0
1235 1 18.2182 46.0684 0
1236 1 52.3656 63.1753 0
1237 1 37.9344 20.7335 0
1238 1 24.6718 7.25884 0
1239 1 12.9492 22.6965 0
1240 1 24.3567 62.8956 0
1241 1 76.2321 62.8267 0