ITEM: TIMESTEP
0
ITEM: NUMBER OF ATOMS
7200
ITEM: BOX BOUNDS xy xz yz pp pp pp
0.0000000000000000e+00 7.7459666924100006e+01 0.0000000000000000e+00
0.0000000000000000e+00 7.7459666924100006e+01 0.0000000000000000e+00
-1.2909944490000000e-01 1.2909944490000000e-01 0.0000000000000000e+00
ITEM: ATOMS id type x y z
1 1 1.49844 12.7366 0
2 1 7.63364 7.13997 0
3 1 16.6683 73.0848 0
4 1 29.226 38.6302 0
5 1 19.5147 51.6894 0
6 1 74.494 36.6509 0
7 2 59.8734 12.2004 0
8 2 57.7417 27.4127 0
9 1 55.722 63.1688 0
10 2 43.3091 68.2159 0
11 2 18.2806 65.5198 0
12 1 48.3248 16.0392 0
13 2 20.5456 20.8724 0
14 1 47.0483 75.8644 0
15 1 32.5 66.0853 0
16 1 25.1858 35.1391 0
17 1 10.6993 35.3255 0
18 1 28.1867 37.135 0
19 1 22.9203 43.9181 0
20 2 45.9044 67.8826 0
21 1 1.23036 76.3367 0
22 1 68.2447 34.9296 0
23 1 12.1594 66.5795 0
24 1 43.2491 76.1304 0
25 1 6.68244 72.8344 0
26 1 36.9095 72.0427 0
27 2 35.2937 63.0963 0
28 1 30.0629 67.3861 0
29 2 67.3661 39.853 0
30 2 38.7454 23.9469 0
31 1 2.06191 53.8893 0
32 1 66.7032 54.2808 0
33 1 8.22012 52.269 0
34 2 66.3668 13.7381 0
35 1 68.0326 74.3418 0
36 1 24.3956 51.1619 0
37 1 30.9112 68.0411 0
38 1 3.40801 36.0106 0
39 1 17.175 75.5305 0
40 2 19.8131 58.6597 0
41 2 16.6549 5.66917 0
42 1 69.817 3.45234 0
43 1 8.54328 14.632 0
44 1 23.9912 76.1304 0
45 1 74.8435 50.9126 0
46 1 45.6622 40.8263 0
47 1 68.9436 72.3586 0
48 1 52.3598 63.6297 0
49 2 20.7562 71.8254 0
50 1 24.5524 49.4022 0
51 1 68.8896 21.245 0
52 2 44.7216 21.4163 0
53 1 66.8571 19.4512 0
54 1 29.9658 19.2022 0
55 1 71.6566 66.5796 0
56 1 42.3549 13.1265 0
57 1 65.8884 60.9888 0
58 1 73.9841 70.4135 0
59 1 24.7818 2.33919 0
60 1 17.9877 15.2672 0
61 1 41.729 72.5667 0
62 1 43.1904 40.0408 0
63 1 43.4509 10.6768 0
64 1 64.7556 42.5101 0
65 1 59.952 35.7089 0
66 2 1.63694 3.40004 0
67 2 45.5818 18.0803 0
68 2 25.4994 15.116 0
69 1 5.13458 51.5441 0
70 1 4.66568 26.3969 0
71 2 36.658 44.6634 0
72 1 71.7846 64.3427 0
73 1 77.1932 74.0405 0
74 2 36.0182 34.2139 0
75 1 51.114 35.829 0
76 1 72.8065 47.0652 0
77 1 25.1604 6.94655 0
78 1 69.5065 76.0207 0
79 1 5.88258 66.3355 0
80 1 23.984 11.4871 0
81 1 56.7371 44.5793 0
82 2 32.5955 32.0474 0
83 1 15.4069 37.2515 0
84 1 45.506 16.3746 0
85 1 38.4199 14.8528 0
86 2 45.0577 71.213 0
87 1 4.12128 30.8416 0
88 1 16.8847 35.3799 0
89 1 26.1697 24.5686 0
90 1 38.7888 59.3724 0
91 2 49.5362 23.3602 0
92 2 46.0101 19.3207 0
93 1 43.8641 23.6747 0
94 1 16.188 62.3199 0
95 2 37.4697 35.414 0
96 1 74.4295 61.2999 0
97 1 59.3906 42.0374 0
98 2 9.81061 67.4519 0
99 1 55.852 34.465 0
100 2 47.3664 14.2393 0
101 1 57.8262 49.4364 0
102 1 74.9097 20.1499 0
103 1 43.4941 52.5191 0
104 1 23.3867 50.6159 0
105 2 47.3109 32.6158 0
106 2 35.1251 36.7143 0
107 1 70.1859 35.6986 0
108 1 21.6528 3.23828 0
109 1 38.9591 25.7566 0
110 2 33.703 20.3596 0
111 1 64.9624 28.4742 0
112 1 28.8052 23.9347 0
113 2 14.9729 50.476 0
114 2 12.7748 18.6044 0
115 2 13.6797 13.0385 0
116 2 77.1139 60.7009 0
117 1 21.7348 66.6955 0
118 2 54.1612 31.1769 0
119 1 61.9791 4.39195 0
120 2 6.32432 44.4183 0
121 1 17.8627 76.3467 0
122 1 39.787 51.7691 0
123 2 31.7402 76.1655 0
124 1 53.7919 73.5056 0
125 1 56.1986 31.0485 0
126 1 55.3088 27.2949 0
127 1 35.2286 64.0643 0
128 1 17.233 12.621 0
129 1 18.7887 59.6274 0
130 1 72.8915 70.3618 0
131 1 52.1323 20.7456 0
132 2 37.3437 60.1425 0
133 2 72.0046 73.2801 0
134 1 47.6443 27.0984 0
135 1 33.2479 18.5473 0
136 2 44.3125 53.0772 0
137 1 61.6453 50.8286 0
138 2 73.5843 42.091 0
139 1 63.1963 10.3921 0
140 1 76.5999 7.86934 0
141 2 34.21 68.1724 0
142 1 5.56967 5.44598 0
143 2 34.7828 73.8693 0
144 2 47.0932 72.528 0
145 2 2.03736 63.9251 0
146 1 58.3911 1.90059 0
147 1 43.5551 42.8362 0
148 1 44.6742 44.0427 0
149 2 47.4689 47.7548 0
150 1 36.4943 67.1664 0
151 2 30.8861 1.73705 0
152 1 62.9688 60.8729 0
153 2 16.9145 70.4818 0
154 2 28.0602 64.4585 0
155 1 72.0226 52.6926 0
156 1 43.2254 29.5245 0
157 1 54.3866 46.7378 0
158 1 54.0883 57.4093 0
159 2 72.2534 21.3275 0
160 1 33.8966 28.2403 0
161 1 10.6536 70.9298 0
162 2 77.2801 7.34258 0
163 1 44.2141 41.8426 0
164 1 63.917 16.4264 0
165 1 3.52906 30.006 0
166 1 18.3303 33.5381 0
167 1 33.9217 9.37971 0
168 1 57.1162 62.0722 0
169 1 39.0135 14.0923 0
170 1 68.3523 14.4825 0
171 2 63.3656 57.1735 0
172 2 35.254 3.12028 0
173 2 43.1701 22.0121 0
174 2 17.2162 53.1907 0
175 2 50.6855 19.4111 0
176 1 26.3349 14.9538 0
177 1 28.8081 60.114 0
178 1 49.8551 64.9779 0
179 1 67.6033 5.53544 0
180 2 7.32486 9.77798 0
181 1 72.0755 23.0249 0
182 1 51.3708 74.8433 0
183 2 16.4983 34.5719 0
184 1 29.6902 9.83159 0
185 2 72.219 19.4693 0
186 1 60.5427 16.0454 0
187 1 20.7431 51.4293 0
188 1 53.6658 37.6128 0
189 2 62.502 35.7157 0
190 1 14.8736 71.9318 0
191 1 44.9856 7.39667 0
192 1 72.2194 20.4039 0
193 2 13.318 25.2222 0
194 2 74.1548 63.2376 0
195 1 15.2388 74.0404 0
196 2 40.9239 16.2283 0
197 2 41.2176 36.6369 0
198 1 1.69346 52.1877 0
199 2 54.0232 60.797 0
200 1 61.3875 16.8879 0
201 2 19.3756 56.0478 0
202 2 70.1523 64.5353 0
203 1 48.1693 70.8364 0
204 1 37.4205 27.254 0
205 1 55.5822 1.5679 0
206 2 35.0974 24.5844 0
207 2 14.8027 74.996 0
208 1 35.9949 36.5913 0
209 1 9.49153 22.0038 0
210 2 28.7508 28.7726 0
211 1 19.2213 67.0657 0
212 2 31.8367 0.115647 0
213 2 4.90158 33.8326 0
214 1 0.958343 70.4515 0
215 2 14.2441 21.6208 0
216 1 10.3563 68.1304 0
217 1 53.7036 40.5576 0
218 2 7.7916 67.1751 0
219 2 12.5163 67.4156 0
220 2 49.5286 66.696 0
221 1 17.4112 49.55 0
222 1 57.6657 16.0493 0
223 2 20.5861 19.1683 0
224 2 13.1283 5.61223 0
225 1 35.6205 37.5059 0
226 2 59.5357 39.3017 0
227 2 15.0406 7.41167 0
228 1 15.967 15.7855 0
229 1 72.2985 15.5935 0
230 1 28.1218 11.4783 0
231 1 22.8177 40.2491 0
232 1 29.0489 18.5522 0
233 1 18.7855 38.6068 0
234 1 10.1568 75.3178 0
235 1 41.6361 29.1643 0
236 2 21.3901 5.12343 0
237 1 71.4243 53.5911 0
238 2 13.8995 34.2218 0
239 1 30.3192 5.59668 0
240 2 66.7534 73.3941 0
241 1 57.6245 40.0267 0
242 1 12.602 24.698 0
243 1 10.5841 50.066 0
244 1 42.7381 51.7401 0
245 1 14.3445 43.3376 0
246 1 70.8605 49.557 0
247 1 52.3574 60.5474 0
248 1 11.974 63.2237 0
249 2 59.0904 29.1347 0
250 1 28.8866 1.36902 0
251 2 46.0566 36.4941 0
252 2 53.3916 26.8535 0
253 1 25.9859 27.0738 0
254 1 57.1203 14.9754 0
255 1 9.06075 43.5073 0
256 1 41.5177 67.8675 0
257 1 27.5361 75.1541 0
258 1 12.5253 57.6556 0
259 1 43.6957 50.1904 0
260 2 48.3043 31.7032 0
261 2 46.5354 62.4233 0
262 1 28.1022 44.37 0
263 2 12.5307 47.7807 0
264 2 64.8026 19.2409 0
265 1 74.4099 68.3125 0
266 1 38.6679 33.7108 0
267 2 11.1592 19.3798 0
268 2 71.5111 39.1815 0
269 1 58.7709 31.2743 0
270 2 4.73208 53.2003 0
271 2 10.6699 45.9609 0
272 2 26.6066 20.3388 0
273 1 26.2057 5.41532 0
274 1 41.6424 73.9218 0
275 1 76.2146 66.5895 0
276 1 5.1653 3.6131 0
277 2 12.071 56.9233 0
278 1 76.2049 1.36375 0
279 1 6.42246 50.4786 0
280 1 3.15204 33.2535 0
281 1 32.1295 40.7695 0
282 2 10.4966 7.59636 0
283 1 3.75084 66.6763 0
284 2 48.9168 33.003 0
285 1 16.1856 48.4146 0
286 1 35.386 55.5441 0
287 1 26.8535 25.6242 0
288 2 8.56954 72.5814 0
289 2 35.3851 46.1491 0
290 2 72.5643 12.6557 0
291 1 18.0123 21.5036 0
292 1 47.4493 39.5768 0
293 1 32.7219 12.8281 0
294 1 43.7457 69.066 0
295 1 71.8453 70.1636 0
296 2 76.2862 36.1815 0
297 1 40.8623 59.2856 0
298 1 68.345 48.68 0
299 2 64.9893 25.871 0
300 1 37.3363 49.5505 0
301 1 2.50075 9.09399 0
302 1 57.3283 47.3856 0
303 1 67.8907 21.813 0
304 1 45.5772 9.90453 0
305 2 63.2917 0.706606 0
306 1 59.2871 34.7889 0
307 2 7.87122 20.9396 0
308 1 50.0493 1.98612 0
309 2 76.3076 15.7884 0
310 2 73.7508 34.8049 0
311 1 33.1558 50.5415 0
312 1 16.1005 70.3823 0
313 1 71.7723 10.4795 0
314 1 57.0678 23.9291 0
315 2 69.2171 51.5642 0
316 2 24.9884 4.19674 0
317 1 35.1802 10.0127 0
318 2 74.4785 46.0612 0
319 1 12.1239 14.233 0
320 1 46.6116 59.3974 0
321 1 45.9751 66.1247 0
322 2 6.69261 68.685 0
323 2 20.0235 75.0706 0
324 1 1.59674 67.0694 0
325 1 45.1191 11.0364 0
326 1 63.6885 45.0124 0
327 1 49.047 32.1506 0
328 1 17.7775 17.9399 0
329 1 49.5984 5.55424 0
330 2 48.1122 17.7878 0
331 2 59.3915 57.2602 0
332 1 71.504 37.5465 0
333 1 55.0387 16.5786 0
334 1 17.2321 39.3511 0
335 1 12.6522 20.7428 0
336 2 70.9318 66.0081 0
337 1 27.9538 40.4505 0
338 2 26.4864 73.715 0
339 1 47.3345 3.36889 0
340 1 15.0903 42.399 0
341 2 15.1678 43.2428 0
342 1 60.896 71.875 0
343 2 55.304 58.8382 0
344 2 28.781 46.3957 0
345 1 11.2239 22.4967 0
346 1 4.59531 16.7834 0
347 1 41.4621 35.8053 0
348 1 40.8265 0.239159 0
349 1 33.0123 26.5496 0
350 1 42.5468 12.1027 0
351 1 24.0939 57.1431 0
352 1 60.7648 23.5053 0
353 1 74.112 42.8147 0
354 2 43.4276 35.3228 0
355 2 66.6271 26.1252 0
356 2 11.5121 76.408 0
357 1 51.6395 48.8769 0
358 1 39.8608 77.1533 0
359 1 27.1767 20.906 0
360 2 65.6002 36.2278 0
361 2 48.0543 21.0909 0
362 1 20.693 2.68015 0
363 2 22.8516 19.9605 0
364 1 25.237 9.25151 0
365 2 54.577 43.2229 0
366 1 36.3188 55.1254 0
367 2 31.7927 29.628 0
368 2 44.3113 36.4285 0
369 2 61.9544 70.2717 0
370 1 10.1627 17.7188 0
371 1 39.2849 56.1906 0
372 2 37.3317 10.0193 0
373 1 72.9342 35.1325 0
374 2 50.9228 39.709 0
375 1 40.4498 33.9911 0
376 2 65.7914 34.7932 0
377 2 57.8437 45.2632 0
378 1 16.3811 2.08463 0
379 1 24.4952 28.5716 0
380 1 5.46861 52.5465 0
381 1 11.914 27.3336 0
382 1 30.3477 53.7705 0
383 1 10.7642 3.44504 0
384 1 38.902 44.4368 0
385 1 28.1717 25.274 0
386 1 58.5594 40.5628 0
387 1 62.9823 62.4815 0
388 2 63.7988 38.4539 0
389 1 42.6813 34.677 0
390 1 41.1834 26.7322 0
391 2 73.9305 56.8848 0
392 2 19.4824 11.4903 0
393 2 29.4935 60.7042 0
394 1 64.1128 9.79687 0
395 1 51.6577 9.25266 0
396 1 77.3988 13.4316 0
397 1 55.0752 31.3578 0
398 1 37.7076 16.7304 0
399 1 39.5959 13.2164 0
400 1 45.5283 77.3287 0
401 1 67.6691 64.7819 0
402 2 66.5331 10.8475 0
403 1 42.1197 60.1511 0
404 1 50.5856 46.4135 0
405 2 73.0436 50.8529 0
406 1 24.7494 31.8096 0
407 2 60.7858 5.81387 0
408 1 11.1081 34.3598 0
409 1 11.6216 47.5663 0
410 2 3.23282 19.1349 0
411 2 60.5326 19.9038 0
412 1 66.5902 59.3498 0
413 1 76.5429 61.6248 0
414 1 5.74103 49.7191 0
415 1 16.9364 37.5279 0
416 2 4.96655 56.6733 0
417 2 70.2803 33.8228 0
418 1 45.8189 28.4742 0
419 2 67.9237 45.2487 0
420 2 15.5521 76.334 0
421 1 58.1678 20.7231 0
422 1 69.2889 46.7382 0
423 1 13.0454 72.5332 0
424 1 76.8101 9.66875 0
425 1 47.6607 38.5262 0
426 1 42.6607 1.0008 0
427 2 32.2691 25.1697 0
428 1 51.3821 57.4025 0
429 1 46.7408 0.0493155 0
430 1 48.5326 25.7029 0
431 1 10.7522 10.2523 0
432 1 66.2288 35.5193 0
433 1 20.3432 7.87264 0
434 1 12.1498 23.0105 0
435 1 76.7992 38.1137 0
436 2 66.9932 55.1065 0
437 2 51.9144 42.4507 0
438 1 53.0438 47.8302 0
439 2 56.4906 72.6624 0
440 1 46.8813 30.7532 0
441 2 69.5617 71.7965 0
442 1 15.7349 22.8994 0
443 1 32.8702 13.9172 0
444 1 73.6673 60.654 0
445 2 32.8967 71.9624 0
446 1 58.8917 64.7425 0
447 1 20.0956 69.1312 0
448 1 54.7412 44.1331 0
449 1 31.8075 9.06106 0
450 2 47.0326 23.7025 0
451 2 10.6702 53.4997 0
452 1 40.7949 14.3813 0
453 1 22.5017 3.91616 0
454 2 60.5115 16.9166 0
455 2 13.0098 14.2033 0
456 1 9.54724 49.9889 0
457 2 28.2284 5.71337 0
458 1 28.2263 26.6707 0
459 2 14.8708 46.836 0
460 1 3.06008 6.74713 0
461 2 39.496 18.572 0
462 1 50.4475 3.99305 0
463 1 67.9699 67.7293 0
464 1 20.3495 49.7431 0
465 2 28.9762 51.5946 0
466 1 9.85501 15.8347 0
467 2 76.7033 3.3997 0
468 1 1.17675 36.055 0
469 1 18.5984 71.4624 0
470 1 22.4303 74.3397 0
471 2 1.39122 41.2579 0
472 1 14.4758 39.9243 0
473 1 46.0514 70.0064 0
474 1 28.0808 10.4044 0
475 1 21.62 9.41379 0
476 2 44.4432 23.0901 0
477 1 63.4702 15.3258 0
478 2 19.7477 62.0022 0
479 1 25.515 36.2392 0
480 1 25.22 45.6151 0
481 1 0.13371 19.9997 0
482 1 13.9 30.4192 0
483 2 67.4417 6.59549 0
484 1 11.8041 40.9734 0
485 1 29.6101 52.2959 0
486 1 14.8569 0.660622 0
487 2 44.0603 57.9489 0
488 1 25.7886 18.6324 0
489 1 48.329 6.85787 0
490 1 26.4149 12.2185 0
491 1 40.327 37.8464 0
492 2 2.05757 76.6012 0
493 1 76.1566 19.0859 0
494 1 0.02848 27.5804 0
495 2 10.1328 49.3701 0
496 2 37.3174 29.2454 0
497 2 35.3622 8.06148 0
498 1 30.1672 44.83 0
499 1 30.8725 14.8715 0
500 1 74.8868 56.9191 0
501 2 48.2622 53.2627 0
502 1 22.5417 62.3246 0
503 1 56.681 8.73654 0
504 1 38.9715 29.311 0
505 2 19.059 17.5418 0
506 2 17.4724 72.8378 0
507 1 55.0862 17.6017 0
508 1 29.8693 48.1903 0
509 1 28.6439 30.3822 0
510 1 1.71394 37.7796 0
511 1 58.7106 13.587 0
512 1 49.099 76.6322 0
513 1 16.4197 39.9186 0
514 1 9.7591 56.8591 0
515 2 39.82 11.2123 0
516 2 9.9486 50.7273 0
517 2 8.81402 36.6197 0
518 2 22.3715 60.4496 0
519 2 34.6837 57.3293 0
520 1 71.9392 31.6358 0
521 1 56.6846 22.9671 0
522 2 24.1477 6.92522 0
523 1 67.4997 50.6261 0
524 1 46.5115 14.4043 0
525 1 25.8784 4.35004 0
526 2 33.9398 34.108 0
527 1 65.1481 35.3654 0
528 2 67.4571 48.7701 0
529 2 62.5942 50.7344 0
530 1 9.59548 66.6304 0
531 2 62.0612 60.8742 0
532 2 67.6435 55.8867 0
533 1 71.6281 59.9644 0
534 1 24.2369 27.4885 0
535 1 4.27565 1.18992 0
536 1 21.4755 72.4736 0
537 1 19.0004 54.4055 0
538 2 8.9367 6.71156 0
539 2 40.661 75.558 0
540 1 51.3611 34.6572 0
541 2 14.8943 17.1117 0
542 1 48.0161 54.0881 0
543 2 7.45391 73.379 0
544 2 58.3659 11.4123 0
545 1 23.6178 37.9224 0
546 1 49.7032 69.445 0
547 1 17.5585 0.768633 0
548 2 25.5096 61.492 0
549 2 2.74544 30.1634 0
550 2 7.19372 42.9623 0
551 1 38.5119 76.0686 0
552 2 56.8788 2.70322 0
553 2 71.4034 44.6935 0
554 1 59.1705 72.9255 0
555 1 50.1603 40.0252 0
556 1 0.464229 60.7445 0
557 1 52.3954 55.0595 0
558 1 64.7493 58.0293 0
559 1 75.856 12.2025 0
560 2 13.4152 52.7961 0
561 1 56.4444 69.0146 0
562 2 75.9645 11.3868 0
563 2 31.5384 47.3713 0
564 1 61.0122 54.6464 0
565 2 36.2144 76.3062 0
566 2 15.8277 30.4663 0
567 1 53.6368 26.032 0
568 2 49.4049 61.9266 0
569 2 14.0288 10.6084 0
570 1 73.1445 57.1155 0
571 1 68.001 69.3192 0
572 2 12.5545 58.5541 0
573 2 1.36259 31.4252 0
574 1 14.1493 61.3696 0
575 1 25.8349 15.99 0
576 1 26.894 62.6756 0
577 1 25.9142 22.4827 0
578 2 56.1212 36.504 0
579 2 54.7318 67.6646 0
580 1 43.9192 21.6395 0
581 1 74.821 2.6407 0
582 2 60.9834 76.9373 0
583 2 68.8526 39.7823 0
584 2 19.9326 47.3776 0
585 1 46.9364 4.97581 0
586 1 53.4137 32.9898 0
587 2 8.60635 22.4039 0
588 1 47.7442 0.151775 0
589 2 74.4986 10.0861 0
590 1 22.3609 6.7302 0
591 1 58.4586 16.7756 0
592 1 54.1454 76.9265 0
593 1 43.1785 4.82739 0
594 1 54.2548 36.6469 0
595 1 11.2246 71.8257 0
596 2 0.606047 65.0424 0
597 1 15.3881 51.9897 0
598 1 72.57 18.5615 0
599 1 10.0259 25.4304 0
600 1 0.576152 49.8301 0
601 2 33.3492 63.403 0
602 1 69.9525 0.473071 0
603 2 5.55412 46.2536 0
604 2 65.756 17.9934 0
605 1 46.6994 47.2916 0
606 1 39.3861 75.515 0
607 1 14.206 74.3589 0
608 2 3.00537 48.5604 0
609 2 36.6482 2.83436 0
610 1 3.15006 39.2773 0
611 1 52.3653 33.1038 0
612 1 56.9486 71.8687 0
613 1 70.772 27.9111 0
614 2 56.1973 10.3525 0
615 1 22.7425 33.7615 0
616 1 28.347 15.888 0
617 1 39.0492 16.1046 0
618 2 65.7061 47.023 0
619 2 43.5447 58.7373 0
620 2 59.2973 41.0546 0
621 2 58.6881 26.4491 0
622 1 67.8168 9.76513 0
623 1 41.7626 11.3737 0
624 2 33.7415 65.4125 0
625 1 4.92403 4.63897 0
626 1 17.0099 24.6605 0
627 2 11.6889 43.7481 0
628 1 24.3768 60.0409 0
629 2 58.638 9.89399 0
630 1 49.323 68.5197 0
631 1 57.726 24.8751 0
632 1 23.4026 65.5188 0
633 2 3.16803 5.90985 0
634 1 9.31477 52.5278 0
635 2 41.1637 33.536 0
636 2 38.4678 25.0183 0
637 1 0.869458 13.9576 0
638 1 58.5031 48.6327 0
639 1 74.9196 45.1963 0
640 1 5.69521 42.1888 0
641 1 31.9139 38.0399 0
642 1 21.7675 36.3447 0
643 1 27.5903 54.0668 0
644 2 3.56998 29.1645 0
645 1 46.9726 36.1468 0
646 1 52.4373 46.2191 0
647 2 33.7891 39.7548 0
648 1 67.0298 3.89441 0
649 2 1.50067 62.6063 0
650 2 43.1876 0.296136 0
651 1 70.0151 31.5201 0
652 1 8.91037 0.88284 0
653 2 7.89582 16.4105 0
654 2 14.2091 14.7276 0
655 1 47.8684 42.8334 0
656 1 65.7266 49.0096 0
657 1 35.9932 54.0463 0
658 1 9.13548 12.0703 0
659 2 56.9544 49.7781 0
660 1 41.3775 16.9678 0
661 1 35.5301 20.6653 0
662 1 75.688 35.5246 0
663 1 9.97558 51.6667 0
664 1 47.0796 69.4103 0
665 2 52.9301 62.9002 0
666 2 22.9861 37.4159 0
667 1 14.7002 1.71515 0
668 2 67.4802 10.5268 0
669 1 4.25545 12.3774 0
670 2 36.5024 49.735 0
671 2 38.721 9.72557 0
672 1 14.1914 11.4607 0
673 1 20.633 22.8452 0
674 1 40.0751 57.8032 0
675 2 3.96973 65.8328 0
676 2 49.3232 59.2619 0
677 1 46.7214 50.1001 0
678 1 38.0589 38.986 0
679 1 43.8123 72.6021 0
680 1 45.1377 60.3182 0
681 1 8.76846 41.8065 0
682 1 4.18471 71.4975 0
683 1 13.2567 8.07019 0
684 1 55.0665 50.25 0
685 2 61.5999 75.318 0
686 1 66.537 57.7132 0
687 1 29.0845 8.12164 0
688 2 56.9333 58.5153 0
689 1 33.2912 53.6368 0
690 1 63.3689 56.2634 0
691 1 69.8944 45.8594 0
692 2 39.9727 25.379 0
693 1 63.1444 5.46568 0
694 2 64.8881 58.8765 0
695 1 57.0878 10.455 0
696 2 47.348 59.887 0
697 1 39.7173 39.8977 0
698 1 18.5392 64.697 0
699 1 62.6184 41.8079 0
700 1 7.86897 35.259 0
701 1 1.91208 69.9514 0
702 1 46.3226 45.439 0
703 2 3.23374 64.7052 0
704 2 74.0166 4.29425 0
705 2 12.1857 17.3033 0
706 1 58.5098 30.2015 0
707 2 63.1083 16.0893 0
708 1 43.8455 40.906 0
709 1 43.8933 2.11929 0
710 2 62.7631 12.8561 0
711 1 56.523 55.7993 0
712 2 41.9768 1.86467 0
713 2 43.3695 71.8976 0
714 2 0.415011 72.2913 0
715 1 60.6638 75.2283 0
716 1 10.6285 15.0396 0
717 1 7.92963 66.2786 0
718 1 70.7518 60.6292 0
719 1 58.3973 32.5828 0
720 2 27.4999 58.7293 0
721 2 61.4909 34.3603 0
722 1 41.3754 7.05443 0
723 2 54.4454 12.7355 0
724 2 30.3 76.579 0
725 1 70.1519 21.2741 0
726 1 11.4907 20.1919 0
727 2 32.1675 24.1215 0
728 1 5.2028 59.6604 0
729 2 34.1257 72.521 0
730 1 10.311 19.4693 0
731 2 22.0513 29.0636 0
732 1 27.2588 67.689 0
733 1 31.2975 39.0413 0
734 2 65.4975 43.9285 0
735 1 43.0086 9.75192 0
736 1 20.6685 53.9487 0
737 2 73.4025 53.6805 0
738 1 32.161 32.8222 0
739 1 35.2616 17.7526 0
740 1 34.0623 58.6273 0
741 2 57.0563 26.484 0
742 1 71.9381 58.3409 0
743 1 28.2566 19.3016 0
744 2 76.6568 28.0727 0
745 1 4.84807 50.3868 0
746 1 18.2967 17.0659 0
747 1 39.6778 70.9091 0
748 2 46.0389 29.2937 0
749 2 35.9387 47.0796 0
750 1 61.594 28.5698 0
751 1 57.1397 38.7315 0
752 2 57.9366 71.8728 0
753 1 37.1063 30.2827 0
754 2 4.16855 36.7915 0
755 1 67.7624 42.3116 0
756 2 47.4273 71.2418 0
757 1 33.3209 15.9532 0
758 1 63.1507 11.4476 0
759 1 40.9887 34.8727 0
760 1 67.5092 14.9965 0
761 1 13.4775 73.6558 0
762 1 11.3735 52.8351 0
763 2 69.7392 9.48356 0
764 1 22.6966 71.7201 0
765 2 63.3174 61.6918 0
766 1 76.4163 28.9529 0
767 1 1.16778 63.4112 0
768 1 60.1983 0.858122 0
769 1 65.1832 41.0299 0
770 2 56.3507 59.7667 0
771 1 3.06819 31.1001 0
772 1 68.8305 23.4051 0
773 1 40.6561 41.354 0
774 2 40.1049 34.9233 0
775 1 4.00837 37.6388 0
776 2 44.2002 52.0542 0
777 1 6.26302 41.1426 0
778 2 71.6482 60.849 0
779 1 57.4454 11.5322 0
780 1 13.9481 9.78679 0
781 1 39.6961 30.1564 0
782 1 63.8065 42.0092 0
783 1 46.3406 18.5296 0
784 1 43.721 51.2668 0
785 2 74.4834 22.8415 0
786 1 6.04259 58.5261 0
787 1 22.6273 0.583322 0
788 1 44.8526 30.6528 0
789 1 5.73484 57.5103 0
790 1 57.2366 65.5484 0
791 1 3.91254 63.8317 0
792 1 73.4629 36.9074 0
793 1 14.3884 6.72089 0
794 2 20.5665 1.82665 0
795 2 4.85041 9.78906 0
796 2 71.6454 17.8305 0
797 1 55.2735 39.7734 0
798 1 46.6746 19.8526 0
799 1 25.9887 73.0195 0
800 1 26.4332 70.2732 0
801 2 9.02811 33.3702 0
802 2 69.7877 36.4028 0
803 2 22.5097 9.37003 0
804 2 57.3523 12.4337 0
805 1 24.2337 55.3161 0
806 1 68.6332 65.9996 0
807 2 35.5099 0.4331 0
808 1 41.8213 34.0741 0
809 2 15.8557 33.1617 0
810 1 66.7695 9.9928 0
811 1 49.0682 72.3814 0
812 2 17.8492 64.1702 0
813 2 52.4558 47.0654 0
814 1 59.7586 23.0634 0
815 2 48.5309 7.84845 0
816 1 24.5601 67.768 0
817 1 56.5682 3.48961 0
818 2 62.1438 6.84461 0
819 2 38.1191 43.9686 0
820 1 47.2077 65.6463 0
821 1 27.8596 12.5621 0
822 1 39.337 7.79193 0
823 1 16.9885 66.9275 0
824 2 17.1297 25.5093 0
825 1 36.9764 45.4448 0
826 1 9.10787 17.4059 0
827 1 16.7983 43.7354 0
828 1 75.2777 49.3297 0
829 1 75.5006 31.6666 0
830 2 45.6556 63.8824 0
831 2 46.4548 12.3777 0
832 1 65.3775 32.0765 0
833 1 10.4864 64.0803 0
834 2 53.9895 4.51377 0
835 1 35.0196 72.9099 0
836 1 1.26711 5.31543 0
837 1 60.3394 30.5739 0
838 1 38.327 49.1741 0
839 1 4.71741 70.5727 0
840 2 17.7565 28.8908 0
841 1 30.7629 62.4798 0
842 2 42.7938 59.7222 0
843 1 4.6127 44.4984 0
844 1 60.2919 8.8252 0
845 2 28.3654 31.2076 0
846 1 42.2614 17.5979 0
847 1 13.231 68.0471 0
848 2 54.8786 48.5089 0
849 1 71.4757 27.1655 0
850 1 69.8797 26.7508 0
851 1 26.0904 11.3103 0
852 1 5.12375 19.4734 0
853 1 23.4447 5.36503 0
854 1 57.616 75.4268 0
855 1 45.7956 12.8611 0
856 2 28.8824 43.6751 0
857 1 65.3467 17.2168 0
858 2 36.9204 54.1301 0
859 1 73.4822 76.5625 0
860 2 68.4028 46.7062 0
861 2 4.87875 54.9393 0
862 2 11.1318 54.7366 0
863 1 50.7117 14.7806 0
864 1 52.4777 49.5167 0
865 2 54.9636 0.978161 0
866 1 69.8607 25.6368 0
867 2 30.9267 22.8438 0
868 1 53.0216 50.4306 0
869 1 61.3126 29.6537 0
870 1 19.0418 65.7925 0
871 1 69.8716 18.8407 0
872 1 14.0806 20.7995 0
873 1 29.4798 12.2153 0
874 1 74.2643 73.4302 0
875 1 44.7707 63.6856 0
876 2 27.94 20.6201 0
877 1 75.2664 55.8959 0
878 2 17.8833 20.5549 0
879 1 71.9804 33.4558 0
880 2 40.987 38.3905 0
881 2 61.1346 24.3362 0
882 2 55.2272 57.2648 0
883 1 21.4706 17.2501 0
884 1 62.4244 16.7618 0
885 1 42.6078 5.71744 0
886 1 36.3956 71.051 0
887 2 32.748 55.4903 0
888 1 0.587978 2.01006 0
889 2 29.1345 19.4255 0
890 2 8.41578 13.7761 0
891 1 26.7959 18.4219 0
892 1 32.8826 5.66173 0
893 1 17.5195 65.2128 0
894 1 3.66008 72.4302 0
895 2 46.1611 26.5524 0
896 1 15.7394 9.19034 0
897 2 64.7286 14.2012 0
898 1 12.9353 53.5571 0
899 1 64.2379 66.6234 0
900 2 53.0256 2.65098 0
901 1 18.3713 50.4398 0
902 1 26.8858 22.0153 0
903 1 21.545 60.1635 0
904 2 25.9251 33.4164 0
905 1 40.9458 43.8756 0
906 1 70.673 62.8126 0
907 1 6.69194 22.5131 0
908 1 65.7223 29.174 0
909 1 8.63826 67.0047 0
910 2 15.2498 59.5345 0
911 2 11.1852 68.276 0
912 2 43.6606 37.943 0
913 2 28.4531 41.1597 0
914 1 0.539424 19.1026 0
915 2 55.7296 6.94672 0
916 1 12.3651 41.7531 0
917 2 0.993338 8.31797 0
918 2 17.2065 40.173 0
919 1 42.5573 70.9535 0
920 1 19.4935 63.9728 0
921 1 72.5066 32.465 0
922 2 51.5421 11.2985 0
923 2 26.8217 45.8907 0
924 1 57.7636 9.65825 0
925 1 69.4531 55.9713 0
926 2 31.6249 37.1988 0
927 1 58.6216 60.4569 0
928 1 47.5321 62.3335 0
929 2 10.9021 73.7753 0
930 2 33.543 31.8991 0
931 1 54.4289 32.9829 0
932 1 56.8406 31.7969 0
933 1 47.3213 22.8717 0
934 1 72.5554 73.9138 0
935 1 20.0481 57.8327 0
936 2 49.8195 1.03004 0
937 1 17.8712 59.022 0
938 1 39.1732 0.707695 0
939 2 47.954 23.5142 0
940 1 9.96623 62.4778 0
941 1 2.96927 5.07737 0
942 1 31.6863 19.1019 0
943 2 19.9454 5.4166 0
944 2 4.67327 43.6735 0
945 1 36.7588 18.2335 0
946 1 61.3474 62.3086 0
947 2 37.0311 70.5197 0
948 1 27.9915 71.1221 0
949 1 41.341 19.1345 0
950 2 21.0335 69.2426 0
951 1 16.5422 71.3173 0
952 2 37.0372 13.768 0
953 2 77.0457 29.6001 0
954 2 15.5605 69.7308 0
955 1 32.4228 47.527 0
956 2 0.287339 32.9605 0
957 1 55.6237 18.59 0
958 2 14.1769 12.3362 0
959 2 70.4059 55.774 0
960 2 56.2631 62.5481 0
961 1 48.8215 34.7196 0
962 1 16.6974 22.6516 0
963 1 30.7759 9.43425 0
964 2 10.9059 28.7523 0
965 2 57.5536 29.9544 0
966 1 62.4742 46.247 0
967 1 48.1912 44.8176 0
968 1 32.4171 4.69061 0
969 1 47.1692 0.987374 0
970 2 45.0353 4.8558 0
971 1 73.7145 14.0243 0
972 1 18.5215 45.2883 0
973 1 61.959 35.0574 0
974 2 68.252 43.8652 0
975 2 8.99938 2.01467 0
976 2 28.2076 15.0058 0
977 1 38.2605 35.3741 0
978 2 72.6483 3.6479 0
979 2 48.9002 69.2129 0
980 1 76.0672 64.8904 0
981 1 51.6077 38.1311 0
982 1 26.0862 59.9557 0
983 1 13.6628 18.5714 0
984 1 6.73215 53.1608 0
985 1 50.4579 5.0633 0
986 1 22.4879 51.1672 0
987 2 39.6032 47.528 0
988 2 23.7656 40.4672 0
989 2 65.3762 45.4795 0
990 2 6.42013 56.8811 0
991 2 35.1791 11.6186 0
992 1 66.3715 43.8194 0
993 2 38.8306 30.2031 0
994 2 5.17957 60.5006 0
995 1 4.79829 34.6743 0
996 2 61.6063 67.9971 0
997 2 37.5729 14.7896 0
998 2 39.0934 1.62231 0
999 2 42.2108 21.7258 0
1000 2 24.9126 71.515 0
1001 1 37.4063 0.869995 0
1002 1 49.6357 58.3463 0
1003 1 5.77353 65.3306 0
1004 1 0.170068 5.14027 0
1005 2 5.10061 35.4694 0
1006 2 56.9037 24.7184 0
1007 1 20.1905 24.6921 0
1008 1 55.2198 15.5969 0
1009 1 29.3725 54.0465 0
1010 1 12.5168 46.8968 0
1011 2 74.0447 37.6022 0
1012 2 75.9819 9.69836 0
1013 2 60.5123 40.4187 0
1014 1 1.96306 15.3064 0
1015 1 3.64872 28.2529 0
1016 1 75.4817 41.9672 0
1017 2 7.27595 35.9209 0
1018 1 25.1865 58.87 0
1019 1 39.9329 26.2573 0
1020 2 49.843 9.08363 0
1021 2 10.7368 20.542 0
1022 1 31.3868 60.5929 0
1023 1 25.915 23.5949 0
1024 1 14.9785 2.83159 0
1025 1 33.7442 71.7873 0
1026 1 9.08836 56.0929 0
1027 1 63.3909 67.2177 0
1028 1 25.5333 48.0925 0
1029 1 50.6515 11.945 0
1030 2 55.5315 30.4332 0
1031 2 44.4415 34.0267 0
1032 1 16.8446 69.6268 0
1033 1 43.7687 16.1472 0
1034 1 9.10429 25.8196 0
1035 1 68.1088 40.4729 0
1036 2 3.61424 61.093 0
1037 1 56.0583 70.2636 0
1038 1 70.6013 15.6096 0
1039 1 68.6641 44.667 0
1040 2 60.8697 35.9002 0
1041 1 37.5562 71.2054 0
1042 2 73.6254 48.71 0
1043 2 47.6788 55.7433 0
1044 1 71.5694 25.4818 0
1045 1 7.76508 22.718 0
1046 1 28.9771 73.03 0
1047 2 17.915 38.7838 0
1048 1 53.6522 7.49117 0
1049 1 5.66892 26.7483 0
1050 2 52.1973 33.8896 0
1051 1 39.8516 14.793 0
1052 1 72.9378 39.651 0
1053 2 31.9029 23.0054 0
1054 1 59.6712 75.5035 0
1055 2 7.41933 52.606 0
1056 2 22.2669 50.2118 0
1057 1 15.918 10.946 0
1058 1 38.51 2.31236 0
1059 1 3.52019 59.3929 0
1060 2 31.0648 34.1119 0
1061 1 20.5149 18.271 0
1062 2 18.7843 37.7212 0
1063 1 76.9123 15.1552 0
1064 1 28.8387 6.41962 0
1065 2 41.6784 27.416 0
1066 1 38.9268 70.1772 0
1067 1 12.196 21.8327 0
1068 2 36.6048 12.7143 0
1069 1 12.3811 45.2331 0
1070 2 11.0417 4.27949 0
1071 2 0.181883 59.05 0
1072 2 4.38567 59.2568 0
1073 2 13.3966 74.661 0
1074 2 31.754 48.2013 0
1075 1 74.6725 30.9812 0
1076 1 23.8872 13.6269 0
1077 1 24.4403 26.3297 0
1078 2 71.6469 32.5382 0
1079 2 30.0402 29.0014 0
1080 2 38.3184 54.5905 0
1081 2 37.8 50.2925 0
1082 2 73.8558 14.9171 0
1083 2 32.4319 1.34773 0
1084 1 56.3825 43.0848 0
1085 1 17.9669 32.5169 0
1086 1 47.2912 53.3525 0
1087 1 42.7162 64.209 0
1088 1 50.7047 71.2373 0
1089 2 60.8022 21.6365 0
1090 1 31.8118 27.6016 0
1091 2 55.8904 17.0363 0
1092 1 48.3249 47.8907 0
1093 1 29.1019 32.186 0
1094 2 43.7436 61.2421 0
1095 1 6.15444 0.12418 0
1096 2 64.0707 28.4621 0
1097 1 74.133 11.9385 0
1098 1 62.0714 25.8374 0
1099 1 21.6462 68.626 0
1100 1 75.1615 76.9843 0
1101 1 5.57678 23.9319 0
1102 1 20.1738 12.1939 0
1103 1 35.6797 10.9114 0
1104 1 53.2484 31.2922 0
1105 1 50.6118 28.3611 0
1106 1 72.6507 77.2803 0
1107 2 57.9107 70.1901 0
1108 1 60.9605 22.4284 0
1109 1 75.2188 26.0453 0
1110 2 70.8402 21.7466 0
1111 1 57.764 31.6845 0
1112 1 14.2615 7.75666 0
1113 2 13.2499 76.0891 0
1114 2 12.9146 22.3358 0
1115 2 28.6154 55.6465 0
1116 1 71.507 50.3532 0
1117 1 76.2691 46.5333 0
1118 1 17.262 77.2692 0
1119 2 24.1566 50.2093 0
1120 1 45.3316 31.5944 0
1121 2 67.2519 1.88849 0
1122 1 14.5871 28.3611 0
1123 2 48.3243 27.6691 0
1124 1 55.303 36.694 0
1125 2 30.3201 12.4524 0
1126 2 13.0247 16.8031 0
1127 1 9.50004 20.2292 0
1128 1 58.5077 42.7936 0
1129 1 65.2039 46.3519 0
1130 1 30.811 71.7963 0
1131 1 68.1957 17.081 0
1132 2 67.3423 51.4513 0
1133 2 35.2722 4.78671 0
1134 2 8.34704 3.24366 0
1135 1 57.8155 44.3585 0
1136 2 52.0643 22.5851 0
1137 1 55.593 67.719 0
1138 1 35.829 33.3868 0
1139 2 45.2407 35.6468 0
1140 2 16.2219 21.0261 0
1141 1 71.1264 61.6683 0
1142 1 65.865 27.3951 0
1143 1 56.2262 65.2359 0
1144 2 66.1205 60.2147 0
1145 1 45.1021 47.414 0
1146 1 12.7472 9.59797 0
1147 1 22.4553 25.9143 0
1148 1 12.4467 11.5034 0
1149 1 56.4258 11.1807 0
1150 2 48.2255 36.0945 0
1151 1 61.8284 18.3815 0
1152 1 39.3842 34.3844 0
1153 1 76.2322 10.5993 0
1154 1 8.17706 9.71933 0
1155 2 76.3523 74.4476 0
1156 1 63.9026 17.617 0
1157 1 17.6641 11.2692 0
1158 2 54.7038 55.2784 0
1159 2 68.6783 63.2843 0
1160 1 27.1726 11.018 0
1161 2 26.6388 15.8516 0
1162 1 73.4547 8.43563 0
1163 2 18.1776 1.37728 0
1164 1 42.7122 69.1754 0
1165 1 8.73264 23.2192 0
1166 2 40.634 44.7909 0
1167 1 40.3893 24.6443 0
1168 1 43.5245 71.1205 0
1169 1 13.6194 1.88121 0
1170 2 0.0543403 43.4958 0
1171 1 70.1864 53.1802 0
1172 1 29.3555 14.0099 0
1173 1 51.3479 55.3565 0
1174 1 50.2449 43.2488 0
1175 2 49.8333 53.8925 0
1176 1 76.1516 47.6084 0
1177 1 52.2737 67.8043 0
1178 2 29.0504 35.8223 0
1179 1 10.332 59.4623 0
1180 1 51.6207 10.3866 0
1181 1 67.1184 38.563 0
1182 1 43.8016 77.1317 0
1183 2 30.7204 61.5852 0
1184 2 38.8155 28.4911 0
1185 1 15.9727 55.5405 0
1186 1 34.3574 64.8849 0
1187 1 51.0471 56.3972 0
1188 2 8.54248 42.6147 0
1189 1 52.8824 36.9526 0
1190 1 42.4861 45.5346 0
1191 2 69.8928 17.9956 0
1192 1 19.9539 50.7446 0
1193 1 36.4929 29.3178 0
1194 2 2.33493 41.7264 0
1195 1 14.101 76.474 0
1196 1 69.4772 54.0343 0
1197 1 41.2658 39.2809 0
1198 1 64.2704 76.4789 0
1199 2 41.3668 28.3674 0
1200 1 52.2967 2.1894 0
1201 1 66.6965 4.9647 0
1202 1 18.6638 55.4338 0
1203 2 51.4276 77.1325 0
1204 1 75.306 73.1483 0
1205 1 4.0422 68.8381 0
1206 1 72.4128 8.7953 0
1207 1 52.672 28.4157 0
1208 1 16.8675 50.4346 0
1209 2 44.7377 48.2673 0
1210 1 69.5509 13.048 0
1211 2 29.2994 54.9095 0
1212 1 26.8451 27.7081 0
1213 1 53.1612 58.1055 0
1214 1 74.0112 29.4479 0
1215 1 76.8609 5.72917 0
1216 1 13.0449 65.146 0
1217 2 58.1055 43.5952 0
1218 2 60.2386 71.3124 0
1219 1 38.0424 28.7325 0
1220 1 59.1068 11.8367 0
1221 1 61.9297 66.2494 0
1222 2 68.9607 61.0056 0
1223 1 53.776 42.376 0
1224 1 72.3755 36.9714 0
1225 1 74.123 56.0828 0
1226 2 54.5608 44.9827 0
1227 1 36.695 53.3021 0
1228 1 61.5878 51.8647 0
1229 2 61.105 9.28112 0
1230 1 18.3068 39.5436 0
1231 2 68.2866 17.9219 0
1232 1 1.82546 51.0634 0
1233 1 18.9247 58.6752 0
1234 1 66.9408 60.418 0
1235 1 27.9288 62.6423 0
1236 1 53.0833 53.1333 0
1237 1 30.2171 21.2109 0
1238 1 48.1763 14.4227 0
1239 1 2.00517 25.6322 0
1240 1 44.4849 70.5743 0
1241 1 21.6942 12.8683 0
1242 1 40.2786 60.3712 0