ITEM: TIMESTEP
0
ITEM: NUMBER OF ATOMS
7200
ITEM: BOX BOUNDS xy xz yz pp pp pp
0.0000000000000000e+00 7.7459666924100006e+01 0.0000000000000000e+00
0.0000000000000000e+00 7.7459666924100006e+01 0.0000000000000000e+00
-1.2909944490000000e-01 1.2909944490000000e-01 0.0000000000000000e+00
ITEM: ATOMS id type x y z
1 1 62.1849 31.8456 0
2 1 44.7819 1.46015 0
3 1 8.37721 65.0235 0
4 1 46.6364 57.1738 0
5 1 38.8947 21.4005 0
6 1 73.109 26.4697 0
7 2 17.1154 53.5458 0
8 2 39.6441 21.0381 0
9 1 28.4585 75.1729 0
10 2 13.5418 69.0422 0
11 2 73.2339 74.1683 0
12 1 7.08255 10.439 0
13 2 3.57797 51.1089 0
14 1 3.72194 53.879 0
15 1 74.0679 0.504356 0
16 1 75.7806 12.6024 0
17 1 72.1835 73.4257 0
18 1 41.6649 2.92993 0
19 1 5.64707 31.6106 0
20 2 42.7804 11.4148 0
21 1 47.9237 32.6981 0
22 1 68.6247 35.7803 0
23 1 62.8424 43.3316 0
24 1 72.238 35.6526 0
25 1 46.4224 54.7745 0
26 1 32.3075 45.0091 0
27 2 41.0012 10.0262 0
28 1 41.3848 31.4275 0
29 2 57.0102 14.74 0
30 2 34.0969 9.86559 0
31 1 4.79906 42.7313 0
32 1 49.4704 5.73803 0
33 1 37.3092 43.5215 0
34 2 42.8748 9.86239 0
35 1 73.8046 65.3907 0
36 1 35.4125 62.1747 0
37 1 69.0941 22.7021 0
38 1 19.197 40.2206 0
39 1 29.1896 20.3378 0
40 2 13.2027 36.3853 0
41 2 69.1075 71.9495 0
42 1 74.8297 19.8922 0
43 1 64.4231 12.7351 0
44 1 36.0936 31.3479 0
45 1 58.9784 11.0579 0
46 1 1.58871 2.07443 0
47 1 51.8304 40.4193 0
48 1 40.205 65.4437 0
49 2 19.6917 37.7205 0
50 1 52.6222 72.5487 0
51 1 48.0655 63.9188 0
52 2 11.515 67.5417 0
53 1 54.5695 14.1428 0
54 1 2.3813 62.1027 0
55 1 64.7117 1.43979 0
56 1 52.8929 63.5938 0
57 1 10.6061 12.8203 0
58 1 30.1728 67.2052 0
59 1 61.8775 70.398 0
60 1 57.6095 40.3539 0
61 1 11.4237 32.1759 0
62 1 8.71124 58.4508 0
63 1 30.5788 46.1918 0
64 1 16.9866 18.2338 0
65 1 51.0168 5.8215 0
66 2 22.4844 32.1747 0
67 2 48.1576 53.4939 0
68 2 40.6389 66.1252 0
69 1 41.077 17.779 0
70 1 64.4428 26.7487 0
71 2 77.3821 62.6918 0
72 1 10.6608 51.6543 0
73 1 11.1112 64.8887 0
74 2 44.7321 47.1564 0
75 1 25.417 38.004 0
76 1 3.85641 68.7363 0
77 1 13.9148 70.7519 0
78 1 49.5672 57.1058 0
79 1 64.3573 48.8776 0
80 1 66.9436 37.3185 0
81 1 43.7904 44.5521 0
82 2 29.5304 36.013 0
83 1 70.1605 0.73191 0
84 1 51.7033 18.5546 0
85 1 18.4755 23.8104 0
86 2 64.1481 19.4443 0
87 1 8.24008 10.1138 0
88 1 31.151 5.57521 0
89 1 37.6928 57.2451 0
90 1 0.80268 49.0652 0
91 2 45.8351 51.2185 0
92 2 34.9153 48.2228 0
93 1 58.8336 2.25266 0
94 1 45.1797 47.8804 0
95 2 22.9987 48.4402 0
96 1 41.3999 71.7162 0
97 1 9.94095 9.38446 0
98 2 19.2541 36.4041 0
99 1 6.01506 72.5002 0
100 2 39.6005 32.8731 0
101 1 12.0972 48.2597 0
102 1 66.3019 14.7686 0
103 1 21.4828 43.1736 0
104 1 1.18302 18.3174 0
105 2 5.29243 49.0785 0
106 2 25.0347 43.1823 0
107 1 10.6724 11.4911 0
108 1 16.2759 37.1629 0
109 1 26.5455 30.6845 0
110 2 0.113232 39.8596 0
111 1 19.0073 50.7373 0
112 1 40.5438 9.12186 0
113 2 25.77 0.186102 0
114 2 11.1803 75.5195 0
115 2 4.52856 18.6011 0
116 2 54.2956 36.9681 0
117 1 54.2159 9.89113 0
118 2 3.77593 12.7082 0
119 1 11.8217 11.1257 0
120 2 1.10941 21.0499 0
121 1 59.7499 19.9569 0
122 1 76.379 60.0187 0
123 2 5.56604 54.6419 0
124 1 31.4864 34.8892 0
125 1 74.1084 8.90844 0
126 1 30.0227 13.1552 0
127 1 68.7164 57.6702 0
128 1 58.2178 65.0275 0
129 1 54.3808 44.7607 0
130 1 7.93945 22.0224 0
131 1 9.99535 39.0995 0
132 2 8.73721 65.7853 0
133 2 9.29755 53.8783 0
134 1 75.5904 67.0766 0
135 1 28.2971 68.0154 0
136 2 5.89319 36.8427 0
137 1 18.8457 63.3396 0
138 2 4.68952 25.6505 0
139 1 28.4899 40.1828 0
140 1 1.39624 73.8215 0
141 2 27.925 54.9295 0
142 1 22.3859 47.838 0
143 2 8.04514 49.8568 0
144 2 17.1699 76.4971 0
145 2 34.1928 21.4575 0
146 1 19.5466 75.179 0
147 1 15.0595 46.844 0
148 1 17.7201 71.1282 0
149 2 55.5017 11.8124 0
150 1 71.0075 0.0962952 0
151 2 20.7674 5.86955 0
152 1 12.7959 57.7148 0
153 2 68.9085 27.2499 0
154 2 48.8904 12.794 0
155 1 43.7205 28.521 0
156 1 6.71548 63.8337 0
157 1 13.5772 39.3334 0
158 1 18.928 9.47095 0
159 2 22.5332 8.5824 0
160 1 76.9792 2.23489 0
161 1 15.139 30.6757 0
162 2 1.28839 27.7892 0
163 1 7.07153 72.2613 0
164 1 44.4043 32.2868 0
165 1 38.9281 69.7999 0
166 1 29.0394 44.6267 0
167 1 63.278 67.0416 0
168 1 4.43743 23.2422 0
169 1 26.4664 74.1065 0
170 1 11.5521 47.373 0
171 2 35.4461 43.3491 0
172 2 61.2161 54.3184 0
173 2 39.8256 63.1208 0
174 2 74.568 29.8143 0
175 2 38.6666 32.213 0
176 1 61.86 30.4623 0
177 1 71.3823 34.2341 0
178 1 34.2797 27.8078 0
179 1 72.1259 49.9178 0
180 2 55.6073 66.274 0
181 1 50.4108 32.4082 0
182 1 17.8699 69.336 0
183 2 41.9602 5.2748 0
184 1 15.2165 66.7576 0
185 2 54.1411 21.2625 0
186 1 41.2545 45.2749 0
187 1 11.4765 21.1736 0
188 1 19.5445 71.2834 0
189 2 8.15854 3.78562 0
190 1 71.1204 51.7995 0
191 1 27.9477 0.107991 0
192 1 40.9761 30.3673 0
193 2 38.096 10.0881 0
194 2 19.9029 34.8941 0
195 1 32.4694 62.2925 0
196 2 55.5954 45.8558 0
197 2 61.8439 67.7288 0
198 1 72.7792 65.7987 0
199 2 9.84963 14.5162 0
200 1 50.5985 60.9918 0
201 2 64.8777 28.2517 0
202 2 69.9494 37.4492 0
203 1 69.6827 62.3589 0
204 1 74.8352 65.2333 0
205 1 57.6621 15.366 0
206 2 60.695 24.5671 0
207 2 33.2639 55.3011 0
208 1 45.9474 65.8699 0
209 1 65.1738 29.7778 0
210 2 35.6371 66.5899 0
211 1 19.9803 50.2802 0
212 2 35.8277 61.0442 0
213 2 32.8576 8.97219 0
214 1 56.4392 72.1792 0
215 2 0.731956 34.4284 0
216 1 4.40161 15.0141 0
217 1 68.8803 59.5499 0
218 2 60.1116 12.5766 0
219 2 17.212 54.7132 0
220 2 69.5966 18.9043 0
221 1 9.00963 2.04114 0
222 1 62.8321 45.0187 0
223 2 60.8302 17.8038 0
224 2 69.3122 43.6689 0
225 1 22.8725 1.0137 0
226 2 72.3953 75.2772 0
227 2 26.7109 22.767 0
228 1 30.9225 45.2891 0
229 1 2.52572 44.8718 0
230 1 42.5649 25.9315 0
231 1 14.9936 42.2954 0
232 1 7.0041 29.1343 0
233 1 26.8431 23.6508 0
234 1 45.4917 46.8524 0
235 1 68.8897 61.6917 0
236 2 1.63377 14.2006 0
237 1 27.5897 59.8699 0
238 2 55.2365 53.415 0
239 1 44.505 10.1163 0
240 2 72.6186 48.0387 0
241 1 54.0684 13.2044 0
242 1 47.4413 39.6334 0
243 1 21.3529 64.6158 0
244 1 11.6426 52.004 0
245 1 69.8504 38.3346 0
246 1 68.3495 29.7772 0
247 1 41.6916 53.9155 0
248 1 51.1622 21.9529 0
249 2 31.2596 29.6566 0
250 1 9.06239 68.8632 0
251 2 61.7225 52.6714 0
252 2 28.159 56.7396 0
253 1 75.832 22.5026 0
254 1 8.58271 35.4795 0
255 1 20.5036 52.0173 0
256 1 59.6341 61.8391 0
257 1 37.7365 53.7074 0
258 1 50.5806 7.07507 0
259 1 70.8386 29.7852 0
260 2 43.6801 14.4864 0
261 2 72.1565 17.9298 0
262 1 67.4879 43.4758 0
263 2 11.5709 26.9788 0
264 2 57.4383 50.2185 0
265 1 21.5321 59.9049 0
266 1 24.4105 55.1208 0
267 2 25.8581 19.6611 0
268 2 6.27331 41.4631 0
269 1 71.354 23.9314 0
270 2 40.7429 1.24781 0
271 2 43.1432 27.7928 0
272 2 16.9737 56.0151 0
273 1 75.5575 47.9611 0
274 1 3.43674 77.3934 0
275 1 75.6731 55.7279 0
276 1 66.586 77.2092 0
277 2 47.6899 19.0798 0
278 1 74.438 23.6025 0
279 1 53.0504 71.5798 0
280 1 50.3776 15.0148 0
281 1 27.696 43.1919 0
282 2 68.0107 59.3647 0
283 1 4.96635 69.9944 0
284 2 9.84504 66.9761 0
285 1 11.9589 13.8624 0
286 1 60.1956 67.3679 0
287 1 58.5758 69.9216 0
288 2 39.7458 64.8104 0
289 2 42.4093 52.2568 0
290 2 63.8497 62.4913 0
291 1 55.2339 43.2338 0
292 1 5.09472 51.7715 0
293 1 27.7789 40.9704 0
294 1 74.071 32.3244 0
295 1 12.9408 65.5608 0
296 2 10.2381 65.332 0
297 1 24.7194 1.69712 0
298 1 19.8197 63.2292 0
299 2 27.3855 71.1681 0
300 1 12.0131 20.2277 0
301 1 27.0838 46.7605 0
302 1 30.8821 8.27109 0
303 1 61.5594 45.6199 0
304 1 1.4556 53.8506 0
305 2 44.9085 29.8569 0
306 1 47.3982 55.222 0
307 2 0.2094 44.1063 0
308 1 50.4238 40.1576 0
309 2 58.993 58.1904 0
310 2 22.197 28.2674 0
311 1 20.5868 27.3459 0
312 1 71.7802 59.2199 0
313 1 74.9327 51.1066 0
314 1 68.771 32.9257 0
315 2 46.832 20.4766 0
316 2 76.1694 45.4731 0
317 1 68.2314 38.5767 0
318 2 64.1758 29.7733 0
319 1 12.0796 4.19429 0
320 1 2.9507 65.6284 0
321 1 21.4883 13.6393 0
322 2 30.0764 33.5473 0
323 2 18.5058 29.8081 0
324 1 32.5639 65.6722 0
325 1 27.1725 48.821 0
326 1 0.437267 2.04496 0
327 1 45.5333 76.3217 0
328 1 45.0997 27.6514 0
329 1 54.1911 43.5967 0
330 2 27.6762 68.6 0
331 2 26.7848 68.5093 0
332 1 4.33404 66.7028 0
333 1 56.5748 76.2526 0
334 1 2.46316 73.2751 0
335 1 73.2305 69.7618 0
336 2 15.6237 10.5444 0
337 1 50.6413 37.4552 0
338 2 23.1392 15.692 0
339 1 0.213164 50.0951 0
340 1 56.5282 43.2086 0
341 2 66.4306 42.5424 0
342 1 14.5147 43.3377 0
343 2 28.8938 62.817 0
344 2 27.1833 62.6259 0
345 1 39.9918 27.0641 0
346 1 18.123 72.9006 0
347 1 54.2544 25.399 0
348 1 30.4826 52.1134 0
349 1 17.6399 63.9752 0
350 1 69.6002 36.5106 0
351 1 57.9614 24.3144 0
352 1 24.9308 0.52243 0
353 1 56.6289 61.1645 0
354 2 70.0173 14.676 0
355 2 19.0286 23.1099 0
356 2 50.6847 60.0673 0
357 1 26.9719 33.6915 0
358 1 42.0023 23.3133 0
359 1 66.7749 8.3123 0
360 2 6.23092 10.0947 0
361 2 35.3417 64.9166 0
362 1 76.569 67.3993 0
363 2 48.8334 63.4772 0
364 1 49.9764 31.0112 0
365 2 13.5359 17.7013 0
366 1 36.6424 60.7146 0
367 2 52.1279 66.3692 0
368 2 27.8597 52.9942 0
369 2 47.4404 35.3599 0
370 1 69.2556 0.347418 0
371 1 76.3335 18.4703 0
372 2 57.93 72.9233 0
373 1 26.7783 40.5114 0
374 2 64.8001 9.1385 0
375 1 65.6649 1.055 0
376 2 31.4448 16.3905 0
377 2 54.465 62.4359 0
378 1 55.173 39.3076 0
379 1 28.6906 53.3713 0
380 1 22.2238 25.6273 0
381 1 63.6314 51.9216 0
382 1 45.6726 18.9013 0
383 1 6.06581 17.6382 0
384 1 41.8226 62.069 0
385 1 58.082 16.4485 0
386 1 68.0728 27.1791 0
387 1 74.231 39.6226 0
388 2 30.7067 32.1735 0
389 1 74.2825 49.2128 0
390 1 38.9237 77.4122 0
391 2 27.3154 27.156 0
392 2 56.1244 27.0446 0
393 2 6.44276 71.7043 0
394 1 66.0504 24.3273 0
395 1 31.7449 2.95675 0
396 1 46.6253 58.3825 0
397 1 43.1825 48.7305 0
398 1 11.3997 31.1223 0
399 1 7.0847 44.3822 0
400 1 58.1774 45.5998 0
401 1 36.7156 58.5313 0
402 2 15.8204 45.1077 0
403 1 57.6439 35.6679 0
404 1 27.7358 4.59874 0
405 2 34.3347 17.7704 0
406 1 62.4722 73.8617 0
407 2 33.1626 45.2418 0
408 1 68.287 1.71649 0
409 1 52.1126 2.9621 0
410 2 39.753 39.4207 0
411 2 68.0852 7.00863 0
412 1 9.50188 31.4438 0
413 1 38.1744 25.2919 0
414 1 25.8842 15.2431 0
415 1 34.2328 25.0177 0
416 2 3.36871 74.0435 0
417 2 75.7496 62.912 0
418 1 18.2897 46.1064 0
419 2 22.2348 60.3324 0
420 2 44.4113 38.0636 0
421 1 50.4831 33.4716 0
422 1 45.1838 35.8604 0
423 1 29.9123 56.1678 0
424 1 33.7432 17.2035 0
425 1 38.3431 51.1354 0
426 1 23.8904 0.679143 0
427 2 67.5521 21.9081 0
428 1 15.1634 13.6149 0
429 1 19.9512 36.8597 0
430 1 8.05645 50.7628 0
431 1 75.5691 71.8559 0
432 1 57.4106 42.5395 0
433 1 31.5227 1.93833 0
434 1 73.2856 51.0838 0
435 1 5.65069 9.44654 0
436 2 35.3024 68.2875 0
437 2 47.9167 67.4265 0
438 1 36.5601 63.8377 0
439 2 9.26605 33.0077 0
440 1 23.0748 75.1671 0
441 2 48.4833 17.2792 0
442 1 0.885588 72.6433 0
443 1 65.1862 52.7113 0
444 1 29.9917 51.1938 0
445 2 25.0161 23.6305 0
446 1 29.2785 59.0554 0
447 1 50.9673 24.8789 0
448 1 64.2128 61.7836 0
449 1 15.5206 45.9194 0
450 2 35.3953 36.4749 0
451 2 37.2324 2.5993 0
452 1 32.6946 64.358 0
453 1 13.1357 76.1847 0
454 2 75.3204 33.7254 0
455 2 57.8207 59.18 0
456 1 55.9457 0.574056 0
457 2 41.1493 70.8286 0
458 1 37.9671 10.9533 0
459 2 72.9461 35.3041 0
460 1 63.5668 35.6269 0
461 2 75.9678 21.6935 0
462 1 38.9384 75.8017 0
463 1 62.5904 71.1051 0
464 1 15.5469 0.152977 0
465 2 33.3501 48.305 0
466 1 20.2954 8.50941 0
467 2 72.2986 20.9172 0
468 1 9.76282 27.1114 0
469 1 65.0531 47.1947 0
470 1 72.1576 68.4165 0
471 2 7.52637 9.67382 0
472 1 60.8344 74.0796 0
473 1 64.6287 77.2288 0
474 1 65.7904 37.1604 0
475 1 55.3819 45.0269 0
476 2 55.6145 1.38985 0
477 1 39.147 57.9444 0
478 2 18.3327 56.3468 0
479 1 45.3461 17.7198 0
480 1 42.0507 47.1 0
481 1 67.9937 22.776 0
482 1 19.3004 30.1834 0
483 2 61.7115 71.307 0
484 1 75.9301 3.96989 0
485 1 15.8921 9.68316 0
486 1 35.4956 72.1455 0
487 2 65.7108 41.1032 0
488 1 61.0116 64.7012 0
489 1 5.13538 38.5501 0
490 1 16.4263 60.8049 0
491 1 68.9816 64.3639 0
492 2 31.5515 44.693 0
493 1 63.9684 0.745025 0
494 1 69.9501 67.4686 0
495 2 31.1798 75.4301 0
496 2 26.3085 34.183 0
497 2 0.0839721 14.9895 0
498 1 69.8457 6.91318 0
499 1 36.1913 27.9276 0
500 1 4.55947 2.3322 0
501 2 36.7075 25.2703 0
502 1 47.8445 22.583 0
503 1 0.321332 24.4891 0
504 1 16.2404 50.0828 0
505 2 16.4737 48.3719 0
506 2 1.12922 75.6921 0
507 1 73.7285 9.9515 0
508 1 41.7018 1.24145 0
509 1 74.1513 24.6078 0
510 1 0.0319256 57.9371 0
511 1 13.9785 32.0088 0
512 1 23.1454 41.2395 0
513 1 10.6289 37.1859 0
514 1 4.37365 50.7293 0
515 2 70.7812 39.6361 0
516 2 76.5554 55.5009 0
517 2 25.56 68.3543 0
518 2 29.738 31.7604 0
519 2 55.3211 58.9526 0
520 1 34.4219 54.9791 0
521 1 16.4957 12.1547 0
522 2 61.9103 28.6964 0
523 1 3.23601 37.4749 0
524 1 39.4937 33.7284 0
525 1 42.0696 6.26615 0
526 2 4.17662 0.558544 0
527 1 54.1379 32.8696 0
528 2 7.21557 40.0536 0
529 2 55.9182 39.9205 0
530 1 43.5567 10.5602 0
531 2 40.0063 3.73976 0
532 2 29.0013 70.9018 0
533 1 13.8106 51.3405 0
534 1 67.9011 60.3433 0
535 1 60.1147 68.3989 0
536 1 70.5381 45.277 0
537 1 2.33861 6.49379 0
538 2 20.6468 10.319 0
539 2 44.4383 28.2362 0
540 1 13.348 60.029 0
541 2 65.0626 50.7165 0
542 1 51.8206 73.9649 0
543 2 10.1505 57.8235 0
544 2 31.8785 33.0547 0
545 1 10.0997 55.4976 0
546 1 15.9542 16.3011 0
547 1 52.5029 69.0585 0
548 2 14.0777 45.0371 0
549 2 56.6836 74.2343 0
550 2 73.1198 54.2596 0
551 1 9.12027 14.0646 0
552 2 14.4683 55.9042 0
553 2 8.6195 51.4251 0
554 1 16.4748 30.5391 0
555 1 2.2155 13.5958 0
556 1 64.1723 50.8997 0
557 1 71.505 7.46748 0
558 1 26.4703 71.1418 0
559 1 45.1433 53.4312 0
560 2 55.5824 51.5699 0
561 1 58.7373 77.4313 0
562 2 55.5118 33.8079 0
563 2 21.7368 12.8248 0
564 1 43.6946 39.7722 0
565 2 6.97259 16.533 0
566 2 12.4321 6.87163 0
567 1 16.4653 77.0936 0
568 2 3.17696 68.2278 0
569 2 7.85736 53.767 0
570 1 6.7824 52.3067 0
571 1 57.5426 74.6176 0
572 2 32.5284 74.5775 0
573 2 76.37 52.0947 0
574 1 21.2345 17.8791 0
575 1 25.2214 19.1076 0
576 1 74.6715 56.4702 0
577 1 57.4143 23.4598 0
578 2 60.2882 58.3255 0
579 2 61.1454 3.53142 0
580 1 35.9565 6.63681 0
581 1 52.4871 53.2262 0
582 2 45.6679 40.0628 0
583 2 72.5013 31.1466 0
584 2 35.8357 28.8249 0
585 1 59.2749 3.99743 0
586 1 71.0236 66.71 0
587 2 20.8105 52.938 0
588 1 17.8708 38.4386 0
589 2 36.8008 9.36671 0
590 1 74.8439 11.2612 0
591 1 10.203 15.3438 0
592 1 18.9208 38.2414 0
593 1 17.5449 46.8627 0
594 1 47.1885 19.6896 0
595 1 23.7872 43.2894 0
596 2 63.2962 50.9864 0
597 1 35.1713 21.7823 0
598 1 21.0992 36.9414 0
599 1 74.5549 28.8678 0
600 1 57.8675 32.8683 0
601 2 34.2398 23.2339 0
602 1 72.0527 4.93344 0
603 2 59.904 48.9534 0
604 2 42.0047 17.9518 0
605 1 29.065 3.0882 0
606 1 39.0098 74.4636 0
607 1 27.6504 10.3627 0
608 2 40.4106 48.5054 0
609 2 55.8467 15.6134 0
610 1 5.66742 57.9916 0
611 1 20.9704 57.4974 0
612 1 23.7067 46.396 0
613 1 18.161 44.1547 0
614 2 9.99213 7.68308 0
615 1 66.3792 43.4446 0
616 1 75.9703 37.4104 0
617 1 58.389 42.9431 0
618 2 52.795 56.2364 0
619 2 73.4448 58.2613 0
620 2 45.9456 25.2449 0
621 2 14.2899 4.00822 0
622 1 34.6924 43.0353 0
623 1 45.6751 41.5587 0
624 2 43.4888 2.30671 0
625 1 44.6971 26.7093 0
626 1 28.195 20.2133 0
627 2 55.7841 64.6803 0
628 1 43.5506 64.1726 0
629 2 22.866 46.1144 0
630 1 1.43122 68.7636 0
631 1 69.7659 57.7354 0
632 1 67.7704 36.2622 0
633 2 68.2291 30.6435 0
634 1 10.8203 69.1307 0
635 2 25.0571 40.614 0
636 2 37.0869 0.903715 0
637 1 16.2043 52.0505 0
638 1 11.8941 74.9245 0
639 1 7.58711 52.8726 0
640 1 51.4922 46.7414 0
641 1 26.8286 19.2681 0
642 1 17.3016 48.6626 0
643 1 15.232 75.8588 0
644 2 66.7733 17.8021 0
645 1 66.2148 52.7468 0
646 1 31.9455 41.6468 0
647 2 55.3428 2.94444 0
648 1 5.02796 14.0301 0
649 2 8.463 68.1253 0
650 2 60.9807 30.65 0
651 1 47.8298 27.7722 0
652 1 65.1209 15.1825 0
653 2 19.4029 57.2762 0
654 2 23.7728 25.1539 0
655 1 55.8742 5.36434 0
656 1 65.3062 35.7103 0
657 1 40.386 68.9814 0
658 1 8.1771 30.2336 0
659 2 41.9873 28.911 0
660 1 38.1262 14.7736 0
661 1 43.6623 9.46784 0
662 1 6.94262 6.16708 0
663 1 38.2171 39.0504 0
664 1 11.2075 33.2006 0
665 2 31.4896 65.8723 0
666 2 9.81655 47.3375 0
667 1 38.6333 45.2471 0
668 2 66.1252 32.19 0
669 1 28.9562 25.0481 0
670 2 31.4805 23.9057 0
671 2 63.8251 69.6668 0
672 1 22.4632 9.53307 0
673 1 5.83809 6.78158 0
674 1 5.11713 59.5853 0
675 2 33.7837 7.3978 0
676 2 34.0181 26.8802 0
677 1 16.0614 64.1318 0
678 1 74.2531 46.1533 0
679 1 17.821 50.9513 0
680 1 55.5275 46.8374 0
681 1 50.7999 44.9291 0
682 1 60.8976 71.4767 0
683 1 11.4628 10.0021 0
684 1 74.4746 27.1213 0
685 2 7.03228 70.4168 0
686 1 56.6162 37.2484 0
687 1 27.6286 30.6876 0
688 2 27.1163 25.4141 0
689 1 40.4371 38.9228 0
690 1 47.7882 51.5408 0
691 1 65.3863 68.4107 0
692 2 53.9657 5.58082 0
693 1 12.3843 27.8021 0
694 2 49.9699 63.4488 0
695 1 75.1579 70.8789 0
696 2 14.0597 16.1319 0
697 1 15.1125 3.7421 0
698 1 10.618 25.517 0
699 1 9.37316 8.47978 0
700 1 21.6337 28.9854 0
701 1 33.7197 9.12179 0
702 1 14.1241 56.7817 0
703 2 38.1469 6.62545 0
704 2 37.1663 22.2823 0
705 2 49.5016 48.4397 0
706 1 2.14969 61.0277 0
707 2 55.0993 28.3788 0
708 1 31.5657 63.963 0
709 1 29.0679 71.7268 0
710 2 10.6892 49.5929 0
711 1 53.3483 61.0328 0
712 2 23.9645 52.1773 0
713 2 75.5879 53.083 0
714 2 32.9656 50.0845 0
715 1 36.2271 17.7588 0
716 1 3.18862 9.03742 0
717 1 18.2486 39.9497 0
718 1 12.4231 30.4964 0
719 1 15.154 28.9514 0
720 2 1.85767 57.4179 0
721 2 75.6532 1.02438 0
722 1 26.019 69.0863 0
723 2 12.1034 18.2547 0
724 2 12.3936 47.3792 0
725 1 0.214638 21.1085 0
726 1 51.1172 45.8763 0
727 2 52.9385 42.7837 0
728 1 5.05064 76.5781 0
729 2 64.5686 42.4814 0
730 1 69.7348 76.5754 0
731 2 14.8041 58.8789 0
732 1 46.1439 11.5258 0
733 1 11.4702 60.7059 0
734 2 21.9133 16.1011 0
735 1 71.8291 30.5958 0
736 1 32.6063 4.71436 0
737 2 3.29827 52.1045 0
738 1 11.7835 35.6647 0
739 1 72.4607 38.5833 0
740 1 39.8256 2.91928 0
741 2 76.2726 6.3279 0
742 1 70.7618 10.5454 0
743 1 25.8693 52.881 0
744 2 41.5854 44.4446 0
745 1 5.08836 33.8267 0
746 1 67.0985 5.34072 0
747 1 61.2204 77.4369 0
748 2 24.9108 8.41618 0
749 2 24.8228 28.551 0
750 1 11.5617 17.5606 0
751 1 11.8336 29.4286 0
752 2 66.0008 67.7473 0
753 1 25.9362 38.99 0
754 2 5.6336 43.0889 0
755 1 72.6382 10.1225 0
756 2 30.6305 22.7212 0
757 1 55.5677 52.4422 0
758 1 11.1121 43.3561 0
759 1 20.8391 1.69514 0
760 1 2.40206 8.16648 0
761 1 11.0827 5.66477 0
762 1 35.2814 35.6215 0
763 2 14.5713 26.6321 0
764 1 6.83931 55.5553 0
765 2 57.3854 75.5104 0
766 1 8.08214 42.0231 0
767 1 22.4643 51.0419 0
768 1 68.6693 51.4647 0
769 1 14.0992 48.1839 0
770 2 42.6604 64.5394 0
771 1 0.482687 32.7769 0
772 1 58.3206 62.296 0
773 1 0.240452 39.074 0
774 2 14.8685 31.5397 0
775 1 29.2379 33.3812 0
776 2 1.96845 22.1012 0
777 1 61.866 5.40484 0
778 2 50.2786 26.4636 0
779 1 71.5609 57.7604 0
780 1 67.7814 64.3014 0
781 1 53.2161 7.91481 0
782 1 50.4183 62.7108 0
783 1 70.473 68.3331 0
784 1 28.057 55.8228 0
785 2 8.52935 8.24429 0
786 1 43.0529 41.4309 0
787 1 47.0303 69.0374 0
788 1 70.1237 65.7182 0
789 1 37.3201 25.9207 0
790 1 65.5302 4.20435 0
791 1 38.4379 35.7688 0
792 1 5.09272 56.9642 0
793 1 64.3331 74.4724 0
794 2 51.3838 67.042 0
795 2 48.2474 47.5393 0
796 2 18.1098 13.6958 0
797 1 52.1647 22.451 0
798 1 65.1275 71.036 0
799 1 29.8349 29.0422 0
800 1 76.4548 72.4371 0
801 2 1.39678 62.7123 0
802 2 74.8194 17.769 0
803 2 64.3313 46.8087 0
804 2 32.259 10.4105 0
805 1 27.8388 12.4948 0
806 1 36.2506 75.3869 0
807 2 27.4844 45.0446 0
808 1 38.2449 59.3767 0
809 2 44.7191 69.4209 0
810 1 35.1892 25.3474 0
811 1 74.1697 13.203 0
812 2 64.6189 68.1854 0
813 2 48.3539 14.2224 0
814 1 53.055 57.8163 0
815 2 74.0962 21.6395 0
816 1 25.1161 53.5592 0
817 1 9.63461 20.0404 0
818 2 31.2728 39.0783 0
819 2 10.9348 61.3299 0
820 1 49.3572 72.8251 0
821 1 30.5434 31.3061 0
822 1 8.34991 76.1634 0
823 1 49.9038 75.6299 0
824 2 39.2634 76.5187 0
825 1 65.1465 23.5936 0
826 1 14.2265 15.1618 0
827 1 71.3829 49.2074 0
828 1 22.7799 54.5849 0
829 1 17.063 72.8817 0
830 2 7.24243 62.5133 0
831 2 32.6853 67.2704 0
832 1 49.3002 52.3564 0
833 1 0.303022 65.0753 0
834 2 31.8042 50.168 0
835 1 15.7494 29.7955 0
836 1 13.4068 73.4456 0
837 1 31.8706 67.6434 0
838 1 6.19626 47.3792 0
839 1 39.2323 25.4494 0
840 2 43.4037 53.6182 0
841 1 73.5294 27.4246 0
842 2 60.3187 8.9573 0
843 1 51.4086 49.2925 0
844 1 10.782 50.5243 0
845 2 75.6153 31.3073 0
846 1 15.8114 6.4246 0
847 1 71.1773 35.914 0
848 2 39.0048 59.814 0
849 1 59.3553 75.6376 0
850 1 62.6384 48.5108 0
851 1 72.2685 13.383 0
852 1 1.01276 33.6452 0
853 1 67.3336 72.2012 0
854 1 44.1612 52.0786 0
855 1 68.7219 18.4405 0
856 2 57.3561 11.0831 0
857 1 0.833126 14.4997 0
858 2 2.50468 55.0226 0
859 1 60.0714 43.3691 0
860 2 26.1943 26.296 0
861 2 18.1118 3.8923 0
862 2 61.4248 29.6798 0
863 1 67.9753 9.62575 0
864 1 40.8428 61.7411 0
865 2 2.01641 59.1642 0
866 1 32.9864 13.2652 0
867 2 73.407 59.4496 0
868 1 26.5923 66.8533 0
869 1 19.8046 77.3713 0
870 1 36.963 27.2187 0
871 1 61.7198 49.8744 0
872 1 68.7909 17.4524 0
873 1 11.1605 19.5605 0
874 1 53.4392 37.1372 0
875 1 2.30263 1.28715 0
876 2 76.7106 31.717 0
877 1 28.6645 8.99199 0
878 2 41.6938 3.89062 0
879 1 61.8718 3.09536 0
880 2 56.6247 34.1437 0
881 2 66.2325 35.1953 0
882 2 7.53332 65.27 0
883 1 5.01385 36.8769 0
884 1 58.1909 75.4048 0
885 1 45.4335 32.3518 0
886 1 47.4439 41.836 0
887 2 43.6146 70.6547 0
888 1 25.607 28.7294 0
889 2 54.0022 0.515798 0
890 2 12.2719 31.3397 0
891 1 11.2039 22.3081 0
892 1 41.2947 24.152 0
893 1 11.2377 42.3058 0
894 1 22.0962 3.54949 0
895 2 75.651 72.7551 0
896 1 41.7578 9.76151 0
897 2 13.39 8.28821 0
898 1 70.0109 69.94 0
899 1 49.3511 37.1752 0
900 2 7.66145 30.9071 0
901 1 36.2179 11.0668 0
902 1 27.2287 2.05797 0
903 1 76.7899 65.48 0
904 2 27.1083 7.06839 0
905 1 20.8001 9.49236 0
906 1 36.693 42.8129 0
907 1 24.3409 77.1697 0
908 1 44.9138 30.7345 0
909 1 65.824 63.014 0
910 2 70.1101 3.2011 0
911 2 10.0549 74.3408 0
912 2 40.8263 74.0391 0
913 2 32.4851 59.9699 0
914 1 13.2668 1.84845 0
915 2 23.5617 57.344 0
916 1 60.0414 14.5479 0
917 2 34.9622 19.9808 0
918 2 72.7124 25.6788 0
919 1 23.5258 11.967 0
920 1 28.7583 57.4096 0
921 1 20.2388 25.802 0
922 2 46.2843 14.4292 0
923 2 48.9917 53.1204 0
924 1 44.2227 6.72837 0
925 1 58.8317 23.8162 0
926 2 6.06795 15.7121 0
927 1 19.7513 13.0104 0
928 1 34.8856 70.0334 0
929 2 4.3588 11.2849 0
930 2 16.5997 29.7138 0
931 1 65.2316 44.3083 0
932 1 49.0186 67.3692 0
933 1 55.556 67.1452 0
934 1 62.9074 58.2964 0
935 1 25.2586 73.3599 0
936 2 40.6618 39.7801 0
937 1 46.7702 18.7178 0
938 1 45.8232 62.8218 0
939 2 2.04982 31.9643 0
940 1 17.7608 10.6788 0
941 1 33.1985 61.6395 0
942 1 46.2697 50.3356 0
943 2 48.8432 32.542 0
944 2 48.523 21.0049 0
945 1 10.5165 45.4047 0
946 1 26.8139 54.348 0
947 2 60.3685 62.2881 0
948 1 10.5022 31.6734 0
949 1 37.959 21.9626 0
950 2 24.0725 65.0043 0
951 1 2.40651 17.2152 0
952 2 35.0299 34.8122 0
953 2 25.6816 35.9825 0
954 2 28.5451 42.839 0
955 1 56.513 19.8981 0
956 2 49.5013 3.33176 0
957 1 0.592698 53.2634 0
958 2 7.42996 67.0058 0
959 2 62.0898 0.488064 0
960 2 64.9149 58.3449 0
961 1 43.7066 59.1458 0
962 1 58.2321 58.4027 0
963 1 36.2187 54.687 0
964 2 54.9765 13.4317 0
965 2 24.3288 49.2053 0
966 1 4.27914 19.4368 0
967 1 29.6252 19.3043 0
968 1 7.91493 24.119 0
969 1 1.826 43.4362 0
970 2 1.63654 34.1825 0
971 1 20.3186 72.7551 0
972 1 39.4979 29.4014 0
973 1 7.98631 59.8193 0
974 2 11.2718 48.2302 0
975 2 14.6711 36.0575 0
976 2 12.8787 20.3109 0
977 1 53.7929 51.2784 0
978 2 40.0682 69.9985 0
979 2 77.3732 20.2389 0
980 1 59.0016 27.7524 0
981 1 31.1374 49.5712 0
982 1 16.3319 44.4016 0
983 1 48.6176 21.8309 0
984 1 63.4751 46.6193 0
985 1 46.3097 49.1083 0
986 1 1.5136 66.1238 0
987 2 47.937 68.9292 0
988 2 67.3192 46.448 0
989 2 71.457 35.0253 0
990 2 17.415 62.2813 0
991 2 26.138 53.6781 0
992 1 0.334763 74.2105 0
993 2 13.9181 76.8805 0
994 2 73.6835 75.8406 0
995 1 62.484 20.0062 0
996 2 24.0449 16.5758 0
997 2 24.1238 41.678 0
998 2 70.4873 69.182 0
999 2 20.2133 73.6083 0
1000 2 66.3186 56.1221 0
1001 1 50.3674 25.6443 0
1002 1 34.8065 20.8317 0
1003 1 66.0046 46.5988 0
1004 1 60.8036 57.5893 0
1005 2 0.17529 2.90773 0
1006 2 37.5087 42.4544 0
1007 1 57.0355 28.5355 0
1008 1 48.2325 66.6424 0
1009 1 11.1935 70.8007 0
1010 1 6.51268 32.2513 0
1011 2 21.3627 45.9863 0
1012 2 66.9653 60.4072 0
1013 2 26.7077 74.918 0
1014 1 34.9638 9.71993 0
1015 1 16.8255 41.7917 0
1016 1 74.25 44.9349 0
1017 2 57.0072 39.7296 0
1018 1 54.1497 70.7292 0
1019 1 35.2205 75.1281 0
1020 2 41.5888 47.7521 0
1021 2 12.5407 23.7576 0
1022 1 17.9777 26.3984 0
1023 1 62.9287 2.91479 0
1024 1 22.8169 72.1341 0
1025 1 25.4737 18.0722 0
1026 1 64.3659 25.1763 0
1027 1 48.7846 51.4815 0
1028 1 35.1331 18.0249 0
1029 1 64.4195 39.8083 0
1030 2 17.6468 57.5685 0
1031 2 47.1303 54.2696 0
1032 1 7.98479 19.485 0
1033 1 58.9089 22.5684 0
1034 1 1.88733 5.59467 0
1035 1 33.9406 15.5504 0
1036 2 38.1294 52.9168 0
1037 1 46.7623 4.60605 0
1038 1 75.8246 41.9466 0
1039 1 74.5749 52.1424 0
1040 2 46.2007 62.0485 0
1041 1 31.2771 74.4983 0
1042 2 39.3824 17.0451 0
1043 2 39.8176 7.16597 0
1044 1 21.5379 0.772822 0
1045 1 23.5074 38.5051 0
1046 1 37.9582 23.0094 0
1047 2 49.5749 47.0795 0
1048 1 23.9874 48.3673 0
1049 1 40.5892 7.42203 0
1050 2 21.6336 9.50022 0
1051 1 42.727 35.0603 0
1052 1 30.837 44.1049 0
1053 2 5.38729 17.0136 0
1054 1 35.3981 0.446546 0
1055 2 37.2444 53.0486 0
1056 2 71.4254 60.0167 0
1057 1 40.5778 44.5085 0
1058 1 57.1334 58.1879 0
1059 1 22.3055 17.6012 0
1060 2 30.6221 17.7273 0
1061 1 67.6459 31.1745 0
1062 2 63.8183 50.1032 0
1063 1 17.2171 43.4353 0
1064 1 36.4542 16.7404 0
1065 2 32.2563 19.7696 0
1066 1 36.3629 71.4785 0
1067 1 27.0026 41.6535 0
1068 2 49.6764 66.9012 0
1069 1 48.3921 55.3932 0
1070 2 58.5146 47.7696 0
1071 2 28.7203 37.5672 0
1072 2 32.8137 20.9183 0
1073 2 21.5847 14.5609 0
1074 2 45.3154 9.94248 0
1075 1 45.0549 15.9878 0
1076 1 42.7299 1.60548 0
1077 1 13.2811 68.1554 0
1078 2 59.1196 62.5163 0
1079 2 48.9611 60.148 0
1080 2 46.89 38.8936 0
1081 2 34.7038 55.7837 0
1082 2 63.5971 34.7815 0
1083 2 40.5214 42.0861 0
1084 1 41.4835 49.7263 0
1085 1 11.0828 54.4085 0
1086 1 41.3731 15.4538 0
1087 1 12.5292 21.1011 0
1088 1 60.1306 77.4309 0
1089 2 1.01077 70.9093 0
1090 1 45.6576 25.9921 0
1091 2 19.7828 43.6677 0
1092 1 54.7891 29.1337 0
1093 1 5.39225 66.7111 0
1094 2 40.6365 21.8174 0
1095 1 58.8201 28.705 0
1096 2 55.9114 61.7243 0
1097 1 74.2216 70.3538 0
1098 1 42.4477 10.5932 0
1099 1 6.11478 21.9568 0
1100 1 48.2537 48.4314 0
1101 1 41.3145 41.5927 0
1102 1 66.0832 5.81163 0
1103 1 30.2597 28.0313 0
1104 1 23.4297 17.1717 0
1105 1 19.4794 31.175 0
1106 1 71.849 64.4946 0
1107 2 46.0993 57.741 0
1108 1 70.3912 23.9162 0
1109 1 51.6911 72.8973 0
1110 2 40.3525 5.47395 0
1111 1 25.8182 24.2649 0
1112 1 28.6682 7.79974 0
1113 2 17.1503 0.22396 0
1114 2 0.683672 52.2627 0
1115 2 66.8978 70.668 0
1116 1 40.754 51.4848 0
1117 1 18.571 3.07642 0
1118 1 69.4054 12.0081 0
1119 2 74.7342 55.5815 0
1120 1 0.139707 7.71483 0
1121 2 31.4281 37.8078 0
1122 1 4.76733 64.6904 0
1123 2 11.1148 53.5227 0
1124 1 5.34733 73.2861 0
1125 2 46.0836 46.1023 0
1126 2 73.8532 18.4303 0
1127 1 42.5178 74.4971 0
1128 1 47.3172 43.5228 0
1129 1 72.2807 54.3517 0
1130 1 16.8737 69.6665 0
1131 1 48.914 11.9564 0
1132 2 23.2178 23.372 0
1133 2 30.4493 27.1395 0
1134 2 58.1121 44.7234 0
1135 1 19.9031 46.4652 0
1136 2 4.44353 52.466 0
1137 1 73.1074 1.92432 0
1138 1 69.9973 9.80055 0
1139 2 41.6929 57.3458 0
1140 2 17.5642 6.52116 0
1141 1 3.72881 52.9245 0
1142 1 34.4645 5.55859 0
1143 1 64.0434 55.1099 0
1144 2 5.25675 50.44 0
1145 1 34.8086 56.6889 0
1146 1 6.35365 28.2396 0
1147 1 31.6391 11.0526 0
1148 1 20.7936 60.6677 0
1149 1 41.2062 54.8987 0
1150 2 13.3241 62.7149 0
1151 1 30.0044 68.2717 0
1152 1 49.6501 27.0034 0
1153 1 59.07 49.2721 0
1154 1 31.6928 60.3315 0
1155 2 44.7213 41.4803 0
1156 1 0.378321 35.284 0
1157 1 23.5917 24.1509 0
1158 2 26.6302 52.4376 0
1159 2 19.5643 58.9679 0
1160 1 60.7677 52.4707 0
1161 2 6.51671 7.50173 0
1162 1 15.5714 71.9965 0
1163 2 15.5271 75.007 0
1164 1 41.8388 29.7734 0
1165 1 31.182 57.7742 0
1166 2 52.3712 3.80312 0
1167 1 54.4432 48.5191 0
1168 1 2.56128 42.6805 0
1169 1 21.8637 70.6775 0
1170 2 49.4971 70.8118 0
1171 1 37.7972 54.7589 0
1172 1 45.3268 34.0605 0
1173 1 44.6237 24.1106 0
1174 1 42.1175 28.0659 0
1175 2 37.6168 29.3444 0
1176 1 66.3337 4.7277 0
1177 1 38.3697 56.4058 0
1178 2 76.2042 4.75874 0
1179 1 55.6351 38.2947 0
1180 1 55.2681 23.5597 0
1181 1 12.5502 14.7239 0
1182 1 77.2971 70.9496 0
1183 2 18.9339 75.8482 0
1184 2 23.811 3.26743 0
1185 1 30.7199 65.5079 0
1186 1 33.0147 19.9725 0
1187 1 45.7888 30.3138 0
1188 2 13.472 60.837 0
1189 1 69.617 18.075 0
1190 1 49.1236 66.3167 0
1191 2 46.3274 55.68 0
1192 1 5.63184 12.4912 0
1193 1 49.0977 35.1539 0
1194 2 57.8176 70.4122 0
1195 1 72.0476 36.6507 0
1196 1 52.3683 56.9719 0
1197 1 64.9454 11.1784 0
1198 1 1.14695 19.2999 0
1199 2 10.0626 52.2913 0
1200 1 16.2384 13.6966 0
1201 1 60.7713 5.3617 0
1202 1 12.8225 69.3967 0
1203 2 40.6255 76.6023 0
1204 1 40.0213 53.0572 0
1205 1 37.0706 33.0566 0
1206 1 52.1818 67.3483 0
1207 1 32.4598 46.6969 0
1208 1 63.76 42.4258 0
1209 2 40.3167 54.7736 0
1210 1 4.75108 26.4811 0
1211 2 33.4485 62.4924 0
1212 1 28.5775 43.7036 0
1213 1 36.8819 0.0645593 0
1214 1 61.7291 74.7494 0
1215 1 36.5986 1.94301 0
1216 1 26.4012 47.508 0
1217 2 75.7116 14.5078 0
1218 2 39.5414 53.8127 0
1219 1 3.71189 67.5616 0
1220 1 72.4002 21.8037 0
1221 1 49.0843 49.2159 0
1222 2 53.7859 65.9724 0
1223 1 21.3117 26.016 0
1224 1 40.2831 43.2924 0
1225 1 4.69348 49.6528 0
1226 2 68.2796 56.7697 0
1227 1 42.9346 70.037 0
1228 1 55.7713 2.22912 0
1229 2 63.3998 14.3746 0
1230 1 10.7624 7.46021 0
1231 2 63.0076 25.5564 0
1232 1 14.0121 25.0063 0
1233 1 4.03028 20.4721 0
1234 1 77.4387 31.1138 0
1235 1 76.1526 63.6633 0
1236 1 77.1281 60.7768 0
1237 1 6.65716 34.248 0
1238 1 77.0804 45.4788 0
1239 1 38.3896 46.2957 0
1240 1 6.49005 43.0526 0
1241 1 45.132 38.5464 0