ITEM: TIMESTEP
0
ITEM: NUMBER OF ATOMS
7200
ITEM: BOX BOUNDS xy xz yz pp pp pp
0.0000000000000000e+00 7.7459666924100006e+01 0.0000000000000000e+00
0.0000000000000000e+00 7.7459666924100006e+01 0.0000000000000000e+00
-1.2909944490000000e-01 1.2909944490000000e-01 0.0000000000000000e+00
ITEM: ATOMS id type x y z
1 1 12.1298 20.132 0
2 1 14.9111 64.0207 0
3 1 75.2531 71.0968 0
4 1 20.3473 8.0672 0
5 1 34.5676 55.8939 0
6 1 56.7 28.5482 0
7 2 5.37456 3.35887 0
8 2 64.7468 46.3619 0
9 1 42.121 56.0538 0
10 2 19.0978 14.6342 0
11 2 25.3593 53.2546 0
12 1 55.1073 11.5492 0
13 2 23.1088 6.0259 0
14 1 46.5615 70.6486 0
15 1 39.4069 31.3404 0
16 1 18.2233 14.9122 0
17 1 31.4158 40.1167 0
18 1 33.7803 5.78306 0
19 1 27.0449 57.848 0
20 2 44.9395 3.63931 0
21 1 12.2204 65.9842 0
22 1 54.2957 10.862 0
23 1 75.5999 45.7464 0
24 1 55.9141 66.3299 0
25 1 6.69872 71.0826 0
26 1 21.1879 67.5869 0
27 2 29.0223 63.8053 0
28 1 51.3302 74.2476 0
29 2 22.5034 47.9635 0
30 2 25.3153 32.0741 0
31 1 15.146 53.3291 0
32 1 50.9737 38.0078 0
33 1 60.8313 48.4882 0
34 2 45.3697 9.69124 0
35 1 75.2928 63.1405 0
36 1 30.6042 60.036 0
37 1 22.3075 61.4585 0
38 1 45.8333 19.811 0
39 1 22.3501 5.64949 0
40 2 24.8611 59.2373 0
41 2 18.5007 64.6967 0
42 1 21.0351 1.17373 0
43 1 18.9197 33.5677 0
44 1 34.3978 62.7469 0
45 1 3.37285 34.4977 0
46 1 68.1694 7.57568 0
47 1 73.565 59.0783 0
48 1 44.0704 68.3179 0
49 2 77.1731 4.2539 0
50 1 31.0614 66.7285 0
51 1 1.2543 10.0182 0
52 2 33.1585 24.1767 0
53 1 53.597 18.6344 0
54 1 49.6531 30.3031 0
55 1 9.58568 1.02293 0
56 1 45.9874 26.1647 0
57 1 67.4995 42.9993 0
58 1 69.8206 69.0825 0
59 1 34.2792 2.11412 0
60 1 28.6897 3.40987 0
61 1 40.4834 75.9964 0
62 1 52.2682 45.0976 0
63 1 57.2118 9.91664 0
64 1 50.6797 45.739 0
65 1 66.9288 73.6806 0
66 2 55.988 11.414 0
67 2 40.7186 35.9527 0
68 2 0.864728 29.1941 0
69 1 62.0202 45.3556 0
70 1 8.45383 35.5049 0
71 2 7.48646 42.3523 0
72 1 76.7658 3.44514 0
73 1 6.2745 64.1591 0
74 2 41.6111 22.8096 0
75 1 75.4089 53.2676 0
76 1 19.7066 46.9537 0
77 1 25.0786 74.4795 0
78 1 3.62649 15.5963 0
79 1 12.6452 73.3751 0
80 1 43.4642 16.6047 0
81 1 54.9821 62.2301 0
82 2 44.3211 16.6746 0
83 1 5.78472 32.9699 0
84 1 33.0939 45.7759 0
85 1 34.6057 20.8297 0
86 2 34.6556 64.7342 0
87 1 71.4348 34.633 0
88 1 18.4347 54.751 0
89 1 27.7386 13.1267 0
90 1 37.3942 37.9073 0
91 2 45.9125 41.1186 0
92 2 41.27 56.0915 0
93 1 27.8035 16.8842 0
94 1 33.5186 55.692 0
95 2 39.0992 56.6571 0
96 1 65.3352 1.24547 0
97 1 44.1659 48.991 0
98 2 2.91896 60.0386 0
99 1 61.8873 48.1986 0
100 2 32.4548 30.7964 0
101 1 47.6545 54.3886 0
102 1 56.0014 21.576 0
103 1 56.6507 70.4418 0
104 1 2.79096 60.8933 0
105 2 40.1905 3.02555 0
106 2 30.428 34.8138 0
107 1 13.2085 31.3953 0
108 1 0.749004 0.906707 0
109 1 35.7057 41.6025 0
110 2 65.2121 25.502 0
111 1 65.9581 11.9318 0
112 1 34.2596 72.7751 0
113 2 0.374412 60.2832 0
114 2 74.526 29.4653 0
115 2 30.4028 12.8188 0
116 2 74.6177 53.59 0
117 1 16.2213 45.8845 0
118 2 46.7961 26.5485 0
119 1 62.638 0.00931662 0
120 2 5.95575 49.7824 0
121 1 6.22094 3.6255 0
122 1 19.9121 33.0895 0
123 2 5.4536 17.7807 0
124 1 46.424 57.243 0
125 1 31.7126 27.3166 0
126 1 57.9867 52.1368 0
127 1 4.47204 58.8843 0
128 1 14.4502 23.4674 0
129 1 16.4775 52.1882 0
130 1 7.16898 2.20975 0
131 1 59.156 24.8745 0
132 2 31.087 41.9867 0
133 2 52.7113 6.9685 0
134 1 65.802 50.9346 0
135 1 31.6146 30.3891 0
136 2 55.2164 46.4809 0
137 1 61.6845 56.6047 0
138 2 70.42 47.9501 0
139 1 68.3864 27.2438 0
140 1 3.4379 21.8962 0
141 2 48.0431 63.5134 0
142 1 6.50643 22.6606 0
143 2 40.5573 70.0953 0
144 2 47.3229 75.2628 0
145 2 18.2642 52.9357 0
146 1 54.8894 4.03459 0
147 1 9.41406 38.9427 0
148 1 46.3395 53.3559 0
149 2 67.9046 49.0636 0
150 1 32.856 56.593 0
151 2 29.5802 13.8787 0
152 1 48.8588 63.1483 0
153 2 17.3246 46.3517 0
154 2 31.5717 72.2406 0
155 1 70.4759 48.9311 0
156 1 43.5329 10.2754 0
157 1 49.2517 71.0434 0
158 1 60.2167 69.1681 0
159 2 10.5335 26.1204 0
160 1 38.2321 17.532 0
161 1 7.18729 63.5546 0
162 2 72.6509 23.9696 0
163 1 30.6527 27.082 0
164 1 60.207 29.4437 0
165 1 75.6904 27.7783 0
166 1 1.91436 44.7394 0
167 1 39.2938 0.860969 0
168 1 38.4686 72.7948 0
169 1 56.7959 30.854 0
170 1 57.3966 1.02628 0
171 2 36.8902 61.0371 0
172 2 33.6232 53.7654 0
173 2 43.8335 24.4389 0
174 2 27.501 55.9991 0
175 2 30.9189 26.2758 0
176 1 46.2226 16.2434 0
177 1 19.6277 58.6139 0
178 1 61.8459 61.3301 0
179 1 64.698 24.8451 0
180 2 33.236 39.6051 0
181 1 45.1557 27.6182 0
182 1 61.6436 58.5647 0
183 2 12.091 37.4151 0
184 1 5.14632 67.5131 0
185 2 67.2383 29.4575 0
186 1 59.0223 35.0957 0
187 1 39.5609 46.5103 0
188 1 57.3195 47.7203 0
189 2 63.7837 53.0218 0
190 1 23.2073 4.11899 0
191 1 71.7654 8.08385 0
192 1 65.4909 10.1833 0
193 2 10.8984 41.6465 0
194 2 68.683 69.0315 0
195 1 11.1406 3.28058 0
196 2 49.5543 54.8967 0
197 2 20.1377 9.99707 0
198 1 13.3954 61.2952 0
199 2 75.7119 66.1389 0
200 1 59.9692 27.7489 0
201 2 34.7049 1.37488 0
202 2 74.5633 55.1781 0
203 1 52.397 65.6967 0
204 1 29.669 3.82232 0
205 1 56.1866 26.022 0
206 2 35.7185 37.0319 0
207 2 13.983 9.49854 0
208 1 33.7792 14.0136 0
209 1 12.1825 11.6338 0
210 2 5.30619 20.5602 0
211 1 17.1149 8.14436 0
212 2 24.8031 6.27351 0
213 2 56.0241 27.9784 0
214 1 71.0812 57.8375 0
215 2 67.0455 22.3354 0
216 1 20.6788 73.5921 0
217 1 59.5631 34.1667 0
218 2 54.7117 58.5254 0
219 2 68.0356 42.2715 0
220 2 43.1025 64.0109 0
221 1 19.0583 45.3552 0
222 1 45.0035 12.4513 0
223 2 39.0988 67.6582 0
224 2 27.7708 68.732 0
225 1 32.4075 23.7053 0
226 2 66.3736 57.1805 0
227 2 6.07349 16.4596 0
228 1 34.5881 9.30518 0
229 1 71.0265 26.7827 0
230 1 32.2311 74.5335 0
231 1 10.7578 34.3492 0
232 1 42.0857 12.8039 0
233 1 34.8904 7.58563 0
234 1 76.1351 8.29645 0
235 1 60.72 59.0926 0
236 2 44.8018 70.3595 0
237 1 77.2428 62.2407 0
238 2 9.26436 21.4431 0
239 1 58.543 2.81743 0
240 2 61.7038 46.2381 0
241 1 47.3456 66.6986 0
242 1 18.5426 30.6216 0
243 1 7.29553 56.2858 0
244 1 61.2256 64.2834 0
245 1 11.0325 30.8886 0
246 1 1.96338 35.5114 0
247 1 65.6339 49.9072 0
248 1 12.3099 0.808057 0
249 2 50.4316 41.2353 0
250 1 29.1081 9.41131 0
251 2 57.7215 50.1952 0
252 2 65.8861 23.2721 0
253 1 19.8545 17.5953 0
254 1 54.4655 25.0082 0
255 1 65.5225 42.8658 0
256 1 31.4821 8.60394 0
257 1 22.1855 57.8977 0
258 1 26.156 38.6704 0
259 1 55.578 56.8105 0
260 2 44.0288 53.747 0
261 2 26.4372 62.6785 0
262 1 24.3773 33.7887 0
263 2 12.6745 34.7619 0
264 2 71.4191 59.9433 0
265 1 77.0048 46.7152 0
266 1 38.1527 44.7906 0
267 2 61.6691 24.595 0
268 2 56.5958 45.9027 0
269 1 48.1375 21.0594 0
270 2 9.06195 47.0652 0
271 2 22.5704 33.6479 0
272 2 20.4552 14.3099 0
273 1 14.9212 65.0853 0
274 1 32.2434 50.0802 0
275 1 8.59558 48.9927 0
276 1 75.321 10.1959 0
277 2 15.5926 71.3423 0
278 1 7.59257 17.417 0
279 1 4.47465 44.3674 0
280 1 20.3864 35.8443 0
281 1 30.6495 38.4986 0
282 2 75.9375 26.4596 0
283 1 76.4518 55.6869 0
284 2 54.2203 38.3292 0
285 1 71.0161 52.8598 0
286 1 11.3314 63.4227 0
287 1 19.0704 76.8144 0
288 2 75.5828 3.8959 0
289 2 21.3385 39.2356 0
290 2 69.171 76.3478 0
291 1 35.1996 22.5661 0
292 1 27.7588 58.6116 0
293 1 47.3775 19.0634 0
294 1 40.356 2.20613 0
295 1 69.8925 3.27911 0
296 2 74.1679 8.47234 0
297 1 40.3366 59.7959 0
298 1 72.3785 35.1367 0
299 2 49.1641 36.6012 0
300 1 39.1747 43.7959 0
301 1 73.5316 19.6061 0
302 1 50.8581 35.2144 0
303 1 20.4682 32.1736 0
304 1 60.5204 72.3763 0
305 2 59.088 75.9338 0
306 1 63.0275 52.5084 0
307 2 73.3867 38.8055 0
308 1 41.6059 5.26607 0
309 2 24.9861 16.948 0
310 2 13.3376 13.0334 0
311 1 29.409 49.6167 0
312 1 67.3967 61.6395 0
313 1 74.6639 76.1422 0
314 1 40.5643 46.036 0
315 2 56.3885 31.6591 0
316 2 39.5451 63.3719 0
317 1 50.8793 20.5463 0
318 2 7.09783 31.294 0
319 1 30.9362 25.3794 0
320 1 36.1825 61.6016 0
321 1 58.6875 68.3336 0
322 2 73.9349 11.8593 0
323 2 25.1497 63.528 0
324 1 64.3927 41.5353 0
325 1 41.2927 6.29636 0
326 1 9.81898 58.9258 0
327 1 48.6789 54.7625 0
328 1 0.761561 37.0099 0
329 1 41.6427 42.74 0
330 2 51.7093 34.8765 0
331 2 70.0577 4.13626 0
332 1 59.4774 28.7035 0
333 1 37.0122 12.2826 0
334 1 17.0247 34.8344 0
335 1 20.5859 38.7362 0
336 2 72.29 74.3359 0
337 1 34.7023 33.6968 0
338 2 17.1137 1.61674 0
339 1 42.4874 68.4404 0
340 1 18.829 57.8815 0
341 2 74.0386 44.1566 0
342 1 66.9575 5.82299 0
343 2 56.4229 49.8621 0
344 2 22.8321 65.9918 0
345 1 7.97575 27.7674 0
346 1 17.5495 71.8078 0
347 1 35.4196 56.5814 0
348 1 56.5807 18.9722 0
349 1 33.7666 20.1351 0
350 1 37.156 31.1043 0
351 1 17.9952 53.7758 0
352 1 47.8406 30.7367 0
353 1 75.3303 25.8208 0
354 2 22.5568 26.2419 0
355 2 43.4355 18.2521 0
356 2 11.8689 2.78785 0
357 1 68.4892 67.4256 0
358 1 24.2666 3.76733 0
359 1 22.3233 14.59 0
360 2 45.1742 31.2919 0
361 2 48.0753 67.1833 0
362 1 27.0878 74.6516 0
363 2 38.0164 73.5586 0
364 1 13.1666 66.5703 0
365 2 8.9919 57.163 0
366 1 24.8721 50.6605 0
367 2 19.7805 23.3839 0
368 2 51.366 54.9623 0
369 2 65.2345 70.5513 0
370 1 3.47259 28.2952 0
371 1 46.0758 73.5252 0
372 2 40.522 9.98144 0
373 1 10.5107 31.8104 0
374 2 66.6133 41.2907 0
375 1 52.2324 52.781 0
376 2 75.499 43.1806 0
377 2 58.1897 38.1258 0
378 1 20.4817 63.7463 0
379 1 13.888 20.3315 0
380 1 9.83528 62.4995 0
381 1 26.6558 23.2966 0
382 1 30.6753 23.6472 0
383 1 9.59548 11.7912 0
384 1 34.914 51.6084 0
385 1 28.4518 77.1105 0
386 1 54.9106 40.4028 0
387 1 59.5274 76.6576 0
388 2 55.8937 57.8258 0
389 1 24.6689 56.7106 0
390 1 29.523 13.031 0
391 2 59.973 26.7616 0
392 2 30.1024 10.2038 0
393 2 38.8233 64.9106 0
394 1 10.2628 73.8005 0
395 1 53.1317 21.8412 0
396 1 13.7959 70.538 0
397 1 46.7625 17.2473 0
398 1 45.488 70.8754 0
399 1 70.0279 17.9892 0
400 1 59.8427 74.1007 0
401 1 44.5669 11.4851 0
402 2 56.5563 17.0488 0
403 1 38.2626 51.5936 0
404 1 69.3615 70.7898 0
405 2 73.7914 76.269 0
406 1 34.2517 19.1371 0
407 2 45.7245 21.7801 0
408 1 63.5256 30.4494 0
409 1 18.6677 61.2607 0
410 2 67.4366 16.6792 0
411 2 66.5644 36.5768 0
412 1 58.9147 38.6518 0
413 1 7.06686 36.5859 0
414 1 71.277 48.1996 0
415 1 7.05851 41.6151 0
416 2 73.7909 62.3111 0
417 2 75.0859 12.7334 0
418 1 54.2945 30.0379 0
419 2 56.6009 47.2344 0
420 2 24.8063 55.865 0
421 1 60.2881 19.3967 0
422 1 2.0505 71.4796 0
423 1 4.19813 12.0151 0
424 1 60.8172 26.9968 0
425 1 58.8392 50.4344 0
426 1 56.1206 73.7657 0
427 2 39.5375 14.8921 0
428 1 51.4888 50.2192 0
429 1 59.1878 70.9873 0
430 1 36.6213 37.11 0
431 1 0.0448957 29.5685 0
432 1 63.3948 49.0391 0
433 1 29.1949 69.5019 0
434 1 1.82495 42.8608 0
435 1 64.0321 34.2399 0
436 2 67.9871 39.0124 0
437 2 43.7173 59.363 0
438 1 38.9534 61.7608 0
439 2 41.2295 12.6292 0
440 1 43.3491 43.6635 0
441 2 66.5688 15.2712 0
442 1 9.5968 37.9244 0
443 1 54.588 16.754 0
444 1 16.769 75.3314 0
445 2 69.4502 67.4757 0
446 1 61.6904 42.2147 0
447 1 27.0534 70.8804 0
448 1 46.9081 37.6981 0
449 1 37.1492 73.2842 0
450 2 48.0901 59.7447 0
451 2 6.50851 61.7396 0
452 1 66.6237 11.1046 0
453 1 28.6107 76.0303 0
454 2 62.6932 29.9362 0
455 2 26.5446 67.9461 0
456 1 11.3963 44.5585 0
457 2 18.5532 1.81348 0
458 1 38.0499 77.1543 0
459 2 15.5944 56.741 0
460 1 5.34934 4.22492 0
461 2 27.1899 27.1006 0
462 1 45.7858 24.3573 0
463 1 75.9344 69.6436 0
464 1 9.12286 47.913 0
465 2 40.7208 45.1642 0
466 1 21.7355 12.8765 0
467 2 11.5169 1.29895 0
468 1 19.3726 36.3388 0
469 1 1.8532 2.18556 0
470 1 61.782 10.4587 0
471 2 73.9937 40.8707 0
472 1 25.5651 43.0634 0
473 1 61.6926 65.8119 0
474 1 33.4438 54.6458 0
475 1 22.4646 59.7525 0
476 2 38.9085 32.0854 0
477 1 60.6102 11.6289 0
478 2 33.2369 74.4727 0
479 1 33.4048 22.2644 0
480 1 19.8234 25.7157 0
481 1 7.16989 18.6842 0
482 1 10.9017 25.3198 0
483 2 1.04452 1.72715 0
484 1 14.4087 38.3633 0
485 1 21.364 57.187 0
486 1 7.05092 4.66499 0
487 2 70.9507 10.3705 0
488 1 59.0194 5.45659 0
489 1 52.3061 15.1875 0
490 1 35.4247 31.068 0
491 1 30.5651 42.7275 0
492 2 61.1467 9.83329 0
493 1 73.3598 8.99727 0
494 1 67.5767 32.032 0
495 2 22.5516 49.1988 0
496 2 52.7923 42.0844 0
497 2 40.6919 6.90262 0
498 1 23.5073 25.8829 0
499 1 35.8171 74.3557 0
500 1 2.59205 4.166 0
501 2 45.5487 43.5024 0
502 1 16.6983 24.8848 0
503 1 50.2128 9.78894 0
504 1 37.0359 32.749 0
505 2 26.5628 77.0493 0
506 2 17.6014 65.2302 0
507 1 41.9727 37.4258 0
508 1 12.9327 32.8228 0
509 1 28.9179 24.8567 0
510 1 6.98662 38.7378 0
511 1 69.3253 26.6777 0
512 1 54.4333 53.3705 0
513 1 11.8848 34.3038 0
514 1 25.3648 64.3645 0
515 2 61.4022 11.2619 0
516 2 11.4139 38.6053 0
517 2 74.455 74.5727 0
518 2 19.1506 54.2664 0
519 2 33.236 1.8527 0
520 1 74.4587 37.0647 0
521 1 42.1283 24.4673 0
522 2 24.405 66.1015 0
523 1 77.2446 12.2814 0
524 1 70.4123 34.659 0
525 1 22.8396 0.0535076 0
526 2 76.5392 22.389 0
527 1 49.4847 26.1599 0
528 2 74.458 5.2001 0
529 2 35.2619 45.2214 0
530 1 7.93414 59.572 0
531 2 76.3727 68.9001 0
532 2 32.2315 60.9115 0
533 1 72.7624 5.51334 0
534 1 34.5583 27.1536 0
535 1 29.0469 19.2035 0
536 1 32.6456 65.8119 0
537 1 35.085 47.831 0
538 2 16.4224 21.7184 0
539 2 46.0338 76.815 0
540 1 60.8763 40.643 0
541 2 25.0568 7.98558 0
542 1 51.1959 56.7935 0
543 2 69.5683 55.5604 0
544 2 51.9408 10.4836 0
545 1 28.2729 22.8578 0
546 1 34.3169 3.21812 0
547 1 10.2339 14.4471 0
548 2 23.6828 3.11842 0
549 2 65.4696 21.857 0
550 2 5.19748 39.4091 0
551 1 30.4472 8.34622 0
552 2 70.5915 40.2563 0
553 2 29.5375 44.9386 0
554 1 51.6391 62.2883 0
555 1 50.2213 57.2815 0
556 1 73.0811 68.0271 0
557 1 61.9895 53.887 0
558 1 2.53854 68.5697 0
559 1 72.7379 36.1753 0
560 2 21.4526 61.4459 0
561 1 5.64333 0.691215 0
562 2 4.57319 11.2033 0
563 2 54.0418 48.8061 0
564 1 70.1416 68.0501 0
565 2 21.8744 1.40236 0
566 2 18.2023 23.8362 0
567 1 48.9696 42.1309 0
568 2 22.9337 74.0613 0
569 2 15.7054 27.4346 0
570 1 73.0968 34.3274 0
571 1 0.37845 3.58367 0
572 2 6.70947 48.4591 0
573 2 77.4537 44.8899 0
574 1 3.80054 69.0757 0
575 1 18.2605 7.70664 0
576 1 16.4538 63.1433 0
577 1 43.3498 50.4745 0
578 2 67.5964 34.172 0
579 2 45.8722 69.065 0
580 1 62.7368 42.6462 0
581 1 6.67346 60.7164 0
582 2 68.666 59.5816 0
583 2 64.0988 58.6551 0
584 2 33.5019 65.5936 0
585 1 60.9612 77.3477 0
586 1 48.6505 58.6418 0
587 2 14.6429 21.7712 0
588 1 49.573 5.23084 0
589 2 53.6452 10.2945 0
590 1 24.7183 73.4781 0
591 1 56.3186 6.4971 0
592 1 48.5521 74.2778 0
593 1 44.0018 13.1147 0
594 1 59.8292 63.3083 0
595 1 72.2494 65.4003 0
596 2 7.07056 1.34534 0
597 1 3.45584 44.0061 0
598 1 69.0425 9.11026 0
599 1 2.66713 50.9137 0
600 1 0.149502 47.5585 0
601 2 42.1043 36.0907 0
602 1 62.1504 14.2939 0
603 2 71.1393 50.8129 0
604 2 62.285 16.5077 0
605 1 52.4369 69.2573 0
606 1 41.6059 4.04924 0
607 1 76.2139 1.42732 0
608 2 1.3735 40.2689 0
609 2 40.9217 0.443506 0
610 1 7.83297 49.703 0
611 1 53.8959 58.7918 0
612 1 76.697 6.21767 0
613 1 77.023 23.1642 0
614 2 50.4872 28.4239 0
615 1 34.4656 38.7471 0
616 1 39.7445 16.1847 0
617 1 69.0567 2.5539 0
618 2 11.9854 42.7204 0
619 2 55.2197 42.2861 0
620 2 70.8746 73.9021 0
621 2 58.4372 35.7608 0
622 1 60.1818 18.2228 0
623 1 37.4969 11.3261 0
624 2 20.4746 54.9071 0
625 1 26.9764 76.2958 0
626 1 73.7867 29.0568 0
627 2 2.29679 25.0456 0
628 1 28.7157 58.0798 0
629 2 77.4394 25.5495 0
630 1 29.1969 73.0801 0
631 1 56.8342 37.1625 0
632 1 21.6227 65.0549 0
633 2 25.623 72.0082 0
634 1 18.7557 50.6554 0
635 2 41.4325 43.6448 0
636 2 36.9963 40.7262 0
637 1 11.2187 11.1161 0
638 1 67.3221 40.8292 0
639 1 70.2469 46.2946 0
640 1 0.265625 53.9466 0
641 1 36.4502 33.6573 0
642 1 9.74711 33.8386 0
643 1 50.3092 44.7258 0
644 2 19.3058 27.3234 0
645 1 56.906 52.3106 0
646 1 46.2257 47.1076 0
647 2 23.6671 10.5234 0
648 1 64.2582 12.4031 0
649 2 10.7876 69.1735 0
650 2 47.0416 61.9364 0
651 1 46.0671 12.1789 0
652 1 29.6329 70.9473 0
653 2 13.6034 23.2102 0
654 2 10.33 3.71366 0
655 1 5.5471 51.7236 0
656 1 72.8157 53.8595 0
657 1 33.7984 46.5557 0
658 1 71.5764 13.2529 0
659 2 0.94371 66.1784 0
660 1 26.7939 35.6031 0
661 1 37.3412 9.79125 0
662 1 32.8159 60.0329 0
663 1 10.6111 28.7667 0
664 1 58.3716 75.4319 0
665 2 49.2843 76.9819 0
666 2 12.7654 58.2305 0
667 1 26.4262 73.8205 0
668 2 7.76493 76.1931 0
669 1 4.3659 9.30047 0
670 2 43.9196 37.7253 0
671 2 37.3392 17.5434 0
672 1 9.9063 19.5931 0
673 1 6.95331 16.593 0
674 1 32.6445 42.5589 0
675 2 4.90842 58.0968 0
676 2 38.0034 6.26678 0
677 1 41.4063 54.026 0
678 1 53.7687 39.1062 0
679 1 46.6088 69.5804 0
680 1 31.7175 53.6602 0
681 1 26.3049 54.1048 0
682 1 62.3676 59.4281 0
683 1 18.0177 59.3097 0
684 1 64.4698 68.891 0
685 2 35.9084 18.7256 0
686 1 50.3201 6.16322 0
687 1 41.5686 18.9854 0
688 2 53.5845 73.6526 0
689 1 72.0722 62.422 0
690 1 66.0526 72.2135 0
691 1 41.7515 39.9724 0
692 2 59.9589 44.0444 0
693 1 71.3291 76.9219 0
694 2 53.6838 64.3048 0
695 1 42.329 11.7615 0
696 2 35.6644 47.0818 0
697 1 25.6846 13.3763 0
698 1 8.36129 3.4625 0
699 1 66.6205 13.8652 0
700 1 71.9799 46.8678 0
701 1 64.1431 31.3047 0
702 1 63.6535 65.2699 0
703 2 72.0278 2.22314 0
704 2 8.27746 61.3621 0
705 2 4.90816 7.39271 0
706 1 52.237 51.7187 0
707 2 59.7462 38.4959 0
708 1 50.4455 43.0858 0
709 1 51.6596 73.2396 0
710 2 60.3649 28.5803 0
711 1 55.9695 54.1636 0
712 2 62.7888 32.7339 0
713 2 68.4222 70.4516 0
714 2 0.720175 64.8771 0
715 1 45.2879 18.8894 0
716 1 76.4662 29.8291 0
717 1 29.8566 63.461 0
718 1 14.2601 3.67964 0
719 1 53.2505 36.8754 0
720 2 49.1087 38.4778 0
721 2 66.8134 39.8561 0
722 1 49.0577 7.95067 0
723 2 39.9224 75.3449 0
724 2 10.445 59.5703 0
725 1 50.6958 39.1879 0
726 1 8.29342 29.9677 0
727 2 12.9203 1.45468 0
728 1 67.4047 55.5686 0
729 2 21.5676 59.709 0
730 1 32.8245 27.4716 0
731 2 16.6437 36.4721 0
732 1 16.3984 54.2775 0
733 1 29.8108 29.4954 0
734 2 66.3812 46.4377 0
735 1 66.7468 67.1739 0
736 1 47.8555 49.3475 0
737 2 4.10518 45.7278 0
738 1 13.705 34.5211 0
739 1 18.0192 37.5677 0
740 1 48.3768 37.9613 0
741 2 57.1577 55.6886 0
742 1 58.9056 37.5843 0
743 1 27.2443 62.1759 0
744 2 72.8379 18.9724 0
745 1 23.1306 72.7438 0
746 1 35.1566 10.1939 0
747 1 47.5508 76.1616 0
748 2 43.1396 69.9663 0
749 2 22.3058 24.4694 0
750 1 55.3754 35.0291 0
751 1 57.7888 40.1941 0
752 2 2.41281 70.5765 0
753 1 53.0133 39.8279 0
754 2 21.7173 15.2602 0
755 1 24.0191 50.0021 0
756 2 49.4783 76.0313 0
757 1 48.3594 19.4401 0
758 1 6.05513 9.74029 0
759 1 61.7784 47.1135 0
760 1 12.195 10.5349 0
761 1 69.9073 71.6627 0
762 1 15.2365 57.5393 0
763 2 77.1998 7.05446 0
764 1 75.1887 57.0447 0
765 2 47.0704 56.6876 0
766 1 63.2708 22.7486 0
767 1 13.7351 1.13469 0
768 1 65.3998 8.03273 0
769 1 61.7165 50.005 0
770 2 60.4694 73.4089 0
771 1 18.8844 40.0433 0
772 1 44.9512 51.0543 0
773 1 40.6637 43.247 0
774 2 32.5899 25.6989 0
775 1 71.7313 30.5536 0
776 2 43.6092 42.8225 0
777 1 70.4227 55.2949 0
778 2 10.4631 63.1072 0
779 1 45.3195 25.3039 0
780 1 17.0721 6.19862 0
781 1 29.604 35.1429 0
782 1 57.4637 64.8652 0
783 1 60.5986 35.5845 0
784 1 70.7748 49.9705 0
785 2 8.81985 11.3327 0
786 1 73.2175 70.1183 0
787 1 20.9955 66.5615 0
788 1 39.8545 54.8075 0
789 1 10.9324 4.3459 0
790 1 52.1671 70.306 0
791 1 45.7621 13.203 0
792 1 8.62189 25.0883 0
793 1 25.234 14.9796 0
794 2 71.2349 16.6782 0
795 2 75.6217 14.1815 0
796 2 75.6632 67.7904 0
797 1 44.4964 65.371 0
798 1 38.4817 19.0935 0
799 1 44.2223 76.4459 0
800 1 30.6123 70.5359 0
801 2 6.45113 25.8711 0
802 2 28.0219 45.566 0
803 2 23.631 77.1654 0
804 2 52.5617 36.0632 0
805 1 23.8652 71.9471 0
806 1 53.0654 70.8598 0
807 2 39.7535 50.407 0
808 1 50.486 47.1402 0
809 2 36.3601 62.4551 0
810 1 58.4376 76.5545 0
811 1 28.7203 61.022 0
812 2 59.6756 48.2138 0
813 2 46.1872 58.0894 0
814 1 54.3718 31.1352 0
815 2 41.1018 17.039 0
816 1 28.0649 34.4419 0
817 1 67.724 75.6061 0
818 2 36.8234 16.1041 0
819 2 45.686 56.7119 0
820 1 66.9208 69.7776 0
821 1 16.7271 64.8368 0
822 1 56.7313 76.8099 0
823 1 17.1347 55.6674 0
824 2 35.2815 42.4032 0
825 1 29.268 41.5796 0
826 1 32.8972 75.3407 0
827 1 7.26342 26.1774 0
828 1 76.7856 51.1114 0
829 1 72.139 40.2216 0
830 2 47.7991 64.5466 0
831 2 43.3472 4.56562 0
832 1 73.9581 14.305 0
833 1 24.5422 43.4082 0
834 2 48.6211 5.60234 0
835 1 68.3311 6.49612 0
836 1 58.2406 27.6213 0
837 1 56.3312 41.2338 0
838 1 38.9558 52.8068 0
839 1 16.0994 60.3414 0
840 2 15.7307 46.6588 0
841 1 36.8496 52.5349 0
842 2 11.0556 61.3141 0
843 1 5.53322 42.4187 0
844 1 63.5159 21.6239 0
845 2 27.921 2.28679 0
846 1 49.479 39.3134 0
847 1 10.9877 57.6497 0
848 2 68.9944 47.5885 0
849 1 74.1028 11.0216 0
850 1 68.0017 19.6631 0
851 1 39.4611 18.7342 0
852 1 12.2124 1.96124 0
853 1 42.4052 61.4935 0
854 1 37.7202 69.5828 0
855 1 39.4517 25.6721 0
856 2 18.8252 42.0502 0
857 1 57.8668 33.9728 0
858 2 34.4616 28.8468 0
859 1 13.1248 64.7921 0
860 2 2.12132 58.415 0
861 2 60.2061 40.1183 0
862 2 2.96728 69.2687 0
863 1 59.0379 23.7443 0
864 1 60.2569 53.7862 0
865 2 66.1878 67.9746 0
866 1 60.465 17.1769 0
867 2 31.5406 21.858 0
868 1 37.1999 61.9437 0
869 1 62.2069 20.1433 0
870 1 0.0363305 52.7307 0
871 1 62.7906 26.0968 0
872 1 42.2823 50.7455 0
873 1 50.6076 62.6388 0
874 1 3.99967 71.7564 0
875 1 34.1214 57.7659 0
876 2 51.5747 7.92319 0
877 1 13.3247 55.4995 0
878 2 14.7821 16.0341 0
879 1 76.5065 14.0611 0
880 2 31.6318 33.5851 0
881 2 51.908 29.3405 0
882 2 48.0046 73.6065 0
883 1 25.7003 20.0082 0
884 1 55.9966 36.5349 0
885 1 38.9546 5.03127 0
886 1 37.1137 60.1403 0
887 2 54.7623 50.2428 0
888 1 0.338554 76.6643 0
889 2 59.182 49.5958 0
890 2 7.76552 25.4103 0
891 1 38.1471 10.4837 0
892 1 39.9831 67.8965 0
893 1 30.0157 53.675 0
894 1 76.9807 14.9881 0
895 2 32.4001 53.0408 0
896 1 37.5921 2.53522 0
897 2 35.7146 17.115 0
898 1 31.0911 43.7032 0
899 1 1.97075 75.7666 0
900 2 38.6752 0.262575 0
901 1 52.2654 41.4068 0
902 1 24.3383 75.2726 0
903 1 37.8537 40.5579 0
904 2 0.109919 37.6407 0
905 1 63.7052 62.0219 0
906 1 68.961 44.613 0
907 1 3.74565 29.8628 0
908 1 50.7762 23.8392 0
909 1 0.303327 48.7043 0
910 2 1.80527 50.7459 0
911 2 4.49706 4.59588 0
912 2 36.1598 32.785 0
913 2 31.8877 51.6287 0
914 1 18.3462 12.8862 0
915 2 64.6586 5.45832 0
916 1 3.40661 39.8369 0
917 2 4.98446 33.4545 0
918 2 19.5057 35.4589 0
919 1 8.26317 57.7755 0
920 1 15.961 47.6096 0
921 1 0.151256 26.677 0
922 2 50.8363 18.9741 0
923 2 12.2804 24.345 0
924 1 39.2823 17.6379 0
925 1 66.2931 47.2943 0
926 2 35.4642 35.3128 0
927 1 68.8787 77.4164 0
928 1 52.15 59.0736 0
929 2 52.0735 32.0816 0
930 2 20.0139 15.8575 0
931 1 40.8637 47.6288 0
932 1 70.4363 39.0577 0
933 1 34.3635 21.8576 0
934 1 2.04662 60.1133 0
935 1 11.3897 50.5302 0
936 2 42.2152 4.65018 0
937 1 14.287 73.1992 0
938 1 36.6662 67.649 0
939 2 50.4064 51.2783 0
940 1 75.9046 46.8129 0
941 1 77.233 17.6109 0
942 1 38.0005 29.751 0
943 2 22.2922 16.7301 0
944 2 2.04948 41.9451 0
945 1 40.458 25.3579 0
946 1 64.5301 67.1569 0
947 2 25.1661 2.04165 0
948 1 39.2296 68.628 0
949 1 26.8403 11.6273 0
950 2 5.12513 9.79092 0
951 1 68.961 65.5732 0
952 2 52.6427 2.75552 0
953 2 7.87615 44.8641 0
954 2 29.9146 62.5723 0
955 1 27.2842 38.5251 0
956 2 58.8484 10.9257 0
957 1 48.3809 23.6939 0
958 2 19.5435 2.76407 0
959 2 73.6323 25.0484 0
960 2 29.1146 66.8935 0
961 1 49.496 52.0617 0
962 1 24.3748 1.61031 0
963 1 16.2719 12.6011 0
964 2 8.63738 9.54758 0
965 2 53.6868 53.7959 0
966 1 0.824015 62.759 0
967 1 49.8496 35.5476 0
968 1 18.3336 0.108042 0
969 1 58.0537 23.3722 0
970 2 22.5302 4.71076 0
971 1 21.2875 14.5007 0
972 1 6.90381 25.1447 0
973 1 0.874815 35.8995 0
974 2 1.03257 34.9996 0
975 2 73.1598 65.3861 0
976 2 34.6451 19.9413 0
977 1 35.9793 63.2992 0
978 2 3.11879 77.0167 0
979 2 36.0909 65.7687 0
980 1 72.8915 14.3024 0
981 1 73.7661 58.0172 0
982 1 7.87239 54.6569 0
983 1 18.3963 24.7157 0
984 1 9.32326 57.9602 0
985 1 34.6045 11.1776 0
986 1 37.9235 52.6093 0
987 2 18.0761 12.0574 0
988 2 42.1602 34.8675 0
989 2 9.95799 34.7817 0
990 2 69.9344 51.6951 0
991 2 46.2365 14.8372 0
992 1 62.3696 34.6178 0
993 2 29.1912 5.76512 0
994 2 1.94402 54.8993 0
995 1 38.9085 22.2828 0
996 2 54.6752 56.9476 0
997 2 43.4997 30.8137 0
998 2 60.2877 74.8897 0
999 2 39.3141 26.5198 0
1000 2 0.477723 49.5922 0
1001 1 41.8297 65.3264 0
1002 1 23.4619 34.4352 0
1003 1 9.56563 54.2044 0
1004 1 7.6263 22.5177 0
1005 2 10.8146 23.6667 0
1006 2 67.8448 60.882 0
1007 1 18.8319 20.2838 0
1008 1 47.7828 16.9425 0
1009 1 31.0831 32.9398 0
1010 1 11.559 43.5011 0
1011 2 10.5494 22.2445 0
1012 2 2.31761 23.3284 0
1013 2 65.0693 55.9172 0
1014 1 74.1766 15.4734 0
1015 1 76.0693 9.39249 0
1016 1 37.1903 47.9745 0
1017 2 68.7852 54.2623 0
1018 1 26.2409 24.9712 0
1019 1 44.2756 29.0094 0
1020 2 32.59 6.26686 0
1021 2 15.8871 24.5887 0
1022 1 4.88942 60.6974 0
1023 1 41.1179 9.31794 0
1024 1 9.3342 67.7511 0
1025 1 37.1229 65.7993 0
1026 1 7.9982 40.1409 0
1027 1 47.4938 2.52078 0
1028 1 1.97471 32.9576 0
1029 1 49.0515 18.2113 0
1030 2 46.8138 47.979 0
1031 2 37.4971 37.0121 0
1032 1 16.4072 73.1703 0
1033 1 57.6433 19.2754 0
1034 1 35.2679 29.2937 0
1035 1 65.8147 28.4007 0
1036 2 73.6377 45.8499 0
1037 1 31.2228 73.1139 0
1038 1 68.5971 60.4502 0
1039 1 5.53124 31.905 0
1040 2 64.9128 34.2748 0
1041 1 35.4139 65.1787 0
1042 2 62.8041 68.0886 0
1043 2 60.6619 58.2132 0
1044 1 67.7744 23.4598 0
1045 1 66.7763 23.1985 0
1046 1 41.081 68.2448 0
1047 2 10.0348 47.6996 0
1048 1 53.4646 0.0273948 0
1049 1 59.8641 49.0676 0
1050 2 45.4532 6.39375 0
1051 1 43.5049 31.775 0
1052 1 66.222 44.485 0
1053 2 32.6557 18.4676 0
1054 1 55.17 7.14617 0
1055 2 32.9394 46.6308 0
1056 2 14.686 45.2462 0
1057 1 11.996 71.6862 0
1058 1 27.5255 5.84639 0
1059 1 9.29464 75.3336 0
1060 2 21.993 42.0431 0
1061 1 10.1511 23.1381 0
1062 2 16.9427 41.4857 0
1063 1 0.0112525 67.8192 0
1064 1 23.3112 5.15331 0
1065 2 29.6846 52.8887 0
1066 1 37.418 46.2831 0
1067 1 13.9484 10.3759 0
1068 2 35.7027 67.1293 0
1069 1 67.929 24.4793 0
1070 2 8.23721 34.4528 0
1071 2 49.6215 42.8151 0
1072 2 9.48379 48.6843 0
1073 2 16.3976 3.55736 0
1074 2 33.8311 45.3164 0
1075 1 75.8609 49.691 0
1076 1 41.2319 7.57737 0
1077 1 41.7613 32.6735 0
1078 2 71.7341 26.2547 0
1079 2 39.0296 10.8361 0
1080 2 30.0331 72.8314 0
1081 2 45.9824 48.9661 0
1082 2 6.29538 27.5896 0
1083 2 21.5581 20.0377 0
1084 1 44.1841 57.5314 0
1085 1 19.1676 52.3597 0
1086 1 70.1749 66.936 0
1087 1 29.6266 72.0401 0
1088 1 44.6735 62.9889 0
1089 2 8.49461 31.7084 0
1090 1 42.9421 34.4852 0
1091 2 27.6922 17.7463 0
1092 1 63.069 53.5522 0
1093 1 69.1386 32.916 0
1094 2 43.6056 55.1835 0
1095 1 25.379 71.1294 0
1096 2 48.2295 18.5714 0
1097 1 76.212 17.796 0
1098 1 62.7025 43.7772 0
1099 1 31.0906 5.03473 0
1100 1 68.1864 1.77572 0
1101 1 74.8448 11.8644 0
1102 1 26.0684 74.8625 0
1103 1 51.3779 70.9927 0
1104 1 47.0693 58.1023 0
1105 1 48.1807 40.1111 0
1106 1 16.4764 71.4683 0
1107 2 45.1602 62.266 0
1108 1 55.6106 31.2065 0
1109 1 72.7545 24.9364 0
1110 2 14.7776 11.8938 0
1111 1 2.66778 56.805 0
1112 1 76.16 18.8587 0
1113 2 75.4477 7.71313 0
1114 2 14.2124 53.4532 0
1115 2 32.934 49.4737 0
1116 1 77.3455 64.6263 0
1117 1 66.8427 56.4308 0
1118 1 12.3991 75.4825 0
1119 2 11.2288 64.3322 0
1120 1 41.3297 57.9829 0
1121 2 21.246 64.2256 0
1122 1 32.0312 32.4722 0
1123 2 23.0043 51.8914 0
1124 1 52.6936 61.9682 0
1125 2 14.7787 4.35989 0
1126 2 15.4915 20.2705 0
1127 1 74.5826 24.0775 0
1128 1 67.2041 52.0176 0
1129 1 60.8746 39.6007 0
1130 1 30.6084 47.2757 0
1131 1 62.46 15.3265 0
1132 2 76.0122 63.6313 0
1133 2 55.9384 22.6119 0
1134 2 20.8825 72.1497 0
1135 1 0.818953 68.5234 0
1136 2 51.2507 26.8663 0
1137 1 50.9899 61.5035 0
1138 1 30.4437 13.7075 0
1139 2 57.5467 52.9156 0
1140 2 9.05629 22.9104 0
1141 1 74.9987 65.6283 0
1142 1 26.949 52.2919 0
1143 1 48.1888 44.7861 0
1144 2 60.888 16.4098 0
1145 1 38.0422 62.6336 0
1146 1 15.5437 18.9203 0
1147 1 28.2854 25.7197 0
1148 1 10.8495 36.7241 0
1149 1 57.492 29.2812 0
1150 2 65.388 61.0929 0
1151 1 22.0849 3.9316 0
1152 1 59.7746 52.069 0
1153 1 71.7193 29.5303 0
1154 1 13.951 4.72015 0
1155 2 60.2051 20.3308 0
1156 1 44.5022 32.2316 0
1157 1 12.362 18.2011 0
1158 2 58.3626 47.9087 0
1159 2 5.58248 70.4957 0
1160 1 33.0591 7.77361 0
1161 2 43.9606 56.5965 0
1162 1 15.9218 9.9427 0
1163 2 13.4422 72.989 0
1164 1 24.0154 58.9201 0
1165 1 20.9262 45.5558 0
1166 2 14.93 50.6757 0
1167 1 27.9815 20.339 0
1168 1 56.4046 64.6413 0
1169 1 19.597 66.7906 0
1170 2 6.32779 33.6515 0
1171 1 48.52 33.8467 0
1172 1 22.8787 6.87717 0
1173 1 51.6798 64.0152 0
1174 1 38.9286 29.286 0
1175 2 62.6186 44.6723 0
1176 1 68.2451 36.5101 0
1177 1 48.6413 70.009 0
1178 2 61.0975 47.6473 0
1179 1 72.3565 32.7067 0
1180 1 52.0799 17.8264 0
1181 1 54.3379 22.9187 0
1182 1 60.9326 74.197 0
1183 2 43.0989 73.408 0
1184 2 28.1665 21.984 0
1185 1 17.5801 63.2151 0
1186 1 48.9831 49.467 0
1187 1 73.9341 72.1647 0
1188 2 4.859 37.6904 0
1189 1 60.7797 65.2417 0
1190 1 28.352 51.4632 0
1191 2 72.1191 4.88652 0
1192 1 24.6815 47.0761 0
1193 1 47.579 17.9921 0
1194 2 16.6039 16.0725 0
1195 1 74.1681 48.8677 0
1196 1 21.8854 49.7901 0
1197 1 35.5599 38.9323 0
1198 1 62.3889 76.4125 0
1199 2 57.8375 62.5041 0
1200 1 27.0511 8.92407 0
1201 1 2.93001 73.2355 0
1202 1 5.86126 48.8267 0
1203 2 47.5594 12.352 0
1204 1 57.4809 56.6923 0
1205 1 66.6677 50.2727 0
1206 1 52.2558 5.10243 0
1207 1 31.8523 62.7938 0
1208 1 75.4349 58.0796 0
1209 2 65.3427 59.6729 0
1210 1 69.6986 31.964 0
1211 2 24.8412 35.4447 0
1212 1 33.7125 36.1396 0
1213 1 61.2925 68.8752 0
1214 1 61.694 23.7122 0
1215 1 11.6806 72.7338 0
1216 1 11.2359 49.393 0
1217 2 67.3907 2.20415 0
1218 2 61.6306 20.8732 0
1219 1 30.2345 15.4381 0
1220 1 61.9272 18.0126 0
1221 1 61.5549 54.8624 0
1222 2 66.2603 74.3269 0
1223 1 42.313 48.0946 0
1224 1 0.700851 34.1689 0
1225 1 2.79996 25.7304 0
1226 2 65.8809 64.8534 0
1227 1 41.5005 56.9541 0
1228 1 76.1961 70.7348 0
1229 2 47.9752 9.37016 0
1230 1 25.5945 49.8768 0
1231 2 52.9789 18.0092 0
1232 1 67.7409 38.1575 0
1233 1 38.6029 58.5148 0
1234 1 1.72224 67.8921 0
1235 1 18.1465 46.0205 0
1236 1 52.2967 63.093 0
1237 1 38.0093 20.7511 0
1238 1 24.7329 7.16622 0
1239 1 12.8553 22.7451 0
1240 1 24.4523 62.9929 0
1241 1 76.3193 62.8081 0