ITEM: TIMESTEP
0
ITEM: NUMBER OF ATOMS
7200
ITEM: BOX BOUNDS xy xz yz pp pp pp
0.0000000000000000e+00 7.7459666924100006e+01 0.0000000000000000e+00
0.0000000000000000e+00 7.7459666924100006e+01 0.0000000000000000e+00
-1.2909944490000000e-01 1.2909944490000000e-01 0.0000000000000000e+00
ITEM: ATOMS id type x y z
1 1 14.6827 71.7714 0
2 1 54.9988 30.8549 0
3 1 8.65227 41.1176 0
4 1 70.3358 56.8554 0
5 1 27.9977 26.4183 0
6 1 29.1402 20.1611 0
7 2 41.7926 62.0732 0
8 2 20.0145 30.6778 0
9 1 25.9665 1.88635 0
10 2 43.237 58.109 0
11 2 67.2631 3.51966 0
12 1 28.7022 3.99744 0
13 2 1.3954 22.9602 0
14 1 61.2249 61.5245 0
15 1 14.7491 10.7923 0
16 1 67.2631 66.0145 0
17 1 18.1127 21.373 0
18 1 39.6685 24.1948 0
19 1 55.6386 13.6444 0
20 2 48.8561 5.60115 0
21 1 7.70539 13.2901 0
22 1 33.4378 55.2963 0
23 1 33.1366 43.4358 0
24 1 1.01674 43.0867 0
25 1 6.18169 70.7 0
26 1 30.1663 68.4809 0
27 2 21.5391 23.0938 0
28 1 52.8072 25.7419 0
29 2 18.6947 8.90597 0
30 2 49.0658 37.4637 0
31 1 61.5581 17.33 0
32 1 20.8053 30.5253 0
33 1 1.29757 30.9591 0
34 2 16.2244 59.4182 0
35 1 70.9367 63.9725 0
36 1 32.8371 17.4857 0
37 1 8.63752 0.359578 0
38 1 3.2802 57.9204 0
39 1 30.6601 31.3329 0
40 2 15.6833 39.4663 0
41 2 55.3326 16.3946 0
42 1 72.4007 74.9889 0
43 1 65.6027 60.1229 0
44 1 47.4343 11.7049 0
45 1 32.7517 44.3681 0
46 1 13.9175 76.5095 0
47 1 30.0471 28.1324 0
48 1 37.0186 62.9603 0
49 2 57.6865 31.4315 0
50 1 44.7662 72.8073 0
51 1 18.5822 9.71001 0
52 2 58.6625 36.9932 0
53 1 67.2831 44.457 0
54 1 15.4194 59.7899 0
55 1 62.5558 75.4211 0
56 1 74.3053 38.4553 0
57 1 41.7525 19.0028 0
58 1 32.5909 57.7069 0
59 1 65.3755 68.7392 0
60 1 39.2994 45.9409 0
61 1 54.0125 23.3097 0
62 1 34.7866 27.6897 0
63 1 28.375 35.936 0
64 1 36.2132 72.5803 0
65 1 57.9251 72.8381 0
66 2 24.0718 36.289 0
67 2 30.0318 34.6283 0
68 2 68.7632 30.1054 0
69 1 73.65 56.0182 0
70 1 43.5878 5.64498 0
71 2 22.189 52.403 0
72 1 27.1806 67.6213 0
73 1 1.57993 58.8344 0
74 2 49.2421 22.8615 0
75 1 16.2259 34.9894 0
76 1 33.4476 65.3425 0
77 1 76.2767 32.7202 0
78 1 1.99186 68.273 0
79 1 70.6464 33.5172 0
80 1 26.9319 46.4348 0
81 1 8.60724 1.51591 0
82 2 34.5795 31.9916 0
83 1 46.9059 25.3033 0
84 1 55.8963 4.05168 0
85 1 30.9629 14.6975 0
86 2 63.7506 31.604 0
87 1 23.0751 22.4451 0
88 1 45.3841 56.9192 0
89 1 66.4874 12.0593 0
90 1 59.633 69.0324 0
91 2 49.9808 71.0838 0
92 2 71.2261 22.5258 0
93 1 66.2189 44.7 0
94 1 6.27579 3.2417 0
95 2 51.9705 37.2603 0
96 1 38.6271 56.0977 0
97 1 15.9272 27.7091 0
98 2 28.1149 38.6335 0
99 1 24.4589 63.693 0
100 2 35.0626 29.3847 0
101 1 0.209028 63.8364 0
102 1 59.2295 0.132612 0
103 1 0.776523 30.004 0
104 1 15.3544 75.7087 0
105 2 19.7288 23.2994 0
106 2 36.7449 59.7765 0
107 1 51.6408 63.7824 0
108 1 47.2785 76.519 0
109 1 35.329 33.7898 0
110 2 70.2911 0.607453 0
111 1 38.4988 57.8175 0
112 1 34.3225 14.6881 0
113 2 37.5596 71.0743 0
114 2 70.8183 5.15981 0
115 2 16.3708 26.936 0
116 2 12.3373 11.7905 0
117 1 3.23563 46.4701 0
118 2 1.91597 73.7499 0
119 1 25.1973 48.2839 0
120 2 24.6648 40.5929 0
121 1 25.161 38.8079 0
122 1 68.856 20.9591 0
123 2 15.1343 66.6745 0
124 1 16.2005 74.2331 0
125 1 13.2771 15.3014 0
126 1 9.26953 71.1758 0
127 1 75.8371 28.5417 0
128 1 0.510909 53.0367 0
129 1 1.68273 49.7664 0
130 1 7.32538 3.47491 0
131 1 40.8947 76.7856 0
132 2 17.3753 72.8481 0
133 2 19.8924 69.9843 0
134 1 33.7907 27.1593 0
135 1 46.5226 5.57174 0
136 2 39.6369 75.7259 0
137 1 24.2823 69.8113 0
138 2 55.3082 3.42146 0
139 1 71.6203 3.39499 0
140 1 2.79605 44.7119 0
141 2 27.613 2.64012 0
142 1 14.6378 52.8246 0
143 2 20.3229 76.9724 0
144 2 59.05 54.468 0
145 2 17.2889 3.93116 0
146 1 42.6975 61.7884 0
147 1 57.6417 42.3495 0
148 1 33.616 15.5826 0
149 2 6.28764 26.6606 0
150 1 13.1152 57.6127 0
151 2 51.0645 56.9077 0
152 1 19.3363 40.0527 0
153 2 72.0737 68.9807 0
154 2 23.068 62.5324 0
155 1 51.1003 31.9654 0
156 1 33.1006 48.1483 0
157 1 53.1543 32.3277 0
158 1 29.5555 24.3129 0
159 2 20.7759 5.30293 0
160 1 57.4985 58.7885 0
161 1 49.0128 36.5341 0
162 2 10.0436 29.3019 0
163 1 71.6706 16.0962 0
164 1 23.0729 43.7616 0
165 1 43.5664 58.9597 0
166 1 48.44 54.0024 0
167 1 75.8101 61.3225 0
168 1 2.65039 26.7508 0
169 1 3.26822 65.9697 0
170 1 4.54275 69.2513 0
171 2 18.3789 16.3822 0
172 2 48.6788 52.0152 0
173 2 12.4251 8.04062 0
174 2 12.5619 75.2324 0
175 2 22.4686 20.529 0
176 1 57.1812 20.5071 0
177 1 68.1904 13.8382 0
178 1 19.9174 40.9361 0
179 1 39.3931 60.4291 0
180 2 25.6786 0.96287 0
181 1 15.9364 15.8916 0
182 1 18.5634 10.7348 0
183 2 42.701 40.2906 0
184 1 48.2702 61.2906 0
185 2 40.4428 41.8577 0
186 1 25.4024 13.0507 0
187 1 32.4361 22.7378 0
188 1 41.2736 21.0106 0
189 2 36.9091 47.6411 0
190 1 77.0237 23.5991 0
191 1 33.0808 35.4879 0
192 1 38.0033 72.2991 0
193 2 21.7576 66.93 0
194 2 51.1749 63.0839 0
195 1 50.0264 64.2877 0
196 2 36.0623 73.3599 0
197 2 70.8262 75.3977 0
198 1 27.4636 39.2007 0
199 2 71.2983 38.0119 0
200 1 43.8164 50.0073 0
201 2 74.7218 47.016 0
202 2 67.1924 69.4948 0
203 1 38.0899 28.7354 0
204 1 9.69778 20.4843 0
205 1 61.4139 3.28823 0
206 2 16.3575 0.575822 0
207 2 62.067 35.4222 0
208 1 72.5163 19.7801 0
209 1 67.6064 28.6544 0
210 2 50.1849 43.8065 0
211 1 53.4171 40.4483 0
212 2 26.2205 65.0239 0
213 2 60.639 55.4059 0
214 1 68.8084 51.3304 0
215 2 37.3949 35.2742 0
216 1 69.1036 34.6871 0
217 1 68.5064 60.0262 0
218 2 76.8275 45.7473 0
219 2 76.5266 70.0651 0
220 2 39.1343 39.1418 0
221 1 22.5502 3.08236 0
222 1 46.2119 63.0267 0
223 2 35.5463 70.4735 0
224 2 5.46291 43.9435 0
225 1 19.422 13.7675 0
226 2 66.5821 25.95 0
227 2 12.25 44.4529 0
228 1 17.5762 41.2448 0
229 1 67.5746 59.3909 0
230 1 49.8184 22.2061 0
231 1 51.0774 38.3849 0
232 1 65.5845 61.0978 0
233 1 15.7542 10.4523 0
234 1 30.7534 13.2324 0
235 1 38.58 39.9088 0
236 2 6.15551 17.6191 0
237 1 69.0021 75.6851 0
238 2 38.3468 71.5091 0
239 1 40.9892 9.29836 0
240 2 1.65988 30.213 0
241 1 20.4402 59.42 0
242 1 9.90969 16.5839 0
243 1 39.1703 23.2848 0
244 1 41.9726 65.6537 0
245 1 53.963 35.2742 0
246 1 3.32936 25.6414 0
247 1 50.5021 44.6372 0
248 1 45.1546 25.266 0
249 2 42.2392 41.554 0
250 1 15.1249 74.734 0
251 2 66.0806 11.1686 0
252 2 17.015 13.2621 0
253 1 47.5715 23.869 0
254 1 46.8986 66.2952 0
255 1 30.1749 63.9014 0
256 1 27.0367 15.8606 0
257 1 5.02406 60.9466 0
258 1 40.1864 41.0232 0
259 1 62.9929 28.2703 0
260 2 16.9718 50.0038 0
261 2 58.8861 20.428 0
262 1 24.132 17.4929 0
263 2 45.5617 45.5501 0
264 2 16.8995 61.5234 0
265 1 15.153 30.2363 0
266 1 20.3019 68.0512 0
267 2 69.9047 22.0656 0
268 2 71.8361 2.54858 0
269 1 37.3206 34.4496 0
270 2 13.8275 18.1067 0
271 2 53.4219 3.03704 0
272 2 5.8836 62.1435 0
273 1 58.9273 50.559 0
274 1 40.4804 13.6906 0
275 1 4.12668 65.4974 0
276 1 4.81088 19.7272 0
277 2 27.2623 58.6206 0
278 1 62.1142 1.53117 0
279 1 48.4034 67.7827 0
280 1 45.6209 53.8688 0
281 1 5.53229 10.9977 0
282 2 58.4768 41.1086 0
283 1 62.2493 69.2438 0
284 2 31.6641 62.4654 0
285 1 13.3913 26.3892 0
286 1 37.2811 15.3381 0
287 1 6.05426 74.3466 0
288 2 21.5543 8.9502 0
289 2 6.45534 68.6302 0
290 2 53.361 19.6743 0
291 1 62.9334 29.2892 0
292 1 20.165 51.5557 0
293 1 20.8827 36.7703 0
294 1 49.9227 37.1896 0
295 1 27.7477 11.8946 0
296 2 32.0179 68.3303 0
297 1 75.913 33.921 0
298 1 3.25548 66.972 0
299 2 42.8693 33.6824 0
300 1 75.5945 70.188 0
301 1 20.182 27.8599 0
302 1 20.7654 23.3139 0
303 1 53.6035 18.6821 0
304 1 70.7973 31.9253 0
305 2 43.8452 71.3508 0
306 1 20.207 48.7527 0
307 2 44.794 0.636547 0
308 1 18.7256 7.28831 0
309 2 9.81036 73.7328 0
310 2 43.536 36.4522 0
311 1 26.1949 14.384 0
312 1 63.7442 59.2937 0
313 1 30.6785 57.5765 0
314 1 3.64952 41.0266 0
315 2 67.4742 0.811448 0
316 2 72.8178 25.5041 0
317 1 49.5722 56.4879 0
318 2 61.7631 16.4545 0
319 1 29.4632 59.5956 0
320 1 63.8656 12.6571 0
321 1 13.6234 14.1425 0
322 2 42.9031 17.6965 0
323 2 0.799427 9.26107 0
324 1 34.9659 43.1941 0
325 1 4.82448 66.2446 0
326 1 72.8003 70.6918 0
327 1 31.0999 67.8497 0
328 1 40.1284 44.5167 0
329 1 15.285 44.7862 0
330 2 63.4603 74.911 0
331 2 9.52552 75.6219 0
332 1 7.45361 19.9054 0
333 1 30.232 38.8386 0
334 1 19.0141 0.687043 0
335 1 70.6469 54.7339 0
336 2 73.822 36.7348 0
337 1 69.3457 30.9656 0
338 2 29.4754 64.4933 0
339 1 4.14708 33.359 0
340 1 9.92628 9.56152 0
341 2 56.4442 75.8776 0
342 1 15.6912 71.3647 0
343 2 58.5397 52.5509 0
344 2 10.0179 46.1952 0
345 1 5.50254 30.6817 0
346 1 11.0459 50.1837 0
347 1 43.628 13.1152 0
348 1 36.8924 1.03375 0
349 1 42.4223 55.8976 0
350 1 62.6444 44.6494 0
351 1 38.902 73.856 0
352 1 10.8648 24.6842 0
353 1 70.7395 21.8818 0
354 2 23.5018 11.9617 0
355 2 61.084 75.1855 0
356 2 65.4565 56.4255 0
357 1 75.5026 5.74152 0
358 1 35.1973 73.0707 0
359 1 56.9369 3.97207 0
360 2 20.042 18.3528 0
361 2 9.59608 39.5424 0
362 1 38.0236 2.72298 0
363 2 47.3478 5.4263 0
364 1 25.414 47.1415 0
365 2 22.1768 12.4361 0
366 1 66.1789 35.422 0
367 2 67.9562 51.2164 0
368 2 29.1816 74.05 0
369 2 33.7897 48.6307 0
370 1 13.6004 58.5312 0
371 1 10.0147 69.2749 0
372 2 41.6038 34.8675 0
373 1 49.2089 35.4841 0
374 2 64.7983 14.1287 0
375 1 28.5201 12.6856 0
376 2 71.2197 8.11445 0
377 2 55.2578 73.4784 0
378 1 57.6719 49.4295 0
379 1 74.6204 50.3246 0
380 1 69.0278 39.2772 0
381 1 38.2076 14.8814 0
382 1 15.9026 5.24467 0
383 1 48.7117 40.0427 0
384 1 2.08321 43.243 0
385 1 65.0285 9.10822 0
386 1 53.3482 17.5006 0
387 1 32.6913 72.9417 0
388 2 36.0794 30.3982 0
389 1 43.6221 43.4693 0
390 1 60.8328 15.4635 0
391 2 30.0536 20.1426 0
392 2 26.5549 49.2459 0
393 2 9.30125 16.0617 0
394 1 51.8115 28.4108 0
395 1 29.32 2.72154 0
396 1 70.2758 68.5632 0
397 1 70.2065 30.4054 0
398 1 60.645 69.277 0
399 1 16.8558 6.18298 0
400 1 76.2999 53.012 0
401 1 51.033 16.7488 0
402 2 68.3595 34.1966 0
403 1 48.4531 0.477083 0
404 1 41.653 54.3806 0
405 2 67.1653 35.4869 0
406 1 40.9868 5.12602 0
407 2 20.4501 65.2585 0
408 1 67.4365 17.094 0
409 1 18.0335 59.0534 0
410 2 18.3925 47.7889 0
411 2 31.9456 24.6079 0
412 1 27.2787 35.6442 0
413 1 58.8252 38.5353 0
414 1 44.5759 40.2754 0
415 1 72.4069 68.2552 0
416 2 17.5352 57.2196 0
417 2 14.6572 35.678 0
418 1 18.1599 31.001 0
419 2 48.3383 34.9327 0
420 2 59.0154 58.912 0
421 1 74.4858 12.5644 0
422 1 21.7226 46.4428 0
423 1 14.0494 1.41166 0
424 1 23.7195 26.3792 0
425 1 35.7715 8.8312 0
426 1 56.4447 21.2395 0
427 2 51.3218 17.6321 0
428 1 21.4225 31.3721 0
429 1 27.1919 11.0131 0
430 1 24.944 53.2272 0
431 1 47.019 35.8776 0
432 1 64.5349 36.9504 0
433 1 70.1677 73.4832 0
434 1 4.82405 23.7654 0
435 1 16.935 74.8545 0
436 2 3.96573 31.6552 0
437 2 23.1813 77.089 0
438 1 55.8133 53.6388 0
439 2 65.1131 20.2079 0
440 1 27.8762 52.3766 0
441 2 76.217 58.059 0
442 1 19.8001 75.1795 0
443 1 60.3736 49.7081 0
444 1 48.7568 76.9004 0
445 2 14.8653 46.3181 0
446 1 48.9424 32.7149 0
447 1 1.98861 42.2524 0
448 1 3.02972 43.6551 0
449 1 7.83056 48.2197 0
450 2 17.6287 76.8461 0
451 2 30.4957 55.0731 0
452 1 38.3472 74.6544 0
453 1 20.2904 60.3586 0
454 2 75.617 65.4436 0
455 2 73.9585 60.7542 0
456 1 25.7143 11.723 0
457 2 76.5198 28.0634 0
458 1 68.1667 24.3574 0
459 2 49.5113 75.1246 0
460 1 14.2591 27.4063 0
461 2 58.5879 26.0419 0
462 1 36.8281 52.9842 0
463 1 28.8753 25.8262 0
464 1 45.4544 70.1074 0
465 2 58.0565 63.707 0
466 1 66.522 5.8644 0
467 2 11.8234 33.8932 0
468 1 28.4582 61.1747 0
469 1 71.3004 36.2151 0
470 1 10.8301 30.906 0
471 2 10.0527 35.8629 0
472 1 9.09167 33.4381 0
473 1 73.2796 3.52679 0
474 1 8.15597 42.2152 0
475 1 13.8041 42.4189 0
476 2 55.6133 66.735 0
477 1 40.1579 58.7875 0
478 2 50.5159 52.2584 0
479 1 26.6823 53.3092 0
480 1 28.2772 47.2474 0
481 1 59.6238 26.3389 0
482 1 30.7072 72.3308 0
483 2 42.4382 45.7803 0
484 1 30.6996 19.5315 0
485 1 65.2696 14.7486 0
486 1 66.0895 58.5778 0
487 2 51.3799 49.3971 0
488 1 25.9505 62.465 0
489 1 75.7307 75.6797 0
490 1 5.384 9.7556 0
491 1 54.5314 65.544 0
492 2 24.8927 16.9928 0
493 1 56.6046 71.8711 0
494 1 36.2047 15.6594 0
495 2 47.6925 59.2597 0
496 2 20.5122 49.5419 0
497 2 0.558499 38.1893 0
498 1 1.45108 15.9523 0
499 1 23.6561 23.5483 0
500 1 63.5016 66.813 0
501 2 66.4249 60.4421 0
502 1 3.54111 28.153 0
503 1 14.4694 23.7942 0
504 1 1.40307 46.6434 0
505 2 56.0094 51.3415 0
506 2 18.3447 36.2 0
507 1 23.4652 69.0045 0
508 1 0.0961807 45.199 0
509 1 74.8581 20.8519 0
510 1 28.4647 59.2494 0
511 1 8.78807 25.7331 0
512 1 8.63928 38.1479 0
513 1 70.8258 37.1058 0
514 1 4.51362 11.0345 0
515 2 22.6836 75.375 0
516 2 41.6159 38.0358 0
517 2 71.754 47.9616 0
518 2 18.5006 19.3189 0
519 2 35.4447 10.9064 0
520 1 38.9073 37.4845 0
521 1 3.16134 71.7369 0
522 2 43.3614 61.2247 0
523 1 53.552 13.6784 0
524 1 36.0781 37.6857 0
525 1 43.3618 31.4337 0
526 2 18.3105 7.94867 0
527 1 8.38571 3.45657 0
528 2 67.2982 26.74 0
529 2 7.27906 28.7161 0
530 1 61.0038 54.6533 0
531 2 46.1634 70.5301 0
532 2 8.99773 15.212 0
533 1 62.4814 59.4962 0
534 1 48.4802 42.8306 0
535 1 8.34948 15.8554 0
536 1 2.02452 3.56435 0
537 1 13.6948 55.7205 0
538 2 69.8756 35.3743 0
539 2 31.3364 12.5743 0
540 1 62.0007 54.8447 0
541 2 4.07161 64.6151 0
542 1 20.5423 61.9942 0
543 2 12.3242 70.9408 0
544 2 46.9653 10.9335 0
545 1 52.7359 55.9852 0
546 1 73.2506 76.0049 0
547 1 12.3454 32.1223 0
548 2 13.9364 8.81496 0
549 2 55.6089 58.6244 0
550 2 5.25184 29.8832 0
551 1 31.1184 8.06544 0
552 2 59.9681 67.4495 0
553 2 39.7433 54.2694 0
554 1 4.06888 36.8696 0
555 1 4.36479 20.8654 0
556 1 13.0292 40.3498 0
557 1 64.3547 11.0613 0
558 1 63.9819 56.0323 0
559 1 55.9631 15.8256 0
560 2 68.782 0.181921 0
561 1 56.7156 26.7519 0
562 2 39.7628 8.39473 0
563 2 44.1345 37.7232 0
564 1 55.8577 45.0911 0
565 2 53.9898 66.2683 0
566 2 63.7138 19.2098 0
567 1 15.0299 6.18639 0
568 2 74.9139 5.11724 0
569 2 70.1853 17.8519 0
570 1 30.9377 52.502 0
571 1 18.2342 1.29635 0
572 2 1.51156 29.3631 0
573 2 68.2537 46.8367 0
574 1 17.4939 62.6008 0
575 1 33.1316 74.5774 0
576 1 7.09913 71.1485 0
577 1 50.3197 35.4777 0
578 2 72.7031 0.188746 0
579 2 3.74374 54.3351 0
580 1 7.42226 46.1946 0
581 1 32.9755 23.9211 0
582 2 37.9214 66.7865 0
583 2 75.4761 37.1495 0
584 2 72.5064 21.5115 0
585 1 5.25087 17.4852 0
586 1 5.65809 1.4957 0
587 2 5.87239 12.9326 0
588 1 16.5957 9.93915 0
589 2 65.4466 37.1467 0
590 1 47.3231 30.0902 0
591 1 11.9545 19.3372 0
592 1 2.69375 60.4579 0
593 1 27.6151 40.3331 0
594 1 18.0956 70.3658 0
595 1 66.9762 55.7335 0
596 2 49.6598 41.7957 0
597 1 75.7386 72.5919 0
598 1 6.55615 54.1263 0
599 1 75.7548 68.424 0
600 1 35.0246 69.7916 0
601 2 69.4239 74.9098 0
602 1 62.6586 16.46 0
603 2 12.3165 6.69215 0
604 2 29.4198 3.52186 0
605 1 20.5651 20.1803 0
606 1 67.7915 15.9804 0
607 1 28.4046 9.16244 0
608 2 5.38045 42.7386 0
609 2 59.0001 7.78387 0
610 1 77.2644 71.6719 0
611 1 9.70562 54.9126 0
612 1 73.3969 40.477 0
613 1 16.4162 1.52851 0
614 2 71.8694 30.3698 0
615 1 73.466 43.5678 0
616 1 4.95984 50.6427 0
617 1 31.351 56.8287 0
618 2 69.8732 7.26728 0
619 2 56.5086 65.9943 0
620 2 63.5086 14.2766 0
621 2 7.23106 32.536 0
622 1 76.7195 26.295 0
623 1 11.7258 9.83268 0
624 2 56.9178 42.8133 0
625 1 30.0513 46.1041 0
626 1 52.3441 47.0194 0
627 2 30.768 70.6902 0
628 1 57.7898 62.9064 0
629 2 33.6132 75.5281 0
630 1 16.6602 70.9282 0
631 1 5.39688 29.057 0
632 1 23.041 13.9137 0
633 2 14.0022 4.91174 0
634 1 64.6644 56.7752 0
635 2 76.3461 55.2925 0
636 2 68.2478 12.9706 0
637 1 1.8428 44.9899 0
638 1 38.6517 20.5501 0
639 1 14.2589 70.2771 0
640 1 22.441 41.8194 0
641 1 22.2426 44.327 0
642 1 66.1449 2.17074 0
643 1 59.3776 41.1599 0
644 2 1.05699 38.911 0
645 1 14.8401 36.5858 0
646 1 66.0541 51.1184 0
647 2 60.8431 72.1169 0
648 1 33.6651 8.25711 0
649 2 13.372 68.4974 0
650 2 47.0579 9.39306 0
651 1 2.73001 52.7681 0
652 1 25.8007 43.0811 0
653 2 7.51266 22.6469 0
654 2 24.1053 8.1642 0
655 1 40.1669 42.7232 0
656 1 15.467 1.76392 0
657 1 43.1507 45.2394 0
658 1 3.16194 54.9258 0
659 2 63.9362 70.0434 0
660 1 66.5071 13.2365 0
661 1 39.1673 56.9885 0
662 1 65.0978 3.54709 0
663 1 74.4847 29.9003 0
664 1 63.6541 21.6494 0
665 2 43.0709 52.9635 0
666 2 19.2897 57.0105 0
667 1 59.8297 14.1596 0
668 2 46.2076 34.1134 0
669 1 23.8034 14.516 0
670 2 24.678 75.9233 0
671 2 13.1738 44.3855 0
672 1 40.2727 16.864 0
673 1 14.1328 35.0765 0
674 1 66.2376 65.2159 0
675 2 30.7393 25.6316 0
676 2 77.4506 5.92988 0
677 1 71.4026 74.84 0
678 1 62.4766 20.557 0
679 1 30.4408 66.9415 0
680 1 51.3544 40.0463 0
681 1 74.0293 21.6577 0
682 1 53.933 41.3982 0
683 1 2.90478 37.9109 0
684 1 71.7575 64.6216 0
685 2 25.2862 43.729 0
686 1 8.27099 65.1337 0
687 1 25.4406 59.9757 0
688 2 0.0224915 29.2541 0
689 1 12.5252 51.1672 0
690 1 22.7401 60.1996 0
691 1 37.4842 67.5393 0
692 2 5.19791 74.4133 0
693 1 76.1464 13.551 0
694 2 32.2501 10.4662 0
695 1 69.8242 9.07659 0
696 2 76.5286 25.5215 0
697 1 39.2005 14.911 0
698 1 65.4743 13.583 0
699 1 10.9784 66.0667 0
700 1 51.8029 1.93959 0
701 1 24.084 13.4014 0
702 1 76.3749 65.0784 0
703 2 21.1531 68.0212 0
704 2 14.8832 20.0405 0
705 2 48.1495 76.2371 0
706 1 64.2698 48.0114 0
707 2 47.1318 52.7186 0
708 1 37.3218 38.7142 0
709 1 43.5725 24.1275 0
710 2 69.221 17.695 0
711 1 15.5735 9.35199 0
712 2 59.9566 15.0659 0
713 2 44.6008 25.8901 0
714 2 50.8184 14.7681 0
715 1 49.4932 66.6995 0
716 1 26.1826 7.64371 0
717 1 65.1584 35.2116 0
718 1 57.1646 8.38692 0
719 1 62.9839 24.6546 0
720 2 45.6157 74.5171 0
721 2 17.3052 22.9462 0
722 1 70.8349 20.8496 0
723 2 17.4097 31.2726 0
724 2 50.7174 46.447 0
725 1 15.9284 32.1083 0
726 1 38.6304 67.3211 0
727 2 22.3836 35.6837 0
728 1 56.7767 11.9542 0
729 2 31.3368 42.9671 0
730 1 10.6841 37.5834 0
731 2 15.6508 3.34698 0
732 1 70.5227 52.4584 0
733 1 48.4551 63.1025 0
734 2 57.7716 29.6629 0
735 1 36.6734 46.7338 0
736 1 64.4443 69.297 0
737 2 23.7017 55.6741 0
738 1 62.509 37.4778 0
739 1 7.90069 52.6939 0
740 1 36.3307 63.8293 0
741 2 0.287319 41.4242 0
742 1 17.07 27.5697 0
743 1 15.4804 18.7381 0
744 2 30.9716 63.7012 0
745 1 24.7597 33.8861 0
746 1 11.1983 13.0582 0
747 1 67.8249 39.0543 0
748 2 49.4973 39.5017 0
749 2 40.8341 45.1248 0
750 1 75.2619 18.7049 0
751 1 68.3927 70.9001 0
752 2 50.7018 47.8136 0
753 1 13.9054 46.2684 0
754 2 60.4328 33.5125 0
755 1 72.7221 11.9663 0
756 2 23.482 16.9661 0
757 1 55.1939 1.79924 0
758 1 23.0154 48.0429 0
759 1 16.3452 63.7329 0
760 1 12.0184 21.985 0
761 1 66.8814 31.8163 0
762 1 68.278 27.7995 0
763 2 2.77971 67.6419 0
764 1 27.6714 44.7651 0
765 2 28.776 26.6765 0
766 1 21.0293 61.0569 0
767 1 41.8983 42.4938 0
768 1 40.3468 59.9017 0
769 1 27.3414 56.6496 0
770 2 30.5194 50.5151 0
771 1 52.3688 49.0072 0
772 1 30.0949 26.2777 0
773 1 70.7336 10.5772 0
774 2 27.9405 13.4713 0
775 1 32.9116 60.8834 0
776 2 3.8086 15.5344 0
777 1 0.87358 69.274 0
778 2 1.9829 20.3377 0
779 1 28.5897 39.3199 0
780 1 30.8849 20.494 0
781 1 6.25059 72.7563 0
782 1 68.1109 14.9713 0
783 1 56.09 16.9149 0
784 1 67.6913 72.2013 0
785 2 15.6782 13.9379 0
786 1 44.1145 66.7261 0
787 1 48.7871 30.364 0
788 1 33.4452 28.9891 0
789 1 53.1869 68.9587 0
790 1 47.9033 72.1699 0
791 1 42.0503 35.7601 0
792 1 23.779 47.4472 0
793 1 8.83257 57.8463 0
794 2 29.732 38.1392 0
795 2 23.771 43.076 0
796 2 18.5131 35.2762 0
797 1 34.2031 40.0965 0
798 1 26.2407 17.8002 0
799 1 4.26892 46.3121 0
800 1 30.4155 61.0405 0
801 2 68.5993 52.3206 0
802 2 9.34605 34.3047 0
803 2 47.3918 48.8242 0
804 2 42.5588 22.584 0
805 1 1.3865 44.0847 0
806 1 65.9679 62.7335 0
807 2 3.5525 44.281 0
808 1 18.4134 11.8725 0
809 2 4.00104 5.4619 0
810 1 57.7492 12.465 0
811 1 39.5801 73.0369 0
812 2 45.3844 76.7288 0
813 2 69.3594 57.6814 0
814 1 7.68691 47.1458 0
815 2 9.58223 58.3186 0
816 1 10.0037 11.1583 0
817 1 69.0815 13.0143 0
818 2 46.5169 20.328 0
819 2 41.1398 74.9004 0
820 1 48.7806 69.5518 0
821 1 36.7439 6.83456 0
822 1 77.3222 32.9416 0
823 1 66.5769 3.0885 0
824 2 59.0142 57.6644 0
825 1 45.3956 24.2537 0
826 1 72.2151 71.6562 0
827 1 46.3222 34.9438 0
828 1 71.7316 67.3691 0
829 1 25.6574 22.8946 0
830 2 6.62442 65.6066 0
831 2 68.3807 44.0646 0
832 1 46.8735 58.3092 0
833 1 0.318043 74.2757 0
834 2 44.5704 46.7202 0
835 1 58.137 18.9283 0
836 1 18.2736 68.158 0
837 1 8.73297 13.7426 0
838 1 14.5834 54.0403 0
839 1 4.45644 44.2736 0
840 2 76.7975 68.7089 0
841 1 24.345 7.06534 0
842 2 61.7053 6.92894 0
843 1 48.0099 51.281 0
844 1 52.6476 64.8389 0
845 2 46.2577 56.76 0
846 1 23.8808 50.6385 0
847 1 45.6717 65.9422 0
848 2 28.4172 65.2029 0
849 1 47.1264 8.5899 0
850 1 26.7312 45.0484 0
851 1 74.3354 67.8023 0
852 1 59.5239 53.808 0
853 1 70.7825 53.5402 0
854 1 16.4766 19.041 0
855 1 14.3579 59.3845 0
856 2 22.2468 6.32562 0
857 1 77.3898 5.06628 0
858 2 60.4066 8.04235 0
859 1 5.7107 63.9876 0
860 2 0.594447 55.4326 0
861 2 61.1668 41.7073 0
862 2 4.8293 38.7327 0
863 1 35.879 17.4787 0
864 1 21.9881 66.0931 0
865 2 2.19886 38.5457 0
866 1 23.3402 63.3604 0
867 2 73.1235 11.2152 0
868 1 34.4658 55.358 0
869 1 4.29536 29.825 0
870 1 76.0905 23.1728 0
871 1 29.6743 50.2773 0
872 1 28.1994 76.3796 0
873 1 2.49555 61.5972 0
874 1 54.1595 32.507 0
875 1 2.68953 18.6599 0
876 2 69.0273 47.8814 0
877 1 38.159 18.9063 0
878 2 40.9205 2.19256 0
879 1 0.611336 61.2725 0
880 2 48.5147 13.5087 0
881 2 46.7634 63.6794 0
882 2 3.51775 52.9401 0
883 1 18.8424 24.3903 0
884 1 15.4149 7.99579 0
885 1 56.1788 12.8134 0
886 1 42.9594 74.8504 0
887 2 20.9268 48.2041 0
888 1 54.6469 13.5017 0
889 2 56.4626 9.27568 0
890 2 24.5728 47.5666 0
891 1 48.9278 50.0399 0
892 1 38.6289 43.2893 0
893 1 47.0347 51.8361 0
894 1 23.4587 56.5137 0
895 2 27.3406 76.1974 0
896 1 60.8539 60.6503 0
897 2 58.3302 21.8142 0
898 1 74.17 24.5858 0
899 1 9.45162 3.36968 0
900 2 48.6533 70.3934 0
901 1 22.624 5.43631 0
902 1 42.4302 32.8733 0
903 1 26.3473 13.2993 0
904 2 40.6615 75.9371 0
905 1 12.5856 65.7944 0
906 1 49.9119 72.9726 0
907 1 38.5827 42.2698 0
908 1 41.4393 1.48096 0
909 1 21.0798 4.53935 0
910 2 48.3113 75.3565 0
911 2 20.7752 24.2208 0
912 2 69.8687 53.0492 0
913 2 42.3368 54.978 0
914 1 57.1861 73.4912 0
915 2 73.771 33.2302 0
916 1 72.2732 65.5922 0
917 2 53.531 55.5984 0
918 2 0.89825 40.5692 0
919 1 9.45648 14.4581 0
920 1 42.0997 72.1675 0
921 1 4.63426 37.7586 0
922 2 10.6604 52.0252 0
923 2 39.0678 52.7618 0
924 1 69.0862 48.6883 0
925 1 75.2728 32.3944 0
926 2 72.5715 43.7369 0
927 1 11.8036 47.8358 0
928 1 50.2396 17.4353 0
929 2 26.2278 16.2473 0
930 2 75.9785 19.3022 0
931 1 77.1973 69.4696 0
932 1 36.6937 45.554 0
933 1 69.7514 43.3475 0
934 1 49.378 4.87401 0
935 1 35.5102 22.1843 0
936 2 18.3687 41.6313 0
937 1 21.6681 26.7768 0
938 1 42.7819 4.91559 0
939 2 42.928 63.3754 0
940 1 4.24928 49.5348 0
941 1 47.8462 64.9944 0
942 1 16.2994 33.9311 0
943 2 74.9703 44.606 0
944 2 11.8445 72.5487 0
945 1 2.15495 70.3551 0
946 1 32.4604 54.6359 0
947 2 77.0323 74.8615 0
948 1 76.668 36.1593 0
949 1 27.0648 25.0188 0
950 2 6.47538 16.0935 0
951 1 75.9493 24.9194 0
952 2 3.61349 77.1536 0
953 2 42.6789 28.8691 0
954 2 23.2132 51.3511 0
955 1 9.29491 42.8794 0
956 2 75.8804 8.05581 0
957 1 62.3694 34.6477 0
958 2 73.0959 34.2982 0
959 2 17.0698 64.505 0
960 2 67.9175 72.9851 0
961 1 32.6343 64.6559 0
962 1 4.52486 73.9268 0
963 1 38.9432 66.2821 0
964 2 42.9595 49.4342 0
965 2 31.0355 37.0996 0
966 1 61.1486 32.0007 0
967 1 75.0215 42.2223 0
968 1 26.1225 67.8477 0
969 1 55.1183 12.6048 0
970 2 48.2664 43.6146 0
971 1 16.7471 17.4511 0
972 1 72.9508 28.7962 0
973 1 17.1075 59.5323 0
974 2 38.8674 31.5221 0
975 2 11.2552 58.6402 0
976 2 48.4444 18.8471 0
977 1 69.5014 59.4815 0
978 2 35.2365 54.8931 0
979 2 35.1948 74.8337 0
980 1 30.7813 62.8633 0
981 1 37.8998 36.9978 0
982 1 56.527 74.9644 0
983 1 13.353 2.29658 0
984 1 49.6428 21.2193 0
985 1 61.5271 47.985 0
986 1 68.9828 7.06433 0
987 2 13.0788 61.4028 0
988 2 72.5228 7.27048 0
989 2 47.8894 26.8848 0
990 2 41.7701 76.4669 0
991 2 37.9721 36.1325 0
992 1 60.3791 68.1983 0
993 2 2.21104 37.3965 0
994 2 50.8908 41.1771 0
995 1 67.83 20.7464 0
996 2 12.4788 21.2967 0
997 2 46.2996 0.453579 0
998 2 17.7876 9.51062 0
999 2 27.4886 9.1543 0
1000 2 76.9067 16.0888 0
1001 1 51.073 61.0479 0
1002 1 43.712 76.4425 0
1003 1 55.2591 61.6592 0
1004 1 13.0199 3.25846 0
1005 2 28.6137 24.1129 0
1006 2 4.64616 22.8646 0
1007 1 32.9741 36.62 0
1008 1 31.7489 63.3814 0
1009 1 58.184 68.2074 0
1010 1 22.5958 66.9171 0
1011 2 15.1805 58.9585 0
1012 2 17.7283 45.8486 0
1013 2 6.36602 66.9681 0
1014 1 64.1549 6.68917 0
1015 1 29.3533 13.2925 0
1016 1 61.0885 57.3227 0
1017 2 57.6324 0.870157 0
1018 1 37.6284 5.23426 0
1019 1 26.7227 18.741 0
1020 2 74.8708 29.1133 0
1021 2 76.8515 42.4046 0
1022 1 12.5669 34.4869 0
1023 1 32.1146 26.8389 0
1024 1 71.981 8.9586 0
1025 1 38.3925 48.921 0
1026 1 58.7955 73.4334 0
1027 1 52.8426 41.261 0
1028 1 18.0367 27.3764 0
1029 1 13.9619 36.1141 0
1030 2 27.8969 4.12347 0
1031 2 45.5846 52.8707 0
1032 1 28.45 14.1299 0
1033 1 13.8975 5.75046 0
1034 1 18.5999 75.3521 0
1035 1 1.84137 28.6312 0
1036 2 62.5878 38.338 0
1037 1 48.7457 20.8065 0
1038 1 36.4791 32.3908 0
1039 1 74.4517 45.3332 0
1040 2 12.9779 63.163 0
1041 1 8.31937 7.09766 0
1042 2 55.1359 55.16 0
1043 2 67.7614 64.0362 0
1044 1 56.7043 41.9519 0
1045 1 5.77694 41.0002 0
1046 1 32.4153 6.0746 0
1047 2 62.3117 70.8808 0
1048 1 24.5225 4.99727 0
1049 1 49.9431 14.8312 0
1050 2 14.7619 29.4476 0
1051 1 73.9241 51.0833 0
1052 1 9.41413 53.6765 0
1053 2 64.2105 38.0133 0
1054 1 50.5336 24.1025 0
1055 2 12.8553 50.4482 0
1056 2 55.9068 32.9398 0
1057 1 12.0882 29.328 0
1058 1 53.4292 1.26831 0
1059 1 22.6178 11.6348 0
1060 2 11.833 22.9569 0
1061 1 19.4679 12.0223 0
1062 2 50.261 31.5795 0
1063 1 9.68347 47.9108 0
1064 1 39.2687 19.2801 0
1065 2 38.6926 7.08368 0
1066 1 13.0336 60.5293 0
1067 1 55.3852 10.8658 0
1068 2 25.8793 18.5081 0
1069 1 50.9258 11.8735 0
1070 2 40.4578 43.5168 0
1071 2 63.2057 34.7378 0
1072 2 20.6925 17.1882 0
1073 2 28.0567 71.6693 0
1074 2 32.0114 22.0118 0
1075 1 21.935 57.8582 0
1076 1 33.1565 28.0348 0
1077 1 3.44761 70.7384 0
1078 2 56.211 25.4581 0
1079 2 60.5913 13.5116 0
1080 2 9.16413 35.5278 0
1081 2 14.0411 57.7691 0
1082 2 35.6862 27.7403 0
1083 2 16.6352 67.1099 0
1084 1 36.2875 31.3996 0
1085 1 47.9324 48.0458 0
1086 1 10.5242 61.5247 0
1087 1 57.8065 48.3729 0
1088 1 67.8857 53.081 0
1089 2 66.4434 66.0549 0
1090 1 60.0595 76.6915 0
1091 2 37.4415 41.9276 0
1092 1 16.4493 75.7337 0
1093 1 31.4071 3.55736 0
1094 2 14.7713 63.2256 0
1095 1 4.21554 14.7729 0
1096 2 16.8898 2.71903 0
1097 1 4.36473 76.7368 0
1098 1 70.5876 7.58599 0
1099 1 61.7864 67.2743 0
1100 1 34.6906 44.9052 0
1101 1 62.9726 33.701 0
1102 1 45.5303 0.179664 0
1103 1 46.4994 3.903 0
1104 1 38.8757 36.4021 0
1105 1 57.5118 43.4013 0
1106 1 49.4924 0.165072 0
1107 2 61.6888 47.1292 0
1108 1 75.9398 51.1779 0
1109 1 70.9624 44.5529 0
1110 2 43.0359 56.4195 0
1111 1 50.1093 41.014 0
1112 1 4.1597 18.9544 0
1113 2 37.2934 22.7963 0
1114 2 21.6266 30.5229 0
1115 2 56.6437 72.7217 0
1116 1 52.6914 33.9522 0
1117 1 24.5223 74.8722 0
1118 1 65.586 0.21555 0
1119 2 24.0274 45.7662 0
1120 1 45.5215 1.1982 0
1121 2 64.5944 32.6593 0
1122 1 42.2957 73.1881 0
1123 2 54.768 72.3895 0
1124 1 34.4582 13.7032 0
1125 2 67.6545 36.7816 0
1126 2 13.3963 27.2462 0
1127 1 31.1527 45.7498 0
1128 1 14.5398 45.5283 0
1129 1 63.8567 18.2479 0
1130 1 47.7178 66.9285 0
1131 1 42.8596 42.1571 0
1132 2 74.9936 17.885 0
1133 2 33.3117 25.5874 0
1134 2 32.888 67.0453 0
1135 1 24.2733 42.2864 0
1136 2 77.124 52.6867 0
1137 1 52.0179 43.4978 0
1138 1 46.7881 42.5887 0
1139 2 74.9518 53.9835 0
1140 2 18.2494 30.111 0
1141 1 25.1455 16.148 0
1142 1 34.703 61.395 0
1143 1 6.7369 21.8752 0
1144 2 4.82712 59.03 0
1145 1 21.7471 18.7527 0
1146 1 1.12927 51.4248 0
1147 1 24.5471 46.6498 0
1148 1 73.6096 37.5809 0
1149 1 48.9757 3.25095 0
1150 2 11.3215 61.2503 0
1151 1 60.4305 48.0394 0
1152 1 30.3907 1.09547 0
1153 1 42.2243 47.658 0
1154 1 37.5968 47.2651 0
1155 2 37.4696 62.281 0
1156 1 20.1512 36.0721 0
1157 1 26.5546 36.4139 0
1158 2 3.29619 30.2193 0
1159 2 19.6249 59.6848 0
1160 1 75.5869 71.5844 0
1161 2 30.949 75.6752 0
1162 1 9.59025 55.9611 0
1163 2 18.7263 67.4139 0
1164 1 8.17762 70.833 0
1165 1 62.7866 14.7584 0
1166 2 66.8195 43.8117 0
1167 1 68.4562 73.6027 0
1168 1 12.4524 70.0776 0
1169 1 53.2433 21.7863 0
1170 2 17.8494 65.779 0
1171 1 7.00751 17.1076 0
1172 1 75.5138 58.6612 0
1173 1 67.4197 12.6112 0
1174 1 26.1728 21.3226 0
1175 2 71.0132 28.8149 0
1176 1 53.6321 45.5567 0
1177 1 25.5582 20.5134 0
1178 2 16.749 5.32095 0
1179 1 38.3483 26.8091 0
1180 1 34.5817 45.9388 0
1181 1 17.2631 30.3973 0
1182 1 61.2506 34.2494 0
1183 2 38.4726 5.17472 0
1184 2 10.1198 50.2545 0
1185 1 53.996 31.4669 0
1186 1 53.0341 22.7937 0
1187 1 61.0597 12.7243 0
1188 2 31.2987 16.9201 0
1189 1 45.0107 61.712 0
1190 1 39.4173 70.948 0
1191 2 11.3959 32.7759 0
1192 1 9.01988 69.5029 0
1193 1 54.214 12.1056 0
1194 2 50.1454 67.1972 0
1195 1 50.4064 59.3254 0
1196 1 40.12 70.2234 0
1197 1 63.4664 38.4062 0
1198 1 19.5412 52.3504 0
1199 2 59.3281 34.3196 0
1200 1 1.06892 17.3351 0
1201 1 69.5664 8.03518 0
1202 1 17.5903 4.83102 0
1203 2 1.34635 15.1164 0
1204 1 25.8344 25.0052 0
1205 1 36.3658 76.2968 0
1206 1 72.759 52.3293 0
1207 1 42.3557 37.6059 0
1208 1 58.0606 64.626 0
1209 2 30.8342 65.4234 0
1210 1 19.8111 72.4525 0
1211 2 72.0398 36.6404 0
1212 1 30.6455 28.9506 0
1213 1 36.4278 12.5283 0
1214 1 39.4723 49.2108 0
1215 1 44.8695 16.958 0
1216 1 22.0596 42.7236 0
1217 2 37.2816 12.4153 0
1218 2 42.0575 46.7901 0
1219 1 38.7499 68.4127 0
1220 1 66.1518 76.7125 0
1221 1 68.3886 64.7229 0
1222 2 53.6744 75.8971 0
1223 1 42.1117 3.98707 0
1224 1 27.4132 3.45478 0
1225 1 46.3686 53.1019 0
1226 2 48.8803 61.9962 0
1227 1 36.5855 27.79 0
1228 1 44.6282 9.90476 0
1229 2 69.4139 5.05687 0
1230 1 30.2534 3.2396 0
1231 2 4.64962 62.7937 0
1232 1 76.2794 50.1247 0
1233 1 75.148 74.6928 0
1234 1 8.924 56.7962 0
1235 1 30.4583 16.8521 0
1236 1 8.3075 27.1844 0
1237 1 65.5733 7.31018 0
1238 1 51.7888 70.9502 0
1239 1 22.752 28.943 0
1240 1 38.4742 17.1894 0
1241 1 44.4631 67.732 0
1242 1 60.5545 30.9971 0