ITEM: TIMESTEP
0
ITEM: NUMBER OF ATOMS
7200
ITEM: BOX BOUNDS xy xz yz pp pp pp
0.0000000000000000e+00 7.7459666924100006e+01 0.0000000000000000e+00
0.0000000000000000e+00 7.7459666924100006e+01 0.0000000000000000e+00
-1.2909944490000000e-01 1.2909944490000000e-01 0.0000000000000000e+00
ITEM: ATOMS id type x y z
1 1 17.576 25.2034 0
2 1 16.7645 61.8719 0
3 1 54.9726 55.8522 0
4 1 73.8877 71.4827 0
5 1 24.3858 70.2419 0
6 1 74.9603 9.08085 0
7 2 16.747 26.5211 0
8 2 52.4195 42.9988 0
9 1 29.9805 73.434 0
10 2 6.20745 72.0577 0
11 2 55.9633 61.634 0
12 1 60.7004 14.0391 0
13 2 43.9256 43.8076 0
14 1 31.5777 55.8886 0
15 1 9.71374 28.7645 0
16 1 35.65 32.1681 0
17 1 5.28622 5.01631 0
18 1 0.522541 63.3252 0
19 1 55.915 63.2918 0
20 2 4.82275 36.805 0
21 1 67.8823 6.13528 0
22 1 50.5552 75.8126 0
23 1 37.1983 62.15 0
24 1 18.953 37.2111 0
25 1 47.9358 1.82134 0
26 1 37.9042 1.81784 0
27 2 72.0258 37.9821 0
28 1 49.2618 56.8882 0
29 2 30.4172 35.2001 0
30 2 5.98343 42.1208 0
31 1 22.4668 35.9687 0
32 1 36.3409 40.003 0
33 1 74.3011 41.7567 0
34 2 57.1203 7.83657 0
35 1 43.4066 59.0921 0
36 1 46.6914 12.9858 0
37 1 23.3822 64.0833 0
38 1 59.0294 76.5903 0
39 1 37.9516 19.782 0
40 2 62.1682 64.5628 0
41 2 28.3324 61.1654 0
42 1 31.5817 8.65295 0
43 1 71.0579 0.045453 0
44 1 54.7441 7.58264 0
45 1 56.0278 74.9096 0
46 1 69.4128 18.828 0
47 1 7.7232 23.1736 0
48 1 26.5 12.5796 0
49 2 62.1999 48.126 0
50 1 0.038086 38.4551 0
51 1 74.7786 65.7739 0
52 2 44.8716 67.1186 0
53 1 42.6997 3.48039 0
54 1 41.419 35.7776 0
55 1 70.047 72.3165 0
56 1 43.7011 77.4047 0
57 1 46.1156 5.12326 0
58 1 41.8242 54.5427 0
59 1 15.8082 62.3972 0
60 1 27.1022 16.9697 0
61 1 14.0068 45.0628 0
62 1 41.2526 34.1363 0
63 1 74.3144 67.431 0
64 1 26.4259 51.2412 0
65 1 66.494 55.3573 0
66 2 71.8287 36.7858 0
67 2 75.8335 30.634 0
68 2 49.9864 64.6779 0
69 1 2.04297 6.77036 0
70 1 37.0884 26.6885 0
71 2 27.7581 32.5968 0
72 1 42.2553 13.6762 0
73 1 65.6857 54.6927 0
74 2 45.9583 41.5757 0
75 1 23.6616 66.8832 0
76 1 49.7777 0.571423 0
77 1 18.6257 65.2277 0
78 1 77.0666 3.23076 0
79 1 50.2674 52.4568 0
80 1 0.442005 5.79618 0
81 1 47.1776 75.2118 0
82 2 62.6349 77.2433 0
83 1 26.0856 58.1871 0
84 1 69.5913 62.9456 0
85 1 11.2814 28.3474 0
86 2 12.9091 2.2611 0
87 1 26.5774 22.3565 0
88 1 40.8943 0.36875 0
89 1 17.2836 28.7996 0
90 1 3.05976 1.70918 0
91 2 45.1384 13.5396 0
92 2 34.4821 50.5417 0
93 1 19.0757 70.6784 0
94 1 45.9107 60.2214 0
95 2 59.73 4.19285 0
96 1 57.1092 73.4773 0
97 1 8.46799 68.1468 0
98 2 67.5675 42.3448 0
99 1 68.4164 25.5926 0
100 2 68.4472 16.5046 0
101 1 9.52667 41.9598 0
102 1 68.0451 32.0359 0
103 1 26.4422 55.8118 0
104 1 27.0351 26.7298 0
105 2 41.3369 66.8633 0
106 2 38.0223 23.7984 0
107 1 47.7687 5.07656 0
108 1 68.3175 27.4883 0
109 1 15.0979 12.8606 0
110 2 24.6396 43.3932 0
111 1 74.9288 46.8367 0
112 1 6.13238 50.6239 0
113 2 28.2265 11.4695 0
114 2 66.5369 29.9667 0
115 2 74.5031 6.05032 0
116 2 54.7432 25.2218 0
117 1 73.3605 68.7392 0
118 2 37.9694 9.55021 0
119 1 58.3756 56.8057 0
120 2 5.33226 10.2576 0
121 1 43.6626 48.242 0
122 1 22.1842 54.9327 0
123 2 18.4217 49.1784 0
124 1 29.3936 56.6402 0
125 1 2.69292 67.2783 0
126 1 44.3804 48.9777 0
127 1 60.2276 1.44391 0
128 1 60.5064 11.3526 0
129 1 17.3782 67.3715 0
130 1 2.50141 17.0029 0
131 1 69.5874 31.3716 0
132 2 45.3672 1.00936 0
133 2 23.8637 14.7248 0
134 1 34.4053 54.1824 0
135 1 66.8478 8.8823 0
136 2 12.4254 71.72 0
137 1 19.8805 68.6387 0
138 2 64.4071 10.6305 0
139 1 39.4832 57.0362 0
140 1 70.6077 38.3054 0
141 2 67.0541 51.9969 0
142 1 59.5576 16.4508 0
143 2 53.5797 49.3003 0
144 2 29.3521 10.0863 0
145 2 63.4664 68.6992 0
146 1 51.6364 43.865 0
147 1 14.4029 46.3593 0
148 1 36.1057 56.7132 0
149 2 59.2189 12.9947 0
150 1 57.5031 51.3424 0
151 2 43.5228 24.0048 0
152 1 57.3993 11.7271 0
153 2 44.0438 47.5229 0
154 2 29.6349 65.6076 0
155 1 4.0238 10.7282 0
156 1 67.8277 31.0341 0
157 1 20.1379 43.271 0
158 1 30.9538 54.3281 0
159 2 0.298584 28.6128 0
160 1 51.7556 34.3151 0
161 1 31.8185 56.9635 0
162 2 51.8501 51.9902 0
163 1 52.6021 62.4265 0
164 1 74.4831 19.684 0
165 1 63.8729 19.6266 0
166 1 42.0412 36.6116 0
167 1 56.7797 77.068 0
168 1 40.1218 25.1878 0
169 1 65.9159 47.8183 0
170 1 56.966 9.15243 0
171 2 64.6095 29.8787 0
172 2 17.0323 16.9652 0
173 2 8.30078 35.0256 0
174 2 26.1617 11.7405 0
175 2 23.4767 37.324 0
176 1 18.2665 71.3827 0
177 1 38.0082 5.30858 0
178 1 26.4304 6.08397 0
179 1 6.27084 56.2476 0
180 2 50.5595 32.9229 0
181 1 16.9444 35.6339 0
182 1 71.5321 55.0212 0
183 2 38.1234 76.8351 0
184 1 5.77391 72.756 0
185 2 44.8479 28.2024 0
186 1 2.20509 20.5459 0
187 1 65.7744 27.1571 0
188 1 70.6515 41.2942 0
189 2 29.151 18.8483 0
190 1 66.0788 10.4877 0
191 1 38.8047 70.2036 0
192 1 6.25747 13.5448 0
193 2 45.2905 65.2203 0
194 2 22.4396 74.9315 0
195 1 77.1221 37.0221 0
196 2 7.99858 14.5246 0
197 2 23.7208 69.5974 0
198 1 20.2864 19.0845 0
199 2 48.4681 41.0904 0
200 1 47.357 34.8642 0
201 2 19.2039 56.3076 0
202 2 77.365 26.9442 0
203 1 46.908 32.2065 0
204 1 20.5591 44.3778 0
205 1 65.2817 50.4912 0
206 2 55.3361 15.3806 0
207 2 34.793 52.2101 0
208 1 69.1754 28.1946 0
209 1 75.501 26.8914 0
210 2 18.6108 60.0683 0
211 1 65.2209 12.8274 0
212 2 0.242799 74.2694 0
213 2 60.6756 3.41239 0
214 1 4.21104 47.4864 0
215 2 47.1224 19.749 0
216 1 66.2253 13.0221 0
217 1 28.7336 49.3192 0
218 2 59.8877 77.0176 0
219 2 59.3304 64.2331 0
220 2 41.5775 45.4182 0
221 1 2.86548 35.1333 0
222 1 74.3321 18.6515 0
223 2 34.7556 8.27312 0
224 2 30.8597 50.0462 0
225 1 41.2395 24.8273 0
226 2 73.1923 49.7086 0
227 2 3.45244 69.6291 0
228 1 4.56766 5.95706 0
229 1 73.4444 7.49213 0
230 1 48.1013 55.0304 0
231 1 25.149 13.482 0
232 1 35.285 47.2931 0
233 1 33.016 14.457 0
234 1 59.8516 3.31701 0
235 1 52.1012 3.86609 0
236 2 66.2128 68.1469 0
237 1 60.7649 7.79181 0
238 2 30.4743 22.2682 0
239 1 32.9948 3.25901 0
240 2 23.8833 54.3131 0
241 1 67.983 18.5642 0
242 1 4.89797 2.187 0
243 1 10.7863 0.291746 0
244 1 45.6848 50.0195 0
245 1 7.89948 38.2068 0
246 1 1.56955 5.80639 0
247 1 51.061 5.30371 0
248 1 22.2668 53.11 0
249 2 4.25829 42.41 0
250 1 11.8122 45.2252 0
251 2 43.5281 49.0602 0
252 2 49.3647 9.42422 0
253 1 61.8241 62.8097 0
254 1 11.565 30.0629 0
255 1 53.1064 11.2197 0
256 1 57.9644 27.9537 0
257 1 66.7996 66.445 0
258 1 25.2852 11.4005 0
259 1 18.9948 30.7368 0
260 2 4.14747 1.61984 0
261 2 5.33444 70.9991 0
262 1 8.40811 21.1834 0
263 2 33.6592 42.133 0
264 2 52.3235 53.5666 0
265 1 14.7873 27.9743 0
266 1 43.0057 66.1814 0
267 2 37.9453 26.3652 0
268 2 62.3671 3.48209 0
269 1 76.8193 11.5896 0
270 2 60.421 70.9234 0
271 2 59.5141 67.3291 0
272 2 1.20838 52.4893 0
273 1 65.8515 12.0651 0
274 1 51.8536 60.2911 0
275 1 47.3033 68.1693 0
276 1 12.3779 44.3802 0
277 2 31.439 2.14891 0
278 1 16.9197 29.9316 0
279 1 51.3804 22.5996 0
280 1 14.9417 15.6993 0
281 1 44.6662 0.442664 0
282 2 52.9738 6.85798 0
283 1 11.3456 62.4518 0
284 2 2.36705 25.3606 0
285 1 1.9644 64.3809 0
286 1 50.3422 7.14544 0
287 1 25.3959 43.868 0
288 2 69.2992 0.492317 0
289 2 26.8555 32.8666 0
290 2 30.4167 46.0166 0
291 1 2.73787 74.9856 0
292 1 26.4122 33.5781 0
293 1 66.8245 3.08108 0
294 1 9.1151 31.5917 0
295 1 44.4223 55.4836 0
296 2 42.2923 0.106728 0
297 1 67.6024 65.7833 0
298 1 47.0393 55.1157 0
299 2 75.84 43.7086 0
300 1 51.1574 3.63888 0
301 1 68.792 66.4472 0
302 1 15.896 65.6095 0
303 1 71.1198 47.5473 0
304 1 48.4852 24.6191 0
305 2 36.161 73.4512 0
306 1 14.5665 70.9991 0
307 2 66.4055 65.6428 0
308 1 17.5112 65.6247 0
309 2 22.9452 50.5898 0
310 2 52.4568 58.1643 0
311 1 52.8535 14.8994 0
312 1 53.3294 3.70792 0
313 1 68.6193 76.3362 0
314 1 16.5024 54.97 0
315 2 8.85611 26.9351 0
316 2 72.1321 34.305 0
317 1 41.4408 67.6713 0
318 2 76.1489 28.7638 0
319 1 43.9059 56.362 0
320 1 60.4952 20.7222 0
321 1 65.4976 74.1875 0
322 2 44.2276 41.3246 0
323 2 34.9518 65.9051 0
324 1 75.2704 59.0966 0
325 1 52.783 10.0691 0
326 1 34.9965 63.0762 0
327 1 2.62428 57.4224 0
328 1 49.8992 74.1305 0
329 1 9.51845 30.5142 0
330 2 62.0183 1.16013 0
331 2 68.4448 35.604 0
332 1 18.657 26.4256 0
333 1 60.6204 31.6268 0
334 1 73.059 74.9705 0
335 1 69.0689 19.829 0
336 2 70.0167 57.8556 0
337 1 12.9826 58.7749 0
338 2 19.206 15.5429 0
339 1 63.6099 18.6659 0
340 1 62.1485 55.1131 0
341 2 60.581 32.5601 0
342 1 35.6041 20.4099 0
343 2 47.7029 4.24649 0
344 2 60.7496 17.8437 0
345 1 40.882 28.2563 0
346 1 2.11179 24.4673 0
347 1 2.546 69.9345 0
348 1 20.9879 23.1151 0
349 1 40.5676 61.0931 0
350 1 40.3244 6.56995 0
351 1 36.4876 48.3473 0
352 1 69.0775 24.6781 0
353 1 16.1041 2.26288 0
354 2 35.5169 72.245 0
355 2 60.4495 74.5341 0
356 2 23.1147 9.53862 0
357 1 40.1831 49.3399 0
358 1 77.1817 51.3325 0
359 1 68.9374 45.923 0
360 2 14.9445 24.4299 0
361 2 35.4779 64.7463 0
362 1 30.6712 9.13292 0
363 2 63.8683 48.3878 0
364 1 5.29672 73.8533 0
365 2 62.2388 74.1252 0
366 1 0.13203 29.77 0
367 2 42.5589 5.29558 0
368 2 28.9758 21.4886 0
369 2 0.28378 62.4977 0
370 1 29.3009 7.39164 0
371 1 47.9641 70.7443 0
372 2 66.5684 54.4353 0
373 1 12.4787 9.68033 0
374 2 27.2712 43.8953 0
375 1 65.5386 48.7463 0
376 2 11.1144 42.4343 0
377 2 10.2077 58.303 0
378 1 6.05352 54.0835 0
379 1 67.0637 68.4914 0
380 1 13.0151 42.4555 0
381 1 19.6095 20.6895 0
382 1 75.2806 63.6502 0
383 1 64.7275 20.1886 0
384 1 44.4875 9.64543 0
385 1 30.6558 42.2352 0
386 1 27.3787 8.15719 0
387 1 52.6868 68.1156 0
388 2 72.7569 10.3896 0
389 1 58.3092 37.466 0
390 1 28.911 31.034 0
391 2 53.5916 29.1458 0
392 2 31.0542 17.6031 0
393 2 61.588 16.469 0
394 1 30.4611 10.2178 0
395 1 31.9308 20.7779 0
396 1 36.669 63.0525 0
397 1 36.2177 47.3275 0
398 1 24.0166 32.039 0
399 1 2.57215 50.9121 0
400 1 45.6517 28.741 0
401 1 9.9652 21.6872 0
402 2 66.7962 15.5457 0
403 1 40.9374 23.7673 0
404 1 17.0705 75.9388 0
405 2 36.353 62.2648 0
406 1 56.0184 52.516 0
407 2 51.5751 0.412762 0
408 1 10.8731 60.7764 0
409 1 27.2241 9.9301 0
410 2 54.8467 50.3228 0
411 2 54.8853 26.845 0
412 1 50.7783 36.9571 0
413 1 27.0552 57.9062 0
414 1 2.05836 34.502 0
415 1 50.4418 24.15 0
416 2 69.7834 34.5614 0
417 2 25.4078 48.0787 0
418 1 24.9862 34.8213 0
419 2 9.0449 60.1729 0
420 2 67.9332 53.0852 0
421 1 45.3556 29.8596 0
422 1 17.3018 60.182 0
423 1 61.7959 2.01166 0
424 1 41.7906 6.74348 0
425 1 46.5506 7.68669 0
426 1 42.2402 65.184 0
427 2 67.1818 19.0744 0
428 1 62.3351 28.1541 0
429 1 0.277741 69.6437 0
430 1 60.99 22.3565 0
431 1 4.85891 1.14005 0
432 1 17.3368 47.7034 0
433 1 33.5107 54.7321 0
434 1 51.7847 41.5014 0
435 1 47.1956 47.9494 0
436 2 57.158 62.9347 0
437 2 6.1228 22.3894 0
438 1 70.1083 49.6266 0
439 2 6.05672 57.0531 0
440 1 34.4878 61.6569 0
441 2 2.06359 72.8005 0
442 1 25.4366 15.0789 0
443 1 20.6502 0.352019 0
444 1 23.969 75.4729 0
445 2 54.1021 42.4844 0
446 1 47.3904 6.99277 0
447 1 49.0312 2.10775 0
448 1 57.3806 32.4384 0
449 1 27.7471 19.9304 0
450 2 56.5808 47.9161 0
451 2 40.8291 76.9228 0
452 1 76.1537 39.5322 0
453 1 27.023 37.0092 0
454 2 73.3793 13.0377 0
455 2 74.1268 16.2725 0
456 1 44.2279 60.9405 0
457 2 39.5755 24.5398 0
458 1 67.5641 9.71942 0
459 2 63.9079 20.4802 0
460 1 54.0716 21.7234 0
461 2 20.233 69.3845 0
462 1 48.8005 15.3679 0
463 1 62.7964 23.0725 0
464 1 52.5928 42.1309 0
465 2 76.1263 26.2499 0
466 1 13.6548 47.1939 0
467 2 42.6294 21.8513 0
468 1 55.6561 26.5394 0
469 1 53.9174 28.4145 0
470 1 39.5661 60.6428 0
471 2 7.50648 66.7839 0
472 1 42.3814 22.7874 0
473 1 67.7027 60.1828 0
474 1 0.0354148 70.7856 0
475 1 0.867592 65.2158 0
476 2 26.3499 57.4345 0
477 1 7.28983 29.8505 0
478 2 68.8028 48.4459 0
479 1 69.6934 22.9006 0
480 1 77.158 15.9536 0
481 1 6.52038 19.168 0
482 1 1.11011 20.6051 0
483 2 36.4251 17.3767 0
484 1 31.7061 18.1006 0
485 1 46.0947 53.6642 0
486 1 76.44 45.4657 0
487 2 11.4148 13.2275 0
488 1 13.2197 12.5023 0
489 1 23.8973 19.7711 0
490 1 51.0335 68.4121 0
491 1 48.8183 54.2101 0
492 2 51.4087 4.44733 0
493 1 48.3555 14.4677 0
494 1 52.4079 29.4608 0
495 2 31.2159 20.3214 0
496 2 51.3266 11.4119 0
497 2 54.6981 28.2189 0
498 1 13.817 11.5929 0
499 1 20.2343 12.5734 0
500 1 62.6733 0.606531 0
501 2 74.9858 61.3537 0
502 1 32.3856 57.7576 0
503 1 31.9698 54.1325 0
504 1 18.584 8.96052 0
505 2 72.5314 72.3206 0
506 2 1.02741 49.4358 0
507 1 13.844 0.216869 0
508 1 9.86881 47.4784 0
509 1 8.83415 57.1642 0
510 1 14.2183 32.993 0
511 1 35.2035 7.39009 0
512 1 71.3246 37.5405 0
513 1 14.2183 40.5775 0
514 1 54.7298 15.9264 0
515 2 11.1304 75.3583 0
516 2 4.23243 50.5637 0
517 2 15.0388 21.0054 0
518 2 21.0764 75.8502 0
519 2 60.1615 22.8753 0
520 1 69.6205 48.634 0
521 1 31.1331 68.1973 0
522 2 22.0697 73.2328 0
523 1 13.3977 32.335 0
524 1 41.6443 9.04958 0
525 1 6.90586 48.0696 0
526 2 65.6395 41.6121 0
527 1 69.0994 9.06786 0
528 2 15.4969 13.6493 0
529 2 4.97328 2.98196 0
530 1 3.67844 65.0233 0
531 2 27.6319 7.32118 0
532 2 16.0023 61.5906 0
533 1 0.809553 43.3331 0
534 1 49.5663 48.2643 0
535 1 10.758 22.2773 0
536 1 19.9266 71.2437 0
537 1 26.2841 72.5391 0
538 2 27.171 62.0419 0
539 2 59.9543 58.3941 0
540 1 44.5675 15.5784 0
541 2 53.6782 14.6373 0
542 1 70.0775 27.1248 0
543 2 24.5388 76.136 0
544 2 10.2285 18.5853 0
545 1 49.8715 38.4445 0
546 1 53.5325 16.6724 0
547 1 23.5102 6.1364 0
548 2 2.70039 56.5519 0
549 2 69.0089 23.5574 0
550 2 62.7428 55.7138 0
551 1 28.3893 22.1205 0
552 2 21.619 14.1512 0
553 2 46.7142 58.4543 0
554 1 2.8448 33.8974 0
555 1 23.7657 61.5916 0
556 1 45.9243 56.702 0
557 1 29.9192 75.1679 0
558 1 74.2561 13.4523 0
559 1 72.1292 11.2428 0
560 2 64.8942 48.1161 0
561 1 45.1406 71.3252 0
562 2 44.3549 8.77949 0
563 2 0.995211 32.9893 0
564 1 29.2759 14.5158 0
565 2 26.0214 13.2385 0
566 2 46.6421 0.180733 0
567 1 73.5361 10.1148 0
568 2 60.2653 38.6465 0
569 2 70.9049 43.2075 0
570 1 37.8437 30.5451 0
571 1 17.7808 39.607 0
572 2 63.7997 74.7707 0
573 2 70.9791 51.4379 0
574 1 12.194 30.9199 0
575 1 24.6607 14.393 0
576 1 40.734 22.3356 0
577 1 43.0855 44.1426 0
578 2 59.3385 18.2823 0
579 2 57.149 27.6942 0
580 1 13.8533 72.9296 0
581 1 72.5931 2.20196 0
582 2 55.6534 7.71923 0
583 2 23.6948 45.1082 0
584 2 58.6862 28.3652 0
585 1 75.8484 24.4357 0
586 1 72.3203 22.7514 0
587 2 62.9882 27.5395 0
588 1 43.5198 63.9021 0
589 2 50.2592 51.5368 0
590 1 13.1041 18.6481 0
591 1 4.75966 63.7098 0
592 1 31.6355 29.3747 0
593 1 11.6606 64.7703 0
594 1 30.7529 26.8879 0
595 1 8.11789 52.3902 0
596 2 49.891 35.3912 0
597 1 42.304 57.3348 0
598 1 7.11728 3.97356 0
599 1 17.0154 15.568 0
600 1 67.3591 54.8139 0
601 2 12.1977 45.9753 0
602 1 53.7201 46.851 0
603 2 1.30528 26.3307 0
604 2 6.33588 48.9818 0
605 1 23.3887 0.80841 0
606 1 60.2808 15.6039 0
607 1 17.9391 30.5036 0
608 2 5.82119 0.929827 0
609 2 20.6879 10.0796 0
610 1 58.1077 30.9357 0
611 1 74.1089 0.0190704 0
612 1 21.4568 59.2078 0
613 1 73.5707 54.0674 0
614 2 45.3573 76.8824 0
615 1 36.4399 76.0203 0
616 1 57.695 14.8385 0
617 1 20.2856 37.8014 0
618 2 17.1203 23.3095 0
619 2 26.1719 52.0356 0
620 2 66.0676 40.0033 0
621 2 68.3618 14.9571 0
622 1 49.4719 22.5438 0
623 1 34.2812 14.4741 0
624 2 69.3757 46.758 0
625 1 7.51038 37.0186 0
626 1 38.5892 3.43868 0
627 2 17.5706 42.3449 0
628 1 39.6218 26.8205 0
629 2 26.2428 65.063 0
630 1 25.4519 50.0324 0
631 1 52.2267 9.27124 0
632 1 19.6046 11.6071 0
633 2 32.5528 75.1683 0
634 1 32.0985 51.0622 0
635 2 18.7103 44.6351 0
636 2 53.6814 1.24508 0
637 1 10.4654 75.9398 0
638 1 15.6893 46.2237 0
639 1 6.77662 38.6562 0
640 1 2.81708 55.7161 0
641 1 11.6602 24.097 0
642 1 53.132 38.3844 0
643 1 36.9405 16.6063 0
644 2 42.0939 76.0753 0
645 1 50.0906 16.6081 0
646 1 34.7047 64.1048 0
647 2 9.88453 66.5075 0
648 1 37.8341 52.7289 0
649 2 6.90821 53.7095 0
650 2 19.7451 54.0275 0
651 1 10.4459 63.531 0
652 1 4.16738 6.93551 0
653 2 50.1806 5.29149 0
654 2 20.9698 1.83706 0
655 1 39.4157 8.38605 0
656 1 51.5034 76.7569 0
657 1 72.5589 20.7154 0
658 1 4.44785 44.2178 0
659 2 67.106 57.2801 0
660 1 67.5013 14.9088 0
661 1 12.3477 13.2695 0
662 1 29.9549 43.7378 0
663 1 72.4095 56.8849 0
664 1 55.2406 9.55648 0
665 2 23.5648 10.7203 0
666 2 23.0527 33.5294 0
667 1 34.2997 75.7394 0
668 2 63.6525 71.6437 0
669 1 47.6185 63.496 0
670 2 34.6729 56.5919 0
671 2 2.83662 22.3453 0
672 1 28.1212 12.2946 0
673 1 15.9475 3.99658 0
674 1 35.7009 29.2255 0
675 2 9.44085 48.2485 0
676 2 5.8019 12.6765 0
677 1 47.5184 9.65414 0
678 1 49.6855 53.4133 0
679 1 63.5886 50.9383 0
680 1 19.8021 72.1926 0
681 1 76.457 46.5025 0
682 1 47.8306 41.8437 0
683 1 10.3957 23.2179 0
684 1 70.1609 9.29908 0
685 2 30.8018 58.714 0
686 1 50.3868 11.4377 0
687 1 56.4374 8.29881 0
688 2 50.8571 69.9231 0
689 1 41.1154 40.2453 0
690 1 4.46512 13.9027 0
691 1 50.9225 26.9663 0
692 2 63.1039 44.66 0
693 1 63.8822 73.9658 0
694 2 43.626 60.3386 0
695 1 31.1056 34.7886 0
696 2 47.7507 66.4538 0
697 1 7.29084 65.026 0
698 1 68.2395 37.2164 0
699 1 48.5008 48.1266 0
700 1 28.4665 33.1403 0
701 1 68.4229 0.753614 0
702 1 75.4592 47.8436 0
703 2 7.06171 31.7497 0
704 2 24.2658 13.6501 0
705 2 66.3734 37.485 0
706 1 62.1025 30.0838 0
707 2 11.3525 19.4386 0
708 1 67.0432 35.5344 0
709 1 71.5464 12.6782 0
710 2 69.6945 38.4949 0
711 1 18.5225 47.8623 0
712 2 8.34041 67.3241 0
713 2 18.5427 6.30335 0
714 2 16.8692 57.9558 0
715 1 9.05711 70.7369 0
716 1 63.6891 69.4892 0
717 1 55.1481 0.0247315 0
718 1 54.8696 5.875 0
719 1 49.2934 62.9447 0
720 2 21.0603 29.0179 0
721 2 61.4064 39.0136 0
722 1 4.63848 21.7619 0
723 2 47.1359 1.67306 0
724 2 15.5938 55.342 0
725 1 66.5277 63.8511 0
726 1 22.0756 66.4706 0
727 2 32.0722 33.071 0
728 1 20.7311 49.1233 0
729 2 64.4832 22.371 0
730 1 41.1748 10.8472 0
731 2 13.6982 45.8044 0
732 1 10.2121 64.5256 0
733 1 70.3847 15.0916 0
734 2 26.577 38.449 0
735 1 23.6099 8.84738 0
736 1 43.2598 29.7974 0
737 2 71.1994 14.6362 0
738 1 75.0248 30.595 0
739 1 24.6898 20.6581 0
740 1 57.4378 69.3806 0
741 2 38.7693 36.9076 0
742 1 73.16 67.663 0
743 1 45.0387 14.3305 0
744 2 39.6569 43.1686 0
745 1 52.8671 1.88167 0
746 1 29.9681 54.0619 0
747 1 17.0438 2.78784 0
748 2 37.3022 75.7321 0
749 2 56.5662 12.0463 0
750 1 28.3473 39.607 0
751 1 59.6318 24.7426 0
752 2 3.05287 20.5488 0
753 1 33.43 75.1953 0
754 2 74.0807 68.2046 0
755 1 16.2128 36.4107 0
756 2 56.8941 55.8103 0
757 1 9.45901 19.0421 0
758 1 3.47329 15.7071 0
759 1 11.7897 31.9374 0
760 1 46.8814 5.99459 0
761 1 18.5787 67.3806 0
762 1 40.0815 16.7173 0
763 2 63.7924 33.9055 0
764 1 17.3698 62.8038 0
765 2 17.4398 4.76856 0
766 1 12.0248 46.8106 0
767 1 23.8239 27.2155 0
768 1 60.942 38.2245 0
769 1 70.2115 28.0855 0
770 2 16.5493 8.73911 0
771 1 21.8623 39.3532 0
772 1 68.7899 2.38534 0
773 1 36.1061 1.80247 0
774 2 53.5128 40.4158 0
775 1 30.5033 23.1099 0
776 2 68.3084 1.68611 0
777 1 13.5086 68.6401 0
778 2 74.8719 27.9305 0
779 1 1.8016 4.67604 0
780 1 64.4341 76.8556 0
781 1 58.5958 16.327 0
782 1 31.5802 69.2223 0
783 1 46.2339 33.1698 0
784 1 70.9434 50.5117 0
785 2 3.10372 40.0036 0
786 1 58.4945 11.1733 0
787 1 14.6043 60.2574 0
788 1 17.9359 37.1843 0
789 1 72.0646 74.8042 0
790 1 13.546 36.7711 0
791 1 49.9609 1.8585 0
792 1 76.286 66.8198 0
793 1 77.4173 14.2179 0
794 2 74.36 9.89558 0
795 2 51.1575 21.6416 0
796 2 74.5563 45.9905 0
797 1 50.3262 56.2913 0
798 1 33.7618 49.6985 0
799 1 48.2955 43.4842 0
800 1 35.8736 6.61188 0
801 2 53.8314 11.6062 0
802 2 54.5434 6.66805 0
803 2 51.7705 5.88793 0
804 2 52.8823 74.602 0
805 1 21.5806 75.0871 0
806 1 54.8868 48.1017 0
807 2 32.2471 65.4459 0
808 1 55.6998 18.6374 0
809 2 48.3869 30.1555 0
810 1 36.2012 42.8914 0
811 1 69.2255 10.6733 0
812 2 37.037 61.3066 0
813 2 32.7981 48.3107 0
814 1 2.92272 76.3434 0
815 2 1.14138 62.7618 0
816 1 27.1374 50.4077 0
817 1 34.5657 10.7777 0
818 2 54.06 71.4003 0
819 2 28.6346 57.0121 0
820 1 48.9155 75.9639 0
821 1 18.0582 4.18105 0
822 1 19.224 73.9861 0
823 1 10.0074 49.9958 0
824 2 46.1752 69.3663 0
825 1 76.9696 26.1112 0
826 1 30.1398 66.3021 0
827 1 30.2179 49.2395 0
828 1 74.9897 34.0973 0
829 1 6.46468 36.7609 0
830 2 34.802 32.5499 0
831 2 44.6605 42.1832 0
832 1 8.56706 2.50716 0
833 1 8.15362 54.6949 0
834 2 53.0707 50.7441 0
835 1 67.9837 67.9967 0
836 1 29.7627 27.2838 0
837 1 27.3387 59.3888 0
838 1 40.4622 67.154 0
839 1 5.90273 18.3266 0
840 2 16.8085 24.6708 0
841 1 0.154033 12.2632 0
842 2 27.2228 14.4057 0
843 1 15.0392 17.0706 0
844 1 43.8154 6.69306 0
845 2 76.9102 69.9663 0
846 1 32.9843 36.641 0
847 1 56.5574 6.24488 0
848 2 63.6456 2.77841 0
849 1 33.4865 20.3921 0
850 1 47.4307 39.4909 0
851 1 64.2826 8.60731 0
852 1 21.6707 34.9714 0
853 1 4.2284 57.8533 0
854 1 20.3343 1.28088 0
855 1 9.06937 7.89971 0
856 2 38.6258 53.0618 0
857 1 64.3076 1.08472 0
858 2 58.467 27.1965 0
859 1 63.1855 45.4716 0
860 2 5.15714 44.6258 0
861 2 51.0317 26.0913 0
862 2 19.365 1.37264 0
863 1 55.5203 50.7926 0
864 1 48.5273 9.70826 0
865 2 44.6835 34.9652 0
866 1 22.8283 10.3535 0
867 2 46.2005 29.3831 0
868 1 29.6304 35.4058 0
869 1 24.3544 58.8196 0
870 1 3.65343 46.6838 0
871 1 44.4062 73.5027 0
872 1 49.4001 11.4114 0
873 1 18.5734 1.11828 0
874 1 0.371478 66.2166 0
875 1 37.8092 8.7483 0
876 2 25.1168 2.78156 0
877 1 60.7609 72.6739 0
878 2 9.491 71.4777 0
879 1 15.975 40.9666 0
880 2 13.1745 77.1131 0
881 2 4.62476 67.9327 0
882 2 58.9815 65.9643 0
883 1 14.0205 30.3526 0
884 1 74.4177 76.4454 0
885 1 16.7292 19.5727 0
886 1 75.9747 49.1755 0
887 2 21.2473 66.2961 0
888 1 43.7119 3.16423 0
889 2 8.39049 53.1489 0
890 2 58.7272 72.7577 0
891 1 15.8192 26.5355 0
892 1 25.5386 17.6042 0
893 1 41.5517 55.5243 0
894 1 15.0886 74.5488 0
895 2 38.8401 22.3552 0
896 1 1.67857 10.5765 0
897 2 44.2733 64.4961 0
898 1 12.4457 39.7714 0
899 1 58.468 64.3571 0
900 2 42.7285 28.0501 0
901 1 16.0105 15.531 0
902 1 51.272 31.2818 0
903 1 47.0274 16.5071 0
904 2 70.4472 23.2836 0
905 1 19.2753 38.8445 0
906 1 75.2321 38.9696 0
907 1 35.5945 24.5056 0
908 1 58.169 10.2082 0
909 1 40.555 5.44564 0
910 2 28.9259 30.146 0
911 2 70.7911 20.6794 0
912 2 44.1859 14.7481 0
913 2 40.6382 40.9465 0
914 1 69.474 61.1502 0
915 2 56.6494 13.629 0
916 1 40.8718 69.5855 0
917 2 71.489 64.927 0
918 2 42.055 33.89 0
919 1 75.3879 41.3288 0
920 1 55.1868 17.0093 0
921 1 41.6159 37.6093 0
922 2 42.8008 37.2202 0
923 2 2.74357 59.6139 0
924 1 24.4511 25.6847 0
925 1 39.8234 41.1866 0
926 2 47.6049 28.5567 0
927 1 2.7856 54.4964 0
928 1 65.0581 10.106 0
929 2 5.49285 27.6166 0
930 2 62.3363 25.0896 0
931 1 26.4984 7.20254 0
932 1 62.3299 16.9673 0
933 1 20.8337 3.7351 0
934 1 10.089 15.1457 0
935 1 71.8985 0.717713 0
936 2 50.4994 76.6667 0
937 1 35.2699 34.46 0
938 1 50.2141 13.7432 0
939 2 19.6582 62.2868 0
940 1 44.5919 40.579 0
941 1 65.5247 77.0397 0
942 1 11.4545 23.0935 0
943 2 59.1882 73.7467 0
944 2 6.02803 34.3071 0
945 1 8.00238 75.1163 0
946 1 28.979 73.7345 0
947 2 71.1677 7.60932 0
948 1 56.8444 48.729 0
949 1 21.8948 69.7527 0
950 2 74.2501 20.6979 0
951 1 46.0276 64.6563 0
952 2 22.3563 70.5275 0
953 2 42.44 74.5517 0
954 2 7.84061 59.5078 0
955 1 27.4456 6.41321 0
956 2 43.758 0.808098 0
957 1 45.4167 58.4559 0
958 2 13.0877 15.3031 0
959 2 31.9205 52.5329 0
960 2 25.7255 3.93548 0
961 1 21.7895 41.5848 0
962 1 75.2805 10.0947 0
963 1 6.37803 64.5579 0
964 2 18.089 47.1798 0
965 2 25.4938 54.3069 0
966 1 60.5285 4.17704 0
967 1 58.5407 55.7503 0
968 1 70.2159 10.3884 0
969 1 7.71332 43.2368 0
970 2 2.89062 28.6504 0
971 1 35.4941 22.8216 0
972 1 35.3539 52.8119 0
973 1 9.51542 50.9648 0
974 2 11.6759 43.9643 0
975 2 1.21238 64.0043 0
976 2 71.1465 35.6204 0
977 1 40.9892 16.1936 0
978 2 32.3516 10.1151 0
979 2 44.7533 39.7565 0
980 1 72.4538 32.3005 0
981 1 0.514943 61.0301 0
982 1 13.595 49.0974 0
983 1 6.53896 40.3938 0
984 1 58.5145 35.8232 0
985 1 24.7945 33.539 0
986 1 32.5212 28.8928 0
987 2 36.2686 55.8534 0
988 2 44.819 20.6043 0
989 2 61.5394 27.8196 0
990 2 15.7278 66.5875 0
991 2 22.4871 65.7514 0
992 1 63.9807 40.9643 0
993 2 38.4495 8.20704 0
994 2 51.7162 37.154 0
995 1 21.7445 13.2873 0
996 2 23.8829 0.0573397 0
997 2 9.71693 0.274709 0
998 2 1.19455 76.9448 0
999 2 41.1431 6.1989 0
1000 2 54.9042 21.2259 0
1001 1 58.616 44.7616 0
1002 1 60.4236 76.4093 0
1003 1 30.7916 19.5066 0
1004 1 58.8752 17.3672 0
1005 2 28.2111 50.1879 0
1006 2 46.6766 51.8075 0
1007 1 15.7613 48.613 0
1008 1 58.8356 8.25981 0
1009 1 71.1011 16.968 0
1010 1 23.5208 13.9642 0
1011 2 12.0169 25.9782 0
1012 2 53.977 8.01109 0
1013 2 43.0753 40.12 0
1014 1 55.5961 32.6224 0
1015 1 58.3766 6.58672 0
1016 1 30.7742 25.8027 0
1017 2 34.8987 24.8831 0
1018 1 64.9722 3.74397 0
1019 1 55.654 14.5449 0
1020 2 60.279 10.4583 0
1021 2 72.5751 31.4473 0
1022 1 73.3723 72.4299 0
1023 1 2.86755 14.2024 0
1024 1 38.5231 33.2883 0
1025 1 31.7223 58.6107 0
1026 1 35.7304 40.7921 0
1027 1 7.08499 32.5683 0
1028 1 73.2843 13.8581 0
1029 1 47.029 49.0144 0
1030 2 11.1979 34.8269 0
1031 2 52.4014 34.8869 0
1032 1 28.159 28.0023 0
1033 1 16.56 17.6543 0
1034 1 74.0329 52.4877 0
1035 1 33.0696 30.4222 0
1036 2 49.7635 71.5823 0
1037 1 44.6395 26.3893 0
1038 1 69.0053 13.3315 0
1039 1 68.9624 34.7206 0
1040 2 71.7978 2.62191 0
1041 1 7.51887 16.9639 0
1042 2 14.4525 77.1084 0
1043 2 21.8365 68.8494 0
1044 1 44.369 5.27585 0
1045 1 58.8204 51.9133 0
1046 1 25.4196 64.755 0
1047 2 9.23741 21.1012 0
1048 1 53.2288 55.1975 0
1049 1 77.3994 6.68668 0
1050 2 37.4403 44.2731 0
1051 1 57.0799 59.5504 0
1052 1 0.141393 20.1569 0
1053 2 39.4757 0.715997 0
1054 1 5.98775 10.7818 0
1055 2 19.7175 54.9625 0
1056 2 51.6703 16.3465 0
1057 1 7.68674 17.9939 0
1058 1 76.6489 43.2434 0
1059 1 20.899 57.4001 0
1060 2 52.8205 26.7872 0
1061 1 28.7586 75.7321 0
1062 2 11.0035 37.0707 0
1063 1 25.34 72.9832 0
1064 1 71.7465 30.0643 0
1065 2 63.8943 32.0993 0
1066 1 44.0063 75.7475 0
1067 1 60.5636 2.52997 0
1068 2 75.4333 53.5957 0
1069 1 27.7278 68.4559 0
1070 2 16.4661 47.8887 0
1071 2 11.767 15.7597 0
1072 2 19.4164 17.3042 0
1073 2 0.142338 71.613 0
1074 2 43.3906 32.7237 0
1075 1 32.7354 33.5618 0
1076 1 25.4295 30.4448 0
1077 1 27.4278 72.5562 0
1078 2 13.2483 26.5568 0
1079 2 36.9248 0.298618 0
1080 2 46.6856 73.4387 0
1081 2 72.79 63.8258 0
1082 2 23.9267 7.93556 0
1083 2 60.6671 45.8483 0
1084 1 34.4229 28.9704 0
1085 1 1.8321 49.6761 0
1086 1 66.7529 29.098 0
1087 1 72.0316 63.4318 0
1088 1 70.6946 75.7743 0
1089 2 38.7728 51.4172 0
1090 1 45.2184 76.0178 0
1091 2 66.7164 27.3478 0
1092 1 43.3496 23.088 0
1093 1 31.4553 51.8099 0
1094 2 56.1996 66.3011 0
1095 1 56.9034 52.9423 0
1096 2 58.8477 49.9386 0
1097 1 9.12424 66.9316 0
1098 1 67.0722 40.0552 0
1099 1 48.2669 22.592 0
1100 1 77.1827 42.1771 0
1101 1 32.778 60.3799 0
1102 1 7.28321 14.9742 0
1103 1 67.4918 64.1158 0
1104 1 56.3939 30.6401 0
1105 1 42.7648 63.2658 0
1106 1 47.1168 53.9812 0
1107 2 48.2941 72.7647 0
1108 1 0.813427 17.2779 0
1109 1 76.8884 8.8222 0
1110 2 26.3821 1.46364 0
1111 1 62.896 63.0865 0
1112 1 1.10655 39.6171 0
1113 2 69.6343 12.4273 0
1114 2 56.4589 29.0247 0
1115 2 61.1891 75.0675 0
1116 1 23.5988 25.0661 0
1117 1 76.0227 73.0774 0
1118 1 25.6995 38.6691 0
1119 2 70.4843 62.676 0
1120 1 35.1051 28.2389 0
1121 2 72.6128 29.8636 0
1122 1 23.0894 40.7288 0
1123 2 65.8789 44.3904 0
1124 1 5.53954 51.4944 0
1125 2 32.0964 49.2867 0
1126 2 29.2615 72.8789 0
1127 1 25.0171 27.0389 0
1128 1 31.2324 35.9048 0
1129 1 13.1157 28.3868 0
1130 1 54.4767 49.406 0
1131 1 45.1662 4.64836 0
1132 2 71.5653 58.5654 0
1133 2 53.7671 58.1911 0
1134 2 46.4003 6.79806 0
1135 1 15.1196 53.5928 0
1136 2 58.8369 63.4505 0
1137 1 53.2309 44.7741 0
1138 1 66.1048 46.7783 0
1139 2 74.276 37.2247 0
1140 2 63.435 11.6272 0
1141 1 46.0542 22.2061 0
1142 1 15.8054 9.24939 0
1143 1 15.679 37.6454 0
1144 2 67.8594 48.6409 0
1145 1 38.2593 22.9978 0
1146 1 7.00243 26.4645 0
1147 1 18.8927 35.5263 0
1148 1 73.6384 26.391 0
1149 1 63.0582 30.1955 0
1150 2 52.8324 64.2414 0
1151 1 49.8643 12.3077 0
1152 1 10.2211 69.4448 0
1153 1 76.1226 8.16798 0
1154 1 22.1413 77.0302 0
1155 2 58.3148 75.9896 0
1156 1 28.2557 60.2747 0
1157 1 28.7987 47.0618 0
1158 2 43.1054 56.5576 0
1159 2 39.1197 23.2109 0
1160 1 62.331 66.9421 0
1161 2 22.7473 25.3105 0
1162 1 51.0429 6.40361 0
1163 2 49.3165 60.8946 0
1164 1 74.4591 73.7421 0
1165 1 10.9924 1.53823 0
1166 2 10.9968 64.1857 0
1167 1 49.4843 14.4393 0
1168 1 30.9354 1.29479 0
1169 1 39.8706 77.3705 0
1170 2 50.3217 74.8379 0
1171 1 43.2899 4.83851 0
1172 1 56.4135 68.0385 0
1173 1 32.3368 59.4962 0
1174 1 21.8623 74.0614 0
1175 2 46.7092 64.0577 0
1176 1 65.8773 58.6415 0
1177 1 62.2978 15.8563 0
1178 2 59.7656 31.5613 0
1179 1 75.7732 75.1024 0
1180 1 69.4623 16.55 0
1181 1 40.4702 8.38654 0
1182 1 42.3879 51.4552 0
1183 2 43.3869 3.99286 0
1184 2 27.8137 52.9325 0
1185 1 16.9425 5.48918 0
1186 1 14.0256 53.558 0
1187 1 56.5715 54.998 0
1188 2 54.3548 46.3005 0
1189 1 63.2432 26.7249 0
1190 1 27.3297 69.7331 0
1191 2 1.75135 19.8259 0
1192 1 6.52314 23.1491 0
1193 1 55.7014 73.2424 0
1194 2 67.9878 58.4541 0
1195 1 57.8284 19.609 0
1196 1 3.55213 17.059 0
1197 1 63.4478 6.24705 0
1198 1 42.3942 68.8447 0
1199 2 44.0148 2.28428 0
1200 1 25.2569 36.8071 0
1201 1 68.7257 56.6755 0
1202 1 13.1039 53.1404 0
1203 2 26.0659 28.6775 0
1204 1 16.6173 56.951 0
1205 1 49.15 65.0732 0
1206 1 48.3108 34.3147 0
1207 1 56.023 40.9963 0
1208 1 0.480422 9.3933 0
1209 2 36.1873 45.0015 0
1210 1 43.3144 27.379 0
1211 2 28.858 12.6535 0
1212 1 64.5016 52.5031 0
1213 1 2.03568 11.799 0
1214 1 23.7583 46.8756 0
1215 1 77.0131 7.62327 0
1216 1 19.9314 51.7805 0
1217 2 63.8776 17.1574 0
1218 2 42.5763 43.1949 0
1219 1 31.3407 14.7716 0
1220 1 31.6839 33.9153 0
1221 1 32.6349 12.756 0
1222 2 0.988248 56.0677 0
1223 1 34.1987 52.7876 0
1224 1 15.0798 10.066 0
1225 1 5.20515 31.5066 0
1226 2 57.3603 26.0242 0
1227 1 66.1784 52.0554 0
1228 1 24.9143 63.0578 0
1229 2 25.119 23.7811 0
1230 1 43.5198 72.8306 0
1231 2 51.3375 36.3483 0
1232 1 68.4435 49.3458 0
1233 1 53.9839 59.0153 0
1234 1 48.0911 36.0059 0
1235 1 11.582 61.4779 0
1236 1 5.15397 43.476 0
1237 1 53.3293 20.1201 0
1238 1 50.569 20.8342 0
1239 1 17.3172 34.599 0
1240 1 53.2163 71.6538 0
1241 1 2.42335 44.9756 0