ITEM: TIMESTEP
0
ITEM: NUMBER OF ATOMS
7200
ITEM: BOX BOUNDS xy xz yz pp pp pp
0.0000000000000000e+00 7.7459666924100006e+01 0.0000000000000000e+00
0.0000000000000000e+00 7.7459666924100006e+01 0.0000000000000000e+00
-1.2909944490000000e-01 1.2909944490000000e-01 0.0000000000000000e+00
ITEM: ATOMS id type x y z
1 1 5.79405 12.9135 0
2 1 20.7672 4.71443 0
3 1 5.70807 68.5906 0
4 1 23.7318 29.7248 0
5 1 18.6598 59.341 0
6 1 72.3728 26.0444 0
7 2 53.7185 16.9656 0
8 2 59.8538 39.2545 0
9 1 48.7515 64.2162 0
10 2 35.0977 70.6496 0
11 2 19.7888 63.0335 0
12 1 55.9331 22.5577 0
13 2 30.0182 11.9412 0
14 1 46.6399 74.4864 0
15 1 30.2319 52.488 0
16 1 26.7599 28.7034 0
17 1 15.2707 31.7217 0
18 1 16.8499 31.0149 0
19 1 20.3533 52.053 0
20 2 46.1335 71.5343 0
21 1 8.84753 66.3689 0
22 1 55.6412 32.6428 0
23 1 2.81262 60.49 0
24 1 41.7128 74.3313 0
25 1 2.54156 69.8846 0
26 1 31.9968 64.3816 0
27 2 27.2192 57.1678 0
28 1 36.9598 59.6766 0
29 2 66.2898 43.0402 0
30 2 44.7966 33.9919 0
31 1 4.39119 45.465 0
32 1 65.591 48.1748 0
33 1 6.28102 44.7891 0
34 2 72.802 4.06506 0
35 1 1.18139 64.9308 0
36 1 20.7384 53.2216 0
37 1 24.8049 63.3622 0
38 1 73.8298 31.4622 0
39 1 7.26397 71.2032 0
40 2 19.8127 57.7542 0
41 2 14.4619 1.80781 0
42 1 0.0488778 76.2447 0
43 1 8.52251 11.4714 0
44 1 19.2112 74.6892 0
45 1 4.67706 43.0891 0
46 1 43.5597 43.5353 0
47 1 1.77244 62.7455 0
48 1 47.2884 65.7612 0
49 2 6.7332 72.8046 0
50 1 17.1288 57.1691 0
51 1 76.4292 13.8068 0
52 2 51.5336 37.6265 0
53 1 67.1195 14.3887 0
54 1 44.8478 28.2179 0
55 1 66.3036 67.1091 0
56 1 45.7095 24.2411 0
57 1 69.0293 56.1993 0
58 1 8.38598 69.234 0
59 1 29.029 2.30961 0
60 1 22.8141 11.8822 0
61 1 44.4286 71.4688 0
62 1 44.138 37.6814 0
63 1 42.6564 11.5444 0
64 1 63.5629 43.6388 0
65 1 68.14 42.6502 0
66 2 69.7946 8.44231 0
67 2 41.5413 36.1778 0
68 2 22.2501 17.3846 0
69 1 70.7655 38.0138 0
70 1 77.1598 27.5149 0
71 2 27.3963 49.8891 0
72 1 3.5892 70.0048 0
73 1 9.94829 0.491506 0
74 2 30.6457 26.5557 0
75 1 59.7771 42.7938 0
76 1 5.05125 48.2591 0
77 1 29.6156 3.21426 0
78 1 70.9788 73.7685 0
79 1 74.4276 64.2478 0
80 1 31.8844 6.60981 0
81 1 60.3878 46.2632 0
82 2 27.6351 22.2046 0
83 1 19.4056 35.7589 0
84 1 44.0796 34.4713 0
85 1 46.8736 30.5171 0
86 2 41.2335 69.59 0
87 1 69.7135 24.2125 0
88 1 11.5996 36.8227 0
89 1 34.2881 17.2542 0
90 1 36.7695 62.3075 0
91 2 61.2285 27.9487 0
92 2 43.3665 31.5049 0
93 1 39.1586 31.5172 0
94 1 23.2349 63.0628 0
95 2 43.3629 33.991 0
96 1 68.3767 62.8742 0
97 1 56.8412 45.9547 0
98 2 8.38021 70.836 0
99 1 53.3685 40.471 0
100 2 47.1684 31.3856 0
101 1 54.1281 53.5752 0
102 1 3.2884 16.8109 0
103 1 43.4214 55.081 0
104 1 28.686 53.0232 0
105 2 35.4793 25.1309 0
106 2 34.6185 30.8455 0
107 1 76.1839 27.8208 0
108 1 17.9532 75.8191 0
109 1 37.5005 30.3477 0
110 2 49.6809 23.4408 0
111 1 65.3506 36.6889 0
112 1 32.2174 14.143 0
113 2 16.4156 44.2605 0
114 2 18.9101 23.3176 0
115 2 23.5556 24.2919 0
116 2 76.1736 60.3343 0
117 1 21.2968 68.8708 0
118 2 69.5765 34.6751 0
119 1 60.7639 74.9465 0
120 2 76.1608 50.7689 0
121 1 5.85735 72.8682 0
122 1 22.3219 47.8464 0
123 2 23.7321 71.1409 0
124 1 55.7984 70.6341 0
125 1 42.8898 38.2421 0
126 1 54.6895 43.9617 0
127 1 26.721 54.7084 0
128 1 26.1632 16.107 0
129 1 20.5314 62.6057 0
130 1 77.1338 68.0393 0
131 1 48.473 18.0087 0
132 2 32.534 56.5356 0
133 2 73.7258 0.245653 0
134 1 40.6506 38.5774 0
135 1 40.948 24.353 0
136 2 48.7032 48.5619 0
137 1 57.8281 54.8614 0
138 2 75.4103 45.5911 0
139 1 67.1468 2.23868 0
140 1 70.4139 7.74308 0
141 2 34.2521 62.1109 0
142 1 11.8311 11.2275 0
143 2 37.9241 70.9359 0
144 2 50.2246 76.4151 0
145 2 2.21423 64.6254 0
146 1 56.9129 9.23546 0
147 1 37.6337 43.582 0
148 1 45.8456 51.3597 0
149 2 58.6772 54.3312 0
150 1 29.7211 58.9353 0
151 2 33.8815 1.08828 0
152 1 59.5393 58.2049 0
153 2 21.0118 72.2277 0
154 2 25.5932 63.8728 0
155 1 74.8185 57.7153 0
156 1 41.463 26.1084 0
157 1 47.3404 57.3198 0
158 1 51.9943 58.5832 0
159 2 0.937791 18.3023 0
160 1 34.2762 18.3023 0
161 1 8.47751 68.1293 0
162 2 5.19188 9.51341 0
163 1 31.5452 37.3828 0
164 1 64.9431 20.9094 0
165 1 10.039 15.8793 0
166 1 16.3058 39.829 0
167 1 38.2208 12.6125 0
168 1 50.4433 69.2121 0
169 1 46.8128 20.4328 0
170 1 65.863 5.74059 0
171 2 52.0208 55.3705 0
172 2 43.451 73.2904 0
173 2 49.2945 28.7954 0
174 2 9.58448 49.1387 0
175 2 52.5483 32.3908 0
176 1 36.2516 14.7795 0
177 1 37.7385 56.1546 0
178 1 40.3224 69.5414 0
179 1 71.9583 3.66785 0
180 2 14.1452 10.18 0
181 1 69.8242 17.1817 0
182 1 51.8514 2.25088 0
183 2 21.423 33.5818 0
184 1 20.1273 76.0224 0
185 2 74.5723 16.9437 0
186 1 55.4521 21.6265 0
187 1 17.4919 49.1142 0
188 1 60.454 52.9272 0
189 2 62.781 41.0813 0
190 1 77.1768 71.2725 0
191 1 53.9847 19.3757 0
192 1 72.4162 17.9141 0
193 2 14.9029 24.5451 0
194 2 64.8264 66.5605 0
195 1 5.97261 6.41083 0
196 2 48.4181 24.5403 0
197 2 38.1884 27.8533 0
198 1 13.7508 55.9754 0
199 2 48.5973 77.087 0
200 1 59.3619 35.7113 0
201 2 23.0286 63.8838 0
202 2 61.1433 62.1566 0
203 1 46.7405 73.4083 0
204 1 30.6977 19.2536 0
205 1 62.3478 0.542423 0
206 2 45.5818 25.1167 0
207 2 10.1979 68.7144 0
208 1 32.6729 27.8141 0
209 1 11.8393 21.392 0
210 2 13.948 23.2044 0
211 1 13.2229 67.0836 0
212 2 33.6214 75.3019 0
213 2 1.35285 23.0399 0
214 1 6.91401 62.2514 0
215 2 15.3994 22.1054 0
216 1 6.16096 66.8481 0
217 1 56.9936 54.311 0
218 2 7.20785 48.4025 0
219 2 6.12986 64.1104 0
220 2 45.6254 68.4022 0
221 1 25.8478 35.5638 0
222 1 53.5395 17.7752 0
223 2 34.7918 13.9059 0
224 2 15.3636 4.05669 0
225 1 31.5204 26.5937 0
226 2 59.8442 48.2719 0
227 2 20.1971 0.350418 0
228 1 19.7431 19.6664 0
229 1 71.6919 13.0096 0
230 1 30.7996 11.518 0
231 1 24.1117 42.2099 0
232 1 42.1933 21.7356 0
233 1 25.3121 25.0746 0
234 1 0.272844 72.8761 0
235 1 44.5716 43.9572 0
236 2 26.6993 3.16945 0
237 1 55.6787 48.9175 0
238 2 7.81092 32.4812 0
239 1 35.0973 2.35053 0
240 2 66.8145 71.9506 0
241 1 61.161 44.1046 0
242 1 8.19858 28.537 0
243 1 20.4361 47.622 0
244 1 45.9693 49.639 0
245 1 14.6838 40.2611 0
246 1 70.8733 50.1242 0
247 1 51.3577 66.8612 0
248 1 19.1424 65.8584 0
249 2 63.0702 38.0886 0
250 1 31.4209 1.35337 0
251 2 43.0395 40.1812 0
252 2 61.365 33.3679 0
253 1 23.3622 25.1954 0
254 1 61.5942 19.8724 0
255 1 7.86168 39.0673 0
256 1 40.7369 74.6506 0
257 1 18.3272 62.211 0
258 1 8.60402 47.1574 0
259 1 46.8208 56.3368 0
260 2 47.1207 38.4187 0
261 2 28.5578 74.4664 0
262 1 29.3277 36.0328 0
263 2 7.05124 46.3965 0
264 2 68.1384 20.2959 0
265 1 75.2816 58.6657 0
266 1 31.1602 34.3195 0
267 2 6.51147 24.4725 0
268 2 67.4616 32.8735 0
269 1 54.6615 38.5022 0
270 2 4.63591 61.2983 0
271 2 7.9583 37.0754 0
272 2 41.1448 20.2051 0
273 1 30.7078 2.89015 0
274 1 35.7713 69.8774 0
275 1 0.0650832 69.3513 0
276 1 4.7648 3.0106 0
277 2 9.37433 58.7036 0
278 1 10.832 10.3452 0
279 1 10.8161 51.7545 0
280 1 12.0669 27.5006 0
281 1 38.0607 32.7148 0
282 2 15.5869 14.5292 0
283 1 7.8704 66.796 0
284 2 60.4723 42.3563 0
285 1 8.85978 38.6615 0
286 1 25.9209 49.7062 0
287 1 25.5959 21.1866 0
288 2 5.81168 69.63 0
289 2 30.8643 46.7763 0
290 2 72.9507 8.83372 0
291 1 28.0782 16.2219 0
292 1 39.9054 51.1227 0
293 1 41.683 11.0581 0
294 1 38.9504 73.1609 0
295 1 74.7406 70.1633 0
296 2 5.13791 26.4471 0
297 1 40.6819 52.5812 0
298 1 73.4965 46.9398 0
299 2 61.6894 30.795 0
300 1 41.1344 48.6242 0
301 1 74.9629 6.74393 0
302 1 61.7271 54.025 0
303 1 1.04886 19.2009 0
304 1 44.2415 10.1645 0
305 2 60.9043 76.6611 0
306 1 62.8096 37.2566 0
307 2 7.38655 25.4553 0
308 1 51.1968 11.1161 0
309 2 1.46139 17.5772 0
310 2 73.0824 19.3362 0
311 1 30.2908 53.502 0
312 1 11.385 65.2616 0
313 1 63.4157 6.42091 0
314 1 58.5171 34.0676 0
315 2 70.0701 47.8918 0
316 2 30.6909 1.03679 0
317 1 45.9447 14.1211 0
318 2 73.7267 42.2199 0
319 1 22.7691 13.0602 0
320 1 35.9158 70.9817 0
321 1 51.1004 1.37109 0
322 2 13.3726 65.1444 0
323 2 21.6254 74.9832 0
324 1 2.20087 61.3388 0
325 1 46.4849 17.0247 0
326 1 2.98939 51.4705 0
327 1 44.8824 40.3741 0
328 1 23.9752 19.8385 0
329 1 50.9378 14.8983 0
330 2 56.4095 35.4515 0
331 2 59.6767 61.1912 0
332 1 71.5055 40.2934 0
333 1 46.824 27.7444 0
334 1 27.292 42.2084 0
335 1 19.633 30.3906 0
336 2 74.8556 72.8623 0
337 1 42.6037 24.3862 0
338 2 12.4406 72.5513 0
339 1 45.4114 4.88597 0
340 1 12.0798 37.7058 0
341 2 7.31501 35.7072 0
342 1 57.6793 66.5888 0
343 2 62.208 55.8392 0
344 2 30.0091 42.2808 0
345 1 14.6872 17.7888 0
346 1 20.6554 12.3948 0
347 1 39.4918 43.027 0
348 1 40.7001 3.66016 0
349 1 29.0917 21.1453 0
350 1 47.0116 26.6332 0
351 1 17.9244 57.9048 0
352 1 58.0689 29.2995 0
353 1 76.4937 33.6661 0
354 2 46.7925 44.5862 0
355 2 58.4202 30.2506 0
356 2 7.14219 77.276 0
357 1 54.7398 64.5699 0
358 1 42.9835 2.42533 0
359 1 37.2957 9.33184 0
360 2 70.6694 40.1252 0
361 2 42.2971 38.8962 0
362 1 21.2577 73.1046 0
363 2 26.1404 11.7455 0
364 1 20.5611 1.29156 0
365 2 50.2179 56.944 0
366 1 30.1997 55.4832 0
367 2 25.8359 28.3016 0
368 2 34.7683 47.121 0
369 2 59.3805 71.6304 0
370 1 20.3257 20.4885 0
371 1 38.1862 55.1784 0
372 2 45.0437 7.32125 0
373 1 0.933805 31.0272 0
374 2 50.7278 43.0462 0
375 1 58.0234 41.0509 0
376 2 68.0741 26.3456 0
377 2 52.9992 44.6666 0
378 1 11.7303 0.550824 0
379 1 13.0244 27.0556 0
380 1 16.5013 47.8339 0
381 1 5.54969 24.8824 0
382 1 22.4855 36.5879 0
383 1 16.2686 1.05994 0
384 1 41.1141 46.0421 0
385 1 46.5979 22.6333 0
386 1 67.9629 47.5056 0
387 1 61.0591 71.1292 0
388 2 63.9743 47.1436 0
389 1 38.9891 40.2349 0
390 1 29.9499 27.01 0
391 2 74.2529 67.3689 0
392 2 30.4854 10.7475 0
393 2 31.1094 60.0824 0
394 1 68.6647 72.4186 0
395 1 50.2647 15.6959 0
396 1 2.37407 11.4843 0
397 1 51.3632 39.4898 0
398 1 45.9428 18.4102 0
399 1 45.1805 20.0767 0
400 1 50.7037 77.0837 0
401 1 63.9241 76.7959 0
402 2 61.7391 4.04965 0
403 1 37.3997 54.4993 0
404 1 54.1014 59.2515 0
405 2 67.8596 40.6708 0
406 1 29.7248 34.9938 0
407 2 60.3037 3.3991 0
408 1 66.2973 29.8626 0
409 1 16.3051 48.8479 0
410 2 3.40429 13.7434 0
411 2 57.4083 31.7374 0
412 1 67.3994 57.091 0
413 1 1.16027 57.0446 0
414 1 6.92643 47.368 0
415 1 24.035 45.7678 0
416 2 73.4507 63.9447 0
417 2 73.1904 17.5558 0
418 1 49.5655 32.6309 0
419 2 72.854 48.7469 0
420 2 10.4303 59.7555 0
421 1 62.1322 17.9469 0
422 1 72.9495 60.316 0
423 1 8.9453 0.515294 0
424 1 62.6534 13.3585 0
425 1 59.8533 41.7876 0
426 1 45.0543 75.2038 0
427 2 28.5029 24.8671 0
428 1 48.7818 72.9173 0
429 1 53.4213 71.934 0
430 1 47.6518 34.8444 0
431 1 17.0455 4.5608 0
432 1 56.4052 33.7054 0
433 1 27.5408 3.23574 0
434 1 0.968031 23.8854 0
435 1 68.2377 39.7956 0
436 2 72.0164 52.981 0
437 2 49.7307 48.8407 0
438 1 45.2426 53.0444 0
439 2 57.8849 73.3312 0
440 1 38.5361 34.2417 0
441 2 67.8952 72.8884 0
442 1 13.2781 25.4699 0
443 1 46.5831 24.8254 0
444 1 64.2892 71.3951 0
445 2 41.297 52.0139 0
446 1 52.9863 59.0333 0
447 1 16.9241 76.9338 0
448 1 46.6105 45.6996 0
449 1 37.3881 1.13596 0
450 2 43.8505 36.581 0
451 2 14.3759 44.4005 0
452 1 44.1187 20.0439 0
453 1 33.217 77.1955 0
454 2 62.3724 21.5541 0
455 2 19.4489 2.62357 0
456 1 14.2087 50.2428 0
457 2 31.0521 3.7142 0
458 1 35.2907 16.9493 0
459 2 13.4143 44.8533 0
460 1 6.88623 9.01887 0
461 2 45.8742 32.2758 0
462 1 60.3528 1.46268 0
463 1 69.4448 65.964 0
464 1 16.1948 41.9131 0
465 2 28.6109 49.034 0
466 1 19.9724 11.3934 0
467 2 7.72754 9.01981 0
468 1 76.6104 30.7174 0
469 1 7.78871 62.7234 0
470 1 19.4604 68.601 0
471 2 70.0947 37.4102 0
472 1 24.3461 34.1479 0
473 1 41.7576 73.249 0
474 1 37.2572 2.18927 0
475 1 24.228 4.00366 0
476 2 40.4114 29.19 0
477 1 61.4034 14.6395 0
478 2 19.5408 59.3991 0
479 1 23.5509 27.3528 0
480 1 21.6159 31.4547 0
481 1 12.0237 16.586 0
482 1 12.3265 29.5804 0
483 2 69.3355 75.7476 0
484 1 13.724 37.7537 0
485 1 21.2368 43.4991 0
486 1 6.57254 3.2894 0
487 2 45.6008 66.3818 0
488 1 41.1027 13.0482 0
489 1 57.8353 10.8815 0
490 1 28.2529 14.5848 0
491 1 33.8715 45.5861 0
492 2 1.65675 68.2319 0
493 1 73.3318 14.9084 0
494 1 1.44729 16.5895 0
495 2 21.9457 59.5586 0
496 2 35.7544 32.0359 0
497 2 43.9777 11.1933 0
498 1 28.9401 43.9599 0
499 1 35.3322 13.2591 0
500 1 73.2016 65.8305 0
501 2 40.5958 50.5169 0
502 1 16.9407 59.803 0
503 1 58.1691 11.9517 0
504 1 40.1929 35.0017 0
505 2 24.6136 12.8768 0
506 2 17.7651 76.698 0
507 1 53.1896 32.9514 0
508 1 21.3098 51.6459 0
509 1 24.7278 20.5752 0
510 1 75.6634 36.2852 0
511 1 44.1349 23.7402 0
512 1 46.7631 0.154413 0
513 1 26.9205 37.6102 0
514 1 18.0033 55.1373 0
515 2 45.3779 9.16716 0
516 2 12.0136 64.6563 0
517 2 15.2873 41.9191 0
518 2 25.4043 53.7303 0
519 2 34.3099 60.361 0
520 1 76.9247 32.6496 0
521 1 52.7551 24.393 0
522 2 25.0105 0.47976 0
523 1 69.6474 57.7735 0
524 1 53.3258 27.4475 0
525 1 31.1352 0.203966 0
526 2 23.5293 31.8178 0
527 1 56.4503 32.0039 0
528 2 68.8534 58.0295 0
529 2 59.315 60.0507 0
530 1 10.6142 69.4256 0
531 2 55.9939 60.7612 0
532 2 8.6688 46.3431 0
533 1 75.5001 63.9176 0
534 1 21.8351 25.07 0
535 1 12.0358 4.884 0
536 1 12.7305 75.8587 0
537 1 17.817 51.19 0
538 2 19.3917 20.6001 0
539 2 42.3611 4.65029 0
540 1 64.2741 38.8607 0
541 2 27.74 11.2206 0
542 1 43.6354 63.7454 0
543 2 3.30833 58.8364 0
544 2 52.2385 9.37165 0
545 1 31.0183 36.3043 0
546 1 55.8817 76.6561 0
547 1 11.9224 6.73097 0
548 2 26.2736 70.1299 0
549 2 67.3012 31.504 0
550 2 1.36014 48.3541 0
551 1 44.2306 7.49291 0
552 2 59.6505 11.1416 0
553 2 76.1101 42.4407 0
554 1 57.7034 69.2428 0
555 1 55.5992 43.4003 0
556 1 75.4913 62.7313 0
557 1 51.7874 51.9167 0
558 1 60.2299 55.9693 0
559 1 4.90725 11.4226 0
560 2 14.9906 49.7898 0
561 1 62.2827 68.2564 0
562 2 5.62653 3.24523 0
563 2 31.8142 52.3581 0
564 1 58.1155 55.9099 0
565 2 29.9854 71.5167 0
566 2 5.69532 25.7526 0
567 1 40.4682 41.7945 0
568 2 37.1339 71.975 0
569 2 26.0197 9.22984 0
570 1 70.0604 56.0243 0
571 1 72.6989 67.4978 0
572 2 14.7562 67.6334 0
573 2 74.0129 36.6844 0
574 1 15.614 64.4014 0
575 1 37.5351 14.4774 0
576 1 21.6328 65.8971 0
577 1 31.6344 33.1627 0
578 2 62.2207 49.3877 0
579 2 46.3436 63.7445 0
580 1 46.2101 33.1012 0
581 1 66.3291 70.2763 0
582 2 61.3152 69.5417 0
583 2 70.4852 49.3118 0
584 2 11.9266 43.9526 0
585 1 46.5244 5.08746 0
586 1 64.677 43.6222 0
587 2 16.2857 13.3863 0
588 1 53.7269 4.82875 0
589 2 65.6735 8.08836 0
590 1 20.8582 3.1264 0
591 1 54.1893 21.7869 0
592 1 54.4549 75.7584 0
593 1 48.1495 1.18702 0
594 1 60.1042 43.779 0
595 1 9.89862 60.4494 0
596 2 8.01655 2.05207 0
597 1 18.7347 49.7377 0
598 1 65.137 8.67345 0
599 1 6.22152 37.2841 0
600 1 1.83407 46.4317 0
601 2 33.8598 49.8314 0
602 1 73.4771 76.9107 0
603 2 3.04146 40.3702 0
604 2 68.3112 18.4974 0
605 1 52.0994 47.9939 0
606 1 44.5233 76.1791 0
607 1 10.5237 73.0175 0
608 2 77.1935 41.641 0
609 2 42.0613 75.1873 0
610 1 71.9871 35.5701 0
611 1 66.566 36.6619 0
612 1 56.2371 67.4298 0
613 1 74.4708 15.0273 0
614 2 56.706 15.5489 0
615 1 9.75757 34.2362 0
616 1 40.3034 13.8773 0
617 1 47.7572 14.5129 0
618 2 72.8282 41.2442 0
619 2 45.949 55.8203 0
620 2 60.4164 49.576 0
621 2 62.5825 32.2067 0
622 1 65.5388 11.3644 0
623 1 44.5303 9.1943 0
624 2 26.6056 68.4363 0
625 1 1.63749 6.52877 0
626 1 15.9157 21.3478 0
627 2 1.36687 33.0644 0
628 1 26.2662 53.732 0
629 2 68.7572 9.31744 0
630 1 39.3255 69.4569 0
631 1 52.185 33.1837 0
632 1 27.035 2.31507 0
633 2 10.8901 5.20392 0
634 1 15.5713 62.545 0
635 2 37.5964 46.1189 0
636 2 44.8301 27.3224 0
637 1 5.87833 11.2164 0
638 1 66.2093 49.5492 0
639 1 74.6405 43.7759 0
640 1 9.2004 41.4154 0
641 1 28.6535 35.2431 0
642 1 27.6213 38.7177 0
643 1 24.231 41.1271 0
644 2 2.62983 31.7242 0
645 1 47.2698 47.3787 0
646 1 49.3015 45.3134 0
647 2 38.4111 25.2595 0
648 1 71.7535 6.42265 0
649 2 7.82363 61.8866 0
650 2 47.0319 68.7456 0
651 1 64.1469 20.1882 0
652 1 10.2534 2.94589 0
653 2 14.8802 12.9928 0
654 2 22.6994 11.0476 0
655 1 31.1262 48.4281 0
656 1 65.1631 49.8009 0
657 1 29.5653 50.8531 0
658 1 7.76708 14.525 0
659 2 59.9451 53.6401 0
660 1 47.941 26.1411 0
661 1 39.3485 22.2165 0
662 1 74.5587 36.0559 0
663 1 13.09 47.6994 0
664 1 47.728 69.2932 0
665 2 50.5062 73.7659 0
666 2 26.8123 31.4551 0
667 1 12.2355 3.13289 0
668 2 71.1909 4.0051 0
669 1 8.44766 9.63928 0
670 2 29.5295 54.8211 0
671 2 39.9767 9.67128 0
672 1 21.384 8.8237 0
673 1 23.9782 18.1639 0
674 1 34.1594 52.3029 0
675 2 9.49216 65.6805 0
676 2 37.8123 67.1691 0
677 1 39.3542 55.2986 0
678 1 45.8772 41.8507 0
679 1 42.9957 67.5559 0
680 1 33.9507 65.376 0
681 1 13.2114 42.4164 0
682 1 5.26352 55.5311 0
683 1 23.7454 6.77887 0
684 1 56.8639 59.3479 0
685 2 64.5605 3.92183 0
686 1 74.1371 71.8088 0
687 1 35.7192 6.07678 0
688 2 47.1612 52.7292 0
689 1 21.8552 53.2752 0
690 1 58.0606 53.7756 0
691 1 73.6688 41.323 0
692 2 42.0241 29.0778 0
693 1 64.7751 5.57719 0
694 2 63.8693 69.3962 0
695 1 59.4002 10.0064 0
696 2 30.9561 66.0817 0
697 1 30.1521 38.0039 0
698 1 21.428 63.1787 0
699 1 67.4576 51.7599 0
700 1 1.39311 39.8262 0
701 1 5.34503 54.344 0
702 1 44.3143 48.6942 0
703 2 5.32131 66.8852 0
704 2 2.55978 66.8851 0
705 2 11.5595 12.8663 0
706 1 62.385 35.6533 0
707 2 61.1093 16.435 0
708 1 34.2801 39.2619 0
709 1 49.933 3.95519 0
710 2 58.8826 31.5264 0
711 1 57.019 57.5773 0
712 2 44.8269 5.62237 0
713 2 45.7941 74.8528 0
714 2 3.93698 55.7163 0
715 1 55.5227 4.41698 0
716 1 1.49309 10.914 0
717 1 15.6345 67.4175 0
718 1 76.6875 59.7384 0
719 1 56.8921 42.3447 0
720 2 21.3135 50.7285 0
721 2 65.8036 33.8674 0
722 1 43.1594 4.21728 0
723 2 52.3129 26.1299 0
724 2 32.8593 76.4455 0
725 1 72.5482 21.0822 0
726 1 18.0781 23.0117 0
727 2 39.8415 21.3236 0
728 1 3.29823 56.2998 0
729 2 18.7266 73.9234 0
730 1 12.7521 15.861 0
731 2 13.6882 27.6922 0
732 1 31.7134 56.7435 0
733 1 34.1978 26.8562 0
734 2 64.6073 50.5944 0
735 1 44.0164 3.67222 0
736 1 21.3142 37.8121 0
737 2 69.0987 44.2267 0
738 1 35.2176 24.2952 0
739 1 37.335 27.7043 0
740 1 36.3403 55.0569 0
741 2 49.4815 39.1932 0
742 1 74.9035 48.1573 0
743 1 26.8712 4.05253 0
744 2 74.964 25.5282 0
745 1 8.86643 48.5477 0
746 1 25.8313 8.34768 0
747 1 32.7634 68.357 0
748 2 43.0846 41.9094 0
749 2 34.0959 31.6663 0
750 1 62.8016 34.6385 0
751 1 57.2813 53.0899 0
752 2 54.276 72.5281 0
753 1 34.4367 22.3987 0
754 2 5.33631 29.9603 0
755 1 76.7755 39.8006 0
756 2 45.1569 71.1235 0
757 1 45.6186 22.2078 0
758 1 70.2857 11.5372 0
759 1 34.8066 27.7052 0
760 1 4.62863 8.83765 0
761 1 5.15565 67.7298 0
762 1 15.2334 60.973 0
763 2 67.0445 7.01993 0
764 1 10.4975 61.3528 0
765 2 59.0054 63.867 0
766 1 10.9956 22.1324 0
767 1 73.3326 64.8231 0
768 1 64.421 3.02576 0
769 1 65.2998 29.9568 0
770 2 51.0989 68.7147 0
771 1 7.01194 31.9494 0
772 1 58.0784 31.2026 0
773 1 36.0226 39.2725 0
774 2 33.2785 28.4979 0
775 1 73.8566 24.3034 0
776 2 30.223 50.1848 0
777 1 0.404744 41.1059 0
778 2 68.5684 66.1729 0
779 1 55.4147 20.3905 0
780 1 19.5024 9.03776 0
781 1 37.6272 23.5849 0
782 1 64.1333 44.5831 0
783 1 53.6028 33.906 0
784 1 48.6464 54.3751 0
785 2 74.0288 18.6044 0
786 1 72.1425 62.6148 0
787 1 27.0273 66.4352 0
788 1 42.3402 44.9228 0
789 1 70.9439 62.136 0
790 1 56.9313 63.642 0
791 1 75.7069 73.1422 0
792 1 0.074783 37.1042 0
793 1 23.7714 10.0789 0
794 2 19.6966 1.6703 0
795 2 0.375937 7.81441 0
796 2 71.3998 8.28088 0
797 1 50.1095 49.6797 0
798 1 50.1468 28.9691 0
799 1 29.1222 64.3568 0
800 1 23.81 72.669 0
801 2 5.38626 31.3868 0
802 2 70.3581 36.1119 0
803 2 27.0207 9.66396 0
804 2 50.2887 34.9326 0
805 1 27.4383 68.0376 0
806 1 63.5906 70.1509 0
807 2 30.788 73.1228 0
808 1 35.7114 45.4142 0
809 2 18.473 35.7986 0
810 1 69.0704 1.38236 0
811 1 47.9299 72.0872 0
812 2 12.471 62.8907 0
813 2 51.6128 44.3488 0
814 1 54.685 26.3794 0
815 2 50.844 12.9657 0
816 1 25.2039 66.2001 0
817 1 57.738 2.79418 0
818 2 59.2368 8.26363 0
819 2 41.563 46.8525 0
820 1 54.6437 76.8283 0
821 1 29.056 11.9677 0
822 1 55.7877 1.09401 0
823 1 10.9916 66.9212 0
824 2 16.4905 32.8739 0
825 1 29.4282 41.6227 0
826 1 22.011 16.4615 0
827 1 9.44292 37.6656 0
828 1 72.8764 44.0833 0
829 1 74.8972 24.5416 0
830 2 34.9924 73.3653 0
831 2 54.1468 10.1489 0
832 1 73.1745 18.5051 0
833 1 17.3739 61.7497 0
834 2 45.9486 20.4335 0
835 1 40.1555 72.2441 0
836 1 5.2442 4.07777 0
837 1 69.0545 33.9641 0
838 1 41.913 49.4328 0
839 1 7.91739 60.2875 0
840 2 12.9031 37.9608 0
841 1 27.2669 60.2787 0
842 2 29.7789 56.3617 0
843 1 7.39123 40.9252 0
844 1 66.733 12.7315 0
845 2 30.7496 22.2763 0
846 1 52.9666 36.4155 0
847 1 11.9874 63.7295 0
848 2 48.8815 59.0945 0
849 1 68.147 14.6684 0
850 1 75.7426 22.7057 0
851 1 29.7528 16.1699 0
852 1 11.0966 17.2585 0
853 1 31.7437 3.22922 0
854 1 49.9024 6.91005 0
855 1 51.8852 15.2169 0
856 2 29.606 26.0688 0
857 1 64.143 13.9201 0
858 2 32.8287 50.9078 0
859 1 6.80406 4.50396 0
860 2 63.1656 44.4233 0
861 2 72.9897 58.2606 0
862 2 6.86463 55.4118 0
863 1 54.2787 12.4846 0
864 1 54.0475 60.3539 0
865 2 58.858 2.57193 0
866 1 75.5875 14.7671 0
867 2 35.8896 17.6743 0
868 1 55.1465 61.6931 0
869 1 62.155 27.8798 0
870 1 18.8746 51.4189 0
871 1 67.318 19.9873 0
872 1 19.328 25.5382 0
873 1 36.5371 2.96016 0
874 1 76.6365 76.7587 0
875 1 42.3718 60.8286 0
876 2 39.4727 14.0814 0
877 1 6.19099 46.5394 0
878 2 13.3153 19.2308 0
879 1 73.4298 28.3491 0
880 2 44.2236 45.446 0
881 2 53.9316 22.6408 0
882 2 52.4084 64.4746 0
883 1 25.1946 16.8093 0
884 1 66.5612 20.8511 0
885 1 46.7603 2.61587 0
886 1 38.4428 58.8855 0
887 2 29.4665 45.7207 0
888 1 3.04839 5.44945 0
889 2 47.3114 23.0789 0
890 2 4.39199 13.4837 0
891 1 32.3343 16.412 0
892 1 38.234 2.55301 0
893 1 13.3282 58.1375 0
894 1 6.52522 76.5732 0
895 2 48.226 39.8604 0
896 1 18.3008 1.10995 0
897 2 58.0514 16.6072 0
898 1 15.601 54.1461 0
899 1 56.798 77.0983 0
900 2 52.0317 18.9625 0
901 1 23.3719 47.9372 0
902 1 33.3555 10.1131 0
903 1 17.8525 45.4177 0
904 2 14.2042 29.4397 0
905 1 42.744 42.8416 0
906 1 62.8557 62.7223 0
907 1 11.0449 23.2619 0
908 1 71.1218 19.0082 0
909 1 9.09437 63.7522 0
910 2 11.4071 67.6405 0
911 2 7.01767 66.5956 0
912 2 35.8922 33.3605 0
913 2 24.3097 49.4794 0
914 1 5.55869 14.6878 0
915 2 56.7256 16.9532 0
916 1 75.8841 37.36 0
917 2 5.58865 12.1089 0
918 2 24.9401 38.1263 0
919 1 35.2269 68.8859 0
920 1 17.4949 60.6847 0
921 1 66.7149 37.6952 0
922 2 56.3907 26.0056 0
923 2 20.5165 30.0255 0
924 1 62.3621 11.0375 0
925 1 67.3572 55.9521 0
926 2 30.8852 28.2123 0
927 1 50.3379 57.796 0
928 1 45.6587 67.4305 0
929 2 9.36211 68.1029 0
930 2 29.8163 20.6878 0
931 1 51.0718 50.0347 0
932 1 61.8676 39.2146 0
933 1 40.4245 28.1673 0
934 1 77.3296 3.14824 0
935 1 24.1693 48.5959 0
936 2 56.5783 76.1003 0
937 1 14.5328 62.5407 0
938 1 32.8564 71.1655 0
939 2 46.9238 35.5312 0
940 1 9.80104 52.117 0
941 1 9.82309 6.74059 0
942 1 33.2139 13.857 0
943 2 16.3054 3.07836 0
944 2 8.0608 43.5997 0
945 1 43.0906 23.4813 0
946 1 58.6649 68.8118 0
947 2 36.0744 69.0071 0
948 1 21.4541 67.6423 0
949 1 44.9679 29.8285 0
950 2 9.09144 72.142 0
951 1 10.2264 70.333 0
952 2 49.5846 26.9862 0
953 2 77.0413 44.8424 0
954 2 11.2474 57.6667 0
955 1 28.8161 33.0084 0
956 2 75.7155 18.2774 0
957 1 57.8585 20.266 0
958 2 16.6754 6.34958 0
959 2 69.6125 54.2996 0
960 2 46.2767 76.8176 0
961 1 55.378 41.2081 0
962 1 20.9621 25.4967 0
963 1 32.2888 7.5457 0
964 2 7.20257 15.1957 0
965 2 55.9093 40.2881 0
966 1 66.4701 56.441 0
967 1 50.0112 46.9855 0
968 1 27.9022 75.0657 0
969 1 54.1355 8.34388 0
970 2 47.0216 8.50135 0
971 1 1.50581 12.0191 0
972 1 6.48975 35.6462 0
973 1 70.8433 48.2869 0
974 2 63.1338 53.227 0
975 2 6.6829 68.459 0
976 2 31.2322 14.0862 0
977 1 35.0735 40.0185 0
978 2 71.3077 77.3979 0
979 2 48.4474 71.3964 0
980 1 65.998 71.4722 0
981 1 53.8145 44.433 0
982 1 17.72 58.9179 0
983 1 18.1782 17.6266 0
984 1 14.5541 51.5148 0
985 1 60.9111 4.00784 0
986 1 25.8545 52.8314 0
987 2 29.3526 39.7426 0
988 2 28.3032 36.0756 0
989 2 72.8106 44.9428 0
990 2 6.86105 57.0235 0
991 2 40.1982 13.0089 0
992 1 72.0195 48.3509 0
993 2 29.5415 25.1758 0
994 2 16.3139 57.0289 0
995 1 6.61169 29.8164 0
996 2 52.6662 71.6869 0
997 2 46.8675 12.4636 0
998 2 52.3188 76.154 0
999 2 49.494 25.9077 0
1000 2 21.2264 63.9604 0
1001 1 25.6345 71.9931 0
1002 1 48.0631 52.8414 0
1003 1 10.8318 53.4587 0
1004 1 4.46272 7.17246 0
1005 2 0.113877 30.7049 0
1006 2 55.1998 37.6237 0
1007 1 13.5027 22.2717 0
1008 1 47.923 20.4414 0
1009 1 24.004 38.0436 0
1010 1 13.1719 45.6665 0
1011 2 75.8737 30.3207 0
1012 2 76.7228 8.42661 0
1013 2 59.73 45.6869 0
1014 1 0.825745 9.49546 0
1015 1 2.92777 24.387 0
1016 1 69.7964 48.7555 0
1017 2 76.8547 40.7436 0
1018 1 18.4076 42.5912 0
1019 1 45.1473 30.9333 0
1020 2 50.5087 19.6573 0
1021 2 9.07861 21.887 0
1022 1 20.476 50.9977 0
1023 1 41.8662 14.4323 0
1024 1 14.2784 2.72345 0
1025 1 39.1403 72.1194 0
1026 1 14.7454 53.4258 0
1027 1 55.5063 65.9351 0
1028 1 28.64 42.2476 0
1029 1 50.1096 9.95201 0
1030 2 54.8647 41.8892 0
1031 2 46.7825 39.9414 0
1032 1 7.49715 58.2794 0
1033 1 50.5335 33.1065 0
1034 1 6.48922 25.3336 0
1035 1 76.2836 23.6433 0
1036 2 7.09702 60.0447 0
1037 1 42.8932 71.7379 0
1038 1 71.7279 76.4557 0
1039 1 68.9642 29.0695 0
1040 2 61.5097 40.9391 0
1041 1 26.2549 65.727 0
1042 2 67.096 47.8191 0
1043 2 42.5478 54.8688 0
1044 1 68.027 19.2838 0
1045 1 3.07865 23.2096 0
1046 1 31.4871 65.3356 0
1047 2 17.6998 43.1249 0
1048 1 52.3608 12.5134 0
1049 1 7.39136 34.8999 0
1050 2 53.301 39.6143 0
1051 1 41.505 17.2358 0
1052 1 68.8525 35.9866 0
1053 2 45.0075 23.6699 0
1054 1 58.133 75.0264 0
1055 2 11.6044 49.7096 0
1056 2 22.8408 43.4433 0
1057 1 22.5153 7.489 0
1058 1 39.5288 7.95379 0
1059 1 75.9513 57.8787 0
1060 2 9.91806 31.6785 0
1061 1 14.2298 25.8709 0
1062 2 19.2078 29.6174 0
1063 1 75.9585 8.04216 0
1064 1 30.0452 9.96006 0
1065 2 31.9414 33.9476 0
1066 1 35.6689 63.3524 0
1067 1 13.073 14.7888 0
1068 2 42.3505 15.175 0
1069 1 74.0818 25.2944 0
1070 2 16.5855 10.8996 0
1071 2 6.43416 61.5104 0
1072 2 4.44787 59.7879 0
1073 2 75.0903 0.485395 0
1074 2 28.8112 50.4664 0
1075 1 69.5109 25.1936 0
1076 1 27.9138 7.62958 0
1077 1 36.4768 18.251 0
1078 2 66.7433 26.1877 0
1079 2 27.3519 20.3723 0
1080 2 32.6136 43.074 0
1081 2 40.1785 55.5014 0
1082 2 76.0304 12.9725 0
1083 2 33.5116 4.38086 0
1084 1 50.6173 44.0198 0
1085 1 14.3896 34.1883 0
1086 1 41.6256 56.6253 0
1087 1 37.5962 61.6257 0
1088 1 48.3022 65.8944 0
1089 2 57.297 25.6337 0
1090 1 37.7892 21.251 0
1091 2 41.1663 23.458 0
1092 1 51.0713 61.0617 0
1093 1 12.4739 24.1094 0
1094 2 43.9262 62.7903 0
1095 1 17.1446 5.59407 0
1096 2 62.3208 27.0524 0
1097 1 71.4709 10.2074 0
1098 1 56.8045 34.7154 0
1099 1 19.0241 72.7826 0
1100 1 2.27733 68.8234 0
1101 1 76.5806 18.3252 0
1102 1 25.6898 13.3503 0
1103 1 47.7096 12.0733 0
1104 1 54.3092 41.1187 0
1105 1 63.1251 26.9409 0
1106 1 3.12007 76.5643 0
1107 2 50.4717 67.3308 0
1108 1 52.864 29.0303 0
1109 1 76.6623 14.8284 0
1110 2 74.9703 19.5258 0
1111 1 64.7853 46.7142 0
1112 1 19.5139 0.884501 0
1113 2 6.39169 74.7182 0
1114 2 8.99151 33.8321 0
1115 2 30.2954 61.8834 0
1116 1 75.5152 56.9026 0
1117 1 71.1739 60.9741 0
1118 1 20.3518 74.5041 0
1119 2 22.7215 48.665 0
1120 1 43.9004 56.0691 0
1121 2 70.6941 70.3519 0
1122 1 14.3364 31.335 0
1123 2 37.1903 41.9124 0
1124 1 52.0267 46.8457 0
1125 2 33.1819 8.00177 0
1126 2 11.8551 23.4478 0
1127 1 15.9332 18.7434 0
1128 1 59.639 54.472 0
1129 1 69.8746 47.0137 0
1130 1 33.3758 70.2173 0
1131 1 66.3265 19.8927 0
1132 2 66.6079 52.0834 0
1133 2 47.4526 3.06119 0
1134 2 9.95655 10.187 0
1135 1 65.804 51.7824 0
1136 2 54.5034 34.0786 0
1137 1 55.0842 60.6762 0
1138 1 31.307 24.9363 0
1139 2 44.169 40.9064 0
1140 2 16.1474 19.6054 0
1141 1 64.3977 61.443 0
1142 1 60.4716 32.9413 0
1143 1 61.8435 66.5893 0
1144 2 72.7566 68.3197 0
1145 1 33.7734 48.9631 0
1146 1 23.1548 8.3531 0
1147 1 22.6711 24.3844 0
1148 1 16.6026 10.063 0
1149 1 59.5308 18.9549 0
1150 2 61.2792 44.9938 0
1151 1 55.4964 24.5886 0
1152 1 32.666 35.612 0
1153 1 5.31876 10.3264 0
1154 1 75.0216 8.46052 0
1155 2 76.8806 3.86231 0
1156 1 63.8011 15.7678 0
1157 1 22.9623 16.7888 0
1158 2 60.9541 56.506 0
1159 2 63.5411 65.963 0
1160 1 31.2303 5.81826 0
1161 2 34.2852 2.86913 0
1162 1 75.6187 5.30893 0
1163 2 5.55204 73.6876 0
1164 1 41.8888 72.1729 0
1165 1 9.18191 32.0011 0
1166 2 30.5054 45.3327 0
1167 1 34.6268 25.1235 0
1168 1 39.5702 75.8281 0
1169 1 15.2644 1.51136 0
1170 2 70.4323 43.4604 0
1171 1 68.7582 49.0377 0
1172 1 30.6453 15.6265 0
1173 1 49.6246 59.7495 0
1174 1 49.0001 46.8746 0
1175 2 42.9847 55.8792 0
1176 1 68.3483 31.2356 0
1177 1 52.458 66.4844 0
1178 2 29.2603 32.1937 0
1179 1 5.48844 51.1196 0
1180 1 60.6001 8.68361 0
1181 1 70.4008 34.4087 0
1182 1 43.9857 0.722629 0
1183 2 42.8798 59.8163 0
1184 2 34.1684 24.3312 0
1185 1 12.3042 59.8033 0
1186 1 34.0739 62.9057 0
1187 1 46.8844 62.2497 0
1188 2 12.4915 47.059 0
1189 1 55.5121 46.8925 0
1190 1 49.4702 48.0354 0
1191 2 59.9606 12.4696 0
1192 1 23.7952 44.7548 0
1193 1 33.4171 23.7071 0
1194 2 3.78742 29.2887 0
1195 1 11.82 66.2736 0
1196 1 15.3715 52.3906 0
1197 1 36.8346 29.4613 0
1198 1 66.5107 74.9888 0
1199 2 43.9621 47.9256 0
1200 1 55.9083 18.4717 0
1201 1 60.7647 73.7698 0
1202 1 14.6704 54.4814 0
1203 2 53.7599 14.5619 0
1204 1 1.7107 63.8559 0
1205 1 76.1031 67.8501 0
1206 1 72.4915 9.6573 0
1207 1 48.5236 44.2248 0
1208 1 2.01958 40.7394 0
1209 2 51.2973 57.9476 0
1210 1 60.2632 16.4275 0
1211 2 28.2272 53.715 0
1212 1 25.2275 26.1246 0
1213 1 49.1686 51.0883 0
1214 1 4.57806 31.7445 0
1215 1 10.344 5.82889 0
1216 1 10.8704 71.2526 0
1217 2 58.3299 45.9984 0
1218 2 56.0742 6.62735 0
1219 1 31.2844 16.5136 0
1220 1 56.6454 10.7147 0
1221 1 59.2901 56.1027 0
1222 2 70.5396 63.7915 0
1223 1 53.2971 48.0059 0
1224 1 68.5146 30.1535 0
1225 1 73.8396 52.0316 0
1226 2 56.4616 48.6074 0
1227 1 25.4559 58.3451 0
1228 1 60.0028 51.9801 0
1229 2 56.5864 14.0463 0
1230 1 18.3206 29.7732 0
1231 2 62.9378 15.8328 0
1232 1 76.2481 47.0332 0
1233 1 19.0858 54.7621 0
1234 1 62.0754 64.5806 0
1235 1 20.5707 57.2214 0
1236 1 51.1008 65.5383 0
1237 1 39.8668 16.8825 0
1238 1 47.6483 10.9965 0
1239 1 8.21186 19.3897 0
1240 1 43.3524 76.0806 0
1241 1 19.1018 75.7454 0