ITEM: TIMESTEP
0
ITEM: NUMBER OF ATOMS
7200
ITEM: BOX BOUNDS xy xz yz pp pp pp
0.0000000000000000e+00 7.7459666924100006e+01 0.0000000000000000e+00
0.0000000000000000e+00 7.7459666924100006e+01 0.0000000000000000e+00
-1.2909944490000000e-01 1.2909944490000000e-01 0.0000000000000000e+00
ITEM: ATOMS id type x y z
1 1 12.0999 20.1315 0
2 1 14.742 64.0237 0
3 1 75.1253 71.1645 0
4 1 20.3822 7.95212 0
5 1 34.5394 55.9413 0
6 1 56.5624 28.6185 0
7 2 5.46164 3.25955 0
8 2 64.6646 46.514 0
9 1 42.142 56.1394 0
10 2 19.0072 14.6153 0
11 2 25.3313 53.1813 0
12 1 55.1789 11.5518 0
13 2 23.479 5.90331 0
14 1 46.6631 70.5951 0
15 1 39.5284 31.2936 0
16 1 18.1626 14.9098 0
17 1 31.415 40.0125 0
18 1 33.9094 5.81651 0
19 1 26.9835 57.6872 0
20 2 45.0421 3.68914 0
21 1 12.2816 65.9246 0
22 1 54.3647 10.8598 0
23 1 75.5772 45.8306 0
24 1 55.8867 66.2161 0
25 1 6.69492 71.0488 0
26 1 21.1472 67.5456 0
27 2 29.02 63.8092 0
28 1 51.4426 74.244 0
29 2 22.6012 47.8549 0
30 2 25.293 32.0942 0
31 1 15.1986 53.4394 0
32 1 51.0729 38.0407 0
33 1 60.6618 48.4361 0
34 2 45.3114 9.70709 0
35 1 75.24 63.1567 0
36 1 30.4908 59.9926 0
37 1 22.2726 61.5553 0
38 1 45.8683 19.7539 0
39 1 22.5376 5.67279 0
40 2 24.8359 59.2183 0
41 2 18.5455 64.7245 0
42 1 21.0555 1.06168 0
43 1 18.9468 33.5168 0
44 1 34.3366 62.7339 0
45 1 3.26237 34.4963 0
46 1 68.13 7.63208 0
47 1 73.5348 59.0822 0
48 1 44.1406 68.3532 0
49 2 77.3598 4.25621 0
50 1 31.1443 66.6824 0
51 1 1.31275 9.94689 0
52 2 33.2146 24.3808 0
53 1 53.5935 18.7144 0
54 1 49.7091 30.2974 0
55 1 9.69478 0.984687 0
56 1 45.9736 26.0664 0
57 1 67.417 43.0971 0
58 1 69.897 69.1561 0
59 1 34.2637 2.20719 0
60 1 28.6501 3.64804 0
61 1 40.5588 75.9458 0
62 1 52.1989 44.85 0
63 1 57.2441 9.87371 0
64 1 50.6732 45.5965 0
65 1 67.0039 73.743 0
66 2 56.0168 11.4005 0
67 2 40.6783 35.9803 0
68 2 0.941132 29.2442 0
69 1 62.0116 45.3514 0
70 1 8.33577 35.6279 0
71 2 7.43606 42.3114 0
72 1 76.9279 3.42481 0
73 1 6.15345 64.2327 0
74 2 41.5529 22.8294 0
75 1 75.4493 53.2853 0
76 1 19.7023 46.7992 0
77 1 25.1143 74.4902 0
78 1 3.67071 15.5006 0
79 1 12.6533 73.4031 0
80 1 43.5277 16.5392 0
81 1 55.0112 62.1072 0
82 2 44.4031 16.6046 0
83 1 5.72483 32.9808 0
84 1 33.0706 45.8017 0
85 1 34.5818 20.8509 0
86 2 34.6559 64.833 0
87 1 71.5462 34.7841 0
88 1 18.3988 54.6656 0
89 1 27.7965 13.1575 0
90 1 37.4432 37.8999 0
91 2 45.8544 41.0904 0
92 2 41.2714 56.0524 0
93 1 27.8112 16.9896 0
94 1 33.459 55.7282 0
95 2 39.0488 56.7132 0
96 1 65.2336 1.3211 0
97 1 44.2035 49.0809 0
98 2 2.83329 60.2203 0
99 1 61.7623 48.1932 0
100 2 32.4448 30.8969 0
101 1 47.7406 54.3681 0
102 1 56.0713 21.5297 0
103 1 56.6563 70.3342 0
104 1 2.67636 61.1145 0
105 2 40.2012 2.98763 0
106 2 30.4494 34.8846 0
107 1 13.12 31.3108 0
108 1 0.76617 0.87819 0
109 1 35.6652 41.7216 0
110 2 65.17 25.4748 0
111 1 66.0478 12.0428 0
112 1 34.1626 72.8957 0
113 2 0.188775 60.5155 0
114 2 74.5359 29.5674 0
115 2 30.4326 12.9236 0
116 2 74.6081 53.5767 0
117 1 16.1362 45.8371 0
118 2 46.8534 26.4768 0
119 1 62.8126 0.111216 0
120 2 5.98802 49.8992 0
121 1 6.30604 3.51556 0
122 1 19.935 33.1338 0
123 2 5.46879 17.6645 0
124 1 46.4029 57.2908 0
125 1 31.7153 27.4151 0
126 1 58.0191 52.1781 0
127 1 4.40276 58.937 0
128 1 14.4504 23.4178 0
129 1 16.5076 52.1089 0
130 1 7.32409 2.08194 0
131 1 59.1348 24.8666 0
132 2 31.0448 41.8233 0
133 2 52.6611 7.05505 0
134 1 65.6252 51.0224 0
135 1 31.5543 30.5187 0
136 2 55.0942 46.4739 0
137 1 61.6557 56.6522 0
138 2 70.4282 48.0027 0
139 1 68.3837 27.2922 0
140 1 3.51564 21.7374 0
141 2 48.1363 63.5774 0
142 1 6.53437 22.5961 0
143 2 40.5133 70.0563 0
144 2 47.4609 75.2236 0
145 2 18.3672 52.9194 0
146 1 54.9113 4.07783 0
147 1 9.3354 39.0013 0
148 1 46.3466 53.358 0
149 2 67.9511 49.1631 0
150 1 32.7643 56.5501 0
151 2 29.5252 13.953 0
152 1 48.943 63.2374 0
153 2 17.3146 46.363 0
154 2 31.6486 72.2787 0
155 1 70.5368 48.9854 0
156 1 43.5348 10.3243 0
157 1 49.3522 71.1052 0
158 1 60.252 69.1647 0
159 2 10.5093 26.0271 0
160 1 38.2267 17.5063 0
161 1 7.18381 63.5886 0
162 2 72.6979 23.9607 0
163 1 30.6088 27.2064 0
164 1 60.157 29.4453 0
165 1 75.7046 27.7721 0
166 1 1.96377 44.8184 0
167 1 39.2732 0.891127 0
168 1 38.4899 72.8524 0
169 1 56.7755 30.9531 0
170 1 57.4037 0.946323 0
171 2 36.8003 61.0368 0
172 2 33.5697 53.8027 0
173 2 43.9056 24.4013 0
174 2 27.4819 55.9107 0
175 2 30.8847 26.3995 0
176 1 46.2405 16.2224 0
177 1 19.5898 58.5393 0
178 1 61.9162 61.2871 0
179 1 64.6628 24.7971 0
180 2 33.3628 39.6948 0
181 1 45.2761 27.5591 0
182 1 61.7326 58.592 0
183 2 11.9897 37.3751 0
184 1 5.20077 67.5679 0
185 2 67.1826 29.3973 0
186 1 59.1122 35.044 0
187 1 39.5519 46.545 0
188 1 57.3289 47.5348 0
189 2 63.7453 53.0003 0
190 1 23.2024 4.04068 0
191 1 71.7777 8.12164 0
192 1 65.5249 10.3133 0
193 2 10.8622 41.6045 0
194 2 68.5887 69.0965 0
195 1 11.1462 3.26977 0
196 2 49.5802 54.8528 0
197 2 20.2558 9.89339 0
198 1 13.2958 61.2868 0
199 2 75.7643 66.2107 0
200 1 59.8541 27.6477 0
201 2 34.7313 1.29691 0
202 2 74.5199 55.2137 0
203 1 52.317 65.5789 0
204 1 29.6703 3.89879 0
205 1 56.1137 26.0169 0
206 2 35.7729 37.0268 0
207 2 13.962 9.53424 0
208 1 33.724 14.0023 0
209 1 12.2685 11.6007 0
210 2 5.37442 20.4798 0
211 1 17.3003 8.14027 0
212 2 24.943 6.20102 0
213 2 55.9485 27.9986 0
214 1 71.0656 57.7327 0
215 2 67.1293 22.341 0
216 1 20.6927 73.5632 0
217 1 59.6159 34.1206 0
218 2 54.6722 58.5 0
219 2 67.9167 42.386 0
220 2 42.5701 63.893 0
221 1 18.948 45.3126 0
222 1 44.9828 12.4071 0
223 2 39.0721 67.7336 0
224 2 27.8233 68.7417 0
225 1 32.4655 23.8007 0
226 2 66.3283 57.145 0
227 2 6.00948 16.3382 0
228 1 34.6276 9.29008 0
229 1 70.9685 26.7921 0
230 1 32.2576 74.6811 0
231 1 10.6031 34.3146 0
232 1 41.9854 12.8826 0
233 1 34.9769 7.61028 0
234 1 76.0608 8.31412 0
235 1 60.7282 59.0277 0
236 2 44.7354 70.3338 0
237 1 77.2551 62.3525 0
238 2 9.24108 21.4134 0
239 1 58.4066 2.75432 0
240 2 61.6408 46.2256 0
241 1 47.3675 66.7232 0
242 1 18.5381 30.6118 0
243 1 7.22324 56.3082 0
244 1 61.1719 64.2561 0
245 1 10.8875 30.7796 0
246 1 1.90872 35.5462 0
247 1 65.5725 49.9729 0
248 1 12.4189 0.801158 0
249 2 50.271 41.0828 0
250 1 29.1253 9.44556 0
251 2 57.9161 50.1592 0
252 2 65.8754 23.1842 0
253 1 19.8269 17.5941 0
254 1 54.4592 25.018 0
255 1 65.5356 42.8452 0
256 1 31.4855 8.58692 0
257 1 22.1558 57.9448 0
258 1 26.0498 38.7455 0
259 1 55.6008 56.7783 0
260 2 43.9228 53.8094 0
261 2 26.5169 62.5785 0
262 1 24.3348 33.7646 0
263 2 12.6255 34.589 0
264 2 71.3968 59.9754 0
265 1 76.9875 46.7114 0
266 1 38.2134 44.8226 0
267 2 61.6707 24.5375 0
268 2 56.6612 45.801 0
269 1 48.0945 21.0573 0
270 2 9.00457 47.0437 0
271 2 22.6628 33.6589 0
272 2 20.401 14.2245 0
273 1 14.9217 65.0743 0
274 1 32.2621 49.961 0
275 1 8.66899 48.9586 0
276 1 75.2689 10.0503 0
277 2 15.6144 71.2982 0
278 1 7.51322 17.3973 0
279 1 4.44955 44.354 0
280 1 20.2892 35.875 0
281 1 30.6305 38.585 0
282 2 75.9474 26.5002 0
283 1 76.3835 55.6616 0
284 2 54.2879 38.2838 0
285 1 70.9382 52.8527 0
286 1 11.2712 63.3273 0
287 1 19.0591 76.8131 0
288 2 75.8354 3.84717 0
289 2 21.304 39.1535 0
290 2 69.0867 76.4322 0
291 1 35.2626 22.6238 0
292 1 27.691 58.4691 0
293 1 47.3601 18.9655 0
294 1 40.4223 2.14718 0
295 1 69.6179 2.96687 0
296 2 74.117 8.27291 0
297 1 40.2434 59.9341 0
298 1 72.5978 35.1281 0
299 2 49.2481 36.6049 0
300 1 39.1862 43.8638 0
301 1 73.5355 19.6355 0
302 1 50.8833 35.246 0
303 1 20.4559 32.2212 0
304 1 60.5597 72.392 0
305 2 59.0554 75.9445 0
306 1 62.9991 52.5601 0
307 2 73.2701 38.8052 0
308 1 41.5414 5.14305 0
309 2 24.9997 16.8548 0
310 2 13.4545 13.0017 0
311 1 29.2605 49.5286 0
312 1 67.318 61.6195 0
313 1 74.7165 76.163 0
314 1 40.5732 46.032 0
315 2 56.3523 31.7327 0
316 2 39.4447 63.3733 0
317 1 50.8376 20.5955 0
318 2 7.02731 31.2292 0
319 1 30.9677 25.479 0
320 1 36.0965 61.6012 0
321 1 58.7138 68.3697 0
322 2 74.0185 11.7544 0
323 2 25.1551 63.4668 0
324 1 64.2702 41.4941 0
325 1 41.2599 6.22291 0
326 1 9.64575 58.9658 0
327 1 48.7296 54.7471 0
328 1 0.740125 37.0053 0
329 1 41.6924 42.6437 0
330 2 51.6726 34.9273 0
331 2 69.758 3.81612 0
332 1 59.4133 28.7079 0
333 1 36.9544 12.301 0
334 1 16.9858 34.8139 0
335 1 20.4599 38.747 0
336 2 72.2636 74.4112 0
337 1 34.7879 33.7542 0
338 2 17.1431 1.64659 0
339 1 42.4559 68.3568 0
340 1 18.8037 57.8139 0
341 2 73.9645 44.2195 0
342 1 66.9923 5.95069 0
343 2 56.4851 49.7815 0
344 2 22.9998 66.0981 0
345 1 7.91949 27.7715 0
346 1 17.4697 71.8093 0
347 1 35.4009 56.5726 0
348 1 56.5752 18.8619 0
349 1 33.7524 20.1845 0
350 1 37.2111 31.1819 0
351 1 17.968 53.7321 0
352 1 47.8943 30.7994 0
353 1 75.3902 25.8332 0
354 2 22.5492 26.2974 0
355 2 43.4599 18.2503 0
356 2 11.8989 2.79244 0
357 1 68.4579 67.4563 0
358 1 24.2483 3.78476 0
359 1 22.3258 14.4851 0
360 2 45.2632 31.3476 0
361 2 48.1466 67.2424 0
362 1 27.1815 74.5872 0
363 2 38.0023 73.5299 0
364 1 13.1335 66.6053 0
365 2 8.90545 57.1657 0
366 1 24.9118 50.5288 0
367 2 19.7626 23.4905 0
368 2 51.3947 54.9615 0
369 2 65.1638 70.5608 0
370 1 3.41903 28.1982 0
371 1 46.1302 73.431 0
372 2 40.526 9.95832 0
373 1 10.4485 31.7558 0
374 2 66.5875 41.341 0
375 1 52.2617 52.7828 0
376 2 75.4409 43.2455 0
377 2 58.1846 38.0763 0
378 1 20.4929 63.7705 0
379 1 13.855 20.2633 0
380 1 9.80101 62.5058 0
381 1 26.7021 23.3603 0
382 1 30.7646 23.7328 0
383 1 9.61262 11.7633 0
384 1 34.8551 51.6733 0
385 1 28.5176 77.1482 0
386 1 54.9506 40.219 0
387 1 59.5629 76.629 0
388 2 55.9421 57.6984 0
389 1 24.5634 56.6793 0
390 1 29.5406 13.0717 0
391 2 59.8332 26.7491 0
392 2 30.0817 10.2718 0
393 2 38.6612 64.85 0
394 1 10.2483 73.7595 0
395 1 53.1851 21.9307 0
396 1 13.7978 70.4568 0
397 1 46.8231 17.1654 0
398 1 45.5309 70.7301 0
399 1 70.0067 18.046 0
400 1 59.8491 74.1857 0
401 1 44.5152 11.4817 0
402 2 56.6101 16.9827 0
403 1 38.2407 51.6654 0
404 1 69.2758 70.8543 0
405 2 73.8112 76.3297 0
406 1 34.2671 19.2315 0
407 2 45.7202 21.7211 0
408 1 63.5048 30.418 0
409 1 18.603 61.3225 0
410 2 67.4329 16.7366 0
411 2 66.6061 36.5156 0
412 1 58.9082 38.6537 0
413 1 7.00786 36.5756 0
414 1 71.2636 48.2312 0
415 1 6.97945 41.6206 0
416 2 73.8118 62.3722 0
417 2 75.1469 12.6558 0
418 1 54.2799 30.0885 0
419 2 56.5248 47.0379 0
420 2 24.8054 55.8467 0
421 1 60.2624 19.4202 0
422 1 2.05364 71.3736 0
423 1 4.20391 11.9772 0
424 1 60.6569 26.9491 0
425 1 58.7779 50.443 0
426 1 56.1782 73.7312 0
427 2 39.5839 14.8115 0
428 1 51.5725 50.1692 0
429 1 59.2069 71.068 0
430 1 36.6367 37.1017 0
431 1 0.0842843 29.4885 0
432 1 63.2052 49.1305 0
433 1 29.2242 69.4799 0
434 1 1.71719 42.8971 0
435 1 64.0912 34.2647 0
436 2 67.9981 39.1076 0
437 2 43.6961 59.4958 0
438 1 38.854 61.6557 0
439 2 41.1752 12.6483 0
440 1 43.3186 43.6416 0
441 2 66.635 15.3314 0
442 1 9.55527 37.9918 0
443 1 54.611 16.8453 0
444 1 16.6458 75.3848 0
445 2 69.3889 67.4898 0
446 1 61.5571 42.2346 0
447 1 27.0775 70.8412 0
448 1 46.8675 37.6516 0
449 1 37.1528 73.2695 0
450 2 48.0648 59.7447 0
451 2 6.52966 61.8326 0
452 1 66.6436 11.2017 0
453 1 28.6839 76.0348 0
454 2 62.7222 29.9389 0
455 2 26.5888 67.988 0
456 1 11.2923 44.579 0
457 2 18.686 1.88025 0
458 1 38.0767 77.0951 0
459 2 15.5412 56.8617 0
460 1 5.46593 4.21639 0
461 2 27.3326 27.0394 0
462 1 45.8824 24.2534 0
463 1 75.8864 69.7511 0
464 1 9.06218 47.8965 0
465 2 40.7112 45.1885 0
466 1 21.7574 12.8088 0
467 2 11.6504 1.34082 0
468 1 19.3493 36.3662 0
469 1 1.91353 2.18971 0
470 1 61.7336 10.5064 0
471 2 74.0052 40.9387 0
472 1 25.5702 43.0211 0
473 1 61.63 65.8545 0
474 1 33.4567 54.6745 0
475 1 22.4661 59.8635 0
476 2 39.0386 32.0919 0
477 1 60.5283 11.6406 0
478 2 33.2031 74.6802 0
479 1 33.39 22.3165 0
480 1 19.881 25.6891 0
481 1 7.1876 18.6049 0
482 1 10.947 25.2454 0
483 2 1.14098 1.68141 0
484 1 14.309 38.2802 0
485 1 21.3002 57.2018 0
486 1 7.12977 4.60036 0
487 2 70.8932 10.352 0
488 1 58.7586 5.59251 0
489 1 52.3952 15.2375 0
490 1 35.4646 31.1164 0
491 1 30.5604 42.6182 0
492 2 61.1889 9.77731 0
493 1 73.3861 8.8117 0
494 1 67.6502 32.0359 0
495 2 22.4381 49.272 0
496 2 52.7401 42.2003 0
497 2 40.7326 6.90894 0
498 1 23.5879 25.9445 0
499 1 35.7697 74.3833 0
500 1 2.77347 4.1801 0
501 2 45.4699 43.4919 0
502 1 16.737 24.8494 0
503 1 50.3104 9.79218 0
504 1 37.075 32.7403 0
505 2 26.659 77.0391 0
506 2 17.6605 65.2418 0
507 1 42.0383 37.3786 0
508 1 12.8963 32.7079 0
509 1 28.9892 24.8702 0
510 1 6.93943 38.7167 0
511 1 69.2633 26.6727 0
512 1 54.4938 53.3395 0
513 1 11.8224 34.2979 0
514 1 25.4002 64.34 0
515 2 61.3512 11.3269 0
516 2 11.3295 38.6542 0
517 2 74.4455 74.7229 0
518 2 19.212 54.347 0
519 2 33.3544 1.93657 0
520 1 74.3711 37.1507 0
521 1 42.2022 24.4432 0
522 2 24.4604 66.105 0
523 1 77.2507 12.2198 0
524 1 70.5222 34.6197 0
525 1 22.9007 77.4497 0
526 2 76.5781 22.2341 0
527 1 49.5255 26.0743 0
528 2 74.685 5.06835 0
529 2 35.2729 45.2259 0
530 1 7.88482 59.6377 0
531 2 76.3829 69.0262 0
532 2 32.1905 60.7896 0
533 1 73.0796 5.63646 0
534 1 34.5179 27.2082 0
535 1 29.0919 19.275 0
536 1 32.6944 65.9625 0
537 1 35.0998 47.9337 0
538 2 16.4168 21.6881 0
539 2 46.1729 76.7585 0
540 1 61.0192 40.6367 0
541 2 25.0514 8.02297 0
542 1 51.2434 56.6421 0
543 2 69.6111 55.6989 0
544 2 51.9646 10.5028 0
545 1 28.3261 22.8779 0
546 1 34.4249 3.28715 0
547 1 10.284 14.3392 0
548 2 23.6425 3.18562 0
549 2 65.5037 21.8191 0
550 2 5.18087 39.3959 0
551 1 30.4385 8.35422 0
552 2 70.5206 40.2889 0
553 2 29.5877 44.8609 0
554 1 51.609 62.2184 0
555 1 50.3167 57.2442 0
556 1 73.0181 68.0905 0
557 1 61.958 53.8553 0
558 1 2.59884 68.597 0
559 1 72.4993 36.218 0
560 2 21.4377 61.5353 0
561 1 5.6894 0.645775 0
562 2 4.61633 11.1503 0
563 2 54.0816 48.7696 0
564 1 70.2334 68.1164 0
565 2 21.8872 1.34687 0
566 2 18.1099 23.88 0
567 1 48.8806 42.051 0
568 2 22.8827 74.0295 0
569 2 15.6659 27.5061 0
570 1 73.1385 34.1616 0
571 1 0.526683 3.4953 0
572 2 6.67093 48.5457 0
573 2 0.0351214 44.9211 0
574 1 3.80827 69.142 0
575 1 18.2557 7.65044 0
576 1 16.3989 63.195 0
577 1 43.4084 50.5042 0
578 2 67.6546 34.2672 0
579 2 45.9554 69.0179 0
580 1 62.6945 42.7277 0
581 1 6.58309 60.7874 0
582 2 68.7052 59.5507 0
583 2 64.0347 58.5987 0
584 2 33.4869 65.6322 0
585 1 60.9858 77.3621 0
586 1 48.7623 58.5801 0
587 2 14.6581 21.7408 0
588 1 49.5413 5.27032 0
589 2 53.6684 10.2756 0
590 1 24.7509 73.4863 0
591 1 56.1784 6.52745 0
592 1 48.6439 74.3084 0
593 1 43.9819 13.0634 0
594 1 59.7991 63.2773 0
595 1 72.0953 65.369 0
596 2 7.17125 1.21225 0
597 1 3.45923 44.0359 0
598 1 69.1148 9.21787 0
599 1 2.63956 51.044 0
600 1 0.186727 47.5711 0
601 2 42.0595 36.1354 0
602 1 62.2027 14.3995 0
603 2 71.0401 50.9231 0
604 2 62.2494 16.6154 0
605 1 52.4233 69.1592 0
606 1 41.577 3.97391 0
607 1 76.3491 1.37511 0
608 2 1.25619 40.3897 0
609 2 40.9117 0.377087 0
610 1 7.80289 49.8202 0
611 1 53.8036 58.817 0
612 1 76.7949 6.22827 0
613 1 77.0203 23.0489 0
614 2 50.5695 28.4212 0
615 1 34.5157 38.8463 0
616 1 39.7397 16.1264 0
617 1 68.7982 2.2966 0
618 2 11.9087 42.7113 0
619 2 55.1267 42.4442 0
620 2 70.8172 74.0059 0
621 2 58.5418 35.6771 0
622 1 60.2005 18.3104 0
623 1 37.4872 11.4466 0
624 2 20.3849 54.7949 0
625 1 27.0776 76.265 0
626 1 73.8392 29.0051 0
627 2 2.31619 25.052 0
628 1 28.6408 58.0578 0
629 2 77.3561 25.5314 0
630 1 29.2965 73.1873 0
631 1 56.9635 37.053 0
632 1 21.6965 65.0938 0
633 2 25.6347 72.0424 0
634 1 18.8497 50.6335 0
635 2 41.3912 43.6705 0
636 2 37.0802 40.8627 0
637 1 11.334 11.0215 0
638 1 67.3204 40.8581 0
639 1 70.1714 46.2552 0
640 1 0.210464 53.9596 0
641 1 36.4766 33.6502 0
642 1 9.6068 33.8902 0
643 1 50.2963 44.6327 0
644 2 19.3281 27.3816 0
645 1 56.9552 52.2023 0
646 1 46.1913 47.1115 0
647 2 23.7461 10.3969 0
648 1 64.3661 12.4965 0
649 2 10.7229 69.0486 0
650 2 47.0093 61.9606 0
651 1 46.1489 12.0977 0
652 1 29.6752 70.9802 0
653 2 13.6103 23.1886 0
654 2 10.3723 3.71903 0
655 1 5.50732 51.8802 0
656 1 72.7846 53.8988 0
657 1 33.7714 46.5861 0
658 1 71.6313 13.2032 0
659 2 0.889727 66.2177 0
660 1 26.6529 35.6633 0
661 1 37.2995 9.83343 0
662 1 32.738 60.0773 0
663 1 10.5587 28.6871 0
664 1 58.4051 75.4341 0
665 2 49.3077 76.8337 0
666 2 12.7599 58.3313 0
667 1 26.4758 73.7532 0
668 2 7.70735 76.2206 0
669 1 4.33811 9.23845 0
670 2 43.9159 37.7045 0
671 2 37.3059 17.4854 0
672 1 9.88735 19.5872 0
673 1 6.91632 16.5349 0
674 1 32.6569 42.6565 0
675 2 4.83067 58.1343 0
676 2 38.0634 6.3262 0
677 1 41.3583 54.052 0
678 1 53.8 39.0008 0
679 1 46.7695 69.4696 0
680 1 31.6587 53.7027 0
681 1 26.3115 54.0627 0
682 1 62.3548 59.4962 0
683 1 17.9764 59.3023 0
684 1 64.4099 68.8826 0
685 2 35.9249 18.7025 0
686 1 50.2571 6.22817 0
687 1 41.578 18.8601 0
688 2 53.6184 73.6435 0
689 1 72.0484 62.4474 0
690 1 66.1223 72.2465 0
691 1 41.7116 40.0364 0
692 2 59.8862 43.9732 0
693 1 71.3569 77.0702 0
694 2 53.6911 64.1907 0
695 1 42.2674 11.8677 0
696 2 35.6449 47.1889 0
697 1 25.6645 13.2871 0
698 1 8.46117 3.36894 0
699 1 66.6902 13.9501 0
700 1 71.9728 46.9762 0
701 1 64.1475 31.2288 0
702 1 63.6187 65.2212 0
703 2 72.0789 2.35039 0
704 2 8.16586 61.4063 0
705 2 4.96171 7.25975 0
706 1 52.2848 51.6946 0
707 2 59.7727 38.5528 0
708 1 50.3118 43.0223 0
709 1 51.6862 73.1669 0
710 2 60.2472 28.5523 0
711 1 55.9711 54.0732 0
712 2 62.878 32.6845 0
713 2 68.4207 70.4348 0
714 2 0.647274 64.9369 0
715 1 45.2758 18.8527 0
716 1 76.4683 29.8367 0
717 1 29.8573 63.5065 0
718 1 14.341 3.71954 0
719 1 53.3124 36.885 0
720 2 49.2187 38.4762 0
721 2 66.8305 39.8185 0
722 1 49.0364 7.98497 0
723 2 39.9669 75.3104 0
724 2 10.2931 59.6087 0
725 1 50.7362 39.1919 0
726 1 8.24459 29.88 0
727 2 12.9598 1.50547 0
728 1 67.4308 55.4976 0
729 2 21.6003 59.791 0
730 1 32.7992 27.5475 0
731 2 16.5801 36.4209 0
732 1 16.2969 54.2358 0
733 1 29.8368 29.6448 0
734 2 66.5303 46.5043 0
735 1 66.6679 67.236 0
736 1 47.8709 49.2934 0
737 2 4.03351 45.8266 0
738 1 13.6271 34.3824 0
739 1 17.8508 37.5261 0
740 1 48.4447 37.9908 0
741 2 57.2118 55.5896 0
742 1 59.0005 37.5402 0
743 1 27.2825 62.1456 0
744 2 72.8382 19.0231 0
745 1 23.1796 72.729 0
746 1 35.1908 10.1685 0
747 1 47.6544 76.0838 0
748 2 43.1175 69.9376 0
749 2 22.3304 24.5397 0
750 1 55.3824 35.0209 0
751 1 57.7494 40.1691 0
752 2 2.4235 70.5 0
753 1 53.0543 39.757 0
754 2 21.7116 15.2402 0
755 1 23.9577 49.9381 0
756 2 49.4736 75.8753 0
757 1 48.3698 19.353 0
758 1 6.04763 9.64663 0
759 1 61.7394 47.1125 0
760 1 12.2653 10.5646 0
761 1 69.8845 71.7268 0
762 1 15.1361 57.648 0
763 2 77.1615 7.03304 0
764 1 75.0534 57.0583 0
765 2 47.0078 56.6902 0
766 1 63.3033 22.7187 0
767 1 13.7774 1.23255 0
768 1 65.2379 8.1105 0
769 1 61.6558 50.1137 0
770 2 60.4352 73.5232 0
771 1 18.8413 39.9843 0
772 1 44.9953 51.1699 0
773 1 40.5743 43.3724 0
774 2 32.6552 25.7412 0
775 1 71.7155 30.5714 0
776 2 43.7066 42.8487 0
777 1 70.3547 55.2997 0
778 2 10.3684 63.1943 0
779 1 45.3381 25.2237 0
780 1 17.0672 6.27854 0
781 1 29.5615 35.1883 0
782 1 57.4552 64.7676 0
783 1 60.6547 35.5814 0
784 1 70.8149 50.0438 0
785 2 8.92659 11.2331 0
786 1 73.2615 70.1856 0
787 1 21.0212 66.5003 0
788 1 39.8971 54.8249 0
789 1 11.045 4.36346 0
790 1 52.3592 70.2731 0
791 1 45.7848 13.1831 0
792 1 8.6342 25.0605 0
793 1 25.198 14.899 0
794 2 71.404 16.6301 0
795 2 75.6017 14.0866 0
796 2 75.6291 67.897 0
797 1 44.4904 65.3857 0
798 1 38.4221 19.0858 0
799 1 44.3037 76.3669 0
800 1 30.6476 70.4985 0
801 2 6.53634 25.9126 0
802 2 28.0416 45.503 0
803 2 23.7107 77.1327 0
804 2 52.6072 36.0322 0
805 1 23.8667 71.9225 0
806 1 53.2244 70.879 0
807 2 39.8253 50.4662 0
808 1 50.4656 47.1927 0
809 2 36.3355 62.3863 0
810 1 58.4682 76.6286 0
811 1 28.733 61.0664 0
812 2 59.7168 48.265 0
813 2 46.2652 58.1652 0
814 1 54.3457 31.2385 0
815 2 41.0354 17.0076 0
816 1 27.9911 34.5851 0
817 1 67.736 75.7698 0
818 2 36.7779 16.1138 0
819 2 45.7056 56.748 0
820 1 66.8711 69.7091 0
821 1 16.6971 64.8526 0
822 1 56.733 76.7866 0
823 1 17.0345 55.7057 0
824 2 35.2192 42.4548 0
825 1 29.1807 41.5712 0
826 1 32.876 75.5111 0
827 1 7.34311 26.1654 0
828 1 76.8751 51.142 0
829 1 72.0942 40.3006 0
830 2 47.8308 64.5678 0
831 2 43.3623 4.54909 0
832 1 74.0211 14.2432 0
833 1 24.4541 43.4257 0
834 2 48.6689 5.60042 0
835 1 68.4212 6.62243 0
836 1 58.0559 27.6601 0
837 1 56.3592 41.2243 0
838 1 38.9838 52.9901 0
839 1 15.9951 60.3308 0
840 2 15.691 46.613 0
841 1 36.8387 52.6413 0
842 2 10.9726 61.2357 0
843 1 5.42243 42.3706 0
844 1 63.5655 21.5862 0
845 2 27.9446 2.2598 0
846 1 49.6552 39.3192 0
847 1 10.8993 57.7547 0
848 2 69.0848 47.6982 0
849 1 74.1042 10.9115 0
850 1 67.9448 19.735 0
851 1 39.4156 18.6598 0
852 1 12.23 1.98706 0
853 1 42.4015 61.606 0
854 1 37.7047 69.7281 0
855 1 39.6256 25.6209 0
856 2 18.5957 41.993 0
857 1 57.8786 33.9131 0
858 2 34.4101 28.8628 0
859 1 12.949 64.7946 0
860 2 2.01558 58.6705 0
861 2 60.2903 40.2063 0
862 2 2.97068 69.344 0
863 1 59.0442 23.6775 0
864 1 60.2217 53.7982 0
865 2 66.1211 67.9636 0
866 1 60.3979 17.1618 0
867 2 31.5312 21.9416 0
868 1 37.1412 61.9173 0
869 1 62.1475 20.1552 0
870 1 0.0563052 52.8285 0
871 1 62.7274 26.0913 0
872 1 42.3295 50.7601 0
873 1 50.5222 62.5156 0
874 1 3.95656 71.6652 0
875 1 34.0992 57.7465 0
876 2 51.5537 8.01343 0
877 1 13.3261 55.624 0
878 2 14.751 16.075 0
879 1 76.6183 13.958 0
880 2 31.7238 33.7197 0
881 2 51.9257 29.4346 0
882 2 48.1591 73.5248 0
883 1 25.7196 20.0655 0
884 1 56.0471 36.4605 0
885 1 38.9679 5.0399 0
886 1 36.9887 60.1305 0
887 2 54.831 50.2285 0
888 1 0.377296 76.6401 0
889 2 59.1816 49.7135 0
890 2 7.74388 25.2931 0
891 1 38.1136 10.5567 0
892 1 40.0669 67.7833 0
893 1 30.0024 53.6394 0
894 1 77.0975 14.9106 0
895 2 32.3256 53.0731 0
896 1 37.6505 2.51032 0
897 2 35.6792 17.0955 0
898 1 31.1302 43.5744 0
899 1 2.00504 75.8164 0
900 2 38.7429 0.239127 0
901 1 52.392 41.355 0
902 1 24.3637 75.2642 0
903 1 37.8884 40.6276 0
904 2 0.0312836 37.5639 0
905 1 63.6592 61.9842 0
906 1 68.8835 44.851 0
907 1 3.78109 29.7889 0
908 1 50.7958 23.8227 0
909 1 0.364302 48.7316 0
910 2 1.79997 50.7636 0
911 2 4.66498 4.53219 0
912 2 36.176 32.7667 0
913 2 31.928 51.4959 0
914 1 18.3322 12.8741 0
915 2 64.7314 5.54841 0
916 1 3.34934 39.8765 0
917 2 4.87884 33.4518 0
918 2 19.4886 35.4854 0
919 1 8.10952 57.7646 0
920 1 15.8893 47.6172 0
921 1 0.17534 26.6646 0
922 2 50.7826 18.8591 0
923 2 12.3719 24.3637 0
924 1 39.2748 17.625 0
925 1 66.2114 47.3162 0
926 2 35.5138 35.3271 0
927 1 68.7989 0.130934 0
928 1 52.169 58.9829 0
929 2 52.047 32.1835 0
930 2 19.9616 15.765 0
931 1 40.919 47.5885 0
932 1 70.3271 39.122 0
933 1 34.4216 21.9954 0
934 1 1.96738 60.276 0
935 1 11.3915 50.6326 0
936 2 42.2143 4.56107 0
937 1 14.2883 73.1868 0
938 1 36.6966 67.7058 0
939 2 50.5098 51.2638 0
940 1 75.8783 46.8878 0
941 1 77.2837 17.482 0
942 1 37.9706 29.8382 0
943 2 22.2808 16.6632 0
944 2 1.98834 41.993 0
945 1 40.5844 25.2393 0
946 1 64.5313 67.158 0
947 2 25.2041 2.08513 0
948 1 39.3365 68.5332 0
949 1 26.8862 11.6179 0
950 2 5.07101 9.76342 0
951 1 68.8534 65.6168 0
952 2 52.4378 2.80387 0
953 2 7.82554 44.8142 0
954 2 29.8334 62.6537 0
955 1 27.1375 38.5862 0
956 2 58.8631 10.9456 0
957 1 48.472 23.6356 0
958 2 19.577 2.77628 0
959 2 73.6759 24.985 0
960 2 29.1842 66.8916 0
961 1 49.4688 52.0762 0
962 1 24.447 1.62405 0
963 1 16.3756 12.4921 0
964 2 8.63662 9.53651 0
965 2 53.7114 53.7333 0
966 1 0.752032 62.817 0
967 1 49.8754 35.6123 0
968 1 18.3781 0.15754 0
969 1 58.0565 23.364 0
970 2 22.5737 4.74995 0
971 1 21.2682 14.4564 0
972 1 6.88589 25.0991 0
973 1 0.833928 35.9265 0
974 2 0.907778 35.0519 0
975 2 72.9481 65.4626 0
976 2 34.7301 19.9951 0
977 1 35.9848 63.3954 0
978 2 3.16929 77.1591 0
979 2 36.124 65.8183 0
980 1 73.0121 14.248 0
981 1 73.7125 58.0618 0
982 1 7.82381 54.7129 0
983 1 18.4408 24.7004 0
984 1 9.15642 57.9981 0
985 1 34.5969 11.1108 0
986 1 37.8982 52.6444 0
987 2 18.1949 12.031 0
988 2 42.2749 34.8155 0
989 2 9.82362 34.7801 0
990 2 69.8807 51.6688 0
991 2 46.2942 14.7846 0
992 1 62.4037 34.5788 0
993 2 29.1796 5.79826 0
994 2 1.82474 54.9824 0
995 1 38.9124 22.3559 0
996 2 54.7317 56.8806 0
997 2 43.561 30.9235 0
998 2 60.318 74.9446 0
999 2 39.4024 26.5129 0
1000 2 0.543333 49.5912 0
1001 1 41.7275 65.5015 0
1002 1 23.3923 34.3522 0
1003 1 9.52865 54.2332 0
1004 1 7.64377 22.4469 0
1005 2 10.7518 23.6637 0
1006 2 67.812 60.8435 0
1007 1 18.8518 20.3464 0
1008 1 47.7942 16.8658 0
1009 1 31.1326 33.0317 0
1010 1 11.4775 43.5044 0
1011 2 10.491 22.3196 0
1012 2 2.29095 23.1817 0
1013 2 65.0686 55.8398 0
1014 1 74.2607 15.456 0
1015 1 76.0836 9.35654 0
1016 1 37.1896 48.1287 0
1017 2 68.7786 54.238 0
1018 1 26.2005 25.0503 0
1019 1 44.3593 28.998 0
1020 2 32.6073 6.30579 0
1021 2 15.9258 24.5403 0
1022 1 4.81776 60.8928 0
1023 1 41.1372 9.34541 0
1024 1 9.42759 67.7411 0
1025 1 37.0231 65.9018 0
1026 1 7.90365 40.1278 0
1027 1 47.4491 2.50888 0
1028 1 1.92571 32.8926 0
1029 1 49.0292 18.1239 0
1030 2 46.8889 48.0273 0
1031 2 37.5393 37.0399 0
1032 1 16.4293 73.2127 0
1033 1 57.5963 19.1854 0
1034 1 35.1402 29.3126 0
1035 1 65.7955 28.356 0
1036 2 73.5842 45.9105 0
1037 1 31.316 73.1595 0
1038 1 68.59 60.4159 0
1039 1 5.49265 31.9432 0
1040 2 64.9973 34.2512 0
1041 1 35.4296 65.2255 0
1042 2 62.7492 68.0863 0
1043 2 60.6414 58.1856 0
1044 1 67.7999 23.4383 0
1045 1 66.802 23.172 0
1046 1 41.1082 68.2377 0
1047 2 9.90089 47.791 0
1048 1 53.5989 77.4328 0
1049 1 59.7898 49.0997 0
1050 2 45.5146 6.42697 0
1051 1 43.6206 31.7954 0
1052 1 66.0987 44.6001 0
1053 2 32.6876 18.5136 0
1054 1 55.1733 7.09155 0
1055 2 32.882 46.6697 0
1056 2 14.6538 45.2351 0
1057 1 12.0592 71.7225 0
1058 1 27.4903 5.96973 0
1059 1 9.23189 75.2409 0
1060 2 21.7729 42.0472 0
1061 1 10.1177 23.1162 0
1062 2 16.8795 41.4255 0
1063 1 0.0450122 67.8698 0
1064 1 23.3803 5.05833 0
1065 2 29.6857 52.8591 0
1066 1 37.3864 46.4116 0
1067 1 13.9683 10.427 0
1068 2 35.5745 67.1598 0
1069 1 67.9734 24.4756 0
1070 2 8.17268 34.3735 0
1071 2 49.4812 42.6891 0
1072 2 9.49447 48.6574 0
1073 2 16.4677 3.56471 0
1074 2 33.7834 45.3122 0
1075 1 75.8505 49.7627 0
1076 1 41.2142 7.61986 0
1077 1 41.8493 32.6472 0
1078 2 71.6766 26.2043 0
1079 2 39.0238 10.8193 0
1080 2 30.1116 72.8689 0
1081 2 45.9609 49.0594 0
1082 2 6.30187 27.5683 0
1083 2 21.6286 20.0078 0
1084 1 44.2518 57.6437 0
1085 1 19.1763 52.3423 0
1086 1 70.1547 67.0815 0
1087 1 29.6054 72.0818 0
1088 1 44.7631 63.0202 0
1089 2 8.46094 31.6586 0
1090 1 43.0385 34.4263 0
1091 2 27.6855 17.8968 0
1092 1 63.0484 53.6266 0
1093 1 69.1673 32.9569 0
1094 2 43.4928 55.2634 0
1095 1 25.4012 71.1244 0
1096 2 48.1931 18.5401 0
1097 1 76.272 17.6699 0
1098 1 62.6894 43.8094 0
1099 1 31.1366 5.03699 0
1100 1 67.8428 1.91305 0
1101 1 74.9138 11.74 0
1102 1 26.1011 74.8436 0
1103 1 51.5032 70.9714 0
1104 1 47.1638 58.0607 0
1105 1 48.1858 40.0843 0
1106 1 16.5016 71.4147 0
1107 2 45.2299 62.2925 0
1108 1 55.5822 31.2626 0
1109 1 72.8255 24.8719 0
1110 2 14.9647 11.7336 0
1111 1 2.44939 56.9844 0
1112 1 76.2001 18.6881 0
1113 2 75.5176 7.59973 0
1114 2 14.2684 53.4869 0
1115 2 32.865 49.377 0
1116 1 77.2053 64.7291 0
1117 1 66.8445 56.4144 0
1118 1 12.3514 75.5912 0
1119 2 11.1121 64.6538 0
1120 1 41.3319 58.0736 0
1121 2 21.2948 64.2764 0
1122 1 32.0952 32.5417 0
1123 2 23.001 51.8974 0
1124 1 52.6868 61.9818 0
1125 2 14.8443 4.41854 0
1126 2 15.4625 20.2199 0
1127 1 74.6448 24.1114 0
1128 1 67.2715 52.0921 0
1129 1 60.8752 39.5782 0
1130 1 30.5413 47.2154 0
1131 1 62.5322 15.4214 0
1132 2 75.9282 63.6998 0
1133 2 56.076 22.3885 0
1134 2 20.9283 72.0428 0
1135 1 0.858701 68.4927 0
1136 2 51.2755 26.8097 0
1137 1 50.8701 61.4667 0
1138 1 30.3669 13.8082 0
1139 2 57.4592 52.8968 0
1140 2 9.04087 22.8956 0
1141 1 74.9118 65.6217 0
1142 1 27.0514 52.3425 0
1143 1 48.2079 44.7935 0
1144 2 60.8583 16.4166 0
1145 1 37.9664 62.5587 0
1146 1 15.5083 18.8561 0
1147 1 28.3277 25.7098 0
1148 1 10.8412 36.7354 0
1149 1 57.4833 29.2953 0
1150 2 65.3321 61.0731 0
1151 1 22.0937 3.92066 0
1152 1 59.7156 52.0261 0
1153 1 71.7064 29.5021 0
1154 1 14.0231 4.76594 0
1155 2 60.1469 20.3281 0
1156 1 44.6718 32.1425 0
1157 1 12.3594 18.1065 0
1158 2 58.2366 47.763 0
1159 2 5.59364 70.5602 0
1160 1 33.0875 7.76842 0
1161 2 43.9985 56.6362 0
1162 1 15.8745 9.93516 0
1163 2 13.4506 73.0301 0
1164 1 23.926 58.8784 0
1165 1 20.9453 45.4107 0
1166 2 15.1261 50.67 0
1167 1 28.1029 20.399 0
1168 1 56.4009 64.5251 0
1169 1 19.6141 66.7757 0
1170 2 6.27972 33.6677 0
1171 1 48.562 33.8539 0
1172 1 22.9933 6.6773 0
1173 1 51.6417 63.9588 0
1174 1 38.9084 29.2962 0
1175 2 62.6033 44.6795 0
1176 1 68.3899 36.5235 0
1177 1 48.5991 69.9297 0
1178 2 61.0993 47.6623 0
1179 1 72.3819 32.6567 0
1180 1 52.117 17.8781 0
1181 1 54.3489 22.8851 0
1182 1 60.9125 74.2201 0
1183 2 43.1957 73.4109 0
1184 2 28.1554 22.0183 0
1185 1 17.5402 63.2893 0
1186 1 48.9532 49.4741 0
1187 1 73.8721 72.2765 0
1188 2 4.78456 37.7064 0
1189 1 60.745 65.2461 0
1190 1 28.3639 51.3962 0
1191 2 72.3769 5.0681 0
1192 1 24.6451 47.1007 0
1193 1 47.6448 17.8882 0
1194 2 16.6421 16.0773 0
1195 1 74.1225 48.9215 0
1196 1 21.8086 49.8389 0
1197 1 35.5227 38.8966 0
1198 1 62.4684 76.5057 0
1199 2 57.7814 62.4662 0
1200 1 27.0658 8.89136 0
1201 1 2.88695 73.2064 0
1202 1 5.85211 48.8563 0
1203 2 47.523 12.301 0
1204 1 57.4965 56.5214 0
1205 1 66.6164 50.1893 0
1206 1 52.1632 5.04984 0
1207 1 31.7738 62.8548 0
1208 1 75.3276 58.0852 0
1209 2 65.3542 59.6664 0
1210 1 69.7662 31.9709 0
1211 2 24.6885 35.4556 0
1212 1 33.7052 36.2336 0
1213 1 61.2796 68.9058 0
1214 1 61.729 23.6166 0
1215 1 11.6816 72.7426 0
1216 1 11.2195 49.513 0
1217 2 67.2383 2.56509 0
1218 2 61.5654 20.9298 0
1219 1 30.1629 15.5446 0
1220 1 61.896 18.0484 0
1221 1 61.6275 54.8288 0
1222 2 66.3157 74.4239 0
1223 1 42.4194 48.0837 0
1224 1 0.658355 34.1475 0
1225 1 2.90541 25.6346 0
1226 2 65.8039 64.7445 0
1227 1 41.4614 56.9796 0
1228 1 76.1282 70.8102 0
1229 2 47.982 9.29821 0
1230 1 25.586 49.6649 0
1231 2 53.0205 18.0693 0
1232 1 67.8089 38.2079 0
1233 1 38.5732 58.5708 0
1234 1 1.7452 67.8908 0
1235 1 18.1159 45.9846 0
1236 1 52.267 62.9983 0
1237 1 37.9129 20.7345 0
1238 1 24.9298 7.13886 0
1239 1 12.8844 22.7013 0
1240 1 24.4454 62.9265 0