ITEM: TIMESTEP
0
ITEM: NUMBER OF ATOMS
7200
ITEM: BOX BOUNDS xy xz yz pp pp pp
0.0000000000000000e+00 7.7459666924100006e+01 0.0000000000000000e+00
0.0000000000000000e+00 7.7459666924100006e+01 0.0000000000000000e+00
-1.2909944490000000e-01 1.2909944490000000e-01 0.0000000000000000e+00
ITEM: ATOMS id type x y z
1 1 12.1518 20.1512 0
2 1 14.9199 63.9685 0
3 1 75.2287 71.1278 0
4 1 20.4042 7.97626 0
5 1 34.6287 55.9342 0
6 1 56.6943 28.6154 0
7 2 5.49515 3.23677 0
8 2 64.7438 46.433 0
9 1 42.1137 56.1337 0
10 2 19.0643 14.6796 0
11 2 25.4211 53.2091 0
12 1 55.1448 11.6877 0
13 2 23.2515 5.97826 0
14 1 46.5499 70.6951 0
15 1 39.3342 31.3493 0
16 1 18.1794 14.8812 0
17 1 31.3764 40.0818 0
18 1 33.7412 5.83386 0
19 1 27.0056 57.7634 0
20 2 44.9222 3.70916 0
21 1 12.2575 65.8905 0
22 1 54.3085 10.9901 0
23 1 75.7412 45.7342 0
24 1 55.9206 66.4086 0
25 1 6.63173 70.9088 0
26 1 21.1064 67.611 0
27 2 29.023 63.743 0
28 1 51.2941 74.2611 0
29 2 22.4313 48.0039 0
30 2 25.2566 32.0741 0
31 1 15.1018 53.3753 0
32 1 51.0958 37.9665 0
33 1 60.8102 48.5727 0
34 2 45.3359 9.7188 0
35 1 75.2639 63.1652 0
36 1 30.6463 59.9216 0
37 1 22.3 61.443 0
38 1 45.7949 19.7939 0
39 1 22.4091 5.66639 0
40 2 24.8483 59.2919 0
41 2 18.5149 64.6416 0
42 1 21.1217 1.10673 0
43 1 18.8554 33.5203 0
44 1 34.3937 62.699 0
45 1 3.23636 34.5132 0
46 1 68.2602 7.67729 0
47 1 73.538 59.1366 0
48 1 44.2186 68.293 0
49 2 0.0121682 4.0888 0
50 1 31.1088 66.6469 0
51 1 1.37694 9.89769 0
52 2 33.1162 24.2229 0
53 1 53.5388 18.7296 0
54 1 49.6316 30.3014 0
55 1 9.7445 0.963061 0
56 1 45.9394 25.9834 0
57 1 67.4603 42.9438 0
58 1 69.8789 69.2088 0
59 1 34.2125 2.18619 0
60 1 28.599 3.32075 0
61 1 40.4344 75.9207 0
62 1 52.1475 44.9911 0
63 1 57.1856 9.99342 0
64 1 50.5628 45.7126 0
65 1 66.8903 73.6997 0
66 2 56.0079 11.4796 0
67 2 40.6351 35.8582 0
68 2 0.781307 29.0557 0
69 1 62.0514 45.4944 0
70 1 8.47558 35.4744 0
71 2 7.54126 42.2044 0
72 1 76.9781 3.39274 0
73 1 6.36409 64.2284 0
74 2 41.5923 22.8283 0
75 1 75.4796 53.3352 0
76 1 19.6616 46.9681 0
77 1 25.0462 74.471 0
78 1 3.55625 15.6343 0
79 1 12.6815 73.3858 0
80 1 43.4687 16.6417 0
81 1 55.1197 62.3221 0
82 2 44.3718 16.646 0
83 1 5.61212 32.9945 0
84 1 33.0813 45.7059 0
85 1 34.5646 20.7544 0
86 2 34.7318 64.6798 0
87 1 71.505 34.6868 0
88 1 18.5178 54.7403 0
89 1 27.789 13.1556 0
90 1 37.4604 37.8316 0
91 2 45.9241 40.9507 0
92 2 41.2569 56.0517 0
93 1 27.8052 16.8921 0
94 1 33.5213 55.6674 0
95 2 39.2138 56.6897 0
96 1 65.1862 1.42904 0
97 1 44.1655 49.0577 0
98 2 2.93839 60.0905 0
99 1 61.8397 48.3015 0
100 2 32.3633 30.7527 0
101 1 47.7107 54.3299 0
102 1 55.9767 21.6276 0
103 1 56.7461 70.4711 0
104 1 2.80397 60.9663 0
105 2 40.0923 3.01862 0
106 2 30.4021 34.8139 0
107 1 13.2267 31.2864 0
108 1 0.836499 0.711704 0
109 1 35.6271 41.4944 0
110 2 65.1283 25.5776 0
111 1 66.0844 12.0263 0
112 1 34.2118 72.7596 0
113 2 0.379494 60.4035 0
114 2 74.5744 29.4604 0
115 2 30.4464 12.8081 0
116 2 74.6675 53.6426 0
117 1 16.2002 45.9609 0
118 2 46.7933 26.4632 0
119 1 62.5935 0.209254 0
120 2 6.00901 49.8194 0
121 1 6.34175 3.48596 0
122 1 19.8375 33.1031 0
123 2 5.37959 17.6725 0
124 1 46.4062 57.1891 0
125 1 31.6399 27.2597 0
126 1 57.9772 52.1609 0
127 1 4.51834 58.9716 0
128 1 14.4364 23.3548 0
129 1 16.5369 52.2577 0
130 1 7.35714 2.00519 0
131 1 59.0904 24.8468 0
132 2 31.0222 41.8847 0
133 2 52.7483 6.9736 0
134 1 65.7492 50.9977 0
135 1 31.549 30.3334 0
136 2 55.1736 46.5048 0
137 1 61.7132 56.7283 0
138 2 70.5281 47.9481 0
139 1 68.3392 27.2507 0
140 1 3.50499 21.9076 0
141 2 48.1094 63.4551 0
142 1 6.46994 22.7575 0
143 2 40.7003 70.0699 0
144 2 47.2149 75.3964 0
145 2 18.4076 52.9578 0
146 1 54.9045 4.09698 0
147 1 9.37034 38.9636 0
148 1 46.334 53.392 0
149 2 68.0066 49.1706 0
150 1 32.8472 56.5342 0
151 2 29.5089 13.8521 0
152 1 48.9284 63.0661 0
153 2 17.3876 46.4215 0
154 2 31.5907 72.1531 0
155 1 70.5634 48.8684 0
156 1 43.5095 10.2983 0
157 1 49.2521 71.1339 0
158 1 60.2867 69.2405 0
159 2 10.4679 26.0654 0
160 1 38.1777 17.462 0
161 1 7.21833 63.5551 0
162 2 72.5872 23.9529 0
163 1 30.5403 27.0904 0
164 1 60.2354 29.4996 0
165 1 75.6456 27.7811 0
166 1 2.06009 44.7801 0
167 1 39.2244 0.879236 0
168 1 38.5142 72.789 0
169 1 56.7342 30.9374 0
170 1 57.2808 1.04313 0
171 2 36.8308 61.1388 0
172 2 33.6854 53.7249 0
173 2 43.7996 24.3567 0
174 2 27.5144 55.9843 0
175 2 30.8642 26.2529 0
176 1 46.2091 16.2992 0
177 1 19.6997 58.5967 0
178 1 61.9128 61.4113 0
179 1 64.5735 24.9245 0
180 2 33.2195 39.5705 0
181 1 45.1661 27.5253 0
182 1 61.7173 58.6797 0
183 2 12.1727 37.4439 0
184 1 5.25286 67.4032 0
185 2 67.1689 29.5226 0
186 1 59.027 34.9968 0
187 1 39.5172 46.3836 0
188 1 57.2906 47.735 0
189 2 63.7582 53.1065 0
190 1 23.3032 4.06228 0
191 1 71.8079 7.96219 0
192 1 65.5428 10.3159 0
193 2 10.9175 41.6499 0
194 2 68.8687 69.1397 0
195 1 11.1651 3.23015 0
196 2 49.5323 54.9803 0
197 2 20.2525 10.001 0
198 1 13.345 61.1906 0
199 2 75.7606 66.2556 0
200 1 59.9806 27.6925 0
201 2 34.6334 1.39572 0
202 2 74.5126 55.2903 0
203 1 52.4092 65.7953 0
204 1 29.6082 3.7949 0
205 1 56.1266 26.0745 0
206 2 35.6856 36.9435 0
207 2 13.9692 9.46467 0
208 1 33.75 13.9932 0
209 1 12.1902 11.5104 0
210 2 5.32744 20.5686 0
211 1 17.2248 8.10557 0
212 2 24.8507 6.27543 0
213 2 55.9656 28.0632 0
214 1 71.2105 57.6803 0
215 2 66.962 22.3791 0
216 1 20.6835 73.6477 0
217 1 59.5758 34.1076 0
218 2 54.7993 58.6134 0
219 2 68.0368 42.2628 0
220 2 42.789 63.8349 0
221 1 19.0063 45.3532 0
222 1 44.9424 12.484 0
223 2 39.1611 67.6636 0
224 2 27.7848 68.6631 0
225 1 32.4027 23.7104 0
226 2 66.4002 57.185 0
227 2 6.11525 16.3539 0
228 1 34.4989 9.32152 0
229 1 71.0641 26.8334 0
230 1 32.2007 74.4638 0
231 1 10.8082 34.3652 0
232 1 42.0966 12.9239 0
233 1 34.8927 7.58239 0
234 1 76.1359 8.25787 0
235 1 60.6964 59.0731 0
236 2 44.8174 70.3651 0
237 1 77.2028 62.3048 0
238 2 9.16225 21.4725 0
239 1 58.3493 2.82307 0
240 2 61.6215 46.2973 0
241 1 47.3989 66.6013 0
242 1 18.4734 30.5711 0
243 1 7.26402 56.2879 0
244 1 61.2698 64.365 0
245 1 11.0084 30.7934 0
246 1 1.95199 35.5753 0
247 1 65.543 49.9669 0
248 1 12.397 0.728293 0
249 2 50.4548 41.1816 0
250 1 29.0816 9.42339 0
251 2 57.7237 50.2356 0
252 2 65.8146 23.2837 0
253 1 19.8722 17.5915 0
254 1 54.3335 25.0714 0
255 1 65.6007 42.841 0
256 1 31.3936 8.51101 0
257 1 22.209 57.8765 0
258 1 26.0997 38.7801 0
259 1 55.6086 56.8667 0
260 2 43.9912 53.793 0
261 2 26.323 62.6358 0
262 1 24.3275 33.7447 0
263 2 12.6179 34.755 0
264 2 71.486 59.9819 0
265 1 77.0876 46.7334 0
266 1 38.1349 44.7039 0
267 2 61.6488 24.6191 0
268 2 56.7884 45.9986 0
269 1 48.141 21.0379 0
270 2 9.00511 47.0418 0
271 2 22.4746 33.6717 0
272 2 20.4519 14.3763 0
273 1 14.9437 65.0566 0
274 1 32.2828 50.0155 0
275 1 8.59965 48.9413 0
276 1 75.3175 10.0725 0
277 2 15.6093 71.3658 0
278 1 7.52668 17.5246 0
279 1 4.54274 44.3638 0
280 1 20.3782 35.8174 0
281 1 30.6004 38.547 0
282 2 75.836 26.3583 0
283 1 76.4687 55.8173 0
284 2 54.245 38.4018 0
285 1 70.9987 52.7764 0
286 1 11.4008 63.333 0
287 1 19.1032 76.8044 0
288 2 75.8883 3.85857 0
289 2 21.3421 39.1827 0
290 2 69.1861 76.4381 0
291 1 35.1341 22.6162 0
292 1 27.7394 58.5743 0
293 1 47.3643 18.9693 0
294 1 40.3051 2.17503 0
295 1 69.644 3.09666 0
296 2 74.1608 8.28536 0
297 1 40.3889 59.8106 0
298 1 72.4552 35.191 0
299 2 49.2356 36.5365 0
300 1 39.1696 43.7712 0
301 1 73.4758 19.6443 0
302 1 50.8566 35.2262 0
303 1 20.4264 32.1439 0
304 1 60.6014 72.4249 0
305 2 58.8278 75.9897 0
306 1 63.0142 52.615 0
307 2 73.334 38.7552 0
308 1 41.6114 5.24895 0
309 2 24.9115 16.9273 0
310 2 13.3169 12.9555 0
311 1 29.2783 49.5343 0
312 1 67.4009 61.631 0
313 1 74.7007 76.1077 0
314 1 40.5585 45.9357 0
315 2 56.4478 31.8701 0
316 2 39.5974 63.3459 0
317 1 50.858 20.5504 0
318 2 7.11636 31.2982 0
319 1 30.8731 25.3478 0
320 1 36.1438 61.6411 0
321 1 58.7267 68.4741 0
322 2 74.074 11.8168 0
323 2 25.0683 63.5027 0
324 1 64.372 41.5359 0
325 1 41.3047 6.21439 0
326 1 9.72388 58.9371 0
327 1 48.6543 54.7929 0
328 1 0.771669 37.1246 0
329 1 41.6027 42.5637 0
330 2 51.7218 34.8412 0
331 2 69.849 3.97807 0
332 1 59.5882 28.6619 0
333 1 37.0085 12.2487 0
334 1 17.0469 34.7907 0
335 1 20.6019 38.7616 0
336 2 72.1665 74.495 0
337 1 34.6148 33.6953 0
338 2 17.1547 1.6089 0
339 1 42.5436 68.3897 0
340 1 18.8999 57.8845 0
341 2 74.0909 44.2055 0
342 1 67.0262 5.96019 0
343 2 56.4136 49.8855 0
344 2 22.8503 66.0084 0
345 1 7.97052 27.7403 0
346 1 17.5095 71.7726 0
347 1 35.4373 56.5717 0
348 1 56.5474 18.9035 0
349 1 33.7263 20.1019 0
350 1 37.0994 31.1495 0
351 1 18.0237 53.7816 0
352 1 47.8591 30.7891 0
353 1 75.3135 25.71 0
354 2 22.5104 26.2401 0
355 2 43.3623 18.2889 0
356 2 11.9129 2.72856 0
357 1 68.5886 67.5025 0
358 1 24.3183 3.75725 0
359 1 22.3521 14.6357 0
360 2 45.1968 31.2579 0
361 2 48.0973 67.1874 0
362 1 27.1054 74.6089 0
363 2 38.113 73.5627 0
364 1 13.2422 66.4445 0
365 2 9.06334 57.1301 0
366 1 24.913 50.6255 0
367 2 19.7446 23.3928 0
368 2 51.3603 55.0141 0
369 2 65.2744 70.6195 0
370 1 3.3226 28.3247 0
371 1 46.0316 73.4913 0
372 2 40.5229 9.94124 0
373 1 10.5715 31.7569 0
374 2 66.6269 41.3263 0
375 1 52.2142 52.7821 0
376 2 75.5416 43.1849 0
377 2 58.1179 38.1581 0
378 1 20.4293 63.753 0
379 1 13.8899 20.2371 0
380 1 9.86844 62.4751 0
381 1 26.6127 23.3073 0
382 1 30.6587 23.6445 0
383 1 9.542 11.7781 0
384 1 34.9059 51.6979 0
385 1 28.4462 77.1079 0
386 1 54.8101 40.4653 0
387 1 59.4397 76.5936 0
388 2 55.9218 57.7208 0
389 1 24.7019 56.682 0
390 1 29.5055 13.0194 0
391 2 59.9142 26.8247 0
392 2 30.0527 10.0844 0
393 2 38.7741 64.918 0
394 1 10.1506 73.7275 0
395 1 53.1265 21.9151 0
396 1 13.7609 70.4382 0
397 1 46.714 17.2575 0
398 1 45.5294 70.8399 0
399 1 70.0239 17.9899 0
400 1 59.7908 74.3029 0
401 1 44.5579 11.4675 0
402 2 56.6222 17.0085 0
403 1 38.238 51.5641 0
404 1 69.2528 71.0035 0
405 2 73.857 76.3312 0
406 1 34.211 19.0917 0
407 2 45.6726 21.7136 0
408 1 63.5207 30.545 0
409 1 18.6297 61.2578 0
410 2 67.4527 16.7167 0
411 2 66.5838 36.6059 0
412 1 58.8479 38.6914 0
413 1 7.0588 36.5083 0
414 1 71.3809 48.1782 0
415 1 7.07246 41.4696 0
416 2 73.7561 62.3857 0
417 2 75.1858 12.685 0
418 1 54.2911 30.0788 0
419 2 56.5954 47.224 0
420 2 24.86 55.8399 0
421 1 60.3418 19.4104 0
422 1 2.08012 71.362 0
423 1 4.19423 12.0301 0
424 1 60.8163 26.9121 0
425 1 58.8023 50.5408 0
426 1 56.0494 73.7371 0
427 2 39.5565 14.8305 0
428 1 51.4779 50.2532 0
429 1 59.2403 71.0984 0
430 1 36.5718 37.0874 0
431 1 0.0296317 29.5026 0
432 1 63.5732 49.0536 0
433 1 29.1803 69.479 0
434 1 1.89445 42.8024 0
435 1 64.0227 34.2521 0
436 2 68.0027 39.0696 0
437 2 43.786 59.4009 0
438 1 39.0549 61.6584 0
439 2 41.251 12.6208 0
440 1 43.3006 43.5364 0
441 2 66.6494 15.2746 0
442 1 9.62721 37.8893 0
443 1 54.5624 16.9569 0
444 1 16.8086 75.4592 0
445 2 69.5236 67.5804 0
446 1 61.6099 42.286 0
447 1 26.9572 70.8346 0
448 1 46.8871 37.5706 0
449 1 37.1695 73.236 0
450 2 48.2416 59.5328 0
451 2 6.56408 61.6859 0
452 1 66.7046 11.1818 0
453 1 28.6878 76.0505 0
454 2 62.6509 30.0414 0
455 2 26.5454 67.8924 0
456 1 11.3739 44.561 0
457 2 18.7447 1.85522 0
458 1 38.0453 77.0979 0
459 2 15.6385 56.7224 0
460 1 5.48033 4.10863 0
461 2 27.2173 26.9774 0
462 1 45.8015 24.3367 0
463 1 75.8831 69.705 0
464 1 9.0554 47.8706 0
465 2 40.7058 45.0794 0
466 1 21.7451 12.9499 0
467 2 11.6234 1.24037 0
468 1 19.3112 36.3632 0
469 1 1.96829 2.09481 0
470 1 61.7627 10.5835 0
471 2 73.9338 40.9324 0
472 1 25.5714 43.1427 0
473 1 61.6826 65.943 0
474 1 33.5647 54.608 0
475 1 22.4268 59.6848 0
476 2 38.8606 32.1011 0
477 1 60.5227 11.706 0
478 2 33.2053 74.4539 0
479 1 33.4095 22.3169 0
480 1 19.8591 25.6612 0
481 1 7.18313 18.6189 0
482 1 10.9257 25.2609 0
483 2 1.15683 1.57356 0
484 1 14.4286 38.3267 0
485 1 21.3711 57.2039 0
486 1 7.16603 4.61267 0
487 2 70.9486 10.2977 0
488 1 58.6802 5.70262 0
489 1 52.3116 15.251 0
490 1 35.3833 31.1006 0
491 1 30.5295 42.6569 0
492 2 61.2027 9.89957 0
493 1 73.3888 8.77576 0
494 1 67.6127 32.1295 0
495 2 22.539 49.0957 0
496 2 52.7558 42.1004 0
497 2 40.7565 6.86663 0
498 1 23.4708 25.9129 0
499 1 35.8238 74.4122 0
500 1 2.73656 4.09455 0
501 2 45.4598 43.3509 0
502 1 16.7133 24.757 0
503 1 50.2782 9.93118 0
504 1 36.9193 32.6695 0
505 2 26.6161 77.0498 0
506 2 17.544 65.2145 0
507 1 41.9262 37.2699 0
508 1 13.0604 32.7908 0
509 1 28.8357 24.7668 0
510 1 7.09035 38.6925 0
511 1 69.2789 26.688 0
512 1 54.4797 53.3506 0
513 1 11.8552 34.3391 0
514 1 25.2832 64.3783 0
515 2 61.3223 11.3379 0
516 2 11.438 38.6373 0
517 2 74.4216 74.6305 0
518 2 19.2957 54.3092 0
519 2 33.3053 1.89664 0
520 1 74.5222 37.0988 0
521 1 42.0726 24.5206 0
522 2 24.443 66.1529 0
523 1 77.2697 12.2134 0
524 1 70.4252 34.7255 0
525 1 22.9099 77.4515 0
526 2 76.4452 22.3561 0
527 1 49.455 26.1891 0
528 2 74.6538 5.01382 0
529 2 35.1366 45.1052 0
530 1 7.8661 59.5218 0
531 2 76.3806 68.9772 0
532 2 32.2245 60.8987 0
533 1 73.0764 5.57574 0
534 1 34.4177 27.1647 0
535 1 29.0155 19.2234 0
536 1 32.6656 65.8512 0
537 1 34.9722 47.7925 0
538 2 16.4496 21.588 0
539 2 46.0123 76.892 0
540 1 60.8272 40.6709 0
541 2 25.05 8.04788 0
542 1 51.3189 56.828 0
543 2 69.605 55.5314 0
544 2 51.938 10.5598 0
545 1 28.2678 22.7955 0
546 1 34.3167 3.22477 0
547 1 10.2257 14.3868 0
548 2 23.6852 3.15516 0
549 2 65.507 21.8541 0
550 2 5.22639 39.3562 0
551 1 30.3422 8.21227 0
552 2 70.5326 40.2935 0
553 2 29.5411 44.9838 0
554 1 51.769 62.3158 0
555 1 50.3855 57.3554 0
556 1 73.0275 68.0922 0
557 1 61.9725 54.0061 0
558 1 2.59215 68.5508 0
559 1 72.7236 36.2348 0
560 2 21.372 61.4805 0
561 1 5.68615 0.569757 0
562 2 4.47847 11.0982 0
563 2 54.0187 48.8186 0
564 1 70.3094 68.2091 0
565 2 21.9225 1.41994 0
566 2 18.0873 23.8039 0
567 1 48.918 42.0754 0
568 2 22.8671 74.1547 0
569 2 15.6232 27.4713 0
570 1 73.1781 34.2666 0
571 1 0.640487 3.47533 0
572 2 6.70865 48.4708 0
573 2 0.0996856 44.9021 0
574 1 3.82961 68.9615 0
575 1 18.289 7.66891 0
576 1 16.3974 63.081 0
577 1 43.3287 50.4892 0
578 2 67.5918 34.2498 0
579 2 45.9602 69.0701 0
580 1 62.6718 42.7126 0
581 1 6.68203 60.7898 0
582 2 68.6907 59.6241 0
583 2 64.1054 58.7666 0
584 2 33.5125 65.4967 0
585 1 60.8592 0.0748586 0
586 1 48.669 58.6728 0
587 2 14.6337 21.7189 0
588 1 49.55 5.25135 0
589 2 53.6851 10.4192 0
590 1 24.6612 73.4075 0
591 1 56.1662 6.59261 0
592 1 48.4923 74.3034 0
593 1 44.0308 13.14 0
594 1 59.8948 63.4428 0
595 1 72.243 65.4383 0
596 2 7.20832 1.15246 0
597 1 3.57193 43.9311 0
598 1 69.1429 9.25972 0
599 1 2.64142 51.0064 0
600 1 0.26703 47.6094 0
601 2 42.0847 36.098 0
602 1 62.2123 14.4027 0
603 2 71.0625 50.8437 0
604 2 62.3148 16.5555 0
605 1 52.4173 69.2527 0
606 1 41.546 4.02414 0
607 1 76.4045 1.40209 0
608 2 1.41534 40.2197 0
609 2 40.8039 0.411579 0
610 1 7.8718 49.7316 0
611 1 53.9512 58.8246 0
612 1 76.7901 6.21845 0
613 1 76.9238 23.1033 0
614 2 50.4068 28.4891 0
615 1 34.419 38.8647 0
616 1 39.7142 16.1061 0
617 1 68.809 2.49633 0
618 2 12.0579 42.7374 0
619 2 55.1646 42.47 0
620 2 70.8472 73.9458 0
621 2 58.5613 35.6895 0
622 1 60.1742 18.2848 0
623 1 37.4927 11.3162 0
624 2 20.446 54.8478 0
625 1 27.0453 76.2871 0
626 1 73.7917 29.0815 0
627 2 2.26734 25.1021 0
628 1 28.7478 58.0417 0
629 2 77.3988 25.5051 0
630 1 29.1828 73.174 0
631 1 56.8768 37.1966 0
632 1 21.594 65.0406 0
633 2 25.5603 72.0066 0
634 1 18.8135 50.7619 0
635 2 41.4063 43.5667 0
636 2 36.9619 40.7033 0
637 1 11.1324 10.9963 0
638 1 67.3432 40.8195 0
639 1 70.2815 46.2445 0
640 1 0.204474 54.0221 0
641 1 36.4342 33.6254 0
642 1 9.80472 33.8501 0
643 1 50.1611 44.7097 0
644 2 19.3392 27.3122 0
645 1 56.913 52.3087 0
646 1 46.2417 46.9689 0
647 2 23.7781 10.4834 0
648 1 64.333 12.4598 0
649 2 10.786 69.0538 0
650 2 47.1746 62.0366 0
651 1 46.0205 12.2565 0
652 1 29.6246 70.9033 0
653 2 13.6074 23.1522 0
654 2 10.3696 3.68354 0
655 1 5.55362 51.7994 0
656 1 72.8277 53.8024 0
657 1 33.7557 46.5156 0
658 1 71.5603 13.1037 0
659 2 0.901612 66.1976 0
660 1 26.7091 35.6051 0
661 1 37.305 9.75614 0
662 1 32.7876 60.1152 0
663 1 10.7312 28.6669 0
664 1 58.2752 75.3515 0
665 2 49.1419 76.982 0
666 2 12.7954 58.2377 0
667 1 26.3993 73.7808 0
668 2 7.75266 76.1354 0
669 1 4.35715 9.17491 0
670 2 43.7785 37.7704 0
671 2 37.3236 17.5212 0
672 1 9.90624 19.6393 0
673 1 6.94843 16.5827 0
674 1 32.6526 42.4712 0
675 2 4.85387 58.136 0
676 2 38.0863 6.27111 0
677 1 41.3775 54.046 0
678 1 53.7106 39.0872 0
679 1 46.6743 69.6042 0
680 1 31.7416 53.5901 0
681 1 26.3202 54.0734 0
682 1 62.3592 59.547 0
683 1 18.069 59.3074 0
684 1 64.4938 68.9472 0
685 2 35.9383 18.7703 0
686 1 50.4133 6.21302 0
687 1 41.5533 18.9912 0
688 2 53.5699 73.6995 0
689 1 72.0986 62.4074 0
690 1 66.0838 72.2538 0
691 1 41.7209 39.8183 0
692 2 59.9412 44.0427 0
693 1 71.2954 77.004 0
694 2 53.7529 64.3909 0
695 1 42.4036 11.8578 0
696 2 35.5541 47.1335 0
697 1 25.7243 13.3483 0
698 1 8.46085 3.36468 0
699 1 66.6543 13.8808 0
700 1 72.0607 46.8703 0
701 1 64.1119 31.396 0
702 1 63.6916 65.327 0
703 2 71.9729 2.37481 0
704 2 8.257 61.3664 0
705 2 4.98 7.17246 0
706 1 52.1976 51.724 0
707 2 59.6214 38.3765 0
708 1 50.3535 43.0678 0
709 1 51.6003 73.2505 0
710 2 60.4716 28.6863 0
711 1 55.9652 54.1914 0
712 2 62.8064 32.8266 0
713 2 68.467 70.5638 0
714 2 0.61784 64.8252 0
715 1 45.227 18.9208 0
716 1 76.4744 29.8346 0
717 1 29.8562 63.4399 0
718 1 14.2892 3.61255 0
719 1 53.3315 36.9248 0
720 2 49.1829 38.3602 0
721 2 66.8357 39.8908 0
722 1 49.1017 7.98408 0
723 2 39.8817 75.2719 0
724 2 10.3551 59.5495 0
725 1 50.7089 39.24 0
726 1 8.26446 30.0292 0
727 2 13.0096 1.36992 0
728 1 67.4942 55.5528 0
729 2 21.4936 59.6464 0
730 1 32.7172 27.4716 0
731 2 16.6209 36.452 0
732 1 16.4406 54.3709 0
733 1 29.7834 29.4762 0
734 2 66.5896 46.4517 0
735 1 66.6767 67.2627 0
736 1 47.8705 49.4357 0
737 2 4.14341 45.7707 0
738 1 13.6019 34.4103 0
739 1 18.0144 37.5435 0
740 1 48.4947 37.8707 0
741 2 57.2547 55.6658 0
742 1 58.9188 37.6727 0
743 1 27.1174 62.0869 0
744 2 72.8071 19.0047 0
745 1 23.1182 72.7188 0
746 1 35.0714 10.1952 0
747 1 47.5013 76.1916 0
748 2 43.2542 69.9372 0
749 2 22.2931 24.4803 0
750 1 55.3149 35.0254 0
751 1 57.7431 40.2121 0
752 2 2.45035 70.5048 0
753 1 52.9907 39.855 0
754 2 21.798 15.2842 0
755 1 24.0739 49.9615 0
756 2 49.4001 75.9288 0
757 1 48.3464 19.3916 0
758 1 6.02955 9.6199 0
759 1 61.7578 47.1871 0
760 1 12.1574 10.4278 0
761 1 69.9243 71.7684 0
762 1 15.2076 57.5097 0
763 2 77.17 6.99858 0
764 1 75.0894 57.0911 0
765 2 47.0926 56.6093 0
766 1 63.3011 22.7259 0
767 1 13.7856 1.10224 0
768 1 65.3605 8.16291 0
769 1 61.7591 50.0339 0
770 2 60.4584 73.7366 0
771 1 18.8458 39.9574 0
772 1 44.9301 51.0909 0
773 1 40.6611 43.1505 0
774 2 32.5479 25.7193 0
775 1 71.7129 30.642 0
776 2 43.5954 42.6288 0
777 1 70.4223 55.2205 0
778 2 10.5339 63.0553 0
779 1 45.2478 25.1976 0
780 1 17.0966 6.26332 0
781 1 29.6134 35.1353 0
782 1 57.5676 64.923 0
783 1 60.6075 35.558 0
784 1 70.8665 49.9656 0
785 2 8.86932 11.2519 0
786 1 73.1838 70.206 0
787 1 20.9524 66.5613 0
788 1 39.8522 54.7584 0
789 1 10.9945 4.28842 0
790 1 52.1095 70.3189 0
791 1 45.7938 13.2891 0
792 1 8.59316 25.0141 0
793 1 25.2499 14.9664 0
794 2 71.3358 16.6549 0
795 2 75.6755 14.0933 0
796 2 75.6121 67.8527 0
797 1 44.3824 65.3151 0
798 1 38.4056 19.1132 0
799 1 44.2448 76.4643 0
800 1 30.6383 70.4737 0
801 2 6.47743 26.0268 0
802 2 28.0894 45.5323 0
803 2 23.7205 77.1314 0
804 2 52.5958 35.9677 0
805 1 23.8081 71.9057 0
806 1 53.0201 70.9125 0
807 2 39.881 50.3488 0
808 1 50.4072 47.1519 0
809 2 36.3044 62.4657 0
810 1 58.3115 76.6879 0
811 1 28.7546 61.0246 0
812 2 59.7209 48.3215 0
813 2 46.1764 58.0694 0
814 1 54.3463 31.1249 0
815 2 40.9923 17.1044 0
816 1 28.0183 34.4516 0
817 1 67.7038 75.9155 0
818 2 36.8755 16.0785 0
819 2 45.6536 56.7021 0
820 1 66.9555 69.823 0
821 1 16.6916 64.7866 0
822 1 56.6538 76.8704 0
823 1 17.1676 55.7348 0
824 2 35.3592 42.3588 0
825 1 29.1703 41.6114 0
826 1 32.8655 75.2647 0
827 1 7.29248 26.2047 0
828 1 76.852 51.0748 0
829 1 72.156 40.286 0
830 2 47.9355 64.5654 0
831 2 43.3502 4.62533 0
832 1 73.9977 14.2825 0
833 1 24.4962 43.357 0
834 2 48.6156 5.59361 0
835 1 68.5107 6.67842 0
836 1 58.2027 27.6658 0
837 1 56.2724 41.2715 0
838 1 38.9798 52.8172 0
839 1 16.0102 60.268 0
840 2 15.7473 46.7228 0
841 1 36.9242 52.5706 0
842 2 11.0225 61.2826 0
843 1 5.55906 42.2659 0
844 1 63.4805 21.5856 0
845 2 27.94 2.23865 0
846 1 49.4782 39.2498 0
847 1 10.9624 57.6699 0
848 2 69.0301 47.7323 0
849 1 74.1708 10.9283 0
850 1 67.9674 19.781 0
851 1 39.3932 18.7138 0
852 1 12.2894 1.85704 0
853 1 42.4965 61.4747 0
854 1 37.6728 69.6653 0
855 1 39.4302 25.6439 0
856 2 18.8864 41.9095 0
857 1 57.817 33.9695 0
858 2 34.3461 28.838 0
859 1 13.1639 64.748 0
860 2 2.12397 58.5072 0
861 2 60.1945 40.0608 0
862 2 3.05374 69.2648 0
863 1 58.9857 23.7354 0
864 1 60.3057 53.7914 0
865 2 66.171 68.0351 0
866 1 60.4995 17.2264 0
867 2 31.553 21.8534 0
868 1 37.2345 61.8946 0
869 1 62.1742 20.1637 0
870 1 0.0228641 52.7271 0
871 1 62.7382 26.1239 0
872 1 42.2772 50.7337 0
873 1 50.6806 62.6097 0
874 1 4.03662 71.6176 0
875 1 34.1189 57.7729 0
876 2 51.6038 7.96192 0
877 1 13.44 55.5444 0
878 2 14.7416 15.9994 0
879 1 76.5624 14.0603 0
880 2 31.581 33.5922 0
881 2 51.9227 29.3008 0
882 2 47.9486 73.6672 0
883 1 25.7045 20.0476 0
884 1 56.0184 36.5899 0
885 1 38.9483 5.02252 0
886 1 37.0807 60.1415 0
887 2 54.7407 50.3459 0
888 1 0.40966 76.493 0
889 2 59.165 49.6924 0
890 2 7.70876 25.4249 0
891 1 38.1465 10.5073 0
892 1 40.039 67.8346 0
893 1 29.9922 53.688 0
894 1 77.0611 14.9778 0
895 2 32.4514 53.0285 0
896 1 37.5474 2.57875 0
897 2 35.7399 16.9937 0
898 1 31.0932 43.6022 0
899 1 2.0788 75.7749 0
900 2 38.6852 0.221491 0
901 1 52.2272 41.4234 0
902 1 24.3885 75.3409 0
903 1 37.8227 40.5208 0
904 2 0.126269 37.6948 0
905 1 63.7091 62.1207 0
906 1 68.9666 44.7004 0
907 1 3.70464 29.8327 0
908 1 50.6686 23.8526 0
909 1 0.363107 48.7087 0
910 2 1.79007 50.7793 0
911 2 4.62253 4.49984 0
912 2 36.0625 32.7648 0
913 2 31.9235 51.6874 0
914 1 18.3356 12.8864 0
915 2 64.5812 5.4909 0
916 1 3.40743 39.7901 0
917 2 4.92332 33.5217 0
918 2 19.4665 35.3893 0
919 1 8.26453 57.764 0
920 1 15.8913 47.6381 0
921 1 0.0315802 26.585 0
922 2 50.752 19.0347 0
923 2 12.2572 24.2921 0
924 1 39.256 17.6435 0
925 1 66.2992 47.3131 0
926 2 35.3595 35.282 0
927 1 68.7797 0.253251 0
928 1 52.2205 59.0617 0
929 2 52.0739 32.1245 0
930 2 20.034 15.8689 0
931 1 40.7937 47.5439 0
932 1 70.3774 39.1608 0
933 1 34.3336 21.91 0
934 1 2.06319 60.1368 0
935 1 11.3491 50.5618 0
936 2 42.2027 4.65377 0
937 1 14.3071 73.0687 0
938 1 36.7907 67.7082 0
939 2 50.3151 51.312 0
940 1 75.9846 46.7696 0
941 1 77.1843 17.6609 0
942 1 37.9638 29.7883 0
943 2 22.2483 16.699 0
944 2 2.09528 41.9241 0
945 1 40.4186 25.2986 0
946 1 64.5379 67.181 0
947 2 25.0505 2.08433 0
948 1 39.3708 68.6667 0
949 1 26.8975 11.6978 0
950 2 5.10246 9.71012 0
951 1 68.9308 65.6328 0
952 2 52.4635 2.83595 0
953 2 7.84344 44.7926 0
954 2 29.9516 62.47 0
955 1 27.2038 38.58 0
956 2 58.7917 10.9862 0
957 1 48.3702 23.6591 0
958 2 19.5499 2.74711 0
959 2 73.5564 25.0289 0
960 2 29.2071 66.8802 0
961 1 49.5431 52.0729 0
962 1 24.3436 1.53271 0
963 1 16.2896 12.5264 0
964 2 8.5891 9.51564 0
965 2 53.6641 53.8242 0
966 1 0.73468 62.8241 0
967 1 49.8756 35.5319 0
968 1 18.4125 0.16553 0
969 1 58.052 23.3498 0
970 2 22.5635 4.58202 0
971 1 21.3227 14.535 0
972 1 6.84367 25.2567 0
973 1 0.854097 36.0317 0
974 2 1.04329 35.1525 0
975 2 73.1178 65.4549 0
976 2 34.554 19.8753 0
977 1 36.0323 63.2562 0
978 2 3.14738 77.0349 0
979 2 36.1127 65.782 0
980 1 72.962 14.1649 0
981 1 73.7937 58.1333 0
982 1 7.8974 54.658 0
983 1 18.3777 24.6354 0
984 1 9.29641 57.9461 0
985 1 34.5513 11.1534 0
986 1 37.9942 52.6066 0
987 2 18.1381 12.046 0
988 2 42.1676 34.688 0
989 2 9.96911 34.7829 0
990 2 69.8668 51.6062 0
991 2 46.2464 14.8353 0
992 1 62.3705 34.6833 0
993 2 29.1069 5.69382 0
994 2 1.88332 55.0711 0
995 1 38.8874 22.365 0
996 2 54.7397 56.9962 0
997 2 43.4912 30.8615 0
998 2 60.3407 74.9866 0
999 2 39.2965 26.5255 0
1000 2 0.548697 49.5418 0
1001 1 41.7152 65.385 0
1002 1 23.4085 34.4599 0
1003 1 9.57517 54.1518 0
1004 1 7.53987 22.5773 0
1005 2 10.7488 23.6446 0
1006 2 67.8652 60.8589 0
1007 1 18.8915 20.3559 0
1008 1 47.7891 16.9583 0
1009 1 30.9749 32.9763 0
1010 1 11.6041 43.5038 0
1011 2 10.4777 22.2621 0
1012 2 2.33269 23.3493 0
1013 2 65.0861 56.047 0
1014 1 74.2301 15.4634 0
1015 1 76.081 9.2697 0
1016 1 37.1307 47.9475 0
1017 2 68.7746 54.2999 0
1018 1 26.0233 25.025 0
1019 1 44.2777 28.9799 0
1020 2 32.5179 6.26194 0
1021 2 15.9067 24.4586 0
1022 1 4.87325 60.8316 0
1023 1 41.1312 9.33635 0
1024 1 9.41389 67.7466 0
1025 1 37.0439 65.8024 0
1026 1 8.06829 40.1522 0
1027 1 47.4485 2.50492 0
1028 1 1.87576 32.8685 0
1029 1 49.0137 18.296 0
1030 2 46.8863 48.0317 0
1031 2 37.4957 36.9027 0
1032 1 16.4779 73.0973 0
1033 1 57.573 19.2441 0
1034 1 35.2596 29.3131 0
1035 1 65.8143 28.4836 0
1036 2 73.6705 45.8948 0
1037 1 31.1917 72.9957 0
1038 1 68.7223 60.4871 0
1039 1 5.48217 31.885 0
1040 2 64.9695 34.3416 0
1041 1 35.423 65.1739 0
1042 2 62.8598 68.1858 0
1043 2 60.5969 58.2127 0
1044 1 67.679 23.5287 0
1045 1 66.6923 23.2833 0
1046 1 41.1149 68.2244 0
1047 2 9.91648 47.6814 0
1048 1 53.3899 77.4389 0
1049 1 59.8539 49.1647 0
1050 2 45.4601 6.39529 0
1051 1 43.4958 31.7651 0
1052 1 66.1699 44.5315 0
1053 2 32.6595 18.4521 0
1054 1 55.1186 7.15853 0
1055 2 32.8822 46.568 0
1056 2 14.6677 45.1999 0
1057 1 12.0228 71.6847 0
1058 1 27.4379 5.86579 0
1059 1 9.1666 75.194 0
1060 2 21.9908 42.0821 0
1061 1 10.0501 23.1137 0
1062 2 17.0492 41.4269 0
1063 1 0.0120347 67.8323 0
1064 1 23.3344 5.11906 0
1065 2 29.6727 52.8496 0
1066 1 37.3724 46.2255 0
1067 1 13.9109 10.3974 0
1068 2 35.6418 67.0132 0
1069 1 67.8758 24.5473 0
1070 2 8.20757 34.4583 0
1071 2 49.5385 42.7816 0
1072 2 9.45417 48.6633 0
1073 2 16.4345 3.49572 0
1074 2 33.8251 45.2755 0
1075 1 75.9341 49.6322 0
1076 1 41.281 7.62276 0
1077 1 41.6977 32.6297 0
1078 2 71.695 26.2505 0
1079 2 39.0356 10.7797 0
1080 2 30.0178 72.8014 0
1081 2 45.9612 48.946 0
1082 2 6.25239 27.6285 0
1083 2 21.5711 19.9929 0
1084 1 44.112 57.4962 0
1085 1 19.2367 52.43 0
1086 1 70.232 67.0647 0
1087 1 29.5869 71.9861 0
1088 1 44.7872 62.9835 0
1089 2 8.55727 31.6679 0
1090 1 42.9582 34.4035 0
1091 2 27.7773 17.7554 0
1092 1 63.0343 53.655 0
1093 1 69.195 32.9853 0
1094 2 43.5531 55.1564 0
1095 1 25.3384 71.1445 0
1096 2 48.1653 18.5595 0
1097 1 76.1759 17.7686 0
1098 1 62.7238 43.8001 0
1099 1 31.0576 4.93937 0
1100 1 67.8933 1.84457 0
1101 1 74.9285 11.7706 0
1102 1 26.0642 74.7607 0
1103 1 51.3131 71.0207 0
1104 1 47.0348 58.0232 0
1105 1 48.3006 39.9796 0
1106 1 16.5263 71.3919 0
1107 2 45.3707 62.3284 0
1108 1 55.6209 31.2076 0
1109 1 72.6768 24.8524 0
1110 2 14.8574 11.7859 0
1111 1 2.65015 56.9133 0
1112 1 76.128 18.812 0
1113 2 75.5116 7.6301 0
1114 2 14.1937 53.4583 0
1115 2 32.9607 49.5049 0
1116 1 77.237 64.7056 0
1117 1 66.9037 56.4975 0
1118 1 12.3857 75.4739 0
1119 2 11.3122 64.288 0
1120 1 41.3464 57.9976 0
1121 2 21.2253 64.2049 0
1122 1 31.9781 32.4918 0
1123 2 23.0347 51.897 0
1124 1 52.7652 61.987 0
1125 2 14.8244 4.30954 0
1126 2 15.5274 20.2362 0
1127 1 74.5229 24.0369 0
1128 1 67.2085 52.0415 0
1129 1 60.9392 39.5639 0
1130 1 30.5078 47.4141 0
1131 1 62.5154 15.4202 0
1132 2 75.9263 63.7308 0
1133 2 55.9072 22.4952 0
1134 2 20.8621 72.1232 0
1135 1 0.809906 68.5245 0
1136 2 51.2304 26.848 0
1137 1 51.1082 61.4385 0
1138 1 30.3749 13.686 0
1139 2 57.5422 52.908 0
1140 2 9.12082 22.8917 0
1141 1 74.9888 65.7914 0
1142 1 27.0045 52.2525 0
1143 1 48.0664 44.696 0
1144 2 60.8949 16.4555 0
1145 1 38.0979 62.5321 0
1146 1 15.6149 18.8565 0
1147 1 28.2284 25.621 0
1148 1 10.8397 36.7499 0
1149 1 57.5341 29.3829 0
1150 2 65.4452 61.1246 0
1151 1 22.0752 3.8059 0
1152 1 59.7769 52.0529 0
1153 1 71.7135 29.5569 0
1154 1 13.9468 4.6762 0
1155 2 60.2389 20.3294 0
1156 1 44.5349 32.2143 0
1157 1 12.3738 18.2027 0
1158 2 58.4026 47.9808 0
1159 2 5.7078 70.52 0
1160 1 32.9498 7.77794 0
1161 2 43.8808 56.5923 0
1162 1 15.9005 9.94185 0
1163 2 13.4383 72.9692 0
1164 1 24.0171 58.9277 0
1165 1 20.9859 45.4692 0
1166 2 14.9989 50.6488 0
1167 1 27.9662 20.2876 0
1168 1 56.5067 64.7043 0
1169 1 19.5182 66.7824 0
1170 2 6.29638 33.6058 0
1171 1 48.4861 33.7838 0
1172 1 22.9291 6.8157 0
1173 1 51.7275 64.0984 0
1174 1 38.8647 29.217 0
1175 2 62.6689 44.7276 0
1176 1 68.2978 36.5777 0
1177 1 48.5402 69.9207 0
1178 2 61.1235 47.7252 0
1179 1 72.3658 32.6877 0
1180 1 52.0326 17.9838 0
1181 1 54.2258 22.9751 0
1182 1 61.0062 74.4096 0
1183 2 43.1319 73.3802 0
1184 2 28.0894 21.949 0
1185 1 17.5613 63.2219 0
1186 1 48.9928 49.4614 0
1187 1 73.9031 72.1994 0
1188 2 4.8428 37.6641 0
1189 1 60.804 65.3459 0
1190 1 28.3779 51.4873 0
1191 2 72.313 5.08174 0
1192 1 24.6593 46.948 0
1193 1 47.5696 17.9503 0
1194 2 16.5264 16.0595 0
1195 1 74.1675 48.8182 0
1196 1 21.872 49.7229 0
1197 1 35.5162 38.8509 0
1198 1 62.2564 76.6005 0
1199 2 57.9676 62.543 0
1200 1 27.0073 8.86389 0
1201 1 2.95979 73.2563 0
1202 1 5.8337 48.8686 0
1203 2 47.5739 12.3676 0
1204 1 57.5331 56.6284 0
1205 1 66.6618 50.2264 0
1206 1 52.2157 5.08695 0
1207 1 31.8999 62.7545 0
1208 1 75.3527 58.1178 0
1209 2 65.3214 59.7059 0
1210 1 69.675 32.0304 0
1211 2 24.7639 35.4196 0
1212 1 33.6698 36.2299 0
1213 1 61.2732 68.9292 0
1214 1 61.6656 23.7298 0
1215 1 11.7396 72.7428 0
1216 1 11.2167 49.4465 0
1217 2 67.209 2.46463 0
1218 2 61.5792 20.9354 0
1219 1 30.2369 15.403 0
1220 1 62.0022 18.0361 0
1221 1 61.6113 55.0336 0
1222 2 66.5055 74.4734 0
1223 1 42.3162 48.0418 0
1224 1 0.685054 34.1908 0
1225 1 2.8434 25.7604 0
1226 2 65.9278 65.0243 0
1227 1 41.416 56.9574 0
1228 1 76.2103 70.772 0
1229 2 48.0284 9.277 0
1230 1 25.5959 49.7503 0
1231 2 52.8901 18.1239 0
1232 1 67.8073 38.2068 0
1233 1 38.5776 58.5114 0
1234 1 1.73125 67.918 0
1235 1 18.1979 46.0437 0
1236 1 52.4165 63.1836 0
1237 1 37.8529 20.7335 0
1238 1 24.8031 7.20408 0
1239 1 12.8201 22.734 0
1240 1 24.3544 62.9556 0
1241 1 76.2908 62.8448 0