ITEM: TIMESTEP
0
ITEM: NUMBER OF ATOMS
7200
ITEM: BOX BOUNDS xy xz yz pp pp pp
0.0000000000000000e+00 7.7459666924100006e+01 0.0000000000000000e+00
0.0000000000000000e+00 7.7459666924100006e+01 0.0000000000000000e+00
-1.2909944490000000e-01 1.2909944490000000e-01 0.0000000000000000e+00
ITEM: ATOMS id type x y z
1 1 3.61827 7.00972 0
2 1 74.002 7.37831 0
3 1 10.1569 69.9325 0
4 1 49.6248 22.2872 0
5 1 21.6675 34.024 0
6 1 59.3019 40.3937 0
7 2 44.3943 15.3179 0
8 2 48.4102 29.1132 0
9 1 55.465 3.89347 0
10 2 7.60323 69.6564 0
11 2 24.4976 45.9771 0
12 1 48.2397 65.8008 0
13 2 67.1319 10.0781 0
14 1 39.455 2.96616 0
15 1 31.284 69.7821 0
16 1 30.5362 25.9831 0
17 1 72.0087 35.1313 0
18 1 43.8057 42.0611 0
19 1 20.4599 53.047 0
20 2 38.9528 77.0394 0
21 1 65.4099 6.89742 0
22 1 56.6915 46.9635 0
23 1 20.9479 68.2754 0
24 1 52.3222 73.7355 0
25 1 58.465 2.94096 0
26 1 50.463 59.9533 0
27 2 53.813 54.1646 0
28 1 54.9073 57.4219 0
29 2 69.4426 62.8152 0
30 2 20.8211 5.63025 0
31 1 8.39519 52.0269 0
32 1 76.2417 35.0695 0
33 1 18.3325 38.1938 0
34 2 66.7391 34.0324 0
35 1 0.660402 3.48538 0
36 1 47.5306 27.025 0
37 1 35.6019 65.5562 0
38 1 63.1057 34.2089 0
39 1 26.5923 63.3776 0
40 2 20.9069 75.1812 0
41 2 10.9833 5.50279 0
42 1 5.19694 69.0446 0
43 1 67.3321 21.9937 0
44 1 25.9034 76.9236 0
45 1 71.2646 62.5988 0
46 1 0.0175321 42.2209 0
47 1 73.3616 4.55397 0
48 1 67.8643 69.6258 0
49 2 26.8156 65.7236 0
50 1 36.1822 43.413 0
51 1 66.3982 25.2312 0
52 2 43.9247 1.52032 0
53 1 13.8383 9.25222 0
54 1 23.1878 19.0489 0
55 1 74.2507 63.6194 0
56 1 28.5521 4.04811 0
57 1 68.1561 73.4063 0
58 1 50.6263 3.17855 0
59 1 24.0274 75.9911 0
60 1 12.1041 17.7339 0
61 1 46.8838 73.2546 0
62 1 31.4513 18.7425 0
63 1 18.217 9.4524 0
64 1 68.9333 53.4282 0
65 1 65.0429 38.9217 0
66 2 74.4065 6.60817 0
67 2 47.321 24.946 0
68 2 56.2881 6.39859 0
69 1 73.5392 70.2767 0
70 1 69.4812 24.4841 0
71 2 21.2188 45.0253 0
72 1 1.31335 39.8812 0
73 1 7.32518 73.6146 0
74 2 34.3613 32.2386 0
75 1 29.1377 41.4173 0
76 1 0.759457 64.9144 0
77 1 13.2712 62.3781 0
78 1 74.2727 74.9192 0
79 1 74.1642 75.9667 0
80 1 14.4627 14.5798 0
81 1 36.89 40.9552 0
82 2 41.2292 25.2437 0
83 1 9.40284 27.0617 0
84 1 20.7832 4.52868 0
85 1 27.5472 23.6048 0
86 2 35.2882 64.7237 0
87 1 68.4043 30.8736 0
88 1 21.6212 37.3142 0
89 1 32.2963 24.5904 0
90 1 52.967 55.7253 0
91 2 40.4615 73.2809 0
92 2 46.4838 1.1911 0
93 1 48.7803 25.6548 0
94 1 14.9604 49.6177 0
95 2 39.3023 30.77 0
96 1 75.9502 33.1329 0
97 1 43.602 47.2786 0
98 2 3.28658 50.9045 0
99 1 45.46 49.3124 0
100 2 29.7737 27.8194 0
101 1 76.5112 45.7719 0
102 1 62.1329 29.8417 0
103 1 28.3488 44.4519 0
104 1 40.4546 25.7314 0
105 2 41.4529 13.7305 0
106 2 50.0723 61.792 0
107 1 55.2282 42.6926 0
108 1 16.7819 4.45361 0
109 1 26.4573 18.383 0
110 2 21.3844 15.9376 0
111 1 46.9357 43.1815 0
112 1 25.8634 32.793 0
113 2 15.4578 46.9808 0
114 2 74.5832 30.6263 0
115 2 69.6694 18.4014 0
116 2 63.2312 64.1866 0
117 1 22.6083 62.1138 0
118 2 29.9954 7.21258 0
119 1 64.2175 5.98057 0
120 2 18.8732 51.7565 0
121 1 39.804 60.6976 0
122 1 25.6714 61.5262 0
123 2 8.9429 17.5928 0
124 1 35.4131 55.403 0
125 1 40.7144 20.5305 0
126 1 57.2963 70.1169 0
127 1 44.276 74.8459 0
128 1 13.3192 14.7662 0
129 1 18.7916 55.7855 0
130 1 75.8442 75.0063 0
131 1 47.687 34.0071 0
132 2 48.5773 63.7466 0
133 2 51.4306 19.9413 0
134 1 40.311 22.758 0
135 1 8.49244 9.86181 0
136 2 48.0942 64.9596 0
137 1 76.6044 60.766 0
138 2 67.1091 35.5228 0
139 1 47.6873 7.99884 0
140 1 72.1705 7.73584 0
141 2 34.6589 74.1559 0
142 1 65.132 3.49042 0
143 2 30.4214 62.3343 0
144 2 40.846 8.47916 0
145 2 2.29345 70.6948 0
146 1 55.6206 22.2294 0
147 1 24.6069 48.9855 0
148 1 32.635 60.1468 0
149 2 51.2695 70.5432 0
150 1 74.0003 57.4643 0
151 2 5.14385 77.0283 0
152 1 65.2773 66.8923 0
153 2 19.9485 13.9959 0
154 2 46.9029 5.5622 0
155 1 70.5007 70.6941 0
156 1 35.911 15.6397 0
157 1 68.8778 40.3191 0
158 1 66.2261 64.7886 0
159 2 59.179 42.3631 0
160 1 52.0239 44.866 0
161 1 37.2377 52.5627 0
162 2 2.86773 76.9252 0
163 1 59.3121 63.6697 0
164 1 59.4372 45.1494 0
165 1 5.80842 38.0297 0
166 1 21.1032 32.368 0
167 1 55.5269 70.5298 0
168 1 5.3143 5.60549 0
169 1 18.2783 7.83541 0
170 1 57.5215 14.6867 0
171 2 76.7841 71.3553 0
172 2 38.9854 0.666539 0
173 2 26.1412 69.6696 0
174 2 34.1719 43.9496 0
175 2 63.279 26.7202 0
176 1 23.1734 16.417 0
177 1 53.0831 72.3295 0
178 1 35.5337 61.1263 0
179 1 69.6109 4.47068 0
180 2 3.76343 10.8056 0
181 1 74.9807 32.4555 0
182 1 45.1129 4.94848 0
183 2 15.1062 31.5414 0
184 1 28.6743 9.37045 0
185 2 59.9875 22.3289 0
186 1 59.8794 26.842 0
187 1 46.5902 28.4582 0
188 1 46.2774 26.4954 0
189 2 48.0074 27.738 0
190 1 15.2956 72.5748 0
191 1 42.4117 11.7917 0
192 1 1.17809 14.3305 0
193 2 73.593 33.6182 0
194 2 68.0838 48.7076 0
195 1 18.8567 61.4351 0
196 2 10.533 34.1354 0
197 2 39.5659 32.5391 0
198 1 5.69708 47.3144 0
199 2 67.3037 73.1498 0
200 1 53.73 22.1282 0
201 2 12.9854 52.7334 0
202 2 3.46037 72.9287 0
203 1 49.2312 66.2135 0
204 1 38.5652 22.2738 0
205 1 51.1191 6.56486 0
206 2 34.4179 9.60819 0
207 2 31.289 56.9822 0
208 1 46.3897 57.5815 0
209 1 65.6732 21.0926 0
210 2 34.479 41.0733 0
211 1 18.4858 68.2887 0
212 2 17.5953 73.3816 0
213 2 67.5654 29.9248 0
214 1 25.7762 3.70451 0
215 2 3.24567 24.5464 0
216 1 26.6605 3.1023 0
217 1 44.7505 46.1017 0
218 2 31.9743 66.4244 0
219 2 37.2632 61.8625 0
220 2 54.9654 75.3764 0
221 1 16.0727 43.0314 0
222 1 55.7983 29.4716 0
223 2 20.1255 19.3103 0
224 2 74.0416 9.33047 0
225 1 32.485 16.4594 0
226 2 48.0708 40.1541 0
227 2 14.7431 76.1336 0
228 1 61.5751 23.2187 0
229 1 65.202 19.3854 0
230 1 19.2124 19.3629 0
231 1 10.7025 53.9048 0
232 1 27.5563 14.9425 0
233 1 40.2594 29.5895 0
234 1 26.461 64.9048 0
235 1 27.3704 17.9409 0
236 2 20.2718 74.2909 0
237 1 66.2416 36.0281 0
238 2 10.1063 35.9966 0
239 1 18.7947 13.0232 0
240 2 4.73359 73.3159 0
241 1 71.8317 38.6672 0
242 1 13.1207 24.9667 0
243 1 10.3158 54.9753 0
244 1 50.1247 58.9422 0
245 1 51.8027 43.0384 0
246 1 67.809 64.1614 0
247 1 70.9777 53.9883 0
248 1 21.7344 66.2976 0
249 2 66.1898 43.4587 0
250 1 17.7208 55.8824 0
251 2 49.9556 33.6411 0
252 2 49.4331 27.3275 0
253 1 26.3685 27.0839 0
254 1 66.3892 23.5198 0
255 1 75.2331 27.8792 0
256 1 35.7544 57.0962 0
257 1 20.8594 1.24704 0
258 1 14.0216 57.8298 0
259 1 51.585 51.0238 0
260 2 37.8282 11.5978 0
261 2 59.0929 66.4664 0
262 1 28.7283 23.3589 0
263 2 5.28993 16.2919 0
264 2 44.7813 44.0692 0
265 1 0.196661 71.2229 0
266 1 54.8087 67.2413 0
267 2 22.6186 21.4421 0
268 2 55.7343 34.7501 0
269 1 67.6178 47.9382 0
270 2 16.2058 40.3178 0
271 2 34.831 45.402 0
272 2 4.74296 11.3987 0
273 1 15.4379 19.2735 0
274 1 42.1406 6.96436 0
275 1 71.7444 58.2003 0
276 1 2.49304 76.1746 0
277 2 31.5231 62.8499 0
278 1 5.67702 70.4976 0
279 1 22.6111 54.7935 0
280 1 5.81748 40.798 0
281 1 56.3808 48.0057 0
282 2 6.3835 2.08824 0
283 1 27.6598 3.46679 0
284 2 39.134 23.9521 0
285 1 73.2061 31.967 0
286 1 55.414 56.4364 0
287 1 17.8908 27.0998 0
288 2 27.4718 67.0626 0
289 2 28.4668 16.3651 0
290 2 61.2433 21.5833 0
291 1 68.5912 14.1633 0
292 1 32.3976 34.3974 0
293 1 17.1185 15.8253 0
294 1 51.7062 68.9124 0
295 1 63.7653 75.7019 0
296 2 70.8327 58.1189 0
297 1 1.98691 49.5394 0
298 1 1.36064 64.0864 0
299 2 63.3545 45.8745 0
300 1 63.9499 72.0463 0
301 1 74.5606 1.11185 0
302 1 74.8946 46.8464 0
303 1 65.7561 37.6454 0
304 1 55.8237 7.16084 0
305 2 42.7143 4.2385 0
306 1 50.5631 28.8032 0
307 2 66.828 38.9698 0
308 1 45.9555 73.8666 0
309 2 75.8827 29.4605 0
310 2 64.569 50.0863 0
311 1 61.4344 64.2462 0
312 1 32.4562 76.7489 0
313 1 67.6513 16.8589 0
314 1 54.0563 25.4199 0
315 2 1.06288 51.6428 0
316 2 26.4377 21.7952 0
317 1 37.471 77.0553 0
318 2 58.8374 39.7067 0
319 1 8.43646 10.9101 0
320 1 57.5995 61.4461 0
321 1 47.4424 1.46768 0
322 2 20.4436 53.8612 0
323 2 16.9112 64.0889 0
324 1 29.288 66.2044 0
325 1 22.2397 12.6757 0
326 1 54.9269 50.2051 0
327 1 38.6691 19.8206 0
328 1 14.7221 10.7037 0
329 1 43.7744 2.43204 0
330 2 28.1995 74.4877 0
331 2 59.8665 71.7624 0
332 1 61.0414 49.5415 0
333 1 37.3073 8.87262 0
334 1 2.67723 40.7325 0
335 1 19.5399 30.9501 0
336 2 4.51902 60.677 0
337 1 37.963 49.9472 0
338 2 23.1714 10.3249 0
339 1 50.4929 72.8847 0
340 1 36.252 40.0873 0
341 2 20.3473 39.5436 0
342 1 45.1937 8.5674 0
343 2 74.5583 59.2019 0
344 2 43.4739 27.692 0
345 1 19.1425 31.8273 0
346 1 71.1129 25.2173 0
347 1 35.7102 3.5206 0
348 1 66.4609 73.1802 0
349 1 20.4398 6.44583 0
350 1 41.2813 69.3414 0
351 1 24.4915 57.9552 0
352 1 63.1235 33.118 0
353 1 12.6451 33.2919 0
354 2 55.1387 58.2611 0
355 2 52.8162 44.5948 0
356 2 20.6211 0.323881 0
357 1 38.8451 44.3799 0
358 1 54.5625 69.9991 0
359 1 22.7502 40.5906 0
360 2 73.0533 32.9459 0
361 2 31.7462 11.1142 0
362 1 24.5354 70.7039 0
363 2 23.7304 15.7481 0
364 1 35.5623 68.4908 0
365 2 57.4735 66.2623 0
366 1 57.1012 73.8531 0
367 2 23.5616 24.9895 0
368 2 45.9072 29.1282 0
369 2 75.0337 75.2066 0
370 1 59.4642 15.5795 0
371 1 60.3323 63.8991 0
372 2 43.2519 69.0624 0
373 1 58.3825 33.4287 0
374 2 35.4545 19.15 0
375 1 35.9131 16.6594 0
376 2 51.895 49.1448 0
377 2 75.0944 33.2785 0
378 1 40.1789 4.77773 0
379 1 25.3918 57.432 0
380 1 3.32163 45.9166 0
381 1 20.4016 21.8887 0
382 1 16.0049 63.6921 0
383 1 27.0659 1.27569 0
384 1 42.866 30.353 0
385 1 26.9893 36.1044 0
386 1 45.2776 43.409 0
387 1 77.4583 37.5091 0
388 2 41.3215 41.645 0
389 1 48.2944 46.3027 0
390 1 46.8449 20.0602 0
391 2 1.71565 66.4265 0
392 2 2.44263 57.7353 0
393 2 31.8828 64.5854 0
394 1 71.4333 5.57828 0
395 1 45.1954 15.6475 0
396 1 46.9835 75.3348 0
397 1 46.8217 37.1155 0
398 1 25.92 17.0042 0
399 1 23.8407 0.237061 0
400 1 46.3001 16.6206 0
401 1 73.7778 8.39149 0
402 2 52.9312 10.9632 0
403 1 73.1809 66.1398 0
404 1 71.0718 45.1099 0
405 2 11.64 44.1652 0
406 1 34.685 33.069 0
407 2 54.3562 1.97174 0
408 1 5.50616 22.3798 0
409 1 13.1859 44.2262 0
410 2 60.2011 4.684 0
411 2 49.3598 17.3702 0
412 1 69.5388 67.5077 0
413 1 12.5817 41.7888 0
414 1 72.1474 44.7529 0
415 1 13.1902 37.8543 0
416 2 7.60597 38.5166 0
417 2 56.5149 33.0718 0
418 1 34.8493 73.2881 0
419 2 24.6565 57.0374 0
420 2 75.6851 72.393 0
421 1 55.3263 37.6537 0
422 1 62.8581 55.8045 0
423 1 30.3105 3.9889 0
424 1 1.49968 7.41977 0
425 1 24.8016 47.5491 0
426 1 38.9682 66.8698 0
427 2 31.9187 15.8121 0
428 1 1.93197 67.521 0
429 1 52.7364 8.72397 0
430 1 40.8762 18.8623 0
431 1 8.13875 8.13198 0
432 1 65.497 52.4264 0
433 1 11.4835 73.338 0
434 1 14.8149 24.0783 0
435 1 68.6967 16.9393 0
436 2 0.92209 55.8211 0
437 2 57.5816 46.7916 0
438 1 47.8466 37.0221 0
439 2 49.2177 2.33694 0
440 1 32.3307 25.6365 0
441 2 5.20624 66.5173 0
442 1 10.9449 13.7017 0
443 1 21.8231 21.0325 0
444 1 5.27024 38.9707 0
445 2 36.1739 63.7306 0
446 1 59.3666 74.7038 0
447 1 30.9865 60.1969 0
448 1 57.6257 72.2997 0
449 1 26.4548 28.9007 0
450 2 41.3868 71.2033 0
451 2 7.68989 34.6666 0
452 1 25.2438 18.9262 0
453 1 13.2265 77.0446 0
454 2 66.7975 32.5117 0
455 2 72.941 15.506 0
456 1 65.3631 58.8952 0
457 2 22.9892 68.3669 0
458 1 26.0905 30.1797 0
459 2 40.1771 36.2591 0
460 1 68.8741 77.2916 0
461 2 48.9222 75.3957 0
462 1 37.2028 69.9664 0
463 1 0.193511 6.26856 0
464 1 35.1863 26.8453 0
465 2 38.3547 29.921 0
466 1 17.1888 13.4543 0
467 2 77.1894 73.7133 0
468 1 49.2981 38.1267 0
469 1 29.2241 71.5971 0
470 1 47.6907 70.7376 0
471 2 10.3738 52.6122 0
472 1 34.3046 27.4029 0
473 1 70.0493 66.4821 0
474 1 18.3782 75.8112 0
475 1 12.2057 9.78062 0
476 2 76.8709 14.5812 0
477 1 58.0389 40.0936 0
478 2 26.1082 56.2901 0
479 1 32.2356 21.534 0
480 1 49.2047 35.5591 0
481 1 65.8197 12.4629 0
482 1 14.267 40.514 0
483 2 57.1823 22.6267 0
484 1 6.0502 39.7382 0
485 1 22.1806 59.0191 0
486 1 27.6636 55.1566 0
487 2 47.0944 3.34473 0
488 1 76.3132 12.5221 0
489 1 47.0368 72.2628 0
490 1 45.349 74.7415 0
491 1 36.7693 14.9578 0
492 2 15.0018 73.4637 0
493 1 26.5106 25.9868 0
494 1 59.4969 35.2104 0
495 2 28.5641 11.1288 0
496 2 36.6077 38.0408 0
497 2 25.5509 74.1768 0
498 1 15.5602 35.8616 0
499 1 32.9514 69.6595 0
500 1 54.1156 61.5441 0
501 2 45.5131 46.6579 0
502 1 22.8999 43.7437 0
503 1 65.0891 35.0723 0
504 1 42.1832 38.9816 0
505 2 10.6669 16.8998 0
506 2 23.0051 0.115845 0
507 1 42.1871 17.8429 0
508 1 33.94 25.1669 0
509 1 33.357 24.3018 0
510 1 64.3389 27.1145 0
511 1 56.9177 10.2964 0
512 1 49.1929 71.9564 0
513 1 10.1428 26.2785 0
514 1 16.3382 64.7529 0
515 2 38.9975 75.9098 0
516 2 11.1439 48.0217 0
517 2 43.4548 35.7857 0
518 2 38.6739 59.5101 0
519 2 52.5828 62.6085 0
520 1 55.9857 55.5516 0
521 1 46.2877 38.0424 0
522 2 22.754 19.8077 0
523 1 3.61497 32.3477 0
524 1 23.8953 13.391 0
525 1 23.0055 67.5076 0
526 2 34.0817 11.9988 0
527 1 52.3778 18.9857 0
528 2 72.6485 53.1206 0
529 2 3.59224 52.422 0
530 1 23.8325 72.0967 0
531 2 17.2266 52.3921 0
532 2 8.16245 50.1724 0
533 1 12.9809 53.7891 0
534 1 30.674 24.2062 0
535 1 47.4981 2.54481 0
536 1 29.358 52.124 0
537 1 11.8316 31.0945 0
538 2 74.0755 19.2555 0
539 2 40.6798 53.942 0
540 1 39.7977 18.8737 0
541 2 10.554 21.5926 0
542 1 63.2167 44.9936 0
543 2 5.48813 59.3084 0
544 2 59.4198 21.5697 0
545 1 20.6654 36.6347 0
546 1 50.3 5.25919 0
547 1 12.135 1.79191 0
548 2 40.9887 28.8987 0
549 2 75.3789 23.0768 0
550 2 70.7188 65.6469 0
551 1 39.037 74.869 0
552 2 41.4155 3.23065 0
553 2 46.6227 47.5287 0
554 1 75.9384 61.6268 0
555 1 47.7347 29.6048 0
556 1 69.0241 50.1241 0
557 1 55.1829 76.2378 0
558 1 74.504 38.7649 0
559 1 69.0763 23.4642 0
560 2 2.51004 48.0771 0
561 1 49.3533 10.9444 0
562 2 65.2725 14.2411 0
563 2 61.0058 63.2488 0
564 1 75.4794 4.49941 0
565 2 66.0278 60.738 0
566 2 6.00128 32.8456 0
567 1 60.5385 35.5457 0
568 2 75.8121 53.8737 0
569 2 73.1909 11.4374 0
570 1 72.4612 40.0328 0
571 1 59.0261 8.02279 0
572 2 45.751 25.8476 0
573 2 72.071 42.8764 0
574 1 16.4874 35.4123 0
575 1 3.86715 21.9031 0
576 1 22.0464 67.9857 0
577 1 7.91481 12.5656 0
578 2 33.903 38.4198 0
579 2 47.4566 71.5197 0
580 1 22.2183 10.3512 0
581 1 14.8556 70.3269 0
582 2 48.2497 4.63689 0
583 2 4.89697 33.8139 0
584 2 42.9285 34.4625 0
585 1 58.7766 19.3217 0
586 1 51.8171 31.6551 0
587 2 75.4859 20.3238 0
588 1 43.7982 71.6984 0
589 2 46.5005 38.8995 0
590 1 75.7875 71.4791 0
591 1 36.5009 4.22213 0
592 1 49.5556 15.8446 0
593 1 27.6506 4.62706 0
594 1 40.6505 49.8107 0
595 1 17.3937 64.869 0
596 2 6.31719 60.827 0
597 1 29.7157 45.2832 0
598 1 66.5734 14.2065 0
599 1 3.16679 18.0708 0
600 1 1.35553 36.2193 0
601 2 39.8593 54.5863 0
602 1 4.82276 65.683 0
603 2 22.8313 69.8447 0
604 2 69.8697 19.7781 0
605 1 56.9399 58.6237 0
606 1 49.57 3.21477 0
607 1 29.4457 4.68836 0
608 2 75.4989 47.6277 0
609 2 55.4245 53.61 0
610 1 76.1426 40.9929 0
611 1 42.8792 43.4662 0
612 1 62.252 12.0402 0
613 1 76.6322 56.4838 0
614 2 39.0677 11.0052 0
615 1 38.1677 36.8407 0
616 1 15.4978 75.7078 0
617 1 32.5866 11.1006 0
618 2 67.1544 53.1604 0
619 2 40.9037 52.3737 0
620 2 75.719 41.7894 0
621 2 61.9044 26.3455 0
622 1 56.4707 14.6642 0
623 1 38.3174 76.4555 0
624 2 37.4606 58.9356 0
625 1 75.1347 77.385 0
626 1 38.9838 33.2017 0
627 2 18.9443 70.1295 0
628 1 29.8878 57.8584 0
629 2 67.1614 22.9833 0
630 1 52.9289 16.0991 0
631 1 72.1681 32.4368 0
632 1 27.8432 69.2964 0
633 2 75.3505 0.834621 0
634 1 21.7613 46.7977 0
635 2 33.634 31.5312 0
636 2 29.5302 3.73396 0
637 1 0.586099 8.92982 0
638 1 63.6988 51.9116 0
639 1 68.3447 27.2414 0
640 1 71.3763 71.2055 0
641 1 22.8821 25.514 0
642 1 37.8661 47.2177 0
643 1 38.416 71.2861 0
644 2 1.92738 23.969 0
645 1 33.4255 49.4895 0
646 1 57.2533 54.3558 0
647 2 23.3188 44.6143 0
648 1 71.1308 1.36054 0
649 2 22.0239 71.3806 0
650 2 32.1156 69.6632 0
651 1 57.7332 65.3477 0
652 1 16.5089 75.8897 0
653 2 4.7446 24.1787 0
654 2 1.06079 8.16019 0
655 1 32.7481 52.2133 0
656 1 4.57118 47.6276 0
657 1 55.8263 67.7063 0
658 1 3.64444 4.86438 0
659 2 62.2531 50.997 0
660 1 34.5233 31.4069 0
661 1 30.912 10.9602 0
662 1 76.1921 28.4956 0
663 1 2.66533 56.8675 0
664 1 52.4577 51.7923 0
665 2 63.9294 68.1885 0
666 2 4.83671 35.2231 0
667 1 73.9911 69.3158 0
668 2 73.4018 13.8698 0
669 1 74.0169 73.8315 0
670 2 49.4318 43.0328 0
671 2 39.42 7.84935 0
672 1 65.0396 9.26994 0
673 1 0.946451 15.5702 0
674 1 41.1064 67.1531 0
675 2 26.7491 47.6745 0
676 2 62.4269 62.6619 0
677 1 57.1487 53.347 0
678 1 20.9773 63.2935 0
679 1 58.9675 71.8335 0
680 1 61.4609 65.3043 0
681 1 6.89201 51.2471 0
682 1 24.9201 77.3159 0
683 1 20.3872 66.6799 0
684 1 68.6002 45.268 0
685 2 53.1169 15.1614 0
686 1 9.27374 71.5897 0
687 1 1.89715 3.56551 0
688 2 68.1979 64.9368 0
689 1 28.0237 50.3492 0
690 1 66.9536 43.1248 0
691 1 69.9233 42.5274 0
692 2 38.8129 6.90628 0
693 1 60.9228 11.1356 0
694 2 67.2221 25.688 0
695 1 44.6896 1.94738 0
696 2 52.5472 12.4545 0
697 1 26.9448 56.0116 0
698 1 21.7617 30.8131 0
699 1 48.2023 49.2821 0
700 1 64.7999 24.4834 0
701 1 9.21751 68.5279 0
702 1 76.435 51.9154 0
703 2 18.0681 54.9506 0
704 2 61.6282 5.11712 0
705 2 22.6395 18.3016 0
706 1 56.8457 29.2341 0
707 2 4.06196 26.9319 0
708 1 34.2098 53.733 0
709 1 31.4993 11.9587 0
710 2 66.4621 30.8771 0
711 1 64.9871 42.2463 0
712 2 58.4096 18.5 0
713 2 58.1565 71.6513 0
714 2 0.36873 29.3069 0
715 1 10.9343 74.4126 0
716 1 69.4434 15.0509 0
717 1 17.1898 70.9514 0
718 1 15.3309 66.2955 0
719 1 56.6083 49.0146 0
720 2 54.6033 56.6069 0
721 2 58.4105 48.3564 0
722 1 36.2564 9.09243 0
723 2 54.5659 16.2236 0
724 2 16.96 71.773 0
725 1 60.1833 25.8331 0
726 1 9.7131 25.3787 0
727 2 35.5104 33.1634 0
728 1 12.1173 64.5097 0
729 2 22.9726 72.4907 0
730 1 11.2704 23.2886 0
731 2 30.6206 45.5554 0
732 1 37.09 75.1121 0
733 1 38.7646 26.9156 0
734 2 61.2568 48.5875 0
735 1 34.6252 69.0486 0
736 1 41.6315 27.1452 0
737 2 70.042 46.7568 0
738 1 37.5945 22.8642 0
739 1 17.5625 0.177778 0
740 1 27.8884 75.3047 0
741 2 25.5947 34.7665 0
742 1 70.2673 57.483 0
743 1 40.1987 28.5013 0
744 2 60.6868 23.3257 0
745 1 13.1866 60.4725 0
746 1 25.014 23.9137 0
747 1 34.144 6.86698 0
748 2 44.4522 17.0961 0
749 2 40.7717 61.9521 0
750 1 55.6151 46.7248 0
751 1 56.098 57.2265 0
752 2 76.3393 4.38922 0
753 1 42.6925 27.3014 0
754 2 5.92879 57.0946 0
755 1 4.03763 33.4184 0
756 2 42.6387 60.0152 0
757 1 5.54018 2.07224 0
758 1 47.3453 6.28348 0
759 1 36.1142 26.4563 0
760 1 52.6191 17.9129 0
761 1 24.927 73.4295 0
762 1 21.282 53.7913 0
763 2 48.4358 70.218 0
764 1 11.836 57.697 0
765 2 63.306 4.65702 0
766 1 67.6624 18.3875 0
767 1 5.18921 55.41 0
768 1 52.2825 16.9792 0
769 1 69.5174 44.5969 0
770 2 70.3825 63.8772 0
771 1 75.186 30.0571 0
772 1 62.1884 21.4922 0
773 1 41.6209 62.2277 0
774 2 32.4975 26.5223 0
775 1 3.28839 34.1936 0
776 2 50.8768 2.37195 0
777 1 10.3442 47.9931 0
778 2 6.54305 65.1489 0
779 1 57.3106 30.1785 0
780 1 8.16584 77.2031 0
781 1 51.3073 30.3293 0
782 1 70.9931 42.3859 0
783 1 47.8771 35.7382 0
784 1 52.9808 49.4526 0
785 2 62.3563 44.9325 0
786 1 5.2168 71.5872 0
787 1 25.5483 52.6515 0
788 1 54.3466 43.2809 0
789 1 6.02916 51.951 0
790 1 18.6291 73.288 0
791 1 17.5052 67.7841 0
792 1 56.0113 41.2247 0
793 1 6.81585 76.3654 0
794 2 18.196 5.29157 0
795 2 73.6974 5.34419 0
796 2 68.3511 32.7788 0
797 1 44.1869 62.5142 0
798 1 44.1542 7.70047 0
799 1 28.8219 59.3212 0
800 1 33.7456 68.3794 0
801 2 10.2122 56.5457 0
802 2 62.6423 46.5977 0
803 2 10.1486 18.2166 0
804 2 63.8602 2.1317 0
805 1 33.7151 59.884 0
806 1 59.5888 3.09631 0
807 2 39.0766 67.7393 0
808 1 44.2592 27.1703 0
809 2 21.1132 31.4994 0
810 1 51.5497 53.4169 0
811 1 52.0719 10.5667 0
812 2 40.1154 59.2154 0
813 2 33.0148 59.3651 0
814 1 41.057 16.1141 0
815 2 60.7322 41.7174 0
816 1 44.8718 55.3485 0
817 1 67.4921 8.09994 0
818 2 59.4107 7.31439 0
819 2 18.6009 32.5798 0
820 1 64.7422 2.21497 0
821 1 9.96557 12.2016 0
822 1 27.4145 2.41021 0
823 1 39.1543 49.1713 0
824 2 70.5799 30.2135 0
825 1 40.6826 41.0641 0
826 1 64.4014 15.8464 0
827 1 31.3222 25.2149 0
828 1 66.4199 51.9827 0
829 1 10.7323 51.862 0
830 2 51.2884 62.6351 0
831 2 38.859 13.467 0
832 1 51.6765 55.5003 0
833 1 6.90127 35.3096 0
834 2 53.3859 29.089 0
835 1 12.6749 46.2876 0
836 1 7.63572 53.9829 0
837 1 51.5719 36.7456 0
838 1 46.607 48.5624 0
839 1 23.0223 53.8552 0
840 2 12.682 30.9839 0
841 1 24.5429 59.0329 0
842 2 53.7332 21.2991 0
843 1 73.9951 32.7939 0
844 1 28.4792 34.9767 0
845 2 31.2011 32.8172 0
846 1 22.2658 15.8831 0
847 1 2.82655 48.8583 0
848 2 74.3086 31.9183 0
849 1 6.7909 6.60316 0
850 1 62.5292 36.1713 0
851 1 0.59805 5.27562 0
852 1 21.5325 16.7738 0
853 1 17.4968 11.2692 0
854 1 46.9253 11.6508 0
855 1 63.4553 27.6608 0
856 2 54.2662 44.1496 0
857 1 69.177 19.0841 0
858 2 48.4576 55.5683 0
859 1 53.8035 11.0056 0
860 2 75.5726 30.8263 0
861 2 9.72837 58.5178 0
862 2 39.3823 48.344 0
863 1 35.229 18.3501 0
864 1 50.4508 51.0252 0
865 2 48.2567 1.09082 0
866 1 4.3178 14.4015 0
867 2 44.7036 18.4649 0
868 1 39.1026 58.0982 0
869 1 64.44 31.5386 0
870 1 34.1972 40.2727 0
871 1 63.9624 17.7694 0
872 1 13.5065 30.731 0
873 1 9.68188 7.15393 0
874 1 74.7772 67.8297 0
875 1 53.3903 2.05149 0
876 2 21.2983 21.9764 0
877 1 3.36696 36.7009 0
878 2 14.0981 10.1102 0
879 1 76.1087 31.453 0
880 2 52.0599 24.6841 0
881 2 55.3215 40.5878 0
882 2 55.0914 72.9942 0
883 1 7.64383 27.2639 0
884 1 37.6853 5.97947 0
885 1 29.6646 63.6999 0
886 1 47.4071 44.8814 0
887 2 44.1731 54.8212 0
888 1 46.0131 18.2426 0
889 2 27.8985 22.8241 0
890 2 1.18618 11.4705 0
891 1 25.2827 9.74823 0
892 1 18.5611 10.3903 0
893 1 26.6283 49.2985 0
894 1 10.564 3.95408 0
895 2 35.7 24.6245 0
896 1 15.1725 6.74718 0
897 2 54.1371 76.6903 0
898 1 9.12618 44.9916 0
899 1 68.8154 74.2669 0
900 2 42.5904 19.3245 0
901 1 19.4399 33.9159 0
902 1 36.516 7.41208 0
903 1 16.0531 59.5861 0
904 2 45.0128 27.5671 0
905 1 31.716 49.5686 0
906 1 1.67889 68.4675 0
907 1 76.6671 16.156 0
908 1 43.367 26.5352 0
909 1 74.502 65.1871 0
910 2 16.9922 62.2803 0
911 2 2.56799 62.5097 0
912 2 57.2038 31.5732 0
913 2 20.1826 32.4699 0
914 1 8.27136 36.8673 0
915 2 47.2611 77.115 0
916 1 3.53291 53.2842 0
917 2 75.6012 14.5056 0
918 2 14.0742 41.4024 0
919 1 28.5997 63.7914 0
920 1 52.4347 52.9282 0
921 1 22.0506 29.78 0
922 2 50.3245 63.5922 0
923 2 38.9602 39.2637 0
924 1 53.0521 11.785 0
925 1 61.7529 56.5845 0
926 2 27.9996 29.9142 0
927 1 68.6922 55.256 0
928 1 64.9851 72.2262 0
929 2 38.2392 49.0078 0
930 2 65.742 41.7825 0
931 1 49.684 32.2502 0
932 1 42.325 39.9649 0
933 1 32.153 5.75167 0
934 1 3.88467 8.89016 0
935 1 69.0099 75.2751 0
936 2 49.6418 72.7048 0
937 1 8.37809 56.4406 0
938 1 45.7526 9.61779 0
939 2 47.0791 27.7794 0
940 1 35.0314 54.4012 0
941 1 18.4346 1.80081 0
942 1 30.3157 28.589 0
943 2 21.057 72.6694 0
944 2 76.9649 40.438 0
945 1 14.3502 72.8944 0
946 1 12.1449 62.5148 0
947 2 55.4078 69.6409 0
948 1 29.0199 12.7851 0
949 1 24.9899 4.33158 0
950 2 32.7272 64.9389 0
951 1 25.1989 69.78 0
952 2 24.2309 73.8398 0
953 2 1.10226 21.4545 0
954 2 22.861 57.2987 0
955 1 42.656 55.34 0
956 2 14.354 64.9011 0
957 1 42.6963 35.3549 0
958 2 71.965 13.3028 0
959 2 7.5223 62.276 0
960 2 45.6568 14.9926 0
961 1 57.5305 28.324 0
962 1 74.1523 28.7434 0
963 1 54.2632 72.9824 0
964 2 8.14625 22.084 0
965 2 28.9114 43.8633 0
966 1 52.1831 47.4555 0
967 1 38.3 46.2535 0
968 1 16.3323 74.9125 0
969 1 51.9325 0.552319 0
970 2 38.6396 3.44258 0
971 1 69.113 25.853 0
972 1 28.9126 37.0433 0
973 1 9.07169 50.4124 0
974 2 74.0523 64.4402 0
975 2 24.612 9.11036 0
976 2 33.0792 25.1985 0
977 1 43.8353 24.5024 0
978 2 57.9399 11.3807 0
979 2 48.6424 20.5006 0
980 1 28.9745 62.0473 0
981 1 47.3942 47.7843 0
982 1 13.427 58.7661 0
983 1 75.6267 10.8407 0
984 1 5.72252 50.8899 0
985 1 39.8737 70.6271 0
986 1 32.509 17.5112 0
987 2 28.9067 45.1502 0
988 2 29.4127 28.7823 0
989 2 54.8881 51.3092 0
990 2 9.94033 31.4783 0
991 2 25.8043 63.0266 0
992 1 68.8134 38.2702 0
993 2 30.7648 13.4703 0
994 2 5.7655 54.0294 0
995 1 72.3413 17.965 0
996 2 0.219029 4.4668 0
997 2 13.4689 66.9264 0
998 2 22.1834 55.6098 0
999 2 29.6868 74.6308 0
1000 2 33.6526 74.3992 0
1001 1 13.3416 65.0906 0
1002 1 65.9376 54.8161 0
1003 1 23.8753 9.66382 0
1004 1 75.0664 56.9201 0
1005 2 6.83295 45.701 0
1006 2 48.3289 44.4202 0
1007 1 13.4378 35.1217 0
1008 1 54.2188 36.4956 0
1009 1 40.3583 32.2886 0
1010 1 17.0747 31.5658 0
1011 2 46.0293 35.0869 0
1012 2 6.64098 70.6283 0
1013 2 36.6583 15.963 0
1014 1 19.8538 23.4036 0
1015 1 1.79063 26.3966 0
1016 1 8.04361 53.018 0
1017 2 14.7968 34.4126 0
1018 1 28.7061 36.0512 0
1019 1 37.5938 21.7031 0
1020 2 51.1676 21.607 0
1021 2 16.5753 29.3047 0
1022 1 27.9543 70.4734 0
1023 1 21.6309 24.496 0
1024 1 20.1137 10.9651 0
1025 1 32.0676 57.6275 0
1026 1 3.69026 40.4421 0
1027 1 59.8006 8.69508 0
1028 1 31.5097 35.154 0
1029 1 54.4268 38.1232 0
1030 2 50.0703 44.5367 0
1031 2 18.6141 31.0434 0
1032 1 21.7469 57.9067 0
1033 1 44.3958 19.3702 0
1034 1 10.8959 41.6701 0
1035 1 56.8034 26.4996 0
1036 2 72.2232 70.959 0
1037 1 49.3102 9.91726 0
1038 1 64.5549 18.623 0
1039 1 49.5024 39.1593 0
1040 2 44.8015 22.7506 0
1041 1 58.287 66.5425 0
1042 2 70.2022 32.7019 0
1043 2 41.3279 44.5133 0
1044 1 60.3274 21.5705 0
1045 1 4.92679 48.9383 0
1046 1 29.9476 64.6625 0
1047 2 44.8569 39.2682 0
1048 1 40.5422 71.4393 0
1049 1 73.9093 18.4493 0
1050 2 40.7437 26.556 0
1051 1 23.6272 20.0042 0
1052 1 60.9346 55.7984 0
1053 2 16.3399 13.121 0
1054 1 16.2185 71.2556 0
1055 2 25.7082 51.7823 0
1056 2 42.7873 46.9394 0
1057 1 69.4939 30.16 0
1058 1 36.3416 12.1865 0
1059 1 29.7172 50.038 0
1060 2 30.5317 14.847 0
1061 1 11.5245 16.9767 0
1062 2 38.7074 36.1764 0
1063 1 65.6523 18.4492 0
1064 1 10.7307 20.7228 0
1065 2 43.3696 23.5048 0
1066 1 40.1355 58.3563 0
1067 1 25.3194 27.2922 0
1068 2 56.6638 67.5964 0
1069 1 18.3906 37.1376 0
1070 2 23.8002 71.2167 0
1071 2 5.68473 64.8868 0
1072 2 20.8553 46.8434 0
1073 2 22.2515 51.4595 0
1074 2 29.3432 38.9006 0
1075 1 5.78089 26.92 0
1076 1 22.8093 20.6582 0
1077 1 14.4849 7.55546 0
1078 2 55.6779 44.8614 0
1079 2 32.847 10.2716 0
1080 2 54.9747 61.7706 0
1081 2 64.3472 74.5863 0
1082 2 57.1819 24.3414 0
1083 2 37.9996 68.4269 0
1084 1 42.5206 23.2664 0
1085 1 17.8496 40.1284 0
1086 1 53.3648 53.3547 0
1087 1 55.9299 2.96792 0
1088 1 67.288 76.9315 0
1089 2 49.3236 28.9881 0
1090 1 33.0128 19.8112 0
1091 2 46.2829 74.7559 0
1092 1 45.6652 52.8688 0
1093 1 28.5817 47.0318 0
1094 2 58.8317 69.0512 0
1095 1 7.82493 3.92069 0
1096 2 52.8602 43.0443 0
1097 1 2.6436 68.3628 0
1098 1 62.8047 44.0702 0
1099 1 38.9728 50.2538 0
1100 1 10.2626 46.3757 0
1101 1 19.656 36.8529 0
1102 1 6.9346 0.249569 0
1103 1 19.8013 16.711 0
1104 1 33.2283 40.2603 0
1105 1 40.0101 11.0842 0
1106 1 76.4437 6.53284 0
1107 2 46.0647 72.9719 0
1108 1 49.3664 21.0329 0
1109 1 51.8434 38.4759 0
1110 2 8.33474 16.3342 0
1111 1 62.0613 53.965 0
1112 1 48.4931 6.27294 0
1113 2 18.1787 72.5099 0
1114 2 10.8676 45.8544 0
1115 2 19.1437 7.7359 0
1116 1 75.9734 57.9508 0
1117 1 8.16364 61.6536 0
1118 1 26.5861 7.27992 0
1119 2 23.027 42.5103 0
1120 1 29.03 24.3596 0
1121 2 69.5208 2.34277 0
1122 1 4.94053 54.419 0
1123 2 45.1437 35.1161 0
1124 1 58.971 36.5033 0
1125 2 38.1474 5.2949 0
1126 2 15.1319 14.0097 0
1127 1 74.9034 22.2637 0
1128 1 35.6866 47.8461 0
1129 1 46.2249 50.2389 0
1130 1 60.6419 72.2387 0
1131 1 53.2009 27.4814 0
1132 2 2.1293 40.1126 0
1133 2 23.7608 62.0347 0
1134 2 26.2075 67.3395 0
1135 1 22.8512 46.9337 0
1136 2 53.9515 70.5396 0
1137 1 59.4216 14.5091 0
1138 1 37.68 25.4424 0
1139 2 43.6881 28.6721 0
1140 2 71.4218 20.3054 0
1141 1 71.6052 68.3378 0
1142 1 39.0466 31.6594 0
1143 1 73.9195 66.7706 0
1144 2 67.959 0.00492669 0
1145 1 11.3434 50.3352 0
1146 1 72.478 13.9817 0
1147 1 34.2823 16.3529 0
1148 1 64.935 12.1071 0
1149 1 62.294 13.2282 0
1150 2 51.6453 44.1042 0
1151 1 60.5784 59.1487 0
1152 1 30.5164 6.50647 0
1153 1 65.1367 10.3805 0
1154 1 54.6804 9.14128 0
1155 2 21.7122 1.281 0
1156 1 56.3048 53.9023 0
1157 1 7.93159 75.1645 0
1158 2 60.1051 56.2294 0
1159 2 70.5831 73.2408 0
1160 1 3.61322 1.18565 0
1161 2 27.8558 21.84 0
1162 1 62.2904 24.0616 0
1163 2 16.962 74.4327 0
1164 1 20.6177 54.7403 0
1165 1 76.9681 17.184 0
1166 2 18.5945 59.2364 0
1167 1 46.9445 0.449657 0
1168 1 59.2868 23.9964 0
1169 1 25.0134 63.4166 0
1170 2 72.9815 46.9936 0
1171 1 57.6119 5.01567 0
1172 1 10.2187 10.3951 0
1173 1 64.3385 59.2427 0
1174 1 48.0856 75.5292 0
1175 2 66.1301 63.8938 0
1176 1 13.5551 42.1544 0
1177 1 65.7478 65.8894 0
1178 2 23.4187 56.4319 0
1179 1 30.0356 5.65158 0
1180 1 63.4451 18.7768 0
1181 1 63.7423 37.1976 0
1182 1 42.695 15.774 0
1183 2 47.7568 67.5589 0
1184 2 36.778 28.3993 0
1185 1 30.6557 52.1148 0
1186 1 35.1125 2.64462 0
1187 1 65.2051 41.1894 0
1188 2 8.93966 51.4045 0
1189 1 49.3952 41.1085 0
1190 1 26.4671 57.209 0
1191 2 56.5944 28.363 0
1192 1 14.9633 38.4964 0
1193 1 40.7468 10.4272 0
1194 2 2.19478 35.6872 0
1195 1 16.8607 63.1765 0
1196 1 70.222 48.3961 0
1197 1 21.1307 19.329 0
1198 1 53.3032 63.0284 0
1199 2 25.4804 23.197 0
1200 1 46.9984 74.2361 0
1201 1 56.3127 76.3348 0
1202 1 9.29633 36.5462 0
1203 2 47.6952 7.08625 0
1204 1 62.4772 69.282 0
1205 1 9.53539 66.2899 0
1206 1 46.9942 52.1517 0
1207 1 42.4773 16.8342 0
1208 1 74.2241 43.9258 0
1209 2 43.9312 39.0051 0
1210 1 67.4553 9.23748 0
1211 2 19.0184 48.1529 0
1212 1 29.4731 35.4352 0
1213 1 66.5127 72.0507 0
1214 1 8.95678 42.27 0
1215 1 56.2853 8.38642 0
1216 1 28.7236 45.9766 0
1217 2 56.3118 56.3662 0
1218 2 3.71711 28.3134 0
1219 1 43.4117 19.6508 0
1220 1 71.3267 9.19538 0
1221 1 61.2481 3.24869 0
1222 2 3.42897 42.4565 0
1223 1 19.0426 60.2553 0
1224 1 69.0994 16.0233 0
1225 1 76.3028 44.1023 0
1226 2 63.1981 37.9104 0
1227 1 67.9464 66.7108 0
1228 1 62.4729 53.0549 0
1229 2 55.1043 13.2104 0
1230 1 26.9088 54.2994 0
1231 2 51.1176 50.2282 0
1232 1 17.7137 57.1899 0
1233 1 35.4415 48.8509 0
1234 1 49.6035 51.7895 0
1235 1 30.2374 39.3378 0
1236 1 42.5913 51.7908 0
1237 1 12.1132 24.822 0
1238 1 46.5628 22.3293 0
1239 1 7.61185 24.9797 0
1240 1 52.1662 67.9003 0
1241 1 20.7158 76.9221 0
1242 1 76.013 5.39376 0