ITEM: TIMESTEP
0
ITEM: NUMBER OF ATOMS
7200
ITEM: BOX BOUNDS xy xz yz pp pp pp
0.0000000000000000e+00 7.7459666924100006e+01 0.0000000000000000e+00
0.0000000000000000e+00 7.7459666924100006e+01 0.0000000000000000e+00
-1.2909944490000000e-01 1.2909944490000000e-01 0.0000000000000000e+00
ITEM: ATOMS id type x y z
1 1 12.1277 20.1451 0
2 1 14.7819 64.0938 0
3 1 75.1789 71.0599 0
4 1 20.3554 8.08541 0
5 1 34.5475 56.0062 0
6 1 56.6665 28.5226 0
7 2 5.34638 3.29485 0
8 2 64.7293 46.3398 0
9 1 42.1959 56.0921 0
10 2 19.0793 14.7111 0
11 2 25.4266 53.2478 0
12 1 55.1827 11.5299 0
13 2 23.152 5.97202 0
14 1 46.5158 70.6384 0
15 1 39.4612 31.277 0
16 1 18.2142 14.946 0
17 1 31.4344 40.1236 0
18 1 33.7523 5.86015 0
19 1 26.9859 57.8512 0
20 2 44.8842 3.66897 0
21 1 12.1678 66.0003 0
22 1 54.3841 10.8184 0
23 1 75.627 45.7763 0
24 1 55.9205 66.3926 0
25 1 6.67358 71.0977 0
26 1 21.0633 67.6598 0
27 2 28.92 63.8563 0
28 1 51.3269 74.2088 0
29 2 22.4827 47.9524 0
30 2 25.3654 32.1741 0
31 1 15.1866 53.3425 0
32 1 51.091 38.0332 0
33 1 60.8099 48.5577 0
34 2 45.2971 9.6058 0
35 1 75.2116 63.1219 0
36 1 30.5773 60.0599 0
37 1 22.2171 61.5102 0
38 1 45.8351 19.7734 0
39 1 22.3358 5.68306 0
40 2 24.8001 59.2034 0
41 2 18.4434 64.6998 0
42 1 20.937 1.1673 0
43 1 19.0035 33.5969 0
44 1 34.3267 62.6989 0
45 1 3.43108 34.5532 0
46 1 68.1886 7.63694 0
47 1 73.5414 59.0816 0
48 1 44.0512 68.2521 0
49 2 77.2125 4.13565 0
50 1 31.0671 66.7107 0
51 1 1.33453 10.0007 0
52 2 33.1358 24.2321 0
53 1 53.5565 18.6018 0
54 1 49.7151 30.3319 0
55 1 9.63877 1.07926 0
56 1 45.9936 26.0713 0
57 1 67.4978 42.988 0
58 1 69.7964 69.0696 0
59 1 34.1411 2.18988 0
60 1 28.585 3.43466 0
61 1 40.4756 75.9969 0
62 1 52.2429 45.0232 0
63 1 57.2443 9.86513 0
64 1 50.6095 45.6848 0
65 1 66.9436 73.6831 0
66 2 56.0277 11.4111 0
67 2 40.7136 35.9493 0
68 2 0.92607 29.1231 0
69 1 61.9548 45.3381 0
70 1 8.51206 35.5694 0
71 2 7.5139 42.3543 0
72 1 76.7837 3.38224 0
73 1 6.23239 64.1337 0
74 2 41.5454 22.84 0
75 1 75.5222 53.3436 0
76 1 19.6887 46.9332 0
77 1 25.0261 74.4879 0
78 1 3.65276 15.5731 0
79 1 12.5894 73.4915 0
80 1 43.4282 16.583 0
81 1 55.0311 62.2388 0
82 2 44.2898 16.6658 0
83 1 5.77595 33.0216 0
84 1 33.1088 45.7789 0
85 1 34.5285 20.8246 0
86 2 34.6357 64.7144 0
87 1 71.5541 34.6975 0
88 1 18.494 54.7603 0
89 1 27.7471 13.0925 0
90 1 37.4217 37.9647 0
91 2 45.9349 41.0774 0
92 2 41.3156 56.0352 0
93 1 27.7724 16.9148 0
94 1 33.4582 55.7094 0
95 2 39.1445 56.7366 0
96 1 65.3671 1.28802 0
97 1 44.1979 49.0467 0
98 2 2.86301 60.0004 0
99 1 61.8836 48.2481 0
100 2 32.4483 30.7944 0
101 1 47.7345 54.4295 0
102 1 55.9867 21.555 0
103 1 56.6992 70.4193 0
104 1 2.74728 60.8453 0
105 2 40.1055 3.09336 0
106 2 30.4544 34.8578 0
107 1 13.2281 31.4017 0
108 1 0.764673 0.773302 0
109 1 35.7302 41.5868 0
110 2 65.1897 25.4814 0
111 1 65.9948 11.958 0
112 1 34.2428 72.8369 0
113 2 0.332845 60.3203 0
114 2 74.6287 29.4533 0
115 2 30.3654 12.7872 0
116 2 74.705 53.5889 0
117 1 16.2257 45.9328 0
118 2 46.8133 26.4665 0
119 1 62.7656 0.0392689 0
120 2 5.97144 49.8229 0
121 1 6.18936 3.54949 0
122 1 19.9727 33.1252 0
123 2 5.41224 17.7277 0
124 1 46.4123 57.2562 0
125 1 31.6912 27.2838 0
126 1 57.977 52.1267 0
127 1 4.5023 58.9717 0
128 1 14.4545 23.4575 0
129 1 16.4801 52.2406 0
130 1 7.17384 2.13202 0
131 1 59.1072 24.8411 0
132 2 31.1287 41.9653 0
133 2 52.7253 6.87883 0
134 1 65.7433 50.9743 0
135 1 31.6332 30.4113 0
136 2 55.2387 46.4223 0
137 1 61.7069 56.6162 0
138 2 70.4014 47.9485 0
139 1 68.3505 27.238 0
140 1 3.57058 21.9021 0
141 2 48.0535 63.4866 0
142 1 6.58776 22.6493 0
143 2 40.533 70.1064 0
144 2 47.2553 75.2935 0
145 2 18.3857 52.9765 0
146 1 54.9387 4.03151 0
147 1 9.44908 39.0161 0
148 1 46.406 53.3435 0
149 2 67.8853 49.1283 0
150 1 32.8256 56.5877 0
151 2 29.4757 13.8688 0
152 1 48.8776 63.1385 0
153 2 17.3374 46.3901 0
154 2 31.5176 72.2764 0
155 1 70.4038 48.9579 0
156 1 43.5029 10.2978 0
157 1 49.2038 71.091 0
158 1 60.1908 69.149 0
159 2 10.5921 26.1443 0
160 1 38.145 17.4909 0
161 1 7.16846 63.5897 0
162 2 72.6065 23.9927 0
163 1 30.5983 27.1116 0
164 1 60.1801 29.4678 0
165 1 75.7319 27.75 0
166 1 1.92088 44.7691 0
167 1 39.204 0.898903 0
168 1 38.4847 72.8334 0
169 1 56.7687 30.8952 0
170 1 57.3758 0.920473 0
171 2 36.8677 61.1257 0
172 2 33.6771 53.8079 0
173 2 43.8433 24.3646 0
174 2 27.5018 56.0527 0
175 2 30.9279 26.2666 0
176 1 46.2072 16.2267 0
177 1 19.6019 58.6616 0
178 1 61.8059 61.2848 0
179 1 64.653 24.8164 0
180 2 33.2676 39.6352 0
181 1 45.2279 27.6229 0
182 1 61.7855 58.5768 0
183 2 12.1799 37.4594 0
184 1 5.22048 67.5169 0
185 2 67.1931 29.4418 0
186 1 59.0387 35.0836 0
187 1 39.6011 46.4575 0
188 1 57.3203 47.71 0
189 2 63.799 52.9993 0
190 1 23.1347 4.07107 0
191 1 71.7932 8.14233 0
192 1 65.4909 10.1856 0
193 2 10.8988 41.6358 0
194 2 68.6074 69.0181 0
195 1 11.0836 3.32285 0
196 2 49.5791 54.923 0
197 2 20.2233 9.97791 0
198 1 13.3505 61.2398 0
199 2 75.7528 66.1399 0
200 1 59.886 27.6744 0
201 2 34.6236 1.42463 0
202 2 74.5984 55.129 0
203 1 52.3436 65.6756 0
204 1 29.5588 3.85025 0
205 1 56.0697 25.9692 0
206 2 35.7251 37.0211 0
207 2 13.9816 9.53567 0
208 1 33.6994 14.0611 0
209 1 12.191 11.5912 0
210 2 5.42721 20.4695 0
211 1 17.1849 8.16797 0
212 2 24.7688 6.21657 0
213 2 56.0113 27.891 0
214 1 71.0743 57.7289 0
215 2 67.0364 22.4232 0
216 1 20.6051 73.7113 0
217 1 59.5855 34.1552 0
218 2 54.7618 58.5387 0
219 2 68.0339 42.282 0
220 2 42.9891 64.0138 0
221 1 18.9757 45.3235 0
222 1 44.9174 12.4421 0
223 2 39.0654 67.7514 0
224 2 27.734 68.6834 0
225 1 32.4101 23.7091 0
226 2 66.4104 57.1602 0
227 2 6.07382 16.4122 0
228 1 34.4716 9.32609 0
229 1 71.0524 26.8319 0
230 1 32.1841 74.5414 0
231 1 10.8057 34.3691 0
232 1 42.0564 12.8344 0
233 1 34.832 7.6905 0
234 1 76.1225 8.34917 0
235 1 60.7135 59.0486 0
236 2 44.7134 70.3572 0
237 1 77.1581 62.1916 0
238 2 9.36694 21.4463 0
239 1 58.544 2.71913 0
240 2 61.6684 46.2181 0
241 1 47.2845 66.6451 0
242 1 18.619 30.6111 0
243 1 7.25841 56.2926 0
244 1 61.2101 64.2479 0
245 1 11.058 30.8669 0
246 1 2.04208 35.563 0
247 1 65.6012 49.8729 0
248 1 12.3166 0.893247 0
249 2 50.4333 41.2415 0
250 1 28.9736 9.38974 0
251 2 57.6544 50.161 0
252 2 65.8518 23.2818 0
253 1 19.8053 17.6269 0
254 1 54.3891 24.9355 0
255 1 65.518 42.86 0
256 1 31.3382 8.58784 0
257 1 22.1469 57.9006 0
258 1 26.122 38.7794 0
259 1 55.5862 56.779 0
260 2 44.0601 53.8536 0
261 2 26.3162 62.6981 0
262 1 24.3804 33.8052 0
263 2 12.6903 34.7441 0
264 2 71.4352 59.9122 0
265 1 76.9542 46.7892 0
266 1 38.1501 44.6957 0
267 2 61.6259 24.5452 0
268 2 56.7359 45.8877 0
269 1 48.1012 20.9711 0
270 2 9.0539 47.0758 0
271 2 22.5359 33.6603 0
272 2 20.4626 14.2553 0
273 1 14.8965 65.1214 0
274 1 32.2993 50.0096 0
275 1 8.63107 48.9987 0
276 1 75.3613 10.1981 0
277 2 15.5254 71.3458 0
278 1 7.59645 17.4697 0
279 1 4.47914 44.4131 0
280 1 20.4264 35.8728 0
281 1 30.6531 38.5431 0
282 2 75.9205 26.4554 0
283 1 76.4841 55.7528 0
284 2 54.2699 38.3453 0
285 1 71.0362 52.8145 0
286 1 11.313 63.4351 0
287 1 19.0886 76.8134 0
288 2 75.7033 3.82842 0
289 2 21.3447 39.2714 0
290 2 69.1884 76.4077 0
291 1 35.2206 22.5959 0
292 1 27.7341 58.6283 0
293 1 47.3979 18.9234 0
294 1 40.305 2.24016 0
295 1 69.96 3.31361 0
296 2 74.1661 8.50573 0
297 1 40.3525 59.7901 0
298 1 72.5757 35.1092 0
299 2 49.3256 36.4635 0
300 1 39.2761 43.7243 0
301 1 73.5196 19.7164 0
302 1 50.9415 35.2277 0
303 1 20.4814 32.2018 0
304 1 60.5493 72.3344 0
305 2 59.155 75.8941 0
306 1 63.0356 52.506 0
307 2 73.4208 38.8364 0
308 1 41.5629 5.2633 0
309 2 24.9002 16.9497 0
310 2 13.3951 12.9766 0
311 1 29.323 49.5928 0
312 1 67.4113 61.5604 0
313 1 74.6673 76.0675 0
314 1 40.571 46.0091 0
315 2 56.391 31.7323 0
316 2 39.5413 63.3581 0
317 1 50.8717 20.532 0
318 2 7.05144 31.3746 0
319 1 30.8955 25.3861 0
320 1 36.152 61.682 0
321 1 58.7047 68.3321 0
322 2 74.0213 11.8402 0
323 2 25.033 63.563 0
324 1 64.4567 41.4646 0
325 1 41.2521 6.28413 0
326 1 9.77119 58.9392 0
327 1 48.7212 54.7835 0
328 1 0.805267 37.0847 0
329 1 41.649 42.6929 0
330 2 51.7836 34.9122 0
331 2 70.1149 4.1676 0
332 1 59.4239 28.7074 0
333 1 36.9143 12.2455 0
334 1 17.0669 34.831 0
335 1 20.6457 38.7566 0
336 2 72.2605 74.3226 0
337 1 34.7682 33.7016 0
338 2 17.0308 1.56044 0
339 1 42.4664 68.415 0
340 1 18.8258 57.8935 0
341 2 74.0479 44.2159 0
342 1 67.0205 5.79088 0
343 2 56.4225 49.8086 0
344 2 22.7291 66.0629 0
345 1 8.00069 27.8174 0
346 1 17.4585 71.8009 0
347 1 35.4452 56.5705 0
348 1 56.5376 18.8646 0
349 1 33.701 20.1442 0
350 1 37.2616 31.1307 0
351 1 18.0425 53.779 0
352 1 47.9075 30.7975 0
353 1 75.3359 25.8027 0
354 2 22.6179 26.249 0
355 2 43.3844 18.2258 0
356 2 11.7959 2.8327 0
357 1 68.4333 67.4425 0
358 1 24.1566 3.76657 0
359 1 22.3366 14.5762 0
360 2 45.2767 31.2624 0
361 2 48.0507 67.1108 0
362 1 27.0627 74.6355 0
363 2 37.9566 73.5581 0
364 1 13.0977 66.5728 0
365 2 8.96778 57.1753 0
366 1 24.9023 50.6938 0
367 2 19.8018 23.446 0
368 2 51.3464 54.983 0
369 2 65.2435 70.5337 0
370 1 3.45557 28.3414 0
371 1 46.057 73.4727 0
372 2 40.4228 9.99455 0
373 1 10.5164 31.8141 0
374 2 66.5966 41.2853 0
375 1 52.2838 52.7037 0
376 2 75.4963 43.221 0
377 2 58.2051 38.1404 0
378 1 20.4093 63.7512 0
379 1 13.8835 20.2865 0
380 1 9.85029 62.4702 0
381 1 26.6525 23.3582 0
382 1 30.6752 23.6498 0
383 1 9.60338 11.8283 0
384 1 34.9461 51.6691 0
385 1 28.3942 77.1192 0
386 1 54.9578 40.3805 0
387 1 59.579 76.6292 0
388 2 55.894 57.6885 0
389 1 24.5612 56.7232 0
390 1 29.4587 12.9753 0
391 2 59.8855 26.6914 0
392 2 30.0644 10.1736 0
393 2 38.7896 64.9286 0
394 1 10.21 73.8066 0
395 1 53.1456 21.8331 0
396 1 13.7521 70.4928 0
397 1 46.7528 17.1515 0
398 1 45.4667 70.8174 0
399 1 70.0243 18.0519 0
400 1 59.8599 74.1445 0
401 1 44.5514 11.4505 0
402 2 56.5789 16.9621 0
403 1 38.2709 51.6061 0
404 1 69.3077 70.7467 0
405 2 73.8149 76.2038 0
406 1 34.2302 19.1225 0
407 2 45.7054 21.7497 0
408 1 63.5053 30.4138 0
409 1 18.5838 61.3459 0
410 2 67.4476 16.7137 0
411 2 66.6076 36.5159 0
412 1 58.9343 38.6466 0
413 1 7.16385 36.6561 0
414 1 71.2549 48.2197 0
415 1 7.08628 41.6228 0
416 2 73.698 62.2514 0
417 2 75.1325 12.7568 0
418 1 54.345 30.0212 0
419 2 56.6593 47.1668 0
420 2 24.8476 55.9012 0
421 1 60.3162 19.3682 0
422 1 2.00046 71.3289 0
423 1 4.2664 12.0527 0
424 1 60.7467 26.9356 0
425 1 58.8779 50.4666 0
426 1 56.113 73.7316 0
427 2 39.4885 14.8199 0
428 1 51.5089 50.2166 0
429 1 59.1663 71.0079 0
430 1 36.6105 37.12 0
431 1 0.148737 29.5424 0
432 1 63.4708 49.0251 0
433 1 29.1383 69.5113 0
434 1 1.85872 42.8714 0
435 1 64.0779 34.1754 0
436 2 68.0159 38.9496 0
437 2 43.7871 59.4459 0
438 1 38.8843 61.7123 0
439 2 41.1915 12.5846 0
440 1 43.3804 43.6246 0
441 2 66.6291 15.2706 0
442 1 9.65643 37.9788 0
443 1 54.5696 16.747 0
444 1 16.6749 75.4128 0
445 2 69.3766 67.4469 0
446 1 61.7176 42.1716 0
447 1 26.9743 70.9134 0
448 1 46.962 37.6395 0
449 1 37.0895 73.2899 0
450 2 48.134 59.7106 0
451 2 6.55155 61.7458 0
452 1 66.6214 11.102 0
453 1 28.5846 76.1083 0
454 2 62.6438 29.9343 0
455 2 26.486 68.0049 0
456 1 11.4124 44.5766 0
457 2 18.4976 1.84933 0
458 1 37.9479 77.1581 0
459 2 15.5888 56.7705 0
460 1 5.35027 4.2362 0
461 2 27.2547 27.0661 0
462 1 45.789 24.2899 0
463 1 75.8865 69.6689 0
464 1 9.09437 47.9618 0
465 2 40.6767 45.1375 0
466 1 21.7886 12.885 0
467 2 11.5571 1.39478 0
468 1 19.4332 36.3549 0
469 1 1.85502 2.11153 0
470 1 61.771 10.4712 0
471 2 73.983 40.8556 0
472 1 25.5555 43.0804 0
473 1 61.682 65.7865 0
474 1 33.5205 54.6633 0
475 1 22.4602 59.8197 0
476 2 39.0233 32.0525 0
477 1 60.5922 11.6483 0
478 2 33.1747 74.5138 0
479 1 33.3616 22.2956 0
480 1 19.8685 25.7 0
481 1 7.19256 18.6028 0
482 1 10.9838 25.3475 0
483 2 1.06672 1.61954 0
484 1 14.4349 38.3277 0
485 1 21.3163 57.2596 0
486 1 7.061 4.63684 0
487 2 70.9834 10.4196 0
488 1 58.9565 5.45054 0
489 1 52.3574 15.1589 0
490 1 35.4674 31.1044 0
491 1 30.5709 42.6975 0
492 2 61.1801 9.84776 0
493 1 73.356 9.00867 0
494 1 67.6312 31.9802 0
495 2 22.5033 49.1978 0
496 2 52.7562 42.1573 0
497 2 40.6498 6.93014 0
498 1 23.576 25.9511 0
499 1 35.7424 74.4652 0
500 1 2.57299 4.14995 0
501 2 45.5341 43.4568 0
502 1 16.7373 24.8242 0
503 1 50.2767 9.79192 0
504 1 37.1287 32.7545 0
505 2 26.4878 77.0736 0
506 2 17.4782 65.1823 0
507 1 42.0417 37.348 0
508 1 13.0322 32.8184 0
509 1 28.872 24.827 0
510 1 6.96695 38.7979 0
511 1 69.2807 26.7062 0
512 1 54.5327 53.2611 0
513 1 11.9423 34.3358 0
514 1 25.2867 64.4169 0
515 2 61.3762 11.2812 0
516 2 11.439 38.7366 0
517 2 74.4283 74.5546 0
518 2 19.1952 54.3151 0
519 2 33.1976 1.93525 0
520 1 74.4875 37.0696 0
521 1 42.1323 24.4786 0
522 2 24.3149 66.1949 0
523 1 77.3033 12.2376 0
524 1 70.5111 34.647 0
525 1 22.7633 0.00292411 0
526 2 76.6499 22.4179 0
527 1 49.4576 26.133 0
528 2 74.5227 5.14126 0
529 2 35.2676 45.2333 0
530 1 7.8925 59.5438 0
531 2 76.3849 68.9476 0
532 2 32.1937 60.9037 0
533 1 72.8372 5.47239 0
534 1 34.5154 27.1326 0
535 1 29.0599 19.2299 0
536 1 32.6362 65.8378 0
537 1 35.0803 47.8394 0
538 2 16.4173 21.6972 0
539 2 45.9896 76.8549 0
540 1 60.8916 40.6441 0
541 2 24.9851 7.99654 0
542 1 51.2043 56.8269 0
543 2 69.6513 55.4621 0
544 2 51.9566 10.4549 0
545 1 28.2539 22.8559 0
546 1 34.2481 3.28518 0
547 1 10.231 14.4076 0
548 2 23.5828 3.12385 0
549 2 65.4613 21.8539 0
550 2 5.20457 39.4187 0
551 1 30.3338 8.30863 0
552 2 70.6443 40.2803 0
553 2 29.5762 44.9373 0
554 1 51.7242 62.2934 0
555 1 50.2832 57.2976 0
556 1 73.0356 68.0442 0
557 1 62.0192 53.889 0
558 1 2.57308 68.4761 0
559 1 72.7214 36.1831 0
560 2 21.355 61.495 0
561 1 5.54484 0.64575 0
562 2 4.57084 11.192 0
563 2 54.0904 48.7405 0
564 1 70.1134 68.0313 0
565 2 21.7939 1.40259 0
566 2 18.135 23.8246 0
567 1 48.9161 42.0853 0
568 2 22.7838 74.0953 0
569 2 15.729 27.5158 0
570 1 73.1725 34.2141 0
571 1 0.404223 3.46738 0
572 2 6.72297 48.5388 0
573 2 77.4355 44.9188 0
574 1 3.85026 69.0836 0
575 1 18.2612 7.74435 0
576 1 16.3753 63.1437 0
577 1 43.3882 50.5355 0
578 2 67.6588 34.1562 0
579 2 45.8931 69.0616 0
580 1 62.7328 42.5929 0
581 1 6.68071 60.7466 0
582 2 68.685 59.5199 0
583 2 64.0792 58.5945 0
584 2 33.4704 65.578 0
585 1 61.0411 77.3856 0
586 1 48.7529 58.6703 0
587 2 14.662 21.772 0
588 1 49.5541 5.14368 0
589 2 53.7114 10.2673 0
590 1 24.6386 73.483 0
591 1 56.3229 6.453 0
592 1 48.564 74.3203 0
593 1 44.005 13.1036 0
594 1 59.8127 63.2812 0
595 1 72.2226 65.3806 0
596 2 7.08473 1.27116 0
597 1 3.49354 44.0164 0
598 1 69.0772 9.20851 0
599 1 2.68429 50.9655 0
600 1 0.145764 47.6428 0
601 2 42.1198 36.117 0
602 1 62.1986 14.3207 0
603 2 71.1029 50.8052 0
604 2 62.2881 16.5635 0
605 1 52.4008 69.2602 0
606 1 41.5498 4.0195 0
607 1 76.2528 1.30311 0
608 2 1.38938 40.2984 0
609 2 40.8572 0.46897 0
610 1 7.86306 49.7631 0
611 1 53.9098 58.7555 0
612 1 76.6851 6.23292 0
613 1 77.0612 23.217 0
614 2 50.4887 28.4674 0
615 1 34.5472 38.7749 0
616 1 39.6814 16.1225 0
617 1 69.0767 2.63177 0
618 2 12.0041 42.7453 0
619 2 55.2495 42.3285 0
620 2 70.8852 73.8633 0
621 2 58.4424 35.7432 0
622 1 60.1994 18.2236 0
623 1 37.4043 11.3056 0
624 2 20.4616 54.8047 0
625 1 26.9365 76.327 0
626 1 73.8341 29.1173 0
627 2 2.37635 25.0531 0
628 1 28.7082 58.1594 0
629 2 0.0134416 25.5886 0
630 1 29.1599 73.1199 0
631 1 56.9254 37.1576 0
632 1 21.523 65.1041 0
633 2 25.5822 72.0438 0
634 1 18.7903 50.6848 0
635 2 41.4952 43.6402 0
636 2 37.001 40.7236 0
637 1 11.1725 11.0416 0
638 1 67.3356 40.7762 0
639 1 70.335 46.3075 0
640 1 0.304892 53.9858 0
641 1 36.5124 33.6459 0
642 1 9.79408 33.9056 0
643 1 50.2598 44.682 0
644 2 19.334 27.3092 0
645 1 56.9257 52.2588 0
646 1 46.2487 47.068 0
647 2 23.6197 10.4838 0
648 1 64.2794 12.3802 0
649 2 10.6747 69.1499 0
650 2 47.1675 61.8765 0
651 1 46.0245 12.1708 0
652 1 29.5946 70.9341 0
653 2 13.6323 23.23 0
654 2 10.3041 3.74981 0
655 1 5.56018 51.8033 0
656 1 72.8516 53.7939 0
657 1 33.8164 46.5835 0
658 1 71.6099 13.2646 0
659 2 0.879705 66.1455 0
660 1 26.8212 35.6467 0
661 1 37.2831 9.8119 0
662 1 32.7713 60.0916 0
663 1 10.6618 28.7622 0
664 1 58.4755 75.3255 0
665 2 49.2123 76.9057 0
666 2 12.8101 58.2925 0
667 1 26.345 73.8202 0
668 2 7.72027 76.1872 0
669 1 4.37203 9.18102 0
670 2 43.9749 37.7083 0
671 2 37.2657 17.5538 0
672 1 9.95629 19.5768 0
673 1 6.94437 16.604 0
674 1 32.7229 42.586 0
675 2 4.8925 58.1436 0
676 2 37.9923 6.35537 0
677 1 41.3635 54.0728 0
678 1 53.7787 39.1009 0
679 1 46.6473 69.5496 0
680 1 31.7255 53.6267 0
681 1 26.3362 54.0935 0
682 1 62.366 59.5238 0
683 1 18.0031 59.3764 0
684 1 64.4574 68.8932 0
685 2 35.8741 18.7234 0
686 1 50.4174 6.17205 0
687 1 41.5091 18.9067 0
688 2 53.5839 73.5812 0
689 1 72.0248 62.4517 0
690 1 66.0886 72.1912 0
691 1 41.7864 39.9237 0
692 2 59.9619 44.0927 0
693 1 71.2721 76.9113 0
694 2 53.7305 64.3277 0
695 1 42.2743 11.7877 0
696 2 35.6535 47.1184 0
697 1 25.6513 13.378 0
698 1 8.30743 3.44241 0
699 1 66.6499 13.8197 0
700 1 72.0047 47.0294 0
701 1 64.1402 31.2704 0
702 1 63.6887 65.2052 0
703 2 72.0084 2.22559 0
704 2 8.27806 61.3607 0
705 2 4.88086 7.23719 0
706 1 52.2753 51.6485 0
707 2 59.7493 38.4218 0
708 1 50.3729 43.037 0
709 1 51.672 73.1812 0
710 2 60.2962 28.6019 0
711 1 55.9621 54.1221 0
712 2 62.7982 32.6926 0
713 2 68.4245 70.3905 0
714 2 0.647187 64.8906 0
715 1 45.2032 18.8587 0
716 1 76.5313 29.8091 0
717 1 29.7497 63.537 0
718 1 14.2514 3.74431 0
719 1 53.3132 36.9209 0
720 2 49.2043 38.4234 0
721 2 66.9228 39.8183 0
722 1 49.0862 7.90931 0
723 2 39.9028 75.3303 0
724 2 10.4038 59.5735 0
725 1 50.7399 39.1142 0
726 1 8.23996 30.0244 0
727 2 12.8953 1.54927 0
728 1 67.5251 55.5343 0
729 2 21.5717 59.726 0
730 1 32.8224 27.4468 0
731 2 16.6919 36.435 0
732 1 16.4408 54.3322 0
733 1 29.8807 29.5315 0
734 2 66.3707 46.4187 0
735 1 66.6761 67.1886 0
736 1 47.8822 49.3681 0
737 2 4.15271 45.7479 0
738 1 13.7587 34.5194 0
739 1 18.0357 37.5769 0
740 1 48.4952 37.8916 0
741 2 57.2328 55.6489 0
742 1 58.9977 37.5776 0
743 1 27.061 62.2233 0
744 2 72.8521 19.1099 0
745 1 23.0616 72.7497 0
746 1 35.0511 10.2301 0
747 1 47.5317 76.1458 0
748 2 43.1019 69.9071 0
749 2 22.3552 24.4959 0
750 1 55.355 35.0436 0
751 1 57.8315 40.1718 0
752 2 2.43535 70.461 0
753 1 53.0615 39.871 0
754 2 21.755 15.3215 0
755 1 24.0032 50.0075 0
756 2 49.4309 75.9288 0
757 1 48.3726 19.3723 0
758 1 6.01998 9.78586 0
759 1 61.7274 47.1015 0
760 1 12.1467 10.5028 0
761 1 69.8736 71.6843 0
762 1 15.1841 57.5444 0
763 2 77.1401 6.99918 0
764 1 75.1194 57.0024 0
765 2 47.0898 56.762 0
766 1 63.2426 22.7516 0
767 1 13.6976 1.21551 0
768 1 65.3579 8.02219 0
769 1 61.7778 50.0075 0
770 2 60.4804 73.5062 0
771 1 18.8978 40.0422 0
772 1 44.9614 51.0687 0
773 1 40.7126 43.2444 0
774 2 32.6293 25.7243 0
775 1 71.6877 30.5917 0
776 2 43.6448 42.7637 0
777 1 70.4704 55.2168 0
778 2 10.3867 63.1447 0
779 1 45.292 25.2613 0
780 1 17.0424 6.2734 0
781 1 29.6488 35.1931 0
782 1 57.4623 64.8134 0
783 1 60.6664 35.5628 0
784 1 70.7491 49.9666 0
785 2 8.92437 11.287 0
786 1 73.1798 70.1185 0
787 1 20.8398 66.5979 0
788 1 39.8214 54.8297 0
789 1 10.9309 4.37951 0
790 1 52.1772 70.3116 0
791 1 45.7959 13.2049 0
792 1 8.66331 25.1016 0
793 1 25.2581 15.0104 0
794 2 71.2845 16.7112 0
795 2 75.6798 14.1626 0
796 2 75.6271 67.7653 0
797 1 44.4331 65.3366 0
798 1 38.3762 19.0558 0
799 1 44.261 76.4261 0
800 1 30.5894 70.5695 0
801 2 6.5371 25.9717 0
802 2 28.1203 45.5929 0
803 2 23.5856 77.1514 0
804 2 52.6562 36.0701 0
805 1 23.7773 71.9538 0
806 1 53.0613 70.8513 0
807 2 39.8466 50.4472 0
808 1 50.4867 47.0426 0
809 2 36.3381 62.5187 0
810 1 58.4824 76.4504 0
811 1 28.6765 61.1085 0
812 2 59.7063 48.31 0
813 2 46.2073 58.1305 0
814 1 54.3789 31.1656 0
815 2 41.0491 16.9417 0
816 1 28.1022 34.4772 0
817 1 67.7256 75.601 0
818 2 36.7529 16.1276 0
819 2 45.7408 56.6529 0
820 1 66.907 69.8209 0
821 1 16.6638 64.8329 0
822 1 56.782 76.6993 0
823 1 17.1424 55.7413 0
824 2 35.3399 42.3964 0
825 1 29.2136 41.5931 0
826 1 32.8185 75.3689 0
827 1 7.3635 26.2186 0
828 1 76.8724 51.1278 0
829 1 72.1257 40.2588 0
830 2 47.7659 64.4882 0
831 2 43.3304 4.54478 0
832 1 74.0158 14.3275 0
833 1 24.5105 43.4311 0
834 2 48.6939 5.5436 0
835 1 68.4565 6.55787 0
836 1 58.1542 27.6333 0
837 1 56.4417 41.2559 0
838 1 38.9909 52.8362 0
839 1 16.0785 60.293 0
840 2 15.7853 46.7157 0
841 1 36.8488 52.5294 0
842 2 11.0614 61.1702 0
843 1 5.57406 42.3851 0
844 1 63.529 21.6355 0
845 2 27.9308 2.24282 0
846 1 49.621 39.2495 0
847 1 10.9609 57.6601 0
848 2 68.9572 47.6542 0
849 1 74.1558 11.0119 0
850 1 67.986 19.6581 0
851 1 39.3946 18.6873 0
852 1 12.1628 2.01922 0
853 1 42.4079 61.5239 0
854 1 37.6298 69.6859 0
855 1 39.4706 25.6273 0
856 2 18.742 42.006 0
857 1 57.8725 33.9422 0
858 2 34.4218 28.7892 0
859 1 13.1037 64.8218 0
860 2 2.07232 58.4752 0
861 2 60.1886 40.1137 0
862 2 2.99713 69.2331 0
863 1 59.0005 23.7384 0
864 1 60.2817 53.7183 0
865 2 66.1278 67.9751 0
866 1 60.4712 17.1956 0
867 2 31.5032 21.9402 0
868 1 37.1697 61.9668 0
869 1 62.1419 20.1478 0
870 1 0.098124 52.7578 0
871 1 62.761 26.0803 0
872 1 42.374 50.8152 0
873 1 50.6648 62.5819 0
874 1 3.89241 71.8067 0
875 1 34.087 57.793 0
876 2 51.6308 7.91635 0
877 1 13.3411 55.5246 0
878 2 14.7949 16.0087 0
879 1 76.557 14.1076 0
880 2 31.7322 33.6589 0
881 2 51.9338 29.3611 0
882 2 47.9727 73.6351 0
883 1 25.678 19.9712 0
884 1 56.0261 36.5991 0
885 1 38.9014 5.04566 0
886 1 37.078 60.1599 0
887 2 54.7533 50.1958 0
888 1 0.328125 76.5013 0
889 2 59.1832 49.6248 0
890 2 7.83084 25.4345 0
891 1 38.1561 10.5108 0
892 1 39.9682 67.9303 0
893 1 29.993 53.7719 0
894 1 77.0735 15.0181 0
895 2 32.4331 53.0455 0
896 1 37.5131 2.65496 0
897 2 35.6654 17.061 0
898 1 31.0734 43.6487 0
899 1 2.05323 75.7507 0
900 2 38.5936 0.285306 0
901 1 52.2992 41.42 0
902 1 24.2828 75.3036 0
903 1 37.8541 40.5108 0
904 2 0.116799 37.6483 0
905 1 63.7304 62.0141 0
906 1 69.0172 44.6083 0
907 1 3.76852 29.8984 0
908 1 50.7279 23.807 0
909 1 0.294843 48.7157 0
910 2 1.81279 50.7299 0
911 2 4.46776 4.53319 0
912 2 36.2303 32.7874 0
913 2 31.9572 51.6249 0
914 1 18.3402 12.9292 0
915 2 64.6507 5.5191 0
916 1 3.43344 39.8769 0
917 2 4.99171 33.5007 0
918 2 19.5649 35.4662 0
919 1 8.25228 57.7771 0
920 1 15.9018 47.6909 0
921 1 0.161427 26.6041 0
922 2 50.7946 18.9106 0
923 2 12.3133 24.3776 0
924 1 39.2243 17.5953 0
925 1 66.3011 47.2887 0
926 2 35.5354 35.3455 0
927 1 68.8644 77.3934 0
928 1 52.15 59.0367 0
929 2 52.1099 32.1444 0
930 2 20.0127 15.8764 0
931 1 40.8419 47.6143 0
932 1 70.4285 39.0288 0
933 1 34.3477 21.8911 0
934 1 1.97391 60.1187 0
935 1 11.3891 50.6069 0
936 2 42.1827 4.63696 0
937 1 14.2248 73.1878 0
938 1 36.6518 67.7218 0
939 2 50.4721 51.2355 0
940 1 75.8649 46.8302 0
941 1 77.2647 17.6135 0
942 1 37.953 29.7858 0
943 2 22.2358 16.7577 0
944 2 2.06835 41.9785 0
945 1 40.4882 25.2754 0
946 1 64.5186 67.1675 0
947 2 25.0993 2.04134 0
948 1 39.1879 68.6914 0
949 1 26.8074 11.6448 0
950 2 5.07721 9.75627 0
951 1 68.9432 65.5543 0
952 2 52.6708 2.6562 0
953 2 7.85396 44.8783 0
954 2 29.8678 62.6742 0
955 1 27.1893 38.62 0
956 2 58.8391 10.9274 0
957 1 48.3966 23.6087 0
958 2 19.4517 2.84077 0
959 2 73.5493 25.0839 0
960 2 29.1003 66.9693 0
961 1 49.5031 52.1042 0
962 1 24.3153 1.59252 0
963 1 16.3165 12.581 0
964 2 8.59486 9.55524 0
965 2 53.7409 53.7097 0
966 1 0.759799 62.707 0
967 1 49.8735 35.5747 0
968 1 18.3433 0.121852 0
969 1 58.0366 23.3359 0
970 2 22.4573 4.73335 0
971 1 21.3216 14.5349 0
972 1 6.92626 25.2162 0
973 1 0.958012 35.9079 0
974 2 1.07879 35.0361 0
975 2 73.1004 65.3481 0
976 2 34.6082 19.9333 0
977 1 35.9951 63.3396 0
978 2 3.12234 77.0119 0
979 2 36.1374 65.8046 0
980 1 72.9539 14.2969 0
981 1 73.726 58.0428 0
982 1 7.91463 54.7211 0
983 1 18.459 24.654 0
984 1 9.29007 57.9673 0
985 1 34.4916 11.1772 0
986 1 37.9452 52.6133 0
987 2 18.1269 12.0715 0
988 2 42.2023 34.9227 0
989 2 10.0027 34.8033 0
990 2 69.937 51.6852 0
991 2 46.1862 14.7579 0
992 1 62.3777 34.5648 0
993 2 29.0855 5.78317 0
994 2 1.94892 55.0144 0
995 1 38.9495 22.2978 0
996 2 54.6905 56.8943 0
997 2 43.5708 30.8677 0
998 2 60.445 74.9155 0
999 2 39.3203 26.4902 0
1000 2 0.496558 49.5559 0
1001 1 41.7962 65.3319 0
1002 1 23.5407 34.4569 0
1003 1 9.56863 54.2643 0
1004 1 7.62268 22.5193 0
1005 2 10.8641 23.7262 0
1006 2 67.8678 60.8356 0
1007 1 18.8802 20.3575 0
1008 1 47.7762 16.8108 0
1009 1 31.1406 33.0169 0
1010 1 11.5521 43.5202 0
1011 2 10.5573 22.2602 0
1012 2 2.40621 23.3052 0
1013 2 65.111 55.9213 0
1014 1 74.2615 15.4787 0
1015 1 76.0794 9.41079 0
1016 1 37.2028 47.9502 0
1017 2 68.8083 54.2001 0
1018 1 26.1098 25.0122 0
1019 1 44.3871 29.0417 0
1020 2 32.4672 6.3614 0
1021 2 15.954 24.5103 0
1022 1 4.87223 60.8113 0
1023 1 41.0924 9.33315 0
1024 1 9.24454 67.8443 0
1025 1 37.0765 65.8382 0
1026 1 8.01383 40.1872 0
1027 1 47.4751 2.54429 0
1028 1 2.02657 32.9901 0
1029 1 48.9784 18.1416 0
1030 2 46.9096 48.066 0
1031 2 37.5256 37.0288 0
1032 1 16.3499 73.1734 0
1033 1 57.5807 19.192 0
1034 1 35.2553 29.2452 0
1035 1 65.8272 28.4128 0
1036 2 73.608 45.9008 0
1037 1 31.2257 73.1257 0
1038 1 68.6083 60.428 0
1039 1 5.52183 31.9438 0
1040 2 65.0178 34.2192 0
1041 1 35.3848 65.2147 0
1042 2 62.813 68.0996 0
1043 2 60.614 58.1889 0
1044 1 67.7717 23.4736 0
1045 1 66.7431 23.2405 0
1046 1 41.0561 68.2088 0
1047 2 9.91849 47.719 0
1048 1 53.5014 77.4374 0
1049 1 59.8923 49.1235 0
1050 2 45.4695 6.35576 0
1051 1 43.5522 31.8086 0
1052 1 66.2825 44.4619 0
1053 2 32.6367 18.4805 0
1054 1 55.1369 7.10553 0
1055 2 32.9377 46.6896 0
1056 2 14.7023 45.25 0
1057 1 11.9718 71.724 0
1058 1 27.4177 5.88356 0
1059 1 9.18516 75.3125 0
1060 2 21.9352 42.0356 0
1061 1 10.1539 23.1651 0
1062 2 16.9473 41.4448 0
1063 1 0.0260298 67.7782 0
1064 1 23.2588 5.10992 0
1065 2 29.7378 52.9193 0
1066 1 37.4646 46.249 0
1067 1 13.9354 10.399 0
1068 2 35.6531 67.1408 0
1069 1 67.9546 24.5113 0
1070 2 8.25493 34.5343 0
1071 2 49.5369 42.7296 0
1072 2 9.486 48.7217 0
1073 2 16.3612 3.61954 0
1074 2 33.8397 45.2663 0
1075 1 75.8851 49.7471 0
1076 1 41.2651 7.57048 0
1077 1 41.7832 32.6582 0
1078 2 71.7448 26.3156 0
1079 2 38.9941 10.8386 0
1080 2 29.9871 72.8539 0
1081 2 45.963 48.9435 0
1082 2 6.35769 27.6695 0
1083 2 21.6633 20.0195 0
1084 1 44.2309 57.5184 0
1085 1 19.1979 52.3758 0
1086 1 70.1334 66.9037 0
1087 1 29.5732 72.0239 0
1088 1 44.6392 63.0593 0
1089 2 8.5171 31.7375 0
1090 1 42.9503 34.5133 0
1091 2 27.6643 17.7928 0
1092 1 63.0981 53.5842 0
1093 1 69.1329 32.9174 0
1094 2 43.6026 55.215 0
1095 1 25.3137 71.1925 0
1096 2 48.1881 18.5087 0
1097 1 76.2314 17.789 0
1098 1 62.6907 43.6845 0
1099 1 30.9966 5.03589 0
1100 1 68.3247 1.77869 0
1101 1 74.9209 11.8697 0
1102 1 26.0401 74.8903 0
1103 1 51.3405 70.9392 0
1104 1 47.0992 58.0795 0
1105 1 48.2938 40.0319 0
1106 1 16.4443 71.4304 0
1107 2 45.1324 62.3371 0
1108 1 55.6157 31.2542 0
1109 1 72.6964 24.8977 0
1110 2 14.8531 11.8168 0
1111 1 2.69813 56.8521 0
1112 1 76.197 18.8275 0
1113 2 75.4731 7.74687 0
1114 2 14.2219 53.463 0
1115 2 32.9786 49.4536 0
1116 1 77.251 64.6339 0
1117 1 66.9184 56.4259 0
1118 1 12.3152 75.5818 0
1119 2 11.1572 64.4345 0
1120 1 41.3746 57.9911 0
1121 2 21.1739 64.2693 0
1122 1 32.0743 32.511 0
1123 2 23.0549 51.9196 0
1124 1 52.7041 61.9294 0
1125 2 14.7881 4.41269 0
1126 2 15.4895 20.2302 0
1127 1 74.6173 24.0842 0
1128 1 67.2913 52.0731 0
1129 1 60.8869 39.5807 0
1130 1 30.6098 47.3135 0
1131 1 62.5047 15.3506 0
1132 2 75.9368 63.607 0
1133 2 55.9541 22.4988 0
1134 2 20.7955 72.1456 0
1135 1 0.873251 68.4165 0
1136 2 51.2128 26.8845 0
1137 1 51.0487 61.4999 0
1138 1 30.3312 13.6822 0
1139 2 57.5197 52.9121 0
1140 2 9.14073 22.9425 0
1141 1 74.9931 65.6421 0
1142 1 27.0429 52.3609 0
1143 1 48.1602 44.755 0
1144 2 60.9036 16.4183 0
1145 1 38.0208 62.6365 0
1146 1 15.548 18.8826 0
1147 1 28.3001 25.7014 0
1148 1 10.8971 36.7537 0
1149 1 57.4662 29.2877 0
1150 2 65.41 61.0443 0
1151 1 22.0094 3.88857 0
1152 1 59.7671 51.9869 0
1153 1 71.6908 29.5401 0
1154 1 13.94 4.75472 0
1155 2 60.1594 20.2761 0
1156 1 44.5396 32.1919 0
1157 1 12.3652 18.1854 0
1158 2 58.4142 47.9747 0
1159 2 5.37345 70.5186 0
1160 1 32.9335 7.80803 0
1161 2 43.9859 56.6312 0
1162 1 15.9105 9.9491 0
1163 2 13.359 73.1035 0
1164 1 23.935 58.8283 0
1165 1 20.8854 45.5415 0
1166 2 14.9564 50.701 0
1167 1 27.9772 20.3399 0
1168 1 56.3747 64.6619 0
1169 1 19.4804 66.8081 0
1170 2 6.36668 33.718 0
1171 1 48.5525 33.8467 0
1172 1 22.8766 6.81792 0
1173 1 51.7031 64.0407 0
1174 1 38.9137 29.2733 0
1175 2 62.6177 44.615 0
1176 1 68.3378 36.4511 0
1177 1 48.4773 69.9081 0
1178 2 61.1354 47.7334 0
1179 1 72.4351 32.6764 0
1180 1 52.0124 17.8072 0
1181 1 54.3119 22.8377 0
1182 1 61.0222 74.2512 0
1183 2 43.1136 73.3551 0
1184 2 28.1437 22.0037 0
1185 1 17.4318 63.2429 0
1186 1 48.9913 49.4151 0
1187 1 73.8697 72.1582 0
1188 2 4.84041 37.7589 0
1189 1 60.7826 65.21 0
1190 1 28.4038 51.49 0
1191 2 72.1912 4.88795 0
1192 1 24.6677 47.0154 0
1193 1 47.5741 17.8664 0
1194 2 16.6012 16.0628 0
1195 1 74.1287 48.7372 0
1196 1 21.8805 49.8058 0
1197 1 35.5882 38.9416 0
1198 1 62.4976 76.4126 0
1199 2 57.7527 62.4383 0
1200 1 26.9294 8.83057 0
1201 1 2.82478 73.2289 0
1202 1 5.89412 48.9339 0
1203 2 47.5079 12.32 0
1204 1 57.527 56.5638 0
1205 1 66.5886 50.3063 0
1206 1 52.2324 5.02359 0
1207 1 31.8178 62.7944 0
1208 1 75.3871 58.0211 0
1209 2 65.3496 59.6518 0
1210 1 69.7403 31.995 0
1211 2 24.8565 35.4953 0
1212 1 33.6997 36.1449 0
1213 1 61.2627 68.8584 0
1214 1 61.6474 23.6335 0
1215 1 11.6205 72.7908 0
1216 1 11.2547 49.5106 0
1217 2 67.4742 2.17564 0
1218 2 61.5231 20.8853 0
1219 1 30.1818 15.4329 0
1220 1 61.9539 18.0535 0
1221 1 61.661 54.8501 0
1222 2 66.3386 74.3538 0
1223 1 42.3825 48.0917 0
1224 1 0.752339 34.2001 0
1225 1 2.93626 25.7029 0
1226 2 65.8715 64.8178 0
1227 1 41.4779 56.9268 0
1228 1 76.17 70.7048 0
1229 2 47.9874 9.27757 0
1230 1 25.5772 49.8029 0
1231 2 52.869 18.0375 0
1232 1 67.8261 38.0811 0
1233 1 38.5485 58.5668 0
1234 1 1.73801 67.8001 0
1235 1 18.1556 46.0474 0
1236 1 52.3799 63.107 0
1237 1 37.889 20.7102 0
1238 1 24.7593 7.1394 0
1239 1 12.8645 22.7919 0
1240 1 24.3202 63.0342 0