ITEM: TIMESTEP
0
ITEM: NUMBER OF ATOMS
7200
ITEM: BOX BOUNDS xy xz yz pp pp pp
0.0000000000000000e+00 7.7459666924100006e+01 0.0000000000000000e+00
0.0000000000000000e+00 7.7459666924100006e+01 0.0000000000000000e+00
-1.2909944490000000e-01 1.2909944490000000e-01 0.0000000000000000e+00
ITEM: ATOMS id type x y z
1 1 13.6495 46.4473 0
2 1 29.851 64.4739 0
3 1 49.8414 56.8064 0
4 1 69.6995 6.5742 0
5 1 14.4841 11.8917 0
6 1 52.8639 69.7637 0
7 2 1.51061 39.9795 0
8 2 66.704 46.5543 0
9 1 28.8235 29.5624 0
10 2 67.5351 61.8575 0
11 2 46.4458 25.3298 0
12 1 8.08016 4.94973 0
13 2 38.3591 13.8378 0
14 1 30.484 73.9444 0
15 1 68.772 42.8558 0
16 1 59.7173 2.17609 0
17 1 24.1189 3.16994 0
18 1 69.6493 68.0871 0
19 1 35.5587 31.8427 0
20 2 11.2811 37.5986 0
21 1 48.4165 0.829344 0
22 1 45.2609 5.62925 0
23 1 47.8118 74.7262 0
24 1 8.58494 44.8486 0
25 1 0.20187 7.02934 0
26 1 54.6666 75.4911 0
27 2 66.0574 60.7613 0
28 1 46.9364 50.148 0
29 2 8.21971 36.038 0
30 2 63.9113 21.1818 0
31 1 71.2921 39.2502 0
32 1 22.0519 43.1472 0
33 1 54.5337 43.9214 0
34 2 60.0341 27.3838 0
35 1 40.3955 30.0913 0
36 1 68.2116 65.2391 0
37 1 24.7224 64.6201 0
38 1 41.5846 50.6459 0
39 1 77.0274 73.7068 0
40 2 25.7962 49.825 0
41 2 12.3699 57.9744 0
42 1 44.8038 69.9607 0
43 1 73.7327 29.0535 0
44 1 59.9203 70.3937 0
45 1 43.4325 40.7156 0
46 1 76.9662 1.97519 0
47 1 18.0798 27.0823 0
48 1 10.4999 15.368 0
49 2 36.5013 70.9117 0
50 1 65.7263 30.1225 0
51 1 21.3072 8.13158 0
52 2 50.0692 70.6198 0
53 1 19.9642 7.39939 0
54 1 70.0341 21.4178 0
55 1 76.459 49.711 0
56 1 32.174 54.7603 0
57 1 34.3311 18.6523 0
58 1 45.0687 36.3752 0
59 1 32.3632 69.7691 0
60 1 39.3802 19.9269 0
61 1 29.6894 52.114 0
62 1 45.2777 37.4884 0
63 1 49.9521 67.7658 0
64 1 28.5216 47.4796 0
65 1 8.43066 57.183 0
66 2 9.52638 48.2204 0
67 2 5.90111 21.989 0
68 2 42.4093 34.0986 0
69 1 15.9533 14.5196 0
70 1 68.8598 68.893 0
71 2 27.835 72.9367 0
72 1 64.7578 31.5161 0
73 1 57.0195 0.0896759 0
74 2 63.557 13.1805 0
75 1 26.8138 70.5523 0
76 1 32.665 59.6407 0
77 1 23.5032 17.1173 0
78 1 76.009 24.6078 0
79 1 34.7515 43.9379 0
80 1 70.2287 67.1742 0
81 1 39.5101 72.2534 0
82 2 28.2549 54.1869 0
83 1 37.5761 30.2582 0
84 1 58.5417 2.16281 0
85 1 18.0279 61.0049 0
86 2 5.15033 5.5209 0
87 1 5.84109 29.4741 0
88 1 52.97 50.9641 0
89 1 61.3695 72.7587 0
90 1 65.9109 72.9056 0
91 2 60.8894 50.6921 0
92 2 41.9575 19.4874 0
93 1 33.1594 70.2823 0
94 1 33.2493 42.6663 0
95 2 33.5118 41.8195 0
96 1 25.0899 50.2779 0
97 1 20.1152 67.3387 0
98 2 65.6675 50.3843 0
99 1 71.2287 2.71954 0
100 2 3.9488 65.1581 0
101 1 29.643 66.4575 0
102 1 36.0325 4.5048 0
103 1 29.761 60.5038 0
104 1 44.6712 9.08785 0
105 2 17.6015 66.0884 0
106 2 57.8808 49.2913 0
107 1 46.6158 69.7847 0
108 1 40.8132 45.4957 0
109 1 11.1204 11.6849 0
110 2 8.81036 27.4496 0
111 1 56.0134 71.8909 0
112 1 15.3034 60.9925 0
113 2 28.1053 1.21331 0
114 2 66.0378 66.4144 0
115 2 1.21431 4.98606 0
116 2 75.9723 35.1878 0
117 1 37.4344 2.17835 0
118 2 20.918 8.89704 0
119 1 40.3611 42.7384 0
120 2 22.0161 5.00152 0
121 1 47.7381 38.7435 0
122 1 18.5928 75.6718 0
123 2 34.3584 49.022 0
124 1 24.6389 38.3278 0
125 1 8.94212 69.7967 0
126 1 38.9773 31.2376 0
127 1 60.8008 44.9902 0
128 1 60.515 18.0862 0
129 1 2.74344 17.6026 0
130 1 16.8343 25.149 0
131 1 3.55966 20.6525 0
132 2 25.3125 13.4915 0
133 2 31.9736 32.7593 0
134 1 17.3784 56.1546 0
135 1 59.3351 52.3341 0
136 2 20.9066 68.9557 0
137 1 7.56932 70.8083 0
138 2 43.2718 60.2597 0
139 1 42.7585 37.9224 0
140 1 3.71599 15.0609 0
141 2 58.3716 58.3842 0
142 1 10.3473 8.62326 0
143 2 23.4991 40.3418 0
144 2 14.0554 17.6777 0
145 2 61.6263 20.3547 0
146 1 66.1361 45.9125 0
147 1 46.341 60.9619 0
148 1 23.7355 63.3219 0
149 2 1.71463 22.9686 0
150 1 22.794 66.548 0
151 2 50.7199 15.1074 0
152 1 58.5813 9.38701 0
153 2 25.0301 46.5968 0
154 2 52.6164 12.0335 0
155 1 11.9113 20.7534 0
156 1 64.6228 35.3426 0
157 1 74.179 48.8336 0
158 1 36.2339 27.5415 0
159 2 63.3529 3.35511 0
160 1 77.0158 39.4513 0
161 1 24.2064 65.5253 0
162 2 59.0322 63.4025 0
163 1 67.3304 35.1745 0
164 1 67.7293 23.7427 0
165 1 8.48674 35.1734 0
166 1 24.5456 52.3064 0
167 1 52.3923 73.9373 0
168 1 53.4341 11.7049 0
169 1 41.8165 36.8849 0
170 1 61.0966 31.8657 0
171 2 13.9955 33.7633 0
172 2 20.5726 48.016 0
173 2 45.2742 62.4055 0
174 2 36.0145 34.9303 0
175 2 19.8709 56.4561 0
176 1 38.1788 76.7159 0
177 1 60.9596 73.8152 0
178 1 19.5266 13.3902 0
179 1 4.69036 61.8084 0
180 2 34.4005 45.7151 0
181 1 17.7422 33.3082 0
182 1 1.84268 4.22909 0
183 2 30.1976 74.7555 0
184 1 15.4696 69.8136 0
185 2 3.04857 33.1829 0
186 1 75.601 17.381 0
187 1 42.7264 45.4017 0
188 1 15.7403 20.851 0
189 2 53.8103 39.3566 0
190 1 70.0322 71.2517 0
191 1 21.1 55.2449 0
192 1 2.85263 21.6177 0
193 2 34.3326 25.8591 0
194 2 57.7798 31.9108 0
195 1 7.67923 37.6804 0
196 2 27.1498 18.8029 0
197 2 16.6282 10.6162 0
198 1 38.777 23.9987 0
199 2 43.5772 38.1935 0
200 1 73.3967 4.55519 0
201 2 29.2742 76.2361 0
202 2 13.0742 28.9432 0
203 1 36.9437 18.7998 0
204 1 74.0182 43.6384 0
205 1 64.7928 44.3174 0
206 2 69.4917 30.6576 0
207 2 20.7178 32.9507 0
208 1 59.545 26.4436 0
209 1 2.29707 27.5453 0
210 2 65.0054 61.6814 0
211 1 67.7328 71.3642 0
212 2 10.9952 6.80442 0
213 2 44.2169 66.4123 0
214 1 61.8176 62.8023 0
215 2 31.4551 76.2055 0
216 1 70.3476 52.2434 0
217 1 21.3684 58.4783 0
218 2 33.8393 56.0451 0
219 2 62.7198 46.3375 0
220 2 57.9509 47.4894 0
221 1 62.7633 60.7831 0
222 1 9.10611 36.141 0
223 2 61.194 40.0987 0
224 2 22.8605 53.6681 0
225 1 47.8841 11.8372 0
226 2 72.2418 51.2248 0
227 2 48.1951 70.815 0
228 1 33.8186 11.8004 0
229 1 66.6041 64.9566 0
230 1 39.5925 51.9382 0
231 1 29.3177 28.5319 0
232 1 12.2943 54.9155 0
233 1 48.9463 25.3764 0
234 1 45.2811 50.2024 0
235 1 56.0269 0.308697 0
236 2 51.1696 1.9009 0
237 1 3.30418 9.30588 0
238 2 50.9113 43.4406 0
239 1 30.3584 28.4347 0
240 2 22.4652 65.7069 0
241 1 19.7501 31.4446 0
242 1 17.1957 10.0281 0
243 1 28.2491 14.1444 0
244 1 52.1726 30.9016 0
245 1 65.7545 12.3616 0
246 1 23.251 16.0804 0
247 1 58.4487 77.3648 0
248 1 27.9994 68.9834 0
249 2 4.76134 38.7069 0
250 1 11.0274 51.85 0
251 2 73.6225 40.6414 0
252 2 44.1987 10.8857 0
253 1 59.4963 11.0063 0
254 1 1.16241 63.2078 0
255 1 54.1769 61.6617 0
256 1 53.7753 28.9874 0
257 1 55.2433 65.427 0
258 1 35.8012 7.54034 0
259 1 49.9096 46.988 0
260 2 34.9076 66.6811 0
261 2 17.8049 75.1704 0
262 1 73.6942 13.6765 0
263 2 15.3914 39.3288 0
264 2 68.5083 60.776 0
265 1 22.52 59.7483 0
266 1 38.9912 41.2781 0
267 2 40.6735 18.4233 0
268 2 35.9146 56.1836 0
269 1 13.2181 69.9058 0
270 2 33.8417 62.7674 0
271 2 55.7785 57.812 0
272 2 10.2128 34.8778 0
273 1 54.8976 55.6626 0
274 1 47.2991 70.5973 0
275 1 11.7861 51.0819 0
276 1 23.1971 65.2214 0
277 2 19.6299 12.5437 0
278 1 19.766 23.6523 0
279 1 55.4596 9.55984 0
280 1 60.5579 34.8954 0
281 1 47.308 75.8816 0
282 2 49.968 54.5246 0
283 1 13.6982 67.2175 0
284 2 19.3061 38.4209 0
285 1 6.30898 50.0803 0
286 1 33.6226 68.6559 0
287 1 19.3426 59.7481 0
288 2 32.8206 3.36898 0
289 2 58.8705 21.0461 0
290 2 23.8626 64.6667 0
291 1 56.6882 6.22191 0
292 1 22.2274 21.2212 0
293 1 46.7934 1.41985 0
294 1 21.0102 50.6027 0
295 1 68.8951 63.2364 0
296 2 40.0178 25.8961 0
297 1 48.8506 73.0096 0
298 1 39.0292 48.6124 0
299 2 68.6677 38.9148 0
300 1 33.7213 59.414 0
301 1 38.7396 14.5909 0
302 1 21.5652 13.2337 0
303 1 75.1591 34.7774 0
304 1 56.1117 69.6771 0
305 2 29.0852 23.343 0
306 1 40.6518 48.8369 0
307 2 54.6024 58.9861 0
308 1 24.439 56.7152 0
309 2 30.4588 69.7996 0
310 2 38.7631 34.9135 0
311 1 63.4931 21.9343 0
312 1 30.7242 56.0905 0
313 1 52.2651 0.455321 0
314 1 70.9103 47.954 0
315 2 9.03954 50.7866 0
316 2 7.65596 30.6457 0
317 1 55.9991 39.4259 0
318 2 0.358253 39.0488 0
319 1 40.1295 36.5255 0
320 1 57.589 58.6817 0
321 1 66.8978 56.9939 0
322 2 33.1384 26.8987 0
323 2 28.7756 73.8915 0
324 1 46.593 8.43993 0
325 1 35.3371 39.4954 0
326 1 35.5605 43.0757 0
327 1 38.9948 77.4167 0
328 1 20.8284 27.763 0
329 1 15.1386 38.4439 0
330 2 61.2442 76.1261 0
331 2 57.0412 17.0652 0
332 1 16.4616 30.2018 0
333 1 53.5511 46.2426 0
334 1 36.613 9.06397 0
335 1 5.7773 26.0144 0
336 2 20.5371 1.57036 0
337 1 55.3163 40.8679 0
338 2 15.7733 41.8943 0
339 1 17.4123 17.9948 0
340 1 64.5347 74.7295 0
341 2 6.34206 55.5796 0
342 1 53.887 15.7039 0
343 2 67.5776 76.8055 0
344 2 6.56952 3.50931 0
345 1 61.8817 27.9468 0
346 1 6.31272 33.6762 0
347 1 16.2267 0.686271 0
348 1 32.3042 74.4186 0
349 1 59.589 3.63016 0
350 1 49.2503 7.39846 0
351 1 41.4904 34.3675 0
352 1 1.92365 1.37388 0
353 1 26.9575 30.2753 0
354 2 19.8799 19.3857 0
355 2 56.4555 52.5598 0
356 2 34.4161 29.5338 0
357 1 34.1715 42.3875 0
358 1 58.8065 72.0309 0
359 1 56.8007 33.6276 0
360 2 0.736173 10.501 0
361 2 31.5276 56.5293 0
362 1 41.4772 0.0176227 0
363 2 28.6713 51.2862 0
364 1 56.8352 54.281 0
365 2 71.3266 6.33902 0
366 1 76.7358 35.5775 0
367 2 22.0283 70.9111 0
368 2 61.8078 39.022 0
369 2 68.4874 59.1824 0
370 1 28.0307 22.1105 0
371 1 27.348 47.2221 0
372 2 50.9561 76.0858 0
373 1 77.2316 16.0869 0
374 2 2.67156 57.4506 0
375 1 42.4974 26.4682 0
376 2 12.0456 50.0667 0
377 2 21.0608 77.0012 0
378 1 71.6913 42.585 0
379 1 65.4135 57.7673 0
380 1 3.66088 35.6541 0
381 1 36.1345 20.9196 0
382 1 18.3126 51.2012 0
383 1 5.49929 73.5437 0
384 1 49.6535 34.9092 0
385 1 59.5668 25.4555 0
386 1 19.5744 75.8937 0
387 1 24.2818 40.0154 0
388 2 13.373 24.1355 0
389 1 56.1216 32.6498 0
390 1 20.5067 48.8965 0
391 2 12.8405 67.1437 0
392 2 54.0602 19.3102 0
393 2 57.5922 26.2165 0
394 1 56.6738 29.3344 0
395 1 36.6101 24.5313 0
396 1 29.7238 42.3238 0
397 1 53.2727 23.6357 0
398 1 21.7587 36.1868 0
399 1 7.92734 63.6196 0
400 1 75.0594 77.2638 0
401 1 20.7979 43.1947 0
402 2 55.7021 22.3289 0
403 1 60.7886 17.1477 0
404 1 17.846 70.6934 0
405 2 39.88 48.5898 0
406 1 27.1472 52.8788 0
407 2 27.5957 15.6872 0
408 1 26.524 64.5766 0
409 1 27.9102 25.0564 0
410 2 41.4934 51.4983 0
411 2 71.6743 33.0653 0
412 1 0.770711 16.3226 0
413 1 35.4171 56.9227 0
414 1 75.9973 75.1904 0
415 1 53.2003 4.87016 0
416 2 50.9669 50.8989 0
417 2 28.2997 35.729 0
418 1 26.017 40.6669 0
419 2 25.7282 8.0918 0
420 2 0.145441 55.9186 0
421 1 33.6184 3.81579 0
422 1 4.77981 65.288 0
423 1 44.7444 14.9048 0
424 1 62.5749 74.1122 0
425 1 37.3453 65.9339 0
426 1 27.3383 48.9588 0
427 2 50.7041 20.6551 0
428 1 75.9193 25.7502 0
429 1 1.29003 39.1506 0
430 1 68.4388 26.4489 0
431 1 76.7659 69.8321 0
432 1 6.90031 69.2321 0
433 1 31.9903 3.37806 0
434 1 63.4765 67.981 0
435 1 56.6904 18.8361 0
436 2 2.81162 62.4119 0
437 2 1.76663 17.4762 0
438 1 1.54216 45.4019 0
439 2 3.55497 56.7185 0
440 1 72.0068 63.7842 0
441 2 32.4873 19.2313 0
442 1 14.6753 28.5103 0
443 1 32.5614 76.1168 0
444 1 50.5433 22.6259 0
445 2 5.63154 46.4446 0
446 1 20.993 60.7125 0
447 1 44.4835 49.4259 0
448 1 68.6582 19.8099 0
449 1 56.1518 35.7134 0
450 2 19.0493 30.88 0
451 2 37.217 11.8724 0
452 1 11.1895 66.1663 0
453 1 13.3418 25.9023 0
454 2 46.185 16.9507 0
455 2 7.35909 12.4282 0
456 1 29.9173 29.9627 0
457 2 38.1832 30.9913 0
458 1 71.9442 27.1489 0
459 2 62.4934 50.6068 0
460 1 74.656 7.71879 0
461 2 23.5737 10.1983 0
462 1 76.059 67.02 0
463 1 2.66823 32.3321 0
464 1 47.5802 51.7057 0
465 2 74.645 33.3462 0
466 1 4.56715 49.2587 0
467 2 56.6879 32.0803 0
468 1 69.7767 24.1135 0
469 1 63.7725 49.9089 0
470 1 9.97261 50.8745 0
471 2 26.118 5.39085 0
472 1 61.6254 13.1439 0
473 1 51.7735 6.28175 0
474 1 68.7212 51.8715 0
475 1 74.9512 68.8521 0
476 2 41.7874 53.6911 0
477 1 73.1853 70.731 0
478 2 73.4904 42.9668 0
479 1 1.27366 61.3125 0
480 1 36.9539 26.7627 0
481 1 11.9317 73.5778 0
482 1 65.5439 13.352 0
483 2 8.26502 12.5149 0
484 1 59.1621 22.8123 0
485 1 33.6268 45.3377 0
486 1 66.0318 54.2871 0
487 2 31.1774 28.6684 0
488 1 21.2694 20.6464 0
489 1 18.2858 40.4451 0
490 1 55.5596 43.726 0
491 1 31.027 47.3095 0
492 2 66.2981 8.3893 0
493 1 67.065 5.5114 0
494 1 73.4029 67.6982 0
495 2 4.01656 16.0394 0
496 2 44.6102 60.9726 0
497 2 0.893033 57.7851 0
498 1 22.7675 10.5234 0
499 1 31.5759 35.8942 0
500 1 57.7164 10.8626 0
501 2 66.234 48.7237 0
502 1 38.1632 31.9213 0
503 1 45.9905 62.7415 0
504 1 38.6171 22.8979 0
505 2 5.43005 58.1102 0
506 2 70.1395 45.3441 0
507 1 25.6717 21.4133 0
508 1 66.3167 39.5481 0
509 1 13.2992 8.86451 0
510 1 6.76829 30.5202 0
511 1 17.2084 22.4673 0
512 1 43.7875 59.0942 0
513 1 9.24617 70.7498 0
514 1 61.2639 30.661 0
515 2 3.82391 69.3879 0
516 2 72.6142 55.9702 0
517 2 14.064 52.3945 0
518 2 60.5275 1.76174 0
519 2 6.11784 17.4785 0
520 1 63.1116 39.7087 0
521 1 38.7629 6.03962 0
522 2 60.2691 24.1948 0
523 1 73.5389 37.0353 0
524 1 57.8561 7.07266 0
525 1 49.8932 68.7644 0
526 2 62.6694 33.1517 0
527 1 55.3814 17.3674 0
528 2 2.15714 22.0867 0
529 2 1.83379 29.5675 0
530 1 15.6779 4.05056 0
531 2 24.8526 24.3388 0
532 2 32.4161 34.3971 0
533 1 2.69596 29.3969 0
534 1 51.8169 16.6017 0
535 1 18.1291 19.9496 0
536 1 34.1552 61.042 0
537 1 15.3641 2.73151 0
538 2 35.4081 64.9079 0
539 2 60.4782 69.7734 0
540 1 53.5967 9.38299 0
541 2 38.3499 40.4433 0
542 1 6.80421 28.8207 0
543 2 61.0597 54.8004 0
544 2 21.5768 16.8575 0
545 1 62.8561 17.9123 0
546 1 64.7366 11.7618 0
547 1 40.9682 17.563 0
548 2 62.6085 62.4665 0
549 2 5.76721 30.3928 0
550 2 47.5186 0.797151 0
551 1 15.3065 43.7773 0
552 2 55.5713 14.901 0
553 2 15.1023 24.3466 0
554 1 71.3151 61.9923 0
555 1 26.3929 10.8327 0
556 1 55.4178 62.7664 0
557 1 35.2657 11.528 0
558 1 3.23139 54.7795 0
559 1 20.6249 32.0256 0
560 2 58.1517 56.6751 0
561 1 32.1451 43.6103 0
562 2 68.5827 31.7265 0
563 2 4.3171 45.2548 0
564 1 19.023 1.58079 0
565 2 26.7235 26.3908 0
566 2 73.6627 18.8977 0
567 1 65.9739 49.5133 0
568 2 67.6033 48.799 0
569 2 58.6096 62.5163 0
570 1 34.1318 24.1834 0
571 1 56.0065 7.94035 0
572 2 39.1344 33.1818 0
573 2 66.967 52.5481 0
574 1 65.7312 42.4613 0
575 1 38.0292 26.6183 0
576 1 41.3245 18.9189 0
577 1 28.9948 42.992 0
578 2 63.401 48.0588 0
579 2 63.4575 14.8985 0
580 1 6.94353 5.34132 0
581 1 69.5474 75.1413 0
582 2 37.8745 70.15 0
583 2 5.30171 65.903 0
584 2 71.5624 73.3338 0
585 1 58.4299 3.467 0
586 1 11.6119 8.3657 0
587 2 67.0728 32.7346 0
588 1 62.2067 56.097 0
589 2 41.1766 38.6832 0
590 1 17.5374 60.0486 0
591 1 34.725 68.8842 0
592 1 35.9772 49.2057 0
593 1 0.147824 2.83611 0
594 1 49.5262 0.818131 0
595 1 4.53107 56.5074 0
596 2 49.0551 46.8675 0
597 1 42.7644 47.5987 0
598 1 42.3601 22.3752 0
599 1 26.543 33.7454 0
600 1 76.0902 61.023 0
601 2 57.1715 40.7962 0
602 1 30.8199 62.7038 0
603 2 15.2501 26.1559 0
604 2 6.13026 25.2477 0
605 1 20.5923 6.57904 0
606 1 21.8366 77.2329 0
607 1 47.6657 19.3169 0
608 2 12.501 64.6926 0
609 2 72.9924 20.3246 0
610 1 57.49 42.9321 0
611 1 15.466 75.1647 0
612 1 25.2314 25.2665 0
613 1 74.9461 67.0035 0
614 2 55.9305 45.5756 0
615 1 44.504 76.5755 0
616 1 56.6543 10.9333 0
617 1 37.6838 43.1858 0
618 2 36.2282 23.7269 0
619 2 24.215 48.5936 0
620 2 48.5734 50.1559 0
621 2 6.98655 72.3725 0
622 1 32.7229 11.656 0
623 1 67.6628 7.20915 0
624 2 50.0961 7.39293 0
625 1 51.9537 64.0254 0
626 1 38.5351 66.0149 0
627 2 75.5512 10.997 0
628 1 54.6219 35.0847 0
629 2 23.3588 74.1805 0
630 1 20.1883 69.6723 0
631 1 75.3246 42.5272 0
632 1 13.4735 11.8533 0
633 2 24.0619 19.7938 0
634 1 28.9124 36.3053 0
635 2 8.01939 66.8476 0
636 2 46.3395 77.0534 0
637 1 68.5802 1.69577 0
638 1 72.062 53.0121 0
639 1 54.2098 54.587 0
640 1 7.4054 7.48868 0
641 1 2.29623 34.6627 0
642 1 59.3711 43.4674 0
643 1 59.895 23.4196 0
644 2 47.0961 43.3343 0
645 1 55.0624 22.8415 0
646 1 36.0647 52.0676 0
647 2 0.0495122 68.4537 0
648 1 20.6595 30.9868 0
649 2 73.349 44.2773 0
650 2 14.4662 62.704 0
651 1 23.1278 3.2474 0
652 1 12.7369 1.91912 0
653 2 39.8636 58.672 0
654 2 26.6573 9.30314 0
655 1 51.0086 66.78 0
656 1 56.9952 64.4997 0
657 1 45.4298 16.516 0
658 1 58.7579 45.1047 0
659 2 38.31 48.1767 0
660 1 75.7826 1.98291 0
661 1 5.80548 21.0839 0
662 1 23.1081 62.3636 0
663 1 55.3182 70.4195 0
664 1 60.4644 51.4019 0
665 2 10.3651 31.0478 0
666 2 43.1121 22.8013 0
667 1 35.5343 12.5761 0
668 2 72.6376 52.1648 0
669 1 68.5642 40.7022 0
670 2 38.7993 74.6723 0
671 2 11.551 43.62 0
672 1 24.1881 15.551 0
673 1 34.0774 12.8179 0
674 1 44.4785 29.6047 0
675 2 15.4799 34.7874 0
676 2 5.86192 75.9086 0
677 1 52.5965 75.7384 0
678 1 71.3623 19.49 0
679 1 60.2709 55.2871 0
680 1 36.1103 74.8829 0
681 1 68.5371 12.3811 0
682 1 54.8546 50.3269 0
683 1 9.58106 29.0758 0
684 1 59.0964 67.5964 0
685 2 7.90159 61.1973 0
686 1 61.1483 24.166 0
687 1 41.9156 27.6116 0
688 2 71.1656 66.8389 0
689 1 58.4147 34.4639 0
690 1 34.3635 21.481 0
691 1 2.19418 68.6713 0
692 2 10.9735 22.6913 0
693 1 43.8959 3.67039 0
694 2 20.8106 53.2758 0
695 1 54.2143 41.0027 0
696 2 47.7504 57.4011 0
697 1 43.9398 70.5359 0
698 1 67.3204 39.6089 0
699 1 2.18398 30.3424 0
700 1 61.7156 22.1375 0
701 1 47.9412 54.228 0
702 1 11.6075 3.22769 0
703 2 18.9329 37.1588 0
704 2 36.3949 9.85478 0
705 2 72.0351 28.243 0
706 1 5.41286 23.8715 0
707 2 17.8289 31.4442 0
708 1 11.7034 7.26084 0
709 1 10.1422 6.92093 0
710 2 76.1932 28.3318 0
711 1 13.8669 29.2831 0
712 2 18.7915 49.3764 0
713 2 40.1669 17.1232 0
714 2 4.31984 46.7136 0
715 1 15.9204 76.1303 0
716 1 64.2649 59.1848 0
717 1 19.2914 11.7514 0
718 1 51.9155 62.1539 0
719 1 48.4558 42.314 0
720 2 21.72 0.63764 0
721 2 53.1159 55.8597 0
722 1 13.016 41.1565 0
723 2 33.5198 4.67648 0
724 2 56.0453 53.8233 0
725 1 6.95462 32.8986 0
726 1 22.9807 75.9759 0
727 2 33.8642 22.2056 0
728 1 9.79524 46.6575 0
729 2 55.9968 13.8058 0
730 1 61.6146 26.8709 0
731 2 38.9255 65.258 0
732 1 24.8904 2.39455 0
733 1 2.49019 8.47866 0
734 2 21.758 39.7958 0
735 1 20.8677 17.2853 0
736 1 75.32 38.7424 0
737 2 59.7129 29.5452 0
738 1 13.2893 18.2366 0
739 1 17.7866 39.4918 0
740 1 30.5635 72.8923 0
741 2 55.242 39.0291 0
742 1 76.4065 65.9946 0
743 1 43.9758 1.00421 0
744 2 22.067 52.1284 0
745 1 45.2078 10.8975 0
746 1 39.2348 27.9176 0
747 1 22.9125 47.7501 0
748 2 54.6997 9.13091 0
749 2 11.4403 67.1265 0
750 1 58.5423 24.3867 0
751 1 62.1073 11.8552 0
752 2 1.84049 63.8405 0
753 1 19.4363 18.6432 0
754 2 68.8805 55.4027 0
755 1 73.4204 0.320826 0
756 2 28.9461 50.3895 0
757 1 13.3522 33.1126 0
758 1 66.3663 4.68041 0
759 1 21.4022 47.9441 0
760 1 40.3989 21.8383 0
761 1 25.3064 72.3541 0
762 1 30.5229 2.31707 0
763 2 62.8925 41.993 0
764 1 25.3389 10.6546 0
765 2 39.7764 27.2586 0
766 1 30.26 71.8196 0
767 1 44.4052 16.4378 0
768 1 68.1154 36.1252 0
769 1 9.1176 40.1147 0
770 2 23.3296 15.1877 0
771 1 23.6123 68.9238 0
772 1 0.77004 46.9095 0
773 1 42.3703 17.5807 0
774 2 31.0286 41.4009 0
775 1 35.9398 22.0879 0
776 2 64.3787 1.84356 0
777 1 37.6002 22.4853 0
778 2 16.2864 31.0848 0
779 1 10.5467 37.1984 0
780 1 62.9748 66.4682 0
781 1 8.27346 28.0882 0
782 1 45.7361 7.78838 0
783 1 63.5503 14.0203 0
784 1 68.4722 61.5897 0
785 2 12.5354 33.3873 0
786 1 53.3959 68.7405 0
787 1 74.6003 47.8995 0
788 1 5.25367 59.0252 0
789 1 54.0976 64.2503 0
790 1 73.6722 30.1019 0
791 1 15.7609 57.3503 0
792 1 0.268971 63.7251 0
793 1 42.8237 21.4512 0
794 2 70.5299 3.16451 0
795 2 67.8467 21.9556 0
796 2 58.7157 71.1007 0
797 1 40.0054 41.7159 0
798 1 16.33 60.6346 0
799 1 63.5551 28.9087 0
800 1 44.935 3.47431 0
801 2 67.6495 12.9623 0
802 2 39.4638 69.5252 0
803 2 35.9269 0.562021 0
804 2 48.9859 0.0572114 0
805 1 35.8254 19.2345 0
806 1 38.2816 39.555 0
807 2 29.2707 13.8573 0
808 1 68.3132 4.23849 0
809 2 56.2027 10.2062 0
810 1 57.1348 24.6253 0
811 1 67.8372 66.1976 0
812 2 30.3698 50.5029 0
813 2 24.8257 45.0204 0
814 1 73.4619 56.789 0
815 2 62.7703 55.3788 0
816 1 76.2489 54.6709 0
817 1 15.8349 18.676 0
818 2 31.8454 46.8253 0
819 2 23.6594 43.5871 0
820 1 29.6123 2.76159 0
821 1 48.348 39.5547 0
822 1 50.7257 21.5091 0
823 1 0.403544 55.0254 0
824 2 27.0619 43.3434 0
825 1 5.90682 5.90323 0
826 1 22.6245 40.0415 0
827 1 14.8799 52.5245 0
828 1 70.5641 38.5714 0
829 1 30.058 9.31768 0
830 2 12.5886 51.4017 0
831 2 45.0751 35.3312 0
832 1 21.374 15.1262 0
833 1 9.32277 45.465 0
834 2 59.9776 41.0069 0
835 1 39.4653 13.7271 0
836 1 22.156 55.5032 0
837 1 47.5935 48.6852 0
838 1 45.442 77.0827 0
839 1 63.8637 19.2935 0
840 2 9.67469 25.1501 0
841 1 35.921 30.7402 0
842 2 50.1041 9.14135 0
843 1 7.6003 44.3091 0
844 1 43.7874 20.0111 0
845 2 59.8698 7.92835 0
846 1 10.5718 67.0574 0
847 1 35.1662 34.8204 0
848 2 54.5343 60.0125 0
849 1 14.6165 10.4136 0
850 1 69.2606 45.4635 0
851 1 50.8469 58.948 0
852 1 10.3507 33.8542 0
853 1 55.1132 68.0526 0
854 1 14.9764 66.2313 0
855 1 5.15073 26.9394 0
856 2 60.6083 31.1378 0
857 1 46.3933 72.7733 0
858 2 66.8718 17.8267 0
859 1 76.0274 40.77 0
860 2 8.79951 63.795 0
861 2 68.2945 23.0677 0
862 2 8.71901 9.45549 0
863 1 63.8558 47.3205 0
864 1 67.5456 18.3431 0
865 2 57.8637 10.0142 0
866 1 35.9607 26.4732 0
867 2 62.3568 3.66955 0
868 1 34.7787 17.7834 0
869 1 65.2541 54.8855 0
870 1 8.82919 24.5028 0
871 1 27.0749 7.27664 0
872 1 58.1633 65.9491 0
873 1 36.5914 25.6469 0
874 1 7.3816 57.124 0
875 1 51.96 9.46865 0
876 2 30.0142 24.8952 0
877 1 44.8357 75.5893 0
878 2 0.28922 47.5401 0
879 1 2.61985 48.475 0
880 2 2.49042 58.9854 0
881 2 70.4947 74.6868 0
882 2 42.2625 28.3886 0
883 1 65.9109 27.6501 0
884 1 75.6105 65.4505 0
885 1 4.95528 27.926 0
886 1 69.8052 44.5498 0
887 2 6.55908 7.40363 0
888 1 36.7781 14.918 0
889 2 72.6926 47.6036 0
890 2 53.974 50.2313 0
891 1 56.2683 70.7542 0
892 1 16.7755 51.6128 0
893 1 27.8149 29.2465 0
894 1 20.4606 74.1116 0
895 2 74.3653 4.10107 0
896 1 40.8579 25.88 0
897 2 50.7121 46.932 0
898 1 66.2991 34.5107 0
899 1 39.4229 53.7714 0
900 2 58.7722 25.217 0
901 1 2.30149 19.5891 0
902 1 73.9187 19.7944 0
903 1 52.6025 65.1076 0
904 2 40.6885 5.72047 0
905 1 7.32742 50.6304 0
906 1 34.7583 40.406 0
907 1 33.4785 49.2102 0
908 1 48.2352 21.219 0
909 1 35.937 34.0829 0
910 2 22.4604 45.7973 0
911 2 55.5414 35.0167 0
912 2 36.6407 69.42 0
913 2 28.4474 28.4998 0
914 1 20.0827 4.98733 0
915 2 71.9369 11.7649 0
916 1 28.5241 70.2109 0
917 2 16.7997 24.251 0
918 2 75.9388 20.2966 0
919 1 63.4671 74.5227 0
920 1 49.9548 18.0602 0
921 1 54.8363 29.2719 0
922 2 37.5568 27.4003 0
923 2 16.9251 53.8564 0
924 1 13.2335 64.1095 0
925 1 68.7555 28.9622 0
926 2 22.6671 19.4866 0
927 1 57.8109 54.7079 0
928 1 68.6436 30.856 0
929 2 6.91166 38.2546 0
930 2 5.44657 16.6336 0
931 1 34.8599 22.4885 0
932 1 37.2946 32.9833 0
933 1 71.3427 67.6817 0
934 1 60.3845 56.3868 0
935 1 68.7881 54.4873 0
936 2 22.1846 7.91528 0
937 1 43.4652 44.7493 0
938 1 51.4421 15.6447 0
939 2 19.2751 67.2961 0
940 1 55.3172 10.6043 0
941 1 71.2537 49.8217 0
942 1 56.6351 8.93275 0
943 2 56.8568 4.148 0
944 2 3.14913 52.5849 0
945 1 8.04315 10.6174 0
946 1 40.0412 20.8219 0
947 2 2.69694 3.58901 0
948 1 31.7831 39.9659 0
949 1 38.1931 10.0466 0
950 2 76.2905 36.2511 0
951 1 23.2175 44.2624 0
952 2 3.92863 66.8939 0
953 2 34.9035 71.5756 0
954 2 27.187 67.0339 0
955 1 39.3001 8.90249 0
956 2 36.1106 5.43779 0
957 1 14.1577 41.381 0
958 2 33.712 33.3222 0
959 2 23.0216 45.0675 0
960 2 52.2928 21.9094 0
961 1 5.25934 64.0907 0
962 1 1.1834 22.1762 0
963 1 33.2642 64.7596 0
964 2 26.8 40.4356 0
965 2 75.5952 48.0799 0
966 1 68.0038 67.5359 0
967 1 54.1016 67.92 0
968 1 1.3872 5.84992 0
969 1 51.7097 67.5816 0
970 2 71.7448 20.8179 0
971 1 37.9362 74.5695 0
972 1 7.755 53.4378 0
973 1 64.0653 36.3457 0
974 2 29.0245 60.7849 0
975 2 10.3756 66.2369 0
976 2 66.4893 42.7629 0
977 1 46.4555 12.7021 0
978 2 55.5565 72.5965 0
979 2 61.2299 21.4165 0
980 1 8.2919 36.8935 0
981 1 7.20582 45.936 0
982 1 11.4874 57.7021 0
983 1 16.1294 61.6882 0
984 1 65.7041 35.4485 0
985 1 3.66122 30.985 0
986 1 39.6827 10.08 0
987 2 41.6816 18.0725 0
988 2 65.3113 18.3045 0
989 2 61.3902 7.8996 0
990 2 20.3944 25.8234 0
991 2 39.6735 12.963 0
992 1 63.2734 33.7523 0
993 2 64.5754 5.28154 0
994 2 11.3005 32.1222 0
995 1 30.7617 29.4421 0
996 2 15.5451 58.2979 0
997 2 68.2082 30.1117 0
998 2 48.6149 14.7334 0
999 2 30.8771 7.37077 0
1000 2 65.1592 30.7664 0
1001 1 28.0438 50.5861 0
1002 1 41.622 5.70305 0
1003 1 77.2984 13.9694 0
1004 1 51.7879 76.4349 0
1005 2 41.4075 15.5252 0
1006 2 43.3986 71.3244 0
1007 1 17.6614 44.2308 0
1008 1 68.0695 5.92848 0
1009 1 72.7442 14.1044 0
1010 1 30.8929 20.4223 0
1011 2 23.9358 60.4398 0
1012 2 29.8893 71.0908 0
1013 2 76.4778 40.1127 0
1014 1 4.47761 36.4764 0
1015 1 37.6702 4.30223 0
1016 1 37.7395 20.172 0
1017 2 38.4503 11.498 0
1018 1 35.0807 67.8756 0
1019 1 64.4142 53.3993 0
1020 2 7.75222 60.3021 0
1021 2 77.4032 53.0228 0
1022 1 40.6883 74.7146 0
1023 1 7.68579 22.5642 0
1024 1 6.20588 58.6011 0
1025 1 12.7869 20.2695 0
1026 1 26.1378 36.3092 0
1027 1 20.73 19.191 0
1028 1 63.6809 11.4655 0
1029 1 53.0757 28.1452 0
1030 2 52.3701 48.6114 0
1031 2 53.1613 26.1391 0
1032 1 22.2929 48.523 0
1033 1 19.2066 69.4087 0
1034 1 52.5126 68.2239 0
1035 1 8.38406 20.9269 0
1036 2 40.4741 4.08846 0
1037 1 22.5649 0.559188 0
1038 1 63.4287 73.4272 0
1039 1 8.52524 29.1163 0
1040 2 43.9556 58.1152 0
1041 1 72.5893 32.7272 0
1042 2 27.4643 74.5408 0
1043 2 28.1708 68.0552 0
1044 1 67.8811 3.39059 0
1045 1 67.0686 63.5115 0
1046 1 23.7682 66.9232 0
1047 2 22.0271 33.3003 0
1048 1 50.4618 44.1795 0
1049 1 61.0584 10.5949 0
1050 2 36.9008 10.9376 0
1051 1 63.7409 7.02977 0
1052 1 72.0707 31.0929 0
1053 2 30.3142 3.21145 0
1054 1 11.3466 9.37572 0
1055 2 42.5851 64.2723 0
1056 2 74.3532 52.8632 0
1057 1 55.2645 34.2235 0
1058 1 8.83033 58.1152 0
1059 1 8.07395 0.13607 0
1060 2 54.836 41.5675 0
1061 1 32.7828 72.3027 0
1062 2 8.67363 49.3548 0
1063 1 22.5569 51.2585 0
1064 1 8.60622 8.6191 0
1065 2 65.8456 3.94437 0
1066 1 46.9707 61.7587 0
1067 1 57.3281 35.9682 0
1068 2 49.5097 61.181 0
1069 1 58.5608 26.0608 0
1070 2 6.58582 26.0266 0
1071 2 9.37886 35.2934 0
1072 2 11.6059 46.4511 0
1073 2 5.9165 32.8388 0
1074 2 63.5476 69.6694 0
1075 1 36.2088 28.7053 0
1076 1 6.44089 71.661 0
1077 1 58.0399 40.7959 0
1078 2 50.6461 25.7758 0
1079 2 43.3087 6.17144 0
1080 2 55.7031 2.2729 0
1081 2 68.9886 7.62052 0
1082 2 19.0073 29.9941 0
1083 2 12.4999 61.0221 0
1084 1 46.1401 28.0387 0
1085 1 65.8832 56.8419 0
1086 1 8.32437 50.144 0
1087 1 68.5512 53.5153 0
1088 1 31.1954 26.4812 0
1089 2 32.2698 24.3363 0
1090 1 63.3855 70.7181 0
1091 2 76.7175 9.58821 0
1092 1 74.7565 3.28057 0
1093 1 13.9323 68.9079 0
1094 2 54.9442 52.4157 0
1095 1 53.2788 41.2361 0
1096 2 62.7715 56.868 0
1097 1 76.4294 58.1433 0
1098 1 59.4648 64.9191 0
1099 1 70.6943 32.8919 0
1100 1 5.59077 22.7473 0
1101 1 26.6351 6.23142 0
1102 1 28.9832 22.4551 0
1103 1 58.782 60.844 0
1104 1 57.986 73.9361 0
1105 1 47.0022 37.9201 0
1106 1 23.4502 39.3858 0
1107 2 12.28 39.2821 0
1108 1 40.8452 23.0351 0
1109 1 25.1741 31.4768 0
1110 2 43.2872 7.69547 0
1111 1 58.4761 44.0818 0
1112 1 23.7314 67.9464 0
1113 2 64.2743 27.0298 0
1114 2 59.9068 39.0822 0
1115 2 52.1982 28.3416 0
1116 1 36.7701 13.8804 0
1117 1 75.6214 63.0082 0
1118 1 3.17527 15.9476 0
1119 2 2.95462 51.1308 0
1120 1 56.177 27.6846 0
1121 2 75.2579 24.2415 0
1122 1 16.3305 67.9484 0
1123 2 63.7109 42.6852 0
1124 1 58.3175 32.7386 0
1125 2 22.9827 67.4583 0
1126 2 35.6072 17.1608 0
1127 1 24.6121 61.0507 0
1128 1 50.9733 9.04987 0
1129 1 9.05886 0.630951 0
1130 1 39.4964 29.5864 0
1131 1 27.1855 69.6248 0
1132 2 46.2336 16.0412 0
1133 2 45.9033 45.8864 0
1134 2 54.492 64.9939 0
1135 1 28.1778 61.0448 0
1136 2 23.2439 46.9744 0
1137 1 35.1529 48.6278 0
1138 1 76.0132 43.3172 0
1139 2 71.6107 35.8366 0
1140 2 46.6237 4.14219 0
1141 1 42.1226 3.65393 0
1142 1 37.057 23.4758 0
1143 1 72.8979 43.6001 0
1144 2 7.53979 20.3683 0
1145 1 74.8056 29.2064 0
1146 1 12.6001 6.74589 0
1147 1 35.6435 23.0939 0
1148 1 14.1006 7.05717 0
1149 1 39.2916 42.971 0
1150 2 70.2768 16.9957 0
1151 1 52.3153 49.4045 0
1152 1 19.1909 60.7277 0
1153 1 9.57792 9.37717 0
1154 1 6.33667 24.4453 0
1155 2 28.2786 65.4975 0
1156 1 35.4484 72.3011 0
1157 1 28.5548 33.699 0
1158 2 31.0663 31.4633 0
1159 2 31.5004 18.209 0
1160 1 46.7849 45.868 0
1161 2 4.86031 34.1185 0
1162 1 53.5185 31.5593 0
1163 2 41.8561 37.7882 0
1164 1 51.3455 74.5318 0
1165 1 10.832 74.9886 0
1166 2 2.71694 70.246 0
1167 1 18.6628 20.8326 0
1168 1 25.6114 27.9442 0
1169 1 40.3889 57.9662 0
1170 2 30.5879 44.8466 0
1171 1 43.3752 25.9646 0
1172 1 42.9929 1.58819 0
1173 1 15.9682 65.8114 0
1174 1 28.6882 72.9079 0
1175 2 27.7905 39.1176 0
1176 1 71.1169 40.4203 0
1177 1 65.7161 76.1853 0
1178 2 44.471 50.3277 0
1179 1 76.1738 74.1803 0
1180 1 61.6195 74.5538 0
1181 1 33.3269 67.6792 0
1182 1 23.5803 38.3136 0
1183 2 33.5575 73.7745 0
1184 2 32.9024 58.8578 0
1185 1 9.51308 66.2873 0
1186 1 49.2119 30.6923 0
1187 1 71.9452 70.3486 0
1188 2 62.8095 17.0626 0
1189 1 73.7874 10.8572 0
1190 1 27.7931 42.8244 0
1191 2 77.254 19.696 0
1192 1 13.8316 31.0462 0
1193 1 32.646 46.71 0
1194 2 53.3185 5.71899 0
1195 1 60.1346 42.8267 0
1196 1 14.8419 49.7744 0
1197 1 5.58959 15.7364 0
1198 1 47.3275 42.4119 0
1199 2 39.3924 18.9654 0
1200 1 29.0763 41.299 0
1201 1 72.1156 45.4714 0
1202 1 76.8727 28.8515 0
1203 2 9.70791 70.0465 0
1204 1 1.34094 75.1312 0
1205 1 53.8958 59.4648 0
1206 1 63.352 48.9559 0
1207 1 9.4774 44.2816 0
1208 1 51.6706 2.51581 0
1209 2 26.577 32.953 0
1210 1 62.6529 38.7772 0
1211 2 33.7138 13.541 0
1212 1 47.9628 40.7062 0
1213 1 31.5887 19.0835 0
1214 1 12.1572 37.6747 0
1215 1 60.8986 13.9303 0
1216 1 25.7569 47.513 0
1217 2 61.928 13.9453 0
1218 2 34.9048 32.4254 0
1219 1 16.7727 72.2925 0
1220 1 31.5528 48.2672 0
1221 1 10.0074 25.9666 0
1222 2 3.35795 45.0858 0
1223 1 25.8132 15.3229 0
1224 1 20.0696 35.9472 0
1225 1 67.892 38.6287 0
1226 2 61.4576 24.9932 0
1227 1 0.928491 1.21908 0
1228 1 32.3398 66.9079 0
1229 2 16.1095 32.5579 0
1230 1 44.2341 71.5289 0
1231 2 65.0566 25.1343 0
1232 1 59.921 57.5496 0
1233 1 31.481 45.2575 0
1234 1 39.3417 39.056 0
1235 1 47.8248 66.9779 0
1236 1 62.6522 69.9548 0
1237 1 5.39986 52.519 0
1238 1 60.5951 8.4655 0
1239 1 8.31611 45.8355 0
1240 1 17.611 24.1754 0
1241 1 35.9213 70.1714 0