ITEM: TIMESTEP
0
ITEM: NUMBER OF ATOMS
7200
ITEM: BOX BOUNDS xy xz yz pp pp pp
0.0000000000000000e+00 7.7459666924100006e+01 0.0000000000000000e+00
0.0000000000000000e+00 7.7459666924100006e+01 0.0000000000000000e+00
-1.2909944490000000e-01 1.2909944490000000e-01 0.0000000000000000e+00
ITEM: ATOMS id type x y z
1 1 27.3751 16.935 0
2 1 12.0572 65.7083 0
3 1 57.2582 49.5209 0
4 1 56.2339 12.9411 0
5 1 33.7749 49.0145 0
6 1 65.9131 20.7967 0
7 2 4.23011 27.8799 0
8 2 54.7165 54.3876 0
9 1 31.6373 42.0546 0
10 2 17.0419 25.545 0
11 2 64.304 49.1111 0
12 1 42.6201 75.8663 0
13 2 57.8931 47.9599 0
14 1 43.8509 53.9684 0
15 1 6.6684 54.0231 0
16 1 25.6165 21.9604 0
17 1 67.8306 8.59864 0
18 1 37.2558 66.0911 0
19 1 5.55641 56.3254 0
20 2 15.8173 54.8133 0
21 1 76.9029 10.0134 0
22 1 68.5131 68.2049 0
23 1 51.8595 64.03 0
24 1 21.892 41.2364 0
25 1 73.9957 5.33746 0
26 1 51.1771 12.704 0
27 2 74.7533 53.3192 0
28 1 43.3606 7.26085 0
29 2 31.1019 47.6542 0
30 2 23.1653 62.434 0
31 1 58.9055 39.0355 0
32 1 15.0912 30.2793 0
33 1 60.3627 22.9423 0
34 2 9.1501 19.9789 0
35 1 62.8932 69.7341 0
36 1 71.6458 9.00366 0
37 1 19.6279 64.0367 0
38 1 58.9774 7.8078 0
39 1 28.5377 31.8328 0
40 2 13.2983 74.2483 0
41 2 62.0798 69.5117 0
42 1 28.1312 36.4893 0
43 1 57.592 6.98731 0
44 1 28.9039 4.99385 0
45 1 40.0482 71.9901 0
46 1 77.1829 45.9845 0
47 1 1.25368 31.9293 0
48 1 54.7273 71.5683 0
49 2 61.545 49.2582 0
50 1 4.77606 54.7968 0
51 1 17.0568 77.2205 0
52 2 42.4185 1.97159 0
53 1 53.4213 65.2573 0
54 1 50.5475 18.1107 0
55 1 74.2909 58.5311 0
56 1 26.391 33.723 0
57 1 48.4165 70.0307 0
58 1 42.8085 50.3962 0
59 1 14.676 70.9333 0
60 1 11.4376 6.67154 0
61 1 13.2512 46.673 0
62 1 41.08 30.0424 0
63 1 30.3185 53.8379 0
64 1 39.8576 65.9086 0
65 1 58.4553 40.6739 0
66 2 52.7208 16.2629 0
67 2 72.347 10.7881 0
68 2 63.9694 63.3541 0
69 1 1.1176 15.8756 0
70 1 70.9468 28.498 0
71 2 30.0151 37.1523 0
72 1 34.2491 65.9172 0
73 1 9.6821 68.1729 0
74 2 39.9292 41.0075 0
75 1 46.5057 43.1359 0
76 1 43.0912 62.4687 0
77 1 22.9128 47.1341 0
78 1 9.59851 17.4987 0
79 1 64.2879 58.305 0
80 1 27.7707 76.9278 0
81 1 56.8034 28.0403 0
82 2 52.0389 31.5097 0
83 1 24.0773 26.9699 0
84 1 66.2339 51.6298 0
85 1 76.3602 49.3385 0
86 2 35.2364 70.5041 0
87 1 66.28 26.638 0
88 1 34.0056 4.15393 0
89 1 19.1454 35.044 0
90 1 74.104 65.2399 0
91 2 60.4148 66.4428 0
92 2 32.8666 54.7146 0
93 1 10.0939 43.7132 0
94 1 35.9842 63.3377 0
95 2 64.9034 23.9595 0
96 1 65.0069 22.2291 0
97 1 44.0652 17.5659 0
98 2 50.4832 46.8197 0
99 1 58.2947 24.9576 0
100 2 76.4648 17.703 0
101 1 9.89265 30.0261 0
102 1 36.2918 33.0344 0
103 1 59.8737 53.9377 0
104 1 7.67744 35.9607 0
105 2 62.2221 76.4262 0
106 2 30.2876 1.83818 0
107 1 61.767 0.784472 0
108 1 42.7741 0.0345819 0
109 1 15.6147 24.3154 0
110 2 8.26029 31.1504 0
111 1 58.2292 46.1214 0
112 1 22.9489 52.9822 0
113 2 1.83638 27.4148 0
114 2 70.8123 15.8284 0
115 2 1.20049 25.5373 0
116 2 9.29311 13.9059 0
117 1 6.37508 72.9538 0
118 2 16.804 13.8663 0
119 1 69.7963 74.4193 0
120 2 19.8307 70.5093 0
121 1 59.7091 55.9094 0
122 1 34.7751 38.1425 0
123 2 16.216 45.2449 0
124 1 30.0708 57.7451 0
125 1 12.9613 51.2073 0
126 1 59.5214 66.5133 0
127 1 52.2058 76.3612 0
128 1 37.3241 18.7481 0
129 1 18.8323 63.4346 0
130 1 76.6849 77.3276 0
131 1 51.2003 44.3329 0
132 2 44.1197 2.12619 0
133 2 1.38632 13.3273 0
134 1 38.1406 59.362 0
135 1 61.5624 38.5597 0
136 2 27.963 70.0741 0
137 1 12.7363 11.3136 0
138 2 63.4677 9.93893 0
139 1 50.5427 76.1936 0
140 1 52.6002 11.824 0
141 2 70.4643 65.3648 0
142 1 40.5792 9.05389 0
143 2 0.161326 70.2895 0
144 2 13.1961 17.3446 0
145 2 16.6056 59.2383 0
146 1 38.5625 42.8699 0
147 1 18.9506 53.3097 0
148 1 50.5317 71.3243 0
149 2 70.2598 18.3092 0
150 1 67.2866 47.0732 0
151 2 38.4129 14.1604 0
152 1 46.3271 68.7371 0
153 2 40.0628 32.2892 0
154 2 20.5387 2.84319 0
155 1 4.67694 11.536 0
156 1 38.8685 28.3647 0
157 1 46.3675 38.6421 0
158 1 57.6159 57.9949 0
159 2 54.7222 31.3998 0
160 1 43.1158 43.7341 0
161 1 47.4351 52.0561 0
162 2 74.2987 71.6642 0
163 1 72.6071 66.8546 0
164 1 55.6978 33.6378 0
165 1 47.5081 13.8637 0
166 1 29.1399 8.17388 0
167 1 70.3919 7.53351 0
168 1 34.5498 10.9784 0
169 1 14.7557 75.9211 0
170 1 0.230839 19.4659 0
171 2 44.9954 56.3663 0
172 2 26.7385 71.6629 0
173 2 13.1987 45.7333 0
174 2 21.2809 27.8828 0
175 2 41.7006 49.1427 0
176 1 27.9892 49.0469 0
177 1 36.4294 4.37528 0
178 1 23.6384 58.8645 0
179 1 2.22848 53.8984 0
180 2 68.0333 63.1254 0
181 1 7.90622 51.2254 0
182 1 11.1686 76.9481 0
183 2 21.3055 44.3444 0
184 1 33.0817 42.8361 0
185 2 51.7284 25.0184 0
186 1 74.1722 13.8527 0
187 1 61.6436 39.5689 0
188 1 37.0355 12.1469 0
189 2 19.7378 21.2569 0
190 1 64.453 38.109 0
191 1 48.2422 74.6615 0
192 1 3.16607 36.9765 0
193 2 0.333222 49.5572 0
194 2 49.1891 50.2117 0
195 1 69.1518 52.3537 0
196 2 18.1431 4.03589 0
197 2 33.9434 52.3001 0
198 1 30.1143 32.7416 0
199 2 42.8609 27.4705 0
200 1 64.5504 37.1025 0
201 2 45.0202 34.889 0
202 2 64.7821 47.4029 0
203 1 53.8411 9.95484 0
204 1 40.4898 35.278 0
205 1 55.41 16.46 0
206 2 33.4539 7.37605 0
207 2 54.5543 49.5962 0
208 1 31.3454 13.1772 0
209 1 69.0869 72.4568 0
210 2 36.7006 63.9071 0
211 1 77.3816 6.44052 0
212 2 8.36479 71.5033 0
213 2 64.0928 17.5558 0
214 1 32.876 60.9559 0
215 2 25.4141 28.3191 0
216 1 10.3965 26.0056 0
217 1 35.2357 51.1854 0
218 2 41.6661 75.918 0
219 2 38.5649 71.2495 0
220 2 36.8807 30.2576 0
221 1 66.3007 39.0902 0
222 1 63.112 42.2948 0
223 2 16.4743 24.3698 0
224 2 38.9153 36.2724 0
225 1 38.5694 19.8041 0
226 2 8.0166 46.4864 0
227 2 14.8315 7.51645 0
228 1 75.5281 17.841 0
229 1 6.3335 20.6954 0
230 1 36.0416 30.2596 0
231 1 17.595 59.0051 0
232 1 15.8063 44.4317 0
233 1 41.3142 13.0455 0
234 1 6.90436 72.0896 0
235 1 23.2546 65.5344 0
236 2 74.5401 74.2923 0
237 1 5.3698 34.6824 0
238 2 12.0074 38.0745 0
239 1 9.82631 23.1199 0
240 2 17.8745 21.0956 0
241 1 64.0003 35.5835 0
242 1 13.6553 71.4312 0
243 1 75.4869 77.1872 0
244 1 54.9895 55.3981 0
245 1 75.5138 43.6474 0
246 1 59.254 9.36635 0
247 1 5.31144 4.72474 0
248 1 27.0008 66.0232 0
249 2 67.3312 43.4145 0
250 1 23.0676 45.4228 0
251 2 39.6276 37.5536 0
252 2 49.1575 70.4603 0
253 1 13.0009 60.1454 0
254 1 70.9297 36.1458 0
255 1 55.0418 73.1107 0
256 1 32.6489 7.58984 0
257 1 76.8397 61.8781 0
258 1 14.7679 8.33438 0
259 1 59.2665 25.4108 0
260 2 51.0301 3.55044 0
261 2 13.7866 0.491447 0
262 1 49.9704 35.8396 0
263 2 16.5582 34.7534 0
264 2 53.7966 49.1846 0
265 1 58.3036 22.258 0
266 1 40.76 59.3971 0
267 2 25.2504 19.9248 0
268 2 44.5994 13.419 0
269 1 32.1723 24.8996 0
270 2 36.7013 46.1039 0
271 2 30.731 77.1842 0
272 2 19.7186 76.991 0
273 1 47.8004 16.3403 0
274 1 75.7835 63.2738 0
275 1 54.0968 64.4922 0
276 1 5.92618 32.8872 0
277 2 27.718 73.3179 0
278 1 4.74346 38.2468 0
279 1 54.4357 39.8114 0
280 1 72.2516 40.4637 0
281 1 48.3506 71.0726 0
282 2 56.0342 3.15437 0
283 1 6.27961 67.2823 0
284 2 62.7311 30.4529 0
285 1 12.7901 10.0521 0
286 1 72.3908 70.2662 0
287 1 33.3423 44.4469 0
288 2 31.716 2.08123 0
289 2 0.160207 32.8876 0
290 2 70.4227 73.8213 0
291 1 9.38474 11.3816 0
292 1 21.3316 32.0685 0
293 1 13.5411 14.7599 0
294 1 40.8967 10.1433 0
295 1 44.7711 57.1492 0
296 2 59.9435 1.24233 0
297 1 64.3233 53.1729 0
298 1 51.6737 55.7726 0
299 2 69.6353 41.6714 0
300 1 59.9673 0.417059 0
301 1 4.19417 61.174 0
302 1 28.4053 65.1593 0
303 1 65.9994 41.9671 0
304 1 33.3349 74.5808 0
305 2 24.2671 9.59535 0
306 1 40.5272 34.1855 0
307 2 60.4805 44.8841 0
308 1 19.8611 0.358967 0
309 2 21.1418 18.8388 0
310 2 52.0826 54.1001 0
311 1 52.1526 8.2233 0
312 1 26.9187 67.927 0
313 1 2.8122 76.5635 0
314 1 48.3105 37.6919 0
315 2 4.37644 41.4708 0
316 2 73.0263 3.37202 0
317 1 43.311 2.14164 0
318 2 48.8627 71.8956 0
319 1 69.6511 71.4697 0
320 1 47.471 19.5488 0
321 1 52.8292 0.169288 0
322 2 17.7205 33.4077 0
323 2 23.5474 63.3237 0
324 1 8.08835 50.1649 0
325 1 56.865 5.51452 0
326 1 46.1583 48.5694 0
327 1 23.5887 27.8349 0
328 1 17.7767 60.8387 0
329 1 22.4821 48.7186 0
330 2 35.7261 69.2178 0
331 2 51.242 30.2711 0
332 1 72.5301 38.1403 0
333 1 48.5656 20.9114 0
334 1 72.8261 18.0793 0
335 1 15.6215 15.8714 0
336 2 56.858 43.9894 0
337 1 35.0752 69.6911 0
338 2 15.3448 22.6907 0
339 1 49.6226 18.6128 0
340 1 55.8345 22.4476 0
341 2 40.5494 26.4502 0
342 1 27.0448 75.2203 0
343 2 42.3402 3.79484 0
344 2 43.0633 6.37036 0
345 1 46.8357 22.8338 0
346 1 0.397247 33.7247 0
347 1 24.3989 70.8179 0
348 1 72.3348 1.2788 0
349 1 58.6596 58.3941 0
350 1 20.0386 7.44376 0
351 1 40.9954 65.3229 0
352 1 67.2833 23.0527 0
353 1 69.6476 34.0835 0
354 2 31.6269 64.2061 0
355 2 55.1308 70.8302 0
356 2 10.5134 68.118 0
357 1 27.0302 58.0385 0
358 1 31.5319 44.2744 0
359 1 76.2712 43.0522 0
360 2 58.6194 23.1242 0
361 2 40.1223 68.0777 0
362 1 21.1456 11.5878 0
363 2 37.9433 20.3949 0
364 1 71.2042 65.9917 0
365 2 59.7126 7.29769 0
366 1 69.5329 55.067 0
367 2 24.7427 5.24242 0
368 2 31.7151 9.75489 0
369 2 15.542 8.67358 0
370 1 50.6035 17.0439 0
371 1 53.4576 0.984374 0
372 2 7.2652 73.0026 0
373 1 2.83876 20.3803 0
374 2 33.8527 18.7148 0
375 1 45.6213 15.0896 0
376 2 69.0229 35.6858 0
377 2 5.82589 43.9125 0
378 1 30.103 47.5663 0
379 1 2.33039 64.3604 0
380 1 2.80057 57.2047 0
381 1 16.4351 41.6466 0
382 1 14.7921 58.4897 0
383 1 45.7651 31.2039 0
384 1 60.7813 13.9874 0
385 1 39.0833 18.8945 0
386 1 40.2609 70.9453 0
387 1 28.203 56.6412 0
388 2 73.2609 9.65697 0
389 1 74.9282 12.5589 0
390 1 12.5063 31.2089 0
391 2 57.6164 45.3549 0
392 2 29.5306 0.48782 0
393 2 41.4973 73.2306 0
394 1 29.545 26.3047 0
395 1 17.8913 25.8962 0
396 1 45.6597 55.7991 0
397 1 56.5226 54.8051 0
398 1 20.9466 34.7943 0
399 1 10.6932 3.91653 0
400 1 16.2166 36.6329 0
401 1 64.335 61.4454 0
402 2 59.5395 20.6378 0
403 1 44.213 8.79163 0
404 1 42.0563 46.334 0
405 2 2.18291 1.61965 0
406 1 42.0323 43.5512 0
407 2 49.2858 12.6031 0
408 1 33.4703 50.563 0
409 1 25.2122 35.7081 0
410 2 71.8556 77.1427 0
411 2 51.9818 38.6887 0
412 1 48.4532 34.8945 0
413 1 3.40041 26.1109 0
414 1 4.98431 35.678 0
415 1 46.5883 24.3219 0
416 2 56.1529 37.2618 0
417 2 14.033 44.1998 0
418 1 6.33477 58.9127 0
419 2 5.35937 57.1744 0
420 2 45.796 14.2695 0
421 1 46.5111 19.0387 0
422 1 37.2019 56.9679 0
423 1 69.5813 65.6359 0
424 1 19.0442 6.89577 0
425 1 25.3258 62.8677 0
426 1 55.0075 68.3732 0
427 2 18.692 74.2823 0
428 1 66.3243 58.5307 0
429 1 66.2094 8.2624 0
430 1 51.9596 18.1982 0
431 1 4.87195 1.75985 0
432 1 7.08745 55.2697 0
433 1 0.307109 68.385 0
434 1 40.2348 11.7956 0
435 1 42.436 17.0483 0
436 2 6.19678 71.544 0
437 2 74.4448 37.2108 0
438 1 49.8862 42.6703 0
439 2 17.5288 5.33697 0
440 1 55.2171 57.0545 0
441 2 5.00559 59.9459 0
442 1 4.04463 16.6558 0
443 1 38.1536 45.4379 0
444 1 31.569 62.3005 0
445 2 69.5874 47.2642 0
446 1 52.7013 67.1261 0
447 1 43.0324 63.5 0
448 1 50.7923 15.8501 0
449 1 20.9354 23.9643 0
450 2 59.4065 60.3938 0
451 2 10.6418 23.453 0
452 1 35.7176 37.6119 0
453 1 8.50725 33.2286 0
454 2 63.6493 32.1352 0
455 2 72.9072 18.9951 0
456 1 56.9915 62.3005 0
457 2 25.0723 25.4517 0
458 1 49.0124 29.5501 0
459 2 56.1761 25.3578 0
460 1 41.3872 5.34273 0
461 2 50.6681 75.336 0
462 1 47.5178 62.6309 0
463 1 10.6942 24.2759 0
464 1 57.1697 53.683 0
465 2 46.3948 34.1734 0
466 1 8.78504 64.7809 0
467 2 62.4733 75.2008 0
468 1 49.7663 4.76778 0
469 1 41.131 48.4431 0
470 1 45.1174 58.1206 0
471 2 27.1769 68.7306 0
472 1 23.3126 20.1175 0
473 1 59.7961 48.587 0
474 1 65.3667 61.8608 0
475 1 6.77951 11.7353 0
476 2 12.5055 52.0746 0
477 1 71.5611 51.0295 0
478 2 41.5792 27.7156 0
479 1 59.9092 39.0793 0
480 1 62.1567 26.1112 0
481 1 0.573283 22.4128 0
482 1 57.6521 20.2569 0
483 2 29.2363 30.2276 0
484 1 15.4401 25.7291 0
485 1 9.0889 71.9263 0
486 1 27.3765 48.2403 0
487 2 41.1811 25.1533 0
488 1 17.2585 18.1835 0
489 1 41.6847 1.49276 0
490 1 37.1236 3.71006 0
491 1 44.4138 65.3865 0
492 2 29.5837 13.9201 0
493 1 40.5036 24.5793 0
494 1 56.8485 45.9244 0
495 2 28.5479 76.4307 0
496 2 57.7462 0.961501 0
497 2 67.3391 66.1214 0
498 1 69.7406 5.04095 0
499 1 22.5823 66.7815 0
500 1 58.1952 72.891 0
501 2 75.6797 51.1317 0
502 1 44.7542 69.2488 0
503 1 36.3258 39.935 0
504 1 56.5959 34.2196 0
505 2 8.34758 42.9084 0
506 2 68.565 44.0397 0
507 1 27.5901 30.3391 0
508 1 14.5613 29.3507 0
509 1 29.5373 68.5448 0
510 1 11.173 54.0775 0
511 1 32.4398 10.5124 0
512 1 36.5406 13.8756 0
513 1 31.8289 38.836 0
514 1 25.9552 13.755 0
515 2 12.4159 74.7474 0
516 2 23.6199 47.5518 0
517 2 56.4786 33.3681 0
518 2 27.1864 53.8426 0
519 2 38.3898 17.3795 0
520 1 73.9547 38.9693 0
521 1 49.6627 52.0653 0
522 2 16.0224 6.02782 0
523 1 23.6293 49.6559 0
524 1 37.3908 73.5394 0
525 1 25.3027 68.4734 0
526 2 43.3201 22.9415 0
527 1 68.4071 18.6188 0
528 2 77.0939 43.2063 0
529 2 14.0331 75.3158 0
530 1 17.4248 55.593 0
531 2 28.1737 67.0777 0
532 2 73.5415 34.4884 0
533 1 71.0601 67.0763 0
534 1 40.8448 27.2331 0
535 1 69.5134 38.7278 0
536 1 48.5074 73.6115 0
537 1 21.9327 43.7005 0
538 2 54.3817 73.8067 0
539 2 17.9125 48.4694 0
540 1 58.5462 4.37703 0
541 2 51.6142 35.6808 0
542 1 62.5091 11.6556 0
543 2 21.331 43.046 0
544 2 56.9317 20.8466 0
545 1 34.7226 25.0718 0
546 1 32.1475 1.024 0
547 1 42.8322 65.7656 0
548 2 42.584 42.9049 0
549 2 36.1998 14.8636 0
550 2 57.3251 65.8114 0
551 1 39.6107 5.40677 0
552 2 20.8759 56.7194 0
553 2 39.9 66.7145 0
554 1 68.0282 51.5107 0
555 1 46.1669 41.4788 0
556 1 56.0573 74.4857 0
557 1 20.2627 10.969 0
558 1 74.4332 75.9137 0
559 1 73.9794 25.3787 0
560 2 63.8333 69.6225 0
561 1 8.21389 24.4897 0
562 2 47.6201 5.56404 0
563 2 47.7592 50.0483 0
564 1 22.7613 5.21694 0
565 2 59.6592 27.0538 0
566 2 25.543 48.8648 0
567 1 76.9998 7.36852 0
568 2 70.2916 48.8861 0
569 2 2.54841 30.6892 0
570 1 28.5482 29.7312 0
571 1 23.4581 59.9563 0
572 2 65.5527 16.4743 0
573 2 46.5792 50.5243 0
574 1 4.9548 43.4251 0
575 1 66.8562 30.615 0
576 1 51.4924 75.3214 0
577 1 25.1961 8.17277 0
578 2 58.2617 25.9515 0
579 2 42.0697 13.5054 0
580 1 37.5938 52.7498 0
581 1 10.1152 12.2544 0
582 2 59.0534 0.0576978 0
583 2 21.8284 26.5303 0
584 2 58.6537 39.7912 0
585 1 67.4133 4.93997 0
586 1 2.24348 10.0964 0
587 2 69.8698 26.3225 0
588 1 41.4598 0.281758 0
589 2 65.2706 67.1202 0
590 1 75.9811 25.5432 0
591 1 13.594 39.3881 0
592 1 32.506 36.5887 0
593 1 44.1985 67.1724 0
594 1 50.4117 63.1318 0
595 1 21.9104 52.9644 0
596 2 65.9248 54.4435 0
597 1 33.367 46.1693 0
598 1 75.7164 4.00963 0
599 1 71.7545 29.9594 0
600 1 11.5231 46.5157 0
601 2 55.1537 44.1116 0
602 1 52.2909 54.9137 0
603 2 12.9261 50.3176 0
604 2 72.6653 47.8669 0
605 1 33.5501 61.8499 0
606 1 77.1483 14.4277 0
607 1 76.3342 60.463 0
608 2 67.6889 73.4375 0
609 2 24.2404 72.7421 0
610 1 70.2967 58.4508 0
611 1 65.1987 74.2395 0
612 1 34.0992 25.8393 0
613 1 75.0328 52.5952 0
614 2 59.4693 8.48784 0
615 1 49.8779 53.1396 0
616 1 3.49062 5.88642 0
617 1 1.9294 42.9568 0
618 2 1.24065 42.5003 0
619 2 46.927 48.9081 0
620 2 61.2968 41.9963 0
621 2 60.039 9.8088 0
622 1 50.4371 20.1938 0
623 1 25.0499 10.262 0
624 2 1.41647 60.5188 0
625 1 76.9539 39.6495 0
626 1 27.217 24.6908 0
627 2 14.5706 62.0314 0
628 1 30.4392 25.8689 0
629 2 12.3451 21.3195 0
630 1 17.2126 34.0812 0
631 1 66.2867 22.8573 0
632 1 13.4713 64.943 0
633 2 50.4423 7.45648 0
634 1 38.144 57.5944 0
635 2 35.0443 24.2413 0
636 2 67.8054 2.97145 0
637 1 14.4597 15.4779 0
638 1 8.18397 39.7486 0
639 1 73.8969 53.0963 0
640 1 68.6803 61.2757 0
641 1 3.8802 21.8984 0
642 1 50.9217 9.90027 0
643 1 41.7692 69.919 0
644 2 25.3642 24.4454 0
645 1 38.9949 66.5833 0
646 1 61.2499 73.9043 0
647 2 30.9588 60.5266 0
648 1 52.4875 44.0024 0
649 2 24.4737 49.7834 0
650 2 21.0019 50.1237 0
651 1 71.5276 72.6343 0
652 1 29.978 5.27212 0
653 2 49.6878 27.9066 0
654 2 11.8989 9.78535 0
655 1 47.3942 68.4764 0
656 1 2.69036 74.9109 0
657 1 60.3419 41.8099 0
658 1 10.1183 52.0667 0
659 2 77.1939 55.4252 0
660 1 37.2576 27.4632 0
661 1 1.20598 40.0111 0
662 1 29.8041 38.0029 0
663 1 72.5345 60.5543 0
664 1 49.4459 64.586 0
665 2 11.2634 19.9802 0
666 2 0.732582 31.208 0
667 1 26.532 32.0734 0
668 2 72.1547 73.2406 0
669 1 1.85421 0.778326 0
670 2 56.4081 53.9451 0
671 2 14.3468 14.5987 0
672 1 16.2851 76.3513 0
673 1 6.60583 22.4041 0
674 1 32.8755 3.68811 0
675 2 8.35226 45.4563 0
676 2 3.27546 17.3052 0
677 1 65.2386 70.9101 0
678 1 53.7789 69.5961 0
679 1 57.4034 19.129 0
680 1 24.5245 63.5587 0
681 1 66.0736 36.06 0
682 1 49.1367 30.6269 0
683 1 70.4961 50.6864 0
684 1 0.575152 30.0639 0
685 2 24.176 44.9584 0
686 1 36.9309 5.2649 0
687 1 4.50412 21.0964 0
688 2 63.415 74.2101 0
689 1 40.204 52.9001 0
690 1 11.9864 37.2294 0
691 1 51.2428 31.1645 0
692 2 33.8722 5.96491 0
693 1 59.9312 70.9387 0
694 2 45.3922 41.219 0
695 1 28.1755 45.3739 0
696 2 46.22 59.4662 0
697 1 47.9247 60.1909 0
698 1 41.3239 26.1157 0
699 1 47.0534 48.0034 0
700 1 36.6326 35.1516 0
701 1 60.205 68.3289 0
702 1 70.8548 60.0964 0
703 2 72.1502 57.0715 0
704 2 2.12842 20.8621 0
705 2 49.0362 21.6595 0
706 1 43.1604 21.2529 0
707 2 76.9259 31.4767 0
708 1 42.1983 20.7105 0
709 1 10.0988 8.76822 0
710 2 62.3528 8.99953 0
711 1 0.16591 32.0099 0
712 2 65.6263 13.2127 0
713 2 14.7886 68.7094 0
714 2 13.3006 11.8925 0
715 1 5.49816 69.4455 0
716 1 65.2499 76.3207 0
717 1 45.5143 77.3965 0
718 1 53.4034 59.7298 0
719 1 54.131 76.1578 0
720 2 21.0219 41.7027 0
721 2 58.2206 49.7453 0
722 1 34.1523 24.2003 0
723 2 59.4302 42.0155 0
724 2 0.720002 64.1049 0
725 1 72.5037 0.285986 0
726 1 30.0428 72.9928 0
727 2 33.1458 34.0836 0
728 1 52.3662 52.2035 0
729 2 13.5555 6.80729 0
730 1 22.0611 27.3213 0
731 2 22.885 47.9409 0
732 1 23.5324 56.9085 0
733 1 73.3434 23.5811 0
734 2 49.5218 41.9346 0
735 1 22.5284 1.5328 0
736 1 51.9315 13.3948 0
737 2 60.37 43.4585 0
738 1 51.5511 11.5714 0
739 1 25.3314 5.86115 0
740 1 8.01355 73.4129 0
741 2 48.2315 43.2542 0
742 1 55.4681 2.45174 0
743 1 50.6733 10.9842 0
744 2 0.0775764 23.2039 0
745 1 5.2191 60.7511 0
746 1 32.847 48.602 0
747 1 18.8522 77.2473 0
748 2 31.426 16.2035 0
749 2 52.6124 4.33317 0
750 1 59.5725 18.519 0
751 1 63.5788 77.1582 0
752 2 10.6904 25.1184 0
753 1 49.1955 48.1621 0
754 2 4.77377 68.8568 0
755 1 5.33877 41.3857 0
756 2 55.7703 63.8738 0
757 1 1.33948 14.8916 0
758 1 24.5563 7.19237 0
759 1 71.4469 41.3703 0
760 1 51.572 71.3513 0
761 1 18.0572 54.7832 0
762 1 40.7286 66.3782 0
763 2 52.7182 17.7635 0
764 1 10.4077 64.2827 0
765 2 7.86088 23.6527 0
766 1 35.6486 36.5442 0
767 1 65.7892 30.1472 0
768 1 51.3072 34.8908 0
769 1 60.5683 38.1545 0
770 2 12.8737 76.0239 0
771 1 76.8369 33.4052 0
772 1 42.9217 71.4005 0
773 1 45.9993 60.2588 0
774 2 53.997 46.7752 0
775 1 32.5748 28.7061 0
776 2 11.5287 22.5486 0
777 1 17.4697 49.2309 0
778 2 42.8598 45.7677 0
779 1 9.83667 22.0048 0
780 1 65.5556 72.3837 0
781 1 48.858 76.9877 0
782 1 44.9749 6.47147 0
783 1 54.5667 41.5929 0
784 1 16.126 53.9342 0
785 2 69.6152 37.0076 0
786 1 66.0798 3.6976 0
787 1 28.121 74.7904 0
788 1 24.149 35.235 0
789 1 3.70405 4.21321 0
790 1 75.8471 44.6846 0
791 1 67.9323 71.4565 0
792 1 15.8739 51.956 0
793 1 12.7767 15.6022 0
794 2 68.6525 34.0775 0
795 2 52.5782 1.06307 0
796 2 53.7571 35.6768 0
797 1 51.5323 66.7296 0
798 1 36.9514 49.7452 0
799 1 52.3543 48.577 0
800 1 44.709 10.9446 0
801 2 0.520265 15.064 0
802 2 57.623 17.3322 0
803 2 49.4475 8.74923 0
804 2 51.0226 73.5122 0
805 1 27.1614 59.2166 0
806 1 53.0898 15.3274 0
807 2 50.4901 69.6768 0
808 1 58.4932 11.9087 0
809 2 31.7535 17.547 0
810 1 52.676 55.9981 0
811 1 62.5109 21.6279 0
812 2 51.6047 52.5341 0
813 2 44.5558 45.42 0
814 1 54.0235 58.5517 0
815 2 4.25906 9.68457 0
816 1 50.3177 54.5639 0
817 1 36.9528 7.90023 0
818 2 71.5557 5.53944 0
819 2 25.8701 57.6325 0
820 1 60.2341 69.9281 0
821 1 27.089 72.6273 0
822 1 20.7588 73.9248 0
823 1 74.8999 51.4947 0
824 2 54.6461 69.1102 0
825 1 20.2805 50.8173 0
826 1 62.4631 77.1968 0
827 1 26.6082 40.0788 0
828 1 47.1388 46.3789 0
829 1 73.0281 37.1931 0
830 2 45.0125 67.3541 0
831 2 38.7543 51.5849 0
832 1 71.5605 0.567989 0
833 1 25.0756 46.998 0
834 2 59.9341 35.7737 0
835 1 25.1513 57.9805 0
836 1 16.2442 47.4686 0
837 1 37.7678 61.0259 0
838 1 49.701 60.3654 0
839 1 69.4558 57.6259 0
840 2 14.2574 33.1582 0
841 1 5.76856 11.584 0
842 2 36.3581 41.8813 0
843 1 70.511 38.6362 0
844 1 31.2531 21.1915 0
845 2 33.7592 59.8142 0
846 1 47.8973 17.4723 0
847 1 65.7463 10.6121 0
848 2 3.42086 5.00591 0
849 1 11.0966 27.0056 0
850 1 1.71108 41.7958 0
851 1 68.2182 23.5715 0
852 1 75.8365 33.1079 0
853 1 4.69332 65.8514 0
854 1 26.1201 63.4749 0
855 1 65.7718 23.7762 0
856 2 56.5174 65.1199 0
857 1 75.7165 11.9385 0
858 2 62.8924 50.1455 0
859 1 42.9508 29.0746 0
860 2 5.15281 51.9219 0
861 2 43.7242 33.4677 0
862 2 25.2903 63.8438 0
863 1 39.5278 24.0562 0
864 1 45.0815 71.8413 0
865 2 43.515 29.7363 0
866 1 20.5451 74.9962 0
867 2 48.4579 31.1557 0
868 1 34.3869 32.3162 0
869 1 19.4908 47.1039 0
870 1 22.6259 38.6055 0
871 1 69.0061 4.34354 0
872 1 43.0733 8.47822 0
873 1 7.14957 12.7577 0
874 1 13.9862 1.41283 0
875 1 62.6013 3.15296 0
876 2 22.1263 25.4038 0
877 1 8.12035 70.7105 0
878 2 25.0708 3.96447 0
879 1 4.23024 37.3087 0
880 2 65.4126 23.043 0
881 2 9.23668 12.1834 0
882 2 58.7718 69.5137 0
883 1 22.7266 40.6773 0
884 1 10.5838 57.3759 0
885 1 26.3026 41.8368 0
886 1 62.357 63.3724 0
887 2 37.2066 57.7989 0
888 1 48.6117 23.8092 0
889 2 7.02403 46.4073 0
890 2 28.0458 0.346717 0
891 1 22.5058 32.2404 0
892 1 12.0917 26.9088 0
893 1 47.4822 38.3097 0
894 1 20.6396 70.3607 0
895 2 23.4769 38.1979 0
896 1 11.4708 0.505296 0
897 2 42.6882 7.74388 0
898 1 0.277856 57.1045 0
899 1 6.20723 74.7395 0
900 2 48.8758 18.9309 0
901 1 39.0464 27.3364 0
902 1 23.3052 22.7132 0
903 1 37.9669 71.8516 0
904 2 53.8564 18.789 0
905 1 64.1488 40.2274 0
906 1 50.3863 39.3812 0
907 1 13.1371 21.645 0
908 1 57.6708 11.2133 0
909 1 39.5023 68.607 0
910 2 43.2865 39.6165 0
911 2 65.483 24.5695 0
912 2 40.5185 22.0455 0
913 2 28.0287 22.3725 0
914 1 8.67278 47.305 0
915 2 33.3158 4.55852 0
916 1 67.1705 59.9181 0
917 2 9.49539 46.8123 0
918 2 25.6373 36.49 0
919 1 67.5652 42.5487 0
920 1 59.4852 16.4065 0
921 1 43.1336 56.5622 0
922 2 49.7857 29.9609 0
923 2 27.7876 58.4603 0
924 1 29.6253 23.308 0
925 1 24.9926 22.8059 0
926 2 55.1557 39.3485 0
927 1 71.8415 56.1877 0
928 1 62.5966 9.84032 0
929 2 66.066 55.9173 0
930 2 41.9614 51.9952 0
931 1 36.6677 76.4647 0
932 1 53.2571 24.6954 0
933 1 15.1333 27.5626 0
934 1 73.3858 27.263 0
935 1 10.9241 75.9149 0
936 2 33.5526 70.0305 0
937 1 49.6006 40.0589 0
938 1 51.6434 3.01285 0
939 2 60.2151 47.7134 0
940 1 20.5678 38.8391 0
941 1 12.2744 69.0741 0
942 1 31.8486 32.9937 0
943 2 16.836 60.9905 0
944 2 74.1793 44.8774 0
945 1 0.13218 15.927 0
946 1 36.3418 59.6021 0
947 2 65.2159 28.3519 0
948 1 51.2085 33.2316 0
949 1 32.8229 66.7344 0
950 2 63.6881 18.9339 0
951 1 1.72584 72.4902 0
952 2 12.5154 8.34268 0
953 2 8.58328 37.5679 0
954 2 75.5091 49.5429 0
955 1 34.2541 12.6883 0
956 2 29.215 59.3649 0
957 1 42.0731 25.3174 0
958 2 58.4198 71.9554 0
959 2 18.746 54.2242 0
960 2 7.5037 22.7314 0
961 1 21.0369 37.1687 0
962 1 27.0034 29.0775 0
963 1 18.3597 7.92451 0
964 2 10.4707 34.0873 0
965 2 8.56378 36.2208 0
966 1 50.9465 59.0555 0
967 1 38.8342 60.2358 0
968 1 71.3777 37.0803 0
969 1 33.5978 57.1356 0
970 2 50.057 16.3798 0
971 1 24.1606 22.1874 0
972 1 39.867 59.9681 0
973 1 3.78195 58.2531 0
974 2 4.25621 43.9178 0
975 2 14.8239 74.9721 0
976 2 60.4451 16.4506 0
977 1 30.0711 11.8645 0
978 2 74.829 18.3299 0
979 2 40.8048 47.3769 0
980 1 62.041 23.02 0
981 1 37.5988 35.0241 0
982 1 40.9813 32.5357 0
983 1 75.2062 21.7708 0
984 1 46.9655 49.78 0
985 1 42.9895 40.4026 0
986 1 33.7957 29.8011 0
987 2 22.8353 59.3583 0
988 2 71.6409 10.016 0
989 2 53.4988 45.1816 0
990 2 20.6773 0.532404 0
991 2 74.2178 50.8898 0
992 1 57.5324 71.7542 0
993 2 31.0603 13.9291 0
994 2 69.8519 42.9088 0
995 1 68.0062 26.6391 0
996 2 7.63731 16.1366 0
997 2 71.7674 66.6114 0
998 2 39.6192 63.8446 0
999 2 56.0199 76.3482 0
1000 2 29.8277 7.54115 0
1001 1 51.3192 46.561 0
1002 1 50.2932 61.2335 0
1003 1 24.4415 19.1228 0
1004 1 75.1896 13.6194 0
1005 2 25.2291 60.0116 0
1006 2 42.4324 33.9079 0
1007 1 9.08967 31.6161 0
1008 1 70.6932 31.3529 0
1009 1 62.9596 22.5455 0
1010 1 23.3422 2.17382 0
1011 2 35.2527 31.9259 0
1012 2 57.4688 57.1657 0
1013 2 46.3128 21.0791 0
1014 1 36.4441 51.5221 0
1015 1 74.8195 31.5484 0
1016 1 62.174 41.6909 0
1017 2 22.8482 36.4674 0
1018 1 49.032 2.04595 0
1019 1 39.4575 21.5085 0
1020 2 54.618 76.8593 0
1021 2 77.0425 53.4973 0
1022 1 4.29 5.11809 0
1023 1 21.2843 20.7152 0
1024 1 3.64392 42.0114 0
1025 1 63.511 0.758669 0
1026 1 18.0468 37.73 0
1027 1 10.3217 28.8921 0
1028 1 7.90335 17.7753 0
1029 1 50.198 48.4661 0
1030 2 3.93275 47.2945 0
1031 2 24.3828 36.0885 0
1032 1 15.1792 39.9619 0
1033 1 8.41497 15.7843 0
1034 1 12.7436 61.1977 0
1035 1 53.2993 2.75483 0
1036 2 10.0563 13.2083 0
1037 1 53.9484 32.0214 0
1038 1 68.5602 19.6498 0
1039 1 55.6362 19.6917 0
1040 2 41.2296 30.956 0
1041 1 23.5883 23.7688 0
1042 2 2.45728 42.2317 0
1043 2 26.1189 56.4431 0
1044 1 45.1525 0.981039 0
1045 1 55.969 43.9958 0
1046 1 42.2057 61.224 0
1047 2 60.849 39.2485 0
1048 1 51.8195 0.589562 0
1049 1 14.1368 60.0674 0
1050 2 36.7137 26.7817 0
1051 1 9.15387 70.8989 0
1052 1 3.17915 23.0616 0
1053 2 23.0828 10.2651 0
1054 1 9.3414 9.51741 0
1055 2 22.7859 49.6221 0
1056 2 76.5748 3.98217 0
1057 1 68.322 29.6954 0
1058 1 14.4845 42.3873 0
1059 1 20.6041 42.5381 0
1060 2 35.1151 22.6102 0
1061 1 17.7266 19.1902 0
1062 2 25.2452 52.0427 0
1063 1 16.227 72.5903 0
1064 1 53.6738 16.2174 0
1065 2 55.9255 28.2377 0
1066 1 31.0434 12.2595 0
1067 1 55.2539 15.4138 0
1068 2 67.7885 70.5684 0
1069 1 45.3227 45.8812 0
1070 2 35.755 44.658 0
1071 2 11.3795 65.2128 0
1072 2 11.0658 15.7143 0
1073 2 6.01118 70.191 0
1074 2 32.2631 42.6121 0
1075 1 23.7246 36.6621 0
1076 1 30.4587 34.9269 0
1077 1 17.9952 2.37295 0
1078 2 6.12011 41.2346 0
1079 2 42.5804 72.1841 0
1080 2 53.7451 1.87837 0
1081 2 39.9038 70.152 0
1082 2 28.397 8.53737 0
1083 2 50.1795 36.7374 0
1084 1 34.7329 37.096 0
1085 1 8.9681 25.4501 0
1086 1 66.4774 49.3437 0
1087 1 60.4321 6.88324 0
1088 1 74.4961 68.5808 0
1089 2 42.3627 26.1004 0
1090 1 50.3956 72.7738 0
1091 2 50.0866 10.2644 0
1092 1 46.2392 58.4067 0
1093 1 49.393 57.641 0
1094 2 64.7608 75.6058 0
1095 1 75.3815 67.9492 0
1096 2 59.2446 44.7068 0
1097 1 1.44862 61.3833 0
1098 1 58.3791 45.0261 0
1099 1 40.559 5.96628 0
1100 1 17.8868 51.8957 0
1101 1 29.796 43.3125 0
1102 1 34.8598 13.4592 0
1103 1 68.3891 62.3244 0
1104 1 53.9278 30.9852 0
1105 1 50.0456 70.3862 0
1106 1 54.7545 70.0971 0
1107 2 49.1598 68.8093 0
1108 1 54.419 44.6031 0
1109 1 58.552 52.9303 0
1110 2 32.6409 53.2119 0
1111 1 74.3799 66.2298 0
1112 1 75.9889 31.481 0
1113 2 60.9714 19.5985 0
1114 2 34.069 37.571 0
1115 2 16.4785 27.1742 0
1116 1 3.32266 43.9391 0
1117 1 74.5622 60.2442 0
1118 1 14.375 32.3372 0
1119 2 32.3604 44.5194 0
1120 1 34.7031 18.7588 0
1121 2 69.6281 16.6581 0
1122 1 4.56741 49.3018 0
1123 2 54.8199 19.9584 0
1124 1 12.7488 40.9413 0
1125 2 41.7628 18.8154 0
1126 2 23.4633 1.34872 0
1127 1 5.8198 21.6306 0
1128 1 58.9462 26.4535 0
1129 1 67.5633 32.3552 0
1130 1 60.3304 51.3842 0
1131 1 42.6141 10.6947 0
1132 2 7.02214 56.8126 0
1133 2 42.5961 41.1418 0
1134 2 35.5807 64.0491 0
1135 1 19.7552 43.0864 0
1136 2 68.4875 11.148 0
1137 1 57.2733 8.32499 0
1138 1 61.3942 11.3696 0
1139 2 63.185 35.9399 0
1140 2 60.919 8.37151 0
1141 1 65.9791 1.87243 0
1142 1 63.5677 30.3037 0
1143 1 8.93737 38.3728 0
1144 2 58.6621 12.7705 0
1145 1 30.9152 41.342 0
1146 1 61.3091 18.0922 0
1147 1 15.3474 55.5017 0
1148 1 73.4449 30.6135 0
1149 1 67.6393 41.5607 0
1150 2 62.4081 52.9189 0
1151 1 47.0908 6.17436 0
1152 1 25.353 67.4328 0
1153 1 62.4889 4.73477 0
1154 1 33.4803 9.10305 0
1155 2 63.6836 66.9914 0
1156 1 54.9329 63.47 0
1157 1 7.08264 24.4603 0
1158 2 59.89 49.4708 0
1159 2 64.9072 73.1082 0
1160 1 2.48236 71.7292 0
1161 2 13.6099 15.6511 0
1162 1 62.7725 8.30134 0
1163 2 68.137 69.0934 0
1164 1 5.85781 59.9652 0
1165 1 73.9328 32.1087 0
1166 2 13.0029 65.5956 0
1167 1 49.7128 15.5974 0
1168 1 52.5401 71.9161 0
1169 1 17.9366 76.6701 0
1170 2 74.5078 67.7026 0
1171 1 30.3734 24.7922 0
1172 1 26.2606 11.6426 0
1173 1 44.3873 59.6237 0
1174 1 31.1133 73.2896 0
1175 2 69.8584 63.5503 0
1176 1 71.5248 38.1451 0
1177 1 69.0044 17.3065 0
1178 2 22.2412 37.8377 0
1179 1 11.6052 74.3042 0
1180 1 12.8824 6.35167 0
1181 1 36.6828 72.7544 0
1182 1 39.4718 34.0727 0
1183 2 32.6648 59.0656 0
1184 2 41.3909 67.8364 0
1185 1 26.2612 5.35045 0
1186 1 33.7681 54.8483 0
1187 1 76.8569 51.6426 0
1188 2 64.0496 57.4969 0
1189 1 66.1878 18.0122 0
1190 1 43.6845 66.3068 0
1191 2 61.6938 27.9532 0
1192 1 2.30187 29.9078 0
1193 1 47.7428 3.1181 0
1194 2 52.6997 47.822 0
1195 1 29.0622 12.0582 0
1196 1 76.9504 2.00608 0
1197 1 55.7375 9.42433 0
1198 1 49.6227 50.9671 0
1199 2 50.0212 62.2479 0
1200 1 6.55582 56.1586 0
1201 1 3.91008 65.0796 0
1202 1 11.4719 49.5266 0
1203 2 37.4954 17.9045 0
1204 1 26.4492 53.4616 0
1205 1 52.2173 53.2152 0
1206 1 44.9782 23.7474 0
1207 1 43.8675 20.3617 0
1208 1 65.7691 31.8 0
1209 2 39.0681 59.3764 0
1210 1 50.5687 29.4792 0
1211 2 15.8811 64.2069 0
1212 1 56.6643 19.8223 0
1213 1 9.63397 19.2889 0
1214 1 20.8606 48.2113 0
1215 1 9.95877 5.61614 0
1216 1 23.5658 39.1289 0
1217 2 51.5914 7.59051 0
1218 2 38.8789 26.4369 0
1219 1 39.93 4.46041 0
1220 1 7.10641 36.9945 0
1221 1 7.26893 2.99237 0
1222 2 66.0478 38.0621 0
1223 1 48.3293 58.0403 0
1224 1 15.4658 3.03152 0
1225 1 71.9174 59.7106 0
1226 2 41.3218 23.5196 0
1227 1 47.8264 7.77914 0
1228 1 52.2565 37.4742 0
1229 2 33.1983 28.1026 0
1230 1 49.1425 55.8966 0
1231 2 43.8174 57.1713 0
1232 1 3.42166 64.0699 0
1233 1 51.1294 70.26 0
1234 1 49.17 31.7071 0
1235 1 48.2745 59.0788 0
1236 1 1.19929 54.2538 0
1237 1 45.5182 21.4467 0
1238 1 35.2698 12.5391 0
1239 1 0.950114 40.9935 0
1240 1 40.7773 73.7039 0