ITEM: TIMESTEP
0
ITEM: NUMBER OF ATOMS
7200
ITEM: BOX BOUNDS xy xz yz pp pp pp
0.0000000000000000e+00 7.7459666924100006e+01 0.0000000000000000e+00
0.0000000000000000e+00 7.7459666924100006e+01 0.0000000000000000e+00
-1.2909944490000000e-01 1.2909944490000000e-01 0.0000000000000000e+00
ITEM: ATOMS id type x y z
1 1 0.104861 14.6039 0
2 1 72.4062 2.50803 0
3 1 16.437 67.922 0
4 1 37.0566 36.4562 0
5 1 18.4487 40.3839 0
6 1 68.7614 29.2789 0
7 2 53.2456 10.9634 0
8 2 56.5291 30.385 0
9 1 51.4581 71.645 0
10 2 49.1885 63.9099 0
11 2 20.225 49.1532 0
12 1 37.2776 10.542 0
13 2 10.3896 14.5158 0
14 1 49.5475 18.5674 0
15 1 40.6688 75.5244 0
16 1 19.1543 34.3088 0
17 1 4.49824 27.7542 0
18 1 29.7434 53.1683 0
19 1 22.0821 46.1331 0
20 2 48.0117 71.0744 0
21 1 4.00536 8.65974 0
22 1 63.6402 27.7932 0
23 1 14.2828 72.1903 0
24 1 41.9426 68.347 0
25 1 73.5698 5.59182 0
26 1 50.8303 65.5212 0
27 2 49.8549 54.5293 0
28 1 32.3312 64.2995 0
29 2 64.7603 41.8874 0
30 2 36.6003 18.3797 0
31 1 5.80056 46.6959 0
32 1 73.2881 45.3381 0
33 1 6.90739 47.9411 0
34 2 68.468 18.6465 0
35 1 76.4735 5.82937 0
36 1 26.3275 43.1086 0
37 1 38.995 65.2276 0
38 1 71.4812 38.9748 0
39 1 20.1745 61.8833 0
40 2 19.5149 64.9155 0
41 2 13.5049 76.9385 0
42 1 5.05518 75.7094 0
43 1 71.0677 23.3088 0
44 1 30.1463 68.7626 0
45 1 63.3714 43.1951 0
46 1 57.2271 42.6515 0
47 1 71.5378 75.9813 0
48 1 56.0963 64.5156 0
49 2 22.5226 59.5268 0
50 1 27.1777 50.1427 0
51 1 67.7068 29.5243 0
52 2 35.8777 9.14229 0
53 1 71.0477 24.3909 0
54 1 24.372 19.7066 0
55 1 5.56788 67.948 0
56 1 31.9544 14.0041 0
57 1 72.5606 65.398 0
58 1 70.7333 3.22568 0
59 1 26.0661 1.46353 0
60 1 17.6747 15.1266 0
61 1 47.7706 1.77387 0
62 1 38.1614 39.7025 0
63 1 31.56 11.961 0
64 1 67.4036 53.7051 0
65 1 49.112 31.4996 0
66 2 67.0148 4.91009 0
67 2 44.3649 31.8937 0
68 2 11.5556 5.39806 0
69 1 2.12423 61.3035 0
70 1 4.34929 14.4357 0
71 2 33.8472 56.2949 0
72 1 1.14361 61.04 0
73 1 3.99091 75.2407 0
74 2 28.8261 33.355 0
75 1 33.0594 48.9454 0
76 1 67.7033 51.471 0
77 1 18.6019 8.05046 0
78 1 1.84071 73.6698 0
79 1 0.751606 3.63587 0
80 1 18.0823 4.37004 0
81 1 55.674 45.9897 0
82 2 31.7944 29.4874 0
83 1 10.7901 41.3644 0
84 1 39.5906 13.1725 0
85 1 32.9509 14.4461 0
86 2 46.2821 74.7613 0
87 1 5.91351 28.7406 0
88 1 4.34069 32.7216 0
89 1 30.0436 21.4852 0
90 1 40.9459 50.8562 0
91 2 52.2405 22.5524 0
92 2 38.6616 12.959 0
93 1 44.3032 19.8262 0
94 1 22.3113 58.7148 0
95 2 39.8898 36.989 0
96 1 1.53493 68.7912 0
97 1 56.3368 36.7397 0
98 2 10.0905 60.3642 0
99 1 58.4822 36.9629 0
100 2 44.2993 9.28041 0
101 1 2.57839 55.0928 0
102 1 67.796 13.5201 0
103 1 38.6607 57.3677 0
104 1 29.4642 40.3784 0
105 2 39.3064 35.4188 0
106 2 32.9019 51.9207 0
107 1 55.6816 38.4168 0
108 1 22.8313 4.3913 0
109 1 35.3256 19.8015 0
110 2 30.1867 17.8708 0
111 1 62.7517 28.5335 0
112 1 24.6543 31.003 0
113 2 9.2172 47.6567 0
114 2 10.87 18.1191 0
115 2 11.9655 17.5595 0
116 2 70.8399 69.0723 0
117 1 23.2451 59.0467 0
118 2 42.9335 25.5199 0
119 1 58.5348 8.49282 0
120 2 3.8429 53.1801 0
121 1 24.677 65.5245 0
122 1 49.1902 48.939 0
123 2 26.482 5.42356 0
124 1 44.1076 75.9429 0
125 1 49.6378 23.0499 0
126 1 57.4805 36.9083 0
127 1 44.4233 2.69774 0
128 1 14.1198 10.6248 0
129 1 26.1269 52.4827 0
130 1 76.159 71.1618 0
131 1 47.5701 19.1816 0
132 2 52.2085 58.2691 0
133 2 68.9435 0.446552 0
134 1 40.5415 30.0506 0
135 1 32.0956 15.0956 0
136 2 43.6865 65.3743 0
137 1 63.5502 50.8063 0
138 2 67.1475 39.4664 0
139 1 58.4634 24.1049 0
140 1 76.4675 11.5913 0
141 2 30.6512 72.787 0
142 1 70.7402 76.7481 0
143 2 34.6461 71.7841 0
144 2 52.9286 6.78174 0
145 2 9.55206 75.2983 0
146 1 64.8913 13.4912 0
147 1 41.2687 47.0578 0
148 1 32.3836 44.4771 0
149 2 44.185 52.1585 0
150 1 50.1372 61.4547 0
151 2 19.9957 9.3289 0
152 1 62.2047 64.605 0
153 2 25.3635 74.4244 0
154 2 42.2477 72.6339 0
155 1 66.9788 58.8215 0
156 1 41.7479 34.1488 0
157 1 57.4704 53.5554 0
158 1 55.6176 61.3952 0
159 2 68.3425 16.8525 0
160 1 43.9985 36.5602 0
161 1 22.6802 57.464 0
162 2 5.69781 0.886197 0
163 1 50.3028 53.7408 0
164 1 66.6341 29.6598 0
165 1 10.1716 22.4539 0
166 1 20.1678 31.4778 0
167 1 36.8293 76.8384 0
168 1 60.1146 72.8216 0
169 1 37.3672 13.9982 0
170 1 67.7925 16.1403 0
171 2 72.0787 62.5026 0
172 2 32.3315 2.30349 0
173 2 34.5466 8.55902 0
174 2 21.9357 54.1469 0
175 2 56.2985 12.2793 0
176 1 20.317 17.7165 0
177 1 34.5731 68.9992 0
178 1 45.2831 73.4466 0
179 1 76.8363 10.351 0
180 2 3.27542 0.10669 0
181 1 69.8814 22.122 0
182 1 49.7324 2.22896 0
183 2 15.5002 31.1558 0
184 1 22.0496 6.13099 0
185 2 75.3654 18.3269 0
186 1 56.2795 20.7377 0
187 1 18.4681 46.8707 0
188 1 45.2541 35.2627 0
189 2 51.0686 31.6952 0
190 1 22.1929 73.2507 0
191 1 41.5305 12.909 0
192 1 76.6793 25.4082 0
193 2 5.14528 28.3331 0
194 2 70.4364 65.3179 0
195 1 18.6114 62.3874 0
196 2 36.1152 19.624 0
197 2 40.0608 41.2571 0
198 1 70.7566 48.9184 0
199 2 66.2115 60.5568 0
200 1 64.6884 19.7118 0
201 2 21.0449 52.4403 0
202 2 74.6095 65.354 0
203 1 53.9127 1.88864 0
204 1 43.875 34.2667 0
205 1 57.431 77.4593 0
206 2 31.1906 20.0205 0
207 2 18.3872 61.4193 0
208 1 42.0897 49.5439 0
209 1 8.97639 24.938 0
210 2 24.396 35.6935 0
211 1 22.9704 62.7033 0
212 2 21.8891 68.7981 0
213 2 74.1275 33.8769 0
214 1 17.7047 74.1686 0
215 2 5.92953 23.3704 0
216 1 14.2836 67.7712 0
217 1 51.3538 39.6221 0
218 2 14.6779 65.7993 0
219 2 23.7422 60.911 0
220 2 58.2209 70.1104 0
221 1 18.4147 51.25 0
222 1 52.847 17.9434 0
223 2 18.8499 21.5588 0
224 2 0.812025 12.3946 0
225 1 35.9345 36.7508 0
226 2 47.5162 35.9656 0
227 2 19.6329 72.3305 0
228 1 16.7809 17.8229 0
229 1 1.56728 17.6575 0
230 1 21.3121 7.71958 0
231 1 6.25369 38.0965 0
232 1 25.8103 25.6627 0
233 1 28.8288 43.7291 0
234 1 22.9534 61.143 0
235 1 32.9909 18.7314 0
236 2 24.4699 68.7191 0
237 1 65.7327 40.2469 0
238 2 5.62161 31.6889 0
239 1 25.1604 10.1082 0
240 2 4.77006 74.9133 0
241 1 49.0701 42.7974 0
242 1 24.7613 25.757 0
243 1 1.94345 36.7453 0
244 1 47.586 55.3015 0
245 1 17.3118 33.2824 0
246 1 73.0379 56.7972 0
247 1 67.9639 54.53 0
248 1 14.5163 64.883 0
249 2 67.9377 33.681 0
250 1 27.9688 67.5145 0
251 2 34.1203 30.2999 0
252 2 49.877 31.8642 0
253 1 18.0405 19.0303 0
254 1 55.543 27.8275 0
255 1 74.0132 57.3336 0
256 1 40.3675 72.6698 0
257 1 22.3001 75.2619 0
258 1 12.696 53.1206 0
259 1 46.0772 48.7464 0
260 2 36.5611 30.3213 0
261 2 48.0976 74.3591 0
262 1 31.4511 37.8717 0
263 2 5.31169 37.5785 0
264 2 59.38 24.0767 0
265 1 1.79267 69.8776 0
266 1 49.7602 52.1207 0
267 2 20.9516 28.5178 0
268 2 58.1576 30.6034 0
269 1 64.4413 28.5076 0
270 2 8.53653 43.7023 0
271 2 14.5697 51.5268 0
272 2 24.7788 13.2173 0
273 1 22.687 76.294 0
274 1 50.3258 7.63381 0
275 1 1.66687 62.3045 0
276 1 15.5096 0.932237 0
277 2 14.2237 69.5282 0
278 1 9.25979 1.68153 0
279 1 5.71897 44.706 0
280 1 75.4461 36.0875 0
281 1 35.6735 41.8693 0
282 2 9.981 4.58378 0
283 1 15.3968 66.5063 0
284 2 43.4078 35.0376 0
285 1 5.60953 42.0169 0
286 1 51.127 59.5567 0
287 1 20.5721 32.498 0
288 2 15.3467 70.5643 0
289 2 27.8738 43.9616 0
290 2 65.3936 12.7221 0
291 1 7.00456 14.504 0
292 1 37.165 39.4329 0
293 1 23.8035 11.0264 0
294 1 47.8286 73.4703 0
295 1 73.3447 74.8312 0
296 2 72.3647 40.6665 0
297 1 53.7402 64.8817 0
298 1 70.7892 55.2051 0
299 2 57.8198 32.4613 0
300 1 37.5717 63.8417 0
301 1 75.2937 9.69389 0
302 1 56.6299 48.8679 0
303 1 68.187 30.4661 0
304 1 47.2033 16.6174 0
305 2 45.3865 8.3809 0
306 1 56.6452 34.0346 0
307 2 75.4475 23.2371 0
308 1 42.3904 8.70239 0
309 2 0.899792 20.7696 0
310 2 61.9174 37.8883 0
311 1 41.1169 62.6295 0
312 1 26.7883 63.888 0
313 1 71.7255 10.6022 0
314 1 50.4613 20.13 0
315 2 74.7546 61.2134 0
316 2 22.7781 71.8408 0
317 1 29.6622 0.246654 0
318 2 68.6569 37.0444 0
319 1 7.49336 16.3799 0
320 1 56.9951 60.5079 0
321 1 41.317 2.67277 0
322 2 13.4042 66.3173 0
323 2 31.3421 60.9374 0
324 1 8.16856 69.8332 0
325 1 36.7711 9.60252 0
326 1 58.1275 35.1616 0
327 1 46.1937 34.7999 0
328 1 14.539 12.0114 0
329 1 39.9855 5.51756 0
330 2 39.9563 16.8137 0
331 2 56.9012 63.8369 0
332 1 61.1174 36.3271 0
333 1 44.6595 15.7213 0
334 1 11.2137 30.7783 0
335 1 11.1852 26.7594 0
336 2 71.5881 74.0792 0
337 1 37.613 49.856 0
338 2 29.2407 76.9737 0
339 1 40.0829 10.1401 0
340 1 27.2382 42.5329 0
341 2 7.01774 40.807 0
342 1 66.0088 74.0379 0
343 2 60.2191 51.3159 0
344 2 35.2163 44.8333 0
345 1 25.6362 32.4802 0
346 1 75.4627 25.1807 0
347 1 33.6394 29.462 0
348 1 48.6349 66.5275 0
349 1 37.8535 16.6418 0
350 1 34.7806 3.60175 0
351 1 24.0208 52.1478 0
352 1 59.0169 30.7855 0
353 1 77.1092 40.3886 0
354 2 40.0447 50.9338 0
355 2 56.1389 28.5593 0
356 2 21.4966 70.4906 0
357 1 33.9364 51.7287 0
358 1 51.2872 67.1911 0
359 1 22.8042 15.1721 0
360 2 63.856 36.4616 0
361 2 40.9526 23.5898 0
362 1 18.2002 65.9452 0
363 2 21.9087 18.5138 0
364 1 28.2768 8.94051 0
365 2 52.8844 55.1773 0
366 1 54.0118 66.12 0
367 2 22.5042 32.3117 0
368 2 35.0877 47.5805 0
369 2 58.7831 72.6901 0
370 1 72.7584 12.1563 0
371 1 52.8677 66.3651 0
372 2 35.8328 74.0722 0
373 1 61.4994 40.7642 0
374 2 47.7875 32.4307 0
375 1 31.1951 28.7185 0
376 2 55.4612 36.7005 0
377 2 71.5894 48.5567 0
378 1 18.9893 68.0997 0
379 1 16.855 36.5893 0
380 1 75.0857 52.0143 0
381 1 7.48794 32.0237 0
382 1 39.0437 62.571 0
383 1 16.4433 76.5955 0
384 1 32.7776 50.0836 0
385 1 20.2255 34.2563 0
386 1 48.4293 29.9214 0
387 1 69.0934 58.515 0
388 2 47.4905 41.6177 0
389 1 42.7603 39.9381 0
390 1 39.7065 20.1301 0
391 2 11.009 51.5217 0
392 2 13.5245 3.33595 0
393 2 32.3943 62.009 0
394 1 65.6378 11.8753 0
395 1 51.9397 15.0169 0
396 1 69.0375 6.02177 0
397 1 49.3486 37.7605 0
398 1 36.3254 21.4783 0
399 1 32.8572 21.8399 0
400 1 48.6904 7.166 0
401 1 62.121 72.2136 0
402 2 55.1589 9.83477 0
403 1 51.8649 61.8587 0
404 1 54.6887 54.3574 0
405 2 71.7708 43.8266 0
406 1 31.7585 30.3757 0
407 2 61.8161 5.5485 0
408 1 12.1698 30.2189 0
409 1 4.18048 47.3876 0
410 2 8.35214 16.0332 0
411 2 55.7726 18.2617 0
412 1 66.2685 61.4648 0
413 1 7.45285 57.5816 0
414 1 2.24875 47.938 0
415 1 24.9186 34.9289 0
416 2 8.88623 49.1471 0
417 2 49.7369 40.5935 0
418 1 40.4205 21.6964 0
419 2 76.8274 44.0701 0
420 2 14.9527 76.1452 0
421 1 51.6327 27.3513 0
422 1 67.5979 52.6586 0
423 1 19.9568 68.3966 0
424 1 76.7602 9.23039 0
425 1 32.9283 39.5006 0
426 1 43.7456 74.0075 0
427 2 26.9618 20.5631 0
428 1 65.6728 50.5743 0
429 1 49.3873 1.0507 0
430 1 38.4926 31.7521 0
431 1 10.7594 15.3221 0
432 1 61.1038 38.242 0
433 1 7.8719 5.86979 0
434 1 14.774 27.4761 0
435 1 73.2393 29.2983 0
436 2 72.5222 59.5774 0
437 2 45.5671 52.0218 0
438 1 50.411 40.0795 0
439 2 57.1117 2.67596 0
440 1 36.5652 40.2507 0
441 2 3.41625 70.7085 0
442 1 17.39 25.3018 0
443 1 28.5867 10.1923 0
444 1 6.23194 56.0971 0
445 2 33.845 0.101439 0
446 1 52.5645 71.6445 0
447 1 20.3049 58.1073 0
448 1 48.7403 46.2443 0
449 1 25.7587 6.05561 0
450 2 42.9106 14.1494 0
451 2 14.9692 37.1374 0
452 1 26.5297 17.4932 0
453 1 20.4804 0.717994 0
454 2 55.8369 10.4723 0
455 2 17.3102 13.2316 0
456 1 76.5006 31.4275 0
457 2 17.9036 0.771841 0
458 1 26.3822 22.73 0
459 2 20.7262 47.533 0
460 1 0.126243 70.0333 0
461 2 32.7207 13.5448 0
462 1 38.7281 6.59804 0
463 1 61.0631 64.0913 0
464 1 20.2132 46.8401 0
465 2 32.7745 41.9081 0
466 1 11.0977 17.2384 0
467 2 74.5349 76.3341 0
468 1 68.5018 33.0977 0
469 1 21.9625 66.1616 0
470 1 35.5987 75.7475 0
471 2 0.181099 39.7256 0
472 1 19.7328 35.2029 0
473 1 60.5843 60.594 0
474 1 20.4135 8.32843 0
475 1 13.5776 8.36283 0
476 2 38.1332 29.4432 0
477 1 65.9037 19.4367 0
478 2 38.2706 59.1115 0
479 1 26.071 35.0792 0
480 1 37.4024 37.5196 0
481 1 69.7161 11.4475 0
482 1 14.0481 36.9878 0
483 2 64.0359 13.0736 0
484 1 5.08123 30.8305 0
485 1 24.7601 48.7648 0
486 1 21.4985 65.0961 0
487 2 49.4586 66.7682 0
488 1 13.0402 11.1139 0
489 1 49.4517 15.068 0
490 1 25.7511 69.9804 0
491 1 34.7823 38.0806 0
492 2 12.168 76.2083 0
493 1 7.94479 24.8484 0
494 1 70.9471 27.987 0
495 2 12.2663 31.0882 0
496 2 38.4269 25.5053 0
497 2 32.8517 3.94276 0
498 1 14.3764 41.9677 0
499 1 29.9738 76.6023 0
500 1 64.0371 55.1957 0
501 2 57.4875 50.816 0
502 1 31.6128 52.8657 0
503 1 56.3093 21.8797 0
504 1 38.7516 42.5406 0
505 2 15.7326 20.0192 0
506 2 6.80355 66.7854 0
507 1 45.8592 14.2858 0
508 1 27.0349 39.7077 0
509 1 22.8643 29.9059 0
510 1 70.6994 26.4083 0
511 1 60.2832 6.21261 0
512 1 50.8024 3.11952 0
513 1 16.3121 34.6684 0
514 1 11.3367 49.8687 0
515 2 36.2226 6.50818 0
516 2 1.50823 50.6829 0
517 2 18.9805 37.9524 0
518 2 35.3727 65.3537 0
519 2 39.41 57.818 0
520 1 74.72 38.0266 0
521 1 59.4852 19.1806 0
522 2 24.1858 3.36979 0
523 1 75.3979 60.6071 0
524 1 39.152 14.8693 0
525 1 26.7301 73.3185 0
526 2 42.3777 33.5973 0
527 1 56.2333 33.0337 0
528 2 62.202 47.5077 0
529 2 66.5891 42.1571 0
530 1 16.5925 61.5573 0
531 2 69.5222 70.3539 0
532 2 74.3204 52.6388 0
533 1 72.952 54.4601 0
534 1 23.7407 23.1049 0
535 1 0.541109 6.62028 0
536 1 26.9681 58.7202 0
537 1 16.4866 41.4835 0
538 2 76.4479 7.43248 0
539 2 44.0578 68.7168 0
540 1 48.4645 33.001 0
541 2 11.0936 16.0724 0
542 1 52.1572 47.8714 0
543 2 12.5929 56.3424 0
544 2 61.2244 12.5384 0
545 1 17.5584 27.3818 0
546 1 45.6374 71.8034 0
547 1 15.0328 2.51524 0
548 2 23.5657 45.0044 0
549 2 4.01678 36.8749 0
550 2 4.3469 43.445 0
551 1 35.5427 71.6331 0
552 2 38.6873 11.2183 0
553 2 56.3273 42.7202 0
554 1 54.3563 70.692 0
555 1 46.9596 39.8308 0
556 1 5.15107 51.8425 0
557 1 57.6137 70.8626 0
558 1 4.73706 58.1243 0
559 1 77.3011 15.5916 0
560 2 11.9538 52.48 0
561 1 55.2682 75.5111 0
562 2 69.0968 10.7434 0
563 2 52.5271 49.7478 0
564 1 74.2731 61.9745 0
565 2 49.2315 60.0956 0
566 2 4.96608 33.2519 0
567 1 52.916 31.1485 0
568 2 66.7031 53.0021 0
569 2 7.44805 8.21021 0
570 1 67.4205 50.4392 0
571 1 58.9962 2.70701 0
572 2 25.6624 44.9646 0
573 2 0.919914 31.6637 0
574 1 20.1054 57.1343 0
575 1 17.9012 11.506 0
576 1 29.6775 74.9149 0
577 1 12.818 18.0263 0
578 2 53.2666 39.5729 0
579 2 50.6333 73.1602 0
580 1 35.6923 18.882 0
581 1 11.4868 73.1323 0
582 2 58.7 1.88161 0
583 2 68.0024 42.7984 0
584 2 36.3547 41.165 0
585 1 51.4885 16.5864 0
586 1 50.9627 35.6198 0
587 2 4.05187 29.4377 0
588 1 44.5044 3.76796 0
589 2 61.6994 14.2465 0
590 1 12.3419 2.61839 0
591 1 52.2043 12.0261 0
592 1 49.9029 6.58719 0
593 1 30.7625 74.771 0
594 1 44.6678 43.4674 0
595 1 16.0287 64.0258 0
596 2 3.37541 69.5285 0
597 1 17.5651 41.0811 0
598 1 0.190524 8.57653 0
599 1 11.2912 22.7862 0
600 1 1.25207 49.7598 0
601 2 38.4761 61.9003 0
602 1 13.0575 76.1972 0
603 2 5.51172 53.7345 0
604 2 72.056 20.9865 0
605 1 54.2254 48.2333 0
606 1 39.8229 68.6773 0
607 1 25.4508 71.6927 0
608 2 77.4495 52.4866 0
609 2 37.0899 64.5559 0
610 1 0.76426 35.1717 0
611 1 38.9844 45.5565 0
612 1 61.3277 0.723012 0
613 1 74.4493 35.5308 0
614 2 55.0756 11.631 0
615 1 21.2889 39.4218 0
616 1 23.9536 9.88305 0
617 1 34.5419 16.456 0
618 2 70.9429 40.3845 0
619 2 54.9339 58.4467 0
620 2 50.2703 44.3887 0
621 2 53.1547 28.6993 0
622 1 62.7178 9.08164 0
623 1 40.8973 16.9554 0
624 2 42.7391 68.0004 0
625 1 1.5829 76.3127 0
626 1 26.847 31.3278 0
627 2 5.1198 47.2496 0
628 1 34.1312 58.7626 0
629 2 57.8847 16.532 0
630 1 59.1041 4.97541 0
631 1 55.6159 30.679 0
632 1 29.2496 56.8319 0
633 2 3.72835 3.92698 0
634 1 8.95643 38.1482 0
635 2 32.43 30.9983 0
636 2 31.8614 25.3249 0
637 1 4.40658 9.62755 0
638 1 61.631 49.0743 0
639 1 77.2341 43.3316 0
640 1 0.34421 49.0554 0
641 1 35.5592 39.7674 0
642 1 35.1445 48.4226 0
643 1 36.4371 59.1762 0
644 2 5.21507 24.5858 0
645 1 39.2698 44.5178 0
646 1 48.8543 51.1378 0
647 2 32.53 40.2408 0
648 1 76.3461 75.5842 0
649 2 14.1393 64.0503 0
650 2 43.3234 75.8201 0
651 1 61.9113 37.0456 0
652 1 24.8877 72.5936 0
653 2 17.4885 18.2852 0
654 2 13.2573 10.2869 0
655 1 39.5498 56.932 0
656 1 72.5907 48.8069 0
657 1 49.1185 62.178 0
658 1 4.48599 3.57317 0
659 2 66.8995 48.5928 0
660 1 40.593 34.1827 0
661 1 31.2159 15.8097 0
662 1 70.536 36.5704 0
663 1 12.0322 46.5476 0
664 1 44.6057 71.9912 0
665 2 58.8321 68.5014 0
666 2 16.9894 34.076 0
667 1 15.6829 75.685 0
668 2 63.0383 13.1591 0
669 1 6.12346 5.7434 0
670 2 36.8525 50.2292 0
671 2 41.9834 7.77783 0
672 1 1.57879 7.0626 0
673 1 15.788 19.1847 0
674 1 43.4113 57.0347 0
675 2 19.0525 63.1513 0
676 2 51.9664 59.8587 0
677 1 47.6134 57.9464 0
678 1 32.6257 55.3423 0
679 1 48.2798 65.3479 0
680 1 53.1825 69.4805 0
681 1 1.90045 44.1653 0
682 1 11.1647 63.1233 0
683 1 15.4564 76.8251 0
684 1 60.299 54.0394 0
685 2 62.6085 2.93652 0
686 1 3.69848 62.5574 0
687 1 19.2653 4.48461 0
688 2 59.3967 59.1258 0
689 1 36.4446 57.0302 0
690 1 61.6174 61.9792 0
691 1 72.1479 47.8487 0
692 2 41.7003 20.1733 0
693 1 55.3682 15.174 0
694 2 70.913 49.7884 0
695 1 61.201 10.8853 0
696 2 49.3132 71.9831 0
697 1 36.3432 50.854 0
698 1 17.3097 53.8709 0
699 1 59.0011 46.0154 0
700 1 3.96084 30.2788 0
701 1 7.59201 68.1915 0
702 1 59.2418 54.3814 0
703 2 7.81125 66.2868 0
704 2 68.6837 6.93394 0
705 2 5.06776 16.2051 0
706 1 55.3097 32.3421 0
707 2 67.0748 16.5538 0
708 1 35.0432 45.8189 0
709 1 39.3449 2.05909 0
710 2 66.2528 23.0027 0
711 1 60.6374 43.7573 0
712 2 44.209 15.0307 0
713 2 47.7934 66.3375 0
714 2 68.698 59.3374 0
715 1 77.4326 75.6272 0
716 1 4.45115 19.43 0
717 1 17.0307 71.3418 0
718 1 10.988 57.5046 0
719 1 50.0357 29.3179 0
720 2 42.0541 60.5347 0
721 2 60.2238 37.9392 0
722 1 39.0386 9.44809 0
723 2 57.6499 6.23252 0
724 2 22.632 77.1642 0
725 1 71.8454 9.59854 0
726 1 12.1685 26.9129 0
727 2 26.3966 13.8388 0
728 1 9.28337 60.9966 0
729 2 29.1725 70.866 0
730 1 11.8759 28.3815 0
731 2 14.0015 36.126 0
732 1 40.9203 0.77927 0
733 1 31.8986 39.5336 0
734 2 65.9133 38.2165 0
735 1 30.8398 7.73365 0
736 1 23.9952 45.7539 0
737 2 66.8015 45.9907 0
738 1 35.6507 25.6571 0
739 1 29.5316 8.77158 0
740 1 45.5615 65.6774 0
741 2 47.7897 28.797 0
742 1 69.9989 51.2018 0
743 1 25.6259 13.3575 0
744 2 65.4263 32.3752 0
745 1 9.16597 63.7906 0
746 1 26.8965 28.4746 0
747 1 37.3265 71.381 0
748 2 44.1355 26.2901 0
749 2 39.1231 60.6871 0
750 1 48.673 28.9303 0
751 1 54.839 39.1678 0
752 2 56.2388 71.887 0
753 1 37.5257 31.9584 0
754 2 76.0559 42.0093 0
755 1 69.5923 44.6852 0
756 2 48.8061 69.3589 0
757 1 26.7242 13.0466 0
758 1 57.3396 20.6137 0
759 1 37.0779 35.262 0
760 1 55.9009 11.4511 0
761 1 14.2496 73.2767 0
762 1 14.3461 45.4319 0
763 2 66.1358 3.49493 0
764 1 21.9046 62.4945 0
765 2 69.4668 60.2862 0
766 1 77.3057 20.5808 0
767 1 6.4384 57.8532 0
768 1 63.1393 2.06067 0
769 1 64.8676 40.8466 0
770 2 69.3337 62.1734 0
771 1 75.5559 24.0731 0
772 1 71.1974 18.0186 0
773 1 35.9572 53.4811 0
774 2 41.0299 33.4276 0
775 1 3.18619 32.4157 0
776 2 48.8899 52.0537 0
777 1 76.6387 36.2646 0
778 2 76.0648 61.1454 0
779 1 50.4665 21.2052 0
780 1 9.69115 13.9895 0
781 1 46.1516 26.8299 0
782 1 61.504 44.5573 0
783 1 53.4122 26.0093 0
784 1 42.4999 55.3108 0
785 2 61.4487 20.9907 0
786 1 0.147717 60.4347 0
787 1 28.5551 63.3389 0
788 1 50.5429 32.3536 0
789 1 13.6628 53.3139 0
790 1 1.74647 71.4686 0
791 1 11.8246 64.7834 0
792 1 68.8046 25.412 0
793 1 11.6831 4.44218 0
794 2 25.1878 2.02088 0
795 2 76.9305 2.24782 0
796 2 71.8996 12.5412 0
797 1 44.6917 48.7454 0
798 1 41.0666 17.9731 0
799 1 32.9012 66.3122 0
800 1 33.0974 70.7861 0
801 2 9.87581 41.3059 0
802 2 50.9913 33.1062 0
803 2 15.4403 7.75099 0
804 2 55.9628 3.87803 0
805 1 33.5631 65.5381 0
806 1 63.4955 69.8206 0
807 2 39.0065 68.2031 0
808 1 39.2747 39.5284 0
809 2 14.7556 32.7343 0
810 1 57.1005 14.2659 0
811 1 44.3324 74.9221 0
812 2 23.747 51.2561 0
813 2 40.4763 52.5772 0
814 1 50.4117 19.1374 0
815 2 45.3413 15.0486 0
816 1 37.5293 61.6943 0
817 1 55.6817 4.68595 0
818 2 61.1576 8.74627 0
819 2 30.0013 38.7878 0
820 1 49.0761 67.5075 0
821 1 26.9011 10.4791 0
822 1 30.0283 4.8771 0
823 1 32.7056 62.8504 0
824 2 16.1346 18.3821 0
825 1 25.3189 55.1437 0
826 1 6.69843 17.0661 0
827 1 23.4495 39.8162 0
828 1 69.7168 48.9699 0
829 1 1.39873 39.5161 0
830 2 50.2194 64.9171 0
831 2 44.4879 12.2916 0
832 1 57.3617 33.1573 0
833 1 15.8903 49.9162 0
834 2 52.8701 12.5668 0
835 1 24.4245 67.8227 0
836 1 74.5324 66.2246 0
837 1 61.8568 33.5326 0
838 1 52.4727 51.6728 0
839 1 18.5658 76.5758 0
840 2 3.49405 33.259 0
841 1 25.3886 56.9422 0
842 2 53.2961 5.46083 0
843 1 68.6483 60.1556 0
844 1 59.3208 17.6357 0
845 2 31.4756 36.0097 0
846 1 29.1951 20.9502 0
847 1 7.59899 52.8278 0
848 2 62.5068 42.987 0
849 1 70.0101 31.5593 0
850 1 66.8342 23.7473 0
851 1 20.8706 9.39569 0
852 1 14.2838 21.3228 0
853 1 23.4139 0.0464495 0
854 1 60.9854 2.44793 0
855 1 52.3631 16.0715 0
856 2 39.8063 45.2495 0
857 1 60.8441 14.0643 0
858 2 45.5518 57.8834 0
859 1 76.3403 12.9603 0
860 2 67.9414 44.7431 0
861 2 3.99422 57.6996 0
862 2 19.4589 57.8302 0
863 1 55.731 16.1678 0
864 1 61.2436 56.7801 0
865 2 60.5908 74.6543 0
866 1 76.7108 18.9626 0
867 2 35.471 23.1026 0
868 1 37.1323 54.8133 0
869 1 63.01 34.7871 0
870 1 26.9295 55.4505 0
871 1 70.408 15.4447 0
872 1 21.7152 29.3871 0
873 1 30.2371 13.1962 0
874 1 69.2295 69.5053 0
875 1 46.2573 73.8899 0
876 2 25.9951 12.5439 0
877 1 70.1151 47.2848 0
878 2 16.8144 23.5123 0
879 1 72.6329 41.5108 0
880 2 36.2194 35.0786 0
881 2 61.4156 31.7406 0
882 2 66.1386 66.2232 0
883 1 4.97553 17.6223 0
884 1 55.5611 26.4346 0
885 1 39.2666 74.1672 0
886 1 38.3185 60.9201 0
887 2 40.8409 58.3793 0
888 1 72.2477 6.02537 0
889 2 24.1387 23.8938 0
890 2 2.01799 15.89 0
891 1 32.8638 16.4812 0
892 1 24.7422 6.54971 0
893 1 19.435 50.8716 0
894 1 4.12246 1.74205 0
895 2 46.9803 26.3899 0
896 1 11.9912 11.8393 0
897 2 58.0812 9.24212 0
898 1 9.9957 45.8539 0
899 1 5.48403 72.2964 0
900 2 50.6104 9.22247 0
901 1 7.84901 39.6554 0
902 1 25.1084 12.4314 0
903 1 23.2457 60.0745 0
904 2 31.4256 33.3596 0
905 1 38.6228 52.3694 0
906 1 67.1141 60.8143 0
907 1 8.09023 18.039 0
908 1 53.3016 27.8385 0
909 1 7.65537 67.1494 0
910 2 22.8607 56.6465 0
911 2 19.0536 60.5787 0
912 2 46.3601 39.093 0
913 2 20.1118 40.8253 0
914 1 9.95806 21.4159 0
915 2 38.6583 7.45674 0
916 1 4.18742 45.4091 0
917 2 3.53324 9.4449 0
918 2 6.55693 29.4289 0
919 1 40.9837 71.1503 0
920 1 37.9701 64.8634 0
921 1 74.1896 30.5612 0
922 2 43.9231 16.0761 0
923 2 32.2737 43.6359 0
924 1 49.4439 12.7907 0
925 1 67.7351 48.3008 0
926 2 36.4128 35.9674 0
927 1 57.7554 62.0813 0
928 1 66.0463 64.8135 0
929 2 25.8101 57.7285 0
930 2 38.5126 41.6931 0
931 1 52.8028 38.7521 0
932 1 43.0441 42.6059 0
933 1 41.9232 20.9684 0
934 1 5.57709 0.0281826 0
935 1 10.451 54.0108 0
936 2 41.8026 5.05717 0
937 1 14.5511 43.046 0
938 1 41.8981 3.94015 0
939 2 48.298 25.8945 0
940 1 17.6017 61.799 0
941 1 72.6591 5.03306 0
942 1 24.3803 18.6751 0
943 2 24.5833 71.6245 0
944 2 73.5221 42.8712 0
945 1 22.3365 1.58095 0
946 1 68.877 71.0225 0
947 2 55.8533 69.2179 0
948 1 28.2404 71.0642 0
949 1 33.7561 17.0269 0
950 2 24.9979 58.7642 0
951 1 12.2954 61.3801 0
952 2 26.04 9.8729 0
953 2 73.0911 22.1702 0
954 2 21.4997 60.5475 0
955 1 35.3468 57.0843 0
956 2 1.38443 47.7068 0
957 1 50.373 25.5813 0
958 2 7.88615 14.437 0
959 2 71.7248 50.321 0
960 2 46.5182 72.0279 0
961 1 51.3826 22.5123 0
962 1 11.9696 22.0224 0
963 1 27.6093 75.5841 0
964 2 15.1129 21.4013 0
965 2 54.5824 35.4715 0
966 1 57.5097 44.3216 0
967 1 38.485 46.6438 0
968 1 27.0622 74.6931 0
969 1 48.4359 76.0742 0
970 2 45.2657 3.52317 0
971 1 76.1622 15.5964 0
972 1 21.3287 46.9443 0
973 1 57.8086 40.9405 0
974 2 65.2083 58.0021 0
975 2 24.7974 73.4556 0
976 2 18.3466 24.0994 0
977 1 35.6045 40.7658 0
978 2 72.4267 11.1025 0
979 2 51.2598 7.60419 0
980 1 17.0337 65.8563 0
981 1 40.8321 48.1231 0
982 1 29.7264 67.6138 0
983 1 12.9205 16.9501 0
984 1 8.8894 55.281 0
985 1 41.6603 9.38791 0
986 1 33.504 40.3232 0
987 2 34.6002 50.0009 0
988 2 19.7451 39.4278 0
989 2 62.906 45.9554 0
990 2 4.53365 62.5052 0
991 2 33.0867 1.24769 0
992 1 68.2084 37.9595 0
993 2 43.516 22.805 0
994 2 10.8203 54.8564 0
995 1 16.3376 26.0362 0
996 2 64.5235 65.4705 0
997 2 28.0039 4.61395 0
998 2 28.426 73.486 0
999 2 31.0421 12.8461 0
1000 2 27.6688 68.2708 0
1001 1 33.8827 0.971187 0
1002 1 63.2887 49.0318 0
1003 1 18.4757 74.8024 0
1004 1 12.1377 67.1925 0
1005 2 76.8716 33.9973 0
1006 2 53.4373 33.1492 0
1007 1 24.8389 21.3712 0
1008 1 53.1486 20.7108 0
1009 1 35.0118 51.7212 0
1010 1 1.69875 33.5385 0
1011 2 59.6931 28.4179 0
1012 2 76.1148 9.79465 0
1013 2 49.2592 33.5802 0
1014 1 75.542 22.4002 0
1015 1 6.62646 35.1985 0
1016 1 68.6833 48.8848 0
1017 2 4.80197 35.9076 0
1018 1 30.556 56.5736 0
1019 1 40.2951 26.9999 0
1020 2 43.5772 17.2993 0
1021 2 12.9721 19.8898 0
1022 1 30.7202 60.0817 0
1023 1 21.23 25.9897 0
1024 1 16.1173 12.8958 0
1025 1 35.473 69.7709 0
1026 1 8.82296 44.6365 0
1027 1 69.3455 74.5587 0
1028 1 31.1178 34.1291 0
1029 1 47.7878 20.8321 0
1030 2 48.5273 30.8 0
1031 2 35.6344 32.5626 0
1032 1 24.0287 63.9103 0
1033 1 46.0485 13.2944 0
1034 1 9.95857 20.3578 0
1035 1 62.4174 30.0617 0
1036 2 72.5923 67.0909 0
1037 1 56.4177 3.21958 0
1038 1 71.1293 19.1362 0
1039 1 65.0671 30.215 0
1040 2 53.8234 31.5791 0
1041 1 52.9549 61.7644 0
1042 2 70.3585 55.917 0
1043 2 47.9741 45.7007 0
1044 1 61.2446 27.0563 0
1045 1 3.33014 34.2736 0
1046 1 32.1293 71.4168 0
1047 2 30.0693 45.4655 0
1048 1 48.9809 6.13487 0
1049 1 73.3956 18.6605 0
1050 2 42.5118 37.5304 0
1051 1 26.2547 19.9785 0
1052 1 62.0155 38.7082 0
1053 2 21.0406 10.2422 0
1054 1 4.00101 70.0949 0
1055 2 13.8004 55.1922 0
1056 2 18.1936 52.0433 0
1057 1 17.6631 16.9892 0
1058 1 48.1953 16.3288 0
1059 1 16.3922 60.5241 0
1060 2 28.6835 40.1946 0
1061 1 16.7157 13.8165 0
1062 2 30.0856 35.6291 0
1063 1 7.88879 15.293 0
1064 1 17.0603 12.4373 0
1065 2 38.9391 36.2122 0
1066 1 37.933 62.6994 0
1067 1 20.1524 28.2029 0
1068 2 30.2609 8.36946 0
1069 1 12.331 39.1721 0
1070 2 6.62269 64.2931 0
1071 2 3.07152 63.1508 0
1072 2 15.1121 55.9734 0
1073 2 16.5511 59.7153 0
1074 2 26.8238 49.396 0
1075 1 9.11928 22.2429 0
1076 1 21.62 16.6787 0
1077 1 21.9127 30.3898 0
1078 2 60.8868 27.8407 0
1079 2 21.568 37.5406 0
1080 2 45.4273 67.5796 0
1081 2 57.1761 54.43 0
1082 2 67.1892 12.9702 0
1083 2 28.9432 0.670581 0
1084 1 50.5589 38.9733 0
1085 1 7.55574 34.5205 0
1086 1 50.9941 50.9046 0
1087 1 48.7415 3.73684 0
1088 1 44.3021 0.151418 0
1089 2 54.7713 28.2165 0
1090 1 29.1158 22.1018 0
1091 2 48.6742 20.7845 0
1092 1 52.1583 40.7018 0
1093 1 31.9526 35.2285 0
1094 2 56.1708 60.5694 0
1095 1 11.6284 3.33097 0
1096 2 56.2779 32.1251 0
1097 1 5.06729 8.81871 0
1098 1 59.2958 34.8269 0
1099 1 26.847 53.2753 0
1100 1 4.64355 67.3809 0
1101 1 10.6856 27.9725 0
1102 1 22.3341 70.2337 0
1103 1 27.4078 7.15903 0
1104 1 47.3466 29.5799 0
1105 1 44.0043 20.8753 0
1106 1 69.749 0.737319 0
1107 2 59.5861 74.4737 0
1108 1 44.8112 30.1096 0
1109 1 66.9041 27.5428 0
1110 2 72.4956 16.4536 0
1111 1 46.9315 32.0349 0
1112 1 3.185 6.00275 0
1113 2 26.6054 66.4494 0
1114 2 9.27531 30.3072 0
1115 2 43.3177 60.8306 0
1116 1 71.2964 44.6027 0
1117 1 74.793 47.4155 0
1118 1 26.8774 3.03584 0
1119 2 23.8959 46.6952 0
1120 1 39.4021 21.5307 0
1121 2 71.8549 0.682879 0
1122 1 7.71149 36.5001 0
1123 2 43.9641 38.3351 0
1124 1 48.2838 37.6846 0
1125 2 30.5944 10.0195 0
1126 2 9.52869 16.9595 0
1127 1 13.9855 23.117 0
1128 1 55.8177 44.3095 0
1129 1 54.772 45.3323 0
1130 1 51.5379 2.43859 0
1131 1 63.2184 17.1261 0
1132 2 66.2133 59.1346 0
1133 2 43.7553 3.37731 0
1134 2 14.6815 59.8983 0
1135 1 55.033 47.6156 0
1136 2 43.4538 20.2442 0
1137 1 60.1147 5.19912 0
1138 1 33.8653 32.0813 0
1139 2 38.6262 39.0051 0
1140 2 16.8747 20.7302 0
1141 1 65.8594 54.7518 0
1142 1 63.0537 23.9983 0
1143 1 61.7926 65.5228 0
1144 2 64.6911 67.2161 0
1145 1 35.206 50.6756 0
1146 1 18.6243 14.4783 0
1147 1 19.1806 24.1253 0
1148 1 5.69848 12.045 0
1149 1 48.3553 15.1635 0
1150 2 45.4709 33.2574 0
1151 1 54.737 23.9364 0
1152 1 37.578 33.6492 0
1153 1 69.571 5.13074 0
1154 1 77.2266 5.14067 0
1155 2 8.47685 67.5148 0
1156 1 63.2992 30.5606 0
1157 1 13.2387 7.31804 0
1158 2 63.0872 52.4166 0
1159 2 69.862 67.7028 0
1160 1 16.3021 7.474 0
1161 2 21.5815 12.9822 0
1162 1 69.9242 10.2841 0
1163 2 13.245 5.07385 0
1164 1 39.7363 69.756 0
1165 1 13.1931 27.1324 0
1166 2 36.3352 55.0581 0
1167 1 40.8039 28.0166 0
1168 1 51.2253 11.1979 0
1169 1 19.5947 69.698 0
1170 2 6.96578 55.575 0
1171 1 67.8462 62.7955 0
1172 1 19.2317 16.2513 0
1173 1 53.4506 63.8575 0
1174 1 43.3365 52.0905 0
1175 2 55.8852 65.4545 0
1176 1 5.68381 49.1066 0
1177 1 56.8806 67.9531 0
1178 2 34.4628 51.0972 0
1179 1 13.8178 65.5886 0
1180 1 50.7194 13.8429 0
1181 1 58.9091 41.0844 0
1182 1 41.1541 11.8374 0
1183 2 37.1487 67.5633 0
1184 2 39.459 38.6375 0
1185 1 19.3012 42.4374 0
1186 1 33.2829 68.1937 0
1187 1 52.3129 59.1047 0
1188 2 1.423 40.9476 0
1189 1 43.2168 40.833 0
1190 1 46.0497 49.8909 0
1191 2 60.5712 15.8111 0
1192 1 7.04592 37.3332 0
1193 1 38.4701 35.5407 0
1194 2 70.7015 38.6135 0
1195 1 15.2889 68.0168 0
1196 1 74.5737 54.7369 0
1197 1 34.852 22.4886 0
1198 1 58.0563 1.21203 0
1199 2 33.3257 24.4852 0
1200 1 48.1332 14.064 0
1201 1 67.124 5.77301 0
1202 1 14.2992 56.1673 0
1203 2 45.4599 10.921 0
1204 1 7.27167 64.9182 0
1205 1 2.81346 67.6205 0
1206 1 61.1422 20.0716 0
1207 1 43.8678 27.1198 0
1208 1 7.28733 41.6248 0
1209 2 44.5789 41.491 0
1210 1 66.3839 11.0605 0
1211 2 28.6869 53.4321 0
1212 1 24.3191 36.6144 0
1213 1 65.4801 65.7448 0
1214 1 77.0098 45.9283 0
1215 1 70.5682 9.34882 0
1216 1 17.6302 55.5023 0
1217 2 58.1527 57.0502 0
1218 2 65.0745 62.7318 0
1219 1 44.0798 31.0113 0
1220 1 57.8275 7.79728 0
1221 1 65.7716 69.5141 0
1222 2 73.5186 59.2513 0
1223 1 45.7516 44.7133 0
1224 1 74.5061 26.6947 0
1225 1 70.9535 56.4536 0
1226 2 63.8535 49.962 0
1227 1 56.4283 57.8942 0
1228 1 63.2739 55.8645 0
1229 2 57.0231 13.3283 0
1230 1 8.95064 45.6145 0
1231 2 64.4631 27.6649 0
1232 1 7.32374 62.7734 0
1233 1 18.3788 53.9133 0
1234 1 73.787 58.3912 0
1235 1 31.6792 50.0385 0
1236 1 44.8266 51.484 0
1237 1 23.369 12.0226 0
1238 1 48.2633 10.6266 0
1239 1 73.8212 32.2108 0
1240 1 58.5153 61.3705 0
1241 1 18.7393 0.897954 0