ITEM: TIMESTEP
0
ITEM: NUMBER OF ATOMS
7200
ITEM: BOX BOUNDS xy xz yz pp pp pp
0.0000000000000000e+00 7.7459666924100006e+01 0.0000000000000000e+00
0.0000000000000000e+00 7.7459666924100006e+01 0.0000000000000000e+00
-1.2909944490000000e-01 1.2909944490000000e-01 0.0000000000000000e+00
ITEM: ATOMS id type x y z
1 1 32.6721 7.70776 0
2 1 9.14415 14.4419 0
3 1 75.5727 53.5651 0
4 1 41.4877 22.0586 0
5 1 28.0449 42.0666 0
6 1 53.6127 41.4546 0
7 2 29.685 23.1667 0
8 2 73.3728 67.6673 0
9 1 21.9598 28.8384 0
10 2 11.3444 15.4976 0
11 2 52.296 43.5812 0
12 1 24.0818 68.3106 0
13 2 60.3493 45.9535 0
14 1 53.6776 68.5817 0
15 1 10.9691 68.2849 0
16 1 37.3625 23.9667 0
17 1 74.8906 18.4657 0
18 1 35.2642 51.3413 0
19 1 14.4387 49.6083 0
20 2 40.0914 46.0899 0
21 1 54.3566 16.7138 0
22 1 8.58905 0.133092 0
23 1 25.1946 63.9932 0
24 1 21.0451 43.7354 0
25 1 50.2469 16.6765 0
26 1 36.8673 74.2937 0
27 2 73.515 45.5843 0
28 1 51.105 4.13495 0
29 2 53.4916 55.6288 0
30 2 17.1997 3.70263 0
31 1 66.954 49.6616 0
32 1 16.154 35.8227 0
33 1 43.1199 43.2769 0
34 2 16.8139 18.7742 0
35 1 63.5837 1.30768 0
36 1 54.067 27.4926 0
37 1 19.043 59.7806 0
38 1 52.7976 18.3559 0
39 1 24.6884 16.7909 0
40 2 7.66785 0.190637 0
41 2 0.406643 75.5772 0
42 1 27.2167 49.5512 0
43 1 52.552 14.8333 0
44 1 20.7932 0.0919604 0
45 1 33.4041 62.0355 0
46 1 3.63516 34.5513 0
47 1 9.27785 26.6433 0
48 1 75.4757 69.5833 0
49 2 69.5985 55.7241 0
50 1 3.26566 48.8656 0
51 1 36.6564 15.737 0
52 2 17.4918 60.7736 0
53 1 67.8141 69.4775 0
54 1 41.412 0.92609 0
55 1 74.8181 47.0596 0
56 1 23.8725 24.4169 0
57 1 66.0656 3.56913 0
58 1 37.7973 63.2138 0
59 1 17.8363 76.8093 0
60 1 36.1286 75.9596 0
61 1 12.1929 54.6256 0
62 1 42.0118 4.33681 0
63 1 21.6792 69.9576 0
64 1 58.4929 67.1673 0
65 1 56.638 29.1708 0
66 2 42.4072 18.4998 0
67 2 60.5717 23.0989 0
68 2 66.1385 74.0145 0
69 1 64.1165 21.4887 0
70 1 73.0053 25.6339 0
71 2 17.839 42.8418 0
72 1 49.2216 58.6624 0
73 1 10.7926 70.1723 0
74 2 47.7826 38.8966 0
75 1 47.5485 52.2583 0
76 1 48.4739 72.4317 0
77 1 21.8267 37.2317 0
78 1 17.7532 8.40844 0
79 1 59.509 74.1716 0
80 1 27.8617 2.2844 0
81 1 52.1962 24.6326 0
82 2 56.7127 36.8221 0
83 1 24.3672 26.083 0
84 1 66.9354 62.943 0
85 1 1.97537 39.4463 0
86 2 32.6563 66.4472 0
87 1 0.451307 28.7101 0
88 1 25.5578 69.3828 0
89 1 22.091 27.7976 0
90 1 76.7304 70.58 0
91 2 56.1366 63.3428 0
92 2 22.9328 57.0696 0
93 1 66.3556 38.8435 0
94 1 35.8069 56.3095 0
95 2 60.4475 49.4706 0
96 1 76.995 16.8549 0
97 1 36.9957 71.7301 0
98 2 62.3905 38.7917 0
99 1 52.9788 48.1542 0
100 2 11.3123 22.7735 0
101 1 8.18101 37.2038 0
102 1 44.6042 27.8117 0
103 1 54.6506 57.3851 0
104 1 9.46106 40.9341 0
105 2 51.2564 8.0811 0
106 2 40.2044 57.8292 0
107 1 73.7118 62.6702 0
108 1 34.7631 63.667 0
109 1 23.0009 28.3977 0
110 2 13.1128 35.1272 0
111 1 59.0524 43.6842 0
112 1 26.4288 39.043 0
113 2 8.51581 37.9603 0
114 2 71.426 25.0841 0
115 2 76.11 28.0565 0
116 2 1.61326 13.1624 0
117 1 0.0841232 5.34027 0
118 2 16.4501 11.1098 0
119 1 75.9024 14.3888 0
120 2 5.87557 58.3787 0
121 1 69.8822 56.7739 0
122 1 34.4397 39.5669 0
123 2 19.8749 38.8329 0
124 1 18.7897 43.4326 0
125 1 16.7844 50.0812 0
126 1 49.6845 76.5913 0
127 1 47.924 2.23939 0
128 1 34.3825 3.15499 0
129 1 15.7452 55.4598 0
130 1 64.5401 74.8119 0
131 1 54.3611 52.1809 0
132 2 49.0714 4.64337 0
133 2 62.6818 12.9653 0
134 1 52.4505 58.5473 0
135 1 70.5793 67.2908 0
136 2 14.1744 74.8831 0
137 1 72.2855 2.93216 0
138 2 55.174 16.3685 0
139 1 48.7918 6.41045 0
140 1 60.716 26.9963 0
141 2 4.18838 66.4408 0
142 1 53.1393 0.347275 0
143 2 5.36646 75.4948 0
144 2 19.7962 6.36172 0
145 2 17.4344 54.49 0
146 1 47.8 55.7506 0
147 1 37.5674 50.0015 0
148 1 48.4553 61.3083 0
149 2 67.4243 26.2373 0
150 1 74.2423 71.4819 0
151 2 30.0982 2.99929 0
152 1 58.7573 3.54037 0
153 2 32.6872 19.4617 0
154 2 25.0125 68.6025 0
155 1 10.3166 2.49576 0
156 1 36.0927 25.9969 0
157 1 54.7765 23.9196 0
158 1 69.7444 50.0703 0
159 2 50.1854 49.6247 0
160 1 50.5726 42.6749 0
161 1 67.6695 58.4894 0
162 2 67.4607 76.9963 0
163 1 67.5254 60.3725 0
164 1 52.2055 36.9856 0
165 1 32.5292 2.88499 0
166 1 33.4525 0.396629 0
167 1 66.237 9.94492 0
168 1 24.2248 18.4604 0
169 1 18.6152 9.66878 0
170 1 71.3577 18.2645 0
171 2 62.7057 61.3946 0
172 2 30.2963 57.5405 0
173 2 7.88801 44.9611 0
174 2 29.8292 32.5588 0
175 2 51.8515 45.1708 0
176 1 37.057 41.2048 0
177 1 37.3601 66.2954 0
178 1 21.6112 46.0794 0
179 1 4.32958 49.6477 0
180 2 8.05149 66.7108 0
181 1 9.62388 31.5488 0
182 1 61.3619 76.108 0
183 2 24.701 29.7921 0
184 1 26.2397 31.4335 0
185 2 42.5182 71.4911 0
186 1 59.8756 9.72583 0
187 1 70.6826 50.4853 0
188 1 38.7696 16.2305 0
189 2 33.5855 31.8335 0
190 1 69.0674 45.2459 0
191 1 47.0389 76.8812 0
192 1 9.85219 19.849 0
193 2 72.3004 32.1758 0
194 2 63.082 50.4199 0
195 1 3.13029 52.8722 0
196 2 32.4747 3.76241 0
197 2 29.9837 56.6426 0
198 1 19.7206 46.289 0
199 2 45.1775 22.9424 0
200 1 50.74 32.4803 0
201 2 38.7587 45.0682 0
202 2 65.4961 64.4434 0
203 1 35.7081 76.943 0
204 1 43.8881 35.5789 0
205 1 49.3936 7.33695 0
206 2 30.7268 72.2879 0
207 2 61.4718 54.786 0
208 1 39.1221 72.8636 0
209 1 53.2499 23.3843 0
210 2 31.9452 46.8087 0
211 1 8.76988 9.43007 0
212 2 13.7225 1.9145 0
213 2 64.9838 31.034 0
214 1 21.9388 55.4349 0
215 2 15.537 24.2031 0
216 1 14.8155 27.9265 0
217 1 37.1 51.6236 0
218 2 35.5082 50.4228 0
219 2 30.996 51.9045 0
220 2 44.4814 21.0414 0
221 1 58.1749 55.8867 0
222 1 66.0677 49.0649 0
223 2 27.2597 23.7489 0
224 2 23.707 19.1934 0
225 1 28.8993 22.8085 0
226 2 0.159149 45.5326 0
227 2 23.2555 5.41981 0
228 1 0.655813 16.8911 0
229 1 6.94817 9.07916 0
230 1 27.7198 18.1326 0
231 1 15.2472 59.377 0
232 1 21.4723 36.1771 0
233 1 37.2707 27.6904 0
234 1 10.2684 67.5552 0
235 1 20.3695 65.0345 0
236 2 1.73968 71.6179 0
237 1 10.1595 46.3806 0
238 2 18.5733 30.3464 0
239 1 75.6666 22.001 0
240 2 16.0136 19.2085 0
241 1 70.2464 39.1844 0
242 1 14.1225 74.0672 0
243 1 70.3134 33.4472 0
244 1 52.7187 70.0646 0
245 1 65.8718 47.1288 0
246 1 34.2166 65.4041 0
247 1 73.5382 10.1824 0
248 1 5.52724 71.9528 0
249 2 65.09 59.9223 0
250 1 24.6075 54.0642 0
251 2 52.1781 50.5618 0
252 2 57.8252 11.0433 0
253 1 3.45367 63.7179 0
254 1 0.271874 35.2977 0
255 1 59.3833 18.0576 0
256 1 35.3943 68.8969 0
257 1 14.3813 55.0046 0
258 1 5.89339 76.2461 0
259 1 59.3921 35.8712 0
260 2 51.8395 4.55511 0
261 2 72.5545 12.7249 0
262 1 45.4977 50.5987 0
263 2 18.3812 34.1502 0
264 2 63.6337 61.1811 0
265 1 52.8158 45.1555 0
266 1 27.1618 59.1484 0
267 2 37.2425 16.2565 0
268 2 49.1584 28.3811 0
269 1 54.4523 35.4771 0
270 2 31.6347 48.0204 0
271 2 36.4834 66.0401 0
272 2 3.6267 9.84986 0
273 1 37.2589 8.67913 0
274 1 1.67848 65.2677 0
275 1 57.5134 70.0196 0
276 1 5.34826 27.636 0
277 2 28.486 73.9215 0
278 1 74.2345 35.6804 0
279 1 44.1558 39.4575 0
280 1 66.4014 39.9437 0
281 1 58.86 69.049 0
282 2 60.6425 0.695876 0
283 1 9.29673 72.8805 0
284 2 67.574 38.6271 0
285 1 10.6428 7.14578 0
286 1 4.77929 71.1068 0
287 1 38.4511 38.9544 0
288 2 28.5891 76.5372 0
289 2 24.4671 26.9988 0
290 2 77.017 72.3335 0
291 1 65.0335 15.6415 0
292 1 21.9209 21.2413 0
293 1 8.49767 6.5871 0
294 1 51.1214 71.5202 0
295 1 46.206 60.5441 0
296 2 58.7863 68.0098 0
297 1 66.4306 64.3105 0
298 1 65.9134 50.1191 0
299 2 57.685 44.7338 0
300 1 54.1226 73.9973 0
301 1 3.41338 62.0512 0
302 1 18.4696 57.7804 0
303 1 75.9944 39.2831 0
304 1 24.5296 66.6736 0
305 2 34.18 74.2559 0
306 1 53.249 21.0271 0
307 2 61.4057 25.6022 0
308 1 19.0662 70.8145 0
309 2 21.4205 17.2155 0
310 2 63.2879 67.7008 0
311 1 49.0595 77.3696 0
312 1 25.5329 61.1576 0
313 1 71.7259 7.29536 0
314 1 64.2825 37.1563 0
315 2 11.0882 38.8131 0
316 2 46.6074 13.8399 0
317 1 42.7492 0.157912 0
318 2 64.1875 69.6438 0
319 1 4.26491 59.5517 0
320 1 30.2665 71.6113 0
321 1 50.0634 4.61968 0
322 2 29.0432 36.4209 0
323 2 16.7641 62.3101 0
324 1 23.4967 63.3149 0
325 1 49.2373 11.1104 0
326 1 65.2855 53.6367 0
327 1 52.2216 29.4761 0
328 1 11.8655 60.3061 0
329 1 20.4896 54.4304 0
330 2 27.7576 59.6809 0
331 2 61.4359 15.3491 0
332 1 0.418604 40.6861 0
333 1 38.0756 72.5498 0
334 1 57.9565 26.8987 0
335 1 17.5789 9.45826 0
336 2 58.2761 43.1908 0
337 1 24.08 65.7242 0
338 2 18.4662 20.2188 0
339 1 45.2179 76.194 0
340 1 42.8216 17.7793 0
341 2 41.085 41.0794 0
342 1 16.7967 76.8879 0
343 2 60.1355 70.4871 0
344 2 47.9105 13.6213 0
345 1 39.6527 32.6954 0
346 1 15.39 26.0588 0
347 1 21.6276 4.59215 0
348 1 56.0575 12.2494 0
349 1 72.0209 72.8861 0
350 1 9.18884 67.9134 0
351 1 29.5037 60.9831 0
352 1 57.5324 39.5483 0
353 1 74.1666 26.0387 0
354 2 35.4626 58.9085 0
355 2 59.3104 71.8878 0
356 2 13.4837 75.7937 0
357 1 30.2564 36.3302 0
358 1 24.374 58.3273 0
359 1 6.9081 50.0478 0
360 2 62.4718 29.841 0
361 2 41.3088 74.9568 0
362 1 6.04094 9.65161 0
363 2 32.4377 26.5278 0
364 1 1.41415 57.7031 0
365 2 52.8185 3.11392 0
366 1 70.2397 70.6229 0
367 2 24.6413 72.9505 0
368 2 35.3209 10.0368 0
369 2 12.5369 7.1922 0
370 1 51.6923 20.1529 0
371 1 59.8143 3.50885 0
372 2 3.90666 69.1385 0
373 1 4.05385 19.7288 0
374 2 38.7125 14.1529 0
375 1 37.7089 75.0214 0
376 2 62.1099 45.8155 0
377 2 10.3657 31.9507 0
378 1 21.0562 44.9019 0
379 1 9.20045 62.3568 0
380 1 15.5391 47.5545 0
381 1 12.8506 39.7459 0
382 1 12.3794 62.4419 0
383 1 46.6743 50.2672 0
384 1 61.6836 30.1379 0
385 1 37.8487 16.7912 0
386 1 33.0165 59.9684 0
387 1 15.9488 48.5082 0
388 2 63.7521 36.5441 0
389 1 62.376 7.65614 0
390 1 24.6859 21.2374 0
391 2 53.652 62.9598 0
392 2 17.9772 67.1894 0
393 2 19.4856 66.703 0
394 1 16.7823 14.2702 0
395 1 32.3291 33.4177 0
396 1 46.3231 70.0167 0
397 1 63.2622 66.8573 0
398 1 22.7467 21.8352 0
399 1 0.792604 7.10659 0
400 1 28.1754 23.5816 0
401 1 68.3395 1.35081 0
402 2 45.7705 11.0058 0
403 1 44.345 2.6164 0
404 1 57.8672 49.2578 0
405 2 60.6562 16.495 0
406 1 55.1595 53.7195 0
407 2 48.4289 10.7609 0
408 1 19.0383 33.6025 0
409 1 13.9777 29.877 0
410 2 58.2477 74.4856 0
411 2 37.7369 38.6753 0
412 1 50.4062 50.4488 0
413 1 13.2201 26.9784 0
414 1 9.40723 37.8623 0
415 1 38.2116 22.1272 0
416 2 51.3711 43.8312 0
417 2 2.56188 40.0808 0
418 1 11.513 51.5819 0
419 2 10.0525 41.6253 0
420 2 60.5397 71.7247 0
421 1 54.1702 14.6342 0
422 1 42.9004 64.4235 0
423 1 2.63554 1.88299 0
424 1 6.11993 15.2772 0
425 1 19.7379 50.2179 0
426 1 4.42614 68.5227 0
427 2 18.2903 2.94216 0
428 1 62.2724 59.0052 0
429 1 42.7572 16.7522 0
430 1 46.2248 14.5855 0
431 1 3.70385 0.542741 0
432 1 5.72037 53.9101 0
433 1 6.82123 8.04626 0
434 1 36.8534 77.0909 0
435 1 38.2245 28.9773 0
436 2 4.02339 75.1816 0
437 2 69.4239 37.2009 0
438 1 60.8235 57.8658 0
439 2 26.9102 5.96003 0
440 1 51.5259 62.0189 0
441 2 5.85054 49.9764 0
442 1 13.8664 10.0257 0
443 1 37.1265 42.2404 0
444 1 10.9258 44.1174 0
445 2 63.6288 52.9806 0
446 1 56.5657 5.10295 0
447 1 24.7797 61.993 0
448 1 46.9927 3.96902 0
449 1 26.0729 14.3145 0
450 2 59.4249 73.1484 0
451 2 10.1164 23.0878 0
452 1 32.282 38.2525 0
453 1 15.3802 16.7575 0
454 2 63.0177 35.001 0
455 2 71.0525 25.9821 0
456 1 42.3805 61.9149 0
457 2 31.9003 7.01957 0
458 1 54.3932 31.232 0
459 2 49.5821 23.3006 0
460 1 32.8332 68.2451 0
461 2 46.5109 0.0594336 0
462 1 32.5497 65.4368 0
463 1 10.4021 12.3445 0
464 1 70.8105 48.7395 0
465 2 51.5714 32.3932 0
466 1 13.8925 1.00197 0
467 2 73.4126 71.5065 0
468 1 48.5612 73.8907 0
469 1 53.4688 59.8949 0
470 1 54.2903 64.5693 0
471 2 33.2703 53.5912 0
472 1 27.5209 24.5089 0
473 1 64.2602 59.5472 0
474 1 68.0776 66.6444 0
475 1 22.713 16.8054 0
476 2 12.4932 36.2515 0
477 1 67.8813 54.8945 0
478 2 27.2881 46.1514 0
479 1 49.6843 32.2858 0
480 1 51.9565 49.6708 0
481 1 76.991 23.6188 0
482 1 46.4919 31.5542 0
483 2 31.3986 20.0989 0
484 1 16.9338 30.1031 0
485 1 5.80403 3.16656 0
486 1 34.1313 53.4391 0
487 2 40.152 21.9126 0
488 1 30.6956 12.6496 0
489 1 23.6358 72.966 0
490 1 50.298 9.4895 0
491 1 37.4281 68.3826 0
492 2 25.7578 12.3354 0
493 1 39.366 31.6269 0
494 1 63.6022 33.12 0
495 2 27.8164 55.4236 0
496 2 55.0353 14.6799 0
497 2 2.88469 74.0339 0
498 1 41.5358 18.7232 0
499 1 14.279 59.0403 0
500 1 56.9732 68.1204 0
501 2 2.03609 57.1339 0
502 1 43.3899 62.335 0
503 1 52.8373 26.3679 0
504 1 61.468 36.0015 0
505 2 18.6834 40.3329 0
506 2 71.956 61.9046 0
507 1 37.919 23.1143 0
508 1 41.3991 20.3167 0
509 1 30.8735 58.2286 0
510 1 18.8933 41.3288 0
511 1 21.5681 72.1081 0
512 1 16.0323 75.1484 0
513 1 26.4513 35.2005 0
514 1 23.3906 13.2902 0
515 2 1.57022 7.69514 0
516 2 18.9409 50.6187 0
517 2 41.0506 51.9959 0
518 2 40.2336 60.5605 0
519 2 28.0964 61.4784 0
520 1 71.4167 33.5274 0
521 1 58.0425 53.4243 0
522 2 41.7163 7.81471 0
523 1 31.8863 43.3077 0
524 1 25.6533 75.3617 0
525 1 10.3554 69.2107 0
526 2 44.2865 14.1231 0
527 1 60.002 17.191 0
528 2 72.8184 48.5528 0
529 2 73.9193 74.1484 0
530 1 8.32876 54.716 0
531 2 17.8585 46.7352 0
532 2 4.46194 32.0372 0
533 1 7.26331 63.3156 0
534 1 34.0154 22.0919 0
535 1 62.1724 39.6254 0
536 1 41.9081 67.2661 0
537 1 13.4986 36.0044 0
538 2 65.3476 12.407 0
539 2 10.9217 50.8683 0
540 1 48.8714 20.0023 0
541 2 76.0105 33.381 0
542 1 52.3761 32.1482 0
543 2 26.0535 41.6183 0
544 2 52.5362 20.4086 0
545 1 19.3222 23.6746 0
546 1 30.7491 70.6564 0
547 1 52.7021 73.7169 0
548 2 51.8717 57.9199 0
549 2 29.6634 14.1586 0
550 2 71.9788 76.5603 0
551 1 50.9683 74.7816 0
552 2 22.3502 71.6565 0
553 2 30.352 58.8843 0
554 1 72.56 55.2598 0
555 1 34.9722 48.9829 0
556 1 64.3514 19.7503 0
557 1 7.05326 17.6854 0
558 1 61.8186 12.8551 0
559 1 73.7459 17.2864 0
560 2 5.59293 1.16874 0
561 1 12.1644 25.221 0
562 2 41.0405 73.5646 0
563 2 56.2419 67.7633 0
564 1 32.9685 8.80124 0
565 2 59.6672 54.5285 0
566 2 11.8818 28.8715 0
567 1 61.4869 16.2178 0
568 2 75.741 42.5511 0
569 2 14.6195 18.3613 0
570 1 29.53 27.5064 0
571 1 8.21993 67.5549 0
572 2 46.5015 38.4614 0
573 2 56.6869 59.3168 0
574 1 6.16314 31.5763 0
575 1 2.86889 26.1574 0
576 1 1.03788 5.0446 0
577 1 22.9908 9.71955 0
578 2 44.9708 39.668 0
579 2 38.1388 24.2217 0
580 1 44.7893 36.0794 0
581 1 14.0931 19.1277 0
582 2 52.0539 7.34356 0
583 2 16.3941 20.4687 0
584 2 73.4462 35.298 0
585 1 53.2681 16.3471 0
586 1 53.9272 21.8881 0
587 2 67.7445 37.034 0
588 1 42.3667 69.6504 0
589 2 59.4305 62.2725 0
590 1 71.7857 13.3475 0
591 1 34.7278 31.6787 0
592 1 39.2318 35.4162 0
593 1 27.1968 74.5001 0
594 1 41.8523 64.506 0
595 1 23.631 53.6979 0
596 2 73.7077 44.6641 0
597 1 30.8726 34.7636 0
598 1 59.1777 13.0211 0
599 1 13.8053 28.1646 0
600 1 7.69191 43.0678 0
601 2 57.8922 41.4214 0
602 1 68.5968 60.5984 0
603 2 17.8087 47.9687 0
604 2 75.0686 25.6524 0
605 1 44.5753 64.6996 0
606 1 51.1732 24.7895 0
607 1 6.24111 64.391 0
608 2 71.2454 47.938 0
609 2 24.9517 69.9846 0
610 1 4.86983 45.4105 0
611 1 71.0228 68.9204 0
612 1 48.7245 23.4073 0
613 1 65.1385 54.7114 0
614 2 42.5359 15.8846 0
615 1 63.8142 40.0589 0
616 1 2.48649 13.2906 0
617 1 11.3862 62.7315 0
618 2 74.7537 50.355 0
619 2 67.4889 46.4149 0
620 2 66.9341 51.5953 0
621 2 57.8467 16.6832 0
622 1 54.1753 5.99284 0
623 1 16.0908 76.1859 0
624 2 8.23677 1.81141 0
625 1 14.5434 22.3486 0
626 1 51.0114 33.5674 0
627 2 10.6222 65.6123 0
628 1 40.5477 34.6495 0
629 2 13.6671 22.1735 0
630 1 27.4528 26.811 0
631 1 72.3411 21.9936 0
632 1 16.2021 67.4002 0
633 2 62.273 8.66721 0
634 1 39.4526 60.1641 0
635 2 31.3643 27.2256 0
636 2 68.9156 9.75575 0
637 1 5.67143 4.72603 0
638 1 1.01531 37.9739 0
639 1 8.75189 36.237 0
640 1 73.9337 61.6984 0
641 1 76.8749 28.4592 0
642 1 25.0411 67.6633 0
643 1 26.6752 69.1438 0
644 2 25.0587 18.7004 0
645 1 25.9243 56.7802 0
646 1 62.7907 5.716 0
647 2 29.2936 51.698 0
648 1 66.5507 52.3967 0
649 2 24.3085 49.7163 0
650 2 10.5579 43.3005 0
651 1 65.1672 11.2478 0
652 1 13.2936 74.9637 0
653 2 49.6622 20.1029 0
654 2 7.53967 10.7232 0
655 1 16.2053 65.7745 0
656 1 69.9887 75.8065 0
657 1 61.0242 47.7765 0
658 1 22.6636 26.6029 0
659 2 1.36792 50.2863 0
660 1 50.8818 30.3089 0
661 1 19.4219 30.5566 0
662 1 8.68225 32.9473 0
663 1 0.724726 49.3661 0
664 1 42.8982 66.0641 0
665 2 77.17 10.6956 0
666 2 3.25864 29.5747 0
667 1 35.4422 0.481919 0
668 2 71.9737 10.8162 0
669 1 68.6381 6.36445 0
670 2 59.0979 55.9493 0
671 2 30.4581 21.5876 0
672 1 2.18936 14.93 0
673 1 7.15564 24.6236 0
674 1 28.7385 72.3307 0
675 2 9.99481 57.0985 0
676 2 70.4408 11.8514 0
677 1 66.7844 74.5834 0
678 1 37.7104 70.8095 0
679 1 50.773 14.6567 0
680 1 30.972 55.3187 0
681 1 77.1337 57.6325 0
682 1 42.0495 33.9052 0
683 1 1.09886 53.108 0
684 1 5.4547 23.7606 0
685 2 22.6499 50.427 0
686 1 30.9734 75.1609 0
687 1 7.161 12.6169 0
688 2 55.7929 74.2356 0
689 1 28.5897 47.2798 0
690 1 76.1941 48.1982 0
691 1 1.45058 24.7888 0
692 2 25.1395 1.57655 0
693 1 3.17276 5.49496 0
694 2 42.8495 28.5001 0
695 1 29.0961 45.7403 0
696 2 47.1681 75.9322 0
697 1 46.2442 72.1093 0
698 1 37.1133 43.3092 0
699 1 59.3894 61.3997 0
700 1 40.6663 24.4972 0
701 1 0.199975 65.6366 0
702 1 76.9057 45.0769 0
703 2 7.56615 61.0315 0
704 2 1.38103 17.4264 0
705 2 44.336 7.07414 0
706 1 49.4838 25.9276 0
707 2 13.4001 32.2823 0
708 1 38.8288 23.6396 0
709 1 73.7454 7.62145 0
710 2 70.0807 26.0109 0
711 1 73.6813 37.3618 0
712 2 57.0008 25.5004 0
713 2 5.37808 13.5445 0
714 2 19.1296 13.0087 0
715 1 68.3038 76.8606 0
716 1 64.7553 3.87434 0
717 1 68.0684 65.5668 0
718 1 0.240122 64.4488 0
719 1 65.2189 71.2706 0
720 2 9.74699 49.7269 0
721 2 59.8748 41.9361 0
722 1 21.199 22.6709 0
723 2 61.0356 36.7948 0
724 2 72.1563 52.7702 0
725 1 54.1889 22.9946 0
726 1 35.071 4.72353 0
727 2 51.9903 31.4278 0
728 1 75.1861 48.0331 0
729 2 71.4898 0.476788 0
730 1 14.0857 21.3952 0
731 2 41.14 43.713 0
732 1 19.7641 68.7209 0
733 1 65.5197 40.5091 0
734 2 66.5925 60.6155 0
735 1 14.3485 68.628 0
736 1 56.8383 14.217 0
737 2 55.3064 24.576 0
738 1 52.1246 21.1822 0
739 1 26.4082 5.30336 0
740 1 5.5528 73.7884 0
741 2 42.0008 40.3072 0
742 1 57.0553 4.2936 0
743 1 46.8277 8.57214 0
744 2 74.9136 21.4311 0
745 1 7.11988 67.6618 0
746 1 32.5467 50.8569 0
747 1 11.3102 2.81798 0
748 2 35.3273 18.2573 0
749 2 64.9517 72.8736 0
750 1 63.5967 34.2311 0
751 1 58.2073 5.74247 0
752 2 11.2528 11.1345 0
753 1 57.6654 54.6522 0
754 2 0.0425382 4.40801 0
755 1 3.40674 27.4244 0
756 2 46.5967 64.0853 0
757 1 1.80084 16.7224 0
758 1 26.681 2.599 0
759 1 74.7017 40.6189 0
760 1 53.7131 1.58861 0
761 1 4.26529 61.3618 0
762 1 30.5505 52.58 0
763 2 37.7214 74.1589 0
764 1 10.4654 61.2098 0
765 2 3.61925 15.8635 0
766 1 40.5487 27.0976 0
767 1 6.35032 39.6937 0
768 1 53.0454 43.9803 0
769 1 69.1522 39.6015 0
770 2 67.1181 10.0697 0
771 1 6.97527 28.1236 0
772 1 50.3384 69.3043 0
773 1 57.1536 65.4944 0
774 2 56.0037 47.1364 0
775 1 31.067 35.8049 0
776 2 20.6821 34.48 0
777 1 8.24777 39.6793 0
778 2 56.1497 56.0349 0
779 1 3.91046 21.4048 0
780 1 67.63 70.6355 0
781 1 51.3484 8.95804 0
782 1 57.4576 75.9656 0
783 1 54.6617 41.5321 0
784 1 19.8721 57.0785 0
785 2 0.611489 41.6856 0
786 1 65.2365 8.20782 0
787 1 25.4925 50.8329 0
788 1 38.6933 15.0656 0
789 1 2.22447 74.615 0
790 1 74.818 36.6013 0
791 1 1.83617 62.4049 0
792 1 1.96566 34.585 0
793 1 19.0737 0.532314 0
794 2 77.3812 55.5252 0
795 2 64.3921 9.97638 0
796 2 64.1931 29.6142 0
797 1 52.5793 64.5191 0
798 1 34.1665 61.3175 0
799 1 55.2549 47.8127 0
800 1 38.6468 70.203 0
801 2 61.669 13.6703 0
802 2 56.6586 30.0028 0
803 2 41.7171 11.5103 0
804 2 59.1433 70.6801 0
805 1 25.3589 58.6321 0
806 1 44.8674 13.5139 0
807 2 30.4956 62.8506 0
808 1 51.5216 23.7262 0
809 2 20.8708 2.78059 0
810 1 54.1797 63.5803 0
811 1 61.483 28.1684 0
812 2 62.4172 66.7049 0
813 2 48.3296 58.7661 0
814 1 53.4447 73.1289 0
815 2 65.4274 18.4401 0
816 1 48.9406 65.412 0
817 1 48.946 70.9939 0
818 2 61.4037 4.7852 0
819 2 11.7211 42.1674 0
820 1 57.2121 5.99139 0
821 1 27.1033 1.58978 0
822 1 16.9483 72.4204 0
823 1 2.20484 66.2347 0
824 2 59.0869 4.27347 0
825 1 38.0755 52.1856 0
826 1 56.9509 18.9389 0
827 1 30.4004 42.4783 0
828 1 67.1985 55.8237 0
829 1 69.4834 42.728 0
830 2 43.7325 64.4104 0
831 2 49.4911 53.7651 0
832 1 65.2495 7.05315 0
833 1 23.6081 47.1872 0
834 2 73.4138 50.9088 0
835 1 25.9392 40.6732 0
836 1 22.6237 33.5355 0
837 1 45.0056 59.2428 0
838 1 43.0374 61.0288 0
839 1 12.0831 37.1724 0
840 2 26.5777 22.2374 0
841 1 70.6893 9.35731 0
842 2 42.8207 41.3909 0
843 1 69.5356 36.3531 0
844 1 32.3144 27.4285 0
845 2 52.9049 59.2987 0
846 1 49.5994 66.9599 0
847 1 55.871 18.8196 0
848 2 73.7435 11.0099 0
849 1 19.4921 22.5632 0
850 1 66.891 43.7015 0
851 1 64.2365 30.4659 0
852 1 13.8006 23.3136 0
853 1 13.3122 73.4151 0
854 1 17.4254 58.7669 0
855 1 61.5723 26.3943 0
856 2 52.5892 65.4013 0
857 1 61.1876 18.331 0
858 2 4.09992 73.1121 0
859 1 39.9894 8.49563 0
860 2 2.82925 42.6723 0
861 2 37.8753 39.6049 0
862 2 27.7904 44.7636 0
863 1 26.499 24.1456 0
864 1 41.2414 69.2428 0
865 2 36.0018 74.0545 0
866 1 19.4521 75.1734 0
867 2 47.1603 30.0997 0
868 1 40.3429 35.8951 0
869 1 5.03256 41.4981 0
870 1 21.6209 34.3153 0
871 1 66.7017 21.0379 0
872 1 39.7523 2.04283 0
873 1 17.3327 4.54151 0
874 1 2.7492 15.9637 0
875 1 52.1403 8.18821 0
876 2 35.0996 32.4002 0
877 1 1.7095 63.4231 0
878 2 17.2028 2.07007 0
879 1 18.4555 22.9694 0
880 2 59.7005 24.0049 0
881 2 71.756 22.764 0
882 2 62.8023 70.9606 0
883 1 21.0626 27.4509 0
884 1 5.44737 63.6953 0
885 1 24.2839 33.7667 0
886 1 63.0957 65.8958 0
887 2 46.0901 56.4975 0
888 1 37.4565 21.3742 0
889 2 11.2796 44.9818 0
890 2 12.1644 0.926501 0
891 1 20.3393 32.5955 0
892 1 14.6268 26.7113 0
893 1 40.1857 39.6098 0
894 1 15.6572 69.8779 0
895 2 24.2293 32.8799 0
896 1 4.07913 6.10628 0
897 2 49.57 69.6602 0
898 1 11.0343 55.6995 0
899 1 71.0477 17.2508 0
900 2 49.3283 13.9053 0
901 1 49.3086 37.7687 0
902 1 32.0456 29.506 0
903 1 16.8948 61.4877 0
904 2 46.1221 17.9746 0
905 1 2.32288 58.1416 0
906 1 54.8874 58.5669 0
907 1 23.1879 1.66949 0
908 1 55.2105 39.3179 0
909 1 42.4773 68.131 0
910 2 46.2178 45.5156 0
911 2 51.5015 40.0308 0
912 2 45.0466 25.4344 0
913 2 25.691 30.7787 0
914 1 18.6951 42.3887 0
915 2 50.3538 3.75145 0
916 1 65.9803 66.8923 0
917 2 13.5097 43.6741 0
918 2 22.4108 46.1397 0
919 1 3.8265 60.4365 0
920 1 47.5396 29.3329 0
921 1 40.6213 52.7511 0
922 2 53.4158 22.5846 0
923 2 44.4165 44.671 0
924 1 32.7466 12.87 0
925 1 28.4056 0.626448 0
926 2 49.8744 43.1558 0
927 1 0.873009 39.7352 0
928 1 70.4995 18.9051 0
929 2 3.09327 64.5651 0
930 2 52.9052 60.4775 0
931 1 26.5626 60.747 0
932 1 55.9183 38.5904 0
933 1 25.67 22.1426 0
934 1 3.40973 16.7546 0
935 1 2.33437 7.17721 0
936 2 28.5769 68.3891 0
937 1 64.8487 44.1381 0
938 1 41.4028 68.2218 0
939 2 67.0325 54.9847 0
940 1 26.8785 47.8057 0
941 1 4.40667 67.4187 0
942 1 10.9732 32.8865 0
943 2 10.7074 0.575418 0
944 2 74.5061 37.3676 0
945 1 69.5662 6.83171 0
946 1 50.0716 57.0734 0
947 2 69.5562 51.9577 0
948 1 50.2029 45.4694 0
949 1 23.7936 52.575 0
950 2 41.961 35.9525 0
951 1 74.5704 13.374 0
952 2 8.74042 8.59475 0
953 2 73.3945 28.7318 0
954 2 6.93639 62.5026 0
955 1 22.9307 75.0035 0
956 2 25.2893 57.7584 0
957 1 47.6012 47.6459 0
958 2 56.8094 73.5485 0
959 2 20.9879 42.8669 0
960 2 22.9094 24.4644 0
961 1 27.0059 25.8616 0
962 1 19.2587 37.2542 0
963 1 65.4727 76.8646 0
964 2 13.5666 29.0937 0
965 2 8.78731 52.8706 0
966 1 51.8852 70.7471 0
967 1 33.5743 57.8497 0
968 1 64.2487 46.9522 0
969 1 40.9829 65.2245 0
970 2 27.4406 64.4536 0
971 1 32.3226 16.4392 0
972 1 52.0706 48.6232 0
973 1 3.99072 54.0502 0
974 2 3.70664 62.9244 0
975 2 8.92526 75.1613 0
976 2 44.9826 11.5169 0
977 1 31.5208 21.2529 0
978 2 52.6322 15.7557 0
979 2 42.1829 20.3592 0
980 1 41.1424 40.2546 0
981 1 45.0182 38.8491 0
982 1 39.4583 40.5042 0
983 1 11.0894 16.3081 0
984 1 62.4722 43.1862 0
985 1 56.667 50.9618 0
986 1 29.584 21.2966 0
987 2 11.1401 46.1935 0
988 2 66.9675 32.8073 0
989 2 55.813 50.9192 0
990 2 24.1221 7.93863 0
991 2 75.3576 43.8222 0
992 1 1.24678 72.3131 0
993 2 43.647 3.18481 0
994 2 63.7797 46.2203 0
995 1 1.2249 36.0403 0
996 2 24.6806 10.7116 0
997 2 8.47327 42.41 0
998 2 34.8422 62.0053 0
999 2 75.8236 4.72996 0
1000 2 24.0955 76.5718 0
1001 1 70.0063 53.8531 0
1002 1 58.505 76.1258 0
1003 1 26.3588 21.308 0
1004 1 62.3759 27.3295 0
1005 2 30.4026 49.1806 0
1006 2 38.8433 38.2434 0
1007 1 9.95526 29.6643 0
1008 1 74.2475 28.5306 0
1009 1 50.0528 38.4677 0
1010 1 28.7206 12.6861 0
1011 2 39.8669 24.9434 0
1012 2 53.9362 67.0069 0
1013 2 36.8065 4.27051 0
1014 1 42.7314 54.5202 0
1015 1 16.5275 22.971 0
1016 1 73.9124 39.1026 0
1017 2 13.5255 38.9529 0
1018 1 51.0032 3.09905 0
1019 1 52.3949 35.3726 0
1020 2 51.8965 22.0115 0
1021 2 13.1244 33.7188 0
1022 1 4.74456 1.18087 0
1023 1 21.7558 15.241 0
1024 1 4.06043 55.0982 0
1025 1 63.5966 71.4237 0
1026 1 13.6901 45.3948 0
1027 1 1.77639 20.9579 0
1028 1 58.0677 22.2016 0
1029 1 56.9407 44.3523 0
1030 2 71.9131 43.3401 0
1031 2 22.2454 36.4884 0
1032 1 19.9805 43.5286 0
1033 1 62.6781 32.5972 0
1034 1 10.2764 51.4329 0
1035 1 53.2782 12.1418 0
1036 2 2.74046 12.3695 0
1037 1 46.4792 36.5598 0
1038 1 70.5537 25.2495 0
1039 1 58.7185 40.9872 0
1040 2 57.2908 28.6397 0
1041 1 28.4783 21.7884 0
1042 2 7.79583 28.3014 0
1043 2 31.2405 56.1154 0
1044 1 53.1312 5.64787 0
1045 1 59.7997 40.9443 0
1046 1 28.8523 61.89 0
1047 2 65.8333 58.4329 0
1048 1 45.1559 8.00013 0
1049 1 7.92332 76.6945 0
1050 2 46.5012 27.7531 0
1051 1 10.359 74.2689 0
1052 1 0.293724 38.7502 0
1053 2 23.4813 2.5959 0
1054 1 73.3278 22.3544 0
1055 2 36.1257 45.5059 0
1056 2 65.2513 75.3687 0
1057 1 4.16859 24.8594 0
1058 1 18.3547 35.8755 0
1059 1 29.3488 41.5179 0
1060 2 29.4717 13.183 0
1061 1 13.1571 15.6232 0
1062 2 49.8401 40.2277 0
1063 1 0.698187 73.7971 0
1064 1 39.1942 17.1564 0
1065 2 50.0018 41.8601 0
1066 1 29.1453 66.5406 0
1067 1 52.0044 16.5022 0
1068 2 60.7546 9.69285 0
1069 1 34.5187 47.0569 0
1070 2 44.1434 38.5019 0
1071 2 0.0359556 69.0508 0
1072 2 22.1827 14.4703 0
1073 2 1.98155 76.5381 0
1074 2 39.3501 55.5249 0
1075 1 12.6093 38.622 0
1076 1 22.88 37.0446 0
1077 1 17.4315 5.59582 0
1078 2 3.91238 53.224 0
1079 2 32.6572 75.1957 0
1080 2 56.8717 0.346065 0
1081 2 41.3468 71.186 0
1082 2 35.4399 14.4849 0
1083 2 24.4016 56.1569 0
1084 1 28.7938 38.3395 0
1085 1 16.5953 28.4681 0
1086 1 55.3793 3.29522 0
1087 1 49.5098 17.376 0
1088 1 71.5527 55.9739 0
1089 2 40.1012 13.787 0
1090 1 49.3058 0.872666 0
1091 2 38.549 62.6349 0
1092 1 29.2119 52.6144 0
1093 1 58.0833 63.5904 0
1094 2 61.667 1.48675 0
1095 1 60.8488 70.9438 0
1096 2 74.0877 43.2342 0
1097 1 4.02848 56.18 0
1098 1 53.9138 54.8535 0
1099 1 62.7288 68.4859 0
1100 1 22.5041 51.2803 0
1101 1 43.6969 41.1028 0
1102 1 21.3747 23.6881 0
1103 1 72.9714 68.6614 0
1104 1 42.6142 37.986 0
1105 1 49.5841 1.95346 0
1106 1 57.467 74.8993 0
1107 2 50.5756 70.8868 0
1108 1 59.2066 48.2266 0
1109 1 59.6318 57.6789 0
1110 2 29.003 33.8412 0
1111 1 74.718 72.5218 0
1112 1 58.9299 25.4902 0
1113 2 53.5957 31.4132 0
1114 2 24.0055 25.3211 0
1115 2 9.61888 11.7711 0
1116 1 5.85438 44.7983 0
1117 1 8.38506 58.4471 0
1118 1 22.008 12.3008 0
1119 2 39.1535 27.8985 0
1120 1 35.0556 10.8704 0
1121 2 65.8367 21.2904 0
1122 1 13.8905 39.7032 0
1123 2 55.1406 29.3502 0
1124 1 12.2391 35.4689 0
1125 2 40.3573 12.054 0
1126 2 8.68886 73.8596 0
1127 1 5.30755 22.0558 0
1128 1 47.9527 43.8804 0
1129 1 67.988 40.3921 0
1130 1 50.0461 0.138784 0
1131 1 42.2176 22.9183 0
1132 2 11.4502 58.5069 0
1133 2 54.1531 51.3773 0
1134 2 48.5177 56.3763 0
1135 1 36.2743 53.4324 0
1136 2 68.9844 22.5001 0
1137 1 52.5165 11.4318 0
1138 1 48.2772 5.41555 0
1139 2 54.9503 44.0748 0
1140 2 61.2054 21.4348 0
1141 1 64.493 2.82838 0
1142 1 56.5074 35.9358 0
1143 1 16.3053 37.6827 0
1144 2 43.8676 20.4084 0
1145 1 32.8292 41.3103 0
1146 1 74.9666 33.137 0
1147 1 23.5553 51.0338 0
1148 1 75.3158 28.352 0
1149 1 0.386428 31.7231 0
1150 2 65.8488 67.7564 0
1151 1 51.5533 0.980223 0
1152 1 34.1475 4.21989 0
1153 1 54.9494 9.73886 0
1154 1 45.1868 71.8311 0
1155 2 70.8529 66.4785 0
1156 1 51.9775 3.67326 0
1157 1 17.0977 15.8554 0
1158 2 61.4605 58.4891 0
1159 2 67.7061 6.2248 0
1160 1 7.2478 2.00409 0
1161 2 14.9573 12.0103 0
1162 1 64.9444 17.6512 0
1163 2 0.176325 77.4482 0
1164 1 14.0692 57.3425 0
1165 1 1.27858 29.2087 0
1166 2 0.843429 65.0983 0
1167 1 43.3191 24.1619 0
1168 1 67.3616 73.6076 0
1169 1 73.5439 75.0035 0
1170 2 2.58137 63.62 0
1171 1 34.7593 13.6961 0
1172 1 22.3417 8.91996 0
1173 1 41.5746 62.7349 0
1174 1 18.3323 55.6803 0
1175 2 70.7887 56.4261 0
1176 1 5.74812 35.0001 0
1177 1 6.96236 20.7679 0
1178 2 28.451 24.4051 0
1179 1 10.3994 1.39362 0
1180 1 66.2561 18.6889 0
1181 1 51.9211 74.2924 0
1182 1 49.0508 35.306 0
1183 2 30.9201 53.4385 0
1184 2 39.2408 70.8059 0
1185 1 23.2256 76.7847 0
1186 1 41.6036 54.4524 0
1187 1 10.5152 40.9372 0
1188 2 6.27522 36.7662 0
1189 1 54.1081 38.7715 0
1190 1 32.6786 56.3494 0
1191 2 60.465 38.5702 0
1192 1 12.8585 32.9556 0
1193 1 43.0179 4.58593 0
1194 2 72.261 46.7524 0
1195 1 14.8354 72.1733 0
1196 1 62.2125 20.8622 0
1197 1 46.8624 25.7827 0
1198 1 55.4133 42.3938 0
1199 2 50.8357 57.701 0
1200 1 11.6976 57.4319 0
1201 1 8.02736 2.69526 0
1202 1 7.9276 34.6183 0
1203 2 58.4927 6.52672 0
1204 1 35.1557 57.1408 0
1205 1 72.5718 56.9473 0
1206 1 48.5109 28.9613 0
1207 1 46.0589 6.5432 0
1208 1 66.6068 34.3241 0
1209 2 41.0428 56.3865 0
1210 1 43.3948 10.5814 0
1211 2 16.6566 49.1 0
1212 1 54.7625 30.1437 0
1213 1 10.1969 14.4364 0
1214 1 21.259 48.8005 0
1215 1 76.4214 15.911 0
1216 1 28.1552 29.7758 0
1217 2 50.4021 2.26678 0
1218 2 43.0111 35.2438 0
1219 1 43.3773 2.27299 0
1220 1 10.2442 33.6494 0
1221 1 8.37032 12.8867 0
1222 2 71.5696 40.0657 0
1223 1 54.7286 61.1698 0
1224 1 9.30433 74.3821 0
1225 1 71.1077 64.4378 0
1226 2 20.7844 18.7736 0
1227 1 52.6864 1.26206 0
1228 1 47.8565 41.8558 0
1229 2 39.1168 21.5817 0
1230 1 52.2266 67.3577 0
1231 2 45.7483 58.8264 0
1232 1 8.28613 74.6067 0
1233 1 46.0014 67.9154 0
1234 1 47.7132 26.4684 0
1235 1 48.9943 60.3263 0
1236 1 13.379 64.884 0
1237 1 35.4546 8.49101 0
1238 1 32.2908 20.1884 0
1239 1 16.6099 27.4656 0
1240 1 45.7257 74.0804 0