ITEM: TIMESTEP
0
ITEM: NUMBER OF ATOMS
7200
ITEM: BOX BOUNDS xy xz yz pp pp pp
0.0000000000000000e+00 7.7459666924100006e+01 0.0000000000000000e+00
0.0000000000000000e+00 7.7459666924100006e+01 0.0000000000000000e+00
-1.2909944490000000e-01 1.2909944490000000e-01 0.0000000000000000e+00
ITEM: ATOMS id type x y z
1 1 14.8975 20.4139 0
2 1 14.0337 67.3686 0
3 1 3.9036 3.02335 0
4 1 27.0221 8.01418 0
5 1 23.0348 65.8139 0
6 1 57.4249 26.9241 0
7 2 5.53055 9.44375 0
8 2 58.3418 43.8037 0
9 1 40.5508 66.2394 0
10 2 22.0735 17.2614 0
11 2 28.0482 50.6756 0
12 1 48.7697 9.49419 0
13 2 24.6553 14.1402 0
14 1 47.3895 66.1694 0
15 1 35.9261 27.6634 0
16 1 22.4262 18.5292 0
17 1 26.8716 43.1465 0
18 1 34.6535 8.62509 0
19 1 29.4117 59.9597 0
20 2 46.1213 74.8343 0
21 1 18.4705 67.4836 0
22 1 49.9293 15.9384 0
23 1 67.7268 38.2646 0
24 1 58.0795 65.2708 0
25 1 74.4202 72.0291 0
26 1 25.0183 65.2845 0
27 2 28.9777 58.9365 0
28 1 48.1709 68.7763 0
29 2 16.7079 47.6763 0
30 2 28.3076 39.7218 0
31 1 15.9809 59.6879 0
32 1 60.2731 28.3521 0
33 1 64.1716 44.365 0
34 2 45.9599 6.88794 0
35 1 1.74877 61.5922 0
36 1 32.4251 56.7213 0
37 1 18.5408 56.5849 0
38 1 49.6765 18.5983 0
39 1 21.807 10.3786 0
40 2 18.3155 64.654 0
41 2 18.02 72.5082 0
42 1 13.1166 1.14812 0
43 1 9.94866 21.8809 0
44 1 29.3255 62.274 0
45 1 77.4593 28.3975 0
46 1 62.3153 73.1972 0
47 1 72.6917 55.9017 0
48 1 46.3526 60.7759 0
49 2 72.9658 75.3669 0
50 1 29.8453 63.7043 0
51 1 70.5667 10.3901 0
52 2 38.6196 27.9707 0
53 1 52.616 9.02963 0
54 1 44.6303 30.425 0
55 1 5.60141 3.15759 0
56 1 46.5739 26.5171 0
57 1 74.3791 40.2187 0
58 1 73.9089 69.4933 0
59 1 22.5975 72.225 0
60 1 21.7644 6.63003 0
61 1 30.3817 68.8034 0
62 1 45.8823 43.4807 0
63 1 48.2887 11.0399 0
64 1 50.5003 42.9478 0
65 1 67.8188 70.3771 0
66 2 62.8624 3.4789 0
67 2 43.9287 33.7846 0
68 2 7.41119 23.6423 0
69 1 63.1687 41.7516 0
70 1 6.64695 33.2142 0
71 2 10.945 55.5134 0
72 1 1.33685 7.13261 0
73 1 14.3728 71.0593 0
74 2 35.3131 22.826 0
75 1 70.484 52.6723 0
76 1 20.7314 51.0751 0
77 1 24.0848 75.8743 0
78 1 3.70242 11.6858 0
79 1 77.2875 1.00839 0
80 1 38.8502 17.7871 0
81 1 57.877 62.7922 0
82 2 46.9095 18.8894 0
83 1 9.27263 35.9288 0
84 1 36.9706 43.9589 0
85 1 32.6627 26.6327 0
86 2 40.0379 66.9537 0
87 1 72.5849 33.8039 0
88 1 16.3018 58.7248 0
89 1 27.0456 18.0192 0
90 1 40.3258 39.8002 0
91 2 44.7456 48.6828 0
92 2 39.0506 55.9101 0
93 1 27.1882 25.4651 0
94 1 32.9282 63.2005 0
95 2 40.5521 54.8817 0
96 1 61.3485 2.01196 0
97 1 43.0868 51.2334 0
98 2 74.1331 53.3698 0
99 1 58.2674 46.4533 0
100 2 37.9002 30.9512 0
101 1 46.5998 52.7455 0
102 1 70.3897 15.0015 0
103 1 55.0802 63.0381 0
104 1 13.5608 58.8365 0
105 2 39.3719 3.92809 0
106 2 39.6598 31.2305 0
107 1 8.63522 35.158 0
108 1 11.0635 4.10267 0
109 1 37.3503 37.9644 0
110 2 65.642 19.5333 0
111 1 66.3871 16.0032 0
112 1 33.7078 77.097 0
113 2 6.67498 60.8125 0
114 2 2.50519 26.2408 0
115 2 36.7867 15.9434 0
116 2 69.6679 52.498 0
117 1 18.1571 48.9535 0
118 2 49.4292 17.7719 0
119 1 57.1925 75.1324 0
120 2 2.30822 52.3476 0
121 1 8.36259 5.30207 0
122 1 20.9068 34.776 0
123 2 3.90196 13.5869 0
124 1 51.5385 67.0996 0
125 1 34.866 27.3939 0
126 1 59.4746 47.6182 0
127 1 8.02728 67.2033 0
128 1 7.87453 18.7956 0
129 1 24.0661 60.6413 0
130 1 1.81309 64.2964 0
131 1 61.1792 27.7802 0
132 2 33.1954 42.3754 0
133 2 59.0251 7.73599 0
134 1 62.5818 45.948 0
135 1 37.8022 27.897 0
136 2 53.6185 51.3006 0
137 1 62.4336 57.4283 0
138 2 74.245 50.6455 0
139 1 71.2379 17.1446 0
140 1 5.64202 21.8084 0
141 2 50.9693 57.1686 0
142 1 11.5975 23.9859 0
143 2 38.8776 68.0661 0
144 2 48.88 71.7806 0
145 2 20.5106 47.3843 0
146 1 57.0987 9.31121 0
147 1 17.5147 39.3731 0
148 1 46.6576 49.1676 0
149 2 73.6675 52.4744 0
150 1 33.0497 60.5922 0
151 2 32.7114 10.568 0
152 1 52.0484 65.2039 0
153 2 14.0886 51.4064 0
154 2 30.753 0.965456 0
155 1 75.2754 42.0672 0
156 1 39.4422 3.06742 0
157 1 53.0153 64.8134 0
158 1 63.6707 63.6245 0
159 2 10.8617 29.6226 0
160 1 32.6378 17.5358 0
161 1 11.6232 66.1381 0
162 2 1.36389 27.1265 0
163 1 33.2806 29.9386 0
164 1 65.2904 25.4937 0
165 1 0.793567 25.5784 0
166 1 0.80301 40.0726 0
167 1 44.5836 72.8406 0
168 1 33.4407 73.4281 0
169 1 51.5727 23.7349 0
170 1 57.6473 1.74385 0
171 2 37.118 64.7599 0
172 2 39.0011 50.9582 0
173 2 38.0314 18.0999 0
174 2 24.9855 52.8853 0
175 2 29.9763 32.3338 0
176 1 41.3734 19.0793 0
177 1 20.3687 66.4615 0
178 1 64.827 60.1906 0
179 1 74.3812 17.6039 0
180 2 32.3141 38.7422 0
181 1 44.8652 24.5896 0
182 1 63.0652 66.8313 0
183 2 6.15217 42.194 0
184 1 5.59804 71.4768 0
185 2 69.3309 30.7812 0
186 1 52.2731 28.8278 0
187 1 44.8659 35.3867 0
188 1 57.6036 48.9007 0
189 2 62.8886 47.7512 0
190 1 24.9455 1.73851 0
191 1 62.0501 72.1674 0
192 1 61.4569 8.64561 0
193 2 18.0677 44.2372 0
194 2 4.62579 61.8017 0
195 1 14.6982 6.15842 0
196 2 45.1094 51.3471 0
197 2 21.4371 9.57616 0
198 1 19.1799 64.9199 0
199 2 72.5698 59.5305 0
200 1 59.596 27.5558 0
201 2 31.0477 5.00213 0
202 2 0.414656 57.1419 0
203 1 49.7118 68.9247 0
204 1 27.7475 9.7637 0
205 1 55.9802 12.4265 0
206 2 31.1909 35.0081 0
207 2 11.0521 7.95317 0
208 1 36.8377 12.8645 0
209 1 11.8965 9.95605 0
210 2 13.179 25.9482 0
211 1 2.17402 6.49771 0
212 2 27.1848 6.03036 0
213 2 52.878 21.4984 0
214 1 66.5284 54.0485 0
215 2 74.4175 21.1304 0
216 1 13.0827 5.85475 0
217 1 54.1872 42.3273 0
218 2 58.6886 47.2348 0
219 2 74.3564 43.6838 0
220 2 46.7597 64.4661 0
221 1 21.7451 44.5785 0
222 1 43.6847 12.1474 0
223 2 34.4433 7.72818 0
224 2 26.2062 68.8066 0
225 1 31.3444 28.0137 0
226 2 68.9101 51.7998 0
227 2 7.91244 14.5618 0
228 1 28.0525 13.4836 0
229 1 71.4801 31.1827 0
230 1 41.4219 72.2527 0
231 1 13.3465 39.3628 0
232 1 38.9237 9.78095 0
233 1 28.3958 23.0321 0
234 1 69.8575 6.09286 0
235 1 62.6794 49.2577 0
236 2 37.811 70.8546 0
237 1 1.01608 62.3869 0
238 2 9.25051 25.1747 0
239 1 50.7797 74.5208 0
240 2 66.8928 48.3682 0
241 1 54.7774 59.7894 0
242 1 12.8525 31.9207 0
243 1 5.33275 62.2842 0
244 1 63.5098 57.5617 0
245 1 6.05514 36.524 0
246 1 68.3876 35.5875 0
247 1 64.5424 51.7491 0
248 1 6.86084 0.122772 0
249 2 46.4616 45.4039 0
250 1 29.4436 18.7291 0
251 2 62.7868 45.1898 0
252 2 65.6399 26.3201 0
253 1 22.2061 24.9354 0
254 1 56.1442 21.0514 0
255 1 76.13 44.6799 0
256 1 33.9522 6.1617 0
257 1 17.0376 72.1235 0
258 1 29.5056 47.3421 0
259 1 66.5164 59.8645 0
260 2 41.3531 51.6779 0
261 2 25.6118 61.9634 0
262 1 27.4805 39.4581 0
263 2 12.5773 27.2293 0
264 2 2.52254 55.6637 0
265 1 76.9925 41.723 0
266 1 38.9789 38.5762 0
267 2 62.9246 23.865 0
268 2 68.3992 46.065 0
269 1 48.8301 20.1909 0
270 2 3.75182 52.7562 0
271 2 22.2571 42.3682 0
272 2 28.8141 12.8188 0
273 1 13.091 0.0587271 0
274 1 29.8575 57.3975 0
275 1 4.17916 55.9711 0
276 1 76.3893 11.0981 0
277 2 13.9278 62.4638 0
278 1 13.6706 19.1564 0
279 1 2.49143 51.4176 0
280 1 14.1607 37.4244 0
281 1 29.2327 41.8218 0
282 2 72.2169 32.6972 0
283 1 76.5752 55.8237 0
284 2 55.1271 35.6715 0
285 1 71.3436 51.5473 0
286 1 23.0752 60.1174 0
287 1 17.0043 7.69695 0
288 2 67.9414 5.47495 0
289 2 17.8932 41.9701 0
290 2 71.6429 6.77222 0
291 1 26.5679 34.7494 0
292 1 37.8573 66.7138 0
293 1 46.2438 17.2051 0
294 1 41.5321 75.9594 0
295 1 69.9121 0.154427 0
296 2 1.54901 12.6831 0
297 1 45.3208 55.3033 0
298 1 70.2525 32.3836 0
299 2 50.9265 30.5544 0
300 1 41.7889 47.1125 0
301 1 76.2629 21.5014 0
302 1 53.2991 30.9205 0
303 1 19.2467 28.3281 0
304 1 63.4204 65.506 0
305 2 64.7007 70.2269 0
306 1 60.3144 50.3187 0
307 2 66.8325 24.8998 0
308 1 37.7107 3.13164 0
309 2 18.6705 28.9676 0
310 2 9.70621 16.8299 0
311 1 34.001 48.3697 0
312 1 69.7135 68.1552 0
313 1 73.1057 73.3412 0
314 1 44.3226 50.9762 0
315 2 53.6561 36.9545 0
316 2 38.0792 75.3482 0
317 1 45.0969 13.2946 0
318 2 1.40891 35.6031 0
319 1 36.7075 25.0015 0
320 1 33.9065 70.2703 0
321 1 62.7435 69.7035 0
322 2 2.86319 12.1772 0
323 2 23.838 59.7044 0
324 1 69.6021 41.6349 0
325 1 47.6513 1.63841 0
326 1 6.0212 63.0869 0
327 1 47.4372 52.08 0
328 1 0.591641 35.2864 0
329 1 49.8652 32.0448 0
330 2 55.7389 31.1106 0
331 2 63.0507 74.5245 0
332 1 63.8182 27.1132 0
333 1 40.4174 10.7013 0
334 1 22.2153 40.4323 0
335 1 20.4461 36.9508 0
336 2 72.2534 5.52689 0
337 1 36.9962 36.9365 0
338 2 19.6526 0.033885 0
339 1 44.3405 64.0129 0
340 1 14.5612 56.8319 0
341 2 4.97824 47.3778 0
342 1 66.8119 3.57787 0
343 2 66.1762 59.0291 0
344 2 23.8292 57.2969 0
345 1 4.20466 28.1953 0
346 1 21.4559 4.83949 0
347 1 35.6804 65.4957 0
348 1 51.8807 15.1053 0
349 1 33.523 20.5741 0
350 1 48.6074 24.9677 0
351 1 21.8022 56.9652 0
352 1 56.7921 34.8463 0
353 1 2.28797 27.1457 0
354 2 30.4869 28.0566 0
355 2 53.5443 23.8273 0
356 2 5.86939 7.94382 0
357 1 71.8865 63.916 0
358 1 22.5832 11.0409 0
359 1 33.4651 12.3293 0
360 2 44.0073 31.0666 0
361 2 52.7865 54.531 0
362 1 34.73 70.9234 0
363 2 28.6248 74.1139 0
364 1 14.2152 72.9165 0
365 2 2.47266 63.5454 0
366 1 23.6333 51.6698 0
367 2 31.0977 31.1557 0
368 2 50.2877 48.4068 0
369 2 63.816 66.32 0
370 1 10.6332 20.9757 0
371 1 41.5346 69.4013 0
372 2 34.2983 12.4348 0
373 1 15.9346 39.7904 0
374 2 57.8116 27.8233 0
375 1 51.8598 50.4859 0
376 2 70.0832 40.8282 0
377 2 61.9585 36.4932 0
378 1 15.787 76.5378 0
379 1 21.3286 19.9764 0
380 1 9.01355 55.2689 0
381 1 19.3658 27.0677 0
382 1 27.9846 28.5641 0
383 1 16.4389 16.177 0
384 1 33.8907 51.8659 0
385 1 23.6409 0.0776076 0
386 1 48.8664 47.4528 0
387 1 55.8906 76.3823 0
388 2 55.9021 57.3129 0
389 1 38.9118 58.6756 0
390 1 26.6466 23.417 0
391 2 62.1049 15.094 0
392 2 28.8252 18.0711 0
393 2 44.0566 66.2533 0
394 1 9.58086 73.9862 0
395 1 59.414 18.4774 0
396 1 75.9913 7.3947 0
397 1 44.6368 20.1033 0
398 1 49.6312 64.8703 0
399 1 68.5135 14.5967 0
400 1 59.6071 70.8664 0
401 1 49.0466 8.46505 0
402 2 50.3685 12.5766 0
403 1 39.6999 56.5869 0
404 1 68.2432 72.1241 0
405 2 66.1471 67.9309 0
406 1 30.9162 16.3617 0
407 2 42.9974 11.5283 0
408 1 68.4885 24.1975 0
409 1 21.9374 62.2848 0
410 2 64.5206 12.0544 0
411 2 60.399 27.4115 0
412 1 65.5304 43.7298 0
413 1 5.67654 33.5574 0
414 1 75.9481 51.8411 0
415 1 3.79131 38.1698 0
416 2 73.7283 60.8886 0
417 2 73.8919 13.8456 0
418 1 44.4979 22.5565 0
419 2 56.8337 49.3333 0
420 2 21.3169 62.8905 0
421 1 67.9808 10.8358 0
422 1 69.1714 64.5804 0
423 1 10.0271 4.62755 0
424 1 61.9988 17.7416 0
425 1 57.2773 54.374 0
426 1 58.2069 75.2463 0
427 2 33.8 11.5264 0
428 1 51.0672 59.8684 0
429 1 60.4446 71.5596 0
430 1 33.1904 38.9502 0
431 1 8.15921 23.1442 0
432 1 62.0599 44.7526 0
433 1 32.0138 69.3785 0
434 1 72.2138 40.157 0
435 1 62.6226 25.5857 0
436 2 65.5127 40.6413 0
437 2 41.3266 57.8123 0
438 1 43.3044 61.6178 0
439 2 50.2341 15.1554 0
440 1 49.9657 37.995 0
441 2 73.562 7.88553 0
442 1 8.55835 32.9853 0
443 1 50.4306 14.1755 0
444 1 5.8819 77.3564 0
445 2 63.1007 72.8551 0
446 1 68.9355 49.0252 0
447 1 22.7355 69.6177 0
448 1 53.1504 40.3295 0
449 1 39.3588 72.1908 0
450 2 43.5425 55.3673 0
451 2 7.32551 59.1187 0
452 1 54.1561 15.2898 0
453 1 28.431 3.66084 0
454 2 61.2248 24.1848 0
455 2 24.6983 69.1859 0
456 1 11.6829 56.0176 0
457 2 24.4871 8.10628 0
458 1 32.2932 4.05295 0
459 2 19.1447 54.8517 0
460 1 10.8343 3.13061 0
461 2 35.0982 25.5321 0
462 1 48.4501 17.1195 0
463 1 72.3428 62.0454 0
464 1 11.6494 48.7944 0
465 2 34.7519 42.2256 0
466 1 22.5507 16.4444 0
467 2 6.54662 3.29575 0
468 1 24.8867 46.4199 0
469 1 2.5815 1.89492 0
470 1 62.5037 12.0736 0
471 2 62.865 32.661 0
472 1 25.1826 44.2966 0
473 1 52.5449 74.136 0
474 1 35.5866 61.4526 0
475 1 21.1575 70.1817 0
476 2 45.476 34.7216 0
477 1 54.1728 19.3293 0
478 2 22.1959 73.0255 0
479 1 29.6564 27.9814 0
480 1 24.8659 21.8658 0
481 1 9.35731 16.0694 0
482 1 8.01195 28.6362 0
483 2 69.7515 2.9862 0
484 1 15.033 44.4378 0
485 1 25.1404 55.4087 0
486 1 13.6597 2.67835 0
487 2 68.8893 0.538762 0
488 1 47.9564 74.065 0
489 1 43.858 15.7588 0
490 1 31.6384 35.8037 0
491 1 23.5366 37.1483 0
492 2 58.3596 10.5348 0
493 1 65.201 5.70722 0
494 1 71.0951 23.114 0
495 2 23.2666 54.9925 0
496 2 44.7522 45.8324 0
497 2 45.9367 0.576789 0
498 1 18.3974 35.9898 0
499 1 32.9011 0.981751 0
500 1 76.9849 2.78524 0
501 2 44.2909 47.2486 0
502 1 18.7344 37.0918 0
503 1 41.0774 11.5052 0
504 1 27.9923 33.9484 0
505 2 25.6309 77.0024 0
506 2 17.463 67.3124 0
507 1 45.5357 33.8264 0
508 1 7.6652 42.8456 0
509 1 22.6936 25.9336 0
510 1 75.2319 37.5861 0
511 1 67.6518 26.5056 0
512 1 56.4583 55.0006 0
513 1 16.7111 45.3541 0
514 1 25.1435 62.6465 0
515 2 52.0933 9.76433 0
516 2 15.3541 47.5176 0
517 2 76.4462 66.8998 0
518 2 19.9441 53.2541 0
519 2 29.4465 75.5472 0
520 1 75.9228 39.3305 0
521 1 53.0644 24.5122 0
522 2 26.2278 70.1981 0
523 1 74.7235 10.3828 0
524 1 65.2757 24.4267 0
525 1 28.0616 75.9943 0
526 2 75.7785 31.336 0
527 1 48.2808 22.3433 0
528 2 74.8152 1.55404 0
529 2 40.5993 52.9768 0
530 1 10.5873 62.6222 0
531 2 75.9439 64.7428 0
532 2 29.1236 63.161 0
533 1 0.0302582 77.334 0
534 1 31.647 29.332 0
535 1 27.359 20.1224 0
536 1 30.6454 66.1344 0
537 1 34.9684 52.2352 0
538 2 17.2567 31.2241 0
539 2 42.172 73.9703 0
540 1 63.7399 42.657 0
541 2 30.267 15.7644 0
542 1 55.8356 59.7662 0
543 2 73.1417 48.1228 0
544 2 50.8412 6.66592 0
545 1 27.8583 30.4017 0
546 1 37.0926 2.32195 0
547 1 10.2186 11.7378 0
548 2 27.2973 13.1054 0
549 2 70.9608 21.4979 0
550 2 8.8083 45.1635 0
551 1 28.6302 9.16757 0
552 2 66.5669 33.6583 0
553 2 24.5854 40.9225 0
554 1 58.2796 61.7401 0
555 1 53.7328 55.9927 0
556 1 70.7748 68.0203 0
557 1 54.9012 50.0824 0
558 1 2.76971 62.6862 0
559 1 73.3457 35.2923 0
560 2 27.527 59.2496 0
561 1 2.3493 77.2788 0
562 2 75.3343 9.45747 0
563 2 48.6047 41.2638 0
564 1 65.4601 62.3278 0
565 2 21.5305 76.2906 0
566 2 18.8187 30.6611 0
567 1 53.133 43.834 0
568 2 34.8723 74.2353 0
569 2 20.3683 26.8847 0
570 1 75.0779 29.4896 0
571 1 71.5002 5.93041 0
572 2 2.307 60.9002 0
573 2 65.8582 31.0386 0
574 1 2.26244 68.386 0
575 1 16.4756 10.0443 0
576 1 16.6466 61.2083 0
577 1 42.0206 49.8417 0
578 2 63.4635 34.1014 0
579 2 50.2039 69.6579 0
580 1 51.4609 43.3773 0
581 1 0.788585 64.7641 0
582 2 66.6369 55.9784 0
583 2 61.8225 56.0706 0
584 2 27.3859 57.6951 0
585 1 60.1246 0.438527 0
586 1 44.7211 53.6555 0
587 2 15.5831 22.2439 0
588 1 53.1 72.4132 0
589 2 48.456 4.9513 0
590 1 15.2653 0.0686838 0
591 1 54.9819 12.8683 0
592 1 52.1785 68.492 0
593 1 45.5039 7.56542 0
594 1 63.8046 62.5803 0
595 1 5.98743 69.7114 0
596 2 5.62579 6.58287 0
597 1 75.4234 40.2924 0
598 1 65.9993 5.10352 0
599 1 8.09864 52.2966 0
600 1 76.9268 51.1784 0
601 2 43.6203 34.6385 0
602 1 57.3692 4.34287 0
603 2 6.33618 46.5187 0
604 2 60.2511 15.0043 0
605 1 60.2006 54.1053 0
606 1 34.5558 75.2037 0
607 1 67.5978 7.40093 0
608 2 3.19328 32.6034 0
609 2 41.2369 71.4012 0
610 1 7.1789 48.3661 0
611 1 55.3691 55.4531 0
612 1 75.4468 4.37283 0
613 1 71.541 22.1193 0
614 2 47.4871 26.6345 0
615 1 33.6949 34.1143 0
616 1 37.9328 17.2205 0
617 1 70.1653 72.8871 0
618 2 14.0979 45.7433 0
619 2 48.9519 39.9399 0
620 2 75.1219 67.943 0
621 2 57.5768 38.2463 0
622 1 68.6471 19.0361 0
623 1 38.127 4.66505 0
624 2 20.6367 55.4485 0
625 1 16.9308 75.2808 0
626 1 76.4327 28.4451 0
627 2 76.1112 23.3738 0
628 1 25.3464 58.0365 0
629 2 76.613 19.3121 0
630 1 36.2072 75.6063 0
631 1 55.0263 39.007 0
632 1 18.7612 5.7946 0
633 2 30.9951 69.3714 0
634 1 13.3023 56.21 0
635 2 42.7231 44.7438 0
636 2 47.1538 34.3562 0
637 1 9.7418 17.6496 0
638 1 64.1992 34.4984 0
639 1 67.7973 48.3355 0
640 1 4.2666 54.7867 0
641 1 31.7927 36.7999 0
642 1 15.7135 35.3042 0
643 1 47.0116 40.6348 0
644 2 14.8778 28.5325 0
645 1 59.3006 53.6773 0
646 1 48.7988 44.9315 0
647 2 23.3444 14.744 0
648 1 64.2553 11.2213 0
649 2 10.9162 76.1434 0
650 2 44.0852 59.478 0
651 1 57.088 20.5159 0
652 1 18.7836 68.6326 0
653 2 19.616 16.5535 0
654 2 16.2862 9.21191 0
655 1 12.9946 52.8388 0
656 1 0.940334 53.6251 0
657 1 29.257 49.5024 0
658 1 0.632302 10.9905 0
659 2 0.28819 66.7604 0
660 1 24.5422 36.7157 0
661 1 40.8583 12.5234 0
662 1 23.5504 64.2492 0
663 1 7.11157 31.0332 0
664 1 55.9345 0.0133061 0
665 2 54.0901 73.8732 0
666 2 11.3939 53.8115 0
667 1 18.9157 76.9607 0
668 2 2.04704 71.9191 0
669 1 4.04524 4.05563 0
670 2 38.6937 44.2046 0
671 2 43.2633 17.7997 0
672 1 13.9707 20.9802 0
673 1 11.6747 17.3959 0
674 1 29.3343 44.24 0
675 2 11.238 64.3797 0
676 2 42.0878 2.21493 0
677 1 35.8475 62.5329 0
678 1 55.3938 42.1412 0
679 1 42.1756 65.3399 0
680 1 36.142 57.8385 0
681 1 25.6405 60.094 0
682 1 64.5755 43.3737 0
683 1 12.2697 74.963 0
684 1 65.3548 69.5857 0
685 2 41.9239 14.8848 0
686 1 58.7606 2.81667 0
687 1 48.7367 19.1348 0
688 2 59.4808 63.2715 0
689 1 1.40657 60.5507 0
690 1 63.9865 68.3861 0
691 1 45.551 29.878 0
692 2 50.1423 42.1336 0
693 1 69.5596 1.12982 0
694 2 48.0684 65.5738 0
695 1 42.2202 11.2928 0
696 2 37.0272 57.9887 0
697 1 33.8552 26.9026 0
698 1 8.63625 3.09934 0
699 1 61.1813 21.459 0
700 1 70.0848 39.8824 0
701 1 62.0487 32.7964 0
702 1 61.5023 60.0612 0
703 2 66.6505 4.57477 0
704 2 9.91766 60.7826 0
705 2 14.8711 13.4572 0
706 1 49.4033 41.7891 0
707 2 55.2508 37.1449 0
708 1 49.9984 47.5366 0
709 1 54.5446 69.8731 0
710 2 59.8193 24.7571 0
711 1 62.8329 58.3703 0
712 2 56.1885 37.1034 0
713 2 76.0003 70.6597 0
714 2 73.6096 59.289 0
715 1 44.3397 10.6631 0
716 1 1.6219 26.2715 0
717 1 23.0912 67.9745 0
718 1 10.9216 70.3945 0
719 1 54.1975 40.4287 0
720 2 45.4781 42.6891 0
721 2 68.0433 42.7835 0
722 1 42.8851 5.73663 0
723 2 43.3309 7.75562 0
724 2 18.8118 62.8863 0
725 1 55.8381 37.8394 0
726 1 5.92653 26.8884 0
727 2 17.049 10.6706 0
728 1 69.6973 51.6359 0
729 2 15.61 65.3827 0
730 1 34.2227 33.1051 0
731 2 16.5043 35.7961 0
732 1 17.7515 57.2431 0
733 1 29.2153 26.0831 0
734 2 51.6348 37.9385 0
735 1 65.3623 67.449 0
736 1 43.095 45.4986 0
737 2 73.7115 40.902 0
738 1 18.1874 34.8628 0
739 1 27.4594 45.2011 0
740 1 54.4463 32.3993 0
741 2 57.7395 55.1443 0
742 1 56.8454 36.5243 0
743 1 25.9185 66.8437 0
744 2 0.0802434 24.1668 0
745 1 20.2919 70.9648 0
746 1 36.3819 10.8764 0
747 1 36.4532 72.9907 0
748 2 43.9006 64.7114 0
749 2 19.0401 35.4402 0
750 1 53.6007 36.0597 0
751 1 59.8397 38.5574 0
752 2 74.9988 61.4703 0
753 1 52.7749 34.6193 0
754 2 15.6944 24.2506 0
755 1 20.8196 59.5932 0
756 2 59.5983 67.3227 0
757 1 41.9357 20.0182 0
758 1 4.23595 10.4872 0
759 1 59.6215 44.7076 0
760 1 10.3202 14.2304 0
761 1 2.40157 3.87653 0
762 1 13.7583 63.903 0
763 2 72.6945 9.10497 0
764 1 73.8951 54.139 0
765 2 49.3136 51.7493 0
766 1 69.6869 10.8473 0
767 1 8.13585 2.18224 0
768 1 60.5555 5.78766 0
769 1 56.5318 43.494 0
770 2 63.6162 70.1173 0
771 1 23.942 46.0825 0
772 1 35.2217 49.6438 0
773 1 44.0241 49.2846 0
774 2 35.0369 29.2293 0
775 1 68.337 33.5069 0
776 2 43.95 45.323 0
777 1 5.24621 48.2125 0
778 2 7.09524 64.9604 0
779 1 41.0966 14.9957 0
780 1 24.7504 5.06954 0
781 1 35.9595 34.6168 0
782 1 66.1719 64.913 0
783 1 62.2216 37.2465 0
784 1 75.0257 43.111 0
785 2 4.54436 7.91276 0
786 1 72.2515 54.8193 0
787 1 18.7699 71.883 0
788 1 39.1257 62.6177 0
789 1 8.83611 76.0355 0
790 1 54.2616 72.9406 0
791 1 46.5786 7.59623 0
792 1 7.57377 32.6917 0
793 1 19.0006 23.3197 0
794 2 2.47161 8.40867 0
795 2 72.9418 11.6447 0
796 2 72.116 75.0401 0
797 1 51.5694 57.904 0
798 1 36.0229 22.1477 0
799 1 41.286 70.5381 0
800 1 29.469 66.0706 0
801 2 3.97115 29.8711 0
802 2 21.5051 40.9807 0
803 2 27.9989 0.730186 0
804 2 56.1188 32.9961 0
805 1 17.1542 1.75584 0
806 1 57.3427 61.1878 0
807 2 31.7438 59.2513 0
808 1 41.1724 43.3646 0
809 2 37.2499 67.9401 0
810 1 58.1799 7.49998 0
811 1 35.0716 53.8822 0
812 2 65.2245 48.9597 0
813 2 46.6177 51.912 0
814 1 56.8887 27.8663 0
815 2 40.2071 13.2122 0
816 1 26.5356 38.5121 0
817 1 62.046 76.1576 0
818 2 35.9593 12.7188 0
819 2 41.8642 55.3722 0
820 1 67.428 71.3464 0
821 1 21.8862 67.0899 0
822 1 51.5849 73.7391 0
823 1 14.2746 54.7492 0
824 2 36.2532 44.4644 0
825 1 29.9269 40.7657 0
826 1 30.1558 1.56577 0
827 1 8.07696 37.7489 0
828 1 6.80076 53.6935 0
829 1 70.0346 30.1895 0
830 2 51.5961 69.1344 0
831 2 52.6218 6.45469 0
832 1 69.5254 5.1342 0
833 1 29.8159 51.1227 0
834 2 40.9084 75.3804 0
835 1 62.5594 2.63397 0
836 1 57.6384 28.6518 0
837 1 53.56 33.0783 0
838 1 42.0657 57.367 0
839 1 19.9206 76.6999 0
840 2 9.98999 53.0224 0
841 1 40.4799 58.1041 0
842 2 21.0833 62.0326 0
843 1 8.86832 48.7982 0
844 1 69.5369 14.4159 0
845 2 26.7759 4.8441 0
846 1 54.7785 46.4794 0
847 1 6.98049 55.8371 0
848 2 70.3608 49.9335 0
849 1 69.0639 6.93511 0
850 1 69.2162 18.1786 0
851 1 34.7394 22.0684 0
852 1 11.1164 2.05746 0
853 1 39.8488 69.7829 0
854 1 28.8482 65.1997 0
855 1 48.5002 21.2905 0
856 2 20.7562 43.0826 0
857 1 56.9165 24.9073 0
858 2 32.7001 31.6598 0
859 1 12.092 69.1807 0
860 2 71.6445 55.5477 0
861 2 65.3213 42.8708 0
862 2 76.6144 62.1467 0
863 1 55.5652 20.2107 0
864 1 60.9909 56.014 0
865 2 68.205 67.8028 0
866 1 57.148 13.7044 0
867 2 35.0459 16.3894 0
868 1 44.3572 57.6543 0
869 1 66.2998 17.9821 0
870 1 1.54486 51.9725 0
871 1 64.8831 19.989 0
872 1 41.1528 46.0989 0
873 1 53.7883 59.404 0
874 1 3.28474 74.7743 0
875 1 37.7529 65.6557 0
876 2 47.389 7.39902 0
877 1 19.5991 60.8117 0
878 2 21.2829 20.8405 0
879 1 74.6596 12.4796 0
880 2 31.0859 38.2133 0
881 2 49.3989 22.8159 0
882 2 45.1803 68.5034 0
883 1 32.4543 12.5894 0
884 1 57.7449 35.9913 0
885 1 38.8334 73.9769 0
886 1 41.06 55.6928 0
887 2 47.9042 47.6525 0
888 1 71.8333 9.22277 0
889 2 57.2627 42.9338 0
890 2 5.24776 25.0512 0
891 1 31.1747 8.42879 0
892 1 31.3287 70.1666 0
893 1 34.5155 54.8416 0
894 1 0.400157 7.58964 0
895 2 38.3972 61.1037 0
896 1 35.6343 76.4906 0
897 2 37.6061 16.3924 0
898 1 35.3982 42.828 0
899 1 73.329 76.1758 0
900 2 44.2159 8.98051 0
901 1 45.5507 39.6983 0
902 1 32.6752 77.3651 0
903 1 37.805 41.589 0
904 2 71.373 24.2232 0
905 1 59.8696 56.2727 0
906 1 64.595 38.1919 0
907 1 4.69322 18.8296 0
908 1 56.7106 15.8796 0
909 1 3.2617 55.3102 0
910 2 3.31205 51.0775 0
911 2 6.22416 0.695358 0
912 2 40.8345 26.2047 0
913 2 39.4269 39.3926 0
914 1 21.357 23.3776 0
915 2 61.6993 2.79333 0
916 1 2.5052 44.6946 0
917 2 77.0438 29.2105 0
918 2 22.5264 44.0982 0
919 1 10.3021 60.0051 0
920 1 13.7399 47.7377 0
921 1 74.0349 29.2028 0
922 2 44.54 18.1611 0
923 2 10.8513 24.4067 0
924 1 40.4816 18.3956 0
925 1 68.2151 40.9094 0
926 2 39.6419 38.0302 0
927 1 72.1416 73.8949 0
928 1 53.0923 58.0168 0
929 2 53.6272 29.9446 0
930 2 17.114 23.0061 0
931 1 45.0687 49.4804 0
932 1 63.6228 32.3277 0
933 1 34.6598 24.7682 0
934 1 8.15561 71.5492 0
935 1 11.0953 54.6237 0
936 2 38.6482 2.82113 0
937 1 9.72632 2.95377 0
938 1 35.4725 73.5476 0
939 2 42.7354 50.4173 0
940 1 77.0694 48.8698 0
941 1 77.3235 21.3736 0
942 1 40.9674 22.6914 0
943 2 20.8075 15.7545 0
944 2 4.24625 43.9646 0
945 1 40.0287 29.3761 0
946 1 64.3585 59.0039 0
947 2 24.1483 9.98665 0
948 1 27.4292 64.2544 0
949 1 30.6872 19.8622 0
950 2 11.0966 5.00429 0
951 1 72.9073 64.1261 0
952 2 55.1561 77.3281 0
953 2 4.37595 40.7003 0
954 2 27.657 56.0218 0
955 1 28.5608 46.544 0
956 2 65.6105 16.1094 0
957 1 48.8786 16.1224 0
958 2 26.4292 3.0348 0
959 2 73.4735 28.5123 0
960 2 33.1554 66.2688 0
961 1 40.6872 53.8515 0
962 1 18.8063 9.85977 0
963 1 17.2543 12.3262 0
964 2 9.63113 12.4726 0
965 2 55.6098 54.6243 0
966 1 3.94548 61.2497 0
967 1 49.1477 34.4661 0
968 1 22.8197 2.91039 0
969 1 60.6414 24.9684 0
970 2 25.4377 10.8609 0
971 1 24.5497 13.2834 0
972 1 10.9978 26.2274 0
973 1 75.8114 33.2595 0
974 2 71.648 34.2103 0
975 2 1.02889 63.9157 0
976 2 36.8843 21.8082 0
977 1 37.4227 63.8868 0
978 2 75.5417 12.819 0
979 2 31.3914 66.6626 0
980 1 2.21912 9.61663 0
981 1 1.48605 48.1287 0
982 1 17.9447 53.5047 0
983 1 21.4971 16.2578 0
984 1 4.33502 62.6218 0
985 1 33.5491 15.0616 0
986 1 35.0522 48.4059 0
987 2 23.0524 21.3182 0
988 2 40.8785 29.3683 0
989 2 3.68187 33.8549 0
990 2 73.0332 49.5028 0
991 2 45.3206 15.1917 0
992 1 65.6794 27.2987 0
993 2 29.5556 14.3512 0
994 2 8.6263 63.5076 0
995 1 32.4169 32.4939 0
996 2 51.0294 58.4906 0
997 2 50.5024 25.0654 0
998 2 52.9701 68.8612 0
999 2 40.4816 19.319 0
1000 2 76.0566 50.9891 0
1001 1 41.3284 68.3621 0
1002 1 24.026 33.4438 0
1003 1 9.62881 56.8297 0
1004 1 7.76205 16.5591 0
1005 2 14.2287 24.8407 0
1006 2 63.0645 50.0331 0
1007 1 21.007 26.2335 0
1008 1 47.0235 18.0394 0
1009 1 31.8508 37.9242 0
1010 1 10.3177 51.0497 0
1011 2 13.6486 34.1239 0
1012 2 9.76584 21.0144 0
1013 2 62.0237 60.7723 0
1014 1 4.70326 14.1086 0
1015 1 67.0822 10.1969 0
1016 1 43.1384 53.4595 0
1017 2 6.39562 47.9947 0
1018 1 23.2676 30.5763 0
1019 1 48.1918 35.7091 0
1020 2 30.3408 8.27806 0
1021 2 20.8817 28.2143 0
1022 1 8.74601 68.8302 0
1023 1 38.0243 1.94264 0
1024 1 13.0807 68.7223 0
1025 1 47.5543 67.2754 0
1026 1 9.94344 46.815 0
1027 1 43.2753 75.6198 0
1028 1 3.27046 26.7068 0
1029 1 49.8873 20.3424 0
1030 2 47.1268 50.014 0
1031 2 48.4046 36.5601 0
1032 1 12.3816 73.9433 0
1033 1 61.1743 23.2352 0
1034 1 44.5502 25.8613 0
1035 1 67.1558 19.8521 0
1036 2 68.0819 47.5008 0
1037 1 35.501 1.8514 0
1038 1 69.6875 62.8196 0
1039 1 4.52351 25.5274 0
1040 2 60.4355 37.9404 0
1041 1 31.7125 67.4893 0
1042 2 56.718 59.763 0
1043 2 65.8421 63.1505 0
1044 1 0.870739 21.072 0
1045 1 73.6633 20.651 0
1046 1 35.8006 70.9242 0
1047 2 10.5479 43.3217 0
1048 1 42.6147 76.5017 0
1049 1 2.75584 42.7023 0
1050 2 53.6101 10.683 0
1051 1 49.7258 24.8101 0
1052 1 69.244 45.9363 0
1053 2 31.1578 22.9716 0
1054 1 50.5091 1.67637 0
1055 2 31.5431 42.6616 0
1056 2 15.8106 45.1282 0
1057 1 13.4367 73.5853 0
1058 1 30.3883 5.65508 0
1059 1 3.57293 73.1438 0
1060 2 22.8301 48.601 0
1061 1 18.4496 17.3396 0
1062 2 12.2718 36.1709 0
1063 1 4.41315 68.0978 0
1064 1 20.7181 7.99625 0
1065 2 35.5946 51.6047 0
1066 1 33.8834 45.8303 0
1067 1 17.81 10.212 0
1068 2 43.0789 67.7693 0
1069 1 73.0555 32.7772 0
1070 2 11.5878 32.414 0
1071 2 50.8565 51.7121 0
1072 2 7.69452 54.2373 0
1073 2 10.8683 6.49596 0
1074 2 32.4685 43.4824 0
1075 1 0.438133 44.744 0
1076 1 40.1127 75.0534 0
1077 1 40.7866 32.7667 0
1078 2 62.9584 28.5917 0
1079 2 41.9469 3.41707 0
1080 2 26.8535 65.0174 0
1081 2 39.8914 49.5162 0
1082 2 9.04504 23.4382 0
1083 2 20.4438 14.0785 0
1084 1 44.3883 54.7247 0
1085 1 30.8982 50.9873 0
1086 1 71.3735 68.867 0
1087 1 36.1034 2.67263 0
1088 1 50.2501 62.8454 0
1089 2 9.71387 36.6988 0
1090 1 41.5355 31.3388 0
1091 2 22.1773 21.6412 0
1092 1 58.1139 53.6073 0
1093 1 64.9782 28.3241 0
1094 2 41.5618 63.4254 0
1095 1 22.3705 75.9455 0
1096 2 50.8471 20.1722 0
1097 1 1.12602 17.9058 0
1098 1 67.5016 44.6772 0
1099 1 35.3518 0.100795 0
1100 1 74.7633 5.10738 0
1101 1 70.1474 19.7998 0
1102 1 27.8017 72.3318 0
1103 1 49.2534 63.9137 0
1104 1 43.1592 52.2557 0
1105 1 52.9194 45.8717 0
1106 1 15.1061 2.91958 0
1107 2 46.9441 61.3984 0
1108 1 50.1605 28.762 0
1109 1 69.1009 32.82 0
1110 2 8.19244 11.2329 0
1111 1 76.0337 54.9722 0
1112 1 12.7426 15.4057 0
1113 2 64.4098 5.90937 0
1114 2 22.4221 57.6924 0
1115 2 34.5041 47.6389 0
1116 1 74.8613 56.9085 0
1117 1 64.3161 54.0491 0
1118 1 14.6621 4.49256 0
1119 2 13.1671 65.4436 0
1120 1 36.1827 54.456 0
1121 2 23.2673 60.9579 0
1122 1 42.6346 37.1431 0
1123 2 18.7433 58.9581 0
1124 1 50.108 56.9117 0
1125 2 12.4106 7.33878 0
1126 2 17.1653 24.7212 0
1127 1 7.83224 21.4147 0
1128 1 71.2513 61.7925 0
1129 1 61.2749 39.8438 0
1130 1 26.7475 56.0349 0
1131 1 67.5929 18.9482 0
1132 2 74.0946 56.6468 0
1133 2 58.0407 19.0531 0
1134 2 14.4445 2.35768 0
1135 1 74.1198 66.5821 0
1136 2 44.2377 20.8629 0
1137 1 52.2069 59.9725 0
1138 1 32.0591 18.4307 0
1139 2 61.4387 47.7367 0
1140 2 8.5108 27.3364 0
1141 1 71.697 56.3603 0
1142 1 37.8242 54.0178 0
1143 1 43.5445 50.2021 0
1144 2 65.6545 14.3172 0
1145 1 40.7273 63.4834 0
1146 1 12.2807 20.3759 0
1147 1 32.6959 29.0136 0
1148 1 8.33619 38.8074 0
1149 1 54.3049 30.593 0
1150 2 68.8751 61.1985 0
1151 1 28.1386 10.7013 0
1152 1 55.4295 48.42 0
1153 1 3.88431 23.809 0
1154 1 15.4283 11.5103 0
1155 2 60.4068 13.3123 0
1156 1 53.5411 31.99 0
1157 1 11.4269 22.9389 0
1158 2 60.1269 47.0107 0
1159 2 2.86422 67.6196 0
1160 1 31.3952 5.96329 0
1161 2 37.7975 56.6489 0
1162 1 14.2212 7.10009 0
1163 2 5.00175 1.53594 0
1164 1 29.3547 56.4884 0
1165 1 19.122 50.505 0
1166 2 17.2955 50.1044 0
1167 1 31.6847 26.9594 0
1168 1 54.6599 66.0303 0
1169 1 16.5292 65.5379 0
1170 2 5.98024 32.6895 0
1171 1 50.7864 37.3712 0
1172 1 30.7889 7.35826 0
1173 1 51.2964 62.7151 0
1174 1 38.0609 37.0329 0
1175 2 65.0014 44.3916 0
1176 1 66.5235 35.7463 0
1177 1 45.9967 61.7756 0
1178 2 49.9238 43.6448 0
1179 1 75.4279 35.7465 0
1180 1 50.3558 19.365 0
1181 1 60.1596 21.8456 0
1182 1 61.2785 64.9904 0
1183 2 44.5309 67.3024 0
1184 2 25.253 24.7145 0
1185 1 15.0032 70.1406 0
1186 1 40.384 45.3386 0
1187 1 71.8877 65.0925 0
1188 2 9.75494 35.1178 0
1189 1 60.62 59.4818 0
1190 1 30.8067 42.2807 0
1191 2 64.2417 7.46209 0
1192 1 24.7728 47.5207 0
1193 1 51.9385 21.8457 0
1194 2 15.4808 19.4851 0
1195 1 75.0567 47.1534 0
1196 1 21.5949 51.9175 0
1197 1 42.4834 33.0588 0
1198 1 59.273 76.8993 0
1199 2 57.1991 63.2836 0
1200 1 23.4738 13.033 0
1201 1 0.163543 70.3078 0
1202 1 9.54143 62.6809 0
1203 2 41.7395 12.1612 0
1204 1 54.721 56.299 0
1205 1 65.7753 44.7312 0
1206 1 51.4823 75.2818 0
1207 1 39.472 66.2894 0
1208 1 68.002 51.8639 0
1209 2 63.5891 56.5191 0
1210 1 59.3111 28.8539 0
1211 2 22.0147 39.5952 0
1212 1 30.6086 35.6465 0
1213 1 68.0354 66.8566 0
1214 1 73.7665 24.1392 0
1215 1 8.40067 77.0589 0
1216 1 9.31522 52.3892 0
1217 2 64.8514 74.4801 0
1218 2 62.2329 16.8815 0
1219 1 29.2424 22.2682 0
1220 1 72.915 15.4422 0
1221 1 62.7063 56.4358 0
1222 2 65.5675 71.6228 0
1223 1 44.9592 47.7689 0
1224 1 73.6137 33.6765 0
1225 1 4.91253 27.3109 0
1226 2 65.9395 61.6684 0
1227 1 38.5781 63.6246 0
1228 1 70.305 65.4213 0
1229 2 50.4437 10.4441 0
1230 1 22.9835 49.4998 0
1231 2 48.8719 12.98 0
1232 1 75.7928 36.7499 0
1233 1 37.5038 61.2485 0
1234 1 74.3632 65.5101 0
1235 1 17.4481 48.1788 0
1236 1 56.1639 63.2379 0
1237 1 37.5552 15.5387 0
1238 1 24.4374 6.09199 0
1239 1 16.4312 23.7689 0
1240 1 24.0645 68.5713 0