ITEM: TIMESTEP
0
ITEM: NUMBER OF ATOMS
7200
ITEM: BOX BOUNDS xy xz yz pp pp pp
0.0000000000000000e+00 7.7459666924100006e+01 0.0000000000000000e+00
0.0000000000000000e+00 7.7459666924100006e+01 0.0000000000000000e+00
-1.2909944490000000e-01 1.2909944490000000e-01 0.0000000000000000e+00
ITEM: ATOMS id type x y z
1 1 12.1091 20.1435 0
2 1 15.0743 64.039 0
3 1 75.3697 71.213 0
4 1 20.4297 8.16125 0
5 1 34.5897 55.9923 0
6 1 56.5832 28.6621 0
7 2 5.21953 2.19284 0
8 2 64.72 46.365 0
9 1 42.6673 55.7256 0
10 2 19.0405 14.6338 0
11 2 25.325 53.2445 0
12 1 55.2126 11.4611 0
13 2 23.3348 6.0032 0
14 1 46.5577 70.0041 0
15 1 39.3797 31.2988 0
16 1 18.2349 14.9591 0
17 1 31.417 40.1098 0
18 1 33.8675 5.87384 0
19 1 26.8625 57.8301 0
20 2 44.9473 3.58612 0
21 1 12.3651 66.016 0
22 1 54.3312 10.7743 0
23 1 75.6948 45.7362 0
24 1 55.763 66.2212 0
25 1 6.9001 71.3281 0
26 1 21.0793 67.8125 0
27 2 28.9319 63.7819 0
28 1 50.968 73.8772 0
29 2 22.4536 47.8316 0
30 2 24.4637 31.8288 0
31 1 15.4854 53.7483 0
32 1 51.091 38.0732 0
33 1 60.8896 48.6191 0
34 2 45.3174 9.64891 0
35 1 75.4864 63.2949 0
36 1 30.4601 60.0221 0
37 1 22.2529 61.5516 0
38 1 45.9609 19.7554 0
39 1 22.4802 5.77656 0
40 2 24.7915 59.1677 0
41 2 18.5355 64.8731 0
42 1 20.9996 1.29171 0
43 1 18.8165 33.542 0
44 1 34.3809 62.6842 0
45 1 3.2538 34.3087 0
46 1 68.2189 7.02636 0
47 1 73.6612 59.1811 0
48 1 43.9283 68.1949 0
49 2 77.2316 4.33683 0
50 1 31.1274 66.6453 0
51 1 1.31257 9.99294 0
52 2 33.0839 24.274 0
53 1 53.7589 18.578 0
54 1 49.6283 30.4618 0
55 1 9.74536 1.2708 0
56 1 45.9875 26.2359 0
57 1 67.5111 43.0908 0
58 1 70.2766 69.9379 0
59 1 34.2294 2.09389 0
60 1 28.6893 3.62545 0
61 1 40.4145 75.9289 0
62 1 52.5516 45.2569 0
63 1 57.2944 9.82107 0
64 1 50.9056 45.7025 0
65 1 67.0453 73.7051 0
66 2 56.0951 11.4285 0
67 2 40.5934 35.8982 0
68 2 0.672929 29.3205 0
69 1 61.9452 45.3412 0
70 1 8.393 35.4455 0
71 2 7.51483 42.1103 0
72 1 76.67 3.55041 0
73 1 6.50137 64.1998 0
74 2 41.6535 22.9225 0
75 1 75.4632 53.4317 0
76 1 19.6304 46.8767 0
77 1 25.0273 74.5418 0
78 1 3.48436 15.5956 0
79 1 12.6249 73.4298 0
80 1 43.5373 16.6145 0
81 1 55.2459 62.3766 0
82 2 44.43 16.6551 0
83 1 5.65843 32.9635 0
84 1 32.9441 45.8304 0
85 1 34.6216 20.8219 0
86 2 34.6602 64.6158 0
87 1 71.3971 34.6932 0
88 1 18.4753 54.6988 0
89 1 27.8516 13.2773 0
90 1 37.41 37.887 0
91 2 45.4163 41.0763 0
92 2 41.3349 56.1026 0
93 1 27.8549 16.942 0
94 1 33.4828 55.7292 0
95 2 40.1231 56.4472 0
96 1 64.7582 1.27999 0
97 1 44.0823 48.9241 0
98 2 3.05779 60.2179 0
99 1 61.9752 48.2961 0
100 2 32.2801 31.0686 0
101 1 48.0547 54.2968 0
102 1 56.1941 21.5112 0
103 1 56.6185 70.3035 0
104 1 2.85767 61.1295 0
105 2 40.1714 2.99805 0
106 2 30.3865 34.9121 0
107 1 13.1429 31.2242 0
108 1 0.809422 1.00816 0
109 1 35.7433 41.5959 0
110 2 65.2832 26.2161 0
111 1 66.1122 11.6689 0
112 1 34.2395 72.7536 0
113 2 0.407366 60.4709 0
114 2 74.3716 29.5406 0
115 2 30.5529 12.8964 0
116 2 74.6287 53.7532 0
117 1 16.0743 45.9222 0
118 2 46.9194 26.6048 0
119 1 62.652 0.0330728 0
120 2 5.94806 49.8271 0
121 1 6.1744 3.77253 0
122 1 19.7389 33.0051 0
123 2 5.22284 17.8446 0
124 1 46.3892 57.471 0
125 1 31.6727 27.3594 0
126 1 58.116 52.2618 0
127 1 4.55312 58.9645 0
128 1 14.4964 23.4243 0
129 1 16.5858 52.3133 0
130 1 7.05316 2.44741 0
131 1 58.8787 25.0688 0
132 2 30.9651 41.8497 0
133 2 52.6289 6.88726 0
134 1 65.8752 51.0364 0
135 1 31.7737 30.3679 0
136 2 55.2357 46.6928 0
137 1 61.8817 56.7459 0
138 2 70.5031 48.0095 0
139 1 68.4256 27.2167 0
140 1 3.40174 21.9236 0
141 2 48.1603 63.5851 0
142 1 6.43452 22.6 0
143 2 40.4333 70.0188 0
144 2 47.1863 75.2025 0
145 2 18.3315 52.8702 0
146 1 54.7696 4.0842 0
147 1 9.34382 38.968 0
148 1 46.2197 53.4637 0
149 2 67.9172 49.112 0
150 1 32.8304 56.5676 0
151 2 29.6312 14.0748 0
152 1 48.9882 63.1491 0
153 2 17.1671 46.2249 0
154 2 31.4798 72.7186 0
155 1 70.5482 48.9546 0
156 1 43.522 10.3546 0
157 1 48.9444 70.995 0
158 1 60.2185 69.3767 0
159 2 10.4599 26.0882 0
160 1 38.3156 17.6226 0
161 1 7.28618 63.5147 0
162 2 73.0333 24.3695 0
163 1 30.5996 27.0027 0
164 1 60.1668 29.3817 0
165 1 75.472 27.7146 0
166 1 2.00827 44.7042 0
167 1 39.2104 0.920642 0
168 1 38.405 72.902 0
169 1 56.8242 30.8932 0
170 1 57.9685 2.23066 0
171 2 36.8616 60.9703 0
172 2 33.6738 53.7743 0
173 2 43.8904 24.3838 0
174 2 27.4619 56.1023 0
175 2 31.3274 26.5578 0
176 1 46.2986 16.2202 0
177 1 19.662 58.7176 0
178 1 61.9103 61.3566 0
179 1 64.5105 24.7321 0
180 2 33.8445 39.7296 0
181 1 45.3402 27.7365 0
182 1 62.0075 58.6797 0
183 2 12.0198 37.307 0
184 1 5.46653 67.7716 0
185 2 67.1787 29.3547 0
186 1 59.0377 35.0378 0
187 1 39.3715 46.3525 0
188 1 57.4303 47.7977 0
189 2 63.9548 53.1037 0
190 1 23.279 4.15098 0
191 1 71.8833 7.37227 0
192 1 65.5983 9.97043 0
193 2 10.8478 41.575 0
194 2 68.5697 69.202 0
195 1 11.2187 3.51135 0
196 2 49.6851 55.0667 0
197 2 20.2636 10.0076 0
198 1 13.424 61.3397 0
199 2 75.8882 66.2575 0
200 1 59.8661 27.8097 0
201 2 34.6167 1.36609 0
202 2 74.6634 55.197 0
203 1 52.2219 65.559 0
204 1 29.6665 4.01936 0
205 1 55.909 25.918 0
206 2 35.7399 37.0824 0
207 2 13.9323 9.7911 0
208 1 33.8609 14.0362 0
209 1 12.0277 11.765 0
210 2 5.28022 20.3708 0
211 1 17.2301 8.31296 0
212 2 24.8339 6.35965 0
213 2 56.0278 27.9086 0
214 1 71.019 57.9074 0
215 2 66.6346 22.5668 0
216 1 20.7059 73.8277 0
217 1 59.5207 34.0224 0
218 2 54.9601 58.6218 0
219 2 67.992 42.3673 0
220 2 42.7327 63.5439 0
221 1 18.7915 45.3899 0
222 1 45.0236 12.6084 0
223 2 39.2468 67.4689 0
224 2 27.8457 68.6235 0
225 1 32.539 23.6699 0
226 2 66.651 57.2094 0
227 2 5.77462 16.4053 0
228 1 34.6757 9.4236 0
229 1 70.986 26.8459 0
230 1 32.4424 74.2788 0
231 1 10.6757 34.2392 0
232 1 42.2467 12.9807 0
233 1 34.9281 7.75745 0
234 1 76.0671 8.35945 0
235 1 60.8792 59.2094 0
236 2 44.6214 70.435 0
237 1 77.4039 62.2899 0
238 2 9.06872 21.4988 0
239 1 58.6639 3.02516 0
240 2 61.6424 46.2245 0
241 1 47.3183 66.7077 0
242 1 18.5412 30.6433 0
243 1 7.20166 56.3213 0
244 1 61.3485 64.4467 0
245 1 10.9298 30.7469 0
246 1 2.00468 35.5309 0
247 1 65.7006 49.9567 0
248 1 12.4113 1.01472 0
249 2 50.4885 41.2307 0
250 1 29.1822 9.58744 0
251 2 57.9498 50.3356 0
252 2 65.7845 23.6952 0
253 1 19.8799 17.5766 0
254 1 54.3125 25.0341 0
255 1 65.6428 42.9442 0
256 1 31.4333 8.67448 0
257 1 22.0693 57.9528 0
258 1 26.0672 38.7558 0
259 1 55.8563 56.9965 0
260 2 44.1108 53.531 0
261 2 26.3194 62.7402 0
262 1 24.1827 33.7944 0
263 2 12.592 34.4961 0
264 2 71.471 60.0786 0
265 1 77.0883 46.7052 0
266 1 38.0213 44.7651 0
267 2 61.3164 24.4226 0
268 2 56.7921 45.9924 0
269 1 48.2569 20.9269 0
270 2 9.07238 47.1636 0
271 2 23.4268 34.247 0
272 2 20.4992 14.3931 0
273 1 14.8711 65.1317 0
274 1 32.1268 49.9552 0
275 1 8.54854 49.0359 0
276 1 75.2149 10.0579 0
277 2 15.523 71.29 0
278 1 7.36887 17.4056 0
279 1 4.51177 44.3383 0
280 1 20.1814 35.7968 0
281 1 30.6258 38.5823 0
282 2 75.8969 26.9956 0
283 1 76.5328 55.7282 0
284 2 54.3805 38.3902 0
285 1 71.0515 52.8519 0
286 1 11.5098 63.4361 0
287 1 19.0663 76.9063 0
288 2 75.7739 3.91434 0
289 2 21.2707 39.0862 0
290 2 68.7142 76.347 0
291 1 35.2689 22.5694 0
292 1 27.6099 58.6024 0
293 1 47.469 18.9235 0
294 1 40.2821 2.19681 0
295 1 69.294 2.57505 0
296 2 74.103 8.42815 0
297 1 40.4142 59.3963 0
298 1 72.2814 35.1634 0
299 2 49.3456 36.6987 0
300 1 39.249 43.6861 0
301 1 72.7927 19.6392 0
302 1 50.942 35.289 0
303 1 20.4123 32.2409 0
304 1 60.5092 72.3406 0
305 2 57.6575 76.2967 0
306 1 63.2543 52.6345 0
307 2 73.3729 38.6907 0
308 1 41.5206 5.25758 0
309 2 25.0534 17.1317 0
310 2 13.3299 13.2138 0
311 1 29.2976 49.6389 0
312 1 67.4359 61.8322 0
313 1 74.62 76.153 0
314 1 40.3997 46.0229 0
315 2 56.4071 31.817 0
316 2 39.4053 63.2313 0
317 1 50.9109 20.4227 0
318 2 6.86326 31.2147 0
319 1 30.9805 25.7667 0
320 1 36.0767 61.4752 0
321 1 58.7064 68.3529 0
322 2 74.0537 11.7667 0
323 2 25.025 63.5606 0
324 1 64.3578 41.5767 0
325 1 41.2323 6.26606 0
326 1 9.72431 58.883 0
327 1 49.0069 53.9423 0
328 1 0.68434 37.1122 0
329 1 41.7025 42.5996 0
330 2 51.8063 34.9786 0
331 2 69.5807 3.48885 0
332 1 59.3659 28.74 0
333 1 37.1257 12.3482 0
334 1 16.9368 34.8154 0
335 1 20.601 38.537 0
336 2 72.3991 74.4308 0
337 1 34.5704 33.8198 0
338 2 17.1082 1.66716 0
339 1 42.322 68.3475 0
340 1 18.8814 57.9354 0
341 2 74.148 44.3444 0
342 1 67.1803 5.49373 0
343 2 56.5675 49.889 0
344 2 22.8107 66.084 0
345 1 7.91499 27.916 0
346 1 17.4473 71.6975 0
347 1 35.4339 56.6173 0
348 1 56.684 18.8167 0
349 1 33.8285 20.063 0
350 1 37.2628 31.1452 0
351 1 18.0486 53.7462 0
352 1 47.8755 30.8207 0
353 1 75.1594 25.5381 0
354 2 22.6619 26.2642 0
355 2 43.5303 18.3683 0
356 2 11.9611 3.03566 0
357 1 68.6495 67.8003 0
358 1 24.3157 3.84938 0
359 1 22.4295 14.6558 0
360 2 45.1739 31.5331 0
361 2 48.1226 67.0036 0
362 1 27.0495 74.6312 0
363 2 37.9775 73.6447 0
364 1 13.2505 66.5298 0
365 2 9.01099 57.1073 0
366 1 24.7383 50.6411 0
367 2 19.702 23.4038 0
368 2 51.4919 55.2091 0
369 2 65.1485 70.7666 0
370 1 3.28296 28.267 0
371 1 45.8452 73.4361 0
372 2 40.5555 9.91732 0
373 1 10.319 31.6186 0
374 2 66.523 41.3152 0
375 1 52.5289 52.8566 0
376 2 75.3985 43.1942 0
377 2 58.2104 38.0597 0
378 1 20.4321 63.8268 0
379 1 13.9135 20.276 0
380 1 9.98843 62.4957 0
381 1 26.573 23.359 0
382 1 30.8671 23.5042 0
383 1 9.5041 11.9686 0
384 1 34.9406 51.6518 0
385 1 28.3643 77.2516 0
386 1 54.9254 40.4387 0
387 1 58.533 76.3324 0
388 2 56.195 57.8495 0
389 1 24.5071 56.5943 0
390 1 29.6027 13.2026 0
391 2 59.849 26.6843 0
392 2 30.1896 10.3221 0
393 2 38.8012 64.859 0
394 1 10.3412 73.8247 0
395 1 53.2975 21.7858 0
396 1 13.7448 70.5945 0
397 1 46.9078 17.1521 0
398 1 45.4003 70.8439 0
399 1 69.6072 18.2663 0
400 1 59.3085 74.4153 0
401 1 44.6556 11.4802 0
402 2 56.6578 16.9096 0
403 1 38.1228 51.5171 0
404 1 69.5058 70.6952 0
405 2 73.8228 76.443 0
406 1 34.292 19.1399 0
407 2 45.8045 21.7412 0
408 1 63.5174 30.2887 0
409 1 18.6714 61.3096 0
410 2 67.0036 15.9173 0
411 2 66.4828 36.529 0
412 1 58.7761 38.7371 0
413 1 7.13453 36.539 0
414 1 71.2965 48.2646 0
415 1 7.00505 41.4398 0
416 2 74.0022 62.3781 0
417 2 75.0942 12.6619 0
418 1 54.3325 30.0859 0
419 2 56.7054 47.3305 0
420 2 24.7171 55.7475 0
421 1 60.3938 19.0071 0
422 1 2.17318 71.4024 0
423 1 4.11776 12.0983 0
424 1 60.7057 26.9009 0
425 1 58.8621 50.5725 0
426 1 55.8343 73.5068 0
427 2 39.5973 15.12 0
428 1 51.3587 50.4227 0
429 1 59.0559 71.132 0
430 1 36.5614 37.1259 0
431 1 77.287 29.5401 0
432 1 63.453 49.1347 0
433 1 29.2267 69.4693 0
434 1 1.81064 42.8357 0
435 1 64.0848 34.2474 0
436 2 68.0253 39.0265 0
437 2 44.1195 59.6028 0
438 1 38.7111 61.5438 0
439 2 41.4184 12.5391 0
440 1 43.4859 43.8035 0
441 2 66.9447 14.6717 0
442 1 9.51392 37.9052 0
443 1 54.756 16.7384 0
444 1 16.8077 75.3991 0
445 2 69.5509 67.7247 0
446 1 61.7166 42.14 0
447 1 27.0306 70.9327 0
448 1 46.946 37.7493 0
449 1 37.1453 73.3302 0
450 2 48.4102 59.6268 0
451 2 6.65609 61.6305 0
452 1 66.7562 10.7892 0
453 1 28.4546 76.1822 0
454 2 62.6087 29.7338 0
455 2 26.5883 67.9559 0
456 1 11.4527 44.5354 0
457 2 18.7368 1.98326 0
458 1 37.9981 77.2158 0
459 2 15.6095 56.8245 0
460 1 5.13476 4.1035 0
461 2 27.3675 27.658 0
462 1 45.8878 24.4183 0
463 1 76.1457 69.7813 0
464 1 9.07263 48.0074 0
465 2 40.608 45.1355 0
466 1 21.6801 12.8977 0
467 2 11.683 1.54879 0
468 1 19.2736 36.2942 0
469 1 1.87308 2.05945 0
470 1 61.8329 10.3994 0
471 2 73.9453 40.9263 0
472 1 25.3545 43.0057 0
473 1 61.7545 66.0704 0
474 1 33.472 54.6309 0
475 1 22.4388 59.8692 0
476 2 38.9384 32.1114 0
477 1 60.7397 11.5403 0
478 2 33.2414 74.5295 0
479 1 33.3222 22.1166 0
480 1 19.8245 25.5941 0
481 1 6.99704 18.5455 0
482 1 10.802 25.2137 0
483 2 1.05471 1.77087 0
484 1 14.2579 38.1973 0
485 1 21.2154 57.1843 0
486 1 6.85143 4.57049 0
487 2 71.6431 9.92387 0
488 1 58.5459 5.70617 0
489 1 52.5651 15.1708 0
490 1 35.4108 31.1229 0
491 1 30.5312 42.6382 0
492 2 61.22 9.79541 0
493 1 73.362 8.91146 0
494 1 67.5333 31.8586 0
495 2 22.1814 49.2268 0
496 2 52.8501 42.2394 0
497 2 40.7625 7.00022 0
498 1 23.5631 25.9855 0
499 1 35.648 74.2939 0
500 1 3.03483 3.54752 0
501 2 45.5575 43.4337 0
502 1 16.7031 24.8307 0
503 1 50.3238 9.78668 0
504 1 36.9784 32.834 0
505 2 26.5705 77.1964 0
506 2 17.6479 65.3959 0
507 1 42.048 37.2197 0
508 1 12.8435 32.6295 0
509 1 28.9476 24.8707 0
510 1 6.92801 38.6694 0
511 1 69.2869 26.584 0
512 1 54.6197 53.5728 0
513 1 11.7688 34.217 0
514 1 25.2445 64.4277 0
515 2 61.4975 11.1726 0
516 2 11.4096 38.5597 0
517 2 75.6989 73.2991 0
518 2 19.1468 54.1991 0
519 2 33.2797 1.97881 0
520 1 74.4526 37.0675 0
521 1 42.2064 24.5984 0
522 2 24.4323 66.1833 0
523 1 77.1563 12.1601 0
524 1 70.4097 34.637 0
525 1 22.8381 0.163324 0
526 2 76.369 22.4777 0
527 1 49.4969 26.1084 0
528 2 74.5468 4.69425 0
529 2 34.223 45.9917 0
530 1 7.99396 59.544 0
531 2 76.6426 69.0485 0
532 2 32.221 60.7476 0
533 1 72.6551 5.39264 0
534 1 34.5949 27.1904 0
535 1 29.2274 19.2002 0
536 1 32.6559 65.8114 0
537 1 34.9557 47.8479 0
538 2 16.4213 21.6548 0
539 2 45.9876 76.7031 0
540 1 60.8702 40.673 0
541 2 25.1209 8.13667 0
542 1 50.8586 56.9768 0
543 2 69.7522 55.6166 0
544 2 51.9987 10.3959 0
545 1 28.2403 22.86 0
546 1 34.2911 3.24655 0
547 1 10.1094 14.5019 0
548 2 23.6399 3.25557 0
549 2 65.3525 21.8504 0
550 2 5.16898 39.2988 0
551 1 30.404 8.39158 0
552 2 70.4875 40.1561 0
553 2 29.5502 44.8155 0
554 1 51.7207 62.2124 0
555 1 49.809 56.9802 0
556 1 73.261 68.1105 0
557 1 62.2136 53.966 0
558 1 2.75692 68.5084 0
559 1 72.6363 36.239 0
560 2 21.4118 61.581 0
561 1 6.05032 0.996056 0
562 2 4.62208 11.153 0
563 2 54.2858 48.9612 0
564 1 70.227 68.2032 0
565 2 21.8417 1.52559 0
566 2 18.1464 23.8188 0
567 1 49.0661 42.2525 0
568 2 22.8899 74.1292 0
569 2 15.6855 27.4235 0
570 1 73.0724 34.4004 0
571 1 0.289829 3.61786 0
572 2 6.61365 48.4659 0
573 2 0.101938 44.8924 0
574 1 4.10878 69.1301 0
575 1 18.3299 7.78582 0
576 1 16.4615 63.2234 0
577 1 43.2482 50.3536 0
578 2 67.6494 34.2068 0
579 2 45.7783 68.3559 0
580 1 62.7548 42.5418 0
581 1 6.77336 60.6927 0
582 2 68.7494 59.8265 0
583 2 64.3408 58.6415 0
584 2 33.47 65.4419 0
585 1 60.0864 77.0878 0
586 1 48.903 58.7367 0
587 2 14.7098 21.698 0
588 1 49.4029 5.21377 0
589 2 53.7051 10.2555 0
590 1 24.7308 73.5235 0
591 1 56.0289 6.54385 0
592 1 48.4345 74.2232 0
593 1 44.1234 13.1501 0
594 1 59.9403 63.5456 0
595 1 72.3803 65.4782 0
596 2 6.8182 1.60597 0
597 1 3.4919 43.9654 0
598 1 69.0011 8.56845 0
599 1 2.5145 51.0467 0
600 1 0.165184 47.6023 0
601 2 42.1078 36.1148 0
602 1 62.4407 14.2438 0
603 2 71.1124 50.782 0
604 2 62.8545 16.0705 0
605 1 52.3137 69.1194 0
606 1 41.5837 4.10887 0
607 1 76.1941 1.4868 0
608 2 1.40675 40.2805 0
609 2 40.8249 0.32288 0
610 1 7.74049 49.715 0
611 1 54.0627 58.9124 0
612 1 76.7854 6.35 0
613 1 77.3013 22.7614 0
614 2 50.7062 28.4418 0
615 1 34.4185 39.0744 0
616 1 39.841 16.0968 0
617 1 67.9618 0.632828 0
618 2 11.933 42.6495 0
619 2 55.147 42.7042 0
620 2 71.1744 73.8227 0
621 2 58.4684 35.7122 0
622 1 60.2971 17.8841 0
623 1 37.6525 11.3981 0
624 2 20.3749 54.8025 0
625 1 26.8896 76.4 0
626 1 73.7589 28.9336 0
627 2 2.16839 25.1413 0
628 1 28.5625 58.1062 0
629 2 77.1578 26.1628 0
630 1 29.1276 73.1256 0
631 1 56.9383 37.23 0
632 1 21.5916 65.1799 0
633 2 25.5615 71.9952 0
634 1 18.7078 50.6059 0
635 2 41.6242 43.4562 0
636 2 37.0749 40.7223 0
637 1 11.0941 11.1594 0
638 1 67.2995 40.8199 0
639 1 70.3627 46.2436 0
640 1 0.218305 54.0105 0
641 1 36.2923 33.6449 0
642 1 9.50662 33.6849 0
643 1 50.352 44.8278 0
644 2 19.4475 27.3437 0
645 1 57.1078 52.3125 0
646 1 46.6435 46.9543 0
647 2 23.763 10.42 0
648 1 64.4648 12.166 0
649 2 10.944 69.2191 0
650 2 47.3744 62.0524 0
651 1 46.2783 12.152 0
652 1 29.6975 71.0143 0
653 2 13.6584 23.233 0
654 2 10.3703 3.84303 0
655 1 5.44303 51.8294 0
656 1 72.7973 53.9472 0
657 1 33.6268 46.6944 0
658 1 71.562 12.9205 0
659 2 1.10055 66.0855 0
660 1 26.6615 35.6706 0
661 1 37.4967 9.85011 0
662 1 32.7078 60.0384 0
663 1 10.5053 28.7208 0
664 1 57.9407 75.4798 0
665 2 49.0899 76.7123 0
666 2 12.6817 58.2412 0
667 1 26.4621 73.7824 0
668 2 7.84399 76.3745 0
669 1 4.33796 9.23212 0
670 2 43.9523 37.6554 0
671 2 37.4556 17.6878 0
672 1 9.83182 19.635 0
673 1 6.7014 16.5629 0
674 1 32.6417 42.5791 0
675 2 4.99841 58.1593 0
676 2 38.0048 6.35529 0
677 1 41.5123 54.2247 0
678 1 53.8592 39.057 0
679 1 45.8641 69.1909 0
680 1 31.6842 53.5635 0
681 1 26.2659 54.129 0
682 1 62.6778 59.5849 0
683 1 18.0336 59.3988 0
684 1 64.5165 68.9554 0
685 2 35.9939 18.7491 0
686 1 50.2179 6.21568 0
687 1 41.6623 18.9641 0
688 2 53.3457 73.3504 0
689 1 72.1756 62.552 0
690 1 66.3006 72.8988 0
691 1 41.7088 39.8432 0
692 2 59.9302 44.1173 0
693 1 71.4146 77.0256 0
694 2 53.4795 64.2114 0
695 1 42.261 11.8636 0
696 2 35.4498 47.1669 0
697 1 25.6953 13.417 0
698 1 8.31505 3.7558 0
699 1 66.854 13.532 0
700 1 72.0736 47.0507 0
701 1 64.1773 31.2123 0
702 1 63.7644 65.2835 0
703 2 71.7227 2.05662 0
704 2 8.41341 61.2895 0
705 2 5.00352 7.29326 0
706 1 52.3856 51.8449 0
707 2 59.6895 38.4119 0
708 1 50.5591 43.1668 0
709 1 51.4839 72.9545 0
710 2 60.3273 28.5361 0
711 1 56.1404 54.2689 0
712 2 62.839 32.5971 0
713 2 68.6107 70.3127 0
714 2 0.257538 64.5523 0
715 1 45.336 18.8709 0
716 1 76.2807 29.7797 0
717 1 29.7325 63.4714 0
718 1 14.4264 3.84923 0
719 1 53.3372 36.9362 0
720 2 49.2769 38.5933 0
721 2 66.7163 39.7392 0
722 1 48.9722 7.96355 0
723 2 39.7859 75.3839 0
724 2 10.436 59.3882 0
725 1 50.8511 39.2712 0
726 1 8.33193 29.8457 0
727 2 13.0545 1.67928 0
728 1 67.7069 55.5674 0
729 2 21.5559 59.812 0
730 1 33.1804 27.3787 0
731 2 16.585 36.4228 0
732 1 16.4204 54.3703 0
733 1 29.9391 29.4886 0
734 2 66.4348 46.4497 0
735 1 66.9445 67.3902 0
736 1 47.1414 49.2863 0
737 2 4.24746 45.7209 0
738 1 13.5441 34.3484 0
739 1 17.9552 37.5471 0
740 1 48.5906 38.0875 0
741 2 57.5268 55.8703 0
742 1 58.9792 37.6724 0
743 1 27.1355 62.1759 0
744 2 72.0764 19.0501 0
745 1 23.1673 72.8549 0
746 1 35.3368 10.2399 0
747 1 47.4537 76.0308 0
748 2 42.9831 69.8592 0
749 2 22.2994 24.4937 0
750 1 55.3939 35.0681 0
751 1 57.6881 40.3259 0
752 2 2.69216 70.5292 0
753 1 53.1581 39.8885 0
754 2 21.862 15.2836 0
755 1 23.8749 50.0429 0
756 2 49.4237 75.8057 0
757 1 48.5418 19.2663 0
758 1 6.1156 9.7506 0
759 1 61.7776 47.1681 0
760 1 12.1159 10.6851 0
761 1 70.1957 71.6119 0
762 1 15.1874 57.5528 0
763 2 77.1451 7.11708 0
764 1 75.1884 57.2016 0
765 2 47.1913 56.9508 0
766 1 62.8605 22.6599 0
767 1 13.8351 1.22676 0
768 1 65.3844 7.65579 0
769 1 61.8606 50.1137 0
770 2 60.3202 73.1996 0
771 1 18.8735 40.0199 0
772 1 44.8961 50.7313 0
773 1 40.738 43.2239 0
774 2 32.6485 25.5107 0
775 1 71.7466 30.6551 0
776 2 44.3265 42.3884 0
777 1 70.5179 55.3206 0
778 2 10.6143 63.1793 0
779 1 45.3292 25.3859 0
780 1 17.0811 6.43568 0
781 1 29.5576 35.2234 0
782 1 57.5645 65.1722 0
783 1 60.6349 35.6075 0
784 1 70.6949 49.9941 0
785 2 8.76553 11.4803 0
786 1 73.5291 70.1082 0
787 1 21.0387 66.7087 0
788 1 39.9547 54.8248 0
789 1 11.0385 4.56035 0
790 1 52.0365 70.1594 0
791 1 45.885 13.2638 0
792 1 8.46866 24.9344 0
793 1 25.2203 15.053 0
794 2 70.4977 16.1494 0
795 2 75.5673 14.0661 0
796 2 75.8564 67.8133 0
797 1 44.3593 65.2908 0
798 1 38.5938 19.1634 0
799 1 44.0991 76.4718 0
800 1 30.6008 70.4988 0
801 2 6.45498 26.0608 0
802 2 27.9456 45.5885 0
803 2 23.6456 77.2569 0
804 2 52.7431 36.1231 0
805 1 23.8773 72.0658 0
806 1 52.9524 70.6897 0
807 2 39.716 50.4393 0
808 1 50.4766 47.3477 0
809 2 36.2851 62.3757 0
810 1 57.1981 77.0196 0
811 1 28.6822 60.9922 0
812 2 59.7661 48.3901 0
813 2 46.6818 58.2843 0
814 1 54.2814 31.1693 0
815 2 41.1892 17.025 0
816 1 28.0292 34.6927 0
817 1 68.1723 75.6334 0
818 2 37.007 16.2617 0
819 2 45.6563 56.9069 0
820 1 66.9149 70.0522 0
821 1 16.7315 65.0497 0
822 1 56.1666 76.6902 0
823 1 17.1843 55.8828 0
824 2 35.1254 42.2137 0
825 1 29.0643 41.576 0
826 1 32.7711 75.2993 0
827 1 7.26795 26.2432 0
828 1 76.7907 51.1478 0
829 1 72.2057 40.2084 0
830 2 47.9507 64.4771 0
831 2 43.2796 4.55437 0
832 1 73.6553 13.5602 0
833 1 24.3017 43.3545 0
834 2 48.5577 5.5108 0
835 1 68.7562 6.10255 0
836 1 58.0702 27.5882 0
837 1 56.3849 41.4386 0
838 1 39.1002 52.8657 0
839 1 16.0951 60.4067 0
840 2 15.7014 46.7481 0
841 1 36.7758 52.5214 0
842 2 11.1698 61.2971 0
843 1 5.56316 42.3174 0
844 1 63.3029 21.6482 0
845 2 28.0635 2.58018 0
846 1 49.6121 39.4107 0
847 1 10.8562 57.5572 0
848 2 68.9841 47.6514 0
849 1 74.0039 10.8836 0
850 1 67.5933 19.8632 0
851 1 39.5362 18.78 0
852 1 12.3358 2.10328 0
853 1 42.4779 61.0634 0
854 1 37.7979 69.3381 0
855 1 39.5084 25.7494 0
856 2 18.4393 41.8296 0
857 1 57.7868 33.9548 0
858 2 34.5244 28.8614 0
859 1 13.2241 64.769 0
860 2 2.1156 58.6237 0
861 2 60.0998 40.3096 0
862 2 3.26843 69.3082 0
863 1 58.6372 24.0082 0
864 1 60.5309 53.845 0
865 2 66.2109 68.0317 0
866 1 60.6847 16.8482 0
867 2 31.4259 21.8759 0
868 1 37.0329 61.8603 0
869 1 62.3586 19.8303 0
870 1 0.119782 52.7964 0
871 1 62.6884 25.8289 0
872 1 42.2332 50.6826 0
873 1 50.6915 62.3838 0
874 1 4.16327 71.8342 0
875 1 34.1099 57.7139 0
876 2 51.5108 7.86363 0
877 1 13.4656 55.3799 0
878 2 14.8595 16.131 0
879 1 76.552 14.0862 0
880 2 31.5709 33.8376 0
881 2 51.9135 29.3681 0
882 2 47.8123 73.5203 0
883 1 25.7414 19.9683 0
884 1 56.0397 36.6318 0
885 1 38.9843 5.12792 0
886 1 37.1867 60.1755 0
887 2 54.9345 50.3833 0
888 1 0.515591 76.7679 0
889 2 59.268 49.7823 0
890 2 7.66826 25.339 0
891 1 38.2861 10.5641 0
892 1 40.1221 67.6044 0
893 1 29.9763 53.6956 0
894 1 77.0057 15.0607 0
895 2 32.3409 52.9262 0
896 1 37.6449 2.62584 0
897 2 35.7719 17.2013 0
898 1 31.1253 43.4821 0
899 1 1.96297 75.6775 0
900 2 38.6652 0.249967 0
901 1 52.336 41.5395 0
902 1 24.2994 75.3994 0
903 1 37.9048 40.6949 0
904 2 0.0517845 37.6563 0
905 1 63.7799 62.1196 0
906 1 69.0193 44.7833 0
907 1 3.51614 29.8154 0
908 1 50.7244 23.7932 0
909 1 0.383055 48.7325 0
910 2 1.72717 50.8008 0
911 2 4.47265 4.63475 0
912 2 36.1086 32.7525 0
913 2 31.8726 51.6028 0
914 1 18.3379 12.8966 0
915 2 64.634 5.28351 0
916 1 3.3389 39.7713 0
917 2 4.91373 33.4201 0
918 2 19.4492 35.3765 0
919 1 8.20738 57.7964 0
920 1 15.7603 47.6508 0
921 1 0.268595 26.78 0
922 2 50.8587 18.8908 0
923 2 12.2712 24.295 0
924 1 39.3893 17.7617 0
925 1 66.1801 47.2888 0
926 2 35.3624 35.3434 0
927 1 68.5961 77.2103 0
928 1 52.338 58.9636 0
929 2 51.8724 32.176 0
930 2 20.0081 15.8337 0
931 1 40.696 47.5416 0
932 1 70.3535 39.216 0
933 1 34.3697 21.7999 0
934 1 2.1363 60.2747 0
935 1 11.29 50.5823 0
936 2 42.2463 4.69628 0
937 1 14.298 73.3289 0
938 1 36.662 67.5552 0
939 2 50.5805 51.8147 0
940 1 76.0475 46.857 0
941 1 77.0567 17.5122 0
942 1 37.9811 29.7747 0
943 2 22.3404 16.6831 0
944 2 2.12389 41.9604 0
945 1 40.4873 25.4494 0
946 1 64.561 67.2566 0
947 2 25.2184 2.24401 0
948 1 39.2645 68.4513 0
949 1 27.0112 11.7885 0
950 2 5.24634 9.87181 0
951 1 69.1657 65.7039 0
952 2 52.4364 2.77803 0
953 2 7.91867 44.7329 0
954 2 29.8454 62.5723 0
955 1 27.1599 38.5132 0
956 2 58.8735 10.9412 0
957 1 48.3129 23.4617 0
958 2 19.5559 2.89248 0
959 2 74.502 26.1 0
960 2 29.215 66.9562 0
961 1 49.7294 52.1362 0
962 1 24.3527 1.6753 0
963 1 16.2692 12.6608 0
964 2 8.59991 9.63706 0
965 2 53.7822 53.9608 0
966 1 0.903422 62.8157 0
967 1 49.919 35.6467 0
968 1 18.3661 0.207982 0
969 1 58.39 22.9794 0
970 2 22.5821 4.83602 0
971 1 21.3664 14.4944 0
972 1 6.80321 25.2297 0
973 1 0.479423 36.0265 0
974 2 1.17848 35.5371 0
975 2 73.2284 65.5288 0
976 2 34.7213 19.9492 0
977 1 36.0679 63.2034 0
978 2 3.61424 76.5715 0
979 2 36.0412 65.6932 0
980 1 73.2585 14.5567 0
981 1 73.7141 58.1536 0
982 1 7.86698 54.6689 0
983 1 18.3607 24.6957 0
984 1 9.22761 57.9403 0
985 1 34.7271 11.2782 0
986 1 38.0635 52.6914 0
987 2 18.1874 12.0418 0
988 2 42.203 34.7353 0
989 2 9.84984 34.5962 0
990 2 69.9845 51.7369 0
991 2 46.2717 14.8487 0
992 1 62.2805 34.4707 0
993 2 29.151 5.90442 0
994 2 1.88747 55.0684 0
995 1 39.0331 22.3755 0
996 2 54.9957 57.0635 0
997 2 43.5535 30.927 0
998 2 59.926 75.0193 0
999 2 39.3509 26.5841 0
1000 2 0.511956 49.5881 0
1001 1 41.8211 65.0789 0
1002 1 23.7764 35.1187 0
1003 1 9.54521 54.1466 0
1004 1 7.51477 22.4636 0
1005 2 10.6819 23.6408 0
1006 2 67.9348 61.0643 0
1007 1 18.79 20.3739 0
1008 1 47.9082 16.8032 0
1009 1 31.0302 33.0882 0
1010 1 11.5785 43.4741 0
1011 2 10.4587 22.3484 0
1012 2 2.46326 23.4987 0
1013 2 65.374 56.0067 0
1014 1 74.0848 15.2836 0
1015 1 76.0646 9.4663 0
1016 1 37.05 47.931 0
1017 2 68.9129 54.2847 0
1018 1 26.2115 25.1407 0
1019 1 44.3289 29.1122 0
1020 2 32.5474 6.33495 0
1021 2 15.9174 24.542 0
1022 1 4.94287 60.8952 0
1023 1 41.279 9.39452 0
1024 1 9.31202 67.6146 0
1025 1 36.9571 65.6992 0
1026 1 7.97449 40.1069 0
1027 1 47.3706 2.44325 0
1028 1 1.99917 32.9094 0
1029 1 49.0714 18.0821 0
1030 2 46.9237 47.7299 0
1031 2 37.5446 37.0289 0
1032 1 16.4753 73.086 0
1033 1 57.7589 19.0674 0
1034 1 35.3671 29.3422 0
1035 1 65.831 28.186 0
1036 2 73.6519 46.0005 0
1037 1 30.9382 73.433 0
1038 1 68.719 60.6648 0
1039 1 4.87408 31.4994 0
1040 2 64.9796 34.2597 0
1041 1 35.3851 65.1035 0
1042 2 62.957 68.2963 0
1043 2 60.7536 58.2998 0
1044 1 68.3288 23.3217 0
1045 1 66.6633 23.4361 0
1046 1 41.1139 68.172 0
1047 2 9.82706 47.5486 0
1048 1 53.338 77.4196 0
1049 1 59.952 49.2144 0
1050 2 45.4522 6.28155 0
1051 1 43.5412 31.8464 0
1052 1 66.296 44.5974 0
1053 2 32.7081 18.5481 0
1054 1 55.0616 7.04737 0
1055 2 32.7247 46.7236 0
1056 2 14.6252 45.1976 0
1057 1 11.851 71.809 0
1058 1 27.5306 6.01108 0
1059 1 9.30545 75.4759 0
1060 2 21.7456 42.047 0
1061 1 9.96668 23.135 0
1062 2 16.7955 41.2316 0
1063 1 0.281364 67.8674 0
1064 1 23.4335 5.17197 0
1065 2 29.68 52.8813 0
1066 1 37.2416 46.2295 0
1067 1 13.8866 10.6769 0
1068 2 35.6122 66.958 0
1069 1 68.2484 24.3283 0
1070 2 8.14076 34.2643 0
1071 2 49.7319 42.8811 0
1072 2 9.36832 48.8254 0
1073 2 16.398 3.72434 0
1074 2 33.624 44.3583 0
1075 1 75.9808 49.6881 0
1076 1 41.2982 7.68215 0
1077 1 41.636 32.6531 0
1078 2 71.709 26.2582 0
1079 2 39.2011 10.9347 0
1080 2 30.0258 72.9761 0
1081 2 45.6364 48.4879 0
1082 2 6.25041 27.6719 0
1083 2 21.6346 20.0289 0
1084 1 44.4096 57.7479 0
1085 1 19.0221 52.3166 0
1086 1 70.0805 67.0753 0
1087 1 29.6068 72.0663 0
1088 1 44.6547 63.1275 0
1089 2 8.38766 31.6012 0
1090 1 43.0529 34.4165 0
1091 2 27.9136 17.8734 0
1092 1 63.2927 53.6856 0
1093 1 69.1196 32.9238 0
1094 2 43.3087 55.1428 0
1095 1 25.3155 71.1678 0
1096 2 48.2468 18.4564 0
1097 1 76.0565 17.8317 0
1098 1 62.8175 43.6345 0
1099 1 31.1316 5.03981 0
1100 1 67.4409 2.28511 0
1101 1 74.9119 11.764 0
1102 1 26.0161 74.8414 0
1103 1 51.1509 70.6772 0
1104 1 47.3886 57.7833 0
1105 1 48.1891 40.1842 0
1106 1 16.4331 71.4665 0
1107 2 45.2645 62.2472 0
1108 1 55.7237 31.24 0
1109 1 73.0373 25.2332 0
1110 2 14.8837 11.9868 0
1111 1 2.74639 56.9288 0
1112 1 75.9956 18.8289 0
1113 2 75.5482 7.68391 0
1114 2 14.7676 53.0678 0
1115 2 32.8705 49.5054 0
1116 1 77.1438 65.2442 0
1117 1 67.2344 56.4886 0
1118 1 12.4644 75.5729 0
1119 2 11.4904 64.4311 0
1120 1 41.6191 57.5752 0
1121 2 21.2237 64.3449 0
1122 1 31.878 32.5369 0
1123 2 22.9597 51.9919 0
1124 1 52.6667 61.8618 0
1125 2 14.8213 4.57896 0
1126 2 15.5087 20.2519 0
1127 1 74.7521 23.7347 0
1128 1 67.3542 52.0775 0
1129 1 60.7857 39.63 0
1130 1 30.4207 47.2984 0
1131 1 62.8365 15.2359 0
1132 2 76.2425 63.7175 0
1133 2 56.1931 22.452 0
1134 2 20.923 72.2181 0
1135 1 1.11743 68.4897 0
1136 2 51.3143 26.838 0
1137 1 51.0707 61.3422 0
1138 1 30.5346 13.8059 0
1139 2 57.6657 53.0363 0
1140 2 9.09135 22.9416 0
1141 1 75.1205 65.8345 0
1142 1 26.9869 52.4079 0
1143 1 48.2444 44.6447 0
1144 2 61.1304 16.0203 0
1145 1 37.9748 62.3382 0
1146 1 15.5804 18.881 0
1147 1 28.2392 25.6518 0
1148 1 10.7452 36.6534 0
1149 1 57.5196 29.205 0
1150 2 65.4549 61.249 0
1151 1 22.2003 4.05896 0
1152 1 59.8709 52.1856 0
1153 1 71.6442 29.5738 0
1154 1 14.0344 4.88514 0
1155 2 60.3238 19.8966 0
1156 1 44.6445 32.2689 0
1157 1 12.2651 18.3032 0
1158 2 58.4926 48.0324 0
1159 2 5.63449 70.6631 0
1160 1 33.0373 7.82916 0
1161 2 44.6201 55.8221 0
1162 1 15.922 10.1243 0
1163 2 13.4713 73.0249 0
1164 1 23.9083 58.7691 0
1165 1 20.7491 45.4366 0
1166 2 15.3192 50.6474 0
1167 1 28.0599 20.3826 0
1168 1 56.5859 64.6233 0
1169 1 19.562 66.9008 0
1170 2 6.31281 33.5814 0
1171 1 48.4695 33.9814 0
1172 1 23.0154 6.87652 0
1173 1 51.5851 63.9183 0
1174 1 38.9615 29.2931 0
1175 2 62.6539 44.5375 0
1176 1 68.258 36.604 0
1177 1 47.6136 69.8175 0
1178 2 61.2269 47.8484 0
1179 1 72.3536 32.7258 0
1180 1 52.2625 17.8798 0
1181 1 54.5125 22.9147 0
1182 1 60.3254 74.1123 0
1183 2 42.9703 73.3424 0
1184 2 27.9253 22.0596 0
1185 1 17.6073 63.2604 0
1186 1 48.6584 48.693 0
1187 1 74.0946 72.3405 0
1188 2 4.80439 37.6297 0
1189 1 60.9078 65.3882 0
1190 1 28.2088 51.5097 0
1191 2 71.9976 4.84111 0
1192 1 24.5845 47.163 0
1193 1 47.6853 17.8365 0
1194 2 16.6475 16.0214 0
1195 1 74.2687 48.9109 0
1196 1 21.6548 49.9401 0
1197 1 35.4782 38.977 0
1198 1 61.9476 76.0164 0
1199 2 57.9839 62.5803 0
1200 1 27.0569 9.05662 0
1201 1 2.98903 73.2291 0
1202 1 5.81804 48.9556 0
1203 2 47.3298 12.2331 0
1204 1 57.7582 56.7287 0
1205 1 66.7223 50.2873 0
1206 1 52.1743 4.93259 0
1207 1 31.7077 62.7756 0
1208 1 75.488 58.209 0
1209 2 65.539 59.7995 0
1210 1 69.7248 31.959 0
1211 2 25.7617 35.7684 0
1212 1 33.7008 36.3026 0
1213 1 61.3584 69.057 0
1214 1 61.2863 23.5336 0
1215 1 11.8482 72.8597 0
1216 1 11.1257 49.4104 0
1217 2 68.2198 2.72666 0
1218 2 61.7758 20.492 0
1219 1 30.2918 15.6361 0
1220 1 62.0459 17.7473 0
1221 1 61.9201 54.9824 0
1222 2 66.5982 74.4504 0
1223 1 42.181 47.9779 0
1224 1 0.608361 33.9917 0
1225 1 2.81382 25.7242 0
1226 2 65.9171 65.0404 0
1227 1 42.018 56.58 0
1228 1 76.3551 70.8374 0
1229 2 48.0224 9.35409 0
1230 1 25.4085 49.8261 0
1231 2 53.1464 17.967 0
1232 1 67.7146 38.135 0
1233 1 39.1171 57.9448 0
1234 1 1.94722 67.8538 0
1235 1 18.0594 46.1338 0
1236 1 52.5349 62.9646 0
1237 1 38.0046 20.8015 0
1238 1 24.8393 7.23508 0
1239 1 12.8318 22.7511 0
1240 1 24.3383 63.0567 0
1241 1 76.4899 62.9143 0
1242 1 35.1724 57.5789 0