ITEM: TIMESTEP
0
ITEM: NUMBER OF ATOMS
7200
ITEM: BOX BOUNDS xy xz yz pp pp pp
0.0000000000000000e+00 7.7459666924100006e+01 0.0000000000000000e+00
0.0000000000000000e+00 7.7459666924100006e+01 0.0000000000000000e+00
-1.2909944490000000e-01 1.2909944490000000e-01 0.0000000000000000e+00
ITEM: ATOMS id type x y z
1 1 15.6831 20.946 0
2 1 13.3668 64.2853 0
3 1 74.8142 72.9487 0
4 1 19.7847 9.05731 0
5 1 33.6139 59.1544 0
6 1 58.0062 25.7606 0
7 2 3.80598 6.54821 0
8 2 61.8841 48.8179 0
9 1 40.6008 56.2894 0
10 2 18.3793 13.7987 0
11 2 26.3135 50.5103 0
12 1 53.0249 11.7969 0
13 2 25.7202 6.90387 0
14 1 46.4494 70.1703 0
15 1 41.8408 33.33 0
16 1 19.646 15.9791 0
17 1 30.6681 38.4778 0
18 1 34.395 7.28173 0
19 1 28.6198 54.8677 0
20 2 44.7209 3.13158 0
21 1 11.7176 63.8518 0
22 1 53.5169 10.1519 0
23 1 74.6171 46.1651 0
24 1 54.9335 67.2978 0
25 1 5.61893 70.5372 0
26 1 21.281 65.8221 0
27 2 31.5722 62.4509 0
28 1 50.5872 74.974 0
29 2 24.0875 48.2265 0
30 2 24.3134 30.6429 0
31 1 17.4078 52.4232 0
32 1 51.3712 36.8626 0
33 1 61.4605 48.0577 0
34 2 46.9216 12.0593 0
35 1 73.4427 64.4134 0
36 1 31.722 57.9746 0
37 1 22.9348 61.0308 0
38 1 49.443 19.5584 0
39 1 25.1636 6.26571 0
40 2 22.1053 62.4311 0
41 2 19.3952 62.7622 0
42 1 17.5921 1.14848 0
43 1 17.261 31.3314 0
44 1 36.0194 65.3628 0
45 1 2.59606 33.9738 0
46 1 66.9685 7.04953 0
47 1 75.2542 60.004 0
48 1 41.1214 66.12 0
49 2 3.55861 1.40439 0
50 1 30.882 67.1 0
51 1 1.06388 10.6428 0
52 2 32.6935 24.2128 0
53 1 53.7668 18.5337 0
54 1 49.2148 31.0379 0
55 1 8.53438 0.62791 0
56 1 44.4548 28.5916 0
57 1 69.3734 42.4675 0
58 1 71.004 71.1218 0
59 1 28.385 76.6142 0
60 1 26.461 2.28424 0
61 1 36.8412 73.3452 0
62 1 52.2774 44.9563 0
63 1 55.8982 8.86077 0
64 1 52.8995 46.5588 0
65 1 67.57 75.2324 0
66 2 55.408 12.364 0
67 2 41.9023 36.6619 0
68 2 2.78514 30.4784 0
69 1 62.4202 45.5078 0
70 1 7.55968 34.6641 0
71 2 8.08712 44.9884 0
72 1 2.72364 4.91612 0
73 1 8.67621 65.8853 0
74 2 41.0002 24.1088 0
75 1 76.3203 54.1503 0
76 1 19.4074 46.1929 0
77 1 24.5821 73.9641 0
78 1 5.81842 15.1487 0
79 1 11.0046 71.5551 0
80 1 42.6538 17.8829 0
81 1 52.3408 63.8671 0
82 2 44.8245 18.6641 0
83 1 6.14044 32.404 0
84 1 32.9372 48.2835 0
85 1 36.1044 19.5953 0
86 2 33.6974 64.3574 0
87 1 67.9039 31.2404 0
88 1 19.7278 54.305 0
89 1 28.5927 12.5088 0
90 1 37.5033 39.0024 0
91 2 44.4134 44.3142 0
92 2 38.2898 56.2028 0
93 1 26.1011 18.1624 0
94 1 31.8688 56.9444 0
95 2 40.939 55.4201 0
96 1 60.1974 1.71759 0
97 1 43.1909 50.3828 0
98 2 1.31618 61.1259 0
99 1 63.4821 48.7662 0
100 2 32.9856 30.4737 0
101 1 48.2192 53.3824 0
102 1 60.0683 22.6041 0
103 1 55.356 71.101 0
104 1 4.00303 61.7573 0
105 2 38.1906 1.80157 0
106 2 29.7846 33.9058 0
107 1 12.9486 31.2412 0
108 1 77.3514 5.09944 0
109 1 35.1839 41.2929 0
110 2 65.1578 25.4119 0
111 1 65.2501 15.9031 0
112 1 32.8955 75.1213 0
113 2 77.1878 62.0281 0
114 2 73.4054 29.1546 0
115 2 31.0626 13.1427 0
116 2 74.958 55.1554 0
117 1 15.7135 46.6286 0
118 2 45.972 26.2127 0
119 1 59.1864 74.8432 0
120 2 5.14682 49.773 0
121 1 8.24941 2.99914 0
122 1 23.3667 34.0268 0
123 2 5.29616 15.8148 0
124 1 45.4673 57.7138 0
125 1 33.1327 27.2015 0
126 1 58.6576 51.9962 0
127 1 4.15602 58.6414 0
128 1 13.9664 21.2801 0
129 1 17.5252 51.3752 0
130 1 6.01205 1.63962 0
131 1 62.1123 22.2836 0
132 2 32.1945 39.4301 0
133 2 51.5464 8.776 0
134 1 67.999 54.5892 0
135 1 32.5357 31.2603 0
136 2 55.6056 47.3718 0
137 1 61.9155 56.6583 0
138 2 73.7383 49.5395 0
139 1 65.7383 27.0682 0
140 1 2.00437 23.4052 0
141 2 46.7921 65.6364 0
142 1 3.38818 21.7463 0
143 2 43.9559 69.0816 0
144 2 45.2513 75.3518 0
145 2 17.5806 49.7014 0
146 1 54.3042 3.77276 0
147 1 8.04511 36.666 0
148 1 46.8376 55.5759 0
149 2 69.286 50.3093 0
150 1 33.687 55.7756 0
151 2 29.9876 10.7691 0
152 1 48.9046 63.9167 0
153 2 17.9825 44.3486 0
154 2 33.3355 74.3192 0
155 1 72.8261 49.5741 0
156 1 43.8846 10.5396 0
157 1 49.0989 70.8032 0
158 1 59.3116 66.9563 0
159 2 11.8956 26.0203 0
160 1 38.0939 17.8046 0
161 1 6.67311 65.8006 0
162 2 1.63464 24.1575 0
163 1 32.011 26.5961 0
164 1 61.509 26.0632 0
165 1 74.3198 30.9723 0
166 1 3.34059 43.4286 0
167 1 41.0903 1.05148 0
168 1 33.9335 74.9783 0
169 1 54.7293 28.8924 0
170 1 57.5928 2.37113 0
171 2 35.835 63.0867 0
172 2 33.0736 53.2381 0
173 2 43.8926 25.175 0
174 2 29.4232 54.4677 0
175 2 33.7775 25.6812 0
176 1 45.2607 17.8677 0
177 1 19.7443 59.862 0
178 1 61.6122 61.7813 0
179 1 67.9157 25.3761 0
180 2 34.9503 40.4576 0
181 1 46.7983 26.4204 0
182 1 61.8497 58.9787 0
183 2 9.5944 35.9033 0
184 1 7.67217 65.4755 0
185 2 67.0034 30.9899 0
186 1 58.2081 31.301 0
187 1 38.9398 45.789 0
188 1 58.2706 47.5128 0
189 2 64.7386 52.202 0
190 1 22.4874 5.73336 0
191 1 68.7535 5.05571 0
192 1 62.5969 9.41656 0
193 2 12.6966 40.2958 0
194 2 68.5863 68.3229 0
195 1 11.0365 2.89591 0
196 2 48.8277 52.7041 0
197 2 20.8402 9.30389 0
198 1 16.1643 59.5676 0
199 2 71.9044 65.2647 0
200 1 58.9665 26.7164 0
201 2 34.6953 6.45178 0
202 2 75.6898 53.4502 0
203 1 51.8704 65.4541 0
204 1 28.4553 4.53279 0
205 1 55.0705 19.8693 0
206 2 35.6037 38.0356 0
207 2 16.5583 7.64266 0
208 1 34.1858 14.0362 0
209 1 13.1504 10.8057 0
210 2 6.31809 20.6055 0
211 1 15.7744 8.04382 0
212 2 23.4688 8.52067 0
213 2 56.4756 27.0012 0
214 1 72.0905 60.0119 0
215 2 69.9658 23.4511 0
216 1 22.2936 73.4187 0
217 1 58.5233 33.2905 0
218 2 56.9392 58.0216 0
219 2 68.2352 40.729 0
220 2 41.3867 63.1708 0
221 1 15.354 40.857 0
222 1 47.1292 15.9333 0
223 2 38.2855 68.0729 0
224 2 29.3125 68.0187 0
225 1 31.0334 24.5908 0
226 2 68.2722 56.4766 0
227 2 8.54495 13.6493 0
228 1 32.7899 11.2638 0
229 1 66.9703 28.1591 0
230 1 35.8952 74.7857 0
231 1 12.0991 33.8558 0
232 1 43.4052 11.765 0
233 1 34.6414 8.35811 0
234 1 75.2506 7.15633 0
235 1 60.7484 59.1875 0
236 2 44.3179 70.24 0
237 1 76.5475 63.8197 0
238 2 9.66204 22.4225 0
239 1 56.7221 4.8374 0
240 2 61.5826 45.6507 0
241 1 48.005 68.0471 0
242 1 15.7631 30.4699 0
243 1 7.18815 57.9863 0
244 1 60.4828 64.5201 0
245 1 10.4584 30.3202 0
246 1 1.67386 35.9192 0
247 1 65.5606 52.1106 0
248 1 9.58159 0.610177 0
249 2 51.3791 40.967 0
250 1 30.5833 10.1509 0
251 2 58.471 50.0501 0
252 2 67.2004 23.5946 0
253 1 19.0425 18.1735 0
254 1 52.1043 22.3103 0
255 1 67.0022 43.352 0
256 1 32.6379 3.92725 0
257 1 22.0024 56.9899 0
258 1 24.8184 39.9807 0
259 1 55.6046 56.693 0
260 2 46.895 54.7012 0
261 2 25.597 61.5532 0
262 1 24.8401 32.4475 0
263 2 15.0254 33.483 0
264 2 71.2328 59.5937 0
265 1 75.641 47.4799 0
266 1 38.0755 45.1017 0
267 2 61.1015 24.47 0
268 2 57.3702 45.1919 0
269 1 48.9695 21.8782 0
270 2 7.77576 47.5666 0
271 2 23.9664 35.6326 0
272 2 20.2678 16.5458 0
273 1 15.4795 64.8147 0
274 1 34.3018 47.2822 0
275 1 7.16659 48.12 0
276 1 73.8725 10.2768 0
277 2 16.267 70.5371 0
278 1 7.16666 12.9497 0
279 1 3.04296 44.3769 0
280 1 19.4611 38.2792 0
281 1 30.7632 37.3785 0
282 2 75.7717 31.9071 0
283 1 1.82468 55.3125 0
284 2 55.506 36.6931 0
285 1 71.4632 52.8341 0
286 1 11.9252 62.0508 0
287 1 20.4255 75.311 0
288 2 74.6389 6.47654 0
289 2 21.8906 39.8591 0
290 2 68.5441 1.68901 0
291 1 33.0403 26.1103 0
292 1 28.4135 56.4242 0
293 1 47.6079 19.4795 0
294 1 39.4152 2.8797 0
295 1 69.4563 4.14581 0
296 2 72.2352 7.7824 0
297 1 40.3059 59.2036 0
298 1 68.2051 32.9037 0
299 2 49.085 37.9085 0
300 1 41.0683 44.2078 0
301 1 74.7972 18.0014 0
302 1 51.7326 35.7933 0
303 1 22.1361 32.544 0
304 1 59.4743 70.1546 0
305 2 58.585 75.704 0
306 1 64.0252 52.7577 0
307 2 74.0412 36.4285 0
308 1 41.6254 4.835 0
309 2 24.2935 17.4176 0
310 2 13.6632 16.6228 0
311 1 27.7291 48.7897 0
312 1 67.4543 64.4661 0
313 1 74.2827 0.465093 0
314 1 43.379 47.0658 0
315 2 56.7631 28.7855 0
316 2 38.004 61.6283 0
317 1 49.7695 21.1716 0
318 2 7.4414 30.9297 0
319 1 31.9218 23.7324 0
320 1 36.5965 63.5045 0
321 1 56.7602 69.949 0
322 2 75.3889 9.07091 0
323 2 24.6143 62.9093 0
324 1 66.4467 40.069 0
325 1 42.6395 4.8419 0
326 1 12.0936 55.9973 0
327 1 51.1227 57.4547 0
328 1 0.502353 37.0157 0
329 1 43.631 44.4734 0
330 2 52.9736 34.666 0
331 2 64.4522 76.1014 0
332 1 60.7287 30.3727 0
333 1 37.8308 13.3255 0
334 1 19.3623 35.5888 0
335 1 21.0392 37.7596 0
336 2 70.3189 77.1999 0
337 1 35.4566 34.4892 0
338 2 16.8536 0.760282 0
339 1 43.2208 67.2344 0
340 1 16.4641 58.5894 0
341 2 72.8722 43.7532 0
342 1 65.2417 6.91955 0
343 2 57.2302 49.628 0
344 2 22.0493 64.1035 0
345 1 10.0879 25.8482 0
346 1 17.8491 70.9579 0
347 1 34.1713 54.4705 0
348 1 57.9672 16.476 0
349 1 34.3862 19.9011 0
350 1 39.2752 29.9139 0
351 1 16.4118 51.2806 0
352 1 48.609 35.6562 0
353 1 74.9332 30.1216 0
354 2 25.8704 27.2575 0
355 2 41.7871 21.3198 0
356 2 12.2606 6.31727 0
357 1 68.226 67.0636 0
358 1 21.982 2.82177 0
359 1 24.2451 15.6599 0
360 2 47.6487 29.8497 0
361 2 48.5412 68.7019 0
362 1 25.9615 73.1532 0
363 2 32.5399 70.9386 0
364 1 16.4877 66.3315 0
365 2 9.09514 56.3091 0
366 1 25.668 49.9475 0
367 2 23.537 24.0127 0
368 2 52.2198 55.0938 0
369 2 64.4164 71.5331 0
370 1 3.10495 25.1524 0
371 1 44.0489 72.8548 0
372 2 39.64 9.96201 0
373 1 9.46127 30.6976 0
374 2 67.2875 38.2368 0
375 1 53.1218 53.5787 0
376 2 77.0349 41.806 0
377 2 58.5315 36.2751 0
378 1 22.0413 61.5246 0
379 1 16.4439 21.6769 0
380 1 7.63608 61.6856 0
381 1 27.5644 25.2692 0
382 1 30.8663 26.531 0
383 1 10.9044 10.7343 0
384 1 34.2246 51.2753 0
385 1 25.5156 1.02999 0
386 1 53.4427 40.1361 0
387 1 57.6136 75.9014 0
388 2 56.7731 56.6195 0
389 1 24.6209 55.9828 0
390 1 29.3094 13.4774 0
391 2 60.2503 23.4665 0
392 2 33.4136 5.62321 0
393 2 39.4663 66.5845 0
394 1 13.1855 75.1598 0
395 1 54.8954 22.8872 0
396 1 12.1977 70.423 0
397 1 48.4496 18.8413 0
398 1 45.2741 70.4096 0
399 1 73.1615 21.3201 0
400 1 58.424 76.6326 0
401 1 46.4707 14.4116 0
402 2 53.9013 11.9872 0
403 1 38.5059 52.1713 0
404 1 68.8086 72.5744 0
405 2 75.7114 0.428059 0
406 1 33.8225 18.8081 0
407 2 44.4807 21.4232 0
408 1 67.0195 25.8931 0
409 1 22.85 59.9723 0
410 2 67.6826 15.4958 0
411 2 66.1736 35.0892 0
412 1 60.8753 39.0534 0
413 1 6.08903 36.8923 0
414 1 69.7755 49.5079 0
415 1 6.371 42.1415 0
416 2 76.1329 63.0628 0
417 2 73.5461 13.6065 0
418 1 53.0949 28.6399 0
419 2 57.3935 46.9207 0
420 2 25.5272 54.4382 0
421 1 62.4119 14.1199 0
422 1 0.242584 69.5718 0
423 1 6.62239 10.489 0
424 1 62.6558 23.1985 0
425 1 59.4825 50.3556 0
426 1 54.9049 75.6344 0
427 2 39.4447 12.6984 0
428 1 52.2915 51.6475 0
429 1 59.7265 69.0847 0
430 1 36.4588 38.0265 0
431 1 76.9986 29.8327 0
432 1 64.2182 50.1741 0
433 1 30.3867 69.64 0
434 1 1.53168 42.2634 0
435 1 63.386 30.9435 0
436 2 70.5881 39.1105 0
437 2 43.2565 60.9817 0
438 1 37.1842 61.8371 0
439 2 44.0174 14.4813 0
440 1 44.55 45.1911 0
441 2 69.9467 14.1606 0
442 1 8.56248 35.7025 0
443 1 53.7686 17.4462 0
444 1 15.9923 0.797409 0
445 2 70.1064 69.3844 0
446 1 63.3891 41.6925 0
447 1 25.8739 68.9585 0
448 1 47.4299 39.0281 0
449 1 37.8233 74.0361 0
450 2 47.2941 60.0102 0
451 2 5.71337 61.8184 0
452 1 62.9992 12.4934 0
453 1 25.3465 77.4379 0
454 2 60.6199 26.1738 0
455 2 27.7782 67.1691 0
456 1 9.85927 43.9245 0
457 2 17.4278 2.07663 0
458 1 35.2059 76.5133 0
459 2 19.45 55.1457 0
460 1 4.35158 3.94179 0
461 2 30.836 28.9067 0
462 1 48.0665 25.5162 0
463 1 74.9516 71.7871 0
464 1 8.04315 50.0121 0
465 2 40.4266 46.0889 0
466 1 22.5308 12.4347 0
467 2 11.417 0.639443 0
468 1 19.9066 39.2282 0
469 1 5.61431 0.684835 0
470 1 63.4387 10.0911 0
471 2 72.9323 40.1802 0
472 1 23.2101 44.3837 0
473 1 60.7919 66.2882 0
474 1 31.551 54.0323 0
475 1 23.8603 60.4122 0
476 2 42.4419 32.7707 0
477 1 57.4032 12.4268 0
478 2 27.2292 75.9005 0
479 1 32.7668 22.0325 0
480 1 19.9069 27.7471 0
481 1 8.83 16.6696 0
482 1 12.7319 25.9405 0
483 2 0.737368 76.7135 0
484 1 15.522 36.4444 0
485 1 20.9577 53.0573 0
486 1 8.36482 4.30303 0
487 2 68.4225 8.99832 0
488 1 58.8245 5.83635 0
489 1 51.1324 17.8977 0
490 1 35.3047 33.3699 0
491 1 30.6506 40.7641 0
492 2 60.8433 9.39891 0
493 1 72.8906 8.3515 0
494 1 64.6025 30.6057 0
495 2 25.0154 49.3185 0
496 2 52.1533 44.068 0
497 2 43.2332 5.4891 0
498 1 23.9225 25.9728 0
499 1 34.4899 0.609997 0
500 1 3.50227 3.2731 0
501 2 45.5323 45.2756 0
502 1 18.7745 25.1478 0
503 1 48.6702 9.93932 0
504 1 37.2701 33.7656 0
505 2 24.7375 0.740147 0
506 2 17.1529 65.7744 0
507 1 42.704 38.1858 0
508 1 12.4491 32.1394 0
509 1 28.8526 20.3029 0
510 1 5.57241 38.6457 0
511 1 68.6224 28.5675 0
512 1 55.2222 53.305 0
513 1 13.082 33.5723 0
514 1 25.4521 63.29 0
515 2 58.1481 9.41278 0
516 2 11.8352 37.0095 0
517 2 76.8066 76.748 0
518 2 21.4582 54.5886 0
519 2 31.7818 76.5202 0
520 1 74.947 35.3884 0
521 1 42.0181 25.755 0
522 2 24.4918 65.5909 0
523 1 73.9601 11.7561 0
524 1 67.449 30.2787 0
525 1 23.6486 2.16683 0
526 2 75.3134 22.9012 0
527 1 48.3515 29.1961 0
528 2 72.7276 3.65554 0
529 2 34.982 48.1035 0
530 1 5.82719 58.4988 0
531 2 72.8847 71.3552 0
532 2 30.3467 61.6257 0
533 1 72.1252 2.06812 0
534 1 35.7423 25.9964 0
535 1 26.7802 19.0885 0
536 1 32.5357 67.1502 0
537 1 35.8967 48.3112 0
538 2 21.0725 23.7715 0
539 2 44.2753 76.3369 0
540 1 60.3121 41.6442 0
541 2 26.4208 9.76911 0
542 1 52.0485 58.0329 0
543 2 70.8291 55.444 0
544 2 49.1598 13.3466 0
545 1 30.1653 24.0174 0
546 1 37.3809 1.96643 0
547 1 11.2332 14.5273 0
548 2 25.1712 3.55676 0
549 2 67.2216 21.7239 0
550 2 4.89493 39.189 0
551 1 31.6092 7.61659 0
552 2 72.4821 38.7839 0
553 2 29.8039 42.4725 0
554 1 52.354 61.0606 0
555 1 50.0146 57.7809 0
556 1 68.3945 69.2544 0
557 1 62.9951 53.7735 0
558 1 2.91254 69.0239 0
559 1 70.4452 36.0183 0
560 2 24.7016 60.4023 0
561 1 5.96919 3.47028 0
562 2 2.85875 10.8833 0
563 2 54.5235 48.8283 0
564 1 69.38 68.7055 0
565 2 20.3029 2.1921 0
566 2 21.545 22.3382 0
567 1 49.8235 43.1362 0
568 2 23.3531 75.0852 0
569 2 17.3674 28.0301 0
570 1 70.9231 31.6759 0
571 1 1.94171 2.77859 0
572 2 7.53533 51.9298 0
573 2 77.0542 43.7706 0
574 1 3.44183 67.3999 0
575 1 17.3053 5.84521 0
576 1 14.4258 61.3953 0
577 1 43.9495 51.7617 0
578 2 66.41 32.376 0
579 2 44.9655 67.6251 0
580 1 62.1149 42.8643 0
581 1 6.74049 60.161 0
582 2 70.0261 58.0759 0
583 2 64.2337 59.3331 0
584 2 34.2179 65.1688 0
585 1 61.3696 76.5031 0
586 1 47.867 59.26 0
587 2 14.1894 24.5902 0
588 1 47.663 6.42144 0
589 2 53.0216 10.8373 0
590 1 22.3325 71.7476 0
591 1 54.3543 8.20691 0
592 1 47.9827 73.8392 0
593 1 44.7394 14.112 0
594 1 59.723 62.8256 0
595 1 73.7808 63.1583 0
596 2 6.58386 1.00892 0
597 1 3.08003 45.6135 0
598 1 67.77 8.4285 0
599 1 3.25308 50.5692 0
600 1 77.1021 48.4413 0
601 2 42.8138 37.3931 0
602 1 64.6857 13.0547 0
603 2 73.4873 52.1893 0
604 2 58.2892 19.1981 0
605 1 51.5712 68.4349 0
606 1 39.6294 3.88604 0
607 1 75.6823 2.14425 0
608 2 0.89916 39.5153 0
609 2 40.2405 76.929 0
610 1 8.57369 49.1197 0
611 1 55.142 58.3806 0
612 1 74.278 4.59763 0
613 1 76.8794 20.6552 0
614 2 49.6741 28.1479 0
615 1 36.6232 39.7245 0
616 1 38.3243 15.152 0
617 1 67.6538 1.81 0
618 2 11.6075 42.5059 0
619 2 52.9509 42.9455 0
620 2 73.4566 75.9086 0
621 2 57.0243 33.7439 0
622 1 60.6847 18.046 0
623 1 37.9969 11.4765 0
624 2 21.3998 51.2057 0
625 1 26.2512 74.225 0
626 1 73.6973 30.0526 0
627 2 3.25954 26.0544 0
628 1 26.3074 56.3007 0
629 2 75.9086 25.4455 0
630 1 26.6562 72.3573 0
631 1 56.6795 35.6057 0
632 1 20.9683 64.0847 0
633 2 25.6533 72.3028 0
634 1 18.507 48.4062 0
635 2 43.6623 45.3476 0
636 2 36.158 41.3112 0
637 1 12.0295 10.9073 0
638 1 65.7578 40.801 0
639 1 67.5622 46.2702 0
640 1 2.15461 53.11 0
641 1 36.5188 34.6245 0
642 1 10.6286 32.0746 0
643 1 51.3822 45.7492 0
644 2 19.3622 30.0727 0
645 1 57.6613 52.1583 0
646 1 48.1333 45.6696 0
647 2 25.2642 8.33943 0
648 1 63.774 17.6539 0
649 2 9.00102 66.6799 0
650 2 45.8649 62.2569 0
651 1 49.0658 14.2646 0
652 1 28.1014 70.874 0
653 2 17.9952 23.2974 0
654 2 11.4246 2.13856 0
655 1 4.8936 51.3385 0
656 1 74.5265 53.6499 0
657 1 32.6034 47.2628 0
658 1 74.4605 13.5589 0
659 2 1.98038 68.878 0
660 1 26.3207 36.358 0
661 1 37.3431 10.6665 0
662 1 30.6388 60.7724 0
663 1 10.1267 26.8635 0
664 1 57.471 77.0725 0
665 2 48.3577 76.0825 0
666 2 12.323 59.4501 0
667 1 23.97 72.1383 0
668 2 7.51631 75.355 0
669 1 5.17922 9.57379 0
670 2 45.4088 38.5881 0
671 2 37.2239 18.0501 0
672 1 10.638 20.1704 0
673 1 8.67101 15.5394 0
674 1 32.2566 45.5438 0
675 2 7.68389 58.7205 0
676 2 38.7028 6.61136 0
677 1 39.3598 53.9983 0
678 1 55.09 40.1403 0
679 1 46.7692 69.2167 0
680 1 32.1587 53.1719 0
681 1 24.3037 52.777 0
682 1 62.4002 59.9487 0
683 1 20.295 62.5455 0
684 1 64.0483 69.6039 0
685 2 35.7523 18.7868 0
686 1 51.9436 6.01827 0
687 1 41.2643 18.8301 0
688 2 52.8978 74.3137 0
689 1 71.9336 62.0768 0
690 1 65.5135 74.5572 0
691 1 41.0583 40.1849 0
692 2 61.0359 44.0543 0
693 1 74.137 76.8366 0
694 2 53.8034 63.8808 0
695 1 44.6625 12.0688 0
696 2 36.6947 48.6147 0
697 1 25.1022 13.0145 0
698 1 9.07618 3.55518 0
699 1 66.8867 16.4774 0
700 1 72.38 44.6784 0
701 1 60.0196 32.0292 0
702 1 62.8024 66.1132 0
703 2 71.3488 77.1968 0
704 2 7.63429 59.6403 0
705 2 6.55941 7.28394 0
706 1 52.8167 52.5265 0
707 2 60.9382 34.901 0
708 1 50.5094 44.7171 0
709 1 51.0149 73.8726 0
710 2 58.2904 24.8759 0
711 1 56.6709 54.1828 0
712 2 58.1008 32.4874 0
713 2 71.479 71.8563 0
714 2 75.7607 65.6398 0
715 1 45.7193 18.8523 0
716 1 0.183702 32.4911 0
717 1 29.3628 63.8666 0
718 1 15.6497 1.84157 0
719 1 55.7855 37.5525 0
720 2 50.1901 39.0613 0
721 2 66.6145 41.0265 0
722 1 48.3746 10.9282 0
723 2 37.4998 74.9122 0
724 2 9.9539 58.9545 0
725 1 51.9869 38.4333 0
726 1 5.64016 30.2421 0
727 2 12.6027 1.92111 0
728 1 67.4893 56.3289 0
729 2 22.1255 59.5486 0
730 1 32.909 28.4029 0
731 2 17.2896 36.728 0
732 1 18.3405 52.1669 0
733 1 32.1146 30.3108 0
734 2 65.3968 48.3586 0
735 1 66.1969 67.8535 0
736 1 48.4556 50.8277 0
737 2 0.680975 46.7968 0
738 1 14.6648 34.2849 0
739 1 17.4348 37.5467 0
740 1 49.2353 39.0207 0
741 2 58.0313 55.5616 0
742 1 58.6427 37.7375 0
743 1 27.9449 62.0516 0
744 2 72.1038 19.5605 0
745 1 22.9143 72.635 0
746 1 35.4819 11.1611 0
747 1 46.1149 75.1824 0
748 2 43.1883 70.6546 0
749 2 23.1628 26.3407 0
750 1 57.8342 35.8072 0
751 1 61.3778 40.0019 0
752 2 0.667515 71.2571 0
753 1 53.5539 39.047 0
754 2 19.8607 17.8953 0
755 1 23.8126 50.8026 0
756 2 48.1497 74.7071 0
757 1 46.1669 20.7427 0
758 1 6.27518 9.02275 0
759 1 61.8515 46.4324 0
760 1 12.5088 9.95484 0
761 1 67.9004 73.081 0
762 1 12.3863 58.6312 0
763 2 0.611644 5.52952 0
764 1 77.2805 57.4346 0
765 2 46.245 57.3353 0
766 1 71.5418 18.8379 0
767 1 12.1797 0.156354 0
768 1 65.1503 8.82706 0
769 1 62.5778 49.299 0
770 2 58.9931 70.962 0
771 1 18.0297 39.1771 0
772 1 43.0245 48.6556 0
773 1 42.7814 43.2071 0
774 2 35.2425 25.1677 0
775 1 74.2871 29.206 0
776 2 42.1027 41.2829 0
777 1 70.7401 53.6969 0
778 2 11.2062 60.3807 0
779 1 45.2713 26.768 0
780 1 18.5497 4.58734 0
781 1 30.202 34.6794 0
782 1 56.5629 64.9302 0
783 1 62.9817 34.4578 0
784 1 71.8536 50.166 0
785 2 8.27199 10.8907 0
786 1 71.9691 67.9631 0
787 1 21.74 64.8801 0
788 1 40.3311 54.3663 0
789 1 11.8643 3.80565 0
790 1 52.165 71.2967 0
791 1 47.5131 14.9939 0
792 1 9.6964 24.9047 0
793 1 26.0051 16.4631 0
794 2 72.9724 16.1127 0
795 2 75.5571 12.4133 0
796 2 74.4527 69.6872 0
797 1 44.0738 65.6298 0
798 1 39.165 17.8421 0
799 1 42.2792 76.3676 0
800 1 31.9196 70.2649 0
801 2 6.24864 28.4243 0
802 2 27.5125 45.2362 0
803 2 22.7742 76.3308 0
804 2 53.8425 36.0813 0
805 1 23.0366 70.9247 0
806 1 51.5887 72.2155 0
807 2 38.4417 53.0616 0
808 1 50.2236 49.3198 0
809 2 36.7924 61.1144 0
810 1 56.3851 77.0791 0
811 1 28.339 59.2539 0
812 2 60.5997 48.0486 0
813 2 45.9476 58.8125 0
814 1 55.1714 30.3026 0
815 2 41.1849 14.8513 0
816 1 27.2589 34.8072 0
817 1 67.5846 76.2823 0
818 2 36.5858 16.8553 0
819 2 44.7834 57.13 0
820 1 66.6086 70.7467 0
821 1 15.7177 60.5105 0
822 1 56.0709 0.599938 0
823 1 17.5008 56.8186 0
824 2 35.7795 44.0383 0
825 1 26.5829 40.8043 0
826 1 28.2836 72.7946 0
827 1 6.99909 28.0606 0
828 1 0.354313 50.7666 0
829 1 73.1511 39.3063 0
830 2 48.4771 65.6033 0
831 2 42.114 4.15515 0
832 1 71.7745 9.73123 0
833 1 24.9113 41.7659 0
834 2 47.3216 7.20425 0
835 1 68.4965 3.58023 0
836 1 57.4361 24.8931 0
837 1 57.1737 40.2176 0
838 1 38.2604 53.8688 0
839 1 17.2441 61.1803 0
840 2 13.4425 47.1654 0
841 1 36.5368 53.0252 0
842 2 12.0722 62.8745 0
843 1 4.26744 41.9863 0
844 1 65.143 19.9164 0
845 2 27.1425 2.85902 0
846 1 48.8132 40.0906 0
847 1 11.0415 57.6661 0
848 2 69.8236 48.6387 0
849 1 71.8955 8.5963 0
850 1 69.8401 20.7691 0
851 1 40.3951 18.1338 0
852 1 11.98 1.27882 0
853 1 41.5636 63.9783 0
854 1 36.4253 69.7403 0
855 1 39.411 25.0654 0
856 2 17.2616 39.71 0
857 1 55.639 32.336 0
858 2 34.333 30.425 0
859 1 14.9007 65.6721 0
860 2 2.25898 58.9115 0
861 2 62.0074 40.5483 0
862 2 3.1734 68.201 0
863 1 59.3752 23.3966 0
864 1 61.3712 53.3485 0
865 2 65.5587 68.3922 0
866 1 61.5027 16.1017 0
867 2 34.7162 22.4227 0
868 1 35.135 62.3294 0
869 1 64.3919 19.2096 0
870 1 0.42533 51.8449 0
871 1 62.9053 21.4922 0
872 1 42.9293 51.4435 0
873 1 49.5739 61.3028 0
874 1 4.34866 71.5526 0
875 1 34.5379 58.4866 0
876 2 48.3139 8.269 0
877 1 14.5048 54.9274 0
878 2 14.8386 17.8272 0
879 1 76.7752 10.3802 0
880 2 30.9363 34.314 0
881 2 52.7209 30.3661 0
882 2 46.2111 74.3235 0
883 1 26.1947 15.4353 0
884 1 57.179 38.543 0
885 1 38.6677 4.38609 0
886 1 34.1601 61.7971 0
887 2 55.6386 50.2254 0
888 1 2.18897 0.105563 0
889 2 59.964 49.3625 0
890 2 10.9541 25.673 0
891 1 37.9428 9.03798 0
892 1 38.5825 72.0386 0
893 1 29.9821 50.0633 0
894 1 0.392329 11.5717 0
895 2 33.2721 51.6141 0
896 1 37.7634 4.91866 0
897 2 35.646 17.2182 0
898 1 32.5031 42.8398 0
899 1 1.33545 74.0941 0
900 2 38.6334 76.191 0
901 1 53.5269 42.3233 0
902 1 24.2607 75.0359 0
903 1 37.7449 42.4428 0
904 2 74.6792 38.1939 0
905 1 63.2698 62.8089 0
906 1 67.9356 45.3303 0
907 1 2.71293 28.519 0
908 1 50.2815 23.5002 0
909 1 1.51696 48.5169 0
910 2 2.48072 50.9266 0
911 2 4.66457 5.01474 0
912 2 37.2364 32.8527 0
913 2 30.0422 49.043 0
914 1 17.5919 13.318 0
915 2 68.2595 4.38136 0
916 1 2.77778 39.8673 0
917 2 4.37012 33.0001 0
918 2 20.3211 38.287 0
919 1 10.3508 56.2251 0
920 1 13.5439 46.2942 0
921 1 77.018 27.0157 0
922 2 45.5324 21.313 0
923 2 12.7649 23.3945 0
924 1 40.7902 17.1827 0
925 1 65.8103 46.7593 0
926 2 36.0906 36.3576 0
927 1 66.9098 0.372825 0
928 1 52.6512 59.0167 0
929 2 52.1991 32.9356 0
930 2 18.8127 17.377 0
931 1 42.3017 46.7613 0
932 1 67.4063 36.6285 0
933 1 35.7112 20.622 0
934 1 2.3392 62.4111 0
935 1 12.9961 52.1999 0
936 2 40.137 5.61929 0
937 1 11.5223 73.212 0
938 1 38.8602 67.3647 0
939 2 51.4493 51.7146 0
940 1 73.9404 47.016 0
941 1 2.08048 17.4654 0
942 1 41.6666 28.028 0
943 2 21.7255 14.0544 0
944 2 0.83108 41.1663 0
945 1 40.3734 24.7345 0
946 1 63.7457 67.8085 0
947 2 22.7881 2.33812 0
948 1 37.5392 69.5609 0
949 1 28.4695 10.0274 0
950 2 6.04481 9.84578 0
951 1 68.9921 65.1369 0
952 2 52.3958 3.94328 0
953 2 5.49126 44.8207 0
954 2 27.9891 60.3465 0
955 1 26.7304 39.7653 0
956 2 61.5821 14.2277 0
957 1 47.6708 23.1283 0
958 2 21.7417 6.19763 0
959 2 71.8983 27.3984 0
960 2 29.1229 66.7991 0
961 1 48.9447 55.4116 0
962 1 23.9749 1.16338 0
963 1 18.6862 11.824 0
964 2 9.31284 9.43842 0
965 2 54.7902 54.2845 0
966 1 2.18684 63.5065 0
967 1 50.3355 34.262 0
968 1 17.3325 75.4981 0
969 1 57.5814 22.2568 0
970 2 23.1137 4.97063 0
971 1 23.8949 16.6289 0
972 1 6.89204 25.7781 0
973 1 76.2079 36.8673 0
974 2 76.2132 33.11 0
975 2 73.0685 66.0875 0
976 2 35.2633 19.8828 0
977 1 37.6842 63.3735 0
978 2 5.16994 1.68153 0
979 2 35.3243 64.8625 0
980 1 74.8739 14.7699 0
981 1 75.1769 57.8817 0
982 1 8.51874 53.865 0
983 1 19.6651 26.7274 0
984 1 8.44558 56.8963 0
985 1 35.9598 12.0124 0
986 1 36.83 51.9779 0
987 2 19.2569 12.5292 0
988 2 43.2166 34.3982 0
989 2 10.7175 32.9021 0
990 2 72.2857 53.1657 0
991 2 48.2064 14.3077 0
992 1 64.8414 33.3599 0
993 2 31.023 4.08636 0
994 2 3.43827 54.4699 0
995 1 39.0531 22.3148 0
996 2 55.512 57.5726 0
997 2 44.1056 33.0786 0
998 2 55.7417 74.0282 0
999 2 42.6385 26.3041 0
1000 2 0.477448 48.1961 0
1001 1 40.922 67.1678 0
1002 1 25.9046 32.6404 0
1003 1 10.5133 54.1858 0
1004 1 7.96271 18.2033 0
1005 2 10.121 24.1514 0
1006 2 66.6565 59.6817 0
1007 1 19.7545 20.0297 0
1008 1 50.2275 18.4856 0
1009 1 31.1908 32.7497 0
1010 1 8.74964 43.1398 0
1011 2 12.0929 21.7319 0
1012 2 5.4522 23.4498 0
1013 2 65.5827 58.2166 0
1014 1 76.0876 14.4014 0
1015 1 73.475 9.27715 0
1016 1 37.4282 49.1356 0
1017 2 70.8655 54.5103 0
1018 1 26.6849 26.8864 0
1019 1 44.0847 29.5745 0
1020 2 29.9178 7.37644 0
1021 2 19.7976 21.8554 0
1022 1 4.09372 62.8213 0
1023 1 42.8348 9.12401 0
1024 1 8.47218 69.4775 0
1025 1 39.8795 67.3452 0
1026 1 8.9777 41.2059 0
1027 1 45.6335 3.11247 0
1028 1 0.971506 30.4641 0
1029 1 47.9613 20.4697 0
1030 2 47.537 48.9721 0
1031 2 37.2862 38.1061 0
1032 1 14.2837 70.7484 0
1033 1 60.4658 16.3343 0
1034 1 36.6689 30.8771 0
1035 1 63.4031 28.235 0
1036 2 71.0741 46.6936 0
1037 1 28.5887 71.7725 0
1038 1 66.8596 60.7537 0
1039 1 4.39485 32.0654 0
1040 2 65.026 38.7433 0
1041 1 35.779 66.4601 0
1042 2 61.5057 68.5735 0
1043 2 61.1866 58.4351 0
1044 1 73.6254 22.7053 0
1045 1 68.112 23.5605 0
1046 1 40.5322 68.1309 0
1047 2 8.96405 49.9126 0
1048 1 51.5855 0.123445 0
1049 1 60.8602 48.8857 0
1050 2 44.987 5.6295 0
1051 1 42.9994 29.6075 0
1052 1 65.5885 44.0141 0
1053 2 31.2281 18.4023 0
1054 1 53.0118 5.76279 0
1055 2 32.7544 44.9021 0
1056 2 14.3243 44.5726 0
1057 1 11.0007 68.3337 0
1058 1 27.0029 7.57386 0
1059 1 11.3002 74.3441 0
1060 2 20.0084 41.681 0
1061 1 14.457 22.279 0
1062 2 16.5909 38.0749 0
1063 1 75.2096 68.9848 0
1064 1 27.1468 5.80243 0
1065 2 29.0978 50.1482 0
1066 1 36.5473 47.4463 0
1067 1 12.9831 7.86908 0
1068 2 36.9059 67.745 0
1069 1 67.9308 27.6024 0
1070 2 8.45858 34.8275 0
1071 2 51.3952 44.8797 0
1072 2 10.3994 50.0351 0
1073 2 15.2594 3.58072 0
1074 2 34.3611 43.0256 0
1075 1 76.2544 50.0211 0
1076 1 41.3521 7.88411 0
1077 1 43.8469 35.0234 0
1078 2 66.8417 25.0796 0
1079 2 42.0563 9.52037 0
1080 2 28.9316 70.7188 0
1081 2 44.792 49.386 0
1082 2 4.9273 27.391 0
1083 2 20.6455 18.2105 0
1084 1 43.879 58.8632 0
1085 1 19.9339 50.0963 0
1086 1 69.3207 70.8312 0
1087 1 30.0767 72.3655 0
1088 1 45.203 64.1327 0
1089 2 8.87741 31.3671 0
1090 1 42.8524 35.1799 0
1091 2 25.9781 17.2664 0
1092 1 64.2453 54.9378 0
1093 1 64.3865 28.7819 0
1094 2 44.1818 55.4317 0
1095 1 24.4029 69.873 0
1096 2 48.4339 21.1955 0
1097 1 0.166821 15.1354 0
1098 1 62.8306 44.5975 0
1099 1 33.0949 2.97236 0
1100 1 73.178 6.10263 0
1101 1 74.6977 12.5456 0
1102 1 23.8686 73.1885 0
1103 1 50.6026 71.7531 0
1104 1 47.1865 57.3357 0
1105 1 47.7228 41.3934 0
1106 1 15.3336 70.3469 0
1107 2 43.0977 62.8098 0
1108 1 54.2406 29.8662 0
1109 1 72.2491 26.6719 0
1110 2 13.061 15.297 0
1111 1 4.02024 56.5769 0
1112 1 6.23597 18.1592 0
1113 2 73.3901 7.49825 0
1114 2 16.7328 55.114 0
1115 2 33.4988 47.5852 0
1116 1 76.6556 65.5797 0
1117 1 68.4328 55.5487 0
1118 1 15.0239 76.446 0
1119 2 9.72571 64.3143 0
1120 1 39.9765 57.156 0
1121 2 20.5088 61.6983 0
1122 1 32.8493 32.6728 0
1123 2 23.3997 52.699 0
1124 1 51.552 62.5181 0
1125 2 15.2588 5.14547 0
1126 2 18.4117 18.7615 0
1127 1 75.9343 27.1794 0
1128 1 70.0994 54.9403 0
1129 1 59.8286 39.4249 0
1130 1 31.1132 45.6929 0
1131 1 66.8693 15.4619 0
1132 2 74.2586 64.8871 0
1133 2 56.2796 21.4448 0
1134 2 20.3639 71.457 0
1135 1 75.2733 70.0395 0
1136 2 49.8126 26.4909 0
1137 1 51.3084 60.8947 0
1138 1 30.9595 14.0448 0
1139 2 58.3251 52.8485 0
1140 2 9.17836 23.1789 0
1141 1 75.3229 67.9572 0
1142 1 28.2991 49.7238 0
1143 1 48.7939 44.9218 0
1144 2 59.8154 14.7847 0
1145 1 35.9883 60.6912 0
1146 1 16.514 18.8002 0
1147 1 29.6252 24.9327 0
1148 1 7.68 38.3969 0
1149 1 58.2636 27.5224 0
1150 2 65.0633 61.977 0
1151 1 20.4352 7.39854 0
1152 1 60.6352 51.656 0
1153 1 77.0538 33.3398 0
1154 1 12.1438 2.77648 0
1155 2 60.3825 17.1692 0
1156 1 48.5114 34.5474 0
1157 1 12.673 19.8905 0
1158 2 59.1276 47.8297 0
1159 2 4.10581 66.4877 0
1160 1 36.2395 10.3439 0
1161 2 43.1163 56.8186 0
1162 1 16.8672 12.3619 0
1163 2 12.0781 69.5793 0
1164 1 23.2525 57.191 0
1165 1 18.3827 46.2559 0
1166 2 17.3739 53.3708 0
1167 1 30.4969 20.7458 0
1168 1 55.4766 64.627 0
1169 1 18.3423 64.3823 0
1170 2 6.05431 33.3173 0
1171 1 53.2067 36.7953 0
1172 1 21.4418 7.074 0
1173 1 50.1652 63.3873 0
1174 1 41.7753 32.2713 0
1175 2 62.8695 46.2339 0
1176 1 68.9115 38.2639 0
1177 1 48.9664 69.4574 0
1178 2 61.9799 47.3477 0
1179 1 69.9933 31.4085 0
1180 1 49.3251 17.8074 0
1181 1 55.3877 21.6718 0
1182 1 59.6823 72.7381 0
1183 2 42.2553 71.9661 0
1184 2 26.9154 20.7719 0
1185 1 18.4072 61.4118 0
1186 1 49.4795 50.9822 0
1187 1 75.8766 73.107 0
1188 2 3.03659 36.9558 0
1189 1 60.0781 65.3935 0
1190 1 30.8079 49.4035 0
1191 2 71.8119 6.87555 0
1192 1 23.756 46.3663 0
1193 1 47.2347 21.2079 0
1194 2 17.9576 15.1436 0
1195 1 73.2545 48.6475 0
1196 1 21.7346 48.1144 0
1197 1 37.7331 41.308 0
1198 1 61.9855 75.5917 0
1199 2 57.9723 62.4739 0
1200 1 28.6868 8.90369 0
1201 1 3.60523 72.3012 0
1202 1 6.30303 49.7494 0
1203 2 46.5994 15.2898 0
1204 1 58.2382 56.4394 0
1205 1 65.5443 53.1589 0
1206 1 51.7993 3.31626 0
1207 1 31.4131 63.3048 0
1208 1 75.1607 58.973 0
1209 2 65.1859 60.506 0
1210 1 67.1141 31.9037 0
1211 2 27.6105 36.8238 0
1212 1 34.2721 35.7865 0
1213 1 60.7644 68.1442 0
1214 1 61.2849 20.0335 0
1215 1 11.8758 72.1624 0
1216 1 12.4242 53.124 0
1217 2 70.2642 3.8499 0
1218 2 65.7553 19.3033 0
1219 1 30.7345 15.1551 0
1220 1 69.0967 18.0928 0
1221 1 62.3701 54.738 0
1222 2 70.7861 74.6247 0
1223 1 41.3296 48.134 0
1224 1 77.0244 36.0187 0
1225 1 4.64604 24.0375 0
1226 2 65.1526 65.6301 0
1227 1 39.5828 60.0313 0
1228 1 76.0419 71.5018 0
1229 2 49.9514 12.1422 0
1230 1 24.6572 50.0878 0
1231 2 51.068 18.7983 0
1232 1 69.6372 37.4969 0
1233 1 35.3889 57.8529 0
1234 1 76.1679 69.4293 0
1235 1 16.9834 45.1378 0
1236 1 50.6483 61.6965 0
1237 1 37.6036 20.6835 0
1238 1 25.0105 9.14714 0
1239 1 16.1621 22.6878 0
1240 1 24.5721 63.9288 0
1241 1 76.9883 62.8661 0
1242 1 31.0508 58.9309 0