ITEM: TIMESTEP
0
ITEM: NUMBER OF ATOMS
7200
ITEM: BOX BOUNDS xy xz yz pp pp pp
0.0000000000000000e+00 7.7459666924100006e+01 0.0000000000000000e+00
0.0000000000000000e+00 7.7459666924100006e+01 0.0000000000000000e+00
-1.2909944490000000e-01 1.2909944490000000e-01 0.0000000000000000e+00
ITEM: ATOMS id type x y z
1 1 14.2855 20.0421 0
2 1 14.1187 64.7967 0
3 1 75.0735 72.498 0
4 1 20.0645 8.75109 0
5 1 34.5716 58.1711 0
6 1 58.6705 27.6583 0
7 2 3.02217 6.60029 0
8 2 62.1498 48.9164 0
9 1 42.1183 56.5158 0
10 2 18.7428 14.9884 0
11 2 27.596 51.3961 0
12 1 52.9801 11.2358 0
13 2 24.3619 5.62956 0
14 1 46.6112 70.5405 0
15 1 41.0013 33.1909 0
16 1 18.2483 15.6899 0
17 1 30.9579 38.8101 0
18 1 33.362 7.3628 0
19 1 29.2089 55.7788 0
20 2 44.3535 3.44623 0
21 1 11.3753 66.1649 0
22 1 53.7257 9.78079 0
23 1 75.0624 46.198 0
24 1 55.9416 67.8132 0
25 1 5.95028 70.8131 0
26 1 20.4327 65.3722 0
27 2 31.3087 61.7106 0
28 1 51.2757 74.534 0
29 2 25.8238 46.8088 0
30 2 24.7557 30.6658 0
31 1 17.6768 52.7959 0
32 1 51.5246 38.6168 0
33 1 61.3159 48.3474 0
34 2 44.7556 12.1995 0
35 1 74.1828 64.5186 0
36 1 31.7655 58.585 0
37 1 22.4491 60.3935 0
38 1 49.4601 18.6717 0
39 1 23.5205 5.92545 0
40 2 23.0995 61.9731 0
41 2 19.2331 63.0278 0
42 1 18.6851 2.18658 0
43 1 18.2589 33.03 0
44 1 35.5936 65.3997 0
45 1 2.72328 33.7412 0
46 1 69.5084 9.26095 0
47 1 75.9098 59.6485 0
48 1 42.2258 66.737 0
49 2 1.18049 3.2922 0
50 1 29.8956 67.0179 0
51 1 0.969628 10.8692 0
52 2 32.5746 25.1946 0
53 1 53.3128 18.1603 0
54 1 49.2633 30.9809 0
55 1 8.73668 1.19313 0
56 1 44.3932 27.0675 0
57 1 68.9412 42.2031 0
58 1 71.4587 71.2612 0
59 1 31.2509 76.2527 0
60 1 26.7055 1.73501 0
61 1 36.6724 72.6352 0
62 1 52.4334 45.052 0
63 1 56.0503 8.70201 0
64 1 51.7805 46.6978 0
65 1 68.3392 75.3284 0
66 2 55.8747 12.3642 0
67 2 41.0344 36.7834 0
68 2 3.20681 30.2424 0
69 1 62.5287 45.3778 0
70 1 7.53963 34.5716 0
71 2 7.44711 42.4574 0
72 1 1.24117 4.23116 0
73 1 6.53664 64.744 0
74 2 41.2837 22.8424 0
75 1 75.759 52.7379 0
76 1 19.6837 46.6068 0
77 1 24.7219 73.0225 0
78 1 6.07247 15.6698 0
79 1 9.51674 72.0187 0
80 1 42.6842 17.3875 0
81 1 53.0681 64.5414 0
82 2 44.4065 18.4778 0
83 1 6.18631 32.2123 0
84 1 33.4457 48.5273 0
85 1 34.6827 19.7299 0
86 2 34.4914 65.0575 0
87 1 68.3912 31.8438 0
88 1 18.6735 54.1919 0
89 1 27.8162 12.0194 0
90 1 37.5893 38.5251 0
91 2 45.1647 43.5363 0
92 2 39.5328 56.8414 0
93 1 26.7213 18.1571 0
94 1 33.0837 56.1389 0
95 2 41.1788 56.1521 0
96 1 60.5514 1.56637 0
97 1 43.3337 49.797 0
98 2 1.20855 60.2503 0
99 1 63.0051 48.9849 0
100 2 33.1564 30.8359 0
101 1 47.2546 54.063 0
102 1 58.4754 21.5721 0
103 1 57.0035 70.3165 0
104 1 4.80844 59.6017 0
105 2 38.8193 2.10096 0
106 2 29.4905 33.212 0
107 1 13.3706 31.8585 0
108 1 75.6091 3.98121 0
109 1 35.5467 41.1089 0
110 2 65.0692 26.8081 0
111 1 64.2596 14.646 0
112 1 33.5449 74.2708 0
113 2 77.292 61.6875 0
114 2 72.6971 27.3752 0
115 2 30.8419 12.5243 0
116 2 75.7038 53.611 0
117 1 15.9572 46.7758 0
118 2 46.1207 26.2048 0
119 1 59.8615 74.9392 0
120 2 4.62004 49.7086 0
121 1 5.91599 4.86316 0
122 1 22.1787 34.2749 0
123 2 5.55541 17.6556 0
124 1 46.9998 58.0078 0
125 1 32.5684 26.9272 0
126 1 58.7945 52.2439 0
127 1 5.19991 58.5651 0
128 1 15.1927 22.9554 0
129 1 18.539 52.0405 0
130 1 6.54576 2.62957 0
131 1 62.2373 24.6822 0
132 2 32.5959 39.8492 0
133 2 51.7535 9.71593 0
134 1 66.686 53.8705 0
135 1 32.3145 31.0079 0
136 2 55.1776 47.9292 0
137 1 62.1137 56.6292 0
138 2 72.5388 48.0288 0
139 1 66.5425 28.593 0
140 1 3.13475 23.9346 0
141 2 47.9818 63.6263 0
142 1 4.63293 22.2764 0
143 2 43.8049 68.9906 0
144 2 45.8541 75.6161 0
145 2 17.4726 51.9298 0
146 1 54.827 3.42154 0
147 1 8.02573 36.5981 0
148 1 46.8229 55.0027 0
149 2 69.3396 48.4235 0
150 1 32.7552 57.1086 0
151 2 29.5841 11.8894 0
152 1 49.4743 64.916 0
153 2 15.2391 44.9514 0
154 2 33.5369 75.1867 0
155 1 71.3187 49.5954 0
156 1 43.242 9.46832 0
157 1 49.027 71.5331 0
158 1 60.0373 67 0
159 2 10.6503 24.8616 0
160 1 38.1538 17.2004 0
161 1 6.66155 63.601 0
162 2 75.7972 23.7611 0
163 1 31.5269 26.6615 0
164 1 60.5603 28.3393 0
165 1 72.8201 28.1852 0
166 1 3.05367 44.9817 0
167 1 39.863 0.66082 0
168 1 35.0283 74.1494 0
169 1 55.19 30.9095 0
170 1 57.9353 2.09856 0
171 2 35.3578 62.577 0
172 2 34.3384 53.6117 0
173 2 43.5758 24.6472 0
174 2 28.3334 54.1284 0
175 2 32.1875 26.1592 0
176 1 45.2265 18.1445 0
177 1 20.2297 59.2395 0
178 1 62.1071 61.5734 0
179 1 65.5732 24.3521 0
180 2 35.4194 40.2505 0
181 1 45.5471 26.9471 0
182 1 62.2181 59.1347 0
183 2 10.6549 36.5729 0
184 1 6.42567 66.2402 0
185 2 67.1386 29.2712 0
186 1 58.1549 34.4528 0
187 1 39.373 47.33 0
188 1 57.8792 47.8163 0
189 2 63.9892 52.8571 0
190 1 21.8696 4.12906 0
191 1 69.3023 6.40815 0
192 1 63.8699 8.94429 0
193 2 11.1208 41.1325 0
194 2 69.3349 68.2977 0
195 1 10.5395 3.14558 0
196 2 49.0949 53.9706 0
197 2 20.0265 9.6269 0
198 1 17.4033 60.1399 0
199 2 72.5656 65.9441 0
200 1 59.5015 28.4319 0
201 2 32.5495 4.60982 0
202 2 74.6156 54.4761 0
203 1 52.4633 66.3037 0
204 1 27.5047 3.27592 0
205 1 53.7626 22.9781 0
206 2 36.0234 37.7969 0
207 2 14.7248 8.03754 0
208 1 33.9692 13.8519 0
209 1 12.9039 12.0643 0
210 2 5.46236 21.9246 0
211 1 16.4999 8.08385 0
212 2 22.9179 8.16084 0
213 2 57.7501 27.5686 0
214 1 72.31 60.4212 0
215 2 68.9624 20.9572 0
216 1 19.7959 73.7084 0
217 1 58.9784 35.1161 0
218 2 57.1203 58.4537 0
219 2 69.1979 41.3695 0
220 2 42.6119 63.4732 0
221 1 17.3734 41.7678 0
222 1 46.2952 13.7486 0
223 2 38.6319 68.7165 0
224 2 26.9437 67.963 0
225 1 33.1751 24.0185 0
226 2 68.0131 56.7784 0
227 2 8.11206 14.8761 0
228 1 33.1236 10.5934 0
229 1 70.5405 26.7095 0
230 1 35.3361 75.1942 0
231 1 11.2137 34.0062 0
232 1 43.2891 12.7159 0
233 1 34.1167 8.24655 0
234 1 75.5988 7.66135 0
235 1 61.0429 59.1266 0
236 2 44.5239 70.2268 0
237 1 0.0858379 63.5983 0
238 2 9.52931 22.4477 0
239 1 57.2406 4.77527 0
240 2 62.2486 46.1871 0
241 1 47.8341 67.6673 0
242 1 17.833 30.4222 0
243 1 6.93741 57.3253 0
244 1 61.2146 64.4117 0
245 1 11.383 30.1846 0
246 1 1.79772 35.596 0
247 1 66.9389 51.3683 0
248 1 10.8839 0.91586 0
249 2 51.7637 41.4232 0
250 1 29.6778 11.0541 0
251 2 58.3867 50.3265 0
252 2 67.0893 23.4332 0
253 1 20.0816 18.4881 0
254 1 52.5462 22.8461 0
255 1 65.6358 41.5645 0
256 1 32.116 3.85604 0
257 1 20.5693 56.8725 0
258 1 25.181 38.8074 0
259 1 55.8207 57.0413 0
260 2 44.9923 54.5333 0
261 2 25.3307 60.9034 0
262 1 24.4635 32.7457 0
263 2 14.288 34.5997 0
264 2 71.5324 60.6256 0
265 1 75.6298 47.1289 0
266 1 39.7496 45.2643 0
267 2 60.5374 23.9388 0
268 2 57.2019 45.9422 0
269 1 49.0139 21.5561 0
270 2 7.75324 47.7471 0
271 2 23.9856 35.528 0
272 2 22.5097 17.3692 0
273 1 15.8092 64.8058 0
274 1 34.9893 47.4434 0
275 1 7.01158 48.244 0
276 1 73.1446 10.381 0
277 2 14.7805 70.4268 0
278 1 7.49306 17.7756 0
279 1 4.09409 45.2636 0
280 1 19.8218 38.8516 0
281 1 31.1105 37.7789 0
282 2 74.3686 30.2624 0
283 1 0.373351 55.571 0
284 2 54.7141 38.0622 0
285 1 70.4392 52.851 0
286 1 11.3723 65.1468 0
287 1 19.3726 76.929 0
288 2 75.5143 5.63981 0
289 2 22.5823 39.531 0
290 2 67.0024 1.62074 0
291 1 33.0449 25.9665 0
292 1 28.576 56.7225 0
293 1 47.5732 19.2968 0
294 1 38.5982 2.91263 0
295 1 69.1406 3.70517 0
296 2 74.6484 7.88403 0
297 1 41.3261 60.9867 0
298 1 68.6881 34.4997 0
299 2 49.8434 38.0563 0
300 1 40.6534 44.0724 0
301 1 73.7641 18.9865 0
302 1 50.3733 35.326 0
303 1 20.3949 31.3129 0
304 1 60.5966 70.6927 0
305 2 59.2431 75.5123 0
306 1 63.1517 52.7284 0
307 2 74.3375 35.8503 0
308 1 41.1674 4.18698 0
309 2 25.4594 15.8529 0
310 2 14.41 14.0377 0
311 1 28.5605 49.0188 0
312 1 68.3101 64.1176 0
313 1 73.763 0.65993 0
314 1 41.1997 46.2074 0
315 2 55.5695 31.6882 0
316 2 38.4851 63.5798 0
317 1 50.0948 21.2093 0
318 2 7.85555 30.9541 0
319 1 31.4607 23.7435 0
320 1 35.9758 63.1134 0
321 1 57.9103 69.7776 0
322 2 73.6906 11.112 0
323 2 24.5049 62.5164 0
324 1 64.654 40.924 0
325 1 41.7846 5.87431 0
326 1 10.7745 57.3807 0
327 1 51.3183 56.6979 0
328 1 0.820111 37.0115 0
329 1 43.7071 44.5411 0
330 2 51.2451 35.0535 0
331 2 66.1439 0.706685 0
332 1 60.0472 31.055 0
333 1 37.5762 12.9025 0
334 1 19.2883 35.4572 0
335 1 21.7626 37.6174 0
336 2 70.5889 76.5747 0
337 1 35.3252 34.4198 0
338 2 16.6257 76.6853 0
339 1 43.1911 67.0407 0
340 1 16.0291 58.9474 0
341 2 73.3138 43.6501 0
342 1 65.7751 6.69896 0
343 2 57.0153 50.0305 0
344 2 21.9914 63.3872 0
345 1 8.99891 25.8 0
346 1 17.8465 71.0613 0
347 1 34.2242 56.0346 0
348 1 56.8389 17.5761 0
349 1 33.8099 20.4748 0
350 1 37.4114 31.3263 0
351 1 16.6337 52.1879 0
352 1 47.4604 33.1196 0
353 1 73.4958 30.1939 0
354 2 26.1422 25.7341 0
355 2 42.4502 20.3428 0
356 2 11.2434 3.57804 0
357 1 68.9856 67.0913 0
358 1 22.8108 0.960806 0
359 1 23.7987 12.8383 0
360 2 46.7313 30.5194 0
361 2 48.4775 68.2059 0
362 1 26.7627 73.5683 0
363 2 33.6761 71.3775 0
364 1 15.9537 66.7315 0
365 2 9.23998 56.7229 0
366 1 25.3459 49.4611 0
367 2 22.4701 23.7325 0
368 2 51.4507 54.954 0
369 2 65.4134 71.2922 0
370 1 4.16008 25.1349 0
371 1 44.3531 72.6619 0
372 2 39.5796 9.22451 0
373 1 10.1495 30.9567 0
374 2 67.3771 39.018 0
375 1 52.8189 53.9156 0
376 2 0.11796 41.7414 0
377 2 57.7878 38.0733 0
378 1 22.4655 61.4545 0
379 1 15.1454 20.7178 0
380 1 8.28834 62.3151 0
381 1 26.1671 23.6535 0
382 1 30.944 27.5339 0
383 1 10.1483 11.0358 0
384 1 34.8355 51.767 0
385 1 25.0996 76.9465 0
386 1 55.5288 40.5372 0
387 1 58.198 75.7384 0
388 2 56.7972 56.7739 0
389 1 25.1205 55.2509 0
390 1 28.5796 13.8095 0
391 2 59.134 23.4356 0
392 2 31.221 7.70663 0
393 2 38.6985 67.1257 0
394 1 10.2548 74.7721 0
395 1 54.6975 23.4533 0
396 1 12.1727 71.6967 0
397 1 47.8748 17.4243 0
398 1 45.5138 70.0452 0
399 1 71.9234 20.7893 0
400 1 58.9838 76.3975 0
401 1 45.3051 13.2861 0
402 2 54.7426 11.3627 0
403 1 38.8495 52.1739 0
404 1 69.1501 72.7045 0
405 2 74.4958 0.17857 0
406 1 33.9614 18.6876 0
407 2 45.0873 21.1585 0
408 1 63.0654 27.1857 0
409 1 21.3696 59.1918 0
410 2 66.4236 16.3832 0
411 2 67.0158 34.7999 0
412 1 60.2313 39.9081 0
413 1 6.38571 36.6515 0
414 1 70.1779 48.1955 0
415 1 6.91543 41.7654 0
416 2 76.3095 62.5511 0
417 2 72.437 13.1955 0
418 1 54.6442 29.2713 0
419 2 57.1231 47.3791 0
420 2 25.6169 54.4804 0
421 1 60.1452 16.1296 0
422 1 1.26757 69.9574 0
423 1 4.907 11.6546 0
424 1 61.6878 25.5546 0
425 1 59.4424 50.5082 0
426 1 55.5228 75.3836 0
427 2 39.8857 11.7001 0
428 1 51.8619 51.9415 0
429 1 60.0378 69.6239 0
430 1 36.9498 37.5695 0
431 1 0.324105 31.1052 0
432 1 64.2223 49.0442 0
433 1 28.6389 68.064 0
434 1 2.24158 42.1929 0
435 1 62.8173 31.5044 0
436 2 67.063 37.5431 0
437 2 43.8069 60.9981 0
438 1 36.9664 62.6677 0
439 2 42.3859 12.8803 0
440 1 44.6797 44.182 0
441 2 69.1524 13.7853 0
442 1 8.7572 35.7399 0
443 1 55.1131 17.8994 0
444 1 13.8976 76.8695 0
445 2 70.6974 69.4091 0
446 1 62.8969 41.5614 0
447 1 26.3383 69.7049 0
448 1 47.4285 38.3248 0
449 1 36.2743 74.4564 0
450 2 47.8035 60.3417 0
451 2 6.33218 61.2163 0
452 1 62.5545 11.1949 0
453 1 26.7195 76.1809 0
454 2 59.4937 27.6057 0
455 2 25.8536 66.9394 0
456 1 9.90086 42.5091 0
457 2 16.2627 0.925961 0
458 1 36.6045 76.5931 0
459 2 18.0825 54.8537 0
460 1 4.31413 5.21047 0
461 2 29.7505 30.2075 0
462 1 46.277 25.3906 0
463 1 75.3048 71.2866 0
464 1 7.98933 49.5967 0
465 2 41.5985 45.4759 0
466 1 22.7552 12.4787 0
467 2 11.159 1.79379 0
468 1 20.5083 38.0363 0
469 1 2.501 2.04452 0
470 1 63.6411 10.9796 0
471 2 73.3452 40.143 0
472 1 25.0006 43.5165 0
473 1 61.6086 66.1947 0
474 1 31.9175 54.3617 0
475 1 23.3321 59.8895 0
476 2 41.441 32.4402 0
477 1 57.5866 12.2896 0
478 2 29.0496 73.8443 0
479 1 33.1883 21.7979 0
480 1 20.1716 26.8134 0
481 1 8.20797 18.5393 0
482 1 12.3143 25.957 0
483 2 77.1009 0.429517 0
484 1 15.9185 36.9923 0
485 1 22.3632 51.4473 0
486 1 6.97192 5.08419 0
487 2 68.6774 9.79955 0
488 1 59.2188 5.60711 0
489 1 51.2088 16.737 0
490 1 36.4203 32.4972 0
491 1 31.0266 40.9831 0
492 2 60.3202 9.93954 0
493 1 75.1627 8.61894 0
494 1 63.7632 31.0176 0
495 2 23.0653 47.6308 0
496 2 53.7828 43.8546 0
497 2 42.415 6.54096 0
498 1 24.1929 25.7655 0
499 1 35.3673 0.828976 0
500 1 1.87461 5.00828 0
501 2 45.6402 44.4533 0
502 1 16.8342 25.3902 0
503 1 49.1624 9.27756 0
504 1 37.8634 33.3373 0
505 2 24.2855 77.3859 0
506 2 17.1662 65.6185 0
507 1 42.5872 38.2455 0
508 1 13.2651 33.0164 0
509 1 27.8407 23.9025 0
510 1 5.86735 38.3994 0
511 1 67.8865 27.0828 0
512 1 55.0488 53.7582 0
513 1 12.2497 34.5453 0
514 1 25.4232 62.6588 0
515 2 58.7084 9.99721 0
516 2 11.8385 37.499 0
517 2 76.3313 75.6128 0
518 2 20.4454 53.3431 0
519 2 32.4995 0.239859 0
520 1 72.8583 36.9874 0
521 1 41.5961 23.6921 0
522 2 23.825 65.2091 0
523 1 75.6668 11.383 0
524 1 67.3279 31.9634 0
525 1 21.1266 0.365364 0
526 2 77.4392 21.688 0
527 1 50.0162 26.1602 0
528 2 72.8223 4.22187 0
529 2 35.4484 48.1566 0
530 1 7.41174 59.0124 0
531 2 73.2951 70.7401 0
532 2 29.9215 61.3307 0
533 1 72.4063 2.24221 0
534 1 34.7974 26.1198 0
535 1 29.698 19.8539 0
536 1 31.0733 65.8243 0
537 1 36.5296 48.4747 0
538 2 18.7167 21.895 0
539 2 44.9669 76.6497 0
540 1 60.9214 41.6455 0
541 2 26.1563 9.05685 0
542 1 52.7223 58.0536 0
543 2 68.4572 55.0404 0
544 2 48.8795 11.9484 0
545 1 29.6998 25.6992 0
546 1 35.4068 2.62923 0
547 1 12.446 15.9032 0
548 2 23.9594 2.95782 0
549 2 65.903 22.1328 0
550 2 5.0038 38.9626 0
551 1 30.3228 9.03477 0
552 2 70.9003 39.9426 0
553 2 30.1577 42.9227 0
554 1 53.0519 61.7463 0
555 1 50.287 56.5278 0
556 1 69.171 69.2361 0
557 1 62.8897 53.7809 0
558 1 2.63679 68.2839 0
559 1 71.5969 35.0983 0
560 2 24.2338 60.0599 0
561 1 5.54809 2.75095 0
562 2 4.45611 10.9419 0
563 2 54.2904 49.3617 0
564 1 70.1025 68.7332 0
565 2 19.9678 0.207212 0
566 2 21.277 21.0846 0
567 1 48.6547 42.6406 0
568 2 21.7058 74.4201 0
569 2 16.4094 27.3494 0
570 1 70.5771 32.4775 0
571 1 0.355253 3.67579 0
572 2 7.17858 51.1728 0
573 2 0.158844 44.0068 0
574 1 3.62168 67.8119 0
575 1 17.2703 5.39625 0
576 1 15.52 62.5119 0
577 1 43.6854 51.4121 0
578 2 67.2156 33.3951 0
579 2 45.1424 68.5097 0
580 1 62.4296 42.4853 0
581 1 7.1565 61.0511 0
582 2 70.5644 58.2301 0
583 2 64.504 59.2943 0
584 2 33.083 66.0551 0
585 1 62.2257 76.1404 0
586 1 48.6978 60.0265 0
587 2 16.0872 23.1097 0
588 1 48.4214 5.2795 0
589 2 53.192 10.385 0
590 1 23.2565 72.0804 0
591 1 54.5853 7.69459 0
592 1 48.4185 74.1869 0
593 1 43.4186 14.4679 0
594 1 60.2624 62.9046 0
595 1 74.717 62.9785 0
596 2 6.07241 1.91896 0
597 1 2.47331 45.9397 0
598 1 67.7707 9.82781 0
599 1 2.49662 50.8078 0
600 1 76.997 48.3528 0
601 2 42.5308 37.4449 0
602 1 62.1811 13.8686 0
603 2 72.2427 52.2044 0
604 2 57.2741 18.3088 0
605 1 52.843 69.7667 0
606 1 40.5757 3.35822 0
607 1 74.8215 2.10316 0
608 2 1.29068 39.2235 0
609 2 39.314 75.9271 0
610 1 9.05063 49.4595 0
611 1 55.3434 58.6459 0
612 1 74.7239 7.03806 0
613 1 76.4956 21.8442 0
614 2 49.8875 28.8087 0
615 1 36.8522 39.3721 0
616 1 39.472 14.828 0
617 1 67.9448 1.64375 0
618 2 11.4973 42.7846 0
619 2 55.0421 43.4249 0
620 2 73.6273 76.1155 0
621 2 58.0808 35.3237 0
622 1 57.5687 16.9135 0
623 1 37.9408 11.1792 0
624 2 23.1945 51.4098 0
625 1 25.2179 74.0166 0
626 1 72.9368 29.3376 0
627 2 2.27244 25.6253 0
628 1 27.4701 56.6069 0
629 2 74.7769 25.2219 0
630 1 28.4621 72.2506 0
631 1 58.0253 37.0656 0
632 1 21.0424 63.9461 0
633 2 24.9087 71.088 0
634 1 18.8318 49.1954 0
635 2 43.0753 43.9691 0
636 2 36.1086 41.9604 0
637 1 11.9152 12.4242 0
638 1 66.2159 42.4746 0
639 1 68.6221 45.5898 0
640 1 0.642594 54.4088 0
641 1 37.0203 34.1873 0
642 1 11.0489 32.9363 0
643 1 52.9552 44.1944 0
644 2 19.0371 28.1315 0
645 1 57.7403 52.3585 0
646 1 46.8376 46.6578 0
647 2 24.4782 7.41952 0
648 1 64.5387 15.6286 0
649 2 11.3169 68.1853 0
650 2 46.4356 62.8115 0
651 1 47.1446 12.8703 0
652 1 29.0302 69.8007 0
653 2 16.5347 24.5619 0
654 2 9.89501 3.69724 0
655 1 4.66749 52.5251 0
656 1 72.308 55.0474 0
657 1 33.3381 47.3955 0
658 1 73.0056 14.0627 0
659 2 1.7378 68.0897 0
660 1 26.6009 35.6812 0
661 1 36.5383 10.2187 0
662 1 29.9995 60.3506 0
663 1 10.6384 26.4947 0
664 1 57.9864 76.8063 0
665 2 49.9649 76.3712 0
666 2 12.9998 58.8638 0
667 1 25.7726 72.7223 0
668 2 6.66786 76.3699 0
669 1 4.90194 10.2345 0
670 2 44.1082 37.9462 0
671 2 37.1463 17.3081 0
672 1 10.3308 20.8485 0
673 1 8.92588 16.9142 0
674 1 32.8054 45.7195 0
675 2 7.09066 58.1832 0
676 2 37.5684 6.93326 0
677 1 40.5308 54.3805 0
678 1 54.5335 40.3459 0
679 1 47.2401 69.6695 0
680 1 32.6953 53.6799 0
681 1 24.8798 52.5681 0
682 1 62.8134 60.0094 0
683 1 19.9696 62.5505 0
684 1 64.7288 69.5258 0
685 2 35.9236 18.4907 0
686 1 52.1494 5.86909 0
687 1 40.7972 19.3184 0
688 2 53.7843 73.9039 0
689 1 72.8399 62.062 0
690 1 66.6465 74.7297 0
691 1 42.5233 40.0947 0
692 2 60.3739 44.2126 0
693 1 72.9213 76.6286 0
694 2 54.2914 64.3759 0
695 1 44.5202 10.3686 0
696 2 37.305 49.0279 0
697 1 26.1454 12.2173 0
698 1 7.83521 3.66873 0
699 1 66.798 15.5904 0
700 1 70.5891 45.9174 0
701 1 59.7315 32.8135 0
702 1 63.4252 65.9161 0
703 2 71.5443 0.519321 0
704 2 8.05666 59.6941 0
705 2 5.99637 8.42901 0
706 1 52.6597 52.7491 0
707 2 59.6712 35.7479 0
708 1 50.2542 44.5916 0
709 1 51.9365 73.6547 0
710 2 58.7615 25.0507 0
711 1 56.791 54.3052 0
712 2 59.037 34.2795 0
713 2 72.1039 71.8047 0
714 2 76.594 65.2436 0
715 1 45.9369 18.9415 0
716 1 0.792062 32.0622 0
717 1 28.902 62.9272 0
718 1 13.6769 4.0116 0
719 1 53.2576 37.1578 0
720 2 49.5824 39.6041 0
721 2 65.9716 39.9566 0
722 1 48.0817 9.35804 0
723 2 38.7946 75.2026 0
724 2 11.2918 59.1431 0
725 1 51.7679 39.7399 0
726 1 7.43162 30.2064 0
727 2 12.2229 2.3092 0
728 1 67.3345 56.2256 0
729 2 20.7523 58.5186 0
730 1 32.3869 28.9823 0
731 2 17.6482 36.0263 0
732 1 19.6175 53.4447 0
733 1 30.7085 30.1628 0
734 2 66.0318 45.8974 0
735 1 66.8369 67.6994 0
736 1 48.2128 50.3842 0
737 2 1.0916 46.6573 0
738 1 15.0283 35.0723 0
739 1 18.0831 38.8489 0
740 1 49.1286 38.8402 0
741 2 58.12 55.7636 0
742 1 60.5886 38.0558 0
743 1 27.6761 61.2932 0
744 2 72.1808 19.9747 0
745 1 22.3021 72.5632 0
746 1 35.229 10.8792 0
747 1 46.7167 75.5362 0
748 2 42.8003 70.0859 0
749 2 23.2668 25.3925 0
750 1 55.5025 35.6457 0
751 1 59.2147 39.3389 0
752 2 1.29942 70.851 0
753 1 53.4773 40.1548 0
754 2 20.8285 18.0204 0
755 1 23.8715 49.7919 0
756 2 48.4213 75.2299 0
757 1 47.5613 20.3113 0
758 1 6.59759 10.3742 0
759 1 62.4376 47.0618 0
760 1 12.8851 10.9946 0
761 1 68.2355 73.5361 0
762 1 13.5246 58.2064 0
763 2 76.2568 7.02647 0
764 1 75.3254 56.1862 0
765 2 47.5623 57.3187 0
766 1 70.7749 19.0756 0
767 1 11.9142 1.47956 0
768 1 66.0885 10.6185 0
769 1 62.377 49.894 0
770 2 59.8516 71.2607 0
771 1 18.567 40.508 0
772 1 45.696 51.3607 0
773 1 42.2717 43.6874 0
774 2 33.9282 25.8647 0
775 1 74.2845 28.1789 0
776 2 42.5258 42.8644 0
777 1 70.6482 54.0947 0
778 2 10.7611 60.7486 0
779 1 45.3259 25.9169 0
780 1 17.049 3.72335 0
781 1 30.2842 35.0011 0
782 1 57.0295 65.1247 0
783 1 62.3844 35.1224 0
784 1 70.2515 49.9971 0
785 2 9.47384 11.6693 0
786 1 72.7361 67.9103 0
787 1 21.357 64.9593 0
788 1 40.5891 55.5094 0
789 1 10.6597 4.19788 0
790 1 51.0925 69.7475 0
791 1 46.0302 14.78 0
792 1 9.99337 24.3411 0
793 1 25.4679 14.9612 0
794 2 72.7799 17.2657 0
795 2 73.9377 13.8045 0
796 2 75.3049 69.2751 0
797 1 43.9867 65.4817 0
798 1 38.2375 18.9037 0
799 1 42.9718 76.4099 0
800 1 30.4234 70.163 0
801 2 6.98743 26.4526 0
802 2 28.2382 45.5189 0
803 2 22.8942 76.8451 0
804 2 52.1132 36.0691 0
805 1 23.1489 71.0191 0
806 1 52.022 70.4198 0
807 2 38.0983 52.7127 0
808 1 50.5774 48.1446 0
809 2 36.9312 61.8011 0
810 1 56.9108 76.887 0
811 1 27.5132 58.7288 0
812 2 60.2479 48.2542 0
813 2 46.2531 59.6712 0
814 1 53.7449 31.7969 0
815 2 40.3104 16.1326 0
816 1 27.4696 34.8883 0
817 1 66.131 77.3421 0
818 2 36.6332 16.1391 0
819 2 46.2473 57.5482 0
820 1 67.2521 70.4399 0
821 1 15.7258 59.9392 0
822 1 56.2691 0.437978 0
823 1 17.1244 57.5978 0
824 2 37.4608 46.174 0
825 1 27.687 41.2254 0
826 1 30.3699 72.9803 0
827 1 7.80915 29.2322 0
828 1 77.1296 51.1451 0
829 1 73.725 39.3895 0
830 2 48.45 65.0062 0
831 2 42.7665 4.35086 0
832 1 71.8311 11.8177 0
833 1 25.8805 41.0088 0
834 2 48.9967 5.91467 0
835 1 67.3029 4.86069 0
836 1 59.432 26.709 0
837 1 57.1642 41.1419 0
838 1 38.8002 53.3804 0
839 1 18.1218 61.2861 0
840 2 12.7122 48.2812 0
841 1 37.2335 52.889 0
842 2 11.8346 63.1092 0
843 1 4.67161 41.9033 0
844 1 65.4669 20.2827 0
845 2 26.8192 2.69766 0
846 1 49.5343 40.6193 0
847 1 11.2076 58.2496 0
848 2 69.4557 45.4323 0
849 1 73.1987 9.27417 0
850 1 68.7164 20.0204 0
851 1 39.2688 18.5246 0
852 1 11.4081 2.62841 0
853 1 42.8226 62.6501 0
854 1 36.464 69.1115 0
855 1 39.1888 26.1059 0
856 2 18.0366 41.2312 0
857 1 57.1765 33.4119 0
858 2 34.959 29.5537 0
859 1 14.8966 66.5433 0
860 2 2.7364 59.3507 0
861 2 60.8662 40.7177 0
862 2 3.45874 68.7373 0
863 1 58.7342 24.1996 0
864 1 61.1266 53.5827 0
865 2 66.2305 68.3585 0
866 1 59.4436 16.9032 0
867 2 36.1331 23.7592 0
868 1 35.0014 61.7372 0
869 1 65.4702 18.6356 0
870 1 0.137322 53.1083 0
871 1 62.6762 23.0123 0
872 1 42.4962 51.701 0
873 1 50.4306 62.1308 0
874 1 4.30296 70.5287 0
875 1 35.6968 58.245 0
876 2 49.3566 7.17462 0
877 1 13.4808 54.2716 0
878 2 15.0653 16.5369 0
879 1 75.332 12.3604 0
880 2 30.8966 34.2979 0
881 2 50.9276 30.0879 0
882 2 46.7644 74.5176 0
883 1 26.9709 17.1599 0
884 1 56.2549 36.9476 0
885 1 37.9327 3.66819 0
886 1 35.7239 60.8984 0
887 2 55.2249 50.519 0
888 1 2.6008 0.931006 0
889 2 59.6544 49.554 0
890 2 9.44544 25.0374 0
891 1 37.5888 8.86441 0
892 1 38.829 70.5996 0
893 1 30.7039 50.5511 0
894 1 76.4788 12.6678 0
895 2 33.9616 52.1084 0
896 1 36.4122 4.41952 0
897 2 35.418 16.7423 0
898 1 32.8862 42.9981 0
899 1 2.1423 74.3808 0
900 2 38.4924 76.8257 0
901 1 53.5297 42.1475 0
902 1 22.5591 74.3886 0
903 1 38.0988 42.1329 0
904 2 75.2656 38.0997 0
905 1 63.9653 62.5105 0
906 1 68.105 44.6278 0
907 1 2.44406 27.3654 0
908 1 50.4778 23.6337 0
909 1 1.30301 48.644 0
910 2 1.90834 50.2516 0
911 2 4.42796 6.11872 0
912 2 36.8955 33.1729 0
913 2 30.7951 49.4832 0
914 1 19.1738 13.0549 0
915 2 68.3046 3.52768 0
916 1 3.22973 39.6237 0
917 2 4.38612 32.7575 0
918 2 20.0915 37.0568 0
919 1 10.1585 56.5173 0
920 1 12.7287 47.279 0
921 1 0.0445678 26.7298 0
922 2 46.8673 20.7958 0
923 2 13.6553 24.0831 0
924 1 39.2056 17.4886 0
925 1 66.533 47.417 0
926 2 36.1382 36.0628 0
927 1 68.8098 77.4245 0
928 1 53.0665 59.6785 0
929 2 51.7744 31.6959 0
930 2 19.2793 17.8177 0
931 1 41.4334 47.3254 0
932 1 69.0272 38.301 0
933 1 34.2634 21.3954 0
934 1 2.82622 60.2955 0
935 1 13.3258 51.7471 0
936 2 40.1073 4.11413 0
937 1 13.0826 73.2728 0
938 1 37.8875 66.9317 0
939 2 50.7672 52.1572 0
940 1 73.6926 46.5613 0
941 1 1.80934 17.9536 0
942 1 39.068 28.1271 0
943 2 21.8922 15.6161 0
944 2 1.32201 40.9088 0
945 1 40.1629 25.6529 0
946 1 64.4741 67.6476 0
947 2 24.7698 1.50166 0
948 1 37.7899 70.883 0
949 1 28.1626 9.33199 0
950 2 5.76034 10.1156 0
951 1 69.7307 65.106 0
952 2 52.802 3.6155 0
953 2 7.31136 44.6773 0
954 2 27.6038 59.6403 0
955 1 26.8187 39.3668 0
956 2 59.2006 15.9339 0
957 1 48.4081 23.2241 0
958 2 21.1681 4.62109 0
959 2 73.9837 26.5153 0
960 2 28.5191 65.8994 0
961 1 48.7793 54.7869 0
962 1 23.4199 0.0693855 0
963 1 18.3898 12.324 0
964 2 9.13975 9.81051 0
965 2 55.1065 54.675 0
966 1 2.30891 61.853 0
967 1 49.7661 34.4971 0
968 1 17.4572 76.8622 0
969 1 56.6117 21.7833 0
970 2 22.6041 3.57088 0
971 1 23.2415 16.7594 0
972 1 8.98033 26.8208 0
973 1 76.725 36.7948 0
974 2 75.3235 35.5848 0
975 2 74.1576 65.3626 0
976 2 33.8594 19.5281 0
977 1 37.833 64.1955 0
978 2 5.14203 0.811632 0
979 2 36.2015 66.0263 0
980 1 74.4824 14.5076 0
981 1 74.7528 57.849 0
982 1 8.47568 54.4505 0
983 1 18.6941 25.6418 0
984 1 9.68612 57.518 0
985 1 35.8576 11.752 0
986 1 37.7983 51.882 0
987 2 19.2653 12.228 0
988 2 42.8139 32.9556 0
989 2 10.3595 33.6411 0
990 2 71.2212 53.3339 0
991 2 47.122 13.7138 0
992 1 63.1462 33.6326 0
993 2 29.3321 5.65628 0
994 2 3.02545 54.2304 0
995 1 38.7648 22.2651 0
996 2 55.8005 57.8903 0
997 2 43.9477 31.8727 0
998 2 56.323 73.6499 0
999 2 40.9537 25.9431 0
1000 2 0.452387 48.2308 0
1001 1 40.5865 67.4402 0
1002 1 24.398 33.8343 0
1003 1 10.0951 53.8363 0
1004 1 7.07562 20.4519 0
1005 2 11.9142 23.9387 0
1006 2 67.2089 59.533 0
1007 1 19.2111 21.1947 0
1008 1 48.783 17.8964 0
1009 1 30.9188 33.4304 0
1010 1 9.09704 43.2163 0
1011 2 11.2491 22.2512 0
1012 2 3.31728 24.8015 0
1013 2 65.8327 58.7143 0
1014 1 74.567 15.5772 0
1015 1 74.1729 10.4291 0
1016 1 37.7704 49.7951 0
1017 2 69.8362 54.6606 0
1018 1 25.7022 26.4769 0
1019 1 44.0286 28.0774 0
1020 2 29.8965 6.97495 0
1021 2 17.5411 23.2632 0
1022 1 5.00551 62.233 0
1023 1 41.8096 8.68122 0
1024 1 8.82522 69.4001 0
1025 1 39.5169 66.9832 0
1026 1 8.20425 39.3827 0
1027 1 46.9185 3.38691 0
1028 1 0.0192235 32.717 0
1029 1 48.4786 18.8809 0
1030 2 48.2331 49.4409 0
1031 2 37.784 37.5899 0
1032 1 15.8076 72.4657 0
1033 1 56.5635 16.5314 0
1034 1 35.7471 29.912 0
1035 1 64.6287 27.6369 0
1036 2 72.6216 45.368 0
1037 1 29.3529 72.8594 0
1038 1 67.2977 60.5649 0
1039 1 4.52227 31.9429 0
1040 2 65.26 35.4523 0
1041 1 34.2544 67.6358 0
1042 2 62.1901 68.5245 0
1043 2 61.64 58.5019 0
1044 1 73.18 22.6258 0
1045 1 67.5189 22.683 0
1046 1 40.4244 68.4718 0
1047 2 8.65913 50.2161 0
1048 1 52.1087 0.0337387 0
1049 1 60.4497 49.1063 0
1050 2 44.8591 6.18121 0
1051 1 43.2724 29.6614 0
1052 1 65.7075 43.3644 0
1053 2 31.3279 18.2739 0
1054 1 53.1368 5.39411 0
1055 2 33.4218 45.0226 0
1056 2 12.9383 45.1238 0
1057 1 10.5812 68.6253 0
1058 1 26.1905 6.60119 0
1059 1 9.25666 75.0715 0
1060 2 21.1749 43.683 0
1061 1 12.1281 22.0829 0
1062 2 16.8488 38.925 0
1063 1 76.2927 68.7034 0
1064 1 26.5555 5.5751 0
1065 2 29.7921 50.5451 0
1066 1 38.4868 47.8926 0
1067 1 13.7725 10.3604 0
1068 2 37.1074 67.4782 0
1069 1 69.4578 26.3447 0
1070 2 8.34135 34.8358 0
1071 2 50.3323 43.7167 0
1072 2 9.92138 49.4 0
1073 2 15.6888 2.29069 0
1074 2 35.1013 42.9878 0
1075 1 75.8593 49.7955 0
1076 1 40.5794 6.96763 0
1077 1 43.0195 33.7629 0
1078 2 69.7703 27.2747 0
1079 2 41.0366 9.16945 0
1080 2 29.2428 71.7797 0
1081 2 43.8897 49.1445 0
1082 2 4.84516 28.2774 0
1083 2 22.7712 18.6646 0
1084 1 44.4239 59.074 0
1085 1 19.5153 50.5201 0
1086 1 70.4444 71.5964 0
1087 1 28.9076 70.966 0
1088 1 45.0216 64.1419 0
1089 2 9.91557 31.8318 0
1090 1 42.0711 34.4181 0
1091 2 26.9749 16.2188 0
1092 1 64.23 54.696 0
1093 1 64.4375 30.0955 0
1094 2 43.9472 55.8858 0
1095 1 24.7395 70.2029 0
1096 2 48.0857 21.2534 0
1097 1 77.2249 15.292 0
1098 1 63.2045 44.6005 0
1099 1 32.0992 2.7453 0
1100 1 71.8683 5.61431 0
1101 1 73.4559 13.0596 0
1102 1 24.2299 73.9718 0
1103 1 51.1935 71.811 0
1104 1 48.0819 57.9354 0
1105 1 48.5817 40.9363 0
1106 1 15.7155 70.602 0
1107 2 44.4167 63.5985 0
1108 1 53.9608 30.4655 0
1109 1 72.8244 25.3612 0
1110 2 14.7736 12.1239 0
1111 1 3.86052 56.2473 0
1112 1 3.10749 16.6768 0
1113 2 72.6553 5.93835 0
1114 2 15.436 54.5731 0
1115 2 34.0879 47.9077 0
1116 1 0.0879244 64.9512 0
1117 1 67.6813 54.5096 0
1118 1 14.0557 75.5627 0
1119 2 10.6161 64.9 0
1120 1 41.3905 58.2135 0
1121 2 20.6366 63.0811 0
1122 1 32.38 32.6391 0
1123 2 24.7614 51.4864 0
1124 1 52.2386 63.1447 0
1125 2 13.609 4.95171 0
1126 2 18.5779 20.5306 0
1127 1 76.8378 29.2387 0
1128 1 69.0632 54.445 0
1129 1 60.968 39.0564 0
1130 1 31.799 45.9201 0
1131 1 66.7171 17.3792 0
1132 2 74.9362 64.8858 0
1133 2 56.8143 20.9605 0
1134 2 20.7405 71.7908 0
1135 1 76.0445 69.8601 0
1136 2 50.8426 26.5664 0
1137 1 52.0139 61.5575 0
1138 1 30.6334 13.5402 0
1139 2 58.3992 52.991 0
1140 2 8.77272 23.0318 0
1141 1 76.7236 67.6036 0
1142 1 28.98 50.0131 0
1143 1 49.4741 45.1727 0
1144 2 57.6292 15.0094 0
1145 1 36.8085 61.0106 0
1146 1 17.6283 19.0171 0
1147 1 30.5247 26.5032 0
1148 1 8.69924 37.4206 0
1149 1 58.376 29.5376 0
1150 2 65.8834 61.7081 0
1151 1 20.9464 5.50299 0
1152 1 60.5904 51.9362 0
1153 1 75.5075 31.8846 0
1154 1 13.0598 2.64657 0
1155 2 58.5792 17.1871 0
1156 1 47.5424 30.8491 0
1157 1 13.2145 18.3973 0
1158 2 58.9212 47.9164 0
1159 2 4.46229 67.7648 0
1160 1 35.5775 9.88604 0
1161 2 44.5635 57.2129 0
1162 1 16.4006 11.1691 0
1163 2 11.9889 70.8689 0
1164 1 23.7652 56.4898 0
1165 1 18.6868 46.0935 0
1166 2 16.231 52.8927 0
1167 1 30.5403 21.4055 0
1168 1 55.9945 65.0803 0
1169 1 18.0982 65.4869 0
1170 2 6.23481 33.1096 0
1171 1 48.6043 35.6502 0
1172 1 20.7136 6.52157 0
1173 1 51.232 63.6122 0
1174 1 40.2996 31.1364 0
1175 2 63.5299 45.4178 0
1176 1 70.6155 35.6965 0
1177 1 48.5177 69.1209 0
1178 2 61.6614 47.5361 0
1179 1 69.542 32.1551 0
1180 1 49.4435 17.014 0
1181 1 55.306 22.5954 0
1182 1 60.5246 72.8074 0
1183 2 43.4391 72.6865 0
1184 2 28.5361 21.3077 0
1185 1 18.9019 61.9099 0
1186 1 49.3144 50.7727 0
1187 1 76.2317 72.695 0
1188 2 3.2874 36.6954 0
1189 1 60.7479 65.3652 0
1190 1 31.586 49.8671 0
1191 2 71.208 6.34053 0
1192 1 23.2146 46.7888 0
1193 1 47.2635 21.5875 0
1194 2 16.7693 16.2059 0
1195 1 73.1346 49.3554 0
1196 1 21.4402 48.5044 0
1197 1 37.3754 40.5381 0
1198 1 63.0479 75.369 0
1199 2 58.4799 62.5938 0
1200 1 27.8351 7.85962 0
1201 1 3.44777 71.9982 0
1202 1 5.39345 49.3328 0
1203 2 45.4169 14.1458 0
1204 1 58.3637 56.5929 0
1205 1 65.6326 50.4476 0
1206 1 52.0706 3.05796 0
1207 1 31.4658 62.5657 0
1208 1 75.4706 58.6502 0
1209 2 65.5904 60.3032 0
1210 1 67.718 30.9573 0
1211 2 26.9988 37.7353 0
1212 1 34.277 35.8654 0
1213 1 61.4861 68.0821 0
1214 1 61.2103 22.1689 0
1215 1 12.1238 72.7608 0
1216 1 12.6614 51.053 0
1217 2 69.9794 3.92969 0
1218 2 65.2221 19.4538 0
1219 1 30.747 14.7336 0
1220 1 67.0949 19.8775 0
1221 1 62.5285 54.7573 0
1222 2 70.6411 74.2108 0
1223 1 42.2122 48.0803 0
1224 1 77.165 35.7964 0
1225 1 5.21234 25.6297 0
1226 2 66.1453 65.2724 0
1227 1 39.7276 58.6677 0
1228 1 76.4076 71.4736 0
1229 2 47.4189 11.9697 0
1230 1 25.182 47.3855 0
1231 2 50.086 19.2706 0
1232 1 67.79 38.2212 0
1233 1 36.7343 58.3249 0
1234 1 0.172553 69.6898 0
1235 1 15.5847 44.1581 0
1236 1 51.4857 62.4516 0
1237 1 37.7056 20.5724 0
1238 1 24.4866 8.34016 0
1239 1 13.4867 23.2275 0
1240 1 24.6586 63.4013 0