ITEM: TIMESTEP
0
ITEM: NUMBER OF ATOMS
7200
ITEM: BOX BOUNDS xy xz yz pp pp pp
0.0000000000000000e+00 7.7459666924100006e+01 0.0000000000000000e+00
0.0000000000000000e+00 7.7459666924100006e+01 0.0000000000000000e+00
-1.2909944490000000e-01 1.2909944490000000e-01 0.0000000000000000e+00
ITEM: ATOMS id type x y z
1 1 41.3568 17.1982 0
2 1 22.9689 33.8325 0
3 1 21.0789 25.0159 0
4 1 18.5705 17.3855 0
5 1 77.2685 69.8142 0
6 1 18.3349 29.2583 0
7 2 34.0864 71.1417 0
8 2 56.0591 18.5936 0
9 1 72.9959 42.6631 0
10 2 16.1148 31.325 0
11 2 47.1829 76.9462 0
12 1 6.36704 14.0849 0
13 2 42.1482 65.7013 0
14 1 28.1124 20.379 0
15 1 26.9039 50.473 0
16 1 14.7185 5.40228 0
17 1 66.1879 1.33189 0
18 1 61.6643 5.03331 0
19 1 54.9401 38.5383 0
20 2 28.7578 1.37337 0
21 1 2.6912 27.2647 0
22 1 42.524 5.72928 0
23 1 29.0664 45.6421 0
24 1 5.44304 8.52072 0
25 1 48.5949 0.720225 0
26 1 72.3857 3.30888 0
27 2 69.997 13.6895 0
28 1 37.3314 15.4908 0
29 2 43.7374 0.965471 0
30 2 29.1084 7.58098 0
31 1 13.9421 33.3023 0
32 1 10.791 20.4533 0
33 1 6.83541 0.556734 0
34 2 17.8184 74.9379 0
35 1 23.4821 1.89025 0
36 1 9.10257 12.2633 0
37 1 39.7829 9.19688 0
38 1 41.4856 7.12487 0
39 1 49.5623 63.2513 0
40 2 28.9516 4.46556 0
41 2 54.9483 58.4839 0
42 1 14.4365 62.9656 0
43 1 47.6223 3.10128 0
44 1 34.5121 18.9664 0
45 1 1.64106 21.372 0
46 1 17.9156 72.2881 0
47 1 11.9122 25.5508 0
48 1 22.9996 11.2669 0
49 2 44.0341 3.53985 0
50 1 18.7541 67.2855 0
51 1 21.8221 8.0088 0
52 2 34.0264 25.5542 0
53 1 35.4305 9.5988 0
54 1 57.7023 0.0815858 0
55 1 48.0211 59.5508 0
56 1 5.06701 1.91985 0
57 1 55.9599 11.4961 0
58 1 43.6525 11.6446 0
59 1 71.7535 62.7368 0
60 1 65.923 65.8441 0
61 1 16.3444 21.5459 0
62 1 61.2319 16.191 0
63 1 32.3902 31.2712 0
64 1 40.9888 75.544 0
65 1 14.8103 72.1378 0
66 2 50.726 18.5121 0
67 2 20.6358 53.2955 0
68 2 22.199 61.5724 0
69 1 40.2697 6.06869 0
70 1 16.41 7.00934 0
71 2 55.601 47.2005 0
72 1 51.3285 4.27176 0
73 1 62.1693 29.0873 0
74 2 11.2031 72.0831 0
75 1 21.8197 3.97241 0
76 1 49.5707 53.2903 0
77 1 39.8571 11.2843 0
78 1 52.1304 21.484 0
79 1 46.5344 69.1603 0
80 1 36.7479 2.79421 0
81 1 17.2779 11.0089 0
82 2 17.0403 13.3303 0
83 1 16.9053 49.4802 0
84 1 39.3691 1.37711 0
85 1 37.5091 57.7959 0
86 2 34.8245 10.2166 0
87 1 63.2144 0.0815046 0
88 1 51.0711 16.8928 0
89 1 55.4736 72.9 0
90 1 17.3871 22.1025 0
91 2 76.3817 34.6703 0
92 2 57.6228 59.3746 0
93 1 59.0907 9.21281 0
94 1 29.155 13.5037 0
95 2 66.6785 69.314 0
96 1 74.8149 30.6489 0
97 1 52.1696 37.3853 0
98 2 4.13589 74.3137 0
99 1 65.2224 36.3191 0
100 2 49.1502 75.5351 0
101 1 39.7201 57.0545 0
102 1 69.5459 59.9487 0
103 1 26.6353 51.4845 0
104 1 57.4514 38.3299 0
105 2 4.01726 47.6345 0
106 2 35.7 76.6243 0
107 1 45.0498 48.1087 0
108 1 1.00499 1.37731 0
109 1 24.6867 42.594 0
110 2 71.1477 69.995 0
111 1 2.52324 6.33143 0
112 1 22.533 32.1493 0
113 2 30.4117 35.7395 0
114 2 6.87532 75.2835 0
115 2 62.7788 37.5179 0
116 2 2.3402 75.9839 0
117 1 68.0768 52.3588 0
118 2 5.70359 23.4409 0
119 1 60.1405 72.9753 0
120 2 59.5748 9.91868 0
121 1 31.2775 34.3204 0
122 1 58.8254 2.59992 0
123 2 33.4355 12.8418 0
124 1 33.884 15.2337 0
125 1 20.6065 19.5706 0
126 1 71.9627 70.2739 0
127 1 40.7255 18.0379 0
128 1 65.3156 10.258 0
129 1 77.3693 59.2329 0
130 1 22.5578 14.6939 0
131 1 35.1295 63.7432 0
132 2 67.7277 71.4514 0
133 2 26.3392 26.4016 0
134 1 64.9819 20.3922 0
135 1 47.5951 9.3903 0
136 2 38.5459 69.1982 0
137 1 46.5846 2.53014 0
138 2 10.6486 11.2044 0
139 1 8.04354 67.0487 0
140 1 21.8481 5.37448 0
141 2 19.4289 5.71569 0
142 1 14.9083 75.4894 0
143 2 67.1938 60.4115 0
144 2 74.7964 74.6236 0
145 2 42.6904 23.2073 0
146 1 9.95958 61.521 0
147 1 10.4557 72.6934 0
148 1 11.0212 11.9902 0
149 2 28.4996 22.9677 0
150 1 12.9089 33.5511 0
151 2 11.9311 69.0563 0
152 1 37.8662 14.5434 0
153 2 28.314 30.2278 0
154 2 22.2233 72.0965 0
155 1 40.2679 76.4554 0
156 1 63.8999 8.129 0
157 1 45.4909 57.5161 0
158 1 24.4164 16.4145 0
159 2 9.82232 3.74819 0
160 1 17.9712 3.74191 0
161 1 9.40623 14.1527 0
162 2 14.464 3.54193 0
163 1 34.0918 68.3926 0
164 1 38.2497 9.22901 0
165 1 69.2318 3.74994 0
166 1 41.0649 19.6427 0
167 1 34.9248 59.72 0
168 1 26.2176 14.6355 0
169 1 65.568 55.1937 0
170 1 29.8214 12.0145 0
171 2 20.6133 31.382 0
172 2 54.921 19.5382 0
173 2 57.0738 62.433 0
174 2 16.7408 1.6654 0
175 2 29.6793 66.3564 0
176 1 44.4579 14.2317 0
177 1 18.1191 7.68212 0
178 1 20.5246 6.87121 0
179 1 23.4504 69.9634 0
180 2 29.5989 58.7988 0
181 1 31.4633 37.09 0
182 1 34.1243 21.4756 0
183 2 53.807 61.9522 0
184 1 77.2712 21.8256 0
185 2 73.5083 53.0995 0
186 1 0.383097 61.3388 0
187 1 77.2758 13.35 0
188 1 32.9212 18.7026 0
189 2 54.6961 55.0888 0
190 1 67.2483 7.9928 0
191 1 76.6379 63.3196 0
192 1 48.1319 71.7101 0
193 2 53.1922 4.94424 0
194 2 60.9923 23.9116 0
195 1 57.1773 10.132 0
196 2 57.2167 15.6363 0
197 2 33.803 69.3905 0
198 1 49.1318 54.2767 0
199 2 28.4283 73.9496 0
200 1 51.5586 54.3535 0
201 2 5.01102 10.2777 0
202 2 18.2844 64.7036 0
203 1 31.7197 66.5545 0
204 1 56.7228 2.75901 0
205 1 59.8307 17.7803 0
206 2 42.8685 68.1726 0
207 2 50.4296 63.1179 0
208 1 32.0797 20.3454 0
209 1 53.3633 10.9587 0
210 2 16.7663 17.8062 0
211 1 63.0162 76.4668 0
212 2 8.94114 56.5944 0
213 2 47.7048 48.7633 0
214 1 37.8804 48.4416 0
215 2 29.8478 69.8404 0
216 1 2.68825 67.0448 0
217 1 66.4791 8.81524 0
218 2 44.8175 68.9503 0
219 2 24.18 57.9115 0
220 2 68.3934 60.151 0
221 1 60.6592 70.5089 0
222 1 6.11242 64.1754 0
223 2 66.6646 3.00674 0
224 2 11.1869 1.62944 0
225 1 43.6584 53.589 0
226 2 62.5847 29.8327 0
227 2 72.3241 45.634 0
228 1 58.5442 16.5985 0
229 1 1.59756 76.1679 0
230 1 2.62289 66.0539 0
231 1 70.093 67.3672 0
232 1 73.515 72.3097 0
233 1 76.0707 0.140499 0
234 1 52.0721 12.1961 0
235 1 71.1455 3.03382 0
236 2 38.8923 54.5973 0
237 1 48.2103 61.4301 0
238 2 0.333076 16.015 0
239 1 3.68494 71.5914 0
240 2 2.61135 17.06 0
241 1 77.3894 60.3149 0
242 1 39.6606 8.18613 0
243 1 76.5808 14.077 0
244 1 72.6601 27.8901 0
245 1 19.6658 41.9721 0
246 1 3.7023 4.94571 0
247 1 16.0383 10.6973 0
248 1 43.9506 68.6773 0
249 2 36.968 6.95486 0
250 1 58.3936 5.28104 0
251 2 44.9476 19.2429 0
252 2 49.8819 76.7755 0
253 1 33.869 32.0342 0
254 1 60.5157 66.4695 0
255 1 74.6797 10.3875 0
256 1 27.8095 18.0017 0
257 1 51.1404 5.3182 0
258 1 0.558904 68.7656 0
259 1 16.6064 12.6282 0
260 2 59.8328 40.0945 0
261 2 36.154 21.0359 0
262 1 12.7498 19.5722 0
263 2 5.06888 69.025 0
264 2 21.2775 30.5564 0
265 1 30.4876 71.5442 0
266 1 7.84717 2.46601 0
267 2 40.1435 3.49893 0
268 2 41.8065 5.28109 0
269 1 35.7783 3.09969 0
270 2 19.5443 62.3314 0
271 2 69.4779 65.3697 0
272 2 49.0867 65.5502 0
273 1 9.45578 18.2871 0
274 1 8.85428 7.36054 0
275 1 18.6886 15.5229 0
276 1 63.9591 64.8813 0
277 2 56.6607 14.3748 0
278 1 18.3105 26.6695 0
279 1 41.3634 12.7329 0
280 1 15.9958 44.4656 0
281 1 33.3368 76.1965 0
282 2 22.726 73.3945 0
283 1 2.3625 30.2812 0
284 2 16.0716 3.40767 0
285 1 73.1081 53.9864 0
286 1 38.9878 44.1454 0
287 1 54.7422 66.999 0
288 2 23.4178 12.9944 0
289 2 5.32131 1.10396 0
290 2 73.147 17.1629 0
291 1 35.4177 21.4845 0
292 1 6.09802 24.1849 0
293 1 18.1925 46.3476 0
294 1 10.4295 59.3671 0
295 1 6.42294 76.0341 0
296 2 76.4609 5.54431 0
297 1 40.5496 12.0876 0
298 1 52.8579 72.5302 0
299 2 38.8993 70.7045 0
300 1 49.4542 57.6562 0
301 1 17.4653 2.14421 0
302 1 13.8435 71.4197 0
303 1 24.0737 32.1126 0
304 1 49.9296 73.9533 0
305 2 43.9351 20.4183 0
306 1 47.9511 57.4135 0
307 2 10.3182 54.4731 0
308 1 17.959 63.8096 0
309 2 42.499 18.88 0
310 2 40.3912 10.5759 0
311 1 45.4363 21.0795 0
312 1 56.2133 12.4935 0
313 1 55.6828 67.5592 0
314 1 44.4931 57.0909 0
315 2 35.1709 13.6922 0
316 2 33.6081 53.0641 0
317 1 45.134 2.26197 0
318 2 36.0515 5.55714 0
319 1 65.6873 67.503 0
320 1 75.3296 52.2006 0
321 1 37.8304 50.841 0
322 2 53.2316 62.6692 0
323 2 37.8036 72.8688 0
324 1 21.166 52.5911 0
325 1 43.3568 43.5979 0
326 1 43.1952 19.9971 0
327 1 51.3755 63.0319 0
328 1 30.0619 23.8797 0
329 1 26.243 21.7115 0
330 2 2.23046 1.28006 0
331 2 54.7252 5.04917 0
332 1 0.737136 62.3417 0
333 1 64.9757 65.3442 0
334 1 53.4433 71.3537 0
335 1 48.2852 70.0819 0
336 2 16.0574 23.4893 0
337 1 2.56739 40.2838 0
338 2 67.4451 9.07381 0
339 1 0.314085 22.7836 0
340 1 41.5114 2.41855 0
341 2 61.9123 73.8348 0
342 1 50.3326 4.6523 0
343 2 67.1325 59.083 0
344 2 70.7283 33.7738 0
345 1 53.3148 37.3375 0
346 1 68.0072 57.6239 0
347 1 16.4241 17.1237 0
348 1 34.1787 66.8293 0
349 1 51.7223 45.6933 0
350 1 58.8949 0.407324 0
351 1 11.5268 18.352 0
352 1 63.2904 68.952 0
353 1 47.7883 66.9632 0
354 2 68.5266 66.8499 0
355 2 53.4705 64.3806 0
356 2 22.4446 16.5341 0
357 1 68.7784 0.704606 0
358 1 19.618 8.35786 0
359 1 59.519 77.0128 0
360 2 75.1411 5.09762 0
361 2 3.35953 24.4112 0
362 1 23.6789 35.9505 0
363 2 74.7875 1.53214 0
364 1 75.4114 21.4052 0
365 2 4.57266 8.9798 0
366 1 18.3429 48.1544 0
367 2 5.42945 5.05679 0
368 2 73.0132 76.9534 0
369 2 42.7978 11.3863 0
370 1 18.0259 20.1515 0
371 1 76.61 71.0978 0
372 2 28.4367 10.8261 0
373 1 69.5226 76.3523 0
374 2 18.4501 14.6993 0
375 1 28.3102 9.0664 0
376 2 25.4308 14.9233 0
377 2 12.9432 29.9675 0
378 1 57.3344 14.8283 0
379 1 27.3246 6.76293 0
380 1 27.0811 4.28716 0
381 1 34.9972 3.75421 0
382 1 14.147 54.3877 0
383 1 32.2508 69.4304 0
384 1 4.92541 15.2674 0
385 1 55.7459 19.3584 0
386 1 19.3398 4.87718 0
387 1 36.7215 3.90656 0
388 2 18.7065 8.3408 0
389 1 4.25194 65.6876 0
390 1 40.5242 72.2524 0
391 2 20.1916 15.3211 0
392 2 15.0412 1.96359 0
393 2 37.6523 8.46317 0
394 1 33.0143 45.1526 0
395 1 44.8843 13.2772 0
396 1 32.1763 16.2247 0
397 1 22.7669 31.0657 0
398 1 21.2221 34.3153 0
399 1 25.0861 9.38552 0
400 1 51.5649 18.8687 0
401 1 68.7306 4.6847 0
402 2 46.1691 19.0187 0
403 1 48.8659 13.3879 0
404 1 36.1891 48.7953 0
405 2 20.6604 42.19 0
406 1 30.507 73.5298 0
407 2 16.375 28.6235 0
408 1 51.9512 5.93626 0
409 1 12.9154 52.0114 0
410 2 61.8307 19.4721 0
411 2 16.6303 64.9598 0
412 1 63.2116 25.5834 0
413 1 23.1559 2.73847 0
414 1 75.4507 36.3509 0
415 1 35.3101 5.8756 0
416 2 27.0214 1.29925 0
417 2 67.0731 1.52265 0
418 1 51.752 77.0349 0
419 2 60.0131 69.9632 0
420 2 40.6895 6.76346 0
421 1 34.8083 25.0471 0
422 1 0.865054 5.46047 0
423 1 71.0761 8.4666 0
424 1 18.5665 68.3275 0
425 1 23.904 76.0645 0
426 1 33.4842 65.9721 0
427 2 32.4984 9.41942 0
428 1 30.379 1.84801 0
429 1 27.6431 73.548 0
430 1 65.3367 13.2261 0
431 1 27.3976 75.6613 0
432 1 61.5255 12.6602 0
433 1 48.8181 56.7874 0
434 1 45.3563 44.9385 0
435 1 61.518 17.7713 0
436 2 70.6956 66.7533 0
437 2 13.0285 5.31981 0
438 1 31.8528 18.9434 0
439 2 70.3524 8.1409 0
440 1 33.6709 1.2595 0
441 2 66.8085 52.2115 0
442 1 58.9165 44.4916 0
443 1 70.8539 7.49876 0
444 1 51.7768 41.0778 0
445 2 31.7621 62.5103 0
446 1 19.2692 18.2312 0
447 1 72.0653 64.3975 0
448 1 4.38518 8.16209 0
449 1 58.412 61.151 0
450 2 47.5534 21.193 0
451 2 71.2578 49.3679 0
452 1 56.1205 8.68377 0
453 1 74.7441 48.4888 0
454 2 76.1893 2.0351 0
455 2 9.31826 57.945 0
456 1 21.0252 9.48878 0
457 2 56.7912 31.363 0
458 1 0.860024 36.8947 0
459 2 51.9175 70.5571 0
460 1 41.499 42.5866 0
461 2 31.9162 40.6254 0
462 1 68.0984 72.3447 0
463 1 51.5897 10.011 0
464 1 44.4814 58.9669 0
465 2 15.2401 4.64542 0
466 1 43.2777 76.7834 0
467 2 72.4423 6.81105 0
468 1 0.921503 58.0379 0
469 1 67.7474 69.4976 0
470 1 72.8294 2.33705 0
471 2 58.8139 6.06489 0
472 1 49.4349 1.2272 0
473 1 26.0802 20.0369 0
474 1 63.2091 33.1297 0
475 1 31.8151 10.007 0
476 2 44.2369 23.2595 0
477 1 1.40226 19.6875 0
478 2 68.2283 55.9127 0
479 1 55.3184 4.17672 0
480 1 17.9858 6.65085 0
481 1 56.7622 66.9879 0
482 1 63.9547 73.7116 0
483 2 70.598 55.812 0
484 1 13.0932 54.4725 0
485 1 51.8966 14.8874 0
486 1 10.8759 9.74054 0
487 2 26.9581 24.9728 0
488 1 62.0609 77.1377 0
489 1 41.0474 14.6032 0
490 1 4.82829 17.9258 0
491 1 29.5366 35.6859 0
492 2 25.0161 8.31635 0
493 1 39.9005 16.0557 0
494 1 74.155 8.94632 0
495 2 18.4286 5.73628 0
496 2 21.2469 7.33225 0
497 2 66.1251 71.1064 0
498 1 13.243 53.0215 0
499 1 46.8463 66.6267 0
500 1 28.2877 19.0138 0
501 2 48.9081 77.1953 0
502 1 12.1137 48.6888 0
503 1 17.0811 28.0784 0
504 1 8.73322 4.01858 0
505 2 27.6317 7.65014 0
506 2 63.4514 59.0453 0
507 1 22.8408 15.7474 0
508 1 63.1957 28.2533 0
509 1 14.2444 31.025 0
510 1 33.7816 10.4763 0
511 1 17.4661 14.9355 0
512 1 47.534 70.8754 0
513 1 40.2209 65.2236 0
514 1 26.0459 17.6616 0
515 2 42.1291 12.9948 0
516 2 24.5931 18.9506 0
517 2 32.8512 2.67411 0
518 2 22.6091 69.5865 0
519 2 36.9965 5.70717 0
520 1 61.496 6.79243 0
521 1 26.0068 11.2902 0
522 2 42.0075 1.648 0
523 1 33.4059 23.9939 0
524 1 10.9346 64.917 0
525 1 11.6813 63.5686 0
526 2 30.072 2.7844 0
527 1 31.4436 11.7704 0
528 2 48.8158 6.72213 0
529 2 45.2984 59.5066 0
530 1 23.1165 18.1711 0
531 2 18.1303 21.6976 0
532 2 75.7343 76.879 0
533 1 49.8069 13.0152 0
534 1 28.4981 21.4461 0
535 1 32.7742 33.2894 0
536 1 55.3347 6.79952 0
537 1 60.1359 62.3583 0
538 2 25.3707 2.19559 0
539 2 73.2001 68.1128 0
540 1 36.4347 69.8353 0
541 2 19.4127 56.4209 0
542 1 19.9333 1.5364 0
543 2 34.6381 17.0923 0
544 2 51.8972 73.202 0
545 1 15.8102 7.86198 0
546 1 23.1403 40.0836 0
547 1 46.3218 25.7739 0
548 2 45.6316 30.1572 0
549 2 58.5392 66.437 0
550 2 58.6127 54.213 0
551 1 51.0635 75.6484 0
552 2 23.0791 64.6764 0
553 2 69.4436 69.8358 0
554 1 63.5923 12.4117 0
555 1 1.94253 5.39983 0
556 1 48.0649 54.8238 0
557 1 32.3782 74.5374 0
558 1 70.0081 66.0598 0
559 1 44.5055 69.8324 0
560 2 47.2785 52.1668 0
561 1 63.6073 17.5633 0
562 2 71.4322 5.42731 0
563 2 57.9379 11.9606 0
564 1 7.98745 24.5843 0
565 2 51.9009 63.7172 0
566 2 49.9792 9.84197 0
567 1 30.4949 58.5801 0
568 2 19.0611 3.1192 0
569 2 76.2732 70.4192 0
570 1 73.0487 47.2056 0
571 1 73.3852 21.3956 0
572 2 0.594012 21.9854 0
573 2 70.1142 27.1346 0
574 1 53.9613 5.39941 0
575 1 75.8034 14.8185 0
576 1 57.5972 73.7205 0
577 1 54.9807 31.7914 0
578 2 60.0643 61.5433 0
579 2 52.6788 77.1408 0
580 1 68.5509 49.8739 0
581 1 52.8467 7.5054 0
582 2 43.7894 59.6261 0
583 2 66.2221 19.4117 0
584 2 70.3347 2.59037 0
585 1 66.9515 6.87866 0
586 1 76.5637 67.408 0
587 2 61.6332 31.9344 0
588 1 64.3127 34.9422 0
589 2 0.917626 76.6152 0
590 1 8.67962 58.3896 0
591 1 68.0833 67.8194 0
592 1 14.396 60.084 0
593 1 55.3365 60.241 0
594 1 30.5645 5.9058 0
595 1 5.2593 9.513 0
596 2 3.47447 45.072 0
597 1 70.2644 65.0282 0
598 1 62.79 1.19609 0
599 1 65.0314 68.7906 0
600 1 56.5662 39.7062 0
601 2 34.0976 35.5671 0
602 1 6.63067 2.37163 0
603 2 26.8536 16.4474 0
604 2 0.8185 72.2027 0
605 1 23.6919 34.5854 0
606 1 55.0538 75.9028 0
607 1 16.535 62.9364 0
608 2 41.1111 0.47847 0
609 2 31.5636 3.24329 0
610 1 11.9217 64.5601 0
611 1 25.827 8.69163 0
612 1 6.97797 5.59133 0
613 1 38.6933 20.0689 0
614 2 64.0336 20.4675 0
615 1 17.0241 3.65515 0
616 1 23.1326 24.4492 0
617 1 0.59708 20.9924 0
618 2 20.3178 8.82313 0
619 2 72.1937 55.3818 0
620 2 45.8342 7.22962 0
621 2 2.62948 74.3019 0
622 1 9.35019 11.1447 0
623 1 22.4618 27.8479 0
624 2 65.9968 6.96009 0
625 1 57.4208 11.2886 0
626 1 23.3476 48.8201 0
627 2 43.9104 13.5564 0
628 1 77.2426 65.1628 0
629 2 18.0143 76.6787 0
630 1 32.0522 71.2259 0
631 1 22.7681 28.8764 0
632 1 13.7079 77.0968 0
633 2 25.7567 33.774 0
634 1 43.8932 12.6018 0
635 2 28.5568 6.26653 0
636 2 11.3366 26.9795 0
637 1 76.5297 59.8434 0
638 1 46.3778 6.40058 0
639 1 18.2305 10.1401 0
640 1 43.9147 5.43702 0
641 1 67.4505 41.8166 0
642 1 25.1821 6.60882 0
643 1 13.8902 23.5783 0
644 2 14.8465 24.1939 0
645 1 52.6166 73.5524 0
646 1 35.5835 62.6616 0
647 2 54.09 70.7278 0
648 1 37.4248 18.8472 0
649 2 31.7447 33.6675 0
650 2 47.8545 1.1964 0
651 1 65.3705 19.3908 0
652 1 22.6671 1.08173 0
653 2 37.066 12.5464 0
654 2 39.9892 4.99979 0
655 1 43.0526 0.360354 0
656 1 30.3823 63.7255 0
657 1 47.9673 74.2753 0
658 1 36.6216 44.7339 0
659 2 67.302 12.8377 0
660 1 69.9535 37.1691 0
661 1 73.1905 19.7933 0
662 1 29.3976 74.0704 0
663 1 55.2959 18.4048 0
664 1 60.5624 7.38481 0
665 2 49.3033 27.8616 0
666 2 29.1357 65.5761 0
667 1 23.3962 70.9883 0
668 2 40.2818 1.64735 0
669 1 62.8469 11.7628 0
670 2 29.5196 12.7383 0
671 2 41.1418 76.316 0
672 1 39.3402 5.70574 0
673 1 31.7482 13.713 0
674 1 60.0952 9.2594 0
675 2 58.612 23.5016 0
676 2 24.0599 61.0419 0
677 1 57.8723 2.74794 0
678 1 42.4209 6.7983 0
679 1 39.5365 77.2129 0
680 1 45.7587 66.4534 0
681 1 63.3957 63.3338 0
682 1 57.9775 1.0636 0
683 1 72.4782 63.4552 0
684 1 69.4332 11.8596 0
685 2 28.675 48.2586 0
686 1 41.5632 13.7314 0
687 1 36.2907 6.38268 0
688 2 66.1215 13.4934 0
689 1 44.5852 24.036 0
690 1 4.97885 6.46179 0
691 1 62.4264 9.61417 0
692 2 59.05 4.72084 0
693 1 55.984 17.5954 0
694 2 60.984 62.6617 0
695 1 4.50631 34.44 0
696 2 73.5038 70.5035 0
697 1 73.1285 45.5052 0
698 1 56.6802 73.1608 0
699 1 15.2067 8.87584 0
700 1 5.8678 47.3317 0
701 1 54.2359 4.27939 0
702 1 6.08685 3.39073 0
703 2 9.12982 36.8337 0
704 2 1.44519 36.2058 0
705 2 23.8099 21.3661 0
706 1 10.4607 29.7079 0
707 2 55.0813 69.4705 0
708 1 10.3447 69.5811 0
709 1 1.30181 41.3259 0
710 2 16.0973 26.7031 0
711 1 33.4331 72.842 0
712 2 17.328 7.32412 0
713 2 65.8194 72.7434 0
714 2 58.3272 74.0718 0
715 1 51.162 24.5881 0
716 1 64.6752 43.1304 0
717 1 56.0637 60.9936 0
718 1 1.21978 2.98508 0
719 1 5.39425 56.3762 0
720 2 66.347 57.7656 0
721 2 19.7868 14.03 0
722 1 45.0352 5.23289 0
723 2 33.9176 16.0428 0
724 2 9.938 11.7524 0
725 1 25.9959 2.79224 0
726 1 71.4916 33.442 0
727 2 31.3133 10.8031 0
728 1 25.356 19.3494 0
729 2 10.0987 9.44621 0
730 1 4.27253 29.5633 0
731 2 33.0018 4.22565 0
732 1 13.6269 5.91896 0
733 1 8.35031 76.6202 0
734 2 39.6977 12.2205 0
735 1 7.07806 4.44009 0
736 1 22.1357 9.0388 0
737 2 33.7606 18.4772 0
738 1 21.4743 14.4381 0
739 1 57.2199 8.9522 0
740 1 43.5212 14.2817 0
741 2 45.284 31.3306 0
742 1 71.0675 37.3882 0
743 1 19.8795 77.2385 0
744 2 20.9118 69.7312 0
745 1 7.41819 76.0756 0
746 1 44.8732 11.5758 0
747 1 31.4066 44.4911 0
748 2 30.4278 39.3639 0
749 2 38.9891 16.0915 0
750 1 42.0551 11.121 0
751 1 51.2384 7.88092 0
752 2 11.0706 30.2359 0
753 1 20.7045 63.7603 0
754 2 43.1376 24.4322 0
755 1 25.5655 7.65397 0
756 2 5.26729 59.8743 0
757 1 61.4355 56.6615 0
758 1 32.6632 1.66769 0
759 1 7.38652 43.6594 0
760 1 37.3368 10.6651 0
761 1 43.6396 30.7897 0
762 1 38.5315 13.68 0
763 2 47.2624 64.6559 0
764 1 44.7736 71.4681 0
765 2 46.8299 3.50513 0
766 1 52.3644 71.4056 0
767 1 35.9089 73.628 0
768 1 59.4625 5.46826 0
769 1 52.1691 24.6019 0
770 2 47.8781 24.9024 0
771 1 30.9794 68.4167 0
772 1 29.2103 27.2105 0
773 1 48.8914 8.31138 0
774 2 21.2635 8.69851 0
775 1 46.6543 75.2674 0
776 2 48.586 31.1122 0
777 1 67.7218 14.4814 0
778 2 55.273 11.9279 0
779 1 29.4115 6.68382 0
780 1 38.4432 10.3274 0
781 1 6.74622 30.6327 0
782 1 11.6839 3.49044 0
783 1 42.4829 4.72507 0
784 1 52.6103 18.6269 0
785 2 34.8099 42.9314 0
786 1 0.394215 37.9547 0
787 1 45.3613 70.4867 0
788 1 49.3175 72.9196 0
789 1 49.9045 47.3847 0
790 1 33.4055 58.0247 0
791 1 20.8142 15.8818 0
792 1 16.9039 23.1773 0
793 1 17.636 60.7202 0
794 2 62.0503 72.0343 0
795 2 51.3341 0.47689 0
796 2 55.7562 38.2671 0
797 1 69.7412 72.215 0
798 1 57.2607 13.6619 0
799 1 51.4341 74.7137 0
800 1 22.5418 49.8489 0
801 2 61.7228 16.9434 0
802 2 41.9879 61.2364 0
803 2 17.0945 12.0208 0
804 2 53.5134 73.075 0
805 1 51.2261 66.5051 0
806 1 51.8244 7.01246 0
807 2 77.1978 20.9846 0
808 1 28.6386 54.8535 0
809 2 48.9387 63.9294 0
810 1 63.764 1.7499 0
811 1 41.6464 58.91 0
812 2 45.7782 2.80445 0
813 2 40.6168 63.5668 0
814 1 25.5979 10.3489 0
815 2 45.0563 8.50437 0
816 1 66.9832 0.63324 0
817 1 11.839 41.3387 0
818 2 65.3306 2.64441 0
819 2 26.4602 65.8808 0
820 1 0.957913 44.59 0
821 1 2.91847 28.2977 0
822 1 46.6218 73.3365 0
823 1 57.7861 23.3566 0
824 2 13.4349 35.111 0
825 1 38.7396 60.495 0
826 1 75.0005 12.0152 0
827 1 75.5243 8.21274 0
828 1 62.7528 2.16847 0
829 1 69.1987 70.6356 0
830 2 4.15554 43.5301 0
831 2 74.8723 13.0331 0
832 1 8.01883 14.7194 0
833 1 14.9636 67.1215 0
834 2 2.01043 39.5864 0
835 1 51.2302 34.8742 0
836 1 0.266494 54.3798 0
837 1 71.1118 0.249566 0
838 1 50.0539 75.9252 0
839 1 3.71662 11.8122 0
840 2 30.2283 67.9292 0
841 1 8.84036 60.5929 0
842 2 66.3499 67.9524 0
843 1 66.6505 67.0033 0
844 1 60.201 28.0075 0
845 2 75.1834 62.2204 0
846 1 72.8531 56.0777 0
847 1 16.4704 5.96587 0
848 2 21.2889 76.5648 0
849 1 32.4715 67.2493 0
850 1 21.9396 25.7249 0
851 1 39.7675 29.9238 0
852 1 12.6359 28.1356 0
853 1 26.6343 7.7651 0
854 1 22.8982 5.26491 0
855 1 21.8225 0.553859 0
856 2 40.656 15.5205 0
857 1 17.4034 32.8796 0
858 2 19.7496 73.1169 0
859 1 11.4803 16.272 0
860 2 40.6285 18.8851 0
861 2 26.4103 20.8695 0
862 2 11.8255 28.6458 0
863 1 45.7924 39.2213 0
864 1 46.8584 8.59536 0
865 2 31.7134 27.2141 0
866 1 20.6232 8.0512 0
867 2 4.52489 39.8184 0
868 1 67.9198 70.5532 0
869 1 9.33818 30.9709 0
870 1 35.6832 22.6138 0
871 1 29.9918 15.0923 0
872 1 42.2944 70.5429 0
873 1 2.50256 58.4312 0
874 1 77.2951 29.7049 0
875 1 7.93465 5.03977 0
876 2 28.5368 2.24488 0
877 1 29.2232 22.1796 0
878 2 18.7638 19.3377 0
879 1 47.2343 28.4261 0
880 2 12.4193 13.8568 0
881 2 50.3264 0.952866 0
882 2 51.4352 56.2066 0
883 1 30.4827 72.6087 0
884 1 26.0871 33.0555 0
885 1 45.8995 4.72331 0
886 1 46.3453 70.8291 0
887 2 66.8633 29.8306 0
888 1 24.4219 1.72364 0
889 2 54.0138 11.55 0
890 2 48.2484 17.7794 0
891 1 43.4981 8.91241 0
892 1 48.5446 63.1851 0
893 1 74.3214 3.31536 0
894 1 9.49229 1.18335 0
895 2 51.0336 6.31273 0
896 1 37.5801 3.42867 0
897 2 69.2317 6.85436 0
898 1 77.074 52.1636 0
899 1 45.069 7.65609 0
900 2 47.5736 26.5446 0
901 1 46.9833 67.6157 0
902 1 14.6655 21.0785 0
903 1 11.1778 49.4067 0
904 2 59.8067 68.502 0
905 1 23.6395 67.9068 0
906 1 17.4587 5.71885 0
907 1 34.4516 23.8297 0
908 1 63.9255 18.559 0
909 1 61.1845 36.7001 0
910 2 1.71248 33.9072 0
911 2 5.92508 70.6342 0
912 2 64.0257 75.9766 0
913 2 52.8793 1.98301 0
914 1 45.9075 74.2215 0
915 2 74.3958 24.8401 0
916 1 69.5647 8.56715 0
917 2 23.3697 71.7934 0
918 2 38.0723 11.1678 0
919 1 53.0405 5.85918 0
920 1 66.9951 47.7342 0
921 1 67.9798 26.4724 0
922 2 47.254 68.4165 0
923 2 10.0043 25.9327 0
924 1 6.72639 25.772 0
925 1 21.3253 17.816 0
926 2 74.0096 0.00502377 0
927 1 55.8291 70.184 0
928 1 65.7301 3.3856 0
929 2 14.6143 17.0259 0
930 2 70.9438 52.348 0
931 1 69.9141 20.0617 0
932 1 64.1107 65.8846 0
933 1 11.5948 75.5295 0
934 1 10.8104 77.4403 0
935 1 72.9361 37.5375 0
936 2 76.5056 31.5668 0
937 1 73.19 9.58475 0
938 1 19.1412 70.7333 0
939 2 35.5139 15.9469 0
940 1 60.1649 0.358911 0
941 1 4.13576 24.828 0
942 1 6.48872 23.1825 0
943 2 10.7599 15.7517 0
944 2 15.3403 18.7777 0
945 1 59.3107 70.4382 0
946 1 41.0643 3.4018 0
947 2 3.47364 52.6802 0
948 1 3.29778 75.6071 0
949 1 61.2124 28.4308 0
950 2 74.79 33.4736 0
951 1 74.7802 22.9797 0
952 2 4.60591 67.6183 0
953 2 1.89004 53.3444 0
954 2 45.2243 67.139 0
955 1 76.6127 58.4596 0
956 2 22.1112 11.2648 0
957 1 7.13363 16.8551 0
958 2 5.07394 19.7778 0
959 2 70.6016 36.5619 0
960 2 13.3385 67.7614 0
961 1 9.0879 24.4854 0
962 1 17.3284 4.63935 0
963 1 75.9426 17.8508 0
964 2 71.0852 62.2369 0
965 2 27.1981 5.11383 0
966 1 31.4622 15.4886 0
967 1 50.5013 22.3662 0
968 1 34.6765 6.59722 0
969 1 70.6795 30.0575 0
970 2 33.0965 26.8628 0
971 1 54.5412 76.7377 0
972 1 73.0241 57.5484 0
973 1 6.33655 65.2487 0
974 2 7.39304 28.1411 0
975 2 53.0849 75.4722 0
976 2 36.8713 29.5647 0
977 1 41.023 25.742 0
978 2 44.5403 36.462 0
979 2 26.4661 36.2184 0
980 1 48.9992 44.8635 0
981 1 75.8572 39.3526 0
982 1 63.3416 52.3537 0
983 1 42.5389 75.1468 0
984 1 17.2611 29.1258 0
985 1 53.304 0.208394 0
986 1 35.5786 52.8619 0
987 2 30.6057 15.726 0
988 2 52.7703 70.7591 0
989 2 74.5742 69.1018 0
990 2 14.2282 15.7191 0
991 2 50.4664 69.5529 0
992 1 47.3365 15.0265 0
993 2 25.2659 25.3432 0
994 2 27.6544 3.62638 0
995 1 30.229 38.4624 0
996 2 69.3091 23.7686 0
997 2 35.9349 13.2776 0
998 2 27.1479 31.5497 0
999 2 0.802475 16.9012 0
1000 2 70.9337 3.79504 0
1001 1 58.6872 67.296 0
1002 1 50.127 44.9942 0
1003 1 29.0776 28.5403 0
1004 1 3.1146 41.0498 0
1005 2 20.4642 22.8148 0
1006 2 42.8183 27.9712 0
1007 1 32.2975 11.2283 0
1008 1 61.1271 19.9797 0
1009 1 44.8424 20.1898 0
1010 1 24.4801 38.8048 0
1011 2 35.3514 74.2791 0
1012 2 56.7714 11.8265 0
1013 2 21.5235 45.7303 0
1014 1 31.1264 4.25292 0
1015 1 32.6148 64.2564 0
1016 1 63.9543 9.36653 0
1017 2 37.2312 16.2763 0
1018 1 50.5632 11.5903 0
1019 1 43.0584 13.1555 0
1020 2 25.4136 3.5054 0
1021 2 32.4097 19.544 0
1022 1 12.7627 37.3938 0
1023 1 31.7997 47.0902 0
1024 1 74.0943 14.7702 0
1025 1 46.2836 23.111 0
1026 1 42.2567 12.1781 0
1027 1 75.7018 74.4953 0
1028 1 23.7367 29.1485 0
1029 1 52.6397 64.1491 0
1030 2 26.4953 52.2777 0
1031 2 33.5814 29.7281 0
1032 1 71.546 11.9253 0
1033 1 71.8739 37.9937 0
1034 1 75.0677 19.328 0
1035 1 48.7883 68.9958 0
1036 2 41.46 11.8359 0
1037 1 56.4154 3.82969 0
1038 1 8.22397 23.032 0
1039 1 47.5751 0.42126 0
1040 2 28.8144 67.2788 0
1041 1 63.6103 4.701 0
1042 2 39.0172 9.64518 0
1043 2 37.9189 75.822 0
1044 1 31.3875 57.8194 0
1045 1 60.3578 29.0826 0
1046 1 74.3521 5.15892 0
1047 2 76.8619 4.62909 0
1048 1 68.1695 18.8781 0
1049 1 57.9064 60.1894 0
1050 2 10.032 28.9715 0
1051 1 27.7016 74.6114 0
1052 1 65.866 64.8258 0
1053 2 62.1615 22.8236 0
1054 1 5.44121 63.4579 0
1055 2 10.6541 18.103 0
1056 2 2.144 12.8121 0
1057 1 58.9366 20.8156 0
1058 1 62.5921 35.3026 0
1059 1 48.2155 40.4252 0
1060 2 13.2023 18.0007 0
1061 1 44.9268 49.2327 0
1062 2 60.2056 11.4255 0
1063 1 4.92224 0.326358 0
1064 1 70.6498 16.3271 0
1065 2 62.6114 68.4476 0
1066 1 40.8627 50.2802 0
1067 1 8.37928 11.5061 0
1068 2 28.1694 58.8869 0
1069 1 5.81752 33.2893 0
1070 2 51.4352 68.2094 0
1071 2 7.51686 76.9698 0
1072 2 61.912 54.0633 0
1073 2 60.7822 75.9381 0
1074 2 24.0197 17.258 0
1075 1 9.24628 22.4465 0
1076 1 61.4713 76.3506 0
1077 1 4.17096 75.176 0
1078 2 30.6415 4.96831 0
1079 2 49.1564 58.5555 0
1080 2 10.0177 38.2775 0
1081 2 8.04218 68.9947 0
1082 2 3.61349 33.9374 0
1083 2 11.5526 37.3286 0
1084 1 60.9895 11.7048 0
1085 1 44.267 33.5223 0
1086 1 56.6988 5.57332 0
1087 1 30.3529 17.2164 0
1088 1 76.9864 30.7243 0
1089 2 19.9565 20.1038 0
1090 1 23.8615 12.2725 0
1091 2 17.5206 2.99658 0
1092 1 59.208 3.71397 0
1093 1 42.5391 71.7098 0
1094 2 71.9231 2.59663 0
1095 1 6.99382 40.9103 0
1096 2 8.53382 38.4256 0
1097 1 37.8167 12.9248 0
1098 1 12.8341 41.0307 0
1099 1 25.662 75.082 0
1100 1 39.659 18.5918 0
1101 1 39.8879 19.5598 0
1102 1 19.4792 25.1246 0
1103 1 41.5088 45.0815 0
1104 1 24.1771 50.5744 0
1105 1 14.086 32.1893 0
1106 1 40.0718 36.6265 0
1107 2 16.8883 61.0265 0
1108 1 29.355 23.2349 0
1109 1 38.8185 17.7702 0
1110 2 33.8884 23.229 0
1111 1 40.3829 17.0399 0
1112 1 22.6478 65.5125 0
1113 2 52.7313 6.67141 0
1114 2 29.9461 28.7231 0
1115 2 45.6782 23.6471 0
1116 1 19.0476 73.55 0
1117 1 47.9142 13.7549 0
1118 1 28.1347 27.0169 0
1119 2 21.7091 70.3936 0
1120 1 29.4919 72.2663 0
1121 2 54.9085 14.8879 0
1122 1 41.5126 34.6268 0
1123 2 34.9194 8.94527 0
1124 1 52.6824 25.5373 0
1125 2 64.5376 9.98752 0
1126 2 42.0632 35.4744 0
1127 1 20.2071 32.9649 0
1128 1 41.6806 74.7233 0
1129 1 26.456 76.8489 0
1130 1 58.8967 34.2778 0
1131 1 32.5178 43.8994 0
1132 2 45.2682 14.063 0
1133 2 46.2838 12.6787 0
1134 2 25.8882 12.1443 0
1135 1 27.612 30.7605 0
1136 2 36.666 19.2866 0
1137 1 41.199 22.1544 0
1138 1 16.6557 60.1649 0
1139 2 30.5135 20.4656 0
1140 2 44.7445 24.9966 0
1141 1 68.2835 75.0221 0
1142 1 5.98969 72.7938 0
1143 1 44.1157 39.4149 0
1144 2 19.0632 21.7793 0
1145 1 53.1259 1.20955 0
1146 1 40.6757 21.1657 0
1147 1 41.5972 10.1908 0
1148 1 35.6079 4.81954 0
1149 1 68.4371 17.161 0
1150 2 58.9675 21.7441 0
1151 1 34.0559 73.5957 0
1152 1 39.3386 16.8312 0
1153 1 26.265 68.9929 0
1154 1 10.2235 22.2553 0
1155 2 35.476 67.4203 0
1156 1 47.1708 44.9189 0
1157 1 57.6809 72.6958 0
1158 2 49.8448 18.4895 0
1159 2 9.67799 27.1633 0
1160 1 58.1455 69.0214 0
1161 2 50.544 64.7288 0
1162 1 47.5067 76.0272 0
1163 2 30.6483 12.1789 0
1164 1 53.8943 47.3765 0
1165 1 60.6082 26.2963 0
1166 2 75.8027 67.9063 0
1167 1 4.30947 9.82249 0
1168 1 27.8184 72.5041 0
1169 1 66.7693 3.85159 0
1170 2 76.6077 15.0452 0
1171 1 68.5382 71.4058 0
1172 1 73.1721 0.280787 0
1173 1 69.2313 75.2973 0
1174 1 59.9021 4.56662 0
1175 2 72.5502 30.7117 0
1176 1 0.682113 9.64913 0
1177 1 27.4353 29.7513 0
1178 2 77.3635 62.5104 0
1179 1 28.1928 56.8217 0
1180 1 6.83998 6.66542 0
1181 1 1.05777 28.6233 0
1182 1 41.1604 33.5214 0
1183 2 72.7699 10.3227 0
1184 2 66.2139 10.5136 0
1185 1 9.55751 57.1815 0
1186 1 66.2918 12.6759 0
1187 1 70.9644 13.8409 0
1188 2 21.192 18.9204 0
1189 1 16.3768 0.719663 0
1190 1 43.2669 48.9103 0
1191 2 44.8814 44.3333 0
1192 1 47.4463 1.94611 0
1193 1 3.1849 14.4482 0
1194 2 21.293 20.1439 0
1195 1 7.7818 27.3083 0
1196 1 38.3416 28.2656 0
1197 1 29.6184 70.6403 0
1198 1 69.8741 42.9901 0
1199 2 43.3764 39.9176 0
1200 1 74.3674 45.6049 0
1201 1 6.60282 28.5697 0
1202 1 34.8037 14.4966 0
1203 2 17.4195 26.3929 0
1204 1 45.897 36.3487 0
1205 1 53.9321 29.4969 0
1206 1 42.9372 49.8486 0
1207 1 10.7859 33.4804 0
1208 1 36.3159 34.0192 0
1209 2 40.6131 32.868 0
1210 1 71.167 40.5799 0
1211 2 58.1383 14.6942 0
1212 1 26.2741 6.82843 0
1213 1 51.3174 71.0585 0
1214 1 33.8035 16.8683 0
1215 1 10.7581 4.52534 0
1216 1 10.5162 13.7191 0
1217 2 17.9766 28.446 0
1218 2 55.9036 3.16903 0
1219 1 44.4435 66.6887 0
1220 1 68.6109 22.8317 0
1221 1 44.428 41.4098 0
1222 2 42.2216 17.2452 0
1223 1 54.0521 10.189 0
1224 1 27.7089 54.2988 0
1225 1 24.5674 10.2013 0
1226 2 46.0852 20.4684 0
1227 1 24.2885 19.7988 0
1228 1 21.2847 67.8314 0
1229 2 46.6753 27.6848 0
1230 1 3.41612 36.8677 0
1231 2 44.507 70.6515 0
1232 1 33.0527 30.4224 0
1233 1 30.0411 27.9246 0
1234 1 28.4586 15.3481 0
1235 1 36.1274 30.0568 0
1236 1 57.4912 29.9053 0
1237 1 40.9828 29.9822 0
1238 1 15.9842 49.0818 0
1239 1 54.2137 46.3029 0
1240 1 49.1262 76.3877 0
1241 1 41.8295 66.4939 0