ITEM: TIMESTEP
0
ITEM: NUMBER OF ATOMS
7200
ITEM: BOX BOUNDS xy xz yz pp pp pp
0.0000000000000000e+00 7.7459666924100006e+01 0.0000000000000000e+00
0.0000000000000000e+00 7.7459666924100006e+01 0.0000000000000000e+00
-1.2909944490000000e-01 1.2909944490000000e-01 0.0000000000000000e+00
ITEM: ATOMS id type x y z
1 1 12.056 20.0991 0
2 1 14.8443 64.0676 0
3 1 75.1214 71.2324 0
4 1 20.4369 8.15322 0
5 1 34.6093 55.9411 0
6 1 56.6976 28.6077 0
7 2 5.46956 2.9463 0
8 2 64.7758 46.489 0
9 1 42.1417 56.0738 0
10 2 19.0828 14.7397 0
11 2 25.3733 53.2807 0
12 1 55.1765 11.5025 0
13 2 23.1964 6.12084 0
14 1 46.4853 70.6389 0
15 1 39.4201 31.2072 0
16 1 18.2268 14.9705 0
17 1 31.302 39.9809 0
18 1 33.8879 5.70089 0
19 1 26.9704 57.8118 0
20 2 44.8466 3.66113 0
21 1 12.2518 65.9791 0
22 1 54.3594 10.7774 0
23 1 75.7164 45.7157 0
24 1 55.8911 66.2417 0
25 1 6.64137 71.1338 0
26 1 21.0701 67.681 0
27 2 28.9641 63.7254 0
28 1 51.297 74.1245 0
29 2 22.582 47.9585 0
30 2 25.327 32.1021 0
31 1 15.1703 53.3133 0
32 1 50.9911 37.9524 0
33 1 60.7792 48.427 0
34 2 45.3287 9.66784 0
35 1 75.2009 63.1963 0
36 1 30.5986 59.9577 0
37 1 22.2758 61.5427 0
38 1 45.7994 19.7805 0
39 1 22.3915 5.77934 0
40 2 24.8725 59.2635 0
41 2 18.4291 64.7957 0
42 1 20.9605 1.35559 0
43 1 18.9286 33.5081 0
44 1 34.3186 62.6379 0
45 1 3.3732 34.5541 0
46 1 68.177 7.64343 0
47 1 73.4843 59.0675 0
48 1 44.169 68.2889 0
49 2 77.4246 4.16435 0
50 1 31.0965 66.7155 0
51 1 1.34602 10.0044 0
52 2 33.099 24.0989 0
53 1 53.5618 18.6964 0
54 1 49.6085 30.3623 0
55 1 9.70515 0.995106 0
56 1 45.9479 26.1396 0
57 1 67.5471 43.0579 0
58 1 69.8128 69.2076 0
59 1 34.3123 2.14883 0
60 1 28.681 3.45305 0
61 1 40.5357 75.8979 0
62 1 52.2152 44.9817 0
63 1 57.1862 9.82021 0
64 1 50.6354 45.6746 0
65 1 66.8109 73.7939 0
66 2 55.9943 11.3442 0
67 2 40.777 35.9 0
68 2 0.829531 29.1501 0
69 1 62.1306 45.3659 0
70 1 8.45951 35.4346 0
71 2 7.46013 42.2718 0
72 1 76.982 3.3497 0
73 1 6.39233 64.2409 0
74 2 41.5318 22.78 0
75 1 75.4968 53.2375 0
76 1 19.7442 46.9048 0
77 1 24.9673 74.5747 0
78 1 3.64798 15.6003 0
79 1 12.6625 73.5058 0
80 1 43.4857 16.5774 0
81 1 55.0343 62.2069 0
82 2 44.3415 16.7233 0
83 1 5.67351 32.9527 0
84 1 32.9864 45.6126 0
85 1 34.5167 20.8663 0
86 2 34.5964 64.5966 0
87 1 71.4491 34.6943 0
88 1 18.4597 54.7347 0
89 1 27.835 13.1246 0
90 1 37.4795 37.9844 0
91 2 45.9843 41.1131 0
92 2 41.2428 56.0618 0
93 1 27.7888 16.9718 0
94 1 33.4889 55.6527 0
95 2 39.0393 56.6537 0
96 1 65.1349 1.31247 0
97 1 44.2345 48.9699 0
98 2 2.87457 60.1523 0
99 1 61.908 48.1365 0
100 2 32.5205 30.8955 0
101 1 47.758 54.3545 0
102 1 56.0365 21.5225 0
103 1 56.6388 70.3882 0
104 1 2.70552 60.9938 0
105 2 40.1956 2.97967 0
106 2 30.3807 34.8155 0
107 1 13.1249 31.3393 0
108 1 0.861297 0.84186 0
109 1 35.7213 41.6335 0
110 2 65.1913 25.6018 0
111 1 66.039 12.0416 0
112 1 34.2278 72.779 0
113 2 0.274309 60.536 0
114 2 74.5896 29.5314 0
115 2 30.4091 12.8604 0
116 2 74.697 53.6227 0
117 1 16.1963 45.9213 0
118 2 46.8145 26.5254 0
119 1 62.5707 0.105047 0
120 2 5.93573 49.8594 0
121 1 6.13903 3.52696 0
122 1 19.8934 33.1011 0
123 2 5.25816 17.8117 0
124 1 46.4306 57.3085 0
125 1 31.722 27.3489 0
126 1 58.0558 52.0627 0
127 1 4.42781 59.0497 0
128 1 14.3868 23.4454 0
129 1 16.4264 52.2576 0
130 1 7.27374 2.24815 0
131 1 59.0976 24.9501 0
132 2 31.1173 41.7252 0
133 2 52.6669 6.86363 0
134 1 65.8002 50.9783 0
135 1 31.6388 30.4381 0
136 2 55.2617 46.3933 0
137 1 61.7359 56.6404 0
138 2 70.554 48.0769 0
139 1 68.4201 27.1517 0
140 1 3.50551 21.8859 0
141 2 47.9532 63.5231 0
142 1 6.52051 22.5717 0
143 2 40.5768 70.0294 0
144 2 47.1566 75.2503 0
145 2 18.2446 52.9609 0
146 1 54.8269 3.9653 0
147 1 9.35028 38.9765 0
148 1 46.3838 53.3417 0
149 2 68.0522 49.2332 0
150 1 32.7967 56.4377 0
151 2 29.5408 13.9124 0
152 1 48.8408 63.123 0
153 2 17.3664 46.3594 0
154 2 31.5039 72.2074 0
155 1 70.5716 48.9973 0
156 1 43.4994 10.3182 0
157 1 49.261 70.9668 0
158 1 60.2294 69.0871 0
159 2 10.4876 26.0423 0
160 1 38.1911 17.4493 0
161 1 7.22684 63.6014 0
162 2 72.5955 23.9685 0
163 1 30.6323 27.0154 0
164 1 60.1673 29.4839 0
165 1 75.6809 27.8322 0
166 1 1.96659 44.6692 0
167 1 39.1535 0.849573 0
168 1 38.4161 72.6958 0
169 1 56.7289 30.8726 0
170 1 57.3626 1.01231 0
171 2 36.8066 61.0177 0
172 2 33.6497 53.7073 0
173 2 43.7622 24.4135 0
174 2 27.4607 56.0247 0
175 2 30.8841 26.1828 0
176 1 46.3444 16.2994 0
177 1 19.6148 58.7081 0
178 1 61.8848 61.3992 0
179 1 64.689 24.9422 0
180 2 33.2595 39.6763 0
181 1 45.1513 27.5962 0
182 1 61.68 58.6147 0
183 2 12.1537 37.2889 0
184 1 5.14804 67.5648 0
185 2 67.2089 29.3823 0
186 1 59.0956 35.0992 0
187 1 39.5788 46.3221 0
188 1 57.4017 47.6568 0
189 2 63.7039 52.954 0
190 1 23.2286 4.18959 0
191 1 71.836 8.17982 0
192 1 65.5495 10.3136 0
193 2 10.925 41.561 0
194 2 68.7257 69.1798 0
195 1 11.1817 3.25421 0
196 2 49.6298 54.8742 0
197 2 20.3128 10.0935 0
198 1 13.3658 61.1798 0
199 2 75.6973 66.3085 0
200 1 59.9508 27.8081 0
201 2 34.7433 1.36412 0
202 2 74.5585 55.1979 0
203 1 52.2167 65.6674 0
204 1 29.7142 3.8246 0
205 1 56.0832 26.1839 0
206 2 35.747 37.0245 0
207 2 14.0295 9.5193 0
208 1 33.738 14.0048 0
209 1 12.1689 11.6307 0
210 2 5.24725 20.3815 0
211 1 17.2728 8.35236 0
212 2 24.7774 6.45649 0
213 2 55.9657 28.1544 0
214 1 71.0452 57.7887 0
215 2 67.0251 22.344 0
216 1 20.7362 73.6508 0
217 1 59.56 34.2058 0
218 2 54.7928 58.5943 0
219 2 68.0711 42.3594 0
220 2 42.6479 63.812 0
221 1 18.9712 45.3339 0
222 1 45.0212 12.427 0
223 2 39.0784 67.6736 0
224 2 27.7512 68.6018 0
225 1 32.3459 23.6466 0
226 2 66.4523 57.2905 0
227 2 6.04923 16.5043 0
228 1 34.4934 9.25383 0
229 1 71.0229 26.929 0
230 1 32.2144 74.5941 0
231 1 10.6852 34.2669 0
232 1 42.0141 12.9187 0
233 1 34.9079 7.59257 0
234 1 76.1045 8.16271 0
235 1 60.6857 59.0601 0
236 2 44.6363 70.3469 0
237 1 77.2104 62.4348 0
238 2 9.19882 21.421 0
239 1 58.4415 2.79411 0
240 2 61.711 46.2128 0
241 1 47.2616 66.6615 0
242 1 18.5095 30.5817 0
243 1 7.15675 56.3536 0
244 1 61.3086 64.3872 0
245 1 10.9681 30.7539 0
246 1 2.05982 35.5356 0
247 1 65.689 49.9529 0
248 1 12.3795 0.873412 0
249 2 50.344 41.1254 0
250 1 29.0757 9.37162 0
251 2 57.7024 50.0597 0
252 2 65.784 23.3313 0
253 1 19.8377 17.6274 0
254 1 54.4399 25.0197 0
255 1 65.7068 42.8531 0
256 1 31.4124 8.57457 0
257 1 22.1609 58.0177 0
258 1 26.1622 38.7092 0
259 1 55.5622 56.8013 0
260 2 44.0375 53.8027 0
261 2 26.4624 62.729 0
262 1 24.3742 33.8075 0
263 2 12.6 34.6569 0
264 2 71.432 60.0397 0
265 1 77.0461 46.7459 0
266 1 38.1789 44.6834 0
267 2 61.6667 24.6079 0
268 2 56.6398 45.8077 0
269 1 48.1762 21.0138 0
270 2 9.17847 47.1314 0
271 2 22.5475 33.6033 0
272 2 20.4643 14.3401 0
273 1 14.9627 65.1109 0
274 1 32.3114 49.9563 0
275 1 8.55586 48.9505 0
276 1 75.264 10.0372 0
277 2 15.6996 71.508 0
278 1 7.47799 17.5408 0
279 1 4.47166 44.3972 0
280 1 20.3087 35.8768 0
281 1 30.6465 38.496 0
282 2 75.9115 26.384 0
283 1 76.3727 55.8905 0
284 2 54.2776 38.3329 0
285 1 70.9884 52.8578 0
286 1 11.3567 63.4697 0
287 1 19.0667 76.9296 0
288 2 75.8985 3.73725 0
289 2 21.2753 39.2762 0
290 2 69.1055 76.6115 0
291 1 35.2711 22.5831 0
292 1 27.7574 58.4795 0
293 1 47.4854 19.0073 0
294 1 40.3319 2.16913 0
295 1 69.6458 3.10319 0
296 2 74.2039 8.28652 0
297 1 40.2768 59.813 0
298 1 72.4047 35.2202 0
299 2 49.2366 36.4795 0
300 1 39.2589 43.7287 0
301 1 73.4363 19.6591 0
302 1 50.9006 35.1925 0
303 1 20.42 32.2146 0
304 1 60.4973 72.3889 0
305 2 59.0663 75.8772 0
306 1 62.9408 52.5175 0
307 2 73.3649 38.7368 0
308 1 41.6248 5.26255 0
309 2 24.9479 17.08 0
310 2 13.3771 12.9949 0
311 1 29.364 49.4048 0
312 1 67.4524 61.6292 0
313 1 74.7118 76.1857 0
314 1 40.5449 45.8836 0
315 2 56.3138 31.6736 0
316 2 39.5151 63.3251 0
317 1 50.9465 20.5594 0
318 2 6.8819 31.2061 0
319 1 30.9 25.3548 0
320 1 36.1541 61.5813 0
321 1 58.6947 68.2664 0
322 2 74.0153 11.8044 0
323 2 24.9979 63.5452 0
324 1 64.4623 41.5755 0
325 1 41.2854 6.30758 0
326 1 9.7167 58.8992 0
327 1 48.7827 54.7949 0
328 1 0.849924 37.0229 0
329 1 41.7034 42.6065 0
330 2 51.767 34.9525 0
331 2 69.8588 3.93702 0
332 1 59.4132 28.7926 0
333 1 36.9469 12.3076 0
334 1 17.1218 34.7141 0
335 1 20.5657 38.7783 0
336 2 72.1279 74.569 0
337 1 34.7361 33.7497 0
338 2 17.1326 1.69562 0
339 1 42.4117 68.2612 0
340 1 18.9463 57.838 0
341 2 74.1203 44.2235 0
342 1 66.9859 5.87487 0
343 2 56.4343 49.7281 0
344 2 22.8357 66.0996 0
345 1 7.90387 27.7099 0
346 1 17.5764 71.935 0
347 1 35.4678 56.5004 0
348 1 56.5736 18.8319 0
349 1 33.7249 20.1959 0
350 1 37.1675 31.1529 0
351 1 17.9553 53.7991 0
352 1 47.8541 30.7525 0
353 1 75.2606 25.8067 0
354 2 22.4958 26.3876 0
355 2 43.4115 18.3219 0
356 2 11.9465 2.82322 0
357 1 68.4695 67.5854 0
358 1 24.2837 3.90333 0
359 1 22.4001 14.6217 0
360 2 45.2032 31.2757 0
361 2 48.0282 67.1633 0
362 1 27.1048 74.6854 0
363 2 38.006 73.4558 0
364 1 13.1532 66.6119 0
365 2 8.89919 57.2165 0
366 1 24.9038 50.6744 0
367 2 19.7553 23.4431 0
368 2 51.3948 54.8797 0
369 2 65.2803 70.5609 0
370 1 3.41991 28.1988 0
371 1 46.0403 73.4796 0
372 2 40.4908 10.0334 0
373 1 10.3535 31.6388 0
374 2 66.748 41.2652 0
375 1 52.2774 52.708 0
376 2 75.4827 43.1625 0
377 2 58.1785 38.1088 0
378 1 20.3707 63.7773 0
379 1 13.9555 20.2418 0
380 1 9.88857 62.5164 0
381 1 26.6644 23.4284 0
382 1 30.6312 23.6874 0
383 1 9.58283 11.8585 0
384 1 34.8757 51.6562 0
385 1 28.4496 77.0972 0
386 1 54.8958 40.3334 0
387 1 59.4767 76.6042 0
388 2 55.9038 57.7957 0
389 1 24.5684 56.7994 0
390 1 29.5108 13.021 0
391 2 59.8214 26.7558 0
392 2 30.0454 10.1423 0
393 2 38.6801 64.8958 0
394 1 10.2453 73.8024 0
395 1 53.2572 21.9352 0
396 1 13.7887 70.5335 0
397 1 46.8356 17.2066 0
398 1 45.4661 70.7869 0
399 1 70.0607 18.0039 0
400 1 59.7674 74.0184 0
401 1 44.6224 11.489 0
402 2 56.5815 16.9564 0
403 1 38.293 51.6011 0
404 1 69.2206 70.9827 0
405 2 73.8207 76.3198 0
406 1 34.1712 19.2141 0
407 2 45.717 21.7763 0
408 1 63.4746 30.4723 0
409 1 18.6515 61.3072 0
410 2 67.5183 16.582 0
411 2 66.6147 36.6016 0
412 1 58.9535 38.6274 0
413 1 7.11659 36.5934 0
414 1 71.3852 48.2904 0
415 1 7.07757 41.5537 0
416 2 73.7507 62.3747 0
417 2 75.1528 12.6086 0
418 1 54.2275 30.0584 0
419 2 56.8211 47.0676 0
420 2 24.7666 55.9471 0
421 1 60.3509 19.5321 0
422 1 1.98003 71.4721 0
423 1 4.09335 12.0449 0
424 1 60.7315 27.0968 0
425 1 58.8541 50.3908 0
426 1 56.0498 73.6909 0
427 2 39.5126 14.931 0
428 1 51.5587 50.1381 0
429 1 59.0961 70.9177 0
430 1 36.6449 37.1399 0
431 1 0.0731583 29.5534 0
432 1 63.3652 49.1016 0
433 1 29.0963 69.401 0
434 1 1.87927 42.8245 0
435 1 64.0411 34.2664 0
436 2 68.1244 38.9499 0
437 2 43.6451 59.3791 0
438 1 38.9487 61.7159 0
439 2 41.2234 12.6032 0
440 1 43.4416 43.532 0
441 2 66.6782 15.1369 0
442 1 9.61818 37.9681 0
443 1 54.5746 16.811 0
444 1 16.7814 75.4567 0
445 2 69.3473 67.5368 0
446 1 61.7079 42.2337 0
447 1 27.0502 70.9124 0
448 1 46.9684 37.6046 0
449 1 37.1094 73.176 0
450 2 48.0858 59.7452 0
451 2 6.54393 61.7409 0
452 1 66.6958 11.1713 0
453 1 28.6392 76.0291 0
454 2 62.613 29.9961 0
455 2 26.5221 67.9362 0
456 1 11.363 44.6065 0
457 2 18.546 1.91538 0
458 1 38.0147 77.0575 0
459 2 15.5332 56.73 0
460 1 5.72188 4.52725 0
461 2 27.2709 27.1065 0
462 1 45.7612 24.341 0
463 1 75.7971 69.7449 0
464 1 9.10739 47.9847 0
465 2 40.7141 44.983 0
466 1 21.7245 12.972 0
467 2 11.6329 1.34967 0
468 1 19.3714 36.3477 0
469 1 2.02124 2.10255 0
470 1 61.825 10.5413 0
471 2 73.9929 40.9039 0
472 1 25.5207 43.0525 0
473 1 61.7077 65.8639 0
474 1 33.522 54.5732 0
475 1 22.4604 59.8346 0
476 2 39.0397 32.0231 0
477 1 60.6787 11.5711 0
478 2 33.1495 74.471 0
479 1 33.3037 22.2947 0
480 1 19.8135 25.7175 0
481 1 7.17176 18.6524 0
482 1 10.9019 25.2072 0
483 2 1.24172 1.68452 0
484 1 14.4457 38.2353 0
485 1 21.3367 57.2845 0
486 1 7.28964 4.83353 0
487 2 70.8861 10.3001 0
488 1 58.7947 5.74084 0
489 1 52.3439 15.1747 0
490 1 35.465 31.0838 0
491 1 30.5884 42.5137 0
492 2 61.2475 9.81687 0
493 1 73.3985 8.74681 0
494 1 67.5734 31.9801 0
495 2 22.532 49.2808 0
496 2 52.7314 42.0571 0
497 2 40.6962 6.9095 0
498 1 23.5101 25.9906 0
499 1 35.7987 74.3634 0
500 1 2.95302 4.12182 0
501 2 45.5545 43.4244 0
502 1 16.653 24.8622 0
503 1 50.2454 9.7671 0
504 1 37.1172 32.7311 0
505 2 26.5849 77.156 0
506 2 17.5318 65.2344 0
507 1 42.0406 37.4039 0
508 1 12.7663 32.7795 0
509 1 28.8707 24.7868 0
510 1 7.07987 38.6957 0
511 1 69.3109 26.6191 0
512 1 54.5009 53.2602 0
513 1 11.8307 34.1849 0
514 1 25.2717 64.3785 0
515 2 61.5244 11.4038 0
516 2 11.4803 38.4702 0
517 2 74.4889 74.6457 0
518 2 19.1715 54.2057 0
519 2 33.361 1.91494 0
520 1 74.618 37.0437 0
521 1 42.0114 24.5412 0
522 2 24.3251 66.2054 0
523 1 77.2117 12.1621 0
524 1 70.4244 34.6436 0
525 1 22.8014 0.142597 0
526 2 76.4735 22.2306 0
527 1 49.432 26.0795 0
528 2 74.7321 5.02462 0
529 2 35.3159 45.293 0
530 1 7.86542 59.611 0
531 2 76.3136 69.0409 0
532 2 32.1804 60.8227 0
533 1 73.0831 5.68071 0
534 1 34.4203 27.0688 0
535 1 29.0732 19.2803 0
536 1 32.609 65.7681 0
537 1 35.1132 47.8119 0
538 2 16.4404 21.6782 0
539 2 46.0536 76.7352 0
540 1 61.0733 40.7359 0
541 2 24.9839 8.30045 0
542 1 51.2217 56.7112 0
543 2 69.6291 55.5662 0
544 2 51.9686 10.4172 0
545 1 28.2166 22.8622 0
546 1 34.4117 3.18705 0
547 1 10.2234 14.4486 0
548 2 23.6723 3.25612 0
549 2 65.402 21.8207 0
550 2 5.29077 39.4478 0
551 1 30.3518 8.29375 0
552 2 70.5945 40.3874 0
553 2 29.6296 44.7735 0
554 1 51.6477 62.2474 0
555 1 50.3377 57.258 0
556 1 72.9622 68.1709 0
557 1 61.9972 53.8894 0
558 1 2.56919 68.5616 0
559 1 72.7756 36.1853 0
560 2 21.3795 61.5891 0
561 1 5.70886 0.684214 0
562 2 4.38534 11.2457 0
563 2 54.067 48.724 0
564 1 70.1329 68.2017 0
565 2 21.7978 1.56213 0
566 2 18.1617 23.8178 0
567 1 48.9154 41.9956 0
568 2 23.0064 74.1309 0
569 2 15.6826 27.4697 0
570 1 73.1113 34.4148 0
571 1 0.570866 3.54903 0
572 2 6.71392 48.4948 0
573 2 77.4411 44.8309 0
574 1 3.71438 69.0461 0
575 1 18.3193 7.84901 0
576 1 16.4025 63.107 0
577 1 43.4284 50.3639 0
578 2 67.6342 34.0967 0
579 2 46.0094 69.0472 0
580 1 62.8186 42.73 0
581 1 6.6893 60.8567 0
582 2 68.68 59.6409 0
583 2 64.1182 58.6722 0
584 2 33.4232 65.4751 0
585 1 60.8835 77.2467 0
586 1 48.7867 58.6091 0
587 2 14.6546 21.7713 0
588 1 49.4802 5.13303 0
589 2 53.6823 10.1957 0
590 1 24.7492 73.5178 0
591 1 56.1162 6.47893 0
592 1 48.5618 74.2554 0
593 1 44.0518 13.085 0
594 1 59.8927 63.3185 0
595 1 72.2438 65.4625 0
596 2 7.24832 1.34746 0
597 1 3.46216 43.9381 0
598 1 69.0902 9.14968 0
599 1 2.68872 50.9618 0
600 1 0.216189 47.6005 0
601 2 42.1407 36.0737 0
602 1 62.1586 14.3747 0
603 2 70.8238 50.9912 0
604 2 62.2969 16.4806 0
605 1 52.4714 69.2058 0
606 1 41.6759 4.05267 0
607 1 76.3001 1.35866 0
608 2 1.30029 40.3102 0
609 2 40.7516 0.404534 0
610 1 7.85282 49.7399 0
611 1 53.9799 58.7601 0
612 1 76.8649 6.18946 0
613 1 76.8973 23.0289 0
614 2 50.5101 28.4069 0
615 1 34.6741 38.7717 0
616 1 39.6951 16.1322 0
617 1 68.7991 2.44135 0
618 2 11.995 42.7655 0
619 2 55.1719 42.2966 0
620 2 70.7799 74.0273 0
621 2 58.5233 35.7331 0
622 1 60.1924 18.2795 0
623 1 37.4761 11.3932 0
624 2 20.4336 54.7898 0
625 1 26.9365 76.3558 0
626 1 73.8306 29.1335 0
627 2 2.20984 24.9914 0
628 1 28.7329 57.9969 0
629 2 77.3522 25.3534 0
630 1 29.226 73.0796 0
631 1 56.8835 37.1047 0
632 1 21.4822 65.1296 0
633 2 25.6939 72.0644 0
634 1 18.7583 50.7326 0
635 2 41.5021 43.5125 0
636 2 37.1633 40.8065 0
637 1 11.2515 11.0622 0
638 1 67.4153 40.7649 0
639 1 70.319 46.3373 0
640 1 0.187571 53.9787 0
641 1 36.4997 33.6274 0
642 1 9.62874 33.7163 0
643 1 50.2819 44.6387 0
644 2 19.2322 27.3588 0
645 1 56.9896 52.233 0
646 1 46.3326 46.9765 0
647 2 23.7779 10.5694 0
648 1 64.4133 12.4533 0
649 2 10.8203 69.216 0
650 2 47.1898 61.9579 0
651 1 46.1356 12.1644 0
652 1 29.6344 70.9576 0
653 2 13.5668 23.228 0
654 2 10.4237 3.78078 0
655 1 5.51642 51.8338 0
656 1 72.8265 53.8834 0
657 1 33.7076 46.3955 0
658 1 71.6602 13.175 0
659 2 0.836503 66.2864 0
660 1 26.7363 35.6094 0
661 1 37.2858 9.73728 0
662 1 32.7224 59.9877 0
663 1 10.5581 28.6882 0
664 1 58.3587 75.36 0
665 2 49.1523 76.9155 0
666 2 12.7429 58.195 0
667 1 26.4312 73.8577 0
668 2 7.66389 76.2391 0
669 1 4.4157 9.27822 0
670 2 43.9583 37.5876 0
671 2 37.2957 17.4911 0
672 1 9.90498 19.6608 0
673 1 6.87484 16.6385 0
674 1 32.6538 42.464 0
675 2 4.7979 58.2766 0
676 2 38.0691 6.35476 0
677 1 41.4678 54.044 0
678 1 53.7684 39.0716 0
679 1 46.698 69.581 0
680 1 31.7073 53.5251 0
681 1 26.3051 54.0962 0
682 1 62.3398 59.5609 0
683 1 18.041 59.2904 0
684 1 64.4845 68.9603 0
685 2 35.8716 18.6946 0
686 1 50.2931 6.15438 0
687 1 41.5679 18.9416 0
688 2 53.5579 73.5636 0
689 1 72.0505 62.5528 0
690 1 66.0544 72.2888 0
691 1 41.9478 39.927 0
692 2 60.0627 44.018 0
693 1 71.3163 77.1351 0
694 2 53.6977 64.2598 0
695 1 42.2409 11.8641 0
696 2 35.6856 47.1566 0
697 1 25.7392 13.413 0
698 1 8.51983 3.51122 0
699 1 66.6657 13.9892 0
700 1 72.0517 47.0173 0
701 1 64.0582 31.413 0
702 1 63.7817 65.3203 0
703 2 72.0718 2.37158 0
704 2 8.28274 61.4148 0
705 2 4.95366 7.36987 0
706 1 52.2732 51.6417 0
707 2 59.8266 38.605 0
708 1 50.3786 42.9392 0
709 1 51.637 73.092 0
710 2 60.315 28.6047 0
711 1 55.9665 54.1155 0
712 2 62.748 32.7704 0
713 2 68.4042 70.4947 0
714 2 0.571885 64.9321 0
715 1 45.318 18.8137 0
716 1 76.4551 29.8813 0
717 1 29.8056 63.3934 0
718 1 14.3432 3.76607 0
719 1 53.2839 36.8634 0
720 2 49.1202 38.3858 0
721 2 66.9435 39.8587 0
722 1 49.0804 7.91414 0
723 2 39.9744 75.246 0
724 2 10.3427 59.4978 0
725 1 50.7266 38.9797 0
726 1 8.22677 29.8879 0
727 2 13.0196 1.56356 0
728 1 67.4301 55.5835 0
729 2 21.5045 59.7314 0
730 1 32.8565 27.5283 0
731 2 16.698 36.381 0
732 1 16.379 54.3827 0
733 1 29.816 29.4975 0
734 2 66.5195 46.4608 0
735 1 66.7889 67.2796 0
736 1 47.8453 49.3138 0
737 2 4.15197 45.6927 0
738 1 13.6846 34.4186 0
739 1 18.0171 37.5463 0
740 1 48.4019 37.9171 0
741 2 57.142 55.6441 0
742 1 58.9438 37.5782 0
743 1 27.2237 62.1456 0
744 2 72.763 18.9875 0
745 1 23.1368 72.7347 0
746 1 35.1141 10.192 0
747 1 47.5305 76.0835 0
748 2 43.1164 69.8547 0
749 2 22.3052 24.5997 0
750 1 55.3608 35.005 0
751 1 57.7889 40.1088 0
752 2 2.39766 70.5363 0
753 1 52.9779 39.7431 0
754 2 21.7639 15.32 0
755 1 24.0769 50.0303 0
756 2 49.3768 75.8945 0
757 1 48.4459 19.3651 0
758 1 6.18308 9.69965 0
759 1 61.8093 47.0459 0
760 1 12.2181 10.514 0
761 1 69.8836 71.806 0
762 1 15.1299 57.4879 0
763 2 77.1868 6.96417 0
764 1 75.0708 57.0922 0
765 2 47.0317 56.6726 0
766 1 63.2665 22.7415 0
767 1 13.8239 1.25879 0
768 1 65.3344 8.13049 0
769 1 61.7706 50.0878 0
770 2 60.4471 73.3133 0
771 1 18.8674 40.097 0
772 1 44.9263 51.017 0
773 1 40.7666 43.0834 0
774 2 32.5736 25.5937 0
775 1 71.7116 30.6714 0
776 2 43.651 42.7018 0
777 1 70.4659 55.3525 0
778 2 10.4833 63.1591 0
779 1 45.2063 25.2918 0
780 1 17.2013 6.38938 0
781 1 29.5667 35.1754 0
782 1 57.493 64.7372 0
783 1 60.6238 35.6866 0
784 1 70.965 50.1063 0
785 2 8.83455 11.3696 0
786 1 73.1986 70.3021 0
787 1 20.9455 66.5848 0
788 1 39.8132 54.8264 0
789 1 11.0313 4.39141 0
790 1 52.1772 70.2531 0
791 1 45.8248 13.2119 0
792 1 8.57628 24.9644 0
793 1 25.3422 15.0718 0
794 2 71.3105 16.6562 0
795 2 75.6423 14.0853 0
796 2 75.5694 67.8356 0
797 1 44.3912 65.3249 0
798 1 38.4529 19.0968 0
799 1 44.2275 76.4466 0
800 1 30.5353 70.4656 0
801 2 6.43606 25.8368 0
802 2 28.1178 45.475 0
803 2 23.6644 77.2369 0
804 2 52.591 36.0242 0
805 1 23.8448 71.981 0
806 1 53.0536 70.7908 0
807 2 39.8972 50.3678 0
808 1 50.5669 47.1063 0
809 2 36.3881 62.3807 0
810 1 58.3816 76.4651 0
811 1 28.7448 60.9567 0
812 2 59.73 48.102 0
813 2 46.2404 58.1834 0
814 1 54.3845 31.1561 0
815 2 41.0362 16.9626 0
816 1 28.0575 34.4715 0
817 1 67.7014 75.8086 0
818 2 36.8054 16.0909 0
819 2 45.7806 56.7504 0
820 1 66.9089 69.8509 0
821 1 16.6722 64.7999 0
822 1 56.724 76.8084 0
823 1 17.0814 55.7297 0
824 2 35.3166 42.401 0
825 1 29.1093 41.5579 0
826 1 32.8973 75.3333 0
827 1 7.28018 26.0385 0
828 1 76.9266 51.1348 0
829 1 72.143 40.1675 0
830 2 47.8002 64.5447 0
831 2 43.282 4.65194 0
832 1 73.9663 14.2405 0
833 1 24.4515 43.3826 0
834 2 48.5648 5.45994 0
835 1 68.3695 6.58781 0
836 1 58.1601 27.6276 0
837 1 56.3266 41.1226 0
838 1 39.0019 52.8699 0
839 1 16.0592 60.2581 0
840 2 15.7396 46.6871 0
841 1 36.8503 52.5499 0
842 2 11.0172 61.2311 0
843 1 5.55953 42.4363 0
844 1 63.4573 21.632 0
845 2 28.0061 2.39685 0
846 1 49.5849 39.2535 0
847 1 10.8405 57.6203 0
848 2 69.0776 47.658 0
849 1 74.1303 10.9345 0
850 1 67.9782 19.7335 0
851 1 39.4562 18.6425 0
852 1 12.2332 1.97108 0
853 1 42.3462 61.4948 0
854 1 37.6213 69.6157 0
855 1 39.4334 25.6609 0
856 2 18.6819 42.0153 0
857 1 57.8606 33.9732 0
858 2 34.3701 28.8802 0
859 1 13.1383 64.7969 0
860 2 2.08727 58.6002 0
861 2 60.3056 40.2815 0
862 2 2.86576 69.3809 0
863 1 58.9827 23.9329 0
864 1 60.2712 53.8161 0
865 2 66.2126 68.1189 0
866 1 60.4806 17.2335 0
867 2 31.4813 21.8634 0
868 1 37.163 61.8117 0
869 1 62.1383 20.2101 0
870 1 0.0855386 52.7945 0
871 1 62.7354 26.161 0
872 1 42.3514 50.6333 0
873 1 50.6352 62.4559 0
874 1 3.93842 71.7391 0
875 1 34.1053 57.6258 0
876 2 51.5804 7.82772 0
877 1 13.1543 55.5338 0
878 2 14.8176 16.0422 0
879 1 76.5434 13.9574 0
880 2 31.7153 33.6849 0
881 2 51.8995 29.3242 0
882 2 47.961 73.6021 0
883 1 25.6847 20.0142 0
884 1 55.9878 36.4947 0
885 1 39.0008 5.05247 0
886 1 36.9773 59.94 0
887 2 54.8255 50.2372 0
888 1 0.451518 76.6501 0
889 2 59.2098 49.5326 0
890 2 7.78151 25.3073 0
891 1 38.0933 10.5181 0
892 1 40.0849 67.7129 0
893 1 30.0261 53.5805 0
894 1 77.0113 14.9302 0
895 2 32.3646 52.8922 0
896 1 37.6459 2.55625 0
897 2 35.712 17.0961 0
898 1 31.1711 43.4895 0
899 1 2.03077 75.7868 0
900 2 38.72 0.129213 0
901 1 52.2681 41.2762 0
902 1 24.3047 75.4088 0
903 1 38.0013 40.485 0
904 2 0.191463 37.5842 0
905 1 63.6667 62.017 0
906 1 69.0648 44.775 0
907 1 3.70294 29.7857 0
908 1 50.7233 23.8695 0
909 1 0.340694 48.7148 0
910 2 1.80398 50.8051 0
911 2 4.8643 4.776 0
912 2 36.238 32.8162 0
913 2 31.9478 51.5796 0
914 1 18.3716 12.9808 0
915 2 64.5739 5.42137 0
916 1 3.51966 39.77 0
917 2 4.92393 33.4617 0
918 2 19.5509 35.4698 0
919 1 8.14702 57.7883 0
920 1 15.9568 47.5768 0
921 1 0.0679121 26.58 0
922 2 50.8731 18.9479 0
923 2 12.273 24.3474 0
924 1 39.2785 17.5667 0
925 1 66.287 47.3058 0
926 2 35.5106 35.3431 0
927 1 68.7527 0.13862 0
928 1 52.2917 58.9392 0
929 2 52.1102 32.2047 0
930 2 19.9653 15.8589 0
931 1 40.8823 47.4533 0
932 1 70.4099 39.009 0
933 1 34.3649 21.8971 0
934 1 1.95101 60.2357 0
935 1 11.2922 50.6421 0
936 2 42.264 4.67886 0
937 1 14.3394 73.1664 0
938 1 36.6969 67.6584 0
939 2 50.4437 51.2702 0
940 1 76.0125 46.8386 0
941 1 77.2221 17.5785 0
942 1 38.0015 29.7094 0
943 2 22.2452 16.8365 0
944 2 2.07144 41.8956 0
945 1 40.4484 25.2658 0
946 1 64.6956 67.2763 0
947 2 25.1169 2.19688 0
948 1 39.3511 68.5123 0
949 1 26.868 11.793 0
950 2 5.0964 9.85512 0
951 1 69.0348 65.6136 0
952 2 52.6547 2.64035 0
953 2 7.92465 44.7521 0
954 2 30.0145 62.539 0
955 1 27.1822 38.5286 0
956 2 58.8132 10.9951 0
957 1 48.4192 23.6744 0
958 2 19.5649 2.89903 0
959 2 73.5352 25.1128 0
960 2 29.1476 66.8557 0
961 1 49.5216 52.0861 0
962 1 24.3973 1.71666 0
963 1 16.3178 12.6255 0
964 2 8.78286 9.59923 0
965 2 53.7089 53.6601 0
966 1 0.745244 62.9583 0
967 1 49.8494 35.478 0
968 1 18.3786 0.220306 0
969 1 58.1073 23.4382 0
970 2 22.522 4.72297 0
971 1 21.3319 14.5746 0
972 1 6.8688 25.0363 0
973 1 0.96477 35.8998 0
974 2 1.09731 35.0641 0
975 2 73.0893 65.5186 0
976 2 34.5624 19.9545 0
977 1 35.9864 63.1874 0
978 2 3.27066 77.063 0
979 2 36.1044 65.6887 0
980 1 72.9833 14.2876 0
981 1 73.6929 58.062 0
982 1 7.76121 54.7483 0
983 1 18.3901 24.7102 0
984 1 9.15679 58.0105 0
985 1 34.629 11.1362 0
986 1 37.9504 52.6103 0
987 2 18.1293 12.1773 0
988 2 42.2004 34.8157 0
989 2 9.93005 34.697 0
990 2 69.8921 51.8611 0
991 2 46.2709 14.7572 0
992 1 62.3139 34.6954 0
993 2 29.2328 5.76214 0
994 2 1.87352 55.033 0
995 1 38.913 22.3475 0
996 2 54.6711 56.9221 0
997 2 43.5287 30.8692 0
998 2 60.3056 74.8348 0
999 2 39.2608 26.5185 0
1000 2 0.508713 49.5682 0
1001 1 41.7009 65.3994 0
1002 1 23.4194 34.413 0
1003 1 9.46942 54.3058 0
1004 1 7.53005 22.4815 0
1005 2 10.855 23.5879 0
1006 2 67.932 60.8695 0
1007 1 18.7526 20.3558 0
1008 1 47.8724 16.8871 0
1009 1 31.1349 32.9686 0
1010 1 11.5352 43.5706 0
1011 2 10.5607 22.1911 0
1012 2 2.20806 23.269 0
1013 2 65.0153 55.9912 0
1014 1 74.2371 15.3366 0
1015 1 76.0816 9.26288 0
1016 1 37.2726 47.9329 0
1017 2 68.6832 54.285 0
1018 1 26.1037 25.0894 0
1019 1 44.3073 29.0066 0
1020 2 32.4779 6.29263 0
1021 2 15.8573 24.5415 0
1022 1 4.81047 60.8542 0
1023 1 41.0711 9.39239 0
1024 1 9.26679 67.824 0
1025 1 37.0109 65.7575 0
1026 1 7.99945 40.1292 0
1027 1 47.4087 2.5077 0
1028 1 2.03084 33.0189 0
1029 1 49.0626 18.1047 0
1030 2 46.9605 47.9051 0
1031 2 37.5464 37.0471 0
1032 1 16.4342 73.3019 0
1033 1 57.5888 19.1372 0
1034 1 35.2917 29.2604 0
1035 1 65.789 28.517 0
1036 2 73.628 45.9483 0
1037 1 31.1453 73.0932 0
1038 1 68.6992 60.575 0
1039 1 5.42045 31.8409 0
1040 2 64.9211 34.2625 0
1041 1 35.4218 65.0726 0
1042 2 62.8802 68.1183 0
1043 2 60.6251 58.1934 0
1044 1 67.7539 23.4141 0
1045 1 66.7245 23.1926 0
1046 1 41.1407 68.1576 0
1047 2 9.92324 47.7249 0
1048 1 53.5026 77.4152 0
1049 1 59.91 48.9633 0
1050 2 45.4366 6.31573 0
1051 1 43.5254 31.8025 0
1052 1 66.2875 44.5492 0
1053 2 32.6726 18.4778 0
1054 1 55.1854 7.0269 0
1055 2 32.8476 46.5178 0
1056 2 14.6707 45.3265 0
1057 1 11.9719 71.7343 0
1058 1 27.4244 5.87391 0
1059 1 9.20488 75.2935 0
1060 2 21.8939 42.19 0
1061 1 10.1308 23.0879 0
1062 2 16.8358 41.419 0
1063 1 77.4234 67.9636 0
1064 1 23.2604 5.23898 0
1065 2 29.704 52.8123 0
1066 1 37.4636 46.2307 0
1067 1 13.9116 10.5035 0
1068 2 35.6508 67.0666 0
1069 1 67.913 24.4348 0
1070 2 8.17624 34.3435 0
1071 2 49.5096 42.6185 0
1072 2 9.42189 48.7803 0
1073 2 16.4998 3.75207 0
1074 2 33.8182 45.2916 0
1075 1 75.9685 49.7067 0
1076 1 41.1575 7.67188 0
1077 1 41.7395 32.5406 0
1078 2 71.679 26.3198 0
1079 2 39.0906 10.9623 0
1080 2 30.0515 72.8746 0
1081 2 46.0026 48.9082 0
1082 2 6.29992 27.5263 0
1083 2 21.5377 20.125 0
1084 1 44.2702 57.5976 0
1085 1 19.1892 52.3315 0
1086 1 70.0595 67.0805 0
1087 1 29.566 72.0824 0
1088 1 44.7308 62.979 0
1089 2 8.39594 31.5876 0
1090 1 42.9583 34.3931 0
1091 2 27.7729 17.8523 0
1092 1 63.0047 53.5576 0
1093 1 69.0928 32.9015 0
1094 2 43.6268 55.2017 0
1095 1 25.3938 71.2154 0
1096 2 48.2601 18.4922 0
1097 1 76.1867 17.7046 0
1098 1 62.803 43.8033 0
1099 1 31.1125 4.95033 0
1100 1 67.9382 1.84039 0
1101 1 74.8919 11.7751 0
1102 1 25.9666 74.8383 0
1103 1 51.4043 70.9605 0
1104 1 47.1185 58.1101 0
1105 1 48.2533 39.9902 0
1106 1 16.5894 71.4823 0
1107 2 45.2546 62.2734 0
1108 1 55.522 31.2128 0
1109 1 72.7135 24.8518 0
1110 2 14.8041 11.8681 0
1111 1 2.69013 56.9328 0
1112 1 76.086 18.7294 0
1113 2 75.4571 7.56749 0
1114 2 14.1485 53.487 0
1115 2 32.936 49.3425 0
1116 1 77.1973 64.7751 0
1117 1 66.8609 56.5186 0
1118 1 12.3874 75.5709 0
1119 2 11.2177 64.5319 0
1120 1 41.3126 57.9995 0
1121 2 21.1427 64.2993 0
1122 1 32.0348 32.4654 0
1123 2 23.0643 51.9429 0
1124 1 52.6458 61.9066 0
1125 2 14.8373 4.47612 0
1126 2 15.5236 20.2255 0
1127 1 74.6319 24.0253 0
1128 1 67.2445 52.1117 0
1129 1 60.9562 39.7157 0
1130 1 30.6297 47.2077 0
1131 1 62.5051 15.4091 0
1132 2 75.8803 63.7185 0
1133 2 56.0106 22.4106 0
1134 2 20.9135 72.0674 0
1135 1 0.836842 68.5514 0
1136 2 51.243 26.7977 0
1137 1 50.9807 61.4271 0
1138 1 30.3985 13.7616 0
1139 2 57.6147 52.807 0
1140 2 9.13797 22.865 0
1141 1 74.9076 65.8318 0
1142 1 27.099 52.4199 0
1143 1 48.2128 44.6943 0
1144 2 60.894 16.478 0
1145 1 38.0064 62.5324 0
1146 1 15.5522 18.9304 0
1147 1 28.2409 25.6757 0
1148 1 10.8155 36.5508 0
1149 1 57.5265 29.2659 0
1150 2 65.3923 61.0285 0
1151 1 22.0459 3.96694 0
1152 1 59.8187 51.9253 0
1153 1 71.6816 29.5957 0
1154 1 13.9664 4.73868 0
1155 2 60.2223 20.4284 0
1156 1 44.503 32.1803 0
1157 1 12.3366 18.2375 0
1158 2 58.352 47.795 0
1159 2 5.54474 70.5262 0
1160 1 33.0006 7.73172 0
1161 2 43.9782 56.6703 0
1162 1 15.9039 10.0204 0
1163 2 13.4454 73.07 0
1164 1 24.0339 58.8933 0
1165 1 20.9838 45.5973 0
1166 2 14.9062 50.7548 0
1167 1 27.8748 20.3727 0
1168 1 56.3365 64.6956 0
1169 1 19.5881 66.8247 0
1170 2 6.25429 33.6554 0
1171 1 48.5505 33.7123 0
1172 1 22.9106 6.9381 0
1173 1 51.6927 64.0512 0
1174 1 38.8695 29.1711 0
1175 2 62.6753 44.7068 0
1176 1 68.2684 36.4752 0
1177 1 48.4862 69.9298 0
1178 2 61.1376 47.596 0
1179 1 72.4224 32.7735 0
1180 1 52.1156 17.8997 0
1181 1 54.2949 22.8951 0
1182 1 60.8845 74.1575 0
1183 2 43.0927 73.3266 0
1184 2 28.0206 22.0126 0
1185 1 17.4339 63.2394 0
1186 1 48.9754 49.4239 0
1187 1 73.8588 72.3521 0
1188 2 4.86683 37.7803 0
1189 1 60.7757 65.2733 0
1190 1 28.4226 51.4441 0
1191 2 72.3112 5.15724 0
1192 1 24.712 47.0511 0
1193 1 47.6442 17.9024 0
1194 2 16.6203 16.1081 0
1195 1 74.2885 48.8677 0
1196 1 21.9343 49.8575 0
1197 1 35.6783 38.9671 0
1198 1 62.3665 76.4419 0
1199 2 57.8135 62.462 0
1200 1 26.975 8.88199 0
1201 1 2.94448 73.3201 0
1202 1 5.92743 48.9037 0
1203 2 47.644 12.2837 0
1204 1 57.4531 56.6467 0
1205 1 66.6638 50.3147 0
1206 1 52.1146 4.94643 0
1207 1 31.8274 62.6895 0
1208 1 75.3498 58.1077 0
1209 2 65.3814 59.7065 0
1210 1 69.7351 32.0055 0
1211 2 24.8117 35.4404 0
1212 1 33.6659 36.2304 0
1213 1 61.2881 68.8438 0
1214 1 61.6704 23.7167 0
1215 1 11.694 72.8844 0
1216 1 11.0845 49.5391 0
1217 2 67.1293 2.33541 0
1218 2 61.5366 21.0451 0
1219 1 30.2392 15.4623 0
1220 1 61.9238 18.0538 0
1221 1 61.5885 54.9227 0
1222 2 66.174 74.4135 0
1223 1 42.3681 47.98 0
1224 1 0.732765 34.1955 0
1225 1 2.76768 25.6496 0
1226 2 65.8874 64.9239 0
1227 1 41.467 56.9235 0
1228 1 76.0894 70.8238 0
1229 2 47.9651 9.3018 0
1230 1 25.657 49.9082 0
1231 2 53.0019 18.0254 0
1232 1 67.7587 38.1515 0
1233 1 38.5518 58.5072 0
1234 1 1.71942 67.9804 0
1235 1 18.2576 46.0783 0
1236 1 52.3808 63.1093 0
1237 1 37.7277 20.6319 0
1238 1 24.7184 7.33317 0
1239 1 12.9313 22.6422 0
1240 1 24.2808 63.0466 0
1241 1 76.2642 62.8993 0