ITEM: TIMESTEP
0
ITEM: NUMBER OF ATOMS
7200
ITEM: BOX BOUNDS xy xz yz pp pp pp
0.0000000000000000e+00 7.7459666924100006e+01 0.0000000000000000e+00
0.0000000000000000e+00 7.7459666924100006e+01 0.0000000000000000e+00
-1.2909944490000000e-01 1.2909944490000000e-01 0.0000000000000000e+00
ITEM: ATOMS id type x y z
1 1 1.11424 56.9368 0
2 1 49.9921 65.2163 0
3 1 44.2218 8.58433 0
4 1 42.4829 62.0104 0
5 1 2.64698 45.0119 0
6 1 8.92627 40.7487 0
7 2 4.56827 35.1492 0
8 2 54.1736 9.49501 0
9 1 60.1983 3.23636 0
10 2 21.1029 2.02617 0
11 2 58.0546 54.5928 0
12 1 61.7025 28.7713 0
13 2 27.9667 21.3209 0
14 1 37.5892 57.7436 0
15 1 61.6556 0.00296113 0
16 1 76.1292 7.76792 0
17 1 39.9508 63.141 0
18 1 2.85171 57.5915 0
19 1 24.848 45.8597 0
20 2 43.1038 73.399 0
21 1 44.6991 46.8628 0
22 1 24.0175 60.1087 0
23 1 32.7864 65.1771 0
24 1 72.898 51.4546 0
25 1 12.1722 63.1676 0
26 1 53.3562 48.4576 0
27 2 42.1572 76.3897 0
28 1 1.9957 16.4336 0
29 2 51.8074 69.3806 0
30 2 34.8169 16.6471 0
31 1 51.5681 50.9708 0
32 1 61.7398 31.6093 0
33 1 39.0368 2.05507 0
34 2 37.2636 48.8356 0
35 1 69.6462 27.3115 0
36 1 74.933 68.5864 0
37 1 26.7276 68.2753 0
38 1 72.7552 14.5775 0
39 1 69.2388 31.8376 0
40 2 9.69611 41.3301 0
41 2 7.41273 41.8339 0
42 1 48.0517 42.5867 0
43 1 39.9758 10.9898 0
44 1 47.816 39.5479 0
45 1 12.4248 31.1445 0
46 1 62.4958 18.929 0
47 1 16.4113 28.4904 0
48 1 42.1647 2.82423 0
49 2 63.7804 38.1963 0
50 1 56.197 44.4319 0
51 1 20.7775 42.6122 0
52 2 73.7471 2.51235 0
53 1 63.3671 66.7675 0
54 1 19.0502 45.533 0
55 1 40.2259 14.4541 0
56 1 31.7203 19.7817 0
57 1 56.2025 24.5646 0
58 1 66.979 17.3715 0
59 1 58.9387 56.8889 0
60 1 34.8049 63.3876 0
61 1 66.1098 29.2796 0
62 1 25.9127 51.7419 0
63 1 59.4579 30.1378 0
64 1 60.7853 19.8032 0
65 1 30.5145 16.1576 0
66 2 74.0088 12.1446 0
67 2 47.6613 70.1207 0
68 2 37.3339 30.2177 0
69 1 40.353 60.3122 0
70 1 43.5423 74.9591 0
71 2 21.237 32.0613 0
72 1 4.47945 32.5357 0
73 1 74.7006 27.8086 0
74 2 54.3826 28.1874 0
75 1 69.4618 26.2376 0
76 1 4.3462 35.9452 0
77 1 2.32318 52.3365 0
78 1 37.2924 1.14335 0
79 1 55.1557 71.2352 0
80 1 47.4446 36.4999 0
81 1 3.11971 43.3485 0
82 2 21.6358 39.2161 0
83 1 70.2473 33.3265 0
84 1 42.9697 47.9055 0
85 1 28.8057 19.7814 0
86 2 0.0792262 35.2432 0
87 1 1.12537 23.6005 0
88 1 1.27312 27.3782 0
89 1 34.3224 25.1535 0
90 1 39.7704 49.1318 0
91 2 72.4513 43.5674 0
92 2 50.4339 56.6126 0
93 1 52.0736 70.1943 0
94 1 10.0334 46.8694 0
95 2 57.2159 1.35106 0
96 1 45.1858 12.1749 0
97 1 3.68616 17.2127 0
98 2 13.1169 26.4969 0
99 1 13.9499 69.5687 0
100 2 35.932 48.0638 0
101 1 38.6122 33.0498 0
102 1 50.3768 71.2259 0
103 1 46.975 67.6203 0
104 1 60.1102 13.1212 0
105 2 64.5347 76.1048 0
106 2 19.1153 50.0442 0
107 1 8.51489 25.3739 0
108 1 7.3534 37.9714 0
109 1 6.71069 71.0929 0
110 2 13.8462 34.7738 0
111 1 70.8137 44.5947 0
112 1 7.85143 19.2801 0
113 2 38.4872 66.2267 0
114 2 18.652 25.5722 0
115 2 48.8417 7.00929 0
116 2 8.26812 23.6223 0
117 1 13.9071 9.5729 0
118 2 55.3975 12.7995 0
119 1 1.16456 14.2702 0
120 2 53.7021 42.0647 0
121 1 50.1422 24.4516 0
122 1 14.6506 47.517 0
123 2 20.2226 57.6229 0
124 1 24.8373 10.609 0
125 1 74.052 11.3243 0
126 1 39.4181 74.1182 0
127 1 2.97677 14.1661 0
128 1 71.732 67.6677 0
129 1 57.3601 57.3904 0
130 1 64.2119 74.1598 0
131 1 69.9687 19.056 0
132 2 10.4279 33.5985 0
133 2 37.9112 76.0684 0
134 1 22.2495 47.3208 0
135 1 65.9836 70.9433 0
136 2 12.9653 23.1576 0
137 1 23.5849 18.8316 0
138 2 3.69216 38.39 0
139 1 38.553 41.7418 0
140 1 0.576164 53.2425 0
141 2 47.1462 55.8512 0
142 1 52.7201 37.428 0
143 2 21.7655 67.9982 0
144 2 29.8238 62.9901 0
145 2 15.3 21.4116 0
146 1 20.9979 18.6794 0
147 1 23.9446 57.2188 0
148 1 51.3409 56.5822 0
149 2 42.4653 30.4608 0
150 1 4.60563 52.4938 0
151 2 24.0795 32.0644 0
152 1 43.277 28.3202 0
153 2 35.0479 35.9265 0
154 2 26.2427 21.7259 0
155 1 26.1586 22.5576 0
156 1 9.4993 76.8806 0
157 1 43.3333 14.1753 0
158 1 7.62092 21.9226 0
159 2 18.7708 34.2373 0
160 1 9.9853 70.5708 0
161 1 20.6295 25.4384 0
162 2 65.2399 34.5176 0
163 1 0.971946 38.9585 0
164 1 42.2396 64.1646 0
165 1 43.1841 26.5326 0
166 1 50.9654 55.5125 0
167 1 53.8415 42.9009 0
168 1 70.1842 39.1239 0
169 1 8.81449 69.019 0
170 1 61.3938 73.684 0
171 2 22.6053 31.6324 0
172 2 51.8357 55.8398 0
173 2 2.91578 21.0786 0
174 2 42.8516 53.429 0
175 2 44.7775 12.9595 0
176 1 67.0994 45.2123 0
177 1 75.4709 36.9432 0
178 1 30.3644 39.9246 0
179 1 10.9882 48.2806 0
180 2 11.5895 51.912 0
181 1 64.1896 7.48442 0
182 1 10.7855 69.7384 0
183 2 26.2652 12.7437 0
184 1 26.9175 39.4607 0
185 2 65.2354 18.2436 0
186 1 45.2163 36.9764 0
187 1 54.3801 48.2648 0
188 1 5.43314 68.3566 0
189 2 66.5764 35.4055 0
190 1 75.9894 2.79902 0
191 1 39.1045 43.8497 0
192 1 32.7759 75.4283 0
193 2 38.5052 2.68962 0
194 2 39.6819 51.7083 0
195 1 35.5438 58.1549 0
196 2 6.75377 69.2337 0
197 2 67.4756 57.9864 0
198 1 64.3368 55.4589 0
199 2 25.7617 67.1915 0
200 1 41.2348 46.9079 0
201 2 5.8302 55.2271 0
202 2 46.7171 5.54363 0
203 1 8.96777 16.5952 0
204 1 11.9919 8.89809 0
205 1 48.5704 61.2152 0
206 2 53.9241 34.258 0
207 2 34.7991 31.4063 0
208 1 47.8502 63.2412 0
209 1 6.58953 68.429 0
210 2 58.2989 63.7809 0
211 1 34.1225 46.0089 0
212 2 36.5823 36.5112 0
213 2 37.1538 58.578 0
214 1 30.4941 51.4659 0
215 2 28.7841 24.5796 0
216 1 2.71862 59.2959 0
217 1 9.81299 45.7958 0
218 2 72.8053 68.7097 0
219 2 44.5069 32.9076 0
220 2 37.5337 56.9272 0
221 1 74.2994 69.3415 0
222 1 18.857 39.403 0
223 2 9.40594 28.5584 0
224 2 58.7334 75.0567 0
225 1 45.0087 44.7504 0
226 2 13.2831 10.4402 0
227 2 12.7069 68.1524 0
228 1 38.9529 49.9098 0
229 1 30.8875 45.6166 0
230 1 57.6815 11.6749 0
231 1 71.9255 54.2513 0
232 1 69.9096 36.4213 0
233 1 32.4252 14.9373 0
234 1 29.4427 67.3944 0
235 1 73.9967 66.6452 0
236 2 0.704704 17.6656 0
237 1 29.6486 20.3764 0
238 2 55.618 58.0699 0
239 1 75.025 58.8808 0
240 2 10.791 19.5923 0
241 1 34.9539 69.1744 0
242 1 13.0858 72.1609 0
243 1 5.08206 18.8795 0
244 1 29.223 62.4189 0
245 1 19.0439 49.0018 0
246 1 62.7261 73.1506 0
247 1 42.8202 46.907 0
248 1 58.9246 28.5145 0
249 2 34.7873 72.6081 0
250 1 3.97733 31.5828 0
251 2 25.8409 34.123 0
252 2 37.452 27.9331 0
253 1 62.3719 30.0121 0
254 1 41.1252 12.3533 0
255 1 11.8502 7.86995 0
256 1 0.387177 68.638 0
257 1 36.5477 57.9012 0
258 1 50.9053 51.7006 0
259 1 72.1856 7.26863 0
260 2 22.0373 66.5481 0
261 2 44.1287 30.7643 0
262 1 44.1046 22.2368 0
263 2 53.8691 53.8534 0
264 2 6.73776 67.479 0
265 1 48.9831 0.71556 0
266 1 34.5909 39.571 0
267 2 64.0864 67.1994 0
268 2 36.3623 42.3131 0
269 1 31.353 57.0656 0
270 2 67.0071 76.7589 0
271 2 65.6096 30.1275 0
272 2 20.7832 49.8337 0
273 1 13.5598 57.5841 0
274 1 7.22427 66.8448 0
275 1 66.6057 63.2308 0
276 1 23.2197 74.3694 0
277 2 40.0217 31.2314 0
278 1 66.1186 40.8111 0
279 1 70.5837 65.9805 0
280 1 9.06761 58.7267 0
281 1 30.2571 0.510801 0
282 2 38.0394 42.449 0
283 1 0.163219 18.7606 0
284 2 77.0879 9.38143 0
285 1 54.6763 73.9258 0
286 1 8.59644 5.93331 0
287 1 72.0671 73.2674 0
288 2 28.3963 38.2837 0
289 2 50.696 50.7708 0
290 2 26.9938 71.2972 0
291 1 29.9882 52.5149 0
292 1 14.5589 58.9187 0
293 1 12.8294 28.2129 0
294 1 66.4927 25.4758 0
295 1 62.0544 27.0527 0
296 2 53.4331 57.1008 0
297 1 74.5776 70.5096 0
298 1 16.9228 52.0907 0
299 2 36.5108 31.5776 0
300 1 58.0246 14.2583 0
301 1 37.3997 41.7701 0
302 1 37.761 76.9302 0
303 1 70.6606 46.3837 0
304 1 67.7912 18.8546 0
305 2 2.22199 75.2248 0
306 1 26.6748 13.4726 0
307 2 12.117 72.7538 0
308 1 12.3043 75.3128 0
309 2 11.3951 31.4183 0
310 2 67.0982 20.8935 0
311 1 1.51117 15.5012 0
312 1 74.749 45.6015 0
313 1 77.4245 26.2743 0
314 1 31.3851 68.2215 0
315 2 63.2778 72.4599 0
316 2 24.5199 17.0024 0
317 1 54.375 62.2248 0
318 2 2.20511 36.4407 0
319 1 62.5157 64.4203 0
320 1 67.9224 7.81023 0
321 1 56.9325 43.6508 0
322 2 76.8898 23.5796 0
323 2 43.852 60.7468 0
324 1 21.8073 4.8413 0
325 1 19.0842 41.9501 0
326 1 15.5843 35.7966 0
327 1 35.7642 56.3598 0
328 1 48.7806 12.4702 0
329 1 69.935 54.0772 0
330 2 16.3376 75.4921 0
331 2 10.8118 70.6038 0
332 1 44.2408 64.5831 0
333 1 73.6292 74.2644 0
334 1 26.8071 0.370542 0
335 1 40.8543 20.104 0
336 2 10.3358 43.0178 0
337 1 64.9929 50.9361 0
338 2 3.42746 26.0429 0
339 1 18.331 21.7954 0
340 1 13.7108 41.0828 0
341 2 35.2279 37.5138 0
342 1 14.7516 16.8334 0
343 2 47.9688 12.7578 0
344 2 72.5287 72.4432 0
345 1 17.206 36.2572 0
346 1 56.7298 70.7687 0
347 1 39.2151 22.21 0
348 1 44.4449 58.9607 0
349 1 10.132 25.9849 0
350 1 3.68365 34.9051 0
351 1 49.3243 7.75402 0
352 1 6.63649 60.4126 0
353 1 25.0713 7.89152 0
354 2 77.4582 50.7552 0
355 2 67.1516 23.4739 0
356 2 14.689 32.3063 0
357 1 12.2662 35.6236 0
358 1 16.5832 68.9762 0
359 1 17.8627 73.0401 0
360 2 3.02762 28.426 0
361 2 55.7392 53.6331 0
362 1 22.2077 56.8497 0
363 2 31.4848 44.9267 0
364 1 69.6056 37.4898 0
365 2 52.7269 36.5979 0
366 1 73.0661 73.2499 0
367 2 25.0453 48.5619 0
368 2 71.0685 48.9092 0
369 2 44.0314 29.1013 0
370 1 54.1556 7.67781 0
371 1 49.1836 36.264 0
372 2 76.4897 75.3794 0
373 1 33.1892 53.2271 0
374 2 57.9992 72.1936 0
375 1 72.6327 6.21245 0
376 2 50.0651 5.99536 0
377 2 5.09554 17.9425 0
378 1 19.7868 42.7757 0
379 1 72.4534 37.4205 0
380 1 71.8416 22.7458 0
381 1 66.0512 52.4648 0
382 1 61.0311 75.456 0
383 1 50.3755 41.8328 0
384 1 32.9722 76.4833 0
385 1 46.4648 47.9395 0
386 1 74.7136 39.5256 0
387 1 0.277472 60.4598 0
388 2 48.3902 43.3743 0
389 1 39.3357 24.2439 0
390 1 39.7876 23.31 0
391 2 40.5955 56.0666 0
392 2 27.3956 70.0551 0
393 2 67.8447 70.1612 0
394 1 42.0112 22.9274 0
395 1 64.1869 8.61789 0
396 1 56.3692 36.9045 0
397 1 54.7505 53.6756 0
398 1 23.3016 77.0493 0
399 1 6.89022 13.904 0
400 1 57.8005 42.8784 0
401 1 48.338 37.0344 0
402 2 32.3956 16.6321 0
403 1 62.8329 50.4014 0
404 1 22.7276 12.9912 0
405 2 56.0382 43.5828 0
406 1 44.5472 76.3947 0
407 2 36.5773 63.9026 0
408 1 2.98131 1.62305 0
409 1 31.0416 61.2982 0
410 2 5.20344 54.2405 0
411 2 66.0692 7.57168 0
412 1 69.5956 29.8477 0
413 1 61.1441 71.8485 0
414 1 22.6097 10.7377 0
415 1 24.1319 28.4047 0
416 2 12.0385 51.0481 0
417 2 75.9121 62.7256 0
418 1 46.0779 30.6664 0
419 2 62.4464 29.2002 0
420 2 28.533 61.544 0
421 1 31.7804 39.5507 0
422 1 52.3614 31.2627 0
423 1 10.2063 72.6142 0
424 1 15.5479 44.588 0
425 1 49.4165 14.1975 0
426 1 38.1553 28.5091 0
427 2 39.6126 43.2323 0
428 1 46.2969 57.3006 0
429 1 24.0855 46.59 0
430 1 74.9012 35.9422 0
431 1 18.6127 65.2944 0
432 1 61.8171 19.6277 0
433 1 24.7319 44.772 0
434 1 66.2044 16.5614 0
435 1 3.35635 66.4149 0
436 2 63.1348 11.3531 0
437 2 63.4956 20.6667 0
438 1 25.2547 27.3542 0
439 2 12.6706 55.1861 0
440 1 27.0256 21.4198 0
441 2 53.3463 3.54889 0
442 1 58.5263 48.0396 0
443 1 30.7249 43.4769 0
444 1 27.1205 12.5487 0
445 2 11.2068 8.33866 0
446 1 23.5015 58.0949 0
447 1 19.1715 68.2062 0
448 1 28.9447 12.1279 0
449 1 66.0834 77.1972 0
450 2 23.1762 72.1847 0
451 2 62.5525 32.1028 0
452 1 42.1678 26.8891 0
453 1 0.229757 64.5397 0
454 2 19.536 63.621 0
455 2 26.4169 42.1262 0
456 1 22.2946 13.9648 0
457 2 4.57503 55.8586 0
458 1 36.398 59.0506 0
459 2 74.3646 19.3224 0
460 1 48.4242 71.9261 0
461 2 1.25757 37.6721 0
462 1 53.8939 4.39558 0
463 1 34.8974 53.3701 0
464 1 49.7688 41.0191 0
465 2 33.22 21.8167 0
466 1 1.36751 71.7599 0
467 2 1.79414 25.5757 0
468 1 3.70827 45.6313 0
469 1 2.85937 42.0919 0
470 1 73.5725 29.8809 0
471 2 61.9483 16.671 0
472 1 6.78546 4.31873 0
473 1 21.2895 76.6112 0
474 1 70.8838 31.2222 0
475 1 72.6952 53.3714 0
476 2 76.2811 53.3463 0
477 1 22.8392 21.1966 0
478 2 30.7289 55.3828 0
479 1 24.1998 27.2545 0
480 1 50.6467 49.0771 0
481 1 53.1609 30.6613 0
482 1 51.5883 23.7668 0
483 2 63.8531 71.1108 0
484 1 67.7299 69.3496 0
485 1 74.8578 31.4893 0
486 1 48.4976 66.5426 0
487 2 66.9699 44.3946 0
488 1 70.0112 40.1608 0
489 1 10.0279 74.073 0
490 1 17.4743 2.44991 0
491 1 13.413 62.3994 0
492 2 33.0906 6.9521 0
493 1 73.1549 75.9762 0
494 1 72.2188 16.4968 0
495 2 16.8415 21.1747 0
496 2 12.8797 29.0575 0
497 2 7.39435 32.1876 0
498 1 0.903322 59.0152 0
499 1 36.6765 23.599 0
500 1 37.6604 69.2638 0
501 2 5.18359 74.8887 0
502 1 52.1033 67.4778 0
503 1 16.6125 70.8228 0
504 1 32.5538 38.677 0
505 2 70.206 3.23927 0
506 2 31.6258 47.651 0
507 1 17.8458 74.1816 0
508 1 63.3897 40.9545 0
509 1 63.1336 0.778372 0
510 1 17.2141 38.5017 0
511 1 45.3516 26.9663 0
512 1 4.13822 4.89671 0
513 1 32.7687 41.2739 0
514 1 18.6383 29.8149 0
515 2 9.23967 53.5326 0
516 2 1.59537 5.33399 0
517 2 60.4814 20.6236 0
518 2 38.3057 22.408 0
519 2 48.9956 34.4398 0
520 1 58.8332 52.3497 0
521 1 61.0445 4.86183 0
522 2 7.68699 45.4725 0
523 1 54.1451 22.3781 0
524 1 6.56701 32.1522 0
525 1 14.7983 75.1979 0
526 2 43.1455 68.0096 0
527 1 42.3762 4.53249 0
528 2 11.1485 44.756 0
529 2 56.8524 69.875 0
530 1 72.7204 71.5777 0
531 2 63.3719 12.7261 0
532 2 9.79736 59.1237 0
533 1 39.8169 41.4086 0
534 1 17.6153 71.0023 0
535 1 47.7762 17.4945 0
536 1 3.79477 70.3799 0
537 1 44.7506 51.1954 0
538 2 58.7649 11.8493 0
539 2 42.0211 5.30721 0
540 1 9.56429 21.9044 0
541 2 75.521 4.31185 0
542 1 47.9062 50.2805 0
543 2 16.6143 37.8029 0
544 2 45.1424 17.4192 0
545 1 29.0723 54.8415 0
546 1 69.1672 62.5446 0
547 1 19.292 61.6992 0
548 2 50.4625 70.3703 0
549 2 1.73816 48.5774 0
550 2 8.65302 33.4237 0
551 1 45.8702 9.46287 0
552 2 22.4907 60.1186 0
553 2 74.1923 41.4693 0
554 1 0.416069 35.9808 0
555 1 71.7075 20.1497 0
556 1 60.2061 57.9827 0
557 1 47.1305 33.8872 0
558 1 4.55189 38.4866 0
559 1 55.2555 43.9871 0
560 2 60.8585 14.8857 0
561 1 73.6563 50.3194 0
562 2 52.6054 34.6552 0
563 2 35.4411 26.2788 0
564 1 71.2452 64.2353 0
565 2 14.1903 24.0928 0
566 2 16.2253 31.833 0
567 1 1.16514 11.3922 0
568 2 5.72985 58.6263 0
569 2 49.9624 25.2865 0
570 1 52.8421 22.0122 0
571 1 63.8918 58.3771 0
572 2 32.9075 67.2022 0
573 2 41.7974 31.2744 0
574 1 68.9543 68.3389 0
575 1 76.6755 58.597 0
576 1 18.0898 30.6699 0
577 1 58.6666 43.6437 0
578 2 71.8009 41.9588 0
579 2 1.13733 73.7394 0
580 1 47.4647 66.0011 0
581 1 14.3883 62.1354 0
582 2 52.9492 31.889 0
583 2 1.15358 39.9249 0
584 2 8.72914 6.78637 0
585 1 32.1092 12.8415 0
586 1 1.30788 70.6487 0
587 2 13.9706 16.6278 0
588 1 36.4683 29.5515 0
589 2 50.559 10.6359 0
590 1 41.1391 33.5528 0
591 1 16.888 57.5355 0
592 1 19.4361 6.20327 0
593 1 1.65235 50.8851 0
594 1 67.7636 2.4825 0
595 1 58.9617 22.052 0
596 2 63.4829 36.6587 0
597 1 39.3176 5.0826 0
598 1 76.317 29.9554 0
599 1 63.7697 65.7898 0
600 1 45.1309 24.0638 0
601 2 41.0829 14.1296 0
602 1 43.2677 3.03809 0
603 2 11.1832 37.901 0
604 2 18.848 41.0565 0
605 1 39.4809 70.1179 0
606 1 52.4203 65.5773 0
607 1 17.849 10.841 0
608 2 43.8058 76.8267 0
609 2 51.7958 20.7969 0
610 1 70.9583 68.4684 0
611 1 43.3936 58.6652 0
612 1 59.0397 68.1674 0
613 1 30.1954 38.9119 0
614 2 21.1611 29.4818 0
615 1 3.11171 60.9938 0
616 1 7.27404 50.4319 0
617 1 65.2456 53.0073 0
618 2 56.0327 22.313 0
619 2 8.7068 13.6334 0
620 2 67.8111 36.5916 0
621 2 58.6298 8.19774 0
622 1 41.9562 37.3248 0
623 1 26.0023 72.9798 0
624 2 26.8455 55.8669 0
625 1 51.3696 76.4929 0
626 1 22.142 7.15327 0
627 2 39.4902 47.0984 0
628 1 18.1181 68.4352 0
629 2 42.7363 49.57 0
630 1 47.2238 64.0577 0
631 1 33.9199 21.2879 0
632 1 68.1328 55.288 0
633 2 15.978 56.108 0
634 1 9.76248 62.6099 0
635 2 74.2728 46.3302 0
636 2 17.9718 22.629 0
637 1 21.5031 68.9242 0
638 1 75.6495 61.925 0
639 1 23.9549 72.6674 0
640 1 59.2497 38.4152 0
641 1 15.5575 17.4212 0
642 1 38.4183 38.474 0
643 1 1.844 10.5959 0
644 2 23.8815 47.5587 0
645 1 17.4283 54.7968 0
646 1 61.8012 32.5958 0
647 2 56.3609 62.2575 0
648 1 64.6137 59.185 0
649 2 4.40735 53.2719 0
650 2 37.0634 49.7352 0
651 1 53.0238 5.34631 0
652 1 64.2038 42.7172 0
653 2 16.718 6.99129 0
654 2 56.7658 67.2316 0
655 1 39.6817 4.01301 0
656 1 12.186 14.4969 0
657 1 77.0749 30.6193 0
658 1 72.1785 15.482 0
659 2 18.7278 3.59342 0
660 1 54.8272 58.3268 0
661 1 55.0309 25.6049 0
662 1 54.8027 11.0355 0
663 1 35.0091 32.3807 0
664 1 47.7457 35.4738 0
665 2 25.6007 15.3913 0
666 2 46.4641 46.075 0
667 1 46.6281 66.6688 0
668 2 0.0132011 41.3395 0
669 1 71.7802 59.8531 0
670 2 11.1285 18.0195 0
671 2 20.5328 53.9258 0
672 1 22.9496 72.9954 0
673 1 53.7399 20.2407 0
674 1 15.8746 26.9084 0
675 2 52.1753 5.218 0
676 2 58.2895 33.9924 0
677 1 4.98248 25.2474 0
678 1 62.4616 34.1662 0
679 1 19.7862 48.1222 0
680 1 43.8982 66.0402 0
681 1 27.2521 14.3393 0
682 1 42.9535 21.0119 0
683 1 13.3855 68.7044 0
684 1 59.9543 47.8912 0
685 2 71.1031 33.0057 0
686 1 69.3502 60.7656 0
687 1 13.5164 60.6452 0
688 2 75.2554 25.0437 0
689 1 61.6359 70.9372 0
690 1 18.8247 74.2753 0
691 1 22.883 4.47702 0
692 2 34.6178 21.7342 0
693 1 37.6694 47.1226 0
694 2 72.2638 75.5908 0
695 1 28.8228 16.5795 0
696 2 73.1524 21.7179 0
697 1 21.4565 11.1941 0
698 1 13.408 40.1082 0
699 1 64.0201 72.1294 0
700 1 12.7849 33.7266 0
701 1 23.0346 54.7863 0
702 1 9.53228 5.34921 0
703 2 14.1526 7.63708 0
704 2 5.71013 5.96289 0
705 2 68.2269 47.4617 0
706 1 32.8336 10.4785 0
707 2 43.1092 66.2955 0
708 1 4.65134 71.0493 0
709 1 15.0249 34.7687 0
710 2 16.7113 39.3607 0
711 1 53.7204 13.2445 0
712 2 40.7627 62.8278 0
713 2 54.1257 23.2936 0
714 2 51.0912 38.8263 0
715 1 62.6981 77.241 0
716 1 48.9249 9.31349 0
717 1 69.6411 58.5623 0
718 1 25.0322 29.0763 0
719 1 18.783 44.4573 0
720 2 13.5172 4.25105 0
721 2 68.648 57.3158 0
722 1 67.8599 71.0145 0
723 2 42.7131 23.4401 0
724 2 37.536 21.1753 0
725 1 16.7396 27.42 0
726 1 67.0721 5.35146 0
727 2 53.2691 61.0293 0
728 1 3.25095 10.0054 0
729 2 41.4755 7.85404 0
730 1 0.469305 73.2215 0
731 2 48.8387 48.9264 0
732 1 48.4726 5.28516 0
733 1 29.6453 24.7934 0
734 2 20.3189 7.44366 0
735 1 53.5912 44.7559 0
736 1 15.5623 75.8259 0
737 2 20.2334 64.8423 0
738 1 73.358 26.6676 0
739 1 48.2577 54.1725 0
740 1 24.0119 69.7468 0
741 2 74.6655 6.93449 0
742 1 72.9243 7.95871 0
743 1 19.5776 40.1646 0
744 2 14.7025 35.5143 0
745 1 59.8642 63.4622 0
746 1 56.0204 30.0965 0
747 1 6.49717 73.3426 0
748 2 41.1324 75.0358 0
749 2 18.7533 76.8162 0
750 1 65.3744 20.4134 0
751 1 31.1456 49.5777 0
752 2 25.631 62.8991 0
753 1 26.4026 65.4726 0
754 2 45.7718 48.3429 0
755 1 69.5028 64.6207 0
756 2 41.2085 6.51828 0
757 1 0.569248 66.0989 0
758 1 76.5646 60.348 0
759 1 6.18605 8.36058 0
760 1 68.7678 36.7069 0
761 1 10.1572 53.6584 0
762 1 20.378 11.3777 0
763 2 8.43819 11.8494 0
764 1 11.3032 68.8383 0
765 2 7.35074 59.8094 0
766 1 66.9288 67.6047 0
767 1 32.6621 11.9397 0
768 1 75.955 57.016 0
769 1 1.91801 45.7843 0
770 2 36.9083 26.1369 0
771 1 20.2278 45.3823 0
772 1 33.5761 67.7136 0
773 1 23.4598 31.4463 0
774 2 15.0616 49.3634 0
775 1 0.440211 15.788 0
776 2 62.6268 40.6793 0
777 1 6.71858 48.7002 0
778 2 63.8885 69.8403 0
779 1 30.5019 22.7028 0
780 1 68.004 23.1669 0
781 1 14.5867 43.7717 0
782 1 60.611 68.0758 0
783 1 18.2719 13.5462 0
784 1 35.2875 23.3303 0
785 2 74.02 5.55683 0
786 1 19.5449 25.5281 0
787 1 63.5865 75.882 0
788 1 64.9847 3.3246 0
789 1 11.6927 13.588 0
790 1 53.5036 14.538 0
791 1 8.18639 52.0032 0
792 1 9.66336 64.2992 0
793 1 64.2742 76.8722 0
794 2 35.3618 41.2538 0
795 2 56.6536 11.8055 0
796 2 62.2354 73.8771 0
797 1 75.6741 39.5062 0
798 1 75.3705 14.5942 0
799 1 40.5798 44.7407 0
800 1 3.63717 33.1876 0
801 2 24.6541 56.8057 0
802 2 63.5373 8.02155 0
803 2 59.8729 45.3702 0
804 2 5.54741 76.762 0
805 1 60.221 14.2475 0
806 1 46.928 61.3421 0
807 2 12.563 46.111 0
808 1 16.5844 12.1892 0
809 2 29.7522 56.434 0
810 1 1.67047 59.5332 0
811 1 50.8001 4.28836 0
812 2 38.1864 12.6448 0
813 2 49.4914 32.0543 0
814 1 8.70019 71.5849 0
815 2 69.1375 53.8684 0
816 1 47.6156 37.8334 0
817 1 71.7046 10.885 0
818 2 54.5761 54.5384 0
819 2 12.377 71.0992 0
820 1 29.0557 74.7949 0
821 1 11.8776 2.11014 0
822 1 64.3423 46.327 0
823 1 9.96987 19.7764 0
824 2 46.464 45.1027 0
825 1 42.2915 33.923 0
826 1 12.0382 17.7065 0
827 1 22.0061 60.8463 0
828 1 33.2512 40.4521 0
829 1 63.6833 63.3434 0
830 2 56.4273 20.0882 0
831 2 14.996 10.8342 0
832 1 66.4362 2.31471 0
833 1 29.4396 60.2399 0
834 2 76.523 69.9245 0
835 1 62.2786 6.5753 0
836 1 39.2988 3.0413 0
837 1 36.4699 72.46 0
838 1 59.6324 26.1552 0
839 1 16.39 15.6524 0
840 2 44.2022 45.1987 0
841 1 49.3716 3.44015 0
842 2 36.1785 65.5839 0
843 1 24.0674 2.58108 0
844 1 68.1145 5.11912 0
845 2 12.2683 48.9935 0
846 1 76.6537 27.9687 0
847 1 54.9034 4.06116 0
848 2 65.5614 2.55605 0
849 1 16.3336 43.4155 0
850 1 56.9412 16.0274 0
851 1 25.5009 63.7607 0
852 1 22.5211 36.0302 0
853 1 59.5798 32.0951 0
854 1 60.8442 39.3778 0
855 1 28.5041 30.5052 0
856 2 0.332894 8.79197 0
857 1 14.4884 33.1797 0
858 2 55.1456 61.912 0
859 1 19.4106 71.5484 0
860 2 22.5937 5.33702 0
861 2 55.7878 30.9575 0
862 2 48.6403 62.9336 0
863 1 68.4985 71.9108 0
864 1 8.79599 37.1598 0
865 2 31.7618 0.381159 0
866 1 43.8997 24.9717 0
867 2 13.9796 58.2844 0
868 1 30.5465 70.8934 0
869 1 30.5195 60.3471 0
870 1 38.2788 5.56878 0
871 1 21.936 40.1221 0
872 1 34.9789 70.1765 0
873 1 20.7723 41.4193 0
874 1 60.6982 45.7206 0
875 1 66.2373 42.7356 0
876 2 4.1856 44.9349 0
877 1 55.8605 45.8625 0
878 2 56.603 46.1972 0
879 1 49.247 76.7394 0
880 2 45.0333 52.0732 0
881 2 8.73681 64.513 0
882 2 5.01401 24.3393 0
883 1 18.9841 46.5785 0
884 1 54.4625 35.0835 0
885 1 43.6077 36.1694 0
886 1 0.48469 34.5044 0
887 2 61.9995 53.6001 0
888 1 7.21669 40.3237 0
889 2 3.30184 4.72363 0
890 2 65.6473 19.5966 0
891 1 64.1058 68.9312 0
892 1 39.4957 45.169 0
893 1 20.64 37.0205 0
894 1 41.2772 58.2051 0
895 2 62.0029 23.424 0
896 1 70.5096 73.8042 0
897 2 68.7893 31.0806 0
898 1 59.2679 12.6062 0
899 1 71.2855 24.3049 0
900 2 66.8286 21.8105 0
901 1 26.8872 69.3849 0
902 1 48.349 44.6418 0
903 1 18.1477 59.1158 0
904 2 4.1854 25.5128 0
905 1 70.7441 22.4287 0
906 1 43.9546 12.5436 0
907 1 56.2898 29.1542 0
908 1 28.0137 37.0623 0
909 1 6.33933 20.0177 0
910 2 30.1524 10.8635 0
911 2 68.5214 14.6351 0
912 2 70.3318 59.1466 0
913 2 44.2911 10.5637 0
914 1 66.891 1.38441 0
915 2 52.2095 38.3717 0
916 1 37.0733 27.1936 0
917 2 29.1947 71.9302 0
918 2 64.5956 53.5305 0
919 1 58.8406 19.4548 0
920 1 28.882 37.6213 0
921 1 0.582959 30.3094 0
922 2 11.2154 5.51401 0
923 2 4.27374 75.9142 0
924 1 7.84477 63.0898 0
925 1 6.76648 24.3745 0
926 2 29.5281 39.5636 0
927 1 32.5706 22.3459 0
928 1 28.317 75.5791 0
929 2 31.1562 70.224 0
930 2 43.093 33.6581 0
931 1 23.1846 24.885 0
932 1 32.5473 6.321 0
933 1 2.50155 65.7475 0
934 1 52.6745 20.0439 0
935 1 8.56008 47.0599 0
936 2 26.4281 14.3051 0
937 1 45.1808 22.3338 0
938 1 72.3292 42.5789 0
939 2 63.6428 4.44564 0
940 1 24.9414 72.5677 0
941 1 44.6546 36.0591 0
942 1 34.8495 64.4813 0
943 2 9.22702 70.9168 0
944 2 48.1802 9.73709 0
945 1 62.8404 45.9234 0
946 1 30.3352 18.9481 0
947 2 66.1751 27.2854 0
948 1 60.0578 25.1312 0
949 1 55.2126 69.2909 0
950 2 26.3874 59.6875 0
951 1 65.5446 37.7979 0
952 2 33.2919 15.3224 0
953 2 56.4658 26.3505 0
954 2 10.3656 9.95625 0
955 1 66.9787 0.200122 0
956 2 50.5716 60.4339 0
957 1 43.0407 51.4474 0
958 2 10.7916 46.4411 0
959 2 20.6351 48.094 0
960 2 5.35815 40.3977 0
961 1 34.7766 24.2669 0
962 1 9.76492 57.0881 0
963 1 50.0952 45.7811 0
964 2 50.1725 22.7513 0
965 2 35.7721 55.4274 0
966 1 45.985 44.4005 0
967 1 50.8285 27.8447 0
968 1 70.7287 35.6862 0
969 1 15.8095 10.428 0
970 2 32.7394 52.2601 0
971 1 50.4868 28.893 0
972 1 11.59 30.5057 0
973 1 6.71535 10.9461 0
974 2 18.0667 70.2311 0
975 2 63.2491 19.2424 0
976 2 69.7548 24.0196 0
977 1 40.3377 43.627 0
978 2 10.4184 3.31494 0
979 2 19.9069 49.0685 0
980 1 45.8092 51.3458 0
981 1 58.3354 69.5587 0
982 1 42.3124 55.8297 0
983 1 51.6033 16.5231 0
984 1 59.1756 57.863 0
985 1 9.86777 9.23952 0
986 1 45.6562 25.2548 0
987 2 75.479 72.1497 0
988 2 12.2306 23.5441 0
989 2 4.83604 31.3809 0
990 2 34.0946 57.3467 0
991 2 27.6461 41.2382 0
992 1 74.2995 3.15065 0
993 2 66.5196 74.0286 0
994 2 74.7519 16.3691 0
995 1 68.5706 0.375135 0
996 2 32.154 15.7963 0
997 2 14.6727 74.3089 0
998 2 70.9446 52.2812 0
999 2 76.6552 41.3199 0
1000 2 29.1836 49.3038 0
1001 1 63.8778 53.0664 0
1002 1 19.7615 23.394 0
1003 1 68.2125 25.1533 0
1004 1 36.365 64.7309 0
1005 2 66.449 58.5388 0
1006 2 14.3088 62.9919 0
1007 1 1.71095 6.20359 0
1008 1 47.5169 74.4796 0
1009 1 10.1126 51.0072 0
1010 1 40.3781 77.0581 0
1011 2 15.2214 40.0373 0
1012 2 69.2591 44.0649 0
1013 2 25.4806 3.33928 0
1014 1 35.7949 60.0626 0
1015 1 62.0372 4.85373 0
1016 1 68.3954 13.6964 0
1017 2 11.9202 47.3704 0
1018 1 5.09473 13.7691 0
1019 1 26.336 56.5356 0
1020 2 61.428 69.9253 0
1021 2 29.978 44.9201 0
1022 1 25.8619 17.9133 0
1023 1 34.9579 60.6104 0
1024 1 75.0078 66.6098 0
1025 1 40.7614 27.0675 0
1026 1 61.9432 51.0199 0
1027 1 18.1842 1.65019 0
1028 1 47.0025 49.7325 0
1029 1 35.0103 57.1222 0
1030 2 22.2229 52.11 0
1031 2 67.7279 48.7352 0
1032 1 26.8088 6.6545 0
1033 1 53.4515 34.9509 0
1034 1 1.82055 40.4326 0
1035 1 75.513 13.5985 0
1036 2 3.30176 41.3867 0
1037 1 12.6659 46.9511 0
1038 1 34.4863 48.764 0
1039 1 30.2952 69.9662 0
1040 2 3.60171 67.7916 0
1041 1 63.9472 22.6364 0
1042 2 45.2808 14.1944 0
1043 2 47.6227 16.5019 0
1044 1 58.4993 3.72045 0
1045 1 61.4665 14.3278 0
1046 1 73.5773 58.1857 0
1047 2 59.7716 67.6654 0
1048 1 40.6606 13.3952 0
1049 1 59.1923 10.2492 0
1050 2 60.1388 69.7818 0
1051 1 24.9695 34.355 0
1052 1 26.6908 5.59554 0
1053 2 47.7957 61.5004 0
1054 1 44.7978 2.60806 0
1055 2 48.9184 15.2543 0
1056 2 43.9145 51.0978 0
1057 1 17.9285 60.1146 0
1058 1 11.0391 36.8396 0
1059 1 42.3104 50.7417 0
1060 2 4.11514 3.15335 0
1061 1 10.4726 63.4955 0
1062 2 62.2958 13.763 0
1063 1 51.4956 33.1437 0
1064 1 24.2993 39.3503 0
1065 2 22.3611 74.6996 0
1066 1 40.2938 65.9324 0
1067 1 44.2607 70.7712 0
1068 2 32.4009 70.6034 0
1069 1 51.1661 14.0694 0
1070 2 40.6687 36.2258 0
1071 2 76.0272 44.8142 0
1072 2 69.4035 48.1814 0
1073 2 22.13 72.7082 0
1074 2 76.9818 71.592 0
1075 1 55.1797 65.473 0
1076 1 35.6698 18.2145 0
1077 1 2.19825 71.2037 0
1078 2 58.0397 59.0625 0
1079 2 33.4486 68.5789 0
1080 2 29.6751 19.4605 0
1081 2 13.4496 66.8462 0
1082 2 51.416 13.1819 0
1083 2 50.516 26.9413 0
1084 1 58.4973 53.869 0
1085 1 58.4941 29.4589 0
1086 1 35.5983 38.2941 0
1087 1 18.0799 23.8768 0
1088 1 5.89977 69.2141 0
1089 2 64.9922 77.2829 0
1090 1 58.5252 11.0344 0
1091 2 22.3471 24.5548 0
1092 1 31.2776 40.5636 0
1093 1 7.35306 74.7423 0
1094 2 16.2311 11.3602 0
1095 1 48.8695 35.2579 0
1096 2 59.2427 18.6651 0
1097 1 64.5136 66.4733 0
1098 1 42.848 7.45883 0
1099 1 72.6615 30.6401 0
1100 1 37.3791 64.5767 0
1101 1 1.69842 32.776 0
1102 1 50.5586 33.6422 0
1103 1 11.8694 42.0208 0
1104 1 12.6043 29.8851 0
1105 1 32.1958 33.7397 0
1106 1 14.5412 44.8714 0
1107 2 52.6306 48.0433 0
1108 1 8.43777 54.0826 0
1109 1 24.8078 47.5923 0
1110 2 20.2078 12.3017 0
1111 1 73.9247 16.8315 0
1112 1 33.2781 2.95442 0
1113 2 0.712464 32.8255 0
1114 2 65.9702 4.90239 0
1115 2 76.9299 11.0048 0
1116 1 46.4862 18.7172 0
1117 1 10.8981 45.6364 0
1118 1 11.4205 18.8114 0
1119 2 63.487 43.0858 0
1120 1 60.5348 34.9506 0
1121 2 14.0336 39.5525 0
1122 1 76.029 42.0756 0
1123 2 13.6356 61.5212 0
1124 1 64.8075 71.4521 0
1125 2 48.1162 58.7619 0
1126 2 15.3699 4.54265 0
1127 1 53.9507 53.007 0
1128 1 6.0248 51.7954 0
1129 1 4.09308 28.831 0
1130 1 48.2581 14.4715 0
1131 1 52.1045 77.2077 0
1132 2 66.1972 37.2807 0
1133 2 17.0454 18.387 0
1134 2 65.2182 56.6389 0
1135 1 11.7002 43.1124 0
1136 2 25.05 35.1946 0
1137 1 17.5224 53.7805 0
1138 1 53.2535 65.0168 0
1139 2 44.4176 72.4275 0
1140 2 9.45808 19.0353 0
1141 1 16.2046 18.9271 0
1142 1 16.1389 4.25095 0
1143 1 68.6454 69.9612 0
1144 2 8.52528 60.352 0
1145 1 40.3189 57.8535 0
1146 1 57.9231 22.243 0
1147 1 54.1026 41.296 0
1148 1 55.8569 17.3044 0
1149 1 50.8199 62.6424 0
1150 2 36.2209 37.7951 0
1151 1 7.18461 47.7935 0
1152 1 30.6334 9.40106 0
1153 1 5.78737 17.4502 0
1154 1 19.915 53.324 0
1155 2 22.0238 43.6192 0
1156 1 2.93256 19.1517 0
1157 1 29.3886 7.43584 0
1158 2 68.0557 74.857 0
1159 2 27.927 50.4161 0
1160 1 26.7678 41.414 0
1161 2 6.68668 49.8024 0
1162 1 75.3566 21.5178 0
1163 2 72.6682 2.45206 0
1164 1 35.3597 40.4066 0
1165 1 27.6387 51.2206 0
1166 2 25.7495 61.2741 0
1167 1 0.919373 69.5964 0
1168 1 30.947 36.5886 0
1169 1 68.0165 12.0242 0
1170 2 54.1599 14.0731 0
1171 1 1.19975 54.7493 0
1172 1 15.521 70.5079 0
1173 1 60.8995 69.2076 0
1174 1 64.8634 30.5565 0
1175 2 51.2409 34.483 0
1176 1 33.2352 60.3701 0
1177 1 58.5002 17.4496 0
1178 2 75.3385 17.9818 0
1179 1 54.9971 9.0817 0
1180 1 62.7557 60.6338 0
1181 1 18.6768 57.319 0
1182 1 16.9645 63.0572 0
1183 2 35.6935 69.7341 0
1184 2 57.0133 7.33215 0
1185 1 47.0218 6.39624 0
1186 1 36.2473 25.6288 0
1187 1 31.349 6.46315 0
1188 2 21.1445 66.2508 0
1189 1 39.8509 25.6555 0
1190 1 33.4209 73.2383 0
1191 2 6.63474 28.6232 0
1192 1 74.4331 26.1438 0
1193 1 6.2176 38.7903 0
1194 2 45.8372 71.9547 0
1195 1 22.3676 20.1759 0
1196 1 20.7506 23.7685 0
1197 1 74.3821 21.2249 0
1198 1 11.2312 72.4879 0
1199 2 0.291472 42.6748 0
1200 1 65.9461 69.9117 0
1201 1 14.9256 8.12973 0
1202 1 18.1545 69.3859 0
1203 2 35.8795 21.2612 0
1204 1 25.3539 4.23863 0
1205 1 14.402 31.3795 0
1206 1 67.3155 66.5032 0
1207 1 57.4217 47.8638 0
1208 1 44.6531 53.6875 0
1209 2 46.8147 35.7568 0
1210 1 9.0815 32.5957 0
1211 2 29.6095 25.7543 0
1212 1 34.2374 27.7508 0
1213 1 1.88193 58.4442 0
1214 1 64.401 15.653 0
1215 1 44.6673 7.64335 0
1216 1 67.2919 73.5825 0
1217 2 56.4683 15.3161 0
1218 2 1.99363 63.6603 0
1219 1 14.7734 6.91869 0
1220 1 67.8361 29.5333 0
1221 1 5.54463 23.6692 0
1222 2 70.1975 1.432 0
1223 1 41.0735 39.9466 0
1224 1 27.1646 30.6463 0
1225 1 55.8193 13.5464 0
1226 2 54.549 67.437 0
1227 1 27.949 39.0125 0
1228 1 32.7371 61.9043 0
1229 2 62.9241 3.22914 0
1230 1 1.44451 21.917 0
1231 2 37.7809 32.7458 0
1232 1 62.5904 9.52242 0
1233 1 76.9459 66.113 0
1234 1 57.2324 33.6776 0
1235 1 31.9066 29.0376 0
1236 1 27.8296 27.8048 0
1237 1 63.4191 31.9623 0
1238 1 56.352 27.251 0
1239 1 37.1062 73.2985 0
1240 1 66.3243 34.3876 0
1241 1 19.9619 22.3837 0