ITEM: TIMESTEP
0
ITEM: NUMBER OF ATOMS
7200
ITEM: BOX BOUNDS xy xz yz pp pp pp
0.0000000000000000e+00 7.7459666924100006e+01 0.0000000000000000e+00
0.0000000000000000e+00 7.7459666924100006e+01 0.0000000000000000e+00
-1.2909944490000000e-01 1.2909944490000000e-01 0.0000000000000000e+00
ITEM: ATOMS id type x y z
1 1 14.9178 22.023 0
2 1 20.6317 70.8952 0
3 1 72.8997 5.20653 0
4 1 27.2406 10.1572 0
5 1 26.0959 66.096 0
6 1 57.8864 24.2429 0
7 2 2.2947 9.60046 0
8 2 57.1558 44.5366 0
9 1 39.5828 63.9083 0
10 2 22.1272 15.008 0
11 2 28.222 54.0957 0
12 1 48.018 9.00332 0
13 2 27.1971 12.5962 0
14 1 43.9736 63.1741 0
15 1 32.6904 26.2412 0
16 1 20.041 18.4807 0
17 1 25.6338 45.25 0
18 1 34.0983 9.64796 0
19 1 28.4848 59.8412 0
20 2 44.9909 69.1119 0
21 1 21.9124 74.569 0
22 1 50.1798 18.0209 0
23 1 66.8489 43.9193 0
24 1 55.2243 66.7924 0
25 1 70.6409 71.7837 0
26 1 28.7698 65.3469 0
27 2 26.8453 59.446 0
28 1 46.2817 66.2481 0
29 2 15.287 45.7882 0
30 2 35.567 45.0104 0
31 1 13.9223 62.6313 0
32 1 57.1027 25.8627 0
33 1 60.867 43.2286 0
34 2 50.8643 3.13347 0
35 1 4.91173 61.6159 0
36 1 33.0838 54.8481 0
37 1 19.4095 58.0391 0
38 1 50.6502 22.6874 0
39 1 21.6591 6.11885 0
40 2 21.1181 70.174 0
41 2 18.0434 0.320407 0
42 1 12.4334 4.31761 0
43 1 11.4804 19.4593 0
44 1 27.5201 62.3034 0
45 1 5.9125 29.3549 0
46 1 63.3705 71.6282 0
47 1 69.1928 52.4766 0
48 1 46.9355 60.5762 0
49 2 0.74975 70.7374 0
50 1 29.6724 62.7535 0
51 1 72.8921 13.8996 0
52 2 40.7686 28.7333 0
53 1 57.4162 8.11992 0
54 1 42.5227 28.8664 0
55 1 5.78498 4.4513 0
56 1 46.6778 25.4256 0
57 1 72.7422 43.9001 0
58 1 3.45182 67.641 0
59 1 19.004 74.6911 0
60 1 21.7831 7.15556 0
61 1 29.7923 65.4883 0
62 1 46.8738 42.3501 0
63 1 47.6514 6.17447 0
64 1 47.6263 37.4565 0
65 1 67.2327 69.5237 0
66 2 61.5355 6.02055 0
67 2 44.6961 32.5266 0
68 2 9.24211 22.2274 0
69 1 63.7771 41.1474 0
70 1 8.80622 32.2569 0
71 2 11.3465 55.7768 0
72 1 75.6085 6.31274 0
73 1 11.7129 69.0079 0
74 2 28.7052 23.4237 0
75 1 72.6723 51.0773 0
76 1 19.6574 47.532 0
77 1 17.7116 2.48422 0
78 1 0.652802 6.41423 0
79 1 75.2417 74.7309 0
80 1 44.0151 16.6179 0
81 1 58.9292 62.5885 0
82 2 45.8639 18.3486 0
83 1 12.5353 37.4081 0
84 1 33.7046 47.0109 0
85 1 32.0018 27.041 0
86 2 40.0039 62.0709 0
87 1 72.7531 37.727 0
88 1 19.5088 59.9725 0
89 1 23.8279 21.6385 0
90 1 37.7448 42.8599 0
91 2 49.9858 45.4477 0
92 2 44.3444 51.5886 0
93 1 28.0426 27.2196 0
94 1 32.4365 61.7494 0
95 2 38.272 55.2513 0
96 1 62.026 1.56973 0
97 1 45.7044 50.5005 0
98 2 2.06868 56.202 0
99 1 54.242 44.0744 0
100 2 40.8287 31.1395 0
101 1 48.793 46.9287 0
102 1 76.5898 15.6388 0
103 1 55.8223 62.9275 0
104 1 19.8552 61.1712 0
105 2 35.8371 5.40292 0
106 2 39.4844 32.0114 0
107 1 9.63546 37.0411 0
108 1 13.367 7.64603 0
109 1 33.3152 33.3317 0
110 2 60.6307 25.2193 0
111 1 66.8386 18.4526 0
112 1 35.4925 75.7624 0
113 2 9.28917 59.584 0
114 2 6.46869 27.1321 0
115 2 34.6619 18.2223 0
116 2 69.1788 50.5779 0
117 1 17.959 50.1979 0
118 2 45.8266 12.4 0
119 1 59.1952 1.14991 0
120 2 2.35953 49.4612 0
121 1 6.94284 4.68475 0
122 1 23.9831 33.4197 0
123 2 1.03847 9.09804 0
124 1 48.5295 69.0394 0
125 1 36.2096 26.1877 0
126 1 60.8016 48.2049 0
127 1 7.34752 60.902 0
128 1 9.63674 19.3687 0
129 1 21.0886 65.2842 0
130 1 76.2631 60.2486 0
131 1 57.181 28.5285 0
132 2 32.3148 44.9122 0
133 2 60.733 10.1656 0
134 1 59.5208 42.056 0
135 1 37.1053 28.0021 0
136 2 51.5443 45.9874 0
137 1 63.6501 60.3126 0
138 2 1.88055 45.1032 0
139 1 70.9556 13.2471 0
140 1 0.867627 23.8164 0
141 2 49.6429 60.1591 0
142 1 12.7341 20.5769 0
143 2 35.0843 64.7233 0
144 2 47.503 72.6792 0
145 2 18.7842 50.1566 0
146 1 56.4581 7.80121 0
147 1 24.5516 36.032 0
148 1 48.4231 50.4958 0
149 2 72.9878 49.4935 0
150 1 31.0667 63.8168 0
151 2 30.0617 8.22741 0
152 1 53.0296 65.3986 0
153 2 16.8609 55.319 0
154 2 33.5869 75.9405 0
155 1 77.211 47.9053 0
156 1 39.0938 0.974788 0
157 1 56.5949 64.4616 0
158 1 66.0706 66.4238 0
159 2 8.05657 30.3471 0
160 1 30.8818 20.0566 0
161 1 9.87079 69.4739 0
162 2 2.86127 33.8094 0
163 1 33.0504 27.2429 0
164 1 55.4495 22.9667 0
165 1 0.184397 26.215 0
166 1 1.19312 40.9025 0
167 1 42.1509 70.7933 0
168 1 31.7866 69.9349 0
169 1 49.4754 21.2724 0
170 1 60.3472 3.76348 0
171 2 38.5854 64.0202 0
172 2 42.1852 53.2701 0
173 2 41.3791 16.8742 0
174 2 22.5199 54.0943 0
175 2 30.3858 34.0571 0
176 1 40.1198 20.9794 0
177 1 24.6066 67.1032 0
178 1 62.8963 61.9607 0
179 1 63.7288 21.3082 0
180 2 33.5058 35.2622 0
181 1 45.4718 20.3538 0
182 1 60.4177 67.1056 0
183 2 6.94834 39.0532 0
184 1 4.18057 0.357517 0
185 2 75.1665 30.7257 0
186 1 51.2443 24.029 0
187 1 47.6599 40.0731 0
188 1 57.9569 44.1879 0
189 2 59.3348 46.1189 0
190 1 22.3398 76.1906 0
191 1 60.5058 72.3698 0
192 1 63.9918 13.1211 0
193 2 16.7773 46.189 0
194 2 6.71834 62.7207 0
195 1 13.2651 9.38661 0
196 2 50.2365 48.9229 0
197 2 18.3887 6.58901 0
198 1 27.4272 68.2699 0
199 2 67.8539 59.5864 0
200 1 57.779 30.4152 0
201 2 32.8872 0.974782 0
202 2 3.01555 60.97 0
203 1 50.1443 69.5865 0
204 1 30.2225 14.9644 0
205 1 58.4945 14.9799 0
206 2 32.463 35.8116 0
207 2 8.60041 6.61432 0
208 1 36.0234 14.2128 0
209 1 13.8876 13.0918 0
210 2 10.4785 29.3502 0
211 1 73.4822 9.21791 0
212 2 28.8906 4.72186 0
213 2 54.3256 17.2767 0
214 1 67.9145 55.0059 0
215 2 72.4539 20.8711 0
216 1 11.3581 9.76971 0
217 1 57.1323 37.5164 0
218 2 56.3607 49.1505 0
219 2 3.3362 44.1538 0
220 2 46.0336 62.9582 0
221 1 22.4479 43.0488 0
222 1 42.8773 14.6217 0
223 2 31.4809 8.69991 0
224 2 28.0655 71.6776 0
225 1 32.0549 25.2808 0
226 2 67.4976 50.2842 0
227 2 10.8451 15.5447 0
228 1 24.6722 15.0076 0
229 1 73.7612 28.9603 0
230 1 44.2275 74.3981 0
231 1 11.4683 41.6432 0
232 1 41.061 10.4358 0
233 1 25.9299 24.791 0
234 1 69.9316 4.13782 0
235 1 61.6405 50.3784 0
236 2 31.0806 69.2724 0
237 1 3.8074 61.2297 0
238 2 2.95827 25.3617 0
239 1 50.8265 74.4943 0
240 2 65.0836 50.6664 0
241 1 60.2333 58.8142 0
242 1 9.59005 33.1218 0
243 1 10.1345 62.3194 0
244 1 64.4894 59.6686 0
245 1 5.73624 36.1412 0
246 1 69.325 37.1645 0
247 1 65.8541 51.1484 0
248 1 7.92605 0.599844 0
249 2 49.3892 43.5374 0
250 1 30.0333 19.4405 0
251 2 57.1719 47.8896 0
252 2 65.3966 22.7564 0
253 1 22.9018 28.3381 0
254 1 55.8178 20.2963 0
255 1 74.52 44.4988 0
256 1 38.3207 5.92332 0
257 1 17.1909 74.2169 0
258 1 26.5651 46.7507 0
259 1 66.4973 64.9702 0
260 2 40.5857 49.3911 0
261 2 25.5925 65.2048 0
262 1 33.6445 37.0592 0
263 2 11.931 31.3935 0
264 2 2.70782 57.5385 0
265 1 76.5939 42.7562 0
266 1 36.9284 38.5092 0
267 2 59.3418 27.234 0
268 2 66.2801 49.1788 0
269 1 46.6807 18.0129 0
270 2 76.5816 57.3878 0
271 2 21.7552 42.4519 0
272 2 34.956 15.5825 0
273 1 14.3777 2.49993 0
274 1 30.7119 62.2446 0
275 1 76.5368 58.3266 0
276 1 0.935961 12.565 0
277 2 18.9542 62.904 0
278 1 13.7747 22.1446 0
279 1 2.6263 55.5263 0
280 1 16.8088 37.5953 0
281 1 33.1393 40.5044 0
282 2 74.7541 26.4217 0
283 1 75.6436 54.8169 0
284 2 56.1611 34.2941 0
285 1 73.8022 49.1093 0
286 1 21.7494 67.2568 0
287 1 16.8874 10.8745 0
288 2 64.2684 5.03785 0
289 2 21.0175 38.1489 0
290 2 73.7135 10.1263 0
291 1 25.2352 37.5559 0
292 1 36.8979 62.07 0
293 1 46.3082 9.09708 0
294 1 40.5176 72.9369 0
295 1 65.4735 0.458411 0
296 2 77.0209 12.6056 0
297 1 49.4191 50.6699 0
298 1 70.6788 32.8569 0
299 2 52.6641 29.3927 0
300 1 43.1443 45.4617 0
301 1 0.369587 21.5242 0
302 1 51.7581 27.1332 0
303 1 14.9569 29.1942 0
304 1 62.9347 66.6783 0
305 2 62.963 70.8404 0
306 1 60.9979 49.3629 0
307 2 65.3759 25.9809 0
308 1 38.975 77.3721 0
309 2 13.4663 32.4396 0
310 2 5.07129 18.589 0
311 1 30.9827 47.3656 0
312 1 74.7792 63.4835 0
313 1 69.0961 77.3171 0
314 1 50.617 53.6294 0
315 2 54.9421 37.7256 0
316 2 36.9249 72.7443 0
317 1 47.1723 8.39626 0
318 2 76.5727 37.6822 0
319 1 38.7402 22.7768 0
320 1 30.2727 69.075 0
321 1 59.6386 69.847 0
322 2 76.7432 7.80249 0
323 2 23.6918 67.1253 0
324 1 65.7679 47.0231 0
325 1 44.3117 0.493162 0
326 1 6.71561 58.9731 0
327 1 49.758 55.4918 0
328 1 1.1847 38.7041 0
329 1 47.5902 30.8166 0
330 2 57.77 33.7935 0
331 2 57.8809 73.9137 0
332 1 64.7088 30.8259 0
333 1 40.7838 16.3419 0
334 1 19.1204 43.4683 0
335 1 24.3628 41.0361 0
336 2 73.2924 4.39572 0
337 1 36.2728 34.775 0
338 2 18.6343 73.1381 0
339 1 42.6791 59.489 0
340 1 16.1563 60.8877 0
341 2 7.9772 50.0938 0
342 1 65.1099 6.78956 0
343 2 64.7902 62.0188 0
344 2 23.8265 57.1858 0
345 1 7.21617 24.4027 0
346 1 25.3681 6.66712 0
347 1 33.3735 65.3443 0
348 1 48.2778 17.8335 0
349 1 31.9616 17.1069 0
350 1 43.2995 23.8663 0
351 1 20.4797 59.5597 0
352 1 50.7156 32.1575 0
353 1 4.06052 29.928 0
354 2 29.0418 25.8341 0
355 2 53.5003 26.9008 0
356 2 7.46852 7.33263 0
357 1 69.5215 61.8667 0
358 1 22.6452 6.64869 0
359 1 38.8497 14.3256 0
360 2 42.2279 25.1276 0
361 2 50.6082 57.1527 0
362 1 30.8125 72.5413 0
363 2 33.0495 75.1794 0
364 1 11.5755 0.0446235 0
365 2 0.662958 64.1259 0
366 1 28.2267 49.3629 0
367 2 28.875 30.0029 0
368 2 47.3053 45.3877 0
369 2 65.9711 60.923 0
370 1 8.91689 20.1508 0
371 1 37.8395 68.2978 0
372 2 33.1609 9.68065 0
373 1 16.6678 35.6707 0
374 2 58.1014 28.4324 0
375 1 53.4124 51.1976 0
376 2 70.2733 40.2417 0
377 2 62.3616 39.0877 0
378 1 13.9885 77.2078 0
379 1 19.3227 15.7855 0
380 1 13.1765 55.4284 0
381 1 17.3378 25.2828 0
382 1 26.4078 32.7464 0
383 1 17.2163 13.0898 0
384 1 32.8275 55.8529 0
385 1 26.6244 6.04655 0
386 1 49.6692 51.6864 0
387 1 54.9769 76.1764 0
388 2 62.6807 53.6099 0
389 1 36.9325 57.3657 0
390 1 28.7334 22.5752 0
391 2 62.0308 17.094 0
392 2 25.7298 21.2149 0
393 2 43.5236 59.6309 0
394 1 6.80684 75.0836 0
395 1 58.3226 20.4949 0
396 1 73.2004 7.44584 0
397 1 45.0159 18.2998 0
398 1 50.106 67.5045 0
399 1 72.3539 14.7573 0
400 1 59.4795 72.9033 0
401 1 51.8369 7.33781 0
402 2 53.9609 7.57522 0
403 1 40.2908 55.6037 0
404 1 66.9029 68.5496 0
405 2 63.8072 72.4407 0
406 1 30.2321 16.0127 0
407 2 48.3966 6.59176 0
408 1 67.4531 25.0408 0
409 1 21.2577 68.2337 0
410 2 71.953 14.0098 0
411 2 58.9645 25.7974 0
412 1 65.7991 42.4374 0
413 1 4.95947 34.4426 0
414 1 5.24459 53.1617 0
415 1 8.07699 37.6304 0
416 2 71.9835 61.0702 0
417 2 2.70119 12.8971 0
418 1 42.5491 20.2066 0
419 2 55.3618 53.171 0
420 2 18.3858 66.3269 0
421 1 70.5624 18.6 0
422 1 75.3237 61.7713 0
423 1 10.2959 6.35483 0
424 1 61.7058 21.1455 0
425 1 57.4713 56.2683 0
426 1 59.635 77.0324 0
427 2 34.4076 8.86134 0
428 1 53.4962 57.3592 0
429 1 64.4119 74.4399 0
430 1 35.0896 36.239 0
431 1 12.4599 19.6301 0
432 1 63.4688 48.5368 0
433 1 30.9253 71.4772 0
434 1 67.1722 37.2458 0
435 1 58.5516 26.8108 0
436 2 66.5271 44.7322 0
437 2 47.2887 56.1635 0
438 1 44.8444 58.3083 0
439 2 52.2871 10.4541 0
440 1 48.7122 40.4556 0
441 2 71.1753 7.00281 0
442 1 6.48665 35.4187 0
443 1 52.5833 9.59415 0
444 1 5.85359 75.6452 0
445 2 65.346 72.07 0
446 1 70.3617 48.5318 0
447 1 24.7224 68.8142 0
448 1 55.5686 38.3373 0
449 1 38.3192 71.7987 0
450 2 48.8122 51.2824 0
451 2 8.76541 56.039 0
452 1 48.2686 14.8424 0
453 1 29.8531 4.7276 0
454 2 61.4142 26.4683 0
455 2 25.5274 73.207 0
456 1 8.92455 55.2539 0
457 2 30.9176 13.1044 0
458 1 30.1041 0.964993 0
459 2 14.8212 56.48 0
460 1 10.5975 2.28294 0
461 2 35.4408 20.7218 0
462 1 51.5219 9.85544 0
463 1 72.7944 60.9686 0
464 1 10.74 50.7319 0
465 2 35.9055 40.0797 0
466 1 19.2759 17.8242 0
467 2 3.50035 5.86416 0
468 1 24.9256 41.8936 0
469 1 2.92583 1.31598 0
470 1 65.3116 14.1125 0
471 2 63.7118 33.1223 0
472 1 18.4848 45.2723 0
473 1 47.9995 73.4832 0
474 1 40.5944 61.3412 0
475 1 23.2022 76.6793 0
476 2 46.7368 30.9323 0
477 1 51.0156 14.314 0
478 2 20.2343 68.9786 0
479 1 29.1083 24.1388 0
480 1 24.3701 24.4993 0
481 1 11.6545 15.4731 0
482 1 11.9989 27.6542 0
483 2 67.9292 5.05515 0
484 1 12.5439 46.6053 0
485 1 20.2848 58.5668 0
486 1 11.717 5.24865 0
487 2 65.8092 76.8436 0
488 1 47.2342 76.0418 0
489 1 46.4396 15.909 0
490 1 33.4423 32.2878 0
491 1 26.2342 37.5628 0
492 2 58.2076 8.54857 0
493 1 67.6121 9.73265 0
494 1 72.1613 25.1898 0
495 2 18.5415 58.13 0
496 2 43.4016 47.445 0
497 2 45.8424 0.0840743 0
498 1 21.4896 34.1499 0
499 1 31.1353 76.5114 0
500 1 0.0877924 2.84148 0
501 2 45.0151 49.8983 0
502 1 23.3639 41.3096 0
503 1 45.3613 4.49869 0
504 1 27.9166 34.855 0
505 2 21.7291 76.7811 0
506 2 12.0948 71.7896 0
507 1 48.0002 33.3363 0
508 1 7.3064 42.4042 0
509 1 20.3329 25.6556 0
510 1 74.2745 39.0288 0
511 1 66.2229 26.2324 0
512 1 57.2797 60.2626 0
513 1 17.1935 48.5015 0
514 1 22.8307 67.4464 0
515 2 51.686 0.941909 0
516 2 10.3892 44.4879 0
517 2 2.96634 59.6009 0
518 2 22.2059 52.3513 0
519 2 32.5369 73.4851 0
520 1 73.8764 41.8531 0
521 1 54.2679 18.1281 0
522 2 26.5848 71.7848 0
523 1 73.9868 8.29936 0
524 1 65.0231 23.7326 0
525 1 32.1201 0.518904 0
526 2 76.7877 33.4699 0
527 1 43.3771 20.8387 0
528 2 74.9095 73.0655 0
529 2 39.0095 56.366 0
530 1 13.4069 67.092 0
531 2 0.0166896 60.0352 0
532 2 25.3928 59.2042 0
533 1 73.342 2.506 0
534 1 28.1171 26.0167 0
535 1 25.1602 23.2161 0
536 1 28.2955 63.8566 0
537 1 32.3495 51.0755 0
538 2 21.0557 32.2243 0
539 2 39.6326 70.6422 0
540 1 55.2505 44.1513 0
541 2 25.3455 19.7122 0
542 1 56.4934 57.6192 0
543 2 74.1622 49.8802 0
544 2 51.0971 4.62383 0
545 1 29.1641 35.2751 0
546 1 38.9346 2.08184 0
547 1 8.00423 13.4566 0
548 2 25.2882 12.8114 0
549 2 73.6253 23.5875 0
550 2 5.14551 47.9399 0
551 1 31.4081 9.6233 0
552 2 66.9813 31.8389 0
553 2 28.5049 43.24 0
554 1 61.9385 57.8769 0
555 1 54.7362 59.3632 0
556 1 71.87 64.0188 0
557 1 56.186 54.9486 0
558 1 2.28849 61.4105 0
559 1 73.255 34.3479 0
560 2 26.6343 56.9428 0
561 1 70.1324 0.146648 0
562 2 75.4682 10.5929 0
563 2 46.3936 41.0855 0
564 1 62.6772 63.81 0
565 2 18.4204 4.81324 0
566 2 18.3263 30.5641 0
567 1 54.053 37.5453 0
568 2 38.0248 73.6286 0
569 2 19.9562 23.9594 0
570 1 2.40755 32.98 0
571 1 70.7481 2.0769 0
572 2 4.153 62.1581 0
573 2 66.3972 30.7332 0
574 1 1.956 66.5957 0
575 1 16.8514 11.9187 0
576 1 22.2338 60.4656 0
577 1 44.876 48.8726 0
578 2 64.8349 35.5134 0
579 2 47.6576 68.6541 0
580 1 50.7085 40.2219 0
581 1 1.59303 62.494 0
582 2 66.6216 57.0314 0
583 2 65.5422 58.3653 0
584 2 28.3998 59.0044 0
585 1 61.0346 0.186488 0
586 1 53.2745 53.1724 0
587 2 13.514 25.2336 0
588 1 49.2304 72.0499 0
589 2 52.308 5.58312 0
590 1 15.82 1.44453 0
591 1 55.2777 13.7282 0
592 1 55.8245 71.6136 0
593 1 49.0426 3.77361 0
594 1 64.8186 62.9355 0
595 1 10.309 75.7449 0
596 2 5.84027 6.97734 0
597 1 77.1189 43.7634 0
598 1 62.9104 7.41644 0
599 1 11.5679 54.8641 0
600 1 77.2337 54.1971 0
601 2 42.4676 34.507 0
602 1 58.3917 7.6442 0
603 2 9.50396 41.763 0
604 2 60.7947 19.4074 0
605 1 56.623 51.8043 0
606 1 34.4724 72.0409 0
607 1 69.817 12.7403 0
608 2 2.04942 35.4249 0
609 2 42.2061 68.184 0
610 1 7.95228 49.189 0
611 1 56.0213 56.4116 0
612 1 74.3932 75.6347 0
613 1 72.7041 22.7339 0
614 2 46.026 26.6251 0
615 1 29.5527 31.616 0
616 1 41.9389 15.0727 0
617 1 69.3819 70.5981 0
618 2 14.4267 46.9072 0
619 2 48.4701 39.6276 0
620 2 1.19134 64.9601 0
621 2 61.0434 37.8508 0
622 1 68.8206 17.5239 0
623 1 36.1006 7.54273 0
624 2 16.1931 59.9216 0
625 1 11.8495 73.7084 0
626 1 0.391433 28.9777 0
627 2 1.85108 24.1021 0
628 1 20.8127 61.5067 0
629 2 74.8832 17.0211 0
630 1 32.0818 66.9309 0
631 1 49.9647 38.7052 0
632 1 16.5487 6.10123 0
633 2 29.1879 70.6954 0
634 1 17.6129 61.8476 0
635 2 39.687 44.9097 0
636 2 44.972 34.3248 0
637 1 5.87888 16.9082 0
638 1 63.1833 33.9704 0
639 1 65.7082 48.097 0
640 1 3.42879 53.8554 0
641 1 31.5023 36.4208 0
642 1 22.4769 36.9713 0
643 1 45.1367 39.5025 0
644 2 14.7774 30.0412 0
645 1 57.0349 49.7815 0
646 1 51.6359 38.4388 0
647 2 24.2452 17.0823 0
648 1 65.1073 13.0841 0
649 2 9.98764 76.7072 0
650 2 43.1513 61.4142 0
651 1 57.724 19.0874 0
652 1 18.9848 71.4522 0
653 2 18.5514 11.7142 0
654 2 19.2217 10.372 0
655 1 15.3524 57.2755 0
656 1 74.6081 54.622 0
657 1 29.2142 49.3326 0
658 1 0.960838 8.27062 0
659 2 0.271935 61.4149 0
660 1 30.7927 39.218 0
661 1 36.5705 11.2634 0
662 1 23.4579 61.7938 0
663 1 3.43195 33.1355 0
664 1 55.4258 0.158945 0
665 2 48.3627 74.2785 0
666 2 15.6056 54.5777 0
667 1 20.2004 72.0193 0
668 2 3.3434 0.590006 0
669 1 1.91298 7.708 0
670 2 34.6969 42.9536 0
671 2 42.0764 14.2364 0
672 1 15.9357 23.8637 0
673 1 7.54913 19.0957 0
674 1 34.0233 45.293 0
675 2 15.0255 69.4704 0
676 2 43.4113 74.667 0
677 1 36.0663 61.3615 0
678 1 51.3363 37.4129 0
679 1 44.0104 58.9181 0
680 1 34.8388 57.9397 0
681 1 20.8489 62.5763 0
682 1 61.1511 44.2981 0
683 1 11.5363 2.68488 0
684 1 68.5645 65.9292 0
685 2 46.2439 8.2624 0
686 1 61.4076 3.87539 0
687 1 44.5175 15.0062 0
688 2 60.9776 64.402 0
689 1 0.50088 59.2425 0
690 1 64.7439 70.5621 0
691 1 46.8727 26.4171 0
692 2 45.7167 40.0758 0
693 1 67.3259 2.47247 0
694 2 46.4079 64.3189 0
695 1 47.9184 10.816 0
696 2 38.0818 59.7571 0
697 1 29.9789 26.0866 0
698 1 4.98086 3.80467 0
699 1 64.4982 27.6876 0
700 1 68.4194 42.3425 0
701 1 64.1934 33.7654 0
702 1 62.5594 60.3845 0
703 2 71.4532 75.1854 0
704 2 7.83119 70.7222 0
705 2 8.67487 14.1051 0
706 1 49.376 37.0352 0
707 2 52.19 37.6113 0
708 1 47.4584 44.4809 0
709 1 52.111 66.7517 0
710 2 58.5047 23.534 0
711 1 60.2007 57.046 0
712 2 54.8438 35.9508 0
713 2 73.9371 63.7076 0
714 2 69.5977 58.9926 0
715 1 47.5011 5.16154 0
716 1 1.29741 26.4062 0
717 1 26.2404 73.655 0
718 1 15.8556 69.7929 0
719 1 49.1288 41.5228 0
720 2 44.0643 41.8024 0
721 2 68.7829 46.2024 0
722 1 42.0655 7.9228 0
723 2 48.3289 4.97117 0
724 2 17.9263 74.743 0
725 1 54.5194 35.0774 0
726 1 6.52757 26.2824 0
727 2 16.1228 11.3792 0
728 1 72.0074 49.0567 0
729 2 18.6417 69.7784 0
730 1 28.5815 31.0249 0
731 2 18.958 33.4026 0
732 1 17.0386 60.254 0
733 1 33.0428 22.515 0
734 2 48.9661 35.2142 0
735 1 59.3118 68.1593 0
736 1 41.6824 41.9901 0
737 2 73.7723 41.0402 0
738 1 27.2955 37.4183 0
739 1 28.4057 46.7844 0
740 1 57.3836 35.7011 0
741 2 62.0001 55.1665 0
742 1 56.6856 34.9489 0
743 1 27.6767 69.3228 0
744 2 75.4747 24.8689 0
745 1 11.8405 70.9303 0
746 1 36.8503 9.59958 0
747 1 32.8251 72.5472 0
748 2 46.5269 61.4448 0
749 2 17.4066 33.2385 0
750 1 52.4467 33.3171 0
751 1 62.5184 41.0596 0
752 2 75.6304 58.3171 0
753 1 50.0873 30.5198 0
754 2 7.72351 26.1862 0
755 1 21.5589 64.1934 0
756 2 56.0872 69.6681 0
757 1 43.3535 18.8109 0
758 1 3.05416 7.67017 0
759 1 55.1957 41.5766 0
760 1 6.76414 12.7547 0
761 1 4.27913 3.09254 0
762 1 14.0373 66.2291 0
763 2 73.0889 8.46815 0
764 1 0.825127 54.6138 0
765 2 54.7513 49.8141 0
766 1 74.4505 11.75 0
767 1 7.91299 1.77461 0
768 1 60.617 14.5061 0
769 1 57.7077 45.2758 0
770 2 64.0093 71.0077 0
771 1 23.0723 44.6079 0
772 1 40.549 51.7463 0
773 1 46.6185 48.8938 0
774 2 36.0976 28.1352 0
775 1 70.909 30.6424 0
776 2 44.0302 45.9698 0
777 1 5.03732 47.0839 0
778 2 5.51497 63.1981 0
779 1 40.3759 17.3222 0
780 1 27.1543 3.36921 0
781 1 36.8872 32.995 0
782 1 63.4813 64.4329 0
783 1 61.7966 38.4149 0
784 1 75.5061 48.3493 0
785 2 3.82756 9.22375 0
786 1 71.3138 49.8844 0
787 1 23.1325 66.3472 0
788 1 44.2484 60.038 0
789 1 8.03936 74.3862 0
790 1 56.4665 67.9263 0
791 1 51.5531 3.76541 0
792 1 8.10414 31.2306 0
793 1 15.8265 26.0213 0
794 2 75.4041 5.40193 0
795 2 75.9206 12.3371 0
796 2 71.6173 77.0131 0
797 1 52.4476 57.6495 0
798 1 37.0517 23.0765 0
799 1 35.7615 69.338 0
800 1 27.0802 63.5106 0
801 2 6.36404 33.5127 0
802 2 19.0394 45.9637 0
803 2 27.0778 0.761576 0
804 2 60.3358 34.2635 0
805 1 14.5366 3.59971 0
806 1 61.9396 58.954 0
807 2 28.1284 64.7243 0
808 1 43.4356 42.434 0
809 2 31.5241 67.5617 0
810 1 58.3914 12.6941 0
811 1 37.0399 56.3182 0
812 2 64.0635 50.4601 0
813 2 52.4366 47.1826 0
814 1 60.2128 33.3165 0
815 2 40.0646 12.4855 0
816 1 32.1144 42.031 0
817 1 58.6974 74.2018 0
818 2 35.1784 7.82275 0
819 2 48.122 55.2235 0
820 1 67.9087 72.4309 0
821 1 29.0041 67.1143 0
822 1 53.3245 73.9833 0
823 1 11.7661 59.7501 0
824 2 35.7258 49.6114 0
825 1 30.4439 44.1603 0
826 1 33.0699 1.97425 0
827 1 9.33168 39.8444 0
828 1 3.73925 55.5865 0
829 1 72.6864 36.025 0
830 2 49.1646 67.3819 0
831 2 55.0416 1.94726 0
832 1 69.0104 2.66237 0
833 1 28.3052 57.195 0
834 2 41.7659 77.0936 0
835 1 60.0197 4.76218 0
836 1 54.709 19.1179 0
837 1 51.5909 32.6983 0
838 1 47.2297 55.2114 0
839 1 19.358 73.5974 0
840 2 8.87592 57.701 0
841 1 38.0995 56.1211 0
842 2 15.5897 64.1983 0
843 1 10.7799 53.2908 0
844 1 73.9533 17.1177 0
845 2 27.2333 6.71947 0
846 1 54.7839 45.099 0
847 1 1.98036 52.5926 0
848 2 67.3466 48.9625 0
849 1 69.0976 10.7769 0
850 1 63.1066 22.1675 0
851 1 34.0269 22.0707 0
852 1 13.3327 2.35591 0
853 1 39.7303 62.8801 0
854 1 27.3251 64.4602 0
855 1 46.1138 21.4865 0
856 2 16.5167 41.2073 0
857 1 54.3979 23.3707 0
858 2 30.0323 32.3182 0
859 1 11.2769 71.815 0
860 2 66.4753 53.0279 0
861 2 67.5192 42.2428 0
862 2 0.965786 57.3304 0
863 1 54.1237 16.416 0
864 1 64.7661 55.5377 0
865 2 76.5181 63.8305 0
866 1 56.41 15.4047 0
867 2 36.6121 14.9065 0
868 1 45.2241 57.2825 0
869 1 67.3026 16.6635 0
870 1 5.67113 52.2215 0
871 1 70.6138 22.2329 0
872 1 41.7633 44.2314 0
873 1 54.3943 63.7683 0
874 1 11.2175 74.9458 0
875 1 39.0164 62.1627 0
876 2 48.1282 76.0645 0
877 1 16.5248 66.7473 0
878 2 19.3296 22.6128 0
879 1 73.6189 19.2868 0
880 2 33.5329 39.1599 0
881 2 48.5919 16.8218 0
882 2 42.1446 63.9773 0
883 1 31.4436 13.8257 0
884 1 56.0504 37.3785 0
885 1 36.4277 76.2803 0
886 1 46.9321 51.7709 0
887 2 47.9101 46.9748 0
888 1 75.37 9.78573 0
889 2 55.1664 39.2151 0
890 2 3.18773 28.425 0
891 1 30.3547 10.937 0
892 1 30.6955 70.0539 0
893 1 31.7736 52.1217 0
894 1 71.7743 9.80665 0
895 2 39.7491 59.5411 0
896 1 39.8582 76.7926 0
897 2 38.7154 19.5044 0
898 1 36.6153 42.7034 0
899 1 74.8713 66.6292 0
900 2 44.4685 4.57058 0
901 1 38.2866 37.4768 0
902 1 35.7491 0.982696 0
903 1 28.4351 48.4208 0
904 2 1.67029 32.5462 0
905 1 60.0623 52 0
906 1 67.8855 39.7024 0
907 1 7.85534 17.4637 0
908 1 60.2503 17.6655 0
909 1 3.5539 57.3917 0
910 2 5.65773 53.8621 0
911 2 1.11493 1.65067 0
912 2 36.963 16.7329 0
913 2 33.6414 46.1287 0
914 1 18.5698 25.2 0
915 2 62.7693 2.24784 0
916 1 9.57277 44.1255 0
917 2 0.947505 34.0346 0
918 2 17.3274 43.9028 0
919 1 17.8378 60.8467 0
920 1 14.1783 50.3667 0
921 1 74.9038 33.8414 0
922 2 47.3811 16.0402 0
923 2 8.94989 20.9794 0
924 1 39.0592 12.4926 0
925 1 70.3902 41.9001 0
926 2 39.3192 34.1617 0
927 1 74.7141 72.2109 0
928 1 49.5397 60.9486 0
929 2 55.312 31.6732 0
930 2 15.0284 25.5449 0
931 1 49.3351 48.9208 0
932 1 67.482 30.0196 0
933 1 37.8486 22.2058 0
934 1 9.09133 73.2784 0
935 1 9.50292 63.1901 0
936 2 40.2902 4.91104 0
937 1 6.32606 2.72148 0
938 1 37.7629 74.5739 0
939 2 50.9538 47.6428 0
940 1 1.01806 45.1954 0
941 1 3.13177 17.3885 0
942 1 45.1834 22.9991 0
943 2 19.2329 14.2637 0
944 2 9.06815 52.6847 0
945 1 39.7655 27.1981 0
946 1 69.2102 65.0506 0
947 2 26.0291 8.90884 0
948 1 24.9607 63.3399 0
949 1 32.7871 17.9497 0
950 2 11.7775 7.52741 0
951 1 76.8705 59.4019 0
952 2 55.2813 74.4482 0
953 2 7.34611 39.9912 0
954 2 27.6242 56.6717 0
955 1 29.3063 42.8556 0
956 2 68.2183 19.8363 0
957 1 48.8022 11.7662 0
958 2 28.1888 4.23032 0
959 2 0.205623 28.1144 0
960 2 34.072 63.4961 0
961 1 43.5346 51.3195 0
962 1 15.7699 12.2522 0
963 1 14.9555 11.4174 0
964 2 12.0812 16.3541 0
965 2 56.643 55.744 0
966 1 1.95958 58.191 0
967 1 46.7908 33.8732 0
968 1 22.414 77.2911 0
969 1 59.2534 24.1128 0
970 2 28.0885 10.1331 0
971 1 23.6618 12.9754 0
972 1 7.55495 29.7252 0
973 1 73.8155 33.3796 0
974 2 71.4962 32.2703 0
975 2 77.3385 62.836 0
976 2 37.1749 21.5243 0
977 1 39.6855 57.7106 0
978 2 77.1303 11.178 0
979 2 35.1073 62.0124 0
980 1 4.29002 6.2746 0
981 1 76.3946 51.4595 0
982 1 15.686 56.3242 0
983 1 22.8429 13.6709 0
984 1 7.06567 64.3229 0
985 1 36.669 15.9158 0
986 1 35.4134 51.0251 0
987 2 13.646 26.7728 0
988 2 39.0101 28.8282 0
989 2 8.05132 33.8282 0
990 2 76.0292 50.7035 0
991 2 49.7301 11.908 0
992 1 69.0192 31.3353 0
993 2 33.2734 15.9897 0
994 2 6.92605 68.7689 0
995 1 30.7274 29.2517 0
996 2 53.1708 58.3497 0
997 2 46.8683 21.9257 0
998 2 55.1496 72.2208 0
999 2 40.0072 16.5178 0
1000 2 77.3453 55.1212 0
1001 1 38.6356 63.1812 0
1002 1 28.4282 37.9566 0
1003 1 9.72328 56.0975 0
1004 1 4.72077 16.6127 0
1005 2 10.7558 24.3875 0
1006 2 60.1442 49.1896 0
1007 1 18.2697 29.7429 0
1008 1 45.391 15.5775 0
1009 1 32.4427 33.92 0
1010 1 13.6667 53.0066 0
1011 2 11.4324 34.8533 0
1012 2 6.64277 19.0798 0
1013 2 66.6315 65.8401 0
1014 1 4.49099 9.79642 0
1015 1 70.8453 15.5633 0
1016 1 45.2445 51.4709 0
1017 2 8.2762 48.4301 0
1018 1 32.5083 36.6638 0
1019 1 47.2432 34.8396 0
1020 2 32.5814 12.2676 0
1021 2 21.1839 25.2852 0
1022 1 11.0947 68.1749 0
1023 1 35.0255 2.74273 0
1024 1 7.77478 69.0193 0
1025 1 44.6285 64.4626 0
1026 1 8.03151 50.9225 0
1027 1 42.2341 73.3968 0
1028 1 4.96112 35.5304 0
1029 1 44.4752 22.1147 0
1030 2 49.1465 49.8924 0
1031 2 47.0777 39.4164 0
1032 1 10.801 73.9369 0
1033 1 60.0104 27.7211 0
1034 1 48.4745 23.8888 0
1035 1 69.2859 25.5771 0
1036 2 63.1513 45.3994 0
1037 1 36.821 77.2814 0
1038 1 69.4428 64.0565 0
1039 1 2.5787 29.0664 0
1040 2 60.7006 39.5753 0
1041 1 29.1792 71.602 0
1042 2 57.4201 58.1957 0
1043 2 65.1908 66.3923 0
1044 1 1.66484 18.9717 0
1045 1 73.749 18.119 0
1046 1 38.261 65.6588 0
1047 2 10.663 47.3551 0
1048 1 43.2779 70.8182 0
1049 1 1.78609 41.8465 0
1050 2 52.6212 6.95511 0
1051 1 48.4129 25.6642 0
1052 1 65.5305 45.2919 0
1053 2 26.6598 19.2176 0
1054 1 49.9851 73.8274 0
1055 2 25.9921 44.5016 0
1056 2 16.709 47.6602 0
1057 1 16.1264 74.0064 0
1058 1 31.3831 2.61353 0
1059 1 1.57858 70.5082 0
1060 2 22.2407 44.8877 0
1061 1 17.3661 16.0405 0
1062 2 14.8587 37.7937 0
1063 1 4.3493 72.5632 0
1064 1 20.8002 7.648 0
1065 2 37.2679 53.6054 0
1066 1 28.4864 51.002 0
1067 1 19.3273 11.2649 0
1068 2 40.6131 69.7155 0
1069 1 70.7227 31.7873 0
1070 2 8.53606 34.6996 0
1071 2 53.6785 48.6637 0
1072 2 8.14425 60.3205 0
1073 2 9.93589 8.75231 0
1074 2 34.8558 45.5147 0
1075 1 2.53129 44.5713 0
1076 1 39.5645 72.4089 0
1077 1 38.8919 32.6323 0
1078 2 65.6987 29.3026 0
1079 2 43.4555 3.15594 0
1080 2 23.5336 62.6717 0
1081 2 40.9816 43.927 0
1082 2 12.3336 18.755 0
1083 2 21.8797 10.6021 0
1084 1 44.81 52.5186 0
1085 1 33.5584 53.6202 0
1086 1 68.0326 67.0523 0
1087 1 36.5088 3.55932 0
1088 1 53.9402 58.6971 0
1089 2 11.8188 39.4102 0
1090 1 44.5367 29.1882 0
1091 2 22.44 24.6934 0
1092 1 57.7964 52.033 0
1093 1 63.2236 30.4012 0
1094 2 42.0992 58.8144 0
1095 1 17.5388 1.10689 0
1096 2 47.788 21.4585 0
1097 1 76.3992 18.4019 0
1098 1 67.8116 43.2234 0
1099 1 34.6254 74.3747 0
1100 1 72.6113 1.71247 0
1101 1 75.6073 19.9305 0
1102 1 27.0308 76.1415 0
1103 1 51.2769 66.1365 0
1104 1 44.5427 50.7033 0
1105 1 52.0501 39.4154 0
1106 1 14.8238 6.27104 0
1107 2 50.3515 63.1907 0
1108 1 52.8371 30.2594 0
1109 1 69.9062 30.7406 0
1110 2 5.09353 11.8812 0
1111 1 73.1273 56.0646 0
1112 1 16.0398 17.1827 0
1113 2 64.385 11.2791 0
1114 2 20.3657 54.4055 0
1115 2 34.4461 53.7058 0
1116 1 75.4008 53.2104 0
1117 1 68.297 55.9932 0
1118 1 15.2116 4.37233 0
1119 2 16.6706 68.5236 0
1120 1 37.4642 55.255 0
1121 2 19.0011 64.7635 0
1122 1 44.9423 36.8979 0
1123 2 21.4917 59.7298 0
1124 1 49.3398 59.3265 0
1125 2 15.8206 7.98215 0
1126 2 11.7245 23.5704 0
1127 1 11.5548 18.4591 0
1128 1 73.6174 60.3101 0
1129 1 57.1368 43.6055 0
1130 1 25.4404 55.4289 0
1131 1 65.4412 21.8145 0
1132 2 74.5941 53.5311 0
1133 2 61.2075 22.7893 0
1134 2 12.0131 6.14769 0
1135 1 70.4828 62.4156 0
1136 2 46.1224 19.827 0
1137 1 52.8082 61.1784 0
1138 1 34.9483 23.6205 0
1139 2 58.861 48.4779 0
1140 2 77.0564 25.6082 0
1141 1 72.045 55.4757 0
1142 1 43.143 49.4028 0
1143 1 49.0296 48.0018 0
1144 2 68.1516 16.9603 0
1145 1 42.1787 57.9618 0
1146 1 12.5379 17.8614 0
1147 1 29.0364 26.6411 0
1148 1 12.2589 38.6106 0
1149 1 55.8789 27.1676 0
1150 2 68.6969 60.3114 0
1151 1 26.3645 12.8975 0
1152 1 54.9347 47.7948 0
1153 1 3.54381 24.6076 0
1154 1 10.0579 13.2383 0
1155 2 63.1919 16.0501 0
1156 1 61.052 32.732 0
1157 1 6.05666 22.9228 0
1158 2 60.5275 44.8364 0
1159 2 2.62943 76.9024 0
1160 1 29.0825 3.85139 0
1161 2 38.9952 53.7248 0
1162 1 13.8732 8.52355 0
1163 2 2.43976 7.02444 0
1164 1 29.4984 57.4813 0
1165 1 18.7906 55.512 0
1166 2 17.2205 50.622 0
1167 1 32.4639 23.4033 0
1168 1 55.7547 65.1717 0
1169 1 19.4052 70.484 0
1170 2 9.10145 31.4027 0
1171 1 47.0666 38.3406 0
1172 1 36.1744 6.3672 0
1173 1 51.887 65.0776 0
1174 1 39.997 34.7134 0
1175 2 62.5489 48.2275 0
1176 1 67.2105 30.9966 0
1177 1 51.0535 67.1285 0
1178 2 51.8506 42.7289 0
1179 1 76.8854 38.5247 0
1180 1 47.3591 13.4602 0
1181 1 59.8053 25.3265 0
1182 1 56.2779 66.1498 0
1183 2 43.185 62.8982 0
1184 2 25.136 24.9732 0
1185 1 12.8784 68.8519 0
1186 1 44.4212 45.1312 0
1187 1 64.9752 69.5622 0
1188 2 9.81426 34.0721 0
1189 1 63.5707 58.4725 0
1190 1 32.1164 43.9773 0
1191 2 63.5004 12.4518 0
1192 1 21.8362 49.0002 0
1193 1 46.5171 19.0323 0
1194 2 12.9881 22.5894 0
1195 1 76.5405 52.7447 0
1196 1 23.1191 52.421 0
1197 1 45.7537 33.9382 0
1198 1 61.234 76.5719 0
1199 2 61.4047 62.7459 0
1200 1 33.0997 15.1722 0
1201 1 1.69191 2.26762 0
1202 1 6.25282 67.1699 0
1203 2 45.4632 8.87312 0
1204 1 51.2166 58.9765 0
1205 1 63.0429 47.4649 0
1206 1 50.4725 72.8606 0
1207 1 41.469 60.698 0
1208 1 69.8498 51.1199 0
1209 2 64.5772 60.6043 0
1210 1 53.4485 25.9623 0
1211 2 22.6062 43.8921 0
1212 1 23.9574 31.7517 0
1213 1 64.4687 65.8767 0
1214 1 74.9968 25.5378 0
1215 1 5.00035 1.67019 0
1216 1 13.4219 51.7547 0
1217 2 60.5958 74.2566 0
1218 2 58.3757 19.6178 0
1219 1 27.8927 23.2471 0
1220 1 74.6511 16.1487 0
1221 1 64.1196 61.4088 0
1222 2 67.8431 68.9372 0
1223 1 53.1008 45.3197 0
1224 1 74.0475 35.2022 0
1225 1 5.30852 24.5031 0
1226 2 69.4289 65.9371 0
1227 1 42.9876 58.5274 0
1228 1 68.2671 64.1205 0
1229 2 52.5894 0.908822 0
1230 1 19.5597 42.2831 0
1231 2 53.6163 12.8067 0
1232 1 76.0462 39.046 0
1233 1 36.4035 60.3333 0
1234 1 74.4376 64.5421 0
1235 1 15.8352 49.8424 0
1236 1 57.9188 62.7892 0
1237 1 34.8032 14.75 0
1238 1 28.165 8.19443 0
1239 1 13.2893 28.9266 0
1240 1 29.557 75.4386 0
1241 1 15.7561 68.7569 0