ITEM: TIMESTEP
0
ITEM: NUMBER OF ATOMS
7200
ITEM: BOX BOUNDS xy xz yz pp pp pp
0.0000000000000000e+00 7.7459666924100006e+01 0.0000000000000000e+00
0.0000000000000000e+00 7.7459666924100006e+01 0.0000000000000000e+00
-1.2909944490000000e-01 1.2909944490000000e-01 0.0000000000000000e+00
ITEM: ATOMS id type x y z
1 1 64.0826 10.0559 0
2 1 21.7728 31.4821 0
3 1 19.3237 27.1972 0
4 1 59.4195 17.2996 0
5 1 58.2895 74.9775 0
6 1 74.8182 19.9157 0
7 2 66.2695 59.3275 0
8 2 68.819 73.156 0
9 1 39.456 59.7706 0
10 2 22.8204 58.18 0
11 2 4.61298 67.0664 0
12 1 72.1197 54.8037 0
13 2 7.70449 0.304808 0
14 1 50.5207 38.0964 0
15 1 47.263 74.3785 0
16 1 53.2993 47.0778 0
17 1 31.1421 61.4013 0
18 1 64.1675 48.8278 0
19 1 67.191 28.0919 0
20 2 65.4228 16.1386 0
21 1 14.5592 22.4461 0
22 1 30.3231 4.44096 0
23 1 5.02134 1.10612 0
24 1 61.0086 5.52716 0
25 1 7.72006 52.1661 0
26 1 12.2138 9.52913 0
27 2 16.1487 0.854675 0
28 1 35.7722 20.3192 0
29 2 13.1393 49.8423 0
30 2 26.7303 8.44724 0
31 1 14.6362 67.8266 0
32 1 29.6985 23.776 0
33 1 6.55091 3.56347 0
34 2 55.92 12.4915 0
35 1 27.6423 17.4973 0
36 1 19.4697 43.4093 0
37 1 14.5287 14.2575 0
38 1 23.8153 4.83482 0
39 1 58.3215 1.6006 0
40 2 11.6829 37.547 0
41 2 38.3051 0.234639 0
42 1 65.2928 63.612 0
43 1 63.3883 34.7036 0
44 1 54.435 16.4302 0
45 1 14.7279 60.5429 0
46 1 76.396 71.5474 0
47 1 70.966 60.46 0
48 1 43.7374 50.6504 0
49 2 53.8122 30.9066 0
50 1 56.8986 44.4101 0
51 1 26.0883 58.5342 0
52 2 25.1646 61.1729 0
53 1 26.6484 60.6164 0
54 1 11.2322 10.161 0
55 1 44.5717 28.711 0
56 1 39.3791 56.8831 0
57 1 6.27936 34.6476 0
58 1 35.2548 33.6762 0
59 1 2.11884 61.2557 0
60 1 5.3779 64.3352 0
61 1 20.9475 53.5536 0
62 1 0.163316 43.5273 0
63 1 49.0343 2.65252 0
64 1 61.6946 48.0975 0
65 1 8.04741 21.8764 0
66 2 38.2284 44.5094 0
67 2 25.87 31.5757 0
68 2 54.3767 3.45332 0
69 1 61.4178 42.5329 0
70 1 61.6743 68.6822 0
71 2 77.1342 14.4699 0
72 1 45.6732 3.02398 0
73 1 27.3835 24.8394 0
74 2 19.6512 70.7599 0
75 1 12.3674 55.8803 0
76 1 65.4286 27.2264 0
77 1 51.7197 1.65532 0
78 1 66.875 21.49 0
79 1 10.6203 31.3282 0
80 1 1.6329 11.7413 0
81 1 22.371 64.4343 0
82 2 14.8483 12.3942 0
83 1 64.9472 30.0856 0
84 1 8.37965 9.15232 0
85 1 73.1165 76.3584 0
86 2 32.7165 65.9396 0
87 1 34.0738 18.9668 0
88 1 60.9164 40.0716 0
89 1 16.0172 13.9185 0
90 1 64.1665 68.6814 0
91 2 61.5953 41.6395 0
92 2 73.0134 37.2251 0
93 1 69.1895 9.23367 0
94 1 46.1843 20.7901 0
95 2 62.3424 32.5543 0
96 1 12.9775 5.05644 0
97 1 39.1752 38.1318 0
98 2 72.4748 48.9289 0
99 1 33.3391 14.7801 0
100 2 19.4707 24.727 0
101 1 52.2518 60.5821 0
102 1 24.0939 63.5067 0
103 1 62.0925 9.86451 0
104 1 13.2405 10.3821 0
105 2 0.877611 43.1336 0
106 2 16.7631 0.0596081 0
107 1 16.2712 27.945 0
108 1 7.87878 74.5621 0
109 1 8.84209 15.2254 0
110 2 2.08804 31.7022 0
111 1 19.4105 28.8914 0
112 1 52.5944 15.8344 0
113 2 1.49927 75.8267 0
114 2 32.1738 19.4443 0
115 2 3.57061 16.078 0
116 2 23.1949 0.643825 0
117 1 70.838 59.3905 0
118 2 16.1822 35.0305 0
119 1 49.8663 14.8227 0
120 2 72.1951 5.15881 0
121 1 43.2077 60.1243 0
122 1 10.4234 36.1199 0
123 2 60.0779 58.7903 0
124 1 54.9246 49.6205 0
125 1 75.5378 11.6291 0
126 1 39.7608 30.8634 0
127 1 66.8369 76.2829 0
128 1 40.6269 18.3462 0
129 1 49.5177 30.9519 0
130 1 20.9129 4.65115 0
131 1 8.81736 53.8961 0
132 2 52.5917 67.1434 0
133 2 35.5035 5.85289 0
134 1 63.0181 30.0529 0
135 1 53.2238 25.3061 0
136 2 65.1298 70.4629 0
137 1 7.47712 69.1686 0
138 2 58.0912 36.2283 0
139 1 44.4222 8.79311 0
140 1 28.9861 69.4766 0
141 2 29.9874 11.4385 0
142 1 8.13133 71.7679 0
143 2 12.9701 56.5246 0
144 2 37.4264 57.0155 0
145 2 41.1157 75.6552 0
146 1 49.8553 47.6409 0
147 1 14.2419 23.4078 0
148 1 47.7131 59.7696 0
149 2 62.0844 28.9776 0
150 1 15.1012 45.6927 0
151 2 54.7554 30.7364 0
152 1 34.5326 2.53472 0
153 2 69.3229 52.1079 0
154 2 41.0793 72.9233 0
155 1 11.6993 21.6279 0
156 1 22.9941 63.601 0
157 1 27.8101 72.9386 0
158 1 43.3416 71.118 0
159 2 68.9034 67.4948 0
160 1 3.56655 67.1964 0
161 1 35.0671 18.8291 0
162 2 6.89289 70.1008 0
163 1 67.6932 74.818 0
164 1 42.6238 6.76761 0
165 1 58.9584 23.3384 0
166 1 15.5267 61.5388 0
167 1 5.22564 59.8124 0
168 1 7.01309 22.232 0
169 1 62.3978 66.4324 0
170 1 15.8215 58.8175 0
171 2 59.86 25.9759 0
172 2 62.4585 52.0802 0
173 2 12.8158 72.3264 0
174 2 70.11 22.1978 0
175 2 48.3571 6.78627 0
176 1 4.87194 39.8018 0
177 1 9.14753 2.91867 0
178 1 65.5099 75.9864 0
179 1 59.5981 60.5388 0
180 2 6.94035 68.4134 0
181 1 17.5395 14.7227 0
182 1 32.2741 20.5559 0
183 2 27.801 50.6657 0
184 1 62.557 26.3158 0
185 2 7.72458 6.21761 0
186 1 71.9775 49.9288 0
187 1 0.0570167 51.8792 0
188 1 36.587 37.0746 0
189 2 33.9493 28.4945 0
190 1 42.3147 75.4525 0
191 1 8.87367 52.2192 0
192 1 48.2707 25.7571 0
193 2 13.9176 28.8434 0
194 2 1.81071 77.0407 0
195 1 6.15698 39.9421 0
196 2 45.579 0.298882 0
197 2 36.8567 60.6764 0
198 1 0.969992 16.2752 0
199 2 43.3995 38.6855 0
200 1 55.4991 25.2603 0
201 2 8.47939 14.5054 0
202 2 15.7039 75.234 0
203 1 39.2327 57.9196 0
204 1 31.9054 62.852 0
205 1 14.3993 43.1032 0
206 2 14.2159 21.5482 0
207 2 52.4772 19.618 0
208 1 75.12 30.4014 0
209 1 52.7136 27.8116 0
210 2 9.70631 24.7273 0
211 1 75.4074 43.2024 0
212 2 51.1841 34.8049 0
213 2 10.3615 6.09885 0
214 1 73.4144 62.5917 0
215 2 16.663 69.7924 0
216 1 66.4114 39.5385 0
217 1 19.8062 0.408525 0
218 2 74.4695 39.7413 0
219 2 2.47012 2.59945 0
220 2 4.56047 45.6569 0
221 1 37.5363 71.6567 0
222 1 73.6052 54.1416 0
223 2 74.0574 64.628 0
224 2 65.2685 56.3365 0
225 1 43.9056 31.1411 0
226 2 66.2895 1.59044 0
227 2 1.96112 27.6298 0
228 1 55.0769 46.556 0
229 1 12.0951 60.0907 0
230 1 75.4741 71.9611 0
231 1 46.7506 24.6359 0
232 1 25.4723 32.6214 0
233 1 69.7562 67.0825 0
234 1 39.4587 7.21402 0
235 1 51.6281 2.61235 0
236 2 35.0212 14.8975 0
237 1 55.1311 3.9099 0
238 2 36.7954 39.3298 0
239 1 20.3342 15.6075 0
240 2 11.3742 71.8631 0
241 1 50.0743 75.3479 0
242 1 4.91099 74.8039 0
243 1 0.289258 23.5089 0
244 1 65.8723 21.8588 0
245 1 22.5621 50.8541 0
246 1 51.7162 15.4235 0
247 1 20.998 3.47878 0
248 1 30.3926 6.92613 0
249 2 50.6044 17.6229 0
250 1 49.3189 69.877 0
251 2 63.3908 26.7429 0
252 2 34.3614 3.46547 0
253 1 52.0618 46.2945 0
254 1 44.1709 23.8187 0
255 1 23.676 58.3563 0
256 1 76.6039 37.6798 0
257 1 47.1203 65.4985 0
258 1 35.781 64.1562 0
259 1 6.67277 16.8846 0
260 2 32.7662 63.3148 0
261 2 21.7862 4.04213 0
262 1 68.2223 16.8366 0
263 2 58.4286 35.2812 0
264 2 12.8455 60.5659 0
265 1 66.3186 37.0384 0
266 1 11.8465 70.7984 0
267 2 40.4474 2.8747 0
268 2 16.2278 27.0833 0
269 1 55.8249 56.2419 0
270 2 9.02246 48.167 0
271 2 65.377 61.7012 0
272 2 40.8891 20.3516 0
273 1 55.6966 40.8717 0
274 1 65.6635 23.4964 0
275 1 58.2271 67.3345 0
276 1 48.3198 33.3127 0
277 2 9.51588 46.5771 0
278 1 22.5609 37.1649 0
279 1 55.4647 16.8284 0
280 1 9.28651 25.4419 0
281 1 77.1709 40.6412 0
282 2 70.4907 40.6232 0
283 1 40.8866 34.7715 0
284 2 30.911 40.4331 0
285 1 34.4576 71.1741 0
286 1 23.6557 12.4393 0
287 1 49.8024 77.0225 0
288 2 17.8165 12.8647 0
289 2 76.4384 36.7919 0
290 2 59.2188 36.7832 0
291 1 64.6732 77.1584 0
292 1 70.8084 21.8278 0
293 1 4.84403 55.3321 0
294 1 2.11139 41.8203 0
295 1 14.2012 64.0631 0
296 2 11.1744 58.4376 0
297 1 6.57328 20.5583 0
298 1 20.0884 11.5654 0
299 2 29.4609 32.6952 0
300 1 3.1677 30.8442 0
301 1 67.4415 66.696 0
302 1 3.19306 70.693 0
303 1 12.8626 14.7612 0
304 1 42.1948 41.1541 0
305 2 33.3489 66.9471 0
306 1 14.989 51.9512 0
307 2 71.4731 42.0239 0
308 1 21.2399 5.89455 0
309 2 13.3593 76.6968 0
310 2 76.5478 72.45 0
311 1 8.69153 64.3288 0
312 1 36.0794 47.4617 0
313 1 48.7792 53.8005 0
314 1 24.7486 47.2319 0
315 2 54.8188 60.9967 0
316 2 42.9072 0.42231 0
317 1 55.7383 37.7116 0
318 2 41.5359 56.5919 0
319 1 37.8932 43.7429 0
320 1 19.2299 74.655 0
321 1 35.4567 44.1676 0
322 2 14.0343 10.6573 0
323 2 70.1219 1.3088 0
324 1 1.4619 51.9198 0
325 1 45.6998 34.3487 0
326 1 69.656 12.124 0
327 1 54.3401 27.3278 0
328 1 30.2368 17.5201 0
329 1 48.0347 61.5218 0
330 2 50.5579 38.9485 0
331 2 58.166 29.028 0
332 1 31.0475 47.3183 0
333 1 10.9486 18.5031 0
334 1 71.5301 48.8605 0
335 1 0.67491 11.1251 0
336 2 65.5287 57.6253 0
337 1 33.5587 56.8637 0
338 2 22.9734 15.8036 0
339 1 47.8347 17.6853 0
340 1 1.58545 2.75356 0
341 2 58.3598 47.9884 0
342 1 15.4666 6.82934 0
343 2 13.9207 72.3524 0
344 2 13.2532 39.7429 0
345 1 64.1232 33.9219 0
346 1 20.1696 9.62444 0
347 1 21.4681 23.5799 0
348 1 3.58529 34.7824 0
349 1 11.6684 22.7361 0
350 1 42.9928 29.4712 0
351 1 6.71465 24.7518 0
352 1 4.11091 1.60642 0
353 1 39.6366 2.81002 0
354 2 7.65057 76.5885 0
355 2 45.9902 64.4759 0
356 2 43.6676 33.0452 0
357 1 65.753 74.2791 0
358 1 56.1015 15.9276 0
359 1 54.9347 8.1545 0
360 2 69.2649 8.39625 0
361 2 51.8781 59.7689 0
362 1 8.08638 47.8647 0
363 2 2.99218 56.3331 0
364 1 60.8549 41.2717 0
365 2 20.4819 23.9169 0
366 1 58.8742 36.002 0
367 2 51.3728 46.9583 0
368 2 19.1791 61.5381 0
369 2 35.4416 42.9291 0
370 1 23.0406 3.26446 0
371 1 38.0345 65.75 0
372 2 42.232 69.6072 0
373 1 38.9887 67.0733 0
374 2 43.793 26.4749 0
375 1 19.0633 39.8981 0
376 2 24.9232 62.8865 0
377 2 38.7577 43.6829 0
378 1 13.8116 46.9486 0
379 1 35.0273 27.2939 0
380 1 74.9589 1.07416 0
381 1 23.7229 16.2077 0
382 1 72.8822 40.6644 0
383 1 24.7915 15.0098 0
384 1 3.42132 45.747 0
385 1 76.3798 55.2127 0
386 1 37.3995 28.7997 0
387 1 48.7246 21.526 0
388 2 51.7034 64.4867 0
389 1 51.6233 26.3044 0
390 1 6.14938 23.7538 0
391 2 69.8102 76.049 0
392 2 67.8302 41.8452 0
393 2 10.888 21.4538 0
394 1 58.9421 49.5858 0
395 1 23.3487 36.2907 0
396 1 72.8744 75.3387 0
397 1 74.3385 8.09574 0
398 1 60.5883 52.4204 0
399 1 18.9089 70.3521 0
400 1 16.621 56.5677 0
401 1 57.2014 1.46648 0
402 2 54.8753 59.4643 0
403 1 34.3709 75.4236 0
404 1 29.0686 44.2981 0
405 2 18.2989 14.3537 0
406 1 75.7593 76.5754 0
407 2 41.3258 69.6213 0
408 1 51.0811 52.3084 0
409 1 29.6505 36.4272 0
410 2 33.58 33.4148 0
411 2 1.12824 59.0152 0
412 1 0.453156 4.45723 0
413 1 58.2621 28.1257 0
414 1 26.4888 31.0341 0
415 1 25.187 55.1521 0
416 2 62.8713 17.7847 0
417 2 7.08867 51.5613 0
418 1 4.53304 2.71447 0
419 2 42.1309 44.3907 0
420 2 14.4936 45.122 0
421 1 43.8152 47.4164 0
422 1 57.4733 70.1498 0
423 1 40.0272 32.9549 0
424 1 21.5535 35.0273 0
425 1 57.4358 7.03629 0
426 1 4.47504 50.1005 0
427 2 57.522 44.983 0
428 1 70.6402 20.0935 0
429 1 18.8132 60.6015 0
430 1 2.86594 3.4028 0
431 1 67.9985 60.0604 0
432 1 67.7363 64.1932 0
433 1 18.937 59.1437 0
434 1 36.1627 33.3708 0
435 1 25.3493 8.81696 0
436 2 7.3291 38.9888 0
437 2 60.6529 26.8005 0
438 1 33.8182 51.4285 0
439 2 36.1335 64.9169 0
440 1 28.8953 56.6542 0
441 2 7.52452 27.261 0
442 1 39.2405 23.2438 0
443 1 57.9939 27.1159 0
444 1 52.4973 54.4312 0
445 2 3.48285 6.88243 0
446 1 36.5328 20.9812 0
447 1 11.1051 76.3767 0
448 1 0.526336 65.3669 0
449 1 36.3704 50.5426 0
450 2 33.2355 27.3908 0
451 2 62.0705 37.2098 0
452 1 50.7468 3.21604 0
453 1 74.3904 48.6392 0
454 2 76.9121 48.7711 0
455 2 56.1886 44.8454 0
456 1 59.7695 3.2047 0
457 2 59.6853 23.8784 0
458 1 15.953 50.5372 0
459 2 60.66 74.6849 0
460 1 33.5622 48.1122 0
461 2 41.4401 33.7915 0
462 1 61.9147 7.65413 0
463 1 46.4496 3.81728 0
464 1 32.8941 55.9788 0
465 2 15.7809 19.6673 0
466 1 33.7381 37.4409 0
467 2 31.4474 23.3466 0
468 1 5.70234 47.754 0
469 1 2.09971 0.63247 0
470 1 40.2131 65.9173 0
471 2 4.7504 16.7789 0
472 1 48.9078 46.2703 0
473 1 15.424 52.8813 0
474 1 34.0141 32.6585 0
475 1 27.6516 60.5782 0
476 2 10.0059 21.8861 0
477 1 53.7894 17.2085 0
478 2 26.5284 46.9388 0
479 1 75.7799 72.8574 0
480 1 19.2653 56.0568 0
481 1 60.0572 75.2013 0
482 1 45.9286 26.9159 0
483 2 60.0439 40.9152 0
484 1 17.4127 36.0692 0
485 1 60.7204 30.9926 0
486 1 13.1345 28.7629 0
487 2 45.8712 44.2666 0
488 1 25.5876 25.7594 0
489 1 59.8056 66.803 0
490 1 9.37382 13.2883 0
491 1 63.1849 9.61983 0
492 2 33.7757 72.0362 0
493 1 45.5369 74.119 0
494 1 41.933 7.54234 0
495 2 75.9273 30.133 0
496 2 55.3074 36.9272 0
497 2 48.4425 34.1176 0
498 1 23.2862 21.7718 0
499 1 27.2535 29.4935 0
500 1 32.5494 2.85496 0
501 2 54.7299 34.4713 0
502 1 0.512218 72.9604 0
503 1 7.09047 57.0747 0
504 1 7.9451 35.0114 0
505 2 45.6332 3.90045 0
506 2 31.7911 60.886 0
507 1 74.4908 26.3711 0
508 1 12.9444 19.9765 0
509 1 59.7073 70.2081 0
510 1 15.5528 20.5123 0
511 1 65.9704 34.8752 0
512 1 24.3903 19.4243 0
513 1 13.521 12.4338 0
514 1 68.9292 38.4324 0
515 2 77.223 60.1063 0
516 2 19.6998 35.0471 0
517 2 56.8111 2.53251 0
518 2 12.6875 19.2014 0
519 2 72.4705 33.6499 0
520 1 40.6442 52.2461 0
521 1 3.1381 51.8914 0
522 2 26.0595 75.9058 0
523 1 20.1395 57.3728 0
524 1 12.6954 22.715 0
525 1 41.8479 12.5566 0
526 2 63.4677 62.9083 0
527 1 9.78029 72.5309 0
528 2 69.9461 19.6144 0
529 2 50.7138 26.3407 0
530 1 27.9242 3.34896 0
531 2 2.47261 63.6932 0
532 2 69.9702 45.5193 0
533 1 8.62248 11.9349 0
534 1 46.8661 37.3202 0
535 1 24.3895 8.18383 0
536 1 74.1415 28.9763 0
537 1 30.3743 64.9362 0
538 2 1.61399 52.7256 0
539 2 51.7005 57.1446 0
540 1 2.53254 15.4778 0
541 2 35.1954 71.6748 0
542 1 56.7336 37.432 0
543 2 32.2451 71.136 0
544 2 18.425 64.1804 0
545 1 74.683 21.9558 0
546 1 8.35702 44.2791 0
547 1 72.6503 17.0937 0
548 2 61.4534 69.5427 0
549 2 3.59388 72.5871 0
550 2 56.8107 36.0134 0
551 1 66.6216 22.5534 0
552 2 11.4519 74.5134 0
553 2 58.1362 69.2631 0
554 1 1.57219 63.5821 0
555 1 12.0793 75.0489 0
556 1 1.57946 15.4312 0
557 1 33.0641 28.1727 0
558 1 24.6327 2.6166 0
559 1 37.3431 0.544031 0
560 2 50.8276 12.3769 0
561 1 1.34386 13.82 0
562 2 30.3524 61.012 0
563 2 17.5675 76.8174 0
564 1 1.48619 49.4656 0
565 2 61.53 46.2408 0
566 2 31.5991 25.5005 0
567 1 20.1024 72.6425 0
568 2 67.9917 28.6446 0
569 2 74.1856 73.8946 0
570 1 41.7784 4.03111 0
571 1 71.8387 59.0254 0
572 2 1.79585 62.0296 0
573 2 61.9192 1.95943 0
574 1 18.0865 19.2677 0
575 1 45.3854 48.5172 0
576 1 2.04725 26.7472 0
577 1 77.3556 32.1109 0
578 2 56.392 6.79595 0
579 2 37.291 72.5269 0
580 1 39.885 49.1848 0
581 1 15.8644 1.71087 0
582 2 62.6495 2.57397 0
583 2 76.1699 41.0471 0
584 2 59.9999 62.4166 0
585 1 68.8013 13.5505 0
586 1 12.3519 11.4068 0
587 2 2.79313 26.9942 0
588 1 68.7094 34.1679 0
589 2 65.8255 22.6861 0
590 1 75.3941 39.5143 0
591 1 76.3788 60.3227 0
592 1 23.3654 23.7918 0
593 1 32.0655 61.7687 0
594 1 24.6438 22.7276 0
595 1 24.6559 59.6682 0
596 2 13.0893 44.2708 0
597 1 71.0308 68.8179 0
598 1 29.8178 10.3775 0
599 1 16.4314 14.9796 0
600 1 51.069 33.9992 0
601 2 17.9611 23.8835 0
602 1 51.8254 65.4269 0
603 2 77.2031 75.4083 0
604 2 53.2081 74.5987 0
605 1 27.0777 11.1426 0
606 1 57.0641 21.3171 0
607 1 29.2745 68.2965 0
608 2 2.46726 5.96225 0
609 2 31.9664 4.64512 0
610 1 61.61 52.2635 0
611 1 29.3665 14.1881 0
612 1 40.5232 26.6683 0
613 1 3.40681 38.2089 0
614 2 45.0294 76.4685 0
615 1 27.946 76.1028 0
616 1 8.38367 27.353 0
617 1 41.4884 43.8133 0
618 2 9.46379 36.2234 0
619 2 60.8737 65.1352 0
620 2 73.3592 72.7473 0
621 2 25.6516 9.63407 0
622 1 26.9581 49.2742 0
623 1 32.1619 5.44706 0
624 2 70.9852 63.303 0
625 1 67.8571 0.249269 0
626 1 38.3516 75.2274 0
627 2 68.415 63.7337 0
628 1 23.1829 50.0991 0
629 2 60.8892 36.1292 0
630 1 29.0871 41.0909 0
631 1 65.8406 18.9489 0
632 1 29.8937 19.6012 0
633 2 69.1926 32.4042 0
634 1 75.0689 73.7166 0
635 2 64.7875 24.7583 0
636 2 38.4103 21.7545 0
637 1 2.37326 17.6425 0
638 1 42.4061 22.0142 0
639 1 41.4449 23.6027 0
640 1 9.64198 60.3482 0
641 1 14.6884 8.7991 0
642 1 40.9562 13.9348 0
643 1 55.243 71.5008 0
644 2 32.1764 34.1303 0
645 1 76.2432 13.9892 0
646 1 14.5526 34.0679 0
647 2 21.2274 71.3286 0
648 1 29.6209 62.8727 0
649 2 28.4426 71.85 0
650 2 69.3112 53.9337 0
651 1 1.69106 42.8004 0
652 1 15.8618 10.389 0
653 2 14.8307 24.0327 0
654 2 64.4426 37.6534 0
655 1 18.04 75.9083 0
656 1 30.2653 9.27107 0
657 1 36.4587 7.70047 0
658 1 48.9635 48.3322 0
659 2 58.2807 58.7932 0
660 1 10.8657 39.4243 0
661 1 12.1273 4.3911 0
662 1 29.8364 21.2962 0
663 1 25.5192 30.7209 0
664 1 19.3659 35.8209 0
665 2 32.7243 1.08248 0
666 2 1.44482 71.6132 0
667 1 33.5063 6.10916 0
668 2 52.5161 12.6035 0
669 1 4.16887 18.9961 0
670 2 49.2762 11.856 0
671 2 11.3055 36.0967 0
672 1 30.7215 57.6695 0
673 1 3.22987 12.7893 0
674 1 43.0078 53.5015 0
675 2 8.15363 46.833 0
676 2 5.04393 48.2798 0
677 1 15.5962 67.4704 0
678 1 43.6811 35.2958 0
679 1 25.991 40.5202 0
680 1 42.027 59.9611 0
681 1 11.1193 4.70639 0
682 1 26.5844 38.5111 0
683 1 39.0844 11.6633 0
684 1 17.2719 23.2818 0
685 2 65.4068 47.7896 0
686 1 44.6586 39.6342 0
687 1 66.9323 69.6702 0
688 2 76.3383 11.2562 0
689 1 56.7805 56.4156 0
690 1 20.267 55.6444 0
691 1 24.0781 46.3126 0
692 2 30.6984 10.0438 0
693 1 11.07 0.0527715 0
694 2 5.27163 49.799 0
695 1 68.8739 65.6649 0
696 2 76.8587 62.6367 0
697 1 34.6114 8.63797 0
698 1 18.5397 45.1227 0
699 1 16.4371 71.3167 0
700 1 65.1886 45.8774 0
701 1 64.7601 11.6175 0
702 1 24.8421 16.1623 0
703 2 19.5981 17.768 0
704 2 39.8446 50.1502 0
705 2 42.5439 61.9563 0
706 1 47.6743 27.0495 0
707 2 15.8815 76.5255 0
708 1 8.73919 10.0304 0
709 1 1.92707 25.058 0
710 2 13.0901 35.2445 0
711 1 46.5015 16.2766 0
712 2 64.7844 29.2415 0
713 2 10.0076 63.8829 0
714 2 34.6019 49.5576 0
715 1 2.95877 47.9893 0
716 1 3.92246 24.5854 0
717 1 49.3267 33.6888 0
718 1 22.2889 68.3266 0
719 1 47.051 18.4935 0
720 2 33.9243 64.5236 0
721 2 74.7988 55.4365 0
722 1 31.1102 27.3016 0
723 2 28.2049 29.2727 0
724 2 62.001 14.297 0
725 1 0.0351775 6.21121 0
726 1 62.4973 48.66 0
727 2 39.8077 26.0098 0
728 1 35.895 24.6955 0
729 2 71.074 10.9524 0
730 1 23.9636 27.904 0
731 2 72.7269 6.98853 0
732 1 34.0478 36.3803 0
733 1 56.7019 5.98508 0
734 2 28.6268 13.5899 0
735 1 41.1366 53.7766 0
736 1 29.9019 26.2884 0
737 2 59.4738 45.3325 0
738 1 66.6413 23.6735 0
739 1 58.9456 53.1285 0
740 1 27.8657 1.76737 0
741 2 30.1992 3.60439 0
742 1 67.0734 7.43675 0
743 1 21.4083 37.5926 0
744 2 60.677 42.1568 0
745 1 31.2099 64.3943 0
746 1 25.5232 52.2881 0
747 1 33.4854 25.8003 0
748 2 74.6091 61.1092 0
749 2 11.2656 60.2698 0
750 1 47.759 24.0166 0
751 1 44.601 54.1262 0
752 2 20.6117 37.5371 0
753 1 58.0877 20.9373 0
754 2 34.2813 13.5134 0
755 1 44.3752 15.8324 0
756 2 42.4196 70.9211 0
757 1 65.3708 37.2086 0
758 1 65.06 43.4414 0
759 1 0.500089 41.3592 0
760 1 3.80522 32.2267 0
761 1 50.9671 42.0819 0
762 1 66.352 11.4912 0
763 2 43.3715 63.5314 0
764 1 18.8708 62.3599 0
765 2 16.9639 4.21749 0
766 1 72.0195 53.0371 0
767 1 57.06 60.2661 0
768 1 64.2598 59.1137 0
769 1 38.9634 49.8467 0
770 2 11.8711 5.14817 0
771 1 38.0826 41.9624 0
772 1 37.2686 15.9507 0
773 1 0.189023 0.0584598 0
774 2 52.6873 1.3195 0
775 1 28.645 16.0255 0
776 2 40.14 74.3985 0
777 1 50.2922 4.85266 0
778 2 8.41455 34.2813 0
779 1 30.9595 13.0238 0
780 1 45.5692 1.14236 0
781 1 72.4505 64.1192 0
782 1 0.494734 54.8282 0
783 1 39.0936 3.75631 0
784 1 42.0824 47.3474 0
785 2 8.24488 61.4185 0
786 1 68.4985 4.78382 0
787 1 76.9163 38.6721 0
788 1 13.5875 48.0907 0
789 1 44.3578 63.8621 0
790 1 56.3111 71.6499 0
791 1 0.00399268 7.82788 0
792 1 76.3604 9.04431 0
793 1 20.7712 25.7645 0
794 2 15.7482 71.9906 0
795 2 28.4458 31.9745 0
796 2 2.28744 25.9414 0
797 1 2.20631 23.9157 0
798 1 56.8386 45.4341 0
799 1 66.6088 32.3471 0
800 1 49.5761 72.8875 0
801 2 71.6939 33.1579 0
802 2 0.11028 6.98815 0
803 2 59.0327 33.1194 0
804 2 58.4546 40.6382 0
805 1 51.1108 48.9502 0
806 1 35.4318 2.10793 0
807 2 56.3441 46.228 0
808 1 1.23896 12.8113 0
809 2 67.9604 67.3777 0
810 1 62.623 54.0806 0
811 1 46.8142 33.5129 0
812 2 62.9154 73.6797 0
813 2 32.8695 54.6762 0
814 1 30.7962 1.22227 0
815 2 59.9311 69.3125 0
816 1 58.4101 4.57514 0
817 1 65.6166 71.865 0
818 2 69.1291 40.6534 0
819 2 52.6469 37.0355 0
820 1 39.292 29.7279 0
821 1 70.2435 52.1015 0
822 1 64.4854 73.2845 0
823 1 72.6032 7.93255 0
824 2 14.3481 54.5214 0
825 1 45.3621 4.6482 0
826 1 33.7697 59.1342 0
827 1 69.9846 28.033 0
828 1 7.67147 70.5605 0
829 1 51.0525 45.9404 0
830 2 49.1981 6.70478 0
831 2 40.2042 42.2541 0
832 1 34.0454 35.3359 0
833 1 67.2207 37.5302 0
834 2 27.2992 71.1032 0
835 1 64.477 53.9896 0
836 1 49.7815 26.3255 0
837 1 35.7003 75.8644 0
838 1 73.0976 11.4599 0
839 1 23.0239 26.4662 0
840 2 35.2117 57.9053 0
841 1 31.1282 7.78279 0
842 2 53.4472 71.8118 0
843 1 52.075 0.636741 0
844 1 10.9209 43.4801 0
845 2 4.28838 57.3511 0
846 1 33.3026 65.156 0
847 1 65.5917 28.9032 0
848 2 47.542 62.1795 0
849 1 29.2637 9.4869 0
850 1 44.5068 27.0512 0
851 1 10.7258 54.1091 0
852 1 45.4994 17.6008 0
853 1 43.2675 19.1415 0
854 1 75.279 0.0316455 0
855 1 53.454 1.71432 0
856 2 31.4809 11.2826 0
857 1 66.8018 42.0274 0
858 2 50.8654 6.75215 0
859 1 67.0703 65.7668 0
860 2 11.658 50.327 0
861 2 29.7358 20.4684 0
862 2 67.3929 31.9107 0
863 1 40.6279 41.4751 0
864 1 54.4651 6.57799 0
865 2 57.2646 11.8935 0
866 1 59.9431 74.159 0
867 2 27.2186 53.2844 0
868 1 36.5306 12.2822 0
869 1 38.9845 10.4539 0
870 1 0.282329 28.4146 0
871 1 9.98885 7.73724 0
872 1 68.5893 29.603 0
873 1 42.9363 22.9171 0
874 1 54.186 5.64776 0
875 1 58.5467 13.1461 0
876 2 23.7555 67.0847 0
877 1 67.8625 63.027 0
878 2 33.2474 18.7289 0
879 1 41.9748 32.0213 0
880 2 53.7205 66.332 0
881 2 65.0486 72.593 0
882 2 19.1947 69.4591 0
883 1 71.2421 3.30342 0
884 1 66.8171 8.53205 0
885 1 17.406 19.9734 0
886 1 62.9167 1.75329 0
887 2 57.2452 9.93704 0
888 1 38.6704 76.9409 0
889 2 32.2811 24.7659 0
890 2 36.9575 40.7848 0
891 1 12.3647 20.8549 0
892 1 40.7104 70.1937 0
893 1 32.0841 64.8829 0
894 1 29.8138 74.4896 0
895 2 32.0875 30.0249 0
896 1 39.0093 54.5963 0
897 2 36.5646 9.55769 0
898 1 52.4721 7.14217 0
899 1 37.7644 6.85542 0
900 2 51.9192 55.2037 0
901 1 15.3421 27.4917 0
902 1 19.3312 6.22524 0
903 1 17.3583 52.9211 0
904 2 33.7544 55.8951 0
905 1 64.5266 5.40037 0
906 1 58.7729 30.3962 0
907 1 10.6717 8.4464 0
908 1 22.7599 10.1329 0
909 1 4.24791 33.259 0
910 2 2.34596 19.3879 0
911 2 69.9271 9.79254 0
912 2 2.26796 13.6347 0
913 2 59.4021 57.8995 0
914 1 26.504 10.2903 0
915 2 72.4941 66.7375 0
916 1 4.66447 17.7905 0
917 2 8.24768 51.6187 0
918 2 21.8258 14.3149 0
919 1 58.5852 70.3325 0
920 1 22.6289 54.3249 0
921 1 72.2579 76.797 0
922 2 3.21252 76.5741 0
923 2 5.39816 56.0711 0
924 1 33.9457 44.8801 0
925 1 42.7329 50.7915 0
926 2 35.868 10.3462 0
927 1 38.7465 68.2182 0
928 1 1.92962 1.75312 0
929 2 12.8957 75.0419 0
930 2 16.2691 6.61984 0
931 1 61.8809 47.0674 0
932 1 55.5157 34.9699 0
933 1 76.3625 44.7737 0
934 1 65.8603 70.0494 0
935 1 18.8724 3.91591 0
936 2 70.5232 48.8463 0
937 1 29.0035 70.548 0
938 1 59.9496 71.2608 0
939 2 35.6691 4.00258 0
940 1 43.3654 25.6537 0
941 1 8.02891 29.957 0
942 1 23.4321 62.6818 0
943 2 26.9805 37.6362 0
944 2 21.3269 2.59583 0
945 1 28.217 41.7784 0
946 1 47.256 50.1469 0
947 2 75.7851 59.6544 0
948 1 15.431 46.7795 0
949 1 51.7225 19.9134 0
950 2 33.7921 19.8377 0
951 1 69.6092 6.32023 0
952 2 19.3223 23.0438 0
953 2 35.4657 7.47679 0
954 2 64.6746 44.5366 0
955 1 25.5822 41.5434 0
956 2 8.96608 23.519 0
957 1 50.8036 20.9984 0
958 2 46.219 52.9498 0
959 2 15.4401 4.23481 0
960 2 67.8487 5.54864 0
961 1 42.1024 34.4079 0
962 1 48.001 31.1509 0
963 1 75.7663 6.61253 0
964 2 61.3372 31.7594 0
965 2 64.6209 13.3367 0
966 1 6.04293 22.6914 0
967 1 22.0413 63.358 0
968 1 12.0241 67.3891 0
969 1 12.7269 6.81998 0
970 2 24.6512 39.9587 0
971 1 45.7394 24.8963 0
972 1 22.1297 48.2081 0
973 1 51.7455 51.2699 0
974 2 5.97125 6.64496 0
975 2 31.5223 66.5907 0
976 2 49.8083 9.22898 0
977 1 34.8146 4.20747 0
978 2 41.7343 60.8057 0
979 2 36.2699 72.9297 0
980 1 46.5163 46.4838 0
981 1 25.4397 51.0834 0
982 1 18.4654 32.2648 0
983 1 24.514 35.0018 0
984 1 75.3388 33.5905 0
985 1 33.0129 29.9108 0
986 1 7.77925 18.1056 0
987 2 20.2319 46.0674 0
988 2 75.2454 53.0173 0
989 2 12.664 42.5777 0
990 2 8.99105 6.26717 0
991 2 72.9305 47.9576 0
992 1 76.1222 28.535 0
993 2 64.0936 69.5339 0
994 2 38.9743 30.5171 0
995 1 53.5527 22.6075 0
996 2 26.2458 21.6073 0
997 2 65.0165 0.503965 0
998 2 32.2866 58.4102 0
999 2 7.95906 53.7708 0
1000 2 50.9324 22.7857 0
1001 1 52.6642 55.5812 0
1002 1 76.0301 30.9694 0
1003 1 74.5157 36.1974 0
1004 1 40.3856 25.4233 0
1005 2 17.4005 25.6834 0
1006 2 24.1605 15.5129 0
1007 1 48.3998 57.8183 0
1008 1 57.9442 48.7477 0
1009 1 29.3358 13.1488 0
1010 1 63.9042 50.8674 0
1011 2 74.6087 29.6391 0
1012 2 8.00956 57.228 0
1013 2 22.0448 9.70157 0
1014 1 20.2015 5.46143 0
1015 1 28.3568 27.6766 0
1016 1 52.0318 32.5875 0
1017 2 75.2818 40.329 0
1018 1 73.3944 71.89 0
1019 1 47.4214 68.459 0
1020 2 3.68327 33.9143 0
1021 2 20.8627 22.7039 0
1022 1 3.29455 6.04479 0
1023 1 20.0112 7.16466 0
1024 1 56.4897 70.5438 0
1025 1 56.4199 25.8479 0
1026 1 62.4549 5.56106 0
1027 1 67.8069 69.0879 0
1028 1 34.5421 68.162 0
1029 1 55.9385 5.29416 0
1030 2 23.1462 10.8981 0
1031 2 40.0541 75.9643 0
1032 1 40.2327 39.9241 0
1033 1 36.072 41.1042 0
1034 1 60.9035 25.7911 0
1035 1 13.338 72.9734 0
1036 2 64.2795 43.726 0
1037 1 73.5627 39.8804 0
1038 1 17.1429 20.9825 0
1039 1 18.8976 22.2676 0
1040 2 34.7013 9.49227 0
1041 1 24.1931 61.432 0
1042 2 35.615 28.0899 0
1043 2 28.708 76.3414 0
1044 1 54.0887 0.146661 0
1045 1 39.4256 25.0109 0
1046 1 21.2473 67.9923 0
1047 2 36.282 15.4555 0
1048 1 47.6447 72.2445 0
1049 1 67.5131 52.2014 0
1050 2 6.55209 36.4409 0
1051 1 31.534 51.6225 0
1052 1 68.5267 56.3198 0
1053 2 22.6294 55.5848 0
1054 1 9.79266 39.3541 0
1055 2 3.13285 4.24163 0
1056 2 74.0355 71.3176 0
1057 1 8.28369 45.2416 0
1058 1 56.3811 31.842 0
1059 1 10.2519 10.6296 0
1060 2 60.4728 60.6067 0
1061 1 35.6059 61.4405 0
1062 2 58.8041 41.7443 0
1063 1 5.90465 61.7228 0
1064 1 52.2068 48.3637 0
1065 2 9.25289 27.3552 0
1066 1 63.9477 76.5415 0
1067 1 4.45712 15.8441 0
1068 2 39.9526 4.4615 0
1069 1 39.8945 62.6096 0
1070 2 24.8568 21.8345 0
1071 2 59.0505 68.5345 0
1072 2 7.25641 18.7706 0
1073 2 60.5211 70.6076 0
1074 2 42.796 39.3102 0
1075 1 69.0213 58.7134 0
1076 1 32.1744 68.4982 0
1077 1 75.2746 61.639 0
1078 2 23.5492 4.05243 0
1079 2 31.8214 13.3404 0
1080 2 50.2939 59.8558 0
1081 2 49.7186 46.8285 0
1082 2 49.1572 67.727 0
1083 2 24.4724 9.01674 0
1084 1 16.3225 57.6437 0
1085 1 23.0987 67.6164 0
1086 1 72.4012 39.7765 0
1087 1 45.3232 18.611 0
1088 1 75.9053 13.0205 0
1089 2 50.8145 40.2371 0
1090 1 4.42339 38.237 0
1091 2 21.2896 43.7609 0
1092 1 10.3078 44.7986 0
1093 1 12.2498 56.9634 0
1094 2 52.9842 46.2313 0
1095 1 27.1075 46.1687 0
1096 2 23.5584 5.81167 0
1097 1 22.8653 16.6738 0
1098 1 22.2992 11.2878 0
1099 1 67.5103 56.0338 0
1100 1 27.6947 74.9109 0
1101 1 30.2647 13.7832 0
1102 1 53.3826 8.99961 0
1103 1 60.4153 16.8808 0
1104 1 37.1298 62.5125 0
1105 1 22.6706 40.3129 0
1106 1 50.9186 61.5768 0
1107 2 53.8231 0.965655 0
1108 1 68.2467 27.8043 0
1109 1 38.1353 52.5725 0
1110 2 64.1849 53.0926 0
1111 1 72.5615 52.0344 0
1112 1 62.6067 3.43951 0
1113 2 20.2165 19.2034 0
1114 2 47.992 24.8453 0
1115 2 66.6317 66.5354 0
1116 1 65.8299 24.4565 0
1117 1 37.0558 52.5872 0
1118 1 47.3417 20.4255 0
1119 2 24.4458 10.6947 0
1120 1 49.0813 29.3969 0
1121 2 18.4112 9.42389 0
1122 1 53.2783 21.6195 0
1123 2 50.2103 33.6035 0
1124 1 66.442 9.48173 0
1125 2 73.9319 56.7728 0
1126 2 60.499 9.47771 0
1127 1 49.4346 41.4782 0
1128 1 36.1404 32.2587 0
1129 1 69.9068 14.1683 0
1130 1 8.92097 75.0572 0
1131 1 33.6084 66.1413 0
1132 2 19.19 36.5973 0
1133 2 58.083 49.5476 0
1134 2 0.517595 68.362 0
1135 1 73.7919 37.3183 0
1136 2 62.3554 58.9144 0
1137 1 69.7537 16.888 0
1138 1 65.0688 10.3704 0
1139 2 6.97116 73.1518 0
1140 2 66.1824 6.05861 0
1141 1 75.1017 49.4408 0
1142 1 7.72301 73.4321 0
1143 1 8.92685 42.542 0
1144 2 29.7831 67.6538 0
1145 1 25.7351 24.0386 0
1146 1 38.5689 32.4099 0
1147 1 35.383 16.7694 0
1148 1 76.6704 1.97862 0
1149 1 59.0099 27.4798 0
1150 2 56.4381 23.2328 0
1151 1 21.9113 52.1404 0
1152 1 47.2208 36.3737 0
1153 1 20.2638 67.2372 0
1154 1 3.67202 50.9863 0
1155 2 9.22255 73.3343 0
1156 1 20.6827 33.4699 0
1157 1 13.6676 53.0223 0
1158 2 71.2415 67.7452 0
1159 2 67.7227 52.9869 0
1160 1 49.6757 17.5229 0
1161 2 53.5254 40.4291 0
1162 1 6.61383 70.8727 0
1163 2 5.00183 43.08 0
1164 1 26.9111 6.3961 0
1165 1 59.4182 8.57963 0
1166 2 75.492 1.82673 0
1167 1 8.77883 16.6986 0
1168 1 74.1044 49.7248 0
1169 1 36.9983 48.1044 0
1170 2 12.1786 64.5241 0
1171 1 52.7025 17.0723 0
1172 1 59.39 11.0814 0
1173 1 33.5221 39.4966 0
1174 1 35.8804 38.7591 0
1175 2 69.1957 70.3329 0
1176 1 51.2528 47.7806 0
1177 1 50.1983 57.8166 0
1178 2 23.3487 39.7172 0
1179 1 67.7082 38.4461 0
1180 1 67.5634 9.24531 0
1181 1 11.3847 59.3426 0
1182 1 52.4139 75.0696 0
1183 2 72.3508 65.2045 0
1184 2 73.86 75.8643 0
1185 1 35.6803 69.9007 0
1186 1 28.2384 39.1506 0
1187 1 3.0438 9.90962 0
1188 2 29.0366 19.5022 0
1189 1 58.3842 6.69212 0
1190 1 39.6935 47.2618 0
1191 2 70.2765 14.9988 0
1192 1 28.1513 21.1853 0
1193 1 66.2844 65.0524 0
1194 2 39.6019 67.7044 0
1195 1 37.2488 39.9855 0
1196 1 45.1201 43.8508 0
1197 1 41.9124 53.1196 0
1198 1 59.1514 58.8105 0
1199 2 27.7983 2.55046 0
1200 1 73.816 20.3785 0
1201 1 61.1378 14.2241 0
1202 1 57.5484 47.7233 0
1203 2 69.0328 60.5146 0
1204 1 2.20025 54.51 0
1205 1 64.8535 19.5771 0
1206 1 3.63406 15.259 0
1207 1 32.9106 32.9571 0
1208 1 71.7088 0.834851 0
1209 2 35.825 1.23011 0
1210 1 0.0357979 2.52836 0
1211 2 54.8949 11.1687 0
1212 1 59.6065 5.83651 0
1213 1 62.7376 40.4546 0
1214 1 68.5151 69.8674 0
1215 1 7.75341 16.4523 0
1216 1 16.8072 17.1293 0
1217 2 28.2368 24.9761 0
1218 2 41.2511 59.3369 0
1219 1 18.5105 4.98855 0
1220 1 58.716 61.0301 0
1221 1 9.13565 21.7605 0
1222 2 10.8932 32.171 0
1223 1 10.1464 61.8401 0
1224 1 25.9953 36.2504 0
1225 1 32.9924 1.91199 0
1226 2 33.6424 62.9032 0
1227 1 31.9078 56.7844 0
1228 1 14.2996 35.1543 0
1229 2 45.335 2.12876 0
1230 1 64.1802 65.7081 0
1231 2 55.9554 61.9153 0
1232 1 73.837 66.4766 0
1233 1 56.772 12.5678 0
1234 1 55.6037 62.827 0
1235 1 73.1242 5.384 0
1236 1 64.0607 38.5552 0
1237 1 62.1836 12.1792 0
1238 1 69.4233 47.347 0
1239 1 46.196 2.18203 0
1240 1 17.0136 72.2016 0