ITEM: TIMESTEP
0
ITEM: NUMBER OF ATOMS
7200
ITEM: BOX BOUNDS xy xz yz pp pp pp
0.0000000000000000e+00 7.7459666924100006e+01 0.0000000000000000e+00
0.0000000000000000e+00 7.7459666924100006e+01 0.0000000000000000e+00
-1.2909944490000000e-01 1.2909944490000000e-01 0.0000000000000000e+00
ITEM: ATOMS id type x y z
1 1 12.12 20.1171 0
2 1 14.9629 64.0307 0
3 1 75.1468 71.1332 0
4 1 20.3892 8.03327 0
5 1 34.5675 56.04 0
6 1 56.6898 28.5514 0
7 2 5.42521 3.41499 0
8 2 64.6987 46.4495 0
9 1 42.0507 56.0901 0
10 2 19.0585 14.6576 0
11 2 25.3597 53.2112 0
12 1 55.133 11.6151 0
13 2 23.1837 5.95768 0
14 1 46.6301 70.6061 0
15 1 39.404 31.2216 0
16 1 18.2403 14.9547 0
17 1 31.383 40.0291 0
18 1 33.7716 5.78272 0
19 1 26.9981 57.7884 0
20 2 44.8844 3.67911 0
21 1 12.3091 65.989 0
22 1 54.3448 10.8981 0
23 1 75.6597 45.7844 0
24 1 55.9327 66.3459 0
25 1 6.6386 70.9397 0
26 1 21.2021 67.6531 0
27 2 28.9087 63.8369 0
28 1 51.3915 74.2432 0
29 2 22.5264 47.9108 0
30 2 25.3773 32.114 0
31 1 15.2667 53.4045 0
32 1 50.9394 37.9184 0
33 1 60.6434 48.485 0
34 2 45.3744 9.63213 0
35 1 75.1636 63.0889 0
36 1 30.5929 60.0163 0
37 1 22.3056 61.4599 0
38 1 45.8428 19.7594 0
39 1 22.3765 5.62363 0
40 2 24.8625 59.1909 0
41 2 18.5772 64.7526 0
42 1 21.0001 1.18891 0
43 1 19.0054 33.5293 0
44 1 34.3618 62.6795 0
45 1 3.37587 34.5565 0
46 1 68.1872 7.57654 0
47 1 73.4436 59.0131 0
48 1 44.1955 68.2607 0
49 2 77.2857 4.24015 0
50 1 31.1055 66.6921 0
51 1 1.32944 10.0505 0
52 2 33.0808 24.1568 0
53 1 53.6635 18.6886 0
54 1 49.6383 30.2331 0
55 1 9.67361 1.05955 0
56 1 45.9619 26.0366 0
57 1 67.478 43.0817 0
58 1 69.7397 69.1293 0
59 1 34.3015 2.10658 0
60 1 28.6672 3.37507 0
61 1 40.5488 75.9909 0
62 1 52.1886 45.0215 0
63 1 57.1904 9.99495 0
64 1 50.583 45.6676 0
65 1 66.9172 73.6723 0
66 2 56.0086 11.4899 0
67 2 40.6533 35.8575 0
68 2 0.897894 29.1909 0
69 1 61.9331 45.4032 0
70 1 8.42049 35.5049 0
71 2 7.55678 42.2975 0
72 1 76.8148 3.45947 0
73 1 6.25049 64.2939 0
74 2 41.5695 22.7442 0
75 1 75.4904 53.3208 0
76 1 19.6767 46.8958 0
77 1 25.0567 74.5472 0
78 1 3.6113 15.6436 0
79 1 12.6036 73.3749 0
80 1 43.4604 16.5736 0
81 1 55.0213 62.1877 0
82 2 44.3284 16.6273 0
83 1 5.77985 33.0084 0
84 1 33.1016 45.7752 0
85 1 34.501 20.7407 0
86 2 34.6775 64.7395 0
87 1 71.486 34.6975 0
88 1 18.4879 54.7213 0
89 1 27.6629 13.0745 0
90 1 37.4084 37.9333 0
91 2 45.9266 41.0768 0
92 2 41.192 56.0853 0
93 1 27.7588 16.8642 0
94 1 33.4187 55.7803 0
95 2 39.0388 56.6987 0
96 1 65.3951 1.27728 0
97 1 44.1375 49.0225 0
98 2 2.85618 60.0749 0
99 1 61.7646 48.1853 0
100 2 32.4186 30.798 0
101 1 47.6859 54.42 0
102 1 56.0078 21.5904 0
103 1 56.6826 70.4201 0
104 1 2.72713 60.9547 0
105 2 40.094 3.03683 0
106 2 30.4195 34.7697 0
107 1 13.1355 31.3385 0
108 1 0.796286 0.876693 0
109 1 35.693 41.5734 0
110 2 65.2103 25.5428 0
111 1 65.9823 12.0046 0
112 1 34.3236 72.8258 0
113 2 0.229007 60.3058 0
114 2 74.6429 29.3932 0
115 2 30.318 12.8055 0
116 2 74.6565 53.6024 0
117 1 16.2296 45.9238 0
118 2 46.8178 26.4693 0
119 1 62.7728 0.0909227 0
120 2 6.02662 49.9364 0
121 1 6.28519 3.64389 0
122 1 19.9843 33.0848 0
123 2 5.39172 17.8042 0
124 1 46.3337 57.2094 0
125 1 31.6219 27.2546 0
126 1 58.0296 52.2229 0
127 1 4.46539 59.0138 0
128 1 14.3917 23.4237 0
129 1 16.5219 52.1443 0
130 1 7.24827 2.18316 0
131 1 59.1061 24.8812 0
132 2 31.1112 41.898 0
133 2 52.743 6.96588 0
134 1 65.7325 50.9593 0
135 1 31.6245 30.3182 0
136 2 55.1839 46.4059 0
137 1 61.6986 56.6272 0
138 2 70.5044 47.9426 0
139 1 68.3708 27.2251 0
140 1 3.50389 21.883 0
141 2 48.1803 63.5292 0
142 1 6.54679 22.6951 0
143 2 40.6682 70.124 0
144 2 47.4309 75.277 0
145 2 18.2485 52.9879 0
146 1 54.941 4.10314 0
147 1 9.39523 38.9647 0
148 1 46.4036 53.3277 0
149 2 67.9382 49.2081 0
150 1 32.7709 56.6319 0
151 2 29.4694 13.8499 0
152 1 49.0075 63.1917 0
153 2 17.3462 46.3567 0
154 2 31.5112 72.2196 0
155 1 70.566 48.9405 0
156 1 43.5638 10.2493 0
157 1 49.2945 71.153 0
158 1 60.1591 69.1819 0
159 2 10.5089 26.0602 0
160 1 38.105 17.3888 0
161 1 7.18038 63.6714 0
162 2 72.6749 24.0109 0
163 1 30.5746 27.0763 0
164 1 60.2 29.3987 0
165 1 75.7209 27.7449 0
166 1 2.00723 44.7009 0
167 1 39.3284 0.820639 0
168 1 38.5514 72.8322 0
169 1 56.7354 30.8204 0
170 1 57.4743 0.974436 0
171 2 36.8848 61.0996 0
172 2 33.7 53.7833 0
173 2 43.8144 24.3061 0
174 2 27.4293 55.9505 0
175 2 30.9326 26.2806 0
176 1 46.2772 16.3005 0
177 1 19.7166 58.6602 0
178 1 61.7968 61.3364 0
179 1 64.6469 24.8762 0
180 2 33.2765 39.6106 0
181 1 45.1965 27.5763 0
182 1 61.8211 58.6387 0
183 2 12.105 37.3552 0
184 1 5.16342 67.4617 0
185 2 67.1607 29.4761 0
186 1 59.0142 35.0645 0
187 1 39.5171 46.3623 0
188 1 57.299 47.7532 0
189 2 63.7595 53.001 0
190 1 23.1644 4.05625 0
191 1 71.8077 8.13483 0
192 1 65.5498 10.2997 0
193 2 10.9014 41.5936 0
194 2 68.742 69.0576 0
195 1 11.1254 3.32596 0
196 2 49.5456 54.8994 0
197 2 20.1948 9.98398 0
198 1 13.459 61.2318 0
199 2 75.6613 66.1962 0
200 1 59.9103 27.6736 0
201 2 34.6756 1.30157 0
202 2 74.5638 55.204 0
203 1 52.3405 65.6816 0
204 1 29.6324 3.83703 0
205 1 56.0899 26.0539 0
206 2 35.6824 36.9876 0
207 2 13.943 9.48321 0
208 1 33.6968 13.9328 0
209 1 12.2187 11.6299 0
210 2 5.32411 20.505 0
211 1 17.2605 8.10366 0
212 2 24.788 6.26015 0
213 2 55.9686 27.9702 0
214 1 71.0164 57.7878 0
215 2 67.0135 22.416 0
216 1 20.6747 73.5738 0
217 1 59.4972 34.156 0
218 2 54.7414 58.4498 0
219 2 68.044 42.3535 0
220 2 42.9248 64.0036 0
221 1 18.9931 45.326 0
222 1 44.985 12.4388 0
223 2 39.1245 67.8476 0
224 2 27.8179 68.736 0
225 1 32.3603 23.6877 0
226 2 66.3872 57.162 0
227 2 6.06543 16.4208 0
228 1 34.5758 9.27125 0
229 1 70.9837 26.7968 0
230 1 32.2114 74.4933 0
231 1 10.7285 34.331 0
232 1 42.0705 12.8337 0
233 1 34.8569 7.61897 0
234 1 76.1415 8.34512 0
235 1 60.8092 59.0817 0
236 2 44.8474 70.3778 0
237 1 77.2016 62.1514 0
238 2 9.22376 21.5423 0
239 1 58.5708 2.821 0
240 2 61.5912 46.1997 0
241 1 47.4215 66.6498 0
242 1 18.5606 30.6164 0
243 1 7.34034 56.3826 0
244 1 61.1453 64.3409 0
245 1 11.0362 30.8437 0
246 1 2.04668 35.5979 0
247 1 65.5947 49.896 0
248 1 12.3245 0.837628 0
249 2 50.3473 41.2274 0
250 1 29.0482 9.39886 0
251 2 57.7845 50.2567 0
252 2 65.8951 23.2905 0
253 1 19.8332 17.589 0
254 1 54.3665 25.0094 0
255 1 65.5068 42.8966 0
256 1 31.3422 8.52945 0
257 1 22.1753 57.8345 0
258 1 26.1445 38.771 0
259 1 55.5983 56.7563 0
260 2 44.0066 53.805 0
261 2 26.3871 62.6654 0
262 1 24.4015 33.7631 0
263 2 12.6036 34.6955 0
264 2 71.4021 59.9587 0
265 1 77.0707 46.7244 0
266 1 38.1349 44.6955 0
267 2 61.6069 24.5782 0
268 2 56.5757 45.8712 0
269 1 48.1287 21.0387 0
270 2 9.15476 47.1525 0
271 2 22.5727 33.5774 0
272 2 20.4252 14.3197 0
273 1 15.0401 65.0941 0
274 1 32.3744 50.0095 0
275 1 8.62379 49.0351 0
276 1 75.322 10.2035 0
277 2 15.6021 71.3657 0
278 1 7.59885 17.4692 0
279 1 4.57035 44.3609 0
280 1 20.3888 35.829 0
281 1 30.5957 38.537 0
282 2 75.915 26.5064 0
283 1 76.4708 55.733 0
284 2 54.0982 38.3175 0
285 1 71.0533 52.7615 0
286 1 11.4219 63.4697 0
287 1 19.0664 76.8685 0
288 2 75.751 3.8962 0
289 2 21.3486 39.1796 0
290 2 69.1768 76.5158 0
291 1 35.1522 22.551 0
292 1 27.7426 58.5188 0
293 1 47.4108 19.0374 0
294 1 40.3438 2.2049 0
295 1 69.9942 3.31422 0
296 2 74.2122 8.50023 0
297 1 40.3024 59.8116 0
298 1 72.4796 35.1658 0
299 2 49.2253 36.5665 0
300 1 39.1898 43.78 0
301 1 73.4835 19.7409 0
302 1 50.8404 35.1753 0
303 1 20.5211 32.1623 0
304 1 60.5462 72.2923 0
305 2 59.1913 75.9467 0
306 1 62.9924 52.5341 0
307 2 73.421 38.8102 0
308 1 41.6048 5.21058 0
309 2 24.9128 16.8843 0
310 2 13.3221 13.0572 0
311 1 29.3634 49.5694 0
312 1 67.4015 61.6445 0
313 1 74.728 76.0906 0
314 1 40.5216 45.8914 0
315 2 56.3754 31.7355 0
316 2 39.5725 63.3946 0
317 1 50.9234 20.5714 0
318 2 7.06351 31.3108 0
319 1 30.893 25.3735 0
320 1 36.1776 61.6796 0
321 1 58.6197 68.3397 0
322 2 73.9882 11.8478 0
323 2 25.0824 63.6381 0
324 1 64.4298 41.5682 0
325 1 41.3076 6.29366 0
326 1 9.74572 59.0263 0
327 1 48.6887 54.7401 0
328 1 0.800282 37.0499 0
329 1 41.657 42.6171 0
330 2 51.7042 34.862 0
331 2 70.1441 4.18952 0
332 1 59.4254 28.6407 0
333 1 36.9562 12.2028 0
334 1 17.0393 34.7897 0
335 1 20.6209 38.7208 0
336 2 72.2567 74.3493 0
337 1 34.6025 33.6817 0
338 2 17.0498 1.59658 0
339 1 42.5892 68.4367 0
340 1 18.9856 57.9028 0
341 2 74.0687 44.2192 0
342 1 67.1069 5.86619 0
343 2 56.4332 49.8729 0
344 2 22.8231 66.0258 0
345 1 7.94819 27.7993 0
346 1 17.4679 71.8677 0
347 1 35.3977 56.6532 0
348 1 56.582 18.8877 0
349 1 33.6632 20.0923 0
350 1 37.1376 31.1133 0
351 1 17.9947 53.8074 0
352 1 47.7848 30.6829 0
353 1 75.371 25.8056 0
354 2 22.5819 26.2565 0
355 2 43.3883 18.2344 0
356 2 11.8158 2.78657 0
357 1 68.4319 67.4754 0
358 1 24.2052 3.76789 0
359 1 22.3143 14.5642 0
360 2 45.1684 31.2646 0
361 2 48.1516 67.2537 0
362 1 27.0818 74.6128 0
363 2 38.0695 73.5759 0
364 1 13.2002 66.5731 0
365 2 9.02184 57.2628 0
366 1 24.9114 50.626 0
367 2 19.7738 23.3985 0
368 2 51.3495 54.9692 0
369 2 65.2122 70.5585 0
370 1 3.40261 28.3353 0
371 1 46.0756 73.4971 0
372 2 40.4202 9.9835 0
373 1 10.4685 31.7786 0
374 2 66.6307 41.3744 0
375 1 52.241 52.7389 0
376 2 75.4754 43.1873 0
377 2 58.1384 38.1069 0
378 1 20.4927 63.7802 0
379 1 13.8803 20.2574 0
380 1 9.8516 62.4954 0
381 1 26.652 23.3013 0
382 1 30.6689 23.6072 0
383 1 9.60458 11.7387 0
384 1 34.9913 51.6644 0
385 1 28.4876 77.1218 0
386 1 54.7679 40.4009 0
387 1 59.6178 76.7113 0
388 2 55.9638 57.7924 0
389 1 24.587 56.6683 0
390 1 29.4266 12.9469 0
391 2 59.9094 26.7799 0
392 2 30.0773 10.1754 0
393 2 38.8056 64.9018 0
394 1 10.2134 73.7741 0
395 1 53.1814 21.9179 0
396 1 13.8305 70.488 0
397 1 46.8165 17.2087 0
398 1 45.5912 70.7963 0
399 1 70.0378 18.0752 0
400 1 59.8683 74.1635 0
401 1 44.5914 11.4654 0
402 2 56.5733 17.0295 0
403 1 38.3239 51.6642 0
404 1 69.2771 70.8466 0
405 2 73.8609 76.2596 0
406 1 34.1256 19.1256 0
407 2 45.6818 21.7383 0
408 1 63.4932 30.4868 0
409 1 18.7028 61.3052 0
410 2 67.4652 16.7368 0
411 2 66.5445 36.6597 0
412 1 58.8357 38.6312 0
413 1 7.08715 36.6311 0
414 1 71.3579 48.1958 0
415 1 7.11488 41.5607 0
416 2 73.7085 62.3182 0
417 2 75.0872 12.7504 0
418 1 54.2903 30.0118 0
419 2 56.6028 47.2115 0
420 2 24.8231 55.8496 0
421 1 60.3028 19.4289 0
422 1 1.95894 71.4059 0
423 1 4.21948 12.1168 0
424 1 60.8083 26.9295 0
425 1 58.8292 50.5284 0
426 1 56.1661 73.7439 0
427 2 39.5416 14.8591 0
428 1 51.438 50.2113 0
429 1 59.1442 71.04 0
430 1 36.5821 37.0809 0
431 1 0.123799 29.5877 0
432 1 63.2652 49.0754 0
433 1 29.2232 69.4785 0
434 1 1.85154 42.8275 0
435 1 64.0533 34.2347 0
436 2 67.9622 39.0649 0
437 2 43.752 59.4073 0
438 1 38.9704 61.711 0
439 2 41.2299 12.5639 0
440 1 43.3399 43.613 0
441 2 66.5835 15.2617 0
442 1 9.63828 37.9259 0
443 1 54.5722 16.8418 0
444 1 16.75 75.3772 0
445 2 69.4043 67.5039 0
446 1 61.5888 42.1956 0
447 1 27.0383 70.9462 0
448 1 46.9048 37.5975 0
449 1 37.2322 73.282 0
450 2 48.044 59.6889 0
451 2 6.52581 61.8128 0
452 1 66.669 11.1619 0
453 1 28.6924 76.0647 0
454 2 62.6654 29.9871 0
455 2 26.5901 68.0223 0
456 1 11.5049 44.5542 0
457 2 18.5637 1.90936 0
458 1 38.0672 77.1312 0
459 2 15.6685 56.767 0
460 1 5.44287 4.29879 0
461 2 27.2052 27.0111 0
462 1 45.7927 24.3007 0
463 1 75.8691 69.6602 0
464 1 9.1381 47.9964 0
465 2 40.708 45.045 0
466 1 21.7001 12.9051 0
467 2 11.5726 1.31749 0
468 1 19.3614 36.3433 0
469 1 1.90254 2.19581 0
470 1 61.8282 10.5181 0
471 2 74.0861 40.8388 0
472 1 25.5756 43.0591 0
473 1 61.6665 65.8451 0
474 1 33.4855 54.6527 0
475 1 22.4834 59.7801 0
476 2 38.9384 32.005 0
477 1 60.616 11.6938 0
478 2 33.1438 74.491 0
479 1 33.2679 22.2372 0
480 1 19.9103 25.6313 0
481 1 7.18977 18.6926 0
482 1 10.9452 25.287 0
483 2 1.14905 1.73847 0
484 1 14.432 38.2297 0
485 1 21.3378 57.1705 0
486 1 7.1208 4.69761 0
487 2 70.9502 10.4235 0
488 1 59.0054 5.45128 0
489 1 52.3707 15.2172 0
490 1 35.4162 31.0139 0
491 1 30.6162 42.6369 0
492 2 61.2153 9.89342 0
493 1 73.3735 8.98525 0
494 1 67.5438 32.075 0
495 2 22.5192 49.2058 0
496 2 52.732 42.0825 0
497 2 40.6404 6.85047 0
498 1 23.5084 25.9259 0
499 1 35.8235 74.4162 0
500 1 2.65373 4.17599 0
501 2 45.3479 43.4007 0
502 1 16.7259 24.762 0
503 1 50.2866 9.88131 0
504 1 37.0179 32.7534 0
505 2 26.5399 77.1042 0
506 2 17.6326 65.2487 0
507 1 41.9649 37.3165 0
508 1 12.9222 32.77 0
509 1 28.8979 24.7837 0
510 1 6.99091 38.7878 0
511 1 69.3148 26.7135 0
512 1 54.4891 53.3364 0
513 1 11.8438 34.2364 0
514 1 25.3963 64.4251 0
515 2 61.4086 11.3214 0
516 2 11.4551 38.6364 0
517 2 74.4543 74.5815 0
518 2 19.1972 54.2157 0
519 2 33.2575 1.90299 0
520 1 74.4877 37.0674 0
521 1 42.1271 24.4308 0
522 2 24.4122 66.17 0
523 1 77.2272 12.2338 0
524 1 70.4208 34.7312 0
525 1 22.7974 0.071236 0
526 2 76.4582 22.3633 0
527 1 49.4526 26.1017 0
528 2 74.5049 5.13732 0
529 2 35.1979 45.1431 0
530 1 7.89776 59.6492 0
531 2 76.3361 68.8952 0
532 2 32.2189 60.903 0
533 1 72.8163 5.4608 0
534 1 34.4825 27.0651 0
535 1 29.0488 19.1715 0
536 1 32.6602 65.8815 0
537 1 35.0714 47.8506 0
538 2 16.3997 21.6643 0
539 2 46.1224 76.8114 0
540 1 60.8487 40.6646 0
541 2 24.9597 8.17195 0
542 1 51.2029 56.7979 0
543 2 69.6331 55.5915 0
544 2 51.9434 10.4654 0
545 1 28.2224 22.7344 0
546 1 34.3383 3.21445 0
547 1 10.1723 14.411 0
548 2 23.6131 3.15287 0
549 2 65.4026 21.9265 0
550 2 5.21151 39.4099 0
551 1 30.3057 8.32745 0
552 2 70.6172 40.239 0
553 2 29.4866 44.9514 0
554 1 51.7022 62.2594 0
555 1 50.2112 57.3114 0
556 1 72.9291 68.0647 0
557 1 62.036 53.9298 0
558 1 2.4568 68.579 0
559 1 72.7399 36.1811 0
560 2 21.4399 61.4953 0
561 1 5.6791 0.737814 0
562 2 4.57741 11.2371 0
563 2 54.0384 48.7876 0
564 1 70.1111 68.0848 0
565 2 21.8409 1.40852 0
566 2 18.1284 23.7625 0
567 1 48.8493 42.1246 0
568 2 22.8814 74.1148 0
569 2 15.7368 27.4971 0
570 1 73.1071 34.2706 0
571 1 0.479266 3.60771 0
572 2 6.77187 48.5717 0
573 2 0.0638669 44.8863 0
574 1 3.78542 69.0436 0
575 1 18.2967 7.65658 0
576 1 16.5289 63.1724 0
577 1 43.3319 50.4827 0
578 2 67.6137 34.2367 0
579 2 45.9401 69.0534 0
580 1 62.6816 42.6294 0
581 1 6.61426 60.8711 0
582 2 68.6491 59.62 0
583 2 64.0217 58.6549 0
584 2 33.4799 65.5342 0
585 1 61.0902 77.3703 0
586 1 48.6635 58.6496 0
587 2 14.6273 21.7429 0
588 1 49.6511 5.27192 0
589 2 53.7113 10.3108 0
590 1 24.6605 73.5536 0
591 1 56.4355 6.50063 0
592 1 48.6432 74.3205 0
593 1 44.0423 13.1695 0
594 1 59.8349 63.3485 0
595 1 72.1293 65.3177 0
596 2 7.13447 1.3266 0
597 1 3.5934 44.0474 0
598 1 69.0952 9.21678 0
599 1 2.70817 50.9478 0
600 1 0.239594 47.5905 0
601 2 42.0419 36.1 0
602 1 62.171 14.2996 0
603 2 70.9827 50.9022 0
604 2 62.2286 16.5026 0
605 1 52.4092 69.2712 0
606 1 41.5736 3.98911 0
607 1 76.349 1.40285 0
608 2 1.37012 40.3757 0
609 2 40.976 0.460302 0
610 1 7.85746 49.8727 0
611 1 53.8171 58.7734 0
612 1 76.6684 6.22644 0
613 1 76.9727 23.1218 0
614 2 50.4611 28.3888 0
615 1 34.5291 38.7851 0
616 1 39.7104 16.0232 0
617 1 69.1766 2.63968 0
618 2 12.0445 42.6805 0
619 2 55.1301 42.3025 0
620 2 70.8622 73.9142 0
621 2 58.3701 35.6978 0
622 1 60.228 18.3295 0
623 1 37.4727 11.2828 0
624 2 20.4607 54.7955 0
625 1 27.0293 76.3222 0
626 1 73.822 29.1166 0
627 2 2.28358 25.0954 0
628 1 28.7145 58.0755 0
629 2 77.4404 25.6263 0
630 1 29.1715 73.1043 0
631 1 56.7878 37.1454 0
632 1 21.6733 65.0821 0
633 2 25.6227 72.019 0
634 1 18.8153 50.6315 0
635 2 41.4536 43.5605 0
636 2 37.0865 40.7649 0
637 1 11.2696 11.1057 0
638 1 67.326 40.869 0
639 1 70.2622 46.2705 0
640 1 0.294898 53.9232 0
641 1 36.3767 33.6183 0
642 1 9.6992 33.8797 0
643 1 50.1799 44.7092 0
644 2 19.363 27.3115 0
645 1 56.9254 52.295 0
646 1 46.2419 47.0466 0
647 2 23.6299 10.4394 0
648 1 64.3372 12.4122 0
649 2 10.7973 69.1251 0
650 2 47.0595 61.8295 0
651 1 46.1196 12.2038 0
652 1 29.6581 70.9832 0
653 2 13.5771 23.1709 0
654 2 10.2966 3.7067 0
655 1 5.58914 51.8604 0
656 1 72.8044 53.8732 0
657 1 33.8472 46.5475 0
658 1 71.5986 13.2274 0
659 2 0.798645 66.1732 0
660 1 26.733 35.5908 0
661 1 37.3729 9.85477 0
662 1 32.8138 60.0906 0
663 1 10.6585 28.7631 0
664 1 58.5046 75.3591 0
665 2 49.2505 76.9688 0
666 2 12.817 58.2745 0
667 1 26.4113 73.8254 0
668 2 7.69615 76.139 0
669 1 4.37867 9.25936 0
670 2 43.9613 37.6704 0
671 2 37.2153 17.4633 0
672 1 9.94114 19.6685 0
673 1 6.95118 16.6486 0
674 1 32.7061 42.5909 0
675 2 4.89168 58.1915 0
676 2 37.9637 6.25692 0
677 1 41.3532 54.0025 0
678 1 53.6377 39.0567 0
679 1 46.6774 69.52 0
680 1 31.7339 53.6394 0
681 1 26.3146 54.0688 0
682 1 62.4071 59.61 0
683 1 18.0666 59.2973 0
684 1 64.3862 68.9248 0
685 2 35.8634 18.648 0
686 1 50.4027 6.20704 0
687 1 41.478 18.8696 0
688 2 53.6736 73.6258 0
689 1 71.9875 62.4276 0
690 1 66.013 72.2149 0
691 1 41.7984 39.9162 0
692 2 59.9056 43.955 0
693 1 71.3732 76.8717 0
694 2 53.6668 64.2457 0
695 1 42.3739 11.761 0
696 2 35.6422 47.117 0
697 1 25.5969 13.3199 0
698 1 8.36702 3.4613 0
699 1 66.6231 13.9108 0
700 1 72.0421 46.9306 0
701 1 64.0872 31.3606 0
702 1 63.6598 65.2409 0
703 2 72.0633 2.21382 0
704 2 8.2322 61.4647 0
705 2 4.92467 7.32599 0
706 1 52.1774 51.6733 0
707 2 59.6723 38.4291 0
708 1 50.3408 43.0883 0
709 1 51.7509 73.2452 0
710 2 60.314 28.5168 0
711 1 55.9569 54.1612 0
712 2 62.7377 32.7425 0
713 2 68.4055 70.4811 0
714 2 0.570806 64.9266 0
715 1 45.2086 18.842 0
716 1 76.5306 29.8646 0
717 1 29.7392 63.5593 0
718 1 14.2464 3.68258 0
719 1 53.2007 36.8391 0
720 2 49.1215 38.3661 0
721 2 66.83 39.9007 0
722 1 49.0472 8.00302 0
723 2 39.9839 75.3735 0
724 2 10.3972 59.686 0
725 1 50.6322 39.1664 0
726 1 8.26857 29.9069 0
727 2 12.9085 1.4664 0
728 1 67.4575 55.5559 0
729 2 21.6112 59.7283 0
730 1 32.7987 27.4191 0
731 2 16.6629 36.4323 0
732 1 16.3813 54.2402 0
733 1 29.8483 29.4448 0
734 2 66.4698 46.4423 0
735 1 66.6599 67.2941 0
736 1 47.8249 49.3538 0
737 2 4.21606 45.7603 0
738 1 13.7122 34.4266 0
739 1 17.9629 37.5398 0
740 1 48.3935 37.8749 0
741 2 57.2038 55.665 0
742 1 58.9121 37.5474 0
743 1 27.1775 62.138 0
744 2 72.81 19.0255 0
745 1 23.1496 72.7116 0
746 1 35.094 10.1749 0
747 1 47.6319 76.135 0
748 2 43.2402 69.9397 0
749 2 22.3547 24.4947 0
750 1 55.3395 34.9751 0
751 1 57.694 40.1386 0
752 2 2.34886 70.5039 0
753 1 52.8819 39.7941 0
754 2 21.6982 15.2867 0
755 1 23.9829 49.9915 0
756 2 49.4392 75.9358 0
757 1 48.3937 19.4297 0
758 1 6.0159 9.81138 0
759 1 61.6401 47.0902 0
760 1 12.222 10.5878 0
761 1 69.8912 71.6996 0
762 1 15.2663 57.5364 0
763 2 77.1123 6.99576 0
764 1 75.1342 57.0626 0
765 2 47.0086 56.6653 0
766 1 63.26 22.7324 0
767 1 13.6985 1.12639 0
768 1 65.3777 8.07317 0
769 1 61.6978 50.0274 0
770 2 60.4843 73.5376 0
771 1 18.7942 39.972 0
772 1 44.9294 51.01 0
773 1 40.65 43.155 0
774 2 32.5928 25.6383 0
775 1 71.6829 30.5944 0
776 2 43.6554 42.8123 0
777 1 70.4095 55.239 0
778 2 10.4572 63.1432 0
779 1 45.2297 25.2443 0
780 1 17.0657 6.26723 0
781 1 29.6459 35.1128 0
782 1 57.4783 64.8233 0
783 1 60.6194 35.5853 0
784 1 70.8896 50.038 0
785 2 8.83131 11.3464 0
786 1 73.1492 70.115 0
787 1 20.968 66.6011 0
788 1 39.7854 54.8398 0
789 1 10.8969 4.38877 0
790 1 52.2161 70.3324 0
791 1 45.8424 13.2409 0
792 1 8.5799 25.0987 0
793 1 25.2292 14.9692 0
794 2 71.2478 16.6601 0
795 2 75.6287 14.134 0
796 2 75.484 67.7563 0
797 1 44.5425 65.3277 0
798 1 38.3822 19.0061 0
799 1 44.3448 76.4032 0
800 1 30.6231 70.507 0
801 2 6.48414 26.0131 0
802 2 28.0136 45.568 0
803 2 23.5468 77.1309 0
804 2 52.5886 35.973 0
805 1 23.895 71.938 0
806 1 53.1194 70.9144 0
807 2 39.8519 50.4341 0
808 1 50.4471 47.1064 0
809 2 36.3883 62.5196 0
810 1 58.5347 76.5055 0
811 1 28.7111 60.9933 0
812 2 59.6078 48.2583 0
813 2 46.1272 58.1122 0
814 1 54.3052 31.0933 0
815 2 41.0495 16.9534 0
816 1 28.144 34.4557 0
817 1 67.7624 75.6165 0
818 2 36.7257 16.0552 0
819 2 45.6891 56.6155 0
820 1 66.8474 69.8076 0
821 1 16.8003 64.8455 0
822 1 56.828 76.7699 0
823 1 17.2267 55.7881 0
824 2 35.3339 42.3774 0
825 1 29.2221 41.5907 0
826 1 32.8314 75.3427 0
827 1 7.32145 26.2105 0
828 1 76.9092 51.1515 0
829 1 72.2126 40.2526 0
830 2 47.8698 64.4927 0
831 2 43.3119 4.4724 0
832 1 73.9668 14.3313 0
833 1 24.5486 43.3732 0
834 2 48.6584 5.59716 0
835 1 68.4322 6.54589 0
836 1 58.1658 27.5848 0
837 1 56.2497 41.1599 0
838 1 38.9794 52.8654 0
839 1 16.0828 60.3289 0
840 2 15.7734 46.7015 0
841 1 36.8678 52.5358 0
842 2 11.0715 61.2929 0
843 1 5.57858 42.4046 0
844 1 63.5215 21.6495 0
845 2 27.9682 2.21572 0
846 1 49.4338 39.2573 0
847 1 10.9667 57.7829 0
848 2 68.9726 47.7426 0
849 1 74.1024 11.0101 0
850 1 68.0104 19.7631 0
851 1 39.3849 18.5907 0
852 1 12.1941 1.95628 0
853 1 42.3952 61.5145 0
854 1 37.736 69.7386 0
855 1 39.41 25.6307 0
856 2 18.7549 41.98 0
857 1 57.8245 33.9172 0
858 2 34.411 28.7786 0
859 1 13.2277 64.8142 0
860 2 2.07521 58.5303 0
861 2 60.1298 40.1261 0
862 2 2.96042 69.2733 0
863 1 59.0229 23.7771 0
864 1 60.3291 53.7311 0
865 2 66.0884 68.0367 0
866 1 60.503 17.2159 0
867 2 31.4563 21.8121 0
868 1 37.1998 61.9379 0
869 1 62.2537 20.1581 0
870 1 0.0842749 52.7441 0
871 1 62.7589 26.0667 0
872 1 42.3448 50.802 0
873 1 50.6587 62.5129 0
874 1 3.94232 71.7279 0
875 1 34.0529 57.8324 0
876 2 51.578 7.89752 0
877 1 13.4277 55.5759 0
878 2 14.8182 16.0204 0
879 1 76.5314 14.0218 0
880 2 31.6695 33.6082 0
881 2 51.8913 29.3081 0
882 2 48.0211 73.6002 0
883 1 25.7063 19.9354 0
884 1 55.9689 36.4874 0
885 1 38.9588 5.03252 0
886 1 37.1018 60.0816 0
887 2 54.7432 50.2012 0
888 1 0.41514 76.5558 0
889 2 59.1762 49.6811 0
890 2 7.77374 25.4478 0
891 1 38.2311 10.4911 0
892 1 39.9896 67.9872 0
893 1 30.0319 53.6644 0
894 1 76.998 14.9371 0
895 2 32.435 53.0623 0
896 1 37.5973 2.60515 0
897 2 35.6249 17.0123 0
898 1 31.1294 43.5902 0
899 1 2.10131 75.8555 0
900 2 38.6792 0.292977 0
901 1 52.1996 41.4013 0
902 1 24.3613 75.3104 0
903 1 37.9153 40.4928 0
904 2 0.105018 37.5703 0
905 1 63.7191 62.0996 0
906 1 68.9676 44.778 0
907 1 3.7242 29.8553 0
908 1 50.7005 23.822 0
909 1 0.401157 48.7256 0
910 2 1.83738 50.7771 0
911 2 4.56394 4.62461 0
912 2 36.1128 32.7128 0
913 2 31.9761 51.6655 0
914 1 18.3169 12.8901 0
915 2 64.7244 5.55419 0
916 1 3.35969 39.9136 0
917 2 4.99046 33.4953 0
918 2 19.5696 35.4314 0
919 1 8.24385 57.8547 0
920 1 15.9456 47.6534 0
921 1 0.142855 26.6122 0
922 2 50.8189 18.9697 0
923 2 12.3016 24.3343 0
924 1 39.1949 17.5409 0
925 1 66.315 47.3155 0
926 2 35.4498 35.3177 0
927 1 68.9654 77.4458 0
928 1 52.0342 59.0727 0
929 2 52.0189 32.1123 0
930 2 20.0103 15.8964 0
931 1 40.7932 47.5503 0
932 1 70.4349 39.1033 0
933 1 34.2829 21.8546 0
934 1 1.99733 60.1705 0
935 1 11.4533 50.6869 0
936 2 42.1669 4.59264 0
937 1 14.2809 73.18 0
938 1 36.7276 67.6972 0
939 2 50.3503 51.2638 0
940 1 75.9833 46.8113 0
941 1 77.2423 17.5887 0
942 1 37.9275 29.7312 0
943 2 22.2351 16.7211 0
944 2 2.08745 41.9626 0
945 1 40.4121 25.3098 0
946 1 64.5152 67.1869 0
947 2 25.1037 2.08625 0
948 1 39.2085 68.7346 0
949 1 26.7874 11.6217 0
950 2 5.10273 9.8321 0
951 1 68.8755 65.6052 0
952 2 52.7062 2.71258 0
953 2 7.875 44.8162 0
954 2 29.7887 62.6548 0
955 1 27.2299 38.6297 0
956 2 58.8777 10.9616 0
957 1 48.3318 23.6131 0
958 2 19.4846 2.78383 0
959 2 73.6027 25.0769 0
960 2 29.1435 66.9176 0
961 1 49.423 52.0606 0
962 1 24.3467 1.60737 0
963 1 16.3012 12.5877 0
964 2 8.65844 9.58355 0
965 2 53.7054 53.7395 0
966 1 0.663205 62.725 0
967 1 49.8338 35.5444 0
968 1 18.3181 0.150545 0
969 1 58.0387 23.3442 0
970 2 22.4766 4.72163 0
971 1 21.266 14.5536 0
972 1 6.81489 25.2211 0
973 1 0.920664 35.8925 0
974 2 0.94417 35.0366 0
975 2 73.0028 65.3677 0
976 2 34.6004 19.8829 0
977 1 36.1049 63.3687 0
978 2 3.21619 77.1115 0
979 2 36.121 65.7964 0
980 1 72.918 14.3123 0
981 1 73.6297 57.9505 0
982 1 7.93794 54.7692 0
983 1 18.4669 24.5822 0
984 1 9.29016 58.0906 0
985 1 34.5144 11.1399 0
986 1 37.9487 52.6449 0
987 2 18.1115 12.0164 0
988 2 42.1378 34.8339 0
989 2 9.91909 34.7974 0
990 2 69.8965 51.6931 0
991 2 46.3425 14.8326 0
992 1 62.3736 34.6641 0
993 2 29.0835 5.68763 0
994 2 1.9365 55.0175 0
995 1 38.8449 22.2495 0
996 2 54.7107 56.9172 0
997 2 43.4714 30.7622 0
998 2 60.4096 74.9502 0
999 2 39.2708 26.5002 0
1000 2 0.561498 49.5582 0
1001 1 41.7826 65.3984 0
1002 1 23.4541 34.3834 0
1003 1 9.65275 54.344 0
1004 1 7.58275 22.5414 0
1005 2 10.8174 23.7314 0
1006 2 67.838 60.8755 0
1007 1 18.8597 20.2998 0
1008 1 47.8283 16.8934 0
1009 1 31.131 32.9499 0
1010 1 11.5658 43.425 0
1011 2 10.5252 22.3445 0
1012 2 2.34233 23.3236 0
1013 2 65.0623 55.9436 0
1014 1 74.1959 15.4751 0
1015 1 76.0906 9.40339 0
1016 1 37.1919 47.9396 0
1017 2 68.793 54.2507 0
1018 1 26.1571 24.9416 0
1019 1 44.2459 29.0179 0
1020 2 32.5016 6.28558 0
1021 2 15.856 24.5854 0
1022 1 4.83327 60.9032 0
1023 1 41.0619 9.38079 0
1024 1 9.37229 67.8093 0
1025 1 37.1117 65.8594 0
1026 1 8.06898 40.1527 0
1027 1 47.4936 2.56268 0
1028 1 2.00346 33.0274 0
1029 1 49.0158 18.2302 0
1030 2 46.8363 47.9837 0
1031 2 37.5358 36.9746 0
1032 1 16.3628 73.227 0
1033 1 57.6029 19.2252 0
1034 1 35.2205 29.2109 0
1035 1 65.7808 28.4909 0
1036 2 73.6843 45.9338 0
1037 1 31.2226 73.1087 0
1038 1 68.6334 60.4852 0
1039 1 5.52139 31.9573 0
1040 2 64.9259 34.2943 0
1041 1 35.4583 65.1585 0
1042 2 62.7817 68.1126 0
1043 2 60.6527 58.2284 0
1044 1 67.7545 23.4831 0
1045 1 66.7414 23.2612 0
1046 1 41.1789 68.2225 0
1047 2 10.0023 47.7134 0
1048 1 53.5624 0.0312802 0
1049 1 59.8088 49.1121 0
1050 2 45.5162 6.36424 0
1051 1 43.4356 31.7891 0
1052 1 66.2244 44.526 0
1053 2 32.5981 18.4503 0
1054 1 55.2045 7.16694 0
1055 2 32.9761 46.6572 0
1056 2 14.7109 45.2701 0
1057 1 11.9927 71.7 0
1058 1 27.4375 5.83563 0
1059 1 9.20563 75.231 0
1060 2 21.92 42.0515 0
1061 1 10.0869 23.2309 0
1062 2 16.8858 41.4153 0
1063 1 77.3945 67.8254 0
1064 1 23.2958 5.11769 0
1065 2 29.7222 52.84 0
1066 1 37.3902 46.2441 0
1067 1 13.9539 10.378 0
1068 2 35.6451 67.1117 0
1069 1 67.9356 24.4535 0
1070 2 8.19021 34.4341 0
1071 2 49.4992 42.7902 0
1072 2 9.48976 48.7867 0
1073 2 16.3623 3.56133 0
1074 2 33.8931 45.3458 0
1075 1 76.0107 49.7487 0
1076 1 41.2289 7.53665 0
1077 1 41.7033 32.6057 0
1078 2 71.6586 26.2806 0
1079 2 39.1045 10.8193 0
1080 2 30.007 72.8381 0
1081 2 45.949 48.9171 0
1082 2 6.3127 27.6702 0
1083 2 21.6041 19.9611 0
1084 1 44.1117 57.4763 0
1085 1 19.2439 52.3346 0
1086 1 70.13 66.952 0
1087 1 29.5889 72.0244 0
1088 1 44.6767 63.0848 0
1089 2 8.48764 31.7051 0
1090 1 42.9308 34.4682 0
1091 2 27.6603 17.7345 0
1092 1 63.074 53.5812 0
1093 1 69.086 32.9885 0
1094 2 43.5184 55.1925 0
1095 1 25.4196 71.1601 0
1096 2 48.2052 18.5506 0
1097 1 76.2353 17.7546 0
1098 1 62.6829 43.7643 0
1099 1 31.0528 5.00312 0
1100 1 68.4576 1.81527 0
1101 1 74.8738 11.856 0
1102 1 26.0506 74.8521 0
1103 1 51.4012 70.9857 0
1104 1 47.0149 58.0506 0
1105 1 48.191 40.0122 0
1106 1 16.4812 71.4946 0
1107 2 45.1966 62.3012 0
1108 1 55.5721 31.1872 0
1109 1 72.748 24.8865 0
1110 2 14.909 11.829 0
1111 1 2.68575 56.8737 0
1112 1 76.1323 18.7923 0
1113 2 75.4483 7.70684 0
1114 2 14.2427 53.5439 0
1115 2 32.9828 49.416 0
1116 1 77.198 64.6205 0
1117 1 66.8779 56.4386 0
1118 1 12.354 75.4733 0
1119 2 11.3291 64.4005 0
1120 1 41.2933 58.0201 0
1121 2 21.258 64.2727 0
1122 1 32.0618 32.4418 0
1123 2 23.0083 51.8567 0
1124 1 52.688 61.8705 0
1125 2 14.7126 4.39023 0
1126 2 15.4701 20.191 0
1127 1 74.6521 24.0981 0
1128 1 67.1836 52.0605 0
1129 1 60.8481 39.6119 0
1130 1 30.5929 47.3073 0
1131 1 62.4802 15.3337 0
1132 2 75.8524 63.569 0
1133 2 55.9728 22.4977 0
1134 2 20.8773 72.1626 0
1135 1 0.76355 68.4982 0
1136 2 51.191 26.8043 0
1137 1 51.0268 61.413 0
1138 1 30.3285 13.6759 0
1139 2 57.4826 52.9862 0
1140 2 9.2251 23.0303 0
1141 1 74.916 65.6747 0
1142 1 26.9992 52.3335 0
1143 1 48.0579 44.7183 0
1144 2 60.9598 16.4744 0
1145 1 38.0696 62.6268 0
1146 1 15.5531 18.9071 0
1147 1 28.2869 25.6187 0
1148 1 10.8406 36.7189 0
1149 1 57.499 29.2728 0
1150 2 65.3754 61.0963 0
1151 1 22.0353 3.88868 0
1152 1 59.7521 52.0837 0
1153 1 71.6993 29.5348 0
1154 1 13.8819 4.79106 0
1155 2 60.2162 20.3066 0
1156 1 44.429 32.2359 0
1157 1 12.3619 18.1704 0
1158 2 58.2858 47.9109 0
1159 2 5.75716 70.5777 0
1160 1 32.9676 7.73702 0
1161 2 43.9106 56.5979 0
1162 1 15.9159 9.89272 0
1163 2 13.4115 72.9965 0
1164 1 24.0153 58.8155 0
1165 1 20.8922 45.5418 0
1166 2 14.9792 50.7206 0
1167 1 27.9081 20.2254 0
1168 1 56.3872 64.6118 0
1169 1 19.663 66.8143 0
1170 2 6.40765 33.6738 0
1171 1 48.5039 33.8724 0
1172 1 22.9178 6.80766 0
1173 1 51.7136 64.0345 0
1174 1 38.8761 29.2331 0
1175 2 62.595 44.6606 0
1176 1 68.3027 36.6251 0
1177 1 48.5014 69.9072 0
1178 2 61.0323 47.6949 0
1179 1 72.3509 32.7031 0
1180 1 52.0936 17.9186 0
1181 1 54.3331 22.917 0
1182 1 60.9953 74.2863 0
1183 2 43.2266 73.3546 0
1184 2 28.0522 21.8758 0
1185 1 17.6078 63.221 0
1186 1 48.9136 49.4308 0
1187 1 73.9187 72.2134 0
1188 2 4.83386 37.7624 0
1189 1 60.7302 65.3203 0
1190 1 28.3701 51.451 0
1191 2 72.2292 4.83126 0
1192 1 24.6424 47.0236 0
1193 1 47.5873 17.9414 0
1194 2 16.6307 16.0579 0
1195 1 74.3 48.9442 0
1196 1 21.8461 49.8515 0
1197 1 35.5898 38.882 0
1198 1 62.5001 76.4542 0
1199 2 57.8309 62.4322 0
1200 1 26.935 8.78715 0
1201 1 2.90843 73.2901 0
1202 1 5.94632 48.9393 0
1203 2 47.5834 12.3598 0
1204 1 57.4515 56.5931 0
1205 1 66.6349 50.308 0
1206 1 52.2726 5.05493 0
1207 1 31.7656 62.8376 0
1208 1 75.3731 58.0736 0
1209 2 65.3024 59.6816 0
1210 1 69.6414 32.0078 0
1211 2 24.794 35.5231 0
1212 1 33.6906 36.1246 0
1213 1 61.2147 68.8518 0
1214 1 61.6366 23.6836 0
1215 1 11.6827 72.7521 0
1216 1 11.3232 49.5606 0
1217 2 67.5725 2.12385 0
1218 2 61.5883 20.8774 0
1219 1 30.2151 15.408 0
1220 1 61.9807 18.0799 0
1221 1 61.5729 54.8996 0
1222 2 66.334 74.37 0
1223 1 42.3555 48.0504 0
1224 1 0.68054 34.1854 0
1225 1 2.89408 25.7238 0
1226 2 65.8484 64.8178 0
1227 1 41.4062 56.9583 0
1228 1 76.1182 70.7717 0
1229 2 47.9857 9.3255 0
1230 1 25.6289 49.8488 0
1231 2 53.0178 18.0788 0
1232 1 67.7502 38.1779 0
1233 1 38.5345 58.5286 0
1234 1 1.61351 67.8948 0
1235 1 18.1459 46.0055 0
1236 1 52.3997 63.0722 0
1237 1 37.8606 20.6617 0
1238 1 24.6743 7.1661 0
1239 1 12.8242 22.6877 0
1240 1 24.4454 63.0628 0
1241 1 76.2967 62.7479 0