ITEM: TIMESTEP
0
ITEM: NUMBER OF ATOMS
7200
ITEM: BOX BOUNDS xy xz yz pp pp pp
0.0000000000000000e+00 2.1900000000000000e+02 0.0000000000000000e+00
0.0000000000000000e+00 2.1900000000000000e+02 0.0000000000000000e+00
-3.6499999999999999e-01 3.6499999999999999e-01 0.0000000000000000e+00
ITEM: ATOMS id type x y z
1 1 67.5907 135.028 -4.05231e-17
2 1 183.198 108.562 -4.05231e-17
3 1 13.4501 157.94 -4.05231e-17
4 1 4.01374 86.1425 -4.05231e-17
5 1 215.719 157.437 -4.05231e-17
6 1 116.997 210.441 -4.05231e-17
7 1 42.5053 51.2825 -4.05231e-17
8 2 149.236 83.2632 -4.05231e-17
9 1 203.314 9.85649 -4.05231e-17
10 2 57.9224 193.339 -4.05231e-17
11 1 114.69 15.0496 -4.05231e-17
12 1 129.405 78.068 -4.05231e-17
13 2 51.3193 79.3873 -4.05231e-17
14 1 65.2097 17.8589 -4.05231e-17
15 1 137.086 105.712 -4.05231e-17
16 2 60.724 173.043 -4.05231e-17
17 1 114.075 31.0778 -4.05231e-17
18 2 31.8778 78.5156 -4.05231e-17
19 1 106.641 52.5787 -4.05231e-17
20 1 144.567 103.146 -4.05231e-17
21 1 42.0177 5.69325 -4.05231e-17
22 2 49.3972 148.155 -4.05231e-17
23 2 17.5982 54.5421 -4.05231e-17
24 1 159.282 99.5233 -4.05231e-17
25 1 75.6972 183.096 -4.05231e-17
26 2 86.4064 96.8753 -4.05231e-17
27 1 155.59 174.345 -4.05231e-17
28 2 22.5723 156.873 -4.05231e-17
29 1 53.1782 46.3622 -4.05231e-17
30 1 139.414 88.6531 -4.05231e-17
31 1 211.64 90.4925 -4.05231e-17
32 1 58.3356 104.344 -4.05231e-17
33 1 157.695 154.464 -4.05231e-17
34 1 61.0714 77.6425 -4.05231e-17
35 1 177.264 68.6366 -4.05231e-17
36 1 61.567 75.3166 -4.05231e-17
37 2 136.126 140.654 -4.05231e-17
38 1 197.963 74.2048 -4.05231e-17
39 1 121.96 138.213 -4.05231e-17
40 1 165.577 163.832 -4.05231e-17
41 1 120.772 182.308 -4.05231e-17
42 1 102.987 36.7825 -4.05231e-17
43 1 135.436 60.9518 -4.05231e-17
44 1 107.132 23.1938 -4.05231e-17
45 1 215.063 84.5326 -4.05231e-17
46 1 27.8721 203.769 -4.05231e-17
47 1 88.7241 172.479 -4.05231e-17
48 2 47.8246 86.1442 -4.05231e-17
49 1 76.9007 110.577 -4.05231e-17
50 1 46.182 197.878 -4.05231e-17
51 1 181.146 34.6244 -4.05231e-17
52 1 203.685 132.87 -4.05231e-17
53 1 156.741 27.1388 -4.05231e-17
54 1 24.2732 119.376 -4.05231e-17
55 1 23.002 48.2548 -4.05231e-17
56 1 117.324 140.141 -4.05231e-17
57 2 68.1226 214.459 -4.05231e-17
58 1 32.7925 40.2589 -4.05231e-17
59 1 29.0881 152.492 -4.05231e-17
60 2 151.92 147.282 -4.05231e-17
61 2 35.8076 203.058 -4.05231e-17
62 1 10.8168 161.864 -4.05231e-17
63 1 111.928 197.525 -4.05231e-17
64 1 133.958 39.4151 -4.05231e-17
65 1 214.406 114.06 -4.05231e-17
66 1 128.972 134.375 -4.05231e-17
67 1 95.5631 139.667 -4.05231e-17
68 1 66.8419 116.561 -4.05231e-17
69 1 140.977 174.202 -4.05231e-17
70 1 59.38 111.6 -4.05231e-17
71 1 7.50307 125.752 -4.05231e-17
72 1 171.713 60.7704 -4.05231e-17
73 1 187.936 185.438 -4.05231e-17
74 1 207.065 21.3552 -4.05231e-17
75 2 93.8076 1.29476 -4.05231e-17
76 1 17.6805 4.71127 -4.05231e-17
77 1 36.3361 24.2631 -4.05231e-17
78 1 124.328 117.661 -4.05231e-17
79 2 126.356 1.45078 -4.05231e-17
80 1 75.1735 106.278 -4.05231e-17
81 1 110.48 141.058 -4.05231e-17
82 1 53.5819 141.938 -4.05231e-17
83 2 129.857 182.149 -4.05231e-17
84 1 179.667 80.5973 -4.05231e-17
85 1 22.2834 41.2698 -4.05231e-17
86 1 127.763 142.203 -4.05231e-17
87 1 217.524 217.21 -4.05231e-17
88 1 19.5247 34.7288 -4.05231e-17
89 2 44.146 3.61368 -4.05231e-17
90 2 190.576 186.892 -4.05231e-17
91 1 149.877 90.6293 -4.05231e-17
92 2 168.96 21.2398 -4.05231e-17
93 1 141.106 15.0649 -4.05231e-17
94 2 202.023 12.4571 -4.05231e-17
95 1 33.4744 195.328 -4.05231e-17
96 1 130.43 95.9937 -4.05231e-17
97 1 97.0629 4.80692 -4.05231e-17
98 1 125.651 55.1451 -4.05231e-17
99 1 178.309 21.8594 -4.05231e-17
100 1 176.142 9.02403 -4.05231e-17
101 1 114.519 12.4827 -4.05231e-17
102 1 24.8988 46.2543 -4.05231e-17
103 1 58.2544 80.7969 -4.05231e-17
104 1 68.8804 109.162 -4.05231e-17
105 1 142.328 201.433 -4.05231e-17
106 1 78.0833 102.739 -4.05231e-17
107 2 147.127 101.438 -4.05231e-17
108 1 36.4113 210.633 -4.05231e-17
109 1 54.6131 88.9951 -4.05231e-17
110 1 108.289 63.0609 -4.05231e-17
111 1 60.92 20.719 -4.05231e-17
112 1 94.937 137.248 -4.05231e-17
113 1 99.5572 43.5242 -4.05231e-17
114 1 158.443 23.062 -4.05231e-17
115 1 51.1071 163.451 -4.05231e-17
116 2 214.199 133.895 -4.05231e-17
117 1 201.226 216.367 -4.05231e-17
118 1 164.832 68.1386 -4.05231e-17
119 2 58.394 98.7501 -4.05231e-17
120 1 53.2779 199.089 -4.05231e-17
121 1 152.13 83.816 -4.05231e-17
122 1 103.065 14.8186 -4.05231e-17
123 1 136.961 75.8074 -4.05231e-17
124 1 154.968 201.501 -4.05231e-17
125 1 141.555 117.796 -4.05231e-17
126 1 111.704 65.893 -4.05231e-17
127 1 163.775 78.1474 -4.05231e-17
128 1 175.4 136.43 -4.05231e-17
129 1 7.90236 104.154 -4.05231e-17
130 1 83.5127 128.874 -4.05231e-17
131 1 175.59 152.417 -4.05231e-17
132 2 183.353 2.34334 -4.05231e-17
133 1 127.001 79.5426 -4.05231e-17
134 1 35.6845 86.3816 -4.05231e-17
135 1 78.3679 8.24494 -4.05231e-17
136 1 210.288 201.47 -4.05231e-17
137 1 101.908 136.593 -4.05231e-17
138 1 50.4076 212.158 -4.05231e-17
139 1 203.101 105.425 -4.05231e-17
140 2 142.174 186.338 -4.05231e-17
141 1 205.964 96.5419 -4.05231e-17
142 2 211.882 48.9973 -4.05231e-17
143 1 111.322 81.0073 -4.05231e-17
144 2 43.4031 199.552 -4.05231e-17
145 1 172.502 103.08 -4.05231e-17
146 1 99.543 120.036 -4.05231e-17
147 1 154.52 146.136 -4.05231e-17
148 1 6.5936 200.796 -4.05231e-17
149 1 67.9334 21.4293 -4.05231e-17
150 1 53.9986 37.0914 -4.05231e-17
151 1 26.278 112.61 -4.05231e-17
152 1 63.4746 104.723 -4.05231e-17
153 2 52.2947 5.93595 -4.05231e-17
154 1 149.126 94.6157 -4.05231e-17
155 1 108.084 16.9951 -4.05231e-17
156 2 71.6803 116.229 -4.05231e-17
157 1 207.968 104.433 -4.05231e-17
158 1 29.383 28.9515 -4.05231e-17
159 1 22.2635 135.709 -4.05231e-17
160 1 12.0203 201.623 -4.05231e-17
161 1 1.61823 8.09787 -4.05231e-17
162 1 127.568 127.761 -4.05231e-17
163 1 17.98 32.462 -4.05231e-17
164 1 166.703 53.1743 -4.05231e-17
165 1 125.089 122.096 -4.05231e-17
166 2 159.519 60.7909 -4.05231e-17
167 1 175.103 46.7227 -4.05231e-17
168 1 149.259 169.568 -4.05231e-17
169 1 2.30811 101.856 -4.05231e-17
170 1 94.7856 168.473 -4.05231e-17
171 1 146.688 60.9649 -4.05231e-17
172 1 218.64 17.304 -4.05231e-17
173 1 45.8375 143.264 -4.05231e-17
174 1 131.415 62.7914 -4.05231e-17
175 2 137.671 160.876 -4.05231e-17
176 1 109.758 70.9677 -4.05231e-17
177 2 70.3908 56.5263 -4.05231e-17
178 1 65.7916 86.7963 -4.05231e-17
179 1 173.006 163.797 -4.05231e-17
180 1 203.393 196.996 -4.05231e-17
181 1 135.005 167.434 -4.05231e-17
182 2 77.2515 20.5297 -4.05231e-17
183 1 76.92 164.271 -4.05231e-17
184 1 176.115 86.7997 -4.05231e-17
185 2 175.408 20.7535 -4.05231e-17
186 2 208.656 133.832 -4.05231e-17
187 1 92.9483 29.1416 -4.05231e-17
188 1 102.693 170.247 -4.05231e-17
189 1 123.5 174.467 -4.05231e-17
190 2 13.8198 160.917 -4.05231e-17
191 1 77.4532 157.27 -4.05231e-17
192 2 63.7175 109.748 -4.05231e-17
193 2 79.7831 172.617 -4.05231e-17
194 1 32.7067 149.98 -4.05231e-17
195 1 145.357 163.568 -4.05231e-17
196 1 168.512 191.582 -4.05231e-17
197 1 74.2976 69.7718 -4.05231e-17
198 2 9.78256 132.927 -4.05231e-17
199 1 210.765 57.2449 -4.05231e-17
200 1 80.513 6.4228 -4.05231e-17
201 2 71.6529 109.957 -4.05231e-17
202 1 52.5285 210.383 -4.05231e-17
203 1 175.259 81.3924 -4.05231e-17
204 1 188.236 156.551 -4.05231e-17
205 2 191.951 82.0649 -4.05231e-17
206 1 88.875 133.121 -4.05231e-17
207 1 105.847 30.2854 -4.05231e-17
208 1 33.0323 86.0657 -4.05231e-17
209 1 81.958 2.26967 -4.05231e-17
210 1 8.09826 64.7259 -4.05231e-17
211 2 146.38 156.388 -4.05231e-17
212 1 120.307 113.221 -4.05231e-17
213 1 134.96 104.726 -4.05231e-17
214 1 74.4093 14.0273 -4.05231e-17
215 1 74.1785 201.545 -4.05231e-17
216 1 193.486 139.078 -4.05231e-17
217 1 126.786 186.805 -4.05231e-17
218 2 28.036 168.429 -4.05231e-17
219 1 155.432 213.773 -4.05231e-17
220 2 107.187 55.6637 -4.05231e-17
221 1 212.854 55.9454 -4.05231e-17
222 1 142.482 146.827 -4.05231e-17
223 1 52.4824 207.764 -4.05231e-17
224 2 9.83831 188.451 -4.05231e-17
225 1 201.244 142.457 -4.05231e-17
226 1 139.043 190.244 -4.05231e-17
227 2 51.0488 16.9261 -4.05231e-17
228 1 138.961 77.5589 -4.05231e-17
229 1 60.5644 135.735 -4.05231e-17
230 1 158.895 131.269 -4.05231e-17
231 1 148.385 122.957 -4.05231e-17
232 1 1.62963 90.6246 -4.05231e-17
233 1 109.852 100.398 -4.05231e-17
234 1 133.869 216.251 -4.05231e-17
235 1 20.7763 143.06 -4.05231e-17
236 1 46.2968 81.744 -4.05231e-17
237 1 198.811 8.17509 -4.05231e-17
238 1 148.038 128.425 -4.05231e-17
239 2 17.8235 112.09 -4.05231e-17
240 1 99.5153 6.05194 -4.05231e-17
241 2 187.815 14.7366 -4.05231e-17
242 2 198.551 37.1525 -4.05231e-17
243 2 114.484 28.0859 -4.05231e-17
244 1 97.3584 7.63973 -4.05231e-17
245 1 84.2671 58.7422 -4.05231e-17
246 1 126.044 119.846 -4.05231e-17
247 1 211.164 98.2677 -4.05231e-17
248 1 94.6459 3.91932 -4.05231e-17
249 1 23.4942 65.7712 -4.05231e-17
250 2 149.9 29.6749 -4.05231e-17
251 1 153.312 212.102 -4.05231e-17
252 1 195.354 64.4801 -4.05231e-17
253 1 94.2114 61.3123 -4.05231e-17
254 2 77.0174 197.313 -4.05231e-17
255 1 212.251 148.787 -4.05231e-17
256 1 84.3442 165.646 -4.05231e-17
257 1 211.839 151.426 -4.05231e-17
258 2 163.971 27.673 -4.05231e-17
259 1 58.125 166.165 -4.05231e-17
260 1 127.302 11.4231 -4.05231e-17
261 1 185.004 13.8816 -4.05231e-17
262 1 53.5587 52.4 -4.05231e-17
263 1 12.4308 213.704 -4.05231e-17
264 1 172.75 43.1807 -4.05231e-17
265 1 166.578 22.6899 -4.05231e-17
266 1 155.266 9.80106 -4.05231e-17
267 1 2.97774 64.5889 -4.05231e-17
268 1 21.83 35.2796 -4.05231e-17
269 1 125.896 95.2918 -4.05231e-17
270 1 141.669 106.765 -4.05231e-17
271 1 12.7679 92.677 -4.05231e-17
272 1 159.576 201.94 -4.05231e-17
273 1 40.4243 169.166 -4.05231e-17
274 2 113.322 87.9479 -4.05231e-17
275 1 64.1088 4.88567 -4.05231e-17
276 2 53.9559 31.7854 -4.05231e-17
277 2 167.118 122.029 -4.05231e-17
278 1 39.0447 101.011 -4.05231e-17
279 2 109.884 205.081 -4.05231e-17
280 1 59.9661 31.5253 -4.05231e-17
281 1 147.387 28.2706 -4.05231e-17
282 1 164.929 8.05341 -4.05231e-17
283 1 112.949 141.622 -4.05231e-17
284 1 136.845 165.602 -4.05231e-17
285 1 35.8905 12.4627 -4.05231e-17
286 2 33.9881 215.043 -4.05231e-17
287 1 82.2295 135.387 -4.05231e-17
288 1 21.843 57.5119 -4.05231e-17
289 1 71.1692 53.5912 -4.05231e-17
290 1 151.163 193.721 -4.05231e-17
291 1 158.519 144.707 -4.05231e-17
292 2 19.8398 181.54 -4.05231e-17
293 2 65.6716 193.877 -4.05231e-17
294 1 112.698 40.6454 -4.05231e-17
295 1 125.123 48.0842 -4.05231e-17
296 1 135.055 41.8428 -4.05231e-17
297 1 118.903 145.237 -4.05231e-17
298 1 105.023 198.854 -4.05231e-17
299 1 160.51 106.258 -4.05231e-17
300 2 62.3903 94.8416 -4.05231e-17
301 1 58.7939 45.9419 -4.05231e-17
302 1 127.015 192.728 -4.05231e-17
303 2 198.608 60.481 -4.05231e-17
304 2 144.915 129.7 -4.05231e-17
305 1 86.3999 99.6924 -4.05231e-17
306 1 51.1972 73.7582 -4.05231e-17
307 1 34.9491 122.134 -4.05231e-17
308 1 161.868 59.0953 -4.05231e-17
309 2 73.2888 184.396 -4.05231e-17
310 1 194.535 215.713 -4.05231e-17
311 1 79.664 33.5668 -4.05231e-17
312 1 191.929 147.663 -4.05231e-17
313 2 147.205 66.2921 -4.05231e-17
314 1 51.9045 135.391 -4.05231e-17
315 1 111.103 150.299 -4.05231e-17
316 1 72.71 0.795544 -4.05231e-17
317 1 13.957 99.5638 -4.05231e-17
318 1 100.156 215.214 -4.05231e-17
319 1 51.1116 32.7556 -4.05231e-17
320 1 144.709 99.785 -4.05231e-17
321 1 88.7012 203.711 -4.05231e-17
322 1 143.364 140.252 -4.05231e-17
323 1 188.54 107.79 -4.05231e-17
324 1 81.1512 26.6665 -4.05231e-17
325 1 162.857 139.499 -4.05231e-17
326 1 84.9092 151.968 -4.05231e-17
327 2 149.961 186.207 -4.05231e-17
328 1 167.657 40.3987 -4.05231e-17
329 2 47.38 115.659 -4.05231e-17
330 1 24.2779 102.166 -4.05231e-17
331 1 174.686 175.715 -4.05231e-17
332 2 112.689 104.432 -4.05231e-17
333 1 44.3551 17.8218 -4.05231e-17
334 1 139.758 169.117 -4.05231e-17
335 1 11.9775 206.425 -4.05231e-17
336 1 213.035 106.203 -4.05231e-17
337 1 103.148 182.196 -4.05231e-17
338 1 159.522 57.8759 -4.05231e-17
339 1 109.138 217.092 -4.05231e-17
340 1 153.457 141.747 -4.05231e-17
341 1 160.335 158.54 -4.05231e-17
342 1 128.761 144.629 -4.05231e-17
343 1 127.558 29.3644 -4.05231e-17
344 1 63.9463 182.099 -4.05231e-17
345 1 60.8957 109.577 -4.05231e-17
346 1 9.51963 127.098 -4.05231e-17
347 1 92.3737 92.3518 -4.05231e-17
348 1 164.024 179.329 -4.05231e-17
349 1 193.466 75.514 -4.05231e-17
350 2 89.6853 40.6886 -4.05231e-17
351 1 154.53 66.0725 -4.05231e-17
352 1 61.0185 183.057 -4.05231e-17
353 1 39.1276 166.744 -4.05231e-17
354 1 167.765 161.716 -4.05231e-17
355 1 58.3534 157.092 -4.05231e-17
356 1 24.0766 36.3031 -4.05231e-17
357 1 62.5841 159.242 -4.05231e-17
358 1 171.992 180.771 -4.05231e-17
359 1 157.727 158.731 -4.05231e-17
360 1 73.9202 53.2571 -4.05231e-17
361 1 62.842 168.445 -4.05231e-17
362 1 169.146 200.946 -4.05231e-17
363 1 163.737 189.954 -4.05231e-17
364 2 116.626 92.8789 -4.05231e-17
365 1 178.712 90.7138 -4.05231e-17
366 1 117.19 161.262 -4.05231e-17
367 1 174.325 7.09069 -4.05231e-17
368 1 196.942 192.176 -4.05231e-17
369 2 115.545 187.931 -4.05231e-17
370 1 14.8434 206.281 -4.05231e-17
371 1 53.4121 137.339 -4.05231e-17
372 2 0.628505 93.6301 -4.05231e-17
373 2 212.753 7.81484 -4.05231e-17
374 1 151.462 88.4911 -4.05231e-17
375 1 37.3116 111.933 -4.05231e-17
376 1 16.6113 151.711 -4.05231e-17
377 1 28.6304 213.257 -4.05231e-17
378 1 74.5071 129.369 -4.05231e-17
379 1 43.0051 60.2548 -4.05231e-17
380 1 177.651 150.923 -4.05231e-17
381 1 13.6227 5.48292 -4.05231e-17
382 1 54.0915 67.2023 -4.05231e-17
383 1 169.752 67.2726 -4.05231e-17
384 1 21.8863 13.6885 -4.05231e-17
385 1 191.257 76.8917 -4.05231e-17
386 2 81.9512 44.2125 -4.05231e-17
387 1 144.087 18.9243 -4.05231e-17
388 1 56.3864 43.746 -4.05231e-17
389 1 206.715 158.868 -4.05231e-17
390 2 207.513 179.715 -4.05231e-17
391 2 35.7201 40.1519 -4.05231e-17
392 1 41.5901 218.09 -4.05231e-17
393 1 0.422927 33.5605 -4.05231e-17
394 1 102.528 101.078 -4.05231e-17
395 1 16.2369 27.3786 -4.05231e-17
396 1 202.563 153.627 -4.05231e-17
397 1 100.842 16.4545 -4.05231e-17
398 1 11.5926 191.357 -4.05231e-17
399 1 19.5946 59.3664 -4.05231e-17
400 1 103.59 179.657 -4.05231e-17
401 1 87.5032 176.848 -4.05231e-17
402 2 191.42 178.776 -4.05231e-17
403 1 214.271 53.9226 -4.05231e-17
404 1 36.1552 71.7239 -4.05231e-17
405 1 204.436 29.4634 -4.05231e-17
406 1 201.201 68.4443 -4.05231e-17
407 2 19.6086 62.5012 -4.05231e-17
408 1 34.3915 35.3523 -4.05231e-17
409 1 169.15 129.159 -4.05231e-17
410 1 19.8652 155.089 -4.05231e-17
411 1 151.992 160.587 -4.05231e-17
412 1 114.812 215.14 -4.05231e-17
413 1 63.4386 156.463 -4.05231e-17
414 1 38.315 13.7436 -4.05231e-17
415 1 207.801 148.002 -4.05231e-17
416 1 72.06 200.096 -4.05231e-17
417 1 141.239 93.8381 -4.05231e-17
418 2 184.545 7.61331 -4.05231e-17
419 1 108.408 149.621 -4.05231e-17
420 2 136.931 109.321 -4.05231e-17
421 1 88.0874 104.071 -4.05231e-17
422 1 176.221 23.6542 -4.05231e-17
423 2 157.898 41.2193 -4.05231e-17
424 1 157.349 149.447 -4.05231e-17
425 1 129.228 166.943 -4.05231e-17
426 1 132.995 113.176 -4.05231e-17
427 1 45.6483 84.4862 -4.05231e-17
428 1 71.8502 191.869 -4.05231e-17
429 1 194.742 83.0886 -4.05231e-17
430 1 215.391 59.8859 -4.05231e-17
431 1 120.325 206.434 -4.05231e-17
432 1 161.64 53.8811 -4.05231e-17
433 1 104.97 153.759 -4.05231e-17
434 1 71.6582 29.9601 -4.05231e-17
435 1 177.897 161.674 -4.05231e-17
436 1 42.6296 37.6421 -4.05231e-17
437 1 175.707 109.332 -4.05231e-17
438 2 109.69 21.9621 -4.05231e-17
439 1 67.2631 208.52 -4.05231e-17
440 1 3.54653 161.814 -4.05231e-17
441 1 192.813 131.167 -4.05231e-17
442 1 50.3437 13.6293 -4.05231e-17
443 1 158.167 104.648 -4.05231e-17
444 1 218.855 101.134 -4.05231e-17
445 1 139.233 7.30928 -4.05231e-17
446 1 131.827 79.0818 -4.05231e-17
447 1 38.4919 145.248 -4.05231e-17
448 1 75.8932 7.26001 -4.05231e-17
449 1 131.767 120.881 -4.05231e-17
450 1 139.992 188.034 -4.05231e-17
451 1 170.714 47.5343 -4.05231e-17
452 1 131.15 145.102 -4.05231e-17
453 1 179.199 182.245 -4.05231e-17
454 1 160.365 211.531 -4.05231e-17
455 1 100.246 71.6809 -4.05231e-17
456 1 167.11 27.0166 -4.05231e-17
457 1 97.996 113.11 -4.05231e-17
458 1 198.63 0.0873036 -4.05231e-17
459 1 81.0366 68.9586 -4.05231e-17
460 1 49.3347 102.361 -4.05231e-17
461 1 188.746 177.723 -4.05231e-17
462 1 182.098 116.02 -4.05231e-17
463 1 126.675 33.8179 -4.05231e-17
464 1 155.077 195.157 -4.05231e-17
465 1 121.714 159.94 -4.05231e-17
466 1 23.9405 214.058 -4.05231e-17
467 1 17.7504 79.9364 -4.05231e-17
468 1 161.411 218.714 -4.05231e-17
469 1 68.5335 77.623 -4.05231e-17
470 1 78.0392 37.9086 -4.05231e-17
471 1 128.783 174.159 -4.05231e-17
472 1 48.2276 83.3888 -4.05231e-17
473 1 26.7323 102.684 -4.05231e-17
474 1 88.4958 101.389 -4.05231e-17
475 1 184.928 163.516 -4.05231e-17
476 2 192.348 11.8018 -4.05231e-17
477 1 53.8139 84.8117 -4.05231e-17
478 1 58.6554 126.172 -4.05231e-17
479 1 201.902 80.4497 -4.05231e-17
480 1 85.051 23.1783 -4.05231e-17
481 1 15.2523 94.2572 -4.05231e-17
482 1 99.1816 159.862 -4.05231e-17
483 1 142.169 159.896 -4.05231e-17
484 2 87.4845 45.7062 -4.05231e-17
485 1 34.2943 100.439 -4.05231e-17
486 1 81.6298 17.3245 -4.05231e-17
487 1 100.965 196.519 -4.05231e-17
488 1 5.832 121.293 -4.05231e-17
489 1 211.37 134.902 -4.05231e-17
490 1 205.348 84.0359 -4.05231e-17
491 1 197.622 121.563 -4.05231e-17
492 1 2.73716 128.878 -4.05231e-17
493 1 193.6 210.765 -4.05231e-17
494 1 211.631 38.3758 -4.05231e-17
495 1 198.776 89.152 -4.05231e-17
496 2 43.817 189.373 -4.05231e-17
497 1 39.1976 217.23 -4.05231e-17
498 1 104.726 121.031 -4.05231e-17
499 2 136.818 216.371 -4.05231e-17
500 1 26.4749 29.9847 -4.05231e-17
501 2 112.236 216.973 -4.05231e-17
502 2 123.458 143.354 -4.05231e-17
503 1 147.437 184.097 -4.05231e-17
504 1 113.009 148.585 -4.05231e-17
505 1 118.158 18.9152 -4.05231e-17
506 1 26.0689 121.935 -4.05231e-17
507 1 14.5037 129.868 -4.05231e-17
508 1 196.503 217.409 -4.05231e-17
509 2 27.3957 75.5655 -4.05231e-17
510 2 146.234 133.84 -4.05231e-17
511 1 196.19 35.6818 -4.05231e-17
512 2 210.32 60.1584 -4.05231e-17
513 1 56.4586 127.968 -4.05231e-17
514 1 48.7419 18.7378 -4.05231e-17
515 1 204.316 25.3706 -4.05231e-17
516 1 182.927 206.084 -4.05231e-17
517 1 111.836 117.501 -4.05231e-17
518 2 103.279 20.4605 -4.05231e-17
519 1 11.8554 52.9657 -4.05231e-17
520 2 212.294 23.4145 -4.05231e-17
521 1 88.9153 111.129 -4.05231e-17
522 1 31.6145 30.4294 -4.05231e-17
523 1 24.786 68.0893 -4.05231e-17
524 1 100.105 74.6236 -4.05231e-17
525 1 174.943 121.055 -4.05231e-17
526 1 190.864 64.7721 -4.05231e-17
527 1 75.5986 4.54654 -4.05231e-17
528 1 168.77 29.1676 -4.05231e-17
529 1 56.9942 159.246 -4.05231e-17
530 1 100.29 31.7603 -4.05231e-17
531 1 66.2128 197.02 -4.05231e-17
532 1 206.74 188.157 -4.05231e-17
533 1 134.065 151.045 -4.05231e-17
534 1 97.1533 144.791 -4.05231e-17
535 1 14.5543 104.719 -4.05231e-17
536 1 203.888 117.83 -4.05231e-17
537 1 201.333 166.753 -4.05231e-17
538 1 168.801 80.7689 -4.05231e-17
539 1 89.1671 211.631 -4.05231e-17
540 1 102.771 88.6566 -4.05231e-17
541 1 40.9204 58.8244 -4.05231e-17
542 1 67.2126 211.104 -4.05231e-17
543 1 147.09 151.679 -4.05231e-17
544 1 128.992 200.556 -4.05231e-17
545 1 7.81839 149.341 -4.05231e-17
546 1 179.374 41.2803 -4.05231e-17
547 1 82.6707 172.13 -4.05231e-17
548 1 99.8947 8.82908 -4.05231e-17
549 1 51.4345 76.4831 -4.05231e-17
550 2 162.611 121.611 -4.05231e-17
551 2 134.46 157.86 -4.05231e-17
552 2 93.8846 180.352 -4.05231e-17
553 1 122.431 42.7537 -4.05231e-17
554 1 73.4964 101.904 -4.05231e-17
555 2 65.7975 124.112 -4.05231e-17
556 1 148.206 21.7378 -4.05231e-17
557 1 76.4581 12.3645 -4.05231e-17
558 1 148.087 125.779 -4.05231e-17
559 1 187.867 47.3504 -4.05231e-17
560 1 131.528 51.4308 -4.05231e-17
561 1 146.774 168.828 -4.05231e-17
562 1 195.51 144.541 -4.05231e-17
563 2 168.006 113.787 -4.05231e-17
564 1 42.0689 67.038 -4.05231e-17
565 1 60.2602 10.1747 -4.05231e-17
566 1 75.2734 34.1606 -4.05231e-17
567 1 150.554 111.05 -4.05231e-17
568 1 22.2196 114.535 -4.05231e-17
569 1 114.22 185.266 -4.05231e-17
570 1 124.887 124.547 -4.05231e-17
571 1 175.613 203.473 -4.05231e-17
572 1 61.809 112.046 -4.05231e-17
573 1 177.246 76.588 -4.05231e-17
574 1 41.4101 130.59 -4.05231e-17
575 1 22.2682 76.2422 -4.05231e-17
576 1 196.292 98.6089 -4.05231e-17
577 1 202.779 33.324 -4.05231e-17
578 1 123 196.528 -4.05231e-17
579 1 13.903 168.225 -4.05231e-17
580 1 102.84 139.184 -4.05231e-17
581 1 141.09 154.466 -4.05231e-17
582 1 75.9927 79.1667 -4.05231e-17
583 1 162.278 185.656 -4.05231e-17
584 2 28.8142 117.446 -4.05231e-17
585 1 48.5796 198.79 -4.05231e-17
586 1 137.922 170.954 -4.05231e-17
587 1 99.473 104.453 -4.05231e-17
588 1 17.263 2.11518 -4.05231e-17
589 1 103.22 17.3813 -4.05231e-17
590 1 70.492 218.779 -4.05231e-17
591 1 215.587 162.496 -4.05231e-17
592 1 55.7482 156.799 -4.05231e-17
593 1 209.339 181.94 -4.05231e-17
594 1 181.53 181.221 -4.05231e-17
595 1 83.1411 39.6477 -4.05231e-17
596 1 65.9034 35.9909 -4.05231e-17
597 2 180.519 204.439 -4.05231e-17
598 1 167.271 211.615 -4.05231e-17
599 1 208.129 171.464 -4.05231e-17
600 1 104.936 10.9011 -4.05231e-17
601 1 11.8594 134.891 -4.05231e-17
602 1 97.9064 30.9526 -4.05231e-17
603 1 207.89 202.679 -4.05231e-17
604 1 120.284 1.39352 -4.05231e-17
605 2 85.6665 77.6434 -4.05231e-17
606 1 102.898 201.991 -4.05231e-17
607 2 171.363 146.702 -4.05231e-17
608 1 95.1546 76.7472 -4.05231e-17
609 1 15.8625 6.62389 -4.05231e-17
610 1 214.321 150.528 -4.05231e-17
611 1 201.81 190.115 -4.05231e-17
612 1 218.209 37.9182 -4.05231e-17
613 1 58.521 151.345 -4.05231e-17
614 2 127.918 179.276 -4.05231e-17
615 1 105.821 18.3462 -4.05231e-17
616 1 202.093 130.709 -4.05231e-17
617 1 127.295 198.424 -4.05231e-17
618 1 201.364 211.782 -4.05231e-17
619 1 179.331 78.1693 -4.05231e-17
620 1 140.849 141.651 -4.05231e-17
621 1 197.247 93.7754 -4.05231e-17
622 1 95.5566 213.59 -4.05231e-17
623 1 218.664 12.2147 -4.05231e-17
624 1 23.7324 209.613 -4.05231e-17
625 1 204.672 154.77 -4.05231e-17
626 1 94.4841 191.006 -4.05231e-17
627 1 63.848 74.3723 -4.05231e-17
628 1 34.2269 28.4907 -4.05231e-17
629 1 10.5082 94.5994 -4.05231e-17
630 2 151.278 21.9504 -4.05231e-17
631 1 15.6267 86.3077 -4.05231e-17
632 1 49.2826 92.434 -4.05231e-17
633 1 38.7647 211.867 -4.05231e-17
634 1 1.16365 147.473 -4.05231e-17
635 1 155.301 151.152 -4.05231e-17
636 1 208.351 57.7397 -4.05231e-17
637 1 201.426 58.2004 -4.05231e-17
638 1 172.734 76.4326 -4.05231e-17
639 2 204.028 78.4587 -4.05231e-17
640 1 143.027 152.773 -4.05231e-17
641 1 193.039 85.0539 -4.05231e-17
642 1 32.3438 91.4323 -4.05231e-17
643 2 181.963 42.7508 -4.05231e-17
644 1 68.4432 155.634 -4.05231e-17
645 1 106.867 196.66 -4.05231e-17
646 2 211.646 141.639 -4.05231e-17
647 1 10.923 185.524 -4.05231e-17
648 1 132.711 103.533 -4.05231e-17
649 2 23.2721 151.337 -4.05231e-17
650 1 204.572 186.592 -4.05231e-17
651 1 218.887 113.272 -4.05231e-17
652 1 153.543 43.6894 -4.05231e-17
653 1 114.34 175.308 -4.05231e-17
654 1 23.3431 21.2804 -4.05231e-17
655 2 184.036 100.988 -4.05231e-17
656 1 28.1123 123.837 -4.05231e-17
657 2 79.1881 207.104 -4.05231e-17
658 1 53.9307 44.1064 -4.05231e-17
659 2 156.762 192.629 -4.05231e-17
660 1 102.086 55.6758 -4.05231e-17
661 1 42.9822 116.495 -4.05231e-17
662 1 81.307 130.501 -4.05231e-17
663 1 31.9606 25.4411 -4.05231e-17
664 1 146.535 18.1821 -4.05231e-17
665 1 140.016 75.2672 -4.05231e-17
666 2 47.6971 181.218 -4.05231e-17
667 1 93.2369 99.3818 -4.05231e-17
668 2 102.117 93.6489 -4.05231e-17
669 1 35.9369 17.6219 -4.05231e-17
670 1 96.2068 173.631 -4.05231e-17
671 2 53.692 176.383 -4.05231e-17
672 1 186.922 12.0347 -4.05231e-17
673 1 63.0366 19.3674 -4.05231e-17
674 1 2.35582 31.9671 -4.05231e-17
675 1 128.457 23.8652 -4.05231e-17
676 1 169.457 123.68 -4.05231e-17
677 1 131.567 174.706 -4.05231e-17
678 1 137.705 30.6274 -4.05231e-17
679 2 152.247 33.0348 -4.05231e-17
680 1 202.73 41.7737 -4.05231e-17
681 2 129.142 119.506 -4.05231e-17
682 1 0.368459 47.7191 -4.05231e-17
683 1 68.7435 3.98813 -4.05231e-17
684 1 120.066 154.897 -4.05231e-17
685 1 153.035 38.6793 -4.05231e-17
686 1 28.0122 194.102 -4.05231e-17
687 1 118.549 191.798 -4.05231e-17
688 1 162.797 110.375 -4.05231e-17
689 2 55.9503 46.4941 -4.05231e-17
690 1 69.9958 19.8089 -4.05231e-17
691 1 88.9494 66.0544 -4.05231e-17
692 1 130.807 8.24069 -4.05231e-17
693 1 48.2508 143.132 -4.05231e-17
694 1 76.1235 124.96 -4.05231e-17
695 1 146.05 38.2699 -4.05231e-17
696 1 146.616 81.7472 -4.05231e-17
697 1 139.876 201.651 -4.05231e-17
698 1 116.689 66.0753 -4.05231e-17
699 1 180.48 191.67 -4.05231e-17
700 1 205.728 209.415 -4.05231e-17
701 1 53.9122 16.6412 -4.05231e-17
702 1 113.207 128.952 -4.05231e-17
703 2 188.206 143.78 -4.05231e-17
704 1 29.3617 218.686 -4.05231e-17
705 2 68.9413 112.025 -4.05231e-17
706 1 165.78 177.204 -4.05231e-17
707 1 113.926 25.0465 -4.05231e-17
708 1 84.2137 209.053 -4.05231e-17
709 1 147.378 196.406 -4.05231e-17
710 1 192.261 191.343 -4.05231e-17
711 1 111.74 93.1047 -4.05231e-17
712 1 192.149 208.027 -4.05231e-17
713 1 14.0715 136.234 -4.05231e-17
714 1 135.711 13.3884 -4.05231e-17
715 1 56.0554 199.01 -4.05231e-17
716 1 40.159 123.097 -4.05231e-17
717 1 52.195 107.595 -4.05231e-17
718 1 130.863 185.169 -4.05231e-17
719 2 119.724 79.0444 -4.05231e-17
720 1 98.9609 64.7957 -4.05231e-17
721 1 95.7866 98.6697 -4.05231e-17
722 1 133.785 63.1763 -4.05231e-17
723 2 48.4412 45.609 -4.05231e-17
724 1 15.5539 49.3559 -4.05231e-17
725 1 29.5318 109.074 -4.05231e-17
726 1 189.829 45.9429 -4.05231e-17
727 1 148.416 205.53 -4.05231e-17
728 2 18.3801 87.7448 -4.05231e-17
729 1 134.238 164.95 -4.05231e-17
730 1 174.377 199.156 -4.05231e-17
731 1 48.9738 190.082 -4.05231e-17
732 1 218.559 9.52775 -4.05231e-17
733 1 205.417 34.3662 -4.05231e-17
734 1 3.87985 30.112 -4.05231e-17
735 1 40.8912 22.6464 -4.05231e-17
736 2 190.561 74.0428 -4.05231e-17
737 1 81.6475 86.4814 -4.05231e-17
738 1 18.2935 166.455 -4.05231e-17
739 1 105.71 156.458 -4.05231e-17
740 1 59.6983 116.54 -4.05231e-17
741 2 188.756 78.5045 -4.05231e-17
742 1 74.0573 43.7951 -4.05231e-17
743 1 203.056 66.6901 -4.05231e-17
744 2 210.884 172.706 -4.05231e-17
745 1 130.921 32.3615 -4.05231e-17
746 1 14.2221 29.0856 -4.05231e-17
747 2 204.352 22.3741 -4.05231e-17
748 1 182.777 192.81 -4.05231e-17
749 1 196.305 211.089 -4.05231e-17
750 1 213.131 163.55 -4.05231e-17
751 1 59.2284 58.8864 -4.05231e-17
752 1 178.066 105.606 -4.05231e-17
753 1 99.1623 150.763 -4.05231e-17
754 1 15.079 215.669 -4.05231e-17
755 1 83.5183 195.038 -4.05231e-17
756 2 103.997 195.753 -4.05231e-17
757 1 27.1334 18.4174 -4.05231e-17
758 1 135.501 146.151 -4.05231e-17
759 1 72.9358 107.361 -4.05231e-17
760 1 95.2111 40.0458 -4.05231e-17
761 1 58.2313 161.53 -4.05231e-17
762 1 43.5117 23.3077 -4.05231e-17
763 1 114.248 99.9413 -4.05231e-17
764 2 177.438 147.785 -4.05231e-17
765 1 91.9586 62.4275 -4.05231e-17
766 1 114.626 35.8565 -4.05231e-17
767 1 97.1815 78.4066 -4.05231e-17
768 1 9.3081 4.01518 -4.05231e-17
769 1 107.936 75.7707 -4.05231e-17
770 2 113.533 109.759 -4.05231e-17
771 1 143.415 179.175 -4.05231e-17
772 1 102.336 28.746 -4.05231e-17
773 1 109.215 167.34 -4.05231e-17
774 1 110.899 124.138 -4.05231e-17
775 1 68.7781 6.73843 -4.05231e-17
776 1 38.0788 11.1057 -4.05231e-17
777 1 108.163 181.73 -4.05231e-17
778 1 22.8656 18.8281 -4.05231e-17
779 1 191.893 44.2418 -4.05231e-17
780 1 3.45145 169.373 -4.05231e-17
781 1 127.651 100.623 -4.05231e-17
782 1 175.551 49.4256 -4.05231e-17
783 1 98.2439 15.2645 -4.05231e-17
784 2 194.912 159.262 -4.05231e-17
785 1 110.814 165.423 -4.05231e-17
786 1 119.303 177.306 -4.05231e-17
787 1 185.475 74.9284 -4.05231e-17
788 1 177.357 45.2966 -4.05231e-17
789 2 143.265 109.32 -4.05231e-17
790 1 109.594 28.3041 -4.05231e-17
791 2 14.6516 121.912 -4.05231e-17
792 2 215.894 13.4502 -4.05231e-17
793 2 115.975 68.8734 -4.05231e-17
794 1 56.1293 188.681 -4.05231e-17
795 1 132.585 53.6454 -4.05231e-17
796 1 130.624 22.1805 -4.05231e-17
797 1 197.814 155.418 -4.05231e-17
798 2 195.722 203.963 -4.05231e-17
799 2 207.659 65.0417 -4.05231e-17
800 2 55.7798 217.05 -4.05231e-17
801 1 102.375 131.969 -4.05231e-17
802 1 124.857 75.8188 -4.05231e-17
803 1 182.031 68.4505 -4.05231e-17
804 2 122.949 204.912 -4.05231e-17
805 1 45.1422 106.539 -4.05231e-17
806 1 11.9591 116.986 -4.05231e-17
807 2 100.556 99.1325 -4.05231e-17
808 1 14.6638 116.612 -4.05231e-17
809 2 57.7511 134.344 -4.05231e-17
810 1 129.734 197.997 -4.05231e-17
811 1 32.6278 5.938 -4.05231e-17
812 1 131.919 34.7078 -4.05231e-17
813 2 107.917 110.946 -4.05231e-17
814 1 147.22 69.2691 -4.05231e-17
815 1 89.0095 164.294 -4.05231e-17
816 1 200.67 9.92052 -4.05231e-17
817 1 108.222 214.436 -4.05231e-17
818 1 57.9406 101.662 -4.05231e-17
819 1 9.52239 135.992 -4.05231e-17
820 1 45.3284 120.368 -4.05231e-17
821 1 94.3838 151.803 -4.05231e-17
822 2 41.3229 135.914 -4.05231e-17
823 2 138.946 91.9651 -4.05231e-17
824 1 35.0669 107.663 -4.05231e-17
825 1 65.0536 15.163 -4.05231e-17
826 1 190.5 14.0725 -4.05231e-17
827 1 193.053 107.464 -4.05231e-17
828 1 142.288 123.631 -4.05231e-17
829 1 127.219 210.911 -4.05231e-17
830 1 81.3988 127.826 -4.05231e-17
831 1 217.454 42.7415 -4.05231e-17
832 1 93.2115 87.085 -4.05231e-17
833 1 62.1237 84.3642 -4.05231e-17
834 1 107.02 9.18102 -4.05231e-17
835 1 58.3845 218.173 -4.05231e-17
836 1 10.866 50.5105 -4.05231e-17
837 1 7.06309 70.7067 -4.05231e-17
838 1 98.2204 178.466 -4.05231e-17
839 2 198.233 3.1421 -4.05231e-17
840 1 4.65241 202.486 -4.05231e-17
841 2 62.9895 184.923 -4.05231e-17
842 1 94.8077 91.5325 -4.05231e-17
843 2 159.374 182.945 -4.05231e-17
844 1 25.6375 158.769 -4.05231e-17
845 1 71.3987 189.003 -4.05231e-17
846 1 159.182 190.689 -4.05231e-17
847 1 41.9241 141.004 -4.05231e-17
848 1 188.41 117.05 -4.05231e-17
849 1 189.188 166.611 -4.05231e-17
850 1 39.6209 129.032 -4.05231e-17
851 1 89.4672 37.6452 -4.05231e-17
852 1 11.2432 209.064 -4.05231e-17
853 1 31.6407 138.977 -4.05231e-17
854 1 171.358 84.5808 -4.05231e-17
855 1 126.002 19.9664 -4.05231e-17
856 1 210.131 169.87 -4.05231e-17
857 1 68.2179 175.804 -4.05231e-17