ITEM: TIMESTEP
0
ITEM: NUMBER OF ATOMS
7200
ITEM: BOX BOUNDS xy xz yz pp pp pp
0.0000000000000000e+00 2.1900000000000000e+02 0.0000000000000000e+00
0.0000000000000000e+00 2.1900000000000000e+02 0.0000000000000000e+00
-3.6499999999999999e-01 3.6499999999999999e-01 0.0000000000000000e+00
ITEM: ATOMS id type x y z
1 1 67.9294 134.844 -4.05231e-17
2 1 183.368 108.461 -4.05231e-17
3 1 13.7216 158.672 -4.05231e-17
4 1 3.81795 86.4737 -4.05231e-17
5 1 215.64 157.263 -4.05231e-17
6 1 117.124 210.767 -4.05231e-17
7 1 42.0844 51.7734 -4.05231e-17
8 2 149.21 82.9586 -4.05231e-17
9 1 203.069 9.81352 -4.05231e-17
10 2 57.8752 193.464 -4.05231e-17
11 1 114.66 14.8758 -4.05231e-17
12 1 129.354 78.1384 -4.05231e-17
13 2 51.2583 79.1337 -4.05231e-17
14 1 65.5083 18.1757 -4.05231e-17
15 1 137.049 105.353 -4.05231e-17
16 2 61.2048 172.6 -4.05231e-17
17 1 113.984 30.9378 -4.05231e-17
18 2 31.7176 78.7141 -4.05231e-17
19 1 106.876 52.5885 -4.05231e-17
20 1 144.37 103.148 -4.05231e-17
21 1 42.1877 5.57401 -4.05231e-17
22 2 49.9603 147.614 -4.05231e-17
23 2 17.1721 54.5844 -4.05231e-17
24 1 159.315 99.4639 -4.05231e-17
25 1 75.9102 182.662 -4.05231e-17
26 2 86.4899 96.8034 -4.05231e-17
27 1 155.449 174.311 -4.05231e-17
28 2 22.5577 156.574 -4.05231e-17
29 1 53.2392 46.8848 -4.05231e-17
30 1 139.605 88.0841 -4.05231e-17
31 1 211.571 90.6142 -4.05231e-17
32 1 57.9742 104.516 -4.05231e-17
33 1 157.334 154.345 -4.05231e-17
34 1 61.2852 77.6469 -4.05231e-17
35 1 177.62 68.6734 -4.05231e-17
36 1 61.4922 75.1199 -4.05231e-17
37 2 136.561 140.64 -4.05231e-17
38 1 198.097 74.5721 -4.05231e-17
39 1 122.134 138.031 -4.05231e-17
40 1 165.496 164.135 -4.05231e-17
41 1 120.637 182.284 -4.05231e-17
42 1 103.034 36.4253 -4.05231e-17
43 1 135.303 60.7608 -4.05231e-17
44 1 107.032 23.5056 -4.05231e-17
45 1 214.888 84.5912 -4.05231e-17
46 1 28.1955 203.473 -4.05231e-17
47 1 89.0101 172.484 -4.05231e-17
48 2 47.5496 86.6543 -4.05231e-17
49 1 76.9583 110.602 -4.05231e-17
50 1 46.3446 197.954 -4.05231e-17
51 1 181.158 34.4495 -4.05231e-17
52 1 204.042 132.694 -4.05231e-17
53 1 156.745 27.341 -4.05231e-17
54 1 24.2458 119.303 -4.05231e-17
55 1 22.9839 48.3087 -4.05231e-17
56 1 117.648 140.096 -4.05231e-17
57 2 67.8895 214.717 -4.05231e-17
58 1 32.6863 40.6586 -4.05231e-17
59 1 28.9284 152.23 -4.05231e-17
60 2 151.897 147.034 -4.05231e-17
61 2 35.923 202.945 -4.05231e-17
62 1 10.6063 162.28 -4.05231e-17
63 1 111.765 198.142 -4.05231e-17
64 1 133.835 39.5039 -4.05231e-17
65 1 214.255 114.203 -4.05231e-17
66 1 129.439 134.286 -4.05231e-17
67 1 95.9369 139.829 -4.05231e-17
68 1 66.8996 116.675 -4.05231e-17
69 1 140.907 174.121 -4.05231e-17
70 1 58.9906 111.415 -4.05231e-17
71 1 7.81382 125.987 -4.05231e-17
72 1 171.876 60.342 -4.05231e-17
73 1 187.872 185.64 -4.05231e-17
74 1 206.903 21.4767 -4.05231e-17
75 2 93.543 1.30571 -4.05231e-17
76 1 17.7009 4.6096 -4.05231e-17
77 1 36.4563 24.4963 -4.05231e-17
78 1 124.61 117.155 -4.05231e-17
79 2 126.225 1.20233 -4.05231e-17
80 1 75.0294 106.343 -4.05231e-17
81 1 110.606 141.002 -4.05231e-17
82 1 53.9062 141.586 -4.05231e-17
83 2 129.817 182.347 -4.05231e-17
84 1 179.878 80.6024 -4.05231e-17
85 1 22.2089 41.3978 -4.05231e-17
86 1 128.345 142.208 -4.05231e-17
87 1 217.24 217.172 -4.05231e-17
88 1 19.1887 34.6932 -4.05231e-17
89 2 44.1212 3.53469 -4.05231e-17
90 2 190.55 187.249 -4.05231e-17
91 1 149.833 90.3253 -4.05231e-17
92 2 169.111 21.2084 -4.05231e-17
93 1 141.21 15.1285 -4.05231e-17
94 2 201.772 12.5601 -4.05231e-17
95 1 33.3327 194.967 -4.05231e-17
96 1 130.546 95.389 -4.05231e-17
97 1 97.0432 4.81891 -4.05231e-17
98 1 125.598 55.1788 -4.05231e-17
99 1 178.227 21.5754 -4.05231e-17
100 1 176.104 8.95622 -4.05231e-17
101 1 114.222 12.4807 -4.05231e-17
102 1 24.7745 46.4082 -4.05231e-17
103 1 58.287 80.6209 -4.05231e-17
104 1 68.8791 109.304 -4.05231e-17
105 1 142.347 201.439 -4.05231e-17
106 1 78.0702 102.81 -4.05231e-17
107 2 146.348 101.225 -4.05231e-17
108 1 36.5325 210.68 -4.05231e-17
109 1 54.7884 89.0246 -4.05231e-17
110 1 108.201 63.1054 -4.05231e-17
111 1 60.9621 21.1208 -4.05231e-17
112 1 95.0807 137.374 -4.05231e-17
113 1 99.4652 43.8978 -4.05231e-17
114 1 158.572 23.0948 -4.05231e-17
115 1 51.2395 163.099 -4.05231e-17
116 2 214.451 133.748 -4.05231e-17
117 1 201.425 216.122 -4.05231e-17
118 1 165.263 67.8949 -4.05231e-17
119 2 58.1082 99.0172 -4.05231e-17
120 1 53.4637 199.744 -4.05231e-17
121 1 152.225 83.5983 -4.05231e-17
122 1 102.711 14.7169 -4.05231e-17
123 1 136.866 75.9019 -4.05231e-17
124 1 154.69 201.432 -4.05231e-17
125 1 141.529 117.711 -4.05231e-17
126 1 111.787 65.6144 -4.05231e-17
127 1 164.199 77.9753 -4.05231e-17
128 1 175.483 136.413 -4.05231e-17
129 1 7.82032 104.406 -4.05231e-17
130 1 83.9316 128.957 -4.05231e-17
131 1 175.431 152.308 -4.05231e-17
132 2 183.202 2.16055 -4.05231e-17
133 1 127.16 79.567 -4.05231e-17
134 1 35.503 86.3506 -4.05231e-17
135 1 78.2623 8.58133 -4.05231e-17
136 1 210.459 201.573 -4.05231e-17
137 1 102.001 136.841 -4.05231e-17
138 1 50.5982 212.231 -4.05231e-17
139 1 202.499 105.574 -4.05231e-17
140 2 141.705 186.282 -4.05231e-17
141 1 205.93 96.7005 -4.05231e-17
142 2 212.023 48.7652 -4.05231e-17
143 1 111.257 80.7371 -4.05231e-17
144 2 43.4856 199.29 -4.05231e-17
145 1 172.642 102.94 -4.05231e-17
146 1 99.8964 120.046 -4.05231e-17
147 1 154.498 145.81 -4.05231e-17
148 1 6.50919 200.776 -4.05231e-17
149 1 68.0821 21.7218 -4.05231e-17
150 1 54.117 37.2493 -4.05231e-17
151 1 26.158 112.732 -4.05231e-17
152 1 63.1964 105.021 -4.05231e-17
153 2 52.3563 6.30071 -4.05231e-17
154 1 149.253 94.3801 -4.05231e-17
155 1 107.849 16.8093 -4.05231e-17
156 2 71.7149 116.098 -4.05231e-17
157 1 207.667 104.95 -4.05231e-17
158 1 29.1772 28.9815 -4.05231e-17
159 1 22.4506 135.895 -4.05231e-17
160 1 11.8228 201.363 -4.05231e-17
161 1 1.48334 7.89031 -4.05231e-17
162 1 127.571 127.412 -4.05231e-17
163 1 17.9501 32.4447 -4.05231e-17
164 1 167.284 52.9325 -4.05231e-17
165 1 125.044 121.65 -4.05231e-17
166 2 159.498 60.8668 -4.05231e-17
167 1 175.218 46.766 -4.05231e-17
168 1 149.154 169.47 -4.05231e-17
169 1 2.04109 101.978 -4.05231e-17
170 1 94.9641 168.533 -4.05231e-17
171 1 146.904 60.9588 -4.05231e-17
172 1 218.493 17.1081 -4.05231e-17
173 1 45.9058 143.321 -4.05231e-17
174 1 131.155 62.7592 -4.05231e-17
175 2 137.389 160.852 -4.05231e-17
176 1 109.851 70.9306 -4.05231e-17
177 2 70.5963 56.8428 -4.05231e-17
178 1 65.6321 87.0217 -4.05231e-17
179 1 173.16 163.664 -4.05231e-17
180 1 203.528 197.199 -4.05231e-17
181 1 134.765 167.58 -4.05231e-17
182 2 77.2088 21.0511 -4.05231e-17
183 1 76.9783 164.179 -4.05231e-17
184 1 176.176 86.7526 -4.05231e-17
185 2 175.319 20.5734 -4.05231e-17
186 2 209.083 133.803 -4.05231e-17
187 1 93.066 29.2231 -4.05231e-17
188 1 102.46 170.46 -4.05231e-17
189 1 123.362 174.801 -4.05231e-17
190 2 13.6477 161.644 -4.05231e-17
191 1 77.6332 157.365 -4.05231e-17
192 2 63.5957 110.186 -4.05231e-17
193 2 79.9208 172.513 -4.05231e-17
194 1 32.8615 149.628 -4.05231e-17
195 1 145.097 163.574 -4.05231e-17
196 1 168.451 191.796 -4.05231e-17
197 1 74.2417 70.0151 -4.05231e-17
198 2 10.0407 133.05 -4.05231e-17
199 1 210.661 56.9515 -4.05231e-17
200 1 80.2413 6.87359 -4.05231e-17
201 2 71.6265 110.138 -4.05231e-17
202 1 52.8379 210.838 -4.05231e-17
203 1 175.644 81.6665 -4.05231e-17
204 1 188.365 156.455 -4.05231e-17
205 2 191.971 82.6255 -4.05231e-17
206 1 89.4211 133.127 -4.05231e-17
207 1 105.702 29.9698 -4.05231e-17
208 1 32.8165 86.2302 -4.05231e-17
209 1 81.6739 2.58988 -4.05231e-17
210 1 7.90712 64.5883 -4.05231e-17
211 2 146.449 156.658 -4.05231e-17
212 1 120.457 112.59 -4.05231e-17
213 1 134.829 104.014 -4.05231e-17
214 1 74.4663 14.4126 -4.05231e-17
215 1 74.3435 201.579 -4.05231e-17
216 1 193.63 139.024 -4.05231e-17
217 1 126.531 187.036 -4.05231e-17
218 2 28.9941 168.394 -4.05231e-17
219 1 155.432 213.88 -4.05231e-17
220 2 107.29 55.5628 -4.05231e-17
221 1 212.978 56.0313 -4.05231e-17
222 1 143.68 146.295 -4.05231e-17
223 1 52.4872 208.191 -4.05231e-17
224 2 10.0712 188.515 -4.05231e-17
225 1 201.445 142.301 -4.05231e-17
226 1 138.791 190.193 -4.05231e-17
227 2 51.0259 17.1367 -4.05231e-17
228 1 138.825 77.5011 -4.05231e-17
229 1 60.8238 135.824 -4.05231e-17
230 1 158.822 131.194 -4.05231e-17
231 1 148.529 122.689 -4.05231e-17
232 1 1.14013 90.7839 -4.05231e-17
233 1 109.787 100.417 -4.05231e-17
234 1 133.58 216.213 -4.05231e-17
235 1 20.8863 143.358 -4.05231e-17
236 1 46.3563 81.614 -4.05231e-17
237 1 198.728 8.29078 -4.05231e-17
238 1 147.913 128.046 -4.05231e-17
239 2 17.5948 112.329 -4.05231e-17
240 1 99.3644 5.93586 -4.05231e-17
241 2 187.682 14.719 -4.05231e-17
242 2 198.368 37.0707 -4.05231e-17
243 2 114.488 27.8251 -4.05231e-17
244 1 97.3257 7.44845 -4.05231e-17
245 1 84.4751 58.884 -4.05231e-17
246 1 126.152 119.204 -4.05231e-17
247 1 210.929 98.7937 -4.05231e-17
248 1 94.4848 4.00625 -4.05231e-17
249 1 23.1417 65.786 -4.05231e-17
250 2 149.788 29.696 -4.05231e-17
251 1 153.47 212.297 -4.05231e-17
252 1 195.439 64.1276 -4.05231e-17
253 1 94.3932 61.3469 -4.05231e-17
254 2 76.8263 197.297 -4.05231e-17
255 1 212.475 148.796 -4.05231e-17
256 1 84.7747 165.714 -4.05231e-17
257 1 212.124 151.378 -4.05231e-17
258 2 164.307 27.8238 -4.05231e-17
259 1 58.3463 165.777 -4.05231e-17
260 1 127.359 11.6409 -4.05231e-17
261 1 184.883 13.756 -4.05231e-17
262 1 53.2569 52.5531 -4.05231e-17
263 1 12.6134 213.506 -4.05231e-17
264 1 172.422 42.9554 -4.05231e-17
265 1 166.403 22.5881 -4.05231e-17
266 1 155.548 9.75848 -4.05231e-17
267 1 2.83515 64.5149 -4.05231e-17
268 1 21.6894 35.2604 -4.05231e-17
269 1 125.822 94.8335 -4.05231e-17
270 1 141.212 106.151 -4.05231e-17
271 1 12.7145 92.9615 -4.05231e-17
272 1 159.19 201.942 -4.05231e-17
273 1 40.9095 169.028 -4.05231e-17
274 2 113.118 88.0843 -4.05231e-17
275 1 64.2923 5.0049 -4.05231e-17
276 2 53.9338 32.2343 -4.05231e-17
277 2 166.965 121.8 -4.05231e-17
278 1 38.6414 101.332 -4.05231e-17
279 2 109.609 205.011 -4.05231e-17
280 1 60.0785 31.9238 -4.05231e-17
281 1 147.27 28.4815 -4.05231e-17
282 1 164.832 8.07957 -4.05231e-17
283 1 113.244 141.618 -4.05231e-17
284 1 136.472 165.736 -4.05231e-17
285 1 36.0005 12.5237 -4.05231e-17
286 2 34.0132 215.007 -4.05231e-17
287 1 82.7512 135.413 -4.05231e-17
288 1 21.3807 57.5712 -4.05231e-17
289 1 71.4257 53.9522 -4.05231e-17
290 1 150.901 193.432 -4.05231e-17
291 1 158.577 144.823 -4.05231e-17
292 2 20.0561 180.916 -4.05231e-17
293 2 65.6741 194.341 -4.05231e-17
294 1 111.987 40.366 -4.05231e-17
295 1 124.95 47.8319 -4.05231e-17
296 1 135.056 41.9213 -4.05231e-17
297 1 118.894 145.35 -4.05231e-17
298 1 104.748 198.901 -4.05231e-17
299 1 160.377 106.225 -4.05231e-17
300 2 62.1937 95.09 -4.05231e-17
301 1 58.9923 46.014 -4.05231e-17
302 1 126.67 192.964 -4.05231e-17
303 2 198.757 60.0814 -4.05231e-17
304 2 144.926 129.622 -4.05231e-17
305 1 86.3126 99.7202 -4.05231e-17
306 1 51.0707 73.7685 -4.05231e-17
307 1 35.1458 122.482 -4.05231e-17
308 1 161.94 59.0231 -4.05231e-17
309 2 73.4748 184.41 -4.05231e-17
310 1 194.137 215.45 -4.05231e-17
311 1 79.9774 33.8509 -4.05231e-17
312 1 192.185 147.934 -4.05231e-17
313 2 147.603 66.2255 -4.05231e-17
314 1 51.9178 135.327 -4.05231e-17
315 1 111.323 150.701 -4.05231e-17
316 1 72.6722 1.01615 -4.05231e-17
317 1 13.7733 99.3964 -4.05231e-17
318 1 100.137 215.195 -4.05231e-17
319 1 50.9704 33.5272 -4.05231e-17
320 1 144.413 99.1278 -4.05231e-17
321 1 88.3558 204.015 -4.05231e-17
322 1 143.221 140.546 -4.05231e-17
323 1 188.571 107.998 -4.05231e-17
324 1 81.3332 26.9869 -4.05231e-17
325 1 162.998 139.424 -4.05231e-17
326 1 85.2889 152.004 -4.05231e-17
327 2 149.642 186.104 -4.05231e-17
328 1 167.676 40.2967 -4.05231e-17
329 2 47.3094 115.763 -4.05231e-17
330 1 24.2066 102.03 -4.05231e-17
331 1 174.525 175.671 -4.05231e-17
332 2 112.836 104.524 -4.05231e-17
333 1 44.4551 17.8674 -4.05231e-17
334 1 139.661 169.012 -4.05231e-17
335 1 12.4799 206.361 -4.05231e-17
336 1 212.797 106.47 -4.05231e-17
337 1 103.192 182.428 -4.05231e-17
338 1 159.537 57.8232 -4.05231e-17
339 1 109.342 217.309 -4.05231e-17
340 1 153.433 141.529 -4.05231e-17
341 1 160.202 158.502 -4.05231e-17
342 1 128.965 144.714 -4.05231e-17
343 1 127.558 29.3522 -4.05231e-17
344 1 63.7724 181.998 -4.05231e-17
345 1 60.7942 109.686 -4.05231e-17
346 1 9.59354 127.596 -4.05231e-17
347 1 92.3096 92.4657 -4.05231e-17
348 1 163.716 178.89 -4.05231e-17
349 1 193.487 75.5894 -4.05231e-17
350 2 90.192 40.9627 -4.05231e-17
351 1 155.03 65.9656 -4.05231e-17
352 1 61.1834 182.755 -4.05231e-17
353 1 39.5946 166.555 -4.05231e-17
354 1 167.703 161.256 -4.05231e-17
355 1 58.5219 156.709 -4.05231e-17
356 1 23.8771 36.3649 -4.05231e-17
357 1 62.7119 158.672 -4.05231e-17
358 1 172 180.583 -4.05231e-17
359 1 157.726 158.823 -4.05231e-17
360 1 74.1749 53.3139 -4.05231e-17
361 1 63.013 168.015 -4.05231e-17
362 1 169.176 200.835 -4.05231e-17
363 1 163.459 189.639 -4.05231e-17
364 2 116.535 92.7253 -4.05231e-17
365 1 178.931 90.7552 -4.05231e-17
366 1 117.452 161.143 -4.05231e-17
367 1 174.282 7.01266 -4.05231e-17
368 1 196.896 192.268 -4.05231e-17
369 2 115.153 188.307 -4.05231e-17
370 1 15.1432 205.885 -4.05231e-17
371 1 53.683 137.033 -4.05231e-17
372 2 0.262106 94.0496 -4.05231e-17
373 2 212.623 7.83898 -4.05231e-17
374 1 151.322 88.0372 -4.05231e-17
375 1 37.2212 111.999 -4.05231e-17
376 1 16.2474 152.922 -4.05231e-17
377 1 28.7613 213.075 -4.05231e-17
378 1 74.8956 129.594 -4.05231e-17
379 1 42.7886 60.6533 -4.05231e-17
380 1 177.652 150.985 -4.05231e-17
381 1 13.6491 5.33672 -4.05231e-17
382 1 54.267 67.3073 -4.05231e-17
383 1 169.81 67.2284 -4.05231e-17
384 1 21.9377 13.8238 -4.05231e-17
385 1 191.582 77.1163 -4.05231e-17
386 2 81.8914 44.3337 -4.05231e-17
387 1 144.222 19.0349 -4.05231e-17
388 1 56.4069 43.7309 -4.05231e-17
389 1 206.469 159.131 -4.05231e-17
390 2 207.028 179.634 -4.05231e-17
391 2 35.7486 40.4591 -4.05231e-17
392 1 41.7693 218.203 -4.05231e-17
393 1 0.33134 33.168 -4.05231e-17
394 1 102.386 101.392 -4.05231e-17
395 1 16.3026 27.239 -4.05231e-17
396 1 202.658 153.848 -4.05231e-17
397 1 100.725 16.3645 -4.05231e-17
398 1 11.3271 191.077 -4.05231e-17
399 1 19.1667 59.42 -4.05231e-17
400 1 103.379 179.914 -4.05231e-17
401 1 87.8638 176.781 -4.05231e-17
402 2 191.246 179.123 -4.05231e-17
403 1 214.154 53.7231 -4.05231e-17
404 1 35.9269 71.7549 -4.05231e-17
405 1 204.107 29.2501 -4.05231e-17
406 1 201.283 68.2832 -4.05231e-17
407 2 19.0105 62.7158 -4.05231e-17
408 1 34.1181 35.7886 -4.05231e-17
409 1 168.947 128.85 -4.05231e-17
410 1 20.2834 154.917 -4.05231e-17
411 1 151.96 160.602 -4.05231e-17
412 1 114.762 215.278 -4.05231e-17
413 1 63.6926 156.23 -4.05231e-17
414 1 38.3601 13.6604 -4.05231e-17
415 1 207.934 148.148 -4.05231e-17
416 1 72.0776 200.088 -4.05231e-17
417 1 141.2 93.7137 -4.05231e-17
418 2 184.46 7.36747 -4.05231e-17
419 1 108.641 149.937 -4.05231e-17
420 2 136.976 108.898 -4.05231e-17
421 1 87.9136 104.009 -4.05231e-17
422 1 176.202 23.5002 -4.05231e-17
423 2 158.053 41.0562 -4.05231e-17
424 1 157.1 149.292 -4.05231e-17
425 1 129.167 167.02 -4.05231e-17
426 1 133.604 112.783 -4.05231e-17
427 1 45.6083 84.4215 -4.05231e-17
428 1 71.2503 191.898 -4.05231e-17
429 1 194.843 83.1757 -4.05231e-17
430 1 215.304 59.8721 -4.05231e-17
431 1 119.991 206.452 -4.05231e-17
432 1 161.634 53.696 -4.05231e-17
433 1 105.067 153.849 -4.05231e-17
434 1 71.4689 30.3897 -4.05231e-17
435 1 177.911 161.448 -4.05231e-17
436 1 44.4837 36.4902 -4.05231e-17
437 1 175.599 109.452 -4.05231e-17
438 2 109.516 21.6903 -4.05231e-17
439 1 67.1906 208.927 -4.05231e-17
440 1 3.33712 162.009 -4.05231e-17
441 1 192.768 131.495 -4.05231e-17
442 1 50.6217 13.9116 -4.05231e-17
443 1 158.259 104.548 -4.05231e-17
444 1 218.507 101.339 -4.05231e-17
445 1 139.662 7.38482 -4.05231e-17
446 1 131.898 79.1324 -4.05231e-17
447 1 39.004 145.114 -4.05231e-17
448 1 75.8352 7.59984 -4.05231e-17
449 1 131.638 120.478 -4.05231e-17
450 1 139.523 187.907 -4.05231e-17
451 1 170.614 47.0076 -4.05231e-17
452 1 131.361 145.069 -4.05231e-17
453 1 179.108 182.166 -4.05231e-17
454 1 159.981 211.615 -4.05231e-17
455 1 100.214 71.9708 -4.05231e-17
456 1 167.114 27.1414 -4.05231e-17
457 1 97.9082 113.431 -4.05231e-17
458 1 198.456 218.994 -4.05231e-17
459 1 81.388 69.0614 -4.05231e-17
460 1 48.8935 102.4 -4.05231e-17
461 1 188.593 177.825 -4.05231e-17
462 1 181.614 115.559 -4.05231e-17
463 1 126.683 33.5885 -4.05231e-17
464 1 154.852 195.072 -4.05231e-17
465 1 121.709 160.006 -4.05231e-17
466 1 24.0222 213.781 -4.05231e-17
467 1 17.3042 80.1544 -4.05231e-17
468 1 161.33 218.666 -4.05231e-17
469 1 68.5968 77.8876 -4.05231e-17
470 1 78.1623 38.0883 -4.05231e-17
471 1 128.862 174.547 -4.05231e-17
472 1 48.0425 83.4756 -4.05231e-17
473 1 26.6186 102.815 -4.05231e-17
474 1 88.4805 101.203 -4.05231e-17
475 1 184.92 163.429 -4.05231e-17
476 2 192.101 11.7263 -4.05231e-17
477 1 53.7754 84.5353 -4.05231e-17
478 1 58.5952 126.028 -4.05231e-17
479 1 201.912 80.5695 -4.05231e-17
480 1 85.3237 23.7829 -4.05231e-17
481 1 14.9393 94.5476 -4.05231e-17
482 1 99.6058 159.952 -4.05231e-17
483 1 142.179 160.062 -4.05231e-17
484 2 87.5325 46.0649 -4.05231e-17
485 1 34.0683 100.827 -4.05231e-17
486 1 81.7463 17.4438 -4.05231e-17
487 1 100.685 196.967 -4.05231e-17
488 1 5.95863 121.502 -4.05231e-17
489 1 211.789 134.8 -4.05231e-17
490 1 205.236 84.0232 -4.05231e-17
491 1 197.565 121.334 -4.05231e-17
492 1 2.82284 129.067 -4.05231e-17
493 1 193.796 210.539 -4.05231e-17
494 1 211.167 38.2252 -4.05231e-17
495 1 198.872 89.472 -4.05231e-17
496 2 43.955 189.386 -4.05231e-17
497 1 39.2685 216.907 -4.05231e-17
498 1 105.075 120.979 -4.05231e-17
499 2 136.501 216.506 -4.05231e-17
500 1 26.4977 30.0639 -4.05231e-17
501 2 112.52 217.029 -4.05231e-17
502 2 123.594 143.144 -4.05231e-17
503 1 146.997 183.906 -4.05231e-17
504 1 113.025 148.716 -4.05231e-17
505 1 117.871 18.5693 -4.05231e-17
506 1 25.9648 121.74 -4.05231e-17
507 1 14.7635 129.882 -4.05231e-17
508 1 196.307 217.175 -4.05231e-17
509 2 27.1304 75.7177 -4.05231e-17
510 2 146.354 133.554 -4.05231e-17
511 1 195.977 35.405 -4.05231e-17
512 2 210.351 59.9755 -4.05231e-17
513 1 56.3258 127.479 -4.05231e-17
514 1 48.8046 19.1382 -4.05231e-17
515 1 204.048 25.0743 -4.05231e-17
516 1 182.657 205.909 -4.05231e-17
517 1 111.985 117.421 -4.05231e-17
518 2 103.451 20.3643 -4.05231e-17
519 1 11.7245 52.8176 -4.05231e-17
520 2 212.072 22.9966 -4.05231e-17
521 1 88.8722 110.96 -4.05231e-17
522 1 31.5204 30.5427 -4.05231e-17
523 1 24.5081 68.1026 -4.05231e-17
524 1 99.7302 74.6899 -4.05231e-17
525 1 174.93 121.19 -4.05231e-17
526 1 191.099 64.7466 -4.05231e-17
527 1 75.2531 4.86166 -4.05231e-17
528 1 168.826 29.0908 -4.05231e-17
529 1 56.6805 158.75 -4.05231e-17
530 1 100.544 32.1152 -4.05231e-17
531 1 66.5151 197.185 -4.05231e-17
532 1 206.532 188.312 -4.05231e-17
533 1 134.052 150.979 -4.05231e-17
534 1 97.3554 144.806 -4.05231e-17
535 1 14.4243 104.952 -4.05231e-17
536 1 203.569 117.726 -4.05231e-17
537 1 201.183 166.621 -4.05231e-17
538 1 169.198 80.7921 -4.05231e-17
539 1 89.0252 211.881 -4.05231e-17
540 1 103.263 88.7943 -4.05231e-17
541 1 40.458 59.0621 -4.05231e-17
542 1 67.0095 211.546 -4.05231e-17
543 1 147.044 152.014 -4.05231e-17
544 1 128.653 200.534 -4.05231e-17
545 1 8.20433 149.759 -4.05231e-17
546 1 179.317 41.1983 -4.05231e-17
547 1 82.6745 172.164 -4.05231e-17
548 1 99.7304 8.63325 -4.05231e-17
549 1 51.5167 76.3215 -4.05231e-17
550 2 162.448 121.384 -4.05231e-17
551 2 134.358 157.864 -4.05231e-17
552 2 93.9235 180.671 -4.05231e-17
553 1 122.401 42.4229 -4.05231e-17
554 1 73.4569 101.817 -4.05231e-17
555 2 65.8995 124.058 -4.05231e-17
556 1 148.478 21.7744 -4.05231e-17
557 1 76.5627 12.8779 -4.05231e-17
558 1 148.076 125.322 -4.05231e-17
559 1 187.644 47.2404 -4.05231e-17
560 1 131.51 51.326 -4.05231e-17
561 1 146.669 168.826 -4.05231e-17
562 1 195.724 144.369 -4.05231e-17
563 2 168.182 113.585 -4.05231e-17
564 1 41.7386 67.0176 -4.05231e-17
565 1 60.1516 10.5493 -4.05231e-17
566 1 75.5009 34.4032 -4.05231e-17
567 1 150.216 110.768 -4.05231e-17
568 1 22.2148 114.699 -4.05231e-17
569 1 114.138 185.325 -4.05231e-17
570 1 124.908 124.096 -4.05231e-17
571 1 175.248 203.489 -4.05231e-17
572 1 61.4522 112.42 -4.05231e-17
573 1 177.599 76.2726 -4.05231e-17
574 1 41.8493 130.486 -4.05231e-17
575 1 21.7909 76.4616 -4.05231e-17
576 1 196.323 98.6636 -4.05231e-17
577 1 202.661 33.4044 -4.05231e-17
578 1 122.808 197.007 -4.05231e-17
579 1 15.8911 166.951 -4.05231e-17
580 1 102.93 139.273 -4.05231e-17
581 1 141.1 154.487 -4.05231e-17
582 1 76.1466 79.0564 -4.05231e-17
583 1 162.036 185.514 -4.05231e-17
584 2 28.7559 117.563 -4.05231e-17
585 1 48.6961 199.064 -4.05231e-17
586 1 137.831 171.162 -4.05231e-17
587 1 99.3397 104.832 -4.05231e-17
588 1 17.2849 1.99896 -4.05231e-17
589 1 103.158 17.3215 -4.05231e-17
590 1 70.2722 218.915 -4.05231e-17
591 1 215.608 162.158 -4.05231e-17
592 1 56.1832 156.18 -4.05231e-17
593 1 209.398 181.237 -4.05231e-17
594 1 181.465 181.086 -4.05231e-17
595 1 83.0047 39.7431 -4.05231e-17
596 1 66.0265 35.8431 -4.05231e-17
597 2 180.258 204.243 -4.05231e-17
598 1 166.928 211.498 -4.05231e-17
599 1 207.93 171.197 -4.05231e-17
600 1 104.702 10.671 -4.05231e-17
601 1 12.1803 135.253 -4.05231e-17
602 1 98.0644 31.1933 -4.05231e-17
603 1 208.185 202.795 -4.05231e-17
604 1 120.58 1.66313 -4.05231e-17
605 2 85.5123 77.5987 -4.05231e-17
606 1 102.525 202.408 -4.05231e-17
607 2 171.819 146.729 -4.05231e-17
608 1 95.1985 76.7805 -4.05231e-17
609 1 15.9019 6.29729 -4.05231e-17
610 1 214.45 150.433 -4.05231e-17
611 1 201.739 190.336 -4.05231e-17
612 1 218.049 37.79 -4.05231e-17
613 1 58.9567 151.078 -4.05231e-17
614 2 127.737 179.542 -4.05231e-17
615 1 105.624 18.3961 -4.05231e-17
616 1 202.348 130.418 -4.05231e-17
617 1 126.857 198.481 -4.05231e-17
618 1 201.388 212.113 -4.05231e-17
619 1 179.256 78.0449 -4.05231e-17
620 1 141.246 142.205 -4.05231e-17
621 1 197.33 93.8061 -4.05231e-17
622 1 95.1272 213.931 -4.05231e-17
623 1 218.628 12.0322 -4.05231e-17
624 1 23.956 209.263 -4.05231e-17
625 1 204.89 154.971 -4.05231e-17
626 1 93.9537 191.258 -4.05231e-17
627 1 64.0857 74.2306 -4.05231e-17
628 1 34.3654 28.7253 -4.05231e-17
629 1 10.4276 94.6315 -4.05231e-17
630 2 151.467 21.9184 -4.05231e-17
631 1 15.8116 86.8379 -4.05231e-17
632 1 49.6544 92.1751 -4.05231e-17
633 1 38.8598 211.622 -4.05231e-17
634 1 1.4137 147.819 -4.05231e-17
635 1 155.045 150.804 -4.05231e-17
636 1 208.278 57.624 -4.05231e-17
637 1 201.276 58.5012 -4.05231e-17
638 1 173.079 76.4878 -4.05231e-17
639 2 203.997 78.4819 -4.05231e-17
640 1 143.212 152.893 -4.05231e-17
641 1 193.017 85.2803 -4.05231e-17
642 1 32.0997 91.5407 -4.05231e-17
643 2 181.953 42.8049 -4.05231e-17
644 1 68.7517 154.811 -4.05231e-17
645 1 106.461 196.853 -4.05231e-17
646 2 211.99 141.352 -4.05231e-17
647 1 11.0926 185.225 -4.05231e-17
648 1 132.477 103.033 -4.05231e-17
649 2 23.998 150.99 -4.05231e-17
650 1 204.527 186.67 -4.05231e-17
651 1 218.764 113.434 -4.05231e-17
652 1 153.58 43.8884 -4.05231e-17
653 1 114.324 175.556 -4.05231e-17
654 1 23.3474 21.3924 -4.05231e-17
655 2 183.926 100.953 -4.05231e-17
656 1 30.4459 125.244 -4.05231e-17
657 2 79.1423 207.352 -4.05231e-17
658 1 53.8928 44.2928 -4.05231e-17
659 2 156.41 192.43 -4.05231e-17
660 1 102.237 55.5201 -4.05231e-17
661 1 42.6412 116.602 -4.05231e-17
662 1 81.7232 130.298 -4.05231e-17
663 1 31.9372 25.5282 -4.05231e-17
664 1 146.606 18.1431 -4.05231e-17
665 1 140.041 75.2347 -4.05231e-17
666 2 47.981 181.109 -4.05231e-17
667 1 93.2927 99.5558 -4.05231e-17
668 2 102.073 93.5963 -4.05231e-17
669 1 36.2719 17.6097 -4.05231e-17
670 1 96.3669 173.766 -4.05231e-17
671 2 54.1593 176.066 -4.05231e-17
672 1 186.661 12.0923 -4.05231e-17
673 1 63.2035 19.6175 -4.05231e-17
674 1 2.13249 31.466 -4.05231e-17
675 1 128.525 23.6926 -4.05231e-17
676 1 169.356 123.671 -4.05231e-17
677 1 131.467 175.021 -4.05231e-17
678 1 137.693 30.8616 -4.05231e-17
679 2 152.296 32.9271 -4.05231e-17
680 1 202.75 41.4773 -4.05231e-17
681 2 129.138 119.022 -4.05231e-17
682 1 0.180388 47.6043 -4.05231e-17
683 1 68.6991 4.37575 -4.05231e-17
684 1 119.968 154.845 -4.05231e-17
685 1 152.883 38.7805 -4.05231e-17
686 1 27.7357 193.821 -4.05231e-17
687 1 118.1 192.14 -4.05231e-17
688 1 162.808 110.086 -4.05231e-17
689 2 56.1444 46.6185 -4.05231e-17
690 1 70.0633 20.1657 -4.05231e-17
691 1 89.5391 66.1705 -4.05231e-17
692 1 130.815 8.18815 -4.05231e-17
693 1 48.3704 142.874 -4.05231e-17
694 1 76.3078 124.933 -4.05231e-17
695 1 146.032 38.6075 -4.05231e-17
696 1 146.605 81.335 -4.05231e-17
697 1 139.584 201.45 -4.05231e-17
698 1 116.867 66.0733 -4.05231e-17
699 1 180.522 191.508 -4.05231e-17
700 1 205.704 209.453 -4.05231e-17
701 1 54.0541 16.9881 -4.05231e-17
702 1 113.695 128.925 -4.05231e-17
703 2 188.391 143.942 -4.05231e-17
704 1 29.2341 218.507 -4.05231e-17
705 2 68.9831 112.321 -4.05231e-17
706 1 165.709 177.054 -4.05231e-17
707 1 114.085 24.7584 -4.05231e-17
708 1 84.0295 209.448 -4.05231e-17
709 1 147.151 196.288 -4.05231e-17
710 1 192.329 191.609 -4.05231e-17
711 1 111.484 93.2904 -4.05231e-17
712 1 192.274 208.009 -4.05231e-17
713 1 14.3783 136.568 -4.05231e-17
714 1 136.092 13.4627 -4.05231e-17
715 1 56.0821 199.403 -4.05231e-17
716 1 40.4563 123.594 -4.05231e-17
717 1 51.5734 107.442 -4.05231e-17
718 1 130.905 185.361 -4.05231e-17
719 2 119.864 78.719 -4.05231e-17
720 1 98.8111 64.6898 -4.05231e-17
721 1 95.6744 98.8621 -4.05231e-17
722 1 133.681 63.1012 -4.05231e-17
723 2 48.6753 45.666 -4.05231e-17
724 1 15.5242 49.3615 -4.05231e-17
725 1 29.4444 109.361 -4.05231e-17
726 1 189.76 45.9352 -4.05231e-17
727 1 148.249 205.203 -4.05231e-17
728 2 18.4503 87.9974 -4.05231e-17
729 1 133.846 165.258 -4.05231e-17
730 1 174.397 199.072 -4.05231e-17
731 1 49.0896 190.295 -4.05231e-17
732 1 218.443 9.38503 -4.05231e-17
733 1 205.132 34.2842 -4.05231e-17
734 1 3.94401 29.7775 -4.05231e-17
735 1 41.1665 22.9098 -4.05231e-17
736 2 190.592 74.3913 -4.05231e-17
737 1 81.4967 86.6041 -4.05231e-17
738 1 20.2406 165.594 -4.05231e-17
739 1 105.822 156.274 -4.05231e-17
740 1 59.8753 116.407 -4.05231e-17
741 2 189 78.3778 -4.05231e-17
742 1 74.3766 43.6575 -4.05231e-17
743 1 203.1 66.5461 -4.05231e-17
744 2 210.782 172.735 -4.05231e-17
745 1 130.954 31.9405 -4.05231e-17
746 1 14.2797 29.2322 -4.05231e-17
747 2 204.25 22.1551 -4.05231e-17
748 1 182.756 193.014 -4.05231e-17
749 1 196.347 210.984 -4.05231e-17
750 1 212.981 163.593 -4.05231e-17
751 1 59.5435 58.5479 -4.05231e-17
752 1 177.926 105.755 -4.05231e-17
753 1 99.4004 150.587 -4.05231e-17
754 1 14.7594 215.322 -4.05231e-17
755 1 83.1553 195.014 -4.05231e-17
756 2 103.589 196.152 -4.05231e-17
757 1 27.3674 18.3722 -4.05231e-17
758 1 135.615 146.131 -4.05231e-17
759 1 72.9261 107.547 -4.05231e-17
760 1 95.2343 40.1181 -4.05231e-17
761 1 58.1441 161.036 -4.05231e-17
762 1 43.6144 23.5069 -4.05231e-17
763 1 114.105 99.6593 -4.05231e-17
764 2 177.835 147.963 -4.05231e-17
765 1 91.9547 62.4238 -4.05231e-17
766 1 114.275 35.5709 -4.05231e-17
767 1 97.1581 78.4558 -4.05231e-17
768 1 9.54527 3.68513 -4.05231e-17
769 1 107.789 75.7662 -4.05231e-17
770 2 113.608 109.7 -4.05231e-17
771 1 143.364 178.971 -4.05231e-17
772 1 102.116 28.4255 -4.05231e-17
773 1 109.069 167.562 -4.05231e-17
774 1 111.565 124.131 -4.05231e-17
775 1 68.9621 7.0922 -4.05231e-17
776 1 38.0533 10.931 -4.05231e-17
777 1 108.021 182.132 -4.05231e-17
778 1 22.6853 18.978 -4.05231e-17
779 1 191.867 44.3162 -4.05231e-17
780 1 3.44614 169.291 -4.05231e-17
781 1 127.205 100.082 -4.05231e-17
782 1 175.687 49.4083 -4.05231e-17
783 1 98.301 15.2764 -4.05231e-17
784 2 194.879 159.19 -4.05231e-17
785 1 110.875 165.609 -4.05231e-17
786 1 119.086 177.302 -4.05231e-17
787 1 185.618 74.9287 -4.05231e-17
788 1 177.182 45.1321 -4.05231e-17
789 2 142.828 108.536 -4.05231e-17
790 1 109.63 28.1775 -4.05231e-17
791 2 14.5418 122.095 -4.05231e-17
792 2 215.75 13.4801 -4.05231e-17
793 2 115.868 68.8012 -4.05231e-17
794 1 56.4732 188.666 -4.05231e-17
795 1 132.546 53.6439 -4.05231e-17
796 1 130.624 22.3099 -4.05231e-17
797 1 197.853 155.387 -4.05231e-17
798 2 195.946 204.095 -4.05231e-17
799 2 207.734 65.0047 -4.05231e-17
800 2 55.5622 217.701 -4.05231e-17
801 1 102.9 132.283 -4.05231e-17
802 1 124.625 75.7461 -4.05231e-17
803 1 182.281 68.6526 -4.05231e-17
804 2 122.701 205.052 -4.05231e-17
805 1 44.8007 106.62 -4.05231e-17
806 1 11.7658 117.239 -4.05231e-17
807 2 100.454 99.348 -4.05231e-17
808 1 14.5131 116.921 -4.05231e-17
809 2 57.7253 134.284 -4.05231e-17
810 1 129.792 197.807 -4.05231e-17
811 1 32.5501 5.93707 -4.05231e-17
812 1 131.777 34.539 -4.05231e-17
813 2 108.034 110.893 -4.05231e-17
814 1 147.445 69.3179 -4.05231e-17
815 1 89.1551 164.417 -4.05231e-17
816 1 200.604 9.98173 -4.05231e-17
817 1 108.07 214.779 -4.05231e-17
818 1 57.3305 101.764 -4.05231e-17
819 1 9.92274 136.446 -4.05231e-17
820 1 45.5229 120.334 -4.05231e-17
821 1 94.7487 151.841 -4.05231e-17
822 2 41.476 135.76 -4.05231e-17
823 2 139.247 91.5694 -4.05231e-17
824 1 34.9208 108.025 -4.05231e-17
825 1 65.3263 15.4988 -4.05231e-17
826 1 190.423 14.0022 -4.05231e-17
827 1 193.175 107.369 -4.05231e-17
828 1 142.408 123.254 -4.05231e-17
829 1 126.872 210.952 -4.05231e-17
830 1 81.5346 127.682 -4.05231e-17
831 1 217.328 42.6229 -4.05231e-17
832 1 93.2843 87.3987 -4.05231e-17
833 1 62.1046 84.4823 -4.05231e-17
834 1 106.711 9.13853 -4.05231e-17
835 1 58.1699 218.662 -4.05231e-17
836 1 11.0061 50.3288 -4.05231e-17
837 1 6.70158 70.6612 -4.05231e-17
838 1 97.9863 178.574 -4.05231e-17
839 2 198.18 2.96882 -4.05231e-17
840 1 4.73372 202.744 -4.05231e-17
841 2 63.1289 184.907 -4.05231e-17
842 1 94.7782 91.6928 -4.05231e-17
843 2 159.424 182.502 -4.05231e-17
844 1 26.3448 158.755 -4.05231e-17
845 1 71.0513 189.143 -4.05231e-17
846 1 158.944 190.43 -4.05231e-17
847 1 41.8763 141.011 -4.05231e-17
848 1 188.583 117.078 -4.05231e-17
849 1 189.153 166.702 -4.05231e-17
850 1 39.4907 129.42 -4.05231e-17
851 1 89.7608 37.9109 -4.05231e-17
852 1 11.724 209.006 -4.05231e-17
853 1 31.7041 139.017 -4.05231e-17
854 1 171.55 84.474 -4.05231e-17
855 1 125.973 19.9408 -4.05231e-17
856 1 210.075 169.986 -4.05231e-17