ITEM: TIMESTEP
0
ITEM: NUMBER OF ATOMS
7200
ITEM: BOX BOUNDS xy xz yz pp pp pp
0.0000000000000000e+00 2.1900000000000000e+02 0.0000000000000000e+00
0.0000000000000000e+00 2.1900000000000000e+02 0.0000000000000000e+00
-3.6499999999999999e-01 3.6499999999999999e-01 0.0000000000000000e+00
ITEM: ATOMS id type x y z
1 1 68.0128 134.86 -4.05231e-17
2 1 183.262 108.687 -4.05231e-17
3 1 13.9818 157.689 -4.05231e-17
4 1 3.54864 85.9681 -4.05231e-17
5 1 216.049 157.264 -4.05231e-17
6 1 117.366 210.487 -4.05231e-17
7 1 42.4757 51.9259 -4.05231e-17
8 2 149.068 82.8746 -4.05231e-17
9 1 203.196 9.89001 -4.05231e-17
10 2 57.9844 193.078 -4.05231e-17
11 1 115.025 14.9506 -4.05231e-17
12 1 128.765 77.7081 -4.05231e-17
13 2 51.2266 79.1509 -4.05231e-17
14 1 65.2086 18.0997 -4.05231e-17
15 1 136.829 105.196 -4.05231e-17
16 2 61.1405 172.159 -4.05231e-17
17 1 114.06 30.7038 -4.05231e-17
18 2 31.1605 78.8284 -4.05231e-17
19 1 106.553 52.1613 -4.05231e-17
20 1 144.318 103.49 -4.05231e-17
21 1 41.8258 5.03867 -4.05231e-17
22 2 49.8896 147.574 -4.05231e-17
23 2 17.424 54.5126 -4.05231e-17
24 1 159.174 99.3713 -4.05231e-17
25 1 75.6412 182.75 -4.05231e-17
26 2 86.4553 97.2647 -4.05231e-17
27 1 155.697 174.396 -4.05231e-17
28 2 22.6309 156.846 -4.05231e-17
29 1 53.5645 46.8225 -4.05231e-17
30 1 139.447 87.8165 -4.05231e-17
31 1 211.405 90.5823 -4.05231e-17
32 1 57.9084 104.584 -4.05231e-17
33 1 157.558 154.51 -4.05231e-17
34 1 61.3787 77.8518 -4.05231e-17
35 1 177.284 68.8263 -4.05231e-17
36 1 61.6803 75.4265 -4.05231e-17
37 2 136.519 140.501 -4.05231e-17
38 1 197.868 74.7344 -4.05231e-17
39 1 122.204 138.332 -4.05231e-17
40 1 166.185 163.85 -4.05231e-17
41 1 120.872 182.027 -4.05231e-17
42 1 102.76 36.9035 -4.05231e-17
43 1 135.211 60.8043 -4.05231e-17
44 1 107.45 23.4803 -4.05231e-17
45 1 214.629 84.7847 -4.05231e-17
46 1 28.4252 203.467 -4.05231e-17
47 1 89.0892 172.585 -4.05231e-17
48 2 47.4177 86.4268 -4.05231e-17
49 1 76.8762 110.649 -4.05231e-17
50 1 46.6687 197.8 -4.05231e-17
51 1 181.05 34.111 -4.05231e-17
52 1 203.773 133.121 -4.05231e-17
53 1 156.617 27.3731 -4.05231e-17
54 1 24.44 119.011 -4.05231e-17
55 1 23.3192 48.765 -4.05231e-17
56 1 117.784 140.059 -4.05231e-17
57 2 67.8908 214.701 -4.05231e-17
58 1 35.22 40.9142 -4.05231e-17
59 1 29.2289 151.947 -4.05231e-17
60 2 151.994 146.888 -4.05231e-17
61 2 36.1519 202.903 -4.05231e-17
62 1 11.0944 161.493 -4.05231e-17
63 1 111.735 197.89 -4.05231e-17
64 1 133.57 38.9281 -4.05231e-17
65 1 214.052 114.351 -4.05231e-17
66 1 128.934 134.275 -4.05231e-17
67 1 95.6562 139.972 -4.05231e-17
68 1 67.0087 116.688 -4.05231e-17
69 1 140.735 173.725 -4.05231e-17
70 1 59.3174 111.213 -4.05231e-17
71 1 7.47909 125.458 -4.05231e-17
72 1 171.642 60.2965 -4.05231e-17
73 1 188.093 185.708 -4.05231e-17
74 1 207.112 21.3597 -4.05231e-17
75 2 93.6232 1.77487 -4.05231e-17
76 1 17.7054 5.02554 -4.05231e-17
77 1 36.1905 22.1941 -4.05231e-17
78 1 124.573 117.451 -4.05231e-17
79 2 126.537 0.845877 -4.05231e-17
80 1 75.3554 106.516 -4.05231e-17
81 1 110.542 141.155 -4.05231e-17
82 1 54.2012 141.863 -4.05231e-17
83 2 129.737 182.319 -4.05231e-17
84 1 179.716 80.5551 -4.05231e-17
85 1 22.1329 41.7155 -4.05231e-17
86 1 128.243 142.174 -4.05231e-17
87 1 217.715 217.376 -4.05231e-17
88 1 19.007 35.1869 -4.05231e-17
89 2 43.9426 3.20646 -4.05231e-17
90 2 190.459 187.332 -4.05231e-17
91 1 149.363 90.2566 -4.05231e-17
92 2 168.847 21.2173 -4.05231e-17
93 1 141.979 15.0385 -4.05231e-17
94 2 201.713 12.5027 -4.05231e-17
95 1 33.8471 195.222 -4.05231e-17
96 1 130.631 95.4328 -4.05231e-17
97 1 97.5938 5.00267 -4.05231e-17
98 1 125.006 54.9614 -4.05231e-17
99 1 178.276 21.6847 -4.05231e-17
100 1 176.263 8.79428 -4.05231e-17
101 1 114.746 12.3942 -4.05231e-17
102 1 24.916 46.7996 -4.05231e-17
103 1 58.1722 80.6241 -4.05231e-17
104 1 68.9996 109.271 -4.05231e-17
105 1 142.279 201.226 -4.05231e-17
106 1 77.8019 102.504 -4.05231e-17
107 2 146.304 101.495 -4.05231e-17
108 1 36.3486 210.729 -4.05231e-17
109 1 54.6158 89.1929 -4.05231e-17
110 1 107.41 62.9386 -4.05231e-17
111 1 60.8993 20.9045 -4.05231e-17
112 1 95.017 137.294 -4.05231e-17
113 1 100.32 44.5076 -4.05231e-17
114 1 158.288 23.1423 -4.05231e-17
115 1 51.4929 163.175 -4.05231e-17
116 2 214.327 133.782 -4.05231e-17
117 1 201.518 216.561 -4.05231e-17
118 1 165.155 68.1691 -4.05231e-17
119 2 58.0188 99.0119 -4.05231e-17
120 1 53.5779 199.219 -4.05231e-17
121 1 152.119 83.5331 -4.05231e-17
122 1 103.161 14.8339 -4.05231e-17
123 1 136.497 75.4343 -4.05231e-17
124 1 155.088 201.13 -4.05231e-17
125 1 141.488 117.383 -4.05231e-17
126 1 111.503 65.0389 -4.05231e-17
127 1 163.628 78.2782 -4.05231e-17
128 1 175.7 136.542 -4.05231e-17
129 1 7.29547 104.028 -4.05231e-17
130 1 84.0522 128.947 -4.05231e-17
131 1 175.834 152.953 -4.05231e-17
132 2 183.707 2.23945 -4.05231e-17
133 1 126.717 79.2344 -4.05231e-17
134 1 34.9146 86.2274 -4.05231e-17
135 1 78.3316 8.52737 -4.05231e-17
136 1 210.549 201.597 -4.05231e-17
137 1 102.093 137.054 -4.05231e-17
138 1 50.299 212.254 -4.05231e-17
139 1 202.646 105.772 -4.05231e-17
140 2 141.707 186.067 -4.05231e-17
141 1 205.44 96.6621 -4.05231e-17
142 2 211.812 48.8335 -4.05231e-17
143 1 111.192 80.7817 -4.05231e-17
144 2 43.9541 199.063 -4.05231e-17
145 1 172.141 103.011 -4.05231e-17
146 1 99.691 119.989 -4.05231e-17
147 1 154.742 145.885 -4.05231e-17
148 1 6.934 200.796 -4.05231e-17
149 1 68.3299 21.5122 -4.05231e-17
150 1 54.1706 37.4499 -4.05231e-17
151 1 26.1092 112.572 -4.05231e-17
152 1 63.4481 104.934 -4.05231e-17
153 2 52.0157 6.13434 -4.05231e-17
154 1 149.157 94.6 -4.05231e-17
155 1 108.189 16.8947 -4.05231e-17
156 2 71.8434 116.389 -4.05231e-17
157 1 207.296 104.743 -4.05231e-17
158 1 28.7315 29.5654 -4.05231e-17
159 1 22.2197 135.542 -4.05231e-17
160 1 12.2145 201.272 -4.05231e-17
161 1 1.66519 8.02041 -4.05231e-17
162 1 127.582 127.754 -4.05231e-17
163 1 17.6933 32.7378 -4.05231e-17
164 1 166.885 53.0106 -4.05231e-17
165 1 125.122 122.106 -4.05231e-17
166 2 159.597 60.795 -4.05231e-17
167 1 175.168 46.7273 -4.05231e-17
168 1 149.116 169.616 -4.05231e-17
169 1 1.44661 101.755 -4.05231e-17
170 1 94.8494 168.602 -4.05231e-17
171 1 146.678 60.7113 -4.05231e-17
172 1 218.971 17.1525 -4.05231e-17
173 1 45.8513 143.413 -4.05231e-17
174 1 130.875 62.5849 -4.05231e-17
175 2 137.592 160.509 -4.05231e-17
176 1 109.648 71.0352 -4.05231e-17
177 2 70.5834 56.9667 -4.05231e-17
178 1 65.466 86.9689 -4.05231e-17
179 1 173.42 163.944 -4.05231e-17
180 1 203.736 197.404 -4.05231e-17
181 1 134.864 167.44 -4.05231e-17
182 2 77.5005 20.8294 -4.05231e-17
183 1 76.8849 164.1 -4.05231e-17
184 1 175.963 86.6153 -4.05231e-17
185 2 175.298 20.7646 -4.05231e-17
186 2 208.93 134.065 -4.05231e-17
187 1 93.3856 28.9208 -4.05231e-17
188 1 102.777 170.471 -4.05231e-17
189 1 123.301 175.003 -4.05231e-17
190 2 14.0695 160.894 -4.05231e-17
191 1 77.4865 157.237 -4.05231e-17
192 2 63.7556 110.082 -4.05231e-17
193 2 79.8115 172.708 -4.05231e-17
194 1 32.1589 150.055 -4.05231e-17
195 1 145.483 163.414 -4.05231e-17
196 1 168.419 190.992 -4.05231e-17
197 1 74.3241 70.0704 -4.05231e-17
198 2 9.64351 132.745 -4.05231e-17
199 1 210.457 57.0262 -4.05231e-17
200 1 80.6862 6.98337 -4.05231e-17
201 2 71.9433 109.824 -4.05231e-17
202 1 52.552 210.799 -4.05231e-17
203 1 175.525 81.6596 -4.05231e-17
204 1 188.715 157.052 -4.05231e-17
205 2 191.777 82.368 -4.05231e-17
206 1 89.3219 133.088 -4.05231e-17
207 1 105.526 30.0381 -4.05231e-17
208 1 32.4339 85.9013 -4.05231e-17
209 1 82.0502 2.78234 -4.05231e-17
210 1 7.28258 64.7174 -4.05231e-17
211 2 147.252 156.624 -4.05231e-17
212 1 119.994 112.42 -4.05231e-17
213 1 134.873 103.785 -4.05231e-17
214 1 74.4364 14.2688 -4.05231e-17
215 1 74.3112 202.074 -4.05231e-17
216 1 193.595 139.498 -4.05231e-17
217 1 126.573 186.831 -4.05231e-17
218 2 28.323 168.176 -4.05231e-17
219 1 155.549 213.919 -4.05231e-17
220 2 106.486 55.2726 -4.05231e-17
221 1 212.861 56.0049 -4.05231e-17
222 1 143.542 145.673 -4.05231e-17
223 1 52.2016 208.169 -4.05231e-17
224 2 10.1595 188.267 -4.05231e-17
225 1 201.341 142.46 -4.05231e-17
226 1 138.813 190.116 -4.05231e-17
227 2 50.5811 16.7418 -4.05231e-17
228 1 138.52 77.1546 -4.05231e-17
229 1 61.2581 135.723 -4.05231e-17
230 1 159.054 131.13 -4.05231e-17
231 1 148.858 122.975 -4.05231e-17
232 1 1.27209 90.5584 -4.05231e-17
233 1 109.953 100.619 -4.05231e-17
234 1 133.845 216.046 -4.05231e-17
235 1 20.9524 142.786 -4.05231e-17
236 1 46.0338 81.8214 -4.05231e-17
237 1 198.843 8.22378 -4.05231e-17
238 1 148.256 128.211 -4.05231e-17
239 2 17.7555 111.936 -4.05231e-17
240 1 99.9129 6.13632 -4.05231e-17
241 2 187.71 14.6291 -4.05231e-17
242 2 198.674 36.7674 -4.05231e-17
243 2 114.847 27.4686 -4.05231e-17
244 1 97.8105 7.70379 -4.05231e-17
245 1 84.8614 58.9696 -4.05231e-17
246 1 126.165 119.752 -4.05231e-17
247 1 210.446 98.6171 -4.05231e-17
248 1 95.0939 4.09198 -4.05231e-17
249 1 23.6608 65.6228 -4.05231e-17
250 2 149.571 29.5809 -4.05231e-17
251 1 153.887 212.053 -4.05231e-17
252 1 195.014 64.0787 -4.05231e-17
253 1 94.5542 61.4214 -4.05231e-17
254 2 76.472 197.557 -4.05231e-17
255 1 212.488 148.915 -4.05231e-17
256 1 84.6021 165.67 -4.05231e-17
257 1 212.337 151.533 -4.05231e-17
258 2 164.03 28.1229 -4.05231e-17
259 1 58.506 165.885 -4.05231e-17
260 1 127.909 11.265 -4.05231e-17
261 1 184.95 13.6965 -4.05231e-17
262 1 53.4541 52.3457 -4.05231e-17
263 1 13.0706 213.583 -4.05231e-17
264 1 172.102 43.0122 -4.05231e-17
265 1 166.272 22.9603 -4.05231e-17
266 1 155.763 9.8342 -4.05231e-17
267 1 2.3671 64.3691 -4.05231e-17
268 1 21.6456 35.6173 -4.05231e-17
269 1 125.997 94.7794 -4.05231e-17
270 1 141.231 106.406 -4.05231e-17
271 1 12.2091 92.5949 -4.05231e-17
272 1 159.358 202.163 -4.05231e-17
273 1 40.5286 168.819 -4.05231e-17
274 2 113.146 88.0483 -4.05231e-17
275 1 64.1806 5.17573 -4.05231e-17
276 2 54.083 32.1487 -4.05231e-17
277 2 167.141 122.029 -4.05231e-17
278 1 38.5113 101.097 -4.05231e-17
279 2 109.797 205.006 -4.05231e-17
280 1 59.9408 31.8215 -4.05231e-17
281 1 146.84 28.6812 -4.05231e-17
282 1 165.069 8.13139 -4.05231e-17
283 1 113.125 141.711 -4.05231e-17
284 1 136.428 165.644 -4.05231e-17
285 1 35.6932 12.4126 -4.05231e-17
286 2 33.9251 215.189 -4.05231e-17
287 1 82.6863 135.51 -4.05231e-17
288 1 21.3009 57.6515 -4.05231e-17
289 1 71.7474 54.3905 -4.05231e-17
290 1 151.012 193.477 -4.05231e-17
291 1 158.702 145.051 -4.05231e-17
292 2 20.1381 181.484 -4.05231e-17
293 2 65.6012 194.426 -4.05231e-17
294 1 112.611 39.9877 -4.05231e-17
295 1 124.638 47.9103 -4.05231e-17
296 1 134.643 41.4075 -4.05231e-17
297 1 119.07 145.14 -4.05231e-17
298 1 104.768 198.768 -4.05231e-17
299 1 160.387 106.261 -4.05231e-17
300 2 62.341 95.2545 -4.05231e-17
301 1 58.988 43.7777 -4.05231e-17
302 1 127.047 192.889 -4.05231e-17
303 2 198.263 60.1093 -4.05231e-17
304 2 145.296 129.438 -4.05231e-17
305 1 86.3529 100.18 -4.05231e-17
306 1 50.998 73.6558 -4.05231e-17
307 1 35.2308 122.162 -4.05231e-17
308 1 162.072 59.1073 -4.05231e-17
309 2 73.0753 184.369 -4.05231e-17
310 1 194.337 215.758 -4.05231e-17
311 1 79.7641 33.7257 -4.05231e-17
312 1 192.413 148.071 -4.05231e-17
313 2 147.482 66.0333 -4.05231e-17
314 1 52.2667 135.255 -4.05231e-17
315 1 111.415 150.746 -4.05231e-17
316 1 72.6067 1.16184 -4.05231e-17
317 1 13.4687 99.5037 -4.05231e-17
318 1 99.9259 215.173 -4.05231e-17
319 1 51.1163 33.2364 -4.05231e-17
320 1 144.503 99.3373 -4.05231e-17
321 1 88.2532 204.054 -4.05231e-17
322 1 143.461 140.287 -4.05231e-17
323 1 187.885 107.955 -4.05231e-17
324 1 81.1478 26.8546 -4.05231e-17
325 1 162.982 139.567 -4.05231e-17
326 1 85.2201 152.049 -4.05231e-17
327 2 149.849 185.97 -4.05231e-17
328 1 167.605 40.3003 -4.05231e-17
329 2 47.2404 115.712 -4.05231e-17
330 1 23.8666 102.003 -4.05231e-17
331 1 174.735 176.232 -4.05231e-17
332 2 112.616 104.476 -4.05231e-17
333 1 44.4892 17.5451 -4.05231e-17
334 1 139.738 168.665 -4.05231e-17
335 1 12.6596 206.109 -4.05231e-17
336 1 212.455 106.284 -4.05231e-17
337 1 103.046 182.535 -4.05231e-17
338 1 159.386 57.7239 -4.05231e-17
339 1 109.319 217.383 -4.05231e-17
340 1 153.893 141.572 -4.05231e-17
341 1 160.597 158.589 -4.05231e-17
342 1 128.97 144.573 -4.05231e-17
343 1 127.594 29.0971 -4.05231e-17
344 1 63.649 181.696 -4.05231e-17
345 1 60.8449 109.479 -4.05231e-17
346 1 9.32257 127.096 -4.05231e-17
347 1 92.1309 92.8504 -4.05231e-17
348 1 163.717 179.382 -4.05231e-17
349 1 193.408 75.4165 -4.05231e-17
350 2 89.6714 40.8604 -4.05231e-17
351 1 154.699 65.7524 -4.05231e-17
352 1 61.0216 182.552 -4.05231e-17
353 1 39.0491 166.485 -4.05231e-17
354 1 168.27 161.509 -4.05231e-17
355 1 58.5252 156.759 -4.05231e-17
356 1 23.4947 37.034 -4.05231e-17
357 1 62.6893 158.731 -4.05231e-17
358 1 172.2 180.667 -4.05231e-17
359 1 158.177 158.973 -4.05231e-17
360 1 74.0664 53.7151 -4.05231e-17
361 1 63.5502 167.938 -4.05231e-17
362 1 169.093 201.056 -4.05231e-17
363 1 163.806 190.082 -4.05231e-17
364 2 116.279 92.9283 -4.05231e-17
365 1 178.444 90.594 -4.05231e-17
366 1 117.417 161.209 -4.05231e-17
367 1 174.421 7.15124 -4.05231e-17
368 1 196.928 192.318 -4.05231e-17
369 2 115.417 188.178 -4.05231e-17
370 1 15.1678 205.978 -4.05231e-17
371 1 53.8497 137.147 -4.05231e-17
372 2 0.0501817 93.5936 -4.05231e-17
373 2 213.177 7.69113 -4.05231e-17
374 1 151.066 88.122 -4.05231e-17
375 1 37.3559 111.981 -4.05231e-17
376 1 16.5777 152.458 -4.05231e-17
377 1 28.9632 213.139 -4.05231e-17
378 1 74.7633 129.349 -4.05231e-17
379 1 43.2827 60.5967 -4.05231e-17
380 1 177.851 151.337 -4.05231e-17
381 1 13.3888 5.82043 -4.05231e-17
382 1 54.3443 67.2676 -4.05231e-17
383 1 169.739 67.8757 -4.05231e-17
384 1 21.802 14.258 -4.05231e-17
385 1 191.331 76.9191 -4.05231e-17
386 2 82.1002 44.1423 -4.05231e-17
387 1 144.164 19.1707 -4.05231e-17
388 1 56.4586 43.6676 -4.05231e-17
389 1 207.227 159.229 -4.05231e-17
390 2 207.391 179.761 -4.05231e-17
391 2 35.9581 38.0697 -4.05231e-17
392 1 41.6054 218.121 -4.05231e-17
393 1 0.436246 33.4245 -4.05231e-17
394 1 102.508 101.563 -4.05231e-17
395 1 16.0158 27.7818 -4.05231e-17
396 1 202.957 154.179 -4.05231e-17
397 1 101.215 16.5476 -4.05231e-17
398 1 11.5721 190.941 -4.05231e-17
399 1 19.6647 59.4686 -4.05231e-17
400 1 103.264 179.92 -4.05231e-17
401 1 87.7351 176.719 -4.05231e-17
402 2 191.759 178.957 -4.05231e-17
403 1 214.045 53.9164 -4.05231e-17
404 1 35.9657 71.8039 -4.05231e-17
405 1 204.167 29.0524 -4.05231e-17
406 1 201.014 68.3298 -4.05231e-17
407 2 19.3473 62.3107 -4.05231e-17
408 1 35.2289 35.146 -4.05231e-17
409 1 169.32 129.021 -4.05231e-17
410 1 21.0317 154.558 -4.05231e-17
411 1 152.035 160.774 -4.05231e-17
412 1 115.173 214.939 -4.05231e-17
413 1 63.363 156.206 -4.05231e-17
414 1 38.1559 13.3649 -4.05231e-17
415 1 207.947 147.969 -4.05231e-17
416 1 71.9669 200.477 -4.05231e-17
417 1 140.982 93.4617 -4.05231e-17
418 2 184.542 7.7772 -4.05231e-17
419 1 108.689 150.007 -4.05231e-17
420 2 136.609 108.813 -4.05231e-17
421 1 88.099 104.188 -4.05231e-17
422 1 176.074 23.4311 -4.05231e-17
423 2 157.937 40.9267 -4.05231e-17
424 1 157.207 149.332 -4.05231e-17
425 1 129.286 167.209 -4.05231e-17
426 1 132.843 113.043 -4.05231e-17
427 1 45.3213 84.3992 -4.05231e-17
428 1 71.0192 192.037 -4.05231e-17
429 1 194.713 83.4877 -4.05231e-17
430 1 214.887 60.1609 -4.05231e-17
431 1 120.459 206.408 -4.05231e-17
432 1 161.301 53.5863 -4.05231e-17
433 1 105.193 153.924 -4.05231e-17
434 1 71.5544 30.5508 -4.05231e-17
435 1 178.315 161.859 -4.05231e-17
436 1 41.6682 37.2523 -4.05231e-17
437 1 175.724 109.345 -4.05231e-17
438 2 110.102 21.6367 -4.05231e-17
439 1 67.0311 208.969 -4.05231e-17
440 1 4.33107 162.023 -4.05231e-17
441 1 192.789 131.333 -4.05231e-17
442 1 50.4235 13.6722 -4.05231e-17
443 1 158.174 104.539 -4.05231e-17
444 1 217.995 100.912 -4.05231e-17
445 1 140.064 7.33104 -4.05231e-17
446 1 131.313 78.6004 -4.05231e-17
447 1 38.855 144.876 -4.05231e-17
448 1 75.8567 7.45165 -4.05231e-17
449 1 131.764 120.628 -4.05231e-17
450 1 139.531 187.917 -4.05231e-17
451 1 170.594 47.3776 -4.05231e-17
452 1 131.45 144.774 -4.05231e-17
453 1 179.174 182.131 -4.05231e-17
454 1 160.367 211.78 -4.05231e-17
455 1 100.374 72.0712 -4.05231e-17
456 1 167.016 27.0768 -4.05231e-17
457 1 97.7822 113.63 -4.05231e-17
458 1 198.681 0.314285 -4.05231e-17
459 1 81.2291 69.3953 -4.05231e-17
460 1 48.7087 102.498 -4.05231e-17
461 1 189.024 177.955 -4.05231e-17
462 1 182.02 115.952 -4.05231e-17
463 1 126.534 33.3169 -4.05231e-17
464 1 154.919 195.01 -4.05231e-17
465 1 121.806 160.03 -4.05231e-17
466 1 24.0542 213.834 -4.05231e-17
467 1 17.0204 79.7267 -4.05231e-17
468 1 161.522 218.604 -4.05231e-17
469 1 68.734 77.804 -4.05231e-17
470 1 78.0015 38.1042 -4.05231e-17
471 1 128.683 174.496 -4.05231e-17
472 1 48.1778 83.2996 -4.05231e-17
473 1 26.1868 102.486 -4.05231e-17
474 1 88.5449 101.699 -4.05231e-17
475 1 185.651 164.11 -4.05231e-17
476 2 192.288 12.0581 -4.05231e-17
477 1 53.8615 84.618 -4.05231e-17
478 1 58.5086 125.899 -4.05231e-17
479 1 201.612 80.6433 -4.05231e-17
480 1 85.4467 23.7375 -4.05231e-17
481 1 14.6807 94.2439 -4.05231e-17
482 1 99.5067 160.039 -4.05231e-17
483 1 142.305 159.835 -4.05231e-17
484 2 87.2653 45.9033 -4.05231e-17
485 1 33.9108 100.721 -4.05231e-17
486 1 81.8349 17.2927 -4.05231e-17
487 1 100.333 196.784 -4.05231e-17
488 1 5.74182 121.081 -4.05231e-17
489 1 211.633 134.897 -4.05231e-17
490 1 205.069 84.2267 -4.05231e-17
491 1 197.647 121.915 -4.05231e-17
492 1 2.69013 128.811 -4.05231e-17
493 1 193.956 211.021 -4.05231e-17
494 1 211.099 37.9873 -4.05231e-17
495 1 198.655 89.5886 -4.05231e-17
496 2 44.1529 189.282 -4.05231e-17
497 1 39.1847 216.939 -4.05231e-17
498 1 104.881 121.222 -4.05231e-17
499 2 136.979 216.663 -4.05231e-17
500 1 26.1568 30.3181 -4.05231e-17
501 2 112.899 216.866 -4.05231e-17
502 2 123.651 143.219 -4.05231e-17
503 1 147.156 183.882 -4.05231e-17
504 1 113.033 148.773 -4.05231e-17
505 1 118.467 18.4037 -4.05231e-17
506 1 26.0728 121.811 -4.05231e-17
507 1 14.3841 129.466 -4.05231e-17
508 1 199 216.868 -4.05231e-17
509 2 26.8331 75.6068 -4.05231e-17
510 2 146.126 133.11 -4.05231e-17
511 1 195.977 35.3267 -4.05231e-17
512 2 209.926 60.1384 -4.05231e-17
513 1 56.3631 127.64 -4.05231e-17
514 1 48.8012 18.9421 -4.05231e-17
515 1 204.117 25.0497 -4.05231e-17
516 1 182.837 205.851 -4.05231e-17
517 1 112.17 117.65 -4.05231e-17
518 2 103.56 20.4733 -4.05231e-17
519 1 11.8096 53.372 -4.05231e-17
520 2 212.4 22.8958 -4.05231e-17
521 1 88.7825 110.934 -4.05231e-17
522 1 30.9051 31.1293 -4.05231e-17
523 1 24.4002 68.0353 -4.05231e-17
524 1 100.007 74.7069 -4.05231e-17
525 1 175.058 121.021 -4.05231e-17
526 1 190.479 64.8808 -4.05231e-17
527 1 75.3887 4.90028 -4.05231e-17
528 1 168.546 28.8494 -4.05231e-17
529 1 57.0844 158.725 -4.05231e-17
530 1 99.9999 32.1187 -4.05231e-17
531 1 66.0512 197.459 -4.05231e-17
532 1 207.074 187.985 -4.05231e-17
533 1 134.176 151.14 -4.05231e-17
534 1 97.2513 144.992 -4.05231e-17
535 1 14.1951 104.633 -4.05231e-17
536 1 203.327 118.23 -4.05231e-17
537 1 201.783 166.774 -4.05231e-17
538 1 168.814 81.0416 -4.05231e-17
539 1 88.7693 212.235 -4.05231e-17
540 1 103.408 89.1064 -4.05231e-17
541 1 40.9313 58.9444 -4.05231e-17
542 1 67.2206 211.687 -4.05231e-17
543 1 147.237 151.647 -4.05231e-17
544 1 128.823 200.49 -4.05231e-17
545 1 8.27366 149.532 -4.05231e-17
546 1 179.212 40.9364 -4.05231e-17
547 1 82.6061 172.197 -4.05231e-17
548 1 100.195 8.63151 -4.05231e-17
549 1 51.6096 76.1781 -4.05231e-17
550 2 162.844 121.62 -4.05231e-17
551 2 134.669 157.601 -4.05231e-17
552 2 93.7136 180.905 -4.05231e-17
553 1 122.417 42.0753 -4.05231e-17
554 1 73.6489 101.874 -4.05231e-17
555 2 65.9505 123.941 -4.05231e-17
556 1 148.611 21.5583 -4.05231e-17
557 1 76.55 12.8649 -4.05231e-17
558 1 148.551 125.487 -4.05231e-17
559 1 187.55 47.4107 -4.05231e-17
560 1 131.074 51.2882 -4.05231e-17
561 1 146.651 168.66 -4.05231e-17
562 1 195.441 144.638 -4.05231e-17
563 2 168.222 113.865 -4.05231e-17
564 1 42.0185 67.1634 -4.05231e-17
565 1 60.0649 10.2819 -4.05231e-17
566 1 75.2526 34.3612 -4.05231e-17
567 1 150.299 110.998 -4.05231e-17
568 1 22.2741 114.388 -4.05231e-17
569 1 114.561 185.35 -4.05231e-17
570 1 125.181 124.34 -4.05231e-17
571 1 175.274 203.605 -4.05231e-17
572 1 61.8978 112.272 -4.05231e-17
573 1 177.053 76.6293 -4.05231e-17
574 1 41.9356 130.538 -4.05231e-17
575 1 21.6614 76.2715 -4.05231e-17
576 1 195.99 98.7066 -4.05231e-17
577 1 202.943 33.1617 -4.05231e-17
578 1 123.019 196.735 -4.05231e-17
579 1 14.6784 168.039 -4.05231e-17
580 1 102.88 139.335 -4.05231e-17
581 1 141.374 154.237 -4.05231e-17
582 1 76.0284 79.2523 -4.05231e-17
583 1 162.178 185.639 -4.05231e-17
584 2 28.9216 117.526 -4.05231e-17
585 1 49.052 198.86 -4.05231e-17
586 1 137.814 170.836 -4.05231e-17
587 1 99.4535 105.014 -4.05231e-17
588 1 17.2179 2.21311 -4.05231e-17
589 1 103.633 17.3499 -4.05231e-17
590 1 70.3198 0.245356 -4.05231e-17
591 1 216.098 162.424 -4.05231e-17
592 1 56.1249 156.194 -4.05231e-17
593 1 209.746 181.389 -4.05231e-17
594 1 181.622 181.202 -4.05231e-17
595 1 82.9795 39.4171 -4.05231e-17
596 1 65.9981 35.9009 -4.05231e-17
597 2 180.348 204.294 -4.05231e-17
598 1 167.413 211.684 -4.05231e-17
599 1 208.44 171.365 -4.05231e-17
600 1 105.174 10.7718 -4.05231e-17
601 1 11.9916 134.61 -4.05231e-17
602 1 98.0445 30.7019 -4.05231e-17
603 1 208.233 202.791 -4.05231e-17
604 1 120.984 1.11679 -4.05231e-17
605 2 85.7275 77.7571 -4.05231e-17
606 1 102.665 202.156 -4.05231e-17
607 2 172.356 146.788 -4.05231e-17
608 1 95.3215 77.0588 -4.05231e-17
609 1 15.728 6.77955 -4.05231e-17
610 1 214.401 150.576 -4.05231e-17
611 1 201.858 190.444 -4.05231e-17
612 1 217.952 37.6934 -4.05231e-17
613 1 59.2073 150.969 -4.05231e-17
614 2 127.91 179.566 -4.05231e-17
615 1 105.881 18.3985 -4.05231e-17
616 1 202.17 130.933 -4.05231e-17
617 1 127.153 198.546 -4.05231e-17
618 1 201.414 212.447 -4.05231e-17
619 1 178.988 78.1309 -4.05231e-17
620 1 141.34 141.41 -4.05231e-17
621 1 197.098 94.0274 -4.05231e-17
622 1 95.2338 214.087 -4.05231e-17
623 1 218.727 11.9868 -4.05231e-17
624 1 24.0161 208.909 -4.05231e-17
625 1 205.32 154.979 -4.05231e-17
626 1 93.7892 191.458 -4.05231e-17
627 1 64.0032 74.3478 -4.05231e-17
628 1 34.0581 28.5314 -4.05231e-17
629 1 9.93039 94.2881 -4.05231e-17
630 2 151.502 21.9643 -4.05231e-17
631 1 15.4633 86.4354 -4.05231e-17
632 1 49.2611 92.4186 -4.05231e-17
633 1 38.7412 211.622 -4.05231e-17
634 1 1.40736 147.461 -4.05231e-17
635 1 155.093 150.793 -4.05231e-17
636 1 208.074 57.636 -4.05231e-17
637 1 200.738 58.345 -4.05231e-17
638 1 172.862 76.6071 -4.05231e-17
639 2 203.903 78.8059 -4.05231e-17
640 1 143.698 152.742 -4.05231e-17
641 1 192.489 85.2922 -4.05231e-17
642 1 31.8747 91.4213 -4.05231e-17
643 2 181.708 42.614 -4.05231e-17
644 1 68.4009 155.156 -4.05231e-17
645 1 106.341 196.821 -4.05231e-17
646 2 211.89 141.425 -4.05231e-17
647 1 11.0614 185.238 -4.05231e-17
648 1 132.235 103.059 -4.05231e-17
649 2 24.2247 149.923 -4.05231e-17
650 1 204.773 186.907 -4.05231e-17
651 1 218.356 112.94 -4.05231e-17
652 1 153.455 43.9046 -4.05231e-17
653 1 114.191 175.779 -4.05231e-17
654 1 23.1236 21.9586 -4.05231e-17
655 2 183.439 101.066 -4.05231e-17
656 1 28.3643 123.505 -4.05231e-17
657 2 78.9357 207.767 -4.05231e-17
658 1 54.1375 44.3673 -4.05231e-17
659 2 156.432 192.652 -4.05231e-17
660 1 102.3 55.1194 -4.05231e-17
661 1 42.6245 116.689 -4.05231e-17
662 1 81.9493 130.45 -4.05231e-17
663 1 32.2306 26.0157 -4.05231e-17
664 1 146.272 17.6447 -4.05231e-17
665 1 139.936 75.0843 -4.05231e-17
666 2 48.1204 180.563 -4.05231e-17
667 1 93.3822 99.6942 -4.05231e-17
668 2 102.162 93.9638 -4.05231e-17
669 1 36.0643 17.5035 -4.05231e-17
670 1 96.4783 173.704 -4.05231e-17
671 2 54.0361 176.067 -4.05231e-17
672 1 186.762 11.9736 -4.05231e-17
673 1 63.225 19.5089 -4.05231e-17
674 1 2.28144 31.6064 -4.05231e-17
675 1 128.464 23.4434 -4.05231e-17
676 1 169.938 123.787 -4.05231e-17
677 1 131.468 174.865 -4.05231e-17
678 1 137.6 30.918 -4.05231e-17
679 2 152.076 32.7862 -4.05231e-17
680 1 202.764 41.4019 -4.05231e-17
681 2 129.208 119.338 -4.05231e-17
682 1 218.991 47.6726 -4.05231e-17
683 1 68.4523 4.60184 -4.05231e-17
684 1 120.152 154.688 -4.05231e-17
685 1 152.581 38.5737 -4.05231e-17
686 1 28.1771 194.192 -4.05231e-17
687 1 118.412 192.066 -4.05231e-17
688 1 162.808 110.188 -4.05231e-17
689 2 56.7182 46.4915 -4.05231e-17
690 1 70.2617 19.8853 -4.05231e-17
691 1 89.7637 66.6228 -4.05231e-17
692 1 131.152 7.92467 -4.05231e-17
693 1 48.1948 142.923 -4.05231e-17
694 1 76.1889 124.733 -4.05231e-17
695 1 145.858 38.4502 -4.05231e-17
696 1 146.342 80.8332 -4.05231e-17
697 1 139.758 201.553 -4.05231e-17
698 1 116.396 65.6638 -4.05231e-17
699 1 180.513 191.792 -4.05231e-17
700 1 205.795 209.404 -4.05231e-17
701 1 53.6451 17.0625 -4.05231e-17
702 1 113.499 129.052 -4.05231e-17
703 2 188.207 144.37 -4.05231e-17
704 1 29.0729 218.816 -4.05231e-17
705 2 69.5702 112.211 -4.05231e-17
706 1 165.69 177.171 -4.05231e-17
707 1 113.997 24.6451 -4.05231e-17
708 1 84.0346 209.722 -4.05231e-17
709 1 147.287 196.49 -4.05231e-17
710 1 192.505 191.723 -4.05231e-17
711 1 111.396 93.1436 -4.05231e-17
712 1 192.769 208.326 -4.05231e-17
713 1 14.1327 135.903 -4.05231e-17
714 1 136.109 13.0732 -4.05231e-17
715 1 55.947 199.245 -4.05231e-17
716 1 40.3967 123.934 -4.05231e-17
717 1 51.699 107.479 -4.05231e-17
718 1 130.871 185.168 -4.05231e-17
719 2 119.59 78.8942 -4.05231e-17
720 1 98.9774 64.5256 -4.05231e-17
721 1 95.7524 99.1056 -4.05231e-17
722 1 133.538 62.9074 -4.05231e-17
723 2 49.0194 45.881 -4.05231e-17
724 1 15.5253 49.6733 -4.05231e-17
725 1 29.6378 108.792 -4.05231e-17
726 1 189.697 45.785 -4.05231e-17
727 1 148.375 204.928 -4.05231e-17
728 2 17.9133 87.7091 -4.05231e-17
729 1 133.966 165.014 -4.05231e-17
730 1 174.157 199.201 -4.05231e-17
731 1 49.0424 189.845 -4.05231e-17
732 1 218.578 9.36014 -4.05231e-17
733 1 205.192 33.9812 -4.05231e-17
734 1 4.23152 30.0372 -4.05231e-17
735 1 40.0693 24.1705 -4.05231e-17
736 2 190.38 74.1283 -4.05231e-17
737 1 81.5255 86.5942 -4.05231e-17
738 1 18.8237 166.327 -4.05231e-17
739 1 105.926 156.337 -4.05231e-17
740 1 59.8809 116.243 -4.05231e-17
741 2 188.945 78.3076 -4.05231e-17
742 1 74.5445 43.1588 -4.05231e-17
743 1 203.114 66.6507 -4.05231e-17
744 2 211.007 172.667 -4.05231e-17
745 1 131.068 31.7192 -4.05231e-17
746 1 14.114 29.7332 -4.05231e-17
747 2 204.404 22.2567 -4.05231e-17
748 1 182.791 192.961 -4.05231e-17
749 1 196.509 211.198 -4.05231e-17
750 1 213.748 163.594 -4.05231e-17
751 1 59.8151 58.8814 -4.05231e-17
752 1 177.888 105.788 -4.05231e-17
753 1 99.1644 150.876 -4.05231e-17
754 1 15.5099 215.108 -4.05231e-17
755 1 83.0252 194.983 -4.05231e-17
756 2 103.45 196.172 -4.05231e-17
757 1 27.4317 18.8496 -4.05231e-17
758 1 135.742 146.195 -4.05231e-17
759 1 73.1546 107.402 -4.05231e-17
760 1 95.6613 40.3976 -4.05231e-17
761 1 58.2924 161.284 -4.05231e-17
762 1 43.2807 23.2289 -4.05231e-17
763 1 114.311 99.9144 -4.05231e-17
764 2 177.979 148.357 -4.05231e-17
765 1 94.4649 63.9673 -4.05231e-17
766 1 114.224 35.3251 -4.05231e-17
767 1 97.3674 78.6543 -4.05231e-17
768 1 9.74317 4.24646 -4.05231e-17
769 1 107.868 75.911 -4.05231e-17
770 2 113.302 109.875 -4.05231e-17
771 1 143.471 179.064 -4.05231e-17
772 1 102.637 28.5601 -4.05231e-17
773 1 109.386 167.326 -4.05231e-17
774 1 111.086 124.323 -4.05231e-17
775 1 68.8505 7.18137 -4.05231e-17
776 1 37.9443 10.8644 -4.05231e-17
777 1 107.985 181.831 -4.05231e-17
778 1 22.5804 19.4524 -4.05231e-17
779 1 191.61 44.171 -4.05231e-17
780 1 3.5833 169.495 -4.05231e-17
781 1 127.589 99.7401 -4.05231e-17
782 1 175.421 49.2736 -4.05231e-17
783 1 98.8434 15.4254 -4.05231e-17
784 2 195.309 159.285 -4.05231e-17
785 1 111.075 165.316 -4.05231e-17
786 1 119.106 177.222 -4.05231e-17
787 1 185.451 75.0619 -4.05231e-17
788 1 177.005 45.0474 -4.05231e-17
789 2 143.034 108.723 -4.05231e-17
790 1 110.026 28.6503 -4.05231e-17
791 2 14.1698 121.758 -4.05231e-17
792 2 215.889 13.3782 -4.05231e-17
793 2 115.243 68.4627 -4.05231e-17
794 1 56.3375 188.312 -4.05231e-17
795 1 132.184 53.6308 -4.05231e-17
796 1 130.702 22.0535 -4.05231e-17
797 1 198.084 155.667 -4.05231e-17
798 2 195.965 203.86 -4.05231e-17
799 2 207.613 65.395 -4.05231e-17
800 2 55.326 217.774 -4.05231e-17
801 1 102.853 132.547 -4.05231e-17
802 1 124.258 75.7981 -4.05231e-17
803 1 181.95 68.4408 -4.05231e-17
804 2 122.713 204.802 -4.05231e-17
805 1 44.5848 106.744 -4.05231e-17
806 1 11.7224 117.091 -4.05231e-17
807 2 100.589 99.4122 -4.05231e-17
808 1 14.4661 116.443 -4.05231e-17
809 2 58.0804 134.334 -4.05231e-17
810 1 129.787 198.053 -4.05231e-17
811 1 32.4082 6.10956 -4.05231e-17
812 1 131.865 34.1825 -4.05231e-17
813 2 107.805 111.195 -4.05231e-17
814 1 147.206 69.0693 -4.05231e-17
815 1 89.0973 164.804 -4.05231e-17
816 1 200.55 9.99189 -4.05231e-17
817 1 108.059 214.62 -4.05231e-17
818 1 57.6062 101.959 -4.05231e-17
819 1 9.76694 135.79 -4.05231e-17
820 1 45.2627 120.409 -4.05231e-17
821 1 94.1967 151.783 -4.05231e-17
822 2 41.812 135.772 -4.05231e-17
823 2 138.966 91.3702 -4.05231e-17
824 1 34.9711 107.821 -4.05231e-17
825 1 65.2713 15.5436 -4.05231e-17
826 1 190.452 14.1911 -4.05231e-17
827 1 192.769 107.332 -4.05231e-17
828 1 142.566 123.424 -4.05231e-17
829 1 127.173 210.872 -4.05231e-17
830 1 81.5497 127.915 -4.05231e-17
831 1 217.253 42.4612 -4.05231e-17
832 1 93.3406 87.5742 -4.05231e-17
833 1 62.2291 84.5728 -4.05231e-17
834 1 107.194 9.12019 -4.05231e-17
835 1 58.0507 218.318 -4.05231e-17
836 1 10.9908 50.8302 -4.05231e-17
837 1 6.65971 70.5621 -4.05231e-17
838 1 97.9508 178.807 -4.05231e-17
839 2 197.947 3.19771 -4.05231e-17
840 1 5.04404 202.456 -4.05231e-17
841 2 63.0634 184.614 -4.05231e-17
842 1 94.6599 92.0309 -4.05231e-17
843 2 159.414 182.868 -4.05231e-17
844 1 25.6609 158.491 -4.05231e-17
845 1 70.9844 189.314 -4.05231e-17
846 1 159.088 191.136 -4.05231e-17
847 1 41.9572 140.839 -4.05231e-17
848 1 188.76 117.29 -4.05231e-17
849 1 189.938 166.978 -4.05231e-17
850 1 39.7425 129.774 -4.05231e-17
851 1 89.4426 37.3901 -4.05231e-17
852 1 11.6621 209.087 -4.05231e-17
853 1 31.9867 138.536 -4.05231e-17
854 1 171.332 84.6013 -4.05231e-17
855 1 126.317 19.5626 -4.05231e-17