ITEM: TIMESTEP
0
ITEM: NUMBER OF ATOMS
7200
ITEM: BOX BOUNDS xy xz yz pp pp pp
0.0000000000000000e+00 2.1900000000000000e+02 0.0000000000000000e+00
0.0000000000000000e+00 2.1900000000000000e+02 0.0000000000000000e+00
-3.6499999999999999e-01 3.6499999999999999e-01 0.0000000000000000e+00
ITEM: ATOMS id type x y z
1 1 67.804 134.636 -4.05231e-17
2 1 183.513 108.765 -4.05231e-17
3 1 12.9977 157.618 -4.05231e-17
4 1 3.64697 86.2378 -4.05231e-17
5 1 215.813 157.683 -4.05231e-17
6 1 116.924 210.587 -4.05231e-17
7 1 42.2132 51.3099 -4.05231e-17
8 2 149.261 83.2452 -4.05231e-17
9 1 203.001 9.53836 -4.05231e-17
10 2 57.6684 193.509 -4.05231e-17
11 1 114.723 14.7971 -4.05231e-17
12 1 128.919 78.2281 -4.05231e-17
13 2 51.214 79.3232 -4.05231e-17
14 1 65.6758 18.0139 -4.05231e-17
15 1 136.652 105.435 -4.05231e-17
16 2 60.8066 172.736 -4.05231e-17
17 1 114.395 30.7469 -4.05231e-17
18 2 31.192 79.1293 -4.05231e-17
19 1 106.565 52.5619 -4.05231e-17
20 1 144.184 103.752 -4.05231e-17
21 1 42.1365 5.62016 -4.05231e-17
22 2 49.7935 147.716 -4.05231e-17
23 2 17.4047 54.2919 -4.05231e-17
24 1 159.243 99.7384 -4.05231e-17
25 1 75.6007 183.02 -4.05231e-17
26 2 86.2374 96.5272 -4.05231e-17
27 1 155.609 174.642 -4.05231e-17
28 2 22.9695 156.565 -4.05231e-17
29 1 53.1468 46.381 -4.05231e-17
30 1 139.425 88.6315 -4.05231e-17
31 1 211.463 90.4072 -4.05231e-17
32 1 58.2161 104.234 -4.05231e-17
33 1 157.246 154.725 -4.05231e-17
34 1 61.1332 77.5789 -4.05231e-17
35 1 177.234 69.0965 -4.05231e-17
36 1 61.4489 75.0736 -4.05231e-17
37 2 136.541 140.44 -4.05231e-17
38 1 197.954 74.2748 -4.05231e-17
39 1 122.018 138.402 -4.05231e-17
40 1 166.001 163.908 -4.05231e-17
41 1 120.858 182.358 -4.05231e-17
42 1 103.144 35.9267 -4.05231e-17
43 1 135.413 60.8359 -4.05231e-17
44 1 107.254 22.9818 -4.05231e-17
45 1 214.647 84.617 -4.05231e-17
46 1 28.279 203.484 -4.05231e-17
47 1 88.8895 172.415 -4.05231e-17
48 2 47.7022 86.4629 -4.05231e-17
49 1 76.7431 110.629 -4.05231e-17
50 1 46.2736 197.78 -4.05231e-17
51 1 181.307 34.5812 -4.05231e-17
52 1 203.936 133.02 -4.05231e-17
53 1 156.552 27.267 -4.05231e-17
54 1 24.4759 119.427 -4.05231e-17
55 1 22.8665 48.0699 -4.05231e-17
56 1 117.548 140.059 -4.05231e-17
57 2 67.8232 214.608 -4.05231e-17
58 1 32.6318 40.2079 -4.05231e-17
59 1 29.1287 151.731 -4.05231e-17
60 2 151.906 147.053 -4.05231e-17
61 2 35.9291 202.978 -4.05231e-17
62 1 11.1387 161.923 -4.05231e-17
63 1 111.77 197.727 -4.05231e-17
64 1 133.898 39.276 -4.05231e-17
65 1 214.355 114.147 -4.05231e-17
66 1 128.886 134.286 -4.05231e-17
67 1 95.813 139.78 -4.05231e-17
68 1 67.0365 116.502 -4.05231e-17
69 1 140.95 174.176 -4.05231e-17
70 1 59.2455 111.555 -4.05231e-17
71 1 7.48783 125.511 -4.05231e-17
72 1 171.537 60.7607 -4.05231e-17
73 1 188.025 186.012 -4.05231e-17
74 1 207.009 21.2734 -4.05231e-17
75 2 93.4446 1.29235 -4.05231e-17
76 1 17.5942 4.69401 -4.05231e-17
77 1 36.5318 23.9864 -4.05231e-17
78 1 124.406 117.491 -4.05231e-17
79 2 126.338 1.21682 -4.05231e-17
80 1 75.1608 106.152 -4.05231e-17
81 1 110.337 140.959 -4.05231e-17
82 1 54.2031 141.7 -4.05231e-17
83 2 129.739 182.225 -4.05231e-17
84 1 179.965 80.8324 -4.05231e-17
85 1 22.3987 41.1398 -4.05231e-17
86 1 128.092 142.367 -4.05231e-17
87 1 217.057 217.213 -4.05231e-17
88 1 19.2918 35.0524 -4.05231e-17
89 2 44.142 3.57401 -4.05231e-17
90 2 190.742 187.33 -4.05231e-17
91 1 149.634 90.7407 -4.05231e-17
92 2 168.88 21.6427 -4.05231e-17
93 1 141.916 15.3907 -4.05231e-17
94 2 201.59 11.9687 -4.05231e-17
95 1 33.465 195.027 -4.05231e-17
96 1 130.505 95.2149 -4.05231e-17
97 1 97.0161 4.87984 -4.05231e-17
98 1 125.657 54.9931 -4.05231e-17
99 1 177.991 21.5806 -4.05231e-17
100 1 175.848 8.80283 -4.05231e-17
101 1 114.469 12.279 -4.05231e-17
102 1 24.731 45.9117 -4.05231e-17
103 1 58.0392 80.4806 -4.05231e-17
104 1 68.9273 108.955 -4.05231e-17
105 1 142.592 201.65 -4.05231e-17
106 1 77.925 102.707 -4.05231e-17
107 2 146.607 101.632 -4.05231e-17
108 1 36.0576 210.666 -4.05231e-17
109 1 54.5595 89.0277 -4.05231e-17
110 1 107.833 63.0191 -4.05231e-17
111 1 61.248 21.2082 -4.05231e-17
112 1 94.8247 137.281 -4.05231e-17
113 1 99.4538 43.5338 -4.05231e-17
114 1 158.557 23.2005 -4.05231e-17
115 1 51.2093 163.065 -4.05231e-17
116 2 214.239 133.726 -4.05231e-17
117 1 201.479 216.369 -4.05231e-17
118 1 165.171 68.002 -4.05231e-17
119 2 57.978 98.6987 -4.05231e-17
120 1 53.3911 199.481 -4.05231e-17
121 1 152.143 84.0658 -4.05231e-17
122 1 103.115 14.6179 -4.05231e-17
123 1 136.472 76.2227 -4.05231e-17
124 1 154.952 201.692 -4.05231e-17
125 1 141.488 117.896 -4.05231e-17
126 1 111.696 65.549 -4.05231e-17
127 1 163.747 78.4194 -4.05231e-17
128 1 175.578 136.706 -4.05231e-17
129 1 7.54668 104.101 -4.05231e-17
130 1 83.6964 128.671 -4.05231e-17
131 1 175.647 152.199 -4.05231e-17
132 2 182.986 2.27793 -4.05231e-17
133 1 126.777 79.4822 -4.05231e-17
134 1 35.3919 86.432 -4.05231e-17
135 1 78.1341 8.34861 -4.05231e-17
136 1 210.133 201.466 -4.05231e-17
137 1 102.121 137.023 -4.05231e-17
138 1 50.2819 212.391 -4.05231e-17
139 1 202.637 105.639 -4.05231e-17
140 2 141.94 186.219 -4.05231e-17
141 1 205.431 96.3571 -4.05231e-17
142 2 211.867 49.0487 -4.05231e-17
143 1 111.353 80.687 -4.05231e-17
144 2 43.5741 199.334 -4.05231e-17
145 1 171.982 103.411 -4.05231e-17
146 1 99.6262 120.257 -4.05231e-17
147 1 154.442 145.774 -4.05231e-17
148 1 6.55269 200.717 -4.05231e-17
149 1 68.2985 21.7218 -4.05231e-17
150 1 53.864 37.0002 -4.05231e-17
151 1 26.1503 112.686 -4.05231e-17
152 1 63.3752 104.446 -4.05231e-17
153 2 52.4587 6.39422 -4.05231e-17
154 1 149.11 94.7452 -4.05231e-17
155 1 107.776 16.7385 -4.05231e-17
156 2 71.7474 115.994 -4.05231e-17
157 1 207.537 104.858 -4.05231e-17
158 1 28.7691 28.9148 -4.05231e-17
159 1 22.1991 135.821 -4.05231e-17
160 1 11.9206 201.311 -4.05231e-17
161 1 1.52292 7.66097 -4.05231e-17
162 1 127.327 127.698 -4.05231e-17
163 1 17.767 32.7172 -4.05231e-17
164 1 167.053 53.2358 -4.05231e-17
165 1 125.09 121.947 -4.05231e-17
166 2 159.509 60.9371 -4.05231e-17
167 1 175.343 46.9179 -4.05231e-17
168 1 149.154 169.866 -4.05231e-17
169 1 1.40407 101.781 -4.05231e-17
170 1 94.9588 168.558 -4.05231e-17
171 1 146.567 61.1763 -4.05231e-17
172 1 218.534 17.055 -4.05231e-17
173 1 45.874 143.213 -4.05231e-17
174 1 131.279 62.4497 -4.05231e-17
175 2 137.507 160.976 -4.05231e-17
176 1 109.656 70.6421 -4.05231e-17
177 2 70.6908 57.1977 -4.05231e-17
178 1 65.5604 86.7517 -4.05231e-17
179 1 173.282 163.8 -4.05231e-17
180 1 203.597 196.878 -4.05231e-17
181 1 135.057 167.675 -4.05231e-17
182 2 77.4458 20.8389 -4.05231e-17
183 1 76.9339 164.279 -4.05231e-17
184 1 176.325 86.7933 -4.05231e-17
185 2 175.291 20.5955 -4.05231e-17
186 2 208.763 133.969 -4.05231e-17
187 1 93.2541 28.9496 -4.05231e-17
188 1 102.957 170.302 -4.05231e-17
189 1 123.586 174.63 -4.05231e-17
190 2 13.7468 160.312 -4.05231e-17
191 1 77.5595 157.783 -4.05231e-17
192 2 63.6818 109.907 -4.05231e-17
193 2 79.687 172.602 -4.05231e-17
194 1 33.0971 148.996 -4.05231e-17
195 1 145.118 163.556 -4.05231e-17
196 1 168.727 191.857 -4.05231e-17
197 1 74.1432 69.942 -4.05231e-17
198 2 9.60377 132.708 -4.05231e-17
199 1 210.871 57.1208 -4.05231e-17
200 1 80.2493 6.64069 -4.05231e-17
201 2 71.6892 109.876 -4.05231e-17
202 1 52.4582 211.013 -4.05231e-17
203 1 175.297 81.6527 -4.05231e-17
204 1 188.648 156.388 -4.05231e-17
205 2 191.766 82.4891 -4.05231e-17
206 1 88.9925 133.21 -4.05231e-17
207 1 106.258 29.5182 -4.05231e-17
208 1 32.9355 86.351 -4.05231e-17
209 1 81.9862 2.49604 -4.05231e-17
210 1 8.02753 64.5612 -4.05231e-17
211 2 146.783 156.752 -4.05231e-17
212 1 120.35 112.774 -4.05231e-17
213 1 134.598 104.135 -4.05231e-17
214 1 74.5594 14.245 -4.05231e-17
215 1 74.347 201.809 -4.05231e-17
216 1 193.652 139.225 -4.05231e-17
217 1 126.791 187.002 -4.05231e-17
218 2 28.6387 168.253 -4.05231e-17
219 1 155.429 214.132 -4.05231e-17
220 2 107.246 55.4666 -4.05231e-17
221 1 213.054 56.0318 -4.05231e-17
222 1 143.913 146.192 -4.05231e-17
223 1 52.3072 208.232 -4.05231e-17
224 2 10.0652 188.546 -4.05231e-17
225 1 201.592 142.608 -4.05231e-17
226 1 138.989 190.312 -4.05231e-17
227 2 51.1767 16.9595 -4.05231e-17
228 1 138.439 77.7747 -4.05231e-17
229 1 60.8921 135.633 -4.05231e-17
230 1 159.143 131.247 -4.05231e-17
231 1 148.547 123.007 -4.05231e-17
232 1 1.079 90.6977 -4.05231e-17
233 1 109.927 100.067 -4.05231e-17
234 1 134.178 216.262 -4.05231e-17
235 1 20.8625 143.172 -4.05231e-17
236 1 46.2101 81.7456 -4.05231e-17
237 1 198.416 7.97131 -4.05231e-17
238 1 147.89 128.199 -4.05231e-17
239 2 17.6722 112.349 -4.05231e-17
240 1 99.7358 5.72922 -4.05231e-17
241 2 187.429 14.6009 -4.05231e-17
242 2 198.851 36.9838 -4.05231e-17
243 2 114.628 27.7374 -4.05231e-17
244 1 97.7542 7.34035 -4.05231e-17
245 1 84.6527 58.8519 -4.05231e-17
246 1 125.98 119.411 -4.05231e-17
247 1 210.71 98.5483 -4.05231e-17
248 1 94.2748 3.98378 -4.05231e-17
249 1 23.4798 65.7304 -4.05231e-17
250 2 149.63 29.8357 -4.05231e-17
251 1 153.597 212.313 -4.05231e-17
252 1 195.476 64.1791 -4.05231e-17
253 1 94.4415 61.4064 -4.05231e-17
254 2 76.7299 197.448 -4.05231e-17
255 1 212.458 149.087 -4.05231e-17
256 1 84.758 165.82 -4.05231e-17
257 1 211.831 151.677 -4.05231e-17
258 2 164.067 28.1818 -4.05231e-17
259 1 58.3327 165.939 -4.05231e-17
260 1 127.404 11.4954 -4.05231e-17
261 1 184.58 13.9404 -4.05231e-17
262 1 53.2118 52.2974 -4.05231e-17
263 1 12.7805 213.617 -4.05231e-17
264 1 172.785 43.2017 -4.05231e-17
265 1 166.317 23.0126 -4.05231e-17
266 1 155.499 9.86575 -4.05231e-17
267 1 2.74181 64.4884 -4.05231e-17
268 1 21.6762 35.3723 -4.05231e-17
269 1 125.768 94.8019 -4.05231e-17
270 1 141.189 106.83 -4.05231e-17
271 1 12.6815 92.7517 -4.05231e-17
272 1 159.269 202.262 -4.05231e-17
273 1 40.5877 169.014 -4.05231e-17
274 2 113.092 87.9728 -4.05231e-17
275 1 64.144 5.16082 -4.05231e-17
276 2 53.8239 32.0914 -4.05231e-17
277 2 167.181 122.089 -4.05231e-17
278 1 38.6631 101.02 -4.05231e-17
279 2 109.812 205.143 -4.05231e-17
280 1 60.2846 31.9241 -4.05231e-17
281 1 147.143 28.2502 -4.05231e-17
282 1 164.678 8.52076 -4.05231e-17
283 1 112.901 141.638 -4.05231e-17
284 1 136.679 165.788 -4.05231e-17
285 1 35.642 12.5433 -4.05231e-17
286 2 33.9378 215.111 -4.05231e-17
287 1 82.3206 135.428 -4.05231e-17
288 1 21.8457 57.2276 -4.05231e-17
289 1 71.4654 54.2691 -4.05231e-17
290 1 150.981 193.693 -4.05231e-17
291 1 158.504 145.167 -4.05231e-17
292 2 19.9321 181.302 -4.05231e-17
293 2 65.5673 194.933 -4.05231e-17
294 1 111.817 40.3017 -4.05231e-17
295 1 124.94 48.0985 -4.05231e-17
296 1 135.1 41.6879 -4.05231e-17
297 1 118.935 145.121 -4.05231e-17
298 1 104.979 198.448 -4.05231e-17
299 1 160.393 106.501 -4.05231e-17
300 2 62.1675 94.7642 -4.05231e-17
301 1 58.7647 45.6362 -4.05231e-17
302 1 127.136 192.899 -4.05231e-17
303 2 198.533 60.0114 -4.05231e-17
304 2 144.841 129.509 -4.05231e-17
305 1 85.7459 99.5909 -4.05231e-17
306 1 50.9596 73.5037 -4.05231e-17
307 1 34.9566 122.367 -4.05231e-17
308 1 161.879 59.198 -4.05231e-17
309 2 73.1358 184.612 -4.05231e-17
310 1 194.3 215.433 -4.05231e-17
311 1 79.8539 33.7329 -4.05231e-17
312 1 192.409 147.839 -4.05231e-17
313 2 147.399 66.3573 -4.05231e-17
314 1 52.3858 135.231 -4.05231e-17
315 1 111.195 150.221 -4.05231e-17
316 1 72.5438 0.90146 -4.05231e-17
317 1 13.7598 99.5601 -4.05231e-17
318 1 100.117 215.144 -4.05231e-17
319 1 50.8785 32.8546 -4.05231e-17
320 1 144.541 99.6638 -4.05231e-17
321 1 88.7289 203.93 -4.05231e-17
322 1 143.405 140.301 -4.05231e-17
323 1 188.508 107.897 -4.05231e-17
324 1 81.0728 26.9005 -4.05231e-17
325 1 162.929 139.55 -4.05231e-17
326 1 85.1026 152.102 -4.05231e-17
327 2 149.742 186.313 -4.05231e-17
328 1 167.831 40.6571 -4.05231e-17
329 2 47.2363 115.634 -4.05231e-17
330 1 23.8722 102.04 -4.05231e-17
331 1 174.823 175.951 -4.05231e-17
332 2 112.293 104.402 -4.05231e-17
333 1 44.3539 17.814 -4.05231e-17
334 1 139.845 169.06 -4.05231e-17
335 1 12.4069 206.41 -4.05231e-17
336 1 212.568 106.492 -4.05231e-17
337 1 103.22 182.134 -4.05231e-17
338 1 159.28 57.938 -4.05231e-17
339 1 109.14 217.137 -4.05231e-17
340 1 153.738 141.331 -4.05231e-17
341 1 160.297 158.999 -4.05231e-17
342 1 129.007 144.747 -4.05231e-17
343 1 127.564 29.2383 -4.05231e-17
344 1 63.6382 182.159 -4.05231e-17
345 1 60.7242 109.469 -4.05231e-17
346 1 9.38582 127.036 -4.05231e-17
347 1 92.3265 92.3283 -4.05231e-17
348 1 164.269 179.182 -4.05231e-17
349 1 193.638 75.458 -4.05231e-17
350 2 89.8066 40.7401 -4.05231e-17
351 1 155.16 66.0695 -4.05231e-17
352 1 60.8425 183.097 -4.05231e-17
353 1 39.4904 166.433 -4.05231e-17
354 1 167.849 161.753 -4.05231e-17
355 1 58.2861 156.714 -4.05231e-17
356 1 24.0404 36.4254 -4.05231e-17
357 1 62.5087 158.775 -4.05231e-17
358 1 172.455 180.821 -4.05231e-17
359 1 157.868 159.251 -4.05231e-17
360 1 74.0652 53.7937 -4.05231e-17
361 1 63.1135 168.209 -4.05231e-17
362 1 169.126 201.072 -4.05231e-17
363 1 163.601 189.889 -4.05231e-17
364 2 116.569 92.5418 -4.05231e-17
365 1 178.866 90.9108 -4.05231e-17
366 1 117.316 160.989 -4.05231e-17
367 1 173.979 6.96686 -4.05231e-17
368 1 197.176 192.306 -4.05231e-17
369 2 115.316 188.249 -4.05231e-17
370 1 14.9983 205.998 -4.05231e-17
371 1 53.933 137.249 -4.05231e-17
372 2 0.093078 93.6534 -4.05231e-17
373 2 212.715 7.73831 -4.05231e-17
374 1 151.378 88.6422 -4.05231e-17
375 1 37.2161 111.944 -4.05231e-17
376 1 17.1887 151.55 -4.05231e-17
377 1 28.6642 213.087 -4.05231e-17
378 1 74.6229 129.58 -4.05231e-17
379 1 42.9482 60.5786 -4.05231e-17
380 1 177.792 150.841 -4.05231e-17
381 1 13.3419 5.49082 -4.05231e-17
382 1 54.4133 67.1342 -4.05231e-17
383 1 169.699 67.5453 -4.05231e-17
384 1 21.7036 13.925 -4.05231e-17
385 1 191.555 76.9224 -4.05231e-17
386 2 82.2043 44.6263 -4.05231e-17
387 1 144.23 19.0496 -4.05231e-17
388 1 56.6725 43.5337 -4.05231e-17
389 1 206.811 159.122 -4.05231e-17
390 2 207.417 179.672 -4.05231e-17
391 2 35.6149 40.3425 -4.05231e-17
392 1 41.507 218.244 -4.05231e-17
393 1 0.442483 33.3163 -4.05231e-17
394 1 102.258 101.208 -4.05231e-17
395 1 16.1293 27.5416 -4.05231e-17
396 1 202.615 153.792 -4.05231e-17
397 1 100.974 16.0557 -4.05231e-17
398 1 11.5489 191.168 -4.05231e-17
399 1 19.4892 59.4542 -4.05231e-17
400 1 103.602 179.547 -4.05231e-17
401 1 87.7601 176.826 -4.05231e-17
402 2 191.607 179.027 -4.05231e-17
403 1 214.224 53.8437 -4.05231e-17
404 1 36.2378 71.6691 -4.05231e-17
405 1 204.34 29.1956 -4.05231e-17
406 1 201.162 68.1369 -4.05231e-17
407 2 19.4684 62.6709 -4.05231e-17
408 1 34.466 35.2123 -4.05231e-17
409 1 169.329 129.082 -4.05231e-17
410 1 19.9436 154.731 -4.05231e-17
411 1 151.972 160.985 -4.05231e-17
412 1 115.125 215.127 -4.05231e-17
413 1 63.5243 156.394 -4.05231e-17
414 1 37.9634 13.626 -4.05231e-17
415 1 208.097 148.088 -4.05231e-17
416 1 71.9434 200.323 -4.05231e-17
417 1 141.228 94.1509 -4.05231e-17
418 2 184.102 7.54655 -4.05231e-17
419 1 108.61 149.842 -4.05231e-17
420 2 136.621 108.967 -4.05231e-17
421 1 87.8021 103.843 -4.05231e-17
422 1 176.251 23.6719 -4.05231e-17
423 2 158.203 41.4714 -4.05231e-17
424 1 157.095 149.441 -4.05231e-17
425 1 129.168 166.911 -4.05231e-17
426 1 133.204 112.96 -4.05231e-17
427 1 45.6224 84.4048 -4.05231e-17
428 1 71.0701 192.098 -4.05231e-17
429 1 194.603 83.2549 -4.05231e-17
430 1 215.419 60.0471 -4.05231e-17
431 1 120.258 206.631 -4.05231e-17
432 1 161.499 54.1274 -4.05231e-17
433 1 105.079 153.875 -4.05231e-17
434 1 71.6398 30.5075 -4.05231e-17
435 1 178.015 161.575 -4.05231e-17
436 1 44.4066 36.1999 -4.05231e-17
437 1 175.495 109.426 -4.05231e-17
438 2 109.81 21.3942 -4.05231e-17
439 1 67.2115 209.014 -4.05231e-17
440 1 3.54445 161.758 -4.05231e-17
441 1 192.86 131.458 -4.05231e-17
442 1 50.435 13.7437 -4.05231e-17
443 1 158.283 104.877 -4.05231e-17
444 1 218.094 101.064 -4.05231e-17
445 1 139.396 7.33537 -4.05231e-17
446 1 131.369 78.9778 -4.05231e-17
447 1 38.8924 144.638 -4.05231e-17
448 1 75.6988 7.2952 -4.05231e-17
449 1 131.617 120.719 -4.05231e-17
450 1 139.677 187.953 -4.05231e-17
451 1 170.937 47.2585 -4.05231e-17
452 1 131.451 145.056 -4.05231e-17
453 1 179.43 182.433 -4.05231e-17
454 1 160.299 211.835 -4.05231e-17
455 1 100.197 71.9329 -4.05231e-17
456 1 167.174 27.2664 -4.05231e-17
457 1 98.0391 113.379 -4.05231e-17
458 1 198.321 0.296224 -4.05231e-17
459 1 81.5947 69.3097 -4.05231e-17
460 1 48.9949 102.65 -4.05231e-17
461 1 188.872 178.142 -4.05231e-17
462 1 181.995 116.352 -4.05231e-17
463 1 126.638 33.6767 -4.05231e-17
464 1 155.245 195.72 -4.05231e-17
465 1 121.606 159.765 -4.05231e-17
466 1 24.0305 213.763 -4.05231e-17
467 1 17.4424 79.9376 -4.05231e-17
468 1 161.495 218.701 -4.05231e-17
469 1 68.4947 77.8212 -4.05231e-17
470 1 78.3372 38.1686 -4.05231e-17
471 1 128.791 174.455 -4.05231e-17
472 1 48.0522 83.4777 -4.05231e-17
473 1 26.3018 102.655 -4.05231e-17
474 1 88.0897 101.214 -4.05231e-17
475 1 184.987 163.817 -4.05231e-17
476 2 192.059 11.9643 -4.05231e-17
477 1 53.6472 84.5064 -4.05231e-17
478 1 58.4813 125.924 -4.05231e-17
479 1 201.76 80.5846 -4.05231e-17
480 1 85.1947 23.745 -4.05231e-17
481 1 14.8503 94.1301 -4.05231e-17
482 1 99.3811 159.963 -4.05231e-17
483 1 142.274 160.028 -4.05231e-17
484 2 87.7901 45.9016 -4.05231e-17
485 1 33.9621 100.419 -4.05231e-17
486 1 81.6277 17.3905 -4.05231e-17
487 1 100.868 196.744 -4.05231e-17
488 1 6.04977 121.159 -4.05231e-17
489 1 211.644 135.057 -4.05231e-17
490 1 204.919 83.9517 -4.05231e-17
491 1 197.613 121.793 -4.05231e-17
492 1 2.68853 128.64 -4.05231e-17
493 1 193.916 210.453 -4.05231e-17
494 1 211.229 38.1041 -4.05231e-17
495 1 198.804 89.2291 -4.05231e-17
496 2 43.9413 189.597 -4.05231e-17
497 1 39.1126 217.185 -4.05231e-17
498 1 104.769 121.061 -4.05231e-17
499 2 136.996 216.59 -4.05231e-17
500 1 26.2371 29.781 -4.05231e-17
501 2 112.54 216.79 -4.05231e-17
502 2 123.899 143.436 -4.05231e-17
503 1 147.286 184.174 -4.05231e-17
504 1 113.164 148.537 -4.05231e-17
505 1 118.384 18.6567 -4.05231e-17
506 1 26.0629 121.661 -4.05231e-17
507 1 14.4335 129.766 -4.05231e-17
508 1 196.415 217.086 -4.05231e-17
509 2 27.4826 75.3896 -4.05231e-17
510 2 146.212 133.218 -4.05231e-17
511 1 196.199 35.4617 -4.05231e-17
512 2 210.371 59.9435 -4.05231e-17
513 1 56.2985 127.427 -4.05231e-17
514 1 48.9617 18.8449 -4.05231e-17
515 1 204.168 24.9593 -4.05231e-17
516 1 183.69 206.401 -4.05231e-17
517 1 112.08 117.393 -4.05231e-17
518 2 103.177 20.1366 -4.05231e-17
519 1 11.7631 52.8035 -4.05231e-17
520 2 212.309 22.8841 -4.05231e-17
521 1 88.6034 110.803 -4.05231e-17
522 1 30.9476 30.4108 -4.05231e-17
523 1 24.7896 68.0884 -4.05231e-17
524 1 99.9152 74.6732 -4.05231e-17
525 1 174.929 121.288 -4.05231e-17
526 1 190.864 64.8009 -4.05231e-17
527 1 75.3783 4.75758 -4.05231e-17
528 1 168.778 29.4664 -4.05231e-17
529 1 56.9015 158.91 -4.05231e-17
530 1 100.681 31.4282 -4.05231e-17
531 1 66.4505 197.639 -4.05231e-17
532 1 206.95 187.922 -4.05231e-17
533 1 134.303 151.059 -4.05231e-17
534 1 97.3546 144.761 -4.05231e-17
535 1 14.3903 104.767 -4.05231e-17
536 1 203.664 118.014 -4.05231e-17
537 1 201.542 166.807 -4.05231e-17
538 1 168.741 81.1612 -4.05231e-17
539 1 89.0131 211.61 -4.05231e-17
540 1 103.533 88.7832 -4.05231e-17
541 1 40.8579 58.8291 -4.05231e-17
542 1 67.0657 211.724 -4.05231e-17
543 1 147.24 152.168 -4.05231e-17
544 1 128.971 200.622 -4.05231e-17
545 1 7.76556 149.387 -4.05231e-17
546 1 179.583 41.2466 -4.05231e-17
547 1 82.5846 172.232 -4.05231e-17
548 1 100.131 8.39961 -4.05231e-17
549 1 51.3906 76.3785 -4.05231e-17
550 2 162.871 121.44 -4.05231e-17
551 2 134.696 158.097 -4.05231e-17
552 2 93.8696 180.652 -4.05231e-17
553 1 122.456 42.3738 -4.05231e-17
554 1 73.4366 101.691 -4.05231e-17
555 2 65.9057 123.974 -4.05231e-17
556 1 148.528 21.8608 -4.05231e-17
557 1 76.7087 12.5741 -4.05231e-17
558 1 148.237 125.659 -4.05231e-17
559 1 187.714 47.5241 -4.05231e-17
560 1 131.317 51.2142 -4.05231e-17
561 1 146.554 168.978 -4.05231e-17
562 1 195.769 144.421 -4.05231e-17
563 2 168.083 113.889 -4.05231e-17
564 1 41.9393 66.8434 -4.05231e-17
565 1 60.3438 10.716 -4.05231e-17
566 1 75.3191 34.4706 -4.05231e-17
567 1 150.407 111.196 -4.05231e-17
568 1 22.2726 114.62 -4.05231e-17
569 1 114.341 185.32 -4.05231e-17
570 1 124.679 124.591 -4.05231e-17
571 1 175.596 203.649 -4.05231e-17
572 1 61.745 112.222 -4.05231e-17
573 1 177.277 76.8701 -4.05231e-17
574 1 41.9359 130.057 -4.05231e-17
575 1 22.126 76.6144 -4.05231e-17
576 1 196.029 98.4528 -4.05231e-17
577 1 202.933 33.1221 -4.05231e-17
578 1 122.898 197.038 -4.05231e-17
579 1 15.5713 165.383 -4.05231e-17
580 1 102.902 139.472 -4.05231e-17
581 1 141.302 154.614 -4.05231e-17
582 1 76.1613 79.2001 -4.05231e-17
583 1 162.176 185.652 -4.05231e-17
584 2 28.9979 117.442 -4.05231e-17
585 1 48.5716 198.984 -4.05231e-17
586 1 137.733 171.148 -4.05231e-17
587 1 99.224 104.615 -4.05231e-17
588 1 17.2216 1.74867 -4.05231e-17
589 1 103.27 17.1634 -4.05231e-17
590 1 70.0918 0.0921672 -4.05231e-17
591 1 215.81 162.617 -4.05231e-17
592 1 55.9289 156.131 -4.05231e-17
593 1 209.658 181.652 -4.05231e-17
594 1 181.596 181.37 -4.05231e-17
595 1 83.1596 39.7352 -4.05231e-17
596 1 66.2825 36.0634 -4.05231e-17
597 2 181.025 204.54 -4.05231e-17
598 1 167.084 211.611 -4.05231e-17
599 1 208.194 171.587 -4.05231e-17
600 1 105.03 10.4992 -4.05231e-17
601 1 11.7771 134.814 -4.05231e-17
602 1 98.2552 30.9159 -4.05231e-17
603 1 207.794 202.55 -4.05231e-17
604 1 120.757 1.39653 -4.05231e-17
605 2 85.6302 77.5677 -4.05231e-17
606 1 102.674 202.082 -4.05231e-17
607 2 171.565 146.709 -4.05231e-17
608 1 94.942 76.713 -4.05231e-17
609 1 15.6382 6.33103 -4.05231e-17
610 1 214.186 150.807 -4.05231e-17
611 1 201.987 190.275 -4.05231e-17
612 1 217.813 37.9488 -4.05231e-17
613 1 59.275 150.805 -4.05231e-17
614 2 127.722 179.417 -4.05231e-17
615 1 105.642 18.3638 -4.05231e-17
616 1 202.178 131.248 -4.05231e-17
617 1 127.229 198.652 -4.05231e-17
618 1 201.342 212.208 -4.05231e-17
619 1 179.228 78.4631 -4.05231e-17
620 1 141.563 142.007 -4.05231e-17
621 1 197.167 93.6565 -4.05231e-17
622 1 95.1176 213.708 -4.05231e-17
623 1 218.511 11.9575 -4.05231e-17
624 1 23.8489 208.943 -4.05231e-17
625 1 204.917 155.116 -4.05231e-17
626 1 94.1171 191.173 -4.05231e-17
627 1 63.851 74.0388 -4.05231e-17
628 1 34.229 28.1115 -4.05231e-17
629 1 10.1646 94.5539 -4.05231e-17
630 2 151.482 22.2416 -4.05231e-17
631 1 15.4228 86.1506 -4.05231e-17
632 1 49.6123 91.8473 -4.05231e-17
633 1 38.3679 211.771 -4.05231e-17
634 1 1.29266 147.536 -4.05231e-17
635 1 154.995 150.834 -4.05231e-17
636 1 208.234 58.0373 -4.05231e-17
637 1 201.417 58.1463 -4.05231e-17
638 1 172.816 76.9748 -4.05231e-17
639 2 203.85 78.4456 -4.05231e-17
640 1 143.551 152.762 -4.05231e-17
641 1 192.927 85.3313 -4.05231e-17
642 1 32.3064 91.6578 -4.05231e-17
643 2 182.215 42.5741 -4.05231e-17
644 1 68.5819 155.398 -4.05231e-17
645 1 106.698 196.229 -4.05231e-17
646 2 212.158 141.522 -4.05231e-17
647 1 10.9001 185.544 -4.05231e-17
648 1 132.307 103.017 -4.05231e-17
649 2 23.2597 150.967 -4.05231e-17
650 1 204.708 186.509 -4.05231e-17
651 1 218.557 113.247 -4.05231e-17
652 1 153.542 44.052 -4.05231e-17
653 1 114.519 175.356 -4.05231e-17
654 1 22.6749 21.5268 -4.05231e-17
655 2 183.677 101.385 -4.05231e-17
656 1 30.1426 125.144 -4.05231e-17
657 2 79.227 207.191 -4.05231e-17
658 1 54.0087 43.9353 -4.05231e-17
659 2 156.461 192.799 -4.05231e-17
660 1 101.979 55.6024 -4.05231e-17
661 1 42.6646 116.657 -4.05231e-17
662 1 81.698 130.328 -4.05231e-17
663 1 31.9842 25.7114 -4.05231e-17
664 1 146.492 17.6545 -4.05231e-17
665 1 140.059 75.7756 -4.05231e-17
666 2 47.826 181.078 -4.05231e-17
667 1 92.9252 99.2802 -4.05231e-17
668 2 102.055 93.6329 -4.05231e-17
669 1 36.1441 17.7223 -4.05231e-17
670 1 96.548 173.612 -4.05231e-17
671 2 53.8767 176.094 -4.05231e-17
672 1 186.309 12.0347 -4.05231e-17
673 1 63.4753 19.5617 -4.05231e-17
674 1 2.28748 31.5932 -4.05231e-17
675 1 128.743 23.4906 -4.05231e-17
676 1 169.584 123.909 -4.05231e-17
677 1 131.325 174.939 -4.05231e-17
678 1 137.848 30.8949 -4.05231e-17
679 2 152.313 33.0395 -4.05231e-17
680 1 202.881 41.4364 -4.05231e-17
681 2 129.128 119.287 -4.05231e-17
682 1 0.158843 47.6475 -4.05231e-17
683 1 68.6944 4.26325 -4.05231e-17
684 1 120.069 154.659 -4.05231e-17
685 1 153.078 38.7799 -4.05231e-17
686 1 27.8876 193.634 -4.05231e-17
687 1 118.299 191.838 -4.05231e-17
688 1 162.645 110.307 -4.05231e-17
689 2 56.0504 46.5016 -4.05231e-17
690 1 70.3129 19.94 -4.05231e-17
691 1 89.1787 66.2002 -4.05231e-17
692 1 130.936 8.24088 -4.05231e-17
693 1 48.5667 142.908 -4.05231e-17
694 1 76.1021 125.134 -4.05231e-17
695 1 145.969 38.5995 -4.05231e-17
696 1 146.451 81.1255 -4.05231e-17
697 1 139.823 201.684 -4.05231e-17
698 1 116.769 65.8476 -4.05231e-17
699 1 180.625 191.802 -4.05231e-17
700 1 205.649 209.38 -4.05231e-17
701 1 54.0229 16.7976 -4.05231e-17
702 1 113.415 128.887 -4.05231e-17
703 2 188.168 144.131 -4.05231e-17
704 1 29.4265 218.474 -4.05231e-17
705 2 69.1718 111.82 -4.05231e-17
706 1 166.025 177.351 -4.05231e-17
707 1 114.179 24.7832 -4.05231e-17
708 1 84.1976 209.385 -4.05231e-17
709 1 147.305 196.568 -4.05231e-17
710 1 192.395 191.641 -4.05231e-17
711 1 111.499 92.9496 -4.05231e-17
712 1 192.6 208.211 -4.05231e-17
713 1 14.0767 136.009 -4.05231e-17
714 1 135.79 13.0095 -4.05231e-17
715 1 55.9053 199.209 -4.05231e-17
716 1 40.4201 123.612 -4.05231e-17
717 1 52.0175 107.204 -4.05231e-17
718 1 131.116 185.148 -4.05231e-17
719 2 119.628 78.423 -4.05231e-17
720 1 98.6879 64.7478 -4.05231e-17
721 1 95.3897 98.8417 -4.05231e-17
722 1 133.917 62.956 -4.05231e-17
723 2 48.8866 45.2988 -4.05231e-17
724 1 15.6112 49.1601 -4.05231e-17
725 1 29.5152 108.926 -4.05231e-17
726 1 189.758 45.9335 -4.05231e-17
727 1 148.542 205.401 -4.05231e-17
728 2 18.1148 87.7058 -4.05231e-17
729 1 133.983 165.399 -4.05231e-17
730 1 174.624 199.285 -4.05231e-17
731 1 48.9102 190.454 -4.05231e-17
732 1 218.524 9.24915 -4.05231e-17
733 1 205.255 33.9021 -4.05231e-17
734 1 4.05153 29.5615 -4.05231e-17
735 1 41.2289 22.9492 -4.05231e-17
736 2 190.534 74.1976 -4.05231e-17
737 1 81.9007 86.5192 -4.05231e-17
738 1 19.5451 166.426 -4.05231e-17
739 1 105.709 156.378 -4.05231e-17
740 1 60.0021 116.422 -4.05231e-17
741 2 189.056 78.1779 -4.05231e-17
742 1 74.2833 43.8704 -4.05231e-17
743 1 203.134 66.3922 -4.05231e-17
744 2 210.854 172.992 -4.05231e-17
745 1 130.999 31.8092 -4.05231e-17
746 1 14.2998 29.337 -4.05231e-17
747 2 204.114 22.0027 -4.05231e-17
748 1 182.78 193.073 -4.05231e-17
749 1 196.355 211.013 -4.05231e-17
750 1 213.345 163.906 -4.05231e-17
751 1 59.4338 58.5696 -4.05231e-17
752 1 178.221 106.262 -4.05231e-17
753 1 99.1409 150.916 -4.05231e-17
754 1 15.0614 215.454 -4.05231e-17
755 1 83.2489 195.061 -4.05231e-17
756 2 103.585 195.798 -4.05231e-17
757 1 27.0963 18.4237 -4.05231e-17
758 1 135.71 146.342 -4.05231e-17
759 1 72.9058 107.153 -4.05231e-17
760 1 95.1242 39.8449 -4.05231e-17
761 1 58.1286 161.22 -4.05231e-17
762 1 43.8226 23.4353 -4.05231e-17
763 1 114.265 99.726 -4.05231e-17
764 2 177.813 147.819 -4.05231e-17
765 1 92.0825 62.4108 -4.05231e-17
766 1 114.353 35.6221 -4.05231e-17
767 1 97.0258 78.538 -4.05231e-17
768 1 9.62436 3.88284 -4.05231e-17
769 1 108.162 75.5749 -4.05231e-17
770 2 113.548 109.753 -4.05231e-17
771 1 143.792 179.046 -4.05231e-17
772 1 102.226 27.9061 -4.05231e-17
773 1 109.43 167.437 -4.05231e-17
774 1 111.25 123.998 -4.05231e-17
775 1 68.9546 6.98396 -4.05231e-17
776 1 37.6404 10.9731 -4.05231e-17
777 1 108.158 182.075 -4.05231e-17
778 1 22.3527 19.0602 -4.05231e-17
779 1 191.821 44.0651 -4.05231e-17
780 1 3.59736 169.283 -4.05231e-17
781 1 126.927 99.7794 -4.05231e-17
782 1 175.814 49.5159 -4.05231e-17
783 1 98.3755 15.1118 -4.05231e-17
784 2 194.924 159.451 -4.05231e-17
785 1 110.886 165.344 -4.05231e-17
786 1 119.312 177.194 -4.05231e-17
787 1 185.244 74.8014 -4.05231e-17
788 1 177.523 45.3207 -4.05231e-17
789 2 142.957 109.375 -4.05231e-17
790 1 109.92 27.7217 -4.05231e-17
791 2 14.5936 121.667 -4.05231e-17
792 2 215.592 13.2434 -4.05231e-17
793 2 115.881 68.5944 -4.05231e-17
794 1 56.2354 188.677 -4.05231e-17
795 1 132.52 53.434 -4.05231e-17
796 1 131.053 22.1488 -4.05231e-17
797 1 197.742 155.736 -4.05231e-17
798 2 195.802 204.156 -4.05231e-17
799 2 207.627 65.0041 -4.05231e-17
800 2 55.4943 217.59 -4.05231e-17
801 1 102.847 132.667 -4.05231e-17
802 1 124.551 75.8008 -4.05231e-17
803 1 181.867 68.6798 -4.05231e-17
804 2 122.756 205.173 -4.05231e-17
805 1 44.9368 106.563 -4.05231e-17
806 1 11.88 116.801 -4.05231e-17
807 2 100.341 99.0946 -4.05231e-17
808 1 14.4847 116.77 -4.05231e-17
809 2 57.9083 134.358 -4.05231e-17
810 1 129.93 198.028 -4.05231e-17
811 1 32.8359 5.94917 -4.05231e-17
812 1 131.802 34.4748 -4.05231e-17
813 2 107.886 110.92 -4.05231e-17
814 1 147.258 69.4513 -4.05231e-17
815 1 89.2251 164.774 -4.05231e-17
816 1 200.369 9.70542 -4.05231e-17
817 1 107.815 214.587 -4.05231e-17
818 1 57.6174 101.52 -4.05231e-17
819 1 9.50611 135.907 -4.05231e-17
820 1 45.4537 120.039 -4.05231e-17
821 1 94.6826 151.893 -4.05231e-17
822 2 41.9962 135.64 -4.05231e-17
823 2 139.384 91.8791 -4.05231e-17
824 1 34.8735 107.654 -4.05231e-17
825 1 65.3669 15.4561 -4.05231e-17
826 1 190.255 14.0924 -4.05231e-17
827 1 192.929 107.361 -4.05231e-17
828 1 142.304 123.659 -4.05231e-17
829 1 127.161 210.942 -4.05231e-17
830 1 81.4319 127.634 -4.05231e-17
831 1 217.252 42.6848 -4.05231e-17
832 1 93.351 86.9803 -4.05231e-17
833 1 61.8326 84.2872 -4.05231e-17
834 1 107.105 9.01089 -4.05231e-17
835 1 58.1242 218.647 -4.05231e-17
836 1 10.9896 50.3084 -4.05231e-17
837 1 6.95309 70.4376 -4.05231e-17
838 1 98.2834 178.467 -4.05231e-17
839 2 197.599 3.14039 -4.05231e-17
840 1 5.25815 202.792 -4.05231e-17
841 2 62.8999 185.178 -4.05231e-17
842 1 94.6757 91.2608 -4.05231e-17
843 2 159.574 183.02 -4.05231e-17
844 1 25.8039 158.729 -4.05231e-17
845 1 70.9028 189.504 -4.05231e-17
846 1 158.965 190.871 -4.05231e-17
847 1 42.1929 140.687 -4.05231e-17
848 1 188.722 117.293 -4.05231e-17
849 1 189.434 166.985 -4.05231e-17
850 1 39.4848 129.245 -4.05231e-17
851 1 89.6947 37.3263 -4.05231e-17
852 1 11.5851 209.205 -4.05231e-17
853 1 31.8387 138.544 -4.05231e-17
854 1 171.437 84.8434 -4.05231e-17
855 1 126.268 19.6354 -4.05231e-17