ITEM: TIMESTEP
0
ITEM: NUMBER OF ATOMS
7200
ITEM: BOX BOUNDS xy xz yz pp pp pp
0.0000000000000000e+00 2.1900000000000000e+02 0.0000000000000000e+00
0.0000000000000000e+00 2.1900000000000000e+02 0.0000000000000000e+00
-3.6499999999999999e-01 3.6499999999999999e-01 0.0000000000000000e+00
ITEM: ATOMS id type x y z
1 1 67.8031 134.706 -4.05231e-17
2 1 183.315 108.345 -4.05231e-17
3 1 13.6579 158.504 -4.05231e-17
4 1 3.74772 86.2929 -4.05231e-17
5 1 215.573 157.311 -4.05231e-17
6 1 117.101 210.696 -4.05231e-17
7 1 42.2125 51.5388 -4.05231e-17
8 2 149.256 83.0931 -4.05231e-17
9 1 203.232 9.75541 -4.05231e-17
10 2 58.3373 193.627 -4.05231e-17
11 1 114.179 15.1332 -4.05231e-17
12 1 129.106 78.1597 -4.05231e-17
13 2 51.3721 79.1966 -4.05231e-17
14 1 65.5668 17.8288 -4.05231e-17
15 1 136.826 105.414 -4.05231e-17
16 2 61.0788 172.625 -4.05231e-17
17 1 114.105 30.952 -4.05231e-17
18 2 31.6965 78.2153 -4.05231e-17
19 1 106.47 52.4983 -4.05231e-17
20 1 144.416 103.552 -4.05231e-17
21 1 41.9961 5.51973 -4.05231e-17
22 2 49.7853 148.025 -4.05231e-17
23 2 17.5929 54.6222 -4.05231e-17
24 1 159.325 99.4169 -4.05231e-17
25 1 75.9505 182.854 -4.05231e-17
26 2 86.6178 96.7837 -4.05231e-17
27 1 155.96 174.579 -4.05231e-17
28 2 22.7036 156.558 -4.05231e-17
29 1 53.2122 46.6657 -4.05231e-17
30 1 139.59 88.18 -4.05231e-17
31 1 211.419 90.5185 -4.05231e-17
32 1 58.0324 104.185 -4.05231e-17
33 1 157.71 154.259 -4.05231e-17
34 1 61.1809 77.6102 -4.05231e-17
35 1 177.312 68.8095 -4.05231e-17
36 1 61.7005 75.1755 -4.05231e-17
37 2 136.402 140.743 -4.05231e-17
38 1 197.821 74.5344 -4.05231e-17
39 1 122.105 138.258 -4.05231e-17
40 1 165.516 163.928 -4.05231e-17
41 1 120.886 182.232 -4.05231e-17
42 1 102.878 36.7149 -4.05231e-17
43 1 135.519 60.9114 -4.05231e-17
44 1 106.929 23.6735 -4.05231e-17
45 1 214.847 84.7701 -4.05231e-17
46 1 28.2629 203.5 -4.05231e-17
47 1 88.9645 172.127 -4.05231e-17
48 2 47.7296 86.4857 -4.05231e-17
49 1 76.9882 110.43 -4.05231e-17
50 1 46.4889 197.516 -4.05231e-17
51 1 181.337 34.7637 -4.05231e-17
52 1 204.062 132.661 -4.05231e-17
53 1 156.664 27.2054 -4.05231e-17
54 1 24.2961 119.219 -4.05231e-17
55 1 23.0945 48.2922 -4.05231e-17
56 1 117.581 140.178 -4.05231e-17
57 2 67.7337 214.589 -4.05231e-17
58 1 32.691 40.4719 -4.05231e-17
59 1 28.9234 151.852 -4.05231e-17
60 2 151.981 147.222 -4.05231e-17
61 2 36.2157 202.845 -4.05231e-17
62 1 10.6446 162.241 -4.05231e-17
63 1 111.77 197.929 -4.05231e-17
64 1 133.907 39.5513 -4.05231e-17
65 1 214.101 114.179 -4.05231e-17
66 1 129.066 134.245 -4.05231e-17
67 1 95.712 139.892 -4.05231e-17
68 1 66.7116 116.501 -4.05231e-17
69 1 140.708 173.732 -4.05231e-17
70 1 59.1768 110.998 -4.05231e-17
71 1 7.51171 125.709 -4.05231e-17
72 1 171.735 60.5844 -4.05231e-17
73 1 187.866 185.418 -4.05231e-17
74 1 207.305 21.5025 -4.05231e-17
75 2 93.5814 1.4033 -4.05231e-17
76 1 17.9076 4.62376 -4.05231e-17
77 1 36.2333 24.321 -4.05231e-17
78 1 124.392 117.413 -4.05231e-17
79 2 126.419 1.07043 -4.05231e-17
80 1 75.3214 106.299 -4.05231e-17
81 1 110.701 140.948 -4.05231e-17
82 1 53.6977 141.789 -4.05231e-17
83 2 129.993 182.292 -4.05231e-17
84 1 179.731 80.53 -4.05231e-17
85 1 22.4311 41.1317 -4.05231e-17
86 1 128.097 142.184 -4.05231e-17
87 1 217.322 217.169 -4.05231e-17
88 1 19.3041 34.9834 -4.05231e-17
89 2 43.7646 3.42462 -4.05231e-17
90 2 190.391 186.975 -4.05231e-17
91 1 149.486 90.6294 -4.05231e-17
92 2 168.785 21.4185 -4.05231e-17
93 1 141.817 15.3308 -4.05231e-17
94 2 201.895 12.5948 -4.05231e-17
95 1 33.3953 195.085 -4.05231e-17
96 1 130.611 95.7831 -4.05231e-17
97 1 97.2548 4.91233 -4.05231e-17
98 1 125.689 55.2095 -4.05231e-17
99 1 178.17 21.6601 -4.05231e-17
100 1 176.032 8.98874 -4.05231e-17
101 1 114.204 12.6343 -4.05231e-17
102 1 24.6529 46.1856 -4.05231e-17
103 1 58.186 80.5954 -4.05231e-17
104 1 69.122 109.102 -4.05231e-17
105 1 142.484 201.535 -4.05231e-17
106 1 78.146 102.696 -4.05231e-17
107 2 146.444 101.406 -4.05231e-17
108 1 36.1299 210.54 -4.05231e-17
109 1 54.724 89.0978 -4.05231e-17
110 1 108.033 62.9219 -4.05231e-17
111 1 61.2667 20.8652 -4.05231e-17
112 1 94.8741 137.439 -4.05231e-17
113 1 99.2457 43.6048 -4.05231e-17
114 1 158.438 23.0348 -4.05231e-17
115 1 51.2438 163.428 -4.05231e-17
116 2 214.263 133.636 -4.05231e-17
117 1 201.309 216.369 -4.05231e-17
118 1 165.075 68.0753 -4.05231e-17
119 2 58.1754 98.9517 -4.05231e-17
120 1 53.362 199.822 -4.05231e-17
121 1 152.222 83.6937 -4.05231e-17
122 1 102.783 14.8503 -4.05231e-17
123 1 136.681 75.7518 -4.05231e-17
124 1 154.831 201.655 -4.05231e-17
125 1 141.604 117.972 -4.05231e-17
126 1 111.52 65.5009 -4.05231e-17
127 1 163.71 78.1889 -4.05231e-17
128 1 175.77 136.505 -4.05231e-17
129 1 7.64532 104.214 -4.05231e-17
130 1 83.7491 128.654 -4.05231e-17
131 1 175.652 152.513 -4.05231e-17
132 2 183.476 2.16807 -4.05231e-17
133 1 127.083 79.6781 -4.05231e-17
134 1 35.7464 86.042 -4.05231e-17
135 1 78.1253 8.43067 -4.05231e-17
136 1 210.471 201.614 -4.05231e-17
137 1 102.003 137.048 -4.05231e-17
138 1 50.2355 212.196 -4.05231e-17
139 1 202.481 105.484 -4.05231e-17
140 2 141.936 186.039 -4.05231e-17
141 1 205.777 96.7295 -4.05231e-17
142 2 212.114 49.2009 -4.05231e-17
143 1 111.135 80.6458 -4.05231e-17
144 2 43.5462 199.052 -4.05231e-17
145 1 172.311 103.09 -4.05231e-17
146 1 99.9375 120.279 -4.05231e-17
147 1 154.55 145.997 -4.05231e-17
148 1 6.52896 200.804 -4.05231e-17
149 1 68.1233 21.5826 -4.05231e-17
150 1 54.0931 37.177 -4.05231e-17
151 1 26.0308 112.331 -4.05231e-17
152 1 63.4577 104.594 -4.05231e-17
153 2 52.0558 6.14816 -4.05231e-17
154 1 149.126 94.8826 -4.05231e-17
155 1 107.568 17.0368 -4.05231e-17
156 2 71.7783 116.017 -4.05231e-17
157 1 207.565 104.875 -4.05231e-17
158 1 29.1103 28.9792 -4.05231e-17
159 1 22.2684 135.631 -4.05231e-17
160 1 11.7812 201.352 -4.05231e-17
161 1 1.67114 7.92692 -4.05231e-17
162 1 127.608 127.467 -4.05231e-17
163 1 18.0814 32.6862 -4.05231e-17
164 1 166.908 52.8175 -4.05231e-17
165 1 125.056 121.775 -4.05231e-17
166 2 159.626 60.7384 -4.05231e-17
167 1 175.143 46.7758 -4.05231e-17
168 1 149.17 169.407 -4.05231e-17
169 1 1.72628 101.898 -4.05231e-17
170 1 94.8047 168.308 -4.05231e-17
171 1 146.802 60.836 -4.05231e-17
172 1 218.762 17.2161 -4.05231e-17
173 1 46.1171 143.153 -4.05231e-17
174 1 131.349 62.8412 -4.05231e-17
175 2 137.579 160.487 -4.05231e-17
176 1 109.949 70.685 -4.05231e-17
177 2 70.5239 56.8857 -4.05231e-17
178 1 65.4395 87.0251 -4.05231e-17
179 1 173.067 163.928 -4.05231e-17
180 1 203.557 197.206 -4.05231e-17
181 1 134.872 167.038 -4.05231e-17
182 2 77.3935 20.5775 -4.05231e-17
183 1 76.772 163.917 -4.05231e-17
184 1 176.131 86.6869 -4.05231e-17
185 2 175.177 20.5957 -4.05231e-17
186 2 208.856 134.024 -4.05231e-17
187 1 93.0811 29.0347 -4.05231e-17
188 1 102.739 170.254 -4.05231e-17
189 1 123.531 174.859 -4.05231e-17
190 2 13.494 161.685 -4.05231e-17
191 1 77.3309 157.251 -4.05231e-17
192 2 63.7038 109.739 -4.05231e-17
193 2 79.9876 172.238 -4.05231e-17
194 1 33.0223 149.04 -4.05231e-17
195 1 145.09 163.469 -4.05231e-17
196 1 168.523 191.378 -4.05231e-17
197 1 74.1092 69.9405 -4.05231e-17
198 2 9.75834 132.698 -4.05231e-17
199 1 210.754 57.0153 -4.05231e-17
200 1 80.1668 6.76872 -4.05231e-17
201 2 71.8023 110.002 -4.05231e-17
202 1 52.4561 210.717 -4.05231e-17
203 1 175.527 81.5361 -4.05231e-17
204 1 188.347 156.47 -4.05231e-17
205 2 191.981 82.4219 -4.05231e-17
206 1 89.3341 133.188 -4.05231e-17
207 1 105.868 30.2385 -4.05231e-17
208 1 33.1486 85.7799 -4.05231e-17
209 1 81.7605 2.60992 -4.05231e-17
210 1 8.0522 64.5461 -4.05231e-17
211 2 146.63 156.514 -4.05231e-17
212 1 120.495 112.818 -4.05231e-17
213 1 134.54 104.382 -4.05231e-17
214 1 74.2373 14.2757 -4.05231e-17
215 1 74.3091 201.712 -4.05231e-17
216 1 193.721 138.818 -4.05231e-17
217 1 126.91 187.165 -4.05231e-17
218 2 28.6338 168.538 -4.05231e-17
219 1 155.396 214.007 -4.05231e-17
220 2 107.083 55.5671 -4.05231e-17
221 1 213.042 56.0523 -4.05231e-17
222 1 143.275 146.23 -4.05231e-17
223 1 52.227 208.045 -4.05231e-17
224 2 10.1728 188.542 -4.05231e-17
225 1 201.415 142.104 -4.05231e-17
226 1 139.021 190.24 -4.05231e-17
227 2 51.0659 17.1911 -4.05231e-17
228 1 138.603 77.2463 -4.05231e-17
229 1 60.6204 135.48 -4.05231e-17
230 1 159.166 131.089 -4.05231e-17
231 1 148.591 123.003 -4.05231e-17
232 1 1.27909 90.7687 -4.05231e-17
233 1 110.072 100.493 -4.05231e-17
234 1 134.02 216.111 -4.05231e-17
235 1 20.7625 143.111 -4.05231e-17
236 1 46.4468 81.4558 -4.05231e-17
237 1 198.668 8.2501 -4.05231e-17
238 1 147.709 128.172 -4.05231e-17
239 2 17.6376 112.104 -4.05231e-17
240 1 99.5836 6.08649 -4.05231e-17
241 2 187.8 14.8445 -4.05231e-17
242 2 198.763 36.9228 -4.05231e-17
243 2 114.597 27.9189 -4.05231e-17
244 1 97.6014 7.59389 -4.05231e-17
245 1 84.7292 59.2139 -4.05231e-17
246 1 126.046 119.537 -4.05231e-17
247 1 211.008 98.5617 -4.05231e-17
248 1 94.5868 4.09178 -4.05231e-17
249 1 23.1192 65.8371 -4.05231e-17
250 2 149.747 29.5568 -4.05231e-17
251 1 153.64 212.228 -4.05231e-17
252 1 195.441 64.2268 -4.05231e-17
253 1 94.5126 61.5243 -4.05231e-17
254 2 76.9074 197.155 -4.05231e-17
255 1 212.532 148.884 -4.05231e-17
256 1 84.5933 165.55 -4.05231e-17
257 1 212.106 151.519 -4.05231e-17
258 2 163.827 27.8162 -4.05231e-17
259 1 58.277 165.846 -4.05231e-17
260 1 126.889 11.1946 -4.05231e-17
261 1 184.986 13.9161 -4.05231e-17
262 1 53.5215 52.315 -4.05231e-17
263 1 12.7653 213.553 -4.05231e-17
264 1 172.465 43.0593 -4.05231e-17
265 1 166.273 22.9667 -4.05231e-17
266 1 155.524 9.82739 -4.05231e-17
267 1 2.90771 64.7735 -4.05231e-17
268 1 21.8245 35.3913 -4.05231e-17
269 1 125.874 95.0697 -4.05231e-17
270 1 141.117 106.661 -4.05231e-17
271 1 12.6443 92.5272 -4.05231e-17
272 1 159.271 202.227 -4.05231e-17
273 1 40.6719 169.187 -4.05231e-17
274 2 113.084 88.2671 -4.05231e-17
275 1 63.9714 5.00018 -4.05231e-17
276 2 53.887 32.1354 -4.05231e-17
277 2 167.174 122.035 -4.05231e-17
278 1 38.7512 101.186 -4.05231e-17
279 2 109.811 205.201 -4.05231e-17
280 1 59.7958 31.802 -4.05231e-17
281 1 147.12 28.402 -4.05231e-17
282 1 164.977 8.24954 -4.05231e-17
283 1 113.202 141.556 -4.05231e-17
284 1 136.606 165.316 -4.05231e-17
285 1 35.8996 12.4925 -4.05231e-17
286 2 33.8383 214.995 -4.05231e-17
287 1 82.6447 135.213 -4.05231e-17
288 1 21.5008 57.5376 -4.05231e-17
289 1 71.5452 54.1047 -4.05231e-17
290 1 150.812 193.465 -4.05231e-17
291 1 158.631 145.004 -4.05231e-17
292 2 19.9985 181.095 -4.05231e-17
293 2 65.6181 194.366 -4.05231e-17
294 1 112.106 40.3116 -4.05231e-17
295 1 124.874 48.0563 -4.05231e-17
296 1 135.101 41.9196 -4.05231e-17
297 1 118.59 145.287 -4.05231e-17
298 1 104.849 198.839 -4.05231e-17
299 1 160.359 106.447 -4.05231e-17
300 2 62.4422 95.0275 -4.05231e-17
301 1 58.9555 45.9065 -4.05231e-17
302 1 126.969 192.898 -4.05231e-17
303 2 198.625 60.1781 -4.05231e-17
304 2 144.88 129.783 -4.05231e-17
305 1 86.4216 99.6447 -4.05231e-17
306 1 51.0005 73.5149 -4.05231e-17
307 1 35.1954 122.398 -4.05231e-17
308 1 161.975 59.1532 -4.05231e-17
309 2 73.1925 184.241 -4.05231e-17
310 1 194.292 215.479 -4.05231e-17
311 1 79.8999 33.8944 -4.05231e-17
312 1 192.197 147.72 -4.05231e-17
313 2 147.497 66.228 -4.05231e-17
314 1 51.9949 135.073 -4.05231e-17
315 1 111.275 150.538 -4.05231e-17
316 1 72.761 1.02126 -4.05231e-17
317 1 13.6886 99.3606 -4.05231e-17
318 1 100.119 215.302 -4.05231e-17
319 1 50.9976 33.0466 -4.05231e-17
320 1 144.229 99.5268 -4.05231e-17
321 1 88.6133 203.876 -4.05231e-17
322 1 143.545 140.512 -4.05231e-17
323 1 188.183 107.747 -4.05231e-17
324 1 81.1458 26.8087 -4.05231e-17
325 1 162.934 139.262 -4.05231e-17
326 1 85.174 151.896 -4.05231e-17
327 2 149.478 185.954 -4.05231e-17
328 1 167.774 40.2829 -4.05231e-17
329 2 47.3266 115.758 -4.05231e-17
330 1 23.8741 101.73 -4.05231e-17
331 1 174.783 175.714 -4.05231e-17
332 2 112.611 104.529 -4.05231e-17
333 1 44.3573 17.7185 -4.05231e-17
334 1 139.567 168.64 -4.05231e-17
335 1 12.523 206.45 -4.05231e-17
336 1 212.706 106.492 -4.05231e-17
337 1 103.145 182.32 -4.05231e-17
338 1 159.534 57.765 -4.05231e-17
339 1 109.424 217.25 -4.05231e-17
340 1 153.588 141.559 -4.05231e-17
341 1 160.19 158.448 -4.05231e-17
342 1 128.74 144.738 -4.05231e-17
343 1 127.379 29.1862 -4.05231e-17
344 1 63.69 182.142 -4.05231e-17
345 1 60.8282 109.203 -4.05231e-17
346 1 9.49385 127.311 -4.05231e-17
347 1 92.3557 92.4493 -4.05231e-17
348 1 163.854 179.111 -4.05231e-17
349 1 193.239 75.4077 -4.05231e-17
350 2 89.7355 40.7228 -4.05231e-17
351 1 154.945 66.0965 -4.05231e-17
352 1 61.1504 182.865 -4.05231e-17
353 1 39.4339 166.706 -4.05231e-17
354 1 167.663 161.461 -4.05231e-17
355 1 58.3762 157.019 -4.05231e-17
356 1 24.0112 36.5535 -4.05231e-17
357 1 62.4042 158.676 -4.05231e-17
358 1 172.06 180.667 -4.05231e-17
359 1 157.762 158.908 -4.05231e-17
360 1 74.0476 53.5398 -4.05231e-17
361 1 63.2419 167.94 -4.05231e-17
362 1 169.25 200.639 -4.05231e-17
363 1 163.538 189.993 -4.05231e-17
364 2 116.429 92.6908 -4.05231e-17
365 1 178.758 90.4639 -4.05231e-17
366 1 117.604 161.132 -4.05231e-17
367 1 174.392 6.99903 -4.05231e-17
368 1 197.009 192.434 -4.05231e-17
369 2 115.421 188.14 -4.05231e-17
370 1 15.2666 205.698 -4.05231e-17
371 1 53.6772 136.956 -4.05231e-17
372 2 0.321237 93.9062 -4.05231e-17
373 2 212.634 7.81858 -4.05231e-17
374 1 151.116 88.6006 -4.05231e-17
375 1 37.2718 111.776 -4.05231e-17
376 1 16.1466 152.921 -4.05231e-17
377 1 28.5318 213.088 -4.05231e-17
378 1 74.4868 129.408 -4.05231e-17
379 1 43.0438 60.5451 -4.05231e-17
380 1 177.809 151.011 -4.05231e-17
381 1 13.5599 5.49191 -4.05231e-17
382 1 54.3353 67.0617 -4.05231e-17
383 1 169.774 67.4566 -4.05231e-17
384 1 21.8778 13.8629 -4.05231e-17
385 1 191.248 76.8732 -4.05231e-17
386 2 82.0554 44.418 -4.05231e-17
387 1 144.084 18.9673 -4.05231e-17
388 1 56.6295 43.8252 -4.05231e-17
389 1 206.584 158.848 -4.05231e-17
390 2 207.434 179.757 -4.05231e-17
391 2 35.7722 40.2758 -4.05231e-17
392 1 41.2921 218.032 -4.05231e-17
393 1 0.43283 33.4571 -4.05231e-17
394 1 102.518 101.504 -4.05231e-17
395 1 16.2255 27.3429 -4.05231e-17
396 1 202.721 153.69 -4.05231e-17
397 1 100.682 16.3018 -4.05231e-17
398 1 11.7638 191.079 -4.05231e-17
399 1 19.3152 59.5061 -4.05231e-17
400 1 103.309 179.815 -4.05231e-17
401 1 87.9059 176.808 -4.05231e-17
402 2 191.449 178.812 -4.05231e-17
403 1 214.481 54.0379 -4.05231e-17
404 1 36.2421 71.5124 -4.05231e-17
405 1 204.502 29.1061 -4.05231e-17
406 1 201.125 68.1296 -4.05231e-17
407 2 19.2799 62.8215 -4.05231e-17
408 1 34.2943 35.5269 -4.05231e-17
409 1 169.384 128.959 -4.05231e-17
410 1 20.276 155.044 -4.05231e-17
411 1 152.036 160.568 -4.05231e-17
412 1 115.151 215.058 -4.05231e-17
413 1 63.5469 156.236 -4.05231e-17
414 1 38.2305 13.6225 -4.05231e-17
415 1 207.993 148.073 -4.05231e-17
416 1 71.9967 200.159 -4.05231e-17
417 1 141.068 93.96 -4.05231e-17
418 2 184.497 7.6733 -4.05231e-17
419 1 108.719 149.984 -4.05231e-17
420 2 136.729 109.325 -4.05231e-17
421 1 88.1305 103.924 -4.05231e-17
422 1 176.21 23.3837 -4.05231e-17
423 2 158.087 41.2338 -4.05231e-17
424 1 157.266 149.325 -4.05231e-17
425 1 129.093 166.96 -4.05231e-17
426 1 133.183 113.04 -4.05231e-17
427 1 45.7872 84.4124 -4.05231e-17
428 1 71.2489 191.845 -4.05231e-17
429 1 194.776 83.3262 -4.05231e-17
430 1 215.414 60.0667 -4.05231e-17
431 1 120.258 206.675 -4.05231e-17
432 1 161.454 53.7776 -4.05231e-17
433 1 105.063 154.069 -4.05231e-17
434 1 71.6847 30.3797 -4.05231e-17
435 1 177.954 161.864 -4.05231e-17
436 1 44.5616 36.1322 -4.05231e-17
437 1 175.59 109.273 -4.05231e-17
438 2 109.388 21.8739 -4.05231e-17
439 1 67.3496 208.881 -4.05231e-17
440 1 3.38449 162.025 -4.05231e-17
441 1 192.892 131.212 -4.05231e-17
442 1 50.3672 13.8113 -4.05231e-17
443 1 158.218 104.699 -4.05231e-17
444 1 218.299 101.289 -4.05231e-17
445 1 139.435 7.57323 -4.05231e-17
446 1 131.67 79.1724 -4.05231e-17
447 1 38.8806 144.965 -4.05231e-17
448 1 75.6908 7.39622 -4.05231e-17
449 1 131.887 121.043 -4.05231e-17
450 1 139.82 187.803 -4.05231e-17
451 1 170.799 47.3904 -4.05231e-17
452 1 131.111 145.299 -4.05231e-17
453 1 179.118 181.946 -4.05231e-17
454 1 160.281 211.687 -4.05231e-17
455 1 100.175 71.9974 -4.05231e-17
456 1 167.096 27.041 -4.05231e-17
457 1 97.9046 113.314 -4.05231e-17
458 1 198.158 0.141682 -4.05231e-17
459 1 81.3864 69.1657 -4.05231e-17
460 1 48.9182 102.527 -4.05231e-17
461 1 188.629 177.816 -4.05231e-17
462 1 181.719 115.783 -4.05231e-17
463 1 126.662 33.7495 -4.05231e-17
464 1 154.943 195.103 -4.05231e-17
465 1 121.649 160.048 -4.05231e-17
466 1 24.0862 213.884 -4.05231e-17
467 1 17.4226 80.2733 -4.05231e-17
468 1 161.57 218.714 -4.05231e-17
469 1 68.465 77.6052 -4.05231e-17
470 1 78.0817 38.1941 -4.05231e-17
471 1 128.883 174.648 -4.05231e-17
472 1 48.1349 83.5564 -4.05231e-17
473 1 26.2707 102.537 -4.05231e-17
474 1 88.6572 101.232 -4.05231e-17
475 1 184.818 163.788 -4.05231e-17
476 2 192.226 11.9419 -4.05231e-17
477 1 53.8439 84.8357 -4.05231e-17
478 1 58.6923 125.748 -4.05231e-17
479 1 201.795 80.5518 -4.05231e-17
480 1 85.1481 23.5127 -4.05231e-17
481 1 15.0048 94.0585 -4.05231e-17
482 1 99.5971 159.894 -4.05231e-17
483 1 142.131 159.789 -4.05231e-17
484 2 87.5188 45.815 -4.05231e-17
485 1 34.1052 100.493 -4.05231e-17
486 1 81.7186 17.2292 -4.05231e-17
487 1 100.77 196.659 -4.05231e-17
488 1 5.72532 121.337 -4.05231e-17
489 1 211.741 135.167 -4.05231e-17
490 1 205.203 84.023 -4.05231e-17
491 1 197.62 121.311 -4.05231e-17
492 1 2.55353 128.891 -4.05231e-17
493 1 193.974 210.551 -4.05231e-17
494 1 211.345 38.2276 -4.05231e-17
495 1 198.801 89.4328 -4.05231e-17
496 2 44.2212 189.509 -4.05231e-17
497 1 39.0606 216.891 -4.05231e-17
498 1 104.837 121.241 -4.05231e-17
499 2 136.925 216.621 -4.05231e-17
500 1 26.3339 29.9113 -4.05231e-17
501 2 112.962 216.925 -4.05231e-17
502 2 123.462 143.114 -4.05231e-17
503 1 147.034 183.769 -4.05231e-17
504 1 112.924 148.52 -4.05231e-17
505 1 117.799 18.7446 -4.05231e-17
506 1 26.0878 121.655 -4.05231e-17
507 1 14.5687 129.847 -4.05231e-17
508 1 196.349 217.177 -4.05231e-17
509 2 27.0289 75.5834 -4.05231e-17
510 2 146.399 133.534 -4.05231e-17
511 1 196.305 35.4523 -4.05231e-17
512 2 210.275 60.0045 -4.05231e-17
513 1 56.419 127.388 -4.05231e-17
514 1 48.7879 19.0053 -4.05231e-17
515 1 204.379 25.1603 -4.05231e-17
516 1 182.66 206.127 -4.05231e-17
517 1 112.058 117.577 -4.05231e-17
518 2 103.286 20.5521 -4.05231e-17
519 1 11.9155 52.7042 -4.05231e-17
520 2 212.505 23.1381 -4.05231e-17
521 1 88.9225 111.142 -4.05231e-17
522 1 31.3365 30.4317 -4.05231e-17
523 1 24.3843 68.1681 -4.05231e-17
524 1 99.8793 74.7747 -4.05231e-17
525 1 174.85 121.354 -4.05231e-17
526 1 190.797 64.8151 -4.05231e-17
527 1 75.4326 4.73333 -4.05231e-17
528 1 168.697 29.0906 -4.05231e-17
529 1 57.0911 159.133 -4.05231e-17
530 1 100.403 32.0206 -4.05231e-17
531 1 66.4426 197.41 -4.05231e-17
532 1 206.602 188.151 -4.05231e-17
533 1 134.039 151.091 -4.05231e-17
534 1 97.3075 144.848 -4.05231e-17
535 1 14.2144 104.723 -4.05231e-17
536 1 203.481 117.514 -4.05231e-17
537 1 201.283 166.6 -4.05231e-17
538 1 168.905 80.9593 -4.05231e-17
539 1 88.9948 211.87 -4.05231e-17
540 1 103.475 88.9754 -4.05231e-17
541 1 40.8867 58.9772 -4.05231e-17
542 1 67.2409 211.585 -4.05231e-17
543 1 147.205 151.697 -4.05231e-17
544 1 128.96 200.509 -4.05231e-17
545 1 8.12135 149.874 -4.05231e-17
546 1 179.287 41.3565 -4.05231e-17
547 1 83.065 172.305 -4.05231e-17
548 1 99.9455 8.62792 -4.05231e-17
549 1 51.2682 76.1881 -4.05231e-17
550 2 162.53 121.548 -4.05231e-17
551 2 134.47 157.723 -4.05231e-17
552 2 93.8239 180.476 -4.05231e-17
553 1 122.382 42.5553 -4.05231e-17
554 1 73.7836 101.846 -4.05231e-17
555 2 65.6913 123.643 -4.05231e-17
556 1 148.311 21.7424 -4.05231e-17
557 1 76.3617 12.6805 -4.05231e-17
558 1 148.26 125.677 -4.05231e-17
559 1 187.779 47.5246 -4.05231e-17
560 1 131.54 51.4628 -4.05231e-17
561 1 146.489 168.652 -4.05231e-17
562 1 195.617 144.22 -4.05231e-17
563 2 168.113 113.972 -4.05231e-17
564 1 42.0868 67.0048 -4.05231e-17
565 1 60.1428 10.448 -4.05231e-17
566 1 75.2523 34.4714 -4.05231e-17
567 1 150.315 111.131 -4.05231e-17
568 1 22.1272 114.503 -4.05231e-17
569 1 114.204 185.374 -4.05231e-17
570 1 124.838 124.37 -4.05231e-17
571 1 175.537 203.345 -4.05231e-17
572 1 61.5862 111.834 -4.05231e-17
573 1 177.374 76.5459 -4.05231e-17
574 1 41.799 130.44 -4.05231e-17
575 1 21.825 76.4672 -4.05231e-17
576 1 196.085 98.5417 -4.05231e-17
577 1 202.969 33.1997 -4.05231e-17
578 1 122.899 196.867 -4.05231e-17
579 1 15.8991 166.868 -4.05231e-17
580 1 102.831 139.37 -4.05231e-17
581 1 141.359 154.328 -4.05231e-17
582 1 75.9769 79.0749 -4.05231e-17
583 1 162.043 185.863 -4.05231e-17
584 2 28.9964 117.544 -4.05231e-17
585 1 48.7054 198.798 -4.05231e-17
586 1 137.617 170.676 -4.05231e-17
587 1 99.6428 104.865 -4.05231e-17
588 1 17.2637 1.65782 -4.05231e-17
589 1 103.227 17.4094 -4.05231e-17
590 1 70.272 0.0879403 -4.05231e-17
591 1 215.323 162.372 -4.05231e-17
592 1 55.99 156.379 -4.05231e-17
593 1 209.398 181.782 -4.05231e-17
594 1 181.463 180.805 -4.05231e-17
595 1 82.8904 39.623 -4.05231e-17
596 1 65.782 35.8114 -4.05231e-17
597 2 180.372 204.149 -4.05231e-17
598 1 167.163 211.315 -4.05231e-17
599 1 207.98 171.333 -4.05231e-17
600 1 104.768 10.643 -4.05231e-17
601 1 11.9081 134.642 -4.05231e-17
602 1 97.9073 31.2587 -4.05231e-17
603 1 207.838 202.584 -4.05231e-17
604 1 120.821 1.64183 -4.05231e-17
605 2 85.3517 77.7015 -4.05231e-17
606 1 102.749 202.388 -4.05231e-17
607 2 171.994 146.794 -4.05231e-17
608 1 95.0133 76.8021 -4.05231e-17
609 1 15.8201 6.34889 -4.05231e-17
610 1 214.404 150.651 -4.05231e-17
611 1 201.874 190.373 -4.05231e-17
612 1 218.066 37.7822 -4.05231e-17
613 1 58.9034 151.056 -4.05231e-17
614 2 127.933 179.602 -4.05231e-17
615 1 105.535 18.6347 -4.05231e-17
616 1 202.425 130.584 -4.05231e-17
617 1 127.202 198.46 -4.05231e-17
618 1 201.418 212.259 -4.05231e-17
619 1 179.27 78.0938 -4.05231e-17
620 1 141.445 141.937 -4.05231e-17
621 1 197.183 93.9209 -4.05231e-17
622 1 95.256 213.791 -4.05231e-17
623 1 218.544 11.9616 -4.05231e-17
624 1 23.9489 209.228 -4.05231e-17
625 1 204.832 154.852 -4.05231e-17
626 1 94.1112 191.512 -4.05231e-17
627 1 63.9414 73.9771 -4.05231e-17
628 1 34.2679 28.4108 -4.05231e-17
629 1 10.2503 94.944 -4.05231e-17
630 2 151.3 22.0744 -4.05231e-17
631 1 15.4124 86.5415 -4.05231e-17
632 1 49.6395 92.2136 -4.05231e-17
633 1 38.4365 211.719 -4.05231e-17
634 1 1.33605 147.762 -4.05231e-17
635 1 155.143 151.104 -4.05231e-17
636 1 208.358 57.8189 -4.05231e-17
637 1 201.362 58.3766 -4.05231e-17
638 1 172.73 76.6468 -4.05231e-17
639 2 203.842 78.5227 -4.05231e-17
640 1 143.421 152.671 -4.05231e-17
641 1 192.806 85.147 -4.05231e-17
642 1 32.4476 91.681 -4.05231e-17
643 2 182.037 42.8577 -4.05231e-17
644 1 68.4045 155.211 -4.05231e-17
645 1 106.503 196.758 -4.05231e-17
646 2 212.004 141.244 -4.05231e-17
647 1 11.1918 185.46 -4.05231e-17
648 1 132.281 103.201 -4.05231e-17
649 2 23.8638 150.803 -4.05231e-17
650 1 204.544 186.797 -4.05231e-17
651 1 218.563 113.408 -4.05231e-17
652 1 153.463 43.8858 -4.05231e-17
653 1 114.388 175.695 -4.05231e-17
654 1 23.0267 21.4102 -4.05231e-17
655 2 183.738 100.845 -4.05231e-17
656 1 30.4735 125.204 -4.05231e-17
657 2 79.288 207.081 -4.05231e-17
658 1 54.0951 44.267 -4.05231e-17
659 2 156.386 192.574 -4.05231e-17
660 1 102.251 55.5031 -4.05231e-17
661 1 42.8199 116.766 -4.05231e-17
662 1 81.7235 130.259 -4.05231e-17
663 1 31.6702 25.3765 -4.05231e-17
664 1 146.286 17.6909 -4.05231e-17
665 1 140.024 75.2977 -4.05231e-17
666 2 48.1319 181.257 -4.05231e-17
667 1 93.4557 99.466 -4.05231e-17
668 2 102.142 93.7459 -4.05231e-17
669 1 36.2298 17.5908 -4.05231e-17
670 1 96.6292 173.455 -4.05231e-17
671 2 54.0602 176.363 -4.05231e-17
672 1 186.777 12.2032 -4.05231e-17
673 1 63.2975 19.4574 -4.05231e-17
674 1 2.37203 31.6956 -4.05231e-17
675 1 128.424 23.6923 -4.05231e-17
676 1 169.467 123.875 -4.05231e-17
677 1 131.592 174.841 -4.05231e-17
678 1 137.537 30.8694 -4.05231e-17
679 2 152.215 32.8971 -4.05231e-17
680 1 203.023 41.5544 -4.05231e-17
681 2 129.286 119.348 -4.05231e-17
682 1 0.399911 47.785 -4.05231e-17
683 1 68.6054 4.37177 -4.05231e-17
684 1 119.941 154.909 -4.05231e-17
685 1 152.78 38.5937 -4.05231e-17
686 1 27.756 193.955 -4.05231e-17
687 1 118.34 191.924 -4.05231e-17
688 1 162.744 110.271 -4.05231e-17
689 2 56.0973 46.6805 -4.05231e-17
690 1 70.1518 20.1086 -4.05231e-17
691 1 89.637 66.3435 -4.05231e-17
692 1 130.532 8.03091 -4.05231e-17
693 1 48.6084 143.163 -4.05231e-17
694 1 76.226 124.909 -4.05231e-17
695 1 146.051 38.5584 -4.05231e-17
696 1 146.269 81.0925 -4.05231e-17
697 1 139.748 201.583 -4.05231e-17
698 1 116.709 66.1092 -4.05231e-17
699 1 180.551 191.504 -4.05231e-17
700 1 205.812 209.452 -4.05231e-17
701 1 54.0163 16.9339 -4.05231e-17
702 1 113.576 129.101 -4.05231e-17
703 2 188.104 143.945 -4.05231e-17
704 1 29.1646 218.529 -4.05231e-17
705 2 69.0231 112.071 -4.05231e-17
706 1 165.79 177.254 -4.05231e-17
707 1 113.98 24.9416 -4.05231e-17
708 1 84.2917 209.37 -4.05231e-17
709 1 147.474 196.189 -4.05231e-17
710 1 192.431 191.605 -4.05231e-17
711 1 111.494 93.2537 -4.05231e-17
712 1 192.621 208 -4.05231e-17
713 1 14.1107 136.033 -4.05231e-17
714 1 135.629 13.1947 -4.05231e-17
715 1 56.3088 199.478 -4.05231e-17
716 1 40.2699 123.873 -4.05231e-17
717 1 51.7703 107.65 -4.05231e-17
718 1 131.125 185.069 -4.05231e-17
719 2 119.424 78.9818 -4.05231e-17
720 1 98.7914 64.9034 -4.05231e-17
721 1 95.8314 98.7436 -4.05231e-17
722 1 133.894 63.1169 -4.05231e-17
723 2 48.6299 45.5601 -4.05231e-17
724 1 15.6549 49.2524 -4.05231e-17
725 1 29.3953 108.74 -4.05231e-17
726 1 189.955 46.0878 -4.05231e-17
727 1 148.408 205.431 -4.05231e-17
728 2 18.289 87.5914 -4.05231e-17
729 1 133.883 164.765 -4.05231e-17
730 1 174.399 198.903 -4.05231e-17
731 1 49.4179 190.243 -4.05231e-17
732 1 218.619 9.27695 -4.05231e-17
733 1 205.488 33.9766 -4.05231e-17
734 1 4.25123 29.9552 -4.05231e-17
735 1 40.9828 22.8247 -4.05231e-17
736 2 190.42 74.0698 -4.05231e-17
737 1 81.569 86.5097 -4.05231e-17
738 1 20.0529 165.492 -4.05231e-17
739 1 105.953 156.383 -4.05231e-17
740 1 59.9774 115.901 -4.05231e-17
741 2 188.885 78.39 -4.05231e-17
742 1 74.1957 43.9269 -4.05231e-17
743 1 202.945 66.4683 -4.05231e-17
744 2 210.698 172.745 -4.05231e-17
745 1 130.89 32.1039 -4.05231e-17
746 1 14.3842 29.3565 -4.05231e-17
747 2 204.358 22.3095 -4.05231e-17
748 1 182.827 192.849 -4.05231e-17
749 1 196.436 211.137 -4.05231e-17
750 1 213.034 163.687 -4.05231e-17
751 1 59.5839 58.7679 -4.05231e-17
752 1 177.83 105.492 -4.05231e-17
753 1 99.2335 150.741 -4.05231e-17
754 1 15.0652 215.299 -4.05231e-17
755 1 83.2847 194.865 -4.05231e-17
756 2 103.725 195.971 -4.05231e-17
757 1 27.2507 18.448 -4.05231e-17
758 1 135.42 146.29 -4.05231e-17
759 1 73.0308 107.427 -4.05231e-17
760 1 94.6898 39.8144 -4.05231e-17
761 1 58.4187 161.3 -4.05231e-17
762 1 43.4779 23.5779 -4.05231e-17
763 1 114.175 99.7381 -4.05231e-17
764 2 177.828 147.978 -4.05231e-17
765 1 92.1843 62.4923 -4.05231e-17
766 1 114.525 35.7363 -4.05231e-17
767 1 96.9793 78.485 -4.05231e-17
768 1 9.71785 3.96915 -4.05231e-17
769 1 107.831 75.7352 -4.05231e-17
770 2 113.664 109.879 -4.05231e-17
771 1 143.513 178.669 -4.05231e-17
772 1 101.942 28.6404 -4.05231e-17
773 1 109.399 167.401 -4.05231e-17
774 1 111.352 124.217 -4.05231e-17
775 1 68.9499 6.88821 -4.05231e-17
776 1 37.9376 10.8406 -4.05231e-17
777 1 108.034 182.105 -4.05231e-17
778 1 22.7542 18.9317 -4.05231e-17
779 1 192.088 44.2957 -4.05231e-17
780 1 3.30602 169.266 -4.05231e-17
781 1 127.106 99.9485 -4.05231e-17
782 1 175.554 49.3891 -4.05231e-17
783 1 98.1935 15.4323 -4.05231e-17
784 2 194.695 159.25 -4.05231e-17
785 1 111.04 165.346 -4.05231e-17
786 1 119.143 177.305 -4.05231e-17
787 1 185.55 74.9665 -4.05231e-17
788 1 177.253 45.2532 -4.05231e-17
789 2 142.947 109.124 -4.05231e-17
790 1 109.691 28.3594 -4.05231e-17
791 2 14.4857 121.865 -4.05231e-17
792 2 215.876 13.3428 -4.05231e-17
793 2 115.731 68.8975 -4.05231e-17
794 1 56.4852 188.696 -4.05231e-17
795 1 132.7 53.5517 -4.05231e-17
796 1 130.617 22.0796 -4.05231e-17
797 1 197.684 155.38 -4.05231e-17
798 2 195.829 203.804 -4.05231e-17
799 2 207.702 65.0395 -4.05231e-17
800 2 55.188 217.488 -4.05231e-17
801 1 103.026 132.41 -4.05231e-17
802 1 124.479 75.8965 -4.05231e-17
803 1 181.956 68.5529 -4.05231e-17
804 2 122.864 205.1 -4.05231e-17
805 1 44.9817 106.681 -4.05231e-17
806 1 11.8212 116.991 -4.05231e-17
807 2 100.704 99.4679 -4.05231e-17
808 1 14.5549 116.644 -4.05231e-17
809 2 57.7043 134.221 -4.05231e-17
810 1 129.915 197.831 -4.05231e-17
811 1 32.7574 5.88578 -4.05231e-17
812 1 131.979 34.6437 -4.05231e-17
813 2 107.979 110.912 -4.05231e-17
814 1 147.471 69.3157 -4.05231e-17
815 1 89.0311 164.279 -4.05231e-17
816 1 200.656 9.76314 -4.05231e-17
817 1 108.275 214.686 -4.05231e-17
818 1 57.2863 101.707 -4.05231e-17
819 1 9.74855 135.904 -4.05231e-17
820 1 45.3102 120.376 -4.05231e-17
821 1 94.4669 151.816 -4.05231e-17
822 2 41.3944 135.687 -4.05231e-17
823 2 139.171 91.5786 -4.05231e-17
824 1 34.9 107.795 -4.05231e-17
825 1 65.3132 15.1771 -4.05231e-17
826 1 190.604 14.2833 -4.05231e-17
827 1 192.816 107.253 -4.05231e-17
828 1 142.154 123.629 -4.05231e-17
829 1 127.065 210.815 -4.05231e-17
830 1 81.5254 127.521 -4.05231e-17
831 1 217.462 42.6629 -4.05231e-17
832 1 93.2594 87.2476 -4.05231e-17
833 1 61.8956 84.5355 -4.05231e-17
834 1 106.887 9.06051 -4.05231e-17
835 1 57.8962 218.466 -4.05231e-17
836 1 11.2208 50.2231 -4.05231e-17
837 1 6.76993 70.7857 -4.05231e-17
838 1 98.1626 178.511 -4.05231e-17
839 2 198.225 3.06056 -4.05231e-17
840 1 4.79028 202.579 -4.05231e-17
841 2 63.257 184.945 -4.05231e-17
842 1 94.7765 91.6854 -4.05231e-17
843 2 159.291 182.757 -4.05231e-17
844 1 26.1382 158.586 -4.05231e-17
845 1 71.1485 189.253 -4.05231e-17
846 1 158.816 190.627 -4.05231e-17
847 1 42.0257 140.985 -4.05231e-17
848 1 188.304 117.283 -4.05231e-17
849 1 189.255 166.917 -4.05231e-17
850 1 39.5853 129.226 -4.05231e-17
851 1 89.5453 37.6061 -4.05231e-17
852 1 11.787 208.914 -4.05231e-17
853 1 31.7823 138.831 -4.05231e-17
854 1 171.315 84.5731 -4.05231e-17
855 1 125.962 19.6457 -4.05231e-17
856 1 209.958 169.964 -4.05231e-17