ITEM: TIMESTEP
0
ITEM: NUMBER OF ATOMS
7200
ITEM: BOX BOUNDS xy xz yz pp pp pp
0.0000000000000000e+00 2.1900000000000000e+02 0.0000000000000000e+00
0.0000000000000000e+00 2.1900000000000000e+02 0.0000000000000000e+00
-3.6499999999999999e-01 3.6499999999999999e-01 0.0000000000000000e+00
ITEM: ATOMS id type x y z
1 1 67.8537 134.92 -4.05231e-17
2 1 183.372 108.553 -4.05231e-17
3 1 13.8785 158.361 -4.05231e-17
4 1 3.65353 86.2424 -4.05231e-17
5 1 215.39 157.008 -4.05231e-17
6 1 117.161 210.697 -4.05231e-17
7 1 42.413 51.2978 -4.05231e-17
8 2 149.567 83.1174 -4.05231e-17
9 1 203.262 9.74848 -4.05231e-17
10 2 58.1068 193.493 -4.05231e-17
11 1 114.799 14.8134 -4.05231e-17
12 1 129.235 78.1383 -4.05231e-17
13 2 51.317 79.1843 -4.05231e-17
14 1 65.5395 17.9561 -4.05231e-17
15 1 136.862 105.424 -4.05231e-17
16 2 61.0354 172.524 -4.05231e-17
17 1 113.943 30.6918 -4.05231e-17
18 2 31.7192 78.5019 -4.05231e-17
19 1 106.735 52.4942 -4.05231e-17
20 1 144.352 103.801 -4.05231e-17
21 1 41.9815 5.51326 -4.05231e-17
22 2 49.6176 148.064 -4.05231e-17
23 2 17.3953 54.4389 -4.05231e-17
24 1 159.4 99.7467 -4.05231e-17
25 1 75.9385 183.083 -4.05231e-17
26 2 86.328 96.7064 -4.05231e-17
27 1 155.44 174.114 -4.05231e-17
28 2 22.5193 156.488 -4.05231e-17
29 1 53.4166 46.7858 -4.05231e-17
30 1 139.804 88.3123 -4.05231e-17
31 1 211.334 90.5 -4.05231e-17
32 1 58.0774 104.72 -4.05231e-17
33 1 157.507 154.158 -4.05231e-17
34 1 61.1837 77.7328 -4.05231e-17
35 1 177.184 68.9307 -4.05231e-17
36 1 61.7085 75.2616 -4.05231e-17
37 2 136.08 140.306 -4.05231e-17
38 1 197.879 74.3647 -4.05231e-17
39 1 121.914 138.007 -4.05231e-17
40 1 165.14 163.765 -4.05231e-17
41 1 120.727 182.19 -4.05231e-17
42 1 103.351 36.2563 -4.05231e-17
43 1 135.446 61.1497 -4.05231e-17
44 1 107.231 23.0931 -4.05231e-17
45 1 214.815 84.7259 -4.05231e-17
46 1 28.1041 203.42 -4.05231e-17
47 1 88.8603 172.277 -4.05231e-17
48 2 47.7639 86.4484 -4.05231e-17
49 1 76.9314 110.553 -4.05231e-17
50 1 46.3517 197.623 -4.05231e-17
51 1 181.226 34.4317 -4.05231e-17
52 1 203.996 133.042 -4.05231e-17
53 1 156.411 27.2574 -4.05231e-17
54 1 24.3495 119.169 -4.05231e-17
55 1 22.9315 48.27 -4.05231e-17
56 1 117.507 139.938 -4.05231e-17
57 2 67.8546 214.552 -4.05231e-17
58 1 32.7112 40.5673 -4.05231e-17
59 1 28.8959 152.269 -4.05231e-17
60 2 151.956 147.283 -4.05231e-17
61 2 35.9018 202.809 -4.05231e-17
62 1 10.5777 162.247 -4.05231e-17
63 1 111.901 198.004 -4.05231e-17
64 1 134.003 39.5995 -4.05231e-17
65 1 214.116 114.03 -4.05231e-17
66 1 128.985 134.016 -4.05231e-17
67 1 95.4887 139.849 -4.05231e-17
68 1 66.6815 116.685 -4.05231e-17
69 1 140.737 173.855 -4.05231e-17
70 1 58.9389 111.326 -4.05231e-17
71 1 7.47391 125.554 -4.05231e-17
72 1 171.847 60.5171 -4.05231e-17
73 1 187.54 185.629 -4.05231e-17
74 1 207.187 21.559 -4.05231e-17
75 2 93.711 1.23664 -4.05231e-17
76 1 17.7414 4.50931 -4.05231e-17
77 1 36.2205 24.4888 -4.05231e-17
78 1 124.351 117.504 -4.05231e-17
79 2 126.486 1.06859 -4.05231e-17
80 1 75.2578 106.224 -4.05231e-17
81 1 110.349 140.925 -4.05231e-17
82 1 53.8843 141.673 -4.05231e-17
83 2 129.823 182.214 -4.05231e-17
84 1 180.08 80.7759 -4.05231e-17
85 1 22.3547 41.0299 -4.05231e-17
86 1 127.907 142.104 -4.05231e-17
87 1 217.343 217.491 -4.05231e-17
88 1 19.4171 34.9503 -4.05231e-17
89 2 43.9581 3.53076 -4.05231e-17
90 2 190.294 187.163 -4.05231e-17
91 1 149.827 90.5005 -4.05231e-17
92 2 168.954 21.5859 -4.05231e-17
93 1 141.18 15.1704 -4.05231e-17
94 2 201.789 12.5419 -4.05231e-17
95 1 33.2001 195.047 -4.05231e-17
96 1 130.852 95.6095 -4.05231e-17
97 1 97.1932 4.83792 -4.05231e-17
98 1 125.548 55.1757 -4.05231e-17
99 1 178.026 21.8181 -4.05231e-17
100 1 176.136 8.78394 -4.05231e-17
101 1 114.746 12.3903 -4.05231e-17
102 1 24.9114 46.2107 -4.05231e-17
103 1 57.9033 80.7544 -4.05231e-17
104 1 68.8824 109.376 -4.05231e-17
105 1 142.396 201.308 -4.05231e-17
106 1 78.0341 102.516 -4.05231e-17
107 2 146.53 101.594 -4.05231e-17
108 1 36.1367 210.429 -4.05231e-17
109 1 54.6368 88.933 -4.05231e-17
110 1 108.039 63.1062 -4.05231e-17
111 1 60.9862 21.0462 -4.05231e-17
112 1 94.6747 137.234 -4.05231e-17
113 1 99.497 43.7694 -4.05231e-17
114 1 158.384 23.1736 -4.05231e-17
115 1 51.3189 163.408 -4.05231e-17
116 2 214.156 133.753 -4.05231e-17
117 1 201.457 216.278 -4.05231e-17
118 1 165.233 68.0771 -4.05231e-17
119 2 57.9677 98.981 -4.05231e-17
120 1 53.3481 199.599 -4.05231e-17
121 1 152.414 84.1323 -4.05231e-17
122 1 103.066 14.6457 -4.05231e-17
123 1 136.985 75.9658 -4.05231e-17
124 1 154.691 201.563 -4.05231e-17
125 1 141.607 117.584 -4.05231e-17
126 1 111.585 65.5279 -4.05231e-17
127 1 164.131 78.2477 -4.05231e-17
128 1 175.41 136.712 -4.05231e-17
129 1 7.73128 104.021 -4.05231e-17
130 1 83.7028 128.66 -4.05231e-17
131 1 175.582 152.615 -4.05231e-17
132 2 183.335 2.03405 -4.05231e-17
133 1 127.209 79.6552 -4.05231e-17
134 1 35.6653 86.2286 -4.05231e-17
135 1 78.6379 8.28754 -4.05231e-17
136 1 210.372 201.798 -4.05231e-17
137 1 101.61 136.761 -4.05231e-17
138 1 50.2215 212.255 -4.05231e-17
139 1 202.668 105.627 -4.05231e-17
140 2 141.784 186.06 -4.05231e-17
141 1 205.652 96.513 -4.05231e-17
142 2 212.017 49.2015 -4.05231e-17
143 1 111.465 80.7615 -4.05231e-17
144 2 43.6892 199.339 -4.05231e-17
145 1 172.391 103.154 -4.05231e-17
146 1 99.7276 120.044 -4.05231e-17
147 1 154.426 145.926 -4.05231e-17
148 1 6.46374 200.728 -4.05231e-17
149 1 68.2452 21.551 -4.05231e-17
150 1 54.1964 37.3705 -4.05231e-17
151 1 26.4677 112.493 -4.05231e-17
152 1 63.4595 104.95 -4.05231e-17
153 2 52.3081 5.95648 -4.05231e-17
154 1 149.343 94.8538 -4.05231e-17
155 1 107.939 16.6393 -4.05231e-17
156 2 71.7615 116.221 -4.05231e-17
157 1 207.451 104.758 -4.05231e-17
158 1 29.1922 28.7922 -4.05231e-17
159 1 22.4368 135.761 -4.05231e-17
160 1 11.7706 201.518 -4.05231e-17
161 1 1.66238 8.11303 -4.05231e-17
162 1 127.337 127.635 -4.05231e-17
163 1 18.0609 32.4788 -4.05231e-17
164 1 167.061 52.8235 -4.05231e-17
165 1 125.213 121.874 -4.05231e-17
166 2 159.67 60.7842 -4.05231e-17
167 1 175.328 46.6193 -4.05231e-17
168 1 148.77 169.37 -4.05231e-17
169 1 1.51281 101.8 -4.05231e-17
170 1 94.9016 168.358 -4.05231e-17
171 1 146.785 60.9975 -4.05231e-17
172 1 218.665 17.2857 -4.05231e-17
173 1 46.3725 143.289 -4.05231e-17
174 1 131.273 62.8433 -4.05231e-17
175 2 137.328 160.788 -4.05231e-17
176 1 109.99 70.8008 -4.05231e-17
177 2 70.701 56.7985 -4.05231e-17
178 1 65.7309 87.038 -4.05231e-17
179 1 173.019 163.848 -4.05231e-17
180 1 203.505 196.981 -4.05231e-17
181 1 134.574 167.5 -4.05231e-17
182 2 77.677 20.5881 -4.05231e-17
183 1 76.7572 164.281 -4.05231e-17
184 1 176.319 86.925 -4.05231e-17
185 2 175.189 20.8594 -4.05231e-17
186 2 208.856 134.01 -4.05231e-17
187 1 93.1433 29.0398 -4.05231e-17
188 1 102.462 170.313 -4.05231e-17
189 1 123.341 175.036 -4.05231e-17
190 2 13.6357 161.424 -4.05231e-17
191 1 77.5211 157.492 -4.05231e-17
192 2 63.6666 110.27 -4.05231e-17
193 2 80.0945 172.84 -4.05231e-17
194 1 33.1526 149.344 -4.05231e-17
195 1 145.061 163.304 -4.05231e-17
196 1 168.416 191.667 -4.05231e-17
197 1 74.5163 69.8925 -4.05231e-17
198 2 9.81469 132.853 -4.05231e-17
199 1 210.796 57.1497 -4.05231e-17
200 1 80.6358 6.50326 -4.05231e-17
201 2 71.7247 110.046 -4.05231e-17
202 1 52.4667 210.843 -4.05231e-17
203 1 175.763 81.739 -4.05231e-17
204 1 188.394 156.712 -4.05231e-17
205 2 192.08 82.2724 -4.05231e-17
206 1 89.0796 133.031 -4.05231e-17
207 1 105.999 29.7445 -4.05231e-17
208 1 33.086 85.9866 -4.05231e-17
209 1 82.0957 2.32609 -4.05231e-17
210 1 8.00579 64.4961 -4.05231e-17
211 2 146.496 156.087 -4.05231e-17
212 1 120.215 112.806 -4.05231e-17
213 1 134.576 104.099 -4.05231e-17
214 1 74.5195 14.0474 -4.05231e-17
215 1 74.3692 201.72 -4.05231e-17
216 1 193.583 139.2 -4.05231e-17
217 1 126.723 186.768 -4.05231e-17
218 2 28.7994 168.538 -4.05231e-17
219 1 155.315 213.865 -4.05231e-17
220 2 107.177 55.5096 -4.05231e-17
221 1 213.089 56.0166 -4.05231e-17
222 1 142.368 146.804 -4.05231e-17
223 1 52.4885 208.174 -4.05231e-17
224 2 9.96977 188.445 -4.05231e-17
225 1 201.461 142.635 -4.05231e-17
226 1 138.717 190.007 -4.05231e-17
227 2 51.0046 16.8414 -4.05231e-17
228 1 138.943 77.6342 -4.05231e-17
229 1 60.88 135.724 -4.05231e-17
230 1 159.023 131.279 -4.05231e-17
231 1 148.415 122.749 -4.05231e-17
232 1 1.34909 90.8594 -4.05231e-17
233 1 109.859 100.434 -4.05231e-17
234 1 133.681 216.105 -4.05231e-17
235 1 20.9005 143.048 -4.05231e-17
236 1 46.2594 81.7015 -4.05231e-17
237 1 198.868 8.1812 -4.05231e-17
238 1 147.845 128.272 -4.05231e-17
239 2 17.7784 112.243 -4.05231e-17
240 1 99.7538 5.81205 -4.05231e-17
241 2 187.484 14.8883 -4.05231e-17
242 2 198.647 37.1899 -4.05231e-17
243 2 114.531 27.5446 -4.05231e-17
244 1 97.6979 7.48254 -4.05231e-17
245 1 84.8375 58.8095 -4.05231e-17
246 1 126.224 119.405 -4.05231e-17
247 1 210.671 98.5644 -4.05231e-17
248 1 94.6894 3.8736 -4.05231e-17
249 1 23.4274 65.7524 -4.05231e-17
250 2 149.658 29.8896 -4.05231e-17
251 1 153.391 212.211 -4.05231e-17
252 1 195.627 64.0427 -4.05231e-17
253 1 94.5016 61.3756 -4.05231e-17
254 2 76.7004 197.251 -4.05231e-17
255 1 212.386 148.811 -4.05231e-17
256 1 84.5396 165.619 -4.05231e-17
257 1 211.721 151.523 -4.05231e-17
258 2 163.916 27.9778 -4.05231e-17
259 1 58.2081 165.921 -4.05231e-17
260 1 127.604 11.3631 -4.05231e-17
261 1 184.706 13.8556 -4.05231e-17
262 1 53.2315 52.4451 -4.05231e-17
263 1 12.5709 213.68 -4.05231e-17
264 1 172.36 42.8582 -4.05231e-17
265 1 166.443 22.9677 -4.05231e-17
266 1 155.432 9.90489 -4.05231e-17
267 1 2.83683 64.4564 -4.05231e-17
268 1 21.9053 35.3829 -4.05231e-17
269 1 125.958 95.1051 -4.05231e-17
270 1 141.44 106.625 -4.05231e-17
271 1 12.3908 92.8165 -4.05231e-17
272 1 159.173 202.044 -4.05231e-17
273 1 40.8008 168.931 -4.05231e-17
274 2 113.259 87.8865 -4.05231e-17
275 1 64.336 5.14638 -4.05231e-17
276 2 54.2263 32.1373 -4.05231e-17
277 2 167.37 121.919 -4.05231e-17
278 1 38.7626 100.986 -4.05231e-17
279 2 109.93 205.023 -4.05231e-17
280 1 60.055 31.6884 -4.05231e-17
281 1 147.174 28.3526 -4.05231e-17
282 1 164.701 8.167 -4.05231e-17
283 1 112.998 141.531 -4.05231e-17
284 1 136.416 165.711 -4.05231e-17
285 1 35.9566 12.5027 -4.05231e-17
286 2 33.8719 214.914 -4.05231e-17
287 1 82.4959 135.436 -4.05231e-17
288 1 21.5912 57.4627 -4.05231e-17
289 1 71.5387 53.9657 -4.05231e-17
290 1 150.762 193.399 -4.05231e-17
291 1 158.414 144.724 -4.05231e-17
292 2 19.6187 180.992 -4.05231e-17
293 2 65.8644 194.475 -4.05231e-17
294 1 112.078 40.3782 -4.05231e-17
295 1 124.876 48.1323 -4.05231e-17
296 1 135.037 42.1371 -4.05231e-17
297 1 118.588 145.154 -4.05231e-17
298 1 105.123 198.602 -4.05231e-17
299 1 160.654 106.345 -4.05231e-17
300 2 62.1933 95.3918 -4.05231e-17
301 1 59.1359 46.1388 -4.05231e-17
302 1 126.983 192.662 -4.05231e-17
303 2 198.786 60.0625 -4.05231e-17
304 2 144.945 129.773 -4.05231e-17
305 1 86.4805 99.6182 -4.05231e-17
306 1 51.1546 73.5303 -4.05231e-17
307 1 35.2345 122.513 -4.05231e-17
308 1 162.067 59.2607 -4.05231e-17
309 2 73.2509 184.278 -4.05231e-17
310 1 194.14 215.301 -4.05231e-17
311 1 79.9098 33.477 -4.05231e-17
312 1 192.149 148.125 -4.05231e-17
313 2 147.576 66.2424 -4.05231e-17
314 1 52.0649 135.17 -4.05231e-17
315 1 111.123 150.523 -4.05231e-17
316 1 72.7583 0.802621 -4.05231e-17
317 1 13.8651 99.7477 -4.05231e-17
318 1 100.176 214.909 -4.05231e-17
319 1 51.3832 33.0387 -4.05231e-17
320 1 144.453 99.62 -4.05231e-17
321 1 88.7493 203.523 -4.05231e-17
322 1 143.205 140.193 -4.05231e-17
323 1 188.376 108.028 -4.05231e-17
324 1 81.3535 26.5949 -4.05231e-17
325 1 163.005 139.196 -4.05231e-17
326 1 85.051 151.905 -4.05231e-17
327 2 149.662 186.005 -4.05231e-17
328 1 167.754 40.3827 -4.05231e-17
329 2 47.3457 115.906 -4.05231e-17
330 1 23.9928 101.961 -4.05231e-17
331 1 174.406 175.908 -4.05231e-17
332 2 112.456 104.444 -4.05231e-17
333 1 44.6579 17.7357 -4.05231e-17
334 1 139.49 168.771 -4.05231e-17
335 1 12.4296 206.419 -4.05231e-17
336 1 212.4 106.507 -4.05231e-17
337 1 103.005 182.477 -4.05231e-17
338 1 159.485 57.8811 -4.05231e-17
339 1 109.39 217.179 -4.05231e-17
340 1 153.247 141.521 -4.05231e-17
341 1 160.112 158.27 -4.05231e-17
342 1 128.723 144.537 -4.05231e-17
343 1 127.33 29.3487 -4.05231e-17
344 1 63.5922 181.951 -4.05231e-17
345 1 60.7851 109.657 -4.05231e-17
346 1 9.2923 127.281 -4.05231e-17
347 1 92.424 92.3176 -4.05231e-17
348 1 163.85 179.107 -4.05231e-17
349 1 193.578 75.1279 -4.05231e-17
350 2 90.1093 40.7688 -4.05231e-17
351 1 155.151 66.2238 -4.05231e-17
352 1 61.0086 182.967 -4.05231e-17
353 1 39.3288 166.508 -4.05231e-17
354 1 167.425 161.483 -4.05231e-17
355 1 58.4321 156.909 -4.05231e-17
356 1 24.2266 36.44 -4.05231e-17
357 1 62.732 158.93 -4.05231e-17
358 1 171.884 180.74 -4.05231e-17
359 1 157.541 158.51 -4.05231e-17
360 1 74.2928 53.4389 -4.05231e-17
361 1 63.4756 168.064 -4.05231e-17
362 1 169.054 201.13 -4.05231e-17
363 1 163.209 189.959 -4.05231e-17
364 2 116.676 92.6922 -4.05231e-17
365 1 179.029 90.5883 -4.05231e-17
366 1 117.253 161.132 -4.05231e-17
367 1 174.184 7.14864 -4.05231e-17
368 1 196.896 192.169 -4.05231e-17
369 2 115.316 188.042 -4.05231e-17
370 1 14.9249 205.755 -4.05231e-17
371 1 53.7479 137.205 -4.05231e-17
372 2 0.0848272 93.8985 -4.05231e-17
373 2 212.797 8.11449 -4.05231e-17
374 1 151.535 88.601 -4.05231e-17
375 1 37.1341 111.985 -4.05231e-17
376 1 16.1957 152.8 -4.05231e-17
377 1 28.7111 213.15 -4.05231e-17
378 1 74.615 129.496 -4.05231e-17
379 1 43.1634 60.6116 -4.05231e-17
380 1 177.736 150.942 -4.05231e-17
381 1 13.6063 5.65374 -4.05231e-17
382 1 54.4873 67.2011 -4.05231e-17
383 1 169.913 67.4254 -4.05231e-17
384 1 21.9958 13.6437 -4.05231e-17
385 1 191.522 76.778 -4.05231e-17
386 2 82.0021 44.3033 -4.05231e-17
387 1 144.203 19.149 -4.05231e-17
388 1 56.6657 43.7566 -4.05231e-17
389 1 206.445 159.07 -4.05231e-17
390 2 207.242 179.548 -4.05231e-17
391 2 35.8114 40.3491 -4.05231e-17
392 1 41.5215 218.125 -4.05231e-17
393 1 0.473208 33.4356 -4.05231e-17
394 1 102.548 101.143 -4.05231e-17
395 1 16.126 27.3662 -4.05231e-17
396 1 202.452 153.907 -4.05231e-17
397 1 100.81 16.2768 -4.05231e-17
398 1 11.464 191.023 -4.05231e-17
399 1 19.6796 59.3662 -4.05231e-17
400 1 103.228 179.873 -4.05231e-17
401 1 87.8349 176.881 -4.05231e-17
402 2 191.099 178.867 -4.05231e-17
403 1 214.561 53.9082 -4.05231e-17
404 1 36.2162 71.6555 -4.05231e-17
405 1 204.302 29.3941 -4.05231e-17
406 1 201.128 68.2233 -4.05231e-17
407 2 19.4374 62.7047 -4.05231e-17
408 1 34.3716 35.4902 -4.05231e-17
409 1 169.481 128.962 -4.05231e-17
410 1 20.0454 154.96 -4.05231e-17
411 1 151.429 160.385 -4.05231e-17
412 1 114.829 215.127 -4.05231e-17
413 1 63.5427 156.274 -4.05231e-17
414 1 38.3347 13.6085 -4.05231e-17
415 1 207.851 148.199 -4.05231e-17
416 1 72.0217 200.12 -4.05231e-17
417 1 141.338 94.0214 -4.05231e-17
418 2 184.43 7.61393 -4.05231e-17
419 1 108.44 149.667 -4.05231e-17
420 2 137.03 108.96 -4.05231e-17
421 1 88.0493 103.821 -4.05231e-17
422 1 176.327 23.7539 -4.05231e-17
423 2 158.19 41.5998 -4.05231e-17
424 1 157.153 149.189 -4.05231e-17
425 1 128.836 166.984 -4.05231e-17
426 1 133.255 112.864 -4.05231e-17
427 1 45.6864 84.3453 -4.05231e-17
428 1 71.0819 191.55 -4.05231e-17
429 1 194.767 83.0889 -4.05231e-17
430 1 215.407 60.0264 -4.05231e-17
431 1 120.423 206.568 -4.05231e-17
432 1 161.591 53.8999 -4.05231e-17
433 1 104.969 153.749 -4.05231e-17
434 1 71.787 30.4295 -4.05231e-17
435 1 177.881 161.765 -4.05231e-17
436 1 44.8036 36.1969 -4.05231e-17
437 1 175.912 109.36 -4.05231e-17
438 2 109.663 21.4297 -4.05231e-17
439 1 67.2864 208.846 -4.05231e-17
440 1 3.39363 161.797 -4.05231e-17
441 1 192.585 131.663 -4.05231e-17
442 1 50.7263 13.5873 -4.05231e-17
443 1 158.439 104.84 -4.05231e-17
444 1 218.032 101.126 -4.05231e-17
445 1 140.091 7.41685 -4.05231e-17
446 1 131.865 78.9179 -4.05231e-17
447 1 39.0351 145.189 -4.05231e-17
448 1 76.0537 7.30381 -4.05231e-17
449 1 131.827 120.666 -4.05231e-17
450 1 139.671 187.781 -4.05231e-17
451 1 170.716 47.0755 -4.05231e-17
452 1 131.061 144.694 -4.05231e-17
453 1 178.773 182.335 -4.05231e-17
454 1 160.089 211.832 -4.05231e-17
455 1 100.44 71.9799 -4.05231e-17
456 1 166.953 27.2455 -4.05231e-17
457 1 97.8646 113.05 -4.05231e-17
458 1 198.39 0.0524667 -4.05231e-17
459 1 81.2877 69.1465 -4.05231e-17
460 1 48.7292 102.544 -4.05231e-17
461 1 188.374 177.931 -4.05231e-17
462 1 181.892 116.091 -4.05231e-17
463 1 126.417 33.8627 -4.05231e-17
464 1 154.838 194.914 -4.05231e-17
465 1 121.47 159.8 -4.05231e-17
466 1 24.2004 213.752 -4.05231e-17
467 1 17.335 80.1162 -4.05231e-17
468 1 161.211 218.546 -4.05231e-17
469 1 68.4628 78.011 -4.05231e-17
470 1 78.1717 37.792 -4.05231e-17
471 1 128.828 174.544 -4.05231e-17
472 1 48.2054 83.3068 -4.05231e-17
473 1 26.431 102.673 -4.05231e-17
474 1 88.4812 101.228 -4.05231e-17
475 1 184.894 163.722 -4.05231e-17
476 2 192.201 11.9269 -4.05231e-17
477 1 53.8284 84.608 -4.05231e-17
478 1 58.4349 125.84 -4.05231e-17
479 1 201.716 80.379 -4.05231e-17
480 1 85.4095 23.4406 -4.05231e-17
481 1 14.6802 94.3224 -4.05231e-17
482 1 99.4241 160.023 -4.05231e-17
483 1 141.98 159.624 -4.05231e-17
484 2 87.5342 45.5182 -4.05231e-17
485 1 34.1207 100.64 -4.05231e-17
486 1 81.7847 17.2388 -4.05231e-17
487 1 100.944 196.791 -4.05231e-17
488 1 5.82509 121.067 -4.05231e-17
489 1 211.579 134.947 -4.05231e-17
490 1 205.188 83.872 -4.05231e-17
491 1 197.594 121.965 -4.05231e-17
492 1 2.73044 128.741 -4.05231e-17
493 1 193.653 210.354 -4.05231e-17
494 1 211.487 38.1893 -4.05231e-17
495 1 198.848 89.2868 -4.05231e-17
496 2 43.9922 189.686 -4.05231e-17
497 1 39.1187 216.903 -4.05231e-17
498 1 104.548 121.032 -4.05231e-17
499 2 136.587 216.472 -4.05231e-17
500 1 26.3395 29.8716 -4.05231e-17
501 2 112.697 216.927 -4.05231e-17
502 2 123.315 142.93 -4.05231e-17
503 1 147.043 183.808 -4.05231e-17
504 1 112.821 148.545 -4.05231e-17
505 1 118.27 18.4628 -4.05231e-17
506 1 25.9814 121.74 -4.05231e-17
507 1 14.4539 129.783 -4.05231e-17
508 1 196.273 217.146 -4.05231e-17
509 2 27.112 75.7516 -4.05231e-17
510 2 146.373 133.478 -4.05231e-17
511 1 196.278 35.7919 -4.05231e-17
512 2 210.199 60.122 -4.05231e-17
513 1 56.2527 127.631 -4.05231e-17
514 1 49.0169 18.8402 -4.05231e-17
515 1 204.165 25.1256 -4.05231e-17
516 1 182.777 205.976 -4.05231e-17
517 1 111.606 117.441 -4.05231e-17
518 2 103.506 20.2248 -4.05231e-17
519 1 11.7459 52.8739 -4.05231e-17
520 2 212.47 23.3292 -4.05231e-17
521 1 88.7928 111.042 -4.05231e-17
522 1 31.5122 30.4261 -4.05231e-17
523 1 24.8128 68.1861 -4.05231e-17
524 1 100.13 74.6264 -4.05231e-17
525 1 174.908 121.18 -4.05231e-17
526 1 190.915 64.769 -4.05231e-17
527 1 75.5738 4.60134 -4.05231e-17
528 1 168.409 29.3755 -4.05231e-17
529 1 57.038 158.933 -4.05231e-17
530 1 100.538 31.7173 -4.05231e-17
531 1 66.6832 197.368 -4.05231e-17
532 1 206.441 188.096 -4.05231e-17
533 1 134.016 150.862 -4.05231e-17
534 1 97.1198 144.773 -4.05231e-17
535 1 14.2482 104.795 -4.05231e-17
536 1 203.561 118.023 -4.05231e-17
537 1 201.059 166.894 -4.05231e-17
538 1 169.115 80.9452 -4.05231e-17
539 1 88.9823 211.636 -4.05231e-17
540 1 103.175 88.8398 -4.05231e-17
541 1 40.8958 58.8247 -4.05231e-17
542 1 67.1599 211.583 -4.05231e-17
543 1 147.327 151.275 -4.05231e-17
544 1 128.714 200.196 -4.05231e-17
545 1 8.14824 149.696 -4.05231e-17
546 1 179.352 41.1375 -4.05231e-17
547 1 82.8628 172.249 -4.05231e-17
548 1 100.212 8.50567 -4.05231e-17
549 1 51.6761 76.1936 -4.05231e-17
550 2 162.806 121.762 -4.05231e-17
551 2 134.354 157.79 -4.05231e-17
552 2 93.9002 180.637 -4.05231e-17
553 1 122.639 42.5983 -4.05231e-17
554 1 73.3516 101.727 -4.05231e-17
555 2 65.8093 124.001 -4.05231e-17
556 1 148.461 21.8882 -4.05231e-17
557 1 76.5264 12.5143 -4.05231e-17
558 1 147.999 125.604 -4.05231e-17
559 1 187.803 47.4725 -4.05231e-17
560 1 131.513 51.5661 -4.05231e-17
561 1 146.346 168.513 -4.05231e-17
562 1 195.72 144.594 -4.05231e-17
563 2 168.235 113.792 -4.05231e-17
564 1 41.8413 67.26 -4.05231e-17
565 1 60.2254 10.4292 -4.05231e-17
566 1 75.3599 34.3177 -4.05231e-17
567 1 150.671 111.276 -4.05231e-17
568 1 22.18 114.463 -4.05231e-17
569 1 114.163 185.238 -4.05231e-17
570 1 124.693 124.342 -4.05231e-17
571 1 175.358 203.723 -4.05231e-17
572 1 61.4292 112.14 -4.05231e-17
573 1 177.57 76.5492 -4.05231e-17
574 1 41.738 130.211 -4.05231e-17
575 1 21.9359 76.4747 -4.05231e-17
576 1 196.369 98.6704 -4.05231e-17
577 1 202.873 33.5231 -4.05231e-17
578 1 122.845 196.75 -4.05231e-17
579 1 15.6696 166.942 -4.05231e-17
580 1 102.596 139.071 -4.05231e-17
581 1 141.089 154.448 -4.05231e-17
582 1 75.9038 78.9689 -4.05231e-17
583 1 162.128 185.666 -4.05231e-17
584 2 28.8834 117.635 -4.05231e-17
585 1 48.7899 198.792 -4.05231e-17
586 1 137.454 170.943 -4.05231e-17
587 1 99.5051 104.608 -4.05231e-17
588 1 17.1707 1.95214 -4.05231e-17
589 1 103.254 17.1849 -4.05231e-17
590 1 70.4079 218.879 -4.05231e-17
591 1 215.334 162.358 -4.05231e-17
592 1 55.9724 156.24 -4.05231e-17
593 1 209.368 181.574 -4.05231e-17
594 1 181.115 181.081 -4.05231e-17
595 1 82.9843 39.4829 -4.05231e-17
596 1 66.0233 35.8674 -4.05231e-17
597 2 180.49 204.257 -4.05231e-17
598 1 167.078 211.513 -4.05231e-17
599 1 207.821 171.329 -4.05231e-17
600 1 104.964 10.453 -4.05231e-17
601 1 11.8905 134.974 -4.05231e-17
602 1 98.0369 30.9487 -4.05231e-17
603 1 207.846 202.484 -4.05231e-17
604 1 120.847 1.27327 -4.05231e-17
605 2 85.5531 77.4225 -4.05231e-17
606 1 102.837 202.334 -4.05231e-17
607 2 171.753 146.859 -4.05231e-17
608 1 95.3723 76.4514 -4.05231e-17
609 1 16.073 6.47844 -4.05231e-17
610 1 214.093 150.578 -4.05231e-17
611 1 201.814 190.214 -4.05231e-17
612 1 217.989 37.9401 -4.05231e-17
613 1 58.9888 150.947 -4.05231e-17
614 2 127.946 179.349 -4.05231e-17
615 1 105.663 18.3118 -4.05231e-17
616 1 202.313 131.2 -4.05231e-17
617 1 127.016 198.139 -4.05231e-17
618 1 201.547 212.3 -4.05231e-17
619 1 179.295 78.2641 -4.05231e-17
620 1 140.881 141.581 -4.05231e-17
621 1 197.302 93.7027 -4.05231e-17
622 1 95.2548 213.49 -4.05231e-17
623 1 218.622 12.1656 -4.05231e-17
624 1 23.7072 209.114 -4.05231e-17
625 1 204.689 155.09 -4.05231e-17
626 1 94.215 191.353 -4.05231e-17
627 1 64.2272 74.006 -4.05231e-17
628 1 34.3047 28.5251 -4.05231e-17
629 1 10.1111 94.9015 -4.05231e-17
630 2 151.387 22.1695 -4.05231e-17
631 1 15.6339 86.6313 -4.05231e-17
632 1 49.5672 92.26 -4.05231e-17
633 1 38.6514 211.594 -4.05231e-17
634 1 1.25171 147.718 -4.05231e-17
635 1 155.177 150.959 -4.05231e-17
636 1 208.289 57.842 -4.05231e-17
637 1 201.44 58.4621 -4.05231e-17
638 1 173.123 76.7581 -4.05231e-17
639 2 203.888 78.3546 -4.05231e-17
640 1 143.013 152.49 -4.05231e-17
641 1 193.054 85.2428 -4.05231e-17
642 1 32.6059 91.7579 -4.05231e-17
643 2 182.177 42.5701 -4.05231e-17
644 1 68.5077 155.311 -4.05231e-17
645 1 106.714 196.61 -4.05231e-17
646 2 211.884 141.253 -4.05231e-17
647 1 10.9681 185.167 -4.05231e-17
648 1 132.285 103.076 -4.05231e-17
649 2 23.6776 151.051 -4.05231e-17
650 1 204.448 186.587 -4.05231e-17
651 1 218.447 113.065 -4.05231e-17
652 1 153.362 44.0097 -4.05231e-17
653 1 114.272 175.602 -4.05231e-17
654 1 23.0911 21.4702 -4.05231e-17
655 2 183.906 101.14 -4.05231e-17
656 1 30.3241 125.081 -4.05231e-17
657 2 79.2238 207.206 -4.05231e-17
658 1 54.1746 44.3639 -4.05231e-17
659 2 156.214 192.473 -4.05231e-17
660 1 102.214 55.3657 -4.05231e-17
661 1 42.7133 116.609 -4.05231e-17
662 1 81.5652 130.396 -4.05231e-17
663 1 31.8751 25.3284 -4.05231e-17
664 1 146.539 18.1065 -4.05231e-17
665 1 140.011 75.4502 -4.05231e-17
666 2 47.9221 181.159 -4.05231e-17
667 1 93.4173 99.4574 -4.05231e-17
668 2 102.27 93.5516 -4.05231e-17
669 1 36.4908 17.8091 -4.05231e-17
670 1 96.4564 173.664 -4.05231e-17
671 2 53.9686 176.24 -4.05231e-17
672 1 186.737 12.1188 -4.05231e-17
673 1 63.4539 19.6697 -4.05231e-17
674 1 2.3539 31.7026 -4.05231e-17
675 1 128.669 23.8576 -4.05231e-17
676 1 169.568 123.718 -4.05231e-17
677 1 131.449 174.968 -4.05231e-17
678 1 137.676 31.0687 -4.05231e-17
679 2 152.051 32.9752 -4.05231e-17
680 1 202.934 41.7004 -4.05231e-17
681 2 129.243 119.313 -4.05231e-17
682 1 0.441996 47.5059 -4.05231e-17
683 1 68.7195 4.12788 -4.05231e-17
684 1 119.862 154.78 -4.05231e-17
685 1 152.872 38.7911 -4.05231e-17
686 1 27.7327 193.732 -4.05231e-17
687 1 118.452 192.016 -4.05231e-17
688 1 163.024 110.28 -4.05231e-17
689 2 56.3253 46.6172 -4.05231e-17
690 1 70.337 19.9376 -4.05231e-17
691 1 89.2379 65.9528 -4.05231e-17
692 1 131.268 8.0844 -4.05231e-17
693 1 48.8998 143.209 -4.05231e-17
694 1 75.8871 125.27 -4.05231e-17
695 1 145.924 38.7365 -4.05231e-17
696 1 146.44 80.9406 -4.05231e-17
697 1 139.681 201.343 -4.05231e-17
698 1 116.487 66.0615 -4.05231e-17
699 1 180.345 191.593 -4.05231e-17
700 1 205.611 209.439 -4.05231e-17
701 1 54.0274 17.0624 -4.05231e-17
702 1 113.297 128.949 -4.05231e-17
703 2 188.264 144.108 -4.05231e-17
704 1 29.3151 218.549 -4.05231e-17
705 2 69.0548 112.449 -4.05231e-17
706 1 165.654 177.283 -4.05231e-17
707 1 114.204 24.5428 -4.05231e-17
708 1 84.2172 209.255 -4.05231e-17
709 1 147.152 196.339 -4.05231e-17
710 1 192.183 191.616 -4.05231e-17
711 1 111.779 93.0917 -4.05231e-17
712 1 192.392 207.866 -4.05231e-17
713 1 14.1499 136.191 -4.05231e-17
714 1 136.168 13.2596 -4.05231e-17
715 1 55.9859 199.451 -4.05231e-17
716 1 40.5026 123.675 -4.05231e-17
717 1 51.6376 107.355 -4.05231e-17
718 1 130.905 185.007 -4.05231e-17
719 2 119.858 78.9589 -4.05231e-17
720 1 98.9515 64.7787 -4.05231e-17
721 1 95.7301 98.5658 -4.05231e-17
722 1 133.896 63.2713 -4.05231e-17
723 2 48.7649 45.4769 -4.05231e-17
724 1 15.4303 49.2036 -4.05231e-17
725 1 29.6073 108.812 -4.05231e-17
726 1 189.806 45.8375 -4.05231e-17
727 1 148.379 205.08 -4.05231e-17
728 2 18.3103 87.9487 -4.05231e-17
729 1 133.676 165.118 -4.05231e-17
730 1 174.198 199.26 -4.05231e-17
731 1 49.1965 190.381 -4.05231e-17
732 1 218.509 9.56616 -4.05231e-17
733 1 205.524 34.3137 -4.05231e-17
734 1 4.25146 30.033 -4.05231e-17
735 1 41.2868 22.7709 -4.05231e-17
736 2 190.565 74.0165 -4.05231e-17
737 1 81.7946 86.4195 -4.05231e-17
738 1 19.8854 165.404 -4.05231e-17
739 1 105.655 156.342 -4.05231e-17
740 1 59.779 116.391 -4.05231e-17
741 2 188.99 78.255 -4.05231e-17
742 1 74.4668 43.815 -4.05231e-17
743 1 203.042 66.6202 -4.05231e-17
744 2 210.624 172.699 -4.05231e-17
745 1 130.821 32.438 -4.05231e-17
746 1 14.2161 29.2751 -4.05231e-17
747 2 204.181 22.1639 -4.05231e-17
748 1 182.595 193.074 -4.05231e-17
749 1 196.445 210.849 -4.05231e-17
750 1 212.941 163.559 -4.05231e-17
751 1 59.6285 58.6617 -4.05231e-17
752 1 178.303 106.058 -4.05231e-17
753 1 98.9948 150.647 -4.05231e-17
754 1 14.7884 215.299 -4.05231e-17
755 1 83.281 195.077 -4.05231e-17
756 2 103.734 195.946 -4.05231e-17
757 1 27.2524 18.3445 -4.05231e-17
758 1 135.236 145.978 -4.05231e-17
759 1 73.025 107.337 -4.05231e-17
760 1 95.4994 39.7233 -4.05231e-17
761 1 58.3837 161.42 -4.05231e-17
762 1 43.7266 23.5838 -4.05231e-17
763 1 113.982 99.7963 -4.05231e-17
764 2 177.752 148.004 -4.05231e-17
765 1 92.1904 62.1862 -4.05231e-17
766 1 114.605 35.7837 -4.05231e-17
767 1 97.195 78.1821 -4.05231e-17
768 1 9.67517 4.07649 -4.05231e-17
769 1 107.918 75.851 -4.05231e-17
770 2 113.545 109.807 -4.05231e-17
771 1 143.399 178.674 -4.05231e-17
772 1 102.195 28.1036 -4.05231e-17
773 1 109.298 167.349 -4.05231e-17
774 1 111.197 124.11 -4.05231e-17
775 1 68.9308 6.83677 -4.05231e-17
776 1 38.0085 10.9418 -4.05231e-17
777 1 107.849 182.052 -4.05231e-17
778 1 22.7958 18.9188 -4.05231e-17
779 1 191.949 44.4292 -4.05231e-17
780 1 3.32651 168.965 -4.05231e-17
781 1 127.56 99.9777 -4.05231e-17
782 1 175.674 49.2354 -4.05231e-17
783 1 98.443 15.1903 -4.05231e-17
784 2 194.622 159.373 -4.05231e-17
785 1 110.886 165.465 -4.05231e-17
786 1 119.187 177.176 -4.05231e-17
787 1 185.629 74.8878 -4.05231e-17
788 1 177.348 45.0913 -4.05231e-17
789 2 143.142 109.018 -4.05231e-17
790 1 109.805 27.9004 -4.05231e-17
791 2 14.6086 121.811 -4.05231e-17
792 2 215.801 13.5594 -4.05231e-17
793 2 115.986 68.8772 -4.05231e-17
794 1 56.2586 188.587 -4.05231e-17
795 1 132.448 53.9123 -4.05231e-17
796 1 130.656 22.3138 -4.05231e-17
797 1 197.619 155.527 -4.05231e-17
798 2 195.845 203.909 -4.05231e-17
799 2 207.887 65.2596 -4.05231e-17
800 2 55.3081 217.442 -4.05231e-17
801 1 102.588 132.178 -4.05231e-17
802 1 124.54 75.8404 -4.05231e-17
803 1 181.996 68.5904 -4.05231e-17
804 2 122.94 205.149 -4.05231e-17
805 1 44.8651 106.667 -4.05231e-17
806 1 11.7441 116.92 -4.05231e-17
807 2 100.625 99.0164 -4.05231e-17
808 1 14.4424 116.685 -4.05231e-17
809 2 57.6603 134.252 -4.05231e-17
810 1 129.658 197.658 -4.05231e-17
811 1 32.9282 5.77765 -4.05231e-17
812 1 131.852 34.7422 -4.05231e-17
813 2 107.827 110.887 -4.05231e-17
814 1 147.474 69.4666 -4.05231e-17
815 1 89.0016 164.464 -4.05231e-17
816 1 200.732 9.94677 -4.05231e-17
817 1 108.278 214.747 -4.05231e-17
818 1 57.5262 101.88 -4.05231e-17
819 1 9.64416 136.028 -4.05231e-17
820 1 45.344 120.338 -4.05231e-17
821 1 94.6183 151.833 -4.05231e-17
822 2 41.6397 135.709 -4.05231e-17
823 2 139.599 91.6235 -4.05231e-17
824 1 34.8569 107.799 -4.05231e-17
825 1 65.4902 15.3405 -4.05231e-17
826 1 190.302 14.1029 -4.05231e-17
827 1 192.91 107.569 -4.05231e-17
828 1 142.305 123.431 -4.05231e-17
829 1 127.235 210.834 -4.05231e-17
830 1 81.378 127.759 -4.05231e-17
831 1 217.289 42.6615 -4.05231e-17
832 1 93.3218 87.1144 -4.05231e-17
833 1 62.1215 84.594 -4.05231e-17
834 1 107.068 8.92703 -4.05231e-17
835 1 58.0057 218.392 -4.05231e-17
836 1 10.864 50.347 -4.05231e-17
837 1 6.85783 70.8026 -4.05231e-17
838 1 98.0958 178.748 -4.05231e-17
839 2 198.036 3.05141 -4.05231e-17
840 1 4.68068 202.592 -4.05231e-17
841 2 63.0392 185.093 -4.05231e-17
842 1 94.6771 91.3288 -4.05231e-17
843 2 159.188 182.596 -4.05231e-17
844 1 26.2526 158.887 -4.05231e-17
845 1 71.2527 188.912 -4.05231e-17
846 1 158.722 190.738 -4.05231e-17
847 1 42.1913 141.061 -4.05231e-17
848 1 188.428 117.397 -4.05231e-17
849 1 189.065 167.048 -4.05231e-17
850 1 39.4596 129.361 -4.05231e-17
851 1 89.6242 37.6035 -4.05231e-17
852 1 11.6995 209.11 -4.05231e-17
853 1 32.0519 139.094 -4.05231e-17
854 1 171.485 84.6014 -4.05231e-17
855 1 126.111 19.9751 -4.05231e-17
856 1 210.021 170.054 -4.05231e-17