ITEM: TIMESTEP
0
ITEM: NUMBER OF ATOMS
7200
ITEM: BOX BOUNDS xy xz yz pp pp pp
0.0000000000000000e+00 2.1900000000000000e+02 0.0000000000000000e+00
0.0000000000000000e+00 2.1900000000000000e+02 0.0000000000000000e+00
-3.6499999999999999e-01 3.6499999999999999e-01 0.0000000000000000e+00
ITEM: ATOMS id type x y z
1 1 67.7689 135.153 -4.05231e-17
2 1 183.014 108.634 -4.05231e-17
3 1 13.9743 158.682 -4.05231e-17
4 1 3.77129 86.4283 -4.05231e-17
5 1 215.472 156.976 -4.05231e-17
6 1 117.084 210.614 -4.05231e-17
7 1 42.2133 51.8034 -4.05231e-17
8 2 149.3 82.9765 -4.05231e-17
9 1 203.077 9.79303 -4.05231e-17
10 2 58.3863 193.347 -4.05231e-17
11 1 114.481 14.8241 -4.05231e-17
12 1 128.998 77.9248 -4.05231e-17
13 2 51.2402 79.3889 -4.05231e-17
14 1 65.3165 18.0693 -4.05231e-17
15 1 137.048 105.495 -4.05231e-17
16 2 60.8322 172.626 -4.05231e-17
17 1 114.081 30.8837 -4.05231e-17
18 2 31.3958 78.5879 -4.05231e-17
19 1 106.688 52.3981 -4.05231e-17
20 1 144.479 103.294 -4.05231e-17
21 1 41.96 5.39176 -4.05231e-17
22 2 49.6934 147.587 -4.05231e-17
23 2 17.1696 54.4007 -4.05231e-17
24 1 159.49 99.4303 -4.05231e-17
25 1 75.6472 182.734 -4.05231e-17
26 2 86.383 97.004 -4.05231e-17
27 1 156.07 174.432 -4.05231e-17
28 2 22.7136 156.517 -4.05231e-17
29 1 53.0533 46.6822 -4.05231e-17
30 1 139.674 88.0511 -4.05231e-17
31 1 211.685 90.3986 -4.05231e-17
32 1 57.8348 104.604 -4.05231e-17
33 1 157.542 154.443 -4.05231e-17
34 1 61.247 77.6211 -4.05231e-17
35 1 177.052 68.9357 -4.05231e-17
36 1 61.7166 75.1966 -4.05231e-17
37 2 136.326 140.528 -4.05231e-17
38 1 197.798 74.5045 -4.05231e-17
39 1 122.071 138.229 -4.05231e-17
40 1 166.007 163.965 -4.05231e-17
41 1 121.026 182.08 -4.05231e-17
42 1 103.117 36.6729 -4.05231e-17
43 1 135.18 61.0694 -4.05231e-17
44 1 106.994 23.3862 -4.05231e-17
45 1 214.825 85.047 -4.05231e-17
46 1 28.1688 203.727 -4.05231e-17
47 1 88.949 172.422 -4.05231e-17
48 2 47.5994 86.4166 -4.05231e-17
49 1 76.897 110.597 -4.05231e-17
50 1 46.3186 197.626 -4.05231e-17
51 1 181.339 34.6295 -4.05231e-17
52 1 203.804 132.706 -4.05231e-17
53 1 156.747 27.269 -4.05231e-17
54 1 24.4592 119.483 -4.05231e-17
55 1 22.6297 48.336 -4.05231e-17
56 1 117.632 139.986 -4.05231e-17
57 2 68.1799 214.581 -4.05231e-17
58 1 32.5359 40.8697 -4.05231e-17
59 1 29.0207 152.042 -4.05231e-17
60 2 151.843 146.892 -4.05231e-17
61 2 36.1561 202.892 -4.05231e-17
62 1 10.809 162.153 -4.05231e-17
63 1 111.801 197.575 -4.05231e-17
64 1 133.885 39.3483 -4.05231e-17
65 1 214.321 114.073 -4.05231e-17
66 1 128.782 134.225 -4.05231e-17
67 1 95.5827 139.597 -4.05231e-17
68 1 66.7921 116.628 -4.05231e-17
69 1 141.038 174.387 -4.05231e-17
70 1 59.3223 111.397 -4.05231e-17
71 1 7.58329 125.766 -4.05231e-17
72 1 171.81 60.5369 -4.05231e-17
73 1 188.366 185.54 -4.05231e-17
74 1 207.17 21.3401 -4.05231e-17
75 2 93.5805 1.40769 -4.05231e-17
76 1 17.8966 4.79202 -4.05231e-17
77 1 36.5875 24.2685 -4.05231e-17
78 1 124.501 116.991 -4.05231e-17
79 2 126.368 1.17083 -4.05231e-17
80 1 75.1483 106.318 -4.05231e-17
81 1 110.456 140.923 -4.05231e-17
82 1 53.9331 141.669 -4.05231e-17
83 2 130.009 182.007 -4.05231e-17
84 1 179.851 80.669 -4.05231e-17
85 1 22.0483 41.2245 -4.05231e-17
86 1 128.064 142.373 -4.05231e-17
87 1 217.775 217.213 -4.05231e-17
88 1 19.1205 34.9986 -4.05231e-17
89 2 44.0096 3.4829 -4.05231e-17
90 2 190.908 186.956 -4.05231e-17
91 1 149.848 90.4414 -4.05231e-17
92 2 169.081 21.582 -4.05231e-17
93 1 141.748 15.3642 -4.05231e-17
94 2 201.861 12.4491 -4.05231e-17
95 1 33.5002 195.05 -4.05231e-17
96 1 130.595 95.4267 -4.05231e-17
97 1 97.0729 4.98159 -4.05231e-17
98 1 125.267 55.1001 -4.05231e-17
99 1 178.057 21.5827 -4.05231e-17
100 1 176.188 8.75333 -4.05231e-17
101 1 114.266 12.2553 -4.05231e-17
102 1 24.2628 46.5005 -4.05231e-17
103 1 58.1233 80.8759 -4.05231e-17
104 1 68.8684 109.237 -4.05231e-17
105 1 142.626 201.479 -4.05231e-17
106 1 78.184 102.828 -4.05231e-17
107 2 146.563 101.325 -4.05231e-17
108 1 36.1943 210.433 -4.05231e-17
109 1 54.7535 88.9671 -4.05231e-17
110 1 107.884 63.109 -4.05231e-17
111 1 60.8096 20.9353 -4.05231e-17
112 1 94.8879 137.151 -4.05231e-17
113 1 99.01 43.7429 -4.05231e-17
114 1 158.542 23.0604 -4.05231e-17
115 1 51.3391 163.236 -4.05231e-17
116 2 214.499 133.839 -4.05231e-17
117 1 201.845 216.524 -4.05231e-17
118 1 164.929 67.723 -4.05231e-17
119 2 57.8631 99.0903 -4.05231e-17
120 1 53.364 199.289 -4.05231e-17
121 1 152.258 83.6895 -4.05231e-17
122 1 102.903 14.969 -4.05231e-17
123 1 136.922 75.6938 -4.05231e-17
124 1 155.038 201.618 -4.05231e-17
125 1 141.374 117.391 -4.05231e-17
126 1 111.643 65.7199 -4.05231e-17
127 1 164.031 77.8851 -4.05231e-17
128 1 175.47 136.433 -4.05231e-17
129 1 7.73631 104.223 -4.05231e-17
130 1 83.8293 128.926 -4.05231e-17
131 1 175.613 152.338 -4.05231e-17
132 2 183.468 2.18649 -4.05231e-17
133 1 126.778 79.6121 -4.05231e-17
134 1 35.3136 86.1289 -4.05231e-17
135 1 77.9983 8.42508 -4.05231e-17
136 1 210.675 201.682 -4.05231e-17
137 1 102.135 136.724 -4.05231e-17
138 1 50.6989 212.19 -4.05231e-17
139 1 202.619 105.661 -4.05231e-17
140 2 142.198 186.293 -4.05231e-17
141 1 205.926 96.5207 -4.05231e-17
142 2 211.937 48.7221 -4.05231e-17
143 1 111.109 80.6708 -4.05231e-17
144 2 43.8117 199.259 -4.05231e-17
145 1 172.34 102.977 -4.05231e-17
146 1 100.023 120.233 -4.05231e-17
147 1 154.456 145.802 -4.05231e-17
148 1 6.87192 200.772 -4.05231e-17
149 1 68.1828 21.4056 -4.05231e-17
150 1 53.9692 37.4427 -4.05231e-17
151 1 26.3854 112.781 -4.05231e-17
152 1 63.4143 104.877 -4.05231e-17
153 2 52.4665 6.12006 -4.05231e-17
154 1 149.228 94.3005 -4.05231e-17
155 1 107.594 16.8963 -4.05231e-17
156 2 71.752 116.292 -4.05231e-17
157 1 207.541 104.757 -4.05231e-17
158 1 28.857 29.0801 -4.05231e-17
159 1 22.2825 135.786 -4.05231e-17
160 1 11.9981 201.474 -4.05231e-17
161 1 1.56138 8.0671 -4.05231e-17
162 1 127.459 127.529 -4.05231e-17
163 1 17.7858 32.5334 -4.05231e-17
164 1 167.062 52.8536 -4.05231e-17
165 1 124.938 121.261 -4.05231e-17
166 2 159.541 60.5728 -4.05231e-17
167 1 175.029 46.8561 -4.05231e-17
168 1 149.167 169.587 -4.05231e-17
169 1 1.90037 101.893 -4.05231e-17
170 1 95.0793 168.317 -4.05231e-17
171 1 146.837 60.7397 -4.05231e-17
172 1 218.912 17.3387 -4.05231e-17
173 1 45.8269 143.244 -4.05231e-17
174 1 131.359 62.8615 -4.05231e-17
175 2 137.547 161.002 -4.05231e-17
176 1 109.829 70.6708 -4.05231e-17
177 2 70.3772 56.7868 -4.05231e-17
178 1 65.5543 87.0964 -4.05231e-17
179 1 173.448 163.819 -4.05231e-17
180 1 203.687 197.156 -4.05231e-17
181 1 135.113 167.54 -4.05231e-17
182 2 77.2448 20.7136 -4.05231e-17
183 1 76.9999 164.146 -4.05231e-17
184 1 176.455 86.9877 -4.05231e-17
185 2 175.22 20.7324 -4.05231e-17
186 2 208.849 134.036 -4.05231e-17
187 1 92.9932 29.0067 -4.05231e-17
188 1 102.708 170.134 -4.05231e-17
189 1 123.787 174.572 -4.05231e-17
190 2 13.7102 161.741 -4.05231e-17
191 1 77.4683 157.303 -4.05231e-17
192 2 63.5257 110.159 -4.05231e-17
193 2 79.7492 172.589 -4.05231e-17
194 1 32.998 149.69 -4.05231e-17
195 1 145.419 163.737 -4.05231e-17
196 1 168.49 192.16 -4.05231e-17
197 1 74.2156 70.0685 -4.05231e-17
198 2 9.79922 133.028 -4.05231e-17
199 1 210.745 57.1327 -4.05231e-17
200 1 80.2226 6.79407 -4.05231e-17
201 2 71.6997 110.189 -4.05231e-17
202 1 52.8626 210.79 -4.05231e-17
203 1 175.633 81.8257 -4.05231e-17
204 1 188.417 156.397 -4.05231e-17
205 2 191.995 82.5442 -4.05231e-17
206 1 89.1351 133.103 -4.05231e-17
207 1 105.72 30.1684 -4.05231e-17
208 1 32.7635 85.8585 -4.05231e-17
209 1 81.9418 2.47464 -4.05231e-17
210 1 8.05298 64.6032 -4.05231e-17
211 2 146.579 156.545 -4.05231e-17
212 1 120.452 112.536 -4.05231e-17
213 1 134.895 103.98 -4.05231e-17
214 1 74.2856 14.2582 -4.05231e-17
215 1 74.6189 201.636 -4.05231e-17
216 1 193.492 138.769 -4.05231e-17
217 1 126.835 186.867 -4.05231e-17
218 2 28.634 168.287 -4.05231e-17
219 1 155.524 213.84 -4.05231e-17
220 2 106.96 55.537 -4.05231e-17
221 1 212.976 55.8547 -4.05231e-17
222 1 143.573 146.292 -4.05231e-17
223 1 52.7205 208.136 -4.05231e-17
224 2 10.2679 188.367 -4.05231e-17
225 1 201.2 142.111 -4.05231e-17
226 1 139.127 190.212 -4.05231e-17
227 2 51.136 16.9701 -4.05231e-17
228 1 138.622 77.6907 -4.05231e-17
229 1 60.8286 135.88 -4.05231e-17
230 1 159.006 131.184 -4.05231e-17
231 1 148.246 123.03 -4.05231e-17
232 1 1.50116 90.808 -4.05231e-17
233 1 109.746 100.596 -4.05231e-17
234 1 133.889 215.946 -4.05231e-17
235 1 20.9476 143.134 -4.05231e-17
236 1 46.1348 81.5326 -4.05231e-17
237 1 198.827 8.25536 -4.05231e-17
238 1 147.577 127.988 -4.05231e-17
239 2 17.7013 112.525 -4.05231e-17
240 1 99.3752 6.12846 -4.05231e-17
241 2 187.783 14.6332 -4.05231e-17
242 2 198.837 37.1051 -4.05231e-17
243 2 114.651 27.7693 -4.05231e-17
244 1 97.2932 7.73419 -4.05231e-17
245 1 84.4987 59.0211 -4.05231e-17
246 1 126.002 119.056 -4.05231e-17
247 1 211.073 98.6803 -4.05231e-17
248 1 94.2887 4.11695 -4.05231e-17
249 1 23.0798 65.5637 -4.05231e-17
250 2 149.724 29.5463 -4.05231e-17
251 1 153.663 212.082 -4.05231e-17
252 1 195.38 64.2941 -4.05231e-17
253 1 94.1515 61.2187 -4.05231e-17
254 2 76.9896 197.286 -4.05231e-17
255 1 212.234 148.898 -4.05231e-17
256 1 84.7105 165.658 -4.05231e-17
257 1 211.708 151.378 -4.05231e-17
258 2 164.186 27.7934 -4.05231e-17
259 1 58.0708 165.985 -4.05231e-17
260 1 127.231 11.3299 -4.05231e-17
261 1 184.939 13.707 -4.05231e-17
262 1 53.2426 52.4247 -4.05231e-17
263 1 12.72 213.39 -4.05231e-17
264 1 172.504 43.1585 -4.05231e-17
265 1 166.471 22.8908 -4.05231e-17
266 1 155.433 9.89101 -4.05231e-17
267 1 2.8366 64.6093 -4.05231e-17
268 1 21.6851 35.4143 -4.05231e-17
269 1 125.781 94.9637 -4.05231e-17
270 1 141.401 105.99 -4.05231e-17
271 1 12.7317 92.781 -4.05231e-17
272 1 159.503 202.168 -4.05231e-17
273 1 40.623 169.117 -4.05231e-17
274 2 112.832 88.0147 -4.05231e-17
275 1 64.3028 4.89975 -4.05231e-17
276 2 54.0127 32.2084 -4.05231e-17
277 2 166.874 121.917 -4.05231e-17
278 1 38.7074 101.233 -4.05231e-17
279 2 109.742 205.144 -4.05231e-17
280 1 59.665 31.5285 -4.05231e-17
281 1 147.235 28.3108 -4.05231e-17
282 1 164.818 8.14544 -4.05231e-17
283 1 112.942 141.384 -4.05231e-17
284 1 136.937 165.799 -4.05231e-17
285 1 35.954 12.4869 -4.05231e-17
286 2 33.9508 214.899 -4.05231e-17
287 1 82.7289 135.545 -4.05231e-17
288 1 21.1763 57.4254 -4.05231e-17
289 1 71.596 54.0786 -4.05231e-17
290 1 150.692 193.502 -4.05231e-17
291 1 158.418 144.673 -4.05231e-17
292 2 19.7415 181.021 -4.05231e-17
293 2 65.6552 194.451 -4.05231e-17
294 1 112.031 40.5212 -4.05231e-17
295 1 124.899 48.1596 -4.05231e-17
296 1 134.805 41.876 -4.05231e-17
297 1 118.806 145.041 -4.05231e-17
298 1 105.058 198.414 -4.05231e-17
299 1 160.474 106.475 -4.05231e-17
300 2 62.0627 95.202 -4.05231e-17
301 1 58.6937 46.2135 -4.05231e-17
302 1 127.238 192.649 -4.05231e-17
303 2 198.548 60.145 -4.05231e-17
304 2 144.792 129.745 -4.05231e-17
305 1 86.1424 99.8433 -4.05231e-17
306 1 51.0546 73.4791 -4.05231e-17
307 1 35.0891 122.41 -4.05231e-17
308 1 161.902 58.9185 -4.05231e-17
309 2 73.083 184.342 -4.05231e-17
310 1 194.367 215.569 -4.05231e-17
311 1 79.8376 33.6592 -4.05231e-17
312 1 192.018 147.947 -4.05231e-17
313 2 147.65 66.1154 -4.05231e-17
314 1 52.2757 135.351 -4.05231e-17
315 1 111.247 150.486 -4.05231e-17
316 1 72.7834 1.00382 -4.05231e-17
317 1 13.9166 99.6227 -4.05231e-17
318 1 99.7443 215.249 -4.05231e-17
319 1 51.1983 33.1812 -4.05231e-17
320 1 144.532 99.4776 -4.05231e-17
321 1 88.3769 203.806 -4.05231e-17
322 1 143.145 140.287 -4.05231e-17
323 1 188.083 108.262 -4.05231e-17
324 1 81.028 26.8736 -4.05231e-17
325 1 162.845 139.354 -4.05231e-17
326 1 85.0221 151.975 -4.05231e-17
327 2 149.912 186.242 -4.05231e-17
328 1 167.453 40.2738 -4.05231e-17
329 2 47.4373 115.849 -4.05231e-17
330 1 24.2499 102.172 -4.05231e-17
331 1 174.893 176.177 -4.05231e-17
332 2 112.399 104.495 -4.05231e-17
333 1 44.4883 17.7851 -4.05231e-17
334 1 139.906 169.454 -4.05231e-17
335 1 12.621 206.38 -4.05231e-17
336 1 212.692 106.443 -4.05231e-17
337 1 103.121 182.345 -4.05231e-17
338 1 159.316 57.7179 -4.05231e-17
339 1 109.035 217.141 -4.05231e-17
340 1 153.569 141.348 -4.05231e-17
341 1 160.221 158.462 -4.05231e-17
342 1 129.034 144.749 -4.05231e-17
343 1 127.13 29.0503 -4.05231e-17
344 1 63.6818 181.796 -4.05231e-17
345 1 60.7778 109.554 -4.05231e-17
346 1 9.25821 127.513 -4.05231e-17
347 1 92.2561 92.6651 -4.05231e-17
348 1 163.993 179.435 -4.05231e-17
349 1 193.236 75.2975 -4.05231e-17
350 2 89.6913 40.8068 -4.05231e-17
351 1 154.919 66.0143 -4.05231e-17
352 1 61.2221 182.944 -4.05231e-17
353 1 39.184 166.61 -4.05231e-17
354 1 167.852 161.539 -4.05231e-17
355 1 58.1622 156.728 -4.05231e-17
356 1 23.8385 36.6256 -4.05231e-17
357 1 62.4071 158.842 -4.05231e-17
358 1 172.141 181.116 -4.05231e-17
359 1 157.865 159.388 -4.05231e-17
360 1 74.2025 53.4313 -4.05231e-17
361 1 63.1598 168.094 -4.05231e-17
362 1 169.331 201.146 -4.05231e-17
363 1 163.68 190.157 -4.05231e-17
364 2 116.373 92.798 -4.05231e-17
365 1 179.03 90.5964 -4.05231e-17
366 1 117.578 161.016 -4.05231e-17
367 1 174.38 7.05698 -4.05231e-17
368 1 197.343 192.511 -4.05231e-17
369 2 115.62 187.977 -4.05231e-17
370 1 15.1851 205.73 -4.05231e-17
371 1 53.977 137.221 -4.05231e-17
372 2 0.520446 93.8432 -4.05231e-17
373 2 212.872 8.04869 -4.05231e-17
374 1 151.671 88.2252 -4.05231e-17
375 1 37.2656 112.189 -4.05231e-17
376 1 16.0184 153.098 -4.05231e-17
377 1 28.8003 213.142 -4.05231e-17
378 1 74.9248 129.712 -4.05231e-17
379 1 42.7021 60.5731 -4.05231e-17
380 1 177.717 150.893 -4.05231e-17
381 1 13.6157 5.51396 -4.05231e-17
382 1 54.1356 67.2153 -4.05231e-17
383 1 169.96 67.5277 -4.05231e-17
384 1 22.0367 14.0441 -4.05231e-17
385 1 191.542 77.0943 -4.05231e-17
386 2 81.688 44.328 -4.05231e-17
387 1 144.148 18.8633 -4.05231e-17
388 1 56.497 43.9031 -4.05231e-17
389 1 206.423 158.814 -4.05231e-17
390 2 207.492 179.523 -4.05231e-17
391 2 35.4275 40.4826 -4.05231e-17
392 1 41.3622 218.105 -4.05231e-17
393 1 0.468618 33.4157 -4.05231e-17
394 1 102.255 101.631 -4.05231e-17
395 1 16.2502 27.575 -4.05231e-17
396 1 202.396 153.706 -4.05231e-17
397 1 100.755 16.2861 -4.05231e-17
398 1 11.735 191.093 -4.05231e-17
399 1 18.9981 59.4721 -4.05231e-17
400 1 103.407 179.763 -4.05231e-17
401 1 87.8081 176.765 -4.05231e-17
402 2 191.436 178.614 -4.05231e-17
403 1 214.263 53.6746 -4.05231e-17
404 1 35.908 71.7639 -4.05231e-17
405 1 204.607 29.2393 -4.05231e-17
406 1 201.231 68.3838 -4.05231e-17
407 2 18.8693 62.5518 -4.05231e-17
408 1 34.1366 35.6104 -4.05231e-17
409 1 169.188 128.723 -4.05231e-17
410 1 20.3792 154.827 -4.05231e-17
411 1 152.073 160.38 -4.05231e-17
412 1 114.758 215.011 -4.05231e-17
413 1 63.2105 156.333 -4.05231e-17
414 1 38.3159 13.6907 -4.05231e-17
415 1 207.518 147.889 -4.05231e-17
416 1 72.172 200.183 -4.05231e-17
417 1 141.403 93.7936 -4.05231e-17
418 2 184.427 7.55568 -4.05231e-17
419 1 108.491 149.725 -4.05231e-17
420 2 136.838 108.698 -4.05231e-17
421 1 87.8595 103.989 -4.05231e-17
422 1 176.314 23.6846 -4.05231e-17
423 2 158.041 41.0827 -4.05231e-17
424 1 157.236 149.134 -4.05231e-17
425 1 129.557 167.141 -4.05231e-17
426 1 133.491 112.528 -4.05231e-17
427 1 45.3803 84.3613 -4.05231e-17
428 1 71.1225 191.875 -4.05231e-17
429 1 194.838 83.3969 -4.05231e-17
430 1 215.204 60.0268 -4.05231e-17
431 1 120.414 206.388 -4.05231e-17
432 1 161.514 53.5962 -4.05231e-17
433 1 104.935 153.717 -4.05231e-17
434 1 71.5701 30.348 -4.05231e-17
435 1 178.104 161.717 -4.05231e-17
436 1 44.3226 36.2648 -4.05231e-17
437 1 175.481 109.315 -4.05231e-17
438 2 109.529 21.8897 -4.05231e-17
439 1 67.3469 208.684 -4.05231e-17
440 1 3.41709 161.684 -4.05231e-17
441 1 192.885 131.694 -4.05231e-17
442 1 50.4811 13.4158 -4.05231e-17
443 1 158.091 104.888 -4.05231e-17
444 1 218.334 101.196 -4.05231e-17
445 1 139.51 7.29415 -4.05231e-17
446 1 131.693 78.8135 -4.05231e-17
447 1 38.8762 144.964 -4.05231e-17
448 1 75.6277 7.35656 -4.05231e-17
449 1 131.735 120.288 -4.05231e-17
450 1 139.831 187.86 -4.05231e-17
451 1 170.628 47.1025 -4.05231e-17
452 1 131.482 144.831 -4.05231e-17
453 1 179.14 182.172 -4.05231e-17
454 1 160.389 211.82 -4.05231e-17
455 1 99.9253 71.9228 -4.05231e-17
456 1 167.09 27.4135 -4.05231e-17
457 1 97.7484 113.7 -4.05231e-17
458 1 198.514 0.429954 -4.05231e-17
459 1 81.1343 69.1271 -4.05231e-17
460 1 48.7491 102.461 -4.05231e-17
461 1 188.655 178.058 -4.05231e-17
462 1 181.579 116.065 -4.05231e-17
463 1 126.556 33.5387 -4.05231e-17
464 1 155.113 195.344 -4.05231e-17
465 1 121.762 159.954 -4.05231e-17
466 1 24.2371 213.981 -4.05231e-17
467 1 17.3506 80.1226 -4.05231e-17
468 1 161.54 218.662 -4.05231e-17
469 1 68.3922 78.0761 -4.05231e-17
470 1 77.8661 38.0458 -4.05231e-17
471 1 129.037 174.39 -4.05231e-17
472 1 47.8223 83.3899 -4.05231e-17
473 1 26.5107 102.886 -4.05231e-17
474 1 88.2779 101.321 -4.05231e-17
475 1 185.223 163.846 -4.05231e-17
476 2 192.281 11.8775 -4.05231e-17
477 1 53.7772 84.7116 -4.05231e-17
478 1 58.876 126.058 -4.05231e-17
479 1 201.881 80.7783 -4.05231e-17
480 1 85.3482 23.7539 -4.05231e-17
481 1 15.1287 94.5744 -4.05231e-17
482 1 99.6094 159.868 -4.05231e-17
483 1 142.252 160 -4.05231e-17
484 2 87.3281 45.6688 -4.05231e-17
485 1 34.1198 101.012 -4.05231e-17
486 1 81.6944 17.5779 -4.05231e-17
487 1 100.925 196.673 -4.05231e-17
488 1 5.85923 121.412 -4.05231e-17
489 1 211.698 134.952 -4.05231e-17
490 1 205.084 84.1057 -4.05231e-17
491 1 197.48 121.241 -4.05231e-17
492 1 2.65335 128.819 -4.05231e-17
493 1 194.188 210.623 -4.05231e-17
494 1 211.304 38.0483 -4.05231e-17
495 1 198.663 89.5604 -4.05231e-17
496 2 44.0083 189.478 -4.05231e-17
497 1 39.0024 216.995 -4.05231e-17
498 1 105.268 121.135 -4.05231e-17
499 2 136.644 216.7 -4.05231e-17
500 1 26.2058 29.868 -4.05231e-17
501 2 112.51 216.637 -4.05231e-17
502 2 123.782 143.401 -4.05231e-17
503 1 147.34 183.945 -4.05231e-17
504 1 112.87 148.424 -4.05231e-17
505 1 117.861 18.6834 -4.05231e-17
506 1 26.0345 121.846 -4.05231e-17
507 1 14.6724 129.882 -4.05231e-17
508 1 196.638 217.471 -4.05231e-17
509 2 26.9852 75.6393 -4.05231e-17
510 2 146.082 133.273 -4.05231e-17
511 1 196.166 35.7482 -4.05231e-17
512 2 210.31 60.0495 -4.05231e-17
513 1 56.6633 127.786 -4.05231e-17
514 1 48.7635 18.8344 -4.05231e-17
515 1 204.453 25.3368 -4.05231e-17
516 1 183.195 205.894 -4.05231e-17
517 1 112.083 117.435 -4.05231e-17
518 2 103.149 20.6486 -4.05231e-17
519 1 11.4006 52.9218 -4.05231e-17
520 2 212.535 22.9545 -4.05231e-17
521 1 88.5541 111.028 -4.05231e-17
522 1 31.2891 30.6177 -4.05231e-17
523 1 24.4089 68.0281 -4.05231e-17
524 1 99.7179 74.8259 -4.05231e-17
525 1 175.002 121.153 -4.05231e-17
526 1 190.886 64.8602 -4.05231e-17
527 1 75.3529 4.68119 -4.05231e-17
528 1 168.796 29.3876 -4.05231e-17
529 1 56.7389 158.906 -4.05231e-17
530 1 100.088 32.2731 -4.05231e-17
531 1 66.6762 197.358 -4.05231e-17
532 1 206.891 188.093 -4.05231e-17
533 1 134.078 150.948 -4.05231e-17
534 1 97.2214 144.78 -4.05231e-17
535 1 14.3675 104.795 -4.05231e-17
536 1 203.466 117.65 -4.05231e-17
537 1 201.149 166.624 -4.05231e-17
538 1 169.066 81.0752 -4.05231e-17
539 1 89.2534 211.994 -4.05231e-17
540 1 103.171 89.0756 -4.05231e-17
541 1 40.6724 59.089 -4.05231e-17
542 1 67.4867 211.42 -4.05231e-17
543 1 147.551 151.967 -4.05231e-17
544 1 128.955 200.319 -4.05231e-17
545 1 7.98786 149.515 -4.05231e-17
546 1 179.385 41.3624 -4.05231e-17
547 1 82.6896 172.075 -4.05231e-17
548 1 99.6814 8.80694 -4.05231e-17
549 1 51.1837 76.3814 -4.05231e-17
550 2 162.566 121.604 -4.05231e-17
551 2 134.514 158.016 -4.05231e-17
552 2 94.1517 180.272 -4.05231e-17
553 1 122.412 42.5354 -4.05231e-17
554 1 73.4584 102.064 -4.05231e-17
555 2 66.1429 124.193 -4.05231e-17
556 1 148.496 21.8882 -4.05231e-17
557 1 76.4036 12.7405 -4.05231e-17
558 1 147.792 125.484 -4.05231e-17
559 1 187.581 47.5765 -4.05231e-17
560 1 131.254 51.4927 -4.05231e-17
561 1 146.863 168.758 -4.05231e-17
562 1 195.431 144.262 -4.05231e-17
563 2 167.978 114.178 -4.05231e-17
564 1 41.6126 66.8569 -4.05231e-17
565 1 60.1773 10.3218 -4.05231e-17
566 1 75.2687 34.5121 -4.05231e-17
567 1 150.262 111.044 -4.05231e-17
568 1 22.3348 114.89 -4.05231e-17
569 1 114.409 185.349 -4.05231e-17
570 1 125.098 123.698 -4.05231e-17
571 1 175.754 203.613 -4.05231e-17
572 1 61.5945 112.394 -4.05231e-17
573 1 177.349 76.6946 -4.05231e-17
574 1 41.951 130.532 -4.05231e-17
575 1 21.8058 76.3969 -4.05231e-17
576 1 196.194 98.4568 -4.05231e-17
577 1 203.139 33.1761 -4.05231e-17
578 1 122.773 197.022 -4.05231e-17
579 1 15.6398 167.023 -4.05231e-17
580 1 102.704 139.269 -4.05231e-17
581 1 141.285 154.556 -4.05231e-17
582 1 75.9161 79.2211 -4.05231e-17
583 1 162.085 185.688 -4.05231e-17
584 2 29.0623 117.801 -4.05231e-17
585 1 48.7595 198.689 -4.05231e-17
586 1 138.039 171.2 -4.05231e-17
587 1 99.2781 105.048 -4.05231e-17
588 1 17.3223 1.8637 -4.05231e-17
589 1 103.047 17.5751 -4.05231e-17
590 1 70.4728 0.0968781 -4.05231e-17
591 1 215.526 162.011 -4.05231e-17
592 1 55.7563 156.218 -4.05231e-17
593 1 209.412 181.674 -4.05231e-17
594 1 181.477 181.1 -4.05231e-17
595 1 82.6227 39.4654 -4.05231e-17
596 1 65.6249 35.6945 -4.05231e-17
597 2 180.714 204.338 -4.05231e-17
598 1 167.315 211.447 -4.05231e-17
599 1 208.15 171.167 -4.05231e-17
600 1 104.823 10.5777 -4.05231e-17
601 1 11.7813 135.154 -4.05231e-17
602 1 97.8663 31.2475 -4.05231e-17
603 1 208.242 202.916 -4.05231e-17
604 1 120.751 1.46618 -4.05231e-17
605 2 85.3145 77.8262 -4.05231e-17
606 1 102.714 202.122 -4.05231e-17
607 2 171.919 146.714 -4.05231e-17
608 1 94.9733 76.848 -4.05231e-17
609 1 15.9984 6.56532 -4.05231e-17
610 1 214.349 150.49 -4.05231e-17
611 1 202.103 190.306 -4.05231e-17
612 1 218.197 37.7985 -4.05231e-17
613 1 58.7615 151.009 -4.05231e-17
614 2 128.274 179.254 -4.05231e-17
615 1 105.38 18.5692 -4.05231e-17
616 1 202.341 130.667 -4.05231e-17
617 1 127.288 198.456 -4.05231e-17
618 1 201.612 212.303 -4.05231e-17
619 1 179.176 78.2296 -4.05231e-17
620 1 141.221 142.026 -4.05231e-17
621 1 197.115 93.9725 -4.05231e-17
622 1 94.5002 213.723 -4.05231e-17
623 1 218.4 12.0987 -4.05231e-17
624 1 23.9731 209.4 -4.05231e-17
625 1 204.5 154.915 -4.05231e-17
626 1 94.3151 191.025 -4.05231e-17
627 1 64.0212 74.1682 -4.05231e-17
628 1 34.2399 28.5787 -4.05231e-17
629 1 10.3698 94.4735 -4.05231e-17
630 2 151.274 21.9906 -4.05231e-17
631 1 15.7026 86.6006 -4.05231e-17
632 1 49.1813 92.31 -4.05231e-17
633 1 38.6301 211.517 -4.05231e-17
634 1 1.13367 147.563 -4.05231e-17
635 1 155.113 150.704 -4.05231e-17
636 1 208.322 57.8177 -4.05231e-17
637 1 201.261 58.2326 -4.05231e-17
638 1 172.892 76.8401 -4.05231e-17
639 2 203.826 78.6116 -4.05231e-17
640 1 143.287 152.646 -4.05231e-17
641 1 192.84 85.4615 -4.05231e-17
642 1 32.3907 91.7134 -4.05231e-17
643 2 182.049 42.8682 -4.05231e-17
644 1 68.2161 155.433 -4.05231e-17
645 1 106.781 196.428 -4.05231e-17
646 2 211.899 141.447 -4.05231e-17
647 1 11.1522 185.247 -4.05231e-17
648 1 132.739 102.803 -4.05231e-17
649 2 23.9848 150.726 -4.05231e-17
650 1 204.7 186.408 -4.05231e-17
651 1 218.451 113.294 -4.05231e-17
652 1 153.225 43.9079 -4.05231e-17
653 1 114.639 175.394 -4.05231e-17
654 1 23.3097 21.5475 -4.05231e-17
655 2 183.951 101.031 -4.05231e-17
656 1 30.3666 125.402 -4.05231e-17
657 2 79.3778 207.395 -4.05231e-17
658 1 53.8829 44.3606 -4.05231e-17
659 2 156.381 192.766 -4.05231e-17
660 1 102.177 55.321 -4.05231e-17
661 1 42.8645 116.477 -4.05231e-17
662 1 81.8033 130.631 -4.05231e-17
663 1 32.0115 25.7461 -4.05231e-17
664 1 146.403 17.5259 -4.05231e-17
665 1 140.128 75.5418 -4.05231e-17
666 2 47.7631 181.138 -4.05231e-17
667 1 93.0634 99.9636 -4.05231e-17
668 2 101.964 93.7684 -4.05231e-17
669 1 36.2647 17.7286 -4.05231e-17
670 1 96.5496 173.299 -4.05231e-17
671 2 53.8017 176.192 -4.05231e-17
672 1 186.833 11.912 -4.05231e-17
673 1 63.0818 19.4102 -4.05231e-17
674 1 2.35531 31.4565 -4.05231e-17
675 1 128.39 23.5521 -4.05231e-17
676 1 169.391 123.549 -4.05231e-17
677 1 131.648 174.724 -4.05231e-17
678 1 137.685 30.4974 -4.05231e-17
679 2 152.374 33.0922 -4.05231e-17
680 1 202.822 41.3883 -4.05231e-17
681 2 129.129 118.942 -4.05231e-17
682 1 0.261639 47.4134 -4.05231e-17
683 1 68.7174 4.13763 -4.05231e-17
684 1 120.139 154.642 -4.05231e-17
685 1 152.98 38.5678 -4.05231e-17
686 1 27.9141 193.852 -4.05231e-17
687 1 118.655 192.081 -4.05231e-17
688 1 162.839 110.323 -4.05231e-17
689 2 55.9298 46.7816 -4.05231e-17
690 1 70.2684 19.8517 -4.05231e-17
691 1 89.2901 66.2884 -4.05231e-17
692 1 130.796 8.0041 -4.05231e-17
693 1 48.4092 142.978 -4.05231e-17
694 1 76.3927 125.261 -4.05231e-17
695 1 146.04 38.0994 -4.05231e-17
696 1 146.678 81.0707 -4.05231e-17
697 1 139.894 201.664 -4.05231e-17
698 1 116.687 65.9248 -4.05231e-17
699 1 180.962 191.633 -4.05231e-17
700 1 205.988 209.55 -4.05231e-17
701 1 53.9993 16.6717 -4.05231e-17
702 1 113.546 129.076 -4.05231e-17
703 2 188.263 144.031 -4.05231e-17
704 1 29.4728 218.716 -4.05231e-17
705 2 68.8793 112.079 -4.05231e-17
706 1 165.914 177.565 -4.05231e-17
707 1 113.815 24.9144 -4.05231e-17
708 1 84.3838 209.527 -4.05231e-17
709 1 147.262 196.296 -4.05231e-17
710 1 192.89 191.69 -4.05231e-17
711 1 111.44 93.2442 -4.05231e-17
712 1 192.983 208.294 -4.05231e-17
713 1 14.1093 136.231 -4.05231e-17
714 1 135.574 12.9648 -4.05231e-17
715 1 55.9351 198.937 -4.05231e-17
716 1 40.3454 123.64 -4.05231e-17
717 1 51.6147 107.665 -4.05231e-17
718 1 131.185 184.875 -4.05231e-17
719 2 119.673 78.7662 -4.05231e-17
720 1 98.8393 64.8239 -4.05231e-17
721 1 95.4959 98.9093 -4.05231e-17
722 1 133.73 63.3333 -4.05231e-17
723 2 48.2833 45.6644 -4.05231e-17
724 1 15.3181 49.4354 -4.05231e-17
725 1 29.5196 109.115 -4.05231e-17
726 1 189.626 45.9465 -4.05231e-17
727 1 148.522 205.476 -4.05231e-17
728 2 18.2833 87.9343 -4.05231e-17
729 1 134.012 165.291 -4.05231e-17
730 1 174.746 199.313 -4.05231e-17
731 1 49.1399 189.975 -4.05231e-17
732 1 218.426 9.3147 -4.05231e-17
733 1 205.647 34.0014 -4.05231e-17
734 1 4.29578 29.7965 -4.05231e-17
735 1 41.0789 22.9457 -4.05231e-17
736 2 190.306 74.2679 -4.05231e-17
737 1 81.6662 86.6264 -4.05231e-17
738 1 20.0197 165.733 -4.05231e-17
739 1 105.913 156.196 -4.05231e-17
740 1 59.9142 116.618 -4.05231e-17
741 2 188.993 78.3548 -4.05231e-17
742 1 74.1414 43.8633 -4.05231e-17
743 1 203.174 66.5632 -4.05231e-17
744 2 210.877 172.403 -4.05231e-17
745 1 130.863 31.9801 -4.05231e-17
746 1 14.3065 29.3393 -4.05231e-17
747 2 204.413 22.423 -4.05231e-17
748 1 183.091 192.994 -4.05231e-17
749 1 196.779 211.23 -4.05231e-17
750 1 213.129 163.352 -4.05231e-17
751 1 59.3794 58.6063 -4.05231e-17
752 1 178.082 105.755 -4.05231e-17
753 1 99.0839 150.524 -4.05231e-17
754 1 14.9452 215.342 -4.05231e-17
755 1 83.2596 194.91 -4.05231e-17
756 2 103.784 195.697 -4.05231e-17
757 1 27.388 18.5159 -4.05231e-17
758 1 135.744 146.099 -4.05231e-17
759 1 72.9923 107.532 -4.05231e-17
760 1 94.8573 39.6931 -4.05231e-17
761 1 57.9621 161.444 -4.05231e-17
762 1 43.478 23.5567 -4.05231e-17
763 1 113.99 99.7398 -4.05231e-17
764 2 177.822 148.066 -4.05231e-17
765 1 91.8991 62.3673 -4.05231e-17
766 1 114.134 35.7175 -4.05231e-17
767 1 96.7411 78.6954 -4.05231e-17
768 1 9.83913 4.04197 -4.05231e-17
769 1 107.899 75.7177 -4.05231e-17
770 2 113.412 109.749 -4.05231e-17
771 1 143.813 179.011 -4.05231e-17
772 1 102.38 28.6441 -4.05231e-17
773 1 109.554 167.27 -4.05231e-17
774 1 111.499 124.202 -4.05231e-17
775 1 68.8921 6.91859 -4.05231e-17
776 1 38.0672 10.9125 -4.05231e-17
777 1 108.083 181.73 -4.05231e-17
778 1 22.7884 18.9964 -4.05231e-17
779 1 191.735 44.1088 -4.05231e-17
780 1 3.36274 169.027 -4.05231e-17
781 1 126.855 99.8194 -4.05231e-17
782 1 175.545 49.3436 -4.05231e-17
783 1 98.2249 15.5452 -4.05231e-17
784 2 194.81 159.298 -4.05231e-17
785 1 111.135 165.209 -4.05231e-17
786 1 119.55 177.015 -4.05231e-17
787 1 185.356 74.9406 -4.05231e-17
788 1 177.237 45.2209 -4.05231e-17
789 2 143.118 108.533 -4.05231e-17
790 1 109.883 28.394 -4.05231e-17
791 2 14.4682 121.776 -4.05231e-17
792 2 215.669 13.419 -4.05231e-17
793 2 115.861 68.6378 -4.05231e-17
794 1 56.5022 188.825 -4.05231e-17
795 1 132.322 53.8175 -4.05231e-17
796 1 130.514 22.013 -4.05231e-17
797 1 197.668 155.363 -4.05231e-17
798 2 196.163 204.085 -4.05231e-17
799 2 207.906 65.1927 -4.05231e-17
800 2 55.5651 217.786 -4.05231e-17
801 1 102.821 132.455 -4.05231e-17
802 1 124.402 76.0229 -4.05231e-17
803 1 182.055 68.592 -4.05231e-17
804 2 122.851 204.937 -4.05231e-17
805 1 44.69 106.962 -4.05231e-17
806 1 11.9521 117.054 -4.05231e-17
807 2 100.251 99.4722 -4.05231e-17
808 1 14.5943 116.628 -4.05231e-17
809 2 58.0253 134.516 -4.05231e-17
810 1 129.941 197.727 -4.05231e-17
811 1 32.7712 5.8032 -4.05231e-17
812 1 131.902 34.2412 -4.05231e-17
813 2 107.937 111.015 -4.05231e-17
814 1 147.45 69.2987 -4.05231e-17
815 1 89.2576 164.377 -4.05231e-17
816 1 200.622 9.92944 -4.05231e-17
817 1 107.944 214.61 -4.05231e-17
818 1 57.1197 101.889 -4.05231e-17
819 1 9.51761 136.27 -4.05231e-17
820 1 45.2382 120.31 -4.05231e-17
821 1 94.5306 151.747 -4.05231e-17
822 2 41.5523 135.854 -4.05231e-17
823 2 139.217 91.5041 -4.05231e-17
824 1 34.625 108.183 -4.05231e-17
825 1 65.1826 15.4985 -4.05231e-17
826 1 190.619 14.1434 -4.05231e-17
827 1 192.824 107.563 -4.05231e-17
828 1 141.898 123.258 -4.05231e-17
829 1 127.147 210.774 -4.05231e-17
830 1 81.7101 128.001 -4.05231e-17
831 1 217.364 42.5599 -4.05231e-17
832 1 92.9231 87.5385 -4.05231e-17
833 1 62.0867 84.651 -4.05231e-17
834 1 106.778 8.94232 -4.05231e-17
835 1 58.322 218.544 -4.05231e-17
836 1 10.8636 50.2872 -4.05231e-17
837 1 7.00253 70.8849 -4.05231e-17
838 1 98.2228 178.517 -4.05231e-17
839 2 198.085 3.21302 -4.05231e-17
840 1 5.07754 202.674 -4.05231e-17
841 2 63.1933 184.882 -4.05231e-17
842 1 94.6505 91.8093 -4.05231e-17
843 2 159.615 182.957 -4.05231e-17
844 1 26.1562 158.325 -4.05231e-17
845 1 71.2065 189.229 -4.05231e-17
846 1 159.119 190.821 -4.05231e-17
847 1 41.9485 140.853 -4.05231e-17
848 1 188.279 117.584 -4.05231e-17
849 1 189.459 166.721 -4.05231e-17
850 1 39.7895 129.304 -4.05231e-17
851 1 89.4527 37.6915 -4.05231e-17
852 1 11.9618 209.111 -4.05231e-17
853 1 31.8891 138.968 -4.05231e-17
854 1 171.468 84.5744 -4.05231e-17
855 1 125.884 19.5655 -4.05231e-17
856 1 210.155 169.617 -4.05231e-17