ITEM: TIMESTEP
0
ITEM: NUMBER OF ATOMS
7200
ITEM: BOX BOUNDS xy xz yz pp pp pp
0.0000000000000000e+00 2.1900000000000000e+02 0.0000000000000000e+00
0.0000000000000000e+00 2.1900000000000000e+02 0.0000000000000000e+00
-3.6499999999999999e-01 3.6499999999999999e-01 0.0000000000000000e+00
ITEM: ATOMS id type x y z
1 1 67.7502 134.634 -4.05231e-17
2 1 183.682 108.796 -4.05231e-17
3 1 13.4309 158.091 -4.05231e-17
4 1 3.72623 86.1822 -4.05231e-17
5 1 215.629 157.035 -4.05231e-17
6 1 117.162 210.512 -4.05231e-17
7 1 42.2101 51.5377 -4.05231e-17
8 2 149.446 82.9027 -4.05231e-17
9 1 203.418 9.7077 -4.05231e-17
10 2 57.884 193.507 -4.05231e-17
11 1 114.235 14.5568 -4.05231e-17
12 1 129.285 77.8634 -4.05231e-17
13 2 51.6151 78.9305 -4.05231e-17
14 1 65.5988 18.0137 -4.05231e-17
15 1 137.102 105.182 -4.05231e-17
16 2 60.8349 172.55 -4.05231e-17
17 1 114.188 30.8031 -4.05231e-17
18 2 31.6071 78.627 -4.05231e-17
19 1 106.987 52.4676 -4.05231e-17
20 1 144.569 103.46 -4.05231e-17
21 1 42.3296 5.51975 -4.05231e-17
22 2 49.5637 147.943 -4.05231e-17
23 2 17.5033 54.8254 -4.05231e-17
24 1 159.635 99.7002 -4.05231e-17
25 1 75.8046 182.763 -4.05231e-17
26 2 86.4201 97.141 -4.05231e-17
27 1 155.815 173.943 -4.05231e-17
28 2 22.7895 156.893 -4.05231e-17
29 1 54.1835 46.3396 -4.05231e-17
30 1 139.732 88.0057 -4.05231e-17
31 1 211.669 90.5767 -4.05231e-17
32 1 57.9046 104.389 -4.05231e-17
33 1 157.696 154.506 -4.05231e-17
34 1 61.4262 77.6066 -4.05231e-17
35 1 177.279 68.956 -4.05231e-17
36 1 61.8299 74.9375 -4.05231e-17
37 2 136.299 140.459 -4.05231e-17
38 1 197.702 74.6425 -4.05231e-17
39 1 122.144 138.342 -4.05231e-17
40 1 165.574 164.08 -4.05231e-17
41 1 120.723 182.011 -4.05231e-17
42 1 103.004 36.9334 -4.05231e-17
43 1 135.109 60.7802 -4.05231e-17
44 1 107.373 23.5172 -4.05231e-17
45 1 214.664 84.5678 -4.05231e-17
46 1 28.0346 203.771 -4.05231e-17
47 1 88.5993 171.971 -4.05231e-17
48 2 47.8885 86.0438 -4.05231e-17
49 1 77.1859 110.665 -4.05231e-17
50 1 46.0886 197.712 -4.05231e-17
51 1 181.025 34.2294 -4.05231e-17
52 1 203.983 133.048 -4.05231e-17
53 1 156.431 26.7432 -4.05231e-17
54 1 24.4687 119.431 -4.05231e-17
55 1 22.6909 48.4557 -4.05231e-17
56 1 117.64 140.277 -4.05231e-17
57 2 68.0978 214.153 -4.05231e-17
58 1 35.4725 40.7229 -4.05231e-17
59 1 28.5301 152.228 -4.05231e-17
60 2 151.824 147.122 -4.05231e-17
61 2 36.1413 202.916 -4.05231e-17
62 1 10.7839 161.857 -4.05231e-17
63 1 111.495 197.624 -4.05231e-17
64 1 133.964 39.3996 -4.05231e-17
65 1 214.226 114.21 -4.05231e-17
66 1 128.908 134.102 -4.05231e-17
67 1 95.4113 139.799 -4.05231e-17
68 1 66.8452 116.753 -4.05231e-17
69 1 140.944 174.07 -4.05231e-17
70 1 58.9153 110.991 -4.05231e-17
71 1 7.7834 125.844 -4.05231e-17
72 1 171.735 60.8717 -4.05231e-17
73 1 187.912 185.778 -4.05231e-17
74 1 207.286 21.8031 -4.05231e-17
75 2 93.8746 1.29077 -4.05231e-17
76 1 17.9687 4.84208 -4.05231e-17
77 1 36.6412 24.0853 -4.05231e-17
78 1 124.765 117.075 -4.05231e-17
79 2 126.405 0.821588 -4.05231e-17
80 1 75.5298 106.28 -4.05231e-17
81 1 110.705 141.084 -4.05231e-17
82 1 53.6326 141.812 -4.05231e-17
83 2 129.936 182.149 -4.05231e-17
84 1 179.808 80.9225 -4.05231e-17
85 1 22.2045 41.5085 -4.05231e-17
86 1 128.482 142.135 -4.05231e-17
87 1 217.392 217.12 -4.05231e-17
88 1 19.3725 35.3751 -4.05231e-17
89 2 44.2687 3.43802 -4.05231e-17
90 2 190.473 187.225 -4.05231e-17
91 1 149.887 90.4641 -4.05231e-17
92 2 168.832 21.0494 -4.05231e-17
93 1 140.661 14.7159 -4.05231e-17
94 2 202.019 12.2796 -4.05231e-17
95 1 33.3183 195.405 -4.05231e-17
96 1 130.947 95.6586 -4.05231e-17
97 1 97.3985 4.90449 -4.05231e-17
98 1 125.434 55.1535 -4.05231e-17
99 1 178.334 21.2036 -4.05231e-17
100 1 175.514 8.60974 -4.05231e-17
101 1 114.185 12.2009 -4.05231e-17
102 1 24.6582 46.4829 -4.05231e-17
103 1 58.425 80.5791 -4.05231e-17
104 1 69.3548 109.281 -4.05231e-17
105 1 142.343 201.196 -4.05231e-17
106 1 78.1348 102.761 -4.05231e-17
107 2 146.611 101.369 -4.05231e-17
108 1 36.249 210.733 -4.05231e-17
109 1 54.4348 89.001 -4.05231e-17
110 1 107.685 63.2106 -4.05231e-17
111 1 61.2854 21.1425 -4.05231e-17
112 1 94.8828 137.304 -4.05231e-17
113 1 100.634 44.7602 -4.05231e-17
114 1 158.341 22.6312 -4.05231e-17
115 1 51.1509 163.153 -4.05231e-17
116 2 214.067 134.052 -4.05231e-17
117 1 201.277 215.966 -4.05231e-17
118 1 165.037 67.8265 -4.05231e-17
119 2 57.8799 98.7411 -4.05231e-17
120 1 53.2271 199.862 -4.05231e-17
121 1 152.388 83.8467 -4.05231e-17
122 1 102.956 14.7324 -4.05231e-17
123 1 136.918 75.6154 -4.05231e-17
124 1 154.625 201.289 -4.05231e-17
125 1 141.738 117.834 -4.05231e-17
126 1 111.653 65.6805 -4.05231e-17
127 1 164.073 77.9561 -4.05231e-17
128 1 175.564 136.885 -4.05231e-17
129 1 8.11133 104.454 -4.05231e-17
130 1 84.0835 128.645 -4.05231e-17
131 1 175.675 153.078 -4.05231e-17
132 2 182.983 1.80721 -4.05231e-17
133 1 127.308 79.2025 -4.05231e-17
134 1 35.5933 85.9153 -4.05231e-17
135 1 78.4268 8.33377 -4.05231e-17
136 1 210.308 201.558 -4.05231e-17
137 1 101.876 136.904 -4.05231e-17
138 1 50.609 212.428 -4.05231e-17
139 1 202.827 105.855 -4.05231e-17
140 2 142.097 186.094 -4.05231e-17
141 1 205.957 96.6876 -4.05231e-17
142 2 211.97 49.0998 -4.05231e-17
143 1 111.5 81.1025 -4.05231e-17
144 2 43.5903 199.358 -4.05231e-17
145 1 172.777 103.259 -4.05231e-17
146 1 100.381 120.069 -4.05231e-17
147 1 154.398 146.036 -4.05231e-17
148 1 6.89921 200.857 -4.05231e-17
149 1 68.2217 21.6208 -4.05231e-17
150 1 54.1656 37.2201 -4.05231e-17
151 1 26.2858 112.819 -4.05231e-17
152 1 63.7348 104.764 -4.05231e-17
153 2 52.3104 6.4495 -4.05231e-17
154 1 149.326 94.8382 -4.05231e-17
155 1 107.737 16.9403 -4.05231e-17
156 2 71.7442 115.867 -4.05231e-17
157 1 207.758 104.953 -4.05231e-17
158 1 29.058 29.2307 -4.05231e-17
159 1 21.9331 136.03 -4.05231e-17
160 1 12.0455 201.39 -4.05231e-17
161 1 1.4467 8.02651 -4.05231e-17
162 1 127.518 127.464 -4.05231e-17
163 1 18.0003 32.8248 -4.05231e-17
164 1 166.615 52.8544 -4.05231e-17
165 1 125.196 121.701 -4.05231e-17
166 2 159.644 60.6859 -4.05231e-17
167 1 175.177 46.4466 -4.05231e-17
168 1 149.079 169.532 -4.05231e-17
169 1 2.00557 102.003 -4.05231e-17
170 1 94.9135 168.282 -4.05231e-17
171 1 146.761 60.681 -4.05231e-17
172 1 218.551 17.3078 -4.05231e-17
173 1 45.7085 143.516 -4.05231e-17
174 1 131.207 62.6909 -4.05231e-17
175 2 137.453 160.671 -4.05231e-17
176 1 109.697 70.7426 -4.05231e-17
177 2 70.7148 56.9964 -4.05231e-17
178 1 65.3095 87.231 -4.05231e-17
179 1 173.151 164.186 -4.05231e-17
180 1 203.531 197.275 -4.05231e-17
181 1 134.708 167.447 -4.05231e-17
182 2 77.637 20.6307 -4.05231e-17
183 1 76.7403 163.788 -4.05231e-17
184 1 176.171 86.859 -4.05231e-17
185 2 175.439 20.3984 -4.05231e-17
186 2 208.514 134.071 -4.05231e-17
187 1 93.1835 29.1478 -4.05231e-17
188 1 102.302 170.064 -4.05231e-17
189 1 123.534 174.515 -4.05231e-17
190 2 13.6939 160.996 -4.05231e-17
191 1 77.5199 157.023 -4.05231e-17
192 2 63.7538 109.868 -4.05231e-17
193 2 79.7684 171.912 -4.05231e-17
194 1 32.5306 149.842 -4.05231e-17
195 1 145.11 163.425 -4.05231e-17
196 1 168.416 191.657 -4.05231e-17
197 1 74.4347 69.92 -4.05231e-17
198 2 9.97204 132.889 -4.05231e-17
199 1 210.654 57.3762 -4.05231e-17
200 1 80.3457 6.6457 -4.05231e-17
201 2 72.2301 110.058 -4.05231e-17
202 1 52.5336 210.676 -4.05231e-17
203 1 175.689 81.8044 -4.05231e-17
204 1 188.195 156.758 -4.05231e-17
205 2 191.857 82.7302 -4.05231e-17
206 1 89.2818 132.914 -4.05231e-17
207 1 105.303 30.3523 -4.05231e-17
208 1 32.9883 85.9919 -4.05231e-17
209 1 81.7042 2.21419 -4.05231e-17
210 1 7.94408 64.9214 -4.05231e-17
211 2 146.671 156.45 -4.05231e-17
212 1 120.735 112.562 -4.05231e-17
213 1 134.915 104.138 -4.05231e-17
214 1 74.6666 14.1152 -4.05231e-17
215 1 74.3501 201.177 -4.05231e-17
216 1 193.367 139.42 -4.05231e-17
217 1 126.759 186.766 -4.05231e-17
218 2 28.4072 168.75 -4.05231e-17
219 1 155.535 213.468 -4.05231e-17
220 2 107.044 55.5965 -4.05231e-17
221 1 212.807 56.272 -4.05231e-17
222 1 143.506 146.54 -4.05231e-17
223 1 52.7121 208.217 -4.05231e-17
224 2 10.2641 188.584 -4.05231e-17
225 1 201.095 142.485 -4.05231e-17
226 1 138.938 190.011 -4.05231e-17
227 2 51.199 17.1491 -4.05231e-17
228 1 138.744 77.4352 -4.05231e-17
229 1 60.6486 135.966 -4.05231e-17
230 1 158.998 130.938 -4.05231e-17
231 1 148.65 123.083 -4.05231e-17
232 1 1.4651 90.6912 -4.05231e-17
233 1 110.002 100.744 -4.05231e-17
234 1 133.434 215.875 -4.05231e-17
235 1 20.4581 143.335 -4.05231e-17
236 1 46.6006 81.3093 -4.05231e-17
237 1 198.995 8.03316 -4.05231e-17
238 1 147.837 128.362 -4.05231e-17
239 2 17.6719 112.42 -4.05231e-17
240 1 99.6393 5.99131 -4.05231e-17
241 2 187.613 14.5163 -4.05231e-17
242 2 198.398 36.7957 -4.05231e-17
243 2 114.863 27.5709 -4.05231e-17
244 1 97.4106 7.7974 -4.05231e-17
245 1 85.0177 59.0171 -4.05231e-17
246 1 126.372 119.32 -4.05231e-17
247 1 210.881 98.7084 -4.05231e-17
248 1 95.035 3.86777 -4.05231e-17
249 1 23.3601 65.7809 -4.05231e-17
250 2 149.73 29.2855 -4.05231e-17
251 1 153.388 212.109 -4.05231e-17
252 1 195.359 64.2671 -4.05231e-17
253 1 94.4762 61.5796 -4.05231e-17
254 2 76.809 196.792 -4.05231e-17
255 1 212.213 148.97 -4.05231e-17
256 1 84.3677 165.339 -4.05231e-17
257 1 212.005 151.648 -4.05231e-17
258 2 163.992 27.6422 -4.05231e-17
259 1 57.9557 165.872 -4.05231e-17
260 1 127.52 11.0514 -4.05231e-17
261 1 184.567 13.8221 -4.05231e-17
262 1 53.5349 52.1646 -4.05231e-17
263 1 12.6657 213.662 -4.05231e-17
264 1 172.369 42.7471 -4.05231e-17
265 1 166.294 22.3877 -4.05231e-17
266 1 155.34 9.78725 -4.05231e-17
267 1 2.76647 64.9627 -4.05231e-17
268 1 21.731 35.6287 -4.05231e-17
269 1 126.387 95.0064 -4.05231e-17
270 1 141.359 106.532 -4.05231e-17
271 1 12.5381 92.7492 -4.05231e-17
272 1 158.99 201.975 -4.05231e-17
273 1 40.707 169.235 -4.05231e-17
274 2 113.272 88.1679 -4.05231e-17
275 1 64.1925 4.94169 -4.05231e-17
276 2 53.9767 32.3253 -4.05231e-17
277 2 167.466 122.227 -4.05231e-17
278 1 38.8337 100.88 -4.05231e-17
279 2 109.896 204.666 -4.05231e-17
280 1 60.3225 32.0071 -4.05231e-17
281 1 147.109 28.1618 -4.05231e-17
282 1 164.541 8.01925 -4.05231e-17
283 1 113.234 141.662 -4.05231e-17
284 1 136.391 165.429 -4.05231e-17
285 1 36.1127 12.3821 -4.05231e-17
286 2 33.8931 215.299 -4.05231e-17
287 1 82.5797 134.987 -4.05231e-17
288 1 21.7033 57.7211 -4.05231e-17
289 1 72.0571 54.5336 -4.05231e-17
290 1 150.916 193.261 -4.05231e-17
291 1 158.511 144.832 -4.05231e-17
292 2 19.8021 181.461 -4.05231e-17
293 2 65.6102 194.114 -4.05231e-17
294 1 112.289 40.3964 -4.05231e-17
295 1 124.969 48.1053 -4.05231e-17
296 1 135.039 41.6695 -4.05231e-17
297 1 118.92 145.391 -4.05231e-17
298 1 104.889 198.687 -4.05231e-17
299 1 160.268 106.223 -4.05231e-17
300 2 62.2076 95.049 -4.05231e-17
301 1 59.9685 46.2097 -4.05231e-17
302 1 126.846 192.495 -4.05231e-17
303 2 198.208 60.0564 -4.05231e-17
304 2 144.951 129.611 -4.05231e-17
305 1 86.6176 99.8414 -4.05231e-17
306 1 51.341 73.5429 -4.05231e-17
307 1 35.2854 122.354 -4.05231e-17
308 1 161.859 58.892 -4.05231e-17
309 2 73.0407 183.894 -4.05231e-17
310 1 194.169 215.715 -4.05231e-17
311 1 79.9626 33.5164 -4.05231e-17
312 1 191.988 148.217 -4.05231e-17
313 2 147.255 65.7657 -4.05231e-17
314 1 52.0423 135.286 -4.05231e-17
315 1 111.166 150.643 -4.05231e-17
316 1 72.69 0.951141 -4.05231e-17
317 1 13.7046 99.2115 -4.05231e-17
318 1 99.8821 214.896 -4.05231e-17
319 1 51.0216 33.2465 -4.05231e-17
320 1 144.711 99.2091 -4.05231e-17
321 1 88.4527 203.653 -4.05231e-17
322 1 143.174 140.658 -4.05231e-17
323 1 188.559 108.097 -4.05231e-17
324 1 81.4667 26.9002 -4.05231e-17
325 1 162.977 139.49 -4.05231e-17
326 1 85.0711 151.58 -4.05231e-17
327 2 149.802 185.819 -4.05231e-17
328 1 167.429 40.1498 -4.05231e-17
329 2 47.239 115.636 -4.05231e-17
330 1 23.5877 102.178 -4.05231e-17
331 1 174.735 176.444 -4.05231e-17
332 2 112.908 104.678 -4.05231e-17
333 1 44.5452 17.6974 -4.05231e-17
334 1 139.645 169.014 -4.05231e-17
335 1 12.7661 206.685 -4.05231e-17
336 1 212.673 106.39 -4.05231e-17
337 1 102.806 182.294 -4.05231e-17
338 1 159.458 57.659 -4.05231e-17
339 1 109.246 217.083 -4.05231e-17
340 1 153.553 141.43 -4.05231e-17
341 1 160.388 158.545 -4.05231e-17
342 1 128.723 144.761 -4.05231e-17
343 1 127.196 29.342 -4.05231e-17
344 1 63.4994 181.655 -4.05231e-17
345 1 60.9162 109.349 -4.05231e-17
346 1 9.39947 127.562 -4.05231e-17
347 1 92.511 92.7335 -4.05231e-17
348 1 163.889 179.124 -4.05231e-17
349 1 193.395 75.5918 -4.05231e-17
350 2 89.5589 40.8053 -4.05231e-17
351 1 154.759 65.6884 -4.05231e-17
352 1 61.0589 182.734 -4.05231e-17
353 1 39.2917 166.907 -4.05231e-17
354 1 167.658 161.988 -4.05231e-17
355 1 57.9133 156.696 -4.05231e-17
356 1 24.0039 36.7542 -4.05231e-17
357 1 62.1458 158.565 -4.05231e-17
358 1 172.104 180.824 -4.05231e-17
359 1 157.921 158.983 -4.05231e-17
360 1 74.7313 53.701 -4.05231e-17
361 1 63.1928 168.066 -4.05231e-17
362 1 169.106 201.082 -4.05231e-17
363 1 163.492 190.016 -4.05231e-17
364 2 116.606 92.9329 -4.05231e-17
365 1 178.752 90.7043 -4.05231e-17
366 1 117.432 161.514 -4.05231e-17
367 1 173.736 6.79488 -4.05231e-17
368 1 196.98 192.427 -4.05231e-17
369 2 115.348 187.786 -4.05231e-17
370 1 15.1964 206.148 -4.05231e-17
371 1 53.6277 137.423 -4.05231e-17
372 2 0.512992 93.8555 -4.05231e-17
373 2 212.818 7.99361 -4.05231e-17
374 1 151.422 88.4047 -4.05231e-17
375 1 37.4162 111.718 -4.05231e-17
376 1 16.6026 152.345 -4.05231e-17
377 1 28.8562 213.386 -4.05231e-17
378 1 74.7241 129.333 -4.05231e-17
379 1 43.2964 60.5741 -4.05231e-17
380 1 177.904 151.564 -4.05231e-17
381 1 13.5637 5.36828 -4.05231e-17
382 1 54.5781 66.9638 -4.05231e-17
383 1 170.045 67.3944 -4.05231e-17
384 1 21.9455 13.7511 -4.05231e-17
385 1 191.419 77.1597 -4.05231e-17
386 2 82.0941 44.1337 -4.05231e-17
387 1 143.991 18.8561 -4.05231e-17
388 1 56.8801 43.5784 -4.05231e-17
389 1 206.762 158.874 -4.05231e-17
390 2 207.606 179.757 -4.05231e-17
391 2 36.483 37.8052 -4.05231e-17
392 1 41.6751 218.349 -4.05231e-17
393 1 0.522287 33.6247 -4.05231e-17
394 1 102.646 101.648 -4.05231e-17
395 1 16.0408 27.6066 -4.05231e-17
396 1 202.435 153.978 -4.05231e-17
397 1 101.043 16.2225 -4.05231e-17
398 1 11.7773 191.02 -4.05231e-17
399 1 19.9188 59.634 -4.05231e-17
400 1 103.299 179.773 -4.05231e-17
401 1 87.4636 176.086 -4.05231e-17
402 2 191.279 179.108 -4.05231e-17
403 1 214.148 54.013 -4.05231e-17
404 1 35.9092 71.8742 -4.05231e-17
405 1 204.179 29.4335 -4.05231e-17
406 1 201.127 68.6131 -4.05231e-17
407 2 19.3918 62.4836 -4.05231e-17
408 1 34.0932 36.0045 -4.05231e-17
409 1 169.237 129.292 -4.05231e-17
410 1 20.2127 155.263 -4.05231e-17
411 1 151.912 160.607 -4.05231e-17
412 1 114.517 214.778 -4.05231e-17
413 1 63.2721 156.181 -4.05231e-17
414 1 38.4471 13.5147 -4.05231e-17
415 1 207.67 148.587 -4.05231e-17
416 1 72.0231 199.699 -4.05231e-17
417 1 141.208 93.7394 -4.05231e-17
418 2 184.171 7.2423 -4.05231e-17
419 1 108.462 149.797 -4.05231e-17
420 2 136.959 109.002 -4.05231e-17
421 1 87.9921 104.201 -4.05231e-17
422 1 176.138 23.4501 -4.05231e-17
423 2 158.137 40.8605 -4.05231e-17
424 1 157.226 149.109 -4.05231e-17
425 1 129.23 166.692 -4.05231e-17
426 1 133.704 112.693 -4.05231e-17
427 1 45.8139 84.0499 -4.05231e-17
428 1 71.3175 191.638 -4.05231e-17
429 1 194.699 83.435 -4.05231e-17
430 1 215.354 60.0549 -4.05231e-17
431 1 120.002 206.248 -4.05231e-17
432 1 161.63 53.588 -4.05231e-17
433 1 105.079 153.657 -4.05231e-17
434 1 71.9048 30.4783 -4.05231e-17
435 1 177.706 161.976 -4.05231e-17
436 1 41.7837 37.1027 -4.05231e-17
437 1 175.677 109.536 -4.05231e-17
438 2 109.844 21.7488 -4.05231e-17
439 1 67.3794 208.078 -4.05231e-17
440 1 3.46445 161.987 -4.05231e-17
441 1 192.884 131.752 -4.05231e-17
442 1 50.4412 13.9555 -4.05231e-17
443 1 158.222 104.572 -4.05231e-17
444 1 218.553 101.136 -4.05231e-17
445 1 139.252 7.27986 -4.05231e-17
446 1 131.889 78.7065 -4.05231e-17
447 1 38.6325 145.055 -4.05231e-17
448 1 76.026 7.29958 -4.05231e-17
449 1 131.681 120.53 -4.05231e-17
450 1 139.741 187.58 -4.05231e-17
451 1 170.644 46.9236 -4.05231e-17
452 1 131.093 144.773 -4.05231e-17
453 1 178.887 182.751 -4.05231e-17
454 1 160.177 211.462 -4.05231e-17
455 1 100.395 72.4178 -4.05231e-17
456 1 166.926 26.8299 -4.05231e-17
457 1 98.1244 113.47 -4.05231e-17
458 1 198.126 0.159898 -4.05231e-17
459 1 81.1728 69.6698 -4.05231e-17
460 1 48.7905 102.029 -4.05231e-17
461 1 188.504 178.041 -4.05231e-17
462 1 181.935 116.174 -4.05231e-17
463 1 126.473 34.0843 -4.05231e-17
464 1 154.998 195.207 -4.05231e-17
465 1 121.722 160.018 -4.05231e-17
466 1 24.122 213.859 -4.05231e-17
467 1 17.3182 79.7612 -4.05231e-17
468 1 160.965 218.676 -4.05231e-17
469 1 68.6122 77.7531 -4.05231e-17
470 1 78.1612 37.9326 -4.05231e-17
471 1 128.88 174.32 -4.05231e-17
472 1 48.3154 83.2173 -4.05231e-17
473 1 26.259 102.62 -4.05231e-17
474 1 88.4765 101.616 -4.05231e-17
475 1 184.946 164.153 -4.05231e-17
476 2 191.945 12.2119 -4.05231e-17
477 1 53.7096 84.3932 -4.05231e-17
478 1 58.1236 126.036 -4.05231e-17
479 1 201.576 80.717 -4.05231e-17
480 1 85.4287 23.4036 -4.05231e-17
481 1 14.8821 94.3387 -4.05231e-17
482 1 99.6436 159.766 -4.05231e-17
483 1 142.015 159.746 -4.05231e-17
484 2 87.087 45.8638 -4.05231e-17
485 1 34.1277 100.676 -4.05231e-17
486 1 81.7989 17.1737 -4.05231e-17
487 1 100.551 196.462 -4.05231e-17
488 1 5.70384 121.397 -4.05231e-17
489 1 211.268 134.913 -4.05231e-17
490 1 205.131 84.1031 -4.05231e-17
491 1 197.447 121.4 -4.05231e-17
492 1 2.6523 128.991 -4.05231e-17
493 1 193.806 210.615 -4.05231e-17
494 1 211.243 38.6322 -4.05231e-17
495 1 199.004 89.4018 -4.05231e-17
496 2 43.9942 189.746 -4.05231e-17
497 1 39.2468 217.32 -4.05231e-17
498 1 105.187 121.369 -4.05231e-17
499 2 136.51 216.143 -4.05231e-17
500 1 26.5354 30.0372 -4.05231e-17
501 2 112.294 216.859 -4.05231e-17
502 2 123.533 143.447 -4.05231e-17
503 1 147.078 183.734 -4.05231e-17
504 1 112.952 148.811 -4.05231e-17
505 1 117.811 18.097 -4.05231e-17
506 1 26.1644 121.912 -4.05231e-17
507 1 14.4814 130.008 -4.05231e-17
508 1 196.259 217.467 -4.05231e-17
509 2 27.3215 75.7885 -4.05231e-17
510 2 146.278 133.354 -4.05231e-17
511 1 195.754 35.4531 -4.05231e-17
512 2 210.184 60.2767 -4.05231e-17
513 1 56.1438 127.632 -4.05231e-17
514 1 48.9957 19.1684 -4.05231e-17
515 1 204.296 25.0242 -4.05231e-17
516 1 182.765 206.1 -4.05231e-17
517 1 112.307 117.545 -4.05231e-17
518 2 103.464 20.5798 -4.05231e-17
519 1 11.8035 53.5882 -4.05231e-17
520 2 212.37 23.3142 -4.05231e-17
521 1 89.1518 111.117 -4.05231e-17
522 1 30.9684 31.0311 -4.05231e-17
523 1 24.7659 68.1067 -4.05231e-17
524 1 100.012 74.8251 -4.05231e-17
525 1 175.051 121.495 -4.05231e-17
526 1 190.982 64.7813 -4.05231e-17
527 1 75.1961 4.73227 -4.05231e-17
528 1 168.796 28.8261 -4.05231e-17
529 1 56.9143 158.969 -4.05231e-17
530 1 99.9756 32.4207 -4.05231e-17
531 1 66.4723 197.056 -4.05231e-17
532 1 206.735 188.081 -4.05231e-17
533 1 134.217 150.924 -4.05231e-17
534 1 97.1595 144.506 -4.05231e-17
535 1 14.7306 104.785 -4.05231e-17
536 1 203.648 118.058 -4.05231e-17
537 1 201.336 166.807 -4.05231e-17
538 1 168.997 81.0271 -4.05231e-17
539 1 88.9677 211.3 -4.05231e-17
540 1 103.742 89.3059 -4.05231e-17
541 1 40.9915 59.0766 -4.05231e-17
542 1 67.9353 210.613 -4.05231e-17
543 1 147.302 152.001 -4.05231e-17
544 1 128.742 200.011 -4.05231e-17
545 1 7.83977 149.667 -4.05231e-17
546 1 179.142 41.0517 -4.05231e-17
547 1 82.703 171.628 -4.05231e-17
548 1 99.9948 8.60297 -4.05231e-17
549 1 51.6965 76.1131 -4.05231e-17
550 2 163.215 121.61 -4.05231e-17
551 2 134.55 157.788 -4.05231e-17
552 2 93.6257 180.34 -4.05231e-17
553 1 122.589 42.4509 -4.05231e-17
554 1 73.607 101.821 -4.05231e-17
555 2 65.862 124.077 -4.05231e-17
556 1 148.217 21.4327 -4.05231e-17
557 1 76.8695 12.469 -4.05231e-17
558 1 148.374 125.602 -4.05231e-17
559 1 187.612 47.6542 -4.05231e-17
560 1 131.438 51.1897 -4.05231e-17
561 1 146.536 168.964 -4.05231e-17
562 1 195.475 144.671 -4.05231e-17
563 2 168.124 113.807 -4.05231e-17
564 1 41.9579 66.9711 -4.05231e-17
565 1 60.3931 10.5523 -4.05231e-17
566 1 75.4288 34.3379 -4.05231e-17
567 1 150.439 111.19 -4.05231e-17
568 1 22.0578 114.978 -4.05231e-17
569 1 114.265 185.071 -4.05231e-17
570 1 125.019 124.274 -4.05231e-17
571 1 175.461 203.747 -4.05231e-17
572 1 61.4448 112.071 -4.05231e-17
573 1 177.605 76.7458 -4.05231e-17
574 1 41.8773 130.635 -4.05231e-17
575 1 21.6214 76.4989 -4.05231e-17
576 1 196.311 98.897 -4.05231e-17
577 1 202.725 33.5496 -4.05231e-17
578 1 122.858 196.628 -4.05231e-17
579 1 14.0585 168.245 -4.05231e-17
580 1 102.832 139.246 -4.05231e-17
581 1 141.358 154.445 -4.05231e-17
582 1 76.2032 79.3479 -4.05231e-17
583 1 162.326 185.8 -4.05231e-17
584 2 29.162 117.496 -4.05231e-17
585 1 48.4631 198.898 -4.05231e-17
586 1 137.66 170.86 -4.05231e-17
587 1 99.9381 104.988 -4.05231e-17
588 1 17.3347 1.99059 -4.05231e-17
589 1 103.401 17.5283 -4.05231e-17
590 1 70.3976 218.88 -4.05231e-17
591 1 215.416 162.459 -4.05231e-17
592 1 55.5516 156.26 -4.05231e-17
593 1 209.666 181.794 -4.05231e-17
594 1 181.332 181.341 -4.05231e-17
595 1 83.0147 39.2511 -4.05231e-17
596 1 66.374 36.0914 -4.05231e-17
597 2 180.284 204.39 -4.05231e-17
598 1 166.916 211.634 -4.05231e-17
599 1 207.941 171.211 -4.05231e-17
600 1 104.921 10.6662 -4.05231e-17
601 1 11.6702 135.178 -4.05231e-17
602 1 97.7602 30.9092 -4.05231e-17
603 1 207.805 202.619 -4.05231e-17
604 1 120.38 1.1127 -4.05231e-17
605 2 85.6064 77.9023 -4.05231e-17
606 1 102.708 202.061 -4.05231e-17
607 2 171.824 147.17 -4.05231e-17
608 1 95.3394 77.0465 -4.05231e-17
609 1 15.8468 6.55535 -4.05231e-17
610 1 214.223 150.256 -4.05231e-17
611 1 201.716 190.337 -4.05231e-17
612 1 218.077 38.2379 -4.05231e-17
613 1 58.8348 151.137 -4.05231e-17
614 2 127.931 179.261 -4.05231e-17
615 1 105.667 18.5086 -4.05231e-17
616 1 201.914 130.612 -4.05231e-17
617 1 127.143 198.132 -4.05231e-17
618 1 201.519 212.681 -4.05231e-17
619 1 179.124 78.439 -4.05231e-17
620 1 141.123 142.014 -4.05231e-17
621 1 197.49 93.9907 -4.05231e-17
622 1 94.954 213.624 -4.05231e-17
623 1 218.618 12.1909 -4.05231e-17
624 1 24.0534 209.305 -4.05231e-17
625 1 204.553 155.264 -4.05231e-17
626 1 94.0413 190.78 -4.05231e-17
627 1 64.3132 73.9958 -4.05231e-17
628 1 34.2036 28.1516 -4.05231e-17
629 1 10.2774 94.4206 -4.05231e-17
630 2 151.074 21.6462 -4.05231e-17
631 1 15.7304 86.4679 -4.05231e-17
632 1 49.5246 92.2211 -4.05231e-17
633 1 38.5804 211.91 -4.05231e-17
634 1 1.07692 147.413 -4.05231e-17
635 1 155.267 150.811 -4.05231e-17
636 1 208.192 58.1046 -4.05231e-17
637 1 201.102 58.1778 -4.05231e-17
638 1 172.822 76.6075 -4.05231e-17
639 2 203.905 78.8472 -4.05231e-17
640 1 143.564 152.786 -4.05231e-17
641 1 193.057 85.322 -4.05231e-17
642 1 32.2624 91.3571 -4.05231e-17
643 2 181.924 42.5421 -4.05231e-17
644 1 68.2658 155.13 -4.05231e-17
645 1 106.405 196.635 -4.05231e-17
646 2 211.718 141.58 -4.05231e-17
647 1 10.9481 185.512 -4.05231e-17
648 1 132.615 103.059 -4.05231e-17
649 2 23.6012 151.143 -4.05231e-17
650 1 204.532 186.784 -4.05231e-17
651 1 218.81 113.1 -4.05231e-17
652 1 153.683 43.8708 -4.05231e-17
653 1 114.344 175.363 -4.05231e-17
654 1 23.0504 21.7223 -4.05231e-17
655 2 183.819 100.793 -4.05231e-17
656 1 28.3384 123.622 -4.05231e-17
657 2 79.3056 206.826 -4.05231e-17
658 1 54.5999 43.943 -4.05231e-17
659 2 156.461 192.582 -4.05231e-17
660 1 102.329 55.3474 -4.05231e-17
661 1 42.7591 116.394 -4.05231e-17
662 1 81.8029 130.231 -4.05231e-17
663 1 32.1817 26.1106 -4.05231e-17
664 1 146.182 17.4686 -4.05231e-17
665 1 139.861 75.024 -4.05231e-17
666 2 47.725 181.087 -4.05231e-17
667 1 93.315 99.7491 -4.05231e-17
668 2 102.363 93.969 -4.05231e-17
669 1 36.1138 17.4998 -4.05231e-17
670 1 96.3737 173.436 -4.05231e-17
671 2 53.8261 176.183 -4.05231e-17
672 1 186.04 12.0473 -4.05231e-17
673 1 63.4508 19.5607 -4.05231e-17
674 1 2.26135 31.8447 -4.05231e-17
675 1 128.578 23.5739 -4.05231e-17
676 1 169.67 123.951 -4.05231e-17
677 1 131.45 174.729 -4.05231e-17
678 1 137.573 30.7567 -4.05231e-17
679 2 152.435 32.7774 -4.05231e-17
680 1 202.912 41.7227 -4.05231e-17
681 2 129.263 119.023 -4.05231e-17
682 1 0.172202 47.9058 -4.05231e-17
683 1 68.5828 4.29857 -4.05231e-17
684 1 120.162 155.002 -4.05231e-17
685 1 152.877 38.4767 -4.05231e-17
686 1 27.8631 194.016 -4.05231e-17
687 1 118.147 191.858 -4.05231e-17
688 1 162.854 110.176 -4.05231e-17
689 2 57.2443 46.5583 -4.05231e-17
690 1 70.4198 19.9636 -4.05231e-17
691 1 89.2448 66.7012 -4.05231e-17
692 1 131.125 7.83138 -4.05231e-17
693 1 48.2291 143.354 -4.05231e-17
694 1 76.0984 125.038 -4.05231e-17
695 1 145.957 38.3332 -4.05231e-17
696 1 146.553 80.9762 -4.05231e-17
697 1 139.615 201.38 -4.05231e-17
698 1 116.511 65.9046 -4.05231e-17
699 1 180.396 191.689 -4.05231e-17
700 1 205.786 209.533 -4.05231e-17
701 1 54.2456 16.7404 -4.05231e-17
702 1 113.378 129.12 -4.05231e-17
703 2 188.17 144.41 -4.05231e-17
704 1 29.199 218.728 -4.05231e-17
705 2 69.1339 112.17 -4.05231e-17
706 1 165.935 177.433 -4.05231e-17
707 1 114.189 24.4732 -4.05231e-17
708 1 84.355 209.097 -4.05231e-17
709 1 147.372 196.033 -4.05231e-17
710 1 192.385 191.787 -4.05231e-17
711 1 111.708 93.0592 -4.05231e-17
712 1 192.632 208.204 -4.05231e-17
713 1 13.9057 136.312 -4.05231e-17
714 1 135.731 13.4226 -4.05231e-17
715 1 55.7765 199.1 -4.05231e-17
716 1 40.5174 123.571 -4.05231e-17
717 1 51.6377 107.047 -4.05231e-17
718 1 130.835 184.926 -4.05231e-17
719 2 119.872 78.8274 -4.05231e-17
720 1 98.8761 65.1303 -4.05231e-17
721 1 95.7827 98.8612 -4.05231e-17
722 1 133.89 63.0114 -4.05231e-17
723 2 49.3377 45.5255 -4.05231e-17
724 1 15.2799 49.7498 -4.05231e-17
725 1 29.4524 108.796 -4.05231e-17
726 1 189.659 45.8815 -4.05231e-17
727 1 148.396 205.07 -4.05231e-17
728 2 18.2802 88.0183 -4.05231e-17
729 1 133.918 165.061 -4.05231e-17
730 1 173.886 199.328 -4.05231e-17
731 1 49.2132 190.253 -4.05231e-17
732 1 218.51 9.58018 -4.05231e-17
733 1 205.188 34.2961 -4.05231e-17
734 1 4.07426 30.1104 -4.05231e-17
735 1 41.2892 22.7687 -4.05231e-17
736 2 190.506 74.3468 -4.05231e-17
737 1 81.5851 86.8203 -4.05231e-17
738 1 18.6371 166.79 -4.05231e-17
739 1 105.93 156.264 -4.05231e-17
740 1 59.6048 116.426 -4.05231e-17
741 2 188.739 78.3888 -4.05231e-17
742 1 74.5281 43.6088 -4.05231e-17
743 1 202.917 66.7643 -4.05231e-17
744 2 210.76 172.479 -4.05231e-17
745 1 130.975 32.0598 -4.05231e-17
746 1 14.1296 29.7329 -4.05231e-17
747 2 204.273 22.2602 -4.05231e-17
748 1 182.837 192.988 -4.05231e-17
749 1 196.516 211.169 -4.05231e-17
750 1 212.968 163.693 -4.05231e-17
751 1 59.5799 58.6106 -4.05231e-17
752 1 178.411 106.061 -4.05231e-17
753 1 99.0854 150.616 -4.05231e-17
754 1 14.7043 215.421 -4.05231e-17
755 1 83.2972 194.599 -4.05231e-17
756 2 103.501 195.664 -4.05231e-17
757 1 27.3722 18.8332 -4.05231e-17
758 1 135.354 146.193 -4.05231e-17
759 1 73.3194 107.489 -4.05231e-17
760 1 96.311 40.4847 -4.05231e-17
761 1 58.0476 161.245 -4.05231e-17
762 1 43.7775 23.3632 -4.05231e-17
763 1 114.26 99.9158 -4.05231e-17
764 2 177.604 148.625 -4.05231e-17
765 1 94.2759 64.2795 -4.05231e-17
766 1 114.352 35.6607 -4.05231e-17
767 1 97.2758 78.6854 -4.05231e-17
768 1 9.71654 3.59461 -4.05231e-17
769 1 107.957 75.8826 -4.05231e-17
770 2 113.584 109.925 -4.05231e-17
771 1 143.645 178.486 -4.05231e-17
772 1 102.346 28.7412 -4.05231e-17
773 1 109.006 167.393 -4.05231e-17
774 1 111.679 124.19 -4.05231e-17
775 1 68.9461 6.96084 -4.05231e-17
776 1 38.2858 10.9205 -4.05231e-17
777 1 107.952 181.887 -4.05231e-17
778 1 23.0962 19.1896 -4.05231e-17
779 1 191.611 44.3009 -4.05231e-17
780 1 3.83341 169.358 -4.05231e-17
781 1 127.055 99.6638 -4.05231e-17
782 1 175.5 49.1998 -4.05231e-17
783 1 98.662 15.2892 -4.05231e-17
784 2 194.759 159.823 -4.05231e-17
785 1 111.031 165.316 -4.05231e-17
786 1 119.167 176.954 -4.05231e-17
787 1 185.333 75.2247 -4.05231e-17
788 1 177.266 44.9202 -4.05231e-17
789 2 142.963 108.813 -4.05231e-17
790 1 109.768 28.7769 -4.05231e-17
791 2 14.622 122.012 -4.05231e-17
792 2 215.822 13.5739 -4.05231e-17
793 2 115.834 68.8759 -4.05231e-17
794 1 56.2945 188.475 -4.05231e-17
795 1 132.427 53.6606 -4.05231e-17
796 1 130.716 22.1425 -4.05231e-17
797 1 197.562 155.958 -4.05231e-17
798 2 195.892 204.147 -4.05231e-17
799 2 207.453 65.1017 -4.05231e-17
800 2 55.4698 217.903 -4.05231e-17
801 1 102.872 132.458 -4.05231e-17
802 1 124.589 75.718 -4.05231e-17
803 1 182.213 68.6367 -4.05231e-17
804 2 122.491 204.766 -4.05231e-17
805 1 45.0187 106.64 -4.05231e-17
806 1 11.7834 117.063 -4.05231e-17
807 2 100.591 99.6825 -4.05231e-17
808 1 14.5129 116.87 -4.05231e-17
809 2 57.7577 134.215 -4.05231e-17
810 1 129.754 197.536 -4.05231e-17
811 1 32.719 5.99971 -4.05231e-17
812 1 131.875 34.6532 -4.05231e-17
813 2 108.026 111.15 -4.05231e-17
814 1 147.431 68.9263 -4.05231e-17
815 1 88.8043 164.116 -4.05231e-17
816 1 200.922 9.67692 -4.05231e-17
817 1 108.021 214.521 -4.05231e-17
818 1 57.4087 101.581 -4.05231e-17
819 1 9.43475 136.015 -4.05231e-17
820 1 45.3945 120.236 -4.05231e-17
821 1 94.4825 151.727 -4.05231e-17
822 2 41.4335 135.994 -4.05231e-17
823 2 139.576 91.5556 -4.05231e-17
824 1 34.8766 107.759 -4.05231e-17
825 1 65.4551 15.3 -4.05231e-17
826 1 190.701 14.7601 -4.05231e-17
827 1 192.865 107.618 -4.05231e-17
828 1 142.311 123.36 -4.05231e-17
829 1 126.911 210.638 -4.05231e-17
830 1 81.6268 127.795 -4.05231e-17
831 1 217.423 42.9751 -4.05231e-17
832 1 93.5072 87.5833 -4.05231e-17
833 1 61.9411 84.5888 -4.05231e-17
834 1 106.821 8.98028 -4.05231e-17
835 1 58.2003 218.515 -4.05231e-17
836 1 11.1579 51.0892 -4.05231e-17
837 1 6.85235 70.643 -4.05231e-17
838 1 98.0082 178.338 -4.05231e-17
839 2 198.317 3.14038 -4.05231e-17
840 1 5.18508 202.592 -4.05231e-17
841 2 63.2557 184.638 -4.05231e-17
842 1 94.8739 91.9084 -4.05231e-17
843 2 159.017 182.634 -4.05231e-17
844 1 25.9552 159.098 -4.05231e-17
845 1 71.0695 188.815 -4.05231e-17
846 1 159.101 190.94 -4.05231e-17
847 1 41.9322 141.181 -4.05231e-17
848 1 188.582 117.33 -4.05231e-17
849 1 189.147 167.171 -4.05231e-17
850 1 39.7182 129.487 -4.05231e-17
851 1 89.6373 37.4401 -4.05231e-17
852 1 11.8418 209.043 -4.05231e-17
853 1 31.8426 138.847 -4.05231e-17
854 1 171.403 84.5773 -4.05231e-17
855 1 126.096 19.4977 -4.05231e-17
856 1 209.806 169.689 -4.05231e-17