ITEM: TIMESTEP
0
ITEM: NUMBER OF ATOMS
7200
ITEM: BOX BOUNDS xy xz yz pp pp pp
0.0000000000000000e+00 2.1900000000000000e+02 0.0000000000000000e+00
0.0000000000000000e+00 2.1900000000000000e+02 0.0000000000000000e+00
-3.6499999999999999e-01 3.6499999999999999e-01 0.0000000000000000e+00
ITEM: ATOMS id type x y z
1 1 67.9686 134.786 -4.05231e-17
2 1 183.265 108.803 -4.05231e-17
3 1 14.0273 158.221 -4.05231e-17
4 1 3.55811 86.5967 -4.05231e-17
5 1 215.502 157.021 -4.05231e-17
6 1 117.137 210.752 -4.05231e-17
7 1 42.6639 51.7273 -4.05231e-17
8 2 149.268 83.1793 -4.05231e-17
9 1 203.307 9.75496 -4.05231e-17
10 2 58.0003 193.531 -4.05231e-17
11 1 114.578 14.9416 -4.05231e-17
12 1 129.016 77.9226 -4.05231e-17
13 2 51.2714 79.3476 -4.05231e-17
14 1 65.4807 18.0922 -4.05231e-17
15 1 136.854 105.73 -4.05231e-17
16 2 61.0065 172.688 -4.05231e-17
17 1 114.172 30.8068 -4.05231e-17
18 2 31.5953 78.0834 -4.05231e-17
19 1 106.504 52.7666 -4.05231e-17
20 1 144.072 103.528 -4.05231e-17
21 1 42.0998 5.39899 -4.05231e-17
22 2 49.8811 147.849 -4.05231e-17
23 2 17.4917 54.3076 -4.05231e-17
24 1 159.257 99.5265 -4.05231e-17
25 1 75.861 183.129 -4.05231e-17
26 2 86.3079 96.6094 -4.05231e-17
27 1 155.693 174.185 -4.05231e-17
28 2 22.2474 156.531 -4.05231e-17
29 1 53.3928 46.777 -4.05231e-17
30 1 139.614 88.204 -4.05231e-17
31 1 211.417 90.4083 -4.05231e-17
32 1 57.8372 104.255 -4.05231e-17
33 1 157.412 154.437 -4.05231e-17
34 1 61.2866 77.8928 -4.05231e-17
35 1 177.356 68.9412 -4.05231e-17
36 1 61.2861 75.3854 -4.05231e-17
37 2 136.107 140.633 -4.05231e-17
38 1 197.833 74.4605 -4.05231e-17
39 1 121.951 138.186 -4.05231e-17
40 1 165.949 163.836 -4.05231e-17
41 1 120.879 182.281 -4.05231e-17
42 1 103.181 36.2515 -4.05231e-17
43 1 135.295 60.7303 -4.05231e-17
44 1 107.212 23.4841 -4.05231e-17
45 1 214.687 84.6605 -4.05231e-17
46 1 28.2941 203.399 -4.05231e-17
47 1 88.9975 172.476 -4.05231e-17
48 2 47.7057 86.4423 -4.05231e-17
49 1 76.6087 110.448 -4.05231e-17
50 1 46.2344 197.644 -4.05231e-17
51 1 181.371 34.6713 -4.05231e-17
52 1 203.775 132.799 -4.05231e-17
53 1 156.886 27.1807 -4.05231e-17
54 1 24.2868 119.203 -4.05231e-17
55 1 23.0013 48.3711 -4.05231e-17
56 1 117.491 139.962 -4.05231e-17
57 2 67.958 214.494 -4.05231e-17
58 1 32.6965 40.6913 -4.05231e-17
59 1 29.0653 152.191 -4.05231e-17
60 2 151.864 146.994 -4.05231e-17
61 2 36.0839 202.808 -4.05231e-17
62 1 10.5716 161.97 -4.05231e-17
63 1 111.928 198.041 -4.05231e-17
64 1 133.757 39.0833 -4.05231e-17
65 1 214.104 114.072 -4.05231e-17
66 1 128.894 134.241 -4.05231e-17
67 1 95.7118 139.774 -4.05231e-17
68 1 66.6954 116.488 -4.05231e-17
69 1 140.862 174.186 -4.05231e-17
70 1 58.9333 111.461 -4.05231e-17
71 1 7.77025 125.508 -4.05231e-17
72 1 171.743 60.989 -4.05231e-17
73 1 188.053 185.492 -4.05231e-17
74 1 207.273 21.4884 -4.05231e-17
75 2 93.6066 1.22286 -4.05231e-17
76 1 18.0354 4.49302 -4.05231e-17
77 1 36.2933 24.5355 -4.05231e-17
78 1 124.393 117.274 -4.05231e-17
79 2 126.758 1.063 -4.05231e-17
80 1 74.9825 106.203 -4.05231e-17
81 1 110.556 141.084 -4.05231e-17
82 1 53.9516 141.795 -4.05231e-17
83 2 130.042 182.405 -4.05231e-17
84 1 180.069 80.5649 -4.05231e-17
85 1 22.1079 41.3718 -4.05231e-17
86 1 127.798 142.325 -4.05231e-17
87 1 217.569 217.311 -4.05231e-17
88 1 19.3088 34.6275 -4.05231e-17
89 2 43.9787 3.41103 -4.05231e-17
90 2 190.532 187.097 -4.05231e-17
91 1 149.572 90.6746 -4.05231e-17
92 2 168.96 21.5375 -4.05231e-17
93 1 141.237 15.2085 -4.05231e-17
94 2 201.907 12.4571 -4.05231e-17
95 1 33.4291 194.969 -4.05231e-17
96 1 130.567 95.6357 -4.05231e-17
97 1 97.2345 4.74884 -4.05231e-17
98 1 125.389 55.0113 -4.05231e-17
99 1 178.185 21.5048 -4.05231e-17
100 1 176.129 8.86719 -4.05231e-17
101 1 114.327 12.5519 -4.05231e-17
102 1 24.726 46.409 -4.05231e-17
103 1 58.0132 80.7428 -4.05231e-17
104 1 68.4135 109.189 -4.05231e-17
105 1 142.76 201.606 -4.05231e-17
106 1 77.8908 102.439 -4.05231e-17
107 2 146.288 101.566 -4.05231e-17
108 1 36.383 210.33 -4.05231e-17
109 1 54.4941 89.3189 -4.05231e-17
110 1 108.045 63.146 -4.05231e-17
111 1 61.1082 21.0761 -4.05231e-17
112 1 95.1554 137.134 -4.05231e-17
113 1 99.4877 43.9685 -4.05231e-17
114 1 158.608 22.9421 -4.05231e-17
115 1 51.43 163.127 -4.05231e-17
116 2 214.401 133.739 -4.05231e-17
117 1 201.688 216.474 -4.05231e-17
118 1 165.074 68.1342 -4.05231e-17
119 2 57.8999 98.9814 -4.05231e-17
120 1 53.3898 199.506 -4.05231e-17
121 1 152.146 83.7701 -4.05231e-17
122 1 103.005 14.8631 -4.05231e-17
123 1 136.991 75.9553 -4.05231e-17
124 1 155.209 201.394 -4.05231e-17
125 1 141.426 117.843 -4.05231e-17
126 1 111.771 65.4416 -4.05231e-17
127 1 163.813 78.2421 -4.05231e-17
128 1 175.518 136.758 -4.05231e-17
129 1 7.62562 104.253 -4.05231e-17
130 1 83.7472 128.865 -4.05231e-17
131 1 175.52 152.471 -4.05231e-17
132 2 183.305 1.95794 -4.05231e-17
133 1 127.095 79.4526 -4.05231e-17
134 1 35.1545 86.2073 -4.05231e-17
135 1 77.9662 8.5612 -4.05231e-17
136 1 210.437 201.595 -4.05231e-17
137 1 102.124 136.701 -4.05231e-17
138 1 50.5001 212.312 -4.05231e-17
139 1 202.364 105.577 -4.05231e-17
140 2 142.001 186.375 -4.05231e-17
141 1 205.748 96.6943 -4.05231e-17
142 2 212.061 49.0032 -4.05231e-17
143 1 111.308 80.7169 -4.05231e-17
144 2 43.5313 199.321 -4.05231e-17
145 1 172.308 103.146 -4.05231e-17
146 1 99.9044 119.969 -4.05231e-17
147 1 154.352 145.784 -4.05231e-17
148 1 6.76382 200.91 -4.05231e-17
149 1 68.1744 21.8149 -4.05231e-17
150 1 53.9734 37.3395 -4.05231e-17
151 1 26.154 112.746 -4.05231e-17
152 1 63.1695 104.805 -4.05231e-17
153 2 52.2115 6.45243 -4.05231e-17
154 1 149.053 94.7891 -4.05231e-17
155 1 107.781 16.8951 -4.05231e-17
156 2 71.4861 115.867 -4.05231e-17
157 1 207.504 104.828 -4.05231e-17
158 1 29.1622 29.17 -4.05231e-17
159 1 22.2742 135.648 -4.05231e-17
160 1 11.9436 201.479 -4.05231e-17
161 1 1.66562 7.99479 -4.05231e-17
162 1 127.391 127.477 -4.05231e-17
163 1 17.9179 32.4558 -4.05231e-17
164 1 166.967 53.1177 -4.05231e-17
165 1 124.963 121.661 -4.05231e-17
166 2 159.424 60.8402 -4.05231e-17
167 1 174.953 46.533 -4.05231e-17
168 1 149.191 169.418 -4.05231e-17
169 1 2.06631 101.867 -4.05231e-17
170 1 94.9383 168.512 -4.05231e-17
171 1 146.683 60.9462 -4.05231e-17
172 1 218.879 17.2678 -4.05231e-17
173 1 45.8233 143.321 -4.05231e-17
174 1 131.203 62.6166 -4.05231e-17
175 2 137.454 160.931 -4.05231e-17
176 1 109.935 70.5841 -4.05231e-17
177 2 70.7012 56.9676 -4.05231e-17
178 1 65.1186 86.9705 -4.05231e-17
179 1 173.377 164.133 -4.05231e-17
180 1 203.811 197.065 -4.05231e-17
181 1 134.771 167.707 -4.05231e-17
182 2 77.4301 20.7371 -4.05231e-17
183 1 76.9266 164.124 -4.05231e-17
184 1 176.27 86.8411 -4.05231e-17
185 2 175.351 20.5784 -4.05231e-17
186 2 209.131 134.023 -4.05231e-17
187 1 93.2672 29.025 -4.05231e-17
188 1 102.771 170.204 -4.05231e-17
189 1 123.632 174.943 -4.05231e-17
190 2 13.5684 161.371 -4.05231e-17
191 1 77.5653 157.255 -4.05231e-17
192 2 63.2589 109.93 -4.05231e-17
193 2 79.9929 172.428 -4.05231e-17
194 1 32.9855 149.474 -4.05231e-17
195 1 145.404 163.448 -4.05231e-17
196 1 168.948 191.745 -4.05231e-17
197 1 74.272 69.9188 -4.05231e-17
198 2 9.79628 132.884 -4.05231e-17
199 1 210.748 56.6632 -4.05231e-17
200 1 80.268 6.82747 -4.05231e-17
201 2 71.3833 109.911 -4.05231e-17
202 1 52.7808 211.056 -4.05231e-17
203 1 175.635 81.6139 -4.05231e-17
204 1 188.237 156.485 -4.05231e-17
205 2 191.862 82.6351 -4.05231e-17
206 1 89.5946 132.826 -4.05231e-17
207 1 106.028 30.0278 -4.05231e-17
208 1 32.7345 85.7034 -4.05231e-17
209 1 82.0759 2.63442 -4.05231e-17
210 1 8.06434 64.4451 -4.05231e-17
211 2 146.258 156.162 -4.05231e-17
212 1 120.384 112.77 -4.05231e-17
213 1 134.726 104.271 -4.05231e-17
214 1 74.2642 14.2987 -4.05231e-17
215 1 74.5346 201.726 -4.05231e-17
216 1 193.519 139.019 -4.05231e-17
217 1 126.939 187.086 -4.05231e-17
218 2 28.6962 168.38 -4.05231e-17
219 1 155.451 213.987 -4.05231e-17
220 2 106.843 55.6236 -4.05231e-17
221 1 213.13 55.9959 -4.05231e-17
222 1 143.257 146.226 -4.05231e-17
223 1 52.6618 208.337 -4.05231e-17
224 2 10.3896 188.593 -4.05231e-17
225 1 201.414 142.313 -4.05231e-17
226 1 138.969 190.294 -4.05231e-17
227 2 51.0155 17.2688 -4.05231e-17
228 1 138.757 77.6754 -4.05231e-17
229 1 60.6483 135.768 -4.05231e-17
230 1 158.75 131.106 -4.05231e-17
231 1 148.452 123.004 -4.05231e-17
232 1 0.919408 90.9236 -4.05231e-17
233 1 109.762 100.236 -4.05231e-17
234 1 133.974 216.124 -4.05231e-17
235 1 21.0615 143.036 -4.05231e-17
236 1 46.2569 81.7279 -4.05231e-17
237 1 198.906 8.1357 -4.05231e-17
238 1 147.779 128.236 -4.05231e-17
239 2 17.4795 112.272 -4.05231e-17
240 1 99.5333 5.94198 -4.05231e-17
241 2 187.892 14.6471 -4.05231e-17
242 2 198.633 37.1284 -4.05231e-17
243 2 114.572 27.6259 -4.05231e-17
244 1 97.4751 7.5613 -4.05231e-17
245 1 84.6867 58.8869 -4.05231e-17
246 1 125.922 119.288 -4.05231e-17
247 1 210.689 98.515 -4.05231e-17
248 1 94.4594 3.97775 -4.05231e-17
249 1 23.3387 66.0966 -4.05231e-17
250 2 149.986 29.6546 -4.05231e-17
251 1 153.715 212.279 -4.05231e-17
252 1 195.503 64.3004 -4.05231e-17
253 1 94.2504 61.4004 -4.05231e-17
254 2 76.81 197.216 -4.05231e-17
255 1 212.185 148.779 -4.05231e-17
256 1 84.7115 165.662 -4.05231e-17
257 1 211.912 151.427 -4.05231e-17
258 2 164.103 27.908 -4.05231e-17
259 1 58.2369 165.844 -4.05231e-17
260 1 127.79 11.3102 -4.05231e-17
261 1 184.999 13.8712 -4.05231e-17
262 1 53.488 52.4131 -4.05231e-17
263 1 12.744 213.654 -4.05231e-17
264 1 172.345 42.9666 -4.05231e-17
265 1 166.381 22.8864 -4.05231e-17
266 1 155.53 9.94919 -4.05231e-17
267 1 2.75091 64.6077 -4.05231e-17
268 1 21.7759 35.354 -4.05231e-17
269 1 125.802 95.0138 -4.05231e-17
270 1 141.309 106.514 -4.05231e-17
271 1 12.6732 92.6397 -4.05231e-17
272 1 159.692 202.128 -4.05231e-17
273 1 40.5295 168.853 -4.05231e-17
274 2 113.053 87.8454 -4.05231e-17
275 1 64.0022 5.03811 -4.05231e-17
276 2 54.0527 32.2016 -4.05231e-17
277 2 167.043 122.135 -4.05231e-17
278 1 38.5185 101.098 -4.05231e-17
279 2 109.979 205.046 -4.05231e-17
280 1 59.9143 31.8547 -4.05231e-17
281 1 147.248 28.3478 -4.05231e-17
282 1 164.866 8.21194 -4.05231e-17
283 1 113.179 141.576 -4.05231e-17
284 1 136.543 165.801 -4.05231e-17
285 1 35.9152 12.2169 -4.05231e-17
286 2 33.8994 214.767 -4.05231e-17
287 1 82.9364 135.398 -4.05231e-17
288 1 21.4416 57.4515 -4.05231e-17
289 1 71.6577 53.9955 -4.05231e-17
290 1 150.973 193.534 -4.05231e-17
291 1 158.235 144.847 -4.05231e-17
292 2 19.8414 180.967 -4.05231e-17
293 2 65.5787 194.455 -4.05231e-17
294 1 111.926 40.5004 -4.05231e-17
295 1 124.944 47.8534 -4.05231e-17
296 1 135.043 41.6256 -4.05231e-17
297 1 118.837 145.201 -4.05231e-17
298 1 105.035 198.397 -4.05231e-17
299 1 160.297 106.564 -4.05231e-17
300 2 61.9378 95.0786 -4.05231e-17
301 1 59.2235 46.1048 -4.05231e-17
302 1 127.223 193.056 -4.05231e-17
303 2 198.584 59.8751 -4.05231e-17
304 2 144.571 129.585 -4.05231e-17
305 1 86.158 99.3682 -4.05231e-17
306 1 51.0882 73.871 -4.05231e-17
307 1 35.1817 122.474 -4.05231e-17
308 1 161.804 59.243 -4.05231e-17
309 2 73.2376 184.331 -4.05231e-17
310 1 194.437 215.832 -4.05231e-17
311 1 80.1697 33.7358 -4.05231e-17
312 1 191.966 147.856 -4.05231e-17
313 2 147.528 66.1159 -4.05231e-17
314 1 52.0039 135.434 -4.05231e-17
315 1 111.134 150.413 -4.05231e-17
316 1 72.5924 0.837436 -4.05231e-17
317 1 13.7449 99.2305 -4.05231e-17
318 1 100.155 214.988 -4.05231e-17
319 1 51.2633 33.1887 -4.05231e-17
320 1 144.326 99.7255 -4.05231e-17
321 1 88.6335 203.819 -4.05231e-17
322 1 143.101 140.496 -4.05231e-17
323 1 187.952 108.195 -4.05231e-17
324 1 81.3756 26.808 -4.05231e-17
325 1 162.871 139.383 -4.05231e-17
326 1 84.9422 151.852 -4.05231e-17
327 2 149.839 186.043 -4.05231e-17
328 1 167.694 40.4977 -4.05231e-17
329 2 47.2629 115.858 -4.05231e-17
330 1 23.7043 101.993 -4.05231e-17
331 1 174.805 175.986 -4.05231e-17
332 2 112.412 104.265 -4.05231e-17
333 1 44.1662 18.1272 -4.05231e-17
334 1 139.705 168.952 -4.05231e-17
335 1 12.6186 206.535 -4.05231e-17
336 1 212.543 106.352 -4.05231e-17
337 1 103.289 182.094 -4.05231e-17
338 1 159.357 57.8109 -4.05231e-17
339 1 109.225 217.238 -4.05231e-17
340 1 153.069 141.485 -4.05231e-17
341 1 160.315 158.647 -4.05231e-17
342 1 128.752 144.617 -4.05231e-17
343 1 127.561 29.1467 -4.05231e-17
344 1 63.6494 182.054 -4.05231e-17
345 1 60.4789 109.479 -4.05231e-17
346 1 9.47724 127.238 -4.05231e-17
347 1 92.2112 92.1981 -4.05231e-17
348 1 164.022 179.209 -4.05231e-17
349 1 193.624 75.4305 -4.05231e-17
350 2 90.0525 40.9034 -4.05231e-17
351 1 154.745 65.9894 -4.05231e-17
352 1 61.1215 182.905 -4.05231e-17
353 1 39.3312 166.573 -4.05231e-17
354 1 167.933 161.613 -4.05231e-17
355 1 58.4839 156.977 -4.05231e-17
356 1 23.9985 36.7432 -4.05231e-17
357 1 62.7397 158.737 -4.05231e-17
358 1 172.248 180.625 -4.05231e-17
359 1 157.841 159.133 -4.05231e-17
360 1 74.3924 53.3062 -4.05231e-17
361 1 63.0179 168.137 -4.05231e-17
362 1 169.27 201.046 -4.05231e-17
363 1 163.759 190.047 -4.05231e-17
364 2 116.469 92.3989 -4.05231e-17
365 1 178.837 90.8437 -4.05231e-17
366 1 117.533 160.973 -4.05231e-17
367 1 174.3 6.88901 -4.05231e-17
368 1 197.193 192.296 -4.05231e-17
369 2 115.461 188.232 -4.05231e-17
370 1 15.3752 206.269 -4.05231e-17
371 1 53.6122 137.242 -4.05231e-17
372 2 0.11073 93.8138 -4.05231e-17
373 2 212.913 7.70665 -4.05231e-17
374 1 151.38 88.405 -4.05231e-17
375 1 36.8434 112.16 -4.05231e-17
376 1 15.9846 152.733 -4.05231e-17
377 1 28.9227 213.133 -4.05231e-17
378 1 74.6636 129.274 -4.05231e-17
379 1 43.0834 60.4827 -4.05231e-17
380 1 177.707 150.814 -4.05231e-17
381 1 13.6623 5.55715 -4.05231e-17
382 1 54.4042 67.3134 -4.05231e-17
383 1 169.659 67.5508 -4.05231e-17
384 1 22.1087 13.8594 -4.05231e-17
385 1 191.658 76.9494 -4.05231e-17
386 2 82.0645 44.3224 -4.05231e-17
387 1 144.087 18.9804 -4.05231e-17
388 1 56.6639 43.896 -4.05231e-17
389 1 206.5 159.012 -4.05231e-17
390 2 207.417 179.581 -4.05231e-17
391 2 35.6898 40.4942 -4.05231e-17
392 1 41.7344 217.944 -4.05231e-17
393 1 0.622104 33.4594 -4.05231e-17
394 1 102.306 101.054 -4.05231e-17
395 1 16.4922 27.4786 -4.05231e-17
396 1 202.475 153.761 -4.05231e-17
397 1 100.875 16.3984 -4.05231e-17
398 1 11.7834 191.276 -4.05231e-17
399 1 19.5054 59.3944 -4.05231e-17
400 1 103.51 179.569 -4.05231e-17
401 1 87.8022 176.806 -4.05231e-17
402 2 191.568 178.939 -4.05231e-17
403 1 214.264 53.876 -4.05231e-17
404 1 35.9971 71.5354 -4.05231e-17
405 1 204.319 29.055 -4.05231e-17
406 1 201.08 68.2115 -4.05231e-17
407 2 19.5268 62.7793 -4.05231e-17
408 1 34.3292 35.6402 -4.05231e-17
409 1 169.368 129.426 -4.05231e-17
410 1 19.94 154.821 -4.05231e-17
411 1 151.857 160.343 -4.05231e-17
412 1 114.947 215.269 -4.05231e-17
413 1 63.4527 156.204 -4.05231e-17
414 1 38.2986 13.6047 -4.05231e-17
415 1 207.988 148.203 -4.05231e-17
416 1 72.2298 200.127 -4.05231e-17
417 1 140.78 94 -4.05231e-17
418 2 184.519 7.53798 -4.05231e-17
419 1 108.544 149.94 -4.05231e-17
420 2 136.782 109.032 -4.05231e-17
421 1 87.6192 103.744 -4.05231e-17
422 1 176.259 23.568 -4.05231e-17
423 2 158.075 41.5076 -4.05231e-17
424 1 157.07 149.222 -4.05231e-17
425 1 129.136 167.143 -4.05231e-17
426 1 133.144 112.698 -4.05231e-17
427 1 45.5993 84.342 -4.05231e-17
428 1 71.3868 191.911 -4.05231e-17
429 1 194.733 83.2497 -4.05231e-17
430 1 215.033 60.0943 -4.05231e-17
431 1 120.436 206.652 -4.05231e-17
432 1 161.453 53.7237 -4.05231e-17
433 1 104.89 153.778 -4.05231e-17
434 1 71.7908 30.3491 -4.05231e-17
435 1 178.048 161.515 -4.05231e-17
436 1 44.594 36.477 -4.05231e-17
437 1 175.443 109.557 -4.05231e-17
438 2 109.699 21.7663 -4.05231e-17
439 1 67.428 208.741 -4.05231e-17
440 1 3.73194 161.637 -4.05231e-17
441 1 192.735 131.619 -4.05231e-17
442 1 50.1147 13.843 -4.05231e-17
443 1 158.152 104.687 -4.05231e-17
444 1 218.608 101.116 -4.05231e-17
445 1 140.038 7.3536 -4.05231e-17
446 1 131.713 78.7917 -4.05231e-17
447 1 38.9341 145.153 -4.05231e-17
448 1 75.6992 7.28205 -4.05231e-17
449 1 131.607 120.874 -4.05231e-17
450 1 139.8 188.021 -4.05231e-17
451 1 170.607 47.3848 -4.05231e-17
452 1 131.079 144.704 -4.05231e-17
453 1 179.312 182.031 -4.05231e-17
454 1 160.256 211.78 -4.05231e-17
455 1 100.484 71.6891 -4.05231e-17
456 1 167.21 27.1898 -4.05231e-17
457 1 97.6376 113.317 -4.05231e-17
458 1 198.617 0.364581 -4.05231e-17
459 1 81.3213 68.9445 -4.05231e-17
460 1 48.4229 102.778 -4.05231e-17
461 1 188.84 177.945 -4.05231e-17
462 1 181.55 116.092 -4.05231e-17
463 1 126.722 33.5813 -4.05231e-17
464 1 155.084 195.163 -4.05231e-17
465 1 121.811 159.835 -4.05231e-17
466 1 24.4421 213.882 -4.05231e-17
467 1 17.2329 79.9569 -4.05231e-17
468 1 161.305 218.853 -4.05231e-17
469 1 68.4977 77.7163 -4.05231e-17
470 1 78.269 37.7358 -4.05231e-17
471 1 128.872 174.497 -4.05231e-17
472 1 48.142 83.5699 -4.05231e-17
473 1 26.157 102.485 -4.05231e-17
474 1 88.2701 101.009 -4.05231e-17
475 1 184.901 163.473 -4.05231e-17
476 2 192.491 11.896 -4.05231e-17
477 1 53.7424 84.7417 -4.05231e-17
478 1 58.6061 125.882 -4.05231e-17
479 1 201.618 80.482 -4.05231e-17
480 1 85.4574 23.4655 -4.05231e-17
481 1 14.8827 94.1831 -4.05231e-17
482 1 99.4055 159.855 -4.05231e-17
483 1 142.109 159.885 -4.05231e-17
484 2 87.6462 45.7314 -4.05231e-17
485 1 33.7702 100.404 -4.05231e-17
486 1 81.8042 17.2859 -4.05231e-17
487 1 100.982 196.674 -4.05231e-17
488 1 5.81657 121.258 -4.05231e-17
489 1 211.831 135.116 -4.05231e-17
490 1 205.24 84.0305 -4.05231e-17
491 1 197.426 121.524 -4.05231e-17
492 1 2.83323 128.718 -4.05231e-17
493 1 194.123 210.744 -4.05231e-17
494 1 211.37 38.1036 -4.05231e-17
495 1 198.714 89.4463 -4.05231e-17
496 2 44.1539 189.515 -4.05231e-17
497 1 39.3621 216.698 -4.05231e-17
498 1 104.967 120.799 -4.05231e-17
499 2 136.773 216.659 -4.05231e-17
500 1 26.4913 29.8545 -4.05231e-17
501 2 112.565 216.8 -4.05231e-17
502 2 123.502 143.403 -4.05231e-17
503 1 147.418 184.042 -4.05231e-17
504 1 112.947 148.56 -4.05231e-17
505 1 118.077 18.3736 -4.05231e-17
506 1 25.9777 121.861 -4.05231e-17
507 1 14.5663 129.657 -4.05231e-17
508 1 196.618 217.539 -4.05231e-17
509 2 26.8186 75.4573 -4.05231e-17
510 2 146.144 133.547 -4.05231e-17
511 1 195.9 35.5266 -4.05231e-17
512 2 210.062 59.6165 -4.05231e-17
513 1 56.3764 127.493 -4.05231e-17
514 1 48.6632 19.024 -4.05231e-17
515 1 204.088 25.049 -4.05231e-17
516 1 182.822 205.943 -4.05231e-17
517 1 111.997 117.337 -4.05231e-17
518 2 103.51 20.3318 -4.05231e-17
519 1 11.8174 52.9212 -4.05231e-17
520 2 212.461 22.9199 -4.05231e-17
521 1 88.7048 110.904 -4.05231e-17
522 1 31.4725 30.4454 -4.05231e-17
523 1 25.0252 68.21 -4.05231e-17
524 1 100.033 74.4192 -4.05231e-17
525 1 174.55 121.308 -4.05231e-17
526 1 191.025 64.8499 -4.05231e-17
527 1 75.2625 4.73845 -4.05231e-17
528 1 168.741 29.2939 -4.05231e-17
529 1 56.8869 158.996 -4.05231e-17
530 1 100.46 31.8828 -4.05231e-17
531 1 66.4026 197.367 -4.05231e-17
532 1 206.741 188.034 -4.05231e-17
533 1 133.806 151.106 -4.05231e-17
534 1 97.434 144.721 -4.05231e-17
535 1 14.1106 104.822 -4.05231e-17
536 1 203.549 117.653 -4.05231e-17
537 1 201.304 166.755 -4.05231e-17
538 1 168.799 81.0666 -4.05231e-17
539 1 89.1579 211.907 -4.05231e-17
540 1 103.334 88.7558 -4.05231e-17
541 1 40.8498 58.9468 -4.05231e-17
542 1 67.3005 211.448 -4.05231e-17
543 1 147.189 151.862 -4.05231e-17
544 1 129.155 200.689 -4.05231e-17
545 1 7.84517 149.623 -4.05231e-17
546 1 179.219 41.276 -4.05231e-17
547 1 82.7934 172.319 -4.05231e-17
548 1 99.7842 8.55142 -4.05231e-17
549 1 51.6085 76.3307 -4.05231e-17
550 2 162.6 121.57 -4.05231e-17
551 2 134.371 158.001 -4.05231e-17
552 2 93.9925 180.499 -4.05231e-17
553 1 122.608 42.3139 -4.05231e-17
554 1 73.4655 101.675 -4.05231e-17
555 2 65.6353 124.005 -4.05231e-17
556 1 148.384 22.0613 -4.05231e-17
557 1 76.2892 12.7562 -4.05231e-17
558 1 148.015 125.704 -4.05231e-17
559 1 187.847 47.506 -4.05231e-17
560 1 131.273 51.2581 -4.05231e-17
561 1 146.629 168.647 -4.05231e-17
562 1 195.682 144.538 -4.05231e-17
563 2 167.85 113.963 -4.05231e-17
564 1 41.6998 67.1883 -4.05231e-17
565 1 60.1164 10.6587 -4.05231e-17
566 1 75.6239 34.3199 -4.05231e-17
567 1 150.282 110.903 -4.05231e-17
568 1 21.9281 114.64 -4.05231e-17
569 1 114.619 185.252 -4.05231e-17
570 1 124.876 124.135 -4.05231e-17
571 1 175.536 203.701 -4.05231e-17
572 1 61.2831 112.186 -4.05231e-17
573 1 177.558 76.4439 -4.05231e-17
574 1 41.639 130.317 -4.05231e-17
575 1 21.6414 76.3245 -4.05231e-17
576 1 196.095 98.7006 -4.05231e-17
577 1 202.872 33.1881 -4.05231e-17
578 1 123.195 197.001 -4.05231e-17
579 1 15.9487 166.709 -4.05231e-17
580 1 102.981 139.073 -4.05231e-17
581 1 141.102 154.406 -4.05231e-17
582 1 76.1089 78.9492 -4.05231e-17
583 1 162.343 185.948 -4.05231e-17
584 2 28.855 117.671 -4.05231e-17
585 1 48.7261 198.891 -4.05231e-17
586 1 137.984 170.987 -4.05231e-17
587 1 99.4287 104.6 -4.05231e-17
588 1 17.3653 1.88682 -4.05231e-17
589 1 103.342 17.4803 -4.05231e-17
590 1 70.087 218.991 -4.05231e-17
591 1 215.505 162.188 -4.05231e-17
592 1 55.9712 156.464 -4.05231e-17
593 1 209.785 181.543 -4.05231e-17
594 1 181.618 181.038 -4.05231e-17
595 1 83.0767 39.6084 -4.05231e-17
596 1 66.1324 36.1229 -4.05231e-17
597 2 180.479 204.393 -4.05231e-17
598 1 167.202 211.548 -4.05231e-17
599 1 208.03 171.388 -4.05231e-17
600 1 104.678 10.5399 -4.05231e-17
601 1 11.9233 134.87 -4.05231e-17
602 1 98.1327 31.1031 -4.05231e-17
603 1 208.028 202.762 -4.05231e-17
604 1 120.847 1.24881 -4.05231e-17
605 2 85.3867 77.3989 -4.05231e-17
606 1 103.068 202.002 -4.05231e-17
607 2 171.715 146.665 -4.05231e-17
608 1 95.0394 76.6293 -4.05231e-17
609 1 16.1188 6.25917 -4.05231e-17
610 1 214.221 150.316 -4.05231e-17
611 1 201.983 190.26 -4.05231e-17
612 1 218.079 37.8883 -4.05231e-17
613 1 59.091 151.149 -4.05231e-17
614 2 128.095 179.557 -4.05231e-17
615 1 105.577 18.4716 -4.05231e-17
616 1 202.379 130.4 -4.05231e-17
617 1 127.512 198.679 -4.05231e-17
618 1 201.645 212.366 -4.05231e-17
619 1 179.452 78.1408 -4.05231e-17
620 1 140.877 142.058 -4.05231e-17
621 1 196.999 93.7381 -4.05231e-17
622 1 95.3925 213.719 -4.05231e-17
623 1 218.82 12.0635 -4.05231e-17
624 1 24.0137 209.219 -4.05231e-17
625 1 204.796 154.929 -4.05231e-17
626 1 94.2422 191.281 -4.05231e-17
627 1 64.1022 74.2037 -4.05231e-17
628 1 34.657 28.4645 -4.05231e-17
629 1 10.0558 94.9217 -4.05231e-17
630 2 151.261 22.0616 -4.05231e-17
631 1 15.5207 86.5491 -4.05231e-17
632 1 49.408 92.2911 -4.05231e-17
633 1 38.8028 211.564 -4.05231e-17
634 1 1.27208 147.496 -4.05231e-17
635 1 154.786 150.686 -4.05231e-17
636 1 208.159 57.5604 -4.05231e-17
637 1 201.186 58.3552 -4.05231e-17
638 1 172.973 76.6881 -4.05231e-17
639 2 203.892 78.5 -4.05231e-17
640 1 143.091 152.474 -4.05231e-17
641 1 192.858 85.327 -4.05231e-17
642 1 31.7105 91.3155 -4.05231e-17
643 2 181.841 42.8653 -4.05231e-17
644 1 68.4815 155.452 -4.05231e-17
645 1 106.907 196.482 -4.05231e-17
646 2 211.831 141.301 -4.05231e-17
647 1 11.3227 185.141 -4.05231e-17
648 1 132.339 103.294 -4.05231e-17
649 2 23.6886 151.064 -4.05231e-17
650 1 204.611 186.561 -4.05231e-17
651 1 218.253 113.383 -4.05231e-17
652 1 153.318 44.0437 -4.05231e-17
653 1 114.639 175.615 -4.05231e-17
654 1 23.4196 21.5019 -4.05231e-17
655 2 183.616 101.18 -4.05231e-17
656 1 30.3686 125.084 -4.05231e-17
657 2 79.5275 207.185 -4.05231e-17
658 1 54.0984 44.3486 -4.05231e-17
659 2 156.654 192.755 -4.05231e-17
660 1 101.979 55.5456 -4.05231e-17
661 1 42.5 116.491 -4.05231e-17
662 1 81.6751 130.506 -4.05231e-17
663 1 31.7755 25.5425 -4.05231e-17
664 1 146.477 18.3263 -4.05231e-17
665 1 139.908 75.3216 -4.05231e-17
666 2 48.0786 180.944 -4.05231e-17
667 1 93.0775 99.2708 -4.05231e-17
668 2 102.038 93.405 -4.05231e-17
669 1 36.4289 17.4043 -4.05231e-17
670 1 96.4517 173.725 -4.05231e-17
671 2 53.9637 176.371 -4.05231e-17
672 1 186.807 12.0826 -4.05231e-17
673 1 63.4216 19.6824 -4.05231e-17
674 1 2.35708 31.6592 -4.05231e-17
675 1 128.444 23.4639 -4.05231e-17
676 1 169.413 123.946 -4.05231e-17
677 1 131.535 174.98 -4.05231e-17
678 1 137.741 30.7181 -4.05231e-17
679 2 152.23 32.9035 -4.05231e-17
680 1 202.799 41.4522 -4.05231e-17
681 2 129.004 119.224 -4.05231e-17
682 1 0.380751 47.7184 -4.05231e-17
683 1 68.4902 4.18237 -4.05231e-17
684 1 120.03 154.823 -4.05231e-17
685 1 152.749 38.725 -4.05231e-17
686 1 28.0175 193.767 -4.05231e-17
687 1 118.51 192.015 -4.05231e-17
688 1 162.698 110.217 -4.05231e-17
689 2 56.3968 46.664 -4.05231e-17
690 1 70.3145 20.1369 -4.05231e-17
691 1 89.3384 66.294 -4.05231e-17
692 1 131.186 8.14461 -4.05231e-17
693 1 48.3063 143.203 -4.05231e-17
694 1 76.0904 125.04 -4.05231e-17
695 1 146.052 38.6478 -4.05231e-17
696 1 146.658 81.2515 -4.05231e-17
697 1 140.184 201.717 -4.05231e-17
698 1 116.771 65.8499 -4.05231e-17
699 1 180.778 191.655 -4.05231e-17
700 1 205.901 209.411 -4.05231e-17
701 1 53.914 16.7058 -4.05231e-17
702 1 113.343 128.733 -4.05231e-17
703 2 188.1 143.923 -4.05231e-17
704 1 29.5377 218.66 -4.05231e-17
705 2 68.9347 112.153 -4.05231e-17
706 1 165.589 177.223 -4.05231e-17
707 1 114.19 24.6901 -4.05231e-17
708 1 84.4625 209.62 -4.05231e-17
709 1 147.463 196.454 -4.05231e-17
710 1 192.428 191.692 -4.05231e-17
711 1 111.514 92.9682 -4.05231e-17
712 1 192.774 208.184 -4.05231e-17
713 1 14.0888 136.161 -4.05231e-17
714 1 136.281 13.0107 -4.05231e-17
715 1 55.962 199.338 -4.05231e-17
716 1 40.2544 123.683 -4.05231e-17
717 1 51.2425 107.624 -4.05231e-17
718 1 131.16 185.339 -4.05231e-17
719 2 119.932 78.7493 -4.05231e-17
720 1 98.9212 64.767 -4.05231e-17
721 1 95.4825 98.4923 -4.05231e-17
722 1 133.736 62.9483 -4.05231e-17
723 2 48.6278 45.6651 -4.05231e-17
724 1 15.4644 49.3623 -4.05231e-17
725 1 29.1483 108.825 -4.05231e-17
726 1 189.858 45.9045 -4.05231e-17
727 1 148.85 205.464 -4.05231e-17
728 2 18.2003 87.6261 -4.05231e-17
729 1 133.8 165.151 -4.05231e-17
730 1 174.668 199.222 -4.05231e-17
731 1 49.0997 190.145 -4.05231e-17
732 1 218.664 9.56753 -4.05231e-17
733 1 205.464 33.9925 -4.05231e-17
734 1 4.18675 29.9277 -4.05231e-17
735 1 41.0098 23.3983 -4.05231e-17
736 2 190.523 74.3263 -4.05231e-17
737 1 81.3889 86.4397 -4.05231e-17
738 1 19.9799 165.579 -4.05231e-17
739 1 105.83 156.308 -4.05231e-17
740 1 59.8164 116.447 -4.05231e-17
741 2 189.122 78.2148 -4.05231e-17
742 1 74.63 43.7718 -4.05231e-17
743 1 202.9 66.4144 -4.05231e-17
744 2 210.821 172.602 -4.05231e-17
745 1 131.01 31.954 -4.05231e-17
746 1 14.4471 29.39 -4.05231e-17
747 2 204.413 22.1329 -4.05231e-17
748 1 183.034 193.026 -4.05231e-17
749 1 196.519 211.308 -4.05231e-17
750 1 213.11 163.425 -4.05231e-17
751 1 59.7911 58.7958 -4.05231e-17
752 1 177.878 106.122 -4.05231e-17
753 1 99.0877 150.652 -4.05231e-17
754 1 15.0568 215.51 -4.05231e-17
755 1 83.3207 194.937 -4.05231e-17
756 2 103.853 195.692 -4.05231e-17
757 1 27.5521 18.4265 -4.05231e-17
758 1 135.397 146.393 -4.05231e-17
759 1 72.7569 107.311 -4.05231e-17
760 1 95.3315 39.903 -4.05231e-17
761 1 58.2511 161.124 -4.05231e-17
762 1 43.5819 23.9189 -4.05231e-17
763 1 113.942 99.4554 -4.05231e-17
764 2 177.661 147.834 -4.05231e-17
765 1 92.0437 62.5274 -4.05231e-17
766 1 114.417 35.8642 -4.05231e-17
767 1 97.2266 78.2986 -4.05231e-17
768 1 9.98927 3.83837 -4.05231e-17
769 1 108.059 75.4546 -4.05231e-17
770 2 113.496 109.744 -4.05231e-17
771 1 143.689 178.95 -4.05231e-17
772 1 102.103 28.2564 -4.05231e-17
773 1 109.408 167.408 -4.05231e-17
774 1 111.205 123.859 -4.05231e-17
775 1 68.8745 6.78742 -4.05231e-17
776 1 38.0835 10.9598 -4.05231e-17
777 1 108.224 181.907 -4.05231e-17
778 1 22.8116 18.9076 -4.05231e-17
779 1 191.881 44.3598 -4.05231e-17
780 1 3.73541 169.079 -4.05231e-17
781 1 127.122 99.9895 -4.05231e-17
782 1 175.438 49.2512 -4.05231e-17
783 1 98.3203 15.3918 -4.05231e-17
784 2 194.726 159.175 -4.05231e-17
785 1 111.07 165.401 -4.05231e-17
786 1 119.409 177.088 -4.05231e-17
787 1 185.496 74.9457 -4.05231e-17
788 1 177.015 45.0642 -4.05231e-17
789 2 142.898 109.003 -4.05231e-17
790 1 109.991 28.3288 -4.05231e-17
791 2 14.5276 121.68 -4.05231e-17
792 2 216.016 13.2337 -4.05231e-17
793 2 115.95 68.7062 -4.05231e-17
794 1 56.3072 188.667 -4.05231e-17
795 1 132.161 53.5231 -4.05231e-17
796 1 130.77 21.9285 -4.05231e-17
797 1 197.712 155.457 -4.05231e-17
798 2 196.023 204.033 -4.05231e-17
799 2 207.775 64.8307 -4.05231e-17
800 2 55.4795 217.84 -4.05231e-17
801 1 103.041 132.01 -4.05231e-17
802 1 124.555 75.7894 -4.05231e-17
803 1 182.071 68.6428 -4.05231e-17
804 2 123.025 205.156 -4.05231e-17
805 1 44.3639 106.791 -4.05231e-17
806 1 11.606 117.022 -4.05231e-17
807 2 100.248 99.0446 -4.05231e-17
808 1 14.3608 116.817 -4.05231e-17
809 2 57.6091 134.21 -4.05231e-17
810 1 130.114 198.206 -4.05231e-17
811 1 33.0055 5.71219 -4.05231e-17
812 1 132.016 34.3624 -4.05231e-17
813 2 107.619 110.692 -4.05231e-17
814 1 147.279 69.2086 -4.05231e-17
815 1 89.0765 164.53 -4.05231e-17
816 1 200.771 9.93913 -4.05231e-17
817 1 108.113 214.743 -4.05231e-17
818 1 57.0005 101.771 -4.05231e-17
819 1 9.60676 136.114 -4.05231e-17
820 1 45.2848 120.357 -4.05231e-17
821 1 94.4441 151.821 -4.05231e-17
822 2 41.5201 135.823 -4.05231e-17
823 2 139.098 91.8557 -4.05231e-17
824 1 34.2614 108.151 -4.05231e-17
825 1 65.1625 15.3969 -4.05231e-17
826 1 190.591 13.9732 -4.05231e-17
827 1 192.686 107.475 -4.05231e-17
828 1 142.364 123.683 -4.05231e-17
829 1 127.44 211.032 -4.05231e-17
830 1 81.4811 127.829 -4.05231e-17
831 1 217.428 42.7026 -4.05231e-17
832 1 93.1776 87.0078 -4.05231e-17
833 1 61.9289 84.5607 -4.05231e-17
834 1 106.778 9.00327 -4.05231e-17
835 1 58.1709 218.556 -4.05231e-17
836 1 11.0323 50.3274 -4.05231e-17
837 1 6.89526 70.7804 -4.05231e-17
838 1 98.3628 178.502 -4.05231e-17
839 2 198.411 3.48386 -4.05231e-17
840 1 4.83187 202.536 -4.05231e-17
841 2 63.1124 185.03 -4.05231e-17
842 1 94.7028 91.2705 -4.05231e-17
843 2 159.413 182.831 -4.05231e-17
844 1 26.44 158.863 -4.05231e-17
845 1 71.3934 189.2 -4.05231e-17
846 1 159.157 190.929 -4.05231e-17
847 1 41.7062 141.052 -4.05231e-17
848 1 188.204 117.465 -4.05231e-17
849 1 189.344 166.774 -4.05231e-17
850 1 39.3742 129.364 -4.05231e-17
851 1 89.6909 37.6117 -4.05231e-17
852 1 12.0581 209.128 -4.05231e-17
853 1 31.7497 138.932 -4.05231e-17
854 1 171.255 84.7188 -4.05231e-17
855 1 125.992 19.6999 -4.05231e-17
856 1 210.048 169.98 -4.05231e-17