units           metal
boundary        p p p
atom_style      atomic
read_data      ../../restart/T${T}.dat
read_data      ../../restart/T400.dat
Reading data file ...
ERROR on proc 0: Cannot open file ../../restart/T400.dat: No such file or directory (../read_data.cpp:1965)
