units           metal
boundary        p p p
atom_style      atomic
read_data      ../../restart/T${T}.dat
read_data      ../../restart/T570.dat
Reading data file ...
  orthogonal box = (-2.4500345 -2.4500345 -2.4500345) to (80.284812 80.284812 80.284812)
  2 by 4 by 13 MPI processor grid
  reading atoms ...
  32000 atoms
  reading velocities ...
  32000 velocities
  read_data CPU = 0.269 seconds
pair_style      eam/alloy
pair_coeff      * *  ../../ZrCu.lammps.eam Zr Cu
mass 1 91.224
mass 2 63.546
neighbor            2.0 bin
neigh_modify     delay 1
timestep 0.01
thermo 1000000
reset_timestep 0
thermo_style custom step temp pe etotal press vol lx ly lz
fix             1 all nvt temp ${T} ${T} 0.1
fix             1 all nvt temp 570 ${T} 0.1
fix             1 all nvt temp 570 570 0.1
thermo_modify flush yes
fix nodrift all momentum 1  linear 1 1 1
fix com_seed all recenter INIT INIT INIT shift all
fix dsf all deform 1 x  wiggle 1.0  1000000.0 y volume z volume units box
fix ps1 all ave/time 1 1 1000000 c_thermo_press[1] c_thermo_press[2]  c_thermo_press[3] c_thermo_press[4]  c_thermo_press[5] c_thermo_press[6]  file  stress.${T}
fix ps1 all ave/time 1 1 1000000 c_thermo_press[1] c_thermo_press[2]  c_thermo_press[3] c_thermo_press[4]  c_thermo_press[5] c_thermo_press[6]  file  stress.570
dump            1 all custom 100000000 dump.${T} id type x y z
dump            1 all custom 100000000 dump.570 id type x y z
dump_modify 1 sort id
run 1000000000
Neighbor list info ...
  update every 1 steps, delay 1 steps, check yes
  max neighbors/atom: 2000, page size: 100000
  master list distance cutoff = 8.5
  ghost atom cutoff = 8.5
  binsize = 4.25, bins = 20 20 20
  1 neighbor lists, perpetual/occasional/extra = 1 0 0
  (1) pair eam/alloy/intel, perpetual
      attributes: half, newton on, intel
      pair build: half/bin/newton/intel
      stencil: half/bin/3d/newton
      bin: intel
Per MPI rank memory allocation (min/avg/max) = 7.306 | 7.468 | 7.591 Mbytes
Step Temp PotEng TotEng Press Volume Lx Ly Lz 
       0    569.58912   -157414.98   -155059.05    72.323311    566324.56    82.734847    82.734847    82.734847 
 1000000    573.11059   -157371.89   -155001.39    430.01299    566324.56    82.797637    82.703469    82.703469 
 2000000    572.82478   -157357.19   -154987.88    494.71959    566324.56     82.86018    82.672251    82.672251 
 3000000    571.05564   -157352.87   -154990.87    618.10779    566324.56    82.922228    82.641315    82.641315 
 4000000    568.51837   -157374.37   -155022.87    438.95311    566324.56    82.983536    82.610781    82.610781 
 5000000    569.53116   -157377.65   -155021.96    422.97148    566324.56    83.043864     82.58077     82.58077 
 6000000    571.13302   -157354.81    -154992.5    413.34019    566324.56    83.102971    82.551396    82.551396 
 7000000    567.23605   -157376.19   -155029.99    377.55605    566324.56    83.160626    82.522775    82.522775 
 8000000    572.48564    -157351.6   -154983.69    533.99244    566324.56      83.2166    82.495017    82.495017 
 9000000    572.73917   -157344.24   -154975.27    685.29034    566324.56    83.270673    82.468228    82.468228 
10000000    575.04454   -157356.25   -154977.75    576.17041    566324.56    83.322632    82.442511    82.442511 
11000000    571.92215   -157356.89   -154991.31    596.67291    566324.56    83.372271    82.417964    82.417964 
12000000    574.33068   -157371.73   -154996.19    392.66692    566324.56    83.419394    82.394682    82.394682 
13000000    568.39046   -157349.26   -154998.29    542.18569    566324.56    83.463815    82.372753    82.372753 
14000000    565.72107   -157378.69   -155038.76    364.77487    566324.56     83.50536     82.35226     82.35226 
15000000    568.91537   -157354.18   -155001.04    544.87163    566324.56    83.543864    82.333281    82.333281 
16000000     570.8593   -157374.65   -155013.47    376.60552    566324.56    83.579174    82.315887    82.315887 
17000000    571.20589   -157345.97   -154983.35    550.07262    566324.56    83.611153    82.300143    82.300143 
18000000    566.08296   -157341.29   -154999.86    382.58336    566324.56    83.639674     82.28611     82.28611 
19000000    569.50562   -157343.99   -154988.41    562.37647    566324.56    83.664623     82.27384     82.27384 
20000000    572.33086   -157364.74   -154997.47    506.61694    566324.56    83.685903    82.263379    82.263379 
21000000    565.07672   -157359.95   -155022.68    517.66167    566324.56     83.70343    82.254766    82.254766 
22000000    569.05252   -157349.09   -154995.37    615.30088    566324.56    83.717134    82.248034    82.248034 
23000000    568.45373    -157348.5   -154997.27    529.21047    566324.56    83.726961    82.243206    82.243206 
24000000    570.34226   -157367.44   -155008.39    454.66764    566324.56    83.732873    82.240303    82.240303 
25000000    576.03245   -157339.95   -154957.37     677.5342    566324.56    83.734847    82.239334    82.239334 
26000000    571.14674   -157342.47    -154980.1    537.36443    566324.56    83.732873    82.240303    82.240303 
27000000    566.69958   -157345.35   -155001.37    525.79646    566324.56    83.726961    82.243206    82.243206 
28000000    575.67695   -157358.75   -154977.64    541.70988    566324.56    83.717134    82.248034    82.248034 
29000000    568.18803   -157356.22   -155006.09    447.45674    566324.56     83.70343    82.254766    82.254766 
30000000    568.62051   -157350.27   -154998.34    432.59644    566324.56    83.685903    82.263379    82.263379 
31000000    569.27179   -157354.34   -154999.72    545.88934    566324.56    83.664623     82.27384     82.27384 
32000000    567.14299   -157333.66   -154987.85    600.41367    566324.56    83.639674     82.28611     82.28611 
33000000     571.2195   -157350.69   -154988.01     511.2004    566324.56    83.611153    82.300143    82.300143 
34000000    568.67017   -157359.06   -155006.93    483.63664    566324.56    83.579174    82.315887    82.315887 
35000000    567.02089   -157349.93   -155004.62    522.79031    566324.56    83.543864    82.333281    82.333281 
36000000    573.85494    -157354.2   -154980.63    468.14817    566324.56     83.50536     82.35226     82.35226 
37000000    572.57901   -157361.77   -154993.47    458.73782    566324.56    83.463815    82.372753    82.372753 
38000000    564.59954   -157346.73   -155011.44    665.80169    566324.56    83.419394    82.394682    82.394682 
39000000    567.88391   -157361.99   -155013.11     409.7086    566324.56    83.372271    82.417964    82.417964 
40000000    569.64768   -157347.09   -154990.92    721.10811    566324.56    83.322632    82.442511    82.442511 
41000000    569.64854   -157360.77    -155004.6    444.32678    566324.56    83.270673    82.468228    82.468228 
42000000    570.05475   -157389.57   -155031.71    218.82719    566324.56      83.2166    82.495017    82.495017 
43000000    568.45118   -157370.05   -155018.83    499.10178    566324.56    83.160626    82.522775    82.522775 
44000000    571.74713   -157347.25   -154982.39    524.57636    566324.56    83.102971    82.551396    82.551396 
45000000    567.24422   -157344.22   -154997.98    510.66787    566324.56    83.043864     82.58077     82.58077 
46000000    574.12934   -157364.88   -154990.17    639.97816    566324.56    82.983536    82.610781    82.610781 
47000000    571.62847   -157382.03   -155017.66    422.48204    566324.56    82.922228    82.641315    82.641315 
48000000    573.04956   -157373.93   -155003.69    495.00751    566324.56     82.86018    82.672251    82.672251 
49000000    568.31668   -157387.35   -155036.68    325.10253    566324.56    82.797637    82.703469    82.703469 
50000000    565.09319   -157362.36   -155025.03     489.9723    566324.56    82.734847    82.734847    82.734847 
51000000    570.83704   -157374.03   -155012.94    414.90765    566324.56    82.672056     82.76626     82.76626 
52000000    570.90242   -157360.85   -154999.48    584.37495    566324.56    82.609513    82.797584    82.797584 
53000000    570.05796   -157377.65   -155019.78    461.40925    566324.56    82.547465    82.828697    82.828697 
54000000    572.39952   -157368.42   -155000.86    495.23298    566324.56    82.486157    82.859473    82.859473 
55000000    566.46624   -157365.37   -155022.36    562.68276    566324.56     82.42583    82.889789    82.889789 
56000000     569.5337   -157379.22   -155023.51    275.18538    566324.56    82.366722    82.919525    82.919525 
57000000     571.2256   -157350.58   -154987.88    593.40461    566324.56    82.309067    82.948561    82.948561 
58000000    572.33394   -157378.66   -155011.37    507.71027    566324.56    82.253093     82.97678     82.97678 
59000000    569.65641   -157373.94   -155017.73    463.76035    566324.56     82.19902    83.004068    83.004068 
60000000    571.68798   -157367.57   -155002.96     455.8114    566324.56    82.147061    83.030314    83.030314 
61000000    570.02718   -157353.89   -154996.15     712.2295    566324.56    82.097423    83.055412    83.055412 
62000000    568.71189   -157359.82   -155007.51    499.67244    566324.56    82.050299    83.079259    83.079259 
63000000    569.91895   -157356.51   -154999.21     421.1128    566324.56    82.005878    83.101757    83.101757 
64000000    571.43203   -157367.69   -155004.14    401.48123    566324.56    81.964333    83.122815    83.122815 
65000000    568.44611   -157353.26   -155002.06     567.6893    566324.56     81.92583    83.142346    83.142346 
66000000    572.13006   -157359.83   -154993.39    451.26968    566324.56    81.890519    83.160269    83.160269 
67000000    570.03253   -157340.41   -154982.64    442.25595    566324.56     81.85854    83.176512    83.176512 
68000000    572.44387      -157362   -154994.26    511.72052    566324.56    81.830019    83.191005    83.191005 
69000000    565.01364   -157343.89   -155006.88    470.69554    566324.56     81.80507     83.20369     83.20369 
70000000    573.48638   -157333.35    -154961.3    626.55465    566324.56     81.78379    83.214514    83.214514 
71000000    570.33613   -157344.51   -154985.49     416.9551    566324.56    81.766263    83.223432    83.223432 
72000000    571.90274   -157364.03   -154998.53     253.0115    566324.56    81.752559    83.230407    83.230407 
73000000    573.38133   -157367.12    -154995.5    328.34105    566324.56    81.742732     83.23541     83.23541 
74000000    569.35698   -157361.17    -155006.2    437.86443    566324.56     81.73682     83.23842     83.23842 
75000000     569.8144   -157352.16    -154995.3      646.738    566324.56    81.734847    83.239425    83.239425 
76000000    565.59006   -157365.34   -155025.95    348.87274    566324.56     81.73682     83.23842     83.23842 
77000000    563.57862   -157367.13   -155036.06     291.2674    566324.56    81.742732     83.23541     83.23541 
78000000    572.32836   -157361.07   -154993.81    589.42507    566324.56    81.752559    83.230407    83.230407 
79000000    566.84817   -157342.73   -154998.14    596.05041    566324.56    81.766263    83.223432    83.223432 
80000000    570.08184   -157354.89   -154996.92    430.49048    566324.56     81.78379    83.214514    83.214514 
81000000     569.5093   -157345.81   -154990.21    604.68237    566324.56     81.80507     83.20369     83.20369 
82000000    570.48099   -157344.04   -154984.42    499.28821    566324.56    81.830019    83.191005    83.191005 
83000000    568.20994   -157373.14   -155022.91    327.98835    566324.56     81.85854    83.176512    83.176512 
84000000    570.70346   -157357.55   -154997.01     459.6907    566324.56    81.890519    83.160269    83.160269 
85000000    567.97794   -157376.08   -155026.82    246.89228    566324.56     81.92583    83.142346    83.142346 
86000000    576.06741   -157355.27   -154972.55    527.03923    566324.56    81.964333    83.122815    83.122815 
87000000     569.8532   -157360.04   -155003.02    361.22067    566324.56    82.005878    83.101757    83.101757 
88000000     569.8037   -157366.25   -155009.43    180.46091    566324.56    82.050299    83.079259    83.079259 
89000000    571.26825   -157368.75   -155005.87    453.94591    566324.56    82.097423    83.055412    83.055412 
90000000    566.40557   -157341.52   -154998.75    354.50931    566324.56    82.147061    83.030314    83.030314 
91000000    565.30114   -157380.54   -155042.34    109.46258    566324.56     82.19902    83.004068    83.004068 
92000000    568.97185   -157379.26   -155025.88     175.0496    566324.56    82.253093     82.97678     82.97678 
93000000    574.78899    -157367.3   -154989.86    445.74557    566324.56    82.309067    82.948561    82.948561 
94000000    566.46787   -157366.71   -155023.69    319.40646    566324.56    82.366722    82.919525    82.919525 
95000000    571.70068   -157359.97    -154995.3    350.70005    566324.56     82.42583    82.889789    82.889789 
96000000    569.74323   -157361.54   -155004.98     490.4516    566324.56    82.486157    82.859473    82.859473 
97000000    565.53596   -157374.25   -155035.08    404.64381    566324.56    82.547465    82.828697    82.828697 
98000000    569.04075   -157388.57   -155034.91    237.88642    566324.56    82.609513    82.797584    82.797584 
99000000    569.07742   -157366.16   -155012.34    432.60947    566324.56    82.672056     82.76626     82.76626 
100000000    569.49132    -157366.4   -155010.87    342.52188    566324.56    82.734847    82.734847    82.734847 
101000000    572.79384   -157379.17   -155009.98    407.19634    566324.56    82.797637    82.703469    82.703469 
102000000    570.79161   -157372.32   -155011.41     468.4678    566324.56     82.86018    82.672251    82.672251 
103000000    568.07789   -157357.14   -155007.45    391.02622    566324.56    82.922228    82.641315    82.641315 
104000000    569.71025   -157367.52   -155011.09    258.52404    566324.56    82.983536    82.610781    82.610781 
105000000    569.76563   -157346.37   -154989.71    437.73564    566324.56    83.043864     82.58077     82.58077 
106000000    571.82324   -157362.98    -154997.8     407.3945    566324.56    83.102971    82.551396    82.551396 
107000000    569.27736   -157360.71   -155006.07    568.89033    566324.56    83.160626    82.522775    82.522775 
108000000    572.01766   -157387.58    -155021.6    124.47747    566324.56      83.2166    82.495017    82.495017 
109000000    570.56208   -157377.79   -155017.83    297.27008    566324.56    83.270673    82.468228    82.468228 
110000000    573.32362   -157387.44   -155016.06    233.05561    566324.56    83.322632    82.442511    82.442511 
111000000    573.01696   -157364.63   -154994.52    318.91469    566324.56    83.372271    82.417964    82.417964 
112000000    568.89651   -157369.65   -155016.59    286.45052    566324.56    83.419394    82.394682    82.394682 
113000000     570.6479   -157373.16   -155012.85    256.45633    566324.56    83.463815    82.372753    82.372753 
114000000    569.07831   -157356.91   -155003.09    520.06517    566324.56     83.50536     82.35226     82.35226 
115000000    563.70696   -157362.33   -155030.73    455.73274    566324.56    83.543864    82.333281    82.333281 
116000000    567.46757    -157337.4   -154990.24    636.69292    566324.56    83.579174    82.315887    82.315887 
117000000    566.51551   -157347.73   -155004.51    429.76846    566324.56    83.611153    82.300143    82.300143 
118000000     569.2151   -157372.92   -155018.53    354.05158    566324.56    83.639674     82.28611     82.28611 
119000000    567.25552   -157367.14   -155020.86    288.38293    566324.56    83.664623     82.27384     82.27384 
120000000    567.99216   -157356.03    -155006.7    408.15962    566324.56    83.685903    82.263379    82.263379 
121000000    567.60368   -157350.34   -155002.62    507.93971    566324.56     83.70343    82.254766    82.254766 
122000000    567.52661   -157345.41   -154998.01    342.96283    566324.56    83.717134    82.248034    82.248034 
123000000    569.88507    -157361.8   -155004.64    486.64294    566324.56    83.726961    82.243206    82.243206 
124000000    570.82895   -157361.98   -155000.92    378.37957    566324.56    83.732873    82.240303    82.240303 
125000000    568.15791   -157350.94   -155000.93    485.08434    566324.56    83.734847    82.239334    82.239334 
126000000    572.70927   -157345.65   -154976.82    561.16563    566324.56    83.732873    82.240303    82.240303 
127000000    574.46159   -157357.27   -154981.18     349.2245    566324.56    83.726961    82.243206    82.243206 
128000000     574.0784   -157358.55   -154984.04     460.0506    566324.56    83.717134    82.248034    82.248034 
129000000    567.47459   -157368.72   -155021.53    361.92456    566324.56     83.70343    82.254766    82.254766 
130000000    563.41443   -157355.43   -155025.04    417.70423    566324.56    83.685903    82.263379    82.263379 
131000000    570.95439   -157357.65   -154996.07      347.803    566324.56    83.664623     82.27384     82.27384 
132000000    573.58626   -157365.84   -154993.37    518.99191    566324.56    83.639674     82.28611     82.28611 
133000000    569.38609   -157369.56   -155014.46    368.81102    566324.56    83.611153    82.300143    82.300143 
134000000    570.44794   -157370.95   -155011.47    385.60854    566324.56    83.579174    82.315887    82.315887 
135000000    569.13781   -157358.94   -155004.88    264.48952    566324.56    83.543864    82.333281    82.333281 
136000000    570.99258   -157363.54    -155001.8    295.09747    566324.56     83.50536     82.35226     82.35226 
137000000     566.2058   -157371.61   -155029.67    413.87146    566324.56    83.463815    82.372753    82.372753 
138000000    569.84085   -157367.59   -155010.62    410.90153    566324.56    83.419394    82.394682    82.394682 
139000000    569.75721   -157384.27   -155027.64    289.68036    566324.56    83.372271    82.417964    82.417964 
140000000    569.75902   -157380.25   -155023.61    220.11849    566324.56    83.322632    82.442511    82.442511 
141000000    569.12432   -157370.76   -155016.75    388.18005    566324.56    83.270673    82.468228    82.468228 
142000000    572.58683    -157393.8   -155025.46    203.45913    566324.56      83.2166    82.495017    82.495017 
143000000    567.28101   -157388.28    -155041.9    143.74421    566324.56    83.160626    82.522775    82.522775 
144000000    575.96866   -157357.33   -154975.01    542.09571    566324.56    83.102971    82.551396    82.551396 
145000000    567.79383   -157387.54   -155039.04    249.59529    566324.56    83.043864     82.58077     82.58077 
146000000     568.3668   -157375.87      -155025    357.38338    566324.56    82.983536    82.610781    82.610781 
147000000    571.51344   -157378.97   -155015.08    361.87552    566324.56    82.922228    82.641315    82.641315 
148000000    574.57321   -157387.32   -155010.78    257.24024    566324.56     82.86018    82.672251    82.672251 
149000000    567.68292   -157370.09   -155022.04    241.06008    566324.56    82.797637    82.703469    82.703469 
150000000    572.84183   -157383.06   -155013.67    322.29881    566324.56    82.734847    82.734847    82.734847 
151000000    570.30382   -157366.37   -155007.48    459.41229    566324.56    82.672056     82.76626     82.76626 
152000000     571.1685    -157405.4   -155042.94    156.89682    566324.56    82.609513    82.797584    82.797584 
153000000    572.68551   -157399.97   -155031.24    68.735619    566324.56    82.547465    82.828697    82.828697 
154000000    571.07523   -157382.85   -155020.77    301.42645    566324.56    82.486157    82.859473    82.859473 
155000000    567.49967   -157386.92   -155039.63    104.91525    566324.56     82.42583    82.889789    82.889789 
156000000    574.60514   -157383.62   -155006.94    252.42405    566324.56    82.366722    82.919525    82.919525 
157000000    568.03899   -157371.22    -155021.7     427.4831    566324.56    82.309067    82.948561    82.948561 
158000000    568.27464   -157385.93   -155035.43    263.74891    566324.56    82.253093     82.97678     82.97678 
159000000    570.71127   -157356.36   -154995.78    304.92219    566324.56     82.19902    83.004068    83.004068 
160000000    569.78773   -157379.12   -155022.37    286.50782    566324.56    82.147061    83.030314    83.030314 
161000000    572.12026   -157399.67   -155033.27    118.30589    566324.56    82.097423    83.055412    83.055412 
162000000    572.04343   -157366.14   -155000.06    362.30096    566324.56    82.050299    83.079259    83.079259 
163000000    569.91133   -157400.02   -155042.75    239.81003    566324.56    82.005878    83.101757    83.101757 
164000000    568.96486   -157362.78   -155009.43    357.12591    566324.56    81.964333    83.122815    83.122815 
165000000        572.4   -157371.54   -155003.98    382.64521    566324.56     81.92583    83.142346    83.142346 
166000000    573.55398   -157401.67   -155029.34    265.40882    566324.56    81.890519    83.160269    83.160269 
167000000    564.38218   -157371.41   -155037.01    283.14871    566324.56     81.85854    83.176512    83.176512 
168000000    574.22755   -157365.73   -154990.61    551.12742    566324.56    81.830019    83.191005    83.191005 
169000000    569.96733   -157370.21   -155012.71     341.4837    566324.56     81.80507     83.20369     83.20369 
170000000    571.44493   -157360.78   -154997.17    485.62732    566324.56     81.78379    83.214514    83.214514 
171000000    572.39869   -157360.97   -154993.42    485.36949    566324.56    81.766263    83.223432    83.223432 
172000000    571.75473   -157377.12   -155012.23    358.73346    566324.56    81.752559    83.230407    83.230407 
173000000    567.67101   -157355.95   -155007.95    462.70183    566324.56    81.742732     83.23541     83.23541 
174000000    571.13443   -157369.11   -155006.79    517.47233    566324.56     81.73682     83.23842     83.23842 
175000000    571.05696   -157349.65   -154987.64    510.49543    566324.56    81.734847    83.239425    83.239425 
176000000     569.1527   -157383.82    -155029.7    288.04313    566324.56     81.73682     83.23842     83.23842 
177000000     568.8647    -157377.6   -155024.67    433.21349    566324.56    81.742732     83.23541     83.23541 
178000000    571.07675   -157369.62   -155007.53     513.7505    566324.56    81.752559    83.230407    83.230407 
179000000    573.18426   -157355.37   -154984.56    650.16193    566324.56    81.766263    83.223432    83.223432 
180000000    567.03469   -157365.85   -155020.48    442.05407    566324.56     81.78379    83.214514    83.214514 
181000000    568.81285   -157362.26   -155009.54    415.35197    566324.56     81.80507     83.20369     83.20369 
182000000    569.17512   -157352.88   -154998.66    594.24533    566324.56    81.830019    83.191005    83.191005 
183000000    568.50713   -157359.16    -155007.7    471.69978    566324.56     81.85854    83.176512    83.176512 
184000000    570.52153   -157363.07   -155003.28    437.86429    566324.56    81.890519    83.160269    83.160269 
185000000    569.93415   -157371.39   -155014.03    406.95378    566324.56     81.92583    83.142346    83.142346 
186000000    567.54189   -157365.33   -155017.87    359.21833    566324.56    81.964333    83.122815    83.122815 
187000000    571.11335    -157373.4   -155011.16    442.97659    566324.56    82.005878    83.101757    83.101757 
188000000    571.50015   -157400.48   -155036.64    129.92435    566324.56    82.050299    83.079259    83.079259 
189000000     568.7142   -157375.33   -155023.02    353.88398    566324.56    82.097423    83.055412    83.055412 
190000000    571.79662   -157384.11   -155019.05    310.38866    566324.56    82.147061    83.030314    83.030314 
191000000    568.12505   -157367.89   -155018.02    415.88637    566324.56     82.19902    83.004068    83.004068 
192000000    567.57875   -157394.25   -155046.63    225.68035    566324.56    82.253093     82.97678     82.97678 
193000000    572.48094   -157371.21   -155003.32    455.09333    566324.56    82.309067    82.948561    82.948561 
194000000    570.02879   -157367.47   -155009.72     403.9519    566324.56    82.366722    82.919525    82.919525 
195000000    569.26953   -157392.28   -155037.67    270.62188    566324.56     82.42583    82.889789    82.889789 
196000000    566.86904   -157378.25   -155033.57    319.67662    566324.56    82.486157    82.859473    82.859473 
197000000    569.64118   -157390.32   -155034.18    231.46712    566324.56    82.547465    82.828697    82.828697 
198000000    573.50737   -157394.73   -155022.59    310.50006    566324.56    82.609513    82.797584    82.797584 
199000000    572.94803   -157389.27   -155019.44     284.9526    566324.56    82.672056     82.76626     82.76626 
200000000    572.76423   -157390.64   -155021.58    286.43727    566324.56    82.734847    82.734847    82.734847 
201000000    565.72187   -157391.35   -155051.41    292.66988    566324.56    82.797637    82.703469    82.703469 
202000000    570.87382   -157380.34   -155019.09     328.7776    566324.56     82.86018    82.672251    82.672251 
203000000    568.86898    -157384.4   -155031.45    224.11808    566324.56    82.922228    82.641315    82.641315 
204000000    571.39216   -157382.61   -155019.22    411.99989    566324.56    82.983536    82.610781    82.610781 
205000000    572.20097   -157367.28   -155000.54    490.04981    566324.56    83.043864     82.58077     82.58077 
206000000    576.22632   -157376.72   -154993.34    351.77599    566324.56    83.102971    82.551396    82.551396 
207000000    570.83308   -157364.83   -155003.75    306.20515    566324.56    83.160626    82.522775    82.522775 
208000000    571.96754   -157371.62   -155005.85    430.91313    566324.56      83.2166    82.495017    82.495017 
209000000     568.5014   -157390.53    -155039.1    256.95894    566324.56    83.270673    82.468228    82.468228 
210000000    571.70013   -157404.75   -155040.08    188.72688    566324.56    83.322632    82.442511    82.442511 
211000000     566.7025   -157399.92   -155055.93    163.62478    566324.56    83.372271    82.417964    82.417964 
212000000     565.7667      -157383   -155042.88    349.87254    566324.56    83.419394    82.394682    82.394682 
213000000    568.69967   -157364.97   -155012.72    507.97101    566324.56    83.463815    82.372753    82.372753 
214000000    569.68431   -157398.46   -155042.13    250.70373    566324.56     83.50536     82.35226     82.35226 
215000000    570.08845    -157381.3   -155023.31     347.6295    566324.56    83.543864    82.333281    82.333281 
216000000    567.10739   -157371.95   -155026.29    456.33731    566324.56    83.579174    82.315887    82.315887 
217000000    574.58193   -157390.08    -155013.5    376.55896    566324.56    83.611153    82.300143    82.300143 
218000000     571.9327   -157359.99   -154994.37    450.44562    566324.56    83.639674     82.28611     82.28611 
219000000    569.37545   -157394.41   -155039.36    262.61272    566324.56    83.664623     82.27384     82.27384 
220000000    566.40869   -157383.08   -155040.31    386.15194    566324.56    83.685903    82.263379    82.263379 
221000000    572.09688   -157373.57   -155007.27     446.5216    566324.56     83.70343    82.254766    82.254766 
222000000    565.76057   -157370.53   -155030.43    226.69876    566324.56    83.717134    82.248034    82.248034 
223000000    572.68099   -157369.86   -155001.14    388.97915    566324.56    83.726961    82.243206    82.243206 
224000000    572.50755   -157372.23   -155004.23    426.60176    566324.56    83.732873    82.240303    82.240303 
225000000    567.17442   -157377.79   -155031.84    462.89176    566324.56    83.734847    82.239334    82.239334 
226000000     571.4773   -157405.65   -155041.91    217.10847    566324.56    83.732873    82.240303    82.240303 
227000000    566.11482   -157344.75   -155003.19    582.51976    566324.56    83.726961    82.243206    82.243206 
228000000    569.04806    -157379.9   -155026.21    511.25394    566324.56    83.717134    82.248034    82.248034 
229000000    570.43623   -157375.69   -155016.26     469.7938    566324.56     83.70343    82.254766    82.254766 
230000000    566.34917   -157386.31   -155043.78    411.48114    566324.56    83.685903    82.263379    82.263379 
231000000    568.87016   -157375.08   -155022.12    399.72919    566324.56    83.664623     82.27384     82.27384 
232000000    570.38311   -157362.38   -155003.17      396.343    566324.56    83.639674     82.28611     82.28611 
233000000    573.37612   -157359.56   -154987.97    541.96138    566324.56    83.611153    82.300143    82.300143 
234000000    568.88556   -157380.27   -155027.25    571.28218    566324.56    83.579174    82.315887    82.315887 
235000000     570.5841   -157368.32   -155008.27    460.15593    566324.56    83.543864    82.333281    82.333281 
236000000    569.64271      -157358   -155001.85    485.52963    566324.56     83.50536     82.35226     82.35226 
237000000    575.12579   -157380.65   -155001.81    400.29994    566324.56    83.463815    82.372753    82.372753 
238000000    569.79832   -157403.71   -155046.91    201.96577    566324.56    83.419394    82.394682    82.394682 
239000000    569.73046   -157369.13   -155012.62    580.73227    566324.56    83.372271    82.417964    82.417964 
240000000    568.74599   -157385.49   -155033.05    257.54975    566324.56    83.322632    82.442511    82.442511 
241000000    566.42983   -157377.66   -155034.79    270.15389    566324.56    83.270673    82.468228    82.468228 
242000000    569.90803   -157383.31   -155026.06    422.09236    566324.56      83.2166    82.495017    82.495017 
243000000    571.32201   -157371.53   -155008.43    471.80685    566324.56    83.160626    82.522775    82.522775 
244000000    572.34922   -157390.94    -155023.6    361.30654    566324.56    83.102971    82.551396    82.551396 
245000000    565.04418   -157373.92   -155036.78    456.54566    566324.56    83.043864     82.58077     82.58077 
246000000    571.27435   -157404.68   -155041.77     149.5927    566324.56    82.983536    82.610781    82.610781 
247000000    569.91799   -157405.26   -155047.97    224.08129    566324.56    82.922228    82.641315    82.641315 
248000000    568.34815   -157420.13   -155069.33    187.23471    566324.56     82.86018    82.672251    82.672251 
249000000    571.76335   -157401.61   -155036.68    195.05682    566324.56    82.797637    82.703469    82.703469 
250000000     568.0088   -157382.25   -155032.85    331.58389    566324.56    82.734847    82.734847    82.734847 
251000000    572.50588    -157385.2   -155017.21    349.82699    566324.56    82.672056     82.76626     82.76626 
252000000    572.18265   -157406.68   -155040.02    205.93687    566324.56    82.609513    82.797584    82.797584 
253000000    568.08041   -157387.97   -155038.28    312.97763    566324.56    82.547465    82.828697    82.828697 
254000000    569.41813   -157380.15   -155024.92     346.9778    566324.56    82.486157    82.859473    82.859473 
255000000    570.43016   -157401.21    -155041.8    99.517091    566324.56     82.42583    82.889789    82.889789 
256000000    572.41599   -157402.62   -155034.99    292.81402    566324.56    82.366722    82.919525    82.919525 
257000000    570.00858   -157394.39   -155036.72     234.5784    566324.56    82.309067    82.948561    82.948561 
258000000    568.91532   -157385.06   -155031.92    336.95785    566324.56    82.253093     82.97678     82.97678 
259000000    568.31997   -157396.34   -155045.66    233.56606    566324.56     82.19902    83.004068    83.004068 
260000000    573.57631   -157387.76   -155015.34    312.41522    566324.56    82.147061    83.030314    83.030314 
261000000    569.68899   -157367.95   -155011.61    429.41158    566324.56    82.097423    83.055412    83.055412 
262000000    571.39804   -157365.95   -155002.54    483.16856    566324.56    82.050299    83.079259    83.079259 
263000000    569.76631   -157378.59   -155021.92    297.19771    566324.56    82.005878    83.101757    83.101757 
264000000    570.62702   -157362.52   -155002.29    525.29455    566324.56    81.964333    83.122815    83.122815 
265000000    565.53519   -157372.29   -155033.13    430.88809    566324.56     81.92583    83.142346    83.142346 
266000000     566.6532   -157371.27   -155027.48    398.98742    566324.56    81.890519    83.160269    83.160269 
267000000     570.3786   -157363.69    -155004.5    561.02283    566324.56     81.85854    83.176512    83.176512 
268000000    573.82978   -157376.54   -155003.07     430.3604    566324.56    81.830019    83.191005    83.191005 
269000000    567.39761   -157358.58   -155011.72    498.49992    566324.56     81.80507     83.20369     83.20369 
270000000    566.72026   -157381.25   -155037.19    308.58253    566324.56     81.78379    83.214514    83.214514 
271000000    571.37457   -157383.92    -155020.6    367.73623    566324.56    81.766263    83.223432    83.223432 
272000000    571.78306   -157386.72   -155021.71     404.7753    566324.56    81.752559    83.230407    83.230407 
273000000    568.42816   -157381.96   -155030.83    435.82509    566324.56    81.742732     83.23541     83.23541 
274000000    569.56318   -157374.42    -155018.6    431.56236    566324.56     81.73682     83.23842     83.23842 
275000000    566.75789   -157367.21   -155022.99    532.02004    566324.56    81.734847    83.239425    83.239425 
276000000    572.46161   -157373.08   -155005.27      524.238    566324.56     81.73682     83.23842     83.23842 
277000000    571.18173   -157369.42    -155006.9    440.06382    566324.56    81.742732     83.23541     83.23541 
278000000    567.87327   -157388.77   -155039.94    338.36689    566324.56    81.752559    83.230407    83.230407 
279000000    566.34247   -157373.84   -155031.33    518.20914    566324.56    81.766263    83.223432    83.223432 
280000000    571.06013   -157375.08   -155013.06    554.46024    566324.56     81.78379    83.214514    83.214514 
281000000    568.40352   -157388.93    -155037.9    305.60991    566324.56     81.80507     83.20369     83.20369 
282000000    571.44323   -157379.86   -155016.26    439.38977    566324.56    81.830019    83.191005    83.191005 
283000000    569.94902    -157382.8   -155025.38     353.1933    566324.56     81.85854    83.176512    83.176512 
284000000    568.92983   -157396.37   -155043.17    291.29004    566324.56    81.890519    83.160269    83.160269 
285000000    567.51369      -157387   -155039.65    296.74581    566324.56     81.92583    83.142346    83.142346 
286000000    566.78003   -157361.72   -155017.41    551.19751    566324.56    81.964333    83.122815    83.122815 
287000000     573.2326   -157394.36   -155023.36    339.47583    566324.56    82.005878    83.101757    83.101757 
288000000    569.92109   -157404.61   -155047.31    76.772194    566324.56    82.050299    83.079259    83.079259 
289000000    569.10113   -157381.61   -155027.69    457.42499    566324.56    82.097423    83.055412    83.055412 
290000000      569.051   -157388.49   -155034.79    371.38969    566324.56    82.147061    83.030314    83.030314 
291000000    567.09177   -157386.19   -155040.59    474.83173    566324.56     82.19902    83.004068    83.004068 
292000000    573.52436   -157403.56   -155031.35    407.74523    566324.56    82.253093     82.97678     82.97678 
293000000    570.99212   -157394.84   -155033.11     313.7206    566324.56    82.309067    82.948561    82.948561 
294000000      571.884   -157392.86   -155027.43    288.68284    566324.56    82.366722    82.919525    82.919525 
295000000    568.13579   -157418.91   -155068.98    60.179521    566324.56     82.42583    82.889789    82.889789 
296000000     565.5277   -157390.57   -155051.44    360.58311    566324.56    82.486157    82.859473    82.859473 
297000000    569.43483   -157412.93   -155057.64    156.16946    566324.56    82.547465    82.828697    82.828697 
298000000     570.5839   -157405.77   -155045.72    282.24524    566324.56    82.609513    82.797584    82.797584 
299000000    571.09019   -157401.18   -155039.04    156.01801    566324.56    82.672056     82.76626     82.76626 
300000000     571.7206    -157393.4   -155028.66    313.56014    566324.56    82.734847    82.734847    82.734847 
301000000    569.13001   -157386.37   -155032.34     324.3737    566324.56    82.797637    82.703469    82.703469 
302000000    569.59439   -157373.32   -155017.36     513.7642    566324.56     82.86018    82.672251    82.672251 
303000000    570.00872   -157412.06    -155054.4    198.32375    566324.56    82.922228    82.641315    82.641315 
304000000     566.9707   -157409.11   -155064.01    281.05062    566324.56    82.983536    82.610781    82.610781 
305000000      569.452   -157419.78   -155064.41    266.79951    566324.56    83.043864     82.58077     82.58077 
306000000    569.16581   -157405.57   -155051.39    272.93676    566324.56    83.102971    82.551396    82.551396 
307000000    570.08552   -157408.18   -155050.19    222.49599    566324.56    83.160626    82.522775    82.522775 
308000000    573.16498   -157410.46   -155039.74     218.7018    566324.56      83.2166    82.495017    82.495017 
309000000    571.25025   -157387.72   -155024.92    452.97594    566324.56    83.270673    82.468228    82.468228 
310000000    568.09238   -157392.59   -155042.85    223.89789    566324.56    83.322632    82.442511    82.442511 
311000000    571.34891   -157379.12   -155015.91    424.44454    566324.56    83.372271    82.417964    82.417964 
312000000    574.48731   -157392.34   -155016.15    462.01207    566324.56    83.419394    82.394682    82.394682 
313000000     572.2653    -157395.1    -155028.1    347.73484    566324.56    83.463815    82.372753    82.372753 
314000000    572.15127   -157378.78   -155012.25     454.7644    566324.56     83.50536     82.35226     82.35226 
315000000    569.82454   -157381.82   -155024.92    318.39954    566324.56    83.543864    82.333281    82.333281 
316000000    569.54859   -157401.73   -155045.96    188.87677    566324.56    83.579174    82.315887    82.315887 
317000000    571.48118    -157375.6   -155011.84    474.20658    566324.56    83.611153    82.300143    82.300143 
318000000    573.19227   -157357.47   -154986.64    660.36457    566324.56    83.639674     82.28611     82.28611 
319000000    569.33841   -157371.11   -155016.21    291.31423    566324.56    83.664623     82.27384     82.27384 
320000000    569.58809   -157410.09   -155054.16    125.91695    566324.56    83.685903    82.263379    82.263379 
321000000    571.94835   -157368.43   -155002.74    430.61291    566324.56     83.70343    82.254766    82.254766 
322000000    566.10381   -157370.12   -155028.61    474.61979    566324.56    83.717134    82.248034    82.248034 
323000000    572.27843   -157386.01   -155018.96    446.39052    566324.56    83.726961    82.243206    82.243206 
324000000    569.44684   -157379.58   -155024.23    410.72231    566324.56    83.732873    82.240303    82.240303 
325000000    572.73901   -157384.57   -155015.61    338.92389    566324.56    83.734847    82.239334    82.239334 
326000000     569.7134   -157397.28   -155040.83    141.04704    566324.56    83.732873    82.240303    82.240303 
327000000    571.48413   -157384.87    -155021.1    359.87259    566324.56    83.726961    82.243206    82.243206 
328000000    572.37005   -157391.44      -155024    375.07368    566324.56    83.717134    82.248034    82.248034 
329000000    571.34193   -157391.96   -155028.77    163.76968    566324.56     83.70343    82.254766    82.254766 
330000000     572.5635   -157385.74    -155017.5    390.96641    566324.56    83.685903    82.263379    82.263379 
331000000    568.58655   -157388.08    -155036.3    399.67223    566324.56    83.664623     82.27384     82.27384 
332000000    572.97776   -157372.57   -155002.62    466.54445    566324.56    83.639674     82.28611     82.28611 
333000000    568.60807   -157395.66   -155043.78    280.73453    566324.56    83.611153    82.300143    82.300143 
334000000    570.38645   -157383.88   -155024.65    487.97988    566324.56    83.579174    82.315887    82.315887 
335000000    567.15121   -157371.65    -155025.8    548.45263    566324.56    83.543864    82.333281    82.333281 
336000000     572.0457   -157400.33   -155034.24    443.90335    566324.56     83.50536     82.35226     82.35226 
337000000    563.07781   -157389.18   -155060.18    291.17016    566324.56    83.463815    82.372753    82.372753 
338000000    575.35705   -157380.48    -155000.7    440.26404    566324.56    83.419394    82.394682    82.394682 
339000000     568.8656   -157391.33   -155038.39    322.89982    566324.56    83.372271    82.417964    82.417964 
340000000    566.82865   -157391.53   -155047.02    295.23124    566324.56    83.322632    82.442511    82.442511 
341000000     566.5717   -157383.32   -155039.87    205.76658    566324.56    83.270673    82.468228    82.468228 
342000000    571.47527   -157405.12   -155041.39     245.5748    566324.56      83.2166    82.495017    82.495017 
343000000     567.4189   -157393.96      -155047    323.14904    566324.56    83.160626    82.522775    82.522775 
344000000    571.99935   -157395.74   -155029.84    206.23092    566324.56    83.102971    82.551396    82.551396 
345000000    571.36046   -157420.03   -155056.77    33.150569    566324.56    83.043864     82.58077     82.58077 
346000000    569.71311   -157389.25   -155032.81    454.42778    566324.56    82.983536    82.610781    82.610781 
347000000    571.33912   -157410.29   -155047.12    294.18206    566324.56    82.922228    82.641315    82.641315 
348000000    569.83295   -157411.98   -155055.04     310.0976    566324.56     82.86018    82.672251    82.672251 
349000000    567.29859   -157381.87   -155035.41    366.30504    566324.56    82.797637    82.703469    82.703469 
350000000    572.03226   -157395.79   -155029.75    265.50886    566324.56    82.734847    82.734847    82.734847 
351000000    571.03647   -157404.42    -155042.5    267.41947    566324.56    82.672056     82.76626     82.76626 
352000000    565.17412   -157404.07   -155066.39    272.26936    566324.56    82.609513    82.797584    82.797584 
353000000    569.03498   -157400.99   -155047.35     198.0404    566324.56    82.547465    82.828697    82.828697 
354000000    569.79696   -157411.84   -155055.05    129.65134    566324.56    82.486157    82.859473    82.859473 
355000000    571.05644   -157405.87   -155043.87    159.08865    566324.56     82.42583    82.889789    82.889789 
356000000    573.57203   -157402.66   -155030.25      294.876    566324.56    82.366722    82.919525    82.919525 
357000000     570.6512   -157413.48   -155053.16    229.69333    566324.56    82.309067    82.948561    82.948561 
358000000    571.56537   -157401.93   -155037.82    95.025705    566324.56    82.253093     82.97678     82.97678 
359000000    566.96912   -157390.19   -155045.09    183.02257    566324.56     82.19902    83.004068    83.004068 
360000000    569.05011   -157387.38   -155033.68    339.61147    566324.56    82.147061    83.030314    83.030314 
361000000    569.65131   -157385.77   -155029.58    380.82786    566324.56    82.097423    83.055412    83.055412 
362000000    566.80743   -157388.25   -155043.82    244.96586    566324.56    82.050299    83.079259    83.079259 
363000000    570.97682   -157378.45   -155016.78    384.47334    566324.56    82.005878    83.101757    83.101757 
364000000    573.18802   -157369.68   -154998.86    495.69708    566324.56    81.964333    83.122815    83.122815 
365000000    570.75242   -157377.61   -155016.86    517.61148    566324.56     81.92583    83.142346    83.142346 
366000000    570.68839   -157380.45   -155019.97    379.24358    566324.56    81.890519    83.160269    83.160269 
367000000    570.35646   -157373.29   -155014.18    386.91652    566324.56     81.85854    83.176512    83.176512 
368000000    574.40461   -157378.03   -155002.18     404.6761    566324.56    81.830019    83.191005    83.191005 
369000000    571.01936   -157384.41   -155022.56    363.56305    566324.56     81.80507     83.20369     83.20369 
370000000    574.30656   -157381.86   -155006.42    399.92466    566324.56     81.78379    83.214514    83.214514 
371000000    570.60464   -157380.17   -155020.04    422.66406    566324.56    81.766263    83.223432    83.223432 
372000000    570.85368   -157381.97   -155020.81    235.44681    566324.56    81.752559    83.230407    83.230407 
373000000    568.84389   -157382.19   -155029.34    326.57934    566324.56    81.742732     83.23541     83.23541 
374000000    568.98947   -157362.05    -155008.6    458.31212    566324.56     81.73682     83.23842     83.23842 
375000000    568.21272    -157376.7   -155026.46    352.61102    566324.56    81.734847    83.239425    83.239425 
376000000    566.91105   -157386.12   -155041.27    237.36874    566324.56     81.73682     83.23842     83.23842 
377000000     573.6355   -157385.76   -155013.09    331.40188    566324.56    81.742732     83.23541     83.23541 
378000000    572.49877   -157376.17   -155008.21     404.7914    566324.56    81.752559    83.230407    83.230407 
379000000    571.90594   -157372.91    -155007.4    259.56518    566324.56    81.766263    83.223432    83.223432 
380000000     572.7668   -157373.13   -155004.05    393.61674    566324.56     81.78379    83.214514    83.214514 
381000000    571.92356   -157398.78    -155033.2    297.01306    566324.56     81.80507     83.20369     83.20369 
382000000    566.90333   -157366.39   -155021.57    444.54818    566324.56    81.830019    83.191005    83.191005 
383000000    573.83114   -157382.65   -155009.17    423.40809    566324.56     81.85854    83.176512    83.176512 
384000000    569.41476   -157357.37   -155002.16    469.21948    566324.56    81.890519    83.160269    83.160269 
385000000    569.00545   -157389.33   -155035.81    484.22095    566324.56     81.92583    83.142346    83.142346 
386000000    571.04608   -157398.06   -155036.11    286.54667    566324.56    81.964333    83.122815    83.122815 
387000000    569.30602   -157372.37   -155017.61    570.04517    566324.56    82.005878    83.101757    83.101757 
388000000    567.51853   -157382.42   -155035.05    359.34551    566324.56    82.050299    83.079259    83.079259 
389000000    572.09443   -157401.87   -155035.57    226.73994    566324.56    82.097423    83.055412    83.055412 
390000000     570.5814   -157370.12   -155010.08    512.92131    566324.56    82.147061    83.030314    83.030314 
391000000    570.03585   -157397.82   -155040.04    176.60388    566324.56     82.19902    83.004068    83.004068 
392000000    568.24205   -157381.08   -155030.72     385.2249    566324.56    82.253093     82.97678     82.97678 
393000000    567.98975   -157393.87   -155044.56    259.68747    566324.56    82.309067    82.948561    82.948561 
394000000    571.75383   -157383.03   -155018.15    415.01173    566324.56    82.366722    82.919525    82.919525 
395000000    571.13972   -157389.79   -155027.44    339.27543    566324.56     82.42583    82.889789    82.889789 
396000000     568.8522   -157417.81   -155064.93    74.526775    566324.56    82.486157    82.859473    82.859473 
397000000    569.68113   -157401.95   -155045.64    211.54686    566324.56    82.547465    82.828697    82.828697 
398000000    571.75164   -157391.31   -155026.43     243.0673    566324.56    82.609513    82.797584    82.797584 
399000000    570.49121   -157389.98   -155030.32       216.14    566324.56    82.672056     82.76626     82.76626 
400000000    566.86958    -157408.6   -155063.92    144.97163    566324.56    82.734847    82.734847    82.734847 
401000000    563.47414    -157406.6   -155075.96    100.93121    566324.56    82.797637    82.703469    82.703469 
402000000    571.25594   -157387.57   -155024.74    429.68298    566324.56     82.86018    82.672251    82.672251 
403000000    574.05109   -157398.61   -155024.22    346.15107    566324.56    82.922228    82.641315    82.641315 
404000000    573.49217   -157389.41   -155017.34    324.85461    566324.56    82.983536    82.610781    82.610781 
405000000    569.71457   -157392.95    -155036.5    314.25656    566324.56    83.043864     82.58077     82.58077 
406000000    567.51426   -157380.43   -155033.08    298.55759    566324.56    83.102971    82.551396    82.551396 
407000000     575.0921   -157390.69   -155011.99    321.46917    566324.56    83.160626    82.522775    82.522775 
408000000    573.80197   -157399.11   -155025.76    235.10395    566324.56      83.2166    82.495017    82.495017 
409000000    572.64774   -157408.82   -155040.23    352.25013    566324.56    83.270673    82.468228    82.468228 
410000000    573.05456   -157400.08   -155029.82    111.61336    566324.56    83.322632    82.442511    82.442511 
411000000    571.28201   -157389.65   -155026.72    422.55878    566324.56    83.372271    82.417964    82.417964 
412000000    570.95938   -157398.54   -155036.94    254.32307    566324.56    83.419394    82.394682    82.394682 
413000000    571.10141    -157392.8   -155030.61    275.15944    566324.56    83.463815    82.372753    82.372753 
414000000    568.22268    -157387.6   -155037.32    217.26933    566324.56     83.50536     82.35226     82.35226 
415000000    563.98744   -157402.61   -155069.85    148.48388    566324.56    83.543864    82.333281    82.333281 
416000000    568.01385    -157358.8   -155009.39    503.87472    566324.56    83.579174    82.315887    82.315887 
417000000    565.14067   -157389.42   -155051.89    187.68145    566324.56    83.611153    82.300143    82.300143 
418000000    568.51331    -157385.8   -155034.32    404.69762    566324.56    83.639674     82.28611     82.28611 
419000000    565.25459   -157375.01   -155037.01    183.05609    566324.56    83.664623     82.27384     82.27384 
420000000    571.51195   -157395.24   -155031.36    424.07421    566324.56    83.685903    82.263379    82.263379 
421000000    565.12486   -157367.95   -155030.48    389.88301    566324.56     83.70343    82.254766    82.254766 
422000000    565.99388   -157379.17   -155038.11    180.30828    566324.56    83.717134    82.248034    82.248034 
423000000     569.8189   -157365.45   -155008.56    497.77516    566324.56    83.726961    82.243206    82.243206 
424000000    569.52836   -157377.15   -155021.47    325.47453    566324.56    83.732873    82.240303    82.240303 
425000000    567.13929   -157365.09   -155019.29    427.41211    566324.56    83.734847    82.239334    82.239334 
426000000    566.36743   -157399.21    -155056.6    109.90389    566324.56    83.732873    82.240303    82.240303 
427000000    571.01482   -157388.71   -155026.88    301.46769    566324.56    83.726961    82.243206    82.243206 
428000000    570.16773   -157372.87   -155014.55    327.48989    566324.56    83.717134    82.248034    82.248034 
429000000    568.38275   -157384.22   -155033.28    59.977422    566324.56     83.70343    82.254766    82.254766 
430000000     576.6518   -157395.97   -155010.83    250.18432    566324.56    83.685903    82.263379    82.263379 
431000000    570.64809   -157373.34   -155013.03    411.76086    566324.56    83.664623     82.27384     82.27384 
432000000    573.93728   -157376.95   -155003.03    293.48117    566324.56    83.639674     82.28611     82.28611 
433000000     571.9431    -157393.2   -155027.54    333.55578    566324.56    83.611153    82.300143    82.300143 
434000000    573.15433   -157393.85   -155023.18    300.01483    566324.56    83.579174    82.315887    82.315887 
435000000    573.70042   -157385.43    -155012.5    217.40361    566324.56    83.543864    82.333281    82.333281 
436000000    571.53521    -157401.8   -155037.82    174.38263    566324.56     83.50536     82.35226     82.35226 
437000000    567.50176   -157393.46   -155046.16    274.85269    566324.56    83.463815    82.372753    82.372753 
438000000    572.10193      -157378   -155011.68    253.43259    566324.56    83.419394    82.394682    82.394682 
439000000    572.95987   -157398.67   -155028.79    308.03994    566324.56    83.372271    82.417964    82.417964 
440000000    574.12758   -157392.96   -155018.25    292.43342    566324.56    83.322632    82.442511    82.442511 
441000000    569.30122   -157399.71   -155044.97    302.30309    566324.56    83.270673    82.468228    82.468228 
442000000    566.13324   -157392.11   -155050.47    197.07655    566324.56      83.2166    82.495017    82.495017 
443000000     568.7108   -157359.22   -155006.92    559.45617    566324.56    83.160626    82.522775    82.522775 
444000000    571.43346   -157391.16    -155027.6    266.58645    566324.56    83.102971    82.551396    82.551396 
445000000    566.84449    -157384.4   -155039.82    393.06123    566324.56    83.043864     82.58077     82.58077 
446000000    573.12526   -157385.76    -155015.2    371.89073    566324.56    82.983536    82.610781    82.610781 
447000000    570.51957   -157393.52   -155033.74    331.80791    566324.56    82.922228    82.641315    82.641315 
448000000    570.20099   -157386.49   -155028.02    302.74853    566324.56     82.86018    82.672251    82.672251 
449000000     566.8053   -157398.34   -155053.92    197.26444    566324.56    82.797637    82.703469    82.703469 
450000000    568.31409   -157400.56    -155049.9     272.6944    566324.56    82.734847    82.734847    82.734847 
451000000    569.30522   -157391.49   -155036.73    361.26332    566324.56    82.672056     82.76626     82.76626 
452000000    572.88296   -157385.78   -155016.23     306.6819    566324.56    82.609513    82.797584    82.797584 
453000000    572.51592   -157406.39   -155038.35    302.48272    566324.56    82.547465    82.828697    82.828697 
454000000    562.42964   -157384.34   -155058.02    352.21029    566324.56    82.486157    82.859473    82.859473 
455000000    570.97414   -157375.42   -155013.76    424.97208    566324.56     82.42583    82.889789    82.889789 
456000000    573.29321    -157382.1   -155010.85    353.17612    566324.56    82.366722    82.919525    82.919525 
457000000    566.82096   -157373.01   -155028.52    303.26024    566324.56    82.309067    82.948561    82.948561 
458000000    571.09427   -157398.78   -155036.62    191.84498    566324.56    82.253093     82.97678     82.97678 
459000000    566.54865   -157381.44   -155038.08    385.11409    566324.56     82.19902    83.004068    83.004068 
460000000    568.58645   -157382.03   -155030.25     240.0522    566324.56    82.147061    83.030314    83.030314 
461000000    570.77729   -157375.01   -155014.17    494.36313    566324.56    82.097423    83.055412    83.055412 
462000000    566.05962   -157392.01   -155050.67    242.14612    566324.56    82.050299    83.079259    83.079259 
463000000    572.79657   -157381.03   -155011.83    437.12465    566324.56    82.005878    83.101757    83.101757 
464000000    572.77357   -157394.67   -155025.57    228.66463    566324.56    81.964333    83.122815    83.122815 
465000000    572.14485   -157374.82   -155008.32    526.08569    566324.56     81.92583    83.142346    83.142346 
466000000    571.69915   -157368.48   -155003.82    624.92084    566324.56    81.890519    83.160269    83.160269 
467000000     568.9211   -157387.37    -155034.2    289.28723    566324.56     81.85854    83.176512    83.176512 
468000000    566.73539   -157374.89   -155030.76    312.05087    566324.56    81.830019    83.191005    83.191005 
469000000    569.32898   -157387.29   -155032.43    267.02205    566324.56     81.80507     83.20369     83.20369 
470000000    572.08343   -157379.29   -155013.04    456.13337    566324.56     81.78379    83.214514    83.214514 
471000000    568.55817   -157353.94   -155002.27    502.77941    566324.56    81.766263    83.223432    83.223432 
472000000    571.80433   -157383.32   -155018.23    311.86885    566324.56    81.752559    83.230407    83.230407 
473000000    573.12686    -157383.1   -155012.53    477.91347    566324.56    81.742732     83.23541     83.23541 
474000000    571.14402   -157389.24   -155026.87    326.35546    566324.56     81.73682     83.23842     83.23842 
475000000    575.72795   -157353.93   -154972.61     589.9427    566324.56    81.734847    83.239425    83.239425 
476000000    566.57454    -157371.7   -155028.24    334.63249    566324.56     81.73682     83.23842     83.23842 
477000000    574.65937   -157368.71   -154991.81    570.07764    566324.56    81.742732     83.23541     83.23541 
478000000    566.64305    -157366.5   -155022.75    369.60268    566324.56    81.752559    83.230407    83.230407 
479000000    569.59901   -157349.89   -154993.91    627.06984    566324.56    81.766263    83.223432    83.223432 
480000000    573.43629   -157358.16   -154986.32     554.6315    566324.56     81.78379    83.214514    83.214514 
481000000    570.66301   -157371.92   -155011.55    339.36412    566324.56     81.80507     83.20369     83.20369 
482000000    572.39064   -157381.69   -155014.17    403.66448    566324.56    81.830019    83.191005    83.191005 
483000000     566.2538   -157383.86   -155041.73    192.68225    566324.56     81.85854    83.176512    83.176512 
484000000     568.7569   -157386.83   -155034.34    315.09624    566324.56    81.890519    83.160269    83.160269 
485000000    569.80646   -157395.74    -155038.9    164.92912    566324.56     81.92583    83.142346    83.142346 
486000000    568.23434    -157394.1   -155043.77    199.09328    566324.56    81.964333    83.122815    83.122815 
487000000    572.37643   -157397.28   -155029.82    145.73255    566324.56    82.005878    83.101757    83.101757 
488000000    568.59745   -157380.63    -155028.8    299.37387    566324.56    82.050299    83.079259    83.079259 
489000000    565.14477   -157385.53   -155047.98    385.31572    566324.56    82.097423    83.055412    83.055412 
490000000    568.28764   -157396.15    -155045.6    288.44835    566324.56    82.147061    83.030314    83.030314 
491000000    573.66254    -157390.8   -155018.02    306.12543    566324.56     82.19902    83.004068    83.004068 
492000000    567.97486   -157379.04   -155029.78     264.6862    566324.56    82.253093     82.97678     82.97678 
493000000    568.29368   -157384.18   -155033.61    238.09611    566324.56    82.309067    82.948561    82.948561 
494000000    569.88683   -157380.67    -155023.5    398.94749    566324.56    82.366722    82.919525    82.919525 
495000000    575.31842   -157394.69   -155015.06    304.35772    566324.56     82.42583    82.889789    82.889789 
496000000    567.73492   -157413.99   -155065.73     162.5781    566324.56    82.486157    82.859473    82.859473 
497000000    571.40913   -157392.62   -155029.16    157.81988    566324.56    82.547465    82.828697    82.828697 
498000000      567.844   -157385.02    -155036.3    232.37979    566324.56    82.609513    82.797584    82.797584 
499000000    567.62201   -157375.91   -155028.12    390.17738    566324.56    82.672056     82.76626     82.76626 
500000000     567.5826   -157388.05   -155040.42    239.69194    566324.56    82.734847    82.734847    82.734847 
501000000    570.10671   -157389.19   -155031.12    260.20378    566324.56    82.797637    82.703469    82.703469 
502000000    571.38817   -157399.35   -155035.98    220.69027    566324.56     82.86018    82.672251    82.672251 
503000000    566.31274   -157396.47   -155054.09    260.26397    566324.56    82.922228    82.641315    82.641315 
504000000    567.92978   -157382.09   -155033.02    346.89106    566324.56    82.983536    82.610781    82.610781 
505000000     570.1464    -157402.4   -155044.16    183.48531    566324.56    83.043864     82.58077     82.58077 
506000000    569.56438   -157378.85   -155023.02     591.0875    566324.56    83.102971    82.551396    82.551396 
507000000     570.8111    -157401.8   -155040.81    16.976974    566324.56    83.160626    82.522775    82.522775 
508000000    566.33981   -157393.37   -155050.88    153.91131    566324.56      83.2166    82.495017    82.495017 
509000000    568.13857   -157393.88   -155043.95    196.25081    566324.56    83.270673    82.468228    82.468228 
510000000    570.27208   -157386.78   -155028.03    393.54584    566324.56    83.322632    82.442511    82.442511 
511000000    568.95213   -157382.96   -155029.66    346.82023    566324.56    83.372271    82.417964    82.417964 
512000000    572.50614   -157408.64   -155040.65    152.00406    566324.56    83.419394    82.394682    82.394682 
513000000    566.73873   -157377.98   -155033.84    330.82394    566324.56    83.463815    82.372753    82.372753 
514000000    570.08909   -157382.88   -155024.88     225.7504    566324.56     83.50536     82.35226     82.35226 
515000000    570.27453   -157396.03   -155037.26    94.566441    566324.56    83.543864    82.333281    82.333281 
516000000    571.18322   -157388.01   -155025.49     442.0171    566324.56    83.579174    82.315887    82.315887 
517000000    575.32588   -157392.24   -155012.58    334.30242    566324.56    83.611153    82.300143    82.300143 
518000000    571.08831   -157376.18   -155014.05      429.999    566324.56    83.639674     82.28611     82.28611 
519000000    571.16037    -157408.3   -155045.87    239.30881    566324.56    83.664623     82.27384     82.27384 
520000000    577.50681   -157383.05   -154994.37    342.99272    566324.56    83.685903    82.263379    82.263379 
521000000    574.68495   -157366.79   -154989.78    496.82857    566324.56     83.70343    82.254766    82.254766 
522000000     567.2515   -157391.03   -155044.77    293.74581    566324.56    83.717134    82.248034    82.248034 
523000000    568.97953   -157364.34   -155010.93    417.41313    566324.56    83.726961    82.243206    82.243206 
524000000    566.86571   -157370.13   -155025.46    379.44201    566324.56    83.732873    82.240303    82.240303 
525000000    567.30973   -157375.46   -155028.95    322.84791    566324.56    83.734847    82.239334    82.239334 
526000000     568.0812   -157391.67   -155041.98    207.36298    566324.56    83.732873    82.240303    82.240303 
527000000     570.2978   -157378.57   -155019.71    296.01598    566324.56    83.726961    82.243206    82.243206 
528000000    570.53514   -157383.95    -155024.1    297.78739    566324.56    83.717134    82.248034    82.248034 
529000000    568.88687    -157391.8   -155038.77    290.13659    566324.56     83.70343    82.254766    82.254766 
530000000    566.50332   -157377.48   -155034.31    398.88992    566324.56    83.685903    82.263379    82.263379 
531000000    567.08024   -157381.24   -155035.68    250.99253    566324.56    83.664623     82.27384     82.27384 
532000000    569.03439   -157393.35   -155039.71    239.89655    566324.56    83.639674     82.28611     82.28611 
533000000    567.40793   -157397.85   -155050.94    288.66968    566324.56    83.611153    82.300143    82.300143 
534000000    569.99539   -157391.67   -155034.05    373.06715    566324.56    83.579174    82.315887    82.315887 
535000000    570.39898   -157370.41   -155011.12    369.37579    566324.56    83.543864    82.333281    82.333281 
536000000    566.16186   -157371.49   -155029.73    430.75394    566324.56     83.50536     82.35226     82.35226 
537000000    572.73542    -157417.8   -155048.86   -69.316359    566324.56    83.463815    82.372753    82.372753 
538000000     571.9376   -157403.05    -155037.4    179.26643    566324.56    83.419394    82.394682    82.394682 
539000000    572.92652   -157380.59   -155010.85     427.0443    566324.56    83.372271    82.417964    82.417964 
540000000     572.4777   -157367.87   -154999.99    367.50222    566324.56    83.322632    82.442511    82.442511 
541000000    571.74077   -157377.39   -155012.56    372.38984    566324.56    83.270673    82.468228    82.468228 
542000000    573.35332   -157377.27   -155005.77    408.28832    566324.56      83.2166    82.495017    82.495017 
543000000    567.74913   -157393.35   -155045.03    271.81609    566324.56    83.160626    82.522775    82.522775 
544000000    574.08795   -157390.44    -155015.9    422.85294    566324.56    83.102971    82.551396    82.551396 
545000000    569.42423   -157383.39   -155028.14    354.82903    566324.56    83.043864     82.58077     82.58077 
546000000    568.26994    -157380.2   -155029.73    337.62814    566324.56    82.983536    82.610781    82.610781 
547000000    572.37137   -157398.31   -155030.87    249.23423    566324.56    82.922228    82.641315    82.641315 
548000000    568.70537   -157405.41   -155053.13    130.52155    566324.56     82.86018    82.672251    82.672251 
549000000    571.10608   -157383.88   -155021.68    406.61375    566324.56    82.797637    82.703469    82.703469 
550000000     568.1587   -157390.76   -155040.75    327.91673    566324.56    82.734847    82.734847    82.734847 
551000000    573.43513   -157408.11   -155036.27    214.65515    566324.56    82.672056     82.76626     82.76626 
552000000    574.59325   -157367.59   -154990.96    468.95684    566324.56    82.609513    82.797584    82.797584 
553000000    570.88168    -157382.5   -155021.22    321.79062    566324.56    82.547465    82.828697    82.828697 
554000000    572.12994   -157380.55   -155014.11    311.87696    566324.56    82.486157    82.859473    82.859473 
555000000    567.62914   -157403.17   -155055.34    253.73018    566324.56     82.42583    82.889789    82.889789 
556000000    566.83051   -157375.15   -155030.62    401.00738    566324.56    82.366722    82.919525    82.919525 
557000000    571.75162   -157364.25   -154999.37    559.28334    566324.56    82.309067    82.948561    82.948561 
558000000    564.60795   -157378.04   -155042.71    321.50299    566324.56    82.253093     82.97678     82.97678 
559000000    569.43219    -157387.9   -155032.62    155.25201    566324.56     82.19902    83.004068    83.004068 
560000000     570.6485   -157379.83   -155019.51    438.21176    566324.56    82.147061    83.030314    83.030314 
561000000    570.38804   -157397.73   -155038.49    312.37589    566324.56    82.097423    83.055412    83.055412 
562000000    570.60599   -157370.89   -155010.75    319.34353    566324.56    82.050299    83.079259    83.079259 
563000000    571.24393   -157384.65   -155021.87     290.0685    566324.56    82.005878    83.101757    83.101757 
564000000    566.90437   -157374.39   -155029.57    333.69843    566324.56    81.964333    83.122815    83.122815 
565000000    570.82027   -157387.66   -155026.64    427.99887    566324.56     81.92583    83.142346    83.142346 
566000000    566.89491   -157380.26   -155035.47    264.02426    566324.56    81.890519    83.160269    83.160269 
567000000    568.39304   -157377.42   -155026.43    323.93848    566324.56     81.85854    83.176512    83.176512 
568000000    567.68665   -157383.16   -155035.09    278.67803    566324.56    81.830019    83.191005    83.191005 
569000000    577.48828    -157382.4   -154993.79    415.62713    566324.56     81.80507     83.20369     83.20369 
570000000    570.82872   -157393.28   -155032.22    203.82152    566324.56     81.78379    83.214514    83.214514 
571000000    571.24743   -157376.22   -155013.43    233.36375    566324.56    81.766263    83.223432    83.223432 
572000000    566.40151   -157399.03   -155056.28    145.63635    566324.56    81.752559    83.230407    83.230407 
573000000    569.12151   -157399.11   -155045.11    93.476262    566324.56    81.742732     83.23541     83.23541 
574000000    572.82079   -157341.15   -154971.85    615.39663    566324.56     81.73682     83.23842     83.23842 
575000000    576.49643   -157374.29   -154989.78    423.18418    566324.56    81.734847    83.239425    83.239425 
576000000    571.91138    -157396.1   -155030.57    218.14479    566324.56     81.73682     83.23842     83.23842 
577000000    569.03501   -157395.02   -155041.38    322.89232    566324.56    81.742732     83.23541     83.23541 
578000000    572.50711   -157409.56   -155041.56    282.53291    566324.56    81.752559    83.230407    83.230407 
579000000    573.65646   -157392.11   -155019.35    277.06501    566324.56    81.766263    83.223432    83.223432 
580000000     564.5955   -157397.32   -155062.05    225.53516    566324.56     81.78379    83.214514    83.214514 
581000000     571.9832   -157372.34   -155006.51     470.7528    566324.56     81.80507     83.20369     83.20369 
582000000    569.43408   -157385.11   -155029.82    260.81017    566324.56    81.830019    83.191005    83.191005 
583000000    569.91688   -157392.12   -155034.83    234.06996    566324.56     81.85854    83.176512    83.176512 
584000000    570.23044   -157376.87   -155018.29    369.56279    566324.56    81.890519    83.160269    83.160269 
585000000    566.74677   -157400.95   -155056.77    157.67061    566324.56     81.92583    83.142346    83.142346 
586000000    562.58808   -157382.55   -155055.57    156.49166    566324.56    81.964333    83.122815    83.122815 
587000000    569.70888    -157409.8   -155053.38    133.57971    566324.56    82.005878    83.101757    83.101757 
588000000    574.17633   -157414.18   -155039.27   -62.051495    566324.56    82.050299    83.079259    83.079259 
589000000    568.81982   -157401.11   -155048.36    117.17446    566324.56    82.097423    83.055412    83.055412 
590000000    567.33438   -157394.91    -155048.3    295.57367    566324.56    82.147061    83.030314    83.030314 
591000000     572.3409   -157401.11    -155033.8    248.03763    566324.56     82.19902    83.004068    83.004068 
592000000    571.38636   -157402.96   -155039.59    296.29242    566324.56    82.253093     82.97678     82.97678 
593000000    570.43777   -157404.29   -155044.84    139.08241    566324.56    82.309067    82.948561    82.948561 
594000000    570.87747   -157384.29   -155023.03    368.21086    566324.56    82.366722    82.919525    82.919525 
595000000    569.40533   -157420.68    -155065.5      120.648    566324.56     82.42583    82.889789    82.889789 
596000000    572.17532   -157422.14   -155055.51    71.824807    566324.56    82.486157    82.859473    82.859473 
597000000    572.41921   -157379.47   -155011.83    249.01479    566324.56    82.547465    82.828697    82.828697 
598000000    566.70258   -157398.12   -155054.13    132.50169    566324.56    82.609513    82.797584    82.797584 
599000000    566.99318   -157399.64   -155054.44    208.62501    566324.56    82.672056     82.76626     82.76626 
600000000    569.73854   -157413.17   -155056.62    126.73356    566324.56    82.734847    82.734847    82.734847 
601000000    567.53328    -157388.3   -155040.87    230.34231    566324.56    82.797637    82.703469    82.703469 
602000000    572.89041   -157402.97   -155033.39    272.16332    566324.56     82.86018    82.672251    82.672251 
603000000    570.19118   -157400.67   -155042.24    401.06504    566324.56    82.922228    82.641315    82.641315 
604000000    563.05447   -157411.45   -155082.54   -59.909945    566324.56    82.983536    82.610781    82.610781 
605000000    569.15967   -157398.75   -155044.59    316.60708    566324.56    83.043864     82.58077     82.58077 
606000000    571.05974   -157381.04   -155019.02    271.58311    566324.56    83.102971    82.551396    82.551396 
607000000    570.29582   -157389.42   -155030.56    250.41031    566324.56    83.160626    82.522775    82.522775 
608000000    572.22545   -157421.63    -155054.8    102.47633    566324.56      83.2166    82.495017    82.495017 
609000000    569.50426   -157390.36   -155034.78    317.34419    566324.56    83.270673    82.468228    82.468228 
610000000    572.30238   -157408.26   -155041.11    229.25505    566324.56    83.322632    82.442511    82.442511 
611000000    570.34595   -157412.95   -155053.88    213.73395    566324.56    83.372271    82.417964    82.417964 
612000000    567.02042    -157397.2   -155051.89    217.00231    566324.56    83.419394    82.394682    82.394682 
613000000    568.67476   -157390.55    -155038.4      137.567    566324.56    83.463815    82.372753    82.372753 
614000000    571.98441   -157376.84      -155011    508.53267    566324.56     83.50536     82.35226     82.35226 
615000000    571.10617   -157391.68   -155029.48    226.43027    566324.56    83.543864    82.333281    82.333281 
616000000    570.43644   -157381.88   -155022.44    306.45142    566324.56    83.579174    82.315887    82.315887 
617000000    570.02573   -157397.32   -155039.58    298.95641    566324.56    83.611153    82.300143    82.300143 
618000000    573.38268   -157398.51   -155026.89    339.30969    566324.56    83.639674     82.28611     82.28611 
619000000    571.30464   -157391.88   -155028.85    353.44228    566324.56    83.664623     82.27384     82.27384 
620000000    569.59941   -157388.13   -155032.16    351.01809    566324.56    83.685903    82.263379    82.263379 
621000000    567.59532   -157383.86   -155036.17    365.63765    566324.56     83.70343    82.254766    82.254766 
622000000     572.4156   -157401.69   -155034.07    335.33233    566324.56    83.717134    82.248034    82.248034 
623000000    571.18386   -157387.89   -155025.37    298.47781    566324.56    83.726961    82.243206    82.243206 
624000000    568.16624   -157399.18   -155049.13    290.18013    566324.56    83.732873    82.240303    82.240303 
625000000    569.51186   -157387.52   -155031.91    303.79707    566324.56    83.734847    82.239334    82.239334 
626000000     575.9305   -157398.57   -155016.41    283.49162    566324.56    83.732873    82.240303    82.240303 
627000000    571.38151    -157399.5   -155036.16    214.88242    566324.56    83.726961    82.243206    82.243206 
628000000    570.57348   -157400.96   -155040.96    385.07697    566324.56    83.717134    82.248034    82.248034 
629000000    569.09662   -157399.48   -155045.58     289.6611    566324.56     83.70343    82.254766    82.254766 
630000000    570.56901   -157408.61   -155048.63    245.19794    566324.56    83.685903    82.263379    82.263379 
631000000    567.08377   -157380.19   -155034.62     339.2621    566324.56    83.664623     82.27384     82.27384 
632000000    567.92045   -157394.72   -155045.69    139.98314    566324.56    83.639674     82.28611     82.28611 
633000000    572.21446   -157404.16   -155037.37    183.06789    566324.56    83.611153    82.300143    82.300143 
634000000    567.34423   -157393.76   -155047.11    308.86914    566324.56    83.579174    82.315887    82.315887 
635000000    566.14982   -157399.14   -155057.43    209.83057    566324.56    83.543864    82.333281    82.333281 
636000000    573.13439   -157398.85   -155028.26    211.02776    566324.56     83.50536     82.35226     82.35226 
637000000    569.93404   -157401.83   -155044.47    403.75993    566324.56    83.463815    82.372753    82.372753 
638000000    568.57613   -157390.09   -155038.35    156.35106    566324.56    83.419394    82.394682    82.394682 
639000000     571.7921   -157405.08   -155040.04    183.51107    566324.56    83.372271    82.417964    82.417964 
640000000    570.24956   -157418.77   -155060.11     18.74265    566324.56    83.322632    82.442511    82.442511 
641000000    565.77179   -157405.79   -155065.65      229.647    566324.56    83.270673    82.468228    82.468228 
642000000    574.09618   -157381.54   -155006.97    547.61899    566324.56      83.2166    82.495017    82.495017 
643000000    571.52252   -157397.56   -155033.63    349.34667    566324.56    83.160626    82.522775    82.522775 
644000000    572.63133   -157398.18   -155029.67    397.95995    566324.56    83.102971    82.551396    82.551396 
645000000    568.98257   -157409.65   -155056.23    114.48719    566324.56    83.043864     82.58077     82.58077 
646000000    571.12344   -157413.32   -155051.04    199.29028    566324.56    82.983536    82.610781    82.610781 
647000000    571.46701   -157407.62   -155043.93    183.75317    566324.56    82.922228    82.641315    82.641315 
648000000    570.36498   -157421.72   -155062.58    120.96206    566324.56     82.86018    82.672251    82.672251 
649000000    569.80319    -157403.1   -155046.28     208.1103    566324.56    82.797637    82.703469    82.703469 
650000000    569.31823   -157417.41    -155062.6    297.52182    566324.56    82.734847    82.734847    82.734847 
651000000     566.9977   -157401.21   -155055.99    240.88716    566324.56    82.672056     82.76626     82.76626 
652000000    569.11029   -157401.55    -155047.6    236.78757    566324.56    82.609513    82.797584    82.797584 
653000000    570.48778   -157418.04   -155058.39     28.49194    566324.56    82.547465    82.828697    82.828697 
654000000     570.0974   -157418.87   -155060.84    129.88059    566324.56    82.486157    82.859473    82.859473 
655000000    570.20855   -157409.67   -155051.17    71.339513    566324.56     82.42583    82.889789    82.889789 
656000000    569.74182   -157425.12   -155068.56    87.077799    566324.56    82.366722    82.919525    82.919525 
657000000    568.55456   -157395.43   -155043.77    244.31586    566324.56    82.309067    82.948561    82.948561 
658000000    568.49583   -157388.79   -155037.38    268.37162    566324.56    82.253093     82.97678     82.97678 
659000000    572.54394   -157399.45   -155031.29     260.8738    566324.56     82.19902    83.004068    83.004068 
660000000    569.09652   -157403.95   -155050.06    216.40538    566324.56    82.147061    83.030314    83.030314 
661000000    569.70718   -157396.66   -155040.24    221.92499    566324.56    82.097423    83.055412    83.055412 
662000000     571.3019   -157401.54   -155038.52    120.61772    566324.56    82.050299    83.079259    83.079259 
663000000     567.2146   -157392.78   -155046.66    132.93138    566324.56    82.005878    83.101757    83.101757 
664000000    568.78259   -157385.98   -155033.39    485.21436    566324.56    81.964333    83.122815    83.122815 
665000000    568.77793    -157400.9   -155048.32    171.08005    566324.56     81.92583    83.142346    83.142346 
666000000    571.81393   -157382.58   -155017.45    190.41275    566324.56    81.890519    83.160269    83.160269 
667000000    569.84783   -157410.07   -155053.07    83.687741    566324.56     81.85854    83.176512    83.176512 
668000000    570.12751   -157394.96    -155036.8    294.30782    566324.56    81.830019    83.191005    83.191005 
669000000    566.94444   -157400.27   -155055.28    239.36347    566324.56     81.80507     83.20369     83.20369 
670000000    565.15988   -157396.57   -155058.96     162.9373    566324.56     81.78379    83.214514    83.214514 
671000000     569.2878   -157419.25   -155064.57   -51.641699    566324.56    81.766263    83.223432    83.223432 
672000000    565.68923   -157381.97   -155042.17    276.75703    566324.56    81.752559    83.230407    83.230407 
673000000    572.35069   -157390.19   -155022.84    240.69714    566324.56    81.742732     83.23541     83.23541 
674000000    567.76761   -157414.29   -155065.89    189.47713    566324.56     81.73682     83.23842     83.23842 
675000000    566.83147      -157378   -155033.48    206.88603    566324.56    81.734847    83.239425    83.239425 
676000000    569.43451   -157408.68   -155053.39    115.05453    566324.56     81.73682     83.23842     83.23842 
677000000    568.52638   -157404.83   -155053.29    77.249123    566324.56    81.742732     83.23541     83.23541 
[...]
838000000    566.81173   -157425.41   -155080.96    132.23323    566324.56    83.419394    82.394682    82.394682 
839000000    566.90647   -157406.16   -155061.32    286.52341    566324.56    83.372271    82.417964    82.417964 
840000000    568.59575   -157409.89   -155058.07    248.07346    566324.56    83.322632    82.442511    82.442511 
841000000    568.05726   -157409.91   -155060.31    142.42149    566324.56    83.270673    82.468228    82.468228 
842000000    572.73422    -157398.2   -155029.26     320.0501    566324.56      83.2166    82.495017    82.495017 
843000000    570.93928   -157411.62    -155050.1    301.85812    566324.56    83.160626    82.522775    82.522775 
844000000    575.81826   -157411.89    -155030.2    347.10165    566324.56    83.102971    82.551396    82.551396 
845000000     576.7491   -157399.55      -155014    286.74023    566324.56    83.043864     82.58077     82.58077 
846000000    572.47163   -157405.65   -155037.79    271.95501    566324.56    82.983536    82.610781    82.610781 
847000000    567.57264   -157406.83   -155059.24    260.41568    566324.56    82.922228    82.641315    82.641315 
848000000    571.45683   -157427.94   -155064.28    167.23656    566324.56     82.86018    82.672251    82.672251 
849000000    567.86136   -157413.41   -155064.63     202.3559    566324.56    82.797637    82.703469    82.703469 
850000000    568.80347   -157430.95   -155078.27    105.18953    566324.56    82.734847    82.734847    82.734847 
851000000    570.27493   -157395.84   -155037.07    317.12064    566324.56    82.672056     82.76626     82.76626 
852000000    569.86156   -157409.21   -155052.15     214.0468    566324.56    82.609513    82.797584    82.797584 
853000000    567.59627   -157422.03   -155074.34    56.380713    566324.56    82.547465    82.828697    82.828697 
854000000    567.28371   -157422.68   -155076.28    110.83239    566324.56    82.486157    82.859473    82.859473 
855000000    571.13792   -157408.89   -155046.55    175.76981    566324.56     82.42583    82.889789    82.889789 
856000000    569.86917   -157416.13   -155059.04    151.38388    566324.56    82.366722    82.919525    82.919525 
857000000    569.99508   -157407.67   -155050.06    146.93799    566324.56    82.309067    82.948561    82.948561 
858000000     571.1439   -157411.48   -155049.12    207.23107    566324.56    82.253093     82.97678     82.97678 
859000000    572.02248   -157417.48   -155051.49    229.69601    566324.56     82.19902    83.004068    83.004068 
860000000    569.05661    -157403.5   -155049.77    270.21515    566324.56    82.147061    83.030314    83.030314 
861000000    569.40059   -157423.93   -155068.77    165.44899    566324.56    82.097423    83.055412    83.055412 
862000000    570.36632    -157427.4   -155068.25    106.86828    566324.56    82.050299    83.079259    83.079259 
863000000    565.84697   -157411.91   -155071.46     200.4556    566324.56    82.005878    83.101757    83.101757 
864000000    573.67227   -157389.85   -155017.02    422.61545    566324.56    81.964333    83.122815    83.122815 
865000000    569.22273   -157403.78   -155049.36    269.37338    566324.56     81.92583    83.142346    83.142346 
866000000     561.3397   -157419.79   -155097.98    76.672114    566324.56    81.890519    83.160269    83.160269 
867000000    567.43246   -157367.65   -155020.64    534.56489    566324.56     81.85854    83.176512    83.176512 
868000000    569.42103   -157423.06   -155067.82   0.92174895    566324.56    81.830019    83.191005    83.191005 
869000000    570.05183   -157399.12   -155041.28    330.71206    566324.56     81.80507     83.20369     83.20369 
870000000    567.14871   -157406.93    -155061.1    209.18976    566324.56     81.78379    83.214514    83.214514 
871000000    570.89138   -157390.97   -155029.65    378.49357    566324.56    81.766263    83.223432    83.223432 
872000000    568.09828   -157410.39   -155060.62    167.35898    566324.56    81.752559    83.230407    83.230407 
873000000     571.7161   -157396.21   -155031.48    307.31797    566324.56    81.742732     83.23541     83.23541 
874000000    572.67672   -157387.76   -155019.05    348.29432    566324.56     81.73682     83.23842     83.23842 
875000000    570.46117   -157395.11   -155035.57    235.69217    566324.56    81.734847    83.239425    83.239425 
876000000     573.0681   -157409.85   -155039.53    223.16585    566324.56     81.73682     83.23842     83.23842 
877000000    571.24892   -157388.81   -155026.02    477.63517    566324.56    81.742732     83.23541     83.23541 
878000000    569.54147   -157413.28   -155057.54    174.01889    566324.56    81.752559    83.230407    83.230407 
879000000    573.82793   -157410.12   -155036.65    244.98301    566324.56    81.766263    83.223432    83.223432 
880000000    575.33511   -157391.41   -155011.71    345.33755    566324.56     81.78379    83.214514    83.214514 
881000000    563.47289   -157380.63      -155050    411.24835    566324.56     81.80507     83.20369     83.20369 
882000000     571.5827   -157400.94   -155036.76    316.52102    566324.56    81.830019    83.191005    83.191005 
883000000     570.4124   -157414.63   -155055.29   -40.858892    566324.56     81.85854    83.176512    83.176512 
884000000    570.59601   -157420.65   -155060.55    339.53859    566324.56    81.890519    83.160269    83.160269 
885000000    566.89485   -157410.55   -155065.77    149.90254    566324.56     81.92583    83.142346    83.142346 
886000000    570.22326   -157407.45    -155048.9    212.51236    566324.56    81.964333    83.122815    83.122815 
887000000     575.3164   -157421.29   -155041.67    220.09205    566324.56    82.005878    83.101757    83.101757 
888000000    569.78167   -157422.45   -155065.72    176.31378    566324.56    82.050299    83.079259    83.079259 
889000000    564.19226   -157407.68   -155074.07    321.65281    566324.56    82.097423    83.055412    83.055412 
890000000    570.20483   -157409.31   -155050.84    339.90309    566324.56    82.147061    83.030314    83.030314 
891000000    573.63801   -157419.27    -155046.6    62.812519    566324.56     82.19902    83.004068    83.004068 
892000000    566.33961   -157422.78   -155080.28    37.568094    566324.56    82.253093     82.97678     82.97678 
893000000    577.38155   -157422.85   -155034.69    164.42764    566324.56    82.309067    82.948561    82.948561 
894000000    571.17574   -157415.52   -155053.03    206.86821    566324.56    82.366722    82.919525    82.919525 
895000000    571.61319   -157424.95   -155060.64    150.90109    566324.56     82.42583    82.889789    82.889789 
896000000    575.05627   -157423.49   -155044.94    185.81079    566324.56    82.486157    82.859473    82.859473 
897000000    567.28672   -157427.53   -155081.12    152.41332    566324.56    82.547465    82.828697    82.828697 
898000000    572.45624   -157431.79      -155064    169.80655    566324.56    82.609513    82.797584    82.797584 
899000000     568.6802    -157414.3   -155062.13    155.79887    566324.56    82.672056     82.76626     82.76626 
900000000    572.70369   -157437.82      -155069    86.885983    566324.56    82.734847    82.734847    82.734847 
901000000    571.53036   -157428.17   -155064.21    142.09905    566324.56    82.797637    82.703469    82.703469 
902000000    570.90776   -157423.69    -155062.3    284.12309    566324.56     82.86018    82.672251    82.672251 
903000000    572.50526   -157423.11   -155055.12    95.353095    566324.56    82.922228    82.641315    82.641315 
904000000    572.22036   -157433.23   -155066.41    174.15535    566324.56    82.983536    82.610781    82.610781 
905000000    567.33771   -157425.36   -155078.74    20.021535    566324.56    83.043864     82.58077     82.58077 
906000000    572.36237   -157430.38   -155062.98    202.08487    566324.56    83.102971    82.551396    82.551396 
907000000    572.12009   -157413.73   -155047.33     400.2864    566324.56    83.160626    82.522775    82.522775 
908000000    564.19641   -157404.07   -155070.44    165.99114    566324.56      83.2166    82.495017    82.495017 
909000000    568.37217   -157404.65   -155053.75    252.50127    566324.56    83.270673    82.468228    82.468228 
910000000    567.34826   -157421.66      -155075      57.7806    566324.56    83.322632    82.442511    82.442511 
911000000    571.37306   -157421.86   -155058.55    61.313766    566324.56    83.372271    82.417964    82.417964 
912000000    569.83229   -157399.72   -155042.79    269.44201    566324.56    83.419394    82.394682    82.394682 
913000000    569.13301   -157406.08   -155052.03    376.99261    566324.56    83.463815    82.372753    82.372753 
914000000     572.6924   -157407.48   -155038.71    288.14548    566324.56     83.50536     82.35226     82.35226 
915000000     569.5818   -157411.97   -155056.07    200.95986    566324.56    83.543864    82.333281    82.333281 
916000000    567.51197   -157429.45   -155082.11    47.352933    566324.56    83.579174    82.315887    82.315887 
917000000    570.28706   -157394.14   -155035.33    363.51142    566324.56    83.611153    82.300143    82.300143 
918000000    563.13228   -157398.62   -155069.39    279.68994    566324.56    83.639674     82.28611     82.28611 
919000000    570.91117   -157408.29   -155046.89    367.85573    566324.56    83.664623     82.27384     82.27384 
920000000     577.3825   -157412.24   -155024.07    327.78941    566324.56    83.685903    82.263379    82.263379 
921000000    570.30702   -157402.38   -155043.48    299.99902    566324.56     83.70343    82.254766    82.254766 
922000000    575.77643    -157383.1   -155001.57    578.70126    566324.56    83.717134    82.248034    82.248034 
923000000    573.05884   -157398.71   -155028.43    276.74864    566324.56    83.726961    82.243206    82.243206 
924000000    566.35647   -157395.47    -155052.9    449.39899    566324.56    83.732873    82.240303    82.240303 
925000000    570.41893   -157399.87   -155040.51    288.34666    566324.56    83.734847    82.239334    82.239334 
926000000    570.75462   -157384.81   -155024.05    443.45142    566324.56    83.732873    82.240303    82.240303 
927000000    572.55764   -157423.79   -155055.58    167.68222    566324.56    83.726961    82.243206    82.243206 
928000000    570.29432   -157388.53   -155029.68    507.58654    566324.56    83.717134    82.248034    82.248034 
929000000    566.35531   -157399.22   -155056.66    360.20684    566324.56     83.70343    82.254766    82.254766 
930000000    567.29697   -157406.19   -155059.74    308.18452    566324.56    83.685903    82.263379    82.263379 
931000000    571.41462   -157396.22   -155032.74     301.1136    566324.56    83.664623     82.27384     82.27384 
932000000    569.14355   -157393.75   -155039.66    327.34347    566324.56    83.639674     82.28611     82.28611 
933000000     565.4154   -157420.72   -155082.05     74.84306    566324.56    83.611153    82.300143    82.300143 
934000000    570.47337   -157418.29    -155058.7     95.97511    566324.56    83.579174    82.315887    82.315887 
935000000    568.60763   -157408.41   -155056.54    317.42687    566324.56    83.543864    82.333281    82.333281 
936000000    565.06771   -157418.57   -155081.34    148.56487    566324.56     83.50536     82.35226     82.35226 
937000000    573.78012   -157406.43   -155033.16    382.03769    566324.56    83.463815    82.372753    82.372753 
938000000    569.42711   -157395.61   -155040.35    334.73111    566324.56    83.419394    82.394682    82.394682 
939000000     568.9418   -157409.08   -155055.83    88.672425    566324.56    83.372271    82.417964    82.417964 
940000000    569.65354   -157409.93   -155053.73    268.95521    566324.56    83.322632    82.442511    82.442511 
941000000    567.98744   -157407.75   -155058.44    271.51733    566324.56    83.270673    82.468228    82.468228 
942000000     576.3301   -157441.16   -155057.35    199.37861    566324.56      83.2166    82.495017    82.495017 
943000000    567.88516   -157438.19    -155089.3    67.093017    566324.56    83.160626    82.522775    82.522775 
944000000    567.51974   -157400.57    -155053.2    196.78093    566324.56    83.102971    82.551396    82.551396 
945000000    568.30548   -157413.31   -155062.69    245.09277    566324.56    83.043864     82.58077     82.58077 
946000000    571.67692   -157413.61   -155049.04    170.56959    566324.56    82.983536    82.610781    82.610781 
947000000    570.07598   -157396.92   -155038.97    265.19347    566324.56    82.922228    82.641315    82.641315 
948000000    571.61788   -157429.76   -155065.44    217.76711    566324.56     82.86018    82.672251    82.672251 
949000000    563.34676   -157429.23   -155099.12     141.8333    566324.56    82.797637    82.703469    82.703469 
950000000    567.95868   -157428.75   -155079.56    119.21324    566324.56    82.734847    82.734847    82.734847 
951000000    569.16101   -157422.34   -155068.18     229.5826    566324.56    82.672056     82.76626     82.76626 
952000000    570.19794   -157405.98   -155047.53    268.60041    566324.56    82.609513    82.797584    82.797584 
953000000      572.938    -157429.4   -155059.62    228.98016    566324.56    82.547465    82.828697    82.828697 
954000000    572.67612   -157419.26   -155050.56    211.79905    566324.56    82.486157    82.859473    82.859473 
955000000    567.89993      -157423   -155074.05    71.420952    566324.56     82.42583    82.889789    82.889789 
956000000    568.54322   -157430.35   -155078.75    124.80045    566324.56    82.366722    82.919525    82.919525 
957000000     567.0642   -157403.48   -155057.99    130.15786    566324.56    82.309067    82.948561    82.948561 
958000000    568.22318    -157418.2   -155067.92    222.83683    566324.56    82.253093     82.97678     82.97678 
959000000    571.82804   -157415.17   -155049.98     204.3649    566324.56     82.19902    83.004068    83.004068 
960000000    570.23106   -157417.01   -155058.43    130.53673    566324.56    82.147061    83.030314    83.030314 
961000000    568.62516   -157433.33   -155081.39    30.306778    566324.56    82.097423    83.055412    83.055412 
962000000    574.29846   -157403.09   -155027.68    278.01692    566324.56    82.050299    83.079259    83.079259 
963000000    573.35188   -157401.41   -155029.91    439.04118    566324.56    82.005878    83.101757    83.101757 
964000000    569.03328    -157427.1   -155073.47    171.67488    566324.56    81.964333    83.122815    83.122815 
965000000     573.8549   -157400.27   -155026.69    329.74182    566324.56     81.92583    83.142346    83.142346 
966000000    569.72134   -157418.33   -155061.85     215.8697    566324.56    81.890519    83.160269    83.160269 
967000000    568.81305   -157412.39   -155059.67    334.64807    566324.56     81.85854    83.176512    83.176512 
968000000    575.61378   -157415.26   -155034.41    190.84749    566324.56    81.830019    83.191005    83.191005 
969000000    569.03034    -157396.5   -155042.88    326.04002    566324.56     81.80507     83.20369     83.20369 
970000000    567.90601   -157411.22   -155062.25    199.54731    566324.56     81.78379    83.214514    83.214514 
971000000    572.82767   -157397.16   -155027.83    315.28207    566324.56    81.766263    83.223432    83.223432 
972000000    571.05262   -157424.98      -155063    113.16824    566324.56    81.752559    83.230407    83.230407 
973000000    570.31665   -157398.75   -155039.81     324.8582    566324.56    81.742732     83.23541     83.23541 
974000000    572.06085   -157384.93   -155018.77    464.41233    566324.56     81.73682     83.23842     83.23842 
975000000    568.46268    -157403.7   -155052.42    313.29318    566324.56    81.734847    83.239425    83.239425 
976000000    567.05998   -157418.56   -155073.09    154.14488    566324.56     81.73682     83.23842     83.23842 
977000000    567.32538    -157394.6   -155048.03    353.11822    566324.56    81.742732     83.23541     83.23541 
978000000     567.1876   -157400.01   -155054.01    254.03143    566324.56    81.752559    83.230407    83.230407 
979000000     570.7755    -157388.1   -155027.26    350.61326    566324.56    81.766263    83.223432    83.223432 
980000000     571.7271   -157401.13   -155036.35    283.31163    566324.56     81.78379    83.214514    83.214514 
981000000     568.6014   -157394.55   -155042.71    334.93436    566324.56     81.80507     83.20369     83.20369 
982000000    567.48048   -157419.58   -155072.37    104.82517    566324.56    81.830019    83.191005    83.191005 
983000000    571.85593   -157427.56   -155062.25    254.95404    566324.56     81.85854    83.176512    83.176512 
984000000    569.41254   -157420.52   -155065.32    5.6932836    566324.56    81.890519    83.160269    83.160269 
985000000    572.18639   -157403.39   -155036.71    332.46524    566324.56     81.92583    83.142346    83.142346 
986000000    573.42875   -157386.37   -155014.56     531.2988    566324.56    81.964333    83.122815    83.122815 
987000000    567.21772   -157393.92    -155047.8    322.47449    566324.56    82.005878    83.101757    83.101757 
988000000    572.26538    -157416.5    -155049.5    352.03411    566324.56    82.050299    83.079259    83.079259 
989000000    575.09621   -157423.38   -155044.67    231.17549    566324.56    82.097423    83.055412    83.055412 
990000000    570.87909   -157437.38   -155076.11    132.82672    566324.56    82.147061    83.030314    83.030314 
991000000    570.21844   -157411.58   -155053.04    347.84242    566324.56     82.19902    83.004068    83.004068 
992000000    569.97667   -157415.32   -155057.78    86.803883    566324.56    82.253093     82.97678     82.97678 
993000000    574.01469   -157401.39   -155027.15    320.73195    566324.56    82.309067    82.948561    82.948561 
994000000    568.67463   -157414.42   -155062.27    133.67652    566324.56    82.366722    82.919525    82.919525 
995000000    569.27198   -157421.69   -155067.07    187.09309    566324.56     82.42583    82.889789    82.889789 
996000000    571.31098   -157416.76    -155053.7    323.54453    566324.56    82.486157    82.859473    82.859473 
997000000    567.85747    -157423.5   -155074.73    117.14283    566324.56    82.547465    82.828697    82.828697 
998000000    570.38025   -157427.22   -155068.02    255.58069    566324.56    82.609513    82.797584    82.797584 
999000000    570.08112   -157424.39   -155066.42    106.54734    566324.56    82.672056     82.76626     82.76626 
1000000000    570.42961   -157414.58   -155055.18    195.68758    566324.56    82.734847    82.734847    82.734847 
Loop time of 592144 on 104 procs for 1000000000 steps with 32000 atoms

Performance: 1459.105 ns/day, 0.016 hours/ns, 1688.779 timesteps/s
99.6% CPU use with 104 MPI tasks x 1 OpenMP threads

MPI task timing breakdown:
Section |  min time  |  avg time  |  max time  |%varavg| %total
---------------------------------------------------------------
Pair    | 3.4686e+05 | 3.5497e+05 | 3.6465e+05 | 739.1 | 59.95
Neigh   | 21402      | 22681      | 23973      | 440.5 |  3.83
Comm    | 1.196e+05  | 1.2725e+05 | 1.3828e+05 |1318.6 | 21.49
Output  | 2.1887     | 2.2358     | 2.2511     |   0.6 |  0.00
Modify  | 72289      | 77116      | 82166      | 744.5 | 13.02
Other   |            | 1.012e+04  |            |       |  1.71

Nlocal:        307.692 ave         320 max         289 min
Histogram: 1 0 4 8 15 19 26 14 12 5
Nghost:        2594.14 ave        2619 max        2554 min
Histogram: 2 2 6 6 14 16 20 15 14 9
Neighs:        22426.5 ave       24490 max       19992 min
Histogram: 1 5 11 8 20 20 16 9 8 6

Total # of neighbors = 2332359
Ave neighs/atom = 72.886219
Neighbor list builds = 95794568
Dangerous builds = 0
#clear
#jump dms580.lmp
Total wall time: 164:29:08
