units           metal
boundary        p p p
atom_style      atomic
read_data      ../../restart/T${T}.dat
read_data      ../../restart/T600.dat
Reading data file ...
  orthogonal box = (-2.4754144 -2.4754144 -2.4754144) to (80.310192 80.310192 80.310192)
  2 by 4 by 13 MPI processor grid
  reading atoms ...
  32000 atoms
  reading velocities ...
  32000 velocities
  read_data CPU = 0.214 seconds
pair_style      eam/alloy
pair_coeff      * *  ../../ZrCu.lammps.eam Zr Cu
mass 1 91.224
mass 2 63.546
neighbor            2.0 bin
neigh_modify     delay 1
timestep 0.01
thermo 1000000
reset_timestep 0
thermo_style custom step temp pe etotal press vol lx ly lz
fix             1 all nvt temp ${T} ${T} 0.1
fix             1 all nvt temp 600 ${T} 0.1
fix             1 all nvt temp 600 600 0.1
thermo_modify flush yes
fix nodrift all momentum 1  linear 1 1 1
fix com_seed all recenter INIT INIT INIT shift all
fix dsf all deform 1 x  wiggle 1.0  1000000.0 y volume z volume units box
fix ps1 all ave/time 1 1 1000000 c_thermo_press[1] c_thermo_press[2]  c_thermo_press[3] c_thermo_press[4]  c_thermo_press[5] c_thermo_press[6]  file  stress.${T}
fix ps1 all ave/time 1 1 1000000 c_thermo_press[1] c_thermo_press[2]  c_thermo_press[3] c_thermo_press[4]  c_thermo_press[5] c_thermo_press[6]  file  stress.600
dump            1 all custom 100000000 dump.${T} id type x y z
dump            1 all custom 100000000 dump.600 id type x y z
dump_modify 1 sort id
run 1000000000
Neighbor list info ...
  update every 1 steps, delay 1 steps, check yes
  max neighbors/atom: 2000, page size: 100000
  master list distance cutoff = 8.5
  ghost atom cutoff = 8.5
  binsize = 4.25, bins = 20 20 20
  1 neighbor lists, perpetual/occasional/extra = 1 0 0
  (1) pair eam/alloy/intel, perpetual
      attributes: half, newton on, intel
      pair build: half/bin/newton/intel
      stencil: half/bin/3d/newton
      bin: intel
Per MPI rank memory allocation (min/avg/max) = 7.354 | 7.468 | 7.615 Mbytes
Step Temp PotEng TotEng Press Volume Lx Ly Lz 
       0    601.52378   -157257.55   -154769.53   -458.89619    567367.56    82.785606    82.785606    82.785606 
 1000000    597.54614   -157209.05   -154737.48   -102.97147    567367.56    82.848397    82.754229    82.754229 
 2000000    602.08042   -157234.05   -154743.73   -213.70953    567367.56     82.91094    82.723011    82.723011 
 3000000    603.86808   -157222.49   -154724.77   -251.46712    567367.56    82.972988    82.692075    82.692075 
 4000000    600.61545   -157216.26   -154731.99   -267.60688    567367.56    83.034296    82.661541    82.661541 
 5000000    600.87773    -157217.6   -154732.25   -251.31073    567367.56    83.094623    82.631529    82.631529 
 6000000    603.26221   -157205.27   -154710.06   -169.75744    567367.56    83.153731    82.602156    82.602156 
 7000000     599.2987   -157224.59   -154745.77   -127.23525    567367.56    83.211386    82.573534    82.573534 
 8000000    596.87441   -157201.14   -154732.35   -180.13418    567367.56     83.26736    82.545776    82.545776 
 9000000    600.80658    -157216.6   -154731.54   -316.57548    567367.56    83.321433    82.518987    82.518987 
10000000    598.13159   -157215.01   -154741.02   -50.431787    567367.56    83.373392     82.49327     82.49327 
11000000    597.99297   -157197.68   -154724.27   -51.610728    567367.56     83.42303    82.468723    82.468723 
12000000    602.70293   -157208.12   -154715.22   -99.177435    567367.56    83.470154    82.445441    82.445441 
13000000    596.55615   -157196.68   -154729.21    47.903991    567367.56    83.514575    82.423512    82.423512 
14000000    602.92271   -157197.67   -154703.86   -128.86592    567367.56     83.55612    82.403018    82.403018 
15000000    600.29526   -157191.24    -154708.3    -93.37203    567367.56    83.594623    82.384039    82.384039 
16000000    602.08818   -157232.31   -154741.96   -300.18784    567367.56    83.629934    82.366644    82.366644 
17000000    599.69326   -157217.01   -154736.56    -163.2175    567367.56    83.661913    82.350901    82.350901 
18000000    600.36307   -157198.34   -154715.12   -24.008312    567367.56    83.690433    82.336868    82.336868 
19000000    599.27893   -157221.57   -154742.83   -213.87997    567367.56    83.715383    82.324598    82.324598 
20000000    597.80953   -157200.79   -154728.14   -58.881526    567367.56    83.736663    82.314137    82.314137 
21000000    602.32769   -157221.06   -154729.72   -147.62188    567367.56     83.75419    82.305523    82.305523 
22000000    599.68158   -157199.38   -154718.98   -221.84981    567367.56    83.767894    82.298791    82.298791 
23000000    599.29784   -157195.09   -154716.28   -131.97036    567367.56    83.777721    82.293964    82.293964 
24000000    598.36073   -157205.36   -154730.42   -205.83894    567367.56    83.783633     82.29106     82.29106 
25000000    602.85946   -157211.17   -154717.62    -77.62846    567367.56    83.785606    82.290091    82.290091 
26000000    597.55481   -157196.13   -154724.53   -143.73179    567367.56    83.783633     82.29106     82.29106 
27000000    595.98022   -157218.27   -154753.18   -228.63886    567367.56    83.777721    82.293964    82.293964 
28000000    599.86984   -157212.03   -154730.85   -259.18136    567367.56    83.767894    82.298791    82.298791 
29000000    600.81922   -157192.57   -154707.46    10.965085    567367.56     83.75419    82.305523    82.305523 
30000000    597.77525   -157206.75   -154734.23   -274.99399    567367.56    83.736663    82.314137    82.314137 
31000000    600.68153   -157183.89   -154699.35    29.848904    567367.56    83.715383    82.324598    82.324598 
32000000    597.21459   -157217.77   -154747.58   -487.37084    567367.56    83.690433    82.336868    82.336868 
33000000    598.40889   -157225.74    -154750.6   -310.14335    567367.56    83.661913    82.350901    82.350901 
34000000    603.19932   -157218.22   -154723.27   -202.72325    567367.56    83.629934    82.366644    82.366644 
35000000    599.58786   -157212.93   -154732.92   -212.52676    567367.56    83.594623    82.384039    82.384039 
36000000    603.23539   -157208.77   -154713.67   -199.62591    567367.56     83.55612    82.403018    82.403018 
37000000    602.48991   -157209.35   -154717.33   -80.767371    567367.56    83.514575    82.423512    82.423512 
38000000    597.50862   -157221.36   -154749.94    -272.1768    567367.56    83.470154    82.445441    82.445441 
39000000      594.879   -157207.17   -154746.64   -190.95277    567367.56     83.42303    82.468723    82.468723 
40000000    597.87943   -157237.75   -154764.81   -401.27244    567367.56    83.373392     82.49327     82.49327 
41000000    600.04384   -157221.75   -154739.85   -195.41726    567367.56    83.321433    82.518987    82.518987 
42000000    597.69368   -157224.47   -154752.29   -242.97407    567367.56     83.26736    82.545776    82.545776 
43000000    593.29382   -157204.48    -154750.5   -53.512842    567367.56    83.211386    82.573534    82.573534 
44000000    593.25204   -157214.45   -154760.64   -359.42329    567367.56    83.153731    82.602156    82.602156 
45000000    597.60288   -157209.13   -154737.33   -177.60204    567367.56    83.094623    82.631529    82.631529 
46000000    602.28998   -157215.03   -154723.84   -208.47392    567367.56    83.034296    82.661541    82.661541 
47000000    602.88703   -157208.62   -154714.96   -76.638303    567367.56    82.972988    82.692075    82.692075 
48000000    601.79627   -157226.31   -154737.16   -409.38425    567367.56     82.91094    82.723011    82.723011 
49000000    598.51929   -157208.06   -154732.47   -190.95249    567367.56    82.848397    82.754229    82.754229 
50000000    601.61167   -157207.15   -154718.76   -35.538859    567367.56    82.785606    82.785606    82.785606 
51000000    601.05468   -157210.52   -154724.44   -108.50297    567367.56    82.722816     82.81702     82.81702 
52000000    597.58906      -157211   -154739.25   -266.39574    567367.56    82.660273    82.848344    82.848344 
53000000    596.36835    -157227.6    -154760.9   -385.49692    567367.56    82.598225    82.879456    82.879456 
54000000    597.18395   -157231.34   -154761.27    -333.7358    567367.56    82.536917    82.910232    82.910232 
55000000     599.1414   -157215.92   -154737.76   -90.882717    567367.56    82.476589    82.940549    82.940549 
56000000    601.44568   -157215.79   -154728.09    -338.3363    567367.56    82.417482    82.970285    82.970285 
57000000     597.4721   -157205.23   -154733.97   -39.608227    567367.56    82.359827    82.999321    82.999321 
58000000    601.92641   -157208.67   -154718.99   -16.397521    567367.56    82.303853     83.02754     83.02754 
59000000    595.57344   -157203.75   -154740.34   -68.287654    567367.56     82.24978    83.054827    83.054827 
60000000    597.56584   -157193.52   -154721.87   -200.10176    567367.56    82.197821    83.081073    83.081073 
61000000    597.90828    -157195.6   -154722.54   -30.406938    567367.56    82.148182    83.106171    83.106171 
62000000     596.8733   -157234.68   -154765.89   -393.53645    567367.56    82.101059    83.130017    83.130017 
63000000    601.82862    -157196.6   -154707.32     1.056674    567367.56    82.056638    83.152516    83.152516 
64000000    601.36946   -157203.41   -154716.03    93.589441    567367.56    82.015093    83.173573    83.173573 
65000000    600.61037   -157210.62   -154726.37   -284.19254    567367.56    81.976589    83.193104    83.193104 
66000000    598.79355   -157215.24   -154738.52   -134.41547    567367.56    81.941278    83.211027    83.211027 
67000000    600.65136   -157198.01   -154713.59   -11.327679    567367.56      81.9093    83.227269    83.227269 
68000000    597.46788   -157195.47   -154724.22    2.4552534    567367.56    81.880779    83.241763    83.241763 
69000000    597.04684   -157192.59   -154723.08    18.892817    567367.56     81.85583    83.254448    83.254448 
70000000    597.78206   -157211.21   -154738.67   -107.65901    567367.56     81.83455    83.265272    83.265272 
71000000    602.66102   -157210.51   -154717.79   -146.59078    567367.56    81.817023    83.274189    83.274189 
72000000     597.3124   -157217.65   -154747.05   -233.54864    567367.56    81.803319    83.281164    83.281164 
73000000    601.13358    -157200.8   -154714.39   -187.90926    567367.56    81.793492    83.286167    83.286167 
74000000    597.67943   -157203.57   -154731.45   -48.152986    567367.56     81.78758    83.289178    83.289178 
75000000    599.73862   -157188.94    -154708.3   -44.001149    567367.56    81.785606    83.290182    83.290182 
76000000    600.35613   -157239.27   -154756.08    -304.3631    567367.56     81.78758    83.289178    83.289178 
77000000     601.1555   -157195.51   -154709.02    34.687891    567367.56    81.793492    83.286167    83.286167 
78000000    601.23965   -157201.92   -154715.08   -74.990507    567367.56    81.803319    83.281164    83.281164 
79000000    602.90099    -157219.3   -154725.58   -376.69203    567367.56    81.817023    83.274189    83.274189 
80000000    602.61768   -157198.43   -154705.89   -235.23365    567367.56     81.83455    83.265272    83.265272 
81000000    593.74772   -157231.55   -154775.69   -279.03524    567367.56     81.85583    83.254448    83.254448 
82000000    600.40366   -157216.95   -154733.56   -283.90564    567367.56    81.880779    83.241763    83.241763 
83000000    598.25162   -157223.66   -154749.18   -341.36024    567367.56      81.9093    83.227269    83.227269 
84000000    599.20637   -157202.55   -154724.12   -15.824668    567367.56    81.941278    83.211027    83.211027 
85000000    597.41047   -157205.12   -154734.11   -263.73431    567367.56    81.976589    83.193104    83.193104 
86000000    600.90542   -157207.09   -154721.63   -216.54518    567367.56    82.015093    83.173573    83.173573 
87000000    598.82001   -157220.32   -154743.48   -323.73596    567367.56    82.056638    83.152516    83.152516 
88000000    602.40546   -157213.34   -154721.68   -174.33897    567367.56    82.101059    83.130017    83.130017 
89000000    601.93789   -157218.43    -154728.7   -101.24325    567367.56    82.148182    83.106171    83.106171 
90000000    595.85724   -157231.12   -154766.54   -383.37527    567367.56    82.197821    83.081073    83.081073 
91000000    597.44889   -157208.65   -154737.48   -221.70179    567367.56     82.24978    83.054827    83.054827 
92000000    598.53473   -157221.33   -154745.67    -226.9053    567367.56    82.303853     83.02754     83.02754 
93000000    599.77405   -157233.38    -154752.6    -240.8415    567367.56    82.359827    82.999321    82.999321 
94000000    602.18491   -157228.02   -154737.27   -275.11797    567367.56    82.417482    82.970285    82.970285 
95000000     601.8921   -157215.88   -154726.33   -326.05172    567367.56    82.476589    82.940549    82.940549 
96000000    599.94491   -157245.74   -154764.25   -359.82554    567367.56    82.536917    82.910232    82.910232 
97000000    597.07674   -157226.33   -154756.71   -263.12946    567367.56    82.598225    82.879456    82.879456 
98000000    600.41096   -157222.74   -154739.32   -337.84046    567367.56    82.660273    82.848344    82.848344 
99000000    599.00734   -157221.93   -154744.32   -276.87198    567367.56    82.722816     82.81702     82.81702 
100000000    598.78707   -157241.06   -154764.36     -420.005    567367.56    82.785606    82.785606    82.785606 
101000000    600.90317   -157239.14   -154753.69   -259.44165    567367.56    82.848397    82.754229    82.754229 
102000000    598.37715   -157245.04   -154770.03   -428.81747    567367.56     82.91094    82.723011    82.723011 
103000000    602.02275   -157192.79   -154702.71   -66.885055    567367.56    82.972988    82.692075    82.692075 
104000000    598.52977   -157229.34   -154753.71   -292.15839    567367.56    83.034296    82.661541    82.661541 
105000000    605.10816   -157221.64    -154718.8   -258.36705    567367.56    83.094623    82.631529    82.631529 
106000000    596.91608   -157211.02   -154742.06   -317.04698    567367.56    83.153731    82.602156    82.602156 
107000000    598.85673   -157216.44   -154739.45   -161.41065    567367.56    83.211386    82.573534    82.573534 
108000000    601.54853   -157217.53   -154729.41   -86.985481    567367.56     83.26736    82.545776    82.545776 
109000000     601.6039   -157209.18   -154720.83   -261.77814    567367.56    83.321433    82.518987    82.518987 
110000000     599.2885    -157211.9   -154733.13   -165.20429    567367.56    83.373392     82.49327     82.49327 
111000000    599.82349   -157213.42   -154732.44   -218.96308    567367.56     83.42303    82.468723    82.468723 
112000000    604.95184   -157206.25   -154704.05     -102.905    567367.56    83.470154    82.445441    82.445441 
113000000    604.09207   -157235.65   -154737.01    -394.9777    567367.56    83.514575    82.423512    82.423512 
114000000    597.56756   -157208.21   -154736.55   -117.87203    567367.56     83.55612    82.403018    82.403018 
115000000     601.5227   -157207.56   -154719.55   -115.62438    567367.56    83.594623    82.384039    82.384039 
116000000    600.09478   -157207.01    -154724.9   -168.04163    567367.56    83.629934    82.366644    82.366644 
117000000    599.27397   -157229.44   -154750.72   -330.00114    567367.56    83.661913    82.350901    82.350901 
118000000    600.72098   -157202.71   -154718.01   -50.283896    567367.56    83.690433    82.336868    82.336868 
119000000    600.21893   -157221.43   -154738.81   -367.90467    567367.56    83.715383    82.324598    82.324598 
120000000    600.20646   -157224.54   -154741.97   -200.01522    567367.56    83.736663    82.314137    82.314137 
121000000     598.2815   -157188.93   -154714.32    11.092791    567367.56     83.75419    82.305523    82.305523 
122000000    599.06987   -157223.35   -154745.48   -202.02331    567367.56    83.767894    82.298791    82.298791 
123000000    600.20754   -157211.96   -154729.39   -263.20986    567367.56    83.777721    82.293964    82.293964 
124000000    602.56826    -157186.1   -154693.76    -28.97716    567367.56    83.783633     82.29106     82.29106 
125000000    602.00147   -157203.53   -154713.54   -154.83165    567367.56    83.785606    82.290091    82.290091 
126000000    601.60766   -157210.92   -154722.55   -225.67784    567367.56    83.783633     82.29106     82.29106 
127000000    600.13331   -157216.14   -154733.87   -334.81492    567367.56    83.777721    82.293964    82.293964 
128000000    600.36456   -157210.25   -154727.03    -239.3218    567367.56    83.767894    82.298791    82.298791 
129000000    605.07533   -157204.78   -154702.07   -225.28727    567367.56     83.75419    82.305523    82.305523 
130000000    600.45397   -157219.54   -154735.94   -358.95641    567367.56    83.736663    82.314137    82.314137 
131000000     598.1461   -157233.41   -154759.36   -466.60553    567367.56    83.715383    82.324598    82.324598 
132000000    599.77867   -157240.88   -154760.08   -480.87551    567367.56    83.690433    82.336868    82.336868 
133000000    599.04489   -157218.88   -154741.11   -261.08616    567367.56    83.661913    82.350901    82.350901 
134000000    597.79308   -157225.74   -154753.15   -331.54126    567367.56    83.629934    82.366644    82.366644 
135000000     602.6083    -157215.5   -154722.99   -305.85833    567367.56    83.594623    82.384039    82.384039 
136000000    598.72053   -157239.29   -154762.87    -309.7527    567367.56     83.55612    82.403018    82.403018 
137000000    597.74563   -157233.73   -154761.34   -441.93581    567367.56    83.514575    82.423512    82.423512 
138000000    599.49781    -157228.7   -154749.06   -251.07705    567367.56    83.470154    82.445441    82.445441 
139000000    600.60074   -157213.41   -154729.21   -286.38081    567367.56     83.42303    82.468723    82.468723 
140000000    601.23417   -157249.68   -154762.86   -525.70088    567367.56    83.373392     82.49327     82.49327 
141000000    602.94124   -157221.87   -154727.98    -405.0828    567367.56    83.321433    82.518987    82.518987 
142000000    601.61832   -157218.61    -154730.2   -289.80873    567367.56     83.26736    82.545776    82.545776 
143000000    599.80692    -157234.8   -154753.89   -384.73653    567367.56    83.211386    82.573534    82.573534 
144000000    597.84098   -157213.71   -154740.93   -284.14125    567367.56    83.153731    82.602156    82.602156 
145000000    601.96897   -157223.79   -154733.93   -317.71025    567367.56    83.094623    82.631529    82.631529 
146000000    597.49308   -157238.89   -154767.55   -325.51464    567367.56    83.034296    82.661541    82.661541 
147000000    598.63569   -157234.43   -154758.36   -446.40683    567367.56    82.972988    82.692075    82.692075 
148000000    596.96467   -157225.08   -154755.91   -285.09713    567367.56     82.91094    82.723011    82.723011 
149000000    601.80417   -157222.82   -154733.64   -150.04317    567367.56    82.848397    82.754229    82.754229 
150000000     600.5478   -157232.07   -154748.09   -337.44904    567367.56    82.785606    82.785606    82.785606 
151000000    593.36997   -157222.43   -154768.13   -241.12261    567367.56    82.722816     82.81702     82.81702 
152000000    599.30526   -157226.84   -154747.99   -274.58814    567367.56    82.660273    82.848344    82.848344 
153000000    602.01764   -157245.71   -154755.65   -522.22946    567367.56    82.598225    82.879456    82.879456 
154000000    604.57483   -157229.34    -154728.7   -297.28728    567367.56    82.536917    82.910232    82.910232 
155000000     594.7426   -157233.49   -154773.52   -547.18542    567367.56    82.476589    82.940549    82.940549 
156000000    595.78626   -157238.64   -154774.36   -509.88176    567367.56    82.417482    82.970285    82.970285 
157000000    600.23617   -157237.02   -154754.33   -398.27657    567367.56    82.359827    82.999321    82.999321 
158000000     595.8481   -157217.99   -154753.45   -287.38916    567367.56    82.303853     83.02754     83.02754 
159000000    597.51771   -157219.59   -154748.14   -301.75376    567367.56     82.24978    83.054827    83.054827 
160000000     599.3708   -157196.44   -154717.33   -187.75181    567367.56    82.197821    83.081073    83.081073 
161000000     603.3042   -157229.52   -154734.14   -247.61826    567367.56    82.148182    83.106171    83.106171 
162000000    604.00497   -157228.14   -154729.86   -312.35597    567367.56    82.101059    83.130017    83.130017 
163000000    602.62261    -157232.1   -154739.54   -334.85342    567367.56    82.056638    83.152516    83.152516 
164000000    607.03713   -157227.06   -154716.24   -140.78269    567367.56    82.015093    83.173573    83.173573 
165000000    598.43526    -157219.5   -154744.26   -184.42472    567367.56    81.976589    83.193104    83.193104 
166000000    601.54379   -157208.57   -154720.47   -259.08202    567367.56    81.941278    83.211027    83.211027 
167000000    602.86841   -157200.52   -154706.94    17.528577    567367.56      81.9093    83.227269    83.227269 
168000000    596.56519   -157229.28   -154761.77   -295.93559    567367.56    81.880779    83.241763    83.241763 
169000000    598.67324   -157223.76   -154747.53    -370.3328    567367.56     81.85583    83.254448    83.254448 
170000000    599.30237   -157211.52   -154732.69   -233.09899    567367.56     81.83455    83.265272    83.265272 
171000000    600.41087   -157202.56   -154719.15    -200.8609    567367.56    81.817023    83.274189    83.274189 
172000000    596.30307   -157209.96   -154743.53   -212.67482    567367.56    81.803319    83.281164    83.281164 
173000000    601.98664   -157227.11   -154737.18   -381.84757    567367.56    81.793492    83.286167    83.286167 
174000000    599.26442   -157207.32   -154728.65   -179.45085    567367.56     81.78758    83.289178    83.289178 
175000000    605.69626   -157216.78   -154711.51   -291.63414    567367.56    81.785606    83.290182    83.290182 
176000000    600.41387   -157194.23    -154710.8    -262.7681    567367.56     81.78758    83.289178    83.289178 
177000000    597.37371   -157206.29   -154735.43   -280.95255    567367.56    81.793492    83.286167    83.286167 
178000000    596.15724   -157218.17   -154752.35   -309.03972    567367.56    81.803319    83.281164    83.281164 
179000000    603.12639   -157216.21   -154721.56   -256.87658    567367.56    81.817023    83.274189    83.274189 
180000000    598.82866   -157229.95   -154753.08   -507.68893    567367.56     81.83455    83.265272    83.265272 
181000000    596.38596   -157242.79   -154776.02   -421.75638    567367.56     81.85583    83.254448    83.254448 
182000000    601.43302   -157224.53   -154736.89   -310.76961    567367.56    81.880779    83.241763    83.241763 
183000000    603.61458    -157218.5   -154721.83   -293.11191    567367.56      81.9093    83.227269    83.227269 
184000000    602.59741   -157224.49   -154732.02   -268.73974    567367.56    81.941278    83.211027    83.211027 
185000000     603.4844   -157239.05   -154742.92    -516.0828    567367.56    81.976589    83.193104    83.193104 
186000000    597.55422   -157220.16   -154748.56   -209.80559    567367.56    82.015093    83.173573    83.173573 
187000000    600.21055   -157237.26   -154754.68   -319.74532    567367.56    82.056638    83.152516    83.152516 
188000000    603.71976   -157237.79   -154740.69   -333.72352    567367.56    82.101059    83.130017    83.130017 
189000000    597.80824   -157226.36    -154753.7   -346.83178    567367.56    82.148182    83.106171    83.106171 
190000000    594.50415   -157238.07   -154779.09    -400.1483    567367.56    82.197821    83.081073    83.081073 
191000000     600.3793   -157236.38    -154753.1   -410.13179    567367.56     82.24978    83.054827    83.054827 
192000000    597.69893   -157247.59   -154775.39   -506.46814    567367.56    82.303853     83.02754     83.02754 
193000000     594.7586   -157221.74    -154761.7   -351.22764    567367.56    82.359827    82.999321    82.999321 
194000000    602.37382   -157235.59   -154744.05   -481.05075    567367.56    82.417482    82.970285    82.970285 
195000000    603.89904   -157245.24   -154747.39   -314.95542    567367.56    82.476589    82.940549    82.940549 
196000000    601.20217   -157238.09    -154751.4   -479.50939    567367.56    82.536917    82.910232    82.910232 
197000000    598.31333   -157239.56   -154764.81   -403.58578    567367.56    82.598225    82.879456    82.879456 
198000000    599.94354   -157245.14   -154763.65   -466.02208    567367.56    82.660273    82.848344    82.848344 
199000000    599.63363   -157244.45   -154764.25   -405.96338    567367.56    82.722816     82.81702     82.81702 
200000000    598.78677    -157248.9    -154772.2   -499.19821    567367.56    82.785606    82.785606    82.785606 
201000000    599.72371   -157240.77   -154760.19   -329.97337    567367.56    82.848397    82.754229    82.754229 
202000000    601.71802   -157233.99   -154745.16   -409.26466    567367.56     82.91094    82.723011    82.723011 
203000000    599.52822   -157212.53   -154732.76   -133.67521    567367.56    82.972988    82.692075    82.692075 
204000000    599.84977   -157227.94   -154746.85   -438.99149    567367.56    83.034296    82.661541    82.661541 
205000000    599.52725    -157225.8   -154746.04   -393.22535    567367.56    83.094623    82.631529    82.631529 
206000000    598.43465   -157217.19   -154741.95   -373.94373    567367.56    83.153731    82.602156    82.602156 
207000000    601.67237   -157224.53    -154735.9   -388.30131    567367.56    83.211386    82.573534    82.573534 
208000000    598.84928   -157231.34   -154754.38   -369.82079    567367.56     83.26736    82.545776    82.545776 
209000000    596.90066   -157239.98   -154771.08    -492.0491    567367.56    83.321433    82.518987    82.518987 
210000000    602.25725   -157217.76    -154726.7   -279.18431    567367.56    83.373392     82.49327     82.49327 
211000000    597.70857   -157224.44   -154752.21   -453.43827    567367.56     83.42303    82.468723    82.468723 
212000000    600.89352   -157232.87   -154747.46   -369.06171    567367.56    83.470154    82.445441    82.445441 
213000000    604.09798   -157230.22   -154731.55   -483.06062    567367.56    83.514575    82.423512    82.423512 
214000000    600.10251   -157232.83   -154750.69   -586.31827    567367.56     83.55612    82.403018    82.403018 
215000000     599.7456   -157210.09   -154729.42   -203.58321    567367.56    83.594623    82.384039    82.384039 
216000000    599.86221   -157205.63   -154724.49   -185.08844    567367.56    83.629934    82.366644    82.366644 
217000000    602.55403   -157208.72   -154716.44   -140.27426    567367.56    83.661913    82.350901    82.350901 
218000000    598.94914   -157242.14   -154764.77   -525.65548    567367.56    83.690433    82.336868    82.336868 
219000000    599.76288   -157236.42   -154755.68   -419.68375    567367.56    83.715383    82.324598    82.324598 
220000000     601.2928   -157200.65   -154713.58   -251.58411    567367.56    83.736663    82.314137    82.314137 
221000000    604.46712   -157213.34   -154713.15   -175.02304    567367.56     83.75419    82.305523    82.305523 
222000000    600.19815   -157212.83   -154730.29   -204.72442    567367.56    83.767894    82.298791    82.298791 
223000000    599.84487   -157232.04   -154750.96   -301.80767    567367.56    83.777721    82.293964    82.293964 
224000000     602.2789   -157231.62   -154740.47   -395.99721    567367.56    83.783633     82.29106     82.29106 
225000000    599.02708   -157222.32   -154744.63   -343.42632    567367.56    83.785606    82.290091    82.290091 
226000000     597.2917   -157243.52   -154773.01   -404.68509    567367.56    83.783633     82.29106     82.29106 
227000000    600.63586   -157221.56   -154737.21    -392.4796    567367.56    83.777721    82.293964    82.293964 
228000000    601.03768    -157233.4   -154747.39   -269.32749    567367.56    83.767894    82.298791    82.298791 
229000000    598.20294   -157217.15   -154742.87   -288.67624    567367.56     83.75419    82.305523    82.305523 
230000000    594.16122   -157221.23   -154763.66   -138.25884    567367.56    83.736663    82.314137    82.314137 
231000000    602.16601   -157235.75   -154745.07   -420.28662    567367.56    83.715383    82.324598    82.324598 
232000000    596.14112   -157236.49   -154770.74   -438.22889    567367.56    83.690433    82.336868    82.336868 
233000000    597.42369   -157238.36    -154767.3   -392.04246    567367.56    83.661913    82.350901    82.350901 
234000000    599.55482   -157224.55   -154744.67   -283.09695    567367.56    83.629934    82.366644    82.366644 
235000000    596.26154   -157239.67   -154773.42   -395.96824    567367.56    83.594623    82.384039    82.384039 
236000000    597.40105   -157239.46   -154768.49   -351.96601    567367.56     83.55612    82.403018    82.403018 
237000000    602.72135   -157231.59   -154738.62    -335.0526    567367.56    83.514575    82.423512    82.423512 
238000000    598.23024   -157236.38   -154761.99   -421.21683    567367.56    83.470154    82.445441    82.445441 
239000000    603.14431   -157227.46   -154732.73   -205.54402    567367.56     83.42303    82.468723    82.468723 
240000000     598.5269   -157258.08   -154782.46   -559.79557    567367.56    83.373392     82.49327     82.49327 
241000000    598.71361   -157249.97   -154773.58   -646.28574    567367.56    83.321433    82.518987    82.518987 
242000000    601.31697   -157251.94   -154764.78   -297.73971    567367.56     83.26736    82.545776    82.545776 
243000000     602.0901   -157238.85   -154748.49   -303.16773    567367.56    83.211386    82.573534    82.573534 
244000000    597.05777   -157255.25    -154785.7   -459.68723    567367.56    83.153731    82.602156    82.602156 
245000000    602.74006   -157247.74   -154754.69   -431.00942    567367.56    83.094623    82.631529    82.631529 
246000000    598.53279   -157254.53   -154778.88   -290.81088    567367.56    83.034296    82.661541    82.661541 
247000000    593.27622   -157241.05   -154787.15     -522.919    567367.56    82.972988    82.692075    82.692075 
248000000    598.74681   -157257.58   -154781.05    -405.7496    567367.56     82.91094    82.723011    82.723011 
249000000    598.16516   -157262.77   -154788.64   -571.36515    567367.56    82.848397    82.754229    82.754229 
250000000    600.53296   -157271.55   -154787.63   -628.28543    567367.56    82.785606    82.785606    82.785606 
251000000    595.79747   -157249.83    -154785.5   -476.13514    567367.56    82.722816     82.81702     82.81702 
252000000    600.67945   -157237.39   -154752.86   -431.87109    567367.56    82.660273    82.848344    82.848344 
253000000     601.7653   -157223.97   -154734.95   -273.61767    567367.56    82.598225    82.879456    82.879456 
254000000    595.14903   -157220.09   -154758.44   -66.162463    567367.56    82.536917    82.910232    82.910232 
255000000    599.74079   -157236.71   -154756.07   -378.77761    567367.56    82.476589    82.940549    82.940549 
256000000    598.30173   -157239.67   -154764.98   -341.25718    567367.56    82.417482    82.970285    82.970285 
257000000    599.02505   -157221.37   -154743.68   -89.992228    567367.56    82.359827    82.999321    82.999321 
258000000    598.87152   -157211.28   -154734.23    -97.09284    567367.56    82.303853     83.02754     83.02754 
259000000    599.90699   -157244.93   -154763.59   -494.27573    567367.56     82.24978    83.054827    83.054827 
260000000    600.12491   -157222.61   -154740.37   -275.21576    567367.56    82.197821    83.081073    83.081073 
261000000    597.83011   -157229.08   -154756.33   -365.45093    567367.56    82.148182    83.106171    83.106171 
262000000    597.89674   -157221.58   -154748.56   -353.54689    567367.56    82.101059    83.130017    83.130017 
263000000    601.41344   -157225.07   -154737.51   -286.78917    567367.56    82.056638    83.152516    83.152516 
264000000    600.56549   -157225.19   -154741.13    -237.9742    567367.56    82.015093    83.173573    83.173573 
265000000    601.49744   -157224.16   -154736.25   -345.77278    567367.56    81.976589    83.193104    83.193104 
266000000    602.18712   -157225.51   -154734.75   -386.60424    567367.56    81.941278    83.211027    83.211027 
267000000    599.70236   -157236.68    -154756.2   -404.19888    567367.56      81.9093    83.227269    83.227269 
268000000    596.96896   -157227.95   -154758.77   -427.16766    567367.56    81.880779    83.241763    83.241763 
269000000    598.58884   -157211.05   -154735.17    -334.2585    567367.56     81.85583    83.254448    83.254448 
270000000    602.05225   -157227.57   -154737.37   -282.09919    567367.56     81.83455    83.265272    83.265272 
271000000     598.9505    -157244.4   -154767.02   -469.17794    567367.56    81.817023    83.274189    83.274189 
272000000    597.47195   -157229.12   -154757.86   -217.15522    567367.56    81.803319    83.281164    83.281164 
273000000    600.01379    -157221.5   -154739.73   -267.26631    567367.56    81.793492    83.286167    83.286167 
274000000    599.37068   -157235.51    -154756.4   -521.72005    567367.56     81.78758    83.289178    83.289178 
275000000    606.86054   -157230.74   -154720.65   -328.00657    567367.56    81.785606    83.290182    83.290182 
276000000    604.44806    -157250.1   -154749.98   -399.96886    567367.56     81.78758    83.289178    83.289178 
277000000    601.38871    -157228.9   -154741.44   -220.17246    567367.56    81.793492    83.286167    83.286167 
278000000    599.89297   -157231.83   -154750.56   -381.87022    567367.56    81.803319    83.281164    83.281164 
279000000    598.29161   -157214.73   -154740.08   -338.02049    567367.56    81.817023    83.274189    83.274189 
280000000    594.86993   -157210.05   -154749.55   -98.632032    567367.56     81.83455    83.265272    83.265272 
281000000    606.55591   -157255.92   -154747.08   -298.64203    567367.56     81.85583    83.254448    83.254448 
282000000    596.15469   -157241.19   -154775.37    -372.9511    567367.56    81.880779    83.241763    83.241763 
283000000    600.56585   -157232.25   -154748.19   -362.50176    567367.56      81.9093    83.227269    83.227269 
284000000    603.96859   -157230.27   -154732.14    -355.4605    567367.56    81.941278    83.211027    83.211027 
285000000    598.80567   -157250.27   -154773.49   -420.12487    567367.56    81.976589    83.193104    83.193104 
286000000    593.84625   -157234.38   -154778.12   -407.68026    567367.56    82.015093    83.173573    83.173573 
287000000    597.69209   -157222.23   -154750.06   -312.10744    567367.56    82.056638    83.152516    83.152516 
288000000    597.96269   -157219.67   -154746.38    -401.3005    567367.56    82.101059    83.130017    83.130017 
289000000    599.93224   -157247.97   -154766.53   -382.56179    567367.56    82.148182    83.106171    83.106171 
290000000    601.41966   -157239.11   -154751.52   -388.91728    567367.56    82.197821    83.081073    83.081073 
291000000    600.35333   -157227.97   -154744.79   -371.58918    567367.56     82.24978    83.054827    83.054827 
292000000    601.11785   -157264.46   -154778.12   -628.44834    567367.56    82.303853     83.02754     83.02754 
293000000    600.70295   -157243.35   -154758.72   -538.81029    567367.56    82.359827    82.999321    82.999321 
294000000     604.1335   -157254.29   -154755.47   -472.50826    567367.56    82.417482    82.970285    82.970285 
295000000    599.75644   -157264.67   -154783.96   -611.41986    567367.56    82.476589    82.940549    82.940549 
296000000    606.61483   -157248.87    -154739.8   -471.76826    567367.56    82.536917    82.910232    82.910232 
297000000    599.28784   -157238.57    -154759.8   -341.22459    567367.56    82.598225    82.879456    82.879456 
298000000    596.40175   -157237.65   -154770.81   -483.03065    567367.56    82.660273    82.848344    82.848344 
299000000    598.98879   -157256.98   -154779.44   -628.14517    567367.56    82.722816     82.81702     82.81702 
300000000    604.57741   -157248.35    -154747.7   -416.45984    567367.56    82.785606    82.785606    82.785606 
301000000    602.08465    -157255.1   -154764.76   -490.28451    567367.56    82.848397    82.754229    82.754229 
302000000    600.35994   -157246.66   -154763.46     -464.361    567367.56     82.91094    82.723011    82.723011 
303000000    598.80426   -157239.59   -154762.82   -392.46991    567367.56    82.972988    82.692075    82.692075 
304000000    604.89266   -157234.44   -154732.49   -394.51646    567367.56    83.034296    82.661541    82.661541 
305000000    601.34389   -157242.59   -154755.32   -397.64477    567367.56    83.094623    82.631529    82.631529 
306000000    596.00236   -157243.32   -154778.13   -507.51671    567367.56    83.153731    82.602156    82.602156 
307000000    606.76703   -157255.32   -154745.62   -409.05333    567367.56    83.211386    82.573534    82.573534 
308000000    604.47154   -157252.12   -154751.91   -393.55604    567367.56     83.26736    82.545776    82.545776 
309000000    596.65106   -157235.26   -154767.39   -451.86973    567367.56    83.321433    82.518987    82.518987 
310000000    598.68834   -157233.93   -154757.64    -143.4125    567367.56    83.373392     82.49327     82.49327 
311000000    600.10553   -157249.36    -154767.2   -576.13853    567367.56     83.42303    82.468723    82.468723 
312000000    594.72647   -157256.69   -154796.78    -547.2245    567367.56    83.470154    82.445441    82.445441 
313000000    604.81523   -157252.45   -154750.81   -368.68306    567367.56    83.514575    82.423512    82.423512 
314000000    596.71381    -157251.1   -154782.97   -539.51037    567367.56     83.55612    82.403018    82.403018 
315000000    599.87283   -157229.06   -154747.87   -306.00502    567367.56    83.594623    82.384039    82.384039 
316000000    597.49057   -157235.25   -154763.91   -278.56096    567367.56    83.629934    82.366644    82.366644 
317000000    599.14562   -157214.34   -154736.16   -293.91627    567367.56    83.661913    82.350901    82.350901 
318000000    597.33492   -157227.96   -154757.27   -268.36687    567367.56    83.690433    82.336868    82.336868 
319000000    597.99329   -157232.03   -154758.62   -418.96721    567367.56    83.715383    82.324598    82.324598 
320000000    594.74114   -157215.42   -154755.45   -204.00922    567367.56    83.736663    82.314137    82.314137 
321000000    600.80885   -157241.87   -154756.81   -515.70556    567367.56     83.75419    82.305523    82.305523 
322000000    600.87263    -157238.2   -154752.88   -551.16232    567367.56    83.767894    82.298791    82.298791 
323000000    599.38903    -157239.1   -154759.91   -443.98804    567367.56    83.777721    82.293964    82.293964 
324000000    598.63675   -157250.27   -154774.19   -522.72906    567367.56    83.783633     82.29106     82.29106 
325000000    605.81558   -157250.72   -154744.94   -418.50691    567367.56    83.785606    82.290091    82.290091 
326000000    600.56568   -157236.44   -154752.38   -382.70509    567367.56    83.783633     82.29106     82.29106 
327000000    603.36444   -157240.12   -154744.48   -361.90039    567367.56    83.777721    82.293964    82.293964 
328000000    598.23094   -157259.76   -154785.36   -699.59166    567367.56    83.767894    82.298791    82.298791 
329000000    599.84184    -157239.7   -154758.64   -261.66611    567367.56     83.75419    82.305523    82.305523 
330000000    602.39235    -157231.7   -154740.08   -361.34057    567367.56    83.736663    82.314137    82.314137 
331000000    599.51934   -157254.06   -154774.33   -416.47382    567367.56    83.715383    82.324598    82.324598 
332000000    603.35295    -157235.4   -154739.81   -541.66271    567367.56    83.690433    82.336868    82.336868 
333000000    600.32816   -157239.33   -154756.26   -399.33081    567367.56    83.661913    82.350901    82.350901 
334000000     598.8622   -157251.22   -154774.21   -504.38973    567367.56    83.629934    82.366644    82.366644 
335000000    599.35888   -157255.72   -154776.65   -506.67801    567367.56    83.594623    82.384039    82.384039 
336000000    599.17304   -157246.47   -154768.17   -555.24244    567367.56     83.55612    82.403018    82.403018 
337000000    597.31638    -157243.2   -154772.58     -486.262    567367.56    83.514575    82.423512    82.423512 
338000000    597.03668   -157236.89   -154767.43   -422.10405    567367.56    83.470154    82.445441    82.445441 
339000000    594.61658   -157236.62   -154777.17   -417.93115    567367.56     83.42303    82.468723    82.468723 
340000000    602.50045   -157244.48   -154752.42   -556.42612    567367.56    83.373392     82.49327     82.49327 
341000000    603.23996   -157231.91    -154736.8   -398.25528    567367.56    83.321433    82.518987    82.518987 
342000000    600.64553   -157246.31   -154761.92   -484.18259    567367.56     83.26736    82.545776    82.545776 
343000000    593.73374   -157228.48   -154772.68   -276.10211    567367.56    83.211386    82.573534    82.573534 
344000000    597.05757   -157259.74    -154790.2   -478.83849    567367.56    83.153731    82.602156    82.602156 
345000000    599.42294   -157261.56   -154782.23   -557.47622    567367.56    83.094623    82.631529    82.631529 
346000000    602.54261   -157261.03    -154768.8   -553.37039    567367.56    83.034296    82.661541    82.661541 
347000000    600.05749   -157253.66   -154771.71    -477.3917    567367.56    82.972988    82.692075    82.692075 
348000000      597.181   -157248.14   -154778.08   -407.46859    567367.56     82.91094    82.723011    82.723011 
349000000    602.40342   -157237.97   -154746.31   -428.22274    567367.56    82.848397    82.754229    82.754229 
350000000    601.24418   -157246.21   -154759.35   -512.47721    567367.56    82.785606    82.785606    82.785606 
351000000     594.3497   -157266.07   -154807.72   -856.65179    567367.56    82.722816     82.81702     82.81702 
352000000    600.01604   -157232.53   -154750.75   -428.98668    567367.56    82.660273    82.848344    82.848344 
353000000    608.36014   -157236.17   -154719.87   -283.33891    567367.56    82.598225    82.879456    82.879456 
354000000    601.45485   -157243.96   -154756.23    -390.7216    567367.56    82.536917    82.910232    82.910232 
355000000    596.87514   -157256.96   -154788.17   -622.06069    567367.56    82.476589    82.940549    82.940549 
356000000    600.88474   -157245.46   -154760.08     -536.367    567367.56    82.417482    82.970285    82.970285 
357000000     593.0212   -157265.55    -154812.7   -854.52867    567367.56    82.359827    82.999321    82.999321 
358000000    601.50284    -157225.4   -154737.47   -203.95006    567367.56    82.303853     83.02754     83.02754 
359000000    603.07152   -157241.19   -154746.77   -361.70389    567367.56     82.24978    83.054827    83.054827 
360000000    602.58381   -157252.32   -154759.92    -389.9575    567367.56    82.197821    83.081073    83.081073 
361000000    603.16423   -157222.97   -154728.16   -216.81559    567367.56    82.148182    83.106171    83.106171 
362000000    600.48121    -157238.5    -154754.8   -254.45587    567367.56    82.101059    83.130017    83.130017 
363000000    599.08349   -157235.23    -154757.3   -504.94691    567367.56    82.056638    83.152516    83.152516 
364000000    596.84749   -157244.55   -154775.87   -479.24292    567367.56    82.015093    83.173573    83.173573 
365000000    598.98517   -157221.85   -154744.33   -357.42374    567367.56    81.976589    83.193104    83.193104 
366000000    602.65133   -157236.16   -154743.48   -480.12871    567367.56    81.941278    83.211027    83.211027 
367000000     604.7397   -157209.68   -154708.36   -54.998611    567367.56      81.9093    83.227269    83.227269 
368000000    602.28153   -157212.49   -154721.34   -209.29325    567367.56    81.880779    83.241763    83.241763 
369000000    601.54801   -157210.12      -154722   -240.75207    567367.56     81.85583    83.254448    83.254448 
370000000    597.70115   -157222.19   -154749.98   -357.33957    567367.56     81.83455    83.265272    83.265272 
371000000    598.77182   -157224.44    -154747.8   -344.11473    567367.56    81.817023    83.274189    83.274189 
372000000    603.12703   -157213.97   -154719.32   -442.52244    567367.56    81.803319    83.281164    83.281164 
373000000    597.06019   -157224.66    -154755.1   -393.64348    567367.56    81.793492    83.286167    83.286167 
374000000     602.5897      -157234   -154741.58   -475.88175    567367.56     81.78758    83.289178    83.289178 
375000000    602.47107   -157222.67   -154730.73   -177.41728    567367.56    81.785606    83.290182    83.290182 
376000000    598.65901   -157205.31   -154729.14    -325.6666    567367.56     81.78758    83.289178    83.289178 
377000000    600.57656   -157238.09   -154753.99   -376.42165    567367.56    81.793492    83.286167    83.286167 
378000000    599.60515   -157202.77   -154722.68   -247.76918    567367.56    81.803319    83.281164    83.281164 
379000000    597.61427   -157214.83   -154742.98   -309.84769    567367.56    81.817023    83.274189    83.274189 
380000000    601.01248   -157218.82   -154732.92    -262.4223    567367.56     81.83455    83.265272    83.265272 
381000000    598.04661   -157231.96   -154758.32   -466.16532    567367.56     81.85583    83.254448    83.254448 
382000000    597.09631   -157231.79   -154762.08   -365.10797    567367.56    81.880779    83.241763    83.241763 
383000000    601.97488   -157238.08   -154748.19    -486.9036    567367.56      81.9093    83.227269    83.227269 
384000000    599.07162   -157262.45   -154784.57   -622.88352    567367.56    81.941278    83.211027    83.211027 
385000000    597.21075    -157230.6   -154760.42   -508.33535    567367.56    81.976589    83.193104    83.193104 
386000000    599.86662   -157236.53   -154755.36   -357.47787    567367.56    82.015093    83.173573    83.173573 
387000000    602.26636   -157246.02   -154754.93   -375.76379    567367.56    82.056638    83.152516    83.152516 
388000000    601.49579    -157249.5    -154761.6   -550.62227    567367.56    82.101059    83.130017    83.130017 
389000000    603.51062   -157233.99   -154737.75   -318.01633    567367.56    82.148182    83.106171    83.106171 
390000000    600.12612   -157241.78   -154759.54   -570.20798    567367.56    82.197821    83.081073    83.081073 
391000000    597.58287   -157240.07   -154768.35   -459.73263    567367.56     82.24978    83.054827    83.054827 
392000000    596.31825   -157244.02   -154777.53   -586.70459    567367.56    82.303853     83.02754     83.02754 
393000000    600.41735   -157263.55    -154780.1   -681.18981    567367.56    82.359827    82.999321    82.999321 
394000000    603.52986   -157216.84   -154720.52   -352.34353    567367.56    82.417482    82.970285    82.970285 
395000000     598.2995   -157246.33   -154771.65   -621.77135    567367.56    82.476589    82.940549    82.940549 
396000000    599.83795   -157221.43   -154740.38   -359.37208    567367.56    82.536917    82.910232    82.910232 
397000000    600.74106   -157251.06   -154766.28   -588.66842    567367.56    82.598225    82.879456    82.879456 
398000000    596.24316   -157258.08    -154791.9   -588.85705    567367.56    82.660273    82.848344    82.848344 
399000000    594.66708   -157236.34   -154776.68   -589.04632    567367.56    82.722816     82.81702     82.81702 
400000000    600.12165   -157243.92    -154761.7   -435.84596    567367.56    82.785606    82.785606    82.785606 
401000000    597.72314   -157233.69   -154761.39     -430.647    567367.56    82.848397    82.754229    82.754229 
402000000    597.33469   -157261.05   -154790.35   -613.94138    567367.56     82.91094    82.723011    82.723011 
403000000    596.66855   -157270.22   -154802.28   -782.12752    567367.56    82.972988    82.692075    82.692075 
404000000    600.86554   -157270.47   -154785.17    -591.7243    567367.56    83.034296    82.661541    82.661541 
405000000    602.27291   -157246.59   -154755.48   -336.39989    567367.56    83.094623    82.631529    82.631529 
406000000    597.29487   -157248.58   -154778.05    -639.6363    567367.56    83.153731    82.602156    82.602156 
407000000    601.18757   -157245.01   -154758.38   -525.14192    567367.56    83.211386    82.573534    82.573534 
408000000    601.08676    -157244.2   -154757.99   -446.05806    567367.56     83.26736    82.545776    82.545776 
409000000    601.17079    -157225.1   -154738.54   -357.40665    567367.56    83.321433    82.518987    82.518987 
410000000     593.9421   -157258.82   -154802.16   -601.59838    567367.56    83.373392     82.49327     82.49327 
411000000    600.09228   -157261.79   -154779.69   -466.50212    567367.56     83.42303    82.468723    82.468723 
412000000    600.17077    -157249.4   -154766.98   -543.61118    567367.56    83.470154    82.445441    82.445441 
413000000    599.62627    -157240.7   -154760.53   -435.56647    567367.56    83.514575    82.423512    82.423512 
414000000    600.95044   -157244.02   -154758.37   -593.85242    567367.56     83.55612    82.403018    82.403018 
415000000    598.57697   -157232.32   -154756.49   -306.00365    567367.56    83.594623    82.384039    82.384039 
416000000    601.60485   -157223.03   -154734.68   -343.81513    567367.56    83.629934    82.366644    82.366644 
417000000    600.99392   -157241.83      -154756   -479.27013    567367.56    83.661913    82.350901    82.350901 
418000000    598.79947   -157245.65    -154768.9   -598.15842    567367.56    83.690433    82.336868    82.336868 
419000000    597.85649   -157249.62   -154776.77   -466.28344    567367.56    83.715383    82.324598    82.324598 
420000000    595.56283   -157242.73   -154779.36   -599.70337    567367.56    83.736663    82.314137    82.314137 
421000000    599.31464   -157247.85   -154768.97   -496.32661    567367.56     83.75419    82.305523    82.305523 
422000000    597.63876   -157248.24   -154776.28   -549.73826    567367.56    83.767894    82.298791    82.298791 
423000000    601.43231   -157232.47   -154744.83   -283.64811    567367.56    83.777721    82.293964    82.293964 
424000000    601.64652   -157245.54   -154757.01   -296.25684    567367.56    83.783633     82.29106     82.29106 
425000000    599.09028   -157255.43   -154777.48    -441.4036    567367.56    83.785606    82.290091    82.290091 
426000000    606.33489   -157225.88   -154717.96   -58.579006    567367.56    83.783633     82.29106     82.29106 
427000000    597.85001    -157240.9   -154768.08   -491.78696    567367.56    83.777721    82.293964    82.293964 
428000000    601.05846   -157234.15   -154748.06   -372.15915    567367.56    83.767894    82.298791    82.298791 
429000000    600.64515   -157240.71   -154756.33   -468.40382    567367.56     83.75419    82.305523    82.305523 
430000000    600.29275   -157251.09   -154768.17   -499.16632    567367.56    83.736663    82.314137    82.314137 
431000000    598.15719    -157242.6   -154768.51   -507.80901    567367.56    83.715383    82.324598    82.324598 
432000000    602.32422   -157243.79   -154752.46   -404.61898    567367.56    83.690433    82.336868    82.336868 
433000000    604.06302   -157271.55   -154773.03   -561.75825    567367.56    83.661913    82.350901    82.350901 
434000000    602.85379   -157241.18   -154747.66   -444.58464    567367.56    83.629934    82.366644    82.366644 
435000000    601.13203   -157241.46   -154755.06   -502.58051    567367.56    83.594623    82.384039    82.384039 
436000000    598.61909   -157228.52   -154752.51   -273.25224    567367.56     83.55612    82.403018    82.403018 
437000000    599.85508   -157250.32    -154769.2   -611.13264    567367.56    83.514575    82.423512    82.423512 
438000000    603.21743   -157240.58   -154745.55   -499.85393    567367.56    83.470154    82.445441    82.445441 
439000000     601.8854   -157260.35   -154770.83   -629.95175    567367.56     83.42303    82.468723    82.468723 
440000000    598.42214   -157257.24   -154782.05   -597.51793    567367.56    83.373392     82.49327     82.49327 
441000000    604.32963   -157269.85   -154770.23   -708.53801    567367.56    83.321433    82.518987    82.518987 
442000000    597.99026   -157264.17   -154790.76   -553.20164    567367.56     83.26736    82.545776    82.545776 
443000000    599.30998   -157243.69   -154764.83   -352.91097    567367.56    83.211386    82.573534    82.573534 
444000000    600.03139   -157256.27   -154774.42   -712.06184    567367.56    83.153731    82.602156    82.602156 
445000000    601.28703   -157248.36   -154761.32   -580.87232    567367.56    83.094623    82.631529    82.631529 
446000000    593.93493   -157255.47   -154798.84   -597.84609    567367.56    83.034296    82.661541    82.661541 
447000000    597.47084   -157231.44   -154760.18   -440.30025    567367.56    82.972988    82.692075    82.692075 
448000000    602.21617   -157281.89   -154791.01   -737.31933    567367.56     82.91094    82.723011    82.723011 
449000000    599.81149   -157250.22   -154769.28   -464.29534    567367.56    82.848397    82.754229    82.754229 
450000000    595.73029   -157271.17   -154807.11   -611.83188    567367.56    82.785606    82.785606    82.785606 
451000000    599.19693   -157255.65   -154777.26   -464.75459    567367.56    82.722816     82.81702     82.81702 
452000000    596.31563   -157257.95   -154791.47   -620.70728    567367.56    82.660273    82.848344    82.848344 
453000000    599.87102   -157270.18      -154789   -589.72877    567367.56    82.598225    82.879456    82.879456 
454000000    602.07686   -157263.51   -154773.21   -588.00291    567367.56    82.536917    82.910232    82.910232 
455000000    598.21457   -157265.91   -154791.58   -538.83708    567367.56    82.476589    82.940549    82.940549 
456000000    599.54835   -157257.51   -154777.66   -542.59637    567367.56    82.417482    82.970285    82.970285 
457000000    594.71767   -157241.89   -154782.02    -447.1781    567367.56    82.359827    82.999321    82.999321 
458000000    600.15229   -157264.13   -154781.78   -491.99972    567367.56    82.303853     83.02754     83.02754 
459000000    597.10943   -157249.47   -154779.71   -550.51455    567367.56     82.24978    83.054827    83.054827 
460000000    596.43004   -157250.08   -154783.13    -525.2573    567367.56    82.197821    83.081073    83.081073 
461000000    603.78509   -157246.68   -154749.31   -470.44248    567367.56    82.148182    83.106171    83.106171 
462000000    600.81172    -157229.7   -154744.63   -339.41719    567367.56    82.101059    83.130017    83.130017 
463000000    600.19049    -157255.6   -154773.09   -414.31091    567367.56    82.056638    83.152516    83.152516 
464000000      601.322   -157249.89   -154762.71   -408.72903    567367.56    82.015093    83.173573    83.173573 
465000000    601.65459   -157233.71   -154745.15   -293.48726    567367.56    81.976589    83.193104    83.193104 
466000000    597.08489   -157237.08   -154767.42   -376.90916    567367.56    81.941278    83.211027    83.211027 
467000000    602.91742   -157232.94   -154739.16   -452.47603    567367.56      81.9093    83.227269    83.227269 
468000000    603.21706   -157226.46   -154731.43   -449.92149    567367.56    81.880779    83.241763    83.241763 
469000000    596.14519   -157227.81   -154762.04   -447.04449    567367.56     81.85583    83.254448    83.254448 
470000000    604.63255   -157227.53   -154726.65   -347.73004    567367.56     81.83455    83.265272    83.265272 
471000000    599.82575   -157244.45   -154763.45   -416.24548    567367.56    81.817023    83.274189    83.274189 
472000000    598.13853   -157241.91    -154767.9    -451.6744    567367.56    81.803319    83.281164    83.281164 
473000000    598.32542   -157241.49    -154766.7   -429.64947    567367.56    81.793492    83.286167    83.286167 
474000000    603.89573   -157253.91   -154756.08   -595.65248    567367.56     81.78758    83.289178    83.289178 
475000000    597.69146   -157232.81   -154760.64   -405.45219    567367.56    81.785606    83.290182    83.290182 
476000000    598.95769    -157241.9   -154764.49   -518.33227    567367.56     81.78758    83.289178    83.289178 
477000000    596.29162   -157248.48    -154782.1   -398.91986    567367.56    81.793492    83.286167    83.286167 
478000000    602.60442    -157259.8   -154767.31   -644.66985    567367.56    81.803319    83.281164    83.281164 
479000000    598.24233   -157218.37   -154743.92   -521.39706    567367.56    81.817023    83.274189    83.274189 
480000000    602.49907   -157212.23   -154720.18   -252.74641    567367.56     81.83455    83.265272    83.265272 
481000000    601.33992    -157254.1   -154766.84   -621.75495    567367.56     81.85583    83.254448    83.254448 
482000000    599.26788   -157201.21   -154722.52    -64.58652    567367.56    81.880779    83.241763    83.241763 
483000000    599.10396   -157245.51    -154767.5   -519.96399    567367.56      81.9093    83.227269    83.227269 
484000000    596.33719   -157246.32   -154779.76   -549.08487    567367.56    81.941278    83.211027    83.211027 
485000000    602.31177   -157241.19   -154749.91     -618.906    567367.56    81.976589    83.193104    83.193104 
486000000    602.54854   -157255.15   -154762.89   -555.97348    567367.56    82.015093    83.173573    83.173573 
487000000     598.0881   -157259.11    -154785.3    -618.9099    567367.56    82.056638    83.152516    83.152516 
488000000    595.50784    -157246.4   -154783.26   -608.05472    567367.56    82.101059    83.130017    83.130017 
489000000    599.70473   -157254.56   -154774.06    -589.5246    567367.56    82.148182    83.106171    83.106171 
490000000    602.65409   -157220.85   -154728.15   -330.76048    567367.56    82.197821    83.081073    83.081073 
491000000    606.56068   -157247.75    -154738.9   -477.35679    567367.56     82.24978    83.054827    83.054827 
492000000    599.95031    -157251.8   -154770.29   -584.50376    567367.56    82.303853     83.02754     83.02754 
493000000    606.58111   -157254.33   -154745.39     -509.558    567367.56    82.359827    82.999321    82.999321 
494000000    601.58172    -157243.8   -154755.54   -339.18341    567367.56    82.417482    82.970285    82.970285 
495000000    606.36417    -157250.1   -154742.06   -568.57433    567367.56    82.476589    82.940549    82.940549 
496000000    603.42446   -157276.67   -154780.79   -640.60684    567367.56    82.536917    82.910232    82.910232 
497000000     602.5813   -157267.08   -154774.69   -634.02013    567367.56    82.598225    82.879456    82.879456 
498000000    597.95426   -157269.59   -154796.34   -809.55591    567367.56    82.660273    82.848344    82.848344 
499000000    601.13069   -157239.94   -154753.54    -435.4118    567367.56    82.722816     82.81702     82.81702 
500000000    597.58281    -157260.5   -154788.78   -745.17456    567367.56    82.785606    82.785606    82.785606 
501000000    603.09308   -157264.96   -154770.45   -591.83701    567367.56    82.848397    82.754229    82.754229 
502000000    601.59051   -157257.54   -154769.24   -576.39631    567367.56     82.91094    82.723011    82.723011 
503000000    603.18661   -157259.81   -154764.91   -443.29416    567367.56    82.972988    82.692075    82.692075 
504000000    602.69312   -157257.56    -154764.7   -711.03575    567367.56    83.034296    82.661541    82.661541 
505000000    605.10247   -157254.09   -154751.27   -673.29731    567367.56    83.094623    82.631529    82.631529 
506000000    600.84306   -157271.63   -154786.43   -600.68315    567367.56    83.153731    82.602156    82.602156 
507000000    597.23321   -157251.94   -154781.67   -585.82778    567367.56    83.211386    82.573534    82.573534 
508000000    600.85597   -157247.34   -154762.09   -613.21463    567367.56     83.26736    82.545776    82.545776 
509000000    600.80954   -157250.53   -154765.46   -807.00252    567367.56    83.321433    82.518987    82.518987 
510000000    598.33865      -157251   -154776.15   -704.94388    567367.56    83.373392     82.49327     82.49327 
511000000    597.71595   -157256.11   -154783.84   -642.03372    567367.56     83.42303    82.468723    82.468723 
512000000    595.17173   -157246.87   -154785.12   -635.65816    567367.56    83.470154    82.445441    82.445441 
513000000    600.28818    -157221.5   -154738.59   -412.46124    567367.56    83.514575    82.423512    82.423512 
514000000    598.28056   -157250.57   -154775.96   -692.82595    567367.56     83.55612    82.403018    82.403018 
515000000    602.35988   -157236.06   -154744.58    -547.2804    567367.56    83.594623    82.384039    82.384039 
516000000     595.4232   -157246.91   -154784.13   -526.33173    567367.56    83.629934    82.366644    82.366644 
517000000    598.74633   -157250.16   -154773.63   -446.23736    567367.56    83.661913    82.350901    82.350901 
518000000    600.74279   -157251.11   -154766.32   -550.86292    567367.56    83.690433    82.336868    82.336868 
519000000    600.07284   -157267.52    -154785.5   -686.22123    567367.56    83.715383    82.324598    82.324598 
520000000    601.91741   -157256.71   -154767.07   -595.01964    567367.56    83.736663    82.314137    82.314137 
521000000     603.3134   -157250.27   -154754.85   -626.81407    567367.56     83.75419    82.305523    82.305523 
522000000    601.04382   -157236.94   -154750.91   -473.59799    567367.56    83.767894    82.298791    82.298791 
523000000    596.52849   -157251.27   -154783.91   -625.26281    567367.56    83.777721    82.293964    82.293964 
524000000    598.78724   -157235.21    -154758.5   -490.46467    567367.56    83.783633     82.29106     82.29106 
525000000    598.40848   -157247.37   -154772.23   -592.87904    567367.56    83.785606    82.290091    82.290091 
526000000     599.3839   -157242.29   -154763.12   -466.58837    567367.56    83.783633     82.29106     82.29106 
527000000    603.83601   -157247.11   -154749.53   -509.43863    567367.56    83.777721    82.293964    82.293964 
528000000    596.74355   -157234.49   -154766.24   -493.61045    567367.56    83.767894    82.298791    82.298791 
529000000    597.84218   -157236.07   -154763.28    -368.9978    567367.56     83.75419    82.305523    82.305523 
530000000    604.47264   -157252.17   -154751.95   -492.00526    567367.56    83.736663    82.314137    82.314137 
531000000    602.44282   -157266.87   -154775.05   -528.24521    567367.56    83.715383    82.324598    82.324598 
532000000     600.9261   -157263.46   -154777.91    -511.3096    567367.56    83.690433    82.336868    82.336868 
533000000    601.23758   -157271.88   -154785.05   -625.12133    567367.56    83.661913    82.350901    82.350901 
534000000    603.78843   -157237.62   -154740.23   -333.29959    567367.56    83.629934    82.366644    82.366644 
535000000    604.38699   -157261.02   -154761.15   -512.47182    567367.56    83.594623    82.384039    82.384039 
536000000    603.22872   -157241.08      -154746    -522.5013    567367.56     83.55612    82.403018    82.403018 
537000000    602.06936   -157258.88   -154768.61   -669.16393    567367.56    83.514575    82.423512    82.423512 
538000000    600.70771   -157252.46   -154767.82   -484.51315    567367.56    83.470154    82.445441    82.445441 
539000000    598.75558   -157256.44   -154779.87   -656.49532    567367.56     83.42303    82.468723    82.468723 
540000000    597.20116   -157268.88   -154798.73   -597.98701    567367.56    83.373392     82.49327     82.49327 
541000000    603.35594   -157269.02   -154773.42   -595.48935    567367.56    83.321433    82.518987    82.518987 
542000000    603.02277   -157249.07   -154754.85   -416.99422    567367.56     83.26736    82.545776    82.545776 
543000000    598.46621   -157263.14   -154787.76   -692.29606    567367.56    83.211386    82.573534    82.573534 
544000000    601.64767   -157262.17   -154773.63   -522.94539    567367.56    83.153731    82.602156    82.602156 
545000000     598.5534   -157238.83   -154763.09   -470.03164    567367.56    83.094623    82.631529    82.631529 
546000000    597.91341   -157265.57   -154792.48   -598.42939    567367.56    83.034296    82.661541    82.661541 
547000000    600.63346   -157283.65   -154799.31   -680.05473    567367.56    82.972988    82.692075    82.692075 
548000000    600.08764   -157273.74   -154791.66   -705.79356    567367.56     82.91094    82.723011    82.723011 
549000000    601.96287   -157271.33   -154781.49   -807.02939    567367.56    82.848397    82.754229    82.754229 
550000000    601.47796   -157265.98   -154778.15    -715.9358    567367.56    82.785606    82.785606    82.785606 
551000000    597.54687   -157255.14   -154783.57   -458.15738    567367.56    82.722816     82.81702     82.81702 
552000000    603.00356   -157271.08   -154776.93   -642.18054    567367.56    82.660273    82.848344    82.848344 
553000000    599.49095   -157257.93   -154778.32   -564.77674    567367.56    82.598225    82.879456    82.879456 
554000000    596.41977   -157267.65   -154800.74   -794.37423    567367.56    82.536917    82.910232    82.910232 
555000000    598.40647   -157260.09   -154784.96   -620.48896    567367.56    82.476589    82.940549    82.940549 
556000000    600.09185   -157259.44   -154777.34    -606.3551    567367.56    82.417482    82.970285    82.970285 
557000000    596.26394   -157265.27   -154799.01   -544.20636    567367.56    82.359827    82.999321    82.999321 
558000000    598.83884   -157252.85   -154775.94   -514.70133    567367.56    82.303853     83.02754     83.02754 
559000000     598.9494   -157260.42   -154783.05   -568.53705    567367.56     82.24978    83.054827    83.054827 
560000000    599.29362   -157253.22   -154774.43    -567.0634    567367.56    82.197821    83.081073    83.081073 
561000000    598.76416   -157240.33   -154763.72   -577.19067    567367.56    82.148182    83.106171    83.106171 
562000000    606.49063    -157248.9   -154740.34   -508.17449    567367.56    82.101059    83.130017    83.130017 
563000000    598.19449   -157234.81   -154760.56   -469.79062    567367.56    82.056638    83.152516    83.152516 
564000000    601.21512    -157249.1   -154762.35   -619.71032    567367.56    82.015093    83.173573    83.173573 
565000000    603.23691   -157259.64   -154764.54   -655.39895    567367.56    81.976589    83.193104    83.193104 
566000000    600.21274    -157235.1    -154752.5    -471.0756    567367.56    81.941278    83.211027    83.211027 
567000000    597.68346   -157272.59   -154800.46   -797.96652    567367.56      81.9093    83.227269    83.227269 
568000000    600.82095   -157240.46   -154755.35    -480.0502    567367.56    81.880779    83.241763    83.241763 
569000000    595.19896   -157246.16    -154784.3   -542.53099    567367.56     81.85583    83.254448    83.254448 
570000000    596.64312   -157259.52   -154791.68   -600.03257    567367.56     81.83455    83.265272    83.265272 
571000000     602.7432   -157249.43   -154756.36   -558.27668    567367.56    81.817023    83.274189    83.274189 
572000000    598.20501   -157240.31   -154766.01   -446.40923    567367.56    81.803319    83.281164    83.281164 
573000000    601.01796   -157268.33   -154782.41   -727.54557    567367.56    81.793492    83.286167    83.286167 
574000000    597.69397   -157221.23   -154749.05   -303.26318    567367.56     81.78758    83.289178    83.289178 
575000000    604.55137   -157243.65   -154743.11   -528.45364    567367.56    81.785606    83.290182    83.290182 
576000000     601.9047   -157246.17   -154756.58   -528.94428    567367.56     81.78758    83.289178    83.289178 
577000000    596.26788   -157248.39   -154782.11     -431.751    567367.56    81.793492    83.286167    83.286167 
578000000    601.09664   -157240.77   -154754.51   -569.03001    567367.56    81.803319    83.281164    83.281164 
579000000     603.4834   -157251.88   -154755.75   -499.46781    567367.56    81.817023    83.274189    83.274189 
580000000    594.86287   -157255.93   -154795.47   -557.19697    567367.56     81.83455    83.265272    83.265272 
581000000    598.67396   -157254.84   -154778.61   -626.67336    567367.56     81.85583    83.254448    83.254448 
582000000    600.10519   -157245.77   -154763.62   -581.55866    567367.56    81.880779    83.241763    83.241763 
583000000    603.33333   -157244.64   -154749.13   -355.94028    567367.56      81.9093    83.227269    83.227269 
584000000    598.08806   -157257.04   -154783.23   -613.56791    567367.56    81.941278    83.211027    83.211027 
585000000    599.15666   -157247.57   -154769.34   -513.20893    567367.56    81.976589    83.193104    83.193104 
586000000    604.86461      -157258   -154756.16    -560.4962    567367.56    82.015093    83.173573    83.173573 
587000000    601.07102   -157268.74   -154782.59   -675.93503    567367.56    82.056638    83.152516    83.152516 
588000000    602.75048   -157280.28   -154787.18   -779.88672    567367.56    82.101059    83.130017    83.130017 
589000000    600.80991   -157274.86    -154789.8   -764.00161    567367.56    82.148182    83.106171    83.106171 
590000000      600.903   -157256.02   -154770.57   -457.12911    567367.56    82.197821    83.081073    83.081073 
591000000    600.44596   -157270.46    -154786.9   -577.76572    567367.56     82.24978    83.054827    83.054827 
592000000     600.8914   -157268.75   -154783.35   -482.34205    567367.56    82.303853     83.02754     83.02754 
593000000    601.54421   -157286.83   -154798.73   -822.61009    567367.56    82.359827    82.999321    82.999321 
594000000    597.65812   -157261.31   -154789.28   -712.24753    567367.56    82.417482    82.970285    82.970285 
595000000    603.74206   -157278.02   -154780.83   -627.91277    567367.56    82.476589    82.940549    82.940549 
596000000    597.29652   -157274.74   -154804.21   -573.20827    567367.56    82.536917    82.910232    82.910232 
597000000     600.3263   -157263.75   -154780.68   -602.69747    567367.56    82.598225    82.879456    82.879456 
598000000    598.71594   -157270.84   -154794.43   -840.49183    567367.56    82.660273    82.848344    82.848344 
599000000    596.42428   -157276.79   -154809.87   -672.25666    567367.56    82.722816     82.81702     82.81702 
600000000     597.2965   -157268.59   -154798.05   -631.13919    567367.56    82.785606    82.785606    82.785606 
601000000    599.11448   -157275.21   -154797.16   -755.95816    567367.56    82.848397    82.754229    82.754229 
602000000    597.79634   -157266.78   -154794.18   -544.27148    567367.56     82.91094    82.723011    82.723011 
603000000    600.33251   -157274.02   -154790.92   -833.65849    567367.56    82.972988    82.692075    82.692075 
604000000    599.66941    -157251.4   -154771.05   -660.60168    567367.56    83.034296    82.661541    82.661541 
605000000    598.44146   -157280.26   -154804.99   -776.47863    567367.56    83.094623    82.631529    82.631529 
606000000    597.67216   -157254.63   -154782.55   -684.12848    567367.56    83.153731    82.602156    82.602156 
607000000    596.06053   -157254.55   -154789.13   -609.23439    567367.56    83.211386    82.573534    82.573534 
608000000    603.54093    -157278.8   -154782.43   -655.87694    567367.56     83.26736    82.545776    82.545776 
609000000     600.9357   -157272.63   -154787.04   -835.37236    567367.56    83.321433    82.518987    82.518987 
610000000    601.06301   -157268.33   -154782.21    -716.2185    567367.56    83.373392     82.49327     82.49327 
611000000    599.94512   -157246.15   -154764.66   -546.70933    567367.56     83.42303    82.468723    82.468723 
612000000    596.61783   -157268.56   -154800.84   -723.59692    567367.56    83.470154    82.445441    82.445441 
613000000    602.45954   -157280.06   -154788.17   -723.62963    567367.56    83.514575    82.423512    82.423512 
614000000     598.4739   -157264.59   -154789.18   -660.20646    567367.56     83.55612    82.403018    82.403018 
615000000    593.87173   -157250.42   -154794.05   -642.65952    567367.56    83.594623    82.384039    82.384039 
616000000    600.49334   -157259.31   -154775.55    -470.6307    567367.56    83.629934    82.366644    82.366644 
617000000    601.35967   -157276.74    -154789.4   -575.08025    567367.56    83.661913    82.350901    82.350901 
618000000    597.60169   -157247.41   -154775.62   -599.65009    567367.56    83.690433    82.336868    82.336868 
619000000    598.05091   -157240.57   -154766.92   -562.37397    567367.56    83.715383    82.324598    82.324598 
620000000    596.99121   -157232.76   -154763.49   -420.82924    567367.56    83.736663    82.314137    82.314137 
621000000    603.16237   -157251.23   -154756.43   -489.05128    567367.56     83.75419    82.305523    82.305523 
622000000    602.22794   -157249.14    -154758.2   -586.09347    567367.56    83.767894    82.298791    82.298791 
623000000    598.12977   -157269.42   -154795.44   -732.95112    567367.56    83.777721    82.293964    82.293964 
624000000    600.58717   -157247.48   -154763.34   -630.93378    567367.56    83.783633     82.29106     82.29106 
625000000    596.20677   -157241.26   -154775.23   -630.92094    567367.56    83.785606    82.290091    82.290091 
626000000    597.52001   -157254.56    -154783.1   -638.91365    567367.56    83.783633     82.29106     82.29106 
627000000    594.78674   -157263.32   -154803.16   -714.73742    567367.56    83.777721    82.293964    82.293964 
628000000    595.77744   -157260.91   -154796.66   -676.95653    567367.56    83.767894    82.298791    82.298791 
629000000    599.04601    -157271.8   -154794.03   -720.28455    567367.56     83.75419    82.305523    82.305523 
630000000    598.93958   -157262.64   -154785.31    -574.5297    567367.56    83.736663    82.314137    82.314137 
631000000    604.59814   -157268.91   -154768.17   -590.70308    567367.56    83.715383    82.324598    82.324598 
632000000    599.89474   -157250.87   -154769.59    -414.1404    567367.56    83.690433    82.336868    82.336868 
633000000    602.32253    -157266.9   -154775.58   -711.78603    567367.56    83.661913    82.350901    82.350901 
634000000    600.85694   -157270.44   -154785.18   -908.16307    567367.56    83.629934    82.366644    82.366644 
635000000    599.67469   -157251.83   -154771.45    -539.4294    567367.56    83.594623    82.384039    82.384039 
636000000    598.68131   -157261.55   -154785.29   -681.37836    567367.56     83.55612    82.403018    82.403018 
637000000      598.154    -157256.5   -154782.42   -693.08527    567367.56    83.514575    82.423512    82.423512 
638000000    596.04988   -157267.96   -154802.58   -715.85298    567367.56    83.470154    82.445441    82.445441 
639000000    598.49888   -157254.46   -154778.95   -409.18015    567367.56     83.42303    82.468723    82.468723 
640000000    595.58023   -157276.93   -154813.49   -777.87395    567367.56    83.373392     82.49327     82.49327 
641000000    601.46943   -157256.23   -154768.44   -466.33142    567367.56    83.321433    82.518987    82.518987 
642000000    596.84208    -157283.5   -154814.85   -865.96606    567367.56     83.26736    82.545776    82.545776 
643000000     592.8226   -157276.71   -154824.68   -773.32352    567367.56    83.211386    82.573534    82.573534 
644000000    597.96979   -157285.65   -154812.33   -867.68152    567367.56    83.153731    82.602156    82.602156 
645000000    601.31129   -157270.35   -154783.21   -609.64752    567367.56    83.094623    82.631529    82.631529 
646000000    603.11937   -157246.67   -154752.05   -521.84253    567367.56    83.034296    82.661541    82.661541 
647000000    599.39609   -157276.66   -154797.44   -565.91083    567367.56    82.972988    82.692075    82.692075 
648000000    601.62582   -157303.53   -154815.09   -876.88734    567367.56     82.91094    82.723011    82.723011 
649000000    600.57731   -157282.07   -154797.97   -971.01312    567367.56    82.848397    82.754229    82.754229 
650000000    603.05147   -157262.06   -154767.73   -634.05931    567367.56    82.785606    82.785606    82.785606 
651000000    603.32689    -157284.5   -154789.02   -870.19639    567367.56    82.722816     82.81702     82.81702 
652000000    597.76906   -157248.03   -154775.54   -431.80695    567367.56    82.660273    82.848344    82.848344 
653000000    603.68196   -157273.28   -154776.34   -600.65274    567367.56    82.598225    82.879456    82.879456 
654000000     600.3365   -157253.08   -154769.97   -680.96009    567367.56    82.536917    82.910232    82.910232 
655000000    595.95218   -157271.97      -154807   -747.84176    567367.56    82.476589    82.940549    82.940549 
656000000    600.29154   -157277.06   -154794.14   -759.54724    567367.56    82.417482    82.970285    82.970285 
657000000    599.65296   -157268.24   -154787.96   -503.96368    567367.56    82.359827    82.999321    82.999321 
658000000    602.13209   -157270.88   -154780.35   -744.97565    567367.56    82.303853     83.02754     83.02754 
659000000    596.14479   -157263.17    -154797.4   -503.22123    567367.56     82.24978    83.054827    83.054827 
660000000    599.60277   -157277.82   -154797.75   -631.22872    567367.56    82.197821    83.081073    83.081073 
661000000    597.45417   -157263.81   -154792.62   -574.81534    567367.56    82.148182    83.106171    83.106171 
662000000    601.20351   -157268.06   -154781.37    -643.4437    567367.56    82.101059    83.130017    83.130017 
663000000    597.65579   -157268.77   -154796.75   -632.60556    567367.56    82.056638    83.152516    83.152516 
664000000     599.4701   -157264.04   -154784.51    -568.5655    567367.56    82.015093    83.173573    83.173573 
665000000    597.19918   -157253.52   -154783.38   -444.48977    567367.56    81.976589    83.193104    83.193104 
666000000     594.1366   -157258.23   -154800.77   -627.24356    567367.56    81.941278    83.211027    83.211027 
667000000     597.5895   -157259.05    -154787.3   -599.25413    567367.56      81.9093    83.227269    83.227269 
668000000    598.25301   -157220.87   -154746.37   -219.72968    567367.56    81.880779    83.241763    83.241763 
669000000    600.38015      -157272   -154788.71   -552.82848    567367.56     81.85583    83.254448    83.254448 
670000000     598.3026   -157263.13   -154788.43   -614.93455    567367.56     81.83455    83.265272    83.265272 
671000000    599.87359   -157252.55   -154771.35   -456.91064    567367.56    81.817023    83.274189    83.274189 
672000000    599.90807   -157278.68   -154797.35   -758.84277    567367.56    81.803319    83.281164    83.281164 
673000000    597.67916    -157261.4   -154789.28   -504.08007    567367.56    81.793492    83.286167    83.286167 
674000000    602.06373   -157270.09   -154779.84   -535.20192    567367.56     81.78758    83.289178    83.289178 
675000000    602.39052   -157250.23   -154758.63   -297.88356    567367.56    81.785606    83.290182    83.290182 
676000000    593.46575   -157261.94   -154807.24   -619.04079    567367.56     81.78758    83.289178    83.289178 
677000000    599.45891   -157265.94   -154786.46   -437.53968    567367.56    81.793492    83.286167    83.286167 
[...]
838000000    596.49364   -157265.75   -154798.54   -855.60337    567367.56    83.470154    82.445441    82.445441 
839000000    602.20567   -157274.85   -154784.01   -855.22249    567367.56     83.42303    82.468723    82.468723 
840000000    598.52482   -157276.01    -154800.4   -535.89782    567367.56    83.373392     82.49327     82.49327 
841000000    599.09999   -157268.16   -154790.17   -817.66774    567367.56    83.321433    82.518987    82.518987 
842000000    598.86798   -157276.63    -154799.6   -802.71679    567367.56     83.26736    82.545776    82.545776 
843000000    600.82706   -157280.37   -154795.23   -893.45988    567367.56    83.211386    82.573534    82.573534 
844000000    601.74072   -157269.74   -154780.82   -823.64169    567367.56    83.153731    82.602156    82.602156 
845000000    603.90956   -157268.18   -154770.29   -604.86927    567367.56    83.094623    82.631529    82.631529 
846000000    600.17754    -157311.4   -154828.95    -1044.523    567367.56    83.034296    82.661541    82.661541 
847000000     597.7694   -157292.19    -154819.7   -1014.1083    567367.56    82.972988    82.692075    82.692075 
848000000    597.03055   -157296.58   -154827.15   -1064.3404    567367.56     82.91094    82.723011    82.723011 
849000000    598.62748   -157271.34    -154795.3   -756.07488    567367.56    82.848397    82.754229    82.754229 
850000000    598.68765   -157272.71   -154796.42   -704.62979    567367.56    82.785606    82.785606    82.785606 
851000000    595.46697   -157291.56   -154828.59    -1007.111    567367.56    82.722816     82.81702     82.81702 
852000000    598.56668   -157291.11   -154815.32   -938.66397    567367.56    82.660273    82.848344    82.848344 
853000000    603.65029   -157281.09   -154784.27   -764.64783    567367.56    82.598225    82.879456    82.879456 
854000000     602.7621   -157274.04    -154780.9   -759.28151    567367.56    82.536917    82.910232    82.910232 
855000000    601.37808   -157286.16   -154798.75   -880.96369    567367.56    82.476589    82.940549    82.940549 
856000000    601.27508   -157275.91   -154788.92   -620.86608    567367.56    82.417482    82.970285    82.970285 
857000000    601.41972   -157269.16   -154781.58   -780.87607    567367.56    82.359827    82.999321    82.999321 
858000000    599.11087   -157272.76   -154794.72   -620.15043    567367.56    82.303853     83.02754     83.02754 
859000000    599.21264   -157279.94   -154801.48   -710.60192    567367.56     82.24978    83.054827    83.054827 
860000000    597.30011   -157259.99   -154789.44   -720.64871    567367.56    82.197821    83.081073    83.081073 
861000000    597.36624   -157259.71   -154788.89   -491.75673    567367.56    82.148182    83.106171    83.106171 
862000000    595.93478   -157272.67   -154807.77   -699.45378    567367.56    82.101059    83.130017    83.130017 
863000000    600.05812   -157265.71   -154783.75   -718.30939    567367.56    82.056638    83.152516    83.152516 
864000000     598.7265   -157287.83   -154811.38   -760.36536    567367.56    82.015093    83.173573    83.173573 
865000000    602.25103   -157246.43    -154755.4   -543.41351    567367.56    81.976589    83.193104    83.193104 
866000000    599.10846    -157272.4   -154794.37   -996.36782    567367.56    81.941278    83.211027    83.211027 
867000000    600.27883   -157288.58   -154805.71   -768.05815    567367.56      81.9093    83.227269    83.227269 
868000000     599.6048   -157281.61   -154801.53   -864.22363    567367.56    81.880779    83.241763    83.241763 
869000000    602.80217   -157270.54   -154777.23   -721.39471    567367.56     81.85583    83.254448    83.254448 
870000000     599.7273   -157265.75   -154785.16   -738.28779    567367.56     81.83455    83.265272    83.265272 
871000000    598.39713   -157251.89   -154776.81   -769.92892    567367.56    81.817023    83.274189    83.274189 
872000000    597.64603   -157259.62   -154787.63   -810.92899    567367.56    81.803319    83.281164    83.281164 
873000000    600.53088   -157261.28   -154777.37     -799.745    567367.56    81.793492    83.286167    83.286167 
874000000    597.31762    -157254.1   -154783.48   -710.56255    567367.56     81.78758    83.289178    83.289178 
875000000    600.37298   -157239.11   -154755.85   -674.30018    567367.56    81.785606    83.290182    83.290182 
876000000    598.83219   -157260.54   -154783.66   -566.58456    567367.56     81.78758    83.289178    83.289178 
877000000    601.86338   -157245.76   -154756.33   -535.31371    567367.56    81.793492    83.286167    83.286167 
878000000    604.03132   -157275.17   -154776.78   -684.32733    567367.56    81.803319    83.281164    83.281164 
879000000    600.24508   -157262.31   -154779.58   -772.65437    567367.56    81.817023    83.274189    83.274189 
880000000    599.63514   -157280.88   -154800.67   -781.79579    567367.56     81.83455    83.265272    83.265272 
881000000    604.72243   -157274.78   -154773.53   -703.48693    567367.56     81.85583    83.254448    83.254448 
882000000    597.24255   -157270.57   -154800.26   -876.59548    567367.56    81.880779    83.241763    83.241763 
883000000    599.65962   -157250.92   -154770.61   -467.32672    567367.56      81.9093    83.227269    83.227269 
884000000    602.84928   -157271.98   -154778.48   -617.72978    567367.56    81.941278    83.211027    83.211027 
885000000    597.31753   -157278.22    -154807.6    -911.9455    567367.56    81.976589    83.193104    83.193104 
886000000    593.65426   -157281.71   -154826.24   -858.38151    567367.56    82.015093    83.173573    83.173573 
887000000    596.26223   -157271.48   -154805.22   -758.68953    567367.56    82.056638    83.152516    83.152516 
888000000    602.71087   -157276.94   -154784.01   -764.50494    567367.56    82.101059    83.130017    83.130017 
889000000    596.82674   -157283.38   -154814.79   -835.25599    567367.56    82.148182    83.106171    83.106171 
890000000    596.42056   -157264.09   -154797.18   -826.71977    567367.56    82.197821    83.081073    83.081073 
891000000    603.48373   -157293.95   -154797.82    -809.2581    567367.56     82.24978    83.054827    83.054827 
892000000    599.53226   -157288.98    -154809.2   -791.47516    567367.56    82.303853     83.02754     83.02754 
893000000    602.44642   -157308.16   -154816.32   -932.74567    567367.56    82.359827    82.999321    82.999321 
894000000    596.30572   -157279.66   -154813.22   -804.69251    567367.56    82.417482    82.970285    82.970285 
895000000    594.79087   -157302.98    -154842.8   -798.77478    567367.56    82.476589    82.940549    82.940549 
896000000    602.08873   -157288.87   -154798.52   -809.33869    567367.56    82.536917    82.910232    82.910232 
897000000    595.87155   -157309.62   -154844.98   -1171.5597    567367.56    82.598225    82.879456    82.879456 
898000000    604.37303   -157291.19   -154791.38   -902.30998    567367.56    82.660273    82.848344    82.848344 
899000000    598.43343   -157266.42   -154791.18   -734.50015    567367.56    82.722816     82.81702     82.81702 
900000000    597.79399   -157306.55   -154833.96   -1045.4507    567367.56    82.785606    82.785606    82.785606 
901000000    599.71418   -157269.62   -154789.09   -696.33441    567367.56    82.848397    82.754229    82.754229 
902000000    601.04301   -157284.45   -154798.42   -749.19754    567367.56     82.91094    82.723011    82.723011 
903000000    602.92005   -157291.33   -154797.54   -770.37837    567367.56    82.972988    82.692075    82.692075 
904000000    602.88809   -157286.98   -154793.31   -790.71226    567367.56    83.034296    82.661541    82.661541 
905000000    595.10928   -157270.79    -154809.3   -747.38307    567367.56    83.094623    82.631529    82.631529 
906000000      603.258   -157271.53   -154776.34   -740.62237    567367.56    83.153731    82.602156    82.602156 
907000000    603.86015   -157288.59   -154790.91   -680.09018    567367.56    83.211386    82.573534    82.573534 
908000000    597.93658   -157278.71   -154805.53    -675.4954    567367.56     83.26736    82.545776    82.545776 
909000000    599.16745   -157278.06   -154799.78   -742.07771    567367.56    83.321433    82.518987    82.518987 
910000000    600.15012   -157273.58   -154791.24   -679.98362    567367.56    83.373392     82.49327     82.49327 
911000000     598.2269   -157274.91   -154800.52   -863.34881    567367.56     83.42303    82.468723    82.468723 
912000000    603.85496   -157273.31   -154775.65   -763.93104    567367.56    83.470154    82.445441    82.445441 
913000000    597.46747   -157268.74    -154797.5    -792.0318    567367.56    83.514575    82.423512    82.423512 
914000000    601.22317   -157290.57    -154803.8   -868.58479    567367.56     83.55612    82.403018    82.403018 
915000000    606.32803   -157273.04   -154765.15   -670.33807    567367.56    83.594623    82.384039    82.384039 
916000000    598.34592   -157263.09   -154788.21   -547.57412    567367.56    83.629934    82.366644    82.366644 
917000000    602.48628   -157261.21   -154769.21   -681.53332    567367.56    83.661913    82.350901    82.350901 
918000000    598.79226   -157277.46   -154800.74   -847.52323    567367.56    83.690433    82.336868    82.336868 
919000000    597.08922   -157253.24   -154783.56    -730.0877    567367.56    83.715383    82.324598    82.324598 
920000000    601.49677   -157279.74   -154791.83   -766.92763    567367.56    83.736663    82.314137    82.314137 
921000000    594.48001    -157286.5   -154827.62    -967.1218    567367.56     83.75419    82.305523    82.305523 
922000000    596.63934   -157261.04   -154793.22   -655.84298    567367.56    83.767894    82.298791    82.298791 
923000000    601.17722   -157289.97   -154803.39   -1015.3374    567367.56    83.777721    82.293964    82.293964 
924000000    600.68378   -157275.61   -154791.06   -858.90529    567367.56    83.783633     82.29106     82.29106 
925000000    593.92873    -157271.2    -154814.6   -939.91705    567367.56    83.785606    82.290091    82.290091 
926000000    598.48175   -157267.08   -154791.64   -840.10318    567367.56    83.783633     82.29106     82.29106 
927000000    597.10204    -157270.3   -154800.57   -779.99049    567367.56    83.777721    82.293964    82.293964 
928000000    599.84703   -157260.77   -154779.69   -676.68704    567367.56    83.767894    82.298791    82.298791 
929000000    600.07865   -157274.78   -154792.74   -723.18045    567367.56     83.75419    82.305523    82.305523 
930000000    593.84686   -157286.63   -154830.37   -900.31013    567367.56    83.736663    82.314137    82.314137 
931000000    600.22135   -157253.26   -154770.63   -706.05342    567367.56    83.715383    82.324598    82.324598 
932000000    607.05941   -157275.61    -154764.7   -808.44434    567367.56    83.690433    82.336868    82.336868 
933000000    596.41151   -157250.78   -154783.91    -805.2738    567367.56    83.661913    82.350901    82.350901 
934000000    597.92908   -157267.95    -154794.8   -786.48661    567367.56    83.629934    82.366644    82.366644 
935000000     605.0994    -157259.4   -154756.59   -689.41448    567367.56    83.594623    82.384039    82.384039 
936000000    602.20227    -157292.5   -154801.68    -807.7662    567367.56     83.55612    82.403018    82.403018 
937000000     598.6566   -157269.83   -154793.67   -711.67843    567367.56    83.514575    82.423512    82.423512 
938000000    604.45766   -157296.53   -154796.38   -860.21265    567367.56    83.470154    82.445441    82.445441 
939000000    597.97668   -157263.79   -154790.44   -758.41765    567367.56     83.42303    82.468723    82.468723 
940000000    598.01541   -157277.99   -154804.48   -806.95604    567367.56    83.373392     82.49327     82.49327 
941000000    601.28707   -157267.27   -154780.23   -698.42257    567367.56    83.321433    82.518987    82.518987 
942000000    602.36679    -157309.8    -154818.3   -1094.6437    567367.56     83.26736    82.545776    82.545776 
943000000    598.67032   -157274.73   -154798.51   -973.73914    567367.56    83.211386    82.573534    82.573534 
944000000    601.43898   -157266.04   -154778.37   -679.48062    567367.56    83.153731    82.602156    82.602156 
945000000    598.37986    -157278.5   -154803.48   -852.00025    567367.56    83.094623    82.631529    82.631529 
946000000    595.42191   -157296.11   -154833.33   -896.35591    567367.56    83.034296    82.661541    82.661541 
947000000    601.95019   -157290.61   -154800.83   -788.21859    567367.56    82.972988    82.692075    82.692075 
948000000    600.61228   -157274.16   -154789.91    -710.4989    567367.56     82.91094    82.723011    82.723011 
949000000    600.89268   -157289.24   -154803.83   -984.85751    567367.56    82.848397    82.754229    82.754229 
950000000    597.13409   -157286.63   -154816.76   -847.57652    567367.56    82.785606    82.785606    82.785606 
951000000    601.76501   -157302.33   -154813.32   -1045.6898    567367.56    82.722816     82.81702     82.81702 
952000000    598.66053   -157295.66   -154819.48   -988.67203    567367.56    82.660273    82.848344    82.848344 
953000000    601.58968   -157278.73   -154790.44   -875.67257    567367.56    82.598225    82.879456    82.879456 
954000000    600.93159   -157285.64   -154800.07   -744.74467    567367.56    82.536917    82.910232    82.910232 
955000000    603.79194   -157289.88   -154792.48   -921.41261    567367.56    82.476589    82.940549    82.940549 
956000000    603.06946   -157303.33   -154808.92   -1035.9177    567367.56    82.417482    82.970285    82.970285 
957000000    600.27858   -157295.79   -154812.92   -929.15263    567367.56    82.359827    82.999321    82.999321 
958000000    602.61698   -157266.35   -154773.81   -742.24373    567367.56    82.303853     83.02754     83.02754 
959000000    601.12011   -157258.77   -154772.42   -707.15315    567367.56     82.24978    83.054827    83.054827 
960000000     598.4941   -157281.12   -154805.63   -962.79882    567367.56    82.197821    83.081073    83.081073 
961000000    601.50818   -157264.96      -154777   -799.18955    567367.56    82.148182    83.106171    83.106171 
962000000     596.5212   -157285.35   -154818.02   -948.19862    567367.56    82.101059    83.130017    83.130017 
963000000    599.52658   -157299.92   -154820.16   -980.37799    567367.56    82.056638    83.152516    83.152516 
964000000    602.63258   -157276.12   -154783.52    -722.3941    567367.56    82.015093    83.173573    83.173573 
965000000    599.97432   -157268.49   -154786.88   -900.57928    567367.56    81.976589    83.193104    83.193104 
966000000    602.00128    -157283.3    -154793.3   -1098.4961    567367.56    81.941278    83.211027    83.211027 
967000000    600.22106   -157274.25   -154791.62   -862.94769    567367.56      81.9093    83.227269    83.227269 
968000000    601.31153   -157269.69   -154782.54   -843.69759    567367.56    81.880779    83.241763    83.241763 
969000000    599.69572   -157283.96    -154803.5   -943.16794    567367.56     81.85583    83.254448    83.254448 
970000000    599.11767   -157272.82   -154794.75   -867.02365    567367.56     81.83455    83.265272    83.265272 
971000000    600.74767   -157258.11    -154773.3   -836.16459    567367.56    81.817023    83.274189    83.274189 
972000000    600.68032   -157260.91   -154776.38   -730.82042    567367.56    81.803319    83.281164    83.281164 
973000000     596.0834   -157278.31   -154812.79   -744.91159    567367.56    81.793492    83.286167    83.286167 
974000000     607.5781    -157276.3   -154763.24   -783.34046    567367.56     81.78758    83.289178    83.289178 
975000000    600.31306   -157257.36   -154774.35   -550.34195    567367.56    81.785606    83.290182    83.290182 
976000000     599.3473   -157281.57   -154802.55    -762.8999    567367.56     81.78758    83.289178    83.289178 
977000000    598.73962    -157255.9    -154779.4     -736.313    567367.56    81.793492    83.286167    83.286167 
978000000    601.90026   -157279.59   -154790.01   -844.73185    567367.56    81.803319    83.281164    83.281164 
979000000    600.08735   -157273.21   -154791.14     -762.487    567367.56    81.817023    83.274189    83.274189 
980000000    597.64213   -157270.65   -154798.68   -846.82531    567367.56     81.83455    83.265272    83.265272 
981000000    595.74857   -157261.08   -154796.95   -721.46514    567367.56     81.85583    83.254448    83.254448 
982000000    595.58871   -157262.15   -154798.68   -894.91914    567367.56    81.880779    83.241763    83.241763 
983000000    600.22225   -157258.67   -154776.03   -693.73086    567367.56      81.9093    83.227269    83.227269 
984000000     600.3115   -157283.69   -154800.69   -703.43235    567367.56    81.941278    83.211027    83.211027 
985000000    604.72332   -157272.92   -154771.66   -888.41643    567367.56    81.976589    83.193104    83.193104 
986000000    596.66867   -157271.12   -154803.18   -950.83948    567367.56    82.015093    83.173573    83.173573 
987000000    597.33306   -157274.81   -154804.12     -783.851    567367.56    82.056638    83.152516    83.152516 
988000000    599.59937   -157282.24   -154802.18   -895.35863    567367.56    82.101059    83.130017    83.130017 
989000000    598.72982   -157276.66    -154800.2   -985.65984    567367.56    82.148182    83.106171    83.106171 
990000000    604.29615   -157279.43   -154779.95   -833.30084    567367.56    82.197821    83.081073    83.081073 
991000000    602.19041   -157268.99   -154778.21   -729.68836    567367.56     82.24978    83.054827    83.054827 
992000000    596.53656   -157287.95   -154820.56   -894.59135    567367.56    82.303853     83.02754     83.02754 
993000000    594.53364   -157287.77   -154828.66   -952.32885    567367.56    82.359827    82.999321    82.999321 
994000000    602.62005   -157306.88   -154814.33   -832.39555    567367.56    82.417482    82.970285    82.970285 
995000000    598.71538   -157298.71    -154822.3   -1025.4228    567367.56    82.476589    82.940549    82.940549 
996000000    600.12913   -157295.32   -154813.07   -887.18225    567367.56    82.536917    82.910232    82.910232 
997000000    601.74259   -157290.16   -154801.23   -781.70901    567367.56    82.598225    82.879456    82.879456 
998000000    604.63108   -157250.89   -154750.01   -605.93512    567367.56    82.660273    82.848344    82.848344 
999000000    596.23074   -157315.77   -154849.65   -1106.4481    567367.56    82.722816     82.81702     82.81702 
1000000000    602.96737   -157292.69    -154798.7   -982.84702    567367.56    82.785606    82.785606    82.785606 
Loop time of 599492 on 104 procs for 1000000000 steps with 32000 atoms

Performance: 1441.221 ns/day, 0.017 hours/ns, 1668.080 timesteps/s
99.5% CPU use with 104 MPI tasks x 1 OpenMP threads

MPI task timing breakdown:
Section |  min time  |  avg time  |  max time  |%varavg| %total
---------------------------------------------------------------
Pair    | 3.4936e+05 | 3.5791e+05 | 3.6791e+05 | 767.7 | 59.70
Neigh   | 22310      | 23816      | 25755      | 445.5 |  3.97
Comm    | 1.1902e+05 | 1.2875e+05 | 1.4064e+05 |1391.0 | 21.48
Output  | 1.4473     | 1.4638     | 1.8713     |   3.3 |  0.00
Modify  | 73503      | 78742      | 85905      |1015.4 | 13.13
Other   |            | 1.027e+04  |            |       |  1.71

Nlocal:        307.692 ave         325 max         292 min
Histogram: 3 7 6 18 24 17 19 6 2 2
Nghost:        2593.29 ave        2621 max        2570 min
Histogram: 8 8 9 19 19 9 17 5 6 4
Neighs:        22380.2 ave       24578 max       20268 min
Histogram: 1 9 7 22 20 13 13 9 9 1

Total # of neighbors = 2327543
Ave neighs/atom = 72.735719
Neighbor list builds = 100252995
Dangerous builds = 0
#clear
#jump dms610.lmp
Total wall time: 166:31:29
