units           metal
boundary        p p p
atom_style      atomic
read_data      ../../restart/T${T}.dat
read_data      ../../restart/T550.dat
Reading data file ...
  orthogonal box = (-2.4424434 -2.4424434 -2.4424434) to (80.277221 80.277221 80.277221)
  4 by 2 by 13 MPI processor grid
  reading atoms ...
  32000 atoms
  reading velocities ...
  32000 velocities
  read_data CPU = 0.234 seconds
pair_style      eam/alloy
pair_coeff      * *  ../../ZrCu.lammps.eam Zr Cu
mass 1 91.224
mass 2 63.546
neighbor            2.0 bin
neigh_modify     delay 1
timestep 0.01
thermo 1000000
reset_timestep 0
thermo_style custom step temp pe etotal press vol lx ly lz
fix             1 all nvt temp ${T} ${T} 0.1
fix             1 all nvt temp 550 ${T} 0.1
fix             1 all nvt temp 550 550 0.1
thermo_modify flush yes
fix nodrift all momentum 1  linear 1 1 1
fix com_seed all recenter INIT INIT INIT shift all
fix dsf all deform 1 x  wiggle 1.0  1000000.0 y volume z volume units box
fix ps1 all ave/time 1 1 1000000 c_thermo_press[1] c_thermo_press[2]  c_thermo_press[3] c_thermo_press[4]  c_thermo_press[5] c_thermo_press[6]  file  stress.${T}
fix ps1 all ave/time 1 1 1000000 c_thermo_press[1] c_thermo_press[2]  c_thermo_press[3] c_thermo_press[4]  c_thermo_press[5] c_thermo_press[6]  file  stress.550
dump            1 all custom 100000000 dump.${T} id type x y z
dump            1 all custom 100000000 dump.550 id type x y z
dump_modify 1 sort id
run 1000000000
Neighbor list info ...
  update every 1 steps, delay 1 steps, check yes
  max neighbors/atom: 2000, page size: 100000
  master list distance cutoff = 8.5
  ghost atom cutoff = 8.5
  binsize = 4.25, bins = 20 20 20
  1 neighbor lists, perpetual/occasional/extra = 1 0 0
  (1) pair eam/alloy/intel, perpetual
      attributes: half, newton on, intel
      pair build: half/bin/newton/intel
      stencil: half/bin/3d/newton
      bin: intel
Per MPI rank memory allocation (min/avg/max) = 7.375 | 7.468 | 7.576 Mbytes
Step Temp PotEng TotEng Press Volume Lx Ly Lz 
       0    546.23631   -157509.24    -155249.9    9.1437348    566012.85    82.719664    82.719664    82.719664 
 1000000    547.05538   -157456.81   -155194.09    247.58122    566012.85    82.782455    82.688287    82.688287 
 2000000    550.79431    -157472.2   -155194.01    163.95747    566012.85    82.844998    82.657069    82.657069 
 3000000    553.46007   -157464.66   -155175.44    337.21978    566012.85    82.907046    82.626133    82.626133 
 4000000    550.03815   -157466.54   -155191.47    316.71605    566012.85    82.968354    82.595599    82.595599 
 5000000    551.86424   -157460.24   -155177.62    300.54578    566012.85    83.028681    82.565587    82.565587 
 6000000    546.86914   -157468.29   -155206.33    47.230427    566012.85    83.087789    82.536214    82.536214 
 7000000    546.20166    -157445.7   -155186.51    353.01201    566012.85    83.145444    82.507593    82.507593 
 8000000    551.74695   -157458.97   -155176.84    389.37476    566012.85    83.201418    82.479835    82.479835 
 9000000    550.83652   -157465.15   -155186.78    201.66114    566012.85    83.255491    82.453046    82.453046 
10000000    549.75765   -157463.87   -155189.96     394.0634    566012.85     83.30745    82.427329    82.427329 
11000000    546.49582   -157462.84   -155202.42    287.32775    566012.85    83.357088    82.402783    82.402783 
12000000    551.23769   -157456.54   -155176.51    373.21645    566012.85    83.404211    82.379501    82.379501 
13000000    551.99744   -157447.83   -155164.66    340.11891    566012.85    83.448633    82.357571    82.357571 
14000000    549.73407   -157479.47   -155205.66    99.523122    566012.85    83.490178    82.337078    82.337078 
15000000    553.65058   -157444.01   -155154.01    378.13224    566012.85    83.528681    82.318099    82.318099 
16000000    554.34854   -157433.91   -155141.02    511.58353    566012.85    83.563992    82.300705    82.300705 
17000000    550.79047   -157446.73   -155168.55    257.93154    566012.85    83.595971    82.284962    82.284962 
18000000    551.00535   -157441.99   -155162.93    294.11701    566012.85    83.624491    82.270929    82.270929 
19000000    549.25334   -157456.71   -155184.89    234.81537    566012.85    83.649441    82.258659    82.258659 
20000000    547.53758   -157468.25   -155203.52    122.52111    566012.85    83.670721    82.248198    82.248198 
21000000    554.88664   -157465.71   -155170.59    290.15707    566012.85    83.688247    82.239585    82.239585 
22000000    547.31593    -157444.7    -155180.9    199.29766    566012.85    83.701952    82.232852    82.232852 
23000000    551.22828   -157452.08   -155172.09    324.87991    566012.85    83.711779    82.228025    82.228025 
24000000    547.34032   -157463.94   -155200.03    242.65377    566012.85    83.717691    82.225122    82.225122 
25000000    546.73044   -157443.64   -155182.26    425.11992    566012.85    83.719664    82.224152    82.224152 
26000000    553.05342   -157451.48   -155163.94    427.35869    566012.85    83.717691    82.225122    82.225122 
27000000    547.46227   -157451.14   -155186.73     374.3282    566012.85    83.711779    82.228025    82.228025 
28000000    548.23744   -157451.35   -155183.73    188.71667    566012.85    83.701952    82.232852    82.232852 
29000000    545.65138   -157452.92   -155195.99    216.70675    566012.85    83.688247    82.239585    82.239585 
30000000    549.77746   -157442.11   -155168.13    327.27832    566012.85    83.670721    82.248198    82.248198 
31000000    552.00053   -157450.09   -155166.91    272.60039    566012.85    83.649441    82.258659    82.258659 
32000000    548.14986   -157472.75   -155205.49    133.85527    566012.85    83.624491    82.270929    82.270929 
33000000    547.72067   -157450.98    -155185.5    363.22541    566012.85    83.595971    82.284962    82.284962 
34000000    553.04518   -157471.75   -155184.24    74.182137    566012.85    83.563992    82.300705    82.300705 
35000000    544.79235    -157474.7   -155221.33     144.8937    566012.85    83.528681    82.318099    82.318099 
36000000    548.06591   -157465.54   -155198.63    264.81838    566012.85    83.490178    82.337078    82.337078 
37000000    550.02245   -157467.66   -155192.66    351.82804    566012.85    83.448633    82.357571    82.357571 
38000000    552.58034   -157453.69   -155168.11    415.55718    566012.85    83.404211    82.379501    82.379501 
39000000    548.68393   -157476.51   -155207.04    260.89346    566012.85    83.357088    82.402783    82.402783 
40000000    548.83868   -157457.86   -155187.76    218.10051    566012.85     83.30745    82.427329    82.427329 
41000000    547.02565   -157471.27   -155208.66    261.03593    566012.85    83.255491    82.453046    82.453046 
42000000    554.95156   -157457.78   -155162.39    309.71999    566012.85    83.201418    82.479835    82.479835 
43000000    548.05554   -157484.89   -155218.02    21.270225    566012.85    83.145444    82.507593    82.507593 
44000000    552.24939   -157462.95   -155178.74    243.28389    566012.85    83.087789    82.536214    82.536214 
45000000    550.21702   -157463.68   -155187.88    206.06037    566012.85    83.028681    82.565587    82.565587 
46000000    548.23231   -157444.07   -155176.48    533.48627    566012.85    82.968354    82.595599    82.595599 
47000000    552.41868   -157468.84   -155183.93    345.45248    566012.85    82.907046    82.626133    82.626133 
48000000    552.85927   -157474.88   -155188.14    162.24358    566012.85    82.844998    82.657069    82.657069 
49000000    550.02389   -157491.79   -155216.79   -59.618784    566012.85    82.782455    82.688287    82.688287 
50000000    550.93236   -157457.03   -155178.26    418.33115    566012.85    82.719664    82.719664    82.719664 
51000000    546.83366   -157459.86   -155198.05     148.2676    566012.85    82.656874    82.751077    82.751077 
52000000    549.58735   -157462.82   -155189.62    334.36472    566012.85    82.594331    82.782402    82.782402 
53000000    549.12665   -157475.43   -155204.13   -21.158789    566012.85    82.532283    82.813514    82.813514 
54000000    553.18014   -157448.44   -155160.38    555.11753    566012.85    82.470974     82.84429     82.84429 
55000000    552.83804   -157463.42   -155176.77    331.31687    566012.85    82.410647    82.874607    82.874607 
56000000    549.43591    -157471.8   -155199.23    300.68824    566012.85     82.35154    82.904343    82.904343 
57000000    551.93901   -157479.56   -155196.63    130.47663    566012.85    82.293885    82.933379    82.933379 
58000000    548.36722   -157449.45   -155181.29    352.69698    566012.85    82.237911    82.961598    82.961598 
59000000    549.58173   -157487.65   -155214.48   -88.923646    566012.85    82.183838    82.988886    82.988886 
60000000    547.94482   -157469.29   -155202.88    185.19021    566012.85    82.131879    83.015133    83.015133 
61000000    552.67651   -157462.05   -155176.07    353.77542    566012.85     82.08224     83.04023     83.04023 
62000000      550.348   -157475.84   -155199.49    156.96403    566012.85    82.035117    83.064077    83.064077 
63000000    547.69938   -157454.45   -155189.06    431.22928    566012.85    81.990696    83.086575    83.086575 
64000000    552.08885   -157434.24   -155150.69    430.17078    566012.85    81.949151    83.107633    83.107633 
65000000    551.19629   -157445.24   -155165.39    398.99086    566012.85    81.910647    83.127164    83.127164 
66000000    549.84326   -157467.61   -155193.35    265.96911    566012.85    81.875336    83.145088    83.145088 
67000000    549.94715   -157464.71   -155190.02    339.98622    566012.85    81.843358     83.16133     83.16133 
68000000    552.52873   -157447.98   -155162.62    309.84058    566012.85    81.814837    83.175824    83.175824 
69000000    548.69739   -157471.04   -155201.52    20.624164    566012.85    81.789888    83.188509    83.188509 
70000000    546.72161    -157459.2   -155197.86    431.96319    566012.85    81.768608    83.199333    83.199333 
71000000    550.32276    -157465.3   -155189.06    235.32063    566012.85    81.751081    83.208251    83.208251 
72000000    551.08455   -157458.94   -155179.55    249.58191    566012.85    81.737377    83.215226    83.215226 
73000000      549.428      -157455   -155182.46    398.26164    566012.85     81.72755    83.220229    83.220229 
74000000    550.89655   -157457.66   -155179.04    324.53866    566012.85    81.721638    83.223239    83.223239 
75000000    548.73985   -157453.15   -155183.46    369.30535    566012.85    81.719664    83.224244    83.224244 
76000000    551.77036   -157463.49   -155181.26    189.19516    566012.85    81.721638    83.223239    83.223239 
77000000    553.24512    -157454.2   -155165.87    365.97499    566012.85     81.72755    83.220229    83.220229 
78000000    553.43469   -157453.47   -155164.36    343.93471    566012.85    81.737377    83.215226    83.215226 
79000000    548.77223    -157446.3   -155176.47    370.98793    566012.85    81.751081    83.208251    83.208251 
80000000    550.89936   -157472.95   -155194.32    351.94411    566012.85    81.768608    83.199333    83.199333 
81000000    548.08114   -157452.65   -155185.68    192.56365    566012.85    81.789888    83.188509    83.188509 
82000000    547.41194   -157459.88   -155195.68    278.03807    566012.85    81.814837    83.175824    83.175824 
83000000    550.91507   -157470.21   -155191.52    279.01263    566012.85    81.843358     83.16133     83.16133 
84000000    550.51851   -157451.64   -155174.58    423.09138    566012.85    81.875336    83.145088    83.145088 
85000000    553.75293   -157466.49   -155176.06    262.17868    566012.85    81.910647    83.127164    83.127164 
86000000    550.41432   -157476.93   -155200.31    131.52648    566012.85    81.949151    83.107633    83.107633 
87000000    550.30569   -157463.92   -155187.75    229.13339    566012.85    81.990696    83.086575    83.086575 
88000000    546.45953   -157450.82   -155190.56    275.73057    566012.85    82.035117    83.064077    83.064077 
89000000    549.82222   -157463.39   -155189.22     381.5915    566012.85     82.08224     83.04023     83.04023 
90000000    550.35603   -157461.96   -155185.58    277.00971    566012.85    82.131879    83.015133    83.015133 
91000000    549.23435   -157467.71   -155195.97     215.8694    566012.85    82.183838    82.988886    82.988886 
92000000    547.22122   -157480.28   -155216.87    222.27798    566012.85    82.237911    82.961598    82.961598 
93000000    555.28756   -157474.51   -155177.73    238.74836    566012.85    82.293885    82.933379    82.933379 
94000000    556.94836   -157481.95    -155178.3    310.05151    566012.85     82.35154    82.904343    82.904343 
95000000    550.83636   -157479.86    -155201.5    185.75233    566012.85    82.410647    82.874607    82.874607 
96000000    547.33706   -157472.03   -155208.14    138.04144    566012.85    82.470974     82.84429     82.84429 
97000000    549.27303   -157480.66   -155208.76    180.81227    566012.85    82.532283    82.813514    82.813514 
98000000    548.73301    -157481.6   -155211.94    150.74006    566012.85    82.594331    82.782402    82.782402 
99000000    554.25375   -157482.83   -155190.33    122.37654    566012.85    82.656874    82.751077    82.751077 
100000000    545.76013   -157467.07    -155209.7    25.863006    566012.85    82.719664    82.719664    82.719664 
101000000    550.97031    -157465.1   -155186.18    266.89574    566012.85    82.782455    82.688287    82.688287 
102000000    554.82316   -157473.44   -155178.58    246.40724    566012.85    82.844998    82.657069    82.657069 
103000000    553.03768   -157464.48   -155177.01    315.28513    566012.85    82.907046    82.626133    82.626133 
104000000    548.44307   -157471.02   -155202.55    292.00567    566012.85    82.968354    82.595599    82.595599 
105000000    553.96205   -157462.68   -155171.38    408.16537    566012.85    83.028681    82.565587    82.565587 
106000000    550.14244   -157461.13   -155185.63    341.40462    566012.85    83.087789    82.536214    82.536214 
107000000    550.53101    -157481.1   -155203.99    179.73663    566012.85    83.145444    82.507593    82.507593 
108000000    549.29916   -157470.24   -155198.23    154.33687    566012.85    83.201418    82.479835    82.479835 
109000000    552.48239   -157468.87    -155183.7     214.7624    566012.85    83.255491    82.453046    82.453046 
110000000    545.03432   -157455.54   -155201.17    309.32366    566012.85     83.30745    82.427329    82.427329 
111000000    545.82371   -157481.59   -155223.96    225.32785    566012.85    83.357088    82.402783    82.402783 
112000000    546.70558   -157443.33   -155182.05    456.23115    566012.85    83.404211    82.379501    82.379501 
113000000    551.04042   -157442.26   -155163.04    425.51065    566012.85    83.448633    82.357571    82.357571 
114000000    549.99108   -157462.76   -155187.89    212.51007    566012.85    83.490178    82.337078    82.337078 
115000000    548.10282   -157471.54   -155204.48    188.99306    566012.85    83.528681    82.318099    82.318099 
116000000    550.17602    -157466.4   -155190.76    150.10047    566012.85    83.563992    82.300705    82.300705 
117000000    549.98926   -157447.21   -155172.35    389.65248    566012.85    83.595971    82.284962    82.284962 
118000000    547.08185   -157456.61   -155193.77     194.4842    566012.85    83.624491    82.270929    82.270929 
119000000    548.98769   -157446.47   -155175.75    357.77046    566012.85    83.649441    82.258659    82.258659 
120000000    548.01191   -157463.77   -155197.08    318.16788    566012.85    83.670721    82.248198    82.248198 
121000000    550.21095   -157455.33   -155179.55    437.70008    566012.85    83.688247    82.239585    82.239585 
122000000    550.61675   -157442.89   -155165.44    323.24075    566012.85    83.701952    82.232852    82.232852 
123000000    550.13927   -157446.98    -155171.5    360.66553    566012.85    83.711779    82.228025    82.228025 
124000000    551.70154   -157469.53   -155187.59    278.22585    566012.85    83.717691    82.225122    82.225122 
125000000    551.07898   -157476.69   -155197.32    271.34559    566012.85    83.719664    82.224152    82.224152 
126000000    547.64874   -157467.12   -155201.94    247.45708    566012.85    83.717691    82.225122    82.225122 
127000000    549.67909   -157461.76   -155188.18    149.11854    566012.85    83.711779    82.228025    82.228025 
128000000    550.98227   -157455.93   -155176.96    288.81286    566012.85    83.701952    82.232852    82.232852 
129000000    545.07857   -157463.91   -155209.36    222.86805    566012.85    83.688247    82.239585    82.239585 
130000000    550.24982   -157452.27   -155176.33    275.03443    566012.85    83.670721    82.248198    82.248198 
131000000    550.75033   -157462.47   -155184.45    399.16289    566012.85    83.649441    82.258659    82.258659 
132000000    547.23874   -157469.12   -155205.64     72.85097    566012.85    83.624491    82.270929    82.270929 
133000000    550.06503    -157454.1   -155178.92    176.61305    566012.85    83.595971    82.284962    82.284962 
134000000    550.04939   -157437.33   -155162.22    424.90261    566012.85    83.563992    82.300705    82.300705 
135000000    549.96939   -157460.75   -155185.97    250.14979    566012.85    83.528681    82.318099    82.318099 
136000000     549.9274   -157457.67   -155183.06    233.92574    566012.85    83.490178    82.337078    82.337078 
137000000    550.95018   -157478.93    -155200.1    200.48035    566012.85    83.448633    82.357571    82.357571 
138000000    549.50617   -157464.35   -155191.48    83.965606    566012.85    83.404211    82.379501    82.379501 
139000000    548.72581   -157466.35   -155196.71    184.28027    566012.85    83.357088    82.402783    82.402783 
140000000    551.97173   -157472.59   -155189.53     285.2237    566012.85     83.30745    82.427329    82.427329 
141000000    549.81803   -157477.84   -155203.68     204.4841    566012.85    83.255491    82.453046    82.453046 
142000000    552.97616   -157480.41   -155193.19    171.49747    566012.85    83.201418    82.479835    82.479835 
143000000     544.2958   -157476.19   -155224.88    28.037708    566012.85    83.145444    82.507593    82.507593 
144000000    546.49574   -157444.19   -155183.77    221.02042    566012.85    83.087789    82.536214    82.536214 
145000000    549.63022   -157478.47   -155205.09    139.61912    566012.85    83.028681    82.565587    82.565587 
146000000    546.57926   -157479.19   -155218.43    162.51956    566012.85    82.968354    82.595599    82.595599 
147000000    550.30904   -157486.97   -155210.79    20.710759    566012.85    82.907046    82.626133    82.626133 
148000000    547.08028   -157480.22   -155217.39    155.63549    566012.85    82.844998    82.657069    82.657069 
149000000    550.30848   -157476.72   -155200.54    101.75416    566012.85    82.782455    82.688287    82.688287 
150000000    553.57342   -157479.85   -155190.16    241.44521    566012.85    82.719664    82.719664    82.719664 
151000000     548.4102      -157473   -155204.67    63.088646    566012.85    82.656874    82.751077    82.751077 
152000000    550.53193   -157485.01    -155207.9    159.10406    566012.85    82.594331    82.782402    82.782402 
153000000    548.23171   -157470.45   -155202.86    100.99889    566012.85    82.532283    82.813514    82.813514 
154000000    550.60599    -157471.2   -155193.79     275.3963    566012.85    82.470974     82.84429     82.84429 
155000000    547.56933   -157483.33   -155218.47    19.535653    566012.85    82.410647    82.874607    82.874607 
156000000    546.97751   -157481.21   -155218.81    65.231451    566012.85     82.35154    82.904343    82.904343 
157000000    550.90233   -157458.84    -155180.2     287.2803    566012.85    82.293885    82.933379    82.933379 
158000000    553.44152   -157486.82   -155197.68    73.138223    566012.85    82.237911    82.961598    82.961598 
159000000    550.24433   -157462.74   -155186.82    172.52679    566012.85    82.183838    82.988886    82.988886 
160000000    546.96809   -157468.58   -155206.22    193.64948    566012.85    82.131879    83.015133    83.015133 
161000000    547.72301   -157457.87   -155192.38     369.8752    566012.85     82.08224     83.04023     83.04023 
162000000    547.02564   -157461.32   -155198.71    232.01478    566012.85    82.035117    83.064077    83.064077 
163000000    546.50664   -157466.54   -155206.08    172.10318    566012.85    81.990696    83.086575    83.086575 
164000000    545.78735   -157477.87   -155220.39    141.22032    566012.85    81.949151    83.107633    83.107633 
165000000    549.06805   -157462.06   -155191.01    331.12583    566012.85    81.910647    83.127164    83.127164 
166000000    550.60673   -157464.65   -155187.24    244.58262    566012.85    81.875336    83.145088    83.145088 
167000000    549.26912   -157464.92   -155193.03    273.37925    566012.85    81.843358     83.16133     83.16133 
168000000    546.95003   -157426.76   -155164.47      539.167    566012.85    81.814837    83.175824    83.175824 
169000000    549.09737   -157443.77   -155172.59    298.80344    566012.85    81.789888    83.188509    83.188509 
170000000    546.94804   -157470.33   -155208.04    153.17113    566012.85    81.768608    83.199333    83.199333 
171000000    550.16657   -157457.66   -155182.06    233.40753    566012.85    81.751081    83.208251    83.208251 
172000000    548.37517   -157455.07   -155186.88     313.5392    566012.85    81.737377    83.215226    83.215226 
173000000    548.78371   -157452.71   -155182.84    273.79369    566012.85     81.72755    83.220229    83.220229 
174000000    551.36334   -157427.26   -155146.71    493.92466    566012.85    81.721638    83.223239    83.223239 
175000000     551.1212   -157468.15    -155188.6    126.83091    566012.85    81.719664    83.224244    83.224244 
176000000    547.74569   -157448.29   -155182.71    310.87761    566012.85    81.721638    83.223239    83.223239 
177000000    549.31383   -157456.28   -155184.21    192.89258    566012.85     81.72755    83.220229    83.220229 
178000000    551.70447   -157469.19   -155187.23    225.27437    566012.85    81.737377    83.215226    83.215226 
179000000    559.99421   -157450.54    -155134.3    376.57067    566012.85    81.751081    83.208251    83.208251 
180000000    545.70279   -157465.54    -155208.4    125.59547    566012.85    81.768608    83.199333    83.199333 
181000000    550.29328   -157467.68   -155191.56   -3.6475248    566012.85    81.789888    83.188509    83.188509 
182000000    547.22337   -157472.17   -155208.74    55.513665    566012.85    81.814837    83.175824    83.175824 
183000000    554.68626   -157473.06   -155178.77    84.877501    566012.85    81.843358     83.16133     83.16133 
184000000    550.83899   -157460.69   -155182.32    197.59563    566012.85    81.875336    83.145088    83.145088 
185000000     547.0303    -157472.7   -155210.08     93.89145    566012.85    81.910647    83.127164    83.127164 
186000000    551.02177   -157475.77   -155196.64    194.72136    566012.85    81.949151    83.107633    83.107633 
187000000     551.0008   -157474.37   -155195.32    165.65964    566012.85    81.990696    83.086575    83.086575 
188000000    550.81712   -157448.87   -155170.58    302.39954    566012.85    82.035117    83.064077    83.064077 
189000000     548.7994   -157476.74    -155206.8     185.5002    566012.85     82.08224     83.04023     83.04023 
190000000     546.6402   -157467.94   -155206.93    207.92625    566012.85    82.131879    83.015133    83.015133 
191000000    547.62013   -157461.65   -155196.58    161.40175    566012.85    82.183838    82.988886    82.988886 
192000000    548.05932   -157461.62   -155194.74     223.3717    566012.85    82.237911    82.961598    82.961598 
193000000    552.15455   -157459.96   -155176.14    333.01528    566012.85    82.293885    82.933379    82.933379 
194000000    547.30645   -157470.77      -155207    34.307383    566012.85     82.35154    82.904343    82.904343 
195000000       552.22   -157462.45   -155178.36    343.56555    566012.85    82.410647    82.874607    82.874607 
196000000    549.42987   -157463.25    -155190.7    147.09168    566012.85    82.470974     82.84429     82.84429 
197000000    551.39621   -157477.18   -155196.49     97.66371    566012.85    82.532283    82.813514    82.813514 
198000000    548.41925   -157502.24   -155233.87   -40.666635    566012.85    82.594331    82.782402    82.782402 
199000000    549.39712   -157467.51    -155195.1    170.87473    566012.85    82.656874    82.751077    82.751077 
200000000    545.82455   -157459.13    -155201.5     251.9859    566012.85    82.719664    82.719664    82.719664 
201000000    550.36548   -157472.82    -155196.4    201.36524    566012.85    82.782455    82.688287    82.688287 
202000000    549.17773   -157479.61    -155208.1    165.46919    566012.85    82.844998    82.657069    82.657069 
203000000    554.17456   -157472.55   -155180.38    115.42166    566012.85    82.907046    82.626133    82.626133 
204000000    552.70535   -157463.81   -155177.71    283.87477    566012.85    82.968354    82.595599    82.595599 
205000000    552.52871   -157459.71   -155174.34    244.09516    566012.85    83.028681    82.565587    82.565587 
206000000    550.09543   -157496.36   -155221.06   -130.19526    566012.85    83.087789    82.536214    82.536214 
207000000    552.67679   -157474.96   -155188.98    242.54252    566012.85    83.145444    82.507593    82.507593 
208000000    552.13781   -157482.56   -155198.81    129.51749    566012.85    83.201418    82.479835    82.479835 
209000000    548.84054   -157467.22   -155197.11    115.55276    566012.85    83.255491    82.453046    82.453046 
210000000    549.94035   -157474.18   -155199.52    246.69183    566012.85     83.30745    82.427329    82.427329 
211000000    552.56386   -157478.12   -155192.61    123.27999    566012.85    83.357088    82.402783    82.402783 
212000000    547.46864   -157461.55   -155197.11    208.04651    566012.85    83.404211    82.379501    82.379501 
213000000    552.61316   -157494.62   -155208.91    6.6105435    566012.85    83.448633    82.357571    82.357571 
214000000    549.36701   -157456.21   -155183.92    108.12411    566012.85    83.490178    82.337078    82.337078 
215000000    547.41423    -157483.7   -155219.48     12.07514    566012.85    83.528681    82.318099    82.318099 
216000000    545.61963    -157455.9   -155199.12    200.64142    566012.85    83.563992    82.300705    82.300705 
217000000    549.99783   -157472.38   -155197.48    39.403083    566012.85    83.595971    82.284962    82.284962 
218000000    550.03406    -157477.5   -155202.45     18.45593    566012.85    83.624491    82.270929    82.270929 
219000000    549.45708   -157464.87   -155192.21     292.3857    566012.85    83.649441    82.258659    82.258659 
220000000    550.14571    -157471.9   -155196.39    213.61672    566012.85    83.670721    82.248198    82.248198 
221000000    547.88993   -157463.35   -155197.17    240.99524    566012.85    83.688247    82.239585    82.239585 
222000000    550.72942   -157478.04   -155200.11    10.757565    566012.85    83.701952    82.232852    82.232852 
223000000    547.18708   -157473.69   -155210.42    35.519182    566012.85    83.711779    82.228025    82.228025 
224000000    552.99017   -157459.97    -155172.7    107.75719    566012.85    83.717691    82.225122    82.225122 
225000000    549.12021   -157457.98   -155186.71     216.3141    566012.85    83.719664    82.224152    82.224152 
226000000    552.09035   -157458.13   -155174.58     273.8652    566012.85    83.717691    82.225122    82.225122 
227000000    548.82626   -157455.66   -155185.61    262.29006    566012.85    83.711779    82.228025    82.228025 
228000000    551.30318   -157474.94   -155194.64    117.56021    566012.85    83.701952    82.232852    82.232852 
229000000    545.03365   -157475.31   -155220.95   -65.353529    566012.85    83.688247    82.239585    82.239585 
230000000    550.39932   -157463.81   -155187.25    140.60144    566012.85    83.670721    82.248198    82.248198 
231000000    550.35919   -157458.05   -155181.66    134.41187    566012.85    83.649441    82.258659    82.258659 
232000000    555.22878   -157459.77   -155163.23    311.72128    566012.85    83.624491    82.270929    82.270929 
233000000    553.20755    -157466.3   -155178.13    290.07812    566012.85    83.595971    82.284962    82.284962 
234000000    555.02705   -157489.29   -155193.59    137.94322    566012.85    83.563992    82.300705    82.300705 
235000000    548.18058   -157469.29    -155201.9    173.92597    566012.85    83.528681    82.318099    82.318099 
236000000    547.82682   -157472.59   -155206.67    108.33824    566012.85    83.490178    82.337078    82.337078 
237000000    551.15522   -157471.83   -155192.15    99.249096    566012.85    83.448633    82.357571    82.357571 
238000000    545.76136   -157491.71   -155234.33   -13.198566    566012.85    83.404211    82.379501    82.379501 
239000000    552.13357   -157486.26   -155202.52     56.55167    566012.85    83.357088    82.402783    82.402783 
240000000    549.04243   -157468.47   -155197.52    220.73375    566012.85     83.30745    82.427329    82.427329 
241000000    551.46369    -157466.3   -155185.34    343.84986    566012.85    83.255491    82.453046    82.453046 
242000000    551.30175   -157512.57   -155232.27  -0.24137222    566012.85    83.201418    82.479835    82.479835 
243000000    548.91579   -157476.71   -155206.29    55.741144    566012.85    83.145444    82.507593    82.507593 
244000000    545.85341    -157476.1   -155218.35    159.53118    566012.85    83.087789    82.536214    82.536214 
245000000    549.38313   -157484.59   -155212.24    129.48001    566012.85    83.028681    82.565587    82.565587 
246000000    551.26535   -157477.77   -155197.63    138.89984    566012.85    82.968354    82.595599    82.595599 
247000000    550.04584   -157467.78   -155192.69    138.49849    566012.85    82.907046    82.626133    82.626133 
248000000    552.59757   -157495.66   -155210.01    56.327911    566012.85    82.844998    82.657069    82.657069 
249000000    547.90354   -157478.04    -155211.8    65.446251    566012.85    82.782455    82.688287    82.688287 
250000000    549.27453   -157495.03   -155223.12    45.032665    566012.85    82.719664    82.719664    82.719664 
251000000    549.79047   -157469.54    -155195.5    84.554903    566012.85    82.656874    82.751077    82.751077 
252000000    549.17645   -157462.52   -155191.02    237.14079    566012.85    82.594331    82.782402    82.782402 
253000000    551.42503   -157476.72   -155195.91    83.259252    566012.85    82.532283    82.813514    82.813514 
254000000    544.77297   -157476.07   -155222.78    140.87374    566012.85    82.470974     82.84429     82.84429 
255000000    544.81513   -157477.98   -155224.52    163.94332    566012.85    82.410647    82.874607    82.874607 
256000000    547.37235   -157492.61   -155228.57   -111.05868    566012.85     82.35154    82.904343    82.904343 
257000000    548.50727   -157484.53    -155215.8    51.306326    566012.85    82.293885    82.933379    82.933379 
258000000    551.77468   -157484.03   -155201.78   -33.139802    566012.85    82.237911    82.961598    82.961598 
259000000    551.37739   -157462.31   -155181.71     209.4666    566012.85    82.183838    82.988886    82.988886 
260000000    549.20748   -157490.37   -155218.74   -52.586686    566012.85    82.131879    83.015133    83.015133 
261000000    552.07431   -157463.56   -155180.08    194.68435    566012.85     82.08224     83.04023     83.04023 
262000000    549.26454   -157482.82   -155210.95    203.64549    566012.85    82.035117    83.064077    83.064077 
263000000    549.22519    -157484.5    -155212.8    175.67826    566012.85    81.990696    83.086575    83.086575 
264000000    550.05883   -157466.86   -155191.71    223.03842    566012.85    81.949151    83.107633    83.107633 
265000000    549.89081   -157464.29   -155189.84    194.18103    566012.85    81.910647    83.127164    83.127164 
266000000    552.68918   -157480.47   -155194.44    213.50791    566012.85    81.875336    83.145088    83.145088 
267000000    547.51171   -157472.17   -155207.55    190.91936    566012.85    81.843358     83.16133     83.16133 
268000000     548.2531   -157455.74   -155188.06    327.59231    566012.85    81.814837    83.175824    83.175824 
269000000    546.91091   -157482.65   -155220.52    153.35719    566012.85    81.789888    83.188509    83.188509 
270000000    550.04227   -157468.51   -155193.42    291.51826    566012.85    81.768608    83.199333    83.199333 
271000000    548.31068   -157468.08   -155200.16    236.92451    566012.85    81.751081    83.208251    83.208251 
272000000    550.61305   -157456.69   -155179.24    273.38463    566012.85    81.737377    83.215226    83.215226 
273000000     553.6763   -157473.79   -155183.67    76.772493    566012.85     81.72755    83.220229    83.220229 
274000000       553.13   -157473.22   -155185.37    222.37435    566012.85    81.721638    83.223239    83.223239 
275000000    547.14785   -157464.42   -155201.31     235.4518    566012.85    81.719664    83.224244    83.224244 
276000000    546.27347   -157475.73   -155216.23    163.89158    566012.85    81.721638    83.223239    83.223239 
277000000      549.071   -157456.15   -155185.08    162.01038    566012.85     81.72755    83.220229    83.220229 
278000000    551.27025    -157466.3   -155186.14    176.07667    566012.85    81.737377    83.215226    83.215226 
279000000    546.48021   -157464.86   -155204.51    275.96336    566012.85    81.751081    83.208251    83.208251 
280000000    551.47879   -157475.18   -155194.16    194.29541    566012.85    81.768608    83.199333    83.199333 
281000000    553.60684   -157464.92    -155175.1    227.84487    566012.85    81.789888    83.188509    83.188509 
282000000     544.8096   -157469.29   -155215.85    214.31511    566012.85    81.814837    83.175824    83.175824 
283000000    550.97239   -157487.39   -155208.46     50.93716    566012.85    81.843358     83.16133     83.16133 
284000000    549.87437   -157458.85   -155184.46    232.37233    566012.85    81.875336    83.145088    83.145088 
285000000    551.88998   -157472.98   -155190.25    143.76186    566012.85    81.910647    83.127164    83.127164 
286000000    550.39364   -157477.87   -155201.33    96.375971    566012.85    81.949151    83.107633    83.107633 
287000000    553.48367   -157454.26   -155164.94     166.4585    566012.85    81.990696    83.086575    83.086575 
288000000    552.16844   -157469.24   -155185.36    294.99923    566012.85    82.035117    83.064077    83.064077 
289000000    552.67739   -157481.64   -155195.66    208.51715    566012.85     82.08224     83.04023     83.04023 
290000000    550.49395   -157473.89   -155196.94    283.42681    566012.85    82.131879    83.015133    83.015133 
291000000    549.66933   -157473.56   -155200.02    116.31617    566012.85    82.183838    82.988886    82.988886 
292000000    552.29547   -157501.35   -155216.95     86.44847    566012.85    82.237911    82.961598    82.961598 
293000000    555.69882   -157498.85   -155200.37    4.2725662    566012.85    82.293885    82.933379    82.933379 
294000000    548.73693   -157484.75   -155215.06    226.04378    566012.85     82.35154    82.904343    82.904343 
295000000    549.26257   -157478.09   -155206.24    30.368418    566012.85    82.410647    82.874607    82.874607 
296000000    550.20278   -157484.55    -155208.8    141.15203    566012.85    82.470974     82.84429     82.84429 
297000000    548.34244   -157493.69   -155225.64    -71.73414    566012.85    82.532283    82.813514    82.813514 
298000000    546.27317   -157477.74   -155218.24    111.92273    566012.85    82.594331    82.782402    82.782402 
299000000    547.51178   -157465.91    -155201.3     196.0359    566012.85    82.656874    82.751077    82.751077 
300000000     547.6383   -157493.74    -155228.6    74.419208    566012.85    82.719664    82.719664    82.719664 
301000000    547.09046   -157491.34   -155228.47   -76.696947    566012.85    82.782455    82.688287    82.688287 
302000000    554.86222    -157482.6   -155187.58    192.70201    566012.85    82.844998    82.657069    82.657069 
303000000    549.69994   -157483.48   -155209.81    225.48403    566012.85    82.907046    82.626133    82.626133 
304000000    550.90699   -157503.15   -155224.49    97.176309    566012.85    82.968354    82.595599    82.595599 
305000000    548.38262   -157488.56   -155220.34   -94.917742    566012.85    83.028681    82.565587    82.565587 
306000000    547.59253   -157482.12   -155217.17    1.9103111    566012.85    83.087789    82.536214    82.536214 
307000000     548.5819   -157474.21   -155205.17    177.99602    566012.85    83.145444    82.507593    82.507593 
308000000    542.29019   -157468.69   -155225.67    28.301525    566012.85    83.201418    82.479835    82.479835 
309000000    550.53454   -157478.72   -155201.61    105.52449    566012.85    83.255491    82.453046    82.453046 
310000000    548.25411   -157464.05   -155196.37    285.98485    566012.85     83.30745    82.427329    82.427329 
311000000    548.90173   -157475.84   -155205.47    147.95149    566012.85    83.357088    82.402783    82.402783 
312000000    549.86718   -157474.36      -155200    221.74127    566012.85    83.404211    82.379501    82.379501 
313000000    549.32897   -157468.58   -155196.45   -36.794982    566012.85    83.448633    82.357571    82.357571 
314000000    548.54897   -157474.63   -155205.72    61.503477    566012.85    83.490178    82.337078    82.337078 
315000000    546.96506   -157463.93   -155201.57    88.586281    566012.85    83.528681    82.318099    82.318099 
316000000    549.31386   -157471.32   -155199.25    127.96228    566012.85    83.563992    82.300705    82.300705 
317000000    551.37244    -157492.1   -155211.51    3.1899175    566012.85    83.595971    82.284962    82.284962 
318000000    548.46643   -157477.58   -155209.02    87.036049    566012.85    83.624491    82.270929    82.270929 
319000000    545.38272   -157483.85   -155228.04    58.371024    566012.85    83.649441    82.258659    82.258659 
320000000    550.22258   -157451.07   -155175.24    193.47555    566012.85    83.670721    82.248198    82.248198 
321000000    549.22478    -157467.7   -155195.99    180.23242    566012.85    83.688247    82.239585    82.239585 
322000000    549.73776   -157475.06   -155201.24    13.203614    566012.85    83.701952    82.232852    82.232852 
323000000    552.25466   -157467.16   -155182.93    144.93698    566012.85    83.711779    82.228025    82.228025 
324000000    549.50854   -157465.59   -155192.71    168.29962    566012.85    83.717691    82.225122    82.225122 
325000000    551.27698    -157474.5   -155194.31    175.66727    566012.85    83.719664    82.224152    82.224152 
326000000    551.01029   -157472.77   -155193.69    132.31045    566012.85    83.717691    82.225122    82.225122 
327000000    554.64225   -157472.29   -155178.19    283.28314    566012.85    83.711779    82.228025    82.228025 
328000000    556.57494   -157464.78   -155162.67    197.47882    566012.85    83.701952    82.232852    82.232852 
329000000    549.52801   -157488.76   -155215.81    88.060099    566012.85    83.688247    82.239585    82.239585 
330000000    548.21462   -157495.06   -155227.54   -11.008919    566012.85    83.670721    82.248198    82.248198 
331000000     548.2853   -157472.72    -155204.9    124.46441    566012.85    83.649441    82.258659    82.258659 
332000000     550.0156   -157470.42   -155195.45    149.81212    566012.85    83.624491    82.270929    82.270929 
333000000    550.57536   -157478.87   -155201.58    85.011484    566012.85    83.595971    82.284962    82.284962 
334000000    545.29343   -157457.48   -155202.04    252.18689    566012.85    83.563992    82.300705    82.300705 
335000000    552.34799   -157471.85   -155187.23    104.39455    566012.85    83.528681    82.318099    82.318099 
336000000    548.41862   -157479.86   -155211.49     174.0697    566012.85    83.490178    82.337078    82.337078 
337000000    549.55084   -157476.95    -155203.9    179.69159    566012.85    83.448633    82.357571    82.357571 
338000000    552.04244   -157477.34   -155193.98    225.51622    566012.85    83.404211    82.379501    82.379501 
339000000    551.70101   -157482.89   -155200.94    75.509839    566012.85    83.357088    82.402783    82.402783 
340000000    551.19197   -157482.68   -155202.85   -7.1021149    566012.85     83.30745    82.427329    82.427329 
341000000     552.4752   -157485.54   -155200.39    81.402351    566012.85    83.255491    82.453046    82.453046 
342000000    551.45105   -157482.99   -155202.08    19.887693    566012.85    83.201418    82.479835    82.479835 
343000000    552.63579    -157489.7   -155203.89    72.086156    566012.85    83.145444    82.507593    82.507593 
344000000    552.18809   -157479.78   -155195.82    228.61956    566012.85    83.087789    82.536214    82.536214 
345000000    550.00057   -157474.26   -155199.35    272.14644    566012.85    83.028681    82.565587    82.565587 
346000000    547.41537    -157477.2   -155212.98    155.80121    566012.85    82.968354    82.595599    82.595599 
347000000    548.75622   -157477.83   -155208.07    140.54149    566012.85    82.907046    82.626133    82.626133 
348000000    551.04307    -157500.8   -155221.58    48.781558    566012.85    82.844998    82.657069    82.657069 
349000000    549.06139   -157490.65   -155219.63    79.477371    566012.85    82.782455    82.688287    82.688287 
350000000    544.26976   -157468.66   -155217.45    287.74758    566012.85    82.719664    82.719664    82.719664 
351000000    548.34377   -157483.89   -155215.84   -9.2083468    566012.85    82.656874    82.751077    82.751077 
352000000     543.7394    -157504.4   -155255.39   -46.371474    566012.85    82.594331    82.782402    82.782402 
353000000    550.32625   -157494.51   -155218.26   -71.790367    566012.85    82.532283    82.813514    82.813514 
354000000    556.10693   -157484.17      -155184    206.43578    566012.85    82.470974     82.84429     82.84429 
355000000    548.97047   -157480.34   -155209.69    157.98036    566012.85    82.410647    82.874607    82.874607 
356000000     551.8646   -157482.96   -155200.34    238.79155    566012.85     82.35154    82.904343    82.904343 
357000000     550.2225   -157478.51   -155202.68    202.50096    566012.85    82.293885    82.933379    82.933379 
358000000    550.68956   -157494.37   -155216.61    103.73303    566012.85    82.237911    82.961598    82.961598 
359000000    550.80041   -157489.92   -155211.71    158.43379    566012.85    82.183838    82.988886    82.988886 
360000000    552.65844   -157486.22   -155200.31   -5.0856483    566012.85    82.131879    83.015133    83.015133 
361000000    554.66815   -157466.05   -155171.84    373.19561    566012.85     82.08224     83.04023     83.04023 
362000000    553.98265   -157499.23   -155207.85    44.711059    566012.85    82.035117    83.064077    83.064077 
363000000     552.3122    -157481.9   -155197.42    131.04661    566012.85    81.990696    83.086575    83.086575 
364000000    551.69014   -157479.44   -155197.54    123.38609    566012.85    81.949151    83.107633    83.107633 
365000000    549.47511   -157468.25   -155195.51      154.616    566012.85    81.910647    83.127164    83.127164 
366000000    548.14094   -157477.32   -155210.11   -6.9642332    566012.85    81.875336    83.145088    83.145088 
367000000    548.37919   -157454.81   -155186.61    190.18264    566012.85    81.843358     83.16133     83.16133 
368000000    550.36269   -157473.48   -155197.07    249.36226    566012.85    81.814837    83.175824    83.175824 
369000000    553.17535   -157462.03   -155173.99    253.92579    566012.85    81.789888    83.188509    83.188509 
370000000    550.13082   -157471.91   -155196.46    48.641867    566012.85    81.768608    83.199333    83.199333 
371000000    550.10998   -157485.11   -155209.75    174.09467    566012.85    81.751081    83.208251    83.208251 
372000000    548.64923    -157474.5   -155205.18     175.1802    566012.85    81.737377    83.215226    83.215226 
373000000     547.8832   -157481.69   -155215.54    156.01684    566012.85     81.72755    83.220229    83.220229 
374000000    551.15843   -157476.77   -155197.07    164.17614    566012.85    81.721638    83.223239    83.223239 
375000000     548.8725   -157458.49   -155188.24     400.9533    566012.85    81.719664    83.224244    83.224244 
376000000    549.87675   -157451.34   -155176.94    424.94656    566012.85    81.721638    83.223239    83.223239 
377000000    552.17472   -157468.26   -155184.36    228.58246    566012.85     81.72755    83.220229    83.220229 
378000000    551.92127   -157466.07   -155183.21    278.99661    566012.85    81.737377    83.215226    83.215226 
379000000    546.96775    -157467.7   -155205.34    236.92541    566012.85    81.751081    83.208251    83.208251 
380000000    547.00281   -157463.79   -155201.28    255.51089    566012.85    81.768608    83.199333    83.199333 
381000000    546.41497    -157462.7   -155202.62    183.16833    566012.85    81.789888    83.188509    83.188509 
382000000    555.39361   -157466.95   -155169.74     396.5171    566012.85    81.814837    83.175824    83.175824 
383000000    549.98331   -157482.59   -155207.75    166.81661    566012.85    81.843358     83.16133     83.16133 
384000000    550.50421   -157474.28   -155197.29    169.57231    566012.85    81.875336    83.145088    83.145088 
385000000    550.44689   -157460.48   -155183.72    271.80699    566012.85    81.910647    83.127164    83.127164 
386000000    550.99743   -157504.13   -155225.09    63.173368    566012.85    81.949151    83.107633    83.107633 
387000000    548.17012   -157489.43   -155222.09    54.627765    566012.85    81.990696    83.086575    83.086575 
388000000    553.26399   -157475.38   -155186.97    152.27327    566012.85    82.035117    83.064077    83.064077 
389000000    553.04088    -157478.4   -155190.92    258.72478    566012.85     82.08224     83.04023     83.04023 
390000000    548.50611   -157485.72      -155217    44.211485    566012.85    82.131879    83.015133    83.015133 
391000000    553.35219    -157491.5   -155202.72    97.833439    566012.85    82.183838    82.988886    82.988886 
392000000    553.59498   -157496.95   -155207.17    64.754354    566012.85    82.237911    82.961598    82.961598 
393000000    545.83557   -157484.96   -155227.28    277.91613    566012.85    82.293885    82.933379    82.933379 
394000000    546.94658   -157487.89   -155225.61    62.187548    566012.85     82.35154    82.904343    82.904343 
395000000    543.43887   -157503.93   -155256.16   -3.9195229    566012.85    82.410647    82.874607    82.874607 
396000000    549.82052   -157503.47   -155229.31   -42.764234    566012.85    82.470974     82.84429     82.84429 
397000000    548.23534   -157500.52   -155232.91    89.097342    566012.85    82.532283    82.813514    82.813514 
398000000     545.5466   -157482.29   -155225.81    161.89817    566012.85    82.594331    82.782402    82.782402 
399000000     548.2366   -157507.68   -155240.06    -10.27799    566012.85    82.656874    82.751077    82.751077 
400000000    547.59642   -157484.51   -155219.54    11.063058    566012.85    82.719664    82.719664    82.719664 
401000000    550.43498   -157481.47   -155204.77    253.42704    566012.85    82.782455    82.688287    82.688287 
402000000    554.13925   -157497.93    -155205.9    97.271171    566012.85    82.844998    82.657069    82.657069 
403000000    549.19759   -157496.28    -155224.7   -12.708145    566012.85    82.907046    82.626133    82.626133 
404000000    549.46931   -157474.39   -155201.68    363.79365    566012.85    82.968354    82.595599    82.595599 
405000000    554.72121   -157494.64    -155200.2    104.10874    566012.85    83.028681    82.565587    82.565587 
406000000    549.56308   -157491.93   -155218.83    131.19775    566012.85    83.087789    82.536214    82.536214 
407000000    547.64136   -157492.69   -155227.53    163.65327    566012.85    83.145444    82.507593    82.507593 
408000000    552.15147   -157474.05   -155190.25     277.1812    566012.85    83.201418    82.479835    82.479835 
409000000    548.81459   -157503.68   -155233.67    -26.25824    566012.85    83.255491    82.453046    82.453046 
410000000    550.61576   -157502.37   -155224.91    -1.171193    566012.85     83.30745    82.427329    82.427329 
411000000    549.45002   -157500.48   -155227.85   -34.879799    566012.85    83.357088    82.402783    82.402783 
412000000    554.46183    -157478.2   -155184.84    312.52206    566012.85    83.404211    82.379501    82.379501 
413000000    552.14355   -157478.02   -155194.25     119.3811    566012.85    83.448633    82.357571    82.357571 
414000000    548.83407   -157477.58   -155207.49    246.70465    566012.85    83.490178    82.337078    82.337078 
415000000    549.51944   -157493.76   -155220.84    143.06105    566012.85    83.528681    82.318099    82.318099 
416000000    548.23302    -157485.5    -155217.9    73.275553    566012.85    83.563992    82.300705    82.300705 
417000000    553.72865   -157491.07   -155200.74    107.01052    566012.85    83.595971    82.284962    82.284962 
418000000    548.49412   -157475.24   -155206.57    148.77682    566012.85    83.624491    82.270929    82.270929 
419000000     549.7166   -157493.06   -155219.33   -70.590721    566012.85    83.649441    82.258659    82.258659 
420000000    550.00752   -157482.67   -155207.73    164.93534    566012.85    83.670721    82.248198    82.248198 
421000000    549.14771   -157463.33   -155191.95    247.38988    566012.85    83.688247    82.239585    82.239585 
422000000     549.9001   -157489.85   -155215.35    30.144354    566012.85    83.701952    82.232852    82.232852 
423000000    552.17929   -157496.87   -155212.95  -0.60813246    566012.85    83.711779    82.228025    82.228025 
424000000    549.20361   -157475.75   -155204.14    137.31838    566012.85    83.717691    82.225122    82.225122 
425000000    553.80821   -157470.77   -155180.11    327.67571    566012.85    83.719664    82.224152    82.224152 
426000000    548.44111   -157491.01   -155222.56   -80.131208    566012.85    83.717691    82.225122    82.225122 
427000000    549.99446   -157477.44   -155202.55    177.27495    566012.85    83.711779    82.228025    82.228025 
428000000    549.75104   -157469.52   -155195.64    166.94351    566012.85    83.701952    82.232852    82.232852 
429000000    547.38163   -157469.18    -155205.1    182.67552    566012.85    83.688247    82.239585    82.239585 
430000000    548.89773   -157469.85    -155199.5    286.73517    566012.85    83.670721    82.248198    82.248198 
431000000    547.11891   -157486.53   -155223.54    21.400138    566012.85    83.649441    82.258659    82.258659 
432000000    548.88579   -157474.98   -155204.69    249.73152    566012.85    83.624491    82.270929    82.270929 
433000000    547.74523   -157478.75   -155213.17    56.083365    566012.85    83.595971    82.284962    82.284962 
434000000     548.1314   -157472.56   -155205.38    220.84187    566012.85    83.563992    82.300705    82.300705 
435000000    547.56248   -157490.26   -155225.44    97.966651    566012.85    83.528681    82.318099    82.318099 
436000000    551.08616   -157454.66   -155175.26    393.78107    566012.85    83.490178    82.337078    82.337078 
437000000    550.89591   -157476.78   -155198.17    289.47713    566012.85    83.448633    82.357571    82.357571 
438000000    545.36721   -157485.18   -155229.44    262.85641    566012.85    83.404211    82.379501    82.379501 
439000000    552.58534   -157501.53   -155215.93    128.60073    566012.85    83.357088    82.402783    82.402783 
440000000    548.69588   -157476.69   -155207.17    334.13587    566012.85     83.30745    82.427329    82.427329 
441000000    548.53783   -157480.98   -155212.12     2.587284    566012.85    83.255491    82.453046    82.453046 
442000000    550.56647   -157471.36   -155194.11    248.67563    566012.85    83.201418    82.479835    82.479835 
443000000    552.25189   -157479.28   -155195.05    139.65509    566012.85    83.145444    82.507593    82.507593 
444000000    548.76181   -157482.38   -155212.59    81.758502    566012.85    83.087789    82.536214    82.536214 
445000000    548.61409    -157517.5   -155248.33   -58.727633    566012.85    83.028681    82.565587    82.565587 
446000000    554.69139   -157475.22   -155180.91    192.63952    566012.85    82.968354    82.595599    82.595599 
447000000    549.58581    -157501.3   -155228.11   -57.924887    566012.85    82.907046    82.626133    82.626133 
448000000    548.96565   -157488.39   -155217.76    123.71877    566012.85    82.844998    82.657069    82.657069 
449000000    552.00354    -157499.9   -155216.71    16.648583    566012.85    82.782455    82.688287    82.688287 
450000000    551.40486   -157490.74   -155210.02    288.66021    566012.85    82.719664    82.719664    82.719664 
451000000    548.43732   -157494.28   -155225.84   -20.570164    566012.85    82.656874    82.751077    82.751077 
452000000    553.97439   -157482.15    -155190.8    189.14934    566012.85    82.594331    82.782402    82.782402 
453000000    548.65481   -157508.14    -155238.8   -33.855257    566012.85    82.532283    82.813514    82.813514 
454000000    548.13902   -157483.64   -155216.43    127.71248    566012.85    82.470974     82.84429     82.84429 
455000000    549.63226   -157495.16   -155221.77    162.29904    566012.85    82.410647    82.874607    82.874607 
456000000    552.49315   -157495.66   -155210.44    74.724011    566012.85     82.35154    82.904343    82.904343 
457000000    551.26175   -157474.66   -155194.53    245.27832    566012.85    82.293885    82.933379    82.933379 
458000000    547.48478   -157486.56   -155222.06    73.194602    566012.85    82.237911    82.961598    82.961598 
459000000    550.03371   -157485.93   -155210.88    69.977855    566012.85    82.183838    82.988886    82.988886 
460000000    550.26222   -157462.88   -155186.89     295.1547    566012.85    82.131879    83.015133    83.015133 
461000000    548.78738   -157502.09    -155232.2    100.43852    566012.85     82.08224     83.04023     83.04023 
462000000    549.32809   -157477.22   -155205.09     178.7288    566012.85    82.035117    83.064077    83.064077 
463000000    552.01262   -157492.33    -155209.1    80.130782    566012.85    81.990696    83.086575    83.086575 
464000000    548.78458   -157476.06   -155206.18    314.94128    566012.85    81.949151    83.107633    83.107633 
465000000    548.01145   -157475.85   -155209.17    266.23779    566012.85    81.910647    83.127164    83.127164 
466000000    553.29583   -157474.35   -155185.81    318.58596    566012.85    81.875336    83.145088    83.145088 
467000000    552.15292   -157493.45   -155209.64    141.23157    566012.85    81.843358     83.16133     83.16133 
468000000    553.77768   -157484.98   -155194.45    191.64338    566012.85    81.814837    83.175824    83.175824 
469000000    548.27313   -157463.11   -155195.35    284.60764    566012.85    81.789888    83.188509    83.188509 
470000000    548.92697   -157475.21   -155204.74    190.71417    566012.85    81.768608    83.199333    83.199333 
471000000     550.3776   -157473.65   -155197.18    209.64658    566012.85    81.751081    83.208251    83.208251 
472000000    547.98164   -157482.14   -155215.58    114.93197    566012.85    81.737377    83.215226    83.215226 
473000000    551.13234   -157481.37   -155201.78     227.2788    566012.85     81.72755    83.220229    83.220229 
474000000    547.59536   -157481.42   -155216.46    274.09675    566012.85    81.721638    83.223239    83.223239 
475000000    550.94894   -157462.67   -155183.84    527.34057    566012.85    81.719664    83.224244    83.224244 
476000000    548.21445   -157472.49   -155204.97     171.7187    566012.85    81.721638    83.223239    83.223239 
477000000     551.9265   -157478.87   -155195.99    286.34244    566012.85     81.72755    83.220229    83.220229 
478000000    552.43766   -157494.34   -155209.35    48.661352    566012.85    81.737377    83.215226    83.215226 
479000000    547.42561   -157476.49   -155212.23    267.21812    566012.85    81.751081    83.208251    83.208251 
480000000    548.41608   -157495.09   -155226.74    49.807884    566012.85    81.768608    83.199333    83.199333 
481000000    552.02644   -157493.57   -155210.28    100.59697    566012.85    81.789888    83.188509    83.188509 
482000000    549.74703    -157478.5   -155204.64    305.59917    566012.85    81.814837    83.175824    83.175824 
483000000     549.8876   -157486.86   -155212.42    253.76821    566012.85    81.843358     83.16133     83.16133 
484000000    549.78832   -157488.55   -155214.52    70.366886    566012.85    81.875336    83.145088    83.145088 
485000000    545.58477   -157485.83   -155229.18    7.2239323    566012.85    81.910647    83.127164    83.127164 
486000000    551.43821   -157494.85   -155213.99    182.15192    566012.85    81.949151    83.107633    83.107633 
487000000    552.04243   -157507.98   -155224.63    72.854914    566012.85    81.990696    83.086575    83.086575 
488000000    553.01952   -157469.54   -155182.14     342.5099    566012.85    82.035117    83.064077    83.064077 
489000000    550.20198   -157482.03   -155206.28    307.72367    566012.85     82.08224     83.04023     83.04023 
490000000    552.79031   -157498.96   -155212.51    119.50562    566012.85    82.131879    83.015133    83.015133 
491000000     551.0742   -157485.29   -155205.94    191.55981    566012.85    82.183838    82.988886    82.988886 
492000000    552.49165   -157486.09   -155200.87    179.07147    566012.85    82.237911    82.961598    82.961598 
493000000    550.52897   -157494.02   -155216.93    74.969749    566012.85    82.293885    82.933379    82.933379 
494000000    549.96182   -157489.63   -155214.88    173.94048    566012.85     82.35154    82.904343    82.904343 
495000000    547.54249   -157486.75   -155222.01    2.4459128    566012.85    82.410647    82.874607    82.874607 
496000000     548.9221   -157511.31   -155240.86   -25.193875    566012.85    82.470974     82.84429     82.84429 
497000000    553.83036    -157500.8   -155210.05    115.07563    566012.85    82.532283    82.813514    82.813514 
498000000    550.51468   -157487.34   -155210.31     109.2855    566012.85    82.594331    82.782402    82.782402 
499000000    550.69783   -157500.26   -155222.47   -11.270426    566012.85    82.656874    82.751077    82.751077 
500000000    545.70115    -157500.3   -155243.18    38.978567    566012.85    82.719664    82.719664    82.719664 
501000000    552.91947    -157491.1   -155204.12    97.332873    566012.85    82.782455    82.688287    82.688287 
502000000    548.96703   -157494.27   -155223.63    119.15149    566012.85    82.844998    82.657069    82.657069 
503000000    550.29137   -157484.02    -155207.9     35.19081    566012.85    82.907046    82.626133    82.626133 
504000000    552.94478   -157512.09      -155225    95.634444    566012.85    82.968354    82.595599    82.595599 
505000000    548.33226   -157523.98   -155255.98   -116.03153    566012.85    83.028681    82.565587    82.565587 
506000000      552.299   -157506.09   -155221.68    90.282095    566012.85    83.087789    82.536214    82.536214 
507000000    549.41481    -157497.5   -155225.01    84.933767    566012.85    83.145444    82.507593    82.507593 
508000000    551.59335   -157478.14   -155196.64    164.50044    566012.85    83.201418    82.479835    82.479835 
509000000    551.24785   -157490.51   -155210.44    119.08816    566012.85    83.255491    82.453046    82.453046 
510000000    550.84492   -157494.39   -155215.99   -60.466579    566012.85     83.30745    82.427329    82.427329 
511000000    544.94883    -157476.5   -155222.48    104.62827    566012.85    83.357088    82.402783    82.402783 
512000000     551.2386   -157494.03      -155214    52.635247    566012.85    83.404211    82.379501    82.379501 
513000000    550.83985    -157501.1   -155222.72   -24.076485    566012.85    83.448633    82.357571    82.357571 
514000000    548.95701   -157472.82   -155202.22    127.48105    566012.85    83.490178    82.337078    82.337078 
515000000    547.77967   -157486.02   -155220.29    121.19207    566012.85    83.528681    82.318099    82.318099 
516000000    544.67723   -157481.58   -155228.68    103.84304    566012.85    83.563992    82.300705    82.300705 
517000000    555.06704   -157496.49   -155200.63  -0.31692512    566012.85    83.595971    82.284962    82.284962 
518000000    549.43715   -157495.02   -155222.44    -6.364131    566012.85    83.624491    82.270929    82.270929 
519000000    549.04795   -157466.82   -155195.85    215.89136    566012.85    83.649441    82.258659    82.258659 
520000000     546.4828    -157482.9   -155222.54    1.8291036    566012.85    83.670721    82.248198    82.248198 
521000000    549.25405   -157492.56   -155220.74     45.94505    566012.85    83.688247    82.239585    82.239585 
522000000     551.1406   -157501.79   -155222.16   -60.185278    566012.85    83.701952    82.232852    82.232852 
523000000    554.43067    -157488.6   -155195.37    187.47702    566012.85    83.711779    82.228025    82.228025 
524000000    550.43592   -157487.31    -155210.6    39.717193    566012.85    83.717691    82.225122    82.225122 
525000000    551.08445   -157474.61   -155195.21    145.55847    566012.85    83.719664    82.224152    82.224152 
526000000    550.10509   -157494.16   -155218.81    72.971291    566012.85    83.717691    82.225122    82.225122 
527000000    551.63017   -157490.75    -155209.1    198.66669    566012.85    83.711779    82.228025    82.228025 
528000000    552.47844   -157490.79   -155205.63    70.282755    566012.85    83.701952    82.232852    82.232852 
529000000    552.56187   -157480.57   -155195.06    83.189746    566012.85    83.688247    82.239585    82.239585 
530000000    549.98195   -157486.53   -155211.69    244.41882    566012.85    83.670721    82.248198    82.248198 
531000000     553.1319    -157477.4   -155189.54    304.89674    566012.85    83.649441    82.258659    82.258659 
532000000    549.61039   -157498.65   -155225.35    106.19112    566012.85    83.624491    82.270929    82.270929 
533000000    548.77039   -157481.95   -155212.13    228.19485    566012.85    83.595971    82.284962    82.284962 
534000000    548.84329   -157488.45   -155218.33    144.13264    566012.85    83.563992    82.300705    82.300705 
535000000    546.03388   -157517.97   -155259.47   -118.73096    566012.85    83.528681    82.318099    82.318099 
536000000     552.3793   -157510.04   -155225.29   -30.206998    566012.85    83.490178    82.337078    82.337078 
537000000    547.79442   -157484.73   -155218.95    214.71748    566012.85    83.448633    82.357571    82.357571 
538000000    553.33447   -157513.83   -155225.13    38.452687    566012.85    83.404211    82.379501    82.379501 
539000000    549.55691    -157500.5   -155227.42    194.20516    566012.85    83.357088    82.402783    82.402783 
540000000    545.75323   -157503.66   -155246.32   -9.7645378    566012.85     83.30745    82.427329    82.427329 
541000000    552.62622   -157489.18   -155203.41    151.81148    566012.85    83.255491    82.453046    82.453046 
542000000    549.80928   -157509.68   -155235.57   -49.114262    566012.85    83.201418    82.479835    82.479835 
543000000    552.30373    -157501.4   -155216.97    99.002934    566012.85    83.145444    82.507593    82.507593 
544000000    554.12022   -157489.81   -155197.86    107.61092    566012.85    83.087789    82.536214    82.536214 
545000000    550.06733   -157491.63   -155216.44    291.34084    566012.85    83.028681    82.565587    82.565587 
546000000    552.77516   -157510.22   -155223.84     71.84584    566012.85    82.968354    82.595599    82.595599 
547000000    547.35152   -157497.74   -155233.79   -8.5798697    566012.85    82.907046    82.626133    82.626133 
548000000    551.18374    -157492.8   -155212.99    17.106695    566012.85    82.844998    82.657069    82.657069 
549000000     550.5407   -157514.91   -155237.76     94.81904    566012.85    82.782455    82.688287    82.688287 
550000000    551.24279   -157505.11   -155225.06    148.82861    566012.85    82.719664    82.719664    82.719664 
551000000    552.11205   -157495.81   -155212.16    156.91449    566012.85    82.656874    82.751077    82.751077 
552000000    551.41142   -157520.39   -155239.65    1.5133972    566012.85    82.594331    82.782402    82.782402 
553000000    553.97818   -157511.65   -155220.29    18.359603    566012.85    82.532283    82.813514    82.813514 
554000000    547.40207   -157498.94   -155234.78    43.263601    566012.85    82.470974     82.84429     82.84429 
555000000    552.14536   -157489.46   -155205.68    167.35114    566012.85    82.410647    82.874607    82.874607 
556000000    551.17167   -157503.15    -155223.4    50.915768    566012.85     82.35154    82.904343    82.904343 
557000000    553.62561   -157479.43   -155189.52    151.27724    566012.85    82.293885    82.933379    82.933379 
558000000     551.7476   -157482.09   -155199.96    272.58511    566012.85    82.237911    82.961598    82.961598 
559000000    548.30945    -157497.3   -155229.38    144.87123    566012.85    82.183838    82.988886    82.988886 
560000000    546.54546   -157489.37   -155228.75     60.26895    566012.85    82.131879    83.015133    83.015133 
561000000    543.99483   -157484.17   -155234.11    23.905238    566012.85     82.08224     83.04023     83.04023 
562000000    554.45999   -157503.21   -155209.86    -49.94333    566012.85    82.035117    83.064077    83.064077 
563000000    553.25666    -157473.8   -155185.43    172.85477    566012.85    81.990696    83.086575    83.086575 
564000000    545.04285   -157473.67   -155219.27    201.96382    566012.85    81.949151    83.107633    83.107633 
565000000    549.81869   -157494.83   -155220.67   -23.815573    566012.85    81.910647    83.127164    83.127164 
566000000    556.86475   -157486.77   -155183.47    145.74801    566012.85    81.875336    83.145088    83.145088 
567000000    548.24412   -157480.71   -155213.06    93.244956    566012.85    81.843358     83.16133     83.16133 
568000000       545.99   -157491.55   -155233.23    99.253342    566012.85    81.814837    83.175824    83.175824 
569000000    552.13806   -157473.88   -155190.13    203.62319    566012.85    81.789888    83.188509    83.188509 
570000000      553.717   -157472.16   -155181.88    193.82533    566012.85    81.768608    83.199333    83.199333 
571000000    546.14548   -157462.25   -155203.29    242.29561    566012.85    81.751081    83.208251    83.208251 
572000000    547.83136   -157490.36   -155224.42   -51.868554    566012.85    81.737377    83.215226    83.215226 
573000000    551.30516   -157492.07   -155211.77    -140.5562    566012.85     81.72755    83.220229    83.220229 
574000000    546.13586   -157474.86   -155215.94    165.59349    566012.85    81.721638    83.223239    83.223239 
575000000    551.42652   -157475.03   -155194.22    76.010269    566012.85    81.719664    83.224244    83.224244 
576000000    547.31084    -157467.3   -155203.51    108.44225    566012.85    81.721638    83.223239    83.223239 
577000000    553.10219      -157480   -155192.26    240.30187    566012.85     81.72755    83.220229    83.220229 
578000000    548.39826   -157483.47   -155215.19    179.66364    566012.85    81.737377    83.215226    83.215226 
579000000    548.74862   -157460.46   -155190.73    293.79941    566012.85    81.751081    83.208251    83.208251 
580000000    546.74428   -157461.33   -155199.89    367.48681    566012.85    81.768608    83.199333    83.199333 
581000000    549.97374   -157508.19   -155233.39    1.7321414    566012.85    81.789888    83.188509    83.188509 
582000000    548.68463    -157463.2   -155193.73     249.9673    566012.85    81.814837    83.175824    83.175824 
583000000    551.78621   -157460.62   -155178.33    259.84486    566012.85    81.843358     83.16133     83.16133 
584000000    551.30869   -157494.79   -155214.47    211.45505    566012.85    81.875336    83.145088    83.145088 
585000000    551.12023   -157479.26   -155199.72    149.11896    566012.85    81.910647    83.127164    83.127164 
586000000    550.19484    -157478.6   -155202.89    143.09741    566012.85    81.949151    83.107633    83.107633 
587000000    549.31977   -157476.65   -155204.55     164.8342    566012.85    81.990696    83.086575    83.086575 
588000000    546.99133   -157494.15   -155231.69    160.05614    566012.85    82.035117    83.064077    83.064077 
589000000    545.08876   -157496.25   -155241.65    64.308585    566012.85     82.08224     83.04023     83.04023 
590000000    553.56565   -157507.67   -155218.02   -50.230586    566012.85    82.131879    83.015133    83.015133 
591000000    549.28143   -157499.08   -155227.15    71.072918    566012.85    82.183838    82.988886    82.988886 
592000000    549.56511   -157497.45   -155224.34    21.425425    566012.85    82.237911    82.961598    82.961598 
593000000    550.53679   -157495.12   -155217.99     34.76154    566012.85    82.293885    82.933379    82.933379 
594000000    550.23003   -157499.09   -155223.23    20.173619    566012.85     82.35154    82.904343    82.904343 
595000000    549.71664    -157518.8   -155245.06   -65.951213    566012.85    82.410647    82.874607    82.874607 
596000000    549.66398    -157499.5   -155225.99    40.206496    566012.85    82.470974     82.84429     82.84429 
597000000    548.22144   -157486.68   -155219.13   -9.7297015    566012.85    82.532283    82.813514    82.813514 
598000000    555.09152   -157504.99   -155209.03    21.035108    566012.85    82.594331    82.782402    82.782402 
599000000     551.3267   -157503.91   -155223.52     63.09853    566012.85    82.656874    82.751077    82.751077 
600000000    546.39445   -157503.74   -155243.74   -9.8693668    566012.85    82.719664    82.719664    82.719664 
601000000    548.65731    -157509.1   -155239.75   -133.05892    566012.85    82.782455    82.688287    82.688287 
602000000    548.35414   -157526.43   -155258.33    -146.0666    566012.85    82.844998    82.657069    82.657069 
603000000    552.15869   -157514.41   -155230.57   -128.65427    566012.85    82.907046    82.626133    82.626133 
604000000    554.52424   -157509.83   -155216.21    81.547381    566012.85    82.968354    82.595599    82.595599 
605000000    545.60468    -157502.1   -155245.37    58.384654    566012.85    83.028681    82.565587    82.565587 
606000000    551.12592   -157507.19   -155227.62    50.684266    566012.85    83.087789    82.536214    82.536214 
607000000    552.29632   -157499.22   -155214.81    140.78541    566012.85    83.145444    82.507593    82.507593 
608000000    544.53452   -157483.43   -155231.13    132.96961    566012.85    83.201418    82.479835    82.479835 
609000000    551.93606   -157507.64   -155224.72   -4.1281389    566012.85    83.255491    82.453046    82.453046 
610000000    548.86449   -157492.71    -155222.5    73.708285    566012.85     83.30745    82.427329    82.427329 
611000000    549.37964   -157499.62   -155227.28    72.025564    566012.85    83.357088    82.402783    82.402783 
612000000    551.17203   -157497.46   -155217.71    80.367156    566012.85    83.404211    82.379501    82.379501 
613000000    547.55159   -157500.57   -155235.79    11.575815    566012.85    83.448633    82.357571    82.357571 
614000000    549.75734   -157493.84   -155219.94    80.707022    566012.85    83.490178    82.337078    82.337078 
615000000    550.91128   -157503.89   -155225.21    43.784185    566012.85    83.528681    82.318099    82.318099 
616000000    551.48246   -157510.67   -155229.63    2.3608198    566012.85    83.563992    82.300705    82.300705 
617000000    553.06495   -157490.77   -155203.18     83.27087    566012.85    83.595971    82.284962    82.284962 
618000000    556.51098   -157490.75   -155188.91    78.649184    566012.85    83.624491    82.270929    82.270929 
619000000    548.39224    -157505.6   -155237.34   -94.420628    566012.85    83.649441    82.258659    82.258659 
620000000    549.19945   -157489.57   -155217.97    95.101615    566012.85    83.670721    82.248198    82.248198 
621000000    551.60553   -157505.83   -155224.28   -139.93078    566012.85    83.688247    82.239585    82.239585 
622000000    549.61504   -157471.64   -155198.33    328.38738    566012.85    83.701952    82.232852    82.232852 
623000000    547.27075   -157497.77   -155234.15    99.029481    566012.85    83.711779    82.228025    82.228025 
624000000    550.64375   -157472.93   -155195.36    133.86592    566012.85    83.717691    82.225122    82.225122 
625000000    548.87096    -157493.8   -155223.57    108.57317    566012.85    83.719664    82.224152    82.224152 
626000000    550.42991   -157478.25   -155201.56    169.23467    566012.85    83.717691    82.225122    82.225122 
627000000    550.76999   -157480.51   -155202.42    186.04936    566012.85    83.711779    82.228025    82.228025 
628000000     548.2603   -157473.14   -155205.43    158.25379    566012.85    83.701952    82.232852    82.232852 
629000000    551.34156   -157502.48   -155222.02    15.354356    566012.85    83.688247    82.239585    82.239585 
630000000    549.23495   -157498.36   -155226.62    7.3629711    566012.85    83.670721    82.248198    82.248198 
631000000    550.14865   -157508.64   -155233.12   -22.854385    566012.85    83.649441    82.258659    82.258659 
632000000    551.66612   -157502.69   -155220.89   -17.048726    566012.85    83.624491    82.270929    82.270929 
633000000    551.82223   -157489.98   -155207.53    150.96127    566012.85    83.595971    82.284962    82.284962 
634000000    552.09009    -157487.6   -155204.05     174.6391    566012.85    83.563992    82.300705    82.300705 
635000000     551.8685   -157482.04    -155199.4    125.00819    566012.85    83.528681    82.318099    82.318099 
636000000    547.91741   -157497.34   -155231.05    91.087559    566012.85    83.490178    82.337078    82.337078 
637000000     548.8051   -157484.44   -155214.47    90.857888    566012.85    83.448633    82.357571    82.357571 
638000000    548.86117    -157512.8    -155242.6   -183.37773    566012.85    83.404211    82.379501    82.379501 
639000000    554.18614   -157491.45   -155199.23    151.05149    566012.85    83.357088    82.402783    82.402783 
640000000    545.38067   -157502.41   -155246.61    69.336203    566012.85     83.30745    82.427329    82.427329 
641000000    551.79722   -157493.76   -155211.42    -4.240001    566012.85    83.255491    82.453046    82.453046 
642000000    547.95011    -157495.6   -155229.17    135.68855    566012.85    83.201418    82.479835    82.479835 
643000000     549.8602   -157476.66   -155202.33    157.60116    566012.85    83.145444    82.507593    82.507593 
644000000     552.5413   -157502.01   -155216.59    46.797026    566012.85    83.087789    82.536214    82.536214 
645000000    544.74253   -157510.63   -155257.47    61.801835    566012.85    83.028681    82.565587    82.565587 
646000000    543.30484   -157499.57   -155252.35    73.783184    566012.85    82.968354    82.595599    82.595599 
647000000     541.7793   -157502.67   -155261.76   -36.960606    566012.85    82.907046    82.626133    82.626133 
648000000    550.07941   -157499.65   -155224.42    12.458768    566012.85    82.844998    82.657069    82.657069 
649000000    549.21931    -157499.4   -155227.72   -2.7300952    566012.85    82.782455    82.688287    82.688287 
650000000    552.77665   -157498.44   -155212.05    111.12037    566012.85    82.719664    82.719664    82.719664 
651000000    550.22982   -157508.09   -155232.23     41.45566    566012.85    82.656874    82.751077    82.751077 
652000000     551.4607   -157482.97   -155202.02    189.56595    566012.85    82.594331    82.782402    82.782402 
653000000    549.42453   -157505.91   -155233.38    -39.97422    566012.85    82.532283    82.813514    82.813514 
654000000    550.05655   -157489.91   -155214.77    22.399063    566012.85    82.470974     82.84429     82.84429 
655000000     554.1139   -157504.03   -155212.11    33.053881    566012.85    82.410647    82.874607    82.874607 
656000000    551.74508   -157483.06   -155200.94     143.4052    566012.85     82.35154    82.904343    82.904343 
657000000    552.90196    -157487.6   -155200.69    261.23018    566012.85    82.293885    82.933379    82.933379 
658000000    550.78123   -157496.93   -155218.79    14.272605    566012.85    82.237911    82.961598    82.961598 
659000000    547.84029   -157500.71   -155234.73   -92.288915    566012.85    82.183838    82.988886    82.988886 
660000000     547.8848    -157506.1   -155239.95    90.259665    566012.85    82.131879    83.015133    83.015133 
661000000     547.2657   -157516.75   -155253.16   -138.93992    566012.85     82.08224     83.04023     83.04023 
662000000    552.01003    -157486.9   -155203.68    359.16365    566012.85    82.035117    83.064077    83.064077 
663000000    547.44153    -157480.4   -155216.07    114.10146    566012.85    81.990696    83.086575    83.086575 
664000000    544.51183   -157484.71    -155232.5    165.36596    566012.85    81.949151    83.107633    83.107633 
665000000    549.10329   -157486.76   -155215.56    158.16823    566012.85    81.910647    83.127164    83.127164 
666000000    549.70714   -157491.39   -155217.69    152.95476    566012.85    81.875336    83.145088    83.145088 
667000000    549.96164   -157491.65    -155216.9    207.38045    566012.85    81.843358     83.16133     83.16133 
668000000    549.50345    -157492.9   -155220.05    26.420246    566012.85    81.814837    83.175824    83.175824 
669000000     547.1115   -157477.47   -155214.51    179.21268    566012.85    81.789888    83.188509    83.188509 
670000000    550.24559   -157476.83    -155200.9      256.041    566012.85    81.768608    83.199333    83.199333 
671000000    550.38952   -157483.28   -155206.76    211.02063    566012.85    81.751081    83.208251    83.208251 
672000000    547.23792   -157486.25   -155222.77    120.52035    566012.85    81.737377    83.215226    83.215226 
673000000    545.75812   -157492.74   -155235.38   -11.320912    566012.85     81.72755    83.220229    83.220229 
674000000    548.28871   -157470.25   -155202.42    312.67866    566012.85    81.721638    83.223239    83.223239 
675000000    548.51682   -157478.07   -155209.29    117.92965    566012.85    81.719664    83.224244    83.224244 
676000000    547.51982   -157473.18   -155208.53     291.6964    566012.85    81.721638    83.223239    83.223239 
677000000    552.85719    -157496.3   -155209.57    66.912019    566012.85     81.72755    83.220229    83.220229 
[...]
838000000    547.97872   -157500.82   -155234.27    -55.14774    566012.85    83.404211    82.379501    82.379501 
839000000    549.02439   -157467.48   -155196.61    189.23721    566012.85    83.357088    82.402783    82.402783 
840000000    552.38618   -157479.49   -155194.71    165.35287    566012.85     83.30745    82.427329    82.427329 
841000000    551.03927   -157493.64   -155214.43    102.78909    566012.85    83.255491    82.453046    82.453046 
842000000    550.40256   -157501.53   -155224.96    59.944668    566012.85    83.201418    82.479835    82.479835 
843000000    548.59504   -157507.07   -155237.97    27.158909    566012.85    83.145444    82.507593    82.507593 
844000000    551.10114   -157499.46      -155220   -28.117612    566012.85    83.087789    82.536214    82.536214 
845000000    550.35129   -157499.53   -155223.17   -10.980704    566012.85    83.028681    82.565587    82.565587 
846000000    547.74487    -157496.9   -155231.32    55.749796    566012.85    82.968354    82.595599    82.595599 
847000000    555.15796    -157503.5   -155207.26    115.10165    566012.85    82.907046    82.626133    82.626133 
848000000    551.09019   -157520.05   -155240.64   -77.619401    566012.85    82.844998    82.657069    82.657069 
849000000    555.93932   -157499.78    -155200.3    81.997465    566012.85    82.782455    82.688287    82.688287 
850000000    548.21299   -157511.42    -155243.9   -121.01775    566012.85    82.719664    82.719664    82.719664 
851000000    550.10267    -157500.7   -155225.36   -50.870214    566012.85    82.656874    82.751077    82.751077 
852000000    547.30508   -157500.98   -155237.22   -59.494884    566012.85    82.594331    82.782402    82.782402 
853000000    548.72254   -157510.27   -155240.65   -16.628675    566012.85    82.532283    82.813514    82.813514 
854000000    550.98202   -157504.12   -155225.15     87.44523    566012.85    82.470974     82.84429     82.84429 
855000000    553.85523   -157483.55   -155192.69    165.11719    566012.85    82.410647    82.874607    82.874607 
856000000    552.04749   -157487.64   -155204.27    203.28403    566012.85     82.35154    82.904343    82.904343 
857000000    552.73625   -157490.34   -155204.12    14.189806    566012.85    82.293885    82.933379    82.933379 
858000000    549.02363   -157490.76   -155219.89    12.474595    566012.85    82.237911    82.961598    82.961598 
859000000    551.94347   -157486.69   -155203.75     59.51157    566012.85    82.183838    82.988886    82.988886 
860000000    550.14232   -157491.85   -155216.36    70.827068    566012.85    82.131879    83.015133    83.015133 
861000000    549.31929   -157510.63   -155238.53   -81.887783    566012.85     82.08224     83.04023     83.04023 
862000000    553.79733   -157505.65   -155215.04    53.353558    566012.85    82.035117    83.064077    83.064077 
863000000    545.89856    -157494.6   -155236.66   -61.231332    566012.85    81.990696    83.086575    83.086575 
864000000    552.47024   -157498.64   -155213.51   -20.588811    566012.85    81.949151    83.107633    83.107633 
865000000    549.97315   -157475.01   -155200.22    269.87127    566012.85    81.910647    83.127164    83.127164 
866000000     548.0607   -157471.06   -155204.18    196.67699    566012.85    81.875336    83.145088    83.145088 
867000000    551.70108   -157491.13   -155209.19   -56.866875    566012.85    81.843358     83.16133     83.16133 
868000000    553.14509   -157489.06   -155201.14    122.77162    566012.85    81.814837    83.175824    83.175824 
869000000    544.77524   -157488.14   -155234.85    1.2341415    566012.85    81.789888    83.188509    83.188509 
870000000    549.84913   -157497.24   -155222.95      60.7764    566012.85    81.768608    83.199333    83.199333 
871000000    552.94844   -157477.35   -155190.24    124.67435    566012.85    81.751081    83.208251    83.208251 
872000000    547.77743   -157475.08   -155209.37    132.60491    566012.85    81.737377    83.215226    83.215226 
873000000    548.79298   -157470.47   -155200.56      135.411    566012.85     81.72755    83.220229    83.220229 
874000000    551.92655   -157511.38   -155228.51   -129.25747    566012.85    81.721638    83.223239    83.223239 
875000000    552.42451   -157481.18   -155196.24     98.51419    566012.85    81.719664    83.224244    83.224244 
876000000    551.87496   -157464.23   -155181.56     118.2213    566012.85    81.721638    83.223239    83.223239 
877000000    548.42021   -157476.09   -155207.72    303.60367    566012.85     81.72755    83.220229    83.220229 
878000000    551.84188   -157479.68   -155197.16    17.778032    566012.85    81.737377    83.215226    83.215226 
879000000    545.57771   -157489.21    -155232.6     5.679673    566012.85    81.751081    83.208251    83.208251 
880000000    544.99264   -157494.03   -155239.84    102.67837    566012.85    81.768608    83.199333    83.199333 
881000000    547.34881   -157497.32   -155233.38   -147.05258    566012.85    81.789888    83.188509    83.188509 
882000000    549.40663   -157503.72   -155231.27   -11.326854    566012.85    81.814837    83.175824    83.175824 
883000000    548.02034   -157483.89   -155217.17   -86.480855    566012.85    81.843358     83.16133     83.16133 
884000000    551.63409   -157495.98   -155214.32    -81.93651    566012.85    81.875336    83.145088    83.145088 
885000000    548.20543   -157502.86   -155235.38   -108.53314    566012.85    81.910647    83.127164    83.127164 
886000000    555.52172   -157477.57   -155179.83    191.78846    566012.85    81.949151    83.107633    83.107633 
887000000    547.02551   -157501.37   -155238.77   -56.588972    566012.85    81.990696    83.086575    83.086575 
888000000    553.45222   -157514.43   -155225.24    22.119429    566012.85    82.035117    83.064077    83.064077 
889000000    550.25977   -157507.28    -155231.3    33.274279    566012.85     82.08224     83.04023     83.04023 
890000000    546.23899   -157507.21   -155247.85   -15.979331    566012.85    82.131879    83.015133    83.015133 
891000000    549.19108   -157494.51   -155222.94    166.48476    566012.85    82.183838    82.988886    82.988886 
892000000    549.66752   -157495.92   -155222.39   -63.693675    566012.85    82.237911    82.961598    82.961598 
893000000    550.07172   -157496.69   -155221.48   -52.614842    566012.85    82.293885    82.933379    82.933379 
894000000    550.83309   -157513.41   -155235.06   -108.20727    566012.85     82.35154    82.904343    82.904343 
895000000    546.25295   -157509.81    -155250.4   -9.4783505    566012.85    82.410647    82.874607    82.874607 
896000000    551.24902   -157493.17    -155213.1    94.480148    566012.85    82.470974     82.84429     82.84429 
897000000    551.95068   -157487.28   -155204.31    69.848103    566012.85    82.532283    82.813514    82.813514 
898000000    550.68091   -157505.74   -155228.02   -106.71369    566012.85    82.594331    82.782402    82.782402 
899000000    552.02048   -157519.35   -155236.09   -191.50187    566012.85    82.656874    82.751077    82.751077 
900000000    548.67219   -157497.23   -155227.81    78.042904    566012.85    82.719664    82.719664    82.719664 
901000000     547.6061   -157503.68   -155238.68   -17.257423    566012.85    82.782455    82.688287    82.688287 
902000000    549.31977   -157502.27   -155230.18   -65.011192    566012.85    82.844998    82.657069    82.657069 
903000000    551.92994   -157505.76   -155222.87   -31.677924    566012.85    82.907046    82.626133    82.626133 
904000000    547.48552   -157510.02   -155245.51   -100.31396    566012.85    82.968354    82.595599    82.595599 
905000000    547.74691   -157520.35   -155254.76   -152.10714    566012.85    83.028681    82.565587    82.565587 
906000000    546.81523    -157509.6   -155247.87   -75.347193    566012.85    83.087789    82.536214    82.536214 
907000000    552.14028   -157505.03   -155221.27    -149.3041    566012.85    83.145444    82.507593    82.507593 
908000000    553.13411   -157504.76   -155216.89   -2.1266255    566012.85    83.201418    82.479835    82.479835 
909000000     545.8574   -157505.33   -155247.56   -16.380316    566012.85    83.255491    82.453046    82.453046 
910000000    549.90426   -157484.76   -155210.25      65.1092    566012.85     83.30745    82.427329    82.427329 
911000000    547.93616   -157497.68   -155231.31    -67.14726    566012.85    83.357088    82.402783    82.402783 
912000000    546.70445    -157488.7   -155227.42    28.773861    566012.85    83.404211    82.379501    82.379501 
913000000    555.05404   -157473.64   -155177.82    187.88811    566012.85    83.448633    82.357571    82.357571 
914000000    552.60771   -157459.41   -155173.71    317.33359    566012.85    83.490178    82.337078    82.337078 
915000000    553.73671    -157498.8   -155208.43   -67.707973    566012.85    83.528681    82.318099    82.318099 
916000000    552.10357   -157490.33   -155206.72    103.72619    566012.85    83.563992    82.300705    82.300705 
917000000    552.47413   -157498.98   -155213.83    24.428538    566012.85    83.595971    82.284962    82.284962 
918000000    551.61478   -157488.82   -155207.23    137.53354    566012.85    83.624491    82.270929    82.270929 
919000000    546.01814   -157486.51   -155228.07    144.76465    566012.85    83.649441    82.258659    82.258659 
920000000    549.17911   -157484.39   -155212.88    102.97474    566012.85    83.670721    82.248198    82.248198 
921000000    545.82227   -157498.83    -155241.2   -76.304723    566012.85    83.688247    82.239585    82.239585 
922000000    552.46873   -157478.98   -155193.86    184.81409    566012.85    83.701952    82.232852    82.232852 
923000000    547.58902   -157481.14    -155216.2   -46.183474    566012.85    83.711779    82.228025    82.228025 
924000000     554.4174   -157460.96   -155167.78    93.127621    566012.85    83.717691    82.225122    82.225122 
925000000    553.76099   -157479.99   -155189.52    162.57986    566012.85    83.719664    82.224152    82.224152 
926000000    553.59803   -157477.36   -155187.57    231.91721    566012.85    83.717691    82.225122    82.225122 
927000000    547.82004   -157508.92   -155243.03   -100.17105    566012.85    83.711779    82.228025    82.228025 
928000000    547.22842    -157485.1   -155221.66     40.79388    566012.85    83.701952    82.232852    82.232852 
929000000    554.97527   -157509.51   -155214.02   -34.710966    566012.85    83.688247    82.239585    82.239585 
930000000    546.20754   -157499.13   -155239.91   -116.86053    566012.85    83.670721    82.248198    82.248198 
931000000    549.78333   -157471.21    -155197.2      126.067    566012.85    83.649441    82.258659    82.258659 
932000000    552.49985   -157477.21   -155191.96    138.09626    566012.85    83.624491    82.270929    82.270929 
933000000    547.41336   -157502.54   -155238.33    58.421366    566012.85    83.595971    82.284962    82.284962 
934000000    544.30592   -157482.86    -155231.5    50.625903    566012.85    83.563992    82.300705    82.300705 
935000000    553.39765   -157501.45   -155212.49   -89.196991    566012.85    83.528681    82.318099    82.318099 
936000000    547.76062   -157501.89   -155236.25    -49.14716    566012.85    83.490178    82.337078    82.337078 
937000000    551.33082   -157485.16   -155204.75    130.49043    566012.85    83.448633    82.357571    82.357571 
938000000    546.95083   -157496.41   -155234.11   -67.254735    566012.85    83.404211    82.379501    82.379501 
939000000    551.92382   -157514.57   -155231.71   -137.76818    566012.85    83.357088    82.402783    82.402783 
940000000    551.48128   -157500.09   -155219.05    -57.97569    566012.85     83.30745    82.427329    82.427329 
941000000    548.98835   -157492.12    -155221.4    167.37978    566012.85    83.255491    82.453046    82.453046 
942000000    548.57389   -157504.95   -155235.95   -33.595991    566012.85    83.201418    82.479835    82.479835 
943000000    544.74088   -157493.65   -155240.49    26.621183    566012.85    83.145444    82.507593    82.507593 
944000000    550.77051   -157484.98   -155206.89    110.80278    566012.85    83.087789    82.536214    82.536214 
945000000    552.16609   -157511.85   -155227.98   -38.318874    566012.85    83.028681    82.565587    82.565587 
946000000    552.55083   -157514.45   -155228.99    -183.8928    566012.85    82.968354    82.595599    82.595599 
947000000    551.22476   -157498.83   -155218.86    96.547131    566012.85    82.907046    82.626133    82.626133 
948000000    552.81995   -157503.09   -155216.52   -130.53994    566012.85    82.844998    82.657069    82.657069 
949000000    550.26956   -157505.11   -155229.09   -137.68436    566012.85    82.782455    82.688287    82.688287 
950000000    551.49632   -157515.63   -155234.53   -220.93191    566012.85    82.719664    82.719664    82.719664 
951000000    552.61285    -157506.9   -155221.18    28.441829    566012.85    82.656874    82.751077    82.751077 
952000000    550.68438   -157506.02   -155228.28   -91.891498    566012.85    82.594331    82.782402    82.782402 
953000000    549.28807   -157512.79   -155240.82    -94.12046    566012.85    82.532283    82.813514    82.813514 
954000000    548.34921   -157506.43   -155238.35   -90.351021    566012.85    82.470974     82.84429     82.84429 
955000000    548.19247   -157495.01   -155227.58   -115.23929    566012.85    82.410647    82.874607    82.874607 
956000000    550.00422   -157507.77   -155232.84   -69.322626    566012.85     82.35154    82.904343    82.904343 
957000000    549.59585   -157485.64    -155212.4    114.73299    566012.85    82.293885    82.933379    82.933379 
958000000    552.73745   -157495.88   -155209.65    44.850671    566012.85    82.237911    82.961598    82.961598 
959000000    547.25384   -157520.39   -155256.84   -242.45256    566012.85    82.183838    82.988886    82.988886 
960000000    551.71003   -157497.71   -155215.73   -24.396147    566012.85    82.131879    83.015133    83.015133 
961000000    549.58133   -157503.14   -155229.96    65.270537    566012.85     82.08224     83.04023     83.04023 
962000000    548.51566   -157512.16   -155243.39   -112.56669    566012.85    82.035117    83.064077    83.064077 
963000000    553.15914   -157495.05   -155207.08   -10.538787    566012.85    81.990696    83.086575    83.086575 
964000000    548.70585   -157486.05    -155216.5    59.067865    566012.85    81.949151    83.107633    83.107633 
965000000    549.47315   -157469.98   -155197.25    149.80706    566012.85    81.910647    83.127164    83.127164 
966000000    555.86808   -157487.68    -155188.5    92.159034    566012.85    81.875336    83.145088    83.145088 
967000000    551.26529   -157483.72   -155203.58    170.74559    566012.85    81.843358     83.16133     83.16133 
968000000     552.2953   -157504.16   -155219.76   -56.194592    566012.85    81.814837    83.175824    83.175824 
969000000    550.23089   -157502.76    -155226.9   -22.782111    566012.85    81.789888    83.188509    83.188509 
970000000    546.22945   -157481.94   -155222.63    1.1599556    566012.85    81.768608    83.199333    83.199333 
971000000    549.39468   -157493.31   -155220.91   -126.90188    566012.85    81.751081    83.208251    83.208251 
972000000    548.86654   -157483.27   -155213.05   -9.8835551    566012.85    81.737377    83.215226    83.215226 
973000000    551.48996   -157491.29   -155210.22   0.68379862    566012.85     81.72755    83.220229    83.220229 
974000000    552.05376   -157488.88   -155205.48    97.931025    566012.85    81.721638    83.223239    83.223239 
975000000    546.98599   -157487.62   -155225.18    34.542418    566012.85    81.719664    83.224244    83.224244 
976000000    551.67219   -157509.27   -155227.44   -181.17735    566012.85    81.721638    83.223239    83.223239 
977000000    551.50289   -157487.47   -155206.35    105.91346    566012.85     81.72755    83.220229    83.220229 
978000000     548.2609   -157486.39   -155218.67     65.41525    566012.85    81.737377    83.215226    83.215226 
979000000    555.45414   -157485.88   -155188.41    76.925868    566012.85    81.751081    83.208251    83.208251 
980000000    547.83255   -157476.64    -155210.7    26.615588    566012.85    81.768608    83.199333    83.199333 
981000000    551.53917   -157480.19   -155198.92    107.32236    566012.85    81.789888    83.188509    83.188509 
982000000    547.21934   -157495.57   -155232.16   -38.081041    566012.85    81.814837    83.175824    83.175824 
983000000    550.59789   -157494.35   -155216.97    97.883189    566012.85    81.843358     83.16133     83.16133 
984000000    546.68264   -157492.04   -155230.86    19.038472    566012.85    81.875336    83.145088    83.145088 
985000000    556.45285   -157498.75   -155197.16    191.33678    566012.85    81.910647    83.127164    83.127164 
986000000    548.34166   -157501.88   -155233.83   -45.784729    566012.85    81.949151    83.107633    83.107633 
987000000    544.12469   -157482.79   -155232.18    130.40297    566012.85    81.990696    83.086575    83.086575 
988000000    554.17933    -157515.7    -155223.5   -96.076452    566012.85    82.035117    83.064077    83.064077 
989000000    546.56666    -157504.7   -155243.99   -104.38949    566012.85     82.08224     83.04023     83.04023 
990000000    543.58057    -157528.4   -155280.04   -163.54088    566012.85    82.131879    83.015133    83.015133 
991000000    552.30801   -157496.63   -155212.18    10.602642    566012.85    82.183838    82.988886    82.988886 
992000000    547.94574   -157525.63   -155259.22   -107.96592    566012.85    82.237911    82.961598    82.961598 
993000000    550.63327   -157492.33    -155214.8    36.401817    566012.85    82.293885    82.933379    82.933379 
994000000    548.91853   -157511.51   -155241.08   -173.58243    566012.85     82.35154    82.904343    82.904343 
995000000    548.04317   -157519.41   -155252.59   -135.85413    566012.85    82.410647    82.874607    82.874607 
996000000    549.26055   -157527.41   -155255.56   -225.19636    566012.85    82.470974     82.84429     82.84429 
997000000    548.69044   -157502.27   -155232.78   -120.24862    566012.85    82.532283    82.813514    82.813514 
998000000     547.2351   -157509.66   -155246.19   -11.907335    566012.85    82.594331    82.782402    82.782402 
999000000    549.76363   -157510.04   -155236.11   -229.38089    566012.85    82.656874    82.751077    82.751077 
1000000000    551.07804    -157514.2   -155234.84   -103.53626    566012.85    82.719664    82.719664    82.719664 
Loop time of 584822 on 104 procs for 1000000000 steps with 32000 atoms

Performance: 1477.371 ns/day, 0.016 hours/ns, 1709.921 timesteps/s
99.5% CPU use with 104 MPI tasks x 1 OpenMP threads

MPI task timing breakdown:
Section |  min time  |  avg time  |  max time  |%varavg| %total
---------------------------------------------------------------
Pair    | 3.4422e+05 | 3.5246e+05 | 3.666e+05  | 729.2 | 60.27
Neigh   | 20651      | 22018      | 23134      | 426.0 |  3.76
Comm    | 1.0647e+05 | 1.1996e+05 | 1.3414e+05 |1566.4 | 20.51
Output  | 1.1649     | 1.1835     | 1.2297     |   0.7 |  0.00
Modify  | 74760      | 80387      | 85786      |1043.1 | 13.75
Other   |            | 9996       |            |       |  1.71

Nlocal:        307.692 ave         318 max         293 min
Histogram: 1 3 7 6 16 16 28 9 9 9
Nghost:        2595.78 ave        2628 max        2564 min
Histogram: 3 7 8 19 16 17 16 9 4 5
Neighs:        22431.4 ave       24316 max       20106 min
Histogram: 1 2 6 15 20 15 21 13 7 4

Total # of neighbors = 2332868
Ave neighs/atom = 72.902125
Neighbor list builds = 92769568
Dangerous builds = 0
#clear
#jump dms560.lmp
Total wall time: 162:27:05
