units           metal
boundary        p p p
atom_style      atomic
read_data      ../../restart/T${T}.dat
read_data      ../../restart/T620.dat
Reading data file ...
  orthogonal box = (-2.4726667 -2.4726667 -2.4726667) to (80.307444 80.307444 80.307444)
  2 by 4 by 13 MPI processor grid
  reading atoms ...
  32000 atoms
  reading velocities ...
  32000 velocities
  read_data CPU = 0.210 seconds
pair_style      eam/alloy
pair_coeff      * *  ../../ZrCu.lammps.eam Zr Cu
mass 1 91.224
mass 2 63.546
neighbor            2.0 bin
neigh_modify     delay 1
timestep 0.01
thermo 1000000
reset_timestep 0
thermo_style custom step temp pe etotal press vol lx ly lz
fix             1 all nvt temp ${T} ${T} 0.1
fix             1 all nvt temp 620 ${T} 0.1
fix             1 all nvt temp 620 620 0.1
thermo_modify flush yes
fix nodrift all momentum 1  linear 1 1 1
fix com_seed all recenter INIT INIT INIT shift all
fix dsf all deform 1 x  wiggle 1.0  1000000.0 y volume z volume units box
fix ps1 all ave/time 1 1 1000000 c_thermo_press[1] c_thermo_press[2]  c_thermo_press[3] c_thermo_press[4]  c_thermo_press[5] c_thermo_press[6]  file  stress.${T}
fix ps1 all ave/time 1 1 1000000 c_thermo_press[1] c_thermo_press[2]  c_thermo_press[3] c_thermo_press[4]  c_thermo_press[5] c_thermo_press[6]  file  stress.620
dump            1 all custom 100000000 dump.${T} id type x y z
dump            1 all custom 100000000 dump.620 id type x y z
dump_modify 1 sort id
run 1000000000
Neighbor list info ...
  update every 1 steps, delay 1 steps, check yes
  max neighbors/atom: 2000, page size: 100000
  master list distance cutoff = 8.5
  ghost atom cutoff = 8.5
  binsize = 4.25, bins = 20 20 20
  1 neighbor lists, perpetual/occasional/extra = 1 0 0
  (1) pair eam/alloy/intel, perpetual
      attributes: half, newton on, intel
      pair build: half/bin/newton/intel
      stencil: half/bin/3d/newton
      bin: intel
Per MPI rank memory allocation (min/avg/max) = 7.344 | 7.468 | 7.613 Mbytes
Step Temp PotEng TotEng Press Volume Lx Ly Lz 
       0    619.54796   -157142.66   -154580.09     697.0797    567254.58    82.780111    82.780111    82.780111 
 1000000    622.03937   -157098.23   -154525.36    961.99013    567254.58    82.842901    82.748733    82.748733 
 2000000    618.27533   -157100.59   -154543.28    972.17731    567254.58    82.905444    82.717515    82.717515 
 3000000    622.55456   -157097.28   -154522.28    889.61184    567254.58    82.967492    82.686579    82.686579 
 4000000    623.30191   -157119.68   -154541.59     847.2547    567254.58    83.028801    82.656045    82.656045 
 5000000    618.64545   -157103.92   -154545.08    925.43301    567254.58    83.089128    82.626034    82.626034 
 6000000     619.7184   -157121.92   -154558.64    800.42281    567254.58    83.148235     82.59666     82.59666 
 7000000    615.58764   -157105.93   -154559.74    770.19264    567254.58     83.20589    82.568039    82.568039 
 8000000    620.26616   -157113.03   -154547.48    1012.0183    567254.58    83.261865     82.54028     82.54028 
 9000000    621.96286   -157122.59   -154550.03    794.43011    567254.58    83.315938    82.513491    82.513491 
10000000     619.1498   -157105.34   -154544.42     941.7693    567254.58    83.367896    82.487774    82.487774 
11000000    615.64652   -157099.03    -154552.6    874.27597    567254.58    83.417535    82.463228    82.463228 
12000000    621.31023   -157106.78   -154536.92    836.85036    567254.58    83.464658    82.439946    82.439946 
13000000    620.37573   -157118.56   -154552.57    672.10211    567254.58    83.509079    82.418016    82.418016 
14000000    620.41062   -157105.36   -154539.22    955.54374    567254.58    83.550624    82.397523    82.397523 
15000000    618.72322   -157093.47   -154534.31    1054.1443    567254.58    83.589128    82.378543    82.378543 
16000000    619.64221   -157134.24   -154571.28    492.49492    567254.58    83.624439    82.361149    82.361149 
17000000     623.0785   -157123.81   -154546.63    665.09043    567254.58    83.656418    82.345406    82.345406 
18000000    617.76136   -157117.42   -154562.24     781.1007    567254.58    83.684938    82.331373    82.331373 
19000000    620.86398   -157110.45   -154542.44     840.7825    567254.58    83.709887    82.319102    82.319102 
20000000    621.77649   -157095.06   -154523.27    1117.7805    567254.58    83.731167    82.308641    82.308641 
21000000    615.82352   -157112.36    -154565.2     727.4028    567254.58    83.748694    82.300028    82.300028 
22000000    619.99725   -157130.04   -154565.61    586.38522    567254.58    83.762398    82.293295    82.293295 
23000000     619.2296   -157114.46    -154553.2    751.78967    567254.58    83.772226    82.288468    82.288468 
24000000    621.32373   -157118.94   -154549.02    827.56177    567254.58    83.778138    82.285565    82.285565 
25000000    619.65609   -157149.24   -154586.22    515.20823    567254.58    83.780111    82.284596    82.284596 
26000000    616.95791   -157113.11   -154561.26    796.23148    567254.58    83.778138    82.285565    82.285565 
27000000    624.01414   -157096.86   -154515.82    1048.5085    567254.58    83.772226    82.288468    82.288468 
28000000    617.34386    -157127.5   -154574.05    873.09507    567254.58    83.762398    82.293295    82.293295 
29000000    618.07697   -157123.97   -154567.49    870.30178    567254.58    83.748694    82.300028    82.300028 
30000000    620.87572   -157140.25   -154572.18    861.78695    567254.58    83.731167    82.308641    82.308641 
31000000    626.40959   -157121.42   -154530.47    853.84562    567254.58    83.709887    82.319102    82.319102 
32000000    614.90021   -157133.96   -154590.61     683.6692    567254.58    83.684938    82.331373    82.331373 
33000000    621.76954   -157144.92   -154573.16    646.36597    567254.58    83.656418    82.345406    82.345406 
34000000    619.92207    -157134.6   -154570.48    838.21257    567254.58    83.624439    82.361149    82.361149 
35000000    615.55055   -157109.09   -154563.06    865.06328    567254.58    83.589128    82.378543    82.378543 
36000000     618.4418   -157115.51   -154557.51    951.92746    567254.58    83.550624    82.397523    82.397523 
37000000    621.72947   -157116.48   -154544.88    975.97857    567254.58    83.509079    82.418016    82.418016 
38000000    615.98824   -157143.37   -154595.52    589.33601    567254.58    83.464658    82.439946    82.439946 
39000000    617.82948   -157121.62   -154566.16    892.34302    567254.58    83.417535    82.463228    82.463228 
40000000    625.19837   -157123.24   -154537.29    845.56427    567254.58    83.367896    82.487774    82.487774 
41000000    622.00458   -157140.03    -154567.3    743.66913    567254.58    83.315938    82.513491    82.513491 
42000000    620.36536   -157137.03   -154571.08    694.06243    567254.58    83.261865     82.54028     82.54028 
43000000    620.68345   -157110.17    -154542.9    979.95349    567254.58     83.20589    82.568039    82.568039 
44000000    622.77817   -157119.74   -154543.81    789.59565    567254.58    83.148235     82.59666     82.59666 
45000000    616.06351   -157102.39   -154554.24    889.12422    567254.58    83.089128    82.626034    82.626034 
46000000    612.57213    -157134.1   -154600.39    703.34998    567254.58    83.028801    82.656045    82.656045 
47000000    621.85883   -157133.61   -154561.48    622.86137    567254.58    82.967492    82.686579    82.686579 
48000000    622.11039   -157115.07    -154541.9    1062.3085    567254.58    82.905444    82.717515    82.717515 
49000000    620.04559   -157114.08   -154549.45    791.28046    567254.58    82.842901    82.748733    82.748733 
50000000    620.99693   -157143.98   -154575.41    660.95262    567254.58    82.780111    82.780111    82.780111 
51000000    617.72085   -157116.44   -154561.43    767.29829    567254.58     82.71732    82.811524    82.811524 
52000000    621.26996   -157123.15   -154553.45     691.7841    567254.58    82.654778    82.842849    82.842849 
53000000    622.20578   -157126.51   -154552.94    598.13707    567254.58     82.59273    82.873961    82.873961 
54000000    621.93956   -157096.24   -154523.77    1072.3195    567254.58    82.531421    82.904737    82.904737 
55000000    617.64637    -157117.1    -154562.4    829.73128    567254.58    82.471094    82.935053    82.935053 
56000000     619.9366    -157128.9   -154564.72    713.83677    567254.58    82.411986    82.964789    82.964789 
57000000    620.55803   -157114.51   -154547.76    939.39051    567254.58    82.354332    82.993825    82.993825 
58000000    621.53345   -157131.41   -154560.63    626.55059    567254.58    82.298357    83.022044    83.022044 
59000000    619.15025   -157100.84   -154539.91    919.10101    567254.58    82.244284    83.049332    83.049332 
60000000    618.14185   -157114.13   -154557.37    851.64601    567254.58    82.192326    83.075578    83.075578 
61000000    617.24713   -157120.56   -154567.51     759.9061    567254.58    82.142687    83.100675    83.100675 
62000000    620.71699   -157133.13   -154565.72    605.11403    567254.58    82.095564    83.124522    83.124522 
63000000    617.29342   -157120.71   -154567.46    604.95762    567254.58    82.051142     83.14702     83.14702 
64000000     613.5978   -157115.68   -154577.72    895.01103    567254.58    82.009598    83.168078    83.168078 
65000000    617.48728   -157085.22   -154531.17    1080.1824    567254.58    81.971094    83.187609    83.187609 
66000000    625.07017   -157115.76   -154530.35    804.30096    567254.58    81.935783    83.205532    83.205532 
67000000    620.87729   -157106.61   -154538.54    872.03561    567254.58    81.903804    83.221774    83.221774 
68000000    621.61961   -157132.55   -154561.41    688.88546    567254.58    81.875284    83.236267    83.236267 
69000000    619.55133   -157096.69   -154534.11     888.8889    567254.58    81.850334    83.248952    83.248952 
70000000     620.6533   -157139.84    -154572.7    516.73588    567254.58    81.829054    83.259776    83.259776 
71000000    621.67767   -157097.82   -154526.44    942.68367    567254.58    81.811528    83.268694    83.268694 
72000000    617.91832   -157074.64   -154518.81    1074.6633    567254.58    81.797824    83.275669    83.275669 
73000000    617.86163   -157108.21   -154552.62    916.18945    567254.58    81.787996    83.280672    83.280672 
74000000    624.08295   -157127.31   -154545.98    733.65876    567254.58    81.782084    83.283682    83.283682 
75000000    622.93799   -157120.79    -154544.2    669.09258    567254.58    81.780111    83.284687    83.284687 
76000000    620.50305   -157133.45   -154566.93    640.58495    567254.58    81.782084    83.283682    83.283682 
77000000    620.07752   -157107.92   -154543.15    915.88716    567254.58    81.787996    83.280672    83.280672 
78000000    613.94071   -157129.67   -154590.29     727.1398    567254.58    81.797824    83.275669    83.275669 
79000000    618.37109   -157128.71   -154571.01    776.44795    567254.58    81.811528    83.268694    83.268694 
80000000    625.39441   -157109.29   -154522.53    805.75524    567254.58    81.829054    83.259776    83.259776 
81000000    621.70138   -157120.57   -154549.09    781.64258    567254.58    81.850334    83.248952    83.248952 
82000000    623.95587   -157132.27   -154551.46    803.37633    567254.58    81.875284    83.236267    83.236267 
83000000    618.42743   -157126.18   -154568.25    656.55607    567254.58    81.903804    83.221774    83.221774 
84000000    619.22057   -157105.39   -154544.17    845.88865    567254.58    81.935783    83.205532    83.205532 
85000000    626.65379   -157122.73   -154530.77    822.56262    567254.58    81.971094    83.187609    83.187609 
86000000    624.99002   -157133.53   -154548.45    769.41873    567254.58    82.009598    83.168078    83.168078 
87000000    623.52152   -157125.44   -154546.44    675.20589    567254.58    82.051142     83.14702     83.14702 
88000000     622.5143   -157153.35   -154578.51    557.10289    567254.58    82.095564    83.124522    83.124522 
89000000     620.1605   -157133.49   -154568.39    641.03318    567254.58    82.142687    83.100675    83.100675 
90000000     618.9184    -157120.3   -154560.33    712.96764    567254.58    82.192326    83.075578    83.075578 
91000000    621.64792      -157136   -154564.74     688.2643    567254.58    82.244284    83.049332    83.049332 
92000000    618.61181   -157147.54   -154588.84     454.5487    567254.58    82.298357    83.022044    83.022044 
93000000    624.19618   -157143.97   -154562.18     565.3105    567254.58    82.354332    82.993825    82.993825 
94000000    622.78169   -157147.68   -154571.74    775.33032    567254.58    82.411986    82.964789    82.964789 
95000000    628.62124   -157121.83   -154521.73    898.57342    567254.58    82.471094    82.935053    82.935053 
96000000    619.17915   -157132.78   -154571.73    708.73133    567254.58    82.531421    82.904737    82.904737 
97000000    618.14262   -157156.51   -154599.75    570.27765    567254.58     82.59273    82.873961    82.873961 
98000000    623.31508   -157140.72   -154562.56    707.84227    567254.58    82.654778    82.842849    82.842849 
99000000    618.74047   -157123.61   -154564.38    692.26572    567254.58     82.71732    82.811524    82.811524 
100000000     625.2061   -157143.24   -154557.27    519.39752    567254.58    82.780111    82.780111    82.780111 
101000000     623.4238   -157140.29   -154561.68    638.90504    567254.58    82.842901    82.748733    82.748733 
102000000    622.71731   -157123.72   -154548.04    628.73706    567254.58    82.905444    82.717515    82.717515 
103000000    621.57762   -157121.84   -154550.87    590.58307    567254.58    82.967492    82.686579    82.686579 
104000000    618.57153   -157137.67   -154579.14    657.89417    567254.58    83.028801    82.656045    82.656045 
105000000     620.8075   -157128.47   -154560.69    556.20107    567254.58    83.089128    82.626034    82.626034 
106000000    620.74103   -157124.04   -154556.53    586.19814    567254.58    83.148235     82.59666     82.59666 
107000000    619.46318   -157125.83   -154563.61    670.83792    567254.58     83.20589    82.568039    82.568039 
108000000    617.19164   -157121.84   -154569.01    712.24241    567254.58    83.261865     82.54028     82.54028 
109000000    623.25491   -157138.35   -154560.44    482.12029    567254.58    83.315938    82.513491    82.513491 
110000000    624.85753   -157127.45   -154542.92     683.0991    567254.58    83.367896    82.487774    82.487774 
111000000     621.0832   -157146.81   -154577.89    705.29707    567254.58    83.417535    82.463228    82.463228 
112000000    621.75703   -157126.13   -154554.42    579.78946    567254.58    83.464658    82.439946    82.439946 
113000000    619.61808   -157116.66   -154553.79    697.57378    567254.58    83.509079    82.418016    82.418016 
114000000    618.90306   -157105.76   -154545.85    727.66787    567254.58    83.550624    82.397523    82.397523 
115000000    621.80357   -157134.42   -154562.52    669.61008    567254.58    83.589128    82.378543    82.378543 
116000000    622.05565   -157127.43   -154554.48    708.68229    567254.58    83.624439    82.361149    82.361149 
117000000    618.12768    -157138.5    -154581.8    533.51469    567254.58    83.656418    82.345406    82.345406 
118000000    620.30189   -157120.55   -154554.86    791.87445    567254.58    83.684938    82.331373    82.331373 
119000000    622.17662   -157104.81   -154531.36    851.11631    567254.58    83.709887    82.319102    82.319102 
120000000    615.90114   -157135.48      -154588    599.65061    567254.58    83.731167    82.308641    82.308641 
121000000    617.76481   -157142.66   -154587.46    535.07626    567254.58    83.748694    82.300028    82.300028 
122000000    615.08851   -157119.63    -154575.5    741.75666    567254.58    83.762398    82.293295    82.293295 
123000000    621.54267   -157117.11   -154546.29    762.07166    567254.58    83.772226    82.288468    82.288468 
124000000    621.06196   -157142.06   -154573.23    578.02247    567254.58    83.778138    82.285565    82.285565 
125000000    624.66161   -157111.42    -154527.7     932.1361    567254.58    83.780111    82.284596    82.284596 
126000000     616.0742   -157117.95   -154569.75     748.3892    567254.58    83.778138    82.285565    82.285565 
127000000    616.48131   -157118.33   -154568.44    767.78609    567254.58    83.772226    82.288468    82.288468 
128000000    623.03319   -157131.79    -154554.8    765.83242    567254.58    83.762398    82.293295    82.293295 
129000000    620.89913   -157149.59   -154581.43    611.30488    567254.58    83.748694    82.300028    82.300028 
130000000    621.31056   -157143.52   -154573.66    798.01376    567254.58    83.731167    82.308641    82.308641 
131000000    618.46666   -157148.12   -154590.02    618.15781    567254.58    83.709887    82.319102    82.319102 
132000000    623.36872   -157115.35   -154536.97    860.39155    567254.58    83.684938    82.331373    82.331373 
133000000    621.03818   -157136.42   -154567.68    743.41125    567254.58    83.656418    82.345406    82.345406 
134000000    623.24307   -157148.09   -154570.24    552.06621    567254.58    83.624439    82.361149    82.361149 
135000000    617.30791   -157147.28   -154593.97    634.12749    567254.58    83.589128    82.378543    82.378543 
136000000    617.21991   -157118.13   -154565.18    798.71076    567254.58    83.550624    82.397523    82.397523 
137000000     621.1641   -157139.26   -154570.01    638.29964    567254.58    83.509079    82.418016    82.418016 
138000000    615.82031   -157150.93   -154603.77    421.32248    567254.58    83.464658    82.439946    82.439946 
139000000    619.40946   -157139.78   -154577.78    459.56219    567254.58    83.417535    82.463228    82.463228 
140000000    618.72337   -157150.37   -154591.21    427.22889    567254.58    83.367896    82.487774    82.487774 
141000000    624.33076   -157138.99   -154556.63     666.2385    567254.58    83.315938    82.513491    82.513491 
142000000    623.74796    -157145.2   -154565.25    528.06434    567254.58    83.261865     82.54028     82.54028 
143000000    624.71053   -157144.14   -154560.21    592.05899    567254.58     83.20589    82.568039    82.568039 
144000000    625.81925   -157154.98   -154566.47    585.38161    567254.58    83.148235     82.59666     82.59666 
145000000    626.23505   -157152.23      -154562    580.31112    567254.58    83.089128    82.626034    82.626034 
146000000    621.33302   -157158.27   -154588.31    483.35243    567254.58    83.028801    82.656045    82.656045 
147000000    624.34077   -157165.14   -154582.75    396.67575    567254.58    82.967492    82.686579    82.686579 
148000000    617.88492   -157136.23   -154580.54    686.22315    567254.58    82.905444    82.717515    82.717515 
149000000    613.93944   -157148.13   -154608.75    410.06141    567254.58    82.842901    82.748733    82.748733 
150000000    617.49115   -157163.79   -154609.73    381.69507    567254.58    82.780111    82.780111    82.780111 
151000000    615.46037   -157130.14   -154584.47    664.54673    567254.58     82.71732    82.811524    82.811524 
152000000    614.39951   -157155.19   -154613.91    370.44824    567254.58    82.654778    82.842849    82.842849 
153000000    619.64821   -157148.79    -154585.8    386.70031    567254.58     82.59273    82.873961    82.873961 
154000000    616.82456   -157144.66   -154593.35    552.21777    567254.58    82.531421    82.904737    82.904737 
155000000    621.77091   -157136.63   -154564.87    708.39356    567254.58    82.471094    82.935053    82.935053 
156000000    622.16581   -157155.49   -154582.09    481.77515    567254.58    82.411986    82.964789    82.964789 
157000000    618.62912   -157145.77      -154587     582.9385    567254.58    82.354332    82.993825    82.993825 
158000000    621.65058   -157144.74   -154573.47    645.63144    567254.58    82.298357    83.022044    83.022044 
159000000    623.84849   -157128.92   -154548.56    804.61178    567254.58    82.244284    83.049332    83.049332 
160000000    619.78803   -157137.05   -154573.48    582.26824    567254.58    82.192326    83.075578    83.075578 
161000000     619.1562   -157120.62   -154559.67     681.8148    567254.58    82.142687    83.100675    83.100675 
162000000    618.62236    -157135.7   -154576.96    621.37727    567254.58    82.095564    83.124522    83.124522 
163000000    621.26394   -157148.36   -154578.69    502.18762    567254.58    82.051142     83.14702     83.14702 
164000000    622.93673   -157130.67   -154554.08    652.13561    567254.58    82.009598    83.168078    83.168078 
165000000    618.23125      -157133   -154575.87    639.30444    567254.58    81.971094    83.187609    83.187609 
166000000    617.79213   -157126.12   -154570.81    570.15372    567254.58    81.935783    83.205532    83.205532 
167000000    622.16371   -157120.55   -154547.16    585.23333    567254.58    81.903804    83.221774    83.221774 
168000000      621.806   -157124.87   -154552.96    755.68562    567254.58    81.875284    83.236267    83.236267 
169000000    621.01492   -157153.69   -154585.05    486.37811    567254.58    81.850334    83.248952    83.248952 
170000000    622.03676   -157121.87      -154549       792.61    567254.58    81.829054    83.259776    83.259776 
171000000    622.83485   -157118.43   -154542.26    551.35879    567254.58    81.811528    83.268694    83.268694 
172000000    618.90891    -157132.3   -154572.37    363.06741    567254.58    81.797824    83.275669    83.275669 
173000000    618.46215   -157139.93   -154581.85    456.23927    567254.58    81.787996    83.280672    83.280672 
174000000    617.32378   -157136.43   -154583.06    676.13582    567254.58    81.782084    83.283682    83.283682 
175000000    620.86336   -157144.86   -154576.84    472.18216    567254.58    81.780111    83.284687    83.284687 
176000000    617.31095   -157153.31   -154599.99    407.74211    567254.58    81.782084    83.283682    83.283682 
177000000    616.94086   -157131.89    -154580.1    686.36992    567254.58    81.787996    83.280672    83.280672 
178000000    625.43578   -157121.65   -154534.72    722.60758    567254.58    81.797824    83.275669    83.275669 
179000000    617.03566    -157131.5   -154579.32    528.34997    567254.58    81.811528    83.268694    83.268694 
180000000    616.19335   -157133.42   -154584.72    553.00102    567254.58    81.829054    83.259776    83.259776 
181000000    620.95034   -157147.56   -154579.18    550.36214    567254.58    81.850334    83.248952    83.248952 
182000000    622.51614   -157154.35    -154579.5    406.85567    567254.58    81.875284    83.236267    83.236267 
183000000    623.27177    -157131.1   -154553.13    645.97054    567254.58    81.903804    83.221774    83.221774 
184000000    621.13684   -157144.46   -154575.31    668.33779    567254.58    81.935783    83.205532    83.205532 
185000000    622.72208   -157152.33   -154576.63     419.4851    567254.58    81.971094    83.187609    83.187609 
186000000    618.87184   -157143.02   -154583.25     448.1201    567254.58    82.009598    83.168078    83.168078 
187000000    622.20599   -157149.25   -154575.69    399.99682    567254.58    82.051142     83.14702     83.14702 
188000000    619.99647   -157149.69   -154585.27     471.4648    567254.58    82.095564    83.124522    83.124522 
189000000    619.15243   -157142.97   -154582.03    505.50841    567254.58    82.142687    83.100675    83.100675 
190000000    619.35293   -157168.64   -154606.88     245.3694    567254.58    82.192326    83.075578    83.075578 
191000000    622.38283   -157145.64   -154571.34    506.59649    567254.58    82.244284    83.049332    83.049332 
192000000    617.73973   -157173.78   -154618.68    127.63352    567254.58    82.298357    83.022044    83.022044 
193000000    622.18411   -157137.69   -154564.22    529.12217    567254.58    82.354332    82.993825    82.993825 
194000000    623.51518   -157144.96   -154565.98    475.49012    567254.58    82.411986    82.964789    82.964789 
195000000    619.34696   -157144.35   -154582.61    444.90321    567254.58    82.471094    82.935053    82.935053 
196000000    624.10943   -157151.03   -154569.59     482.7555    567254.58    82.531421    82.904737    82.904737 
197000000    618.67819   -157175.76   -154616.79    187.43127    567254.58     82.59273    82.873961    82.873961 
198000000    620.93943   -157154.77   -154586.44    471.80505    567254.58    82.654778    82.842849    82.842849 
199000000    622.48225    -157157.3    -154582.6    456.88188    567254.58     82.71732    82.811524    82.811524 
200000000    621.10608   -157147.96   -154578.94    433.57891    567254.58    82.780111    82.780111    82.780111 
201000000    618.93642   -157172.55    -154612.5    325.34254    567254.58    82.842901    82.748733    82.748733 
202000000    621.90922   -157155.51   -154583.18    498.86137    567254.58    82.905444    82.717515    82.717515 
203000000    624.44419    -157166.7   -154583.88    357.83616    567254.58    82.967492    82.686579    82.686579 
204000000    620.90037   -157135.72   -154567.55    630.76923    567254.58    83.028801    82.656045    82.656045 
205000000    615.15115   -157154.81   -154610.42    391.98008    567254.58    83.089128    82.626034    82.626034 
206000000    619.50742   -157181.37   -154618.97    227.52867    567254.58    83.148235     82.59666     82.59666 
207000000    618.88086   -157143.51    -154583.7    474.54249    567254.58     83.20589    82.568039    82.568039 
208000000    624.25639    -157127.3   -154545.25     641.8101    567254.58    83.261865     82.54028     82.54028 
209000000    619.88753   -157123.75   -154559.77    647.81241    567254.58    83.315938    82.513491    82.513491 
210000000    624.74593   -157151.78   -154567.71    471.49026    567254.58    83.367896    82.487774    82.487774 
211000000    618.85282    -157139.5    -154579.8    607.65576    567254.58    83.417535    82.463228    82.463228 
212000000    618.63092   -157149.21   -154590.43    501.24488    567254.58    83.464658    82.439946    82.439946 
213000000    622.35786    -157164.5    -154590.3    368.44091    567254.58    83.509079    82.418016    82.418016 
214000000    623.46679   -157132.25   -154553.47    543.22929    567254.58    83.550624    82.397523    82.397523 
215000000    619.12065    -157142.5    -154581.7    508.57927    567254.58    83.589128    82.378543    82.378543 
216000000    623.91774   -157147.67   -154567.02     477.1301    567254.58    83.624439    82.361149    82.361149 
217000000    624.87982   -157134.79   -154550.16    523.30016    567254.58    83.656418    82.345406    82.345406 
218000000    616.21832   -157148.49   -154599.69    489.97552    567254.58    83.684938    82.331373    82.331373 
219000000    620.86647   -157135.98   -154567.95    645.42318    567254.58    83.709887    82.319102    82.319102 
220000000    622.61227   -157155.68   -154580.43    466.03958    567254.58    83.731167    82.308641    82.308641 
221000000    617.37272    -157128.4   -154574.82    636.72205    567254.58    83.748694    82.300028    82.300028 
222000000    619.19747   -157138.76   -154577.64    597.76118    567254.58    83.762398    82.293295    82.293295 
223000000    620.90791    -157130.3    -154562.1    551.95758    567254.58    83.772226    82.288468    82.288468 
224000000    617.87713   -157120.44   -154564.77    660.79863    567254.58    83.778138    82.285565    82.285565 
225000000    623.60501   -157147.36   -154568.01    544.98841    567254.58    83.780111    82.284596    82.284596 
226000000    620.63841   -157119.62   -154552.54    664.53851    567254.58    83.778138    82.285565    82.285565 
227000000     618.0885   -157122.21   -154565.67    564.45522    567254.58    83.772226    82.288468    82.288468 
228000000      620.608   -157146.18   -154579.22    634.43106    567254.58    83.762398    82.293295    82.293295 
229000000    622.33354   -157146.59    -154572.5    497.56526    567254.58    83.748694    82.300028    82.300028 
230000000    617.58332   -157137.76   -154583.32    519.13529    567254.58    83.731167    82.308641    82.308641 
231000000    621.31704   -157123.64   -154553.75    633.69942    567254.58    83.709887    82.319102    82.319102 
232000000    619.47261   -157150.99   -154588.73    484.09446    567254.58    83.684938    82.331373    82.331373 
233000000    626.07697   -157149.52   -154559.94     530.1066    567254.58    83.656418    82.345406    82.345406 
234000000    626.49123   -157148.74   -154557.45    491.19439    567254.58    83.624439    82.361149    82.361149 
235000000    616.39673   -157145.68   -154596.14    243.26277    567254.58    83.589128    82.378543    82.378543 
236000000    616.94412   -157165.35   -154613.55    255.35535    567254.58    83.550624    82.397523    82.397523 
237000000    615.81941   -157159.11   -154611.96    252.33117    567254.58    83.509079    82.418016    82.418016 
238000000    620.52806   -157162.92   -154596.29    498.65625    567254.58    83.464658    82.439946    82.439946 
239000000    622.42476   -157136.77    -154562.3    564.18954    567254.58    83.417535    82.463228    82.463228 
240000000    620.37986    -157173.4   -154607.39    386.39457    567254.58    83.367896    82.487774    82.487774 
241000000    619.74886   -157183.92   -154620.52    296.07607    567254.58    83.315938    82.513491    82.513491 
242000000    621.68876   -157151.26   -154579.83    486.08306    567254.58    83.261865     82.54028     82.54028 
243000000    623.99175   -157146.93   -154565.98    381.98785    567254.58     83.20589    82.568039    82.568039 
244000000    618.40348    -157129.5   -154571.66    646.18137    567254.58    83.148235     82.59666     82.59666 
245000000    618.43028   -157148.49   -154590.55    315.85952    567254.58    83.089128    82.626034    82.626034 
246000000    617.66192   -157160.73   -154605.96    423.04041    567254.58    83.028801    82.656045    82.656045 
247000000    621.71101   -157161.15   -154589.64    454.46879    567254.58    82.967492    82.686579    82.686579 
248000000    624.46594   -157174.53   -154591.62    374.15964    567254.58    82.905444    82.717515    82.717515 
249000000    613.93671   -157173.01   -154633.65    240.60284    567254.58    82.842901    82.748733    82.748733 
250000000    619.03886   -157158.86    -154598.4    422.48316    567254.58    82.780111    82.780111    82.780111 
251000000    618.85136   -157151.87   -154592.18    471.03996    567254.58     82.71732    82.811524    82.811524 
252000000    622.23471   -157141.37   -154567.68    558.81411    567254.58    82.654778    82.842849    82.842849 
253000000    619.63739   -157153.58   -154590.64    449.99018    567254.58     82.59273    82.873961    82.873961 
254000000    618.09939   -157161.04   -154604.46    363.77448    567254.58    82.531421    82.904737    82.904737 
255000000     619.2225   -157169.46   -154608.24    362.23229    567254.58    82.471094    82.935053    82.935053 
256000000    616.62985   -157169.07   -154618.57    284.43503    567254.58    82.411986    82.964789    82.964789 
257000000    620.62799   -157153.39   -154586.35    516.41752    567254.58    82.354332    82.993825    82.993825 
258000000    619.39261   -157178.55   -154616.62    335.72397    567254.58    82.298357    83.022044    83.022044 
259000000    620.87943   -157147.11   -154579.04    494.33872    567254.58    82.244284    83.049332    83.049332 
260000000    621.25482   -157146.18   -154576.55    550.18492    567254.58    82.192326    83.075578    83.075578 
261000000    616.40726   -157142.76   -154593.18    548.44339    567254.58    82.142687    83.100675    83.100675 
262000000    620.62719   -157142.74    -154575.7    530.09922    567254.58    82.095564    83.124522    83.124522 
263000000    616.45251   -157131.29   -154581.53    450.08587    567254.58    82.051142     83.14702     83.14702 
264000000    620.54836   -157128.61    -154561.9    584.27123    567254.58    82.009598    83.168078    83.168078 
265000000    620.07092   -157145.49   -154580.75     420.9005    567254.58    81.971094    83.187609    83.187609 
266000000    623.82156   -157153.04   -154572.79    367.36162    567254.58    81.935783    83.205532    83.205532 
267000000    623.90713   -157125.34   -154544.74    567.44001    567254.58    81.903804    83.221774    83.221774 
268000000    611.92291    -157146.6   -154615.57    280.03714    567254.58    81.875284    83.236267    83.236267 
269000000    620.05051   -157154.55    -154589.9    463.79839    567254.58    81.850334    83.248952    83.248952 
270000000    619.04423   -157133.65   -154573.16      545.901    567254.58    81.829054    83.259776    83.259776 
271000000    620.92504   -157125.87   -154557.61    553.90542    567254.58    81.811528    83.268694    83.268694 
272000000    618.64017   -157136.74   -154577.92    576.18195    567254.58    81.797824    83.275669    83.275669 
273000000    623.21746   -157139.43   -154561.68    533.39981    567254.58    81.787996    83.280672    83.280672 
274000000    624.96722   -157118.68   -154533.69    529.22538    567254.58    81.782084    83.283682    83.283682 
275000000    618.45035   -157133.38   -154575.35    807.32419    567254.58    81.780111    83.284687    83.284687 
276000000    620.68224   -157137.81   -154570.54    564.45826    567254.58    81.782084    83.283682    83.283682 
277000000    624.71318   -157151.91   -154567.98    610.96251    567254.58    81.787996    83.280672    83.280672 
278000000    620.81067   -157148.71   -154580.92     489.7619    567254.58    81.797824    83.275669    83.275669 
279000000    615.93586   -157118.07   -154570.44    768.10664    567254.58    81.811528    83.268694    83.268694 
280000000    618.26621   -157139.61   -154582.34    652.55586    567254.58    81.829054    83.259776    83.259776 
281000000    622.64563   -157132.65   -154557.27    587.16194    567254.58    81.850334    83.248952    83.248952 
282000000    620.72321   -157155.92   -154588.49    409.11596    567254.58    81.875284    83.236267    83.236267 
283000000    617.48463   -157148.86   -154594.82    429.74711    567254.58    81.903804    83.221774    83.221774 
284000000    620.03513   -157148.33   -154583.75    600.99913    567254.58    81.935783    83.205532    83.205532 
285000000    624.23862   -157123.35   -154541.38    671.15884    567254.58    81.971094    83.187609    83.187609 
286000000    620.26389   -157160.02   -154594.49      439.139    567254.58    82.009598    83.168078    83.168078 
287000000     621.0167   -157163.55   -154594.91    475.63804    567254.58    82.051142     83.14702     83.14702 
288000000    618.62614   -157148.04   -154589.28    568.74517    567254.58    82.095564    83.124522    83.124522 
289000000    621.38284   -157122.37   -154552.21    915.06038    567254.58    82.142687    83.100675    83.100675 
290000000    620.90426   -157166.53   -154598.35    641.35636    567254.58    82.192326    83.075578    83.075578 
291000000    617.14029   -157168.19   -154615.58    394.22289    567254.58    82.244284    83.049332    83.049332 
292000000    613.92581   -157153.48   -154614.17     568.4615    567254.58    82.298357    83.022044    83.022044 
293000000     618.7284   -157151.71   -154592.53    569.15166    567254.58    82.354332    82.993825    82.993825 
294000000     619.0197   -157154.34   -154593.95    571.17221    567254.58    82.411986    82.964789    82.964789 
295000000    617.58311   -157148.87   -154594.43    538.92685    567254.58    82.471094    82.935053    82.935053 
296000000    617.61167   -157156.58   -154602.01    424.71747    567254.58    82.531421    82.904737    82.904737 
297000000    616.71366   -157173.69   -154622.84    325.55535    567254.58     82.59273    82.873961    82.873961 
298000000    615.92798   -157158.21   -154610.61    453.92679    567254.58    82.654778    82.842849    82.842849 
299000000    620.06276   -157148.99   -154584.29     504.2447    567254.58     82.71732    82.811524    82.811524 
300000000    618.44332   -157173.56   -154615.56    275.26539    567254.58    82.780111    82.780111    82.780111 
301000000    624.51328   -157146.68   -154563.57    573.16509    567254.58    82.842901    82.748733    82.748733 
302000000    613.16027   -157167.73   -154631.58    410.13839    567254.58    82.905444    82.717515    82.717515 
303000000    621.02492   -157154.48    -154585.8    538.50756    567254.58    82.967492    82.686579    82.686579 
304000000    618.87616   -157144.66   -154584.86    553.94615    567254.58    83.028801    82.656045    82.656045 
305000000    617.73106   -157174.79   -154619.74    500.77963    567254.58    83.089128    82.626034    82.626034 
306000000    621.64812   -157140.74   -154569.49    522.02057    567254.58    83.148235     82.59666     82.59666 
307000000    618.32296   -157164.46   -154606.95    358.47924    567254.58     83.20589    82.568039    82.568039 
308000000    622.09074    -157144.7   -154571.61    601.00616    567254.58    83.261865     82.54028     82.54028 
309000000    620.09069   -157167.31    -154602.5    282.19854    567254.58    83.315938    82.513491    82.513491 
310000000    621.59567   -157138.89   -154567.85    708.38298    567254.58    83.367896    82.487774    82.487774 
311000000    624.85515   -157153.13    -154568.6    578.02962    567254.58    83.417535    82.463228    82.463228 
312000000    621.52339   -157144.69   -154573.94    588.37931    567254.58    83.464658    82.439946    82.439946 
313000000    617.05248   -157126.95    -154574.7    488.71887    567254.58    83.509079    82.418016    82.418016 
314000000    622.63042   -157126.22   -154550.89    750.86387    567254.58    83.550624    82.397523    82.397523 
315000000    618.20809   -157152.03      -154595    525.76238    567254.58    83.589128    82.378543    82.378543 
316000000     624.2716   -157153.03   -154570.92    552.71165    567254.58    83.624439    82.361149    82.361149 
317000000    620.14088   -157134.06   -154569.03    740.37488    567254.58    83.656418    82.345406    82.345406 
318000000    623.75098   -157152.12   -154572.17    512.26784    567254.58    83.684938    82.331373    82.331373 
319000000    620.34012   -157140.02   -154574.17    489.12158    567254.58    83.709887    82.319102    82.319102 
320000000    611.43628   -157141.46   -154612.44    648.53967    567254.58    83.731167    82.308641    82.308641 
321000000     618.2203   -157123.36   -154566.28    710.48907    567254.58    83.748694    82.300028    82.300028 
322000000     623.5868   -157136.31   -154557.03    638.04919    567254.58    83.762398    82.293295    82.293295 
323000000    613.83736   -157131.69   -154592.74    666.66437    567254.58    83.772226    82.288468    82.288468 
324000000    617.36915   -157141.21   -154587.65    511.01875    567254.58    83.778138    82.285565    82.285565 
325000000    625.25112   -157142.92   -154556.76    735.77622    567254.58    83.780111    82.284596    82.284596 
326000000    617.34975    -157141.4   -154587.92    517.68917    567254.58    83.778138    82.285565    82.285565 
327000000    617.97417   -157147.86    -154591.8    650.54944    567254.58    83.772226    82.288468    82.288468 
328000000    625.24964   -157144.96   -154558.81    692.90753    567254.58    83.762398    82.293295    82.293295 
329000000    617.26347   -157128.81   -154575.69    713.79995    567254.58    83.748694    82.300028    82.300028 
330000000    618.34634   -157134.07   -154576.47    592.37391    567254.58    83.731167    82.308641    82.308641 
331000000    613.37045   -157147.33   -154610.31    617.39311    567254.58    83.709887    82.319102    82.319102 
332000000    621.89868   -157142.34   -154570.05    607.49482    567254.58    83.684938    82.331373    82.331373 
333000000    623.92442   -157146.28    -154565.6    621.00958    567254.58    83.656418    82.345406    82.345406 
334000000    615.27001   -157143.98   -154599.11    499.12093    567254.58    83.624439    82.361149    82.361149 
335000000    618.11146   -157143.32   -154586.69    631.14785    567254.58    83.589128    82.378543    82.378543 
336000000    626.78386    -157141.7    -154549.2    544.97381    567254.58    83.550624    82.397523    82.397523 
337000000    619.46111   -157150.81    -154588.6    547.72654    567254.58    83.509079    82.418016    82.418016 
338000000    617.85374   -157149.73   -154594.16    534.33861    567254.58    83.464658    82.439946    82.439946 
339000000    622.06678   -157137.49    -154564.5    643.30324    567254.58    83.417535    82.463228    82.463228 
340000000    622.14333   -157171.58   -154598.27    392.56095    567254.58    83.367896    82.487774    82.487774 
341000000    619.48083   -157178.42   -154616.12     310.6471    567254.58    83.315938    82.513491    82.513491 
342000000    629.16229   -157148.73   -154546.39    660.95048    567254.58    83.261865     82.54028     82.54028 
343000000    622.26481   -157169.21    -154595.4    471.00919    567254.58     83.20589    82.568039    82.568039 
344000000    616.48381   -157154.27   -154604.38    464.81187    567254.58    83.148235     82.59666     82.59666 
345000000    621.92435   -157168.58   -154596.18    401.22689    567254.58    83.089128    82.626034    82.626034 
346000000    617.29351   -157177.36   -154624.11    373.29379    567254.58    83.028801    82.656045    82.656045 
347000000    622.43619   -157165.69   -154591.17    478.62914    567254.58    82.967492    82.686579    82.686579 
348000000     610.8982   -157158.37   -154631.57    492.48246    567254.58    82.905444    82.717515    82.717515 
349000000    622.50019      -157137   -154562.21    598.55149    567254.58    82.842901    82.748733    82.748733 
350000000    621.75818   -157162.78   -154591.07    422.78192    567254.58    82.780111    82.780111    82.780111 
351000000    622.49443   -157163.75   -154588.99    489.06383    567254.58     82.71732    82.811524    82.811524 
352000000     617.2174   -157146.35   -154593.42    563.05991    567254.58    82.654778    82.842849    82.842849 
353000000    620.22201    -157169.7   -154604.34    338.32267    567254.58     82.59273    82.873961    82.873961 
354000000    622.29146   -157180.68   -154606.76    443.70517    567254.58    82.531421    82.904737    82.904737 
355000000    615.88209   -157181.93   -154634.52    256.91901    567254.58    82.471094    82.935053    82.935053 
356000000    620.95892   -157160.26   -154591.85    466.00631    567254.58    82.411986    82.964789    82.964789 
357000000    619.55564   -157165.43   -154602.83    351.06964    567254.58    82.354332    82.993825    82.993825 
358000000    617.84698   -157170.44    -154614.9    542.69927    567254.58    82.298357    83.022044    83.022044 
359000000    619.30005   -157173.09   -154611.54    566.31283    567254.58    82.244284    83.049332    83.049332 
360000000    616.62569   -157147.35   -154596.87    454.77112    567254.58    82.192326    83.075578    83.075578 
361000000    619.62029   -157170.81   -154607.94    533.81799    567254.58    82.142687    83.100675    83.100675 
362000000    616.09688   -157146.21   -154597.91    529.23554    567254.58    82.095564    83.124522    83.124522 
363000000    623.60368   -157144.58   -154565.23    571.02117    567254.58    82.051142     83.14702     83.14702 
364000000    622.52331   -157140.72   -154565.84    513.95945    567254.58    82.009598    83.168078    83.168078 
365000000    620.98662   -157169.24   -154600.72    396.50538    567254.58    81.971094    83.187609    83.187609 
366000000    623.44054   -157150.57    -154571.9    681.65964    567254.58    81.935783    83.205532    83.205532 
367000000    618.73098    -157155.9   -154596.71     461.0343    567254.58    81.903804    83.221774    83.221774 
368000000     622.4779   -157147.43   -154572.74    619.01171    567254.58    81.875284    83.236267    83.236267 
369000000    621.25904   -157127.04   -154557.39    758.47385    567254.58    81.850334    83.248952    83.248952 
370000000    622.23528   -157141.98   -154568.29    553.71268    567254.58    81.829054    83.259776    83.259776 
371000000    619.27976   -157144.52   -154583.06    602.03457    567254.58    81.811528    83.268694    83.268694 
372000000    620.57473   -157169.52    -154602.7    583.18912    567254.58    81.797824    83.275669    83.275669 
373000000      628.991   -157140.77   -154539.14    484.16889    567254.58    81.787996    83.280672    83.280672 
374000000    624.36672   -157136.35   -154553.85     609.2733    567254.58    81.782084    83.283682    83.283682 
375000000    621.41232   -157149.29   -154579.01    592.59222    567254.58    81.780111    83.284687    83.284687 
376000000    618.10565   -157136.36   -154579.76    557.92193    567254.58    81.782084    83.283682    83.283682 
377000000    622.32366   -157145.47   -154571.42     663.3846    567254.58    81.787996    83.280672    83.280672 
378000000    623.38538   -157154.86   -154576.42      608.109    567254.58    81.797824    83.275669    83.275669 
379000000     617.6968   -157137.68   -154582.77    501.86122    567254.58    81.811528    83.268694    83.268694 
380000000    617.13736   -157141.61   -154589.01    597.68553    567254.58    81.829054    83.259776    83.259776 
381000000    619.85112   -157159.21   -154595.39    628.36851    567254.58    81.850334    83.248952    83.248952 
382000000    623.07707   -157178.74   -154601.57    343.43575    567254.58    81.875284    83.236267    83.236267 
383000000    617.27295   -157157.14   -154603.98    585.17199    567254.58    81.903804    83.221774    83.221774 
384000000    624.69289   -157161.68   -154577.82    414.66421    567254.58    81.935783    83.205532    83.205532 
385000000    616.40253   -157169.12   -154619.56    246.67521    567254.58    81.971094    83.187609    83.187609 
386000000    622.54373   -157184.74   -154609.78    269.33061    567254.58    82.009598    83.168078    83.168078 
387000000    618.48113    -157167.6   -154609.44    435.34261    567254.58    82.051142     83.14702     83.14702 
388000000    620.44449   -157162.49   -154596.21    529.23386    567254.58    82.095564    83.124522    83.124522 
389000000    618.67081   -157164.67   -154605.72    212.44591    567254.58    82.142687    83.100675    83.100675 
390000000    620.57199   -157166.23   -154599.43    391.84472    567254.58    82.192326    83.075578    83.075578 
391000000    628.67573   -157170.11   -154569.78    458.77748    567254.58    82.244284    83.049332    83.049332 
392000000    624.84804    -157173.7   -154589.21    359.80521    567254.58    82.298357    83.022044    83.022044 
393000000    619.97609   -157159.58   -154595.24    383.42938    567254.58    82.354332    82.993825    82.993825 
394000000    622.61342   -157150.29   -154575.04    494.21404    567254.58    82.411986    82.964789    82.964789 
395000000    619.04447    -157169.8   -154609.31    282.62043    567254.58    82.471094    82.935053    82.935053 
396000000    625.29813   -157151.91   -154565.56    555.84602    567254.58    82.531421    82.904737    82.904737 
397000000    622.33894   -157177.75   -154603.64    384.06804    567254.58     82.59273    82.873961    82.873961 
398000000    618.94692   -157173.92   -154613.83    338.51103    567254.58    82.654778    82.842849    82.842849 
399000000    623.23151   -157159.79   -154581.98    447.46537    567254.58     82.71732    82.811524    82.811524 
400000000    621.38264   -157155.95   -154585.79    545.45979    567254.58    82.780111    82.780111    82.780111 
401000000     620.9063   -157153.61   -154585.42    426.93541    567254.58    82.842901    82.748733    82.748733 
402000000    624.42326   -157163.57   -154580.83    492.99425    567254.58    82.905444    82.717515    82.717515 
403000000    623.95986   -157168.91   -154588.09    304.51808    567254.58    82.967492    82.686579    82.686579 
404000000    620.70222   -157172.17   -154604.82    310.13668    567254.58    83.028801    82.656045    82.656045 
405000000     621.0776    -157155.1    -154586.2    467.75256    567254.58    83.089128    82.626034    82.626034 
406000000     616.6983   -157169.77   -154618.98    449.27461    567254.58    83.148235     82.59666     82.59666 
407000000    618.97522   -157179.06   -154618.86    341.03592    567254.58     83.20589    82.568039    82.568039 
408000000    618.35475   -157149.68   -154592.04    573.23375    567254.58    83.261865     82.54028     82.54028 
409000000    620.76587   -157195.41    -154627.8     262.1078    567254.58    83.315938    82.513491    82.513491 
410000000    615.47952   -157149.58   -154603.84    453.73739    567254.58    83.367896    82.487774    82.487774 
411000000    617.18631   -157164.84   -154612.04    311.63844    567254.58    83.417535    82.463228    82.463228 
412000000    622.35247    -157147.7   -154573.53    572.30111    567254.58    83.464658    82.439946    82.439946 
413000000    621.75393   -157143.74   -154572.04    464.53382    567254.58    83.509079    82.418016    82.418016 
414000000    615.69562   -157162.46   -154615.82    410.34435    567254.58    83.550624    82.397523    82.397523 
415000000    616.79841   -157151.51   -154600.31    520.26431    567254.58    83.589128    82.378543    82.378543 
416000000    622.74503   -157159.37   -154583.57    715.11342    567254.58    83.624439    82.361149    82.361149 
417000000    621.73919   -157160.93    -154589.3    501.33178    567254.58    83.656418    82.345406    82.345406 
418000000    619.26785   -157165.95   -154604.54    437.36921    567254.58    83.684938    82.331373    82.331373 
419000000    621.60216   -157180.21   -154609.14    228.67938    567254.58    83.709887    82.319102    82.319102 
420000000    617.11943   -157179.04   -154626.51     309.4098    567254.58    83.731167    82.308641    82.308641 
421000000    619.55169   -157133.86   -154571.27    722.52976    567254.58    83.748694    82.300028    82.300028 
422000000    621.70946   -157120.99   -154549.48    862.07632    567254.58    83.762398    82.293295    82.293295 
423000000    618.44047   -157159.23   -154601.24    338.26348    567254.58    83.772226    82.288468    82.288468 
424000000    620.20448   -157144.09    -154578.8    507.17055    567254.58    83.778138    82.285565    82.285565 
425000000    619.33155   -157134.81   -154573.14    571.88468    567254.58    83.780111    82.284596    82.284596 
426000000    612.74447   -157149.21   -154614.78    494.69159    567254.58    83.778138    82.285565    82.285565 
427000000    622.74244   -157156.34   -154580.56    475.18216    567254.58    83.772226    82.288468    82.288468 
428000000    623.79835   -157152.38   -154572.22    492.36681    567254.58    83.762398    82.293295    82.293295 
429000000    619.23914   -157143.94   -154582.65    401.94413    567254.58    83.748694    82.300028    82.300028 
430000000    621.67742   -157119.02   -154547.64    704.56688    567254.58    83.731167    82.308641    82.308641 
431000000    624.45214   -157155.08   -154572.22    375.74323    567254.58    83.709887    82.319102    82.319102 
432000000    624.95895    -157140.6   -154555.64    490.54212    567254.58    83.684938    82.331373    82.331373 
433000000    620.67154   -157160.88   -154593.67    517.59011    567254.58    83.656418    82.345406    82.345406 
434000000     615.0403   -157162.09   -154618.16    394.81477    567254.58    83.624439    82.361149    82.361149 
435000000    617.76906   -157150.46   -154595.25    436.23596    567254.58    83.589128    82.378543    82.378543 
436000000    620.11247   -157147.35   -154582.44    552.02217    567254.58    83.550624    82.397523    82.397523 
437000000    614.59925   -157170.45   -154628.34    239.22556    567254.58    83.509079    82.418016    82.418016 
438000000    624.88783   -157174.91   -154590.25    351.81752    567254.58    83.464658    82.439946    82.439946 
439000000    620.63182   -157165.97   -154598.92    367.72472    567254.58    83.417535    82.463228    82.463228 
440000000     622.0798    -157172.7   -154599.65    304.40488    567254.58    83.367896    82.487774    82.487774 
441000000    618.12509   -157167.29   -154610.61    247.17808    567254.58    83.315938    82.513491    82.513491 
442000000    620.14936   -157162.52   -154597.46    342.48104    567254.58    83.261865     82.54028     82.54028 
443000000    623.69879   -157178.24    -154598.5    437.03009    567254.58     83.20589    82.568039    82.568039 
444000000    618.22527   -157171.41   -154614.31    373.40873    567254.58    83.148235     82.59666     82.59666 
445000000    617.82645   -157162.96   -154607.51    494.17457    567254.58    83.089128    82.626034    82.626034 
446000000    618.23418   -157157.02   -154599.88    417.31054    567254.58    83.028801    82.656045    82.656045 
447000000    620.16363   -157163.54   -154598.42    290.61486    567254.58    82.967492    82.686579    82.686579 
448000000    619.73725   -157167.31   -154603.96    439.58068    567254.58    82.905444    82.717515    82.717515 
449000000    623.26394   -157156.41   -154578.47    456.05764    567254.58    82.842901    82.748733    82.748733 
450000000    617.76535   -157159.13   -154603.93    343.05843    567254.58    82.780111    82.780111    82.780111 
451000000    617.84452   -157161.15   -154605.63    566.84417    567254.58     82.71732    82.811524    82.811524 
452000000    620.81698    -157154.2   -154586.38     525.7254    567254.58    82.654778    82.842849    82.842849 
453000000    614.85211   -157161.85   -154618.71    334.62028    567254.58     82.59273    82.873961    82.873961 
454000000    620.63761   -157175.61   -154608.53     256.3759    567254.58    82.531421    82.904737    82.904737 
455000000    620.56953   -157155.27   -154588.47    395.48731    567254.58    82.471094    82.935053    82.935053 
456000000    618.74628    -157170.9   -154611.64    390.79861    567254.58    82.411986    82.964789    82.964789 
457000000    620.31711   -157171.76   -154606.01    286.05905    567254.58    82.354332    82.993825    82.993825 
458000000    617.05519   -157172.75   -154620.49     274.1627    567254.58    82.298357    83.022044    83.022044 
459000000    622.50854   -157155.45   -154580.63    435.94442    567254.58    82.244284    83.049332    83.049332 
460000000     618.0682   -157151.51   -154595.06    582.79088    567254.58    82.192326    83.075578    83.075578 
461000000    619.67103   -157145.78    -154582.7    501.04134    567254.58    82.142687    83.100675    83.100675 
462000000    621.61305   -157151.82    -154580.7    563.77905    567254.58    82.095564    83.124522    83.124522 
463000000    623.44472   -157163.69      -154585    619.38226    567254.58    82.051142     83.14702     83.14702 
464000000    621.41328   -157143.72   -154573.43    608.28935    567254.58    82.009598    83.168078    83.168078 
465000000    618.45142   -157144.75   -154586.72    613.48728    567254.58    81.971094    83.187609    83.187609 
466000000    616.31103   -157139.18      -154590    534.33048    567254.58    81.935783    83.205532    83.205532 
467000000    624.44963   -157164.59   -154581.74    417.23085    567254.58    81.903804    83.221774    83.221774 
468000000    623.43727   -157165.61   -154586.95    334.97906    567254.58    81.875284    83.236267    83.236267 
469000000    622.73662   -157146.14   -154570.38    588.73319    567254.58    81.850334    83.248952    83.248952 
470000000    618.75211   -157131.18    -154571.9    584.78396    567254.58    81.829054    83.259776    83.259776 
471000000     615.7393   -157145.66   -154598.85    461.32394    567254.58    81.811528    83.268694    83.268694 
472000000    620.77574   -157155.52   -154587.87    312.56826    567254.58    81.797824    83.275669    83.275669 
473000000    618.03005   -157145.58   -154589.29    499.85144    567254.58    81.787996    83.280672    83.280672 
474000000    618.81659   -157145.52   -154585.97    363.24966    567254.58    81.782084    83.283682    83.283682 
475000000    623.11976    -157137.5   -154560.16    679.19153    567254.58    81.780111    83.284687    83.284687 
476000000     615.3525   -157136.13   -154590.91    645.07972    567254.58    81.782084    83.283682    83.283682 
477000000    615.63182   -157141.18   -154594.81    356.80514    567254.58    81.787996    83.280672    83.280672 
478000000    620.52994   -157153.09   -154586.45    570.00918    567254.58    81.797824    83.275669    83.275669 
479000000    619.41094   -157128.05   -154566.05    572.65293    567254.58    81.811528    83.268694    83.268694 
480000000    623.37391   -157135.73   -154557.34     547.8834    567254.58    81.829054    83.259776    83.259776 
481000000     610.8763   -157154.14   -154627.43     433.4183    567254.58    81.850334    83.248952    83.248952 
482000000    620.13296   -157158.01   -154593.02    465.45054    567254.58    81.875284    83.236267    83.236267 
483000000    620.05309   -157154.38   -154589.72    485.50244    567254.58    81.903804    83.221774    83.221774 
484000000    617.59433   -157149.58   -154595.09    564.05893    567254.58    81.935783    83.205532    83.205532 
485000000    618.12678   -157162.03   -154605.34    456.23233    567254.58    81.971094    83.187609    83.187609 
486000000    621.41904   -157163.29   -154592.98    361.93857    567254.58    82.009598    83.168078    83.168078 
487000000    616.98675   -157172.94   -154620.97    316.15929    567254.58    82.051142     83.14702     83.14702 
488000000    618.92546   -157183.62   -154623.62    285.67828    567254.58    82.095564    83.124522    83.124522 
489000000    620.94581   -157164.85    -154596.5    422.20215    567254.58    82.142687    83.100675    83.100675 
490000000     619.1653    -157156.1   -154595.11    378.51615    567254.58    82.192326    83.075578    83.075578 
491000000    620.31274   -157160.67   -154594.93    441.11772    567254.58    82.244284    83.049332    83.049332 
492000000    621.84599   -157161.98   -154589.91    419.89895    567254.58    82.298357    83.022044    83.022044 
493000000    625.31956   -157179.68   -154593.23    262.00892    567254.58    82.354332    82.993825    82.993825 
494000000    620.97779   -157160.51   -154592.02    475.23814    567254.58    82.411986    82.964789    82.964789 
495000000    616.37465   -157150.48   -154601.03    429.69821    567254.58    82.471094    82.935053    82.935053 
496000000    617.69846   -157169.04   -154614.12    263.68159    567254.58    82.531421    82.904737    82.904737 
497000000    616.61917    -157144.5   -154594.04    585.32616    567254.58     82.59273    82.873961    82.873961 
498000000    620.22499   -157173.46   -154608.09    300.43873    567254.58    82.654778    82.842849    82.842849 
499000000    615.01657   -157142.82   -154598.99    493.65978    567254.58     82.71732    82.811524    82.811524 
500000000    623.49438    -157164.8   -154585.91    372.61963    567254.58    82.780111    82.780111    82.780111 
501000000    623.30435   -157159.99   -154581.88    464.00344    567254.58    82.842901    82.748733    82.748733 
502000000    615.41646   -157177.57   -154632.09    300.77783    567254.58    82.905444    82.717515    82.717515 
503000000    616.56608   -157164.28   -154614.04    269.05202    567254.58    82.967492    82.686579    82.686579 
504000000    616.62292   -157171.37   -154620.89    273.10421    567254.58    83.028801    82.656045    82.656045 
505000000    624.39619   -157142.89   -154560.26    542.77326    567254.58    83.089128    82.626034    82.626034 
506000000    615.67685   -157148.67   -154602.11    685.58845    567254.58    83.148235     82.59666     82.59666 
507000000    619.11057   -157172.01   -154611.25    453.84421    567254.58     83.20589    82.568039    82.568039 
508000000    615.21604   -157170.47   -154625.81    355.34699    567254.58    83.261865     82.54028     82.54028 
509000000    625.91318   -157131.81   -154542.91    671.87234    567254.58    83.315938    82.513491    82.513491 
510000000    623.75831   -157144.24   -154564.25    580.30725    567254.58    83.367896    82.487774    82.487774 
511000000    617.53696   -157162.69   -154608.43    430.90516    567254.58    83.417535    82.463228    82.463228 
512000000    622.33345   -157142.31   -154568.21    524.57051    567254.58    83.464658    82.439946    82.439946 
513000000    620.37055    -157141.9   -154575.93    497.11451    567254.58    83.509079    82.418016    82.418016 
514000000     620.4181    -157181.4   -154615.23    267.76232    567254.58    83.550624    82.397523    82.397523 
515000000    614.85513    -157154.1   -154610.94     443.7767    567254.58    83.589128    82.378543    82.378543 
516000000    621.58209   -157147.13   -154576.14    632.38634    567254.58    83.624439    82.361149    82.361149 
517000000    615.77996    -157141.4   -154594.41    426.42669    567254.58    83.656418    82.345406    82.345406 
518000000    618.83785   -157172.72   -154613.08    323.75814    567254.58    83.684938    82.331373    82.331373 
519000000    617.88524   -157154.97   -154599.28    463.75555    567254.58    83.709887    82.319102    82.319102 
520000000    617.68223    -157158.5   -154603.65    520.89201    567254.58    83.731167    82.308641    82.308641 
521000000    614.59567   -157127.27   -154585.18    539.53772    567254.58    83.748694    82.300028    82.300028 
522000000    618.91039   -157145.23   -154585.29    546.71363    567254.58    83.762398    82.293295    82.293295 
523000000    619.66072   -157144.95   -154581.91    565.47243    567254.58    83.772226    82.288468    82.288468 
524000000    622.30726   -157149.23   -154575.24    490.51872    567254.58    83.778138    82.285565    82.285565 
525000000    617.65093    -157164.8   -154610.07    331.65562    567254.58    83.780111    82.284596    82.284596 
526000000    618.30944   -157147.88   -154590.43     531.9136    567254.58    83.778138    82.285565    82.285565 
527000000    618.82881   -157132.75   -154573.16    575.62085    567254.58    83.772226    82.288468    82.288468 
528000000    616.24916   -157162.08   -154613.15    364.41022    567254.58    83.762398    82.293295    82.293295 
529000000    620.69252   -157165.58   -154598.27     433.7658    567254.58    83.748694    82.300028    82.300028 
530000000     623.8448   -157158.84   -154578.49    533.13271    567254.58    83.731167    82.308641    82.308641 
531000000    620.03099    -157160.1   -154595.53    403.54051    567254.58    83.709887    82.319102    82.319102 
532000000    621.39215   -157155.47   -154585.27    457.57346    567254.58    83.684938    82.331373    82.331373 
533000000    621.99472   -157181.75   -154609.06    257.93315    567254.58    83.656418    82.345406    82.345406 
534000000    619.20893   -157163.97   -154602.81    389.65131    567254.58    83.624439    82.361149    82.361149 
535000000    624.26068      -157156   -154573.94    394.72795    567254.58    83.589128    82.378543    82.378543 
536000000    625.18155   -157160.02   -154574.15     501.5651    567254.58    83.550624    82.397523    82.397523 
537000000    616.90805   -157165.14   -154613.48    430.95701    567254.58    83.509079    82.418016    82.418016 
538000000    624.59399   -157152.05    -154568.6     618.7999    567254.58    83.464658    82.439946    82.439946 
539000000    622.24747   -157151.17   -154577.43    605.30374    567254.58    83.417535    82.463228    82.463228 
540000000    621.13043   -157156.13   -154587.01    458.40091    567254.58    83.367896    82.487774    82.487774 
541000000    612.51157   -157177.53   -154644.06    380.21822    567254.58    83.315938    82.513491    82.513491 
542000000    622.38474   -157175.09   -154600.79    475.51124    567254.58    83.261865     82.54028     82.54028 
543000000    618.19408   -157176.23   -154619.26    360.63667    567254.58     83.20589    82.568039    82.568039 
544000000    623.02569   -157177.98   -154601.02    344.35343    567254.58    83.148235     82.59666     82.59666 
545000000    617.85753   -157152.95   -154597.37    531.08344    567254.58    83.089128    82.626034    82.626034 
546000000     622.0704   -157175.17   -154602.16    427.83059    567254.58    83.028801    82.656045    82.656045 
547000000    620.64125   -157153.73   -154586.64    490.00851    567254.58    82.967492    82.686579    82.686579 
548000000    619.45831   -157184.35   -154622.15    446.81885    567254.58    82.905444    82.717515    82.717515 
549000000    617.32328   -157185.08   -154631.71    335.36634    567254.58    82.842901    82.748733    82.748733 
550000000    616.88548   -157161.87   -154610.31    529.87779    567254.58    82.780111    82.780111    82.780111 
551000000    618.90861   -157146.64   -154586.71    637.12195    567254.58     82.71732    82.811524    82.811524 
552000000    620.77905   -157145.74   -154578.08    491.18994    567254.58    82.654778    82.842849    82.842849 
553000000    619.30339   -157161.16    -154599.6    550.83154    567254.58     82.59273    82.873961    82.873961 
554000000    618.73439   -157163.22   -154604.01    408.84803    567254.58    82.531421    82.904737    82.904737 
555000000    613.79701    -157165.5   -154626.72    344.04502    567254.58    82.471094    82.935053    82.935053 
556000000    618.92866   -157185.85   -154625.84    294.94541    567254.58    82.411986    82.964789    82.964789 
557000000    620.48494   -157163.73   -154597.28    560.34355    567254.58    82.354332    82.993825    82.993825 
558000000    621.90139   -157148.57   -154576.26    610.86611    567254.58    82.298357    83.022044    83.022044 
559000000    617.56594    -157174.2   -154619.82    340.36822    567254.58    82.244284    83.049332    83.049332 
560000000    619.52632   -157173.84   -154611.36    309.03451    567254.58    82.192326    83.075578    83.075578 
561000000     619.8746   -157167.66   -154603.74     436.1448    567254.58    82.142687    83.100675    83.100675 
562000000    619.43432   -157134.67   -154572.57    516.75627    567254.58    82.095564    83.124522    83.124522 
563000000    619.85301   -157157.32   -154593.48    370.30653    567254.58    82.051142     83.14702     83.14702 
564000000    618.53873   -157164.47   -154606.07    442.86448    567254.58    82.009598    83.168078    83.168078 
565000000    617.11849   -157159.57   -154607.05    454.38743    567254.58    81.971094    83.187609    83.187609 
566000000     618.8789   -157173.07   -154613.27    459.83609    567254.58    81.935783    83.205532    83.205532 
567000000    619.19048   -157172.47   -154611.38    376.63919    567254.58    81.903804    83.221774    83.221774 
568000000    614.43639   -157155.86   -154614.43    574.06507    567254.58    81.875284    83.236267    83.236267 
569000000    619.01825   -157144.37   -154583.99    543.54056    567254.58    81.850334    83.248952    83.248952 
570000000    620.34908   -157165.74   -154599.85    491.29731    567254.58    81.829054    83.259776    83.259776 
571000000    621.22996   -157145.87   -154576.34    738.92848    567254.58    81.811528    83.268694    83.268694 
572000000    621.49245   -157136.37   -154565.76    716.49962    567254.58    81.797824    83.275669    83.275669 
573000000    622.29184   -157163.62    -154589.7    409.03046    567254.58    81.787996    83.280672    83.280672 
574000000    617.06211   -157141.43   -154589.14    527.67107    567254.58    81.782084    83.283682    83.283682 
575000000    616.37708   -157150.99   -154601.54    376.14913    567254.58    81.780111    83.284687    83.284687 
576000000    622.59302   -157158.09   -154582.92    403.58691    567254.58    81.782084    83.283682    83.283682 
577000000    620.90503   -157149.39    -154581.2    440.59474    567254.58    81.787996    83.280672    83.280672 
578000000    623.09247    -157169.7   -154592.46    453.66833    567254.58    81.797824    83.275669    83.275669 
579000000    616.22367   -157166.83   -154618.01    415.34706    567254.58    81.811528    83.268694    83.268694 
580000000     618.1426   -157132.71   -154575.95    716.91059    567254.58    81.829054    83.259776    83.259776 
581000000    626.54129   -157150.94   -154559.44    703.07435    567254.58    81.850334    83.248952    83.248952 
582000000    620.12042   -157179.21   -154614.27     245.3734    567254.58    81.875284    83.236267    83.236267 
583000000    620.80545   -157169.58   -154601.81    378.62855    567254.58    81.903804    83.221774    83.221774 
584000000    618.24402   -157166.99   -154609.81    368.30538    567254.58    81.935783    83.205532    83.205532 
585000000    621.64735    -157155.3   -154584.04    509.76814    567254.58    81.971094    83.187609    83.187609 
586000000    620.10663   -157156.17   -154591.29    510.35504    567254.58    82.009598    83.168078    83.168078 
587000000    619.34918   -157157.73   -154595.98    428.57297    567254.58    82.051142     83.14702     83.14702 
588000000    620.38591   -157184.01   -154617.98    372.78966    567254.58    82.095564    83.124522    83.124522 
589000000    623.76303   -157156.83   -154576.83    672.40432    567254.58    82.142687    83.100675    83.100675 
590000000    621.93888   -157162.69   -154590.23    456.49982    567254.58    82.192326    83.075578    83.075578 
591000000     626.2623    -157162.9   -154572.56    568.93933    567254.58    82.244284    83.049332    83.049332 
592000000    626.20102   -157154.46   -154564.37     479.4702    567254.58    82.298357    83.022044    83.022044 
593000000      616.118   -157145.91   -154597.53    512.72602    567254.58    82.354332    82.993825    82.993825 
594000000    618.20719    -157198.6   -154641.58    328.06177    567254.58    82.411986    82.964789    82.964789 
595000000     617.7169   -157185.04   -154630.05    319.05586    567254.58    82.471094    82.935053    82.935053 
596000000    620.58766   -157156.18   -154589.31    430.30953    567254.58    82.531421    82.904737    82.904737 
597000000    620.32155   -157173.22   -154607.44    323.42668    567254.58     82.59273    82.873961    82.873961 
598000000    622.37594   -157151.58   -154577.31    532.00073    567254.58    82.654778    82.842849    82.842849 
599000000    622.36543   -157177.24   -154603.01    331.72224    567254.58     82.71732    82.811524    82.811524 
600000000    617.76682   -157186.15   -154630.95    235.50599    567254.58    82.780111    82.780111    82.780111 
601000000    617.50489   -157169.95   -154615.83    476.81822    567254.58    82.842901    82.748733    82.748733 
602000000    614.81201   -157189.41   -154646.43    205.14437    567254.58    82.905444    82.717515    82.717515 
603000000     616.0628   -157137.78   -154589.63    524.73469    567254.58    82.967492    82.686579    82.686579 
604000000    620.68946   -157179.33   -154612.03     431.8994    567254.58    83.028801    82.656045    82.656045 
605000000     620.2111   -157188.11    -154622.8    272.83861    567254.58    83.089128    82.626034    82.626034 
606000000    620.09911   -157168.25    -154603.4    466.43732    567254.58    83.148235     82.59666     82.59666 
607000000    618.53679   -157175.65   -154617.26    432.59487    567254.58     83.20589    82.568039    82.568039 
608000000    621.05638   -157183.08   -154614.26    514.86917    567254.58    83.261865     82.54028     82.54028 
609000000      620.617   -157164.37   -154597.38    432.52798    567254.58    83.315938    82.513491    82.513491 
610000000    617.14459   -157165.79   -154613.16    470.10338    567254.58    83.367896    82.487774    82.487774 
611000000     615.9237   -157160.56   -154612.98    451.15928    567254.58    83.417535    82.463228    82.463228 
612000000    623.00705   -157162.88      -154586    405.60526    567254.58    83.464658    82.439946    82.439946 
613000000    620.68266   -157159.93   -154592.66    335.87523    567254.58    83.509079    82.418016    82.418016 
614000000    623.36357   -157160.99   -154582.64    423.75575    567254.58    83.550624    82.397523    82.397523 
615000000    617.88918   -157166.78   -154611.07    496.89232    567254.58    83.589128    82.378543    82.378543 
616000000    623.94854   -157170.26   -154589.49    314.24041    567254.58    83.624439    82.361149    82.361149 
617000000    619.13518   -157173.53   -154612.67    346.56268    567254.58    83.656418    82.345406    82.345406 
618000000    621.02024   -157147.94   -154579.28    538.01574    567254.58    83.684938    82.331373    82.331373 
619000000    619.15415   -157146.52   -154585.57    688.18315    567254.58    83.709887    82.319102    82.319102 
620000000    620.17903   -157139.09    -154573.9    648.09062    567254.58    83.731167    82.308641    82.308641 
621000000    619.84077   -157150.14   -154586.36    598.93354    567254.58    83.748694    82.300028    82.300028 
622000000    622.02485   -157163.79   -154590.97    440.03312    567254.58    83.762398    82.293295    82.293295 
623000000    620.16912    -157144.9   -154579.76    575.97129    567254.58    83.772226    82.288468    82.288468 
624000000    619.35952   -157170.14   -154608.35     308.7485    567254.58    83.778138    82.285565    82.285565 
625000000    619.32444   -157151.78   -154590.13    555.28159    567254.58    83.780111    82.284596    82.284596 
626000000    617.14771   -157142.08   -154589.44    650.34428    567254.58    83.778138    82.285565    82.285565 
627000000    621.92394   -157158.19   -154585.79    538.95514    567254.58    83.772226    82.288468    82.288468 
628000000    619.65877   -157145.79   -154582.76    620.91193    567254.58    83.762398    82.293295    82.293295 
629000000    618.49179   -157158.57   -154600.36    573.75742    567254.58    83.748694    82.300028    82.300028 
630000000    620.64362    -157158.9   -154591.79    516.32356    567254.58    83.731167    82.308641    82.308641 
631000000    617.29562   -157136.48   -154583.22    551.30444    567254.58    83.709887    82.319102    82.319102 
632000000     620.0229   -157156.76   -154592.22    537.70274    567254.58    83.684938    82.331373    82.331373 
633000000    618.95888   -157142.85   -154582.71    663.19862    567254.58    83.656418    82.345406    82.345406 
634000000    617.52795   -157139.65   -154585.43    572.67548    567254.58    83.624439    82.361149    82.361149 
635000000    617.39695   -157158.59   -154604.92    482.27406    567254.58    83.589128    82.378543    82.378543 
636000000    621.88906   -157175.99   -154603.74    351.49137    567254.58    83.550624    82.397523    82.397523 
637000000    614.93258   -157141.39   -154597.91    620.41124    567254.58    83.509079    82.418016    82.418016 
638000000    616.46978   -157141.21   -154591.38    551.71179    567254.58    83.464658    82.439946    82.439946 
639000000    614.88939   -157169.03   -154625.73    208.06154    567254.58    83.417535    82.463228    82.463228 
640000000    618.10864   -157166.89   -154610.27     368.5113    567254.58    83.367896    82.487774    82.487774 
641000000    620.99685    -157136.3   -154567.74    794.50149    567254.58    83.315938    82.513491    82.513491 
642000000    619.09881   -157155.25   -154594.53    655.33844    567254.58    83.261865     82.54028     82.54028 
643000000     622.8112    -157159.8   -154583.73    521.82992    567254.58     83.20589    82.568039    82.568039 
644000000    619.75877   -157157.99   -154594.55    504.18763    567254.58    83.148235     82.59666     82.59666 
645000000    621.41216   -157169.12   -154598.84    378.41596    567254.58    83.089128    82.626034    82.626034 
646000000    616.15605    -157177.3   -154628.76    378.48143    567254.58    83.028801    82.656045    82.656045 
647000000    615.10018   -157173.97    -154629.8    399.64533    567254.58    82.967492    82.686579    82.686579 
648000000    621.14841   -157181.04   -154611.85    429.54994    567254.58    82.905444    82.717515    82.717515 
649000000    625.97877   -157158.54   -154569.37    396.76821    567254.58    82.842901    82.748733    82.748733 
650000000    617.70637   -157172.72   -154617.77    281.20868    567254.58    82.780111    82.780111    82.780111 
651000000    620.69355   -157166.14   -154598.83    413.32067    567254.58     82.71732    82.811524    82.811524 
652000000    616.51114   -157167.24   -154617.22    241.24464    567254.58    82.654778    82.842849    82.842849 
653000000    619.08034   -157154.45   -154593.81    468.81448    567254.58     82.59273    82.873961    82.873961 
654000000    623.01768   -157151.16   -154574.24    522.27922    567254.58    82.531421    82.904737    82.904737 
655000000    620.37692   -157152.65   -154586.65    560.79292    567254.58    82.471094    82.935053    82.935053 
656000000    618.36575   -157178.13   -154620.45     134.7445    567254.58    82.411986    82.964789    82.964789 
657000000    621.65431    -157140.5   -154569.21     616.1067    567254.58    82.354332    82.993825    82.993825 
658000000    616.86069    -157156.4   -154604.94      466.328    567254.58    82.298357    83.022044    83.022044 
659000000    619.59391   -157158.31   -154595.55     514.2479    567254.58    82.244284    83.049332    83.049332 
660000000    622.28442   -157189.05   -154615.16    442.76187    567254.58    82.192326    83.075578    83.075578 
661000000    622.11755   -157150.98   -154577.78    515.78027    567254.58    82.142687    83.100675    83.100675 
662000000    617.70736   -157152.83   -154597.87    513.87144    567254.58    82.095564    83.124522    83.124522 
663000000    616.91288   -157160.68   -154609.01    365.98979    567254.58    82.051142     83.14702     83.14702 
664000000    619.08297   -157159.77   -154599.12    574.07211    567254.58    82.009598    83.168078    83.168078 
665000000    623.81774   -157170.59   -154590.36    384.00353    567254.58    81.971094    83.187609    83.187609 
666000000    619.83362   -157159.62   -154595.86    424.14444    567254.58    81.935783    83.205532    83.205532 
667000000    621.89767   -157160.27   -154587.98    466.35169    567254.58    81.903804    83.221774    83.221774 
668000000    615.40115   -157165.34   -154619.92    363.46373    567254.58    81.875284    83.236267    83.236267 
669000000    619.07599   -157160.94   -154600.32    393.82057    567254.58    81.850334    83.248952    83.248952 
670000000    622.36186   -157169.62   -154595.41    377.55891    567254.58    81.829054    83.259776    83.259776 
671000000    620.84651   -157168.13   -154600.19    222.39508    567254.58    81.811528    83.268694    83.268694 
672000000    623.76883   -157143.88   -154563.85    698.11471    567254.58    81.797824    83.275669    83.275669 
673000000    620.13907   -157189.63   -154624.62    137.31414    567254.58    81.787996    83.280672    83.280672 
674000000    621.17524   -157156.54   -154587.24    445.86709    567254.58    81.782084    83.283682    83.283682 
675000000    615.98195   -157179.18   -154631.36    298.01319    567254.58    81.780111    83.284687    83.284687 
676000000    622.80072   -157150.31   -154574.29     519.8057    567254.58    81.782084    83.283682    83.283682 
677000000    620.67186   -157183.69   -154616.47    443.10677    567254.58    81.787996    83.280672    83.280672 
678000000    623.49777   -157164.89   -154585.98    347.43477    567254.58    81.797824    83.275669    83.275669 
679000000    622.50061   -157168.12   -154593.33    536.24872    567254.58    81.811528    83.268694    83.268694 
680000000    613.56189   -157173.88   -154636.07    386.99532    567254.58    81.829054    83.259776    83.259776 
681000000    619.99428   -157184.18   -154619.76    237.40321    567254.58    81.850334    83.248952    83.248952 
682000000    616.13085   -157166.44      -154618    337.52145    567254.58    81.875284    83.236267    83.236267 
683000000    622.56975   -157172.24   -154597.16    568.34204    567254.58    81.903804    83.221774    83.221774 
684000000    618.84154   -157182.06   -154622.41    244.37451    567254.58    81.935783    83.205532    83.205532 
685000000    619.00215    -157188.1   -154627.78    268.07829    567254.58    81.971094    83.187609    83.187609 
686000000    619.39346   -157162.67   -154600.74    474.97198    567254.58    82.009598    83.168078    83.168078 
687000000    616.52912   -157154.76   -154604.67    611.29866    567254.58    82.051142     83.14702     83.14702 
688000000    621.09171   -157166.21   -154597.25    343.73031    567254.58    82.095564    83.124522    83.124522 
689000000    615.65572   -157175.49   -154629.01    270.50719    567254.58    82.142687    83.100675    83.100675 
690000000    620.33014    -157183.7   -154617.89    331.52911    567254.58    82.192326    83.075578    83.075578 
