units           metal
boundary        p p p
atom_style      atomic
read_data      ../../restart/T${T}.dat
read_data      ../../restart/T590.dat
Reading data file ...
  orthogonal box = (-2.4620705 -2.4620705 -2.4620705) to (80.296848 80.296848 80.296848)
  2 by 4 by 13 MPI processor grid
  reading atoms ...
  32000 atoms
  reading velocities ...
  32000 velocities
  read_data CPU = 0.293 seconds
pair_style      eam/alloy
pair_coeff      * *  ../../ZrCu.lammps.eam Zr Cu
mass 1 91.224
mass 2 63.546
neighbor            2.0 bin
neigh_modify     delay 1
timestep 0.01
thermo 1000000
reset_timestep 0
thermo_style custom step temp pe etotal press vol lx ly lz
fix             1 all nvt temp ${T} ${T} 0.1
fix             1 all nvt temp 590 ${T} 0.1
fix             1 all nvt temp 590 590 0.1
thermo_modify flush yes
fix nodrift all momentum 1  linear 1 1 1
fix com_seed all recenter INIT INIT INIT shift all
fix dsf all deform 1 x  wiggle 1.0  1000000.0 y volume z volume units box
fix ps1 all ave/time 1 1 1000000 c_thermo_press[1] c_thermo_press[2]  c_thermo_press[3] c_thermo_press[4]  c_thermo_press[5] c_thermo_press[6]  file  stress.${T}
fix ps1 all ave/time 1 1 1000000 c_thermo_press[1] c_thermo_press[2]  c_thermo_press[3] c_thermo_press[4]  c_thermo_press[5] c_thermo_press[6]  file  stress.590
dump            1 all custom 100000000 dump.${T} id type x y z
dump            1 all custom 100000000 dump.590 id type x y z
dump_modify 1 sort id
run 1000000000
Neighbor list info ...
  update every 1 steps, delay 1 steps, check yes
  max neighbors/atom: 2000, page size: 100000
  master list distance cutoff = 8.5
  ghost atom cutoff = 8.5
  binsize = 4.25, bins = 20 20 20
  1 neighbor lists, perpetual/occasional/extra = 1 0 0
  (1) pair eam/alloy/intel, perpetual
      attributes: half, newton on, intel
      pair build: half/bin/newton/intel
      stencil: half/bin/3d/newton
      bin: intel
Per MPI rank memory allocation (min/avg/max) = 7.346 | 7.468 | 7.583 Mbytes
Step Temp PotEng TotEng Press Volume Lx Ly Lz 
       0    588.26843   -157309.36   -154876.16   -47.730263    566819.03    82.758919    82.758919    82.758919 
 1000000    592.95554   -157243.95   -154791.37    404.42155    566819.03    82.821709    82.727541    82.727541 
 2000000    596.30599   -157258.62   -154792.18    327.82536    566819.03    82.884252    82.696323    82.696323 
 3000000    589.24715   -157301.96   -154864.72    88.282158    566819.03      82.9463    82.665387    82.665387 
 4000000     587.5977    -157263.4   -154832.98    166.22767    566819.03    83.007608    82.634853    82.634853 
 5000000    590.43417   -157278.34   -154836.19    247.90557    566819.03    83.067936    82.604841    82.604841 
 6000000    587.61973   -157277.55   -154847.04     266.2239    566819.03    83.127043    82.575468    82.575468 
 7000000    592.81341   -157279.01   -154827.02    308.26352    566819.03    83.184698    82.546847    82.546847 
 8000000    590.96432    -157264.7   -154820.36     238.3547    566819.03    83.240672    82.519088    82.519088 
 9000000    584.11199   -157274.63   -154858.63    317.76254    566819.03    83.294745    82.492299    82.492299 
10000000    591.84535   -157277.77   -154829.79    239.77161    566819.03    83.346704    82.466582    82.466582 
11000000    594.80342   -157262.54   -154802.32    386.17329    566819.03    83.396343    82.442036    82.442036 
12000000    588.44503   -157264.01   -154830.08    387.42299    566819.03    83.443466    82.418754    82.418754 
13000000    592.21379   -157242.96   -154793.45    490.40496    566819.03    83.487887    82.396825    82.396825 
14000000    592.55352   -157264.18   -154813.26    373.62417    566819.03    83.529432    82.376331    82.376331 
15000000    591.62037   -157255.17   -154808.11    498.23603    566819.03    83.567936    82.357352    82.357352 
16000000    592.32144   -157269.51   -154819.55    364.70555    566819.03    83.603246    82.339958    82.339958 
17000000    588.42385   -157259.36   -154825.52    236.15348    566819.03    83.635225    82.324214    82.324214 
18000000     588.1423   -157265.62   -154832.95    134.48992    566819.03    83.663746    82.310181    82.310181 
19000000    594.17494   -157254.72    -154797.1    360.63652    566819.03    83.688695    82.297911    82.297911 
20000000    583.18282   -157255.47   -154843.31    411.51482    566819.03    83.709975     82.28745     82.28745 
21000000    590.12366   -157224.96   -154784.09    642.53489    566819.03    83.727502    82.278837    82.278837 
22000000    589.57927    -157271.2   -154832.59    361.20067    566819.03    83.741206    82.272104    82.272104 
23000000    592.30478   -157266.66   -154816.77    334.24968    566819.03    83.751033    82.267277    82.267277 
24000000    593.35778   -157261.93   -154807.68    502.92429    566819.03    83.756945    82.264374    82.264374 
25000000    587.44511   -157264.45   -154834.66    481.62751    566819.03    83.758919    82.263405    82.263405 
26000000      585.619    -157273.9   -154851.66    280.06115    566819.03    83.756945    82.264374    82.264374 
27000000    592.66401   -157262.11   -154810.74    407.49378    566819.03    83.751033    82.267277    82.267277 
28000000    589.36745   -157245.97   -154808.23    627.22823    566819.03    83.741206    82.272104    82.272104 
29000000    589.98925   -157245.16   -154804.84    562.18375    566819.03    83.727502    82.278837    82.278837 
30000000      590.069   -157235.43   -154794.79    580.40756    566819.03    83.709975     82.28745     82.28745 
31000000    588.16245   -157275.87   -154843.11    276.02042    566819.03    83.688695    82.297911    82.297911 
32000000    590.43312   -157249.35   -154807.21    391.69661    566819.03    83.663746    82.310181    82.310181 
33000000    591.93137    -157264.8   -154816.46    340.76454    566819.03    83.635225    82.324214    82.324214 
34000000    593.87424   -157257.89   -154801.51    426.25581    566819.03    83.603246    82.339958    82.339958 
35000000    585.07054   -157261.76    -154841.8    310.62524    566819.03    83.567936    82.357352    82.357352 
36000000    589.98222      -157261   -154820.72    425.02509    566819.03    83.529432    82.376331    82.376331 
37000000    591.68967   -157244.01   -154796.67    591.53231    566819.03    83.487887    82.396825    82.396825 
38000000    589.16386   -157268.48   -154831.59    270.38478    566819.03    83.443466    82.418754    82.418754 
39000000    591.00354   -157272.28   -154827.77    240.26881    566819.03    83.396343    82.442036    82.442036 
40000000    589.61803   -157274.74   -154835.97    464.48075    566819.03    83.346704    82.466582    82.466582 
41000000    590.43411   -157287.53   -154845.38    290.78555    566819.03    83.294745    82.492299    82.492299 
42000000     590.4231   -157256.37   -154814.27    619.49938    566819.03    83.240672    82.519088    82.519088 
43000000    591.66628   -157248.98   -154801.73    453.81676    566819.03    83.184698    82.546847    82.546847 
44000000     594.8125   -157283.47   -154823.21    394.35383    566819.03    83.127043    82.575468    82.575468 
45000000     588.9493   -157256.39   -154820.38    425.66905    566819.03    83.067936    82.604841    82.604841 
46000000    590.53607   -157283.83   -154841.26    227.67303    566819.03    83.007608    82.634853    82.634853 
47000000     587.0268   -157248.24   -154820.18    553.70048    566819.03      82.9463    82.665387    82.665387 
48000000    589.64577   -157297.58   -154858.69    284.30132    566819.03    82.884252    82.696323    82.696323 
49000000    590.42307    -157267.8   -154825.69    329.04221    566819.03    82.821709    82.727541    82.727541 
50000000    588.71159   -157271.17   -154836.15    356.51919    566819.03    82.758919    82.758919    82.758919 
51000000    591.60967   -157272.76   -154825.74    282.25954    566819.03    82.696128    82.790332    82.790332 
52000000    585.42278   -157242.73    -154821.3    653.27916    566819.03    82.633585    82.821656    82.821656 
53000000    590.21534    -157256.5   -154815.26    462.31266    566819.03    82.571537    82.852769    82.852769 
54000000    586.84053   -157266.64   -154839.35    345.79242    566819.03    82.510229    82.883544    82.883544 
55000000    591.58163   -157265.43   -154818.53    312.02129    566819.03    82.449902    82.913861    82.913861 
56000000    588.77069    -157269.4   -154834.13    356.99526    566819.03    82.390794    82.943597    82.943597 
57000000    590.03079   -157240.84   -154800.35    497.67283    566819.03    82.333139    82.972633    82.972633 
58000000    586.88546   -157266.19   -154838.71    407.19951    566819.03    82.277165    83.000852    83.000852 
59000000    588.67269   -157257.67   -154822.81     433.5032    566819.03    82.223092     83.02814     83.02814 
60000000     593.4087   -157261.47   -154807.02    465.25907    566819.03    82.171133    83.054386    83.054386 
61000000    583.94476   -157261.32   -154846.01    294.02692    566819.03    82.121495    83.079484    83.079484 
62000000    590.67868   -157252.36    -154809.2    409.77751    566819.03    82.074371     83.10333     83.10333 
63000000    588.22526   -157266.12    -154833.1    218.94081    566819.03     82.02995    83.125829    83.125829 
64000000    587.72302   -157249.78   -154818.84    522.02808    566819.03    81.988405    83.146886    83.146886 
65000000    589.11048   -157260.96   -154824.29    275.38867    566819.03    81.949902    83.166417    83.166417 
66000000    589.87484   -157277.08   -154837.24    189.29298    566819.03    81.914591     83.18434     83.18434 
67000000    587.33881   -157262.42   -154833.07    458.25409    566819.03    81.882612    83.200582    83.200582 
68000000    585.54499    -157266.1   -154844.17    389.20836    566819.03    81.854091    83.215076    83.215076 
69000000    589.09436   -157268.58   -154831.98    320.17354    566819.03    81.829142    83.227761    83.227761 
70000000    589.99418   -157250.56   -154810.23    605.22096    566819.03    81.807862    83.238585    83.238585 
71000000    589.96617   -157274.24   -154834.02    337.28103    566819.03    81.790335    83.247503    83.247503 
72000000    591.51496   -157254.66   -154808.04    503.19278    566819.03    81.776631    83.254478    83.254478 
73000000    589.17638   -157276.52   -154839.57    243.57648    566819.03    81.766804    83.259481    83.259481 
74000000    586.50577   -157253.34   -154827.43    459.78707    566819.03    81.760892    83.262491    83.262491 
75000000    591.13862   -157256.57   -154811.51    406.03869    566819.03    81.758919    83.263496    83.263496 
76000000    588.96509   -157272.06   -154835.98    275.87637    566819.03    81.760892    83.262491    83.262491 
77000000     590.7693   -157252.46   -154808.92    576.05135    566819.03    81.766804    83.259481    83.259481 
78000000    587.10879   -157245.05   -154816.65     474.3947    566819.03    81.776631    83.254478    83.254478 
79000000    591.23321   -157233.88   -154788.43    575.86457    566819.03    81.790335    83.247503    83.247503 
80000000    595.25779    -157270.6    -154808.5    286.93642    566819.03    81.807862    83.238585    83.238585 
81000000    588.90761   -157262.14    -154826.3     198.1407    566819.03    81.829142    83.227761    83.227761 
82000000    591.28535   -157262.66   -154816.99     146.7178    566819.03    81.854091    83.215076    83.215076 
83000000    589.75726   -157275.81   -154836.46    279.44519    566819.03    81.882612    83.200582    83.200582 
84000000    591.55692   -157267.48   -154820.68    260.28173    566819.03    81.914591     83.18434     83.18434 
85000000    588.73293   -157249.45   -154814.33    449.47648    566819.03    81.949902    83.166417    83.166417 
86000000    590.45641   -157253.99   -154811.75    389.94008    566819.03    81.988405    83.146886    83.146886 
87000000    591.52228   -157257.36   -154810.71    391.62488    566819.03     82.02995    83.125829    83.125829 
88000000    587.01378   -157282.74   -154854.74    163.72896    566819.03    82.074371     83.10333     83.10333 
89000000    592.55691   -157265.03    -154814.1    422.71836    566819.03    82.121495    83.079484    83.079484 
90000000    585.17475   -157285.66   -154865.26    264.56903    566819.03    82.171133    83.054386    83.054386 
91000000    589.70699    -157286.1   -154846.96    260.36483    566819.03    82.223092     83.02814     83.02814 
92000000    585.56763   -157264.69   -154842.67    374.65266    566819.03    82.277165    83.000852    83.000852 
93000000    592.63753   -157269.71   -154818.45    449.16473    566819.03    82.333139    82.972633    82.972633 
94000000    589.75504   -157281.34      -154842    279.57072    566819.03    82.390794    82.943597    82.943597 
95000000    589.38072   -157284.89    -154847.1    302.49666    566819.03    82.449902    82.913861    82.913861 
96000000    590.26506    -157263.6   -154822.15    422.21468    566819.03    82.510229    82.883544    82.883544 
97000000    594.53283   -157283.52   -154824.41    227.37593    566819.03    82.571537    82.852769    82.852769 
98000000    584.59919    -157274.4   -154856.38    159.58503    566819.03    82.633585    82.821656    82.821656 
99000000    591.64103   -157278.94   -154831.79    277.00464    566819.03    82.696128    82.790332    82.790332 
100000000    587.46501   -157289.52   -154859.65    257.49434    566819.03    82.758919    82.758919    82.758919 
101000000    589.97537   -157292.26   -154852.01    127.16443    566819.03    82.821709    82.727541    82.727541 
102000000    593.17501    -157272.3   -154818.81    488.08614    566819.03    82.884252    82.696323    82.696323 
103000000    591.27243   -157284.87   -154839.25     118.4923    566819.03      82.9463    82.665387    82.665387 
104000000    591.13584   -157294.37   -154849.31    186.97117    566819.03    83.007608    82.634853    82.634853 
105000000    591.35325   -157280.31   -154834.36    248.26938    566819.03    83.067936    82.604841    82.604841 
106000000    584.87364   -157266.16   -154847.01    316.72544    566819.03    83.127043    82.575468    82.575468 
107000000    591.99486   -157264.59   -154815.98    395.35474    566819.03    83.184698    82.546847    82.546847 
108000000    596.36664   -157287.15   -154820.47       144.02    566819.03    83.240672    82.519088    82.519088 
109000000    588.32559   -157279.38   -154845.95    229.09718    566819.03    83.294745    82.492299    82.492299 
110000000    587.23263   -157276.41    -154847.5    312.05855    566819.03    83.346704    82.466582    82.466582 
111000000     594.6485   -157277.82   -154818.23    407.28873    566819.03    83.396343    82.442036    82.442036 
112000000     592.5439   -157278.93   -154828.05    312.49428    566819.03    83.443466    82.418754    82.418754 
113000000    588.94641    -157283.4    -154847.4    288.99328    566819.03    83.487887    82.396825    82.396825 
114000000    593.05465   -157274.48   -154821.49    456.44352    566819.03    83.529432    82.376331    82.376331 
115000000    589.77042   -157264.81   -154825.41    375.02721    566819.03    83.567936    82.357352    82.357352 
116000000    590.80338   -157285.16   -154841.48    216.88073    566819.03    83.603246    82.339958    82.339958 
117000000    590.46642   -157303.36   -154861.08    80.061674    566819.03    83.635225    82.324214    82.324214 
118000000    591.43097   -157276.71   -154830.43     344.0318    566819.03    83.663746    82.310181    82.310181 
119000000    590.52509   -157255.76   -154813.24    527.39579    566819.03    83.688695    82.297911    82.297911 
120000000    587.95465   -157264.66   -154832.76    468.98885    566819.03    83.709975     82.28745     82.28745 
121000000    591.75292   -157281.64   -154834.04    305.57651    566819.03    83.727502    82.278837    82.278837 
122000000    588.87484   -157250.36   -154814.66    647.17206    566819.03    83.741206    82.272104    82.272104 
123000000     590.2838   -157254.04   -154812.51    430.43175    566819.03    83.751033    82.267277    82.267277 
124000000    595.75294      -157272   -154807.85    313.15517    566819.03    83.756945    82.264374    82.264374 
125000000    587.91376   -157280.61   -154848.89    386.60122    566819.03    83.758919    82.263405    82.263405 
126000000    588.92793   -157266.43   -154830.51    420.65182    566819.03    83.756945    82.264374    82.264374 
127000000    591.19445   -157260.69    -154815.4    499.75075    566819.03    83.751033    82.267277    82.267277 
128000000    586.66017   -157279.31   -154852.77    391.20802    566819.03    83.741206    82.272104    82.272104 
129000000    585.39393   -157264.82   -154843.52    446.57274    566819.03    83.727502    82.278837    82.278837 
130000000    593.46423   -157293.03   -154838.35    138.64886    566819.03    83.709975     82.28745     82.28745 
131000000    587.33059   -157276.97   -154847.66    388.27826    566819.03    83.688695    82.297911    82.297911 
132000000    592.64687   -157288.75   -154837.45    266.14599    566819.03    83.663746    82.310181    82.310181 
133000000    588.22044   -157285.81   -154852.82    354.51364    566819.03    83.635225    82.324214    82.324214 
134000000    589.54437   -157292.76   -154854.29    87.067134    566819.03    83.603246    82.339958    82.339958 
135000000    586.00447   -157269.99   -154846.16    226.83991    566819.03    83.567936    82.357352    82.357352 
136000000    589.06486   -157292.78   -154856.29    122.71305    566819.03    83.529432    82.376331    82.376331 
137000000    597.42246   -157280.44   -154809.39    288.44742    566819.03    83.487887    82.396825    82.396825 
138000000    588.88324   -157303.79   -154868.05    22.578193    566819.03    83.443466    82.418754    82.418754 
139000000     588.7585   -157262.89   -154827.67    439.33652    566819.03    83.396343    82.442036    82.442036 
140000000    588.60069   -157292.72   -154858.16    236.25182    566819.03    83.346704    82.466582    82.466582 
141000000    595.22334   -157296.17   -154834.21    313.55729    566819.03    83.294745    82.492299    82.492299 
142000000    589.83346   -157290.45   -154850.78    199.09546    566819.03    83.240672    82.519088    82.519088 
143000000    586.95018   -157294.74      -154867    165.20593    566819.03    83.184698    82.546847    82.546847 
144000000    587.78854   -157297.34   -154866.13     198.5953    566819.03    83.127043    82.575468    82.575468 
145000000    589.00914   -157269.49   -154833.24    311.79138    566819.03    83.067936    82.604841    82.604841 
146000000    589.62907   -157277.56   -154838.74    427.28903    566819.03    83.007608    82.634853    82.634853 
147000000    588.19224   -157282.86   -154849.98    325.32765    566819.03      82.9463    82.665387    82.665387 
148000000    592.63404   -157295.53   -154844.28    370.44093    566819.03    82.884252    82.696323    82.696323 
149000000     589.0166   -157307.06   -154870.77    92.882814    566819.03    82.821709    82.727541    82.727541 
150000000    588.76917   -157282.67   -154847.41    151.21168    566819.03    82.758919    82.758919    82.758919 
151000000    594.70961   -157301.05   -154841.21    175.84615    566819.03    82.696128    82.790332    82.790332 
152000000    586.59835   -157280.91   -154854.62    224.40283    566819.03    82.633585    82.821656    82.821656 
153000000    588.32552   -157273.25   -154839.82    244.35173    566819.03    82.571537    82.852769    82.852769 
154000000    587.47568   -157292.11    -154862.2    116.79373    566819.03    82.510229    82.883544    82.883544 
155000000    588.83384   -157286.54   -154851.01   -3.1414142    566819.03    82.449902    82.913861    82.913861 
156000000    591.23011   -157308.42   -154862.97    168.87903    566819.03    82.390794    82.943597    82.943597 
157000000    592.51897   -157303.81   -154853.03    156.47403    566819.03    82.333139    82.972633    82.972633 
158000000    591.87905   -157271.01   -154822.88    406.93775    566819.03    82.277165    83.000852    83.000852 
159000000    590.63522   -157273.84   -154830.86    468.20837    566819.03    82.223092     83.02814     83.02814 
160000000     591.7855    -157271.6   -154823.86    392.10936    566819.03    82.171133    83.054386    83.054386 
161000000    591.38794   -157265.52   -154819.42    599.94802    566819.03    82.121495    83.079484    83.079484 
162000000    587.86351   -157290.86   -154859.34      330.282    566819.03    82.074371     83.10333     83.10333 
163000000    589.32071   -157271.66   -154834.11    283.76381    566819.03     82.02995    83.125829    83.125829 
164000000    590.06533   -157261.59   -154820.96    441.65695    566819.03    81.988405    83.146886    83.146886 
165000000    589.15193   -157297.99   -154861.14    181.55362    566819.03    81.949902    83.166417    83.166417 
166000000    589.18973   -157257.85   -154820.85    443.97454    566819.03    81.914591     83.18434     83.18434 
167000000    593.93829   -157292.99   -154836.34    195.48289    566819.03    81.882612    83.200582    83.200582 
168000000    592.43863   -157266.63   -154816.19    503.00235    566819.03    81.854091    83.215076    83.215076 
169000000    591.53476    -157273.2    -154826.5    339.40329    566819.03    81.829142    83.227761    83.227761 
170000000    586.34929   -157283.25      -154858    324.60795    566819.03    81.807862    83.238585    83.238585 
171000000    590.90991   -157269.48   -154825.36    367.27612    566819.03    81.790335    83.247503    83.247503 
172000000    585.73824   -157257.78   -154835.06    444.40092    566819.03    81.776631    83.254478    83.254478 
173000000    592.14987   -157262.29   -154813.04    474.07323    566819.03    81.766804    83.259481    83.259481 
174000000    590.34661   -157285.47   -154843.68     256.4331    566819.03    81.760892    83.262491    83.262491 
175000000    592.79779   -157271.86   -154819.94     426.4052    566819.03    81.758919    83.263496    83.263496 
176000000    584.14998   -157276.21   -154860.06    264.08572    566819.03    81.760892    83.262491    83.262491 
177000000    593.44046    -157285.2   -154830.62    443.70686    566819.03    81.766804    83.259481    83.259481 
178000000    588.34936   -157280.71   -154847.18    340.60012    566819.03    81.776631    83.254478    83.254478 
179000000    593.65056   -157275.52   -154820.07    387.45066    566819.03    81.790335    83.247503    83.247503 
180000000    587.47097   -157271.98   -154842.08    383.24454    566819.03    81.807862    83.238585    83.238585 
181000000    589.80308   -157277.19   -154837.65    523.27145    566819.03    81.829142    83.227761    83.227761 
182000000    590.96958   -157278.95   -154834.58    266.45483    566819.03    81.854091    83.215076    83.215076 
183000000     588.8488   -157276.33   -154840.73    270.15297    566819.03    81.882612    83.200582    83.200582 
184000000    588.61072   -157279.14   -154844.53    237.21825    566819.03    81.914591     83.18434     83.18434 
185000000    588.78947   -157276.87   -154841.52    471.56204    566819.03    81.949902    83.166417    83.166417 
186000000    588.20202   -157291.94   -154859.02    267.61739    566819.03    81.988405    83.146886    83.146886 
187000000    589.97711   -157282.71   -154842.45    320.71602    566819.03     82.02995    83.125829    83.125829 
188000000    592.56654   -157303.09   -154852.11    313.09392    566819.03    82.074371     83.10333     83.10333 
189000000    592.61253   -157296.94   -154845.78    184.13691    566819.03    82.121495    83.079484    83.079484 
190000000    592.76221   -157286.12   -154834.34    437.62626    566819.03    82.171133    83.054386    83.054386 
191000000    590.44946   -157280.27   -154838.05    249.23358    566819.03    82.223092     83.02814     83.02814 
192000000    589.07145   -157296.42    -154859.9    220.40089    566819.03    82.277165    83.000852    83.000852 
193000000    592.79002   -157306.02   -154854.12    108.85732    566819.03    82.333139    82.972633    82.972633 
194000000    594.89282   -157294.83   -154834.23    300.21661    566819.03    82.390794    82.943597    82.943597 
195000000    587.82127   -157302.59   -154871.25    269.68522    566819.03    82.449902    82.913861    82.913861 
196000000    591.41449   -157309.66   -154863.46    284.00905    566819.03    82.510229    82.883544    82.883544 
197000000    593.47213   -157286.01   -154831.29    389.02937    566819.03    82.571537    82.852769    82.852769 
198000000    588.57766   -157295.27    -154860.8    312.07265    566819.03    82.633585    82.821656    82.821656 
199000000    587.71138   -157307.01   -154876.12    102.73217    566819.03    82.696128    82.790332    82.790332 
200000000    589.53271   -157286.65   -154848.23    405.13091    566819.03    82.758919    82.758919    82.758919 
201000000    589.26006   -157288.42   -154851.12    288.67267    566819.03    82.821709    82.727541    82.727541 
202000000    586.68566   -157293.65      -154867    292.85169    566819.03    82.884252    82.696323    82.696323 
203000000    588.62321   -157292.04   -154857.38    335.95763    566819.03      82.9463    82.665387    82.665387 
204000000    590.22642   -157297.92   -154856.63    225.07647    566819.03    83.007608    82.634853    82.634853 
205000000    587.87186   -157319.96    -154888.4    112.15071    566819.03    83.067936    82.604841    82.604841 
206000000    588.12336   -157290.68   -154858.08    253.72191    566819.03    83.127043    82.575468    82.575468 
207000000    589.69121   -157282.42   -154843.34    414.99515    566819.03    83.184698    82.546847    82.546847 
208000000    583.64748   -157281.16   -154867.08    218.35455    566819.03    83.240672    82.519088    82.519088 
209000000    593.39644   -157299.03   -154844.63    261.39982    566819.03    83.294745    82.492299    82.492299 
210000000    590.94597   -157287.31   -154843.05    368.21334    566819.03    83.346704    82.466582    82.466582 
211000000    590.95281   -157259.21   -154814.91    499.87494    566819.03    83.396343    82.442036    82.442036 
212000000    590.39127   -157284.58   -154842.61    296.66044    566819.03    83.443466    82.418754    82.418754 
213000000     587.8671   -157299.33   -154867.79    125.65228    566819.03    83.487887    82.396825    82.396825 
214000000     589.8677   -157276.21    -154836.4    418.39264    566819.03    83.529432    82.376331    82.376331 
215000000    584.21685   -157308.83   -154892.39   -1.4643046    566819.03    83.567936    82.357352    82.357352 
216000000    589.77213   -157277.34   -154837.93    251.96736    566819.03    83.603246    82.339958    82.339958 
217000000    589.63509      -157276   -154837.15    253.64282    566819.03    83.635225    82.324214    82.324214 
218000000    593.11287   -157299.87   -154846.64    283.95905    566819.03    83.663746    82.310181    82.310181 
219000000    586.67203   -157267.78   -154841.19    410.18041    566819.03    83.688695    82.297911    82.297911 
220000000    590.87909   -157289.22   -154845.23    306.64265    566819.03    83.709975     82.28745     82.28745 
221000000    587.23013   -157290.43   -154861.53    108.95648    566819.03    83.727502    82.278837    82.278837 
222000000    593.42918    -157257.7   -154803.16    556.54983    566819.03    83.741206    82.272104    82.272104 
223000000    585.25825   -157285.35   -154864.61    167.20281    566819.03    83.751033    82.267277    82.267277 
224000000     590.1632   -157290.59   -154849.56    261.77703    566819.03    83.756945    82.264374    82.264374 
225000000    592.26651   -157288.53    -154838.8    373.97736    566819.03    83.758919    82.263405    82.263405 
226000000     591.5655   -157290.36   -154843.53    255.75299    566819.03    83.756945    82.264374    82.264374 
227000000    589.12894   -157289.55    -154852.8    264.90375    566819.03    83.751033    82.267277    82.267277 
228000000    590.75862   -157274.79    -154831.3    421.17991    566819.03    83.741206    82.272104    82.272104 
229000000    587.51823   -157306.26   -154876.17    77.833909    566819.03    83.727502    82.278837    82.278837 
230000000    590.64399   -157286.71    -154843.7    240.67461    566819.03    83.709975     82.28745     82.28745 
231000000     584.4139    -157282.6   -154865.35    339.06359    566819.03    83.688695    82.297911    82.297911 
232000000    587.74602   -157291.37   -154860.34     266.1893    566819.03    83.663746    82.310181    82.310181 
233000000    594.63428   -157266.73   -154807.21    418.27758    566819.03    83.635225    82.324214    82.324214 
234000000    591.06394   -157283.35   -154838.59     296.7895    566819.03    83.603246    82.339958    82.339958 
235000000    586.85984   -157307.39   -154880.02   -75.818031    566819.03    83.567936    82.357352    82.357352 
236000000    593.21747   -157289.51   -154835.84    405.40818    566819.03    83.529432    82.376331    82.376331 
237000000    593.86549   -157295.35      -154839    218.65951    566819.03    83.487887    82.396825    82.396825 
238000000    591.16425   -157301.61   -154856.44    298.30885    566819.03    83.443466    82.418754    82.418754 
239000000    590.54133   -157297.26   -154854.66    206.20131    566819.03    83.396343    82.442036    82.442036 
240000000    587.99493   -157291.85   -154859.79    193.45461    566819.03    83.346704    82.466582    82.466582 
241000000    585.28124    -157283.3   -154862.47    175.33162    566819.03    83.294745    82.492299    82.492299 
242000000    588.85335   -157301.92    -154866.3    82.035561    566819.03    83.240672    82.519088    82.519088 
243000000    592.74445   -157323.06   -154871.35    170.43212    566819.03    83.184698    82.546847    82.546847 
244000000    591.26849   -157311.66   -154866.06    263.24122    566819.03    83.127043    82.575468    82.575468 
245000000     589.5662   -157304.62   -154866.06    223.84104    566819.03    83.067936    82.604841    82.604841 
246000000    588.73109   -157311.51   -154876.41    129.66465    566819.03    83.007608    82.634853    82.634853 
247000000    593.64989    -157302.5   -154847.04     287.5011    566819.03      82.9463    82.665387    82.665387 
248000000    588.41791    -157294.2   -154860.39    322.12075    566819.03    82.884252    82.696323    82.696323 
249000000    589.47182   -157324.17      -154886    157.95603    566819.03    82.821709    82.727541    82.727541 
250000000    592.18763   -157307.06   -154857.65     156.5138    566819.03    82.758919    82.758919    82.758919 
251000000    587.82318   -157300.39   -154869.03    269.64446    566819.03    82.696128    82.790332    82.790332 
252000000    591.79861   -157309.92   -154862.12    385.56577    566819.03    82.633585    82.821656    82.821656 
253000000    585.04966   -157290.29   -154870.41    347.33781    566819.03    82.571537    82.852769    82.852769 
254000000    588.35722   -157320.36    -154886.8    -36.36144    566819.03    82.510229    82.883544    82.883544 
255000000    592.58868   -157301.81   -154850.75    340.91304    566819.03    82.449902    82.913861    82.913861 
256000000    591.47835   -157298.83   -154852.36    494.06555    566819.03    82.390794    82.943597    82.943597 
257000000    593.45272   -157296.08   -154841.44    283.36206    566819.03    82.333139    82.972633    82.972633 
258000000    592.10913   -157277.76   -154828.68    397.02388    566819.03    82.277165    83.000852    83.000852 
259000000    589.41088   -157277.76   -154839.84    428.40742    566819.03    82.223092     83.02814     83.02814 
260000000    594.82129   -157288.11   -154827.81    247.97521    566819.03    82.171133    83.054386    83.054386 
261000000    593.30653    -157282.3   -154828.26     394.4291    566819.03    82.121495    83.079484    83.079484 
262000000      588.193   -157275.66   -154842.78    398.89529    566819.03    82.074371     83.10333     83.10333 
263000000     591.9737   -157303.01   -154854.49    156.46871    566819.03     82.02995    83.125829    83.125829 
264000000    592.46599   -157273.29   -154822.74    377.40862    566819.03    81.988405    83.146886    83.146886 
265000000    596.02489   -157298.11   -154832.84    215.51092    566819.03    81.949902    83.166417    83.166417 
266000000    587.19644   -157277.59   -154848.83    368.48828    566819.03    81.914591     83.18434     83.18434 
267000000    591.04773   -157288.67   -154843.98    180.46349    566819.03    81.882612    83.200582    83.200582 
268000000     590.7891   -157266.01    -154822.4    442.10604    566819.03    81.854091    83.215076    83.215076 
269000000     591.9934   -157280.96   -154832.36    445.49358    566819.03    81.829142    83.227761    83.227761 
270000000    588.61046   -157272.67   -154838.06     231.6785    566819.03    81.807862    83.238585    83.238585 
271000000    589.86435   -157300.93   -154861.14    246.91502    566819.03    81.790335    83.247503    83.247503 
272000000    592.05897   -157278.29   -154829.42    395.82006    566819.03    81.776631    83.254478    83.254478 
273000000    595.78022      -157305   -154840.74     201.7971    566819.03    81.766804    83.259481    83.259481 
274000000    591.44166   -157266.56   -154820.24    273.76198    566819.03    81.760892    83.262491    83.262491 
275000000    590.08868   -157289.33   -154848.61    200.84886    566819.03    81.758919    83.263496    83.263496 
276000000    589.20516   -157273.85   -154836.79    385.76212    566819.03    81.760892    83.262491    83.262491 
277000000    590.85339   -157287.77   -154843.89    308.59699    566819.03    81.766804    83.259481    83.259481 
278000000    586.23962   -157271.34   -154846.54    174.01116    566819.03    81.776631    83.254478    83.254478 
279000000    586.74774   -157278.26   -154851.35    370.75266    566819.03    81.790335    83.247503    83.247503 
280000000    592.23788    -157286.9   -154837.29    344.10719    566819.03    81.807862    83.238585    83.238585 
281000000    590.76129   -157292.67   -154849.16    174.04124    566819.03    81.829142    83.227761    83.227761 
282000000    593.96225   -157262.18   -154805.43    344.64694    566819.03    81.854091    83.215076    83.215076 
283000000    586.96156   -157284.79      -154857    246.12983    566819.03    81.882612    83.200582    83.200582 
284000000    591.77308   -157286.49    -154838.8    305.63458    566819.03    81.914591     83.18434     83.18434 
285000000    595.35541   -157299.72   -154837.21    280.15213    566819.03    81.949902    83.166417    83.166417 
286000000    590.37648   -157296.53   -154854.61    144.69837    566819.03    81.988405    83.146886    83.146886 
287000000     589.1274   -157298.27   -154861.52    196.30448    566819.03     82.02995    83.125829    83.125829 
288000000    589.18818   -157276.52   -154839.52    320.89803    566819.03    82.074371     83.10333     83.10333 
289000000    591.04179   -157287.26   -154842.59    332.73398    566819.03    82.121495    83.079484    83.079484 
290000000    589.21219   -157278.72   -154841.62    340.00186    566819.03    82.171133    83.054386    83.054386 
291000000    590.42003   -157299.35   -154857.26    170.10153    566819.03    82.223092     83.02814     83.02814 
292000000    592.36014   -157294.65   -154844.54    290.60762    566819.03    82.277165    83.000852    83.000852 
293000000    593.61199    -157309.7    -154854.4    80.916125    566819.03    82.333139    82.972633    82.972633 
294000000    591.24295   -157297.89   -154852.39    79.770659    566819.03    82.390794    82.943597    82.943597 
295000000    590.26122   -157282.28   -154840.84    294.83784    566819.03    82.449902    82.913861    82.913861 
296000000    595.21071   -157283.31    -154821.4    464.88427    566819.03    82.510229    82.883544    82.883544 
297000000    592.88298   -157289.45   -154837.17    352.01748    566819.03    82.571537    82.852769    82.852769 
298000000    588.25305   -157300.16   -154867.03    212.48681    566819.03    82.633585    82.821656    82.821656 
299000000    588.30659   -157305.14   -154871.78     244.2405    566819.03    82.696128    82.790332    82.790332 
300000000    590.88356   -157290.72   -154846.71    315.41093    566819.03    82.758919    82.758919    82.758919 
301000000    588.98692   -157283.98   -154847.82    299.78312    566819.03    82.821709    82.727541    82.727541 
302000000    587.64919   -157309.28   -154878.64    68.745536    566819.03    82.884252    82.696323    82.696323 
303000000    588.20329   -157286.46   -154853.54     245.6188    566819.03      82.9463    82.665387    82.665387 
304000000     586.7761   -157290.26   -154863.24    282.53834    566819.03    83.007608    82.634853    82.634853 
305000000     589.2018   -157289.39   -154852.34    462.11157    566819.03    83.067936    82.604841    82.604841 
306000000    587.85245   -157269.34   -154837.87    368.05705    566819.03    83.127043    82.575468    82.575468 
307000000    586.27277   -157308.71   -154883.77     290.1186    566819.03    83.184698    82.546847    82.546847 
308000000    593.39131   -157274.65   -154820.26    602.87157    566819.03    83.240672    82.519088    82.519088 
309000000    592.40405      -157296    -154845.7    296.14021    566819.03    83.294745    82.492299    82.492299 
310000000    586.10587   -157296.33   -154872.08     299.8289    566819.03    83.346704    82.466582    82.466582 
311000000    590.75682   -157286.07   -154842.59    315.36611    566819.03    83.396343    82.442036    82.442036 
312000000     590.2652   -157311.56   -154870.11    22.492281    566819.03    83.443466    82.418754    82.418754 
313000000    587.74231   -157287.27   -154856.26    200.17036    566819.03    83.487887    82.396825    82.396825 
314000000     588.1188   -157280.45   -154847.88     298.6563    566819.03    83.529432    82.376331    82.376331 
315000000    591.59865   -157288.45   -154841.48    320.80184    566819.03    83.567936    82.357352    82.357352 
316000000    592.25041   -157286.66      -154837    184.13207    566819.03    83.603246    82.339958    82.339958 
317000000    587.88099    -157278.3   -154846.71     232.3685    566819.03    83.635225    82.324214    82.324214 
318000000    591.54645   -157314.93   -154868.18     180.5778    566819.03    83.663746    82.310181    82.310181 
319000000    591.45619   -157312.03   -154865.65    196.48037    566819.03    83.688695    82.297911    82.297911 
320000000     588.9817   -157269.99   -154833.85    312.65915    566819.03    83.709975     82.28745     82.28745 
321000000    588.76699   -157292.26      -154857    300.74192    566819.03    83.727502    82.278837    82.278837 
322000000    590.84915   -157276.82   -154832.96    176.62848    566819.03    83.741206    82.272104    82.272104 
323000000    588.94696   -157274.92   -154838.92    374.35353    566819.03    83.751033    82.267277    82.267277 
324000000    594.26218   -157289.53   -154831.55    139.75133    566819.03    83.756945    82.264374    82.264374 
325000000    592.98666   -157270.82   -154818.11    351.55995    566819.03    83.758919    82.263405    82.263405 
326000000    592.85308   -157299.51   -154847.35    100.10119    566819.03    83.756945    82.264374    82.264374 
327000000    589.20658    -157263.5   -154826.43    256.00671    566819.03    83.751033    82.267277    82.267277 
328000000    585.02195   -157288.48   -154868.71    143.14289    566819.03    83.741206    82.272104    82.272104 
329000000    594.88462   -157310.91   -154850.35    241.81839    566819.03    83.727502    82.278837    82.278837 
330000000    591.58765   -157293.41   -154846.49    122.37993    566819.03    83.709975     82.28745     82.28745 
331000000     591.6214   -157305.07   -154858.01    366.51919    566819.03    83.688695    82.297911    82.297911 
332000000    590.18952   -157293.07   -154851.93    328.29639    566819.03    83.663746    82.310181    82.310181 
333000000    590.58194   -157306.82   -154864.06    191.59157    566819.03    83.635225    82.324214    82.324214 
334000000    587.71816   -157303.38   -154872.46    131.09102    566819.03    83.603246    82.339958    82.339958 
335000000    591.69113   -157303.28   -154855.93    192.47922    566819.03    83.567936    82.357352    82.357352 
336000000     590.6897   -157297.98   -154854.77    208.76132    566819.03    83.529432    82.376331    82.376331 
337000000    595.95016   -157273.28   -154808.32    383.27757    566819.03    83.487887    82.396825    82.396825 
338000000    588.43372   -157308.91   -154875.04    34.727537    566819.03    83.443466    82.418754    82.418754 
339000000    590.58053   -157292.38   -154849.63    296.21304    566819.03    83.396343    82.442036    82.442036 
340000000    592.94336    -157304.3   -154851.77    47.913827    566819.03    83.346704    82.466582    82.466582 
341000000    591.37582   -157298.45   -154852.41    223.54696    566819.03    83.294745    82.492299    82.492299 
342000000    587.12812   -157328.92   -154900.44   -7.7254419    566819.03    83.240672    82.519088    82.519088 
343000000    592.73262   -157285.45   -154833.79    312.42383    566819.03    83.184698    82.546847    82.546847 
344000000    593.14822   -157311.85   -154858.48    44.314249    566819.03    83.127043    82.575468    82.575468 
345000000    595.96517   -157308.45   -154843.42    223.67246    566819.03    83.067936    82.604841    82.604841 
346000000    591.24756   -157285.98   -154840.47    208.52705    566819.03    83.007608    82.634853    82.634853 
347000000    586.35177   -157287.86   -154862.59    60.953512    566819.03      82.9463    82.665387    82.665387 
348000000    587.46878   -157286.39   -154856.51    203.32224    566819.03    82.884252    82.696323    82.696323 
349000000    586.74015   -157304.71   -154877.83     32.87854    566819.03    82.821709    82.727541    82.727541 
350000000    586.56883   -157306.07   -154879.91    132.85654    566819.03    82.758919    82.758919    82.758919 
351000000    590.13282   -157295.35   -154854.44    348.55093    566819.03    82.696128    82.790332    82.790332 
352000000    586.89104   -157277.14   -154849.64    378.85628    566819.03    82.633585    82.821656    82.821656 
353000000    590.95835   -157302.42   -154858.11    99.189617    566819.03    82.571537    82.852769    82.852769 
354000000    586.40101   -157296.37    -154870.9    215.09484    566819.03    82.510229    82.883544    82.883544 
355000000    591.66237   -157302.09   -154854.86    189.81255    566819.03    82.449902    82.913861    82.913861 
356000000    591.76685   -157309.74   -154862.08    240.08984    566819.03    82.390794    82.943597    82.943597 
357000000     591.1532   -157313.68   -154868.56    138.51589    566819.03    82.333139    82.972633    82.972633 
358000000    586.93331   -157290.74   -154863.07    95.732769    566819.03    82.277165    83.000852    83.000852 
359000000    592.92954   -157293.47   -154840.99    136.53101    566819.03    82.223092     83.02814     83.02814 
360000000    586.09078   -157288.69    -154864.5    345.51419    566819.03    82.171133    83.054386    83.054386 
361000000    586.47249   -157301.15   -154875.38     74.51329    566819.03    82.121495    83.079484    83.079484 
362000000    582.58417   -157284.06   -154874.38    222.01337    566819.03    82.074371     83.10333     83.10333 
363000000    587.00492   -157295.69   -154867.73    244.65049    566819.03     82.02995    83.125829    83.125829 
364000000    586.06516   -157299.86   -154875.78    101.68248    566819.03    81.988405    83.146886    83.146886 
365000000    584.63639   -157294.07    -154875.9    212.78922    566819.03    81.949902    83.166417    83.166417 
366000000     586.2193   -157311.82    -154887.1     33.44656    566819.03    81.914591     83.18434     83.18434 
367000000    587.89475    -157282.3   -154850.66    130.65673    566819.03    81.882612    83.200582    83.200582 
368000000    593.83074      -157273    -154816.8    368.62204    566819.03    81.854091    83.215076    83.215076 
369000000    588.83648   -157288.68   -154853.14    219.12344    566819.03    81.829142    83.227761    83.227761 
370000000    585.86278   -157285.21   -154861.96    176.42812    566819.03    81.807862    83.238585    83.238585 
371000000    588.34424   -157287.75   -154854.25    301.70187    566819.03    81.790335    83.247503    83.247503 
372000000    590.88005   -157283.97   -154839.98    442.78388    566819.03    81.776631    83.254478    83.254478 
373000000    592.48027   -157276.52   -154825.91    523.97725    566819.03    81.766804    83.259481    83.259481 
374000000    591.10343   -157307.16   -154862.24    195.69737    566819.03    81.760892    83.262491    83.262491 
375000000    591.76035   -157301.95   -154854.31    58.090158    566819.03    81.758919    83.263496    83.263496 
376000000     592.8812    -157284.5   -154832.23    362.79165    566819.03    81.760892    83.262491    83.262491 
377000000    590.76496    -157293.7   -154850.18    196.50718    566819.03    81.766804    83.259481    83.259481 
378000000    590.48456   -157293.64   -154851.28    407.62069    566819.03    81.776631    83.254478    83.254478 
379000000    590.79886   -157293.59   -154849.93    68.102603    566819.03    81.790335    83.247503    83.247503 
380000000    592.91142   -157297.28   -154844.88    376.18864    566819.03    81.807862    83.238585    83.238585 
381000000     589.0124   -157272.21   -154835.94    309.83206    566819.03    81.829142    83.227761    83.227761 
382000000    590.39589   -157299.14   -154857.15     316.8114    566819.03    81.854091    83.215076    83.215076 
383000000    590.23909   -157302.17   -154860.82    222.41238    566819.03    81.882612    83.200582    83.200582 
384000000    594.34753   -157303.91   -154845.57    167.31614    566819.03    81.914591     83.18434     83.18434 
385000000    588.52409   -157291.93   -154857.68    211.32138    566819.03    81.949902    83.166417    83.166417 
386000000    589.88173   -157290.25   -154850.39    237.04771    566819.03    81.988405    83.146886    83.146886 
387000000    585.80808   -157289.97   -154866.95    283.94191    566819.03     82.02995    83.125829    83.125829 
388000000    590.65974   -157307.12   -154864.04    216.30761    566819.03    82.074371     83.10333     83.10333 
389000000    588.13115    -157290.9   -154858.27    155.95516    566819.03    82.121495    83.079484    83.079484 
390000000    592.21694   -157315.39   -154865.86    187.87182    566819.03    82.171133    83.054386    83.054386 
391000000    587.56238   -157315.74   -154885.47    73.736252    566819.03    82.223092     83.02814     83.02814 
392000000     589.3413   -157292.95   -154855.32    309.36796    566819.03    82.277165    83.000852    83.000852 
393000000    586.26781   -157295.92      -154871     189.5675    566819.03    82.333139    82.972633    82.972633 
394000000    592.50877   -157314.41   -154863.68      190.464    566819.03    82.390794    82.943597    82.943597 
395000000     592.4071   -157319.02   -154868.71    28.961059    566819.03    82.449902    82.913861    82.913861 
396000000    589.57841   -157297.83   -154859.21    167.76236    566819.03    82.510229    82.883544    82.883544 
397000000    591.05422   -157296.71   -154851.99    386.84773    566819.03    82.571537    82.852769    82.852769 
398000000     585.5742   -157297.34   -154875.29    223.09202    566819.03    82.633585    82.821656    82.821656 
399000000    588.15128   -157310.17   -154877.46    169.97153    566819.03    82.696128    82.790332    82.790332 
400000000    592.32487   -157305.49   -154855.51    175.39415    566819.03    82.758919    82.758919    82.758919 
401000000    593.02181   -157305.75    -154852.9    100.79678    566819.03    82.821709    82.727541    82.727541 
402000000    588.87891   -157312.04   -154876.32    306.52144    566819.03    82.884252    82.696323    82.696323 
403000000    585.00071   -157319.89   -154900.21    77.336377    566819.03      82.9463    82.665387    82.665387 
404000000     589.6618   -157322.58   -154883.62    198.88788    566819.03    83.007608    82.634853    82.634853 
405000000    591.10735   -157311.41   -154866.48    147.90339    566819.03    83.067936    82.604841    82.604841 
406000000    590.32302   -157302.14   -154860.44    255.19416    566819.03    83.127043    82.575468    82.575468 
407000000    588.45603   -157317.52   -154883.55    192.50098    566819.03    83.184698    82.546847    82.546847 
408000000    591.90472   -157288.41   -154840.18    346.87156    566819.03    83.240672    82.519088    82.519088 
409000000    588.62983    -157299.8   -154865.11    173.46947    566819.03    83.294745    82.492299    82.492299 
410000000    589.36712   -157298.38   -154860.64    300.25256    566819.03    83.346704    82.466582    82.466582 
411000000    586.53486   -157306.21   -154880.19   -13.213952    566819.03    83.396343    82.442036    82.442036 
412000000    586.15008   -157289.71   -154865.28    359.41173    566819.03    83.443466    82.418754    82.418754 
413000000    586.02291   -157304.85   -154880.95    194.40854    566819.03    83.487887    82.396825    82.396825 
414000000    591.48376   -157269.91   -154823.42     519.6307    566819.03    83.529432    82.376331    82.376331 
415000000    592.74026   -157290.88   -154839.19    401.12947    566819.03    83.567936    82.357352    82.357352 
416000000    590.14543   -157304.17   -154863.21    164.75269    566819.03    83.603246    82.339958    82.339958 
417000000    591.05062   -157308.38   -154863.68    298.72061    566819.03    83.635225    82.324214    82.324214 
418000000    589.96006   -157320.04   -154879.85    296.05291    566819.03    83.663746    82.310181    82.310181 
419000000    590.49512   -157301.98   -154859.58     180.5627    566819.03    83.688695    82.297911    82.297911 
420000000    587.11437   -157279.93   -154851.51    291.33649    566819.03    83.709975     82.28745     82.28745 
421000000    592.42118    -157273.5   -154823.13    445.81892    566819.03    83.727502    82.278837    82.278837 
422000000    586.60206   -157298.74   -154872.44    159.24926    566819.03    83.741206    82.272104    82.272104 
423000000    592.66691   -157313.72   -154862.33    161.32909    566819.03    83.751033    82.267277    82.267277 
424000000    593.28208   -157294.81   -154840.88    329.29778    566819.03    83.756945    82.264374    82.264374 
425000000     589.5009   -157281.72   -154843.43    344.44214    566819.03    83.758919    82.263405    82.263405 
426000000    588.14782   -157312.53   -154879.83    128.49228    566819.03    83.756945    82.264374    82.264374 
427000000    589.74605   -157317.32   -154878.01    122.72617    566819.03    83.751033    82.267277    82.267277 
428000000    591.78051   -157325.14   -154877.42    91.918919    566819.03    83.741206    82.272104    82.272104 
429000000    589.09274   -157288.29   -154851.68    362.98048    566819.03    83.727502    82.278837    82.278837 
430000000    584.51568   -157298.39   -154880.72    293.70359    566819.03    83.709975     82.28745     82.28745 
431000000    588.39741   -157296.67   -154862.95    209.13017    566819.03    83.688695    82.297911    82.297911 
432000000    587.64842    -157317.1   -154886.47    107.78945    566819.03    83.663746    82.310181    82.310181 
433000000    587.21147   -157307.85   -154879.02    133.73481    566819.03    83.635225    82.324214    82.324214 
434000000     587.2269   -157314.77   -154885.89    85.632488    566819.03    83.603246    82.339958    82.339958 
435000000    590.93847   -157295.01   -154850.77    214.73747    566819.03    83.567936    82.357352    82.357352 
436000000    586.78738   -157294.56   -154867.49    215.00292    566819.03    83.529432    82.376331    82.376331 
437000000    585.38703   -157310.17    -154888.9    237.84875    566819.03    83.487887    82.396825    82.396825 
438000000    588.95779   -157285.46   -154849.42    370.58403    566819.03    83.443466    82.418754    82.418754 
439000000    594.07665    -157305.8   -154848.59    273.24419    566819.03    83.396343    82.442036    82.442036 
440000000     592.1428   -157302.16   -154852.95    281.75539    566819.03    83.346704    82.466582    82.466582 
441000000    592.71372   -157304.04   -154852.46    286.71582    566819.03    83.294745    82.492299    82.492299 
442000000    592.15829   -157314.42   -154865.13    160.20422    566819.03    83.240672    82.519088    82.519088 
443000000    589.16834   -157295.51    -154858.6    220.99009    566819.03    83.184698    82.546847    82.546847 
444000000    588.64907   -157299.98   -154865.21    144.34663    566819.03    83.127043    82.575468    82.575468 
445000000    590.69256   -157325.53   -154882.31   -63.610219    566819.03    83.067936    82.604841    82.604841 
446000000    584.85469   -157286.29   -154867.22    286.03158    566819.03    83.007608    82.634853    82.634853 
447000000    593.43432    -157299.3   -154844.74    257.42339    566819.03      82.9463    82.665387    82.665387 
448000000    589.57841   -157294.01   -154855.39    185.85416    566819.03    82.884252    82.696323    82.696323 
449000000    590.86646   -157301.99   -154858.05    252.28081    566819.03    82.821709    82.727541    82.727541 
450000000    589.72391   -157306.21      -154867    170.52909    566819.03    82.758919    82.758919    82.758919 
451000000    595.45506   -157296.57   -154833.65    361.13026    566819.03    82.696128    82.790332    82.790332 
452000000    584.55138   -157312.73   -154894.91    33.558402    566819.03    82.633585    82.821656    82.821656 
453000000    592.96703   -157311.02   -154858.39    303.50448    566819.03    82.571537    82.852769    82.852769 
454000000     593.1223   -157316.13   -154862.86    124.88649    566819.03    82.510229    82.883544    82.883544 
455000000    589.66783   -157295.45   -154856.46    324.99395    566819.03    82.449902    82.913861    82.913861 
456000000    587.39996   -157316.16   -154886.56    120.22188    566819.03    82.390794    82.943597    82.943597 
457000000    587.82574   -157291.68   -154860.32    325.75954    566819.03    82.333139    82.972633    82.972633 
458000000    589.05562   -157299.71   -154863.26    223.75668    566819.03    82.277165    83.000852    83.000852 
459000000     590.2141   -157312.01   -154870.77    223.22608    566819.03    82.223092     83.02814     83.02814 
460000000    590.40065   -157287.64   -154845.63    289.64453    566819.03    82.171133    83.054386    83.054386 
461000000    588.11757   -157297.03   -154864.46    307.41694    566819.03    82.121495    83.079484    83.079484 
462000000     589.0044   -157301.17   -154864.94    212.76991    566819.03    82.074371     83.10333     83.10333 
463000000    592.50354   -157292.88   -154842.17    331.30882    566819.03     82.02995    83.125829    83.125829 
464000000    589.76457   -157307.21   -154867.83    231.82198    566819.03    81.988405    83.146886    83.146886 
465000000      593.665   -157303.43   -154847.92    171.43793    566819.03    81.949902    83.166417    83.166417 
466000000    587.71815   -157307.99   -154877.07    205.89941    566819.03    81.914591     83.18434     83.18434 
467000000    585.07088   -157285.52   -154865.56    303.20314    566819.03    81.882612    83.200582    83.200582 
468000000     591.0574    -157288.7   -154843.97    249.29298    566819.03    81.854091    83.215076    83.215076 
469000000    591.71857    -157265.1   -154817.63    511.26716    566819.03    81.829142    83.227761    83.227761 
470000000    586.14906   -157288.02   -154863.59    298.83425    566819.03    81.807862    83.238585    83.238585 
471000000    592.48323   -157275.38   -154824.75     346.2032    566819.03    81.790335    83.247503    83.247503 
472000000    592.29199   -157290.49   -154840.65    466.26449    566819.03    81.776631    83.254478    83.254478 
473000000    586.93192   -157291.12   -154863.46    189.86946    566819.03    81.766804    83.259481    83.259481 
474000000    588.79046   -157282.73   -154847.37    380.03101    566819.03    81.760892    83.262491    83.262491 
475000000    589.42476   -157276.54   -154838.56    405.24875    566819.03    81.758919    83.263496    83.263496 
476000000    587.81604   -157285.53    -154854.2    312.44226    566819.03    81.760892    83.262491    83.262491 
477000000    591.31838   -157288.27   -154842.46    471.27241    566819.03    81.766804    83.259481    83.259481 
478000000    599.91725    -157293.1   -154811.73    215.57142    566819.03    81.776631    83.254478    83.254478 
479000000    590.36069   -157289.72   -154847.87     343.2057    566819.03    81.790335    83.247503    83.247503 
480000000    590.03966   -157281.65   -154841.13    233.82167    566819.03    81.807862    83.238585    83.238585 
481000000    583.95939   -157319.05   -154903.68   -49.674836    566819.03    81.829142    83.227761    83.227761 
482000000    589.28085    -157289.8   -154852.42    396.13473    566819.03    81.854091    83.215076    83.215076 
483000000    592.93688   -157309.47   -154856.97    167.36697    566819.03    81.882612    83.200582    83.200582 
484000000    591.76247    -157299.9   -154852.25    226.59827    566819.03    81.914591     83.18434     83.18434 
485000000    593.17226   -157277.48      -154824    350.81693    566819.03    81.949902    83.166417    83.166417 
486000000    589.61449   -157318.71   -154879.95   -50.379092    566819.03    81.988405    83.146886    83.146886 
487000000    588.81275   -157286.96   -154851.51     252.8573    566819.03     82.02995    83.125829    83.125829 
488000000    592.33187   -157305.33   -154855.33    58.979819    566819.03    82.074371     83.10333     83.10333 
489000000    592.58894   -157317.35   -154866.29    52.848903    566819.03    82.121495    83.079484    83.079484 
490000000    590.07222   -157313.62   -154872.97    93.971863    566819.03    82.171133    83.054386    83.054386 
491000000    584.00312   -157285.97   -154870.42    154.97848    566819.03    82.223092     83.02814     83.02814 
492000000    590.19797   -157285.31   -154844.14    216.95601    566819.03    82.277165    83.000852    83.000852 
493000000    588.99074   -157316.07   -154879.89    52.142087    566819.03    82.333139    82.972633    82.972633 
494000000    589.01175   -157302.01   -154865.75      150.108    566819.03    82.390794    82.943597    82.943597 
495000000    591.03953   -157330.16    -154885.5   -102.10392    566819.03    82.449902    82.913861    82.913861 
496000000    583.33313   -157299.27   -154886.49    294.89416    566819.03    82.510229    82.883544    82.883544 
497000000    588.57479   -157310.25   -154875.79    119.20038    566819.03    82.571537    82.852769    82.852769 
498000000    590.72869   -157315.09   -154871.72    44.970837    566819.03    82.633585    82.821656    82.821656 
499000000    589.64733   -157325.77   -154886.88   -68.718018    566819.03    82.696128    82.790332    82.790332 
500000000    590.87176   -157323.43   -154879.47     68.76142    566819.03    82.758919    82.758919    82.758919 
501000000    588.47012   -157293.82   -154859.79    278.48856    566819.03    82.821709    82.727541    82.727541 
502000000    589.80469   -157304.37   -154864.82    271.22442    566819.03    82.884252    82.696323    82.696323 
503000000    589.67842   -157309.44   -154870.41    163.82478    566819.03      82.9463    82.665387    82.665387 
504000000    589.39519   -157309.09   -154871.24     106.8346    566819.03    83.007608    82.634853    82.634853 
505000000    589.56398   -157293.99   -154855.44    317.65776    566819.03    83.067936    82.604841    82.604841 
506000000    588.25732    -157303.5   -154870.35    296.42136    566819.03    83.127043    82.575468    82.575468 
507000000    588.13404   -157290.54    -154857.9    297.28162    566819.03    83.184698    82.546847    82.546847 
508000000    587.79142   -157306.16   -154874.94    215.11763    566819.03    83.240672    82.519088    82.519088 
509000000    591.76362   -157309.58   -154861.93    271.67012    566819.03    83.294745    82.492299    82.492299 
510000000    587.71331   -157279.03   -154848.14    242.83007    566819.03    83.346704    82.466582    82.466582 
511000000     595.5233   -157288.92   -154825.72     289.9993    566819.03    83.396343    82.442036    82.442036 
512000000    583.87829   -157313.89   -154898.86    104.25225    566819.03    83.443466    82.418754    82.418754 
513000000    591.90045   -157319.65   -154871.43     127.3557    566819.03    83.487887    82.396825    82.396825 
514000000    590.28487    -157314.8   -154873.26    34.645032    566819.03    83.529432    82.376331    82.376331 
515000000     586.2704   -157326.51   -154901.58    73.553819    566819.03    83.567936    82.357352    82.357352 
516000000    590.78738   -157318.46   -154874.85    225.97587    566819.03    83.603246    82.339958    82.339958 
517000000    591.58508   -157312.48   -154865.57      284.945    566819.03    83.635225    82.324214    82.324214 
518000000    588.77711   -157309.79   -154874.49    162.62427    566819.03    83.663746    82.310181    82.310181 
519000000    591.02104   -157308.48    -154863.9    183.41199    566819.03    83.688695    82.297911    82.297911 
520000000    583.91527   -157297.93   -154882.74    255.68429    566819.03    83.709975     82.28745     82.28745 
521000000    586.61236   -157311.51   -154885.17    139.46358    566819.03    83.727502    82.278837    82.278837 
522000000    593.65785   -157308.73   -154853.24    186.86667    566819.03    83.741206    82.272104    82.272104 
523000000    588.65489   -157297.32   -154862.53    317.08189    566819.03    83.751033    82.267277    82.267277 
524000000    588.70255   -157310.63   -154875.65    5.7852444    566819.03    83.756945    82.264374    82.264374 
525000000     592.0581   -157300.87      -154852    246.36323    566819.03    83.758919    82.263405    82.263405 
526000000    589.49126   -157301.57   -154863.32    217.30172    566819.03    83.756945    82.264374    82.264374 
527000000    590.27998   -157305.35   -154863.84    176.57733    566819.03    83.751033    82.267277    82.267277 
528000000    588.73629   -157304.52    -154869.4    61.101762    566819.03    83.741206    82.272104    82.272104 
529000000     592.9471   -157298.81   -154846.27    194.11858    566819.03    83.727502    82.278837    82.278837 
530000000    592.18235    -157291.5   -154842.12    299.99392    566819.03    83.709975     82.28745     82.28745 
531000000    593.33399   -157324.78   -154870.63      207.782    566819.03    83.688695    82.297911    82.297911 
532000000     594.9505    -157305.3   -154844.47    225.34489    566819.03    83.663746    82.310181    82.310181 
533000000    591.48768   -157309.72   -154863.21    60.980285    566819.03    83.635225    82.324214    82.324214 
534000000    591.64209   -157296.18   -154849.04    206.34268    566819.03    83.603246    82.339958    82.339958 
535000000    589.58059   -157295.17   -154856.55    327.14733    566819.03    83.567936    82.357352    82.357352 
536000000    584.90466   -157291.06   -154871.78      175.097    566819.03    83.529432    82.376331    82.376331 
537000000    583.79792   -157307.47   -154892.77     56.37713    566819.03    83.487887    82.396825    82.396825 
538000000    587.72331   -157293.04    -154862.1    196.10413    566819.03    83.443466    82.418754    82.418754 
539000000    590.52277   -157348.36   -154905.84   -232.89084    566819.03    83.396343    82.442036    82.442036 
540000000    590.90634   -157292.78   -154848.68    153.66059    566819.03    83.346704    82.466582    82.466582 
541000000    585.68198   -157301.56   -154879.07    188.46619    566819.03    83.294745    82.492299    82.492299 
542000000    587.25259   -157313.49   -154884.49    224.00203    566819.03    83.240672    82.519088    82.519088 
543000000    585.28188   -157305.34    -154884.5    67.589852    566819.03    83.184698    82.546847    82.546847 
544000000    588.70536   -157325.57   -154890.57    11.515789    566819.03    83.127043    82.575468    82.575468 
545000000    592.37677   -157300.99    -154850.8    190.68285    566819.03    83.067936    82.604841    82.604841 
546000000    590.10761   -157313.55   -154872.75    94.783392    566819.03    83.007608    82.634853    82.634853 
547000000    587.65931   -157328.29   -154897.61    40.198878    566819.03      82.9463    82.665387    82.665387 
548000000    591.01298   -157332.03   -154887.48     34.50667    566819.03    82.884252    82.696323    82.696323 
549000000    588.98826   -157311.38   -154875.21    182.95498    566819.03    82.821709    82.727541    82.727541 
550000000    589.74214   -157305.48   -154866.19    220.57957    566819.03    82.758919    82.758919    82.758919 
551000000     587.0974   -157326.23   -154897.88   -13.093745    566819.03    82.696128    82.790332    82.790332 
552000000    589.66497   -157288.04   -154849.07    351.19341    566819.03    82.633585    82.821656    82.821656 
553000000    589.82672   -157318.85   -154879.22    181.56245    566819.03    82.571537    82.852769    82.852769 
554000000    593.11289   -157308.12   -154854.89    244.98653    566819.03    82.510229    82.883544    82.883544 
555000000    594.53087   -157333.62   -154874.53    49.670287    566819.03    82.449902    82.913861    82.913861 
556000000    590.32545   -157305.69   -154863.99    149.18059    566819.03    82.390794    82.943597    82.943597 
557000000    585.34467   -157292.05   -154870.95    252.22638    566819.03    82.333139    82.972633    82.972633 
558000000    586.60944   -157310.54   -154884.21    167.31698    566819.03    82.277165    83.000852    83.000852 
559000000    590.05968   -157320.65   -154880.05    17.802207    566819.03    82.223092     83.02814     83.02814 
560000000    590.28843   -157299.51   -154857.96    143.05615    566819.03    82.171133    83.054386    83.054386 
561000000    592.33646   -157327.46   -154877.44    59.825221    566819.03    82.121495    83.079484    83.079484 
562000000    589.17564   -157311.09   -154874.14     243.8517    566819.03    82.074371     83.10333     83.10333 
563000000    588.58481   -157312.69   -154878.19    105.48923    566819.03     82.02995    83.125829    83.125829 
564000000    588.63679   -157324.18   -154889.46    35.102928    566819.03    81.988405    83.146886    83.146886 
565000000    592.66965   -157313.26   -154861.87    106.24991    566819.03    81.949902    83.166417    83.166417 
566000000    588.97435   -157300.37   -154864.25    118.49109    566819.03    81.914591     83.18434     83.18434 
567000000    590.02065   -157304.06   -154863.62    40.764575    566819.03    81.882612    83.200582    83.200582 
568000000    590.08456   -157311.75   -154871.05    128.78327    566819.03    81.854091    83.215076    83.215076 
569000000    590.03468   -157322.43   -154881.93    83.684802    566819.03    81.829142    83.227761    83.227761 
570000000    593.54558   -157308.67   -154853.65    79.460013    566819.03    81.807862    83.238585    83.238585 
571000000    589.58376   -157287.03   -154848.39    375.76339    566819.03    81.790335    83.247503    83.247503 
572000000     587.2723      -157308   -154878.93    114.34583    566819.03    81.776631    83.254478    83.254478 
573000000    590.61204   -157320.53   -154877.64    159.29466    566819.03    81.766804    83.259481    83.259481 
574000000     592.4851   -157309.91   -154859.28    139.49196    566819.03    81.760892    83.262491    83.262491 
575000000    587.23542   -157319.07   -154890.15    174.38379    566819.03    81.758919    83.263496    83.263496 
576000000    590.97499   -157293.36   -154848.97    166.82321    566819.03    81.760892    83.262491    83.262491 
577000000     588.2089   -157280.94   -154847.99    272.35058    566819.03    81.766804    83.259481    83.259481 
578000000    590.67374   -157291.54    -154848.4    293.57272    566819.03    81.776631    83.254478    83.254478 
579000000    587.36043   -157279.83   -154850.39    359.09446    566819.03    81.790335    83.247503    83.247503 
580000000    588.19075   -157317.83   -154884.95    208.49249    566819.03    81.807862    83.238585    83.238585 
581000000    590.74197   -157322.18   -154878.76    205.42433    566819.03    81.829142    83.227761    83.227761 
582000000    589.58886   -157299.31   -154860.65    378.39651    566819.03    81.854091    83.215076    83.215076 
583000000    592.02466   -157300.47   -154851.75    331.13895    566819.03    81.882612    83.200582    83.200582 
584000000    587.41539   -157307.51   -154877.84    95.446483    566819.03    81.914591     83.18434     83.18434 
585000000     591.8142   -157287.54   -154839.68    265.04383    566819.03    81.949902    83.166417    83.166417 
586000000    595.38661   -157317.44    -154854.8    165.56407    566819.03    81.988405    83.146886    83.146886 
587000000    586.80866   -157305.88   -154878.72   -58.548927    566819.03     82.02995    83.125829    83.125829 
588000000    591.13739   -157291.34   -154846.28    293.39949    566819.03    82.074371     83.10333     83.10333 
589000000    588.69251   -157319.14    -154884.2    280.32802    566819.03    82.121495    83.079484    83.079484 
590000000    591.38122   -157306.52   -154860.45    139.82764    566819.03    82.171133    83.054386    83.054386 
591000000    585.76464   -157301.84      -154879    119.98406    566819.03    82.223092     83.02814     83.02814 
592000000    590.03812   -157311.95   -154871.44    140.51218    566819.03    82.277165    83.000852    83.000852 
593000000    591.10288    -157327.8   -154882.88    161.00704    566819.03    82.333139    82.972633    82.972633 
594000000    589.81413   -157325.13   -154885.55    106.22573    566819.03    82.390794    82.943597    82.943597 
595000000    592.91883    -157304.2   -154851.77    231.60193    566819.03    82.449902    82.913861    82.913861 
596000000    589.10298   -157325.99   -154889.35    102.45289    566819.03    82.510229    82.883544    82.883544 
597000000    590.82033   -157312.04   -154868.29    -42.47358    566819.03    82.571537    82.852769    82.852769 
598000000    589.68103   -157321.21   -154882.18    19.096939    566819.03    82.633585    82.821656    82.821656 
599000000      591.871   -157317.65   -154869.55    85.401185    566819.03    82.696128    82.790332    82.790332 
600000000    589.70167   -157296.51   -154857.39    358.99333    566819.03    82.758919    82.758919    82.758919 
601000000    585.00755   -157308.77   -154889.07    46.333137    566819.03    82.821709    82.727541    82.727541 
602000000    586.96154   -157322.82   -154895.03    86.029993    566819.03    82.884252    82.696323    82.696323 
603000000    583.84944   -157326.56   -154911.65   -5.4628706    566819.03      82.9463    82.665387    82.665387 
604000000    588.64072   -157327.58   -154892.85    66.301801    566819.03    83.007608    82.634853    82.634853 
605000000    589.18717   -157344.74   -154907.75    22.221137    566819.03    83.067936    82.604841    82.604841 
606000000    590.51522    -157317.6   -154875.12    103.60025    566819.03    83.127043    82.575468    82.575468 
607000000     588.2899      -157337   -154903.72    -79.09062    566819.03    83.184698    82.546847    82.546847 
608000000    587.12547   -157326.46      -154898   -68.574465    566819.03    83.240672    82.519088    82.519088 
609000000    596.76881   -157321.94   -154853.58     135.5249    566819.03    83.294745    82.492299    82.492299 
610000000    589.69933    -157318.5   -154879.39    74.372828    566819.03    83.346704    82.466582    82.466582 
611000000    589.64147   -157303.93   -154865.06    85.889537    566819.03    83.396343    82.442036    82.442036 
612000000    590.79244   -157305.64      -154862    186.82248    566819.03    83.443466    82.418754    82.418754 
613000000    589.60728   -157309.44   -154870.71   -16.383208    566819.03    83.487887    82.396825    82.396825 
614000000    594.81875   -157316.97   -154856.69    72.431672    566819.03    83.529432    82.376331    82.376331 
615000000    589.11176   -157313.25   -154876.57    188.47778    566819.03    83.567936    82.357352    82.357352 
616000000    590.71429   -157298.88   -154855.57    159.12789    566819.03    83.603246    82.339958    82.339958 
617000000    589.65499   -157307.63    -154868.7     205.0405    566819.03    83.635225    82.324214    82.324214 
618000000    591.74386   -157304.19   -154856.62    133.09421    566819.03    83.663746    82.310181    82.310181 
619000000    593.87991   -157309.48   -154853.08    158.56096    566819.03    83.688695    82.297911    82.297911 
620000000    594.15524    -157284.9   -154827.35    376.95737    566819.03    83.709975     82.28745     82.28745 
621000000    590.88887   -157313.31   -154869.28    49.126412    566819.03    83.727502    82.278837    82.278837 
622000000     590.4226   -157309.24   -154867.14    230.11374    566819.03    83.741206    82.272104    82.272104 
623000000    590.00525   -157327.49   -154887.11    80.679873    566819.03    83.751033    82.267277    82.267277 
624000000    593.44114   -157298.07   -154843.48    177.72202    566819.03    83.756945    82.264374    82.264374 
625000000    588.28108   -157301.73   -154868.49    141.43933    566819.03    83.758919    82.263405    82.263405 
626000000    590.69423      -157313   -154869.77    3.0868648    566819.03    83.756945    82.264374    82.264374 
627000000    595.11524   -157290.64   -154829.13     327.9456    566819.03    83.751033    82.267277    82.267277 
628000000    589.05315   -157307.68   -154871.24     61.31146    566819.03    83.741206    82.272104    82.272104 
629000000      590.283   -157298.41   -154856.89    118.17361    566819.03    83.727502    82.278837    82.278837 
630000000    590.63932   -157290.21   -154847.21    373.66472    566819.03    83.709975     82.28745     82.28745 
631000000    591.48518   -157291.77   -154845.27    237.65193    566819.03    83.688695    82.297911    82.297911 
632000000    588.20674   -157298.56   -154865.62    107.50443    566819.03    83.663746    82.310181    82.310181 
633000000    591.30921   -157321.58   -154875.81    97.344132    566819.03    83.635225    82.324214    82.324214 
634000000    589.83975   -157306.83   -154867.13    183.08635    566819.03    83.603246    82.339958    82.339958 
635000000    592.62283   -157283.31   -154832.11    460.22066    566819.03    83.567936    82.357352    82.357352 
636000000    586.92621   -157301.48   -154873.84    134.61176    566819.03    83.529432    82.376331    82.376331 
637000000    592.16258   -157302.86   -154853.56    212.35338    566819.03    83.487887    82.396825    82.396825 
638000000    588.27145   -157310.48   -154877.27    42.159353    566819.03    83.443466    82.418754    82.418754 
639000000    592.60844   -157319.99   -154868.84   -24.153429    566819.03    83.396343    82.442036    82.442036 
640000000    591.79644   -157306.08   -154858.29    178.15865    566819.03    83.346704    82.466582    82.466582 
641000000    590.81774   -157315.16   -154871.42    127.61674    566819.03    83.294745    82.492299    82.492299 
642000000    591.89326   -157299.97   -154851.79    167.85819    566819.03    83.240672    82.519088    82.519088 
643000000    593.14467   -157309.72   -154856.36    169.63766    566819.03    83.184698    82.546847    82.546847 
644000000     589.8249   -157321.06   -154881.43     59.26516    566819.03    83.127043    82.575468    82.575468 
645000000    590.91801   -157315.84   -154871.69   -43.306251    566819.03    83.067936    82.604841    82.604841 
646000000    592.64367   -157327.74   -154876.45    13.601548    566819.03    83.007608    82.634853    82.634853 
647000000    589.89873   -157322.64   -154882.71   -12.434341    566819.03      82.9463    82.665387    82.665387 
648000000    587.56747   -157324.76   -154894.46   -47.634609    566819.03    82.884252    82.696323    82.696323 
649000000    589.12169    -157312.6   -154875.87    175.06874    566819.03    82.821709    82.727541    82.727541 
650000000    586.79123   -157321.51   -154894.43    131.22587    566819.03    82.758919    82.758919    82.758919 
651000000    588.20751   -157315.06   -154882.12    98.500686    566819.03    82.696128    82.790332    82.790332 
652000000    584.79004   -157318.08   -154899.28    86.681945    566819.03    82.633585    82.821656    82.821656 
653000000    590.08313   -157326.61   -154885.91    38.724076    566819.03    82.571537    82.852769    82.852769 
654000000    592.54419      -157330   -154879.12   -69.654819    566819.03    82.510229    82.883544    82.883544 
655000000    590.17848   -157316.98   -154875.89    17.333451    566819.03    82.449902    82.913861    82.913861 
656000000     593.7835   -157316.93   -154860.92    32.665906    566819.03    82.390794    82.943597    82.943597 
657000000    590.41864   -157313.74   -154871.65    242.39034    566819.03    82.333139    82.972633    82.972633 
658000000    588.21736   -157312.98      -154880    403.86533    566819.03    82.277165    83.000852    83.000852 
659000000    588.59917   -157314.78   -154880.21    110.61293    566819.03    82.223092     83.02814     83.02814 
660000000    587.84249   -157320.74   -154889.31    76.506018    566819.03    82.171133    83.054386    83.054386 
661000000    591.76731   -157340.81   -154893.14   -155.00635    566819.03    82.121495    83.079484    83.079484 
662000000     589.2247   -157306.93   -154869.78    181.89603    566819.03    82.074371     83.10333     83.10333 
663000000    590.09977   -157309.11   -154868.34    177.85998    566819.03     82.02995    83.125829    83.125829 
664000000    591.74071   -157306.27   -154858.72    183.20487    566819.03    81.988405    83.146886    83.146886 
665000000    591.32681   -157322.42   -154876.57   -2.3976257    566819.03    81.949902    83.166417    83.166417 
666000000    591.54664   -157290.61   -154843.86    149.65909    566819.03    81.914591     83.18434     83.18434 
667000000    588.92903   -157307.37   -154871.45    86.423704    566819.03    81.882612    83.200582    83.200582 
668000000     592.8514   -157293.29   -154841.14    295.01671    566819.03    81.854091    83.215076    83.215076 
669000000     595.4138   -157288.82   -154826.08    390.91107    566819.03    81.829142    83.227761    83.227761 
670000000    591.20027   -157307.24   -154861.92    254.64338    566819.03    81.807862    83.238585    83.238585 
671000000    588.30654   -157303.33   -154869.98    141.48366    566819.03    81.790335    83.247503    83.247503 
672000000    589.05151   -157297.98   -154861.54    266.23208    566819.03    81.776631    83.254478    83.254478 
673000000    588.72906   -157288.94   -154853.84     297.4342    566819.03    81.766804    83.259481    83.259481 
674000000    588.09854      -157312   -154879.51   -1.2229423    566819.03    81.760892    83.262491    83.262491 
675000000    590.98786   -157325.89   -154881.45    81.984141    566819.03    81.758919    83.263496    83.263496 
676000000    591.35574   -157305.41   -154859.45    185.32103    566819.03    81.760892    83.262491    83.262491 
677000000    589.83702   -157301.93   -154862.25    144.86107    566819.03    81.766804    83.259481    83.259481 
[...]
838000000    590.06808   -157354.19   -154913.55   -111.65778    566819.03    83.443466    82.418754    82.418754 
839000000    592.67477   -157344.26   -154892.84    -9.160353    566819.03    83.396343    82.442036    82.442036 
840000000    586.27084   -157327.74   -154902.81   -34.871568    566819.03    83.346704    82.466582    82.466582 
841000000    587.80405   -157330.74   -154899.47   -72.187744    566819.03    83.294745    82.492299    82.492299 
842000000    592.77044   -157323.32    -154871.5    57.106808    566819.03    83.240672    82.519088    82.519088 
843000000    589.15465   -157326.19   -154889.33    13.525254    566819.03    83.184698    82.546847    82.546847 
844000000    591.47138   -157367.69   -154921.25    -145.8174    566819.03    83.127043    82.575468    82.575468 
845000000    588.69712   -157350.98   -154916.02   -120.49956    566819.03    83.067936    82.604841    82.604841 
846000000    586.90826   -157318.81   -154891.24    100.36316    566819.03    83.007608    82.634853    82.634853 
847000000    590.85965   -157331.21    -154887.3   -28.240677    566819.03      82.9463    82.665387    82.665387 
848000000    590.04832   -157344.06    -154903.5    60.703051    566819.03    82.884252    82.696323    82.696323 
849000000    593.71345    -157336.3   -154880.59    2.8813804    566819.03    82.821709    82.727541    82.727541 
850000000    588.03451   -157332.53    -154900.3    -25.34175    566819.03    82.758919    82.758919    82.758919 
851000000    588.72565    -157341.3   -154906.22   -32.570365    566819.03    82.696128    82.790332    82.790332 
852000000    592.12055   -157334.19   -154885.06    34.422115    566819.03    82.633585    82.821656    82.821656 
853000000    592.69151   -157318.08    -154866.6    132.99058    566819.03    82.571537    82.852769    82.852769 
854000000    586.08267   -157351.37   -154927.22   -156.61284    566819.03    82.510229    82.883544    82.883544 
855000000    587.23771   -157320.74   -154891.81    45.128859    566819.03    82.449902    82.913861    82.913861 
856000000    589.99512    -157316.7   -154876.37    28.359906    566819.03    82.390794    82.943597    82.943597 
857000000    591.64369   -157342.33   -154895.18    14.071247    566819.03    82.333139    82.972633    82.972633 
858000000    593.13359   -157334.69   -154881.37   -121.16344    566819.03    82.277165    83.000852    83.000852 
859000000    592.74554   -157344.82   -154893.11     63.97565    566819.03    82.223092     83.02814     83.02814 
860000000    590.88413   -157329.93   -154885.92    56.393668    566819.03    82.171133    83.054386    83.054386 
861000000     588.9079   -157321.36   -154885.52    126.17049    566819.03    82.121495    83.079484    83.079484 
862000000     587.5236   -157326.06   -154895.95   -38.385163    566819.03    82.074371     83.10333     83.10333 
863000000    586.86346    -157322.5   -154895.12    40.815358    566819.03     82.02995    83.125829    83.125829 
864000000     588.2823   -157341.58   -154908.33   -104.09098    566819.03    81.988405    83.146886    83.146886 
865000000    590.08696   -157346.78   -154906.07   -80.605306    566819.03    81.949902    83.166417    83.166417 
866000000    592.14754   -157321.52   -154872.29    115.52981    566819.03    81.914591     83.18434     83.18434 
867000000    593.39806   -157360.45   -154906.04   -116.57589    566819.03    81.882612    83.200582    83.200582 
868000000    590.77393   -157320.61   -154877.06    211.58709    566819.03    81.854091    83.215076    83.215076 
869000000    590.05171   -157312.33   -154871.76    153.74497    566819.03    81.829142    83.227761    83.227761 
870000000    588.57191   -157308.14   -154873.69    177.16541    566819.03    81.807862    83.238585    83.238585 
871000000    585.89388    -157320.2   -154896.83   -22.503655    566819.03    81.790335    83.247503    83.247503 
872000000    591.00647   -157320.39   -154875.88    102.54817    566819.03    81.776631    83.254478    83.254478 
873000000    593.82957   -157322.14   -154865.95    50.874457    566819.03    81.766804    83.259481    83.259481 
874000000    592.96206   -157320.69   -154868.08     231.7798    566819.03    81.760892    83.262491    83.262491 
875000000    585.66048   -157312.38   -154889.98    12.182203    566819.03    81.758919    83.263496    83.263496 
876000000    588.11367   -157339.26    -154906.7   -122.48271    566819.03    81.760892    83.262491    83.262491 
877000000     587.9847   -157335.65   -154903.63   -14.547709    566819.03    81.766804    83.259481    83.259481 
878000000     591.0871   -157349.82   -154904.96   -20.424957    566819.03    81.776631    83.254478    83.254478 
879000000    589.29081   -157331.25   -154893.83    40.284074    566819.03    81.790335    83.247503    83.247503 
880000000    588.74574   -157342.46   -154907.29   -61.049421    566819.03    81.807862    83.238585    83.238585 
881000000      589.346   -157324.52   -154886.87   -76.184845    566819.03    81.829142    83.227761    83.227761 
882000000    593.06593   -157319.19   -154866.15    200.23848    566819.03    81.854091    83.215076    83.215076 
883000000    591.19071   -157328.21   -154882.93   -23.915963    566819.03    81.882612    83.200582    83.200582 
884000000    588.01538   -157338.62   -154906.47   -118.03782    566819.03    81.914591     83.18434     83.18434 
885000000    586.30864   -157313.19    -154888.1    266.50531    566819.03    81.949902    83.166417    83.166417 
886000000    590.63205   -157349.92   -154906.95   -122.33774    566819.03    81.988405    83.146886    83.146886 
887000000    591.97857   -157342.34    -154893.8    100.62804    566819.03     82.02995    83.125829    83.125829 
888000000    590.34953   -157335.93   -154894.13   -72.088387    566819.03    82.074371     83.10333     83.10333 
889000000    592.23773   -157324.77   -154875.15   -9.3431362    566819.03    82.121495    83.079484    83.079484 
890000000    585.47998    -157353.2   -154931.54   -176.84725    566819.03    82.171133    83.054386    83.054386 
891000000    597.86831   -157327.16   -154854.26    151.85265    566819.03    82.223092     83.02814     83.02814 
892000000    597.36915      -157328   -154857.17    85.781947    566819.03    82.277165    83.000852    83.000852 
893000000       590.21   -157354.53    -154913.3   -153.45394    566819.03    82.333139    82.972633    82.972633 
894000000     589.4429   -157348.99   -154910.94   -193.28618    566819.03    82.390794    82.943597    82.943597 
895000000    593.99264   -157355.26   -154898.39   -117.26118    566819.03    82.449902    82.913861    82.913861 
896000000    586.94072   -157345.37   -154917.67    67.128159    566819.03    82.510229    82.883544    82.883544 
897000000    587.30019   -157350.94   -154921.75   -31.754324    566819.03    82.571537    82.852769    82.852769 
898000000    589.73476   -157334.84   -154895.59    179.28524    566819.03    82.633585    82.821656    82.821656 
899000000    589.38561   -157375.75   -154937.94   -273.61928    566819.03    82.696128    82.790332    82.790332 
900000000    592.51678   -157355.22   -154904.45   -22.433495    566819.03    82.758919    82.758919    82.758919 
901000000      587.488   -157346.32   -154916.36   -2.1378266    566819.03    82.821709    82.727541    82.727541 
902000000    593.31699   -157339.92   -154885.84   -77.970854    566819.03    82.884252    82.696323    82.696323 
903000000    592.59691   -157347.89    -154896.8    172.51909    566819.03      82.9463    82.665387    82.665387 
904000000    586.58741   -157340.13   -154913.89    9.2358446    566819.03    83.007608    82.634853    82.634853 
905000000    587.85427   -157356.17   -154924.69   -61.748255    566819.03    83.067936    82.604841    82.604841 
906000000    590.18288   -157339.87   -154898.76     97.46142    566819.03    83.127043    82.575468    82.575468 
907000000    588.99289   -157337.52   -154901.33    57.028799    566819.03    83.184698    82.546847    82.546847 
908000000    590.92164   -157346.32   -154902.15   -140.27927    566819.03    83.240672    82.519088    82.519088 
909000000    592.50978   -157362.47   -154911.74   -153.02353    566819.03    83.294745    82.492299    82.492299 
910000000    584.87259   -157334.98   -154915.83   -6.3198736    566819.03    83.346704    82.466582    82.466582 
911000000    591.63773    -157352.7   -154905.57   -158.94757    566819.03    83.396343    82.442036    82.442036 
912000000    589.64543   -157334.18   -154895.29   -236.79726    566819.03    83.443466    82.418754    82.418754 
913000000    590.07683   -157352.19   -154911.52   -100.44349    566819.03    83.487887    82.396825    82.396825 
914000000    591.29147   -157350.17   -154904.47   -170.07143    566819.03    83.529432    82.376331    82.376331 
915000000    587.29998   -157336.77   -154907.58    80.214147    566819.03    83.567936    82.357352    82.357352 
916000000    590.49748   -157318.46   -154876.05    150.16544    566819.03    83.603246    82.339958    82.339958 
917000000    590.58813   -157351.82   -154909.03   -231.58597    566819.03    83.635225    82.324214    82.324214 
918000000    592.04438   -157328.93   -154880.11    98.139284    566819.03    83.663746    82.310181    82.310181 
919000000    594.84493    -157334.7   -154874.31    112.67921    566819.03    83.688695    82.297911    82.297911 
920000000    588.25375   -157343.03    -154909.9   -63.240616    566819.03    83.709975     82.28745     82.28745 
921000000    593.59864    -157324.4   -154869.16    197.27577    566819.03    83.727502    82.278837    82.278837 
922000000    589.69679   -157323.63   -154884.53    148.46433    566819.03    83.741206    82.272104    82.272104 
923000000    595.72316   -157337.33    -154873.3    79.744815    566819.03    83.751033    82.267277    82.267277 
924000000    588.86093   -157335.04   -154899.39   -47.492696    566819.03    83.756945    82.264374    82.264374 
925000000     589.8438   -157320.27   -154880.56    112.39914    566819.03    83.758919    82.263405    82.263405 
926000000    592.54517   -157328.99   -154878.11    181.03498    566819.03    83.756945    82.264374    82.264374 
927000000    591.34086   -157340.64   -154894.74    5.9295688    566819.03    83.751033    82.267277    82.267277 
928000000    587.02708   -157329.23   -154901.17    16.885739    566819.03    83.741206    82.272104    82.272104 
929000000    584.95882   -157333.69   -154914.18     111.4746    566819.03    83.727502    82.278837    82.278837 
930000000    592.46466   -157310.95    -154860.4    237.77508    566819.03    83.709975     82.28745     82.28745 
931000000    595.20038   -157309.86      -154848    167.36329    566819.03    83.688695    82.297911    82.297911 
932000000    593.52387   -157336.93      -154882    99.823901    566819.03    83.663746    82.310181    82.310181 
933000000    590.31485   -157334.47   -154892.82    60.307677    566819.03    83.635225    82.324214    82.324214 
934000000     592.2042   -157325.87    -154876.4     136.5365    566819.03    83.603246    82.339958    82.339958 
935000000    588.24046    -157348.4   -154915.32   -89.490366    566819.03    83.567936    82.357352    82.357352 
936000000    590.25862   -157311.79   -154870.36    158.37978    566819.03    83.529432    82.376331    82.376331 
937000000    591.23769   -157337.99   -154892.52    38.207488    566819.03    83.487887    82.396825    82.396825 
938000000    591.95285   -157325.75   -154877.32    151.75675    566819.03    83.443466    82.418754    82.418754 
939000000    593.21209   -157312.75   -154859.11    204.96109    566819.03    83.396343    82.442036    82.442036 
940000000    586.02335    -157336.3   -154912.39   -15.375615    566819.03    83.346704    82.466582    82.466582 
941000000    589.93722    -157321.4    -154881.3    113.43488    566819.03    83.294745    82.492299    82.492299 
942000000    591.40067    -157330.7   -154884.55    6.6505144    566819.03    83.240672    82.519088    82.519088 
943000000     590.7618    -157341.5      -154898    16.660681    566819.03    83.184698    82.546847    82.546847 
944000000    586.99129   -157365.65   -154937.74   -30.660307    566819.03    83.127043    82.575468    82.575468 
945000000    585.82616   -157346.61   -154923.52    55.866371    566819.03    83.067936    82.604841    82.604841 
946000000    589.16369   -157361.28   -154924.38    19.547775    566819.03    83.007608    82.634853    82.634853 
947000000    589.21152   -157351.85   -154914.75   -235.30798    566819.03      82.9463    82.665387    82.665387 
948000000    588.47209   -157325.56   -154891.53    66.948168    566819.03    82.884252    82.696323    82.696323 
949000000     587.2642   -157340.52   -154911.48    49.872737    566819.03    82.821709    82.727541    82.727541 
950000000    594.03271   -157350.82   -154893.78    36.651218    566819.03    82.758919    82.758919    82.758919 
951000000    587.82622   -157332.44   -154901.07    55.906808    566819.03    82.696128    82.790332    82.790332 
952000000     590.2573   -157350.16   -154908.74   -26.325822    566819.03    82.633585    82.821656    82.821656 
953000000    588.55845   -157317.69    -154883.3    244.99232    566819.03    82.571537    82.852769    82.852769 
954000000    591.03495   -157348.44   -154903.81    2.4393754    566819.03    82.510229    82.883544    82.883544 
955000000     589.4328   -157333.68   -154895.67    62.764259    566819.03    82.449902    82.913861    82.913861 
956000000     594.8604   -157355.06    -154894.6   -49.269586    566819.03    82.390794    82.943597    82.943597 
957000000    592.62437    -157332.4   -154881.19    119.39266    566819.03    82.333139    82.972633    82.972633 
958000000    594.50891    -157330.4   -154871.39    186.42599    566819.03    82.277165    83.000852    83.000852 
959000000    591.22164   -157346.29   -154900.88    -191.1256    566819.03    82.223092     83.02814     83.02814 
960000000    590.26214   -157324.49   -154883.05    79.383587    566819.03    82.171133    83.054386    83.054386 
961000000    591.22363   -157347.57   -154902.15   -134.36104    566819.03    82.121495    83.079484    83.079484 
962000000    589.11574   -157340.23   -154903.53    133.27038    566819.03    82.074371     83.10333     83.10333 
963000000    591.58429   -157334.64   -154887.73    12.349903    566819.03     82.02995    83.125829    83.125829 
964000000    585.73253   -157317.76   -154895.05    242.90909    566819.03    81.988405    83.146886    83.146886 
965000000    587.30415   -157325.35   -154896.15    80.648832    566819.03    81.949902    83.166417    83.166417 
966000000     592.0418   -157329.13   -154880.33   -24.871966    566819.03    81.914591     83.18434     83.18434 
967000000    592.55915   -157324.83   -154873.89    -17.96267    566819.03    81.882612    83.200582    83.200582 
968000000    587.77504   -157355.15      -154924   -52.893856    566819.03    81.854091    83.215076    83.215076 
969000000    592.36259   -157336.83    -154886.7   -71.038231    566819.03    81.829142    83.227761    83.227761 
970000000    588.04888   -157339.36   -154907.08   -76.283453    566819.03    81.807862    83.238585    83.238585 
971000000    590.37955   -157328.64   -154886.71   -61.993986    566819.03    81.790335    83.247503    83.247503 
972000000    589.38657   -157324.26   -154886.44    170.48098    566819.03    81.776631    83.254478    83.254478 
973000000    588.61599   -157338.22   -154903.59   -26.556836    566819.03    81.766804    83.259481    83.259481 
974000000    588.27845   -157321.96   -154888.73    128.65347    566819.03    81.760892    83.262491    83.262491 
975000000    589.09778   -157331.61   -154894.98    4.3595255    566819.03    81.758919    83.263496    83.263496 
976000000    589.71948   -157305.44   -154866.25    159.22502    566819.03    81.760892    83.262491    83.262491 
977000000    589.75013   -157338.16   -154898.84   -45.599599    566819.03    81.766804    83.259481    83.259481 
978000000    590.84575   -157331.99   -154888.14   -17.664354    566819.03    81.776631    83.254478    83.254478 
979000000    585.04355   -157348.71   -154928.85   -136.42204    566819.03    81.790335    83.247503    83.247503 
980000000    591.96293   -157331.05   -154882.57    -30.43458    566819.03    81.807862    83.238585    83.238585 
981000000    592.10996    -157332.3   -154883.21    23.640612    566819.03    81.829142    83.227761    83.227761 
982000000    585.67723   -157349.55   -154927.07   -197.20908    566819.03    81.854091    83.215076    83.215076 
983000000    588.87975   -157320.19   -154884.47    141.78997    566819.03    81.882612    83.200582    83.200582 
984000000    591.05566   -157333.79   -154889.07    104.47946    566819.03    81.914591     83.18434     83.18434 
985000000    590.51209   -157324.23   -154881.76    44.786791    566819.03    81.949902    83.166417    83.166417 
986000000    587.05171   -157338.77   -154910.61   -12.528407    566819.03    81.988405    83.146886    83.146886 
987000000    590.41475   -157331.08   -154889.01   -28.143188    566819.03     82.02995    83.125829    83.125829 
988000000    587.71206    -157343.5   -154912.61    -88.59422    566819.03    82.074371     83.10333     83.10333 
989000000    592.12279   -157327.54   -154878.41    34.455399    566819.03    82.121495    83.079484    83.079484 
990000000    587.70283   -157355.26   -154924.41   -262.89583    566819.03    82.171133    83.054386    83.054386 
991000000    585.83941   -157347.95   -154924.81   -69.609344    566819.03    82.223092     83.02814     83.02814 
992000000    587.51381   -157329.04   -154898.97    151.44005    566819.03    82.277165    83.000852    83.000852 
993000000    588.84742   -157345.38   -154909.79   -183.61596    566819.03    82.333139    82.972633    82.972633 
994000000    591.25626   -157354.55      -154909    54.089964    566819.03    82.390794    82.943597    82.943597 
995000000    593.71884   -157347.35   -154891.61   -18.914177    566819.03    82.449902    82.913861    82.913861 
996000000    587.17108   -157359.48   -154930.83   -249.52255    566819.03    82.510229    82.883544    82.883544 
997000000      591.184    -157351.1   -154905.84   -87.470598    566819.03    82.571537    82.852769    82.852769 
998000000    588.81888   -157326.09   -154890.62    151.71116    566819.03    82.633585    82.821656    82.821656 
999000000    585.74643   -157354.88   -154932.12   -197.18036    566819.03    82.696128    82.790332    82.790332 
1000000000    591.15711   -157331.11   -154885.97    122.97777    566819.03    82.758919    82.758919    82.758919 
Loop time of 599233 on 104 procs for 1000000000 steps with 32000 atoms

Performance: 1441.843 ns/day, 0.017 hours/ns, 1668.800 timesteps/s
99.5% CPU use with 104 MPI tasks x 1 OpenMP threads

MPI task timing breakdown:
Section |  min time  |  avg time  |  max time  |%varavg| %total
---------------------------------------------------------------
Pair    | 3.4995e+05 | 3.5867e+05 | 3.6846e+05 | 707.6 | 59.85
Neigh   | 22073      | 23477      | 24772      | 438.6 |  3.92
Comm    | 1.1945e+05 | 1.285e+05  | 1.4101e+05 |1367.6 | 21.44
Output  | 2.4316     | 2.4396     | 2.4616     |   0.4 |  0.00
Modify  | 73621      | 78388      | 82936      | 764.0 | 13.08
Other   |            | 1.02e+04   |            |       |  1.70

Nlocal:        307.692 ave         318 max         294 min
Histogram: 2 1 10 11 14 21 15 10 13 7
Nghost:        2595.55 ave        2621 max        2563 min
Histogram: 1 6 5 12 10 23 20 13 10 4
Neighs:        22402.6 ave       24583 max       20380 min
Histogram: 2 7 14 18 11 19 16 11 5 1

Total # of neighbors = 2329875
Ave neighs/atom = 72.808594
Neighbor list builds = 98706570
Dangerous builds = 0
#clear
#jump dms600.lmp
Total wall time: 166:27:08
