units           metal
boundary        p p p
atom_style      atomic
read_data      ../../restart/T${T}.dat
read_data      ../../restart/T540.dat
Reading data file ...
  orthogonal box = (-2.4321879 -2.4321879 -2.4321879) to (80.266965 80.266965 80.266965)
  2 by 13 by 4 MPI processor grid
  reading atoms ...
  32000 atoms
  reading velocities ...
  32000 velocities
  read_data CPU = 0.261 seconds
pair_style      eam/alloy
pair_coeff      * *  ../../ZrCu.lammps.eam Zr Cu
mass 1 91.224
mass 2 63.546
neighbor            2.0 bin
neigh_modify     delay 1
timestep 0.01
thermo 1000000
reset_timestep 0
thermo_style custom step temp pe etotal press vol lx ly lz
fix             1 all nvt temp ${T} ${T} 0.1
fix             1 all nvt temp 540 ${T} 0.1
fix             1 all nvt temp 540 540 0.1
thermo_modify flush yes
fix nodrift all momentum 1  linear 1 1 1
fix com_seed all recenter INIT INIT INIT shift all
fix dsf all deform 1 x  wiggle 1.0  1000000.0 y volume z volume units box
fix ps1 all ave/time 1 1 1000000 c_thermo_press[1] c_thermo_press[2]  c_thermo_press[3] c_thermo_press[4]  c_thermo_press[5] c_thermo_press[6]  file  stress.${T}
fix ps1 all ave/time 1 1 1000000 c_thermo_press[1] c_thermo_press[2]  c_thermo_press[3] c_thermo_press[4]  c_thermo_press[5] c_thermo_press[6]  file  stress.540
dump            1 all custom 100000000 dump.${T} id type x y z
dump            1 all custom 100000000 dump.540 id type x y z
dump_modify 1 sort id
run 1000000000
Neighbor list info ...
  update every 1 steps, delay 1 steps, check yes
  max neighbors/atom: 2000, page size: 100000
  master list distance cutoff = 8.5
  ghost atom cutoff = 8.5
  binsize = 4.25, bins = 20 20 20
  1 neighbor lists, perpetual/occasional/extra = 1 0 0
  (1) pair eam/alloy/intel, perpetual
      attributes: half, newton on, intel
      pair build: half/bin/newton/intel
      stencil: half/bin/3d/newton
      bin: intel
Per MPI rank memory allocation (min/avg/max) = 7.334 | 7.442 | 7.603 Mbytes
Step Temp PotEng TotEng Press Volume Lx Ly Lz 
       0    539.10616   -157563.55    -155333.7    213.89827    565591.91    82.699153    82.699153    82.699153 
 1000000    540.80973   -157515.68   -155278.78    624.23943    565591.91    82.761944    82.667776    82.667776 
 2000000     540.6873   -157516.74   -155280.35    600.92832    565591.91    82.824487    82.636558    82.636558 
 3000000    535.40348   -157517.95   -155303.42     482.2632    565591.91    82.886535    82.605622    82.605622 
 4000000    539.42379   -157509.64   -155278.47    686.02774    565591.91    82.947843    82.575088    82.575088 
 5000000    542.25669   -157504.95   -155262.07    643.73371    565591.91     83.00817    82.545076    82.545076 
 6000000    538.52521   -157519.86   -155292.41    648.27655    565591.91    83.067278    82.515703    82.515703 
 7000000    540.17589   -157511.14   -155276.86    560.05492    565591.91    83.124933    82.487082    82.487082 
 8000000    541.40739   -157516.27    -155276.9    641.96909    565591.91    83.180907    82.459324    82.459324 
 9000000    542.54352   -157533.24   -155289.17    611.08222    565591.91     83.23498    82.432535    82.432535 
10000000    539.73506    -157524.6   -155292.15    584.22109    565591.91    83.286939    82.406818    82.406818 
11000000    536.31622   -157513.43   -155295.12    534.77335    565591.91    83.336577    82.382272    82.382272 
12000000    541.10701   -157509.34   -155271.22    661.32136    565591.91      83.3837     82.35899     82.35899 
13000000    536.31152   -157497.62   -155279.34    630.06248    565591.91    83.428122    82.337061    82.337061 
14000000    539.86395   -157509.02   -155276.04    620.37934    565591.91    83.469667    82.316568    82.316568 
15000000    539.33347   -157527.19    -155296.4    688.72809    565591.91     83.50817    82.297589    82.297589 
16000000    537.20007   -157505.74   -155283.77    742.43305    565591.91    83.543481    82.280195    82.280195 
17000000    538.39147   -157507.52   -155280.63    692.64168    565591.91     83.57546    82.264452    82.264452 
18000000    540.07803   -157506.38   -155272.52    681.34695    565591.91     83.60398    82.250419    82.250419 
19000000    538.74447   -157490.97   -155262.62    648.86463    565591.91     83.62893    82.238149    82.238149 
20000000    537.17124   -157493.75   -155271.91     730.5077    565591.91     83.65021    82.227688    82.227688 
21000000    538.85712   -157497.24   -155268.42     645.4429    565591.91    83.667736    82.219075    82.219075 
22000000     540.3032   -157520.96   -155286.16    605.26399    565591.91    83.681441    82.212342    82.212342 
23000000    537.18244   -157519.87   -155297.98    577.45039    565591.91    83.691268    82.207515    82.207515 
24000000    538.13452   -157506.49   -155280.66    490.23009    565591.91     83.69718    82.204612    82.204612 
25000000    542.02271   -157507.81   -155265.89    649.35439    565591.91    83.699153    82.203643    82.203643 
26000000    540.99693   -157514.32   -155276.65    594.05379    565591.91     83.69718    82.204612    82.204612 
27000000    542.21956   -157512.42    -155269.7    643.01517    565591.91    83.691268    82.207515    82.207515 
28000000    537.14028   -157517.94   -155296.22    472.32124    565591.91    83.681441    82.212342    82.212342 
29000000    540.14988   -157500.76    -155266.6    629.33269    565591.91    83.667736    82.219075    82.219075 
30000000    538.51356   -157483.49   -155256.09    786.42233    565591.91     83.65021    82.227688    82.227688 
31000000    539.89257   -157474.94   -155241.84    917.21678    565591.91     83.62893    82.238149    82.238149 
32000000    539.48003    -157508.2    -155276.8    575.27785    565591.91     83.60398    82.250419    82.250419 
33000000     541.6149   -157520.54   -155280.31    621.48616    565591.91     83.57546    82.264452    82.264452 
34000000    538.71565   -157535.79   -155307.56    513.65116    565591.91    83.543481    82.280195    82.280195 
35000000    538.77087   -157525.52   -155297.06    657.37227    565591.91     83.50817    82.297589    82.297589 
36000000    540.22363   -157504.97    -155270.5    524.21692    565591.91    83.469667    82.316568    82.316568 
37000000    537.88245   -157517.55   -155292.76    432.07397    565591.91    83.428122    82.337061    82.337061 
38000000    539.66208   -157500.07   -155267.93    705.19928    565591.91      83.3837     82.35899     82.35899 
39000000    540.19687   -157523.85   -155289.49    540.16347    565591.91    83.336577    82.382272    82.382272 
40000000     538.8957   -157513.26   -155284.28    630.95204    565591.91    83.286939    82.406818    82.406818 
41000000     540.1542   -157512.27   -155278.09    608.75271    565591.91     83.23498    82.432535    82.432535 
42000000    541.32254   -157517.15   -155278.13    550.73476    565591.91    83.180907    82.459324    82.459324 
43000000    533.68526   -157517.04   -155309.61    496.75211    565591.91    83.124933    82.487082    82.487082 
44000000    538.19033   -157522.85   -155296.79    497.09194    565591.91    83.067278    82.515703    82.515703 
45000000    541.45424   -157518.73   -155279.17    710.46426    565591.91     83.00817    82.545076    82.545076 
46000000    543.20289   -157512.32   -155265.52    592.15104    565591.91    82.947843    82.575088    82.575088 
47000000     536.4911   -157541.65   -155322.62    437.96716    565591.91    82.886535    82.605622    82.605622 
48000000    545.42323   -157511.45   -155255.48    619.76182    565591.91    82.824487    82.636558    82.636558 
49000000    540.31503   -157522.58   -155287.73    591.02472    565591.91    82.761944    82.667776    82.667776 
50000000    539.77277   -157530.28   -155297.68    458.43175    565591.91    82.699153    82.699153    82.699153 
51000000    545.03161   -157517.44   -155263.08    686.03426    565591.91    82.636363    82.730566    82.730566 
52000000    537.86931   -157501.75   -155277.01    622.37645    565591.91     82.57382    82.761891    82.761891 
53000000    537.88287   -157521.65   -155296.86    490.64496    565591.91    82.511772    82.793003    82.793003 
54000000    540.67572   -157537.11   -155300.77    425.46985    565591.91    82.450463    82.823779    82.823779 
55000000    539.15238    -157516.1   -155286.06    522.02414    565591.91    82.390136    82.854096    82.854096 
56000000    541.83505   -157514.32   -155273.18    674.12166    565591.91    82.331029    82.883832    82.883832 
57000000    543.21028   -157527.86   -155281.04    557.94409    565591.91    82.273374    82.912869    82.912869 
58000000    540.91758   -157502.23   -155264.89    591.68865    565591.91      82.2174    82.941088    82.941088 
59000000    539.89025   -157501.73   -155268.64     672.3251    565591.91    82.163326    82.968376    82.968376 
60000000    537.91163   -157506.07   -155281.16    835.70782    565591.91    82.111368    82.994622    82.994622 
61000000    539.40656   -157504.83   -155273.74     786.6302    565591.91    82.061729     83.01972     83.01972 
62000000    540.19169   -157521.46   -155287.12    674.58474    565591.91    82.014606    83.043566    83.043566 
63000000    536.73179   -157492.17   -155272.14    796.00193    565591.91    81.970185    83.066065    83.066065 
64000000    538.78471   -157510.56   -155282.04    707.97977    565591.91     81.92864    83.087123    83.087123 
65000000    542.39492   -157509.36   -155265.91    528.58759    565591.91    81.890136    83.106654    83.106654 
66000000    538.83969   -157496.51   -155267.76    629.32009    565591.91    81.854825    83.124578    83.124578 
67000000    536.68859   -157506.41   -155286.56    597.48396    565591.91    81.822847     83.14082     83.14082 
68000000    540.25232   -157508.32   -155273.74     630.7426    565591.91    81.794326    83.155313    83.155313 
69000000    537.91991   -157501.32   -155276.38    803.04035    565591.91    81.769377    83.167999    83.167999 
70000000    543.55546   -157479.22   -155230.97    884.38933    565591.91    81.748097    83.178823    83.178823 
71000000    541.39344   -157499.48   -155260.17    669.44187    565591.91     81.73057    83.187741    83.187741 
72000000    546.42585   -157503.48   -155243.36    796.76215    565591.91    81.716866    83.194716    83.194716 
73000000       539.49   -157487.67   -155256.23    747.10346    565591.91    81.707039    83.199719    83.199719 
74000000    539.29275   -157505.94   -155275.32    537.17348    565591.91    81.701127    83.202729    83.202729 
75000000    541.37734   -157508.91   -155269.66    643.26942    565591.91    81.699153    83.203734    83.203734 
76000000    534.28356   -157515.83   -155305.92    498.10554    565591.91    81.701127    83.202729    83.202729 
77000000    536.48062   -157491.86   -155272.87    659.98566    565591.91    81.707039    83.199719    83.199719 
78000000    537.38447   -157515.69   -155292.96    520.41399    565591.91    81.716866    83.194716    83.194716 
79000000    537.68686    -157486.5   -155262.52    828.68839    565591.91     81.73057    83.187741    83.187741 
80000000    541.80978   -157500.21   -155259.18    766.58906    565591.91    81.748097    83.178823    83.178823 
81000000    539.96319   -157525.52   -155292.13    424.65377    565591.91    81.769377    83.167999    83.167999 
82000000    538.46224   -157506.91   -155279.73    679.63638    565591.91    81.794326    83.155313    83.155313 
83000000    542.16634   -157517.19   -155274.69    597.52353    565591.91    81.822847     83.14082     83.14082 
84000000    542.23386   -157525.77   -155282.98    510.29464    565591.91    81.854825    83.124578    83.124578 
85000000     538.7287   -157519.25   -155290.96    533.46003    565591.91    81.890136    83.106654    83.106654 
86000000    538.28236    -157522.5   -155296.06    597.80239    565591.91     81.92864    83.087123    83.087123 
87000000    541.31681   -157501.87   -155262.88    780.90538    565591.91    81.970185    83.066065    83.066065 
88000000    538.36545    -157518.6   -155291.82    552.95844    565591.91    82.014606    83.043566    83.043566 
89000000    540.58248   -157507.26   -155271.31    639.93704    565591.91    82.061729     83.01972     83.01972 
90000000    540.92585   -157510.39   -155273.02    618.05552    565591.91    82.111368    82.994622    82.994622 
91000000    539.19112   -157535.83   -155305.63    520.07419    565591.91    82.163326    82.968376    82.968376 
92000000    543.07593   -157510.91   -155264.64    598.50567    565591.91      82.2174    82.941088    82.941088 
93000000    544.64191   -157532.74   -155279.99    392.15963    565591.91    82.273374    82.912869    82.912869 
94000000    543.98966    -157516.8   -155266.75    713.34502    565591.91    82.331029    82.883832    82.883832 
95000000    540.68097    -157517.1   -155280.73    492.27418    565591.91    82.390136    82.854096    82.854096 
96000000    535.58753   -157542.85   -155327.56    373.46556    565591.91    82.450463    82.823779    82.823779 
97000000    537.04107   -157525.25   -155303.95    660.30471    565591.91    82.511772    82.793003    82.793003 
98000000    545.01934   -157510.68   -155256.37    738.56917    565591.91     82.57382    82.761891    82.761891 
99000000    539.32655   -157531.61   -155300.85    550.56111    565591.91    82.636363    82.730566    82.730566 
100000000    538.71103   -157528.51   -155300.29    396.59851    565591.91    82.699153    82.699153    82.699153 
101000000    539.66709   -157534.86   -155302.69    438.17464    565591.91    82.761944    82.667776    82.667776 
102000000    541.45802   -157530.19   -155290.62    603.73067    565591.91    82.824487    82.636558    82.636558 
103000000    539.51251   -157513.54   -155282.01    549.90093    565591.91    82.886535    82.605622    82.605622 
104000000    537.79832    -157528.2   -155303.76    500.44509    565591.91    82.947843    82.575088    82.575088 
105000000    540.25896   -157524.66   -155290.04    531.00362    565591.91     83.00817    82.545076    82.545076 
106000000    542.11677   -157523.56   -155281.26    592.06919    565591.91    83.067278    82.515703    82.515703 
107000000    541.91926   -157506.38    -155264.9    685.09216    565591.91    83.124933    82.487082    82.487082 
108000000    536.01773   -157516.28    -155299.2     568.1278    565591.91    83.180907    82.459324    82.459324 
109000000    537.28215   -157534.53   -155312.22     329.9047    565591.91     83.23498    82.432535    82.432535 
110000000    543.04438    -157519.8   -155273.66    576.80307    565591.91    83.286939    82.406818    82.406818 
111000000     539.8478   -157517.16   -155284.25    624.38395    565591.91    83.336577    82.382272    82.382272 
112000000    541.41423   -157513.71   -155274.31    555.82084    565591.91      83.3837     82.35899     82.35899 
113000000    535.36674    -157522.5   -155308.12    613.89743    565591.91    83.428122    82.337061    82.337061 
114000000    542.19712   -157525.91   -155283.28    429.27506    565591.91    83.469667    82.316568    82.316568 
115000000    543.43093   -157520.74      -155273    599.95866    565591.91     83.50817    82.297589    82.297589 
116000000    537.82063   -157528.53      -155304    557.19061    565591.91    83.543481    82.280195    82.280195 
117000000    541.13512   -157519.14    -155280.9    601.76497    565591.91     83.57546    82.264452    82.264452 
118000000    542.09398   -157521.92   -155279.71    666.49367    565591.91     83.60398    82.250419    82.250419 
119000000    540.70635   -157505.95   -155269.49    701.04475    565591.91     83.62893    82.238149    82.238149 
120000000    538.28584   -157506.86   -155280.41    622.48043    565591.91     83.65021    82.227688    82.227688 
121000000      543.301   -157528.78   -155281.58    649.49876    565591.91    83.667736    82.219075    82.219075 
122000000    539.25428   -157509.26    -155278.8    546.22321    565591.91    83.681441    82.212342    82.212342 
123000000    537.91743   -157521.07   -155296.13    540.66696    565591.91    83.691268    82.207515    82.207515 
124000000    539.77178   -157501.18   -155268.58    760.68363    565591.91     83.69718    82.204612    82.204612 
125000000    541.29837   -157491.88   -155252.97    641.89298    565591.91    83.699153    82.203643    82.203643 
126000000    538.49665   -157504.24   -155276.91    706.55232    565591.91     83.69718    82.204612    82.204612 
127000000    536.86682   -157506.18   -155285.59    624.82933    565591.91    83.691268    82.207515    82.207515 
128000000     541.9086   -157507.58   -155266.14    844.16832    565591.91    83.681441    82.212342    82.212342 
129000000    540.55998   -157525.04   -155289.18    554.62693    565591.91    83.667736    82.219075    82.219075 
130000000    537.99377   -157522.16   -155296.92    551.07711    565591.91     83.65021    82.227688    82.227688 
131000000     536.6764   -157520.46   -155300.66    664.42597    565591.91     83.62893    82.238149    82.238149 
132000000    542.18238   -157521.49   -155278.92    623.97694    565591.91     83.60398    82.250419    82.250419 
133000000    540.43063   -157504.57   -155269.24    676.88487    565591.91     83.57546    82.264452    82.264452 
134000000    541.84717   -157517.84   -155276.66    599.84476    565591.91    83.543481    82.280195    82.280195 
135000000    536.90988   -157509.19   -155288.43    762.55118    565591.91     83.50817    82.297589    82.297589 
136000000    538.86564   -157533.81   -155304.96    587.98435    565591.91    83.469667    82.316568    82.316568 
137000000    537.41814   -157535.14   -155312.27    505.01284    565591.91    83.428122    82.337061    82.337061 
138000000    540.37765   -157531.06   -155295.95    517.37953    565591.91      83.3837     82.35899     82.35899 
139000000    542.64196   -157510.14   -155265.67    760.41308    565591.91    83.336577    82.382272    82.382272 
140000000    539.97049   -157528.89   -155295.47    438.35867    565591.91    83.286939    82.406818    82.406818 
141000000    538.30246   -157538.69   -155312.17    526.15015    565591.91     83.23498    82.432535    82.432535 
142000000    542.16919   -157528.27   -155285.75    549.81206    565591.91    83.180907    82.459324    82.459324 
143000000    536.68592   -157546.77   -155326.93    351.37071    565591.91    83.124933    82.487082    82.487082 
144000000    539.95449   -157543.11   -155309.76    490.70506    565591.91    83.067278    82.515703    82.515703 
145000000    540.35183   -157550.52   -155315.52    413.10617    565591.91     83.00817    82.545076    82.545076 
146000000    541.98498   -157513.89   -155272.13    702.21182    565591.91    82.947843    82.575088    82.575088 
147000000    543.15107   -157532.37   -155285.79    464.63783    565591.91    82.886535    82.605622    82.605622 
148000000    539.41232    -157520.2   -155289.09    646.16372    565591.91    82.824487    82.636558    82.636558 
149000000    538.63197   -157535.33   -155307.44    462.31315    565591.91    82.761944    82.667776    82.667776 
150000000    541.18998   -157513.58   -155275.11    708.20518    565591.91    82.699153    82.699153    82.699153 
151000000    540.04285   -157517.93    -155284.2    569.72816    565591.91    82.636363    82.730566    82.730566 
152000000    539.31522   -157523.04   -155292.33    597.92637    565591.91     82.57382    82.761891    82.761891 
153000000    536.76115   -157512.43   -155292.28    642.00823    565591.91    82.511772    82.793003    82.793003 
154000000     538.8227   -157530.19   -155301.52    500.30734    565591.91    82.450463    82.823779    82.823779 
155000000    539.03415   -157495.19   -155265.64    700.13077    565591.91    82.390136    82.854096    82.854096 
156000000    537.64537   -157520.93   -155297.12    498.03735    565591.91    82.331029    82.883832    82.883832 
157000000    538.98248   -157521.46   -155292.12    724.42917    565591.91    82.273374    82.912869    82.912869 
158000000    539.03788   -157529.48   -155299.91    622.15623    565591.91      82.2174    82.941088    82.941088 
159000000    539.51558    -157523.3   -155291.76    594.25051    565591.91    82.163326    82.968376    82.968376 
160000000     543.0574   -157532.98   -155286.79     438.5229    565591.91    82.111368    82.994622    82.994622 
161000000    539.46604   -157515.29   -155283.95    678.73304    565591.91    82.061729     83.01972     83.01972 
162000000     536.5586   -157522.82   -155303.51     535.3048    565591.91    82.014606    83.043566    83.043566 
163000000    542.00418   -157515.53    -155273.7    694.90147    565591.91    81.970185    83.066065    83.066065 
164000000    541.63223   -157508.44   -155268.15    847.91011    565591.91     81.92864    83.087123    83.087123 
165000000    543.19705   -157531.61   -155284.84    511.64302    565591.91    81.890136    83.106654    83.106654 
166000000    542.04088   -157528.82   -155286.83    426.03202    565591.91    81.854825    83.124578    83.124578 
167000000    538.53279   -157515.21   -155287.73    515.59076    565591.91    81.822847     83.14082     83.14082 
168000000    540.48465   -157496.54   -155260.99    673.17711    565591.91    81.794326    83.155313    83.155313 
169000000    539.97844   -157508.75    -155275.3    772.63453    565591.91    81.769377    83.167999    83.167999 
170000000     542.1837   -157516.53   -155273.95    904.32681    565591.91    81.748097    83.178823    83.178823 
171000000    539.40318   -157505.46   -155274.38    651.98757    565591.91     81.73057    83.187741    83.187741 
172000000    538.20845   -157523.28   -155297.15    571.89679    565591.91    81.716866    83.194716    83.194716 
173000000    541.19554   -157515.02   -155276.53    639.40358    565591.91    81.707039    83.199719    83.199719 
174000000    543.67102   -157499.38   -155250.65    650.86995    565591.91    81.701127    83.202729    83.202729 
175000000    541.34181   -157513.05   -155273.96    688.46789    565591.91    81.699153    83.203734    83.203734 
176000000     538.3754   -157523.02   -155296.19    629.05323    565591.91    81.701127    83.202729    83.202729 
177000000    537.26168   -157501.61   -155279.39    733.77236    565591.91    81.707039    83.199719    83.199719 
178000000    537.79139   -157527.46   -155303.04    557.82756    565591.91    81.716866    83.194716    83.194716 
179000000    539.70881   -157508.52   -155276.18    670.78221    565591.91     81.73057    83.187741    83.187741 
180000000    539.99411   -157527.46   -155293.94     477.6404    565591.91    81.748097    83.178823    83.178823 
181000000    536.85372   -157516.51   -155295.98    597.43531    565591.91    81.769377    83.167999    83.167999 
182000000     540.4914   -157499.13   -155263.56    683.78932    565591.91    81.794326    83.155313    83.155313 
183000000    536.82979   -157498.04   -155277.61    827.99581    565591.91    81.822847     83.14082     83.14082 
184000000    539.48582   -157509.48   -155278.06     627.3256    565591.91    81.854825    83.124578    83.124578 
185000000     536.2199   -157496.91      -155279    827.62988    565591.91    81.890136    83.106654    83.106654 
186000000    539.49551    -157521.9   -155290.44    556.36051    565591.91     81.92864    83.087123    83.087123 
187000000    543.84066   -157526.37   -155276.94    544.69084    565591.91    81.970185    83.066065    83.066065 
188000000    539.68564   -157519.02   -155286.78    693.47772    565591.91    82.014606    83.043566    83.043566 
189000000    543.45048   -157541.75   -155293.93    572.63981    565591.91    82.061729     83.01972     83.01972 
190000000    538.82335   -157514.86   -155286.18    624.49933    565591.91    82.111368    82.994622    82.994622 
191000000    538.37107   -157520.43   -155293.63    684.02204    565591.91    82.163326    82.968376    82.968376 
192000000    538.03856    -157546.4   -155320.97    335.50507    565591.91      82.2174    82.941088    82.941088 
193000000    540.66912   -157549.05   -155312.74    373.56948    565591.91    82.273374    82.912869    82.912869 
194000000    540.36348   -157531.71   -155296.67    575.15789    565591.91    82.331029    82.883832    82.883832 
195000000    537.91154   -157537.42   -155312.51     549.3826    565591.91    82.390136    82.854096    82.854096 
196000000    538.62832   -157533.41   -155305.54    654.25047    565591.91    82.450463    82.823779    82.823779 
197000000    544.03907   -157522.07   -155271.82    630.96482    565591.91    82.511772    82.793003    82.793003 
198000000     538.4564   -157553.43   -155326.27    377.40767    565591.91     82.57382    82.761891    82.761891 
199000000    542.28115   -157531.82   -155288.84    603.95565    565591.91    82.636363    82.730566    82.730566 
200000000    545.84811   -157537.24   -155279.51    495.92499    565591.91    82.699153    82.699153    82.699153 
201000000     534.9621   -157543.89   -155331.18    403.46042    565591.91    82.761944    82.667776    82.667776 
202000000    542.81728   -157529.95   -155284.75    644.46806    565591.91    82.824487    82.636558    82.636558 
203000000    542.68683   -157548.67   -155304.01    489.19258    565591.91    82.886535    82.605622    82.605622 
204000000    539.74287   -157546.84   -155314.36    426.68695    565591.91    82.947843    82.575088    82.575088 
205000000    540.80234   -157528.75   -155291.89    494.06919    565591.91     83.00817    82.545076    82.545076 
206000000    539.22568   -157520.74    -155290.4    642.89057    565591.91    83.067278    82.515703    82.515703 
207000000    547.93055   -157547.11   -155280.76    507.01587    565591.91    83.124933    82.487082    82.487082 
208000000    541.97088   -157538.05   -155296.35    504.79614    565591.91    83.180907    82.459324    82.459324 
209000000    540.78257   -157537.05   -155300.26    581.02101    565591.91     83.23498    82.432535    82.432535 
210000000    540.95667      -157515   -155277.49    840.67371    565591.91    83.286939    82.406818    82.406818 
211000000    544.53025   -157523.92   -155271.64    643.28102    565591.91    83.336577    82.382272    82.382272 
212000000    542.82926    -157514.8   -155269.55    701.85197    565591.91      83.3837     82.35899     82.35899 
213000000    540.30142   -157512.61   -155277.82    674.21515    565591.91    83.428122    82.337061    82.337061 
214000000    542.77883   -157539.54    -155294.5    493.58847    565591.91    83.469667    82.316568    82.316568 
215000000    541.82839   -157534.47   -155293.36    590.87857    565591.91     83.50817    82.297589    82.297589 
216000000    542.99589   -157527.23   -155281.29    445.22217    565591.91    83.543481    82.280195    82.280195 
217000000    540.86438   -157506.46   -155269.34    732.05386    565591.91     83.57546    82.264452    82.264452 
218000000    536.42119   -157530.21   -155311.47    474.31949    565591.91     83.60398    82.250419    82.250419 
219000000    538.17763   -157526.76   -155300.75    520.83412    565591.91     83.62893    82.238149    82.238149 
220000000    540.95408   -157512.19    -155274.7    658.95571    565591.91     83.65021    82.227688    82.227688 
221000000    541.85627   -157522.28   -155281.06    643.14653    565591.91    83.667736    82.219075    82.219075 
222000000     541.6256   -157525.11   -155284.84      481.169    565591.91    83.681441    82.212342    82.212342 
223000000    542.61536   -157537.97    -155293.6     524.3887    565591.91    83.691268    82.207515    82.207515 
224000000    538.73962   -157504.01   -155275.68    701.20329    565591.91     83.69718    82.204612    82.204612 
225000000    540.64885   -157526.47   -155290.24     591.3015    565591.91    83.699153    82.203643    82.203643 
226000000     539.5147   -157513.66   -155282.12     588.9532    565591.91     83.69718    82.204612    82.204612 
227000000    539.55657   -157521.12   -155289.41    595.46996    565591.91    83.691268    82.207515    82.207515 
228000000    539.25996   -157510.85   -155280.36    644.70933    565591.91    83.681441    82.212342    82.212342 
229000000    541.69926   -157519.53   -155278.96    635.72667    565591.91    83.667736    82.219075    82.219075 
230000000    539.20033   -157513.82   -155283.58    561.61446    565591.91     83.65021    82.227688    82.227688 
231000000    537.94743   -157511.92   -155286.87    706.67823    565591.91     83.62893    82.238149    82.238149 
232000000    537.87225   -157515.55   -155290.81    571.35047    565591.91     83.60398    82.250419    82.250419 
233000000    540.21144   -157529.73   -155295.31    475.12883    565591.91     83.57546    82.264452    82.264452 
234000000    537.78381   -157523.63   -155299.25     508.1246    565591.91    83.543481    82.280195    82.280195 
235000000    540.41781   -157513.03   -155277.76    565.32487    565591.91     83.50817    82.297589    82.297589 
236000000    538.25451    -157536.5   -155310.18    385.76418    565591.91    83.469667    82.316568    82.316568 
237000000    542.69264   -157517.36   -155272.68    674.63694    565591.91    83.428122    82.337061    82.337061 
238000000    537.59041   -157530.61   -155307.03     457.4252    565591.91      83.3837     82.35899     82.35899 
239000000    542.08181   -157545.01   -155302.85    387.01282    565591.91    83.336577    82.382272    82.382272 
240000000    535.90212   -157529.88   -155313.29    532.54398    565591.91    83.286939    82.406818    82.406818 
241000000    542.39787   -157543.68   -155300.22    398.73258    565591.91     83.23498    82.432535    82.432535 
242000000    540.84724   -157548.35    -155311.3     454.7276    565591.91    83.180907    82.459324    82.459324 
243000000    541.19729   -157534.45   -155295.95    479.31455    565591.91    83.124933    82.487082    82.487082 
244000000    539.05896   -157522.47   -155292.81    452.52307    565591.91    83.067278    82.515703    82.515703 
245000000    540.96044   -157526.21   -155288.69    579.22923    565591.91     83.00817    82.545076    82.545076 
246000000    539.56565   -157536.37   -155304.62    524.38071    565591.91    82.947843    82.575088    82.575088 
247000000    535.94387   -157563.31   -155346.54    279.37376    565591.91    82.886535    82.605622    82.605622 
248000000    536.74079   -157526.81   -155306.74    456.04459    565591.91    82.824487    82.636558    82.636558 
249000000    543.36737   -157538.67    -155291.2     495.1732    565591.91    82.761944    82.667776    82.667776 
250000000    535.89568   -157516.06   -155299.49    502.57623    565591.91    82.699153    82.699153    82.699153 
251000000    533.58811   -157537.07   -155330.05    302.65624    565591.91    82.636363    82.730566    82.730566 
252000000    535.28975   -157538.53   -155324.47    465.05863    565591.91     82.57382    82.761891    82.761891 
253000000    540.98173    -157547.6   -155309.99    387.82428    565591.91    82.511772    82.793003    82.793003 
254000000    542.34423   -157548.77   -155305.53    315.06204    565591.91    82.450463    82.823779    82.823779 
255000000    538.98225   -157546.43   -155317.09    485.87435    565591.91    82.390136    82.854096    82.854096 
256000000    537.22391   -157543.49   -155321.42    209.37705    565591.91    82.331029    82.883832    82.883832 
257000000    537.24588   -157557.19   -155335.04    390.55774    565591.91    82.273374    82.912869    82.912869 
258000000    542.68644   -157525.76    -155281.1    636.38388    565591.91      82.2174    82.941088    82.941088 
259000000    538.50671   -157527.33   -155299.96    558.88175    565591.91    82.163326    82.968376    82.968376 
260000000    537.66447   -157538.72   -155314.83    574.57854    565591.91    82.111368    82.994622    82.994622 
261000000    542.97084   -157529.48   -155283.64    683.87649    565591.91    82.061729     83.01972     83.01972 
262000000    540.90771   -157532.26   -155294.96    388.32369    565591.91    82.014606    83.043566    83.043566 
263000000    537.09617   -157534.51   -155312.98    503.06563    565591.91    81.970185    83.066065    83.066065 
264000000    541.77175   -157530.55   -155289.67    638.48153    565591.91     81.92864    83.087123    83.087123 
265000000    547.56802   -157535.83   -155270.98    579.15256    565591.91    81.890136    83.106654    83.106654 
266000000    545.14126   -157518.96   -155264.15    680.89876    565591.91    81.854825    83.124578    83.124578 
267000000    544.08121   -157521.81   -155271.38    582.20895    565591.91    81.822847     83.14082     83.14082 
268000000    539.77253   -157509.91    -155277.3    683.09305    565591.91    81.794326    83.155313    83.155313 
269000000    540.65805   -157512.27      -155276    682.02987    565591.91    81.769377    83.167999    83.167999 
270000000    536.08957   -157522.66   -155305.28    471.54293    565591.91    81.748097    83.178823    83.178823 
271000000    540.03272    -157504.4   -155270.72    619.66377    565591.91     81.73057    83.187741    83.187741 
272000000    539.71149   -157527.12   -155294.76    588.61869    565591.91    81.716866    83.194716    83.194716 
273000000    541.80532   -157516.97   -155275.96    626.87709    565591.91    81.707039    83.199719    83.199719 
274000000    540.22844   -157519.17   -155284.68    544.64185    565591.91    81.701127    83.202729    83.202729 
275000000    537.21072    -157525.4    -155303.4    459.78594    565591.91    81.699153    83.203734    83.203734 
276000000    544.17673   -157545.05   -155294.23     412.2834    565591.91    81.701127    83.202729    83.202729 
277000000    537.61745   -157497.53   -155273.83    643.16664    565591.91    81.707039    83.199719    83.199719 
278000000    543.23753   -157523.39   -155276.45    662.68431    565591.91    81.716866    83.194716    83.194716 
279000000    538.57461   -157510.94   -155283.29     635.1445    565591.91     81.73057    83.187741    83.187741 
280000000     540.8537   -157535.15   -155298.07    422.76825    565591.91    81.748097    83.178823    83.178823 
281000000    539.44881   -157524.82   -155293.56    504.30059    565591.91    81.769377    83.167999    83.167999 
282000000    537.64015   -157521.55   -155297.77    544.56329    565591.91    81.794326    83.155313    83.155313 
283000000    541.43138   -157540.24   -155300.78    527.17042    565591.91    81.822847     83.14082     83.14082 
284000000    540.60653   -157512.77   -155276.72    662.94704    565591.91    81.854825    83.124578    83.124578 
285000000    541.37372    -157526.6   -155287.37    490.63445    565591.91    81.890136    83.106654    83.106654 
286000000    544.00771   -157531.45   -155281.33    502.64887    565591.91     81.92864    83.087123    83.087123 
287000000    541.30065   -157507.42    -155268.5    764.91229    565591.91    81.970185    83.066065    83.066065 
288000000    541.78863   -157552.91   -155311.97    347.18287    565591.91    82.014606    83.043566    83.043566 
289000000     540.3032   -157521.02   -155286.22    587.14481    565591.91    82.061729     83.01972     83.01972 
290000000     540.0311   -157543.39   -155309.71    604.87436    565591.91    82.111368    82.994622    82.994622 
291000000    539.69177   -157543.48   -155311.21    350.79284    565591.91    82.163326    82.968376    82.968376 
292000000    541.59326   -157518.05   -155277.92    543.29222    565591.91      82.2174    82.941088    82.941088 
293000000    540.78638   -157540.53   -155303.73    410.09294    565591.91    82.273374    82.912869    82.912869 
294000000    540.57536   -157543.87   -155307.95    337.24537    565591.91    82.331029    82.883832    82.883832 
295000000    540.03122   -157540.39   -155306.71    543.60717    565591.91    82.390136    82.854096    82.854096 
296000000    540.27793   -157543.42   -155308.73    308.27232    565591.91    82.450463    82.823779    82.823779 
297000000    539.65187      -157559   -155326.89    370.69646    565591.91    82.511772    82.793003    82.793003 
298000000    543.92563   -157564.18    -155314.4    309.62585    565591.91     82.57382    82.761891    82.761891 
299000000    538.20107   -157556.74   -155330.63    296.74783    565591.91    82.636363    82.730566    82.730566 
300000000    544.21954   -157528.77   -155277.77     510.0682    565591.91    82.699153    82.699153    82.699153 
301000000    539.82624   -157541.31   -155308.48    414.99597    565591.91    82.761944    82.667776    82.667776 
302000000    541.00222   -157530.67   -155292.98    676.58407    565591.91    82.824487    82.636558    82.636558 
303000000    536.87489   -157511.68   -155291.06    749.07184    565591.91    82.886535    82.605622    82.605622 
304000000    538.77114   -157526.38   -155297.92     383.0984    565591.91    82.947843    82.575088    82.575088 
305000000    538.73517   -157561.64   -155333.33     325.3483    565591.91     83.00817    82.545076    82.545076 
306000000    539.27049   -157515.91   -155285.39    537.78861    565591.91    83.067278    82.515703    82.515703 
307000000    539.53278   -157533.78   -155302.17    404.65477    565591.91    83.124933    82.487082    82.487082 
308000000    543.97056    -157533.5   -155283.53    548.63542    565591.91    83.180907    82.459324    82.459324 
309000000    540.37487   -157548.66   -155313.57    395.84394    565591.91     83.23498    82.432535    82.432535 
310000000    539.42854   -157503.79   -155272.61    596.92042    565591.91    83.286939    82.406818    82.406818 
311000000    541.84732   -157553.92   -155312.73     316.4582    565591.91    83.336577    82.382272    82.382272 
312000000    538.25965   -157533.91   -155307.56    476.02711    565591.91      83.3837     82.35899     82.35899 
313000000    544.96575   -157534.62   -155280.54    491.45708    565591.91    83.428122    82.337061    82.337061 
314000000     537.4415   -157532.42   -155309.46    501.37272    565591.91    83.469667    82.316568    82.316568 
315000000    540.77664   -157522.95    -155286.2    513.82358    565591.91     83.50817    82.297589    82.297589 
316000000    540.75958   -157511.91   -155275.22    709.67577    565591.91    83.543481    82.280195    82.280195 
317000000    539.34828   -157520.54   -155289.69    519.59854    565591.91     83.57546    82.264452    82.264452 
318000000    537.22619   -157526.33   -155304.26    521.84113    565591.91     83.60398    82.250419    82.250419 
319000000    537.54728   -157540.38   -155316.98    300.78064    565591.91     83.62893    82.238149    82.238149 
320000000    541.67255    -157526.7   -155286.24    517.58582    565591.91     83.65021    82.227688    82.227688 
321000000    542.16373   -157527.32   -155284.82    571.16907    565591.91    83.667736    82.219075    82.219075 
322000000    537.80312    -157511.1   -155286.64    601.00835    565591.91    83.681441    82.212342    82.212342 
323000000    543.81211   -157526.74   -155277.43    553.73279    565591.91    83.691268    82.207515    82.207515 
324000000    544.03862   -157526.39   -155276.14    591.44016    565591.91     83.69718    82.204612    82.204612 
325000000    538.04777   -157524.75   -155299.28    436.48233    565591.91    83.699153    82.203643    82.203643 
326000000    535.51624   -157543.38   -155328.38    476.86481    565591.91     83.69718    82.204612    82.204612 
327000000    543.08234   -157535.52   -155289.23    428.39482    565591.91    83.691268    82.207515    82.207515 
328000000      540.529   -157542.97   -155307.24    513.72287    565591.91    83.681441    82.212342    82.212342 
329000000    539.79376   -157540.11   -155307.42    508.95832    565591.91    83.667736    82.219075    82.219075 
330000000    539.65653   -157524.56   -155292.44    591.70465    565591.91     83.65021    82.227688    82.227688 
331000000    537.90507   -157524.87   -155299.99    666.63736    565591.91     83.62893    82.238149    82.238149 
332000000    537.65639   -157530.37   -155306.52    524.33402    565591.91     83.60398    82.250419    82.250419 
333000000    541.89184   -157510.73   -155269.36    598.30087    565591.91     83.57546    82.264452    82.264452 
334000000    540.08201   -157515.68   -155281.79    619.03307    565591.91    83.543481    82.280195    82.280195 
335000000     539.6856   -157533.75   -155301.51    502.78795    565591.91     83.50817    82.297589    82.297589 
336000000    542.89946   -157519.28   -155273.74    605.24659    565591.91    83.469667    82.316568    82.316568 
337000000    539.86215   -157524.57   -155291.59    679.82281    565591.91    83.428122    82.337061    82.337061 
338000000    538.73517    -157524.7   -155296.39    587.45251    565591.91      83.3837     82.35899     82.35899 
339000000    538.80188   -157545.77   -155317.18    409.94273    565591.91    83.336577    82.382272    82.382272 
340000000    539.82429   -157534.77   -155301.95    514.96649    565591.91    83.286939    82.406818    82.406818 
341000000    542.80373   -157534.55   -155289.41    528.03771    565591.91     83.23498    82.432535    82.432535 
342000000     538.6377   -157516.89   -155288.98    527.31769    565591.91    83.180907    82.459324    82.459324 
343000000    537.28354   -157522.91    -155300.6    549.51454    565591.91    83.124933    82.487082    82.487082 
344000000    543.23696   -157526.22   -155279.29    548.69549    565591.91    83.067278    82.515703    82.515703 
345000000    535.90116   -157528.77   -155312.18    629.15825    565591.91     83.00817    82.545076    82.545076 
346000000    537.20422   -157552.44   -155330.46     356.8838    565591.91    82.947843    82.575088    82.575088 
347000000    542.81651   -157513.01   -155267.82    670.73468    565591.91    82.886535    82.605622    82.605622 
348000000    537.68836   -157548.72   -155324.74    370.72362    565591.91    82.824487    82.636558    82.636558 
349000000    542.59742   -157531.48   -155287.19     492.4528    565591.91    82.761944    82.667776    82.667776 
350000000    537.52099   -157529.41   -155306.11    644.03746    565591.91    82.699153    82.699153    82.699153 
351000000     537.3179   -157531.69   -155309.24    607.50205    565591.91    82.636363    82.730566    82.730566 
352000000    540.53154   -157552.38   -155316.64    326.13518    565591.91     82.57382    82.761891    82.761891 
353000000      535.596   -157535.74   -155320.41    459.75408    565591.91    82.511772    82.793003    82.793003 
354000000    544.88495    -157538.5   -155284.75    540.07114    565591.91    82.450463    82.823779    82.823779 
355000000    539.97107   -157529.13    -155295.7    670.59213    565591.91    82.390136    82.854096    82.854096 
356000000    538.06666   -157530.32   -155304.77    479.01226    565591.91    82.331029    82.883832    82.883832 
357000000    540.04586   -157541.84    -155308.1    543.31025    565591.91    82.273374    82.912869    82.912869 
358000000    545.20071   -157518.12   -155263.06    632.04819    565591.91      82.2174    82.941088    82.941088 
359000000    542.72421   -157541.52   -155296.71     509.1743    565591.91    82.163326    82.968376    82.968376 
360000000     539.7327   -157544.43   -155311.99    486.60713    565591.91    82.111368    82.994622    82.994622 
361000000    540.13561   -157525.35   -155291.24    591.05524    565591.91    82.061729     83.01972     83.01972 
362000000    539.85629   -157530.59   -155297.64    585.12414    565591.91    82.014606    83.043566    83.043566 
363000000    540.68594   -157542.43   -155306.05    438.61924    565591.91    81.970185    83.066065    83.066065 
364000000    538.92979   -157537.43   -155308.31    627.44106    565591.91     81.92864    83.087123    83.087123 
365000000    542.81103   -157527.04   -155281.87    579.00016    565591.91    81.890136    83.106654    83.106654 
366000000    544.25976   -157519.39   -155268.22    593.60982    565591.91    81.854825    83.124578    83.124578 
367000000    540.86308   -157520.59   -155283.47     689.9212    565591.91    81.822847     83.14082     83.14082 
368000000    538.15878   -157520.38   -155294.45    665.70925    565591.91    81.794326    83.155313    83.155313 
369000000    541.79656   -157523.86   -155282.88    605.88875    565591.91    81.769377    83.167999    83.167999 
370000000    537.58083   -157523.94    -155300.4    637.96078    565591.91    81.748097    83.178823    83.178823 
371000000    541.93903   -157509.52   -155267.96    698.16014    565591.91     81.73057    83.187741    83.187741 
372000000    540.43398   -157519.29   -155283.95    680.74265    565591.91    81.716866    83.194716    83.194716 
373000000    542.76564   -157511.96   -155266.97    622.24492    565591.91    81.707039    83.199719    83.199719 
374000000    540.02667   -157509.17   -155275.51    613.73529    565591.91    81.701127    83.202729    83.202729 
375000000    546.85684   -157519.61   -155257.71    675.12542    565591.91    81.699153    83.203734    83.203734 
376000000    537.10562   -157519.67   -155298.09    610.93306    565591.91    81.701127    83.202729    83.202729 
377000000    544.24748   -157513.74   -155262.63    603.36326    565591.91    81.707039    83.199719    83.199719 
378000000    542.76581   -157533.05   -155288.07    474.51878    565591.91    81.716866    83.194716    83.194716 
379000000    535.21441   -157536.34   -155322.59    396.96237    565591.91     81.73057    83.187741    83.187741 
380000000    539.60906   -157535.23    -155303.3     428.0227    565591.91    81.748097    83.178823    83.178823 
381000000    542.81796   -157535.33   -155290.13    554.79664    565591.91    81.769377    83.167999    83.167999 
382000000    540.55852   -157520.23   -155284.37    570.19714    565591.91    81.794326    83.155313    83.155313 
383000000    539.08985   -157521.56   -155291.78    461.68705    565591.91    81.822847     83.14082     83.14082 
384000000    542.17823   -157529.58   -155287.03    552.37862    565591.91    81.854825    83.124578    83.124578 
385000000    542.42914   -157533.84   -155290.25     534.9295    565591.91    81.890136    83.106654    83.106654 
386000000    539.18502   -157527.35   -155297.18    587.16022    565591.91     81.92864    83.087123    83.087123 
387000000    539.31356   -157523.25   -155292.54    575.14299    565591.91    81.970185    83.066065    83.066065 
388000000    540.78111   -157510.26   -155273.48    628.21686    565591.91    82.014606    83.043566    83.043566 
389000000     539.1386   -157521.57   -155291.58    556.47286    565591.91    82.061729     83.01972     83.01972 
390000000    538.03578   -157530.89   -155305.47    578.91848    565591.91    82.111368    82.994622    82.994622 
391000000    538.96094   -157544.06   -155314.81    450.66754    565591.91    82.163326    82.968376    82.968376 
392000000    536.38867   -157535.48   -155316.87    360.84707    565591.91      82.2174    82.941088    82.941088 
393000000    537.81702   -157546.71    -155322.2    327.95273    565591.91    82.273374    82.912869    82.912869 
394000000    539.55269   -157555.59    -155323.9    483.24973    565591.91    82.331029    82.883832    82.883832 
395000000    540.99522   -157555.97   -155318.31    317.05274    565591.91    82.390136    82.854096    82.854096 
396000000     538.9752    -157540.6   -155311.29    594.42459    565591.91    82.450463    82.823779    82.823779 
397000000    538.64418   -157540.78   -155312.84    558.34916    565591.91    82.511772    82.793003    82.793003 
398000000     541.0763   -157554.45   -155316.45    419.14331    565591.91     82.57382    82.761891    82.761891 
399000000    538.04749   -157525.69   -155300.22    680.70304    565591.91    82.636363    82.730566    82.730566 
400000000    535.80156   -157530.55   -155314.37    534.47783    565591.91    82.699153    82.699153    82.699153 
401000000     539.4238   -157539.39   -155308.22    518.28694    565591.91    82.761944    82.667776    82.667776 
402000000    540.79011   -157552.34   -155315.53    371.15923    565591.91    82.824487    82.636558    82.636558 
403000000    540.97186   -157542.24   -155304.67    525.03619    565591.91    82.886535    82.605622    82.605622 
404000000    542.69973   -157542.93   -155298.22    549.87892    565591.91    82.947843    82.575088    82.575088 
405000000    537.85473   -157538.86   -155314.19    557.49856    565591.91     83.00817    82.545076    82.545076 
406000000    538.43204   -157555.25   -155328.19    472.53428    565591.91    83.067278    82.515703    82.515703 
407000000    543.67334   -157554.14    -155305.4     362.7043    565591.91    83.124933    82.487082    82.487082 
408000000    538.51686   -157563.38   -155335.97    302.25525    565591.91    83.180907    82.459324    82.459324 
409000000    535.66037   -157542.23   -155326.64    501.36844    565591.91     83.23498    82.432535    82.432535 
410000000     537.8241   -157534.34    -155309.8    349.34162    565591.91    83.286939    82.406818    82.406818 
411000000    536.48616   -157538.32   -155319.31    393.04984    565591.91    83.336577    82.382272    82.382272 
412000000    543.70202   -157522.01   -155273.15    677.28725    565591.91      83.3837     82.35899     82.35899 
413000000    538.84514   -157529.21   -155300.44    538.48118    565591.91    83.428122    82.337061    82.337061 
414000000    538.16808    -157537.8   -155311.83    589.62683    565591.91    83.469667    82.316568    82.316568 
415000000    537.60427   -157505.92   -155282.28    580.64759    565591.91     83.50817    82.297589    82.297589 
416000000    540.13737   -157548.95   -155314.84    313.31591    565591.91    83.543481    82.280195    82.280195 
417000000    539.58376   -157530.49   -155298.67    557.86726    565591.91     83.57546    82.264452    82.264452 
418000000    541.93897   -157519.56   -155277.99    697.81547    565591.91     83.60398    82.250419    82.250419 
419000000    545.63645    -157527.9   -155271.04    620.13304    565591.91     83.62893    82.238149    82.238149 
420000000     542.0095   -157519.39   -155277.53    529.76169    565591.91     83.65021    82.227688    82.227688 
421000000    537.51121   -157554.27   -155331.02    416.54545    565591.91    83.667736    82.219075    82.219075 
422000000    539.29309   -157532.75   -155302.13    519.07707    565591.91    83.681441    82.212342    82.212342 
423000000    539.30589   -157514.23   -155283.56    737.96257    565591.91    83.691268    82.207515    82.207515 
424000000    539.73869   -157539.42   -155306.95     440.1318    565591.91     83.69718    82.204612    82.204612 
425000000     537.5707    -157532.8    -155309.3    423.15867    565591.91    83.699153    82.203643    82.203643 
426000000    540.02958   -157531.68   -155298.02     630.2542    565591.91     83.69718    82.204612    82.204612 
427000000    539.56096   -157550.86   -155319.13    341.86361    565591.91    83.691268    82.207515    82.207515 
428000000    543.51656   -157529.71   -155281.62    595.20759    565591.91    83.681441    82.212342    82.212342 
429000000    538.33608   -157524.79   -155298.12    546.36324    565591.91    83.667736    82.219075    82.219075 
430000000    541.72232   -157531.71   -155291.04    512.34394    565591.91     83.65021    82.227688    82.227688 
431000000    540.31322   -157538.73   -155303.89    515.97499    565591.91     83.62893    82.238149    82.238149 
432000000    539.17808   -157535.99   -155305.84    573.07106    565591.91     83.60398    82.250419    82.250419 
433000000    543.13575   -157513.11   -155266.59    625.47273    565591.91     83.57546    82.264452    82.264452 
434000000    537.83144   -157526.36   -155301.79    618.13215    565591.91    83.543481    82.280195    82.280195 
435000000    536.65267   -157539.36   -155319.66    566.38911    565591.91     83.50817    82.297589    82.297589 
436000000    540.03326   -157527.03   -155293.34    433.69259    565591.91    83.469667    82.316568    82.316568 
437000000    540.18588   -157516.78   -155282.46    618.91108    565591.91    83.428122    82.337061    82.337061 
438000000    539.72224   -157531.55   -155299.15    444.51563    565591.91      83.3837     82.35899     82.35899 
439000000    540.31951   -157529.59   -155294.72    574.09237    565591.91    83.336577    82.382272    82.382272 
440000000     542.7848      -157540   -155294.94    583.76197    565591.91    83.286939    82.406818    82.406818 
441000000    542.38693   -157536.07   -155292.65     479.7701    565591.91     83.23498    82.432535    82.432535 
442000000    542.97806   -157525.91   -155280.04    639.19418    565591.91    83.180907    82.459324    82.459324 
443000000    538.70078   -157531.09   -155302.91    721.76244    565591.91    83.124933    82.487082    82.487082 
444000000    539.37529   -157543.47   -155312.51    490.78103    565591.91    83.067278    82.515703    82.515703 
445000000    537.21361   -157530.59   -155308.56    502.69301    565591.91     83.00817    82.545076    82.545076 
446000000    540.27714   -157533.31   -155298.62     579.7959    565591.91    82.947843    82.575088    82.575088 
447000000    538.53761   -157552.67   -155325.17    359.82924    565591.91    82.886535    82.605622    82.605622 
448000000    538.71125   -157534.45   -155306.24    551.60528    565591.91    82.824487    82.636558    82.636558 
449000000    540.91428   -157526.41   -155289.09    629.57922    565591.91    82.761944    82.667776    82.667776 
450000000    539.58901   -157554.88   -155323.03    386.62432    565591.91    82.699153    82.699153    82.699153 
451000000    541.87823    -157519.8   -155278.48    667.23665    565591.91    82.636363    82.730566    82.730566 
452000000    539.06969   -157539.68   -155309.98    460.34928    565591.91     82.57382    82.761891    82.761891 
453000000    540.40248   -157543.53   -155308.32    529.26705    565591.91    82.511772    82.793003    82.793003 
454000000    538.64731   -157533.07   -155305.12    516.52714    565591.91    82.450463    82.823779    82.823779 
455000000    539.57869   -157536.65   -155304.85    547.39026    565591.91    82.390136    82.854096    82.854096 
456000000     543.9469   -157538.51   -155288.64    541.32051    565591.91    82.331029    82.883832    82.883832 
457000000    542.00727   -157537.11   -155295.26    504.10335    565591.91    82.273374    82.912869    82.912869 
458000000    535.29443   -157528.69   -155314.61    574.08153    565591.91      82.2174    82.941088    82.941088 
459000000    538.76648   -157524.59   -155296.14    695.63756    565591.91    82.163326    82.968376    82.968376 
460000000    539.31115   -157530.51   -155299.81    646.34931    565591.91    82.111368    82.994622    82.994622 
461000000    533.31227   -157528.95   -155323.07    546.84864    565591.91    82.061729     83.01972     83.01972 
462000000    540.97336   -157529.04   -155291.47    688.24811    565591.91    82.014606    83.043566    83.043566 
463000000    537.55321    -157542.2   -155318.77    329.94441    565591.91    81.970185    83.066065    83.066065 
464000000    540.11911   -157520.16   -155286.12    589.53134    565591.91     81.92864    83.087123    83.087123 
465000000    542.42961   -157512.69    -155269.1    726.65842    565591.91    81.890136    83.106654    83.106654 
466000000     538.8692   -157506.95   -155278.08    597.15058    565591.91    81.854825    83.124578    83.124578 
467000000    540.51983   -157503.15   -155267.45    682.23782    565591.91    81.822847     83.14082     83.14082 
468000000    544.31277   -157521.75   -155270.36    513.53299    565591.91    81.794326    83.155313    83.155313 
469000000    539.89531   -157518.68   -155285.57    621.63833    565591.91    81.769377    83.167999    83.167999 
470000000    542.39324   -157513.28   -155269.83    603.29654    565591.91    81.748097    83.178823    83.178823 
471000000    542.50633   -157518.42   -155274.51    601.08474    565591.91     81.73057    83.187741    83.187741 
472000000    540.09571   -157529.72   -155295.78     651.9716    565591.91    81.716866    83.194716    83.194716 
473000000    538.52564   -157515.99   -155288.54    570.08467    565591.91    81.707039    83.199719    83.199719 
474000000    538.10564   -157510.31    -155284.6      637.102    565591.91    81.701127    83.202729    83.202729 
475000000    544.67458   -157512.16   -155259.28     685.8515    565591.91    81.699153    83.203734    83.203734 
476000000     542.4498   -157513.16   -155269.48    697.53475    565591.91    81.701127    83.202729    83.202729 
477000000    539.67543    -157512.8    -155280.6    683.57397    565591.91    81.707039    83.199719    83.199719 
478000000     537.3519   -157515.64   -155293.05    649.49025    565591.91    81.716866    83.194716    83.194716 
479000000    536.99714   -157526.51   -155305.38    581.06469    565591.91     81.73057    83.187741    83.187741 
480000000    540.31159   -157533.14   -155298.31    556.66662    565591.91    81.748097    83.178823    83.178823 
481000000    540.26897   -157514.81   -155280.15    580.01397    565591.91    81.769377    83.167999    83.167999 
482000000    539.26266   -157535.76   -155305.26    482.33403    565591.91    81.794326    83.155313    83.155313 
483000000    540.75725   -157529.41   -155292.73    420.69458    565591.91    81.822847     83.14082     83.14082 
484000000    540.27699   -157508.33   -155273.64     827.8287    565591.91    81.854825    83.124578    83.124578 
485000000    535.76342   -157513.62    -155297.6    545.35999    565591.91    81.890136    83.106654    83.106654 
486000000    543.72961   -157522.75   -155273.78     636.5599    565591.91     81.92864    83.087123    83.087123 
487000000    536.16764   -157518.98   -155301.28    606.16202    565591.91    81.970185    83.066065    83.066065 
488000000    537.07725   -157515.74   -155294.28    608.49027    565591.91    82.014606    83.043566    83.043566 
489000000     539.7733    -157528.3   -155295.69    527.00036    565591.91    82.061729     83.01972     83.01972 
490000000    541.05251   -157544.06   -155306.16    425.12176    565591.91    82.111368    82.994622    82.994622 
491000000    537.48771   -157532.16   -155309.01    453.48112    565591.91    82.163326    82.968376    82.968376 
492000000    540.54725   -157542.87   -155307.06    382.84914    565591.91      82.2174    82.941088    82.941088 
493000000    536.04055   -157530.89   -155313.72    563.09512    565591.91    82.273374    82.912869    82.912869 
494000000    539.07146   -157541.24   -155311.53    393.25649    565591.91    82.331029    82.883832    82.883832 
495000000     541.0105   -157544.63   -155306.91    418.74599    565591.91    82.390136    82.854096    82.854096 
496000000    538.66135   -157549.52   -155321.51    199.48744    565591.91    82.450463    82.823779    82.823779 
497000000    539.96684   -157536.65   -155303.25    490.54966    565591.91    82.511772    82.793003    82.793003 
498000000    537.44903   -157557.12   -155334.13    309.87291    565591.91     82.57382    82.761891    82.761891 
499000000    537.26413    -157534.6   -155312.37    533.71351    565591.91    82.636363    82.730566    82.730566 
500000000    538.88379   -157537.02    -155308.1    482.90368    565591.91    82.699153    82.699153    82.699153 
501000000    540.84022   -157529.86   -155292.84    474.31039    565591.91    82.761944    82.667776    82.667776 
502000000    539.21918   -157525.29   -155294.97    642.18963    565591.91    82.824487    82.636558    82.636558 
503000000    542.13125   -157537.66    -155295.3    486.13072    565591.91    82.886535    82.605622    82.605622 
504000000     543.2771   -157523.63   -155276.53    744.24931    565591.91    82.947843    82.575088    82.575088 
505000000    537.06275   -157545.88   -155324.48    465.62565    565591.91     83.00817    82.545076    82.545076 
506000000    537.88187   -157549.37   -155324.59    407.29989    565591.91    83.067278    82.515703    82.515703 
507000000    542.19039   -157539.35   -155296.75    503.70116    565591.91    83.124933    82.487082    82.487082 
508000000    541.25539   -157544.63   -155305.89    337.10046    565591.91    83.180907    82.459324    82.459324 
509000000     536.1692   -157546.34   -155328.63    502.23273    565591.91     83.23498    82.432535    82.432535 
510000000    536.20037   -157519.39   -155301.56    512.59971    565591.91    83.286939    82.406818    82.406818 
511000000    540.50516   -157538.14    -155302.5    452.98673    565591.91    83.336577    82.382272    82.382272 
512000000    542.14495   -157532.48   -155290.06    458.72233    565591.91      83.3837     82.35899     82.35899 
513000000    538.75733      -157534    -155305.6    536.04789    565591.91    83.428122    82.337061    82.337061 
514000000    533.98552   -157532.58   -155323.91    423.67751    565591.91    83.469667    82.316568    82.316568 
515000000    544.50528   -157511.21   -155259.03    645.01415    565591.91     83.50817    82.297589    82.297589 
516000000    537.64726   -157539.15   -155315.33    468.47308    565591.91    83.543481    82.280195    82.280195 
517000000     537.8265   -157528.07   -155303.51    550.86503    565591.91     83.57546    82.264452    82.264452 
518000000    539.19607   -157534.89   -155304.67    411.29373    565591.91     83.60398    82.250419    82.250419 
519000000    538.01381   -157529.92   -155304.59    523.40756    565591.91     83.62893    82.238149    82.238149 
520000000    540.68288   -157536.63   -155300.26    515.99285    565591.91     83.65021    82.227688    82.227688 
521000000    539.74335   -157531.52   -155299.03    433.58102    565591.91    83.667736    82.219075    82.219075 
522000000    538.89594   -157518.19   -155289.21    630.71696    565591.91    83.681441    82.212342    82.212342 
523000000    540.30617    -157520.5   -155285.69    533.65618    565591.91    83.691268    82.207515    82.207515 
524000000     543.5994    -157518.8   -155270.37    595.51865    565591.91     83.69718    82.204612    82.204612 
525000000    545.84692   -157524.38   -155266.65    630.65561    565591.91    83.699153    82.203643    82.203643 
526000000    542.34274   -157529.39   -155286.15    472.07764    565591.91     83.69718    82.204612    82.204612 
527000000    535.65072   -157523.03   -155307.47      582.628    565591.91    83.691268    82.207515    82.207515 
528000000    540.63062   -157525.24   -155289.09     546.3526    565591.91    83.681441    82.212342    82.212342 
529000000    541.32944   -157546.72   -155307.67    426.82216    565591.91    83.667736    82.219075    82.219075 
530000000    536.53266   -157520.76   -155301.56     643.0715    565591.91     83.65021    82.227688    82.227688 
531000000    543.82881   -157536.59   -155287.21      425.968    565591.91     83.62893    82.238149    82.238149 
532000000    544.68667   -157525.92   -155272.99    551.47265    565591.91     83.60398    82.250419    82.250419 
533000000    540.01718   -157534.53   -155300.91    577.50832    565591.91     83.57546    82.264452    82.264452 
534000000     535.7482   -157541.02   -155325.06    370.83715    565591.91    83.543481    82.280195    82.280195 
535000000    543.52437   -157527.19   -155279.07    527.33944    565591.91     83.50817    82.297589    82.297589 
536000000    538.60691   -157524.84   -155297.05    628.24872    565591.91    83.469667    82.316568    82.316568 
537000000    538.56869   -157538.27   -155310.64    311.99466    565591.91    83.428122    82.337061    82.337061 
538000000    540.66501    -157524.9   -155288.61    630.33101    565591.91      83.3837     82.35899     82.35899 
539000000    536.31469   -157531.21   -155312.91     628.5019    565591.91    83.336577    82.382272    82.382272 
540000000     542.3178   -157538.17   -155295.04    502.28906    565591.91    83.286939    82.406818    82.406818 
541000000    539.22703   -157525.61   -155295.26    648.20105    565591.91     83.23498    82.432535    82.432535 
542000000    538.38846   -157545.94   -155319.06    334.02709    565591.91    83.180907    82.459324    82.459324 
543000000    535.84001   -157530.73   -155314.39    570.14892    565591.91    83.124933    82.487082    82.487082 
544000000    541.39936   -157561.62   -155322.29    424.26053    565591.91    83.067278    82.515703    82.515703 
545000000    543.49058   -157511.93   -155263.95    667.29051    565591.91     83.00817    82.545076    82.545076 
546000000    537.43774   -157543.51   -155320.56    410.91941    565591.91    82.947843    82.575088    82.575088 
547000000    540.51839   -157537.36   -155301.67     455.4486    565591.91    82.886535    82.605622    82.605622 
548000000    539.27092   -157532.19   -155301.66    544.81072    565591.91    82.824487    82.636558    82.636558 
549000000    539.62755   -157542.15   -155310.14    438.33112    565591.91    82.761944    82.667776    82.667776 
550000000    542.02271   -157539.99   -155298.07    479.94132    565591.91    82.699153    82.699153    82.699153 
551000000    540.54441   -157545.88   -155310.09    484.50893    565591.91    82.636363    82.730566    82.730566 
552000000    539.21509   -157555.04   -155324.74    430.70401    565591.91     82.57382    82.761891    82.761891 
553000000     542.1987   -157537.08   -155294.44    702.41783    565591.91    82.511772    82.793003    82.793003 
554000000    538.10402   -157550.15   -155324.45    467.72366    565591.91    82.450463    82.823779    82.823779 
555000000    539.05457   -157537.96   -155308.32    463.81901    565591.91    82.390136    82.854096    82.854096 
556000000    538.24269   -157528.04   -155301.77    635.04855    565591.91    82.331029    82.883832    82.883832 
557000000    540.59332   -157536.32   -155300.32    416.57821    565591.91    82.273374    82.912869    82.912869 
558000000    539.35599   -157534.78    -155303.9    450.25452    565591.91      82.2174    82.941088    82.941088 
559000000    543.82871   -157537.91   -155288.52    547.31487    565591.91    82.163326    82.968376    82.968376 
560000000    538.45701   -157514.76   -155287.59    609.18755    565591.91    82.111368    82.994622    82.994622 
561000000     541.5197   -157522.95   -155283.12    498.45666    565591.91    82.061729     83.01972     83.01972 
562000000    537.87997    -157531.3   -155306.52    553.96142    565591.91    82.014606    83.043566    83.043566 
563000000    539.76652   -157526.24   -155293.66    603.99959    565591.91    81.970185    83.066065    83.066065 
564000000    542.67352   -157510.44   -155265.83    699.39752    565591.91     81.92864    83.087123    83.087123 
565000000    538.43366   -157528.45   -155301.39    449.28642    565591.91    81.890136    83.106654    83.106654 
566000000    535.96128   -157528.47   -155311.63    737.69475    565591.91    81.854825    83.124578    83.124578 
567000000     541.2653   -157559.72   -155320.94    448.65664    565591.91    81.822847     83.14082     83.14082 
568000000    539.40163   -157531.53   -155300.46     630.8001    565591.91    81.794326    83.155313    83.155313 
569000000    544.80306   -157517.74   -155264.33    726.57812    565591.91    81.769377    83.167999    83.167999 
570000000    541.23703   -157523.68   -155285.02    583.41251    565591.91    81.748097    83.178823    83.178823 
571000000    537.54416   -157525.82   -155302.43     616.1519    565591.91     81.73057    83.187741    83.187741 
572000000    538.06291    -157550.4   -155324.86    344.92769    565591.91    81.716866    83.194716    83.194716 
573000000    540.74994   -157520.05    -155283.4    516.10833    565591.91    81.707039    83.199719    83.199719 
574000000    537.37655    -157516.8    -155294.1     599.9234    565591.91    81.701127    83.202729    83.202729 
575000000    544.92103   -157528.72   -155274.82    490.00831    565591.91    81.699153    83.203734    83.203734 
576000000    539.22372   -157521.34   -155291.01    492.80768    565591.91    81.701127    83.202729    83.202729 
577000000    539.44466   -157517.64   -155286.39    693.24777    565591.91    81.707039    83.199719    83.199719 
578000000    544.18657   -157535.56   -155284.69     520.9023    565591.91    81.716866    83.194716    83.194716 
579000000    540.78018   -157556.71   -155319.94    345.93299    565591.91     81.73057    83.187741    83.187741 
580000000    537.22802   -157528.62   -155306.54    716.09779    565591.91    81.748097    83.178823    83.178823 
581000000    542.04885   -157530.42    -155288.4    688.82178    565591.91    81.769377    83.167999    83.167999 
582000000     542.3695   -157526.31   -155282.97    596.33769    565591.91    81.794326    83.155313    83.155313 
583000000    541.74789   -157515.73   -155274.96    604.39023    565591.91    81.822847     83.14082     83.14082 
584000000    539.51152   -157518.45   -155286.93     562.9512    565591.91    81.854825    83.124578    83.124578 
585000000    540.96884   -157521.08   -155283.52    587.14096    565591.91    81.890136    83.106654    83.106654 
586000000    541.65484   -157543.52   -155303.13    517.77191    565591.91     81.92864    83.087123    83.087123 
587000000    539.94523    -157526.1   -155292.79    565.82283    565591.91    81.970185    83.066065    83.066065 
588000000    540.27706   -157540.01   -155305.32    541.72708    565591.91    82.014606    83.043566    83.043566 
589000000    537.20636   -157527.15   -155305.16    503.25423    565591.91    82.061729     83.01972     83.01972 
590000000    534.16368    -157527.1    -155317.7    590.13148    565591.91    82.111368    82.994622    82.994622 
591000000     536.0931   -157540.81   -155323.42    352.41438    565591.91    82.163326    82.968376    82.968376 
592000000    538.60441   -157549.86   -155322.09    375.33997    565591.91      82.2174    82.941088    82.941088 
593000000    539.08314   -157541.34   -155311.59    367.35735    565591.91    82.273374    82.912869    82.912869 
594000000    539.80112   -157537.36   -155304.64    628.07844    565591.91    82.331029    82.883832    82.883832 
595000000    540.96726    -157534.5   -155296.96    471.42912    565591.91    82.390136    82.854096    82.854096 
596000000    538.40422   -157542.67   -155315.73    461.48556    565591.91    82.450463    82.823779    82.823779 
597000000    541.36077   -157562.05   -155322.88    337.18436    565591.91    82.511772    82.793003    82.793003 
598000000     538.4832   -157556.15   -155328.87    329.04768    565591.91     82.57382    82.761891    82.761891 
599000000    541.88735   -157548.01   -155306.66    495.63728    565591.91    82.636363    82.730566    82.730566 
600000000    539.12095   -157543.15   -155313.24    445.22989    565591.91    82.699153    82.699153    82.699153 
601000000    540.43432   -157551.83   -155316.49    491.44117    565591.91    82.761944    82.667776    82.667776 
602000000    538.37266   -157548.64   -155321.83    459.91426    565591.91    82.824487    82.636558    82.636558 
603000000    544.00159   -157531.74   -155281.65    637.31668    565591.91    82.886535    82.605622    82.605622 
604000000    539.74565   -157542.38   -155309.89    493.83826    565591.91    82.947843    82.575088    82.575088 
605000000    542.10704    -157536.7   -155294.44     475.1736    565591.91     83.00817    82.545076    82.545076 
606000000     539.9035   -157562.64   -155329.49    308.02569    565591.91    83.067278    82.515703    82.515703 
607000000    544.83552   -157536.38   -155282.83    549.55053    565591.91    83.124933    82.487082    82.487082 
608000000    536.23714   -157546.82   -155328.84    383.28488    565591.91    83.180907    82.459324    82.459324 
609000000    541.61985   -157552.32   -155312.07    440.69752    565591.91     83.23498    82.432535    82.432535 
610000000    541.49163   -157527.97   -155288.25    443.66038    565591.91    83.286939    82.406818    82.406818 
611000000    540.44183   -157526.54   -155291.17     525.2679    565591.91    83.336577    82.382272    82.382272 
612000000    542.49523    -157554.3   -155310.44    277.82271    565591.91      83.3837     82.35899     82.35899 
613000000    538.91065   -157537.22   -155308.18     673.5637    565591.91    83.428122    82.337061    82.337061 
614000000    538.01127   -157545.65   -155320.33    508.56553    565591.91    83.469667    82.316568    82.316568 
615000000    540.73781    -157546.7    -155310.1    527.74562    565591.91     83.50817    82.297589    82.297589 
616000000    540.23258   -157534.51   -155300.01    681.33354    565591.91    83.543481    82.280195    82.280195 
617000000     537.3835   -157506.88   -155284.16    636.02554    565591.91     83.57546    82.264452    82.264452 
618000000    541.94649   -157534.75   -155293.15    513.57904    565591.91     83.60398    82.250419    82.250419 
619000000    541.90286   -157530.63   -155289.22    628.75766    565591.91     83.62893    82.238149    82.238149 
620000000    540.88444   -157538.53   -155301.33    599.08954    565591.91     83.65021    82.227688    82.227688 
621000000    541.41353   -157545.53   -155306.14    384.54807    565591.91    83.667736    82.219075    82.219075 
622000000    536.57354   -157541.82   -155322.45    449.24009    565591.91    83.681441    82.212342    82.212342 
623000000    536.77005   -157548.85   -155328.67    309.98771    565591.91    83.691268    82.207515    82.207515 
624000000    539.29519   -157529.49   -155298.86    602.31885    565591.91     83.69718    82.204612    82.204612 
625000000    537.40732   -157550.82      -155328    433.28107    565591.91    83.699153    82.203643    82.203643 
626000000    538.26593   -157544.03   -155317.65    537.89397    565591.91     83.69718    82.204612    82.204612 
627000000    544.35733   -157536.69   -155285.12    453.33053    565591.91    83.691268    82.207515    82.207515 
628000000     540.2312   -157521.71   -155287.21    558.92182    565591.91    83.681441    82.212342    82.212342 
629000000    539.67899   -157540.21   -155307.99    427.22847    565591.91    83.667736    82.219075    82.219075 
630000000    533.84058   -157541.38   -155333.31    299.35556    565591.91     83.65021    82.227688    82.227688 
631000000    537.94601   -157519.67   -155294.62    623.61492    565591.91     83.62893    82.238149    82.238149 
632000000    539.24688   -157527.89   -155297.46    521.44074    565591.91     83.60398    82.250419    82.250419 
633000000    541.61872   -157556.56   -155316.32    346.58627    565591.91     83.57546    82.264452    82.264452 
634000000    541.94012   -157522.77    -155281.2    500.51046    565591.91    83.543481    82.280195    82.280195 
635000000    540.58984   -157529.36   -155293.37    399.77494    565591.91     83.50817    82.297589    82.297589 
636000000    539.55642    -157555.7   -155323.99    431.30155    565591.91    83.469667    82.316568    82.316568 
637000000    538.44933   -157556.52   -155329.39    334.18349    565591.91    83.428122    82.337061    82.337061 
638000000    537.08614   -157530.43   -155308.93    357.50461    565591.91      83.3837     82.35899     82.35899 
639000000    540.70829   -157542.15   -155305.68    376.99344    565591.91    83.336577    82.382272    82.382272 
640000000    544.04149   -157559.06    -155308.8    262.18947    565591.91    83.286939    82.406818    82.406818 
641000000    540.00586   -157538.07    -155304.5    444.76594    565591.91     83.23498    82.432535    82.432535 
642000000    540.14414   -157539.92   -155305.78    411.82988    565591.91    83.180907    82.459324    82.459324 
643000000     536.3968    -157549.9   -155331.26    254.25255    565591.91    83.124933    82.487082    82.487082 
644000000    538.80599   -157545.41    -155316.8    440.80204    565591.91    83.067278    82.515703    82.515703 
645000000    542.49448   -157539.56   -155295.69    474.63789    565591.91     83.00817    82.545076    82.545076 
646000000    541.59039   -157557.23    -155317.1    290.40426    565591.91    82.947843    82.575088    82.575088 
647000000    541.00009   -157564.71   -155327.03    287.67884    565591.91    82.886535    82.605622    82.605622 
648000000    540.84189   -157564.97   -155327.95    394.59524    565591.91    82.824487    82.636558    82.636558 
649000000    539.74015    -157539.7   -155307.23    347.94671    565591.91    82.761944    82.667776    82.667776 
650000000     540.8617   -157562.11      -155325    179.79536    565591.91    82.699153    82.699153    82.699153 
651000000    539.03649    -157546.1   -155316.54    440.90872    565591.91    82.636363    82.730566    82.730566 
652000000    539.19014   -157553.65   -155323.45    408.14448    565591.91     82.57382    82.761891    82.761891 
653000000    539.94957   -157546.89   -155313.55    286.68757    565591.91    82.511772    82.793003    82.793003 
654000000    544.09021   -157538.33   -155287.87    549.87837    565591.91    82.450463    82.823779    82.823779 
655000000    538.32667   -157539.04   -155312.42    482.29974    565591.91    82.390136    82.854096    82.854096 
656000000    544.20969   -157536.54   -155285.58    477.83607    565591.91    82.331029    82.883832    82.883832 
657000000     535.4955   -157554.86   -155339.95    362.88086    565591.91    82.273374    82.912869    82.912869 
658000000    537.40152   -157536.31   -155313.51    448.02212    565591.91      82.2174    82.941088    82.941088 
659000000    538.10241   -157528.95   -155303.25    481.06457    565591.91    82.163326    82.968376    82.968376 
660000000    543.11903   -157540.51   -155294.06     439.3926    565591.91    82.111368    82.994622    82.994622 
661000000    542.20865   -157536.84   -155294.16    539.15183    565591.91    82.061729     83.01972     83.01972 
662000000    542.21612   -157518.37   -155275.66    718.49595    565591.91    82.014606    83.043566    83.043566 
663000000    536.23501   -157539.33   -155321.36     439.6858    565591.91    81.970185    83.066065    83.066065 
664000000    544.47189   -157534.63   -155282.59    474.35613    565591.91     81.92864    83.087123    83.087123 
665000000     536.6638   -157521.81   -155302.07    490.62356    565591.91    81.890136    83.106654    83.106654 
666000000    541.75422   -157536.35   -155295.55    461.96174    565591.91    81.854825    83.124578    83.124578 
667000000    542.99044   -157525.82    -155279.9    625.38984    565591.91    81.822847     83.14082     83.14082 
668000000    539.67602   -157530.59   -155298.38    451.53905    565591.91    81.794326    83.155313    83.155313 
669000000    536.70343   -157524.43   -155304.52    481.50806    565591.91    81.769377    83.167999    83.167999 
670000000    536.44236   -157510.83      -155292    597.42772    565591.91    81.748097    83.178823    83.178823 
671000000    542.26179   -157545.09   -155302.19    364.48023    565591.91     81.73057    83.187741    83.187741 
672000000    538.08576    -157526.4   -155300.77    502.25859    565591.91    81.716866    83.194716    83.194716 
673000000    543.06953   -157509.02   -155262.78    547.87927    565591.91    81.707039    83.199719    83.199719 
674000000    541.22874   -157521.42   -155282.79     608.9863    565591.91    81.701127    83.202729    83.202729 
675000000    539.08326   -157524.37   -155294.62    576.49045    565591.91    81.699153    83.203734    83.203734 
676000000     542.3046   -157529.63   -155286.55    561.74604    565591.91    81.701127    83.202729    83.202729 
677000000    541.92036   -157545.81   -155304.32    574.23332    565591.91    81.707039    83.199719    83.199719 
[...]
838000000    539.02847   -157543.05   -155313.52    510.02538    565591.91      83.3837     82.35899     82.35899 
839000000     541.6897   -157567.65   -155327.11    288.96336    565591.91    83.336577    82.382272    82.382272 
840000000    537.43539   -157541.24    -155318.3    424.98532    565591.91    83.286939    82.406818    82.406818 
841000000      538.331   -157550.24    -155323.6    507.24237    565591.91     83.23498    82.432535    82.432535 
842000000    540.09255   -157558.72   -155324.79    318.62186    565591.91    83.180907    82.459324    82.459324 
843000000    540.61518   -157561.93   -155325.84    367.36317    565591.91    83.124933    82.487082    82.487082 
844000000    538.53312   -157550.74   -155323.26    556.33309    565591.91    83.067278    82.515703    82.515703 
845000000    540.25565      -157559    -155324.4    391.11175    565591.91     83.00817    82.545076    82.545076 
846000000    540.69569   -157540.03    -155303.6    542.37199    565591.91    82.947843    82.575088    82.575088 
847000000    536.02454    -157573.8    -155356.7    229.51345    565591.91    82.886535    82.605622    82.605622 
848000000    536.62489   -157545.49   -155325.91    280.19472    565591.91    82.824487    82.636558    82.636558 
849000000    540.21643   -157556.28   -155321.84    309.47947    565591.91    82.761944    82.667776    82.667776 
850000000    537.18762   -157562.89   -155340.98    286.48163    565591.91    82.699153    82.699153    82.699153 
851000000    541.44122   -157549.43   -155309.93    324.05112    565591.91    82.636363    82.730566    82.730566 
852000000     536.1962   -157543.29   -155325.47    413.95345    565591.91     82.57382    82.761891    82.761891 
853000000    540.31609   -157561.61   -155326.75    387.20904    565591.91    82.511772    82.793003    82.793003 
854000000    537.57656   -157551.18   -155327.66    329.41182    565591.91    82.450463    82.823779    82.823779 
855000000    539.33693   -157543.02   -155312.22    525.61987    565591.91    82.390136    82.854096    82.854096 
856000000    537.47587   -157550.79   -155327.69    444.80193    565591.91    82.331029    82.883832    82.883832 
857000000    542.91356   -157548.29   -155302.69    438.40253    565591.91    82.273374    82.912869    82.912869 
858000000    538.52498    -157536.3   -155308.85    471.49173    565591.91      82.2174    82.941088    82.941088 
859000000    538.22337   -157561.21   -155335.01     351.4655    565591.91    82.163326    82.968376    82.968376 
860000000    542.67309   -157560.85   -155316.25     282.4208    565591.91    82.111368    82.994622    82.994622 
861000000     534.9256   -157546.76    -155334.2    389.48224    565591.91    82.061729     83.01972     83.01972 
862000000    539.46325   -157528.47   -155297.15    548.57257    565591.91    82.014606    83.043566    83.043566 
863000000    540.99487   -157559.72   -155322.06    371.04485    565591.91    81.970185    83.066065    83.066065 
864000000    536.77971   -157548.82   -155328.59    390.98808    565591.91     81.92864    83.087123    83.087123 
865000000    540.03604   -157547.22   -155313.52    343.42965    565591.91    81.890136    83.106654    83.106654 
866000000    539.98175    -157545.8   -155312.33    352.41398    565591.91    81.854825    83.124578    83.124578 
867000000    539.41913   -157537.74    -155306.6    488.84613    565591.91    81.822847     83.14082     83.14082 
868000000    540.52214    -157527.6   -155291.89    632.64616    565591.91    81.794326    83.155313    83.155313 
869000000    540.08426   -157517.71   -155283.82    726.55017    565591.91    81.769377    83.167999    83.167999 
870000000    540.16108   -157523.52    -155289.3    514.57966    565591.91    81.748097    83.178823    83.178823 
871000000    545.24466   -157533.84    -155278.6    506.02294    565591.91     81.73057    83.187741    83.187741 
872000000    539.76025   -157526.03   -155293.48    451.88651    565591.91    81.716866    83.194716    83.194716 
873000000    542.18577   -157543.87   -155301.28    350.74845    565591.91    81.707039    83.199719    83.199719 
874000000    541.35019   -157534.99   -155295.86    485.06903    565591.91    81.701127    83.202729    83.202729 
875000000    540.41952   -157533.51   -155298.23    519.69543    565591.91    81.699153    83.203734    83.203734 
876000000     538.7451   -157547.91   -155319.56    354.67665    565591.91    81.701127    83.202729    83.202729 
877000000    537.51233   -157535.62   -155312.37    513.00044    565591.91    81.707039    83.199719    83.199719 
878000000    538.93841   -157528.65    -155299.5    564.21073    565591.91    81.716866    83.194716    83.194716 
879000000    539.23007   -157524.88   -155294.52    588.01544    565591.91     81.73057    83.187741    83.187741 
880000000    541.69275   -157548.24    -155307.7      481.021    565591.91    81.748097    83.178823    83.178823 
881000000    540.96878   -157565.71   -155328.16    300.19951    565591.91    81.769377    83.167999    83.167999 
882000000    536.43258   -157533.04   -155314.25    298.87728    565591.91    81.794326    83.155313    83.155313 
883000000    540.17928   -157540.73   -155306.44     381.5065    565591.91    81.822847     83.14082     83.14082 
884000000    539.44446   -157542.45    -155311.2    461.67225    565591.91    81.854825    83.124578    83.124578 
885000000     537.3519   -157521.94   -155299.35    607.67873    565591.91    81.890136    83.106654    83.106654 
886000000    535.61923   -157544.31   -155328.89    358.12682    565591.91     81.92864    83.087123    83.087123 
887000000    536.25186    -157544.7   -155326.66    428.67872    565591.91    81.970185    83.066065    83.066065 
888000000    536.58904   -157544.03   -155324.59    458.36058    565591.91    82.014606    83.043566    83.043566 
889000000    543.08964   -157554.89   -155308.56    391.92011    565591.91    82.061729     83.01972     83.01972 
890000000    538.80787   -157555.38   -155326.76    443.39478    565591.91    82.111368    82.994622    82.994622 
891000000    535.31581   -157550.82   -155336.65    400.54534    565591.91    82.163326    82.968376    82.968376 
892000000    542.66207   -157551.25   -155306.69    459.72819    565591.91      82.2174    82.941088    82.941088 
893000000    541.11143   -157550.39   -155312.24    393.74216    565591.91    82.273374    82.912869    82.912869 
894000000    540.21132   -157565.74   -155331.32    368.96264    565591.91    82.331029    82.883832    82.883832 
895000000    547.96219   -157550.54   -155284.06    587.72059    565591.91    82.390136    82.854096    82.854096 
896000000    540.65521   -157551.31   -155315.06     308.9646    565591.91    82.450463    82.823779    82.823779 
897000000    542.49175   -157553.89   -155310.04    409.50029    565591.91    82.511772    82.793003    82.793003 
898000000     538.9529    -157558.4   -155329.19    428.68624    565591.91     82.57382    82.761891    82.761891 
899000000    539.22174   -157542.16   -155311.83    534.86551    565591.91    82.636363    82.730566    82.730566 
900000000     536.3271   -157566.75    -155348.4    294.16653    565591.91    82.699153    82.699153    82.699153 
901000000    538.44826   -157563.67   -155336.54    454.83793    565591.91    82.761944    82.667776    82.667776 
902000000    542.77604   -157559.08   -155314.05    445.87582    565591.91    82.824487    82.636558    82.636558 
903000000    543.34222   -157563.92   -155316.55    277.47575    565591.91    82.886535    82.605622    82.605622 
904000000    537.22625   -157551.62   -155329.55    439.72426    565591.91    82.947843    82.575088    82.575088 
905000000    538.85738   -157554.53   -155325.71    310.82459    565591.91     83.00817    82.545076    82.545076 
906000000     540.3704   -157549.33   -155314.25    363.70534    565591.91    83.067278    82.515703    82.515703 
907000000    539.94055   -157570.18   -155336.88    227.78286    565591.91    83.124933    82.487082    82.487082 
908000000    535.82277   -157569.76   -155353.49    192.96249    565591.91    83.180907    82.459324    82.459324 
909000000    541.80326   -157568.42   -155327.41    404.88188    565591.91     83.23498    82.432535    82.432535 
910000000     539.5715   -157546.13   -155314.35     443.6316    565591.91    83.286939    82.406818    82.406818 
911000000    539.27756    -157548.8   -155318.24    368.21387    565591.91    83.336577    82.382272    82.382272 
912000000    544.35864   -157548.13   -155296.55    499.76066    565591.91      83.3837     82.35899     82.35899 
913000000    538.09175   -157571.16   -155345.51     260.3368    565591.91    83.428122    82.337061    82.337061 
914000000    541.26058   -157538.18   -155299.42    491.63045    565591.91    83.469667    82.316568    82.316568 
915000000    541.15505   -157533.04   -155294.72    563.33484    565591.91     83.50817    82.297589    82.297589 
916000000    539.69312   -157562.83   -155330.55    431.00407    565591.91    83.543481    82.280195    82.280195 
917000000    540.75651   -157528.37   -155291.69    698.80095    565591.91     83.57546    82.264452    82.264452 
918000000     541.8343   -157537.49   -155296.36    530.81123    565591.91     83.60398    82.250419    82.250419 
919000000    537.94786   -157550.16    -155325.1    445.90639    565591.91     83.62893    82.238149    82.238149 
920000000    543.22139   -157550.64   -155303.77    460.13048    565591.91     83.65021    82.227688    82.227688 
921000000    537.47025   -157548.51   -155325.43    419.71627    565591.91    83.667736    82.219075    82.219075 
922000000    532.16858   -157549.36   -155348.21    352.60186    565591.91    83.681441    82.212342    82.212342 
923000000    539.76619   -157544.01   -155311.44    558.94085    565591.91    83.691268    82.207515    82.207515 
924000000    538.93317   -157553.28   -155324.15    317.96116    565591.91     83.69718    82.204612    82.204612 
925000000    542.42066   -157555.04   -155311.48    294.01802    565591.91    83.699153    82.203643    82.203643 
926000000    540.02575   -157556.51   -155322.86    305.50163    565591.91     83.69718    82.204612    82.204612 
927000000    539.13585   -157553.56   -155323.58    322.53012    565591.91    83.691268    82.207515    82.207515 
928000000    539.82809   -157552.67   -155319.83    310.40425    565591.91    83.681441    82.212342    82.212342 
929000000    540.97999   -157546.37   -155308.77    405.03377    565591.91    83.667736    82.219075    82.219075 
930000000     538.8529   -157541.66   -155312.86    313.93289    565591.91     83.65021    82.227688    82.227688 
931000000    540.40832   -157548.98   -155313.75    479.49994    565591.91     83.62893    82.238149    82.238149 
932000000    536.42654   -157532.36   -155313.59    453.18218    565591.91     83.60398    82.250419    82.250419 
933000000    539.90467   -157547.44   -155314.29    466.37137    565591.91     83.57546    82.264452    82.264452 
934000000      544.205   -157554.21   -155303.28    405.67301    565591.91    83.543481    82.280195    82.280195 
935000000    541.15232   -157542.64   -155304.32    559.99512    565591.91     83.50817    82.297589    82.297589 
936000000    537.90252    -157550.1   -155325.23    447.83885    565591.91    83.469667    82.316568    82.316568 
937000000      539.127   -157568.11   -155338.17    228.56146    565591.91    83.428122    82.337061    82.337061 
938000000    542.95785   -157546.98    -155301.2    384.35436    565591.91      83.3837     82.35899     82.35899 
939000000    544.44105    -157537.2   -155285.29    427.70024    565591.91    83.336577    82.382272    82.382272 
940000000    538.44431   -157546.14   -155319.03    371.53534    565591.91    83.286939    82.406818    82.406818 
941000000    540.53067   -157562.77   -155327.03    289.57654    565591.91     83.23498    82.432535    82.432535 
942000000     544.6997   -157556.69   -155303.71    428.60785    565591.91    83.180907    82.459324    82.459324 
943000000    537.03753   -157574.21   -155352.92    160.93768    565591.91    83.124933    82.487082    82.487082 
944000000    544.55224   -157571.34   -155318.96     544.3955    565591.91    83.067278    82.515703    82.515703 
945000000    538.95084   -157574.89   -155345.68    257.84598    565591.91     83.00817    82.545076    82.545076 
946000000    541.21418   -157566.48   -155327.92    384.49553    565591.91    82.947843    82.575088    82.575088 
947000000    547.07012   -157571.88   -155309.09    340.30307    565591.91    82.886535    82.605622    82.605622 
948000000    540.26275   -157554.57   -155319.94    416.79185    565591.91    82.824487    82.636558    82.636558 
949000000    538.55193   -157560.51   -155332.95    294.50373    565591.91    82.761944    82.667776    82.667776 
950000000    541.66593   -157541.09   -155300.65    371.03174    565591.91    82.699153    82.699153    82.699153 
951000000    541.16191    -157544.5   -155306.15    401.64957    565591.91    82.636363    82.730566    82.730566 
952000000       535.76   -157559.27   -155343.26    198.57131    565591.91     82.57382    82.761891    82.761891 
953000000    538.01171   -157576.91   -155351.59    196.93774    565591.91    82.511772    82.793003    82.793003 
954000000    539.38728   -157559.62   -155328.61    268.25762    565591.91    82.450463    82.823779    82.823779 
955000000     538.4876   -157570.42   -155343.13    248.90824    565591.91    82.390136    82.854096    82.854096 
956000000    541.45768   -157564.49   -155324.91    222.54408    565591.91    82.331029    82.883832    82.883832 
957000000    544.11093   -157551.14   -155300.59    459.88827    565591.91    82.273374    82.912869    82.912869 
958000000    544.55331   -157548.59   -155296.21    593.57706    565591.91      82.2174    82.941088    82.941088 
959000000    540.41101   -157574.48   -155339.24    152.96039    565591.91    82.163326    82.968376    82.968376 
960000000    540.21889   -157565.38   -155330.93    364.28451    565591.91    82.111368    82.994622    82.994622 
961000000    542.36789   -157563.95   -155320.61    216.62831    565591.91    82.061729     83.01972     83.01972 
962000000    539.50633   -157551.74   -155320.23    339.49525    565591.91    82.014606    83.043566    83.043566 
963000000    538.55617   -157556.61   -155329.03    382.55064    565591.91    81.970185    83.066065    83.066065 
964000000    538.53962   -157565.06   -155337.55    283.89234    565591.91     81.92864    83.087123    83.087123 
965000000    539.95592   -157560.29   -155326.93    398.55927    565591.91    81.890136    83.106654    83.106654 
966000000    538.34704   -157543.87   -155317.16    445.73302    565591.91    81.854825    83.124578    83.124578 
967000000    539.07723   -157521.42   -155291.69    539.49956    565591.91    81.822847     83.14082     83.14082 
968000000    542.78368   -157558.04   -155312.98    397.56734    565591.91    81.794326    83.155313    83.155313 
969000000    541.59456   -157566.57   -155326.43    449.86322    565591.91    81.769377    83.167999    83.167999 
970000000    538.46191   -157544.25   -155317.06    506.58609    565591.91    81.748097    83.178823    83.178823 
971000000    543.01013   -157536.91   -155290.92    575.17628    565591.91     81.73057    83.187741    83.187741 
972000000    541.34508   -157548.41    -155309.3    312.32224    565591.91    81.716866    83.194716    83.194716 
973000000    541.30645   -157546.72   -155307.77    477.14884    565591.91    81.707039    83.199719    83.199719 
974000000    540.97334   -157542.94   -155305.37    442.41813    565591.91    81.701127    83.202729    83.202729 
975000000     539.5847    -157539.5   -155307.68     490.4743    565591.91    81.699153    83.203734    83.203734 
976000000    542.67702   -157561.25   -155316.63    406.06117    565591.91    81.701127    83.202729    83.202729 
977000000    540.27616   -157558.48   -155323.79    402.00945    565591.91    81.707039    83.199719    83.199719 
978000000    538.07198   -157548.98   -155323.41    356.15618    565591.91    81.716866    83.194716    83.194716 
979000000    539.72763   -157533.89   -155301.48    487.54196    565591.91     81.73057    83.187741    83.187741 
980000000    537.21165   -157544.97   -155322.96    431.39524    565591.91    81.748097    83.178823    83.178823 
981000000    536.55269    -157544.4   -155325.12    435.79957    565591.91    81.769377    83.167999    83.167999 
982000000    541.66175   -157529.98   -155289.56    554.48815    565591.91    81.794326    83.155313    83.155313 
983000000     539.8013   -157528.54   -155295.82    516.71565    565591.91    81.822847     83.14082     83.14082 
984000000    541.29534   -157560.47   -155321.57    322.55452    565591.91    81.854825    83.124578    83.124578 
985000000    541.68563    -157541.5   -155300.98    498.37217    565591.91    81.890136    83.106654    83.106654 
986000000    541.52087   -157530.14   -155290.31    518.62128    565591.91     81.92864    83.087123    83.087123 
987000000    543.31164   -157545.66   -155298.41    566.74683    565591.91    81.970185    83.066065    83.066065 
988000000     537.2293    -157548.1   -155326.02    340.76553    565591.91    82.014606    83.043566    83.043566 
989000000    539.24684   -157556.91   -155326.48    270.87807    565591.91    82.061729     83.01972     83.01972 
990000000    538.60609   -157568.18    -155340.4    301.36449    565591.91    82.111368    82.994622    82.994622 
991000000    542.77285   -157558.45   -155313.43     391.9423    565591.91    82.163326    82.968376    82.968376 
992000000     538.7568   -157544.61   -155316.21    479.99688    565591.91      82.2174    82.941088    82.941088 
993000000    535.43978   -157572.91   -155358.23    162.33411    565591.91    82.273374    82.912869    82.912869 
994000000     546.3587   -157539.72   -155279.87    511.87512    565591.91    82.331029    82.883832    82.883832 
995000000    538.61798   -157546.05   -155318.22    524.43055    565591.91    82.390136    82.854096    82.854096 
996000000    539.89836   -157563.46   -155330.33    467.46562    565591.91    82.450463    82.823779    82.823779 
997000000     540.8962   -157547.81   -155310.55    454.29075    565591.91    82.511772    82.793003    82.793003 
998000000    534.42289   -157576.23   -155365.75    160.03818    565591.91     82.57382    82.761891    82.761891 
999000000    540.51563   -157564.44   -155328.76    425.85548    565591.91    82.636363    82.730566    82.730566 
1000000000    542.54505   -157567.75   -155323.68    365.91268    565591.91    82.699153    82.699153    82.699153 
Loop time of 594054 on 104 procs for 1000000000 steps with 32000 atoms

Performance: 1454.414 ns/day, 0.017 hours/ns, 1683.349 timesteps/s
99.6% CPU use with 104 MPI tasks x 1 OpenMP threads

MPI task timing breakdown:
Section |  min time  |  avg time  |  max time  |%varavg| %total
---------------------------------------------------------------
Pair    | 3.4686e+05 | 3.5556e+05 | 3.648e+05  | 648.4 | 59.85
Neigh   | 20688      | 21717      | 23805      | 447.1 |  3.66
Comm    | 1.1688e+05 | 1.286e+05  | 1.4034e+05 |1297.8 | 21.65
Output  | 1.4043     | 1.8504     | 1.8609     |   3.2 |  0.00
Modify  | 72984      | 78095      | 84606      |1076.7 | 13.15
Other   |            | 1.008e+04  |            |       |  1.70

Nlocal:        307.692 ave         321 max         295 min
Histogram: 6 2 6 24 14 22 13 8 6 3
Nghost:        2597.31 ave        2637 max        2562 min
Histogram: 3 4 14 9 25 25 17 6 0 1
Neighs:        22451.4 ave       23844 max       20905 min
Histogram: 3 4 10 11 20 19 17 14 4 2

Total # of neighbors = 2334944
Ave neighs/atom = 72.967000
Neighbor list builds = 91117500
Dangerous builds = 0
#clear
#jump dms550.lmp
Total wall time: 165:00:52
