ITEM: TIMESTEP
0
ITEM: NUMBER OF ATOMS
7200
ITEM: BOX BOUNDS xy xz yz pp pp pp
0.0000000000000000e+00 7.7459666924100006e+01 0.0000000000000000e+00
0.0000000000000000e+00 7.7459666924100006e+01 0.0000000000000000e+00
-1.2909944490000000e-01 1.2909944490000000e-01 0.0000000000000000e+00
ITEM: ATOMS id type x y z
1 1 12.1485 20.0113 0
2 1 14.8508 64.0518 0
3 1 75.2002 71.2672 0
4 1 20.4331 8.06234 0
5 1 34.6806 55.9694 0
6 1 56.685 28.6176 0
7 2 5.42115 3.12615 0
8 2 64.8285 46.4363 0
9 1 42.3121 56.1251 0
10 2 19.1035 14.6215 0
11 2 25.4315 53.1718 0
12 1 54.957 11.6269 0
13 2 23.3506 5.84499 0
14 1 46.6017 69.9783 0
15 1 39.4867 31.4213 0
16 1 18.197 14.8804 0
17 1 31.4647 39.995 0
18 1 33.746 5.67738 0
19 1 27.0302 57.697 0
20 2 44.9102 3.67125 0
21 1 12.3453 65.8853 0
22 1 54.1933 10.935 0
23 1 75.6809 45.7481 0
24 1 56.0521 66.3171 0
25 1 6.79156 70.9662 0
26 1 21.2044 67.5673 0
27 2 29.1601 63.7471 0
28 1 51.27 74.0703 0
29 2 22.5714 47.9086 0
30 2 25.5751 31.2996 0
31 1 15.1214 53.3754 0
32 1 51.0362 38.0843 0
33 1 60.8459 48.5769 0
34 2 45.2609 9.77601 0
35 1 75.1627 63.1103 0
36 1 30.632 59.9823 0
37 1 22.3323 61.4251 0
38 1 45.7587 19.8078 0
39 1 22.48 5.55423 0
40 2 24.8211 59.0852 0
41 2 18.529 64.7023 0
42 1 20.9454 1.10965 0
43 1 18.7684 33.6054 0
44 1 34.3543 62.6463 0
45 1 3.39794 34.5079 0
46 1 68.1008 7.65614 0
47 1 73.5184 59.0644 0
48 1 44.1271 68.0924 0
49 2 77.3704 4.22555 0
50 1 31.1052 66.6942 0
51 1 1.20855 9.91247 0
52 2 33.1167 24.2356 0
53 1 53.5083 18.6732 0
54 1 49.8217 30.3115 0
55 1 9.63836 0.988065 0
56 1 45.9417 26.1303 0
57 1 67.4925 43.1093 0
58 1 69.8103 69.1633 0
59 1 34.1051 1.9834 0
60 1 28.692 3.21796 0
61 1 40.5705 75.8276 0
62 1 52.1449 45.0122 0
63 1 57.0631 9.97306 0
64 1 50.5823 45.9104 0
65 1 66.8579 73.7075 0
66 2 55.8533 11.4161 0
67 2 40.7111 35.9825 0
68 2 0.687632 29.1844 0
69 1 62.0681 45.492 0
70 1 8.42215 35.5223 0
71 2 7.50094 42.3127 0
72 1 76.8166 3.4364 0
73 1 6.36098 64.2919 0
74 2 41.4561 22.9151 0
75 1 75.5564 53.4395 0
76 1 19.7128 46.8838 0
77 1 25.0028 74.4739 0
78 1 3.55755 15.4489 0
79 1 12.5718 73.2578 0
80 1 43.4398 16.6332 0
81 1 55.1323 62.2687 0
82 2 44.3256 16.6596 0
83 1 5.6179 32.8064 0
84 1 33.0954 45.7402 0
85 1 34.4132 20.7433 0
86 2 34.7589 64.4992 0
87 1 71.4901 34.9903 0
88 1 18.5838 54.614 0
89 1 27.8651 12.9783 0
90 1 37.6301 37.9359 0
91 2 45.7468 41.1637 0
92 2 41.4259 56.1419 0
93 1 27.8061 16.9292 0
94 1 33.4654 55.6749 0
95 2 39.9235 56.6308 0
96 1 65.2529 1.35229 0
97 1 44.1914 49.0552 0
98 2 2.9694 60.141 0
99 1 61.9715 48.2432 0
100 2 32.4548 30.8155 0
101 1 47.8008 54.4199 0
102 1 56.0307 21.7269 0
103 1 56.6847 70.4576 0
104 1 2.76722 60.9687 0
105 2 40.2076 2.99157 0
106 2 30.3932 34.8431 0
107 1 13.146 31.3379 0
108 1 0.843215 0.872049 0
109 1 35.775 41.5591 0
110 2 65.2757 25.6264 0
111 1 65.8542 12.0598 0
112 1 34.2488 72.773 0
113 2 0.362075 60.3307 0
114 2 74.5321 29.5717 0
115 2 30.4227 12.6853 0
116 2 74.6738 53.681 0
117 1 16.2321 45.9413 0
118 2 46.767 26.6371 0
119 1 62.581 0.160149 0
120 2 5.95716 49.8985 0
121 1 6.18407 3.55829 0
122 1 19.6767 33.0283 0
123 2 5.17874 17.6424 0
124 1 46.62 57.2044 0
125 1 31.7737 27.2724 0
126 1 58.101 52.2875 0
127 1 4.46063 59.0613 0
128 1 14.4118 23.324 0
129 1 16.4343 52.2283 0
130 1 7.16421 2.15225 0
131 1 59.068 24.9946 0
132 2 31.2155 41.8384 0
133 2 52.5974 6.89187 0
134 1 65.7842 51.0728 0
135 1 31.6864 30.4228 0
136 2 55.2743 46.5098 0
137 1 61.7919 56.6961 0
138 2 70.53 47.9972 0
139 1 68.3255 27.2426 0
140 1 3.3961 21.8181 0
141 2 48.2334 63.3615 0
142 1 6.4323 22.5579 0
143 2 40.5513 69.8993 0
144 2 47.1249 75.2566 0
145 2 18.4435 52.846 0
146 1 54.7662 4.07495 0
147 1 9.54391 38.8878 0
148 1 46.399 53.4587 0
149 2 68.0839 49.1739 0
150 1 32.8487 56.531 0
151 2 29.5801 13.8259 0
152 1 49.0309 63.0322 0
153 2 17.2051 46.3635 0
154 2 31.3652 72.3622 0
155 1 70.5712 48.9981 0
156 1 43.3838 10.3262 0
157 1 48.9918 71.0681 0
158 1 60.2614 69.283 0
159 2 10.3744 25.9327 0
160 1 38.1373 17.4913 0
161 1 7.30272 63.6622 0
162 2 72.6356 23.9959 0
163 1 30.693 27.0333 0
164 1 60.2166 29.5644 0
165 1 75.6317 27.8813 0
166 1 1.97127 44.7965 0
167 1 39.2309 0.768176 0
168 1 38.471 72.7696 0
169 1 56.6624 31.0083 0
170 1 57.8309 1.22311 0
171 2 36.8904 60.9285 0
172 2 33.6241 53.806 0
173 2 43.8692 24.4501 0
174 2 27.438 55.8062 0
175 2 30.9343 26.2265 0
176 1 46.1551 16.3462 0
177 1 19.7193 58.5087 0
178 1 61.8048 61.377 0
179 1 64.6363 25.0002 0
180 2 33.7395 39.5878 0
181 1 45.1891 27.6539 0
182 1 61.7796 58.5995 0
183 2 12.0164 37.181 0
184 1 5.22324 67.4302 0
185 2 67.2504 29.5126 0
186 1 58.9944 35.2028 0
187 1 39.6965 46.5409 0
188 1 57.4694 47.796 0
189 2 63.8558 53.0411 0
190 1 23.1102 3.96661 0
191 1 71.7417 8.30075 0
192 1 65.4162 10.3664 0
193 2 10.9347 41.6994 0
194 2 68.7764 69.0854 0
195 1 11.1047 3.25922 0
196 2 49.6289 54.844 0
197 2 20.3803 9.95531 0
198 1 13.5324 61.1841 0
199 2 75.7155 66.2808 0
200 1 59.9135 27.7821 0
201 2 34.6194 1.29809 0
202 2 74.7386 55.1862 0
203 1 52.4154 65.7837 0
204 1 29.702 3.66121 0
205 1 56.0668 26.103 0
206 2 35.7683 37.0125 0
207 2 14.172 9.57025 0
208 1 33.7501 14.088 0
209 1 12.2965 11.5583 0
210 2 5.25535 20.4004 0
211 1 17.1999 8.16114 0
212 2 24.8573 6.1337 0
213 2 55.9925 28.1 0
214 1 71.0309 57.7584 0
215 2 67.0658 22.5179 0
216 1 20.8002 73.5992 0
217 1 59.5734 34.2578 0
218 2 54.7821 58.5122 0
219 2 68.0098 42.4016 0
220 2 42.6571 63.7187 0
221 1 18.9484 45.3886 0
222 1 44.9146 12.5164 0
223 2 39.222 67.4089 0
224 2 27.6826 68.6388 0
225 1 32.3496 23.6707 0
226 2 66.419 57.2157 0
227 2 5.96788 16.3592 0
228 1 34.5259 9.22841 0
229 1 70.9625 27.0263 0
230 1 32.4919 73.9665 0
231 1 10.6113 34.1682 0
232 1 41.969 12.8242 0
233 1 34.6069 7.60963 0
234 1 75.9831 8.20847 0
235 1 60.7338 59.0913 0
236 2 44.5898 70.3021 0
237 1 77.2461 62.2849 0
238 2 9.14718 21.4044 0
239 1 58.4183 2.80044 0
240 2 61.6944 46.2963 0
241 1 47.5761 66.603 0
242 1 18.5574 30.5441 0
243 1 7.23328 56.3332 0
244 1 61.3146 64.3695 0
245 1 10.9391 30.6648 0
246 1 2.04906 35.6603 0
247 1 65.6729 49.974 0
248 1 12.4267 0.770274 0
249 2 50.3186 41.209 0
250 1 29.1845 9.29814 0
251 2 57.8943 50.3392 0
252 2 65.7241 23.2663 0
253 1 19.9 17.5203 0
254 1 54.3611 25.089 0
255 1 65.4438 42.8826 0
256 1 31.1371 8.49661 0
257 1 22.1776 57.8241 0
258 1 26.1172 38.7957 0
259 1 55.6557 56.81 0
260 2 44.0836 53.8391 0
261 2 26.511 62.6464 0
262 1 24.5765 33.9564 0
263 2 12.642 34.5462 0
264 2 71.4544 59.9658 0
265 1 77.0385 46.6966 0
266 1 38.1467 44.7853 0
267 2 61.6815 24.6349 0
268 2 56.7908 46.0083 0
269 1 48.1542 21.1345 0
270 2 9.04598 47.1009 0
271 2 22.6207 33.6755 0
272 2 20.5577 14.3596 0
273 1 14.9882 65.0801 0
274 1 32.3329 50.0115 0
275 1 8.68692 48.9809 0
276 1 75.2672 10.1263 0
277 2 15.7509 71.3279 0
278 1 7.54975 17.487 0
279 1 4.47484 44.4534 0
280 1 20.1587 35.7902 0
281 1 30.6868 38.4748 0
282 2 75.9133 26.336 0
283 1 76.531 55.9222 0
284 2 54.1833 38.4184 0
285 1 71.0161 52.7865 0
286 1 11.4674 63.3063 0
287 1 19.0455 76.7706 0
288 2 75.7672 3.89735 0
289 2 21.3577 39.2666 0
290 2 69.0951 76.4358 0
291 1 35.0854 22.5594 0
292 1 27.6716 58.5125 0
293 1 47.358 19.1421 0
294 1 40.3014 2.14697 0
295 1 69.5012 3.0062 0
296 2 74.0576 8.32805 0
297 1 40.4766 59.7078 0
298 1 72.52 35.2872 0
299 2 49.2207 36.6399 0
300 1 39.2487 43.7184 0
301 1 73.3168 19.5903 0
302 1 50.8331 35.3259 0
303 1 20.5014 32.3799 0
304 1 60.5083 72.4554 0
305 2 58.8951 76.092 0
306 1 63.1426 52.5552 0
307 2 73.4499 38.86 0
308 1 41.5717 5.14898 0
309 2 24.9684 16.9758 0
310 2 13.3581 12.9806 0
311 1 29.4511 49.5429 0
312 1 67.3791 61.6167 0
313 1 74.7116 76.1947 0
314 1 40.5971 46.0882 0
315 2 56.381 31.9312 0
316 2 39.596 63.152 0
317 1 50.8574 20.5264 0
318 2 6.91707 31.0902 0
319 1 30.9308 25.3661 0
320 1 36.1848 61.4824 0
321 1 58.8187 68.4179 0
322 2 73.9741 11.8123 0
323 2 25.3038 63.4125 0
324 1 64.3551 41.529 0
325 1 41.1672 6.19004 0
326 1 9.83297 58.9141 0
327 1 48.8045 54.7074 0
328 1 0.810397 37.0332 0
329 1 41.7369 42.6931 0
330 2 51.6694 35.0656 0
331 2 69.9133 3.79769 0
332 1 59.4736 28.8364 0
333 1 36.8586 12.2616 0
334 1 16.9437 34.7285 0
335 1 20.5157 38.813 0
336 2 72.0778 74.6953 0
337 1 34.7988 33.7848 0
338 2 17.106 1.46193 0
339 1 42.5035 68.2156 0
340 1 18.8984 57.8161 0
341 2 74.1444 44.2109 0
342 1 67.1287 5.87058 0
343 2 56.5937 49.8637 0
344 2 22.8092 65.9394 0
345 1 7.90686 27.6317 0
346 1 17.6602 71.8151 0
347 1 35.5371 56.6345 0
348 1 56.5303 18.936 0
349 1 33.6345 20.0403 0
350 1 37.2552 31.2336 0
351 1 17.9945 53.6235 0
352 1 47.901 30.7991 0
353 1 75.1778 25.7476 0
354 2 22.4842 26.246 0
355 2 43.364 18.3558 0
356 2 11.8307 2.69721 0
357 1 68.5647 67.5281 0
358 1 24.1805 3.69525 0
359 1 22.4382 14.5229 0
360 2 45.2159 31.4902 0
361 2 48.3156 67.0341 0
362 1 26.9662 74.5699 0
363 2 38.2079 73.5752 0
364 1 13.2116 66.4787 0
365 2 8.9374 57.1878 0
366 1 24.883 50.5985 0
367 2 19.6891 23.4177 0
368 2 51.4687 54.9993 0
369 2 65.284 70.5279 0
370 1 3.29985 28.2854 0
371 1 45.9299 73.4106 0
372 2 40.5358 9.93117 0
373 1 10.3597 31.647 0
374 2 66.6294 41.4 0
375 1 52.3781 52.7674 0
376 2 75.5271 43.1815 0
377 2 58.2467 38.1974 0
378 1 20.5224 63.6938 0
379 1 13.8094 20.2201 0
380 1 9.76793 62.4191 0
381 1 26.6062 23.4188 0
382 1 30.6267 23.6607 0
383 1 9.5796 11.8463 0
384 1 34.8941 51.6428 0
385 1 28.5566 77.0117 0
386 1 54.8874 40.3917 0
387 1 59.3362 76.7908 0
388 2 55.996 57.6847 0
389 1 24.6065 56.6202 0
390 1 29.5688 12.9336 0
391 2 59.9197 26.8482 0
392 2 29.9355 9.90754 0
393 2 38.8238 64.8283 0
394 1 10.1669 73.6895 0
395 1 53.1487 21.9322 0
396 1 13.8917 70.4726 0
397 1 46.7826 17.2207 0
398 1 45.3696 70.6745 0
399 1 69.9279 18.0986 0
400 1 59.6808 74.2451 0
401 1 44.4425 11.5229 0
402 2 56.5964 17.0302 0
403 1 38.2563 51.6235 0
404 1 69.4284 70.8635 0
405 2 73.8369 76.3361 0
406 1 34.1523 19.1004 0
407 2 45.61 21.7788 0
408 1 63.4747 30.5488 0
409 1 18.7409 61.2494 0
410 2 67.4187 16.7089 0
411 2 66.5676 36.6278 0
412 1 58.9506 38.7413 0
413 1 7.17071 36.6121 0
414 1 71.378 48.2421 0
415 1 7.17994 41.5333 0
416 2 73.7374 62.3502 0
417 2 74.9996 12.6556 0
418 1 54.2804 30.1511 0
419 2 56.736 47.227 0
420 2 24.8933 55.8429 0
421 1 60.2698 19.565 0
422 1 2.10158 71.3774 0
423 1 4.17554 12.022 0
424 1 60.7671 27.0634 0
425 1 58.869 50.5125 0
426 1 56.0542 73.7514 0
427 2 39.5145 14.9073 0
428 1 51.5811 50.191 0
429 1 59.1892 71.0761 0
430 1 36.6222 37.1402 0
431 1 77.3922 29.5861 0
432 1 63.4473 49.0945 0
433 1 29.1709 69.3762 0
434 1 1.83898 42.8657 0
435 1 64.0471 34.2467 0
436 2 68.0027 39.0418 0
437 2 44.2417 59.5958 0
438 1 38.9496 61.3299 0
439 2 41.1237 12.583 0
440 1 43.4324 43.7799 0
441 2 66.5708 15.2206 0
442 1 9.66904 37.8341 0
443 1 54.5536 16.8928 0
444 1 16.7988 75.2593 0
445 2 69.5078 67.5071 0
446 1 61.6797 42.3373 0
447 1 26.9968 70.7477 0
448 1 46.8838 37.9225 0
449 1 37.3829 73.1924 0
450 2 48.4234 59.6017 0
451 2 6.50753 61.8772 0
452 1 66.5368 11.2406 0
453 1 28.5353 75.9362 0
454 2 62.6406 30.0689 0
455 2 26.5187 67.773 0
456 1 11.4717 44.6418 0
457 2 18.432 1.68776 0
458 1 38.0511 76.9424 0
459 2 15.6696 56.7198 0
460 1 5.70882 4.48514 0
461 2 27.1663 27.3023 0
462 1 45.8063 24.3946 0
463 1 75.8051 69.8405 0
464 1 9.00866 47.9669 0
465 2 40.6604 45.1975 0
466 1 21.7693 12.8451 0
467 2 11.5629 1.23378 0
468 1 19.1621 36.3222 0
469 1 2.0064 2.05562 0
470 1 61.5774 10.5017 0
471 2 74.0955 40.8224 0
472 1 25.5218 43.0236 0
473 1 61.7473 65.9057 0
474 1 33.5283 54.6441 0
475 1 22.5438 59.7391 0
476 2 38.9857 32.2354 0
477 1 60.3583 11.654 0
478 2 33.4257 74.237 0
479 1 33.4186 22.2289 0
480 1 19.818 25.6676 0
481 1 7.03196 18.555 0
482 1 10.8249 25.0755 0
483 2 1.17703 1.68621 0
484 1 14.3458 38.3115 0
485 1 21.3418 57.1055 0
486 1 7.31963 4.67691 0
487 2 70.729 10.3488 0
488 1 58.6919 5.53801 0
489 1 52.2624 15.2152 0
490 1 35.5206 31.1896 0
491 1 30.6793 42.5444 0
492 2 60.9884 9.83023 0
493 1 73.3314 8.83847 0
494 1 67.6309 32.1088 0
495 2 22.5224 49.1005 0
496 2 52.7164 42.331 0
497 2 40.6875 6.92001 0
498 1 23.4756 25.8486 0
499 1 35.9633 74.2546 0
500 1 2.81186 4.2124 0
501 2 45.4698 43.4995 0
502 1 16.7269 24.8189 0
503 1 50.1715 9.86701 0
504 1 37.0763 32.7086 0
505 2 26.5818 76.9411 0
506 2 17.6464 65.2244 0
507 1 41.9989 37.3381 0
508 1 12.7611 32.5565 0
509 1 28.9166 24.8689 0
510 1 7.00368 38.7116 0
511 1 69.2057 26.7257 0
512 1 54.6026 53.3455 0
513 1 11.8124 34.145 0
514 1 25.4277 64.2695 0
515 2 61.2272 11.2947 0
516 2 11.4181 38.4659 0
517 2 74.5451 74.768 0
518 2 19.3171 54.179 0
519 2 33.2792 1.69771 0
520 1 74.471 37.1665 0
521 1 42.0838 24.4824 0
522 2 24.3947 65.9565 0
523 1 77.0601 12.196 0
524 1 70.4761 34.7361 0
525 1 22.7814 0.045665 0
526 2 76.3184 22.3079 0
527 1 49.4269 26.1638 0
528 2 74.601 5.12212 0
529 2 35.5172 44.6611 0
530 1 7.92683 59.5896 0
531 2 76.4351 69.1693 0
532 2 32.1729 60.8592 0
533 1 72.9628 5.75388 0
534 1 34.5402 27.1333 0
535 1 29.005 19.3106 0
536 1 32.6952 65.8338 0
537 1 35.1189 47.9386 0
538 2 16.3782 21.5494 0
539 2 45.9835 76.7607 0
540 1 61.0822 40.8189 0
541 2 25.0587 7.90057 0
542 1 51.3041 56.7138 0
543 2 69.7213 55.5855 0
544 2 51.8428 10.4364 0
545 1 28.1869 22.8655 0
546 1 34.2489 3.0704 0
547 1 10.152 14.364 0
548 2 23.5547 3.10305 0
549 2 65.4002 21.8176 0
550 2 5.25147 39.387 0
551 1 30.2457 7.96675 0
552 2 70.521 40.3039 0
553 2 29.5887 44.8861 0
554 1 51.9734 62.2373 0
555 1 50.3512 57.2299 0
556 1 73.0485 68.1319 0
557 1 62.1162 53.8596 0
558 1 2.48851 68.4779 0
559 1 72.5569 36.3351 0
560 2 21.4926 61.3635 0
561 1 5.61402 0.62505 0
562 2 4.51664 11.1996 0
563 2 54.0071 48.8396 0
564 1 70.2146 68.1727 0
565 2 21.8042 1.37164 0
566 2 18.1766 23.8221 0
567 1 48.8782 42.2895 0
568 2 22.939 73.9892 0
569 2 15.6839 27.4021 0
570 1 73.1399 34.3629 0
571 1 0.388483 3.49561 0
572 2 6.6264 48.7071 0
573 2 0.0313698 44.8342 0
574 1 3.72037 69.0197 0
575 1 18.4149 7.59487 0
576 1 16.5062 63.1345 0
577 1 43.3626 50.5737 0
578 2 67.5968 34.2676 0
579 2 45.9891 68.2852 0
580 1 62.6697 42.8189 0
581 1 6.64022 60.7472 0
582 2 68.6264 59.6648 0
583 2 64.1778 58.7317 0
584 2 33.5167 65.5187 0
585 1 60.8349 0.00973463 0
586 1 48.8774 58.6454 0
587 2 14.6496 21.7431 0
588 1 49.4252 5.24612 0
589 2 53.54 10.3439 0
590 1 24.6199 73.4168 0
591 1 56.1465 6.46052 0
592 1 48.4923 74.2607 0
593 1 43.9969 13.181 0
594 1 59.8787 63.476 0
595 1 72.346 65.4384 0
596 2 7.12392 1.24461 0
597 1 3.48911 44.0097 0
598 1 68.9601 9.20316 0
599 1 2.75481 50.8677 0
600 1 0.209148 47.5634 0
601 2 42.08 36.2722 0
602 1 62.2224 14.3851 0
603 2 71.1589 50.8067 0
604 2 62.3225 16.5428 0
605 1 52.5081 69.1925 0
606 1 41.5182 3.95566 0
607 1 76.3447 1.36834 0
608 2 1.41652 40.2811 0
609 2 40.9294 0.386423 0
610 1 7.90934 49.7229 0
611 1 53.9436 58.7027 0
612 1 76.8585 6.23557 0
613 1 76.8631 22.9994 0
614 2 50.5628 28.4924 0
615 1 34.3659 38.9968 0
616 1 39.6913 16.147 0
617 1 67.6837 1.79138 0
618 2 12.0045 42.7731 0
619 2 55.2282 42.5157 0
620 2 70.9072 74.08 0
621 2 58.3377 35.7481 0
622 1 60.1711 18.1744 0
623 1 37.3398 11.371 0
624 2 20.5972 54.7125 0
625 1 26.9913 76.2024 0
626 1 73.7161 29.2957 0
627 2 2.11845 25.1284 0
628 1 28.696 58.06 0
629 2 77.3362 25.4298 0
630 1 29.0437 73.0153 0
631 1 56.8723 37.1869 0
632 1 21.6803 65.0087 0
633 2 25.5617 71.909 0
634 1 18.8348 50.6637 0
635 2 41.5757 43.6535 0
636 2 37.0545 40.6355 0
637 1 11.2465 11.052 0
638 1 67.3846 40.8721 0
639 1 70.3917 46.3032 0
640 1 0.207868 54.0699 0
641 1 36.608 33.575 0
642 1 9.54508 33.717 0
643 1 50.3013 44.9111 0
644 2 19.346 27.3751 0
645 1 57.0918 52.2814 0
646 1 46.2234 47.1521 0
647 2 23.6936 10.4559 0
648 1 64.1774 12.3991 0
649 2 10.9085 69.2111 0
650 2 47.4444 61.944 0
651 1 46.0083 12.2146 0
652 1 29.6244 70.9373 0
653 2 13.6064 23.1395 0
654 2 10.3388 3.70408 0
655 1 5.5106 51.9912 0
656 1 72.7292 53.8036 0
657 1 33.7564 46.6212 0
658 1 71.5458 13.1446 0
659 2 0.863713 66.22 0
660 1 26.641 35.7045 0
661 1 37.2031 9.88584 0
662 1 32.8055 60.0096 0
663 1 10.569 28.569 0
664 1 58.2425 75.4971 0
665 2 49.1145 76.9267 0
666 2 12.9828 58.3252 0
667 1 26.2911 73.7744 0
668 2 7.84362 76.184 0
669 1 4.3967 9.19981 0
670 2 43.8863 37.8433 0
671 2 37.2199 17.5462 0
672 1 9.91447 19.6384 0
673 1 6.76356 16.5867 0
674 1 32.7838 42.4329 0
675 2 4.92876 58.2494 0
676 2 37.888 6.29272 0
677 1 41.4207 54.2262 0
678 1 53.7672 39.1333 0
679 1 45.9883 69.1161 0
680 1 31.696 53.5988 0
681 1 26.3538 53.9252 0
682 1 62.4203 59.4849 0
683 1 18.1551 59.3601 0
684 1 64.4295 68.9844 0
685 2 35.891 18.6938 0
686 1 50.2117 6.22493 0
687 1 41.5385 18.9852 0
688 2 53.5322 73.5053 0
689 1 72.0523 62.4243 0
690 1 66.0754 72.1319 0
691 1 41.7983 39.9453 0
692 2 59.9449 44.1206 0
693 1 71.1349 77.1579 0
694 2 53.6952 64.3829 0
695 1 42.1388 11.8206 0
696 2 35.6579 47.1675 0
697 1 25.7708 13.3166 0
698 1 8.39059 3.42049 0
699 1 66.7162 13.9364 0
700 1 72.1439 47.0058 0
701 1 64.127 31.3957 0
702 1 63.7143 65.2936 0
703 2 72.1455 2.24562 0
704 2 8.28358 61.3504 0
705 2 4.92982 7.30747 0
706 1 52.2977 51.7243 0
707 2 59.8202 38.6014 0
708 1 50.3544 43.174 0
709 1 51.6086 73.1051 0
710 2 60.2803 28.6832 0
711 1 56.0171 54.1139 0
712 2 62.7111 32.8138 0
713 2 68.5116 70.4986 0
714 2 0.590747 64.8771 0
715 1 45.1846 18.9389 0
716 1 76.4192 29.9584 0
717 1 29.9374 63.383 0
718 1 14.2953 3.66102 0
719 1 53.3352 37.0776 0
720 2 49.1883 38.6039 0
721 2 66.845 39.9154 0
722 1 48.8986 7.99663 0
723 2 39.9506 75.2746 0
724 2 10.4465 59.5663 0
725 1 50.7053 39.3072 0
726 1 8.22164 29.8413 0
727 2 12.9536 1.5206 0
728 1 67.5265 55.6562 0
729 2 21.6775 59.6397 0
730 1 32.8733 27.4745 0
731 2 16.4911 36.3426 0
732 1 16.4979 54.3013 0
733 1 29.9497 29.495 0
734 2 66.5474 46.4577 0
735 1 66.8032 67.3365 0
736 1 47.9261 49.5385 0
737 2 4.17568 45.766 0
738 1 13.5528 34.4233 0
739 1 18.0014 37.4914 0
740 1 48.4648 38.1235 0
741 2 57.283 55.6197 0
742 1 58.972 37.664 0
743 1 27.235 62.1665 0
744 2 72.6938 18.9329 0
745 1 23.1355 72.575 0
746 1 35.0771 10.0882 0
747 1 47.4999 76.0884 0
748 2 43.1044 69.7487 0
749 2 22.2703 24.454 0
750 1 55.3065 35.1224 0
751 1 57.8351 40.2717 0
752 2 2.49181 70.3907 0
753 1 53.1425 39.9362 0
754 2 21.9166 15.2311 0
755 1 24.0027 49.9907 0
756 2 49.3797 75.8397 0
757 1 48.4043 19.4007 0
758 1 6.16384 9.74213 0
759 1 61.8428 47.1926 0
760 1 12.2338 10.5318 0
761 1 69.867 71.8489 0
762 1 15.3085 57.4633 0
763 2 77.0964 7.07109 0
764 1 75.1643 57.1152 0
765 2 47.2269 56.5882 0
766 1 63.2115 22.7453 0
767 1 13.6668 1.01331 0
768 1 65.2529 8.16741 0
769 1 61.7892 50.0897 0
770 2 60.3314 73.7281 0
771 1 18.831 40.0495 0
772 1 44.9461 51.1448 0
773 1 40.7668 43.3341 0
774 2 32.6343 25.6435 0
775 1 71.5984 30.7643 0
776 2 43.6508 42.9616 0
777 1 70.4704 55.2024 0
778 2 10.3623 63.0944 0
779 1 45.2446 25.3463 0
780 1 17.0004 6.18777 0
781 1 29.5565 35.1594 0
782 1 57.5251 64.8434 0
783 1 60.7257 35.5958 0
784 1 70.9214 49.958 0
785 2 8.84036 11.418 0
786 1 73.1949 70.2446 0
787 1 20.8967 66.5946 0
788 1 39.9501 54.8498 0
789 1 10.9885 4.3529 0
790 1 52.1042 70.2063 0
791 1 45.7557 13.3174 0
792 1 8.41416 24.9231 0
793 1 25.2847 15.0423 0
794 2 71.1349 16.6323 0
795 2 75.5444 14.115 0
796 2 75.5735 67.9454 0
797 1 44.6595 65.2783 0
798 1 38.3982 19.0832 0
799 1 44.2473 76.352 0
800 1 30.5349 70.3587 0
801 2 6.41132 25.8386 0
802 2 28.042 45.5613 0
803 2 23.5185 77.1127 0
804 2 52.6185 36.1551 0
805 1 23.815 71.7628 0
806 1 53.0056 70.7801 0
807 2 39.755 50.4801 0
808 1 50.5174 47.2717 0
809 2 36.3169 62.3159 0
810 1 58.177 76.6096 0
811 1 28.6811 60.9998 0
812 2 59.731 48.3285 0
813 2 46.3498 58.0251 0
814 1 54.3385 31.2325 0
815 2 41.0425 16.9801 0
816 1 27.9417 34.48 0
817 1 67.6781 75.6564 0
818 2 36.7454 16.1079 0
819 2 45.8272 56.7709 0
820 1 67.0377 69.87 0
821 1 16.7272 64.8138 0
822 1 56.4187 76.8827 0
823 1 17.2344 55.6111 0
824 2 34.9598 41.9662 0
825 1 29.2428 41.5279 0
826 1 32.9509 74.9477 0
827 1 7.24796 26.072 0
828 1 76.9923 51.2418 0
829 1 72.1161 40.287 0
830 2 48.0936 64.518 0
831 2 43.2411 4.44389 0
832 1 73.8767 14.3058 0
833 1 24.5321 43.3434 0
834 2 48.3711 5.59578 0
835 1 68.3985 6.64118 0
836 1 58.2015 27.6871 0
837 1 56.4199 41.3208 0
838 1 39.0065 52.8577 0
839 1 16.2022 60.2934 0
840 2 15.7464 46.6968 0
841 1 36.8953 52.6261 0
842 2 11.0497 61.2113 0
843 1 5.55574 42.3605 0
844 1 63.359 21.6474 0
845 2 28.0651 2.28555 0
846 1 49.6332 39.3683 0
847 1 11.1694 57.7129 0
848 2 69.054 47.7022 0
849 1 74.0037 10.9585 0
850 1 67.8471 19.7252 0
851 1 39.3931 18.7073 0
852 1 12.1668 1.90425 0
853 1 42.6043 61.4532 0
854 1 37.7156 69.5363 0
855 1 39.504 25.724 0
856 2 18.6639 42.0139 0
857 1 57.7857 34.0073 0
858 2 34.4825 28.927 0
859 1 13.1913 64.7507 0
860 2 2.1785 58.567 0
861 2 60.3936 40.308 0
862 2 2.93111 69.2273 0
863 1 58.992 23.8007 0
864 1 60.3843 53.8014 0
865 2 66.224 68.1196 0
866 1 60.5015 17.1239 0
867 2 31.5755 21.8986 0
868 1 37.1737 61.7601 0
869 1 62.0873 20.2122 0
870 1 0.0866894 52.8747 0
871 1 62.7764 26.2568 0
872 1 42.3345 50.8634 0
873 1 50.8409 62.5377 0
874 1 4.0346 71.6083 0
875 1 34.1295 57.6795 0
876 2 51.462 7.95445 0
877 1 13.4418 55.5841 0
878 2 14.7534 16.0221 0
879 1 76.3793 13.9603 0
880 2 31.7574 33.6031 0
881 2 51.9779 29.3863 0
882 2 47.9281 73.6216 0
883 1 25.6303 20.0736 0
884 1 55.9555 36.6638 0
885 1 38.9107 5.06624 0
886 1 37.1556 60.0017 0
887 2 54.8861 50.2929 0
888 1 0.589848 76.6271 0
889 2 59.2923 49.7154 0
890 2 7.60409 25.2337 0
891 1 38.0964 10.446 0
892 1 40.1223 67.4295 0
893 1 30.0047 53.5881 0
894 1 76.8929 14.8401 0
895 2 32.3659 52.9832 0
896 1 37.5332 2.55676 0
897 2 35.6756 17.0629 0
898 1 31.1854 43.5128 0
899 1 2.07594 75.6831 0
900 2 38.601 0.156477 0
901 1 52.3294 41.4814 0
902 1 24.2818 75.3071 0
903 1 37.9063 40.6721 0
904 2 0.146962 37.6868 0
905 1 63.744 62.1098 0
906 1 68.942 44.72 0
907 1 3.62178 29.7908 0
908 1 50.7502 23.8362 0
909 1 0.354783 48.7682 0
910 2 1.88586 50.6929 0
911 2 4.77839 4.65053 0
912 2 36.2182 32.7894 0
913 2 31.9266 51.5883 0
914 1 18.3792 12.8178 0
915 2 64.7058 5.6399 0
916 1 3.49153 39.8796 0
917 2 4.93137 33.3962 0
918 2 19.3447 35.3815 0
919 1 8.19994 57.7467 0
920 1 15.933 47.6666 0
921 1 0.0462402 26.6955 0
922 2 50.7503 19.0643 0
923 2 12.2894 24.2464 0
924 1 39.1733 17.6094 0
925 1 66.3614 47.3292 0
926 2 35.4786 35.3121 0
927 1 68.7318 0.0589645 0
928 1 52.2588 59.0115 0
929 2 52.0846 32.2677 0
930 2 19.9906 15.798 0
931 1 40.9145 47.6966 0
932 1 70.3858 39.2216 0
933 1 34.3167 21.7869 0
934 1 2.08965 60.143 0
935 1 11.4081 50.6385 0
936 2 42.1666 4.56004 0
937 1 14.33 73.1254 0
938 1 36.7961 67.5143 0
939 2 50.4982 51.2412 0
940 1 75.9585 46.793 0
941 1 77.1331 17.5418 0
942 1 38.0238 29.8292 0
943 2 22.3146 16.6359 0
944 2 2.09172 42.0054 0
945 1 40.5081 25.3889 0
946 1 64.648 67.3467 0
947 2 25.0525 2.04038 0
948 1 39.418 68.2774 0
949 1 26.8234 11.6388 0
950 2 5.15405 9.77924 0
951 1 69.0613 65.5632 0
952 2 52.4148 2.72164 0
953 2 7.84941 44.8159 0
954 2 29.9381 62.5249 0
955 1 27.176 38.5297 0
956 2 58.6584 11.0069 0
957 1 48.3415 23.7297 0
958 2 19.418 2.71784 0
959 2 73.4085 25.0841 0
960 2 29.2417 66.9056 0
961 1 49.57 52.104 0
962 1 24.328 1.5887 0
963 1 16.312 12.6138 0
964 2 8.70111 9.5895 0
965 2 53.8079 53.7494 0
966 1 0.75543 62.8015 0
967 1 49.7979 35.7022 0
968 1 18.3506 0.0641387 0
969 1 58.0355 23.4932 0
970 2 22.5378 4.60744 0
971 1 21.4171 14.4909 0
972 1 6.67421 25.0493 0
973 1 0.993668 35.9233 0
974 2 1.00384 35.0523 0
975 2 73.1836 65.2915 0
976 2 34.5463 19.8921 0
977 1 36.0238 63.1256 0
978 2 3.28412 77.0232 0
979 2 36.1416 65.6381 0
980 1 72.8622 14.2359 0
981 1 73.7314 58.0375 0
982 1 7.89685 54.7521 0
983 1 18.4234 24.673 0
984 1 9.35627 57.9398 0
985 1 34.5672 10.9949 0
986 1 37.9674 52.6168 0
987 2 18.0901 12.0156 0
988 2 42.2786 34.97 0
989 2 9.76515 34.5891 0
990 2 69.9267 51.618 0
991 2 46.184 14.8919 0
992 1 62.4017 34.6633 0
993 2 29.0859 5.55072 0
994 2 1.93394 55.0713 0
995 1 38.8915 22.2197 0
996 2 54.7491 56.9447 0
997 2 43.586 30.8512 0
998 2 60.2094 75.0494 0
999 2 39.2903 26.5739 0
1000 2 0.56374 49.6566 0
1001 1 41.8445 65.4248 0
1002 1 23.0646 34.4261 0
1003 1 9.62647 54.2771 0
1004 1 7.48392 22.3768 0
1005 2 10.6619 23.6061 0
1006 2 67.8665 60.8442 0
1007 1 18.8755 20.2154 0
1008 1 47.8062 17.0044 0
1009 1 31.063 33.0361 0
1010 1 11.501 43.5185 0
1011 2 10.4044 22.3554 0
1012 2 2.24424 23.2268 0
1013 2 65.1285 55.9892 0
1014 1 74.1075 15.4696 0
1015 1 75.9902 9.2779 0
1016 1 37.3081 47.9518 0
1017 2 68.7796 54.3262 0
1018 1 26.2554 25.0742 0
1019 1 44.3274 29.049 0
1020 2 32.337 6.24342 0
1021 2 15.9492 24.4354 0
1022 1 4.85918 60.9582 0
1023 1 41.0049 9.20034 0
1024 1 9.49922 67.7484 0
1025 1 37.032 65.5994 0
1026 1 8.01932 40.0565 0
1027 1 47.3955 2.47714 0
1028 1 1.98087 32.9825 0
1029 1 48.9538 18.333 0
1030 2 46.9607 48.1531 0
1031 2 37.5049 37.0543 0
1032 1 16.4864 73.0836 0
1033 1 57.6343 19.2725 0
1034 1 35.2975 29.3447 0
1035 1 65.9001 28.5362 0
1036 2 73.6998 45.8948 0
1037 1 30.8474 73.1819 0
1038 1 68.6218 60.5192 0
1039 1 5.33205 31.8134 0
1040 2 64.888 34.3143 0
1041 1 35.3484 65.1151 0
1042 2 62.78 68.1243 0
1043 2 60.6321 58.2413 0
1044 1 67.6534 23.3715 0
1045 1 66.6317 23.2364 0
1046 1 41.1218 68.0145 0
1047 2 9.88454 47.7969 0
1048 1 53.2482 77.3333 0
1049 1 59.9535 49.1445 0
1050 2 45.2806 6.41915 0
1051 1 43.6338 31.7988 0
1052 1 66.3268 44.518 0
1053 2 32.5149 18.4917 0
1054 1 55.0195 7.08633 0
1055 2 32.8809 46.6255 0
1056 2 14.6539 45.2861 0
1057 1 11.9239 71.6422 0
1058 1 27.403 5.86221 0
1059 1 9.37301 75.2639 0
1060 2 21.9364 42.0704 0
1061 1 9.91824 23.1773 0
1062 2 16.9311 41.4599 0
1063 1 77.4211 67.8417 0
1064 1 23.3141 5.00022 0
1065 2 29.6823 52.8193 0
1066 1 37.4753 46.2544 0
1067 1 14.0714 10.4082 0
1068 2 35.5849 66.9843 0
1069 1 67.8865 24.3718 0
1070 2 8.00373 34.1968 0
1071 2 49.5527 42.9159 0
1072 2 9.49598 48.7269 0
1073 2 16.3651 3.48226 0
1074 2 34.471 46.0935 0
1075 1 76.003 49.7984 0
1076 1 41.1568 7.63389 0
1077 1 41.7688 32.7362 0
1078 2 71.6378 26.3766 0
1079 2 38.9205 10.7163 0
1080 2 29.9732 72.8107 0
1081 2 45.9613 49.0248 0
1082 2 6.23899 27.4997 0
1083 2 21.6131 20.0393 0
1084 1 44.4502 57.7179 0
1085 1 19.1408 52.3243 0
1086 1 70.2217 66.9989 0
1087 1 29.4425 72.0175 0
1088 1 44.9422 63.0337 0
1089 2 8.32944 31.5453 0
1090 1 43.0336 34.5135 0
1091 2 27.8119 17.7964 0
1092 1 63.1915 53.6502 0
1093 1 69.1189 32.9943 0
1094 2 43.6747 55.2245 0
1095 1 25.313 71.0445 0
1096 2 48.0879 18.6167 0
1097 1 76.0936 17.6606 0
1098 1 62.6772 43.8587 0
1099 1 31.0287 4.87933 0
1100 1 67.6974 2.86419 0
1101 1 74.8197 11.7369 0
1102 1 26.0005 74.8538 0
1103 1 51.2435 70.8368 0
1104 1 47.2424 58.1105 0
1105 1 48.2216 40.2445 0
1106 1 16.5791 71.4335 0
1107 2 45.4097 62.3411 0
1108 1 55.6217 31.3545 0
1109 1 72.5924 24.8743 0
1110 2 14.8108 11.9222 0
1111 1 2.74807 56.9939 0
1112 1 76.0897 18.7803 0
1113 2 75.3454 7.68824 0
1114 2 14.2341 53.6154 0
1115 2 32.9834 49.4202 0
1116 1 77.1825 64.7298 0
1117 1 66.9264 56.5128 0
1118 1 12.4061 75.3444 0
1119 2 11.2962 64.4077 0
1120 1 41.6038 58.1185 0
1121 2 21.3249 64.1422 0
1122 1 32.029 32.552 0
1123 2 23.0564 51.8077 0
1124 1 52.9665 61.8498 0
1125 2 14.8719 4.336 0
1126 2 15.5003 20.1944 0
1127 1 74.5605 24.1357 0
1128 1 67.2885 52.0907 0
1129 1 60.9815 39.6582 0
1130 1 30.7302 47.2732 0
1131 1 62.491 15.3614 0
1132 2 75.8677 63.6042 0
1133 2 56.041 22.5657 0
1134 2 20.8825 72.0261 0
1135 1 0.757337 68.4476 0
1136 2 51.2325 26.8726 0
1137 1 51.2268 61.4277 0
1138 1 30.4321 13.581 0
1139 2 57.5908 52.9699 0
1140 2 8.98396 22.8473 0
1141 1 75.0145 65.718 0
1142 1 27.0082 52.2337 0
1143 1 48.2079 44.8029 0
1144 2 60.8749 16.3361 0
1145 1 37.9632 62.4362 0
1146 1 15.5768 18.8206 0
1147 1 28.2687 25.7557 0
1148 1 10.8075 36.6245 0
1149 1 57.6984 29.4917 0
1150 2 65.4327 61.1502 0
1151 1 21.9405 3.88223 0
1152 1 59.8519 52.0424 0
1153 1 71.6299 29.7155 0
1154 1 14.0588 4.67162 0
1155 2 60.2185 20.4782 0
1156 1 44.6286 32.2161 0
1157 1 12.2715 18.1604 0
1158 2 58.4231 47.9238 0
1159 2 5.79552 70.4516 0
1160 1 32.9414 7.73397 0
1161 2 44.1037 56.5758 0
1162 1 16.1564 9.97967 0
1163 2 13.4607 72.964 0
1164 1 23.9357 58.7788 0
1165 1 20.9038 45.567 0
1166 2 14.9961 50.6359 0
1167 1 27.9347 20.3841 0
1168 1 56.4289 64.6763 0
1169 1 19.6943 66.7837 0
1170 2 6.20026 33.5839 0
1171 1 48.5794 33.9592 0
1172 1 22.9909 6.65327 0
1173 1 51.7905 64.0002 0
1174 1 38.8975 29.308 0
1175 2 62.662 44.8115 0
1176 1 68.2215 36.5461 0
1177 1 47.6403 69.9034 0
1178 2 61.1652 47.7665 0
1179 1 72.4189 32.806 0
1180 1 51.9839 17.8524 0
1181 1 54.369 22.9646 0
1182 1 60.8156 74.3995 0
1183 2 43.1334 73.2492 0
1184 2 28.0821 22.0101 0
1185 1 17.5336 63.1685 0
1186 1 49.0488 49.4815 0
1187 1 73.9365 72.378 0
1188 2 4.92505 37.6916 0
1189 1 60.8012 65.3843 0
1190 1 28.4166 51.3436 0
1191 2 72.3206 5.05972 0
1192 1 24.6954 46.9418 0
1193 1 47.483 18.0362 0
1194 2 16.6318 15.9987 0
1195 1 74.3465 48.7337 0
1196 1 21.8648 49.6495 0
1197 1 35.4849 38.8933 0
1198 1 62.315 76.5389 0
1199 2 57.7982 62.5512 0
1200 1 26.9318 8.77563 0
1201 1 2.91654 73.0144 0
1202 1 5.81175 48.9961 0
1203 2 47.3618 12.3551 0
1204 1 57.5743 56.5328 0
1205 1 66.7063 50.4072 0
1206 1 52.0723 5.01975 0
1207 1 31.9012 62.8359 0
1208 1 75.4105 58.1136 0
1209 2 65.4237 59.7866 0
1210 1 69.7452 32.0302 0
1211 2 24.219 35.8416 0
1212 1 33.7833 36.2967 0
1213 1 61.2731 68.8657 0
1214 1 61.7083 23.7491 0
1215 1 11.7228 72.6687 0
1216 1 11.2378 49.4411 0
1217 2 68.6094 3.16761 0
1218 2 61.4554 21.0965 0
1219 1 30.2366 15.3726 0
1220 1 61.8967 18.0752 0
1221 1 61.808 54.8844 0
1222 2 66.2875 74.3662 0
1223 1 42.4282 48.1586 0
1224 1 0.722718 34.2205 0
1225 1 2.79317 25.6761 0
1226 2 65.9188 64.827 0
1227 1 41.7988 57.0645 0
1228 1 76.1851 70.8844 0
1229 2 47.867 9.31679 0
1230 1 25.6848 49.8278 0
1231 2 52.8413 18.1016 0
1232 1 67.8415 38.1757 0
1233 1 39.0744 57.8226 0
1234 1 1.60107 67.8958 0
1235 1 18.0678 46.1323 0
1236 1 52.5211 63.1553 0
1237 1 37.8507 20.7148 0
1238 1 24.8234 7.03843 0
1239 1 12.8569 22.6234 0
1240 1 24.5426 62.9186 0
1241 1 76.2445 62.788 0