ITEM: TIMESTEP
0
ITEM: NUMBER OF ATOMS
7200
ITEM: BOX BOUNDS xy xz yz pp pp pp
0.0000000000000000e+00 7.7459666924100006e+01 0.0000000000000000e+00
0.0000000000000000e+00 7.7459666924100006e+01 0.0000000000000000e+00
-1.2909944490000000e-01 1.2909944490000000e-01 0.0000000000000000e+00
ITEM: ATOMS id type x y z
1 1 12.1871 20.1084 0
2 1 14.9139 63.9752 0
3 1 75.1877 71.0668 0
4 1 20.4484 8.03783 0
5 1 34.5436 55.9541 0
6 1 56.6171 28.6322 0
7 2 5.53523 3.20592 0
8 2 64.7807 46.4203 0
9 1 42.2395 56.2171 0
10 2 19.0968 14.6581 0
11 2 25.4241 53.2851 0
12 1 55.0939 11.5832 0
13 2 23.2888 5.89592 0
14 1 46.5736 70.7401 0
15 1 39.3254 31.2766 0
16 1 18.3101 15.0182 0
17 1 31.3545 40.1341 0
18 1 33.7564 5.85351 0
19 1 26.9646 57.7953 0
20 2 45.0266 3.74099 0
21 1 12.2099 65.9895 0
22 1 54.2915 10.8809 0
23 1 75.566 45.7199 0
24 1 56.0069 66.3848 0
25 1 6.7288 71.1099 0
26 1 21.0822 67.5424 0
27 2 29.0848 63.6867 0
28 1 51.4084 74.2372 0
29 2 22.526 47.9006 0
30 2 25.2632 32.1847 0
31 1 15.1733 53.3017 0
32 1 50.9635 38.0389 0
33 1 60.6975 48.537 0
34 2 45.3881 9.6598 0
35 1 75.2288 63.0827 0
36 1 30.642 60.0347 0
37 1 22.2096 61.3857 0
38 1 45.8514 19.8467 0
39 1 22.4513 5.62737 0
40 2 24.7398 59.1857 0
41 2 18.498 64.513 0
42 1 21.0405 1.07949 0
43 1 18.8496 33.5508 0
44 1 34.4415 62.7176 0
45 1 3.20067 34.3822 0
46 1 68.2433 7.63686 0
47 1 73.4872 59.0113 0
48 1 44.2578 68.3968 0
49 2 0.0415785 4.30176 0
50 1 31.1095 66.6301 0
51 1 1.34206 10.0248 0
52 2 33.1317 24.3402 0
53 1 53.6248 18.7153 0
54 1 49.5936 30.3315 0
55 1 9.76509 1.04394 0
56 1 45.9049 26.1056 0
57 1 67.4505 43.0932 0
58 1 69.9253 69.1655 0
59 1 34.2232 2.12031 0
60 1 28.7173 3.3939 0
61 1 40.5711 75.9362 0
62 1 52.2154 45.0568 0
63 1 57.1566 9.79759 0
64 1 50.6446 45.7855 0
65 1 67.0206 73.7619 0
66 2 55.8671 11.298 0
67 2 40.5837 35.9201 0
68 2 0.81175 29.2477 0
69 1 61.978 45.4103 0
70 1 8.39849 35.6014 0
71 2 7.5967 42.0916 0
72 1 76.8798 3.42518 0
73 1 6.35213 64.2778 0
74 2 41.5371 22.7226 0
75 1 75.5005 53.3083 0
76 1 19.7248 46.8995 0
77 1 25.0403 74.3948 0
78 1 3.64553 15.5893 0
79 1 12.6222 73.3889 0
80 1 43.4586 16.6129 0
81 1 55.1142 62.3974 0
82 2 44.3472 16.6142 0
83 1 5.76936 32.9596 0
84 1 32.9637 45.8145 0
85 1 34.5611 20.8007 0
86 2 34.763 64.7059 0
87 1 71.4283 34.7785 0
88 1 18.4626 54.6219 0
89 1 27.7513 13.0811 0
90 1 37.3401 37.8802 0
91 2 45.9249 41.1393 0
92 2 41.3213 56.1072 0
93 1 27.7636 16.8169 0
94 1 33.343 55.7401 0
95 2 39.1874 56.8006 0
96 1 65.2215 1.36988 0
97 1 44.183 49.152 0
98 2 2.74171 60.139 0
99 1 61.8383 48.1727 0
100 2 32.3398 30.849 0
101 1 47.7257 54.3577 0
102 1 56.1405 21.5345 0
103 1 56.785 70.408 0
104 1 2.69665 60.9849 0
105 2 40.1477 3.08751 0
106 2 30.3287 34.7959 0
107 1 13.1168 31.3774 0
108 1 0.944947 0.8299 0
109 1 35.6493 41.6551 0
110 2 65.083 25.4739 0
111 1 65.9014 11.9079 0
112 1 34.1406 72.8598 0
113 2 0.170682 60.5221 0
114 2 74.4192 29.566 0
115 2 30.3368 12.8182 0
116 2 74.6269 53.5766 0
117 1 16.1694 45.9252 0
118 2 46.7171 26.5298 0
119 1 62.7473 0.0568675 0
120 2 5.95054 49.6834 0
121 1 6.30792 3.5294 0
122 1 19.812 33.0876 0
123 2 5.37564 17.7076 0
124 1 46.5755 57.3152 0
125 1 31.7264 27.3235 0
126 1 57.9242 52.0741 0
127 1 4.42272 59.1759 0
128 1 14.3694 23.433 0
129 1 16.4415 52.1758 0
130 1 7.32641 2.15271 0
131 1 59.008 24.9191 0
132 2 31.0709 41.9359 0
133 2 52.689 6.94386 0
134 1 65.689 50.9997 0
135 1 31.5728 30.3822 0
136 2 55.2963 46.4507 0
137 1 61.7831 56.6162 0
138 2 70.4787 48.0304 0
139 1 68.3693 27.1725 0
140 1 3.49039 21.8901 0
141 2 48.1111 63.58 0
142 1 6.52991 22.6616 0
143 2 40.6947 70.1327 0
144 2 47.2722 75.3787 0
145 2 18.2998 52.8872 0
146 1 54.8088 3.9901 0
147 1 9.40853 39.0275 0
148 1 46.3733 53.3701 0
149 2 67.9653 49.202 0
150 1 32.7207 56.6192 0
151 2 29.4561 13.8583 0
152 1 48.9872 63.2932 0
153 2 17.4328 46.4535 0
154 2 31.6703 72.1701 0
155 1 70.5556 49.0083 0
156 1 43.4903 10.3426 0
157 1 49.3098 71.1511 0
158 1 60.2641 69.2734 0
159 2 10.5206 26.0386 0
160 1 38.1294 17.4494 0
161 1 7.30924 63.6077 0
162 2 72.6513 24.0044 0
163 1 30.6502 27.0829 0
164 1 60.1842 29.4155 0
165 1 75.6749 27.7566 0
166 1 1.95905 44.7055 0
167 1 39.3064 0.938901 0
168 1 38.6213 72.7939 0
169 1 56.718 30.9594 0
170 1 57.3253 0.921086 0
171 2 36.9672 60.9787 0
172 2 33.6627 53.8354 0
173 2 43.8015 24.3774 0
174 2 27.6253 56.0432 0
175 2 31.0109 26.2973 0
176 1 46.1975 16.2547 0
177 1 19.5753 58.4361 0
178 1 61.9382 61.3409 0
179 1 64.539 24.7864 0
180 2 33.2343 39.7502 0
181 1 45.1793 27.6157 0
182 1 61.883 58.6162 0
183 2 12.1036 37.397 0
184 1 5.2066 67.6583 0
185 2 67.1269 29.3208 0
186 1 58.984 34.9748 0
187 1 39.6345 46.4197 0
188 1 57.3921 47.7351 0
189 2 63.739 53.0561 0
190 1 23.34 3.97025 0
191 1 71.8731 8.01999 0
192 1 65.465 10.1725 0
193 2 11.0243 41.6331 0
194 2 68.7579 69.1327 0
195 1 11.1659 3.30389 0
196 2 49.6045 54.9082 0
197 2 20.1822 9.96898 0
198 1 13.4213 61.1235 0
199 2 75.6743 66.1855 0
200 1 59.8576 27.727 0
201 2 34.7226 1.34954 0
202 2 74.5823 55.1508 0
203 1 52.3934 65.7668 0
204 1 29.6499 3.86903 0
205 1 55.9932 26.0999 0
206 2 35.6852 37.0186 0
207 2 14.0259 9.61754 0
208 1 33.6301 14.0791 0
209 1 12.2625 11.7159 0
210 2 5.33571 20.5297 0
211 1 17.2884 8.20292 0
212 2 24.8068 6.2578 0
213 2 55.989 28.0182 0
214 1 71.025 57.7991 0
215 2 67.0223 22.4012 0
216 1 20.6671 73.6157 0
217 1 59.5591 33.9918 0
218 2 54.7681 58.5676 0
219 2 68.0014 42.3788 0
220 2 42.6865 63.8793 0
221 1 18.9582 45.2832 0
222 1 44.9652 12.4688 0
223 2 39.2548 67.7519 0
224 2 27.7329 68.6607 0
225 1 32.389 23.7792 0
226 2 66.4224 57.3085 0
227 2 6.06734 16.3972 0
228 1 34.4432 9.37652 0
229 1 70.8853 26.7062 0
230 1 32.2385 74.5212 0
231 1 10.765 34.359 0
232 1 42.019 12.929 0
233 1 34.7649 7.73382 0
234 1 76.1027 8.35873 0
235 1 60.8325 59.0515 0
236 2 44.7133 70.3808 0
237 1 77.2013 62.3306 0
238 2 9.22467 21.4325 0
239 1 58.494 2.6534 0
240 2 61.6653 46.2286 0
241 1 47.482 66.8026 0
242 1 18.4867 30.6327 0
243 1 7.15652 56.3701 0
244 1 61.3014 64.2905 0
245 1 10.9795 30.8716 0
246 1 1.93179 35.47 0
247 1 65.6253 49.9756 0
248 1 12.3292 0.827107 0
249 2 50.4438 41.2317 0
250 1 28.9819 9.44412 0
251 2 57.7063 50.1474 0
252 2 65.6603 22.9859 0
253 1 19.8761 17.744 0
254 1 54.3744 25.0045 0
255 1 65.4485 42.8934 0
256 1 31.2987 8.57579 0
257 1 22.1878 57.892 0
258 1 26.1734 38.8207 0
259 1 55.6356 56.8051 0
260 2 44.0804 53.8401 0
261 2 26.4266 62.6424 0
262 1 24.3082 33.8369 0
263 2 12.6105 34.745 0
264 2 71.3955 59.9218 0
265 1 76.9617 46.7552 0
266 1 38.1388 44.7603 0
267 2 61.6337 24.4243 0
268 2 56.6814 45.8903 0
269 1 48.1621 21.1046 0
270 2 9.05924 46.974 0
271 2 22.507 33.7038 0
272 2 20.4439 14.2978 0
273 1 14.9089 65.0499 0
274 1 32.4406 49.9809 0
275 1 8.61738 48.9533 0
276 1 75.2776 10.1223 0
277 2 15.6 71.2738 0
278 1 7.5361 17.5078 0
279 1 4.47821 44.298 0
280 1 20.3001 35.8851 0
281 1 30.5981 38.5382 0
282 2 75.8705 26.6662 0
283 1 76.5744 55.6296 0
284 2 54.2097 38.2783 0
285 1 70.9476 52.789 0
286 1 11.395 63.356 0
287 1 19.1806 76.736 0
288 2 76.0643 3.83272 0
289 2 21.3201 39.1989 0
290 2 69.3106 76.3333 0
291 1 35.1306 22.6103 0
292 1 27.7452 58.5345 0
293 1 47.3756 19.0828 0
294 1 40.4123 2.21964 0
295 1 69.697 3.00337 0
296 2 74.1464 8.34489 0
297 1 40.3924 59.9309 0
298 1 72.548 35.1377 0
299 2 49.1476 36.5896 0
300 1 39.2127 43.6818 0
301 1 73.4647 19.6952 0
302 1 50.8093 35.2529 0
303 1 20.4351 32.2728 0
304 1 60.5971 72.4423 0
305 2 59.1179 75.87 0
306 1 63.0071 52.5636 0
307 2 73.2972 38.7448 0
308 1 41.4777 5.26375 0
309 2 24.8787 16.9224 0
310 2 13.4393 13.0818 0
311 1 29.3578 49.5359 0
312 1 67.3842 61.6062 0
313 1 74.7763 76.1812 0
314 1 40.6048 45.9669 0
315 2 56.4895 31.8845 0
316 2 39.5366 63.4287 0
317 1 50.9479 20.6021 0
318 2 7.01462 31.2588 0
319 1 30.8863 25.4247 0
320 1 36.3081 61.5933 0
321 1 58.7906 68.3861 0
322 2 73.9205 11.7848 0
323 2 25.057 63.5581 0
324 1 64.3692 41.5118 0
325 1 41.2022 6.28678 0
326 1 9.7135 58.8337 0
327 1 48.7553 54.7656 0
328 1 0.752237 36.9781 0
329 1 41.6712 42.6557 0
330 2 51.6864 34.9497 0
331 2 69.9214 3.84653 0
332 1 59.4036 28.7272 0
333 1 36.9643 12.276 0
334 1 16.9704 34.7643 0
335 1 20.5591 38.7252 0
336 2 72.3493 74.4753 0
337 1 34.6999 33.7819 0
338 2 17.1403 1.49964 0
339 1 42.5374 68.2899 0
340 1 18.7333 57.7708 0
341 2 73.976 44.084 0
342 1 66.9227 5.77881 0
343 2 56.4696 49.809 0
344 2 22.682 65.8285 0
345 1 7.94723 27.7548 0
346 1 17.4902 71.6875 0
347 1 35.4158 56.6043 0
348 1 56.5749 18.911 0
349 1 33.6724 20.1503 0
350 1 37.0701 31.1835 0
351 1 17.9689 53.6962 0
352 1 47.7998 30.8786 0
353 1 75.3361 25.9335 0
354 2 22.6037 26.2641 0
355 2 43.4495 18.2578 0
356 2 11.9145 2.78548 0
357 1 68.5761 67.4903 0
358 1 24.3348 3.70596 0
359 1 22.2978 14.5814 0
360 2 45.1452 31.3683 0
361 2 48.1721 67.3534 0
362 1 27.0568 74.4984 0
363 2 38.0641 73.4888 0
364 1 13.1228 66.4187 0
365 2 8.86848 57.1871 0
366 1 24.8067 50.6801 0
367 2 19.8199 23.5075 0
368 2 51.4671 54.9583 0
369 2 65.3587 70.5369 0
370 1 3.45818 28.3757 0
371 1 46.1215 73.5739 0
372 2 40.4347 9.92197 0
373 1 10.4544 31.8238 0
374 2 66.6606 41.3852 0
375 1 52.3402 52.7622 0
376 2 75.4547 43.1636 0
377 2 58.126 38.1462 0
378 1 20.4145 63.5327 0
379 1 13.9087 20.3025 0
380 1 9.83077 62.5018 0
381 1 26.6244 23.2543 0
382 1 30.6688 23.564 0
383 1 9.67081 11.8526 0
384 1 34.9818 51.6989 0
385 1 28.5328 77.0793 0
386 1 54.889 40.4139 0
387 1 59.5887 76.5883 0
388 2 55.9435 57.704 0
389 1 24.5672 56.68 0
390 1 29.4686 13.0173 0
391 2 59.8337 26.8138 0
392 2 30.0732 10.2301 0
393 2 38.7685 64.9119 0
394 1 10.3691 73.6698 0
395 1 53.2487 21.9451 0
396 1 13.7481 70.4653 0
397 1 46.7106 17.214 0
398 1 45.5447 70.8216 0
399 1 70.0231 18.0478 0
400 1 59.9755 74.1801 0
401 1 44.5422 11.5141 0
402 2 56.4865 17.0292 0
403 1 38.3214 51.635 0
404 1 69.4397 70.9294 0
405 2 73.8318 76.3616 0
406 1 34.1215 19.1503 0
407 2 45.714 21.7767 0
408 1 63.5508 30.3587 0
409 1 18.5465 61.1712 0
410 2 67.4404 16.6711 0
411 2 66.5256 36.5617 0
412 1 58.8323 38.6648 0
413 1 7.12544 36.6419 0
414 1 71.3483 48.2646 0
415 1 7.04175 41.487 0
416 2 73.8725 62.3098 0
417 2 75.1035 12.6729 0
418 1 54.2997 30.1008 0
419 2 56.7348 47.1998 0
420 2 24.8828 55.9034 0
421 1 60.2444 19.2776 0
422 1 2.00429 71.4225 0
423 1 4.19166 12.0671 0
424 1 60.7228 26.9328 0
425 1 58.939 50.5119 0
426 1 56.1335 73.7669 0
427 2 39.5261 14.8531 0
428 1 51.5767 50.086 0
429 1 59.2189 71.0708 0
430 1 36.5171 37.1173 0
431 1 0.002966 29.5535 0
432 1 63.3608 48.9763 0
433 1 29.2286 69.4428 0
434 1 1.86162 42.7869 0
435 1 64.0401 34.1946 0
436 2 67.9194 38.9937 0
437 2 43.8797 59.4829 0
438 1 39.0593 61.76 0
439 2 41.1573 12.6705 0
440 1 43.3831 43.7147 0
441 2 66.6451 15.1891 0
442 1 9.63985 37.9525 0
443 1 54.611 16.7852 0
444 1 16.8091 75.2624 0
445 2 69.4839 67.5406 0
446 1 61.6153 42.2292 0
447 1 27.0345 70.7297 0
448 1 46.9032 37.7136 0
449 1 37.1757 73.2189 0
450 2 48.2876 59.7439 0
451 2 6.5072 61.8075 0
452 1 66.5277 11.0713 0
453 1 28.5248 75.9725 0
454 2 62.6307 29.9397 0
455 2 26.5459 67.7861 0
456 1 11.4211 44.5411 0
457 2 18.6961 1.85643 0
458 1 38.0228 77.158 0
459 2 15.5428 56.6515 0
460 1 5.68187 4.36012 0
461 2 27.2743 27.1298 0
462 1 45.716 24.2938 0
463 1 75.8833 69.765 0
464 1 9.05929 47.8775 0
465 2 40.6975 45.1041 0
466 1 21.7351 12.9226 0
467 2 11.6267 1.42326 0
468 1 19.3535 36.3928 0
469 1 2.11425 2.18272 0
470 1 61.7188 10.4407 0
471 2 73.915 40.8659 0
472 1 25.5457 43.1085 0
473 1 61.6335 65.8992 0
474 1 33.5449 54.6937 0
475 1 22.3632 59.6894 0
476 2 38.8896 31.9926 0
477 1 60.5515 11.5231 0
478 2 33.2161 74.5653 0
479 1 33.3234 22.3497 0
480 1 19.8943 25.7031 0
481 1 7.16937 18.6554 0
482 1 10.9606 25.2564 0
483 2 1.36087 1.7229 0
484 1 14.4115 38.3388 0
485 1 21.3497 57.1761 0
486 1 7.27176 4.77742 0
487 2 70.872 10.2285 0
488 1 58.9255 5.45809 0
489 1 52.2908 15.2264 0
490 1 35.3558 31.124 0
491 1 30.5124 42.7078 0
492 2 61.1127 9.78244 0
493 1 73.3947 8.79018 0
494 1 67.5118 31.8674 0
495 2 22.5083 49.2093 0
496 2 52.8097 42.0706 0
497 2 40.6332 6.93825 0
498 1 23.543 25.9234 0
499 1 35.8376 74.415 0
500 1 2.82491 4.19473 0
501 2 45.544 43.4373 0
502 1 16.7362 24.8633 0
503 1 50.191 9.87398 0
504 1 36.9217 32.7542 0
505 2 26.6366 77.0862 0
506 2 17.4883 65.1247 0
507 1 41.9303 37.4287 0
508 1 12.8276 32.7946 0
509 1 28.9457 24.863 0
510 1 7.01669 38.7198 0
511 1 69.1735 26.4986 0
512 1 54.6038 53.2463 0
513 1 11.8678 34.2585 0
514 1 25.3564 64.3568 0
515 2 61.3823 11.1972 0
516 2 11.4891 38.5933 0
517 2 74.2782 74.6458 0
518 2 19.2113 54.2399 0
519 2 33.292 1.85635 0
520 1 74.3584 37.0476 0
521 1 42.0645 24.4353 0
522 2 24.3568 66.0508 0
523 1 77.2355 12.2083 0
524 1 70.3743 34.6593 0
525 1 22.9051 77.3696 0
526 2 76.4687 22.3604 0
527 1 49.4135 26.183 0
528 2 74.7803 4.98535 0
529 2 35.2331 45.2241 0
530 1 7.9345 59.7198 0
531 2 76.2903 69.0019 0
532 2 32.2449 60.9205 0
533 1 73.1297 5.48727 0
534 1 34.5002 27.2219 0
535 1 29.0673 19.2072 0
536 1 32.6668 65.7868 0
537 1 35.1791 47.9252 0
538 2 16.4056 21.7136 0
539 2 45.9331 76.8059 0
540 1 60.7435 40.7072 0
541 2 24.939 8.06588 0
542 1 51.2864 56.82 0
543 2 69.6255 55.6091 0
544 2 51.965 10.4159 0
545 1 28.2554 22.8867 0
546 1 34.2991 3.21386 0
547 1 10.2622 14.4201 0
548 2 23.6986 3.09358 0
549 2 65.2793 21.609 0
550 2 5.23447 39.3282 0
551 1 30.2929 8.3111 0
552 2 70.4925 40.2916 0
553 2 29.537 44.8976 0
554 1 51.7627 62.4562 0
555 1 50.4703 57.3854 0
556 1 72.994 68.0447 0
557 1 62.0346 53.9552 0
558 1 2.54508 68.5943 0
559 1 72.4494 36.1812 0
560 2 21.3474 61.337 0
561 1 5.65092 0.576404 0
562 2 4.54745 11.2192 0
563 2 54.1305 48.7884 0
564 1 70.1853 68.1292 0
565 2 21.903 1.35634 0
566 2 18.1627 23.8262 0
567 1 48.9453 42.1418 0
568 2 22.829 74.1465 0
569 2 15.7154 27.4513 0
570 1 73.0531 34.214 0
571 1 0.559884 3.5564 0
572 2 6.69659 48.3863 0
573 2 0.010126 44.889 0
574 1 3.80282 69.1357 0
575 1 18.3118 7.77452 0
576 1 16.4272 63.0274 0
577 1 43.3767 50.5121 0
578 2 67.6416 34.2035 0
579 2 45.9894 69.1476 0
580 1 62.6613 42.6168 0
581 1 6.60165 60.8899 0
582 2 68.645 59.5542 0
583 2 64.1425 58.6748 0
584 2 33.5814 65.6328 0
585 1 61.0529 77.3283 0
586 1 48.7841 58.6437 0
587 2 14.6156 21.8351 0
588 1 49.5076 5.24529 0
589 2 53.63 10.3615 0
590 1 24.6044 73.4242 0
591 1 56.2608 6.30427 0
592 1 48.5611 74.3534 0
593 1 43.9501 13.1023 0
594 1 59.9064 63.3676 0
595 1 72.1682 65.3388 0
596 2 7.2257 1.26419 0
597 1 3.54064 43.9338 0
598 1 69.0716 9.10446 0
599 1 2.80487 50.9386 0
600 1 0.122364 47.5851 0
601 2 41.9758 36.0686 0
602 1 62.1542 14.234 0
603 2 70.9378 50.8956 0
604 2 62.2904 16.3066 0
605 1 52.4228 69.2228 0
606 1 41.5712 4.06062 0
607 1 76.4884 1.40992 0
608 2 1.29562 40.2637 0
609 2 40.7843 0.417594 0
610 1 7.79516 49.6426 0
611 1 53.9223 58.9229 0
612 1 76.9245 6.22461 0
613 1 76.9934 23.1209 0
614 2 50.4677 28.4896 0
615 1 34.4359 38.8339 0
616 1 39.7077 16.1544 0
617 1 68.8326 2.43013 0
618 2 12.0515 42.7368 0
619 2 55.177 42.3607 0
620 2 70.9188 74.0526 0
621 2 58.5062 35.7161 0
622 1 60.1789 18.0981 0
623 1 37.4231 11.3452 0
624 2 20.4614 54.762 0
625 1 27.0283 76.285 0
626 1 73.7169 29.0656 0
627 2 2.22806 25.0604 0
628 1 28.7065 58.1484 0
629 2 77.4124 25.6542 0
630 1 29.2182 72.932 0
631 1 56.8731 37.0966 0
632 1 21.6197 64.9683 0
633 2 25.5807 71.8965 0
634 1 18.8559 50.6334 0
635 2 41.5049 43.6825 0
636 2 37.0601 40.7469 0
637 1 11.2879 11.1792 0
638 1 67.3328 40.8338 0
639 1 70.3545 46.3179 0
640 1 0.419986 53.948 0
641 1 36.4097 33.7196 0
642 1 9.66506 33.8364 0
643 1 50.3081 44.7662 0
644 2 19.3412 27.3812 0
645 1 56.9161 52.3203 0
646 1 46.2645 47.1151 0
647 2 23.6387 10.5702 0
648 1 64.1984 12.3468 0
649 2 10.9594 69.2184 0
650 2 47.3536 62.1044 0
651 1 46.0133 12.268 0
652 1 29.6965 70.8725 0
653 2 13.5439 23.1807 0
654 2 10.4579 3.72508 0
655 1 5.62501 51.6414 0
656 1 72.8455 53.7768 0
657 1 33.7896 46.5071 0
658 1 71.5713 13.1736 0
659 2 0.904772 66.1277 0
660 1 26.6434 35.8116 0
661 1 37.256 9.93081 0
662 1 32.8103 59.9912 0
663 1 10.5975 28.689 0
664 1 58.467 75.3511 0
665 2 49.209 76.9502 0
666 2 12.663 58.1602 0
667 1 26.4113 73.6326 0
668 2 7.80214 76.2007 0
669 1 4.41046 9.29288 0
670 2 43.8816 37.6801 0
671 2 37.2559 17.4588 0
672 1 9.9623 19.662 0
673 1 6.96356 16.6085 0
674 1 32.6262 42.7179 0
675 2 4.88676 58.3523 0
676 2 37.9769 6.40302 0
677 1 41.3994 54.06 0
678 1 53.7083 39.0423 0
679 1 46.7552 69.6239 0
680 1 31.8188 53.6068 0
681 1 26.3536 54.06 0
682 1 62.4811 59.56 0
683 1 17.9811 59.2279 0
684 1 64.4994 68.8862 0
685 2 35.7603 18.6615 0
686 1 50.3958 6.22817 0
687 1 41.5272 19.0304 0
688 2 53.6803 73.6908 0
689 1 71.9988 62.3971 0
690 1 66.1828 72.255 0
691 1 41.7743 39.9491 0
692 2 59.9818 44.1272 0
693 1 71.3199 77.0048 0
694 2 53.7755 64.371 0
695 1 42.1676 11.8599 0
696 2 35.7268 47.163 0
697 1 25.5845 13.3573 0
698 1 8.45576 3.48627 0
699 1 66.6066 13.8325 0
700 1 72.1335 47.0825 0
701 1 64.1595 31.2894 0
702 1 63.658 65.369 0
703 2 72.0869 2.38315 0
704 2 8.28179 61.3506 0
705 2 5.03781 7.34093 0
706 1 52.3087 51.6111 0
707 2 59.7046 38.3866 0
708 1 50.423 43.0807 0
709 1 51.7432 73.196 0
710 2 60.3273 28.561 0
711 1 56.0642 54.1947 0
712 2 62.8464 32.7104 0
713 2 68.4404 70.5023 0
714 2 0.621704 64.8045 0
715 1 45.2255 18.9401 0
716 1 76.3462 29.9173 0
717 1 29.9238 63.3849 0
718 1 14.3533 3.74376 0
719 1 53.2745 36.8319 0
720 2 49.0856 38.5062 0
721 2 66.8162 39.9419 0
722 1 49.0659 8.0207 0
723 2 40.0038 75.2864 0
724 2 10.3186 59.4591 0
725 1 50.7307 39.1789 0
726 1 8.21147 29.9827 0
727 2 13.0104 1.3943 0
728 1 67.4722 55.6288 0
729 2 21.483 59.6275 0
730 1 32.8332 27.4988 0
731 2 16.6593 36.3967 0
732 1 16.3875 54.2564 0
733 1 29.8076 29.5615 0
734 2 66.4976 46.4883 0
735 1 66.7958 67.2171 0
736 1 47.8269 49.3833 0
737 2 4.14513 45.6302 0
738 1 13.6272 34.5313 0
739 1 17.9386 37.5729 0
740 1 48.3782 38.0243 0
741 2 57.2736 55.6788 0
742 1 58.9756 37.6006 0
743 1 27.1749 62.1825 0
744 2 72.8408 19.0833 0
745 1 23.1022 72.6232 0
746 1 35.0555 10.2855 0
747 1 47.5462 76.2154 0
748 2 43.2919 69.894 0
749 2 22.3647 24.484 0
750 1 55.3684 35.0397 0
751 1 57.7141 40.144 0
752 2 2.39148 70.5545 0
753 1 53.0289 39.8637 0
754 2 21.7454 15.3309 0
755 1 23.9626 50.0487 0
756 2 49.4226 75.9519 0
757 1 48.4381 19.4392 0
758 1 6.06462 9.79778 0
759 1 61.7763 47.1418 0
760 1 12.2385 10.6758 0
761 1 69.9158 71.8216 0
762 1 15.1628 57.4426 0
763 2 77.1923 7.04083 0
764 1 75.1073 56.9879 0
765 2 47.1545 56.691 0
766 1 63.2538 22.5881 0
767 1 13.8152 1.07096 0
768 1 65.3673 8.02539 0
769 1 61.8097 50.1184 0
770 2 60.5781 73.4422 0
771 1 18.8323 40.0743 0
772 1 44.9233 51.153 0
773 1 40.7569 43.1907 0
774 2 32.5957 25.6907 0
775 1 71.578 30.5488 0
776 2 43.5677 42.8977 0
777 1 70.4113 55.2434 0
778 2 10.5067 63.0927 0
779 1 45.1961 25.2825 0
780 1 17.1172 6.28875 0
781 1 29.5392 35.1722 0
782 1 57.6113 64.8541 0
783 1 60.6085 35.5576 0
784 1 70.8386 50.0492 0
785 2 8.927 11.3774 0
786 1 73.2369 70.1771 0
787 1 20.8437 66.5256 0
788 1 39.8539 54.869 0
789 1 11.0962 4.36951 0
790 1 52.2307 70.2969 0
791 1 45.7903 13.2853 0
792 1 8.62968 24.9965 0
793 1 25.23 14.9829 0
794 2 71.2707 16.6086 0
795 2 75.6243 14.041 0
796 2 75.5563 67.8451 0
797 1 44.5052 65.459 0
798 1 38.2857 19.0473 0
799 1 44.2393 76.4354 0
800 1 30.7126 70.4773 0
801 2 6.5108 26.0142 0
802 2 28.0719 45.6341 0
803 2 23.7825 77.179 0
804 2 52.5611 35.9913 0
805 1 23.833 71.9141 0
806 1 53.1677 70.8719 0
807 2 39.8989 50.531 0
808 1 50.5036 47.1761 0
809 2 36.4502 62.4455 0
810 1 58.4636 76.4774 0
811 1 28.7551 61.0095 0
812 2 59.7455 48.3438 0
813 2 46.2025 58.1007 0
814 1 54.3436 31.133 0
815 2 41.0914 17.0073 0
816 1 27.9794 34.5122 0
817 1 67.8344 75.7877 0
818 2 36.7487 16.1065 0
819 2 45.8562 56.7864 0
820 1 67.0339 69.8301 0
821 1 16.7096 64.7564 0
822 1 56.8451 76.6965 0
823 1 17.0848 55.5709 0
824 2 35.2196 42.436 0
825 1 29.1802 41.6179 0
826 1 32.8634 75.3663 0
827 1 7.36564 26.2067 0
828 1 77.0688 51.2225 0
829 1 72.0708 40.1961 0
830 2 47.8685 64.6439 0
831 2 43.352 4.67937 0
832 1 73.9866 14.2045 0
833 1 24.4262 43.3872 0
834 2 48.611 5.58952 0
835 1 68.4666 6.56932 0
836 1 58.0744 27.6251 0
837 1 56.3149 41.1908 0
838 1 39.0574 52.9056 0
839 1 15.9609 60.237 0
840 2 15.7564 46.7106 0
841 1 36.9458 52.6581 0
842 2 11.0111 61.1707 0
843 1 5.54912 42.2858 0
844 1 63.3717 21.5129 0
845 2 27.9522 2.2609 0
846 1 49.4377 39.3588 0
847 1 10.8555 57.535 0
848 2 69.0693 47.7017 0
849 1 74.0431 10.9413 0
850 1 67.9594 19.5823 0
851 1 39.3957 18.6679 0
852 1 12.2977 1.93427 0
853 1 42.529 61.5755 0
854 1 37.6989 69.7021 0
855 1 39.4169 25.7009 0
856 2 18.7723 42.036 0
857 1 57.8499 33.9846 0
858 2 34.4109 28.846 0
859 1 13.1751 64.7191 0
860 2 1.98827 58.6085 0
861 2 60.1626 40.0972 0
862 2 2.98164 69.3389 0
863 1 58.9318 23.8111 0
864 1 60.3242 53.774 0
865 2 66.2799 68.0133 0
866 1 60.4707 16.9442 0
867 2 31.5373 21.84 0
868 1 37.2786 61.8762 0
869 1 62.092 19.9885 0
870 1 0.158386 52.8246 0
871 1 62.6284 26.0661 0
872 1 42.4047 50.8362 0
873 1 50.7523 62.6746 0
874 1 3.8956 71.7632 0
875 1 34.1131 57.7209 0
876 2 51.5916 7.89309 0
877 1 13.2968 55.4693 0
878 2 14.8768 16.0916 0
879 1 76.5289 13.9899 0
880 2 31.6325 33.5909 0
881 2 51.9001 29.2834 0
882 2 47.9552 73.7189 0
883 1 25.6389 20.105 0
884 1 56.0363 36.5149 0
885 1 38.8785 5.07127 0
886 1 37.0446 60.0264 0
887 2 54.8695 50.1915 0
888 1 0.468362 76.5526 0
889 2 59.2436 49.7506 0
890 2 7.75221 25.4245 0
891 1 38.1261 10.5997 0
892 1 40.2151 67.7634 0
893 1 30.0818 53.6349 0
894 1 77.046 14.9065 0
895 2 32.4282 53.0281 0
896 1 37.6557 2.67863 0
897 2 35.7204 17.0816 0
898 1 31.1225 43.6717 0
899 1 2.09956 75.7739 0
900 2 38.7591 0.267103 0
901 1 52.3279 41.4022 0
902 1 24.3659 75.3301 0
903 1 37.898 40.5702 0
904 2 0.100916 37.5997 0
905 1 63.8149 62.1625 0
906 1 68.9005 44.7708 0
907 1 3.67476 29.8018 0
908 1 50.7245 23.8424 0
909 1 0.335408 48.7112 0
910 2 1.92913 50.708 0
911 2 4.73022 4.60647 0
912 2 36.0282 32.7571 0
913 2 31.9934 51.6326 0
914 1 18.3684 12.9251 0
915 2 64.5944 5.45161 0
916 1 3.47981 39.7667 0
917 2 4.96137 33.3908 0
918 2 19.4506 35.4945 0
919 1 8.11983 57.8229 0
920 1 15.8668 47.6463 0
921 1 0.0656291 26.664 0
922 2 50.8518 18.9524 0
923 2 12.3226 24.3676 0
924 1 39.2102 17.5861 0
925 1 66.3132 47.3255 0
926 2 35.3761 35.3132 0
927 1 68.7645 0.161072 0
928 1 52.2522 59.1015 0
929 2 52.0511 32.1339 0
930 2 20.0113 15.8512 0
931 1 40.9142 47.5702 0
932 1 70.3119 39.0906 0
933 1 34.2952 21.8779 0
934 1 1.86058 60.2894 0
935 1 11.3709 50.4904 0
936 2 42.1561 4.72718 0
937 1 14.3187 73.2076 0
938 1 36.8369 67.6941 0
939 2 50.4595 51.2792 0
940 1 75.8582 46.8796 0
941 1 77.278 17.5728 0
942 1 37.8299 29.8351 0
943 2 22.2512 16.8517 0
944 2 2.08929 41.8802 0
945 1 40.3547 25.3218 0
946 1 64.5816 67.1565 0
947 2 25.1831 2.02441 0
948 1 39.4109 68.629 0
949 1 26.7996 11.6457 0
950 2 5.18827 9.77056 0
951 1 68.9304 65.5541 0
952 2 52.6248 2.66831 0
953 2 7.96205 44.7096 0
954 2 30.0188 62.5247 0
955 1 27.2053 38.5484 0
956 2 58.7225 10.904 0
957 1 48.3951 23.6894 0
958 2 19.5725 2.7072 0
959 2 73.6502 25.0448 0
960 2 29.1881 66.8685 0
961 1 49.6374 52.0947 0
962 1 24.3994 1.55699 0
963 1 16.4399 12.6645 0
964 2 8.67825 9.69556 0
965 2 53.8314 53.7582 0
966 1 0.653958 62.8233 0
967 1 49.7439 35.6023 0
968 1 18.4534 0.0725278 0
969 1 58.0111 23.3211 0
970 2 22.6004 4.51107 0
971 1 21.256 14.5877 0
972 1 6.86715 25.2216 0
973 1 0.859488 35.8655 0
974 2 0.888513 34.9522 0
975 2 73.0195 65.3313 0
976 2 34.5742 19.9405 0
977 1 36.0134 63.2055 0
978 2 3.23802 77.0585 0
979 2 36.1968 65.74 0
980 1 72.8895 14.1996 0
981 1 73.6604 57.9419 0
982 1 7.63363 54.7469 0
983 1 18.4512 24.6513 0
984 1 9.20321 57.9417 0
985 1 34.5264 11.253 0
986 1 38.036 52.6457 0
987 2 18.2457 12.0913 0
988 2 42.0747 34.9948 0
989 2 10.0089 34.8204 0
990 2 69.8907 51.6397 0
991 2 46.189 14.8434 0
992 1 62.3299 34.5807 0
993 2 29.1578 5.80387 0
994 2 2.02304 54.9828 0
995 1 38.8447 22.2559 0
996 2 54.7678 56.9844 0
997 2 43.3642 30.925 0
998 2 60.4967 74.9346 0
999 2 39.2704 26.5871 0
1000 2 0.509954 49.5728 0
1001 1 41.762 65.5156 0
1002 1 23.2381 34.4428 0
1003 1 9.30016 54.1089 0
1004 1 7.63432 22.4338 0
1005 2 10.8619 23.6776 0
1006 2 67.8575 60.7872 0
1007 1 18.895 20.3912 0
1008 1 47.734 16.9444 0
1009 1 30.9707 33.0162 0
1010 1 11.6524 43.5255 0
1011 2 10.5334 22.2872 0
1012 2 2.24315 23.3026 0
1013 2 65.1114 55.9979 0
1014 1 74.149 15.3537 0
1015 1 76.0918 9.43038 0
1016 1 37.2516 47.997 0
1017 2 68.7713 54.2512 0
1018 1 26.163 25.0237 0
1019 1 44.1304 28.9994 0
1020 2 32.5275 6.33838 0
1021 2 15.9004 24.6318 0
1022 1 4.74953 61.0125 0
1023 1 41.0958 9.33293 0
1024 1 9.13714 67.8432 0
1025 1 37.0557 65.7926 0
1026 1 8.04407 40.1397 0
1027 1 47.4931 2.52847 0
1028 1 1.91104 32.878 0
1029 1 48.9517 18.2957 0
1030 2 46.862 48.0734 0
1031 2 37.471 37.0466 0
1032 1 16.3959 73.1132 0
1033 1 57.6208 19.0962 0
1034 1 35.27 29.3382 0
1035 1 65.735 28.2678 0
1036 2 73.6668 45.8451 0
1037 1 31.3984 73.0263 0
1038 1 68.6641 60.4134 0
1039 1 5.42597 31.823 0
1040 2 64.9465 34.2291 0
1041 1 35.4836 65.1621 0
1042 2 62.9053 68.166 0
1043 2 60.7611 58.1635 0
1044 1 67.5657 23.2723 0
1045 1 66.5144 23.0977 0
1046 1 41.2733 68.1951 0
1047 2 9.90921 47.5889 0
1048 1 53.4079 77.422 0
1049 1 59.8576 49.1993 0
1050 2 45.518 6.42187 0
1051 1 43.4686 31.8085 0
1052 1 66.2816 44.5573 0
1053 2 32.6813 18.4887 0
1054 1 55.1667 6.98854 0
1055 2 32.8877 46.6981 0
1056 2 14.6505 45.3483 0
1057 1 12.0406 71.6507 0
1058 1 27.497 5.88774 0
1059 1 9.23374 75.2705 0
1060 2 21.9104 42.0126 0
1061 1 10.1324 23.2255 0
1062 2 16.8854 41.4763 0
1063 1 77.4379 67.8242 0
1064 1 23.2955 5.03759 0
1065 2 29.7282 52.8286 0
1066 1 37.4526 46.3055 0
1067 1 14.0051 10.5387 0
1068 2 35.631 67.0955 0
1069 1 67.8016 24.2871 0
1070 2 8.19177 34.5633 0
1071 2 49.5529 42.8653 0
1072 2 9.46087 48.6339 0
1073 2 16.4558 3.56397 0
1074 2 33.8268 45.5462 0
1075 1 76.0361 49.7913 0
1076 1 41.2694 7.60312 0
1077 1 41.6209 32.6663 0
1078 2 71.6151 26.1718 0
1079 2 38.9703 10.8275 0
1080 2 30.0913 72.7079 0
1081 2 45.9435 49.0178 0
1082 2 6.28634 27.65 0
1083 2 21.5415 20.0822 0
1084 1 44.2067 57.5462 0
1085 1 19.129 52.3665 0
1086 1 70.2305 67.012 0
1087 1 29.7166 71.9155 0
1088 1 44.857 63.0659 0
1089 2 8.43452 31.6836 0
1090 1 42.7559 34.457 0
1091 2 27.6459 17.7232 0
1092 1 63.0374 53.6208 0
1093 1 69.0821 32.8295 0
1094 2 43.5869 55.2593 0
1095 1 25.3508 71.0107 0
1096 2 48.1197 18.63 0
1097 1 76.2129 17.6732 0
1098 1 62.7396 43.7133 0
1099 1 31.1514 5.06149 0
1100 1 67.8742 1.85632 0
1101 1 74.8667 11.8137 0
1102 1 26.0418 74.7625 0
1103 1 51.4547 70.9977 0
1104 1 47.0632 58.2554 0
1105 1 48.2242 40.0567 0
1106 1 16.4803 71.2616 0
1107 2 45.4761 62.3873 0
1108 1 55.6123 31.2831 0
1109 1 72.7664 24.9036 0
1110 2 15.0047 11.8957 0
1111 1 2.65661 56.9519 0
1112 1 76.1281 18.7275 0
1113 2 75.557 7.72093 0
1114 2 14.2129 53.4129 0
1115 2 33.0722 49.4406 0
1116 1 77.1399 64.7142 0
1117 1 66.8969 56.5105 0
1118 1 12.3496 75.4959 0
1119 2 11.226 64.4756 0
1120 1 41.4236 58.0867 0
1121 2 21.2347 64.1452 0
1122 1 31.8939 32.5887 0
1123 2 23.0023 51.8994 0
1124 1 52.7857 61.9718 0
1125 2 14.8501 4.44763 0
1126 2 15.5047 20.2534 0
1127 1 74.5943 24.0801 0
1128 1 67.233 52.1308 0
1129 1 60.9366 39.6432 0
1130 1 30.4945 47.3323 0
1131 1 62.5257 15.2031 0
1132 2 75.8549 63.6842 0
1133 2 56.0364 22.3792 0
1134 2 20.8143 72.0741 0
1135 1 0.743805 68.5752 0
1136 2 51.1804 26.9209 0
1137 1 51.0737 61.5448 0
1138 1 30.309 13.7125 0
1139 2 57.5494 52.9257 0
1140 2 9.27796 22.9593 0
1141 1 74.9052 65.6372 0
1142 1 27.0023 52.301 0
1143 1 48.2184 44.8342 0
1144 2 60.935 16.1987 0
1145 1 38.1953 62.4984 0
1146 1 15.5876 18.9142 0
1147 1 28.3378 25.7196 0
1148 1 10.8785 36.7689 0
1149 1 57.4747 29.296 0
1150 2 65.5001 61.1478 0
1151 1 22.1356 3.81673 0
1152 1 59.7375 52.0178 0
1153 1 71.6376 29.4711 0
1154 1 14.0305 4.80588 0
1155 2 60.1727 20.2165 0
1156 1 44.4946 32.1763 0
1157 1 12.3501 18.1937 0
1158 2 58.2826 47.8625 0
1159 2 5.38172 70.6012 0
1160 1 32.9773 7.82144 0
1161 2 43.9874 56.678 0
1162 1 15.9572 9.99217 0
1163 2 13.4643 73.1113 0
1164 1 23.9154 58.8412 0
1165 1 20.8641 45.5641 0
1166 2 14.9806 50.684 0
1167 1 27.8878 20.2936 0
1168 1 56.5256 64.7123 0
1169 1 19.5477 66.7134 0
1170 2 6.20528 33.6867 0
1171 1 48.4542 33.8633 0
1172 1 22.9376 6.71008 0
1173 1 51.7471 64.1442 0
1174 1 38.8341 29.3576 0
1175 2 62.6719 44.6993 0
1176 1 68.3092 36.4512 0
1177 1 48.5826 70.0285 0
1178 2 61.0567 47.6607 0
1179 1 72.187 32.7478 0
1180 1 52.0698 17.8967 0
1181 1 54.317 22.9071 0
1182 1 60.9917 74.2167 0
1183 2 43.145 73.4259 0
1184 2 28.1202 22.0249 0
1185 1 17.5496 63.0726 0
1186 1 48.9802 49.4804 0
1187 1 73.896 72.1219 0
1188 2 4.81675 37.6437 0
1189 1 60.7523 65.3147 0
1190 1 28.3776 51.454 0
1191 2 72.3607 5.10281 0
1192 1 24.5905 47.0796 0
1193 1 47.539 17.9585 0
1194 2 16.6884 16.1248 0
1195 1 74.2369 48.8278 0
1196 1 21.8499 49.8236 0
1197 1 35.5054 38.9489 0
1198 1 62.4379 76.4197 0
1199 2 57.9719 62.4535 0
1200 1 26.9778 8.91533 0
1201 1 2.89772 73.2672 0
1202 1 5.82456 48.7585 0
1203 2 47.5462 12.4025 0
1204 1 57.5268 56.6096 0
1205 1 66.6702 50.3255 0
1206 1 52.1933 5.05367 0
1207 1 31.9829 62.7704 0
1208 1 75.4637 57.9951 0
1209 2 65.363 59.7836 0
1210 1 69.6405 31.8322 0
1211 2 24.6262 35.536 0
1212 1 33.6576 36.2348 0
1213 1 61.3389 68.9516 0
1214 1 61.5523 23.5732 0
1215 1 11.7658 72.685 0
1216 1 11.2428 49.4488 0
1217 2 67.1721 2.38334 0
1218 2 61.4277 20.865 0
1219 1 30.2049 15.4088 0
1220 1 61.8711 17.8416 0
1221 1 61.6425 54.8833 0
1222 2 66.3996 74.434 0
1223 1 42.4112 48.0849 0
1224 1 0.620314 34.1456 0
1225 1 2.81318 25.7341 0
1226 2 66.0021 64.9749 0
1227 1 41.4726 56.9979 0
1228 1 76.1877 70.7976 0
1229 2 47.966 9.3291 0
1230 1 25.4697 49.8635 0
1231 2 52.9418 18.1042 0
1232 1 67.7675 38.0952 0
1233 1 38.6973 58.6447 0
1234 1 1.67959 67.9748 0
1235 1 18.2191 46.0416 0
1236 1 52.4609 63.2696 0
1237 1 37.8078 20.6547 0
1238 1 24.7158 7.16188 0
1239 1 12.8498 22.6983 0
1240 1 24.4394 62.8602 0