ITEM: TIMESTEP
0
ITEM: NUMBER OF ATOMS
7200
ITEM: BOX BOUNDS xy xz yz pp pp pp
0.0000000000000000e+00 7.7459666924100006e+01 0.0000000000000000e+00
0.0000000000000000e+00 7.7459666924100006e+01 0.0000000000000000e+00
-1.2909944490000000e-01 1.2909944490000000e-01 0.0000000000000000e+00
ITEM: ATOMS id type x y z
1 1 11.9603 19.9615 0
2 1 14.9513 63.9068 0
3 1 75.5707 71.1861 0
4 1 20.3593 7.82732 0
5 1 34.6351 56.2828 0
6 1 57.0789 28.6242 0
7 2 5.42211 3.04915 0
8 2 64.7993 46.3068 0
9 1 42.2391 56.1786 0
10 2 19.0476 14.5607 0
11 2 25.4319 53.0192 0
12 1 54.9462 12.1127 0
13 2 23.4144 5.67945 0
14 1 46.6021 70.2046 0
15 1 39.4139 31.3276 0
16 1 18.1994 14.7871 0
17 1 31.4328 40.0283 0
18 1 33.5294 6.20952 0
19 1 26.9608 57.8275 0
20 2 44.9539 3.89898 0
21 1 12.4618 65.7646 0
22 1 54.203 11.248 0
23 1 75.6797 45.7552 0
24 1 56.7804 66.2101 0
25 1 6.68047 70.4996 0
26 1 21.113 67.5058 0
27 2 28.816 63.6534 0
28 1 51.2753 74.3538 0
29 2 22.4779 47.7633 0
30 2 24.2607 31.3003 0
31 1 15.3929 53.5375 0
32 1 51.1954 38.3677 0
33 1 60.9238 48.4639 0
34 2 45.3474 9.8791 0
35 1 75.2212 63.1122 0
36 1 30.5592 60.0078 0
37 1 22.1136 61.2808 0
38 1 45.7838 20.103 0
39 1 22.4928 5.53984 0
40 2 24.8022 59.049 0
41 2 18.4531 64.5584 0
42 1 20.8865 0.927765 0
43 1 18.9017 33.388 0
44 1 34.2658 62.6737 0
45 1 3.31587 34.4144 0
46 1 68.6157 7.6959 0
47 1 73.36 59.1736 0
48 1 44.0273 68.3917 0
49 2 0.0604667 4.18464 0
50 1 30.9676 66.6849 0
51 1 1.55608 9.74484 0
52 2 32.5773 24.2053 0
53 1 53.5711 19.1125 0
54 1 49.5992 30.6852 0
55 1 9.54964 0.856844 0
56 1 45.9964 26.3924 0
57 1 67.5682 43.0175 0
58 1 70.2411 69.7733 0
59 1 33.7089 1.92661 0
60 1 28.8013 3.472 0
61 1 40.6707 76.0686 0
62 1 52.1991 45.137 0
63 1 57.0699 10.3002 0
64 1 50.7106 45.7382 0
65 1 67.3248 73.5758 0
66 2 55.8168 11.8225 0
67 2 40.5105 35.9599 0
68 2 0.264763 29.6816 0
69 1 62.028 45.2366 0
70 1 8.4328 35.5979 0
71 2 7.49667 42.1795 0
72 1 76.6493 2.91956 0
73 1 6.47224 63.9852 0
74 2 41.4632 22.8939 0
75 1 75.3477 53.3676 0
76 1 19.7082 46.8935 0
77 1 25.0369 74.4343 0
78 1 3.30192 15.5234 0
79 1 12.1381 73.3933 0
80 1 43.3362 16.9216 0
81 1 55.3256 62.3987 0
82 2 44.169 16.9849 0
83 1 5.95167 32.9862 0
84 1 32.9368 45.7287 0
85 1 34.261 20.085 0
86 2 34.6144 64.7371 0
87 1 71.6463 34.7139 0
88 1 18.3611 54.6483 0
89 1 27.5005 13.8679 0
90 1 37.3958 38.0163 0
91 2 46.3777 40.9121 0
92 2 41.345 56.2614 0
93 1 27.5225 16.8477 0
94 1 33.3062 55.8215 0
95 2 39.8671 56.8617 0
96 1 64.7125 1.75611 0
97 1 44.0692 49.0783 0
98 2 2.76724 59.9636 0
99 1 62.0024 48.2263 0
100 2 32.4663 30.9099 0
101 1 47.1785 54.813 0
102 1 56.3976 21.6776 0
103 1 57.419 70.5133 0
104 1 2.64187 60.8774 0
105 2 40.664 4.08031 0
106 2 30.3193 34.8569 0
107 1 13.3117 31.2576 0
108 1 0.430496 0.608463 0
109 1 34.4534 41.4685 0
110 2 65.7164 26.58 0
111 1 65.7235 12.1954 0
112 1 34.0745 72.5394 0
113 2 0.227756 60.293 0
114 2 74.1448 29.8417 0
115 2 30.1418 12.444 0
116 2 74.581 53.6967 0
117 1 16.2366 45.8157 0
118 2 46.8332 26.7422 0
119 1 62.2072 0.160929 0
120 2 5.94026 49.8083 0
121 1 6.12885 3.55546 0
122 1 19.8387 32.9652 0
123 2 5.12224 17.7891 0
124 1 46.3918 57.7096 0
125 1 31.7114 27.5988 0
126 1 57.9788 51.9614 0
127 1 4.40073 59.0189 0
128 1 14.3248 23.2653 0
129 1 16.5539 52.1364 0
130 1 7.26848 2.29667 0
131 1 60.6977 25.4884 0
132 2 31.0083 41.75 0
133 2 52.7672 7.21802 0
134 1 65.7382 51.1448 0
135 1 31.6501 30.4941 0
136 2 54.7424 46.8709 0
137 1 61.7897 56.6924 0
138 2 70.4345 48.055 0
139 1 68.2063 27.2135 0
140 1 3.24441 22.1 0
141 2 48.3925 63.6525 0
142 1 6.44561 22.8089 0
143 2 40.6268 70.2498 0
144 2 47.3836 75.2809 0
145 2 18.253 52.8628 0
146 1 55.0149 4.40678 0
147 1 9.41496 38.8829 0
148 1 46.0077 53.8463 0
149 2 67.9708 49.3107 0
150 1 32.7404 56.6614 0
151 2 29.3628 13.5993 0
152 1 49.2597 63.4781 0
153 2 17.288 46.2716 0
154 2 32.0768 73.0679 0
155 1 70.4386 48.9788 0
156 1 43.6498 10.6789 0
157 1 49.0916 71.1922 0
158 1 59.9363 69.3625 0
159 2 10.5013 25.994 0
160 1 38.009 17.4297 0
161 1 7.25728 63.307 0
162 2 73.4892 24.4431 0
163 1 30.718 27.0954 0
164 1 60.037 29.4585 0
165 1 74.9657 27.4613 0
166 1 1.89405 44.6612 0
167 1 39.155 0.674794 0
168 1 38.3233 73.0209 0
169 1 56.5269 31.2018 0
170 1 58.2326 2.54366 0
171 2 36.8651 61.1073 0
172 2 33.6782 53.8609 0
173 2 43.8422 24.4941 0
174 2 27.6243 56.0163 0
175 2 31.5287 26.779 0
176 1 46.1151 16.592 0
177 1 19.728 58.5716 0
178 1 61.7196 61.5199 0
179 1 64.7415 24.2426 0
180 2 33.7624 39.6468 0
181 1 45.2056 27.9763 0
182 1 61.5879 58.5836 0
183 2 12.0827 37.2982 0
184 1 5.35101 67.2201 0
185 2 67.3997 29.4877 0
186 1 59.1956 35.1605 0
187 1 39.5405 46.409 0
188 1 57.3619 47.5895 0
189 2 63.7493 52.8106 0
190 1 23.2646 3.7682 0
191 1 71.7286 7.40773 0
192 1 65.3517 10.4578 0
193 2 10.8296 41.5863 0
194 2 68.4931 69.1462 0
195 1 10.9783 3.13695 0
196 2 50.0279 54.5878 0
197 2 20.3553 9.80341 0
198 1 13.4116 61.1096 0
199 2 75.5904 66.219 0
200 1 59.7554 28.0914 0
201 2 34.3731 1.26419 0
202 2 74.4414 55.2314 0
203 1 52.3208 65.7824 0
204 1 29.6145 4.15541 0
205 1 55.8096 26.1492 0
206 2 35.6458 37.0601 0
207 2 14.5762 9.47856 0
208 1 33.5057 13.9208 0
209 1 12.2667 11.364 0
210 2 5.32761 20.5813 0
211 1 17.5959 7.839 0
212 2 24.899 5.92998 0
213 2 55.2296 28.1282 0
214 1 70.9046 57.7602 0
215 2 66.7706 22.0783 0
216 1 20.6302 73.4497 0
217 1 59.4961 34.0877 0
218 2 54.8653 58.5385 0
219 2 68.0802 42.265 0
220 2 43.0052 63.9331 0
221 1 18.9335 45.2658 0
222 1 45.2359 12.7544 0
223 2 39.1246 67.8928 0
224 2 27.5658 68.7197 0
225 1 32.085 23.3757 0
226 2 66.1882 57.314 0
227 2 5.90825 16.5595 0
228 1 35.4883 9.45865 0
229 1 70.9057 26.7396 0
230 1 33.6346 74.2959 0
231 1 10.7803 34.1496 0
232 1 42.4151 12.9901 0
233 1 35.1862 7.71201 0
234 1 76.1436 7.92449 0
235 1 60.6739 59.1535 0
236 2 44.8122 70.5235 0
237 1 77.1268 62.0906 0
238 2 9.14084 21.2047 0
239 1 58.9709 3.53486 0
240 2 61.7957 46.1471 0
241 1 47.4899 66.8664 0
242 1 18.5348 30.4568 0
243 1 7.08891 56.3167 0
244 1 61.1438 64.4373 0
245 1 11.0961 30.7482 0
246 1 2.00496 35.5509 0
247 1 65.6035 50.0474 0
248 1 12.1798 0.686342 0
249 2 50.4366 41.374 0
250 1 30.1175 9.56321 0
251 2 57.7395 50.0896 0
252 2 66.4264 24.0049 0
253 1 19.8377 17.4872 0
254 1 54.4442 24.8328 0
255 1 65.5306 42.8685 0
256 1 32.119 7.6928 0
257 1 22.336 57.689 0
258 1 26.0031 38.6452 0
259 1 55.6433 56.6896 0
260 2 44.0313 53.8315 0
261 2 26.3036 62.5985 0
262 1 24.1293 33.3538 0
263 2 12.6326 34.5243 0
264 2 71.2155 59.8617 0
265 1 77.0198 46.6661 0
266 1 38.0808 44.7708 0
267 2 61.0806 24.3824 0
268 2 56.7759 45.7003 0
269 1 48.0613 21.3605 0
270 2 8.96173 46.9569 0
271 2 23.3599 33.7812 0
272 2 20.5064 14.3655 0
273 1 15.0561 64.9672 0
274 1 32.2423 50.0499 0
275 1 8.56761 48.9466 0
276 1 75.1377 9.69832 0
277 2 15.5731 71.2719 0
278 1 7.69435 17.195 0
279 1 4.45123 44.3328 0
280 1 20.1354 35.6781 0
281 1 30.5679 38.5801 0
282 2 75.8095 27.4793 0
283 1 76.3703 55.756 0
284 2 54.4991 38.5235 0
285 1 70.9569 52.772 0
286 1 11.4025 63.1982 0
287 1 18.9364 76.6598 0
288 2 75.9319 3.43004 0
289 2 21.1775 38.9837 0
290 2 67.7442 75.4609 0
291 1 34.7236 23.0704 0
292 1 27.6969 58.6472 0
293 1 47.2658 19.374 0
294 1 40.3511 2.3172 0
295 1 69.6792 3.42019 0
296 2 73.6008 8.85429 0
297 1 40.9141 59.8013 0
298 1 72.6159 35.0183 0
299 2 49.3178 36.9901 0
300 1 39.1712 43.7372 0
301 1 73.1626 19.6011 0
302 1 51.0279 35.6254 0
303 1 20.3646 32.0112 0
304 1 60.5633 71.5033 0
305 2 58.0326 76.2449 0
306 1 62.9456 52.5711 0
307 2 73.5372 38.9624 0
308 1 41.7064 5.6606 0
309 2 25.0963 16.7518 0
310 2 13.3964 12.8853 0
311 1 29.2772 49.4528 0
312 1 67.2839 61.6405 0
313 1 74.7683 75.9356 0
314 1 40.5619 45.9498 0
315 2 56.3047 32.1054 0
316 2 39.6416 63.6064 0
317 1 50.9352 21.1348 0
318 2 7.01076 31.213 0
319 1 31.0916 26.0752 0
320 1 36.1956 61.695 0
321 1 58.2271 69.0724 0
322 2 73.7975 11.4051 0
323 2 25.0439 63.3961 0
324 1 64.3585 41.5058 0
325 1 40.9871 7.24699 0
326 1 9.79085 58.6639 0
327 1 48.2814 54.7455 0
328 1 0.743991 37.0069 0
329 1 41.5901 42.6199 0
330 2 51.873 35.2851 0
331 2 70.4442 2.94961 0
332 1 59.1228 28.9438 0
333 1 37.4904 13.0628 0
334 1 16.9614 34.7367 0
335 1 20.5369 38.461 0
336 2 72.3883 74.2668 0
337 1 34.6064 33.8402 0
338 2 17.0441 1.43133 0
339 1 42.4421 68.5906 0
340 1 18.9245 57.7784 0
341 2 74.1233 44.1664 0
342 1 66.5338 6.06929 0
343 2 56.4041 49.74 0
344 2 22.6673 65.8661 0
345 1 7.99887 28.0225 0
346 1 17.4298 71.682 0
347 1 35.509 56.8623 0
348 1 57.2874 19.2789 0
349 1 33.2789 20.5335 0
350 1 37.1455 31.2426 0
351 1 18.001 53.7094 0
352 1 47.8926 31.1008 0
353 1 75.2078 25.6131 0
354 2 22.598 26.0793 0
355 2 43.2404 18.4628 0
356 2 11.7178 2.76354 0
357 1 68.3374 67.6224 0
358 1 24.2792 3.5174 0
359 1 22.4253 14.586 0
360 2 45.1474 31.6702 0
361 2 48.2009 67.285 0
362 1 27.0974 74.3664 0
363 2 38.133 73.8498 0
364 1 13.3077 66.3262 0
365 2 8.80383 56.9478 0
366 1 24.9298 50.5093 0
367 2 19.7195 23.2682 0
368 2 51.6285 55.0726 0
369 2 65.0615 70.946 0
370 1 3.53357 28.2218 0
371 1 46.0107 73.7184 0
372 2 39.6002 9.53744 0
373 1 10.4455 31.5615 0
374 2 66.5946 41.3529 0
375 1 52.241 52.7563 0
376 2 75.4815 43.0909 0
377 2 58.4038 37.816 0
378 1 20.3793 63.6671 0
379 1 13.6682 20.1713 0
380 1 9.76792 62.2725 0
381 1 26.8786 23.4213 0
382 1 30.5919 24.0822 0
383 1 9.69616 11.5369 0
384 1 34.8693 51.7797 0
385 1 28.5452 76.8393 0
386 1 55.0791 40.417 0
387 1 58.6057 77.078 0
388 2 56.0216 57.6568 0
389 1 24.6027 56.4923 0
390 1 28.5082 13.5373 0
391 2 58.5829 26.4897 0
392 2 30.7947 9.01742 0
393 2 38.7232 65.1971 0
394 1 10.2472 73.7796 0
395 1 53.6412 22.2936 0
396 1 13.7798 70.5045 0
397 1 46.6622 17.5206 0
398 1 45.547 71.0323 0
399 1 69.9612 18.132 0
400 1 59.3429 75.0909 0
401 1 44.8378 11.7394 0
402 2 56.0468 16.6988 0
403 1 38.1555 51.587 0
404 1 69.4769 70.6686 0
405 2 73.975 75.6448 0
406 1 34.0077 19.0439 0
407 2 45.6984 21.8421 0
408 1 63.5246 30.4144 0
409 1 18.5734 61.1723 0
410 2 67.6346 16.5133 0
411 2 66.5846 36.5239 0
412 1 59.2006 38.345 0
413 1 7.02306 36.5413 0
414 1 71.297 48.2122 0
415 1 6.96761 41.492 0
416 2 73.7045 62.298 0
417 2 74.9282 12.3078 0
418 1 54.2207 30.3448 0
419 2 56.6323 47.0226 0
420 2 25.042 55.7571 0
421 1 61.532 20.4818 0
422 1 1.91565 70.0462 0
423 1 4.10441 11.8464 0
424 1 61.9672 26.6487 0
425 1 58.8873 50.3107 0
426 1 55.9145 74.023 0
427 2 39.4812 15.177 0
428 1 51.1829 51.1392 0
429 1 59.5506 71.9094 0
430 1 36.5023 37.1734 0
431 1 77.4117 30.6172 0
432 1 63.5931 48.8748 0
433 1 29.1775 68.8552 0
434 1 1.82428 42.7496 0
435 1 64.2551 34.1681 0
436 2 67.959 38.9884 0
437 2 44.8978 59.7735 0
438 1 38.9178 61.895 0
439 2 42.9348 12.0421 0
440 1 43.4463 43.7352 0
441 2 68.2361 13.9691 0
442 1 9.60567 37.8184 0
443 1 54.4497 17.2334 0
444 1 16.4918 75.2537 0
445 2 69.2786 67.5552 0
446 1 61.6292 42.0981 0
447 1 26.9846 70.6578 0
448 1 46.922 37.988 0
449 1 37.3459 73.5321 0
450 2 48.3522 59.8568 0
451 2 6.674 61.4437 0
452 1 66.2892 10.8627 0
453 1 28.6447 75.6555 0
454 2 62.7001 29.9984 0
455 2 26.3424 67.741 0
456 1 11.4255 44.5542 0
457 2 18.8141 1.91671 0
458 1 38.2772 77.3134 0
459 2 15.6384 56.6298 0
460 1 5.89801 4.57442 0
461 2 28.0324 29.4181 0
462 1 45.8504 24.6398 0
463 1 76.2301 69.5307 0
464 1 8.93944 47.9039 0
465 2 40.6534 45.1053 0
466 1 21.8292 12.8123 0
467 2 11.5023 1.22896 0
468 1 19.3014 36.2696 0
469 1 1.80664 1.74552 0
470 1 61.6352 10.7588 0
471 2 73.9402 40.8341 0
472 1 25.5447 42.6786 0
473 1 61.7263 66.0734 0
474 1 33.5385 54.7314 0
475 1 22.3601 59.584 0
476 2 38.9303 32.07 0
477 1 60.3196 11.9646 0
478 2 34.4475 74.3829 0
479 1 33.1074 22.5319 0
480 1 19.9358 25.5321 0
481 1 6.83457 18.4097 0
482 1 10.8243 25.0919 0
483 2 0.974358 1.56576 0
484 1 14.3319 38.1346 0
485 1 21.3643 57.0097 0
486 1 7.50096 4.71976 0
487 2 71.5674 9.98954 0
488 1 59.2523 6.32939 0
489 1 52.2038 15.6255 0
490 1 35.4385 31.1478 0
491 1 30.7501 42.5774 0
492 2 60.9934 10.113 0
493 1 72.7932 7.73512 0
494 1 67.6497 31.9353 0
495 2 22.4541 49.1463 0
496 2 52.7944 42.5073 0
497 2 41.6741 7.69125 0
498 1 23.6389 25.5403 0
499 1 36.8818 76.2409 0
500 1 3.21543 3.94802 0
501 2 45.53 43.4281 0
502 1 16.6636 24.5761 0
503 1 50.2748 10.0939 0
504 1 37.0731 32.8091 0
505 2 25.9699 0.368502 0
506 2 17.5695 65.099 0
507 1 41.9121 37.1789 0
508 1 12.8045 32.6198 0
509 1 29.0827 24.881 0
510 1 6.99724 38.627 0
511 1 69.1881 26.5423 0
512 1 54.4321 53.2139 0
513 1 11.8273 34.078 0
514 1 25.2534 64.2406 0
515 2 61.1742 11.5132 0
516 2 11.3876 38.6006 0
517 2 75.5543 74.1242 0
518 2 18.992 54.115 0
519 2 32.8346 1.75221 0
520 1 74.4282 37.1103 0
521 1 42.0889 24.719 0
522 2 24.311 65.9464 0
523 1 77.0951 11.7567 0
524 1 70.5307 34.6288 0
525 1 22.7576 77.2956 0
526 2 0.3158 21.6568 0
527 1 49.4954 26.3263 0
528 2 74.7946 4.71866 0
529 2 34.5562 46.0976 0
530 1 8.02252 59.4302 0
531 2 76.645 68.7677 0
532 2 32.1774 60.8847 0
533 1 73.1429 5.1195 0
534 1 34.2624 26.6758 0
535 1 29.0739 18.8769 0
536 1 32.5374 65.8693 0
537 1 35.0741 47.9715 0
538 2 16.2503 21.5186 0
539 2 46.1317 76.9617 0
540 1 60.8939 40.5283 0
541 2 25.3601 7.44135 0
542 1 51.4254 57.2623 0
543 2 69.5964 55.5878 0
544 2 51.9392 10.8813 0
545 1 28.5585 22.6752 0
546 1 33.912 3.11268 0
547 1 10.0454 14.0612 0
548 2 23.6346 2.95157 0
549 2 65.4709 22.63 0
550 2 5.24331 39.3165 0
551 1 30.1403 8.45436 0
552 2 70.5484 40.2798 0
553 2 29.4262 44.8226 0
554 1 53.2168 62.4767 0
555 1 50.3594 56.9738 0
556 1 73.1356 67.8708 0
557 1 61.9584 53.9058 0
558 1 2.92263 68.4094 0
559 1 72.7242 36.0782 0
560 2 21.2696 61.4369 0
561 1 6.96223 0.525911 0
562 2 4.56733 11.0517 0
563 2 54.2566 48.5785 0
564 1 70.0005 68.0568 0
565 2 21.7328 1.19643 0
566 2 18.1271 23.7663 0
567 1 49.0277 42.2909 0
568 2 22.8304 73.9192 0
569 2 15.6653 27.3042 0
570 1 73.2359 34.1396 0
571 1 0.270005 3.28862 0
572 2 6.72676 48.5484 0
573 2 0.0156246 44.8428 0
574 1 4.00492 68.1729 0
575 1 18.5436 7.30568 0
576 1 16.4269 63.0585 0
577 1 43.2556 50.4796 0
578 2 67.654 34.2319 0
579 2 45.9582 68.4391 0
580 1 62.6914 42.5729 0
581 1 6.64603 60.5801 0
582 2 68.5009 59.6877 0
583 2 64.0026 58.6853 0
584 2 33.4142 65.5267 0
585 1 60.1764 77.031 0
586 1 48.7387 59.0601 0
587 2 14.4869 21.5544 0
588 1 49.6605 5.50495 0
589 2 53.4723 10.6617 0
590 1 24.6842 73.3954 0
591 1 56.2657 6.85971 0
592 1 48.6274 74.3867 0
593 1 44.2168 13.4677 0
594 1 59.6483 63.552 0
595 1 71.9651 65.191 0
596 2 6.09263 0.763354 0
597 1 3.49439 43.9565 0
598 1 69.3136 8.60391 0
599 1 2.53095 50.8923 0
600 1 0.0957634 47.5215 0
601 2 41.9859 36.2795 0
602 1 62.0159 14.4386 0
603 2 71.1158 50.7751 0
604 2 62.0628 16.6869 0
605 1 52.2944 69.1769 0
606 1 41.584 4.25047 0
607 1 75.7915 1.01917 0
608 2 1.34135 40.2769 0
609 2 40.8963 0.635858 0
610 1 7.76354 49.7789 0
611 1 54.033 58.749 0
612 1 76.9238 5.95865 0
613 1 0.100937 22.4983 0
614 2 50.5572 28.7433 0
615 1 34.4286 39.0904 0
616 1 39.5823 16.0808 0
617 1 67.7755 2.64888 0
618 2 12.0007 42.5819 0
619 2 54.2599 41.967 0
620 2 71.1938 73.5555 0
621 2 58.0863 35.9978 0
622 1 60.6225 17.9984 0
623 1 38.0611 11.4983 0
624 2 20.4217 54.6106 0
625 1 26.9524 76.1074 0
626 1 73.6986 28.9589 0
627 2 1.70416 25.6529 0
628 1 28.7658 58.0364 0
629 2 77.1504 26.2663 0
630 1 29.2844 72.9985 0
631 1 57.5178 37.8007 0
632 1 21.5616 64.9514 0
633 2 25.5256 71.9095 0
634 1 18.7296 50.5678 0
635 2 41.5465 43.5285 0
636 2 37.0102 40.7418 0
637 1 11.4102 10.8189 0
638 1 67.3814 40.9018 0
639 1 70.3119 46.3702 0
640 1 0.259241 53.9997 0
641 1 36.309 33.6864 0
642 1 9.74644 33.8665 0
643 1 50.1348 44.8641 0
644 2 19.394 27.1369 0
645 1 56.9759 52.1896 0
646 1 46.4451 47.1427 0
647 2 23.6389 9.99372 0
648 1 64.0379 12.7374 0
649 2 10.9536 68.8271 0
650 2 46.9987 62.4771 0
651 1 46.3727 12.5732 0
652 1 29.6689 70.6254 0
653 2 13.4886 23.0791 0
654 2 10.5296 3.81592 0
655 1 5.4193 51.7216 0
656 1 72.7558 53.7933 0
657 1 33.7266 46.541 0
658 1 71.226 12.8252 0
659 2 0.774617 65.8756 0
660 1 27.4836 35.32 0
661 1 37.121 10.1812 0
662 1 32.6407 60.0868 0
663 1 10.7795 28.5588 0
664 1 58.0152 75.378 0
665 2 49.1777 77.1281 0
666 2 12.7747 58.1207 0
667 1 26.3302 73.5931 0
668 2 7.48718 76.2363 0
669 1 4.47912 9.12656 0
670 2 43.6916 37.8279 0
671 2 36.9992 17.6412 0
672 1 9.82504 19.3483 0
673 1 6.80377 16.6615 0
674 1 32.516 42.9549 0
675 2 5.61084 57.4353 0
676 2 38.8223 6.32755 0
677 1 41.4904 54.3326 0
678 1 54.0019 39.3444 0
679 1 46.0206 69.3242 0
680 1 31.7107 53.6599 0
681 1 26.4487 53.9751 0
682 1 62.2549 59.4395 0
683 1 18.0157 59.2095 0
684 1 64.4399 69.071 0
685 2 35.6675 18.6062 0
686 1 51.4174 5.81419 0
687 1 41.2806 18.9781 0
688 2 53.4647 73.8402 0
689 1 71.9869 62.3878 0
690 1 66.0562 72.5491 0
691 1 41.6382 39.7901 0
692 2 60.0549 44.0334 0
693 1 71.1316 77.0546 0
694 2 53.8336 64.3669 0
695 1 42.7093 11.1662 0
696 2 35.6781 47.1322 0
697 1 24.9396 12.8971 0
698 1 8.58584 3.42275 0
699 1 66.5091 14.0585 0
700 1 72.0398 47.0086 0
701 1 64.1644 31.2175 0
702 1 63.5885 65.4183 0
703 2 72.311 1.15419 0
704 2 8.37532 61.1301 0
705 2 5.08966 7.22758 0
706 1 52.1523 51.7039 0
707 2 59.9809 38.5338 0
708 1 50.4352 43.3818 0
709 1 51.73 73.3351 0
710 2 60.0739 27.222 0
711 1 56 53.9753 0
712 2 62.8761 32.6868 0
713 2 68.6434 70.2183 0
714 2 77.3616 64.3429 0
715 1 45.1142 19.2034 0
716 1 77.3248 28.8238 0
717 1 29.6336 63.4487 0
718 1 14.0861 3.5172 0
719 1 53.5284 37.2022 0
720 2 49.3104 38.7683 0
721 2 66.7646 39.8742 0
722 1 49.1963 8.23285 0
723 2 40.1475 75.4112 0
724 2 10.4375 59.3506 0
725 1 50.9242 39.4232 0
726 1 8.59786 29.7574 0
727 2 12.7911 1.3037 0
728 1 67.2654 55.7127 0
729 2 21.4423 59.3796 0
730 1 32.9481 27.6165 0
731 2 16.6474 36.266 0
732 1 16.3264 54.1632 0
733 1 29.9386 29.522 0
734 2 66.3397 46.5415 0
735 1 66.6547 67.298 0
736 1 47.0551 49.7344 0
737 2 4.10614 45.7096 0
738 1 13.6365 34.4205 0
739 1 18.0317 37.4633 0
740 1 48.6052 38.2431 0
741 2 57.2309 55.4947 0
742 1 59.1166 37.2639 0
743 1 27.14 62.0897 0
744 2 72.5333 19.0103 0
745 1 23.0577 72.5497 0
746 1 35.3898 10.4213 0
747 1 47.5386 76.2056 0
748 2 43.177 70.0397 0
749 2 22.3709 24.3683 0
750 1 55.3415 35.2097 0
751 1 57.7999 40.2055 0
752 2 1.37418 70.7827 0
753 1 53.3509 40.1875 0
754 2 21.9184 15.2609 0
755 1 24.0003 49.844 0
756 2 49.3168 75.9861 0
757 1 48.2023 19.9069 0
758 1 6.23738 9.6489 0
759 1 61.8145 47.0593 0
760 1 12.3232 10.2759 0
761 1 70.2366 71.3753 0
762 1 15.2918 57.4356 0
763 2 77.3514 6.72581 0
764 1 74.9084 57.1295 0
765 2 46.9997 57.2101 0
766 1 62.3751 23.0735 0
767 1 13.5554 1.00391 0
768 1 65.0182 8.33049 0
769 1 61.8736 49.889 0
770 2 60.0998 72.5099 0
771 1 18.7816 39.9215 0
772 1 44.8503 51.0957 0
773 1 40.6951 43.2156 0
774 2 32.9305 25.6948 0
775 1 71.659 30.5953 0
776 2 44.3516 42.4791 0
777 1 70.3596 55.1556 0
778 2 10.4089 62.923 0
779 1 45.2232 25.4765 0
780 1 17.2622 6.07088 0
781 1 30.4251 35.8267 0
782 1 57.412 65.2123 0
783 1 60.7804 35.3455 0
784 1 70.8752 49.919 0
785 2 8.79166 11.2706 0
786 1 73.4204 69.7644 0
787 1 20.7358 66.5425 0
788 1 39.8358 54.9062 0
789 1 11.1419 4.36744 0
790 1 51.8898 70.2131 0
791 1 45.9861 13.5587 0
792 1 8.74609 25.1467 0
793 1 25.1351 15.4528 0
794 2 70.8782 16.0717 0
795 2 75.5099 13.8452 0
796 2 75.7172 67.7809 0
797 1 44.5105 65.3239 0
798 1 37.9535 19.3498 0
799 1 44.3142 76.6013 0
800 1 31.0833 70.8298 0
801 2 6.36646 25.7789 0
802 2 27.8103 45.4741 0
803 2 23.5279 76.9526 0
804 2 52.7438 36.3528 0
805 1 23.8029 71.7845 0
806 1 52.8077 70.8127 0
807 2 39.7262 50.565 0
808 1 50.1805 47.8541 0
809 2 36.3962 62.5422 0
810 1 57.4955 76.9361 0
811 1 28.6728 60.9362 0
812 2 59.7534 48.1552 0
813 2 46.3055 58.5833 0
814 1 54.2224 31.3649 0
815 2 40.8305 17.167 0
816 1 28.0652 34.4363 0
817 1 68.57 75.2649 0
818 2 36.439 16.3885 0
819 2 45.5805 57.2358 0
820 1 66.8349 70.0839 0
821 1 16.7805 64.6985 0
822 1 56.4055 76.9213 0
823 1 17.1413 55.6221 0
824 2 35.0253 40.8203 0
825 1 29.2222 41.6509 0
826 1 32.9861 76.3947 0
827 1 7.24 26.3033 0
828 1 76.8826 51.2761 0
829 1 72.0981 40.237 0
830 2 48.1603 64.888 0
831 2 43.4072 4.70718 0
832 1 73.1118 13.0669 0
833 1 24.5054 42.8781 0
834 2 48.7567 5.84376 0
835 1 68.019 6.80164 0
836 1 58.048 27.146 0
837 1 56.7392 41.513 0
838 1 38.9993 53.0594 0
839 1 16.1562 60.2156 0
840 2 15.7901 46.5788 0
841 1 36.8029 52.7165 0
842 2 11.0741 61.1404 0
843 1 5.46361 42.351 0
844 1 63.5286 21.7847 0
845 2 28.0528 3.06855 0
846 1 49.6446 39.5893 0
847 1 10.9603 57.6337 0
848 2 68.8629 47.7657 0
849 1 74.0204 10.5738 0
850 1 67.9336 19.7713 0
851 1 39.0994 18.8417 0
852 1 12.0992 1.88636 0
853 1 42.2189 61.5077 0
854 1 37.8394 69.5868 0
855 1 39.4961 25.936 0
856 2 18.5056 41.8408 0
857 1 57.848 34.162 0
858 2 34.5653 28.8783 0
859 1 13.33 64.6222 0
860 2 2.01196 58.3539 0
861 2 60.1349 40.0498 0
862 2 3.50372 69.1008 0
863 1 60.1579 24.5928 0
864 1 60.3523 53.7789 0
865 2 66.0912 68.0304 0
866 1 60.0106 17.0437 0
867 2 32.1482 22.5139 0
868 1 37.1679 61.9316 0
869 1 62.5655 21.3455 0
870 1 77.3423 53.0127 0
871 1 63.6194 26.0637 0
872 1 42.2685 50.9245 0
873 1 50.5272 62.6003 0
874 1 4.13059 71.5971 0
875 1 34.0969 57.8409 0
876 2 51.7017 8.20118 0
877 1 13.399 55.4395 0
878 2 14.7739 15.9304 0
879 1 76.4078 13.8049 0
880 2 31.6465 33.6309 0
881 2 51.8272 29.6382 0
882 2 48.1469 73.7083 0
883 1 25.9189 20.2748 0
884 1 56.1185 36.6936 0
885 1 39.8415 4.43628 0
886 1 37.1133 60.2231 0
887 2 54.7567 50.0249 0
888 1 0.654884 76.2935 0
889 2 59.2642 49.4577 0
890 2 7.86206 25.4689 0
891 1 38.2006 10.3841 0
892 1 40.1521 67.9075 0
893 1 29.967 53.5943 0
894 1 76.9279 14.711 0
895 2 32.2703 52.9718 0
896 1 37.4899 2.65015 0
897 2 35.3117 16.8816 0
898 1 30.7941 43.6356 0
899 1 2.21166 75.5818 0
900 2 38.3229 0.875987 0
901 1 53.4614 41.8025 0
902 1 24.3078 75.1937 0
903 1 37.8391 40.5635 0
904 2 0.0579468 37.6194 0
905 1 63.6329 62.2162 0
906 1 68.879 44.7162 0
907 1 3.69654 29.9025 0
908 1 50.2894 23.6988 0
909 1 0.360052 48.6892 0
910 2 1.71305 50.744 0
911 2 5.02439 4.76451 0
912 2 36.1181 32.8546 0
913 2 31.8958 51.6034 0
914 1 18.3323 12.8342 0
915 2 64.0822 4.93665 0
916 1 3.4619 39.8141 0
917 2 5.18746 33.4565 0
918 2 19.4345 35.1593 0
919 1 8.1608 57.6294 0
920 1 15.9407 47.5104 0
921 1 0.184965 27.037 0
922 2 50.8123 19.3776 0
923 2 12.1915 24.2256 0
924 1 39.1135 17.7572 0
925 1 66.3013 47.3815 0
926 2 35.3967 35.4089 0
927 1 68.2676 1.69421 0
928 1 52.3559 59.0978 0
929 2 51.9931 32.5558 0
930 2 20.1387 15.8212 0
931 1 40.7889 47.462 0
932 1 70.3634 39.0284 0
933 1 34.1015 22.0883 0
934 1 1.85534 59.9759 0
935 1 11.3725 50.4898 0
936 2 42.1205 4.89968 0
937 1 13.9306 73.2653 0
938 1 36.7954 67.7796 0
939 2 49.7825 51.8826 0
940 1 75.9828 46.7569 0
941 1 0.134424 17.7304 0
942 1 37.9541 29.8071 0
943 2 22.5668 16.4685 0
944 2 2.02607 41.8932 0
945 1 40.4633 25.498 0
946 1 64.3651 67.1801 0
947 2 24.9706 1.7661 0
948 1 39.4246 68.7205 0
949 1 26.4386 11.2358 0
950 2 5.30703 9.74136 0
951 1 68.8631 65.5743 0
952 2 52.6675 3.00115 0
953 2 7.79884 44.7238 0
954 2 29.824 62.4427 0
955 1 27.157 38.4727 0
956 2 58.6493 11.3752 0
957 1 48.4778 23.9434 0
958 2 19.5071 2.59428 0
959 2 74.8534 26.5164 0
960 2 29.0996 66.7337 0
961 1 48.6628 53.388 0
962 1 24.2323 1.39306 0
963 1 17.2708 12.5404 0
964 2 8.83227 9.57994 0
965 2 53.6575 53.7059 0
966 1 0.667237 62.5133 0
967 1 49.9838 35.9748 0
968 1 18.302 0.0272798 0
969 1 59.1431 24.4581 0
970 2 22.5844 4.5736 0
971 1 21.3567 14.4557 0
972 1 7.01437 25.22 0
973 1 0.942184 35.977 0
974 2 1.04359 35.0076 0
975 2 72.7748 65.4937 0
976 2 33.4393 19.7082 0
977 1 35.9959 63.3442 0
978 2 4.82979 77.0972 0
979 2 36.0839 65.8287 0
980 1 73.662 13.9658 0
981 1 73.4914 58.0955 0
982 1 7.7699 54.7128 0
983 1 18.3797 24.5735 0
984 1 9.27488 57.6671 0
985 1 35.4701 11.4256 0
986 1 37.98 52.6729 0
987 2 18.1321 12.0458 0
988 2 42.089 34.7979 0
989 2 9.90643 34.813 0
990 2 69.7382 51.4953 0
991 2 46.2548 15.1629 0
992 1 62.5195 34.5539 0
993 2 28.44 5.74001 0
994 2 1.92561 54.8402 0
995 1 38.7938 22.4646 0
996 2 54.7819 56.9122 0
997 2 43.5036 31.1176 0
998 2 60.2287 75.0563 0
999 2 39.3169 26.7748 0
1000 2 0.486447 49.6019 0
1001 1 41.7538 65.4418 0
1002 1 24.1348 34.4307 0
1003 1 9.53517 54.1687 0
1004 1 7.80935 22.6345 0
1005 2 10.625 23.5441 0
1006 2 67.7398 60.8947 0
1007 1 18.8378 20.1074 0
1008 1 47.6511 17.3552 0
1009 1 31.1113 32.9548 0
1010 1 11.4903 43.4846 0
1011 2 10.3881 22.1005 0
1012 2 2.64007 24.0702 0
1013 2 65.4155 55.699 0
1014 1 74.0602 15.0162 0
1015 1 76.1851 9.02645 0
1016 1 37.2549 48.0274 0
1017 2 68.7214 54.3446 0
1018 1 26.0312 25.2418 0
1019 1 44.3573 29.0979 0
1020 2 31.3742 7.30749 0
1021 2 15.8348 24.416 0
1022 1 4.80777 60.7515 0
1023 1 40.3282 8.89614 0
1024 1 9.43001 67.4815 0
1025 1 36.9386 65.9667 0
1026 1 7.99899 40.0106 0
1027 1 47.4374 2.84253 0
1028 1 1.86123 32.876 0
1029 1 48.8674 18.6225 0
1030 2 46.7408 48.078 0
1031 2 37.4296 37.03 0
1032 1 16.3358 73.0653 0
1033 1 58.3182 19.6408 0
1034 1 35.3415 29.264 0
1035 1 66.1001 28.3715 0
1036 2 73.6492 45.8815 0
1037 1 31.1222 72.9565 0
1038 1 68.4854 60.5301 0
1039 1 5.58233 31.8404 0
1040 2 65.2073 34.1361 0
1041 1 35.4249 65.2051 0
1042 2 62.9101 68.3093 0
1043 2 60.7732 58.2959 0
1044 1 68.5822 22.4145 0
1045 1 67.2161 23.595 0
1046 1 41.1946 68.376 0
1047 2 9.79998 47.7045 0
1048 1 53.4408 0.271892 0
1049 1 59.9723 49.0006 0
1050 2 45.7094 6.58545 0
1051 1 43.4893 31.9781 0
1052 1 66.3338 44.3095 0
1053 2 32.3273 18.2807 0
1054 1 55.1202 7.36356 0
1055 2 32.821 46.6669 0
1056 2 14.6706 45.1963 0
1057 1 11.8133 71.5507 0
1058 1 27.4317 5.72656 0
1059 1 9.26108 75.1533 0
1060 2 21.8037 41.6039 0
1061 1 10.0286 22.9632 0
1062 2 16.8356 41.3458 0
1063 1 0.162896 67.5691 0
1064 1 23.4035 4.82271 0
1065 2 29.5328 52.713 0
1066 1 37.3322 46.2842 0
1067 1 14.1459 10.2564 0
1068 2 35.5404 67.091 0
1069 1 68.6558 23.7834 0
1070 2 8.26033 34.418 0
1071 2 49.6517 43.001 0
1072 2 9.37207 48.6429 0
1073 2 15.9775 3.64397 0
1074 2 32.824 43.8124 0
1075 1 75.8795 49.7644 0
1076 1 41.6162 8.60106 0
1077 1 41.7105 32.6289 0
1078 2 71.6234 26.0968 0
1079 2 39.0363 10.3481 0
1080 2 30.3154 72.5609 0
1081 2 45.5273 48.784 0
1082 2 6.44071 27.6954 0
1083 2 21.572 19.9472 0
1084 1 43.5589 58.3082 0
1085 1 19.0551 52.2901 0
1086 1 69.9975 66.9498 0
1087 1 29.7709 71.8754 0
1088 1 45.2563 62.813 0
1089 2 8.54789 31.6687 0
1090 1 42.8312 34.4635 0
1091 2 27.6212 17.7004 0
1092 1 62.9225 53.661 0
1093 1 69.0764 32.9471 0
1094 2 43.3959 55.2598 0
1095 1 25.4155 71.1024 0
1096 2 48.0457 18.9866 0
1097 1 76.4004 16.4732 0
1098 1 62.7125 43.6787 0
1099 1 31.8135 5.52386 0
1100 1 68.7241 3.07707 0
1101 1 74.663 11.3884 0
1102 1 26.0888 74.5872 0
1103 1 51.3881 71.0788 0
1104 1 47.19 58.4038 0
1105 1 48.2256 40.3099 0
1106 1 16.5134 71.1828 0
1107 2 45.959 62.3117 0
1108 1 55.5354 31.5384 0
1109 1 73.1733 25.371 0
1110 2 14.9307 11.7315 0
1111 1 2.54266 56.7598 0
1112 1 75.7469 18.5902 0
1113 2 75.5645 7.25624 0
1114 2 14.6874 52.9808 0
1115 2 33.0567 49.6013 0
1116 1 76.864 65.0534 0
1117 1 66.718 56.5781 0
1118 1 12.7382 75.019 0
1119 2 11.3261 64.237 0
1120 1 41.711 58.326 0
1121 2 21.1903 64.1326 0
1122 1 32.0442 32.5877 0
1123 2 22.9921 51.732 0
1124 1 52.0966 63.35 0
1125 2 14.6054 4.24093 0
1126 2 15.3645 20.1524 0
1127 1 75.5571 23.9131 0
1128 1 67.2226 52.2475 0
1129 1 60.7604 39.4786 0
1130 1 30.3815 47.3632 0
1131 1 62.4255 15.4656 0
1132 2 75.9129 63.5671 0
1133 2 57.3312 21.471 0
1134 2 20.8311 71.8338 0
1135 1 1.11357 68.1855 0
1136 2 51.2377 27.1252 0
1137 1 51.175 61.846 0
1138 1 30.1838 13.3833 0
1139 2 57.5256 52.782 0
1140 2 9.564 23.683 0
1141 1 74.932 65.6742 0
1142 1 26.7076 51.9461 0
1143 1 48.1079 44.8127 0
1144 2 59.4847 16.3404 0
1145 1 37.998 62.7108 0
1146 1 15.3828 18.7814 0
1147 1 28.1589 25.3905 0
1148 1 10.8859 36.6333 0
1149 1 57.3429 29.6395 0
1150 2 65.4306 61.1573 0
1151 1 22.0815 3.83398 0
1152 1 59.8406 51.8849 0
1153 1 71.6944 29.5453 0
1154 1 13.7466 4.48817 0
1155 2 58.7949 21.3087 0
1156 1 44.5155 32.3587 0
1157 1 12.1629 17.8703 0
1158 2 58.3906 47.8089 0
1159 2 5.7749 70.6036 0
1160 1 34.3263 9.12579 0
1161 2 44.2929 56.599 0
1162 1 16.5254 9.87449 0
1163 2 13.0107 73.1021 0
1164 1 23.9594 58.6759 0
1165 1 20.884 45.3035 0
1166 2 15.6191 50.6205 0
1167 1 28.06 20.5016 0
1168 1 56.4759 64.6135 0
1169 1 19.5765 66.731 0
1170 2 6.61803 33.6626 0
1171 1 48.4347 34.1441 0
1172 1 23.1137 6.44657 0
1173 1 51.851 64.3229 0
1174 1 38.8725 29.3084 0
1175 2 62.6754 44.5727 0
1176 1 68.6192 36.4677 0
1177 1 47.6879 70.1083 0
1178 2 61.248 47.6732 0
1179 1 72.5895 32.4814 0
1180 1 51.9603 18.1333 0
1181 1 54.6536 23.0549 0
1182 1 61.4991 74.6565 0
1183 2 43.1535 73.5776 0
1184 2 28.7776 21.832 0
1185 1 17.5277 63.0395 0
1186 1 48.4265 49.09 0
1187 1 74.0142 71.8736 0
1188 2 4.84409 37.6476 0
1189 1 60.8194 65.483 0
1190 1 28.2469 51.3705 0
1191 2 72.2995 4.95848 0
1192 1 24.4616 46.8876 0
1193 1 47.4205 18.3821 0
1194 2 16.5737 15.9233 0
1195 1 74.2785 48.8388 0
1196 1 21.7586 49.6315 0
1197 1 35.4808 38.9311 0
1198 1 62.6985 75.9257 0
1199 2 58.0012 62.6458 0
1200 1 27.5082 8.63909 0
1201 1 3.06267 72.9622 0
1202 1 5.79533 48.8151 0
1203 2 47.4477 12.6134 0
1204 1 57.5891 56.5133 0
1205 1 66.6521 50.4432 0
1206 1 52.3276 5.34464 0
1207 1 31.7368 62.8085 0
1208 1 75.1696 58.1351 0
1209 2 65.2874 59.7404 0
1210 1 69.7733 31.8739 0
1211 2 25.4696 35.3896 0
1212 1 33.6672 36.4024 0
1213 1 61.3646 68.6616 0
1214 1 60.6356 23.6149 0
1215 1 10.7854 71.9987 0
1216 1 11.138 49.2967 0
1217 2 68.8812 2.24462 0
1218 2 62.7527 22.211 0
1219 1 30.063 15.1663 0
1220 1 61.7142 18.3315 0
1221 1 61.7372 54.9354 0
1222 2 66.4981 76.1938 0
1223 1 42.321 48.1058 0
1224 1 0.661138 34.1823 0
1225 1 2.6893 25.6362 0
1226 2 65.8262 64.8837 0
1227 1 41.7095 57.1833 0
1228 1 76.4934 70.6425 0
1229 2 48.0933 9.4953 0
1230 1 25.475 49.653 0
1231 2 53.0078 18.4974 0
1232 1 67.8217 37.9774 0
1233 1 38.9269 57.9936 0
1234 1 1.92357 67.4445 0
1235 1 18.1261 45.952 0
1236 1 52.1265 62.2867 0
1237 1 37.5768 20.9487 0
1238 1 24.5972 7.13464 0
1239 1 12.7405 22.6198 0
1240 1 24.2962 62.8839 0
1241 1 76.2268 62.7761 0