ITEM: TIMESTEP
0
ITEM: NUMBER OF ATOMS
7200
ITEM: BOX BOUNDS xy xz yz pp pp pp
0.0000000000000000e+00 7.7459666924100006e+01 0.0000000000000000e+00
0.0000000000000000e+00 7.7459666924100006e+01 0.0000000000000000e+00
-1.2909944490000000e-01 1.2909944490000000e-01 0.0000000000000000e+00
ITEM: ATOMS id type x y z
1 1 14.7105 20.0224 0
2 1 14.5409 66.9904 0
3 1 74.3185 70.7773 0
4 1 20.0979 9.01784 0
5 1 32.6565 56.9734 0
6 1 57.775 24.8463 0
7 2 4.00728 8.09605 0
8 2 61.5991 50.0301 0
9 1 39.6249 57.7363 0
10 2 19.483 14.6319 0
11 2 23.2673 48.6934 0
12 1 54.9297 10.8748 0
13 2 23.82 8.5397 0
14 1 45.1803 69.581 0
15 1 42.5645 33.4273 0
16 1 20.5929 17.1509 0
17 1 30.8473 38.7371 0
18 1 31.566 7.91348 0
19 1 27.83 55.0318 0
20 2 45.3845 2.55394 0
21 1 14.5284 64.8454 0
22 1 53.2943 10.1513 0
23 1 72.7582 43.9577 0
24 1 55.131 65.0082 0
25 1 4.85407 71.6084 0
26 1 21.5656 65.7247 0
27 2 30.2178 60.6398 0
28 1 50.7352 76.4986 0
29 2 21.86 47.8387 0
30 2 25.0296 31.0873 0
31 1 13.8528 52.1657 0
32 1 51.2865 37.7118 0
33 1 63.9675 47.0122 0
34 2 46.7002 11.5249 0
35 1 73.7886 63.3543 0
36 1 30.6161 56.582 0
37 1 21.454 61.7366 0
38 1 49.9187 18.8772 0
39 1 26.7279 6.79716 0
40 2 22.3191 61.5631 0
41 2 19.9166 64.7728 0
42 1 18.0515 0.834584 0
43 1 16.9732 32.02 0
44 1 32.9355 65.0262 0
45 1 2.39426 33.5182 0
46 1 67.9135 9.42974 0
47 1 75.3963 60.2149 0
48 1 42.5425 64.9321 0
49 2 75.1537 1.11476 0
50 1 29.4611 66.6077 0
51 1 76.7267 10.9513 0
52 2 33.9466 24.8072 0
53 1 55.2902 17.9393 0
54 1 48.5074 30.2653 0
55 1 6.02805 0.865114 0
56 1 46.0181 28.9719 0
57 1 68.3002 40.9909 0
58 1 72.6784 69.6049 0
59 1 28.4368 75.5084 0
60 1 24.9899 4.09813 0
61 1 35.2228 73.5265 0
62 1 53.1821 46.9685 0
63 1 54.7122 7.58786 0
64 1 52.846 48.1271 0
65 1 67.1156 74.0541 0
66 2 56.8281 10.3145 0
67 2 42.4419 37.0264 0
68 2 1.78304 29.8861 0
69 1 60.9491 46.5204 0
70 1 8.83146 34.989 0
71 2 6.02168 46.0956 0
72 1 3.28517 4.94283 0
73 1 10.4046 65.976 0
74 2 41.7535 21.2307 0
75 1 77.1638 56.5929 0
76 1 18.58 46.4044 0
77 1 25.0204 72.2288 0
78 1 6.58307 14.3712 0
79 1 9.08691 73.9858 0
80 1 42.9074 17.1499 0
81 1 51.6258 65.1515 0
82 2 45.6957 18.5634 0
83 1 6.1033 32.3192 0
84 1 32.0593 47.4434 0
85 1 37.1527 19.6564 0
86 2 34.6311 62.9504 0
87 1 70.1065 31.0326 0
88 1 18.9787 54.0847 0
89 1 29.4141 13.8999 0
90 1 38.5702 38.9352 0
91 2 42.7379 44.1791 0
92 2 37.8049 55.8478 0
93 1 27.8063 18.2363 0
94 1 31.1579 55.6198 0
95 2 40.5143 55.7687 0
96 1 62.1492 76.5601 0
97 1 42.7063 51.2505 0
98 2 1.29043 60.7184 0
99 1 64.8222 48.9305 0
100 2 33.9102 30.3663 0
101 1 45.6923 53.2398 0
102 1 60.7172 23.2109 0
103 1 55.1342 68.4301 0
104 1 4.68221 62.2939 0
105 2 39.0317 1.84504 0
106 2 29.9858 34.5587 0
107 1 11.2364 31.5223 0
108 1 2.16778 5.0256 0
109 1 35.7318 41.4287 0
110 2 65.282 26.4509 0
111 1 65.7176 16.1818 0
112 1 33.3666 75.2736 0
113 2 0.30365 61.1734 0
114 2 0.109889 26.5537 0
115 2 31.8774 12.3447 0
116 2 70.707 54.4764 0
117 1 14.3675 47.0634 0
118 2 48.078 25.1912 0
119 1 60.7986 74.767 0
120 2 3.53584 49.1161 0
121 1 4.90037 2.53747 0
122 1 23.6333 34.2813 0
123 2 5.74317 16.3602 0
124 1 47.5298 58.2447 0
125 1 33.5605 27.2665 0
126 1 60.1921 53.3244 0
127 1 5.47384 60.7954 0
128 1 14.7723 21.8078 0
129 1 15.677 52.2081 0
130 1 2.18475 0.276604 0
131 1 64.249 24.152 0
132 2 33.4647 39.7183 0
133 2 50.7802 9.58678 0
134 1 65.8934 53.3191 0
135 1 33.7943 31.7329 0
136 2 55.2256 48.3076 0
137 1 59.3577 55.8707 0
138 2 74.6911 48.47 0
139 1 67.4708 27.271 0
140 1 2.66441 21.5191 0
141 2 45.3137 66.8983 0
142 1 3.90419 21.3611 0
143 2 40.3659 68.8409 0
144 2 45.4384 75.0975 0
145 2 16.1028 51.4183 0
146 1 54.226 3.23 0
147 1 9.13632 36.2056 0
148 1 47.3861 56.5692 0
149 2 70.8002 49.5065 0
150 1 32.8283 54.4277 0
151 2 28.1306 12.4844 0
152 1 48.8953 64.7849 0
153 2 17.1545 45.5198 0
154 2 30.0617 76.4795 0
155 1 71.0695 50.3931 0
156 1 43.919 10.4046 0
157 1 50.8902 69.4917 0
158 1 57.6049 67.4449 0
159 2 12.5474 27.8054 0
160 1 38.594 18.1605 0
161 1 8.69826 66.0481 0
162 2 1.80786 22.4271 0
163 1 32.8693 27.9981 0
164 1 62.671 25.7056 0
165 1 77.0674 28.578 0
166 1 2.41301 41.9096 0
167 1 41.897 1.59389 0
168 1 34.4061 75.4861 0
169 1 55.7734 27.3858 0
170 1 58.1981 1.45439 0
171 2 34.9597 64.263 0
172 2 33.9219 53.0543 0
173 2 44.6693 24.8467 0
174 2 28.8417 53.8854 0
175 2 33.9695 26.5319 0
176 1 46.1573 17.7419 0
177 1 19.9262 59.9736 0
178 1 62.265 60.4472 0
179 1 71.742 26.6463 0
180 2 35.9669 40.5341 0
181 1 48.1724 24.2942 0
182 1 61.5768 58.9351 0
183 2 8.78518 39.1748 0
184 1 7.15933 66.8986 0
185 2 68.2394 29.2406 0
186 1 58.3797 29.9102 0
187 1 40.453 45.1708 0
188 1 58.0635 48.3441 0
189 2 65.705 48.767 0
190 1 22.4457 5.26141 0
191 1 66.4962 4.77712 0
192 1 62.5387 10.0302 0
193 2 13.7392 41.3083 0
194 2 68.6371 67.8687 0
195 1 10.4865 3.9851 0
196 2 46.0104 54.8222 0
197 2 21.6881 9.65732 0
198 1 14.3913 58.9923 0
199 2 72.5153 64.6435 0
200 1 60.1598 26.309 0
201 2 34.1136 6.00013 0
202 2 74.2806 53.6897 0
203 1 50.7125 65.6822 0
204 1 29.818 6.53694 0
205 1 56.0248 16.5586 0
206 2 36.7952 37.6566 0
207 2 16.2318 7.69571 0
208 1 34.266 13.1691 0
209 1 14.6512 10.9277 0
210 2 8.55488 21.7973 0
211 1 16.1089 10.2701 0
212 2 24.2028 9.4692 0
213 2 57.6183 26.6908 0
214 1 71.7675 61.563 0
215 2 73.0616 23.9005 0
216 1 20.5224 74.3543 0
217 1 59.3483 34.157 0
218 2 56.3086 58.6816 0
219 2 67.5943 40.5242 0
220 2 39.0959 63.2163 0
221 1 15.7533 40.9071 0
222 1 47.0943 17.0847 0
223 2 38.029 71.4402 0
224 2 28.7902 67.2851 0
225 1 31.5225 25.5136 0
226 2 67.5999 57.1107 0
227 2 10.7595 13.2131 0
228 1 31.447 10.5826 0
229 1 68.9933 26.1107 0
230 1 37.6501 75.0565 0
231 1 11.3363 34.8921 0
232 1 43.1371 11.2039 0
233 1 33.7242 9.50816 0
234 1 74.7774 9.1078 0
235 1 60.7036 58.1921 0
236 2 43.1219 68.9136 0
237 1 76.4749 62.3641 0
238 2 10.1074 22.3504 0
239 1 56.7775 3.90981 0
240 2 61.9539 42.3018 0
241 1 47.1934 66.8995 0
242 1 14.6625 31.7166 0
243 1 6.0344 59.0015 0
244 1 60.6671 63.7404 0
245 1 8.61535 32.8365 0
246 1 76.2442 34.8929 0
247 1 65.3236 49.8752 0
248 1 8.31309 0.930375 0
249 2 51.8337 43.2896 0
250 1 33.3996 11.2403 0
251 2 59.0646 50.5403 0
252 2 70.3852 23.3324 0
253 1 20.6869 19.1118 0
254 1 51.8465 20.1977 0
255 1 64.1373 44.3105 0
256 1 32.1021 2.90533 0
257 1 22.5186 58.6005 0
258 1 25.129 40.2604 0
259 1 54.6063 57.0519 0
260 2 47.3797 55.7093 0
261 2 23.5646 62.5694 0
262 1 25.2892 32.8827 0
263 2 13.1114 34.3248 0
264 2 72.114 56.468 0
265 1 74.7791 46.9383 0
266 1 38.7455 44.9602 0
267 2 61.0244 22.3332 0
268 2 56.6476 45.731 0
269 1 49.2965 19.8714 0
270 2 7.63292 50.7455 0
271 2 24.2033 36.0766 0
272 2 21.9986 15.8355 0
273 1 14.6662 65.9368 0
274 1 35.4708 48.1841 0
275 1 7.09184 48.7153 0
276 1 76.7674 8.78482 0
277 2 14.3794 72.9733 0
278 1 7.97454 12.1211 0
279 1 1.76501 43.4668 0
280 1 19.7616 38.7765 0
281 1 31.1162 37.7043 0
282 2 0.0754878 30.0012 0
283 1 2.38449 56.2901 0
284 2 54.6003 35.1348 0
285 1 69.802 53.5352 0
286 1 11.6119 60.5452 0
287 1 24.7797 74.8595 0
288 2 76.1293 7.03658 0
289 2 21.1514 40.2437 0
290 2 68.7323 1.94272 0
291 1 33.2146 25.2814 0
292 1 26.8108 55.184 0
293 1 47.4397 19.1456 0
294 1 38.3777 2.48333 0
295 1 68.8064 5.54305 0
296 2 73.6101 6.74219 0
297 1 37.9994 58.2991 0
298 1 69.1038 31.5593 0
299 2 48.6309 39.106 0
300 1 41.9348 44.661 0
301 1 74.6117 17.9781 0
302 1 51.7659 35.5625 0
303 1 22.3862 33.1641 0
304 1 59.4955 70.2385 0
305 2 58.213 76.3201 0
306 1 62.797 51.6613 0
307 2 70.6712 35.3225 0
308 1 40.9645 5.06268 0
309 2 24.2456 19.8614 0
310 2 13.8752 17.2085 0
311 1 26.0012 47.434 0
312 1 67.3272 65.584 0
313 1 73.0634 1.03245 0
314 1 42.8594 47.8102 0
315 2 57.214 28.4216 0
316 2 37.7489 64.4602 0
317 1 50.3404 19.8521 0
318 2 7.74526 32.7363 0
319 1 33.0814 23.1249 0
320 1 35.7413 64.6916 0
321 1 56.5149 70.3577 0
322 2 77.1455 10.1518 0
323 2 24.0612 63.9438 0
324 1 65.6358 39.8494 0
325 1 42.6746 5.44688 0
326 1 10.2776 56.7016 0
327 1 51.9284 57.7067 0
328 1 0.968504 34.6238 0
329 1 44.222 46.014 0
330 2 52.0079 33.1451 0
331 2 63.5544 73.8797 0
332 1 61.1859 29.9205 0
333 1 37.8385 13.5058 0
334 1 18.9463 36.8185 0
335 1 21.1549 38.284 0
336 2 69.2311 76.2425 0
337 1 35.4666 35.2191 0
338 2 17.8309 76.3878 0
339 1 40.0356 66.9589 0
340 1 17.1719 57.8576 0
341 2 70.8492 42.1551 0
342 1 64.6312 8.25219 0
343 2 55.3905 52.9729 0
344 2 21.8535 62.5152 0
345 1 11.8739 25.1917 0
346 1 18.0136 73.0858 0
347 1 33.7881 53.9583 0
348 1 57.7499 17.679 0
349 1 35.3734 19.8771 0
350 1 42.0837 30.7406 0
351 1 13.952 51.0677 0
352 1 48.4554 35.8978 0
353 1 76.7234 29.5608 0
354 2 25.916 27.6639 0
355 2 42.4961 23.2138 0
356 2 9.92356 6.45304 0
357 1 67.9078 67.3482 0
358 1 22.2541 3.5764 0
359 1 26.5239 16.8063 0
360 2 48.4987 28.5425 0
361 2 46.8327 66.1444 0
362 1 27.8477 74.6535 0
363 2 29.9924 69.9825 0
364 1 16.5687 67.5641 0
365 2 7.37204 56.96 0
366 1 22.8425 50.6045 0
367 2 25.9866 25.1977 0
368 2 48.9999 54.4332 0
369 2 64.5591 71.4079 0
370 1 4.94096 22.8454 0
371 1 43.0958 71.5055 0
372 2 39.5495 10.3422 0
373 1 10.576 30.7804 0
374 2 65.1395 38.0073 0
375 1 52.9427 53.7598 0
376 2 76.78 42.1288 0
377 2 59.3129 36.0865 0
378 1 19.7143 63.8243 0
379 1 18.1231 23.0373 0
380 1 8.62532 62.6369 0
381 1 28.4221 25.7534 0
382 1 31.9274 27.558 0
383 1 12.1345 9.89472 0
384 1 32.7694 51.3897 0
385 1 24.8546 2.0762 0
386 1 54.6527 41.2511 0
387 1 57.8199 75.5152 0
388 2 55.3574 57.5877 0
389 1 22.9669 54.5523 0
390 1 31.1481 11.8264 0
391 2 61.0468 24.0291 0
392 2 30.8831 5.13602 0
393 2 38.4942 65.7953 0
394 1 16.3423 73.2548 0
395 1 53.0816 22.5833 0
396 1 12.0104 73.4078 0
397 1 46.6173 19.8898 0
398 1 44.0606 70.7727 0
399 1 74.4215 20.4246 0
400 1 59.0135 75.7548 0
401 1 47.8707 13.7913 0
402 2 54.0861 10.6002 0
403 1 39.7769 50.9025 0
404 1 69.9464 71.8172 0
405 2 73.2399 76.4616 0
406 1 34.5914 19.2266 0
407 2 44.3704 21.0842 0
408 1 66.1649 26.6364 0
409 1 23.1345 61.4069 0
410 2 67.5284 15.6924 0
411 2 64.0229 34.1238 0
412 1 59.6036 39.8799 0
413 1 7.93848 36.4759 0
414 1 70.2634 51.0876 0
415 1 5.57011 42.6965 0
416 2 0.799587 62.4256 0
417 2 75.229 12.9654 0
418 1 52.1569 27.7291 0
419 2 56.4761 48.8075 0
420 2 23.9675 54.3935 0
421 1 63.5001 15.1532 0
422 1 76.331 70.5617 0
423 1 9.39442 10.051 0
424 1 63.1715 24.2389 0
425 1 58.1333 50.1692 0
426 1 54.429 77.1939 0
427 2 39.7986 13.1111 0
428 1 50.1333 52.9854 0
429 1 59.4177 68.6293 0
430 1 37.6446 37.659 0
431 1 3.69441 26.7532 0
432 1 62.9626 48.4533 0
433 1 31.196 68.745 0
434 1 0.14586 42.1592 0
435 1 65.7356 31.3402 0
436 2 68.9849 38.0173 0
437 2 40.7924 60.2945 0
438 1 36.4094 63.0848 0
439 2 44.8458 14.2203 0
440 1 44.3991 44.9166 0
441 2 69.4199 13.7166 0
442 1 8.48647 38.2031 0
443 1 55.1004 16.9624 0
444 1 16.9973 1.11074 0
445 2 69.0492 69.208 0
446 1 63.0671 39.7445 0
447 1 27.5455 68.3602 0
448 1 46.6361 40.6252 0
449 1 36.8314 74.2979 0
450 2 50.395 60.7837 0
451 2 9.01016 63.4188 0
452 1 64.8838 12.4903 0
453 1 26.0911 2.38789 0
454 2 59.5501 24.7195 0
455 2 25.1703 68.7655 0
456 1 8.78071 43.6625 0
457 2 14.3893 2.11253 0
458 1 35.9911 76.8071 0
459 2 18.836 55.027 0
460 1 1.96013 3.14249 0
461 2 30.4408 28.7595 0
462 1 47.5346 25.8907 0
463 1 76.4408 68.8579 0
464 1 8.18564 48.9691 0
465 2 39.6065 44.8223 0
466 1 22.8772 12.7582 0
467 2 8.29019 2.74504 0
468 1 20.2537 39.8001 0
469 1 0.714069 76.4074 0
470 1 63.1899 12.2912 0
471 2 70.233 37.8841 0
472 1 22.6961 44.201 0
473 1 59.9595 66.1278 0
474 1 30.4144 52.7337 0
475 1 24.0211 59.7788 0
476 2 44.188 33.1046 0
477 1 57.8269 13.1622 0
478 2 26.5764 1.56777 0
479 1 33.8027 22.3935 0
480 1 19.7871 28.6961 0
481 1 10.298 16.7235 0
482 1 14.7001 24.7427 0
483 2 76.5727 1.00411 0
484 1 15.2096 37.1769 0
485 1 19.5215 53.0976 0
486 1 6.18435 4.2336 0
487 2 70.7527 7.42157 0
488 1 58.6519 4.79555 0
489 1 49.946 17.2096 0
490 1 35.9021 34.0756 0
491 1 31.6565 40.3432 0
492 2 60.4645 9.5848 0
493 1 71.5568 7.0847 0
494 1 66.8516 30.5629 0
495 2 23.6299 49.9666 0
496 2 51.5029 45.8834 0
497 2 44.3451 5.24588 0
498 1 24.2202 27.2141 0
499 1 34.7398 2.03689 0
500 1 2.58626 4.0158 0
501 2 44.9638 45.5341 0
502 1 21.8504 25.7686 0
503 1 48.8779 10.2184 0
504 1 38.5021 33.504 0
505 2 23.5055 77.4253 0
506 2 16.1712 64.1545 0
507 1 41.5725 37.0272 0
508 1 13.1436 32.3794 0
509 1 28.8702 19.6257 0
510 1 5.56076 38.7962 0
511 1 69.8717 28.2922 0
512 1 54.5991 53.3519 0
513 1 13.4151 35.2501 0
514 1 24.9528 63.869 0
515 2 57.9242 8.11693 0
516 2 12.1146 38.4042 0
517 2 73.8288 75.339 0
518 2 17.781 52.4995 0
519 2 28.7686 76.4131 0
520 1 75.6758 38.8273 0
521 1 41.6203 25.8783 0
522 2 25.8387 64.0226 0
523 1 76.6202 12.0672 0
524 1 67.715 29.9954 0
525 1 23.5772 5.19473 0
526 2 77.3085 25.0632 0
527 1 48.4313 27.6984 0
528 2 71.5793 3.16281 0
529 2 35.2153 50.0318 0
530 1 6.34057 61.4148 0
531 2 71.2732 70.6581 0
532 2 28.6545 60.4957 0
533 1 71.9293 2.38498 0
534 1 38.2126 28.5139 0
535 1 27.6767 19.7677 0
536 1 30.8906 66.5485 0
537 1 34.4646 49.6217 0
538 2 22.6468 24.0722 0
539 2 44.559 75.9562 0
540 1 59.4432 42.0299 0
541 2 28.3339 8.75346 0
542 1 52.8553 58.2618 0
543 2 70.4296 52.8862 0
544 2 50.7786 14.2634 0
545 1 32.0056 26.5222 0
546 1 38.0888 3.68711 0
547 1 12.0327 14.6999 0
548 2 25.029 5.92876 0
549 2 66.9468 21.1703 0
550 2 4.8606 39.2732 0
551 1 29.6907 10.1652 0
552 2 73.7116 37.316 0
553 2 29.6929 42.7823 0
554 1 51.5421 63.0629 0
555 1 51.6469 55.749 0
556 1 68.31 68.6253 0
557 1 62.6995 52.828 0
558 1 3.05681 69.1683 0
559 1 68.4612 37.3467 0
560 2 24.7289 60.331 0
561 1 3.12541 2.34799 0
562 2 3.12005 11.8688 0
563 2 54.3233 50.5561 0
564 1 68.928 67.035 0
565 2 20.8863 1.84743 0
566 2 20.9838 23.2157 0
567 1 50.0236 44.8043 0
568 2 24.9566 75.8213 0
569 2 16.1037 27.3467 0
570 1 71.217 30.8413 0
571 1 0.90391 3.8905 0
572 2 6.46931 52.0931 0
573 2 75.3071 40.2959 0
574 1 4.59486 66.9795 0
575 1 16.7747 5.35866 0
576 1 16.1334 59.268 0
577 1 42.6524 53.1205 0
578 2 67.0674 32.3864 0
579 2 44.4599 69.1348 0
580 1 61.3462 42.9398 0
581 1 6.44584 63.186 0
582 2 71.3017 58.7771 0
583 2 66.4505 60.3261 0
584 2 33.7043 65.4278 0
585 1 64.2826 76.378 0
586 1 46.5179 59.981 0
587 2 16.741 24.493 0
588 1 48.1448 5.55385 0
589 2 53.4547 9.24656 0
590 1 18.499 71.4753 0
591 1 53.0358 7.34006 0
592 1 50.7458 75.4478 0
593 1 45.1586 13.3012 0
594 1 59.6529 63.6966 0
595 1 75.4418 62.7207 0
596 2 4.0638 0.638606 0
597 1 1.02389 45.4609 0
598 1 68.9094 7.6733 0
599 1 1.50997 50.4199 0
600 1 1.56736 49.2299 0
601 2 44.1158 37.3053 0
602 1 65.28 13.4804 0
603 2 74.0401 51.0645 0
604 2 61.0474 18.0756 0
605 1 53.2866 67.3151 0
606 1 40.2171 4.21841 0
607 1 74.0745 2.38004 0
608 2 76.7609 40.3566 0
609 2 41.0408 75.9516 0
610 1 8.4559 51.0893 0
611 1 54.3889 59.0824 0
612 1 74.2609 3.416 0
613 1 77.3591 19.1071 0
614 2 50.2569 27.9665 0
615 1 37.6235 39.3559 0
616 1 38.9308 15.3263 0
617 1 67.3229 2.05491 0
618 2 9.69783 43.4869 0
619 2 54.512 44.2108 0
620 2 71.4333 74.2154 0
621 2 56.1798 32.8141 0
622 1 60.2603 17.6818 0
623 1 38.2124 11.8246 0
624 2 18.7096 51.4378 0
625 1 25.8252 74.3738 0
626 1 76.7007 26.8999 0
627 2 2.45668 23.9224 0
628 1 24.6705 54.8618 0
629 2 75.1234 28.0167 0
630 1 26.9503 71.9531 0
631 1 55.9294 34.7791 0
632 1 20.557 65.2994 0
633 2 26.0852 72.4439 0
634 1 14.4229 49.1659 0
635 2 42.6648 46.9871 0
636 2 36.5271 41.1766 0
637 1 12.1056 11.0439 0
638 1 64.8185 40.4728 0
639 1 68.9314 47.1987 0
640 1 1.33952 53.2411 0
641 1 37.6549 34.1798 0
642 1 10.3889 32.2328 0
643 1 52.1393 46.5356 0
644 2 20.5737 30.8792 0
645 1 58.2514 52.4871 0
646 1 47.9969 46.6801 0
647 2 26.501 8.65858 0
648 1 65.4197 18.5127 0
649 2 11.0194 68.2976 0
650 2 42.1801 60.0739 0
651 1 50.4973 15.0951 0
652 1 27.0002 69.2156 0
653 2 20.096 24.2882 0
654 2 12.6663 4.37072 0
655 1 3.73888 52.9542 0
656 1 74.9172 53.1271 0
657 1 32.507 48.4959 0
658 1 74.8265 11.361 0
659 2 2.63682 68.3552 0
660 1 26.6191 36.8687 0
661 1 37.9276 10.1517 0
662 1 29.5761 60.0832 0
663 1 9.35259 27.9614 0
664 1 55.9911 0.11474 0
665 2 48.0144 75.3796 0
666 2 11.7443 57.9256 0
667 1 22.9837 70.7971 0
668 2 6.487 0.131315 0
669 1 6.04382 9.39733 0
670 2 44.134 39.2505 0
671 2 37.7201 17.9417 0
672 1 10.4128 19.476 0
673 1 9.27982 14.5315 0
674 1 29.9689 45.1004 0
675 2 6.6884 59.5773 0
676 2 37.8719 8.17697 0
677 1 39.0485 54.3679 0
678 1 55.029 40.2616 0
679 1 47.738 70.8415 0
680 1 31.9816 52.9179 0
681 1 21.487 52.9569 0
682 1 63.6436 58.3172 0
683 1 17.0738 64.2763 0
684 1 63.0866 67.6831 0
685 2 36.9677 18.7668 0
686 1 52.2844 6.60751 0
687 1 41.9426 19.403 0
688 2 52.1185 71.9363 0
689 1 72.8148 61.8396 0
690 1 65.3643 73.9723 0
691 1 42.2725 39.0039 0
692 2 59.4968 42.9255 0
693 1 72.254 74.645 0
694 2 50.7601 63.3764 0
695 1 44.9605 12.2568 0
696 2 34.7034 47.6894 0
697 1 26.1682 13.5895 0
698 1 7.2295 4.06229 0
699 1 66.2374 17.0223 0
700 1 71.4503 41.5865 0
701 1 61.194 31.0329 0
702 1 61.7116 63.7363 0
703 2 70.7787 0.554194 0
704 2 6.64814 62.3808 0
705 2 6.82029 7.69735 0
706 1 51.113 53.2951 0
707 2 57.5615 35.8962 0
708 1 51.0838 45.1607 0
709 1 53.3657 73.0969 0
710 2 58.4858 25.3089 0
711 1 56.5777 54.4114 0
712 2 57.5952 33.3177 0
713 2 70.7197 71.4463 0
714 2 75.4197 65.4884 0
715 1 45.6472 19.4809 0
716 1 0.635008 33.6484 0
717 1 28.9909 63.4427 0
718 1 14.5789 0.0139665 0
719 1 56.14 37.8155 0
720 2 50.0153 38.8176 0
721 2 65.6317 40.762 0
722 1 47.8514 10.4826 0
723 2 36.8345 76.8143 0
724 2 7.14065 60.9418 0
725 1 54.1928 38.6921 0
726 1 4.30778 29.1803 0
727 2 11.3137 3.57588 0
728 1 68.4742 56.8183 0
729 2 21.4621 60.9271 0
730 1 33.4051 29.7118 0
731 2 17.0496 36.1371 0
732 1 15.6906 53.2487 0
733 1 31.6535 30.0371 0
734 2 64.8381 45.3816 0
735 1 66.185 67 0
736 1 47.3856 53.4199 0
737 2 75.6436 44.482 0
738 1 13.9716 34.3881 0
739 1 18.4296 37.7284 0
740 1 50.1788 37.9119 0
741 2 57.3511 55.8326 0
742 1 57.6836 36.8368 0
743 1 26.8619 61.7046 0
744 2 73.7257 17.8746 0
745 1 24.6619 73.1611 0
746 1 36.0374 11.1381 0
747 1 46.4173 74.3762 0
748 2 41.8377 69.7211 0
749 2 24.1369 28.0289 0
750 1 56.8877 35.1711 0
751 1 60.4308 39.2559 0
752 2 1.41626 69.7374 0
753 1 52.4254 37.7313 0
754 2 19.2868 21.0333 0
755 1 21.9595 50.1846 0
756 2 50.6018 71.9611 0
757 1 46.7419 22.0361 0
758 1 8.89813 8.98398 0
759 1 60.8858 44.6137 0
760 1 13.222 9.62827 0
761 1 67.7804 72.165 0
762 1 12.689 59.3201 0
763 2 75.2467 6.12985 0
764 1 76.1211 56.6511 0
765 2 47.1313 57.3602 0
766 1 72.6854 18.2853 0
767 1 12.322 3.62298 0
768 1 64.5312 10.7194 0
769 1 61.3235 48.0022 0
770 2 58.8932 70.9611 0
771 1 18.7734 39.1066 0
772 1 43.4496 50.4154 0
773 1 42.2389 43.5077 0
774 2 36.4626 28.2362 0
775 1 74.1582 28.187 0
776 2 41.5551 42.9881 0
777 1 69.5807 52.5368 0
778 2 8.2494 60.0933 0
779 1 46.462 25.7145 0
780 1 18.2045 2.34155 0
781 1 30.475 35.271 0
782 1 55.5923 66.6337 0
783 1 62.1863 33.9167 0
784 1 71.7698 49.3172 0
785 2 10.0325 12.027 0
786 1 70.2603 65.8225 0
787 1 22.2657 65 0
788 1 40.0295 55.0076 0
789 1 12.5936 1.91269 0
790 1 50.2062 72.7692 0
791 1 48.3166 14.7425 0
792 1 10.4665 23.5564 0
793 1 26.9156 17.7606 0
794 2 73.6397 13.303 0
795 2 76.0132 11.4104 0
796 2 74.6333 68.1792 0
797 1 44.3608 66.5445 0
798 1 39.6166 17.8337 0
799 1 41.9225 75.7363 0
800 1 30.1127 69.1386 0
801 2 6.07075 29.7037 0
802 2 25.499 44.0917 0
803 2 24.3234 76.4714 0
804 2 53.4954 35.4488 0
805 1 20.8734 72.9626 0
806 1 51.9354 69.4742 0
807 2 37.7177 53.067 0
808 1 48.9302 49.1123 0
809 2 36.2869 60.6577 0
810 1 57.3126 76.4729 0
811 1 27.2541 58.4441 0
812 2 61.1513 48.8442 0
813 2 43.8247 59.8997 0
814 1 57.1215 29.3619 0
815 2 42.0177 14.6203 0
816 1 27.7413 35.2694 0
817 1 67.4697 75.91 0
818 2 37.2397 17.0634 0
819 2 43.0429 58.6496 0
820 1 66.2927 70.6904 0
821 1 17.922 62.1809 0
822 1 54.5592 0.866813 0
823 1 16.1443 57.6231 0
824 2 36.6686 43.7308 0
825 1 25.5213 41.2858 0
826 1 29.4034 70.6772 0
827 1 6.97014 29.5709 0
828 1 77.4154 53.9889 0
829 1 71.7798 36.8337 0
830 2 43.4417 66.5472 0
831 2 42.7597 4.45027 0
832 1 73.7645 9.61733 0
833 1 26.2696 40.5472 0
834 2 46.6793 6.34695 0
835 1 67.4766 4.58825 0
836 1 58.7127 24.4704 0
837 1 56.2166 40.4377 0
838 1 37.4707 53.8569 0
839 1 17.6642 63.2301 0
840 2 12.4755 46.6666 0
841 1 37.2318 52.3264 0
842 2 11.9225 59.7496 0
843 1 3.41713 42.3707 0
844 1 68.4285 19.8354 0
845 2 24.1129 4.52932 0
846 1 51.35 40.2569 0
847 1 10.8979 58.2351 0
848 2 70.6025 47.7912 0
849 1 73.7659 11.5764 0
850 1 71.4122 19.5903 0
851 1 41.3403 17.8328 0
852 1 9.09192 2.96997 0
853 1 41.1055 63.3 0
854 1 35.8536 70.1849 0
855 1 40.4743 26.1738 0
856 2 17.8977 39.3867 0
857 1 55.9348 31.9273 0
858 2 36.3753 31.5624 0
859 1 13.144 65.9171 0
860 2 76.2631 60.1969 0
861 2 61.6325 41.0225 0
862 2 3.87516 67.4387 0
863 1 61.7413 22.8854 0
864 1 62.1861 54.1058 0
865 2 65.52 66.386 0
866 1 62.4114 14.7595 0
867 2 35.5072 22.3916 0
868 1 34.4008 62.133 0
869 1 66.2037 20.406 0
870 1 76.605 55.6024 0
871 1 66.0541 21.4878 0
872 1 41.0283 52.4765 0
873 1 49.8762 61.4025 0
874 1 3.18306 71.3142 0
875 1 33.041 58.4549 0
876 2 47.8103 7.79081 0
877 1 14.2011 56.2725 0
878 2 15.1637 18.0449 0
879 1 76.148 13.1311 0
880 2 31.3042 34.9247 0
881 2 53.986 28.9393 0
882 2 45.938 73.6719 0
883 1 27.9764 15.511 0
884 1 56.744 36.2497 0
885 1 38.3201 4.71752 0
886 1 35.2896 60.5221 0
887 2 55.7333 51.4713 0
888 1 77.3947 3.47448 0
889 2 58.2708 49.2143 0
890 2 10.8124 27.3787 0
891 1 37.6171 9.16981 0
892 1 37.8085 72.3125 0
893 1 28.6999 49.3908 0
894 1 0.193216 11.738 0
895 2 31.7857 50.9625 0
896 1 37.2105 6.16951 0
897 2 36.1538 17.4041 0
898 1 32.8023 42.8426 0
899 1 76.5898 73.3565 0
900 2 37.9983 75.9751 0
901 1 53.4948 42.4826 0
902 1 23.5632 72.9314 0
903 1 38.2928 42.3761 0
904 2 71.415 32.4488 0
905 1 64.4828 61.6373 0
906 1 68.4266 44.7373 0
907 1 2.30107 26.0844 0
908 1 49.9769 23.4784 0
909 1 76.8002 48.7214 0
910 2 1.8791 51.3354 0
911 2 2.71968 5.78011 0
912 2 38.2397 31.6922 0
913 2 32.8704 47.7629 0
914 1 18.719 14.2686 0
915 2 67.3538 2.98222 0
916 1 2.85388 39.6979 0
917 2 2.44058 31.5604 0
918 2 20.6086 39.0031 0
919 1 8.57684 55.3484 0
920 1 14.2478 46.0137 0
921 1 0.862751 26.8834 0
922 2 45.7684 20.3714 0
923 2 14.5342 22.677 0
924 1 40.9675 16.8059 0
925 1 65.7051 45.7435 0
926 2 36.301 35.8378 0
927 1 66.4425 75.7905 0
928 1 51.0149 57.3003 0
929 2 51.6929 31.4503 0
930 2 18.1928 19.5616 0
931 1 42.0593 46.3998 0
932 1 65.5322 35.2503 0
933 1 36.5614 20.7851 0
934 1 3.57096 61.6282 0
935 1 11.7461 55.1327 0
936 2 39.0163 6.70106 0
937 1 11.2444 76.4165 0
938 1 37.6752 68.9662 0
939 2 49.2642 52.573 0
940 1 73.1633 47.1435 0
941 1 3.48446 18.2497 0
942 1 41.6309 29.8529 0
943 2 22.9724 14.7118 0
944 2 0.4914 41.352 0
945 1 40.7503 25.206 0
946 1 62.4774 65.5844 0
947 2 23.0908 5.86339 0
948 1 35.1241 68.2074 0
949 1 27.8442 10.6672 0
950 2 8.03152 8.66408 0
951 1 69.2258 64.7433 0
952 2 52.9313 1.12259 0
953 2 3.4963 45.1619 0
954 2 27.4093 60.9591 0
955 1 27.9041 39.8529 0
956 2 63.2688 14.3091 0
957 1 48.5622 22.4401 0
958 2 20.2203 6.35547 0
959 2 73.5318 27.5579 0
960 2 27.6782 66.0156 0
961 1 48.2093 56.0735 0
962 1 23.4454 76.5082 0
963 1 19.8144 12.7311 0
964 2 10.123 10.5132 0
965 2 53.986 55.0636 0
966 1 2.95841 62.6155 0
967 1 50.3146 34.0832 0
968 1 18.9555 76.7005 0
969 1 60.6225 21.4401 0
970 2 21.6365 5.61977 0
971 1 25.4925 16.9911 0
972 1 9.73406 25.281 0
973 1 76.6191 36.7737 0
974 2 76.4604 34.0373 0
975 2 74.3372 64.3474 0
976 2 36.2642 19.9161 0
977 1 35.3333 63.5207 0
978 2 2.28925 2.39067 0
979 2 33.6931 64.4742 0
980 1 75.4527 14.1036 0
981 1 70.663 55.3169 0
982 1 6.7965 55.0692 0
983 1 18.7997 28.5065 0
984 1 5.97969 57.8005 0
985 1 36.5323 12.0435 0
986 1 38.0432 49.7794 0
987 2 20.4193 13.3939 0
988 2 43.7911 34.5524 0
989 2 10.5196 34.7948 0
990 2 72.6508 51.6678 0
991 2 49.154 14.6784 0
992 1 66.8526 33.3053 0
993 2 29.9853 3.95777 0
994 2 5.6679 56.9915 0
995 1 40.1907 22.4081 0
996 2 55.1871 59.4848 0
997 2 45.7067 32.2983 0
998 2 55.2122 73.7164 0
999 2 43.2856 26.9717 0
1000 2 75.6328 47.1332 0
1001 1 39.4403 65.5725 0
1002 1 26.3509 33.0931 0
1003 1 10.088 53.0037 0
1004 1 8.38951 14.9822 0
1005 2 11.2848 23.49 0
1006 2 67.8934 59.699 0
1007 1 22.2825 21.5386 0
1008 1 50.9141 17.8178 0
1009 1 31.5471 33.5481 0
1010 1 6.90465 44.9592 0
1011 2 12.7557 22.6084 0
1012 2 6.76392 22.0588 0
1013 2 66.7958 58.7779 0
1014 1 76.855 15.3068 0
1015 1 73.2788 7.56675 0
1016 1 35.8059 49.3751 0
1017 2 71.3161 52.7901 0
1018 1 28.9151 27.5938 0
1019 1 45.1859 31.6703 0
1020 2 31.4507 6.80145 0
1021 2 19.8761 22.6758 0
1022 1 7.72631 65.53 0
1023 1 42.9874 9.03175 0
1024 1 8.53328 69.8766 0
1025 1 43.47 64.0345 0
1026 1 8.26341 42.7558 0
1027 1 46.1862 2.89219 0
1028 1 2.59699 28.7622 0
1029 1 46.3946 21.0063 0
1030 2 46.4693 49.8678 0
1031 2 39.314 38.4741 0
1032 1 13.6402 72.4921 0
1033 1 62.0918 16.7433 0
1034 1 38.022 30.8179 0
1035 1 64.598 25.8336 0
1036 2 72.067 45.6778 0
1037 1 28.0649 71.9626 0
1038 1 68.2847 60.4989 0
1039 1 3.23265 31.8662 0
1040 2 63.603 38.8577 0
1041 1 34.5038 66.0406 0
1042 2 61.1271 67.555 0
1043 2 59.8099 58.1306 0
1044 1 75.2823 21.011 0
1045 1 66.6721 25.6665 0
1046 1 39.4701 68.7434 0
1047 2 9.34896 50.682 0
1048 1 51.9841 1.24156 0
1049 1 61.9289 49.2439 0
1050 2 46.2591 4.97684 0
1051 1 45.0527 28.5663 0
1052 1 64.2704 43.2648 0
1053 2 32.6679 18.005 0
1054 1 53.5384 5.80675 0
1055 2 32.3223 46.3824 0
1056 2 13.3633 45.8918 0
1057 1 11.5851 70.6751 0
1058 1 28.1514 7.90871 0
1059 1 9.93007 0.23122 0
1060 2 18.5358 42.8151 0
1061 1 15.7646 21.452 0
1062 2 17.5816 37.5091 0
1063 1 76.8427 67.9446 0
1064 1 26.7045 5.64751 0
1065 2 27.7969 49.5853 0
1066 1 36.8767 46.6609 0
1067 1 15.4224 9.44408 0
1068 2 39.3314 70.1103 0
1069 1 69.5022 27.1004 0
1070 2 8.12051 34.4348 0
1071 2 51.4156 46.9364 0
1072 2 10.8555 50.305 0
1073 2 15.851 5.34069 0
1074 2 34.9145 43.0536 0
1075 1 75.9714 50.6372 0
1076 1 41.4649 7.90074 0
1077 1 44.6723 34.9602 0
1078 2 68.8057 24.4069 0
1079 2 42.2505 9.48234 0
1080 2 30.1829 67.104 0
1081 2 44.0247 49.7728 0
1082 2 5.99655 26.2623 0
1083 2 21.6298 18.8498 0
1084 1 45.5901 59.2266 0
1085 1 17.8577 51.6683 0
1086 1 69.4424 70.0686 0
1087 1 32.2383 75.2018 0
1088 1 45.4158 63.6352 0
1089 2 10.6187 33.1347 0
1090 1 43.5737 35.3953 0
1091 2 26.0588 17.6239 0
1092 1 62.0556 56.3217 0
1093 1 63.3293 27.3339 0
1094 2 43.0877 57.2491 0
1095 1 21.9485 71.0098 0
1096 2 48.7758 21.5622 0
1097 1 1.27664 16.7228 0
1098 1 62.8069 42.6252 0
1099 1 33.3446 0.39104 0
1100 1 71.7213 3.96045 0
1101 1 74.7638 10.1428 0
1102 1 24.1208 74.0579 0
1103 1 50.2995 71.0811 0
1104 1 48.3063 59.082 0
1105 1 48.8882 41.7489 0
1106 1 14.0442 71.5524 0
1107 2 42.835 62.291 0
1108 1 55.4985 29.1769 0
1109 1 72.944 28.2332 0
1110 2 14.5011 15.5566 0
1111 1 1.39582 58.7575 0
1112 1 8.63479 19.2068 0
1113 2 72.5418 4.12409 0
1114 2 15.039 53.7262 0
1115 2 35.016 48.9759 0
1116 1 1.14331 64.7641 0
1117 1 62.9581 55.7036 0
1118 1 14.157 75.1223 0
1119 2 11.7883 63.8292 0
1120 1 38.4466 57.3499 0
1121 2 19.0912 60.1486 0
1122 1 33.2618 33.446 0
1123 2 22.1781 51.1242 0
1124 1 48.9724 62.082 0
1125 2 14.1616 5.24716 0
1126 2 20.7153 21.3677 0
1127 1 2.6047 22.5864 0
1128 1 67.6218 56.2383 0
1129 1 58.6983 40.3777 0
1130 1 28.9639 45.306 0
1131 1 66.7707 16.1077 0
1132 2 76.1243 63.1528 0
1133 2 56.822 19.9801 0
1134 2 19.7025 74.4189 0
1135 1 75.3591 68.5681 0
1136 2 50.3324 26.1149 0
1137 1 52.1325 60.4566 0
1138 1 32.1975 15.4753 0
1139 2 58.8756 51.9286 0
1140 2 10.3541 24.6931 0
1141 1 76.0939 65.9906 0
1142 1 27.8902 48.7249 0
1143 1 49.8712 48.2093 0
1144 2 61.7805 14.0741 0
1145 1 37.2837 62.4817 0
1146 1 16.3007 19.3692 0
1147 1 30.462 25.278 0
1148 1 7.05882 37.7656 0
1149 1 59.5107 27.2785 0
1150 2 65.3136 63.4256 0
1151 1 21.2605 8.90369 0
1152 1 58.4387 51.2038 0
1153 1 1.33091 32.8358 0
1154 1 11.6356 4.38835 0
1155 2 60.956 19.5203 0
1156 1 49.4714 34.5964 0
1157 1 12.1756 19.232 0
1158 2 59.6832 47.7981 0
1159 2 5.31979 66.4747 0
1160 1 37.0314 10.9098 0
1161 2 40.2371 58.3842 0
1162 1 18.8602 13.1381 0
1163 2 11.4298 71.5383 0
1164 1 22.7849 57.2631 0
1165 1 19.7303 46.1696 0
1166 2 16.538 53.6422 0
1167 1 30.7326 21.5005 0
1168 1 55.2354 63.2494 0
1169 1 19.4963 65.557 0
1170 2 5.31273 32.0001 0
1171 1 53.2904 36.2911 0
1172 1 19.4476 6.88085 0
1173 1 49.0029 67.1084 0
1174 1 43.1703 32.5405 0
1175 2 63.3575 47.6598 0
1176 1 67.6806 38.0914 0
1177 1 47.4931 67.8416 0
1178 2 61.4326 47.1863 0
1179 1 73.2143 30.3672 0
1180 1 48.3129 18.5766 0
1181 1 54.0274 22.0551 0
1182 1 59.4722 72.5819 0
1183 2 42.1673 71.536 0
1184 2 26.9164 21.5922 0
1185 1 18.8574 61.6907 0
1186 1 47.5983 51.4194 0
1187 1 74.2227 71.7613 0
1188 2 3.72571 36.7535 0
1189 1 59.7226 65.1522 0
1190 1 29.9203 47.9102 0
1191 2 71.0687 4.47834 0
1192 1 23.3839 46.7103 0
1193 1 47.8981 21.6673 0
1194 2 18.8528 16.2067 0
1195 1 73.8814 48.7545 0
1196 1 18.5246 48.1619 0
1197 1 38.4825 41.2986 0
1198 1 60.7973 73.7196 0
1199 2 56.197 64.8377 0
1200 1 29.0429 10.9902 0
1201 1 2.22081 71.6715 0
1202 1 4.30052 49.6975 0
1203 2 47.4386 14.8497 0
1204 1 57.2622 57.7215 0
1205 1 63.4789 54.3418 0
1206 1 50.1112 2.61367 0
1207 1 31.1162 60.8603 0
1208 1 75.4239 57.402 0
1209 2 66.4066 62.2384 0
1210 1 67.9641 31.8012 0
1211 2 27.6798 37.1978 0
1212 1 33.6999 35.4243 0
1213 1 60.3043 67.1569 0
1214 1 64.4745 23.1908 0
1215 1 10.7972 74.5819 0
1216 1 12.0361 53.5071 0
1217 2 68.7243 3.40431 0
1218 2 68.1587 20.6313 0
1219 1 30.5974 14.9083 0
1220 1 70.4708 18.1309 0
1221 1 63.9591 55.2748 0
1222 2 69.6433 74.4711 0
1223 1 39.7587 46.801 0
1224 1 74.5826 35.0712 0
1225 1 8.2086 28.2392 0
1226 2 63.3354 64.9047 0
1227 1 39.7612 61.7882 0
1228 1 75.4295 69.5711 0
1229 2 51.2531 12.8612 0
1230 1 22.8454 49.5112 0
1231 2 52.3031 16.603 0
1232 1 68.48 38.8223 0
1233 1 34.1484 57.8652 0
1234 1 0.741707 68.9918 0
1235 1 17.6598 47.2422 0
1236 1 48.681 63.7391 0
1237 1 38.6289 21.0153 0
1238 1 25.3006 7.8779 0
1239 1 17.2598 22.1729 0
1240 1 25.1534 65.8458 0
1241 1 0.471408 63.3035 0