ITEM: TIMESTEP
0
ITEM: NUMBER OF ATOMS
7200
ITEM: BOX BOUNDS xy xz yz pp pp pp
0.0000000000000000e+00 7.7459666924100006e+01 0.0000000000000000e+00
0.0000000000000000e+00 7.7459666924100006e+01 0.0000000000000000e+00
-1.2909944490000000e-01 1.2909944490000000e-01 0.0000000000000000e+00
ITEM: ATOMS id type x y z
1 1 12.1737 20.1592 0
2 1 14.8739 64.0703 0
3 1 75.3441 71.0883 0
4 1 20.3501 7.93561 0
5 1 34.4812 56.0079 0
6 1 56.6842 28.6771 0
7 2 5.47861 3.3765 0
8 2 64.6909 46.456 0
9 1 42.1102 56.1521 0
10 2 19.0151 14.5678 0
11 2 25.3941 53.3457 0
12 1 55.1872 11.6087 0
13 2 23.246 5.91153 0
14 1 46.7104 70.5135 0
15 1 39.4034 31.2512 0
16 1 18.1913 14.8623 0
17 1 31.3462 40.0431 0
18 1 33.7128 5.56495 0
19 1 26.9482 57.83 0
20 2 44.8495 3.52264 0
21 1 12.286 65.913 0
22 1 54.3568 10.8787 0
23 1 75.627 45.6777 0
24 1 55.9938 66.4189 0
25 1 6.77075 71.1797 0
26 1 21.1817 67.613 0
27 2 28.9644 63.7672 0
28 1 51.4407 74.2298 0
29 2 22.4688 48.0465 0
30 2 25.3789 32.0882 0
31 1 15.0889 53.3304 0
32 1 51.0243 38.094 0
33 1 60.7913 48.5912 0
34 2 45.2559 9.57985 0
35 1 75.3011 63.2063 0
36 1 30.5797 59.987 0
37 1 22.3726 61.5242 0
38 1 45.8235 19.7818 0
39 1 22.442 5.62606 0
40 2 24.8145 59.3685 0
41 2 18.4898 64.7268 0
42 1 20.9615 1.14901 0
43 1 19.1275 33.4572 0
44 1 34.4057 62.6718 0
45 1 3.32098 34.4907 0
46 1 68.2233 7.55844 0
47 1 73.429 59.1199 0
48 1 44.0229 68.2203 0
49 2 0.0387154 4.20333 0
50 1 31.1761 66.5852 0
51 1 1.25269 10.0484 0
52 2 33.1837 24.0885 0
53 1 53.4598 18.695 0
54 1 49.536 30.4198 0
55 1 9.78422 1.0459 0
56 1 46.0006 26.1314 0
57 1 67.4815 43.0221 0
58 1 69.8842 69.1752 0
59 1 34.1219 2.01454 0
60 1 28.6312 3.41625 0
61 1 40.5262 75.8814 0
62 1 52.1613 45.1652 0
63 1 57.153 9.93489 0
64 1 50.6029 45.9595 0
65 1 67.088 73.676 0
66 2 56.0663 11.5827 0
67 2 40.6873 35.9962 0
68 2 0.850059 29.1572 0
69 1 61.9498 45.4299 0
70 1 8.45807 35.4449 0
71 2 7.45421 42.1749 0
72 1 76.9908 3.45585 0
73 1 6.20768 64.1775 0
74 2 41.6965 22.6789 0
75 1 75.3428 53.3786 0
76 1 19.7441 46.965 0
77 1 25.0197 74.4959 0
78 1 3.68209 15.5756 0
79 1 12.5608 73.3519 0
80 1 43.4711 16.5428 0
81 1 54.9501 62.3488 0
82 2 44.3795 16.5885 0
83 1 5.77275 33.0467 0
84 1 32.9536 45.7097 0
85 1 34.6327 20.7361 0
86 2 34.7506 64.7051 0
87 1 71.4683 34.5796 0
88 1 18.4773 54.7405 0
89 1 27.7698 12.9886 0
90 1 37.4279 37.9563 0
91 2 45.8958 41.2272 0
92 2 41.2277 56.0045 0
93 1 27.8019 16.8015 0
94 1 33.5004 55.789 0
95 2 39.2266 56.7561 0
96 1 65.1795 1.32465 0
97 1 44.1064 49.1316 0
98 2 2.82979 60.0372 0
99 1 61.8186 48.3093 0
100 2 32.5662 30.7992 0
101 1 47.6626 54.4692 0
102 1 56.0465 21.6295 0
103 1 56.7935 70.5925 0
104 1 2.66866 60.9554 0
105 2 40.1444 2.94965 0
106 2 30.4763 34.8118 0
107 1 13.2141 31.4374 0
108 1 0.80328 0.900251 0
109 1 35.6653 41.678 0
110 2 65.2144 25.4898 0
111 1 65.966 12.0176 0
112 1 34.2128 72.8635 0
113 2 0.233245 60.3467 0
114 2 74.4772 29.4502 0
115 2 30.3115 12.7118 0
116 2 74.4909 53.4704 0
117 1 16.2053 45.9418 0
118 2 46.7848 26.5941 0
119 1 62.5649 0.11703 0
120 2 5.93466 49.6918 0
121 1 6.31749 3.61538 0
122 1 20.1141 33.0717 0
123 2 5.4175 17.8106 0
124 1 46.3186 57.3738 0
125 1 31.7547 27.2302 0
126 1 57.9939 52.3307 0
127 1 4.46371 59.0709 0
128 1 14.4267 23.4786 0
129 1 16.4066 52.2519 0
130 1 7.34736 2.18883 0
131 1 59.0915 24.8412 0
132 2 31.0347 41.8121 0
133 2 52.574 7.06483 0
134 1 65.6502 50.9701 0
135 1 31.5986 30.3741 0
136 2 55.1253 46.584 0
137 1 61.8456 56.6585 0
138 2 70.4698 47.9299 0
139 1 68.3758 27.1774 0
140 1 3.52792 21.9261 0
141 2 48.0754 63.2814 0
142 1 6.53963 22.669 0
143 2 40.6014 70.0876 0
144 2 47.3961 75.2256 0
145 2 18.3848 52.9855 0
146 1 54.7951 4.13883 0
147 1 9.48242 39.0102 0
148 1 46.3279 53.5001 0
149 2 67.8784 49.0981 0
150 1 32.7762 56.6605 0
151 2 29.5121 13.8585 0
152 1 48.9977 63.3096 0
153 2 17.3654 46.3949 0
154 2 31.6525 72.2384 0
155 1 70.4293 49.008 0
156 1 43.4426 10.2208 0
157 1 49.4028 71.0265 0
158 1 60.2438 69.2676 0
159 2 10.529 26.0176 0
160 1 38.1799 17.3663 0
161 1 7.19741 63.54 0
162 2 72.617 23.9687 0
163 1 30.7185 27.0397 0
164 1 60.1856 29.469 0
165 1 75.7251 27.6856 0
166 1 1.84584 44.6661 0
167 1 39.3394 0.775824 0
168 1 38.4768 72.7632 0
169 1 56.7418 31.0823 0
170 1 57.4426 0.984634 0
171 2 36.8061 60.9834 0
172 2 33.5655 53.8172 0
173 2 43.9195 24.327 0
174 2 27.5037 56.0364 0
175 2 31.024 26.1921 0
176 1 46.2646 16.206 0
177 1 19.5484 58.5638 0
178 1 61.8681 61.3034 0
179 1 64.6412 24.8051 0
180 2 33.1623 39.6402 0
181 1 45.1859 27.6742 0
182 1 61.7102 58.5772 0
183 2 12.0407 37.4438 0
184 1 5.30078 67.5755 0
185 2 67.1923 29.4244 0
186 1 59.029 35.1207 0
187 1 39.4588 46.5481 0
188 1 57.3337 47.7382 0
189 2 63.7317 53.081 0
190 1 23.1182 4.01305 0
191 1 71.7181 7.84245 0
192 1 65.6304 10.3314 0
193 2 10.9061 41.5684 0
194 2 68.693 69.0367 0
195 1 11.2507 3.30173 0
196 2 49.4842 55.0904 0
197 2 20.1572 9.93311 0
198 1 13.3963 61.3222 0
199 2 75.7581 66.1559 0
200 1 59.8661 27.6212 0
201 2 34.5325 1.2369 0
202 2 74.5782 55.2565 0
203 1 52.3892 65.7539 0
204 1 29.5128 3.89435 0
205 1 56.0944 26.1016 0
206 2 35.7567 37.0152 0
207 2 13.9365 9.45838 0
208 1 33.7759 13.9647 0
209 1 12.1587 11.5091 0
210 2 5.34244 20.4657 0
211 1 17.1865 8.01057 0
212 2 24.7387 6.27217 0
213 2 56.0873 28.0278 0
214 1 71.0352 57.7629 0
215 2 66.9942 22.3215 0
216 1 20.6775 73.5729 0
217 1 59.5589 34.1129 0
218 2 54.846 58.6598 0
219 2 68.0164 42.3129 0
220 2 42.8909 63.7841 0
221 1 19.0229 45.4118 0
222 1 45.0236 12.3696 0
223 2 39.2016 67.7469 0
224 2 27.8501 68.7155 0
225 1 32.4499 23.6256 0
226 2 66.4927 57.1155 0
227 2 6.09529 16.3931 0
228 1 34.5399 9.11256 0
229 1 71.0267 26.7728 0
230 1 32.1849 74.5383 0
231 1 10.7977 34.4389 0
232 1 42.1583 12.8831 0
233 1 34.8615 7.4215 0
234 1 76.2632 8.20613 0
235 1 60.7962 59.1601 0
236 2 44.9612 70.3073 0
237 1 77.3507 62.2271 0
238 2 9.14906 21.5225 0
239 1 58.3099 2.87841 0
240 2 61.5818 46.3073 0
241 1 47.178 66.7594 0
242 1 18.5952 30.5879 0
243 1 7.14813 56.3543 0
244 1 61.2339 64.3354 0
245 1 11.0525 30.8664 0
246 1 1.90027 35.4983 0
247 1 65.5421 49.935 0
248 1 12.4014 0.845212 0
249 2 50.4067 41.3242 0
250 1 29.0446 9.33462 0
251 2 57.6992 50.3608 0
252 2 65.7469 23.1789 0
253 1 19.8554 17.4926 0
254 1 54.4099 25.0139 0
255 1 65.4559 42.929 0
256 1 31.4125 8.52171 0
257 1 22.2023 58.0476 0
258 1 26.2126 38.6781 0
259 1 55.6156 56.8298 0
260 2 43.9892 53.9066 0
261 2 26.3713 62.6584 0
262 1 24.4113 33.6556 0
263 2 12.5894 34.7715 0
264 2 71.5164 59.9284 0
265 1 76.932 46.6786 0
266 1 38.1108 44.8371 0
267 2 61.6262 24.5174 0
268 2 56.6318 45.9871 0
269 1 48.2084 21.0501 0
270 2 9.04518 47.0109 0
271 2 22.583 33.4884 0
272 2 20.389 14.2824 0
273 1 15.0311 65.2036 0
274 1 32.3628 50.0218 0
275 1 8.54872 48.9094 0
276 1 75.3058 10.0957 0
277 2 15.5605 71.3665 0
278 1 7.65762 17.5323 0
279 1 4.36405 44.3212 0
280 1 20.4576 35.8224 0
281 1 30.6338 38.521 0
282 2 75.9157 26.5681 0
283 1 76.614 55.7127 0
284 2 54.2579 38.5147 0
285 1 70.9812 52.8323 0
286 1 11.3834 63.3844 0
287 1 19.08 76.8359 0
288 2 76.0125 3.89595 0
289 2 21.4341 39.0984 0
290 2 69.1366 76.4786 0
291 1 35.2205 22.5392 0
292 1 27.7489 58.5402 0
293 1 47.3696 19.0173 0
294 1 40.39 2.06326 0
295 1 69.6503 2.96059 0
296 2 74.2574 8.24052 0
297 1 40.2473 59.8302 0
298 1 72.4628 35.0178 0
299 2 49.3246 36.5637 0
300 1 39.1878 43.9175 0
301 1 73.5093 19.7319 0
302 1 50.9628 35.2645 0
303 1 20.543 32.0812 0
304 1 60.5322 72.5331 0
305 2 59.1502 76.0107 0
306 1 63.0486 52.5546 0
307 2 73.2623 38.6962 0
308 1 41.5794 5.13265 0
309 2 24.9051 16.8478 0
310 2 13.3127 12.9813 0
311 1 29.3077 49.5224 0
312 1 67.5091 61.5565 0
313 1 74.7257 76.2807 0
314 1 40.5427 45.9973 0
315 2 56.3148 31.9116 0
316 2 39.5001 63.3158 0
317 1 50.9101 20.4681 0
318 2 7.15374 31.2818 0
319 1 31.0197 25.312 0
320 1 36.1595 61.5699 0
321 1 58.852 68.3871 0
322 2 74.0652 11.7037 0
323 2 25.0987 63.6502 0
324 1 64.3598 41.5791 0
325 1 41.2133 6.15367 0
326 1 9.64382 58.9735 0
327 1 48.6295 54.7993 0
328 1 0.692827 36.9896 0
329 1 41.7098 42.6806 0
330 2 51.7703 34.9568 0
331 2 69.8758 3.84774 0
332 1 59.4881 28.6846 0
333 1 36.9725 12.1789 0
334 1 17.0655 34.7719 0
335 1 20.6596 38.7377 0
336 2 72.405 74.4346 0
337 1 34.6633 33.692 0
338 2 17.0429 1.50608 0
339 1 42.5954 68.348 0
340 1 18.7754 57.8827 0
341 2 74.0983 44.1322 0
342 1 67.0117 5.94057 0
343 2 56.3178 49.8295 0
344 2 22.8802 66.0591 0
345 1 7.93915 27.7376 0
346 1 17.4821 71.7913 0
347 1 35.3417 56.6128 0
348 1 56.3356 18.9321 0
349 1 33.7592 20.0465 0
350 1 37.1859 31.1646 0
351 1 17.9269 53.7322 0
352 1 47.7799 30.8042 0
353 1 75.3936 25.7808 0
354 2 22.5132 26.2042 0
355 2 43.4502 18.1704 0
356 2 11.9556 2.752 0
357 1 68.5013 67.5337 0
358 1 24.1649 3.76525 0
359 1 22.3233 14.5198 0
360 2 45.0325 31.5755 0
361 2 48.0749 67.0904 0
362 1 27.0958 74.6252 0
363 2 37.936 73.5454 0
364 1 13.1418 66.5121 0
365 2 8.89098 57.1332 0
366 1 24.8845 50.7068 0
367 2 19.8784 23.3713 0
368 2 51.4326 55.0976 0
369 2 65.2829 70.6141 0
370 1 3.42751 28.3265 0
371 1 46.21 73.4465 0
372 2 40.4797 9.92907 0
373 1 10.5504 31.8342 0
374 2 66.5643 41.3763 0
375 1 52.1655 52.8883 0
376 2 75.4807 43.0936 0
377 2 58.1966 38.2105 0
378 1 20.4791 63.7924 0
379 1 13.9491 20.3501 0
380 1 9.82939 62.4743 0
381 1 26.7435 23.3915 0
382 1 30.8084 23.542 0
383 1 9.58315 11.8319 0
384 1 34.816 51.6487 0
385 1 28.3155 77.1423 0
386 1 54.982 40.4585 0
387 1 59.6128 76.7797 0
388 2 55.9253 57.7907 0
389 1 24.6011 56.8056 0
390 1 29.4748 13.0124 0
391 2 59.857 26.7066 0
392 2 30.0417 10.1417 0
393 2 38.7719 64.9295 0
394 1 10.2954 73.7788 0
395 1 53.0378 21.8932 0
396 1 13.7694 70.4484 0
397 1 46.8794 17.1153 0
398 1 45.6562 70.8699 0
399 1 70.0318 18.0151 0
400 1 59.8581 74.2315 0
401 1 44.5421 11.3874 0
402 2 56.5618 16.9402 0
403 1 38.179 51.5522 0
404 1 69.4052 70.8387 0
405 2 73.8304 76.3914 0
406 1 34.3113 19.0301 0
407 2 45.7476 21.7766 0
408 1 63.515 30.3712 0
409 1 18.823 61.312 0
410 2 67.4327 16.7656 0
411 2 66.5103 36.5224 0
412 1 58.9021 38.7252 0
413 1 7.06494 36.6273 0
414 1 71.2936 48.2574 0
415 1 6.97628 41.4595 0
416 2 73.7874 62.4026 0
417 2 75.08 12.63 0
418 1 54.3609 30.1418 0
419 2 56.6437 47.241 0
420 2 24.9312 55.9691 0
421 1 60.3622 19.3318 0
422 1 2.0689 71.4368 0
423 1 4.1752 12.1172 0
424 1 60.7887 26.9126 0
425 1 58.8961 50.5932 0
426 1 56.1666 73.8511 0
427 2 39.5376 14.8434 0
428 1 51.5264 50.3647 0
429 1 59.3051 71.0751 0
430 1 36.6644 37.2427 0
431 1 0.029922 29.5066 0
432 1 63.3309 49.0677 0
433 1 29.2779 69.5938 0
434 1 1.69177 42.7562 0
435 1 63.989 34.1372 0
436 2 67.9262 39.0027 0
437 2 44.0605 59.5105 0
438 1 39.0225 61.6438 0
439 2 41.3975 12.4977 0
440 1 43.316 43.6441 0
441 2 66.7133 15.2779 0
442 1 9.5359 37.9669 0
443 1 54.4953 16.8126 0
444 1 16.7315 75.2874 0
445 2 69.4646 67.5327 0
446 1 61.6596 42.1927 0
447 1 27.0331 70.9089 0
448 1 46.9642 37.7439 0
449 1 37.1339 73.2645 0
450 2 48.2393 59.7327 0
451 2 6.4785 61.7497 0
452 1 66.6692 11.2306 0
453 1 28.6685 76.0355 0
454 2 62.6218 29.9869 0
455 2 26.4647 67.9868 0
456 1 11.3891 44.5832 0
457 2 18.52 1.80585 0
458 1 38.0436 77.0764 0
459 2 15.5047 56.6677 0
460 1 5.48277 4.26864 0
461 2 27.3176 26.9406 0
462 1 45.8424 24.3355 0
463 1 76.0297 69.6299 0
464 1 9.04144 47.8789 0
465 2 40.7591 45.1401 0
466 1 21.7335 12.863 0
467 2 11.7318 1.3658 0
468 1 19.4058 36.3112 0
469 1 2.02027 2.27874 0
470 1 61.793 10.5412 0
471 2 73.9292 40.7767 0
472 1 25.4612 43.0239 0
473 1 61.7371 65.8913 0
474 1 33.3176 54.6375 0
475 1 22.4602 59.8249 0
476 2 38.8952 32.1039 0
477 1 60.651 11.7251 0
478 2 33.1378 74.502 0
479 1 33.5178 22.229 0
480 1 19.9297 25.636 0
481 1 7.18033 18.6932 0
482 1 10.939 25.2006 0
483 2 1.21059 1.69861 0
484 1 14.4966 38.4254 0
485 1 21.344 57.3422 0
486 1 7.18263 4.68728 0
487 2 70.8942 10.2171 0
488 1 58.6221 5.74165 0
489 1 52.3428 15.1936 0
490 1 35.3956 31.1372 0
491 1 30.4782 42.6634 0
492 2 61.1713 9.92729 0
493 1 73.1614 8.86458 0
494 1 67.5958 31.966 0
495 2 22.5708 49.2882 0
496 2 52.7523 42.356 0
497 2 40.664 6.84794 0
498 1 23.5928 25.7589 0
499 1 35.8064 74.394 0
500 1 2.76958 4.25377 0
501 2 45.4717 43.5392 0
502 1 16.7189 24.7141 0
503 1 50.1302 9.75277 0
504 1 37.0942 32.8053 0
505 2 26.4498 76.9534 0
506 2 17.621 65.2117 0
507 1 42.0177 37.4039 0
508 1 12.9747 32.8013 0
509 1 29.0345 24.7201 0
510 1 6.9321 38.7071 0
511 1 69.2878 26.5791 0
512 1 54.5053 53.499 0
513 1 11.8821 34.3145 0
514 1 25.3849 64.5124 0
515 2 61.3967 11.332 0
516 2 11.461 38.6384 0
517 2 74.3473 74.6193 0
518 2 19.2903 54.3745 0
519 2 33.1657 1.83518 0
520 1 74.2839 37.03 0
521 1 42.1767 24.4143 0
522 2 24.5604 66.1427 0
523 1 77.0761 12.3464 0
524 1 70.4186 34.5918 0
525 1 22.7439 0.0904623 0
526 2 76.6188 22.4091 0
527 1 49.5328 26.1756 0
528 2 74.7616 5.01958 0
529 2 35.1873 45.1779 0
530 1 7.87636 59.6499 0
531 2 76.3186 68.8011 0
532 2 32.1283 60.8657 0
533 1 73.1125 5.58702 0
534 1 34.3889 26.9411 0
535 1 29.0851 19.0616 0
536 1 32.8169 65.8628 0
537 1 34.9655 47.8221 0
538 2 16.3573 21.7467 0
539 2 46.1025 76.676 0
540 1 60.94 40.6084 0
541 2 24.9219 8.11655 0
542 1 51.2046 56.8058 0
543 2 69.5166 55.5179 0
544 2 51.9657 10.4364 0
545 1 28.3144 22.7611 0
546 1 34.2747 3.10862 0
547 1 10.1255 14.4473 0
548 2 23.5883 3.12557 0
549 2 65.3208 21.8323 0
550 2 5.10799 39.3383 0
551 1 30.4156 8.31968 0
552 2 70.4336 40.1574 0
553 2 29.5723 44.8092 0
554 1 51.7005 62.3619 0
555 1 50.217 57.3972 0
556 1 73.0147 68.0465 0
557 1 61.9961 53.8974 0
558 1 2.66178 68.6198 0
559 1 72.6085 36.0574 0
560 2 21.4484 61.5117 0
561 1 5.69811 0.739065 0
562 2 4.55964 11.2603 0
563 2 53.9854 48.8581 0
564 1 70.2319 68.1058 0
565 2 21.793 1.45464 0
566 2 18.2704 23.7024 0
567 1 48.9056 42.2925 0
568 2 22.8206 73.9484 0
569 2 15.6696 27.4982 0
570 1 73.1184 34.0726 0
571 1 0.648138 3.55985 0
572 2 6.6701 48.4165 0
573 2 77.3977 44.7846 0
574 1 3.87011 69.1815 0
575 1 18.2351 7.63083 0
576 1 16.4994 63.1628 0
577 1 43.2821 50.5399 0
578 2 67.6286 34.2801 0
579 2 45.8478 68.9276 0
580 1 62.604 42.656 0
581 1 6.53768 60.8088 0
582 2 68.6947 59.519 0
583 2 64.1729 58.629 0
584 2 33.6153 65.5915 0
585 1 61.0157 77.4198 0
586 1 48.7271 58.8401 0
587 2 14.6407 21.8098 0
588 1 49.4395 5.16226 0
589 2 53.6847 10.288 0
590 1 24.6646 73.5492 0
591 1 56.0411 6.63054 0
592 1 48.7165 74.2384 0
593 1 44.0806 13.0517 0
594 1 59.9002 63.2825 0
595 1 72.2467 65.3509 0
596 2 7.16559 1.36571 0
597 1 3.43716 43.9043 0
598 1 69.0414 9.13997 0
599 1 2.63489 50.9368 0
600 1 0.0564004 47.6062 0
601 2 42.1284 36.1864 0
602 1 62.138 14.3412 0
603 2 71.1281 50.7906 0
604 2 62.352 16.4017 0
605 1 52.5214 69.2701 0
606 1 41.6226 3.94831 0
607 1 76.3471 1.43327 0
608 2 1.29134 40.2163 0
609 2 40.8976 0.275631 0
610 1 7.72484 49.6375 0
611 1 53.9787 58.8442 0
612 1 76.8785 6.23249 0
613 1 77.0522 23.1791 0
614 2 50.4343 28.5675 0
615 1 34.502 38.8968 0
616 1 39.6359 15.8696 0
617 1 68.7977 2.36966 0
618 2 12.0412 42.7075 0
619 2 55.1936 42.4096 0
620 2 70.964 74.0858 0
621 2 58.5546 35.8122 0
622 1 60.1918 18.2828 0
623 1 37.391 11.2484 0
624 2 20.469 54.877 0
625 1 26.9281 76.2517 0
626 1 73.7178 28.9497 0
627 2 2.30752 25.1142 0
628 1 28.7885 58.053 0
629 2 77.336 25.5656 0
630 1 29.34 73.1139 0
631 1 56.8835 37.2315 0
632 1 21.6383 65.0688 0
633 2 25.6368 71.9979 0
634 1 18.8503 50.796 0
635 2 41.485 43.6733 0
636 2 37.0686 40.8421 0
637 1 11.2388 11.0531 0
638 1 67.2679 40.8709 0
639 1 70.2171 46.1531 0
640 1 0.276863 53.925 0
641 1 36.4115 33.6866 0
642 1 9.67763 33.7861 0
643 1 50.2784 44.9166 0
644 2 19.3448 27.213 0
645 1 56.9748 52.3173 0
646 1 46.122 47.0848 0
647 2 23.6122 10.3828 0
648 1 64.2756 12.4978 0
649 2 10.7162 69.0844 0
650 2 46.7081 62.1686 0
651 1 46.0287 12.0899 0
652 1 29.6395 70.8862 0
653 2 13.6446 23.212 0
654 2 10.4369 3.69724 0
655 1 5.56852 51.4887 0
656 1 72.6362 53.8678 0
657 1 33.7394 46.4677 0
658 1 71.5747 13.0275 0
659 2 0.918772 66.2008 0
660 1 26.8079 35.487 0
661 1 37.2688 9.67197 0
662 1 32.6827 60.0915 0
663 1 10.6437 28.7167 0
664 1 58.4216 75.5469 0
665 2 49.3165 76.863 0
666 2 12.6404 58.1999 0
667 1 26.389 73.8598 0
668 2 7.74678 76.3561 0
669 1 4.43905 9.32863 0
670 2 43.9833 37.755 0
671 2 37.3116 17.395 0
672 1 9.89171 19.6584 0
673 1 6.95041 16.6523 0
674 1 32.6069 42.5247 0
675 2 4.83609 58.2537 0
676 2 37.9966 6.22644 0
677 1 41.3834 54.1127 0
678 1 53.8171 39.2325 0
679 1 46.5515 69.4254 0
680 1 31.6269 53.6626 0
681 1 26.349 54.1093 0
682 1 62.4639 59.411 0
683 1 18.0417 59.351 0
684 1 64.5527 68.8713 0
685 2 35.9712 18.6416 0
686 1 50.2258 6.0877 0
687 1 41.5474 18.8984 0
688 2 53.6774 73.666 0
689 1 72.0011 62.4719 0
690 1 66.1331 72.3048 0
691 1 41.6698 39.9779 0
692 2 59.8682 44.2359 0
693 1 71.3267 77.0803 0
694 2 53.7568 64.468 0
695 1 42.2613 11.8433 0
696 2 35.5477 47.0693 0
697 1 25.5626 13.2886 0
698 1 8.48496 3.46405 0
699 1 66.764 13.9253 0
700 1 72.0365 46.9118 0
701 1 64.1056 31.2486 0
702 1 63.7147 65.3188 0
703 2 72.0585 2.36982 0
704 2 8.24173 61.3407 0
705 2 4.99336 7.33548 0
706 1 52.2168 51.8605 0
707 2 59.7 38.4558 0
708 1 50.4177 43.2134 0
709 1 51.7753 73.2333 0
710 2 60.3636 28.5898 0
711 1 55.9996 54.2148 0
712 2 62.8216 32.6767 0
713 2 68.5105 70.55 0
714 2 0.678038 64.7847 0
715 1 45.289 18.8207 0
716 1 76.49 29.7287 0
717 1 29.7894 63.5469 0
718 1 14.2834 3.62379 0
719 1 53.4174 37.097 0
720 2 49.1507 38.5517 0
721 2 66.7154 39.8966 0
722 1 48.9409 7.8932 0
723 2 39.9227 75.2758 0
724 2 10.4273 59.5277 0
725 1 50.7381 39.2949 0
726 1 8.30919 29.9708 0
727 2 12.9917 1.42629 0
728 1 67.4923 55.4812 0
729 2 21.5767 59.8302 0
730 1 32.848 27.5039 0
731 2 16.678 36.4507 0
732 1 16.4456 54.372 0
733 1 29.8927 29.505 0
734 2 66.515 46.4423 0
735 1 66.7506 67.232 0
736 1 47.7731 49.4785 0
737 2 4.0558 45.6065 0
738 1 13.7198 34.5536 0
739 1 18.1517 37.5937 0
740 1 48.4369 38.0964 0
741 2 57.2097 55.6817 0
742 1 58.9336 37.7121 0
743 1 27.216 62.1549 0
744 2 72.7926 19.1132 0
745 1 23.1667 72.705 0
746 1 35.0478 10.0793 0
747 1 47.6418 76.0583 0
748 2 43.2488 69.9305 0
749 2 22.3548 24.4506 0
750 1 55.328 35.1606 0
751 1 57.8634 40.2357 0
752 2 2.44178 70.6321 0
753 1 53.0494 39.9649 0
754 2 21.7252 15.1359 0
755 1 24.0155 50.0576 0
756 2 49.5041 75.9223 0
757 1 48.4059 19.3695 0
758 1 6.09999 9.85546 0
759 1 61.7716 47.1971 0
760 1 12.3096 10.4345 0
761 1 69.9659 71.7293 0
762 1 15.1113 57.4688 0
763 2 77.2718 7.04637 0
764 1 75.0009 57.122 0
765 2 47.1394 56.9146 0
766 1 63.2017 22.671 0
767 1 13.7653 1.09984 0
768 1 65.3258 8.18836 0
769 1 61.7346 50.0821 0
770 2 60.4571 73.5156 0
771 1 18.909 40.0179 0
772 1 44.894 51.1463 0
773 1 40.7199 43.2723 0
774 2 32.6949 25.6699 0
775 1 71.6424 30.5119 0
776 2 43.5934 42.8333 0
777 1 70.3023 55.1559 0
778 2 10.4805 63.1025 0
779 1 45.3369 25.2936 0
780 1 17.0954 6.17656 0
781 1 29.6549 35.0722 0
782 1 57.4776 64.9438 0
783 1 60.5708 35.5681 0
784 1 70.8128 49.9879 0
785 2 8.80624 11.3075 0
786 1 73.2226 70.0989 0
787 1 21.0061 66.5553 0
788 1 39.7619 54.7921 0
789 1 11.0363 4.35666 0
790 1 52.2968 70.2797 0
791 1 45.833 13.1303 0
792 1 8.60461 24.9997 0
793 1 25.2523 14.905 0
794 2 71.4311 16.6769 0
795 2 75.6551 14.1768 0
796 2 75.5918 67.7132 0
797 1 44.5409 65.2251 0
798 1 38.4657 19.0319 0
799 1 44.2992 76.2617 0
800 1 30.658 70.5877 0
801 2 6.48881 25.8922 0
802 2 27.9645 45.5223 0
803 2 23.5445 77.1322 0
804 2 52.5921 36.0531 0
805 1 23.9094 71.9816 0
806 1 53.2253 70.8874 0
807 2 39.7994 50.4738 0
808 1 50.3933 47.3458 0
809 2 36.3876 62.4029 0
810 1 58.5521 76.6748 0
811 1 28.6783 60.9816 0
812 2 59.638 48.3378 0
813 2 46.417 58.2467 0
814 1 54.471 31.2234 0
815 2 41.1251 16.8381 0
816 1 28.1045 34.4415 0
817 1 67.7373 75.7486 0
818 2 36.8382 16.115 0
819 2 45.78 56.7159 0
820 1 66.8887 69.8963 0
821 1 16.7732 64.8177 0
822 1 56.8002 76.8302 0
823 1 17.1196 55.776 0
824 2 35.2735 42.4759 0
825 1 29.1411 41.6183 0
826 1 32.8288 75.3749 0
827 1 7.3453 26.1515 0
828 1 76.8116 51.1736 0
829 1 72.0523 40.1527 0
830 2 47.8188 64.7074 0
831 2 43.307 4.43263 0
832 1 73.9078 14.3186 0
833 1 24.5149 43.3976 0
834 2 48.5121 5.49061 0
835 1 68.3628 6.45345 0
836 1 58.1708 27.8282 0
837 1 56.4686 41.3139 0
838 1 38.8962 52.8207 0
839 1 16.0462 60.3845 0
840 2 15.7652 46.7305 0
841 1 36.7644 52.6262 0
842 2 11.084 61.2054 0
843 1 5.45647 42.3115 0
844 1 63.4477 21.5506 0
845 2 27.7979 2.30384 0
846 1 49.5279 39.3949 0
847 1 10.7527 57.6143 0
848 2 69.086 47.6205 0
849 1 74.1568 10.806 0
850 1 67.9873 19.6771 0
851 1 39.4537 18.644 0
852 1 12.3833 1.95716 0
853 1 42.4115 61.3799 0
854 1 37.8131 69.6075 0
855 1 39.5521 25.597 0
856 2 18.8979 42.0697 0
857 1 57.8392 34.0576 0
858 2 34.5007 28.9017 0
859 1 13.1281 64.792 0
860 2 1.98784 58.4844 0
861 2 60.2198 40.1056 0
862 2 3.05549 69.4223 0
863 1 58.9994 23.7823 0
864 1 60.321 53.829 0
865 2 66.2518 67.9729 0
866 1 60.5332 17.1511 0
867 2 31.6456 21.8053 0
868 1 37.1853 61.8138 0
869 1 62.1521 20.1359 0
870 1 0.0109574 52.7687 0
871 1 62.7728 26.1183 0
872 1 42.2659 50.8782 0
873 1 50.7208 62.682 0
874 1 3.97958 71.8153 0
875 1 34.1329 57.7983 0
876 2 51.4963 7.89674 0
877 1 13.1454 55.592 0
878 2 14.7438 16.0298 0
879 1 76.5435 14.0602 0
880 2 31.6968 33.685 0
881 2 51.9433 29.4674 0
882 2 48.1887 73.5172 0
883 1 25.7684 20.0021 0
884 1 56.0463 36.675 0
885 1 38.9332 4.91709 0
886 1 36.9803 60.0009 0
887 2 54.6832 50.3322 0
888 1 0.507282 76.6026 0
889 2 59.1425 49.7225 0
890 2 7.79775 25.3731 0
891 1 38.1136 10.3847 0
892 1 40.1251 67.7982 0
893 1 30.0491 53.7082 0
894 1 76.9977 14.9695 0
895 2 32.3079 53.0609 0
896 1 37.6103 2.48942 0
897 2 35.682 16.9234 0
898 1 31.0676 43.5435 0
899 1 2.08016 75.8576 0
900 2 38.7003 0.226056 0
901 1 52.3531 41.5384 0
902 1 24.2225 75.1979 0
903 1 37.9033 40.634 0
904 2 77.4056 37.585 0
905 1 63.7365 62.0554 0
906 1 68.8971 44.8134 0
907 1 3.7981 29.9244 0
908 1 50.7215 23.8345 0
909 1 0.214288 48.6841 0
910 2 1.77185 50.6683 0
911 2 4.64973 4.55078 0
912 2 36.2328 32.8714 0
913 2 31.9362 51.4379 0
914 1 18.2612 12.7873 0
915 2 64.6173 5.55919 0
916 1 3.30594 39.737 0
917 2 5.03956 33.4913 0
918 2 19.5868 35.3929 0
919 1 8.17938 57.6773 0
920 1 15.9161 47.6687 0
921 1 0.180228 26.6553 0
922 2 50.8062 18.8302 0
923 2 12.3536 24.3344 0
924 1 39.3082 17.5266 0
925 1 66.1637 47.2366 0
926 2 35.5733 35.3795 0
927 1 68.8124 0.112 0
928 1 52.2382 59.1557 0
929 2 52.1066 32.1656 0
930 2 19.8436 15.7635 0
931 1 40.8328 47.6213 0
932 1 70.295 39.0224 0
933 1 34.4752 21.7968 0
934 1 1.96549 60.1213 0
935 1 11.347 50.5663 0
936 2 42.1703 4.56638 0
937 1 14.1782 73.189 0
938 1 36.8327 67.6376 0
939 2 50.4393 51.3701 0
940 1 75.932 46.7503 0
941 1 77.2288 17.5936 0
942 1 37.9774 29.6645 0
943 2 22.257 16.5777 0
944 2 1.99765 41.8542 0
945 1 40.521 25.275 0
946 1 64.5423 67.1664 0
947 2 25.049 2.14534 0
948 1 39.3126 68.5771 0
949 1 26.7468 11.6111 0
950 2 5.14602 9.84976 0
951 1 69.0271 65.6235 0
952 2 52.6063 2.70947 0
953 2 7.85325 44.6888 0
954 2 29.7821 62.6538 0
955 1 27.2975 38.6259 0
956 2 58.8132 11.0705 0
957 1 48.362 23.5903 0
958 2 19.4315 2.76574 0
959 2 73.6437 24.976 0
960 2 29.229 66.9553 0
961 1 49.493 52.2424 0
962 1 24.3554 1.66155 0
963 1 16.1863 12.4476 0
964 2 8.70616 9.53593 0
965 2 53.709 53.9075 0
966 1 0.847058 62.7085 0
967 1 49.8975 35.6793 0
968 1 18.3073 0.0306941 0
969 1 58.0345 23.3512 0
970 2 22.5244 4.64881 0
971 1 21.2217 14.472 0
972 1 6.94468 25.1622 0
973 1 0.802898 35.8574 0
974 2 0.971062 34.9891 0
975 2 73.1428 65.4612 0
976 2 34.6844 19.8693 0
977 1 36.0727 63.2391 0
978 2 3.26063 77.0397 0
979 2 36.2006 65.7945 0
980 1 72.8746 14.1155 0
981 1 73.677 58.1012 0
982 1 7.68136 54.7001 0
983 1 18.4619 24.5943 0
984 1 9.2134 57.9886 0
985 1 34.5663 11.0911 0
986 1 37.8033 52.5412 0
987 2 18.0554 11.9511 0
988 2 42.1538 34.9778 0
989 2 9.99271 34.7745 0
990 2 69.8718 51.6731 0
991 2 46.2733 14.6977 0
992 1 62.36 34.6155 0
993 2 29.0972 5.75478 0
994 2 2.04288 54.8644 0
995 1 38.8964 22.2324 0
996 2 54.7205 57.0408 0
997 2 43.4666 30.9162 0
998 2 60.2878 75.0518 0
999 2 39.3212 26.4573 0
1000 2 0.487128 49.5432 0
1001 1 41.7322 65.3039 0
1002 1 23.5133 34.2749 0
1003 1 9.44996 54.1072 0
1004 1 7.53226 22.4571 0
1005 2 10.8707 23.6534 0
1006 2 67.8834 60.7241 0
1007 1 18.8184 20.2231 0
1008 1 47.871 16.8596 0
1009 1 31.1906 32.9813 0
1010 1 11.6051 43.517 0
1011 2 10.5957 22.2998 0
1012 2 2.37336 23.4258 0
1013 2 65.1564 55.9419 0
1014 1 74.0651 15.3859 0
1015 1 76.0536 9.29634 0
1016 1 37.0673 47.9794 0
1017 2 68.7173 54.1842 0
1018 1 26.3374 24.9671 0
1019 1 44.2646 29.0289 0
1020 2 32.4926 6.18328 0
1021 2 15.895 24.4695 0
1022 1 4.7944 60.8638 0
1023 1 41.0688 9.30767 0
1024 1 9.45211 67.7525 0
1025 1 37.0674 65.7413 0
1026 1 7.96364 40.1118 0
1027 1 47.4154 2.32288 0
1028 1 1.91914 32.8476 0
1029 1 48.9477 18.1796 0
1030 2 46.8005 48.1334 0
1031 2 37.6244 37.0919 0
1032 1 16.3461 73.167 0
1033 1 57.4921 19.2471 0
1034 1 35.35 29.4001 0
1035 1 65.7342 28.4113 0
1036 2 73.6564 45.8123 0
1037 1 31.2895 73.0676 0
1038 1 68.6515 60.4143 0
1039 1 5.51779 31.9524 0
1040 2 64.9043 34.2193 0
1041 1 35.4742 65.1073 0
1042 2 62.9059 68.1766 0
1043 2 60.7665 58.3011 0
1044 1 67.6855 23.3713 0
1045 1 66.6578 23.1754 0
1046 1 41.208 68.0869 0
1047 2 9.92124 47.6668 0
1048 1 53.5369 77.416 0
1049 1 59.8367 49.1886 0
1050 2 45.3182 6.3097 0
1051 1 43.4442 31.8632 0
1052 1 66.1684 44.6091 0
1053 2 32.7142 18.3773 0
1054 1 54.9954 7.14957 0
1055 2 32.8758 46.5854 0
1056 2 14.7317 45.1973 0
1057 1 11.9952 71.619 0
1058 1 27.4482 5.98075 0
1059 1 9.23931 75.391 0
1060 2 21.9216 42.0489 0
1061 1 10.1432 23.1759 0
1062 2 17.0697 41.4234 0
1063 1 0.0244714 67.7668 0
1064 1 23.3178 5.02769 0
1065 2 29.7296 52.8615 0
1066 1 37.299 46.2654 0
1067 1 13.8909 10.3493 0
1068 2 35.5373 67.0102 0
1069 1 67.903 24.3544 0
1070 2 8.2365 34.4792 0
1071 2 49.5947 42.9242 0
1072 2 9.48539 48.6173 0
1073 2 16.3911 3.53333 0
1074 2 33.7936 45.2918 0
1075 1 75.7343 49.7708 0
1076 1 41.1667 7.64365 0
1077 1 41.696 32.7599 0
1078 2 71.7161 26.1831 0
1079 2 39.1193 10.8282 0
1080 2 30.1181 72.7924 0
1081 2 45.9573 48.9785 0
1082 2 6.26533 27.5815 0
1083 2 21.5803 19.927 0
1084 1 44.1823 57.5242 0
1085 1 19.2166 52.5263 0
1086 1 70.1767 66.8864 0
1087 1 29.6454 71.9728 0
1088 1 44.6499 63.144 0
1089 2 8.63129 31.5716 0
1090 1 42.9477 34.5315 0
1091 2 27.6608 17.6642 0
1092 1 63.0337 53.6207 0
1093 1 68.9842 32.9133 0
1094 2 43.5202 55.2244 0
1095 1 25.3959 71.1406 0
1096 2 48.1477 18.5332 0
1097 1 76.1992 17.7896 0
1098 1 62.5885 43.703 0
1099 1 31.0121 5.001 0
1100 1 67.9348 1.75359 0
1101 1 74.9506 11.7526 0
1102 1 25.9853 74.8696 0
1103 1 51.5025 71.0035 0
1104 1 47.2383 58.0724 0
1105 1 48.2637 40.2713 0
1106 1 16.4793 71.4548 0
1107 2 45.3412 62.6097 0
1108 1 55.644 31.3359 0
1109 1 72.7828 24.8936 0
1110 2 14.8925 11.7425 0
1111 1 2.66924 56.8959 0
1112 1 76.1843 18.8516 0
1113 2 75.591 7.63088 0
1114 2 14.1591 53.5434 0
1115 2 32.9279 49.3733 0
1116 1 77.2725 64.6841 0
1117 1 66.9621 56.4045 0
1118 1 12.387 75.4592 0
1119 2 11.3194 64.3766 0
1120 1 41.382 58.0415 0
1121 2 21.2516 64.2596 0
1122 1 32.1477 32.3986 0
1123 2 23.0836 51.982 0
1124 1 52.733 62.1287 0
1125 2 14.7937 4.34724 0
1126 2 15.5262 20.166 0
1127 1 74.5928 24.0406 0
1128 1 67.248 51.9444 0
1129 1 60.9106 39.5889 0
1130 1 30.4635 47.2598 0
1131 1 62.521 15.3408 0
1132 2 76.0045 63.6564 0
1133 2 55.9599 22.648 0
1134 2 20.8541 72.117 0
1135 1 0.806461 68.5685 0
1136 2 51.2495 27.0058 0
1137 1 51.0051 61.5064 0
1138 1 30.4017 13.6245 0
1139 2 57.5193 53.0137 0
1140 2 8.9843 22.9081 0
1141 1 75.0002 65.6913 0
1142 1 27.0291 52.3438 0
1143 1 48.1596 44.9181 0
1144 2 60.9175 16.3823 0
1145 1 38.0243 62.4843 0
1146 1 15.5957 18.8706 0
1147 1 28.4429 25.5862 0
1148 1 10.8927 36.7563 0
1149 1 57.5196 29.4071 0
1150 2 65.4162 61.0227 0
1151 1 22.0901 3.85305 0
1152 1 59.7922 52.0379 0
1153 1 71.6361 29.46 0
1154 1 13.9738 4.68328 0
1155 2 60.1767 20.2777 0
1156 1 44.4731 32.2767 0
1157 1 12.4269 18.1863 0
1158 2 58.41 48.0539 0
1159 2 5.49949 70.6291 0
1160 1 32.9714 7.70098 0
1161 2 43.9057 56.5826 0
1162 1 15.8579 9.87783 0
1163 2 13.347 72.9499 0
1164 1 23.9969 59.0255 0
1165 1 20.9053 45.5382 0
1166 2 14.8785 50.718 0
1167 1 28.0118 20.2617 0
1168 1 56.4359 64.6745 0
1169 1 19.6599 66.8523 0
1170 2 6.39272 33.6835 0
1171 1 48.518 33.8261 0
1172 1 22.8447 6.69466 0
1173 1 51.7289 64.1422 0
1174 1 38.9057 29.2158 0
1175 2 62.5158 44.6938 0
1176 1 68.26 36.5581 0
1177 1 48.808 70.0766 0
1178 2 61.0857 47.7355 0
1179 1 72.3288 32.5781 0
1180 1 51.9806 17.7588 0
1181 1 54.3169 22.8779 0
1182 1 60.9056 74.2982 0
1183 2 43.1781 73.2319 0
1184 2 28.2172 21.9194 0
1185 1 17.6439 63.1709 0
1186 1 48.893 49.6457 0
1187 1 73.9796 72.1146 0
1188 2 4.60729 37.7013 0
1189 1 60.7707 65.317 0
1190 1 28.3997 51.4908 0
1191 2 72.3063 5.13856 0
1192 1 24.6413 47.154 0
1193 1 47.4937 17.9505 0
1194 2 16.6183 16.0266 0
1195 1 74.1764 48.7831 0
1196 1 21.9104 49.851 0
1197 1 35.5457 38.9295 0
1198 1 62.391 76.4256 0
1199 2 57.8512 62.4689 0
1200 1 27.0021 8.7662 0
1201 1 2.93 73.315 0
1202 1 5.83957 48.7855 0
1203 2 47.5882 12.3601 0
1204 1 57.4993 56.6946 0
1205 1 66.5944 50.1977 0
1206 1 52.1098 5.09293 0
1207 1 31.7785 62.8414 0
1208 1 75.3348 58.178 0
1209 2 65.3279 59.6877 0
1210 1 69.6875 31.9161 0
1211 2 24.8144 35.3532 0
1212 1 33.6883 36.187 0
1213 1 61.3543 68.9713 0
1214 1 61.6088 23.639 0
1215 1 11.6293 72.6364 0
1216 1 11.1849 49.4421 0
1217 2 67.1889 2.29091 0
1218 2 61.4751 20.9009 0
1219 1 30.2242 15.3744 0
1220 1 61.9137 17.9905 0
1221 1 61.6778 54.8852 0
1222 2 66.5413 74.3401 0
1223 1 42.2005 48.1662 0
1224 1 0.66745 34.1835 0
1225 1 2.89883 25.761 0
1226 2 65.8875 64.9228 0
1227 1 41.4175 56.9609 0
1228 1 76.3052 70.7209 0
1229 2 47.9069 9.18848 0
1230 1 25.6111 49.9289 0
1231 2 52.8334 18.0653 0
1232 1 67.7087 38.1428 0
1233 1 38.5961 58.4943 0
1234 1 1.83436 67.9531 0
1235 1 18.1741 46.0528 0
1236 1 52.302 63.2246 0
1237 1 37.9361 20.6272 0
1238 1 24.6474 7.21963 0
1239 1 12.8629 22.7692 0
1240 1 24.5258 63.0291 0
1241 1 76.2964 62.8068 0