ITEM: TIMESTEP
0
ITEM: NUMBER OF ATOMS
7200
ITEM: BOX BOUNDS xy xz yz pp pp pp
0.0000000000000000e+00 7.7459666924100006e+01 0.0000000000000000e+00
0.0000000000000000e+00 7.7459666924100006e+01 0.0000000000000000e+00
-1.2909944490000000e-01 1.2909944490000000e-01 0.0000000000000000e+00
ITEM: ATOMS id type x y z
1 1 12.3689 20.2148 0
2 1 14.8431 63.9783 0
3 1 76.0196 71.8458 0
4 1 20.3979 7.87773 0
5 1 34.322 56.2707 0
6 1 57.1686 28.2959 0
7 2 4.18879 3.39993 0
8 2 64.5997 46.3507 0
9 1 42.2875 56.4779 0
10 2 19.0525 14.7291 0
11 2 25.2991 53.0135 0
12 1 54.8973 11.604 0
13 2 23.2188 5.79789 0
14 1 46.6215 70.0084 0
15 1 39.6512 31.5177 0
16 1 18.3084 15.1177 0
17 1 31.4937 40.6615 0
18 1 33.3888 6.54425 0
19 1 26.8056 57.7003 0
20 2 44.8653 3.71648 0
21 1 12.2933 65.704 0
22 1 53.8457 11.1069 0
23 1 75.549 45.4838 0
24 1 55.5009 67.2668 0
25 1 6.5777 70.5869 0
26 1 21.1138 67.4304 0
27 2 28.9018 63.6859 0
28 1 51.113 74.2425 0
29 2 23.8655 46.9305 0
30 2 24.8394 31.1907 0
31 1 15.3304 53.4041 0
32 1 51.1211 38.4642 0
33 1 60.9811 48.1048 0
34 2 45.1117 9.90923 0
35 1 75.2471 63.65 0
36 1 30.6099 60.4806 0
37 1 22.1846 61.2546 0
38 1 46.6577 20.6249 0
39 1 22.3232 5.46282 0
40 2 24.7151 59.0705 0
41 2 18.4837 64.4807 0
42 1 21.0775 0.961169 0
43 1 18.3595 34.3912 0
44 1 34.785 63.0511 0
45 1 3.25129 34.3821 0
46 1 68.7826 7.74988 0
47 1 74.1557 58.3781 0
48 1 43.71 67.4448 0
49 2 77.2117 4.017 0
50 1 31.0264 66.8355 0
51 1 1.70191 9.83742 0
52 2 32.4752 24.4355 0
53 1 53.9632 17.7547 0
54 1 49.6479 30.5526 0
55 1 9.68748 1.04593 0
56 1 45.917 26.2191 0
57 1 67.3496 42.8154 0
58 1 69.8754 69.1786 0
59 1 33.4916 2.15936 0
60 1 28.7516 3.7522 0
61 1 40.4231 76.0077 0
62 1 52.0107 45.4131 0
63 1 57.0435 10.4076 0
64 1 50.762 46.4856 0
65 1 67.77 73.6261 0
66 2 55.49 11.0303 0
67 2 41.0809 36.2191 0
68 2 0.0055391 28.8984 0
69 1 62.2469 44.842 0
70 1 8.09306 35.2258 0
71 2 7.41572 42.1156 0
72 1 0.688859 4.0227 0
73 1 6.34677 64.0587 0
74 2 41.4677 22.9824 0
75 1 75.1188 53.2588 0
76 1 20.3221 47.277 0
77 1 25.1532 74.4314 0
78 1 4.23553 16.8491 0
79 1 12.1478 73.3728 0
80 1 43.4815 16.9995 0
81 1 54.6821 62.7296 0
82 2 44.355 16.9069 0
83 1 5.87897 32.7883 0
84 1 33.202 45.7961 0
85 1 34.2454 20.0373 0
86 2 34.6311 64.6396 0
87 1 71.4812 34.6907 0
88 1 18.4549 54.6222 0
89 1 27.3331 13.9646 0
90 1 37.8919 38.0997 0
91 2 45.2836 41.4282 0
92 2 41.4215 56.5139 0
93 1 27.4281 16.8712 0
94 1 33.5635 55.6003 0
95 2 40.0844 56.5772 0
96 1 64.4139 1.48251 0
97 1 44.2395 49.4156 0
98 2 2.59589 60.1529 0
99 1 62.0674 47.8191 0
100 2 32.6428 31.1403 0
101 1 47.4619 54.8711 0
102 1 55.9683 21.2247 0
103 1 57.6494 70.4871 0
104 1 2.40281 60.9892 0
105 2 40.5091 3.8926 0
106 2 30.7864 34.9693 0
107 1 13.1238 31.3138 0
108 1 0.10105 1.55203 0
109 1 34.9862 41.7288 0
110 2 64.8228 27.3644 0
111 1 65.8156 11.7773 0
112 1 34.3645 72.5009 0
113 2 0.0382775 60.2076 0
114 2 74.7029 27.7733 0
115 2 30.1989 12.4822 0
116 2 74.3003 53.0653 0
117 1 16.1121 45.9514 0
118 2 46.7414 26.6255 0
119 1 61.5657 76.3996 0
120 2 5.75226 49.6945 0
121 1 6.04899 3.5464 0
122 1 20.1067 33.0275 0
123 2 5.98812 17.517 0
124 1 46.3144 57.7247 0
125 1 31.6206 27.7753 0
126 1 58.4999 51.9 0
127 1 4.2613 59.1516 0
128 1 14.7768 23.5352 0
129 1 16.515 51.9677 0
130 1 7.13112 2.13009 0
131 1 60.5884 24.9294 0
132 2 31.996 41.3537 0
133 2 52.5027 7.07396 0
134 1 65.5984 50.8719 0
135 1 31.818 30.8304 0
136 2 54.8128 47.2992 0
137 1 61.7367 56.4746 0
138 2 70.4388 47.8598 0
139 1 66.7731 27.6669 0
140 1 3.37047 22.0129 0
141 2 48.0405 63.5868 0
142 1 6.53607 22.6689 0
143 2 40.3396 70.1706 0
144 2 47.0213 75.3724 0
145 2 18.1502 52.919 0
146 1 55.0068 4.11475 0
147 1 9.23667 38.6687 0
148 1 46.1423 53.7127 0
149 2 69.1294 48.7405 0
150 1 32.7514 56.4247 0
151 2 29.3059 13.6132 0
152 1 48.7133 63.0098 0
153 2 17.2499 46.2904 0
154 2 32.4839 72.9817 0
155 1 70.3992 48.7264 0
156 1 43.3113 10.4556 0
157 1 48.9445 71.2102 0
158 1 60.1532 69.1675 0
159 2 10.5913 25.9878 0
160 1 37.96 17.465 0
161 1 7.1476 63.4187 0
162 2 73.543 23.8689 0
163 1 30.6563 27.3134 0
164 1 60.6887 29.3637 0
165 1 73.8611 27.464 0
166 1 1.82533 44.6001 0
167 1 39.1743 0.806232 0
168 1 38.1712 72.9372 0
169 1 56.5174 30.9591 0
170 1 56.9425 2.34745 0
171 2 35.9178 60.6444 0
172 2 34.241 53.4464 0
173 2 43.9158 24.392 0
174 2 27.2726 55.8845 0
175 2 31.4121 26.9117 0
176 1 46.3141 16.2574 0
177 1 19.6296 58.499 0
178 1 62.0493 61.6276 0
179 1 65.9786 24.9362 0
180 2 34.1424 39.9142 0
181 1 45.2764 27.7897 0
182 1 61.7301 58.8538 0
183 2 12.5022 37.1906 0
184 1 5.40212 67.3186 0
185 2 67.4288 29.5833 0
186 1 59.2029 34.9865 0
187 1 39.6174 46.7251 0
188 1 57.7259 47.5202 0
189 2 63.3528 52.8432 0
190 1 23.3297 3.8475 0
191 1 71.3984 7.02127 0
192 1 65.3173 10.0287 0
193 2 10.884 41.4308 0
194 2 69.1329 68.6598 0
195 1 11.0798 3.2142 0
196 2 50.3586 54.663 0
197 2 20.2962 9.78107 0
198 1 13.2262 61.0951 0
199 2 74.3904 66.5638 0
200 1 59.2653 28.6049 0
201 2 34.0587 1.49513 0
202 2 74.6457 54.8609 0
203 1 52.1136 65.517 0
204 1 29.7093 4.31897 0
205 1 55.718 25.7714 0
206 2 36.2231 37.2591 0
207 2 13.8111 8.61973 0
208 1 33.4861 14.0298 0
209 1 11.9956 11.571 0
210 2 5.38373 20.4771 0
211 1 17.1369 7.99655 0
212 2 24.6828 6.2449 0
213 2 55.3802 27.8354 0
214 1 71.2633 57.7305 0
215 2 66.5383 22.0982 0
216 1 20.6665 73.32 0
217 1 59.5191 33.9691 0
218 2 55.5354 58.0565 0
219 2 67.9428 42.1497 0
220 2 42.9387 63.9459 0
221 1 18.8506 45.0429 0
222 1 44.8551 12.7358 0
223 2 38.8271 67.5068 0
224 2 27.6232 68.729 0
225 1 32.2552 23.4976 0
226 2 67.3077 57.2559 0
227 2 6.48834 16.0461 0
228 1 35.4835 9.51124 0
229 1 69.7935 27.2578 0
230 1 34.2302 74.4234 0
231 1 10.7457 34.2928 0
232 1 42.0582 12.6964 0
233 1 34.441 8.07594 0
234 1 75.3905 7.93491 0
235 1 60.6691 59.1049 0
236 2 44.6638 70.2188 0
237 1 0.239209 62.6559 0
238 2 9.30749 21.4659 0
239 1 59.6764 3.1235 0
240 2 61.8908 45.8027 0
241 1 47.1966 66.7059 0
242 1 18.2475 30.5885 0
243 1 6.93911 56.3409 0
244 1 61.0007 64.4888 0
245 1 10.9935 30.7434 0
246 1 1.83862 35.465 0
247 1 65.4677 49.8284 0
248 1 12.485 0.66338 0
249 2 50.4681 41.3997 0
250 1 29.9046 9.61902 0
251 2 58.1263 49.9802 0
252 2 66.8726 23.5622 0
253 1 20.0319 17.5065 0
254 1 54.3988 24.5403 0
255 1 65.5808 42.7314 0
256 1 32.4841 7.24884 0
257 1 22.0897 57.7156 0
258 1 25.4969 38.0492 0
259 1 55.8044 56.1374 0
260 2 44.165 54.0494 0
261 2 26.3828 62.5406 0
262 1 24.0955 32.9802 0
263 2 12.65 34.6952 0
264 2 71.9878 59.5369 0
265 1 76.9002 46.4719 0
266 1 38.3012 44.9818 0
267 2 60.7391 24.1179 0
268 2 56.792 45.7128 0
269 1 47.2455 19.7455 0
270 2 8.95065 46.9933 0
271 2 23.5096 34.5204 0
272 2 20.5131 14.2185 0
273 1 14.9216 65.0315 0
274 1 32.5457 50.0866 0
275 1 8.54432 48.9408 0
276 1 75.0319 10.3039 0
277 2 15.6221 71.3142 0
278 1 7.71299 17.5958 0
279 1 4.4214 44.2917 0
280 1 18.9032 37.2198 0
281 1 30.9339 38.048 0
282 2 75.9328 28.946 0
283 1 76.5123 55.5765 0
284 2 54.2398 38.5171 0
285 1 70.6412 53.0984 0
286 1 11.2381 63.0415 0
287 1 19.1225 76.7418 0
288 2 75.6352 5.01239 0
289 2 21.7657 39.2261 0
290 2 67.7634 75.5034 0
291 1 33.974 22.2247 0
292 1 27.5318 58.4622 0
293 1 46.603 18.8715 0
294 1 40.0998 2.20656 0
295 1 69.4689 3.39548 0
296 2 73.168 9.05873 0
297 1 40.9177 58.9634 0
298 1 72.5313 34.8979 0
299 2 49.816 35.5946 0
300 1 39.48 43.928 0
301 1 72.941 19.2869 0
302 1 51.0552 35.4629 0
303 1 21.3343 31.9509 0
304 1 61.1952 70.5672 0
305 2 57.9121 76.9798 0
306 1 62.6707 52.2378 0
307 2 73.1159 38.566 0
308 1 41.4959 5.43779 0
309 2 24.9963 16.9021 0
310 2 13.3086 13.0246 0
311 1 29.4337 49.5681 0
312 1 67.2874 61.9097 0
313 1 74.0137 0.660098 0
314 1 40.8048 46.3116 0
315 2 56.1968 31.7465 0
316 2 39.4399 63.1757 0
317 1 50.7494 20.859 0
318 2 6.9951 31.2289 0
319 1 30.9212 26.1963 0
320 1 36.0987 62.179 0
321 1 57.9214 68.7593 0
322 2 73.9017 11.5139 0
323 2 25.031 63.4275 0
324 1 64.6437 41.2 0
325 1 40.9113 7.01476 0
326 1 9.70351 58.6964 0
327 1 49.4723 56.6782 0
328 1 0.61648 36.8159 0
329 1 41.909 42.8856 0
330 2 51.8698 35.0744 0
331 2 69.1475 2.54151 0
332 1 58.9937 29.6413 0
333 1 37.4302 13.3456 0
334 1 17.4527 35.0994 0
335 1 20.9733 38.7141 0
336 2 72.7382 74.8809 0
337 1 35.013 34.0249 0
338 2 17.1623 1.49826 0
339 1 41.6253 67.9527 0
340 1 18.8339 57.7833 0
341 2 74.0208 44.0703 0
342 1 66.7789 5.6968 0
343 2 56.8814 49.7628 0
344 2 22.7468 65.8582 0
345 1 8.01877 27.8969 0
346 1 17.7401 71.7493 0
347 1 35.7249 56.5918 0
348 1 57.8826 18.664 0
349 1 33.3623 20.6107 0
350 1 37.3527 31.402 0
351 1 17.8587 53.7309 0
352 1 47.6555 31.079 0
353 1 74.38 26.516 0
354 2 22.9501 26.005 0
355 2 43.328 17.8798 0
356 2 11.6764 2.62815 0
357 1 68.9268 67.3869 0
358 1 24.4176 3.63728 0
359 1 22.3612 14.569 0
360 2 45.1093 31.5935 0
361 2 48.054 67.049 0
362 1 27.2767 74.3891 0
363 2 37.8632 73.72 0
364 1 13.1515 66.3234 0
365 2 8.59209 56.9715 0
366 1 24.9018 50.4665 0
367 2 19.7771 23.4626 0
368 2 51.8567 54.8038 0
369 2 65.7756 70.8147 0
370 1 3.33296 27.9204 0
371 1 45.7619 73.375 0
372 2 39.6553 9.3914 0
373 1 10.6794 31.763 0
374 2 66.645 41.0633 0
375 1 51.4388 53.1476 0
376 2 75.4247 43.0055 0
377 2 58.2282 37.6305 0
378 1 20.3629 63.5136 0
379 1 14.0431 20.3309 0
380 1 9.80786 62.2932 0
381 1 27.0889 23.514 0
382 1 30.6255 23.9205 0
383 1 9.51341 11.8036 0
384 1 35.1241 51.7825 0
385 1 28.7641 76.9343 0
386 1 55.1312 40.5269 0
387 1 58.7481 76.7681 0
388 2 56.4862 56.8015 0
389 1 24.4671 56.5354 0
390 1 28.4399 13.5396 0
391 2 58.7804 26.0789 0
392 2 30.6336 9.17847 0
393 2 38.676 64.719 0
394 1 10.3366 73.7878 0
395 1 53.1579 21.9106 0
396 1 13.8198 70.3818 0
397 1 46.9102 17.1607 0
398 1 45.3667 70.7228 0
399 1 69.7803 18.0689 0
400 1 57.8775 74.95 0
401 1 44.4926 11.692 0
402 2 56.0352 15.8091 0
403 1 38.3185 51.8227 0
404 1 70.37 70.9049 0
405 2 74.2408 77.2097 0
406 1 33.9209 19.0685 0
407 2 45.0197 20.9465 0
408 1 63.2132 30.1781 0
409 1 18.4695 61.0665 0
410 2 67.4257 16.5718 0
411 2 66.5327 36.2261 0
412 1 59.0174 38.1767 0
413 1 6.92262 36.4787 0
414 1 71.3657 48.2539 0
415 1 6.97362 41.3908 0
416 2 74.5663 63.0417 0
417 2 75.3002 12.2858 0
418 1 54.1344 30.0875 0
419 2 57.0161 47.1106 0
420 2 24.8819 55.766 0
421 1 61.0252 18.1869 0
422 1 2.11859 70.4077 0
423 1 4.50343 11.3022 0
424 1 61.757 26.171 0
425 1 59.336 50.2799 0
426 1 56.1313 74.115 0
427 2 39.4936 15.3668 0
428 1 51.914 51.0725 0
429 1 60.1937 70.8938 0
430 1 37.05 37.345 0
431 1 1.00169 30.7964 0
432 1 63.8616 49.0536 0
433 1 29.3541 68.7639 0
434 1 1.65087 42.7629 0
435 1 64.1342 34.0224 0
436 2 67.9245 38.8735 0
437 2 44.8916 59.8848 0
438 1 39.0448 62.3444 0
439 2 42.5502 12.0321 0
440 1 43.6692 44.2129 0
441 2 68.2151 13.863 0
442 1 9.50836 37.6778 0
443 1 54.5902 16.9483 0
444 1 16.8048 75.2219 0
445 2 69.8206 67.1569 0
446 1 61.4783 41.698 0
447 1 26.9372 70.6162 0
448 1 46.9971 37.9791 0
449 1 37.0158 73.5691 0
450 2 48.3702 59.8346 0
451 2 6.34835 61.6137 0
452 1 66.4669 10.8078 0
453 1 28.7807 75.6229 0
454 2 62.3875 29.8356 0
455 2 26.3529 67.8708 0
456 1 11.2591 44.4873 0
457 2 18.6061 1.73263 0
458 1 37.8422 77.2487 0
459 2 15.5419 56.4662 0
460 1 5.66922 4.50093 0
461 2 28.2259 29.5967 0
462 1 45.8347 24.4999 0
463 1 76.6622 70.2601 0
464 1 8.96487 47.8929 0
465 2 40.8265 45.4471 0
466 1 21.8219 12.8055 0
467 2 11.5545 0.847649 0
468 1 17.9943 37.8416 0
469 1 1.11207 1.93925 0
470 1 61.7212 10.7264 0
471 2 73.7632 40.6862 0
472 1 25.0307 42.535 0
473 1 61.4555 66.0797 0
474 1 32.9709 54.7586 0
475 1 22.4132 59.5742 0
476 2 39.0555 32.2467 0
477 1 60.4839 11.8352 0
478 2 34.0079 75.3129 0
479 1 33.0886 22.8088 0
480 1 20.0156 25.5302 0
481 1 7.23162 18.5611 0
482 1 11.0017 25.1812 0
483 2 0.379218 2.36925 0
484 1 14.658 38.3577 0
485 1 21.2777 57.0615 0
486 1 7.31973 4.85971 0
487 2 69.4392 9.85672 0
488 1 57.9183 6.58308 0
489 1 52.3902 15.2163 0
490 1 35.6006 31.4698 0
491 1 31.2422 41.7936 0
492 2 61.0483 10.1691 0
493 1 71.7685 8.14382 0
494 1 67.7304 31.4444 0
495 2 22.1188 48.7231 0
496 2 52.9977 42.5067 0
497 2 41.5829 7.57665 0
498 1 23.8627 25.5421 0
499 1 36.3945 76.2681 0
500 1 3.33432 3.68658 0
501 2 45.6488 43.8943 0
502 1 17.258 25.0028 0
503 1 50.1903 9.7466 0
504 1 37.268 32.9423 0
505 2 26.0483 0.489446 0
506 2 17.4113 65.017 0
507 1 42.4523 37.6171 0
508 1 12.7792 32.6522 0
509 1 29.4034 25.4367 0
510 1 6.90499 38.6032 0
511 1 68.3859 27.9644 0
512 1 54.9784 53.6196 0
513 1 11.9124 34.2724 0
514 1 25.2419 64.2922 0
515 2 61.3013 11.595 0
516 2 11.1901 38.4067 0
517 2 74.7828 74.6033 0
518 2 19.0219 53.974 0
519 2 32.6717 2.23529 0
520 1 74.2225 36.987 0
521 1 42.0751 24.6832 0
522 2 24.172 66.0237 0
523 1 77.3617 11.7478 0
524 1 70.4015 34.2827 0
525 1 22.9111 77.3857 0
526 2 0.372941 21.7804 0
527 1 49.4548 26.2771 0
528 2 74.0942 4.01528 0
529 2 34.7886 46.1774 0
530 1 7.97948 59.4387 0
531 2 75.0257 70.4926 0
532 2 32.8527 61.3957 0
533 1 72.2462 5.63681 0
534 1 34.3057 26.9891 0
535 1 28.9387 18.9687 0
536 1 32.5871 65.9953 0
537 1 35.2799 48.0571 0
538 2 16.6563 21.6857 0
539 2 45.8686 76.8864 0
540 1 60.6879 40.2162 0
541 2 25.4082 7.46938 0
542 1 51.5581 56.8873 0
543 2 69.5125 55.8946 0
544 2 52.0214 10.5722 0
545 1 28.8569 23.7237 0
546 1 33.8382 3.77071 0
547 1 10.197 14.4964 0
548 2 23.7596 3.0756 0
549 2 64.2985 23.0129 0
550 2 5.14807 39.2615 0
551 1 29.9322 8.62621 0
552 2 70.4722 40.0859 0
553 2 29.9535 44.9091 0
554 1 52.8357 62.5781 0
555 1 50.5808 56.794 0
556 1 72.428 68.115 0
557 1 62.6212 53.3639 0
558 1 2.8346 68.4795 0
559 1 72.4614 36.0045 0
560 2 21.33 61.3096 0
561 1 6.10698 1.45857 0
562 2 5.34363 11.3733 0
563 2 54.4407 48.7488 0
564 1 70.6694 67.5029 0
565 2 21.8806 1.27663 0
566 2 18.2524 23.8484 0
567 1 48.9017 42.525 0
568 2 22.8637 74.2354 0
569 2 15.9487 27.2117 0
570 1 73.1195 34.0209 0
571 1 1.03694 2.94985 0
572 2 6.54313 48.3903 0
573 2 77.3525 44.7325 0
574 1 3.8832 68.1645 0
575 1 18.2597 7.70401 0
576 1 16.472 62.9642 0
577 1 43.5998 50.9331 0
578 2 67.5875 33.9259 0
579 2 45.1842 68.5778 0
580 1 62.435 41.9783 0
581 1 6.54192 60.6915 0
582 2 69.2636 60.2334 0
583 2 64.1307 59.0071 0
584 2 33.4454 65.5549 0
585 1 60.16 76.7865 0
586 1 48.8432 59.0018 0
587 2 14.9417 21.8599 0
588 1 49.3969 5.35856 0
589 2 53.8624 10.2204 0
590 1 24.764 73.4231 0
591 1 55.8602 7.0093 0
592 1 48.3064 74.2498 0
593 1 44.0254 13.3207 0
594 1 59.9119 63.0743 0
595 1 72.4361 65.1679 0
596 2 7.03917 1.27717 0
597 1 3.4677 43.789 0
598 1 68.697 9.42877 0
599 1 2.58874 51.0068 0
600 1 0.0483603 47.3083 0
601 2 42.5003 36.7304 0
602 1 62.2948 14.4646 0
603 2 70.7406 51.0909 0
604 2 62.6799 16.2361 0
605 1 52.0735 68.8934 0
606 1 41.3878 3.98997 0
607 1 75.6054 2.00083 0
608 2 1.23015 40.1998 0
609 2 40.7543 0.446019 0
610 1 7.76105 49.6623 0
611 1 54.8815 58.708 0
612 1 76.8234 7.0873 0
613 1 0.201065 22.6451 0
614 2 50.4014 28.6024 0
615 1 34.6814 39.2685 0
616 1 39.6905 16.2538 0
617 1 68.3516 0.928563 0
618 2 11.797 42.8115 0
619 2 54.3132 42.4402 0
620 2 71.3401 74.1156 0
621 2 57.896 35.9198 0
622 1 60.553 17.1926 0
623 1 38.0715 11.5213 0
624 2 20.3895 54.721 0
625 1 26.9676 76.2993 0
626 1 74.1555 28.4522 0
627 2 1.99188 25.4528 0
628 1 28.5243 58.0652 0
629 2 77.1497 26.3186 0
630 1 29.1549 72.9137 0
631 1 57.2979 37.6408 0
632 1 21.4831 64.8082 0
633 2 25.6565 71.8979 0
634 1 18.9383 50.4567 0
635 2 41.7504 43.8967 0
636 2 37.2329 40.8853 0
637 1 10.5181 11.3893 0
638 1 67.4122 40.6917 0
639 1 70.0001 45.9967 0
640 1 0.297159 53.8675 0
641 1 36.7631 33.9521 0
642 1 9.64096 33.7241 0
643 1 50.9362 45.4609 0
644 2 19.7226 27.4325 0
645 1 57.4189 52.2376 0
646 1 46.8492 47.2203 0
647 2 23.5928 10.0055 0
648 1 64.2223 12.3963 0
649 2 10.8693 68.7977 0
650 2 46.7838 62.5222 0
651 1 46.1359 12.4124 0
652 1 29.6675 70.4053 0
653 2 13.921 23.354 0
654 2 10.1837 3.71498 0
655 1 5.49238 51.5749 0
656 1 72.4468 53.8289 0
657 1 33.9177 46.5447 0
658 1 71.3388 12.8259 0
659 2 1.03817 66.2661 0
660 1 26.0973 35.8942 0
661 1 37.0177 10.2008 0
662 1 32.6259 60.5703 0
663 1 10.8322 28.576 0
664 1 57.9998 76.0174 0
665 2 48.9666 76.9289 0
666 2 12.7042 57.9946 0
667 1 26.4247 73.702 0
668 2 7.62287 76.179 0
669 1 4.50556 9.21286 0
670 2 44.0423 37.7093 0
671 2 37.0404 17.6373 0
672 1 9.93392 19.727 0
673 1 7.35927 15.9401 0
674 1 33.0228 43.0035 0
675 2 5.5762 57.6811 0
676 2 38.7228 6.36207 0
677 1 41.5092 54.5227 0
678 1 53.7983 39.2573 0
679 1 45.9127 68.9934 0
680 1 31.7442 53.7013 0
681 1 26.3673 54.0616 0
682 1 62.3251 59.7104 0
683 1 17.898 59.1816 0
684 1 65.0677 69.1196 0
685 2 35.6353 18.6458 0
686 1 50.6351 5.41962 0
687 1 41.4307 18.9688 0
688 2 53.5399 73.7888 0
689 1 72.8253 61.9228 0
690 1 66.4407 72.4214 0
691 1 41.8084 40.114 0
692 2 59.9987 43.7383 0
693 1 72.263 77.3234 0
694 2 53.5546 64.2833 0
695 1 42.4928 11.1319 0
696 2 35.8003 47.2822 0
697 1 24.8803 12.8044 0
698 1 8.29781 3.40982 0
699 1 66.5779 13.5851 0
700 1 71.9593 46.7431 0
701 1 63.9267 30.9848 0
702 1 63.4886 65.6956 0
703 2 72.1577 1.48936 0
704 2 8.16181 61.1215 0
705 2 4.90474 7.28483 0
706 1 52.7654 51.7345 0
707 2 59.9249 38.4884 0
708 1 50.4906 43.3022 0
709 1 51.5992 73.2825 0
710 2 59.5325 27.7007 0
711 1 56.5429 54.2587 0
712 2 62.9673 32.5014 0
713 2 68.6323 70.2901 0
714 2 77.3223 65.1311 0
715 1 44.6279 18.8426 0
716 1 0.341864 29.8 0
717 1 29.8155 63.4407 0
718 1 13.5724 3.13349 0
719 1 53.232 37.0639 0
720 2 49.2739 38.9941 0
721 2 66.8488 39.4249 0
722 1 48.9749 8.05658 0
723 2 39.8361 75.4566 0
724 2 10.4352 59.3413 0
725 1 50.9566 39.7241 0
726 1 8.34613 29.7792 0
727 2 12.8928 1.56871 0
728 1 66.6422 56.6561 0
729 2 21.5487 59.5718 0
730 1 32.7622 27.7601 0
731 2 16.8034 36.363 0
732 1 16.3494 54.0941 0
733 1 30.1003 30.1849 0
734 2 66.4526 46.1149 0
735 1 67.2415 67.152 0
736 1 47.4091 49.7947 0
737 2 4.0742 45.5673 0
738 1 13.4896 34.6579 0
739 1 17.2239 37.0707 0
740 1 48.5753 38.5327 0
741 2 57.8718 55.6251 0
742 1 58.9709 37.1061 0
743 1 27.1857 62.1121 0
744 2 72.239 18.821 0
745 1 23.1975 72.6076 0
746 1 35.4395 10.5966 0
747 1 47.4013 76.1421 0
748 2 43.0255 69.8996 0
749 2 22.7688 24.2795 0
750 1 55.3434 35.0786 0
751 1 57.5909 40.1337 0
752 2 1.59318 71.263 0
753 1 53.2911 40.1416 0
754 2 21.7429 15.3079 0
755 1 24.1419 49.7411 0
756 2 49.2359 75.9177 0
757 1 48.2456 19.4511 0
758 1 6.25942 9.69999 0
759 1 62.1624 46.7212 0
760 1 12.0615 10.5182 0
761 1 70.5652 72.0451 0
762 1 15.1828 57.284 0
763 2 76.0773 7.45659 0
764 1 74.5338 55.7383 0
765 2 47.0338 57.3498 0
766 1 64.5699 22.18 0
767 1 13.6732 0.966129 0
768 1 64.7164 7.96659 0
769 1 62.1848 49.4937 0
770 2 58.7572 72.038 0
771 1 18.8828 40.2168 0
772 1 45.2295 51.3589 0
773 1 40.9529 43.5623 0
774 2 32.9793 25.8578 0
775 1 71.5636 31.1903 0
776 2 44.4922 42.9906 0
777 1 70.3599 55.7966 0
778 2 10.4204 62.8558 0
779 1 45.2208 25.3715 0
780 1 17.1896 6.11446 0
781 1 30.5578 35.7825 0
782 1 57.0252 65.0448 0
783 1 60.7812 35.1235 0
784 1 70.9971 50.2723 0
785 2 8.83613 11.311 0
786 1 73.4963 69.8591 0
787 1 20.7667 66.3167 0
788 1 39.9572 55.2083 0
789 1 10.8647 4.18603 0
790 1 51.8483 70.0746 0
791 1 45.6807 13.3522 0
792 1 8.73263 24.9634 0
793 1 25.0414 15.4076 0
794 2 70.7866 15.9593 0
795 2 75.6538 13.7964 0
796 2 76.726 68.0725 0
797 1 44.289 65.7686 0
798 1 37.8094 19.4026 0
799 1 44.2284 76.524 0
800 1 31.0413 70.9535 0
801 2 6.65214 25.9783 0
802 2 28.3417 45.5955 0
803 2 23.6481 76.8901 0
804 2 52.7612 36.3158 0
805 1 23.8401 71.7948 0
806 1 52.5429 70.9218 0
807 2 39.8938 50.7887 0
808 1 50.4628 48.1039 0
809 2 36.9239 62.0195 0
810 1 57.6868 0.369329 0
811 1 28.6241 60.9194 0
812 2 60.1156 47.8711 0
813 2 46.1964 58.5625 0
814 1 54.3061 31.26 0
815 2 40.6523 17.3215 0
816 1 27.1548 35.7606 0
817 1 68.6865 75.3503 0
818 2 36.3129 16.5631 0
819 2 45.6486 57.2107 0
820 1 67.7284 69.9708 0
821 1 16.6462 64.621 0
822 1 56.1242 77.0394 0
823 1 17.1875 55.6129 0
824 2 35.558 41.0495 0
825 1 29.1806 42.196 0
826 1 34.2543 76.1598 0
827 1 7.57262 26.1265 0
828 1 76.896 51.0609 0
829 1 71.9716 39.9519 0
830 2 47.7585 64.9072 0
831 2 43.2258 4.47886 0
832 1 73.2632 13.1729 0
833 1 26.154 44.1907 0
834 2 48.4837 5.63162 0
835 1 67.8285 5.91642 0
836 1 58.1043 26.7204 0
837 1 56.5866 41.5472 0
838 1 38.9328 53.2527 0
839 1 15.8911 60.1081 0
840 2 15.7083 46.7823 0
841 1 36.9364 52.753 0
842 2 10.9801 61.0362 0
843 1 5.47775 42.2283 0
844 1 62.4005 21.5227 0
845 2 28.0631 3.18687 0
846 1 49.6647 39.8442 0
847 1 10.8063 57.4611 0
848 2 69.0643 47.3265 0
849 1 74.0457 10.6778 0
850 1 67.6477 19.7786 0
851 1 39.207 19.0474 0
852 1 11.9117 1.6507 0
853 1 42.5009 61.5584 0
854 1 36.9015 70.6809 0
855 1 39.5025 25.9303 0
856 2 18.4383 41.9944 0
857 1 57.8286 34.0434 0
858 2 34.6972 29.2829 0
859 1 13.213 64.6538 0
860 2 2.13287 58.5387 0
861 2 59.896 39.7991 0
862 2 3.51258 69.0084 0
863 1 59.8309 24.2474 0
864 1 60.8309 53.3205 0
865 2 66.6022 67.8439 0
866 1 60.1894 16.2747 0
867 2 32.3413 22.4011 0
868 1 36.5234 61.2132 0
869 1 62.1097 19.8545 0
870 1 0.0984816 52.791 0
871 1 63.4341 25.8333 0
872 1 42.5263 51.2042 0
873 1 50.3793 62.6951 0
874 1 4.16679 71.8249 0
875 1 33.1346 57.3862 0
876 2 51.354 7.9485 0
877 1 13.3886 55.2539 0
878 2 14.8011 16.0924 0
879 1 76.5502 13.8633 0
880 2 32.067 33.7026 0
881 2 51.8743 29.4287 0
882 2 47.7429 73.6347 0
883 1 26.4224 19.7994 0
884 1 55.9812 36.5463 0
885 1 39.7082 4.35321 0
886 1 36.6313 60.1872 0
887 2 55.1037 50.0853 0
888 1 0.526953 76.8463 0
889 2 59.6297 49.4884 0
890 2 7.94865 25.3767 0
891 1 37.9851 10.485 0
892 1 39.7259 67.7706 0
893 1 30.035 53.6188 0
894 1 77.2227 14.6551 0
895 2 32.562 54.0399 0
896 1 37.2201 2.78409 0
897 2 35.4458 17.0506 0
898 1 31.0076 43.4241 0
899 1 1.82882 75.7511 0
900 2 38.4805 0.348865 0
901 1 53.6702 41.8931 0
902 1 24.532 75.2348 0
903 1 38.1247 40.9128 0
904 2 77.4008 37.4905 0
905 1 63.6772 62.2985 0
906 1 68.8025 44.5789 0
907 1 3.38803 29.4775 0
908 1 50.1645 23.6397 0
909 1 0.248473 48.4236 0
910 2 1.72573 50.6194 0
911 2 4.83521 4.78833 0
912 2 36.3827 33.0479 0
913 2 32.918 52.3263 0
914 1 18.3284 12.9679 0
915 2 64.6978 4.96547 0
916 1 3.36365 39.7482 0
917 2 5.07922 33.3255 0
918 2 19.5873 36.0752 0
919 1 8.02421 57.6193 0
920 1 15.8385 47.6234 0
921 1 0.530281 26.9015 0
922 2 49.1243 19.0116 0
923 2 12.3425 24.2716 0
924 1 38.9337 18.0434 0
925 1 66.1076 47.0274 0
926 2 35.8018 35.617 0
927 1 69.481 0.746095 0
928 1 53.3321 58.7451 0
929 2 52.092 32.1615 0
930 2 20.0228 15.8298 0
931 1 40.905 48.043 0
932 1 70.2145 38.6533 0
933 1 35.0007 22.7035 0
934 1 1.70882 60.1767 0
935 1 11.2978 50.5356 0
936 2 41.8626 4.64481 0
937 1 13.93 73.1392 0
938 1 36.2859 67.5677 0
939 2 49.9359 51.9322 0
940 1 75.8737 46.5957 0
941 1 1.23319 17.9031 0
942 1 38.1332 29.9881 0
943 2 22.4951 16.787 0
944 2 1.8958 41.8784 0
945 1 40.3725 25.3921 0
946 1 64.7738 67.3172 0
947 2 25.0636 1.83019 0
948 1 38.9681 68.386 0
949 1 26.3275 11.2967 0
950 2 5.2099 9.77215 0
951 1 69.7671 65.3941 0
952 2 52.4773 2.78472 0
953 2 7.8167 44.752 0
954 2 29.5949 62.5777 0
955 1 27.1437 38.3152 0
956 2 58.5996 11.4694 0
957 1 48.2365 23.642 0
958 2 19.6037 2.59137 0
959 2 73.5533 26.6458 0
960 2 29.0973 66.7283 0
961 1 48.1192 54.0934 0
962 1 24.3549 1.27075 0
963 1 17.3175 12.5868 0
964 2 8.7739 9.56293 0
965 2 54.3285 53.0033 0
966 1 0.94746 63.4518 0
967 1 49.0948 35.0574 0
968 1 18.3844 77.4594 0
969 1 58.8587 24.0046 0
970 2 22.5284 4.56777 0
971 1 21.3502 14.5034 0
972 1 7.09962 25.1859 0
973 1 0.78318 35.6874 0
974 2 0.87827 34.8547 0
975 2 73.2833 65.3479 0
976 2 33.3983 19.7764 0
977 1 36.9164 62.9301 0
978 2 5.87444 0.553468 0
979 2 36.009 65.6085 0
980 1 73.7758 14.1161 0
981 1 73.9485 57.3343 0
982 1 7.59394 54.7162 0
983 1 18.2761 24.7423 0
984 1 9.06155 57.6554 0
985 1 35.2004 11.5972 0
986 1 37.9888 52.806 0
987 2 18.1764 12.0743 0
988 2 42.6015 35.2665 0
989 2 9.77154 34.6749 0
990 2 70.1719 52.3813 0
991 2 46.1632 14.9388 0
992 1 62.4051 34.407 0
993 2 28.3131 5.78581 0
994 2 1.8935 54.7659 0
995 1 38.4609 22.6291 0
996 2 55.064 56.6281 0
997 2 43.5438 30.8293 0
998 2 59.5144 74.8277 0
999 2 39.2794 26.7853 0
1000 2 0.290812 49.3417 0
1001 1 41.6159 65.2917 0
1002 1 24.2231 34.0722 0
1003 1 9.37363 54.1323 0
1004 1 7.61823 22.4641 0
1005 2 10.9553 23.5732 0
1006 2 67.7331 61.1419 0
1007 1 19.0844 20.1337 0
1008 1 47.968 16.8792 0
1009 1 31.2284 33.3048 0
1010 1 11.2638 43.4515 0
1011 2 10.6804 22.2733 0
1012 2 2.87684 23.8872 0
1013 2 65.923 57.2768 0
1014 1 74.201 15.0687 0
1015 1 75.1065 9.22322 0
1016 1 37.3675 48.1549 0
1017 2 68.431 54.4838 0
1018 1 25.6904 25.8222 0
1019 1 44.3586 29.063 0
1020 2 31.3704 7.49153 0
1021 2 16.4215 24.5214 0
1022 1 4.57785 60.9201 0
1023 1 40.4969 9.55537 0
1024 1 9.43958 67.5328 0
1025 1 36.9573 65.6611 0
1026 1 8.00061 39.9522 0
1027 1 47.2886 2.52953 0
1028 1 1.76475 32.525 0
1029 1 48.4883 18.4789 0
1030 2 46.9614 48.1093 0
1031 2 37.9069 37.2513 0
1032 1 16.3636 73.1191 0
1033 1 58.0115 19.8269 0
1034 1 35.4507 29.709 0
1035 1 65.2644 28.1334 0
1036 2 73.4749 45.6688 0
1037 1 30.8405 73.1306 0
1038 1 69.4025 61.0953 0
1039 1 4.83937 31.3275 0
1040 2 65.0202 34.0553 0
1041 1 35.3062 65.1533 0
1042 2 62.5047 68.3496 0
1043 2 61.1089 58.3335 0
1044 1 71.0957 24.2827 0
1045 1 68.4213 24.531 0
1046 1 40.6366 68.2377 0
1047 2 9.8476 47.6911 0
1048 1 53.0896 0.066665 0
1049 1 60.1791 48.8389 0
1050 2 45.4361 6.61444 0
1051 1 43.5027 31.8831 0
1052 1 65.9874 44.2767 0
1053 2 32.453 18.2648 0
1054 1 54.2569 6.11355 0
1055 2 33.0526 46.712 0
1056 2 14.5906 45.3295 0
1057 1 12.0973 71.567 0
1058 1 27.4113 5.64357 0
1059 1 9.19689 75.2614 0
1060 2 21.8454 42.2452 0
1061 1 10.2702 23.0698 0
1062 2 16.7898 41.1853 0
1063 1 0.264297 68.0407 0
1064 1 23.3141 4.95023 0
1065 2 29.8116 52.7603 0
1066 1 37.5141 46.333 0
1067 1 13.951 10.5809 0
1068 2 35.4794 67.1402 0
1069 1 67.7615 23.6765 0
1070 2 7.96615 34.3595 0
1071 2 49.6403 43.0169 0
1072 2 9.34921 48.6502 0
1073 2 15.1732 3.28325 0
1074 2 33.1428 43.9475 0
1075 1 75.8167 49.5603 0
1076 1 41.0389 8.19519 0
1077 1 41.9433 32.6311 0
1078 2 71.7018 27.7381 0
1079 2 38.8374 10.2816 0
1080 2 29.9983 72.5691 0
1081 2 45.955 48.9449 0
1082 2 6.3676 27.6196 0
1083 2 21.7797 20.0883 0
1084 1 43.6728 58.43 0
1085 1 19.3856 52.1601 0
1086 1 70.2506 66.3745 0
1087 1 29.6552 71.7814 0
1088 1 45.1919 63.7329 0
1089 2 8.23004 31.4689 0
1090 1 43.2947 34.8887 0
1091 2 27.6788 17.7489 0
1092 1 63.618 53.6584 0
1093 1 69.009 32.5588 0
1094 2 43.6595 55.4161 0
1095 1 25.3647 71.103 0
1096 2 47.5547 18.8228 0
1097 1 76.3083 16.4994 0
1098 1 63.0251 43.3335 0
1099 1 31.8356 5.66232 0
1100 1 68.4562 3.78252 0
1101 1 74.8702 11.4733 0
1102 1 26.2131 74.7022 0
1103 1 51.3795 71.0719 0
1104 1 47.2397 58.2447 0
1105 1 48.1213 40.5561 0
1106 1 16.5262 71.2332 0
1107 2 45.19 62.8265 0
1108 1 55.4452 31.2377 0
1109 1 72.7583 24.291 0
1110 2 14.8345 11.9203 0
1111 1 2.55817 56.9103 0
1112 1 76.3774 19.1919 0
1113 2 74.7626 7.40947 0
1114 2 15.5967 52.6126 0
1115 2 33.1497 49.485 0
1116 1 76.8418 65.8584 0
1117 1 67.007 55.6043 0
1118 1 12.8414 75.1702 0
1119 2 11.1145 64.1926 0
1120 1 41.8473 58.5252 0
1121 2 21.0484 64.0451 0
1122 1 32.1961 32.8538 0
1123 2 23.0641 51.7025 0
1124 1 51.8207 62.8478 0
1125 2 15.0881 4.61212 0
1126 2 15.7317 20.0106 0
1127 1 75.3191 24.5885 0
1128 1 67.204 53.1897 0
1129 1 60.4686 39.1711 0
1130 1 30.655 47.3822 0
1131 1 62.6784 15.4015 0
1132 2 75.951 64.259 0
1133 2 56.8242 21.0469 0
1134 2 20.906 72.3363 0
1135 1 1.24539 68.5173 0
1136 2 51.1373 27.0684 0
1137 1 51.837 61.2018 0
1138 1 30.1819 13.3494 0
1139 2 58.1144 52.6564 0
1140 2 9.2304 22.8328 0
1141 1 74.535 67.5018 0
1142 1 27.0631 52.2235 0
1143 1 48.3152 44.9227 0
1144 2 57.9825 17.7444 0
1145 1 37.5148 61.4234 0
1146 1 15.6706 18.976 0
1147 1 28.3511 25.8126 0
1148 1 10.8052 36.5295 0
1149 1 57.3224 29.3762 0
1150 2 65.4895 61.4243 0
1151 1 22.1545 3.72502 0
1152 1 60.3421 51.675 0
1153 1 72.3965 28.3209 0
1154 1 13.6778 4.25437 0
1155 2 58.4133 20.5728 0
1156 1 44.4949 32.2972 0
1157 1 12.4021 18.1831 0
1158 2 58.6504 47.6382 0
1159 2 5.62173 70.6639 0
1160 1 34.348 9.27181 0
1161 2 44.2181 56.7013 0
1162 1 16.3899 9.89441 0
1163 2 13.0433 73.2255 0
1164 1 23.8635 58.6377 0
1165 1 20.4755 46.2235 0
1166 2 16.0883 51.1466 0
1167 1 27.9746 21.0003 0
1168 1 56.1472 64.4594 0
1169 1 19.5143 66.6757 0
1170 2 6.07107 34.6069 0
1171 1 48.6231 34.148 0
1172 1 22.8303 6.61383 0
1173 1 51.6502 63.8289 0
1174 1 38.9897 29.3903 0
1175 2 62.8732 44.1871 0
1176 1 68.6442 37.1491 0
1177 1 47.7368 70.0107 0
1178 2 61.425 47.2107 0
1179 1 71.3995 33.6286 0
1180 1 52.0172 17.0745 0
1181 1 53.6608 23.5599 0
1182 1 60.7796 73.7604 0
1183 2 42.8767 73.2659 0
1184 2 28.914 22.8578 0
1185 1 17.5354 63.068 0
1186 1 48.5823 49.3495 0
1187 1 74.4299 72.4736 0
1188 2 4.67976 37.6398 0
1189 1 60.5658 65.4248 0
1190 1 28.4405 51.3487 0
1191 2 71.5708 5.1876 0
1192 1 25.6746 47.5204 0
1193 1 47.6045 17.9613 0
1194 2 16.6354 16.036 0
1195 1 74.1424 48.7254 0
1196 1 21.8586 49.5825 0
1197 1 35.7491 39.161 0
1198 1 62.2769 74.7576 0
1199 2 57.1323 62.6247 0
1200 1 27.3264 8.71908 0
1201 1 3.08969 73.1528 0
1202 1 5.73182 48.8038 0
1203 2 46.5345 13.2776 0
1204 1 58.1967 56.5847 0
1205 1 67.7029 48.8767 0
1206 1 51.8537 5.25327 0
1207 1 31.8562 62.964 0
1208 1 75.4138 58.2064 0
1209 2 65.2097 59.9732 0
1210 1 68.8376 31.5192 0
1211 2 24.0695 36.9925 0
1212 1 34.1653 36.5394 0
1213 1 61.7953 67.8545 0
1214 1 60.2278 23.3323 0
1215 1 11.1574 71.9652 0
1216 1 11.1965 49.4928 0
1217 2 67.6507 3.44768 0
1218 2 63.2031 23.8245 0
1219 1 29.926 15.2745 0
1220 1 62.1015 18.119 0
1221 1 62.163 54.3704 0
1222 2 66.5749 76.1214 0
1223 1 42.4946 48.4937 0
1224 1 0.616955 34.0152 0
1225 1 2.85039 25.7066 0
1226 2 65.922 65.0567 0
1227 1 41.7887 57.4491 0
1228 1 0.00161515 70.927 0
1229 2 47.7539 9.74283 0
1230 1 25.6938 49.7427 0
1231 2 51.3763 19.543 0
1232 1 67.6935 37.7564 0
1233 1 37.8341 57.9628 0
1234 1 2.05198 67.8062 0
1235 1 18.1094 45.8076 0
1236 1 51.1805 61.9839 0
1237 1 37.2467 21.0253 0
1238 1 24.5541 7.21279 0
1239 1 13.1925 22.7368 0
1240 1 24.4346 62.6662 0
1241 1 76.7167 63.8234 0