ITEM: TIMESTEP
0
ITEM: NUMBER OF ATOMS
7200
ITEM: BOX BOUNDS xy xz yz pp pp pp
0.0000000000000000e+00 7.7459666924100006e+01 0.0000000000000000e+00
0.0000000000000000e+00 7.7459666924100006e+01 0.0000000000000000e+00
-1.2909944490000000e-01 1.2909944490000000e-01 0.0000000000000000e+00
ITEM: ATOMS id type x y z
1 1 12.0312 20.074 0
2 1 15.0399 64.0036 0
3 1 75.1397 71.1022 0
4 1 20.4067 8.07789 0
5 1 34.7377 55.9705 0
6 1 56.5858 28.6211 0
7 2 5.37472 2.94972 0
8 2 64.6848 46.3295 0
9 1 42.3546 56.2107 0
10 2 18.9856 14.7845 0
11 2 25.5712 53.2111 0
12 1 55.1809 11.5096 0
13 2 23.176 5.85734 0
14 1 46.632 70.1425 0
15 1 39.6552 31.3894 0
16 1 18.0699 14.9891 0
17 1 31.6172 40.2461 0
18 1 33.6842 5.89014 0
19 1 27.0549 57.7413 0
20 2 44.7222 3.78257 0
21 1 12.3648 65.8569 0
22 1 54.3394 10.8885 0
23 1 75.614 45.7523 0
24 1 55.9632 66.3887 0
25 1 6.85109 71.0562 0
26 1 21.1123 67.4666 0
27 2 29.1156 63.7966 0
28 1 51.0114 74.1501 0
29 2 22.522 47.9112 0
30 2 24.688 31.6358 0
31 1 15.0931 53.3673 0
32 1 51.1033 38.0493 0
33 1 60.8859 48.5111 0
34 2 45.1815 9.75015 0
35 1 75.4107 63.2002 0
36 1 30.5304 60.0213 0
37 1 22.3585 61.2786 0
38 1 45.8719 19.7844 0
39 1 22.2722 5.58928 0
40 2 24.9074 59.0922 0
41 2 18.5823 64.5459 0
42 1 20.9745 0.905709 0
43 1 18.9106 33.5481 0
44 1 34.4044 62.6904 0
45 1 3.35402 34.4276 0
46 1 68.0952 7.56899 0
47 1 73.4406 59.1335 0
48 1 44.087 68.281 0
49 2 77.3413 4.08137 0
50 1 31.169 66.7625 0
51 1 1.27479 9.92147 0
52 2 33.2487 24.5325 0
53 1 53.5665 18.585 0
54 1 49.7389 30.3013 0
55 1 9.66915 1.10671 0
56 1 46.0382 26.0395 0
57 1 67.5893 43.0975 0
58 1 69.8093 69.1815 0
59 1 34.178 2.1662 0
60 1 28.5569 3.51353 0
61 1 40.3393 76.1636 0
62 1 52.2248 45.0231 0
63 1 57.039 9.84056 0
64 1 50.5611 45.9406 0
65 1 66.9701 73.431 0
66 2 56.0265 11.446 0
67 2 40.7043 36.053 0
68 2 0.829885 29.0329 0
69 1 62.0587 45.4151 0
70 1 8.5363 35.5046 0
71 2 7.50989 42.3234 0
72 1 76.9081 3.30733 0
73 1 6.34187 64.4454 0
74 2 41.4548 22.9158 0
75 1 75.5825 53.335 0
76 1 19.6465 46.9285 0
77 1 24.9273 74.5015 0
78 1 3.61433 15.5507 0
79 1 12.5678 73.3562 0
80 1 43.4166 16.6468 0
81 1 55.1188 62.2977 0
82 2 44.2669 16.7323 0
83 1 5.73761 33.0139 0
84 1 33.0671 45.8979 0
85 1 34.4102 20.8858 0
86 2 34.7347 64.5999 0
87 1 71.4661 34.63 0
88 1 18.4546 54.6691 0
89 1 27.5478 13.1232 0
90 1 37.4826 38.0858 0
91 2 46.0788 41.1345 0
92 2 41.5171 56.1643 0
93 1 27.546 16.8669 0
94 1 33.6574 55.7051 0
95 2 39.9479 56.9772 0
96 1 64.8563 1.40754 0
97 1 44.2305 49.1373 0
98 2 3.0059 60.2846 0
99 1 61.9072 48.2367 0
100 2 32.6049 31.0174 0
101 1 47.8734 54.4597 0
102 1 56.1234 21.4755 0
103 1 56.66 70.6277 0
104 1 2.70405 61.0851 0
105 2 39.9669 3.26079 0
106 2 30.4108 34.8384 0
107 1 13.2042 31.2457 0
108 1 0.826148 0.733415 0
109 1 35.7543 41.6088 0
110 2 65.1201 25.4597 0
111 1 65.9317 11.8652 0
112 1 34.3343 72.9872 0
113 2 0.220624 60.4626 0
114 2 74.3957 29.3625 0
115 2 30.2559 12.8118 0
116 2 74.7451 53.6576 0
117 1 16.1971 45.8723 0
118 2 46.8197 26.4603 0
119 1 62.9542 0.0668498 0
120 2 5.96794 49.8943 0
121 1 6.07546 3.49158 0
122 1 19.8389 33.0328 0
123 2 5.24502 17.6631 0
124 1 46.5765 57.4404 0
125 1 31.7936 27.3606 0
126 1 58.0958 52.1588 0
127 1 4.47306 59.1314 0
128 1 14.3189 23.5122 0
129 1 16.4237 52.1572 0
130 1 7.17311 2.14166 0
131 1 59.0552 24.8185 0
132 2 31.2402 41.9962 0
133 2 52.526 6.89554 0
134 1 65.908 51.0187 0
135 1 31.6321 30.489 0
136 2 55.2074 46.4493 0
137 1 61.7515 56.7358 0
138 2 70.5044 48.0084 0
139 1 68.236 27.3156 0
140 1 3.41537 21.82 0
141 2 48.2979 63.6131 0
142 1 6.4736 22.6389 0
143 2 40.4305 70.0699 0
144 2 47.0185 75.2675 0
145 2 18.1783 52.972 0
146 1 54.734 4.11199 0
147 1 9.43623 38.9694 0
148 1 46.4215 53.5565 0
149 2 67.8879 49.167 0
150 1 32.8892 56.49 0
151 2 29.3374 13.898 0
152 1 49.0717 63.2379 0
153 2 17.4134 46.4572 0
154 2 31.5376 72.39 0
155 1 70.5625 48.8966 0
156 1 43.3773 10.4525 0
157 1 49.0173 71.1692 0
158 1 60.1495 69.2295 0
159 2 10.557 26.0078 0
160 1 38.0811 17.471 0
161 1 7.19412 63.7686 0
162 2 72.4729 23.9807 0
163 1 30.8191 27.058 0
164 1 60.1166 29.3701 0
165 1 75.5371 27.7189 0
166 1 2.00313 44.7457 0
167 1 38.9893 0.988114 0
168 1 38.4683 72.8929 0
169 1 56.6596 30.9567 0
170 1 57.9776 2.17179 0
171 2 36.892 60.914 0
172 2 33.8245 53.8316 0
173 2 43.9121 24.354 0
174 2 27.6146 55.9987 0
175 2 31.0923 26.1885 0
176 1 46.1992 16.2278 0
177 1 19.6871 58.4653 0
178 1 61.8319 61.3197 0
179 1 64.6378 24.8042 0
180 2 33.9102 39.8612 0
181 1 45.3154 27.5528 0
182 1 61.7358 58.6677 0
183 2 12.0955 37.2866 0
184 1 5.22234 67.5737 0
185 2 67.0356 29.4468 0
186 1 59.0655 34.9763 0
187 1 39.7102 46.5339 0
188 1 57.387 47.6167 0
189 2 63.8121 53.0604 0
190 1 23.065 3.93914 0
191 1 71.7295 8.1141 0
192 1 65.473 10.1825 0
193 2 10.9317 41.4995 0
194 2 68.7732 69.1285 0
195 1 11.2105 3.46906 0
196 2 49.6918 54.9826 0
197 2 20.0835 10.1579 0
198 1 13.4604 61.1718 0
199 2 75.7169 66.2567 0
200 1 59.882 27.5753 0
201 2 34.5948 1.41195 0
202 2 74.5362 55.3304 0
203 1 52.4647 65.7813 0
204 1 29.5667 3.93924 0
205 1 56.2369 26.005 0
206 2 35.7487 37.248 0
207 2 14.0707 9.59144 0
208 1 33.6161 14.1023 0
209 1 12.0167 11.5681 0
210 2 5.28359 20.4306 0
211 1 17.2964 8.09831 0
212 2 24.6718 6.31349 0
213 2 56.0764 27.8861 0
214 1 71.1615 57.6664 0
215 2 66.9091 22.3858 0
216 1 20.5261 73.5638 0
217 1 59.5716 34.0457 0
218 2 54.8756 58.5379 0
219 2 68.1117 42.3701 0
220 2 42.9336 63.8297 0
221 1 18.8969 45.335 0
222 1 44.8998 12.6079 0
223 2 39.252 67.6046 0
224 2 27.7905 68.8911 0
225 1 32.4991 24.0711 0
226 2 66.4132 57.2471 0
227 2 5.96152 16.2708 0
228 1 34.3537 9.42309 0
229 1 70.9625 26.7817 0
230 1 32.4194 74.0835 0
231 1 10.7998 34.2393 0
232 1 41.8592 12.9797 0
233 1 34.5753 7.74268 0
234 1 76.0161 8.29821 0
235 1 60.645 59.0818 0
236 2 44.605 70.4604 0
237 1 77.3591 62.3438 0
238 2 9.25161 21.3448 0
239 1 58.5955 3.03111 0
240 2 61.7532 46.2337 0
241 1 47.559 66.7568 0
242 1 18.5986 30.58 0
243 1 7.1581 56.3929 0
244 1 61.2273 64.3457 0
245 1 11.0913 30.8258 0
246 1 1.84074 35.5409 0
247 1 65.7525 49.9501 0
248 1 12.1643 0.926425 0
249 2 50.4481 41.2585 0
250 1 28.8525 9.47496 0
251 2 57.7379 50.1622 0
252 2 65.8586 23.4452 0
253 1 19.6587 17.643 0
254 1 54.4417 24.9861 0
255 1 65.4972 42.8769 0
256 1 31.0914 8.56705 0
257 1 22.2592 57.7441 0
258 1 26.3056 38.6557 0
259 1 55.6416 56.8034 0
260 2 44.2027 53.9189 0
261 2 26.4957 62.7035 0
262 1 24.182 33.7077 0
263 2 12.7022 34.6734 0
264 2 71.5355 59.8282 0
265 1 77.1213 46.7623 0
266 1 38.3068 44.7584 0
267 2 61.5724 24.4909 0
268 2 56.8155 45.8886 0
269 1 48.1792 21.071 0
270 2 9.22801 47.012 0
271 2 23.5013 34.2101 0
272 2 20.3396 14.2579 0
273 1 15.0296 65.0615 0
274 1 32.4196 50.0504 0
275 1 8.57302 48.874 0
276 1 75.2922 9.97986 0
277 2 15.6188 71.3758 0
278 1 7.40782 17.3798 0
279 1 4.49001 44.3826 0
280 1 20.3 35.7971 0
281 1 30.8238 38.6093 0
282 2 75.752 26.5972 0
283 1 76.511 55.7857 0
284 2 54.3039 38.2379 0
285 1 71.0382 52.7802 0
286 1 11.5292 63.4327 0
287 1 18.9112 76.7799 0
288 2 75.8709 3.7093 0
289 2 21.3719 39.0107 0
290 2 68.8248 76.4964 0
291 1 35.0657 22.7242 0
292 1 27.7126 58.6089 0
293 1 47.3866 18.9432 0
294 1 40.1279 2.39661 0
295 1 69.3958 2.69601 0
296 2 74.0391 8.18972 0
297 1 40.2927 59.652 0
298 1 72.5204 35.1219 0
299 2 49.2906 36.5908 0
300 1 39.2876 43.7279 0
301 1 73.4839 19.6254 0
302 1 50.9211 35.1534 0
303 1 20.6032 32.2449 0
304 1 60.6243 72.2581 0
305 2 58.739 76.3089 0
306 1 63.054 52.5423 0
307 2 73.4718 38.8121 0
308 1 41.3966 5.39088 0
309 2 24.6795 16.9614 0
310 2 13.3334 12.9999 0
311 1 29.3437 49.5261 0
312 1 67.3756 61.595 0
313 1 74.6204 76.0338 0
314 1 40.6796 46.1068 0
315 2 56.3472 31.8384 0
316 2 39.6225 63.2149 0
317 1 50.9091 20.53 0
318 2 7.05195 31.328 0
319 1 30.9335 25.2575 0
320 1 36.1634 61.519 0
321 1 58.6031 68.5211 0
322 2 74.0282 11.6221 0
323 2 25.1435 63.4645 0
324 1 64.4485 41.5896 0
325 1 41.1753 6.41449 0
326 1 9.80328 58.9458 0
327 1 48.8281 54.804 0
328 1 0.839907 37.0975 0
329 1 41.7823 42.6948 0
330 2 51.8323 34.9607 0
331 2 69.8649 3.78101 0
332 1 59.3725 28.6078 0
333 1 36.7857 12.3419 0
334 1 17.0123 34.8402 0
335 1 20.6869 38.503 0
336 2 72.2215 74.3603 0
337 1 34.6332 33.9212 0
338 2 17.0251 1.61879 0
339 1 42.5064 68.3956 0
340 1 18.8679 57.7789 0
341 2 74.21 44.1687 0
342 1 67.0075 5.60669 0
343 2 56.399 49.7825 0
344 2 22.7768 65.9414 0
345 1 7.85238 27.8614 0
346 1 17.4627 71.9262 0
347 1 35.6456 56.7106 0
348 1 56.5863 18.8227 0
349 1 33.3935 20.3363 0
350 1 37.2455 31.2573 0
351 1 17.8354 53.7934 0
352 1 47.9207 30.7202 0
353 1 75.3418 25.7999 0
354 2 22.6664 26.1797 0
355 2 43.3205 18.2936 0
356 2 11.8621 2.9321 0
357 1 68.483 67.4855 0
358 1 24.1287 3.85068 0
359 1 22.1876 14.728 0
360 2 45.3362 31.3001 0
361 2 48.2842 67.1771 0
362 1 26.9073 74.6636 0
363 2 37.8563 73.5871 0
364 1 13.2515 66.422 0
365 2 8.88067 57.0854 0
366 1 24.9938 50.4587 0
367 2 19.6989 23.5797 0
368 2 51.5297 54.9942 0
369 2 65.0196 70.6008 0
370 1 3.41514 28.3346 0
371 1 45.8861 73.4383 0
372 2 40.2848 9.90582 0
373 1 10.6057 31.7977 0
374 2 66.6028 41.334 0
375 1 52.322 52.8017 0
376 2 75.5798 43.206 0
377 2 58.22 38.0844 0
378 1 20.5467 63.5864 0
379 1 13.8252 20.2794 0
380 1 9.89663 62.5711 0
381 1 26.7299 23.4739 0
382 1 30.8016 23.5781 0
383 1 9.63788 11.7966 0
384 1 35.0483 51.7918 0
385 1 28.3859 77.1976 0
386 1 54.9466 40.2923 0
387 1 59.6392 76.5184 0
388 2 56.0048 57.8115 0
389 1 24.7027 56.6598 0
390 1 29.3331 13.0444 0
391 2 59.8578 26.7014 0
392 2 29.8316 10.2335 0
393 2 38.8733 64.9172 0
394 1 10.2797 73.8172 0
395 1 53.1883 21.8895 0
396 1 13.9099 70.4307 0
397 1 46.7448 17.1597 0
398 1 45.3823 70.8611 0
399 1 69.8112 17.9557 0
400 1 59.474 74.395 0
401 1 44.4959 11.6202 0
402 2 56.5594 16.8921 0
403 1 38.3774 51.719 0
404 1 69.4286 70.875 0
405 2 73.8485 76.3979 0
406 1 34.0583 19.4493 0
407 2 45.6831 21.6941 0
408 1 63.5272 30.4159 0
409 1 18.7472 61.1453 0
410 2 67.4113 16.5148 0
411 2 66.7069 36.5485 0
412 1 58.8644 38.6187 0
413 1 7.1508 36.6056 0
414 1 71.4051 48.191 0
415 1 7.04854 41.6191 0
416 2 73.9923 62.3414 0
417 2 75.1419 12.5352 0
418 1 54.3455 30.129 0
419 2 56.6987 47.1154 0
420 2 24.8665 55.8298 0
421 1 60.4478 19.2654 0
422 1 2.10248 71.4053 0
423 1 4.09168 11.9943 0
424 1 60.6709 26.9044 0
425 1 58.8679 50.4016 0
426 1 55.8388 73.8908 0
427 2 39.4673 14.787 0
428 1 51.5571 50.3381 0
429 1 59.118 71.2449 0
430 1 36.6301 37.2685 0
431 1 0.026598 29.4659 0
432 1 63.5151 49.0733 0
433 1 29.268 69.5831 0
434 1 1.93051 42.8479 0
435 1 64.0921 34.1839 0
436 2 68.1464 38.9913 0
437 2 44.1747 59.7028 0
438 1 39.0711 61.3884 0
439 2 41.026 12.7164 0
440 1 43.4494 43.6978 0
441 2 66.6614 15.026 0
442 1 9.64328 37.9166 0
443 1 54.5463 16.7407 0
444 1 16.6377 75.3414 0
445 2 69.4188 67.4418 0
446 1 61.6784 42.213 0
447 1 27.0351 70.8785 0
448 1 46.8042 37.4678 0
449 1 37.0688 73.249 0
450 2 48.4219 59.6673 0
451 2 6.61746 61.9272 0
452 1 66.643 11.0064 0
453 1 28.4529 76.1526 0
454 2 62.6144 29.9591 0
455 2 26.6819 67.9965 0
456 1 11.4669 44.4776 0
457 2 18.5333 1.78701 0
458 1 37.8959 77.1273 0
459 2 15.6163 56.7398 0
460 1 5.69895 4.46472 0
461 2 27.3976 27.7941 0
462 1 45.8424 24.2641 0
463 1 75.9072 69.7004 0
464 1 9.11217 47.8699 0
465 2 40.8712 45.2176 0
466 1 21.7203 12.8866 0
467 2 11.5266 1.48899 0
468 1 19.3379 36.2881 0
469 1 1.98279 2.05426 0
470 1 61.6509 10.4036 0
471 2 74.1189 40.9236 0
472 1 25.604 42.8942 0
473 1 61.6139 65.9204 0
474 1 33.6696 54.6928 0
475 1 22.4486 59.6315 0
476 2 39.031 31.9993 0
477 1 60.5369 11.417 0
478 2 33.1868 74.5441 0
479 1 33.1972 22.5046 0
480 1 19.9082 25.7381 0
481 1 7.08018 18.5438 0
482 1 10.8808 25.2351 0
483 2 1.14886 1.57828 0
484 1 14.5007 38.3109 0
485 1 21.3499 57.0785 0
486 1 7.25376 4.65407 0
487 2 70.9851 10.2832 0
488 1 58.4865 5.69986 0
489 1 52.3281 15.2487 0
490 1 35.6114 31.2823 0
491 1 30.6355 42.8379 0
492 2 61.0631 9.63101 0
493 1 73.2749 8.725 0
494 1 67.5847 32.0354 0
495 2 22.3131 49.1966 0
496 2 52.7979 42.0617 0
497 2 40.4792 6.85903 0
498 1 23.4689 25.7547 0
499 1 35.7337 74.3816 0
500 1 2.85402 3.96887 0
501 2 45.5446 43.4485 0
502 1 16.6143 24.899 0
503 1 50.1124 9.73848 0
504 1 37.2111 32.8494 0
505 2 26.5257 77.076 0
506 2 17.5962 65.1132 0
507 1 42.105 37.4764 0
508 1 12.9285 32.6642 0
509 1 28.9262 24.9023 0
510 1 7.00492 38.7187 0
511 1 69.143 26.6663 0
512 1 54.6118 53.3127 0
513 1 11.921 34.2748 0
514 1 25.4372 64.3032 0
515 2 61.3793 11.2422 0
516 2 11.4371 38.5542 0
517 2 75.3381 72.9931 0
518 2 19.1829 54.1737 0
519 2 33.304 1.92027 0
520 1 74.647 37.1848 0
521 1 42.0755 24.4603 0
522 2 24.4529 66.0327 0
523 1 77.1635 12.0613 0
524 1 70.4419 34.6472 0
525 1 22.8388 77.2828 0
526 2 76.4053 22.416 0
527 1 49.5593 26.0355 0
528 2 74.6924 4.96055 0
529 2 34.6738 46.1435 0
530 1 7.89103 59.581 0
531 2 76.4333 68.9191 0
532 2 32.1759 60.9238 0
533 1 73.0226 5.59581 0
534 1 34.6974 27.2909 0
535 1 28.9627 19.0786 0
536 1 32.7238 65.9565 0
537 1 35.1727 48.0083 0
538 2 16.3188 21.779 0
539 2 45.9011 76.8332 0
540 1 60.9157 40.6619 0
541 2 24.739 8.11332 0
542 1 51.2774 56.9116 0
543 2 69.696 55.6096 0
544 2 51.8974 10.5478 0
545 1 28.3795 22.8589 0
546 1 34.2551 3.23257 0
547 1 10.1565 14.3374 0
548 2 23.5445 3.17411 0
549 2 65.4381 21.8589 0
550 2 5.2942 39.4202 0
551 1 30.1128 8.26582 0
552 2 70.7377 40.287 0
553 2 29.3309 45.1276 0
554 1 51.8627 62.3312 0
555 1 50.3556 57.3471 0
556 1 73.05 68.0609 0
557 1 62.0684 53.9717 0
558 1 2.5323 68.5517 0
559 1 72.8651 36.1363 0
560 2 21.5196 61.3812 0
561 1 5.70013 0.647291 0
562 2 4.48574 11.1253 0
563 2 54.1147 48.7621 0
564 1 70.1153 68.018 0
565 2 21.7658 1.2856 0
566 2 18.0294 23.958 0
567 1 49.0457 42.1863 0
568 2 22.7663 73.9956 0
569 2 15.7121 27.4591 0
570 1 73.0671 34.2049 0
571 1 0.5761 3.44598 0
572 2 6.68959 48.5503 0
573 2 0.163425 44.9053 0
574 1 3.81818 69.1337 0
575 1 18.3428 7.69714 0
576 1 16.6537 63.0188 0
577 1 43.4538 50.5838 0
578 2 67.6527 34.1934 0
579 2 45.8848 68.3933 0
580 1 62.6947 42.5965 0
581 1 6.7273 60.927 0
582 2 68.7459 59.494 0
583 2 64.0955 58.5428 0
584 2 33.4945 65.5234 0
585 1 60.9204 0.158422 0
586 1 48.9336 58.807 0
587 2 14.5489 21.7707 0
588 1 49.4401 5.28095 0
589 2 53.617 10.356 0
590 1 24.6013 73.386 0
591 1 56.0403 6.47309 0
592 1 48.3538 74.3137 0
593 1 43.9746 13.1986 0
594 1 59.8437 63.3412 0
595 1 72.2347 65.372 0
596 2 7.11663 1.21543 0
597 1 3.53702 44.0772 0
598 1 69.0297 9.10228 0
599 1 2.73735 51.1116 0
600 1 0.274335 47.6699 0
601 2 42.1669 36.6022 0
602 1 62.1877 14.1464 0
603 2 71.2067 50.8412 0
604 2 62.3249 16.4141 0
605 1 52.4682 69.3347 0
606 1 41.3453 4.09602 0
607 1 76.3912 1.27865 0
608 2 1.57505 40.1959 0
609 2 40.6086 0.575008 0
610 1 7.83042 49.7063 0
611 1 54.0549 58.8429 0
612 1 76.7042 6.12714 0
613 1 76.8825 23.2273 0
614 2 50.5287 28.4649 0
615 1 34.4874 39.2497 0
616 1 39.5215 16.0983 0
617 1 67.4495 1.68026 0
618 2 12.0101 42.6869 0
619 2 55.3051 42.2857 0
620 2 70.8793 73.8308 0
621 2 58.6287 35.7442 0
622 1 60.2628 18.2126 0
623 1 37.2557 11.4132 0
624 2 20.5052 54.6825 0
625 1 26.8941 76.2671 0
626 1 73.6083 29.0344 0
627 2 2.3031 25.0152 0
628 1 28.7096 58.0943 0
629 2 77.2719 25.8581 0
630 1 29.0855 73.2135 0
631 1 56.9358 37.0737 0
632 1 21.7061 64.9535 0
633 2 25.5609 72.0163 0
634 1 18.7605 50.6135 0
635 2 41.544 43.7013 0
636 2 37.0581 40.738 0
637 1 11.1171 11.0698 0
638 1 67.3475 40.7168 0
639 1 70.3892 46.2804 0
640 1 0.338051 54.0888 0
641 1 36.4368 33.7226 0
642 1 9.74752 33.7817 0
643 1 50.3282 44.8974 0
644 2 19.5029 27.4738 0
645 1 57.0573 52.1404 0
646 1 46.2832 47.2306 0
647 2 23.5154 9.69289 0
648 1 64.3566 12.2817 0
649 2 10.7787 69.1545 0
650 2 47.3792 62.2332 0
651 1 46.0361 12.2272 0
652 1 29.6729 71.1721 0
653 2 13.5578 23.1578 0
654 2 10.3478 3.76493 0
655 1 5.59621 51.7698 0
656 1 72.8617 53.8266 0
657 1 33.9722 46.5999 0
658 1 71.6317 13.21 0
659 2 0.946303 66.1873 0
660 1 26.92 35.6682 0
661 1 37.0317 9.85854 0
662 1 32.7486 60.0928 0
663 1 10.585 28.6155 0
664 1 58.1661 75.6801 0
665 2 48.9524 76.9118 0
666 2 12.8407 58.2826 0
667 1 26.2826 73.8176 0
668 2 7.79079 76.1733 0
669 1 4.33289 9.19559 0
670 2 43.7049 37.3318 0
671 2 37.1818 17.696 0
672 1 9.86048 19.6377 0
673 1 6.82909 16.5123 0
674 1 32.7652 42.7028 0
675 2 4.92685 58.3012 0
676 2 37.7285 6.43497 0
677 1 41.5564 54.3103 0
678 1 53.8217 39.0443 0
679 1 46.0347 69.2541 0
680 1 31.8686 53.6472 0
681 1 26.4669 54.021 0
682 1 62.4424 59.4725 0
683 1 18.0842 59.267 0
684 1 64.5188 68.7997 0
685 2 35.825 18.7886 0
686 1 50.316 6.25793 0
687 1 41.4943 19.0392 0
688 2 53.3481 73.6958 0
689 1 72.1821 62.5572 0
690 1 66.3384 72.5424 0
691 1 41.9891 40.0642 0
692 2 59.9098 44.1599 0
693 1 71.3656 76.904 0
694 2 53.7796 64.3958 0
695 1 42.1057 11.9206 0
696 2 35.7717 47.3004 0
697 1 25.5131 13.3211 0
698 1 8.35093 3.41781 0
699 1 66.6916 13.6566 0
700 1 71.9775 47.0881 0
701 1 64.102 31.2652 0
702 1 63.5544 65.3027 0
703 2 71.9385 2.25902 0
704 2 8.32344 61.3598 0
705 2 4.93254 7.22967 0
706 1 52.3985 51.7074 0
707 2 59.7353 38.3658 0
708 1 50.5152 43.1683 0
709 1 51.4613 73.1724 0
710 2 60.2397 28.4419 0
711 1 56.0887 54.1478 0
712 2 62.7228 32.6886 0
713 2 68.3057 70.3699 0
714 2 0.678669 64.8717 0
715 1 45.1814 18.8225 0
716 1 76.3846 29.6926 0
717 1 29.8825 63.4489 0
718 1 14.3315 3.69191 0
719 1 53.31 36.8021 0
720 2 49.1728 38.3674 0
721 2 66.9948 39.8858 0
722 1 48.8919 7.86591 0
723 2 39.8307 75.4834 0
724 2 10.3985 59.5698 0
725 1 50.7518 39.2318 0
726 1 8.23685 30.001 0
727 2 12.8781 1.36455 0
728 1 67.4236 55.5777 0
729 2 21.5753 59.602 0
730 1 33.0122 27.5475 0
731 2 16.74 36.4099 0
732 1 16.3715 54.2852 0
733 1 30.0073 29.5012 0
734 2 66.5526 46.3281 0
735 1 66.769 67.106 0
736 1 47.9016 49.4903 0
737 2 4.14096 45.8702 0
738 1 13.6864 34.5347 0
739 1 18.0169 37.5366 0
740 1 48.4307 37.901 0
741 2 57.3866 55.7431 0
742 1 59.0143 37.6131 0
743 1 27.2507 62.2932 0
744 2 72.7716 18.9128 0
745 1 22.9473 72.5817 0
746 1 34.9141 10.2937 0
747 1 47.3272 76.1241 0
748 2 43.0084 69.8916 0
749 2 22.3252 24.4842 0
750 1 55.3315 35.0536 0
751 1 57.7801 40.1944 0
752 2 2.5083 70.4724 0
753 1 53.1892 39.9058 0
754 2 21.6245 15.41 0
755 1 23.9257 49.9232 0
756 2 49.1897 75.8819 0
757 1 48.3507 19.386 0
758 1 6.02959 9.6995 0
759 1 61.785 47.0591 0
760 1 12.1167 10.5147 0
761 1 69.9993 71.7025 0
762 1 15.275 57.5639 0
763 2 77.1229 6.88232 0
764 1 75.2349 57.1403 0
765 2 47.3351 56.9539 0
766 1 63.2223 22.5618 0
767 1 13.74 1.14371 0
768 1 65.3151 7.89628 0
769 1 61.8105 50.0699 0
770 2 60.2761 73.0704 0
771 1 18.8633 39.9667 0
772 1 45.0528 51.2431 0
773 1 40.7413 43.2849 0
774 2 32.8213 25.9009 0
775 1 71.5634 30.5569 0
776 2 43.7831 42.8786 0
777 1 70.4075 55.1695 0
778 2 10.7228 63.0098 0
779 1 45.2966 25.2132 0
780 1 17.0697 6.27839 0
781 1 29.5478 35.0395 0
782 1 57.4846 64.9647 0
783 1 60.6475 35.4713 0
784 1 70.8895 49.9432 0
785 2 8.87397 11.3689 0
786 1 73.2504 70.1274 0
787 1 20.9472 66.4111 0
788 1 40.0222 54.9201 0
789 1 10.897 4.42817 0
790 1 52.1269 70.3301 0
791 1 45.7522 13.2336 0
792 1 8.5078 25.0116 0
793 1 25.0319 15.0442 0
794 2 71.18 16.6802 0
795 2 75.5468 14.0329 0
796 2 75.5979 67.8521 0
797 1 44.6728 65.409 0
798 1 38.3867 19.1498 0
799 1 44.2089 76.4718 0
800 1 30.6318 70.6275 0
801 2 6.36491 25.7602 0
802 2 27.9033 45.5238 0
803 2 23.7504 77.2185 0
804 2 52.7085 36.1039 0
805 1 23.7359 71.9195 0
806 1 52.9362 70.9456 0
807 2 39.9664 50.5249 0
808 1 50.3844 47.1271 0
809 2 36.3753 62.3466 0
810 1 58.1702 76.928 0
811 1 28.6752 61.0545 0
812 2 59.6501 48.2317 0
813 2 46.5111 58.3416 0
814 1 54.3368 31.2356 0
815 2 41.0232 16.9678 0
816 1 28.2461 34.6302 0
817 1 68.065 75.9952 0
818 2 36.6474 16.12 0
819 2 45.9236 56.8679 0
820 1 66.8929 69.7551 0
821 1 16.7412 64.7292 0
822 1 56.3744 76.8347 0
823 1 17.1334 55.6984 0
824 2 35.2635 42.3028 0
825 1 29.319 41.6871 0
826 1 32.7289 75.2029 0
827 1 7.10141 26.1516 0
828 1 76.915 51.1929 0
829 1 72.2647 40.2528 0
830 2 48.1216 64.6362 0
831 2 43.1104 4.66328 0
832 1 73.9486 14.2584 0
833 1 24.4986 43.2306 0
834 2 48.3487 5.61203 0
835 1 68.4814 6.53007 0
836 1 58.0528 27.6498 0
837 1 56.3945 41.2179 0
838 1 39.1118 52.9763 0
839 1 16.0987 60.2923 0
840 2 15.657 46.6535 0
841 1 36.9538 52.7925 0
842 2 11.1005 61.2491 0
843 1 5.55962 42.4362 0
844 1 63.3552 21.5283 0
845 2 27.8892 2.32405 0
846 1 49.5548 39.1833 0
847 1 10.9695 57.7178 0
848 2 69.1201 47.6603 0
849 1 74.1049 10.7552 0
850 1 67.847 19.7502 0
851 1 39.3512 18.7215 0
852 1 12.2596 1.9801 0
853 1 42.5267 61.4366 0
854 1 37.7841 69.6431 0
855 1 39.5705 25.7531 0
856 2 18.8997 41.9292 0
857 1 57.8297 33.9759 0
858 2 34.5147 28.8896 0
859 1 13.2458 64.6548 0
860 2 2.11097 58.6216 0
861 2 60.1754 40.1264 0
862 2 2.95197 69.2961 0
863 1 58.9472 23.643 0
864 1 60.3272 53.8092 0
865 2 66.2278 67.9 0
866 1 60.5174 16.9876 0
867 2 31.5348 21.7243 0
868 1 37.1528 61.8403 0
869 1 62.1485 20.011 0
870 1 0.163402 52.7964 0
871 1 62.6834 26.0594 0
872 1 42.5145 51.0148 0
873 1 50.828 62.6188 0
874 1 3.98474 71.6373 0
875 1 34.0543 57.7876 0
876 2 51.3513 7.94116 0
877 1 13.4649 55.5133 0
878 2 14.6623 15.9811 0
879 1 76.4044 13.9727 0
880 2 31.7587 33.6877 0
881 2 51.977 29.3595 0
882 2 47.7493 73.6853 0
883 1 25.7312 20.163 0
884 1 56.065 36.5519 0
885 1 38.7606 5.17068 0
886 1 37.0662 60.0991 0
887 2 54.7942 50.2425 0
888 1 0.426781 76.4622 0
889 2 59.2097 49.4797 0
890 2 7.72292 25.4947 0
891 1 37.9167 10.4964 0
892 1 40.1508 67.6836 0
893 1 30.1321 53.7194 0
894 1 76.9771 14.915 0
895 2 32.4977 53.0328 0
896 1 37.328 2.55014 0
897 2 35.7545 17.3257 0
898 1 31.0796 43.865 0
899 1 2.00497 75.6917 0
900 2 38.4322 0.289388 0
901 1 52.3927 41.3384 0
902 1 24.2359 75.3538 0
903 1 37.9188 40.6598 0
904 2 0.191151 37.6563 0
905 1 63.7695 61.9923 0
906 1 69.0651 44.6923 0
907 1 3.67833 29.8638 0
908 1 50.9126 23.861 0
909 1 0.392521 48.7354 0
910 2 1.90156 50.7576 0
911 2 4.84782 4.56288 0
912 2 36.2705 32.8732 0
913 2 32.0405 51.6792 0
914 1 18.1672 12.9974 0
915 2 64.7821 5.43134 0
916 1 3.43831 39.8845 0
917 2 5.038 33.5231 0
918 2 19.4709 35.3833 0
919 1 8.22312 57.7467 0
920 1 15.8291 47.6216 0
921 1 0.0510243 26.7262 0
922 2 50.8278 18.9047 0
923 2 12.244 24.3307 0
924 1 39.1123 17.7078 0
925 1 66.3247 47.1626 0
926 2 35.5238 35.5803 0
927 1 68.7867 77.3738 0
928 1 52.3231 59.0634 0
929 2 52.1137 32.1975 0
930 2 19.9478 15.9067 0
931 1 41.0127 47.6025 0
932 1 70.6266 38.999 0
933 1 34.2341 22.0581 0
934 1 2.10856 60.1877 0
935 1 11.3764 50.5313 0
936 2 41.9451 4.75758 0
937 1 14.1928 73.188 0
938 1 36.8046 67.6127 0
939 2 50.6115 51.3199 0
940 1 76.0104 46.867 0
941 1 77.1447 17.4998 0
942 1 38.063 29.9266 0
943 2 22.1658 16.7799 0
944 2 2.15746 41.9291 0
945 1 40.5467 25.3909 0
946 1 64.6717 67.0871 0
947 2 25.039 2.08171 0
948 1 39.4237 68.4811 0
949 1 26.6725 11.7856 0
950 2 5.07828 9.7053 0
951 1 69.0978 65.4636 0
952 2 52.415 2.73502 0
953 2 7.95143 44.7658 0
954 2 29.8036 62.5362 0
955 1 27.3799 38.5519 0
956 2 58.6842 10.8518 0
957 1 48.3955 23.6596 0
958 2 19.4934 2.5607 0
959 2 73.5584 25.0399 0
960 2 29.2122 66.9909 0
961 1 49.6685 52.1993 0
962 1 24.2584 1.65781 0
963 1 16.2515 12.5632 0
964 2 8.66074 9.58875 0
965 2 53.8757 53.8327 0
966 1 0.88897 62.8354 0
967 1 49.9981 35.5751 0
968 1 18.1854 0.0309688 0
969 1 58.0075 23.1343 0
970 2 22.4601 4.64711 0
971 1 21.1166 14.5683 0
972 1 6.87276 25.0598 0
973 1 0.910424 36.0049 0
974 2 1.03896 35.1594 0
975 2 73.0782 65.4407 0
976 2 34.678 20.0392 0
977 1 35.9896 63.1753 0
978 2 3.20472 77.0101 0
979 2 36.1775 65.698 0
980 1 72.9471 14.1804 0
981 1 73.7666 58.075 0
982 1 7.83078 54.7971 0
983 1 18.3594 24.8719 0
984 1 9.2855 57.9345 0
985 1 34.3704 11.2511 0
986 1 38.0653 52.7027 0
987 2 18.1013 12.1314 0
988 2 41.2283 34.6719 0
989 2 10.0229 34.6473 0
990 2 69.7726 51.5722 0
991 2 46.192 14.8341 0
992 1 62.3511 34.6015 0
993 2 29.0627 5.82669 0
994 2 1.95931 55.094 0
995 1 38.8634 22.2907 0
996 2 54.747 56.9238 0
997 2 43.6517 30.8061 0
998 2 60.0396 75.114 0
999 2 39.3802 26.5976 0
1000 2 0.547528 49.5617 0
1001 1 41.8415 65.3842 0
1002 1 23.9122 34.9794 0
1003 1 9.53834 54.2666 0
1004 1 7.49111 22.4154 0
1005 2 10.6689 23.7051 0
1006 2 67.8802 60.82 0
1007 1 18.7965 20.5362 0
1008 1 47.7444 16.9299 0
1009 1 31.222 33.0088 0
1010 1 11.5229 43.4197 0
1011 2 10.492 22.2993 0
1012 2 2.25223 23.3071 0
1013 2 65.2327 55.9782 0
1014 1 74.1586 15.3366 0
1015 1 76.0902 9.31622 0
1016 1 37.3092 48.0184 0
1017 2 68.8135 54.2855 0
1018 1 26.1919 25.1675 0
1019 1 44.5028 28.9974 0
1020 2 32.3869 6.34022 0
1021 2 15.7922 24.6091 0
1022 1 4.90941 61.0313 0
1023 1 41.094 9.51226 0
1024 1 9.6036 67.873 0
1025 1 37.122 65.7156 0
1026 1 8.13184 40.1502 0
1027 1 47.3375 2.44983 0
1028 1 1.89132 32.9402 0
1029 1 48.9567 18.2055 0
1030 2 46.8691 48.1075 0
1031 2 37.5479 37.0972 0
1032 1 16.2879 73.1757 0
1033 1 57.7095 19.1328 0
1034 1 35.3242 29.2973 0
1035 1 65.7268 28.3899 0
1036 2 73.6756 45.8813 0
1037 1 30.8097 73.399 0
1038 1 68.6809 60.4026 0
1039 1 5.51436 31.9755 0
1040 2 64.9758 34.2366 0
1041 1 35.448 65.0754 0
1042 2 62.8722 68.2079 0
1043 2 60.6508 58.2397 0
1044 1 67.775 23.5167 0
1045 1 66.7835 23.3246 0
1046 1 41.1248 68.1112 0
1047 2 9.92145 47.5873 0
1048 1 53.247 0.000709018 0
1049 1 59.9375 48.9894 0
1050 2 45.3149 6.46372 0
1051 1 43.61 31.68 0
1052 1 66.3559 44.4105 0
1053 2 32.7249 18.5104 0
1054 1 54.909 7.0992 0
1055 2 33.1088 46.8095 0
1056 2 14.6786 45.1544 0
1057 1 12.0858 71.655 0
1058 1 27.3342 5.98865 0
1059 1 9.24873 75.3456 0
1060 2 21.9398 42.0056 0
1061 1 9.99016 23.0645 0
1062 2 16.9331 41.3936 0
1063 1 0.0645454 67.8738 0
1064 1 23.238 4.96634 0
1065 2 29.8372 52.7557 0
1066 1 37.6814 46.3686 0
1067 1 13.8842 10.4116 0
1068 2 35.5758 66.9995 0
1069 1 68.0093 24.5263 0
1070 2 8.28923 34.3984 0
1071 2 49.6332 42.8876 0
1072 2 9.44192 48.6392 0
1073 2 16.3809 3.55804 0
1074 2 33.7776 44.6548 0
1075 1 75.9865 49.7552 0
1076 1 41.105 7.62166 0
1077 1 41.9571 32.5484 0
1078 2 71.6364 26.1439 0
1079 2 38.8865 10.9012 0
1080 2 29.9631 73.0469 0
1081 2 45.9523 49.0849 0
1082 2 6.21937 27.5317 0
1083 2 21.5263 20.096 0
1084 1 44.4101 57.8061 0
1085 1 19.0672 52.3421 0
1086 1 70.1312 66.8977 0
1087 1 29.5674 72.2113 0
1088 1 44.8914 63.2071 0
1089 2 8.4122 31.6705 0
1090 1 42.1076 34.8427 0
1091 2 27.4225 17.6889 0
1092 1 63.0901 53.5859 0
1093 1 69.1565 32.8708 0
1094 2 43.761 55.4154 0
1095 1 25.2967 71.151 0
1096 2 48.1241 18.5586 0
1097 1 76.1526 17.7407 0
1098 1 62.7105 43.6328 0
1099 1 31.0206 5.01284 0
1100 1 67.6831 2.75299 0
1101 1 74.9125 11.6349 0
1102 1 25.8886 74.8504 0
1103 1 51.235 70.8969 0
1104 1 47.326 58.1328 0
1105 1 48.3308 39.9575 0
1106 1 16.4662 71.4633 0
1107 2 45.3862 62.4102 0
1108 1 55.6523 31.2972 0
1109 1 72.7493 24.8605 0
1110 2 14.7467 11.8333 0
1111 1 2.72893 56.9633 0
1112 1 76.0933 18.8159 0
1113 2 75.5205 7.55953 0
1114 2 14.1833 53.4156 0
1115 2 33.1909 49.6237 0
1116 1 77.2809 64.7656 0
1117 1 66.9025 56.4666 0
1118 1 12.3817 75.4463 0
1119 2 11.3293 64.3283 0
1120 1 41.4994 58.0931 0
1121 2 21.2994 64.1029 0
1122 1 32.143 32.5507 0
1123 2 23.1667 51.8228 0
1124 1 52.8374 61.9699 0
1125 2 14.895 4.37471 0
1126 2 15.359 20.34 0
1127 1 74.5027 24.164 0
1128 1 67.2553 52.1055 0
1129 1 60.8787 39.6117 0
1130 1 30.6584 47.4435 0
1131 1 62.5313 15.1186 0
1132 2 76.0949 63.695 0
1133 2 56.0831 22.3511 0
1134 2 20.8157 72.1112 0
1135 1 0.886584 68.5136 0
1136 2 51.2953 26.8957 0
1137 1 51.1477 61.535 0
1138 1 30.2306 13.6788 0
1139 2 57.6316 52.8448 0
1140 2 9.07707 22.9046 0
1141 1 75.0163 65.6082 0
1142 1 27.1361 52.3502 0
1143 1 48.278 44.7729 0
1144 2 60.9948 16.1741 0
1145 1 37.9663 62.5029 0
1146 1 15.4637 19.0178 0
1147 1 28.398 25.7693 0
1148 1 10.8627 36.7157 0
1149 1 57.4625 29.3064 0
1150 2 65.4142 61.0532 0
1151 1 21.9448 3.8095 0
1152 1 59.8417 51.9511 0
1153 1 71.5196 29.4631 0
1154 1 13.9824 4.70754 0
1155 2 60.2659 20.2995 0
1156 1 44.744 32.1031 0
1157 1 12.1924 18.2426 0
1158 2 58.4207 47.9603 0
1159 2 5.65407 70.4702 0
1160 1 32.7786 7.82664 0
1161 2 44.1555 56.8218 0
1162 1 15.9155 9.84374 0
1163 2 13.3869 72.9744 0
1164 1 24.0249 58.6976 0
1165 1 20.8296 45.4084 0
1166 2 15.0999 50.684 0
1167 1 27.9566 20.3622 0
1168 1 56.4933 64.6887 0
1169 1 19.5378 66.6911 0
1170 2 6.35565 33.7426 0
1171 1 48.5264 33.7749 0
1172 1 22.7565 6.59615 0
1173 1 51.8619 64.1596 0
1174 1 38.983 29.4458 0
1175 2 62.6824 44.668 0
1176 1 68.2846 36.5309 0
1177 1 47.6618 69.9264 0
1178 2 61.2028 47.7179 0
1179 1 72.337 32.6014 0
1180 1 51.9706 17.7564 0
1181 1 54.3498 22.8884 0
1182 1 60.4382 73.9217 0
1183 2 42.9095 73.4501 0
1184 2 28.0046 22.1244 0
1185 1 17.6854 63.0744 0
1186 1 48.9957 49.4986 0
1187 1 73.8801 72.1859 0
1188 2 4.92816 37.6704 0
1189 1 60.7458 65.3838 0
1190 1 28.4225 51.4009 0
1191 2 72.307 4.89774 0
1192 1 24.537 47.1563 0
1193 1 47.4915 17.9026 0
1194 2 16.4445 16.1095 0
1195 1 74.2792 48.7777 0
1196 1 21.7583 49.832 0
1197 1 35.5252 39.0944 0
1198 1 62.2525 75.9491 0
1199 2 57.8318 62.5429 0
1200 1 26.8464 8.98906 0
1201 1 2.92982 73.0861 0
1202 1 5.90961 48.9289 0
1203 2 47.526 12.4814 0
1204 1 57.5879 56.6013 0
1205 1 66.7708 50.3471 0
1206 1 52.1359 5.06042 0
1207 1 31.7833 62.8549 0
1208 1 75.3851 58.2412 0
1209 2 65.2882 59.6286 0
1210 1 69.6147 31.9342 0
1211 2 25.7281 35.6818 0
1212 1 33.7047 36.4182 0
1213 1 61.1594 68.9561 0
1214 1 61.6149 23.6299 0
1215 1 11.6435 72.6621 0
1216 1 11.1762 49.368 0
1217 2 68.5554 2.94868 0
1218 2 61.5476 20.8917 0
1219 1 30.0198 15.4745 0
1220 1 61.9076 17.8062 0
1221 1 61.6595 54.9815 0
1222 2 67.0979 74.2767 0
1223 1 42.3787 48.1709 0
1224 1 0.663103 34.1125 0
1225 1 2.70779 25.7412 0
1226 2 65.9179 64.7803 0
1227 1 41.7664 57.0589 0
1228 1 76.0848 70.7698 0
1229 2 47.7743 9.31298 0
1230 1 25.6269 49.5909 0
1231 2 52.8236 18.0474 0
1232 1 67.9227 38.1454 0
1233 1 38.8618 58.0816 0
1234 1 1.78447 67.8771 0
1235 1 18.2002 46.0435 0
1236 1 52.3987 63.1744 0
1237 1 37.8617 20.7607 0
1238 1 24.6431 7.21789 0
1239 1 12.7839 22.7587 0
1240 1 24.3982 62.9487 0
1241 1 76.4466 62.8748 0