ITEM: TIMESTEP
0
ITEM: NUMBER OF ATOMS
7200
ITEM: BOX BOUNDS xy xz yz pp pp pp
0.0000000000000000e+00 7.7459666924100006e+01 0.0000000000000000e+00
0.0000000000000000e+00 7.7459666924100006e+01 0.0000000000000000e+00
-1.2909944490000000e-01 1.2909944490000000e-01 0.0000000000000000e+00
ITEM: ATOMS id type x y z
1 1 12.1507 20.0381 0
2 1 14.881 63.8701 0
3 1 76.0101 71.7515 0
4 1 20.3071 8.04081 0
5 1 34.7527 55.9395 0
6 1 57.2386 28.4184 0
7 2 4.2427 3.28463 0
8 2 64.8245 46.2409 0
9 1 41.9367 56.4205 0
10 2 19.0581 14.7094 0
11 2 25.5439 53.1377 0
12 1 55.1325 11.743 0
13 2 23.3464 5.55833 0
14 1 46.6773 70.2275 0
15 1 39.5659 31.3735 0
16 1 18.1941 14.8579 0
17 1 31.6822 40.0219 0
18 1 33.386 6.34264 0
19 1 26.9378 57.7068 0
20 2 44.7565 3.77831 0
21 1 12.2854 65.6873 0
22 1 54.4159 11.0015 0
23 1 75.5552 45.634 0
24 1 55.6316 67.509 0
25 1 6.46244 70.483 0
26 1 21.0771 67.4776 0
27 2 28.8441 63.6545 0
28 1 51.3459 74.4187 0
29 2 22.6461 47.7878 0
30 2 24.8352 31.201 0
31 1 15.0755 53.1703 0
32 1 51.1641 38.2602 0
33 1 60.9342 48.4319 0
34 2 45.2504 9.81135 0
35 1 75.3147 62.8438 0
36 1 30.5644 59.9612 0
37 1 22.4022 61.3844 0
38 1 46.5302 20.0233 0
39 1 22.4947 5.68596 0
40 2 24.7721 59.1112 0
41 2 18.3947 64.5174 0
42 1 21.0357 0.898595 0
43 1 18.9584 33.703 0
44 1 34.1893 62.8292 0
45 1 3.26515 34.4684 0
46 1 68.7191 7.82543 0
47 1 74.4037 58.4389 0
48 1 43.9058 67.456 0
49 2 0.188777 4.1855 0
50 1 30.7813 66.682 0
51 1 1.19722 9.78488 0
52 2 32.5067 24.1192 0
53 1 53.4301 18.908 0
54 1 49.8722 30.4834 0
55 1 9.69529 1.15082 0
56 1 45.9109 26.2859 0
57 1 67.5013 42.988 0
58 1 69.9942 69.3522 0
59 1 33.6872 2.19749 0
60 1 28.7114 3.87666 0
61 1 40.6579 76.0762 0
62 1 52.1943 45.3004 0
63 1 57.1614 10.2656 0
64 1 50.6383 46.3552 0
65 1 67.5551 73.7406 0
66 2 55.9932 11.764 0
67 2 40.8136 36.031 0
68 2 0.177273 29.122 0
69 1 62.0711 45.144 0
70 1 8.45659 35.3803 0
71 2 7.43003 42.2179 0
72 1 0.198406 3.34234 0
73 1 6.23959 63.913 0
74 2 41.6844 23.0232 0
75 1 75.407 53.1155 0
76 1 19.7157 46.75 0
77 1 25.0765 74.3721 0
78 1 4.35908 15.9951 0
79 1 12.1451 73.0612 0
80 1 43.2511 16.658 0
81 1 54.9419 62.9929 0
82 2 44.13 16.6582 0
83 1 5.75899 32.774 0
84 1 33.0224 45.817 0
85 1 34.3118 19.9541 0
86 2 34.5303 64.7228 0
87 1 71.4674 34.5724 0
88 1 18.4614 54.6359 0
89 1 27.2465 13.9311 0
90 1 37.5436 37.9023 0
91 2 45.0398 41.1938 0
92 2 41.1464 56.715 0
93 1 27.5738 16.8563 0
94 1 33.6624 55.8833 0
95 2 39.8844 56.8243 0
96 1 64.2446 1.62177 0
97 1 43.8449 49.4493 0
98 2 2.56683 59.8945 0
99 1 62.0459 48.1146 0
100 2 32.654 30.9164 0
101 1 47.203 54.9895 0
102 1 56.1277 21.5735 0
103 1 57.5621 70.347 0
104 1 2.46876 60.7308 0
105 2 40.5059 3.91063 0
106 2 30.6526 34.5948 0
107 1 13.3078 31.3099 0
108 1 1.16396 0.707819 0
109 1 34.5211 41.464 0
110 2 65.0914 27.4545 0
111 1 65.8405 11.9883 0
112 1 33.8294 72.9335 0
113 2 77.4424 60.0535 0
114 2 74.879 28.57 0
115 2 30.0512 12.4119 0
116 2 74.5856 53.3529 0
117 1 16.1095 45.8911 0
118 2 47.1543 26.8588 0
119 1 62.8722 76.7038 0
120 2 5.98447 49.7704 0
121 1 6.17291 3.39931 0
122 1 19.8615 33.2151 0
123 2 5.31625 17.7841 0
124 1 46.0923 57.8695 0
125 1 31.8644 27.5041 0
126 1 58.1444 52.0007 0
127 1 4.11688 58.8529 0
128 1 14.5148 23.3879 0
129 1 16.3815 52.1186 0
130 1 6.95466 2.63526 0
131 1 60.6345 25.2379 0
132 2 31.1835 41.6302 0
133 2 52.5329 7.06024 0
134 1 65.95 50.8511 0
135 1 31.671 30.3176 0
136 2 54.9194 46.958 0
137 1 61.5432 56.6628 0
138 2 70.5245 47.8924 0
139 1 66.8037 27.5893 0
140 1 3.37148 21.988 0
141 2 48.1884 63.7766 0
142 1 6.44084 22.6109 0
143 2 40.5431 70.2561 0
144 2 47.3238 75.4157 0
145 2 18.2391 52.8517 0
146 1 54.7977 4.2443 0
147 1 9.30507 38.8345 0
148 1 45.8837 53.893 0
149 2 68.0598 49.0725 0
150 1 32.6832 56.3758 0
151 2 29.1887 13.64 0
152 1 48.87 63.2507 0
153 2 17.4062 46.3075 0
154 2 31.9908 72.9318 0
155 1 70.6299 48.8643 0
156 1 43.4065 10.2863 0
157 1 49.1148 71.298 0
158 1 59.9705 68.9561 0
159 2 10.791 25.9948 0
160 1 38.0173 17.3115 0
161 1 7.14461 63.2629 0
162 2 73.4544 23.7502 0
163 1 30.8313 27.1378 0
164 1 60.7712 29.5389 0
165 1 75.3363 27.4303 0
166 1 1.94062 44.5726 0
167 1 39.3445 0.786601 0
168 1 38.1711 73.0776 0
169 1 56.6103 31.1491 0
170 1 58.3911 1.88683 0
171 2 35.6517 61.7645 0
172 2 34.4523 53.5821 0
173 2 43.9291 24.4295 0
174 2 27.4497 55.8422 0
175 2 31.5135 26.7009 0
176 1 46.0892 16.3273 0
177 1 19.6628 58.4479 0
178 1 61.8516 61.7 0
179 1 65.362 24.9728 0
180 2 33.8636 39.679 0
181 1 45.4718 27.825 0
182 1 61.7479 58.8734 0
183 2 12.0303 37.1923 0
184 1 5.2365 67.2261 0
185 2 67.6385 29.6503 0
186 1 59.142 34.8935 0
187 1 39.4986 46.4561 0
188 1 57.5157 47.5526 0
189 2 63.7249 52.9747 0
190 1 23.3191 3.60154 0
191 1 71.1772 7.64094 0
192 1 65.2969 10.3409 0
193 2 10.8791 41.54 0
194 2 69.2426 68.9115 0
195 1 10.9873 3.37692 0
196 2 50.0316 54.7238 0
197 2 20.007 9.9406 0
198 1 13.3626 61.0859 0
199 2 75.6477 66.2256 0
200 1 59.7742 27.659 0
201 2 34.1137 1.20306 0
202 2 74.5845 54.972 0
203 1 52.2203 65.7205 0
204 1 29.638 4.19617 0
205 1 55.8576 25.9148 0
206 2 35.9151 37.0926 0
207 2 14.4474 9.63877 0
208 1 33.3801 14.0468 0
209 1 12.2019 11.4816 0
210 2 5.38549 20.4952 0
211 1 17.5639 7.34417 0
212 2 24.5977 6.01221 0
213 2 55.4275 27.9566 0
214 1 71.198 57.667 0
215 2 65.9728 21.8458 0
216 1 20.5907 73.5404 0
217 1 59.7095 33.8728 0
218 2 55.1775 58.5426 0
219 2 67.9713 42.2404 0
220 2 42.8456 64.0606 0
221 1 19.0065 45.3127 0
222 1 45.0547 12.5509 0
223 2 38.8917 67.8823 0
224 2 27.449 68.6654 0
225 1 32.0487 23.2776 0
226 2 66.886 57.1267 0
227 2 5.99042 16.4948 0
228 1 35.2208 9.45051 0
229 1 70.2804 26.9663 0
230 1 33.703 74.691 0
231 1 10.7544 34.0904 0
232 1 42.0751 12.6955 0
233 1 34.9112 7.74983 0
234 1 76.1519 7.94196 0
235 1 60.8053 59.3229 0
236 2 44.9024 70.5341 0
237 1 76.9126 61.9282 0
238 2 9.18961 21.4906 0
239 1 58.875 3.73218 0
240 2 61.8434 46.0746 0
241 1 47.2725 66.8493 0
242 1 18.5903 30.6398 0
243 1 7.18734 56.2875 0
244 1 61.129 64.4716 0
245 1 11.2177 30.6577 0
246 1 1.87126 35.5204 0
247 1 65.7952 49.812 0
248 1 12.3163 0.704698 0
249 2 50.3305 41.4508 0
250 1 29.7807 9.57622 0
251 2 57.926 50.0775 0
252 2 66.053 23.317 0
253 1 19.9275 17.6439 0
254 1 54.4474 24.6964 0
255 1 65.5789 42.7069 0
256 1 31.8999 7.75553 0
257 1 22.2354 57.7575 0
258 1 25.9382 38.5661 0
259 1 55.813 56.679 0
260 2 44.0271 54.0336 0
261 2 26.3472 62.562 0
262 1 24.3065 33.6385 0
263 2 12.6788 34.6183 0
264 2 71.5474 59.6644 0
265 1 77.0798 46.4755 0
266 1 38.0295 44.7779 0
267 2 60.9735 23.9802 0
268 2 56.8448 45.532 0
269 1 47.8532 20.762 0
270 2 9.09407 47.0214 0
271 2 23.5187 34.0934 0
272 2 20.4516 14.3273 0
273 1 15.0019 64.8552 0
274 1 32.2501 50.0891 0
275 1 8.54176 48.8436 0
276 1 75.0816 9.85911 0
277 2 15.4761 71.1665 0
278 1 7.52306 17.6196 0
279 1 4.488 44.3211 0
280 1 20.2649 35.9766 0
281 1 30.6116 38.7764 0
282 2 76.2251 29.2106 0
283 1 76.4905 55.4061 0
284 2 54.3858 38.5637 0
285 1 70.5421 52.6506 0
286 1 11.269 63.1872 0
287 1 18.9389 76.7429 0
288 2 75.9582 4.39148 0
289 2 21.3502 39.2247 0
290 2 67.905 75.5767 0
291 1 34.6921 22.9497 0
292 1 27.8061 58.5529 0
293 1 47.2762 19.0926 0
294 1 40.0436 2.33132 0
295 1 69.1463 3.61448 0
296 2 73.4206 8.82005 0
297 1 40.9369 59.1509 0
298 1 72.532 34.8343 0
299 2 49.2862 37.1367 0
300 1 39.1308 43.7899 0
301 1 73.2418 19.46 0
302 1 50.9818 35.4791 0
303 1 20.4826 32.3876 0
304 1 61.4466 70.5148 0
305 2 58.119 76.424 0
306 1 63.1064 52.4106 0
307 2 73.3454 38.5957 0
308 1 41.4547 5.35124 0
309 2 24.8613 16.7308 0
310 2 13.4439 12.9361 0
311 1 29.5006 49.7463 0
312 1 67.4094 61.761 0
313 1 74.6272 77.3062 0
314 1 40.494 45.9898 0
315 2 56.4511 31.9886 0
316 2 39.3687 63.4657 0
317 1 50.8135 21.0207 0
318 2 7.07021 31.2115 0
319 1 30.9362 26.0485 0
320 1 36.2427 62.3422 0
321 1 58.3608 68.737 0
322 2 73.6268 11.5875 0
323 2 25.0615 63.3839 0
324 1 64.3654 41.3891 0
325 1 40.8421 6.94566 0
326 1 9.83106 58.7566 0
327 1 49.2523 56.7133 0
328 1 0.790463 36.9999 0
329 1 41.7855 42.7869 0
330 2 51.832 35.1311 0
331 2 69.96 3.25686 0
332 1 59.2807 28.6433 0
333 1 37.1143 13.0869 0
334 1 17.1064 34.8241 0
335 1 20.5681 38.8298 0
336 2 72.9697 74.9043 0
337 1 34.8623 33.8112 0
338 2 16.9957 1.5226 0
339 1 41.984 68.2318 0
340 1 18.8874 57.8131 0
341 2 73.9834 44.0396 0
342 1 66.6526 5.9656 0
343 2 56.5186 49.7147 0
344 2 22.6671 65.8612 0
345 1 8.08439 27.8882 0
346 1 17.471 71.6914 0
347 1 35.2648 56.8861 0
348 1 57.1009 18.8787 0
349 1 33.4406 20.4921 0
350 1 37.3638 31.1526 0
351 1 18.0192 53.6795 0
352 1 47.7584 31.0972 0
353 1 75.1437 26.2943 0
354 2 22.7778 26.1173 0
355 2 43.1976 18.2509 0
356 2 11.6788 2.81051 0
357 1 69.0198 67.5903 0
358 1 24.3642 3.42037 0
359 1 22.3275 14.4807 0
360 2 45.2369 31.7338 0
361 2 48.5745 67.7293 0
362 1 27.1809 74.3283 0
363 2 37.9379 73.8994 0
364 1 13.1723 66.291 0
365 2 8.85645 57.103 0
366 1 24.9267 50.6333 0
367 2 19.8475 23.3509 0
368 2 51.4793 54.8224 0
369 2 65.718 70.9839 0
370 1 3.31671 27.8155 0
371 1 46.0486 73.713 0
372 2 39.3299 9.36575 0
373 1 10.5745 31.4817 0
374 2 66.662 41.1747 0
375 1 51.1921 53.2453 0
376 2 75.4099 43.116 0
377 2 58.2362 37.8472 0
378 1 20.4278 63.6111 0
379 1 13.8995 20.137 0
380 1 9.72902 62.3226 0
381 1 26.9393 23.3386 0
382 1 30.5089 24.0225 0
383 1 9.55254 11.6679 0
384 1 34.8874 51.7134 0
385 1 28.7316 76.7015 0
386 1 54.8036 40.7539 0
387 1 58.8631 76.7943 0
388 2 56.0344 57.5099 0
389 1 24.5461 56.5876 0
390 1 28.2701 13.5369 0
391 2 58.607 26.1828 0
392 2 30.5454 9.11574 0
393 2 38.5554 65.2014 0
394 1 10.349 73.6096 0
395 1 53.4986 22.0481 0
396 1 13.8078 70.332 0
397 1 46.6318 17.3777 0
398 1 45.6075 71.0934 0
399 1 69.8291 18.4468 0
400 1 59.0411 74.8048 0
401 1 44.5364 11.5936 0
402 2 56.1619 15.6461 0
403 1 38.2616 51.7801 0
404 1 70.2255 71.0026 0
405 2 75.3968 76.8601 0
406 1 34.0263 18.9686 0
407 2 45.9333 21.7192 0
408 1 63.4809 30.0449 0
409 1 18.6369 61.1566 0
410 2 67.3731 16.8655 0
411 2 66.6182 36.3682 0
412 1 58.9182 38.3966 0
413 1 6.95183 36.3896 0
414 1 71.3977 48.0612 0
415 1 7.09168 41.4231 0
416 2 74.6664 62.3465 0
417 2 74.8782 12.421 0
418 1 54.2653 30.2709 0
419 2 56.8441 46.9728 0
420 2 24.9793 55.8493 0
421 1 60.3239 18.9145 0
422 1 1.86496 70.3757 0
423 1 4.47101 11.5844 0
424 1 61.9825 26.2747 0
425 1 59.0002 50.3356 0
426 1 56.1406 74.0311 0
427 2 39.3998 15.0696 0
428 1 51.5062 51.117 0
429 1 59.9499 71.1976 0
430 1 36.7326 37.1283 0
431 1 1.07584 30.8849 0
432 1 63.6131 49.0126 0
433 1 29.0579 68.9502 0
434 1 1.83815 42.7723 0
435 1 64.1619 33.8628 0
436 2 68.0247 38.8652 0
437 2 44.9149 60.1435 0
438 1 38.9917 62.7188 0
439 2 42.6635 11.7641 0
440 1 43.5163 44.0811 0
441 2 68.2309 14.0709 0
442 1 9.56543 37.749 0
443 1 54.2638 17.0402 0
444 1 16.5521 75.1894 0
445 2 69.8211 67.3624 0
446 1 61.6117 42.055 0
447 1 26.8562 70.6239 0
448 1 46.886 38.3848 0
449 1 37.0728 73.6787 0
450 2 48.411 59.9839 0
451 2 6.32688 61.3846 0
452 1 66.5313 10.9941 0
453 1 28.6773 75.576 0
454 2 62.5676 29.7158 0
455 2 26.3072 67.7307 0
456 1 11.2922 44.4718 0
457 2 18.6639 1.88731 0
458 1 38.282 77.2484 0
459 2 15.4886 56.6451 0
460 1 5.79243 4.3349 0
461 2 27.9651 29.7267 0
462 1 45.9464 24.6076 0
463 1 76.1517 70.019 0
464 1 9.05995 47.8441 0
465 2 40.5573 45.1423 0
466 1 21.7358 12.8353 0
467 2 11.6547 1.27833 0
468 1 19.3798 36.5697 0
469 1 1.59964 1.67666 0
470 1 61.729 10.4713 0
471 2 73.871 40.92 0
472 1 26.0818 42.8838 0
473 1 61.5825 66.1127 0
474 1 33.3969 54.7983 0
475 1 22.558 59.6516 0
476 2 39.1204 32.1365 0
477 1 60.5981 11.7301 0
478 2 34.0059 75.5642 0
479 1 32.9101 22.4437 0
480 1 19.9512 25.5955 0
481 1 7.26787 18.6601 0
482 1 11.1808 25.2023 0
483 2 0.638368 1.36604 0
484 1 14.2616 38.2199 0
485 1 21.2789 57.036 0
486 1 7.43369 4.87559 0
487 2 71.3908 10.0414 0
488 1 58.3638 6.52221 0
489 1 52.2575 15.4941 0
490 1 35.5987 31.1957 0
491 1 30.8444 42.4712 0
492 2 61.0974 9.85596 0
493 1 72.2275 7.56783 0
494 1 67.621 31.5123 0
495 2 22.6074 49.2919 0
496 2 52.6495 42.7537 0
497 2 40.8165 7.88114 0
498 1 23.6362 25.6707 0
499 1 36.7538 76.4624 0
500 1 3.06389 4.02886 0
501 2 45.6896 43.7863 0
502 1 16.8774 24.7534 0
503 1 50.2491 9.79093 0
504 1 37.2305 32.6071 0
505 2 26.1073 0.293398 0
506 2 17.4979 64.9832 0
507 1 42.0574 37.4738 0
508 1 12.9299 32.6905 0
509 1 28.952 25.1164 0
510 1 6.9979 38.4922 0
511 1 68.0444 27.5037 0
512 1 54.5721 53.4567 0
513 1 11.9482 34.1033 0
514 1 25.176 64.3023 0
515 2 61.3026 11.2241 0
516 2 11.3971 38.5289 0
517 2 75.016 74.5504 0
518 2 19.1893 54.0643 0
519 2 32.7755 2.03614 0
520 1 74.5753 37.0885 0
521 1 42.0937 24.7037 0
522 2 24.2094 66.0438 0
523 1 77.0032 11.961 0
524 1 70.4618 34.3153 0
525 1 22.8037 77.3845 0
526 2 0.375172 21.6608 0
527 1 49.4711 26.2913 0
528 2 74.5723 5.13759 0
529 2 34.7116 46.0842 0
530 1 7.6346 59.3393 0
531 2 75.7635 69.1877 0
532 2 32.308 60.8395 0
533 1 72.634 5.43239 0
534 1 34.3203 26.4563 0
535 1 29.1371 18.9144 0
536 1 32.3446 65.8715 0
537 1 35.0315 47.8983 0
538 2 16.4502 21.6278 0
539 2 46.1073 76.877 0
540 1 61.085 40.4959 0
541 2 25.2595 7.41992 0
542 1 51.4489 56.6766 0
543 2 69.2991 55.7754 0
544 2 51.9498 10.658 0
545 1 28.5456 23.6384 0
546 1 33.784 3.51818 0
547 1 10.2184 14.3217 0
548 2 23.6458 2.82301 0
549 2 64.4999 22.0705 0
550 2 5.30394 39.2891 0
551 1 29.7885 8.47419 0
552 2 70.5615 40.1652 0
553 2 29.7317 45.0118 0
554 1 52.952 62.6408 0
555 1 50.3246 56.8361 0
556 1 72.6709 68.4571 0
557 1 61.9734 53.778 0
558 1 2.6856 68.4718 0
559 1 72.6736 35.9084 0
560 2 21.4999 61.3175 0
561 1 6.06788 0.742972 0
562 2 5.31799 12.0066 0
563 2 54.3819 48.6676 0
564 1 70.6674 67.6854 0
565 2 21.9015 1.01998 0
566 2 18.2624 23.846 0
567 1 48.7574 42.5176 0
568 2 22.8029 73.9455 0
569 2 15.9582 27.3093 0
570 1 73.173 34.0696 0
571 1 1.30588 3.38651 0
572 2 6.67892 48.4215 0
573 2 0.0475577 44.7993 0
574 1 3.67778 68.0905 0
575 1 18.4958 6.99668 0
576 1 16.4618 62.8808 0
577 1 43.2288 50.7338 0
578 2 67.7806 33.9966 0
579 2 45.2649 68.8391 0
580 1 62.8573 42.5017 0
581 1 6.65777 60.5805 0
582 2 68.707 59.8249 0
583 2 64.2399 59.0388 0
584 2 33.2108 65.6107 0
585 1 60.666 76.9474 0
586 1 48.9548 59.297 0
587 2 14.6596 21.7465 0
588 1 49.4234 5.36945 0
589 2 53.7507 10.4099 0
590 1 24.6079 73.3232 0
591 1 56.1727 6.74259 0
592 1 48.6419 74.4911 0
593 1 43.997 13.2542 0
594 1 59.7672 63.3513 0
595 1 72.566 65.2497 0
596 2 7.48583 1.98746 0
597 1 3.42599 43.8744 0
598 1 68.9514 9.03547 0
599 1 2.67691 50.884 0
600 1 0.0961304 47.4734 0
601 2 42.2592 36.6238 0
602 1 62.0601 14.3926 0
603 2 70.574 50.6974 0
604 2 62.2602 16.4825 0
605 1 52.3207 69.1907 0
606 1 41.3623 3.92707 0
607 1 76.2698 1.92947 0
608 2 1.3088 40.1517 0
609 2 40.9894 0.641364 0
610 1 7.74209 49.5922 0
611 1 54.1838 58.5369 0
612 1 77.0434 6.02466 0
613 1 0.203112 22.512 0
614 2 50.4982 28.6663 0
615 1 34.5442 39.1156 0
616 1 39.6346 15.9289 0
617 1 69.201 1.52832 0
618 2 11.9379 42.608 0
619 2 54.1362 42.696 0
620 2 71.4502 74.048 0
621 2 57.9603 36.0461 0
622 1 60.5876 17.2997 0
623 1 37.873 11.5313 0
624 2 20.498 54.683 0
625 1 27.0756 76.1356 0
626 1 73.9502 28.8635 0
627 2 1.95194 25.427 0
628 1 28.7947 58.1352 0
629 2 76.8753 25.8549 0
630 1 29.1969 72.7136 0
631 1 57.3657 37.7642 0
632 1 21.5292 64.9282 0
633 2 25.4985 71.852 0
634 1 18.7183 50.5974 0
635 2 41.5572 43.7823 0
636 2 37.0383 40.8814 0
637 1 11.2357 11.0082 0
638 1 67.36 40.7239 0
639 1 70.3216 46.1751 0
640 1 0.258668 53.6592 0
641 1 36.6702 33.6593 0
642 1 9.75754 33.5815 0
643 1 50.2594 45.2873 0
644 2 19.6546 27.2495 0
645 1 57.0979 52.2586 0
646 1 46.4157 47.3466 0
647 2 23.589 10.0868 0
648 1 64.2045 12.4289 0
649 2 10.8493 68.7687 0
650 2 46.9565 62.6538 0
651 1 46.1191 12.2336 0
652 1 29.5708 70.6949 0
653 2 13.7409 23.0752 0
654 2 10.3416 4.0105 0
655 1 5.54619 51.6901 0
656 1 72.6955 53.5393 0
657 1 33.7668 46.5644 0
658 1 71.4542 12.9744 0
659 2 0.839555 65.9178 0
660 1 26.3856 35.4087 0
661 1 36.747 10.2664 0
662 1 32.5882 60.0228 0
663 1 10.8549 28.612 0
664 1 58.2359 75.4341 0
665 2 49.1941 77.163 0
666 2 12.8017 58.0478 0
667 1 26.3204 73.6116 0
668 2 7.99951 76.1551 0
669 1 4.35263 9.40974 0
670 2 43.7474 37.6633 0
671 2 37.16 17.5708 0
672 1 10.0139 19.709 0
673 1 6.8578 16.6518 0
674 1 32.5993 43.0028 0
675 2 5.49065 57.3698 0
676 2 38.6142 6.37412 0
677 1 41.3001 54.414 0
678 1 53.937 39.2824 0
679 1 46.0768 69.3418 0
680 1 31.7666 53.8896 0
681 1 26.4665 54.1163 0
682 1 62.4492 59.6678 0
683 1 18.0875 59.1812 0
684 1 65.2716 69.1764 0
685 2 35.7967 18.6124 0
686 1 50.314 6.43442 0
687 1 41.36 18.8511 0
688 2 53.6839 73.9569 0
689 1 72.24 62.1456 0
690 1 66.415 72.5251 0
691 1 41.5729 39.9623 0
692 2 60.0937 43.8943 0
693 1 72.488 0.104862 0
694 2 53.6671 64.4618 0
695 1 42.5417 10.8868 0
696 2 35.5812 47.217 0
697 1 24.8509 12.8077 0
698 1 8.45552 3.53112 0
699 1 66.5604 13.8134 0
700 1 72.0831 46.7495 0
701 1 63.9759 31.0191 0
702 1 63.4911 65.7027 0
703 2 72.7349 1.63732 0
704 2 8.24007 61.1317 0
705 2 5.06704 7.21042 0
706 1 52.4275 51.6175 0
707 2 59.7836 38.2495 0
708 1 50.1912 43.5109 0
709 1 51.8118 73.3664 0
710 2 60.1697 26.8528 0
711 1 56.2029 54.0523 0
712 2 62.7524 32.4629 0
713 2 68.5866 70.4238 0
714 2 77.3714 64.4065 0
715 1 45.0719 18.9519 0
716 1 0.509031 29.9609 0
717 1 29.6917 63.4085 0
718 1 14.0361 3.62571 0
719 1 53.2727 37.0606 0
720 2 49.2651 38.9341 0
721 2 66.7859 39.6259 0
722 1 48.9576 8.04622 0
723 2 40.0347 75.4891 0
724 2 10.369 59.4545 0
725 1 50.8965 39.7371 0
726 1 8.59892 29.7383 0
727 2 12.6138 1.48375 0
728 1 65.6375 56.1003 0
729 2 21.6568 59.5981 0
730 1 32.9879 27.5242 0
731 2 16.6425 36.4546 0
732 1 16.3272 54.2064 0
733 1 29.9215 29.4492 0
734 2 66.4927 46.3517 0
735 1 67.3397 67.3781 0
736 1 47.0314 49.895 0
737 2 4.21057 45.5408 0
738 1 13.6744 34.5188 0
739 1 17.9127 37.6254 0
740 1 48.5735 38.4423 0
741 2 57.3918 55.6468 0
742 1 58.977 37.385 0
743 1 27.0198 62.012 0
744 2 72.4454 19.142 0
745 1 23.0005 72.4751 0
746 1 35.0983 10.5746 0
747 1 47.5551 76.243 0
748 2 43.1409 70.0294 0
749 2 22.4902 24.3842 0
750 1 55.4385 35.1385 0
751 1 57.724 39.9524 0
752 2 1.38264 71.0199 0
753 1 53.2064 40.0151 0
754 2 21.7857 15.217 0
755 1 24.1191 49.9724 0
756 2 49.3258 76.1673 0
757 1 48.2441 19.5644 0
758 1 5.89387 9.93304 0
759 1 61.9383 46.9977 0
760 1 12.1191 10.3302 0
761 1 70.6745 71.941 0
762 1 15.1626 57.3939 0
763 2 77.3777 6.79158 0
764 1 74.4247 55.8531 0
765 2 46.9194 57.5339 0
766 1 63.551 22.1251 0
767 1 13.3595 1.05356 0
768 1 64.9937 8.18834 0
769 1 61.862 49.9517 0
770 2 60.3709 71.9915 0
771 1 18.8 40.1035 0
772 1 44.8446 51.353 0
773 1 40.8271 43.2518 0
774 2 32.9111 25.6708 0
775 1 71.3211 31.1534 0
776 2 44.3676 42.661 0
777 1 70.2652 55.4581 0
778 2 10.3921 62.8766 0
779 1 45.3235 25.4329 0
780 1 16.9609 6.51013 0
781 1 30.507 35.5142 0
782 1 57.307 65.3167 0
783 1 60.7901 35.3527 0
784 1 70.9085 49.8684 0
785 2 8.74223 11.4681 0
786 1 73.8488 70.2411 0
787 1 20.8007 66.4403 0
788 1 39.8238 55.2629 0
789 1 11.038 4.50454 0
790 1 51.9489 70.2008 0
791 1 45.7303 13.3612 0
792 1 8.75713 25.0329 0
793 1 24.9364 15.3582 0
794 2 70.493 16.3371 0
795 2 75.3527 13.8294 0
796 2 75.2138 67.5955 0
797 1 44.4547 65.8605 0
798 1 37.9997 19.2905 0
799 1 44.2504 76.6105 0
800 1 31.0023 70.7138 0
801 2 6.65134 25.9744 0
802 2 27.8731 45.7217 0
803 2 23.5779 76.9067 0
804 2 52.6801 36.3046 0
805 1 23.7819 71.7761 0
806 1 52.6893 70.9673 0
807 2 39.7728 50.6503 0
808 1 50.2994 48.002 0
809 2 37.0875 62.2214 0
810 1 57.8785 77.2844 0
811 1 28.6686 60.9889 0
812 2 59.8959 48.1597 0
813 2 46.1711 58.7741 0
814 1 54.2245 31.3854 0
815 2 40.8557 17.0082 0
816 1 27.5287 35.5585 0
817 1 68.7463 75.4598 0
818 2 36.2478 16.474 0
819 2 45.4126 57.3018 0
820 1 67.6784 70.1948 0
821 1 16.6753 64.5888 0
822 1 56.3075 76.9714 0
823 1 17.0826 55.6635 0
824 2 35.2157 40.801 0
825 1 29.2954 41.636 0
826 1 34.1516 76.3996 0
827 1 7.53949 26.192 0
828 1 76.7378 51.0062 0
829 1 72.062 40.0839 0
830 2 47.9725 65.2262 0
831 2 43.2661 4.67814 0
832 1 73.4936 13.4625 0
833 1 25.1458 43.4381 0
834 2 48.4571 5.64989 0
835 1 68.3047 6.20848 0
836 1 58.1362 26.8759 0
837 1 56.8509 41.4989 0
838 1 38.9847 52.9528 0
839 1 16.0674 60.1649 0
840 2 15.8591 46.68 0
841 1 36.7886 52.7199 0
842 2 10.9916 61.0824 0
843 1 5.58631 42.3704 0
844 1 63.1014 21.1407 0
845 2 28.0511 3.26505 0
846 1 49.7181 39.6679 0
847 1 11.006 57.567 0
848 2 69.1432 47.4948 0
849 1 73.848 10.6974 0
850 1 67.4973 19.9001 0
851 1 39.2622 18.8256 0
852 1 12.01 2.02966 0
853 1 42.6353 61.7019 0
854 1 37.6684 69.7306 0
855 1 39.5019 25.6853 0
856 2 18.7048 41.8844 0
857 1 58.0183 34.1101 0
858 2 34.6952 28.9031 0
859 1 13.2656 64.5773 0
860 2 1.88145 58.2867 0
861 2 60.2501 40.1346 0
862 2 3.3213 68.9861 0
863 1 60.115 24.2716 0
864 1 60.5293 53.6701 0
865 2 66.6454 67.8669 0
866 1 59.9843 16.3589 0
867 2 32.056 22.4028 0
868 1 36.8411 61.4132 0
869 1 61.7594 19.852 0
870 1 0.0541791 52.595 0
871 1 63.3337 24.7003 0
872 1 42.2613 51.0181 0
873 1 50.6908 62.6782 0
874 1 4.12466 71.6734 0
875 1 33.7888 57.7642 0
876 2 51.5283 8.15263 0
877 1 13.3984 55.3252 0
878 2 14.8127 15.9348 0
879 1 76.2368 13.8893 0
880 2 31.8249 33.309 0
881 2 52.029 29.4264 0
882 2 48.0203 73.8254 0
883 1 26.5409 19.7323 0
884 1 55.9309 36.7641 0
885 1 39.5848 4.49035 0
886 1 36.8402 60.3599 0
887 2 54.784 50.4153 0
888 1 0.70332 76.5675 0
889 2 59.2928 49.5173 0
890 2 7.97574 25.4306 0
891 1 37.749 10.4959 0
892 1 39.7826 68.0223 0
893 1 29.9566 53.7771 0
894 1 76.8747 14.7086 0
895 2 32.8497 54.0716 0
896 1 37.1775 2.64802 0
897 2 35.5003 16.9451 0
898 1 30.8707 43.692 0
899 1 2.06167 75.5539 0
900 2 38.4326 0.663875 0
901 1 53.3003 42.1708 0
902 1 24.3516 75.0803 0
903 1 37.8396 40.6592 0
904 2 0.0764174 37.6176 0
905 1 63.7714 62.4788 0
906 1 69.0116 44.4745 0
907 1 3.66718 29.5412 0
908 1 50.2322 23.6574 0
909 1 0.224727 48.4969 0
910 2 1.78112 50.5624 0
911 2 4.94745 4.55084 0
912 2 36.3664 32.7446 0
913 2 32.4498 50.9383 0
914 1 18.2285 12.909 0
915 2 63.9644 4.76547 0
916 1 3.54621 39.7082 0
917 2 5.04432 33.2377 0
918 2 19.4676 35.5871 0
919 1 8.17562 57.7073 0
920 1 15.8837 47.6195 0
921 1 0.637914 27.0217 0
922 2 50.7868 19.1879 0
923 2 12.4967 24.2809 0
924 1 38.9979 17.735 0
925 1 66.3706 47.2317 0
926 2 35.557 35.4043 0
927 1 69.5044 0.570248 0
928 1 52.5552 58.8537 0
929 2 51.9532 32.4693 0
930 2 20.0355 15.8479 0
931 1 40.7662 47.6237 0
932 1 70.3797 38.831 0
933 1 34.1534 22.0339 0
934 1 1.72193 59.9718 0
935 1 11.2243 50.4683 0
936 2 41.9403 4.66302 0
937 1 13.9027 73.1588 0
938 1 36.5264 67.9543 0
939 2 49.876 51.8998 0
940 1 75.8624 46.7958 0
941 1 1.37835 17.7615 0
942 1 38.105 29.7286 0
943 2 22.5543 16.4747 0
944 2 1.97353 41.8768 0
945 1 40.5089 25.3927 0
946 1 64.663 67.3456 0
947 2 25.0559 1.78973 0
948 1 39.131 68.8742 0
949 1 26.3679 11.2248 0
950 2 5.07343 9.89614 0
951 1 69.3519 65.5016 0
952 2 52.713 2.91691 0
953 2 7.84638 44.7931 0
954 2 29.88 62.515 0
955 1 27.1111 38.2804 0
956 2 58.8157 11.1549 0
957 1 48.3009 23.725 0
958 2 19.3659 2.52303 0
959 2 74.4597 27 0
960 2 28.893 66.7564 0
961 1 47.9433 54.1143 0
962 1 24.5187 1.19585 0
963 1 17.3189 12.4619 0
964 2 8.48899 9.74769 0
965 2 53.8196 52.9731 0
966 1 0.381022 62.3718 0
967 1 50.0434 35.8835 0
968 1 18.1389 77.385 0
969 1 59.073 24.1951 0
970 2 22.6131 4.09972 0
971 1 21.3035 14.4644 0
972 1 7.10657 25.2561 0
973 1 0.718579 35.9463 0
974 2 1.0733 35.153 0
975 2 73.2091 65.9176 0
976 2 33.4595 19.6527 0
977 1 36.8611 63.2067 0
978 2 5.5126 0.0869453 0
979 2 35.9391 66.0217 0
980 1 72.8301 14.3127 0
981 1 73.6569 57.3464 0
982 1 7.83272 54.7101 0
983 1 18.5098 24.6716 0
984 1 9.27218 57.8346 0
985 1 35.0767 11.5995 0
986 1 37.8299 52.7274 0
987 2 18.1766 12.0447 0
988 2 42.6335 35.1697 0
989 2 9.95755 34.6858 0
990 2 69.8342 51.9969 0
991 2 46.2023 14.9128 0
992 1 62.4008 34.3825 0
993 2 28.2209 5.86323 0
994 2 1.93002 54.8608 0
995 1 38.9562 22.5299 0
996 2 54.9151 56.722 0
997 2 43.5034 30.9458 0
998 2 59.9095 75.1439 0
999 2 39.322 26.5673 0
1000 2 0.423921 49.3516 0
1001 1 41.5958 65.4982 0
1002 1 24.0942 34.709 0
1003 1 9.56075 54.053 0
1004 1 7.55213 22.5322 0
1005 2 10.9575 23.6823 0
1006 2 67.8459 60.9519 0
1007 1 18.9263 20.3185 0
1008 1 47.7099 17.0344 0
1009 1 31.0676 32.91 0
1010 1 11.4227 43.3901 0
1011 2 10.5561 22.2816 0
1012 2 2.76663 23.9925 0
1013 2 64.83 56.1228 0
1014 1 73.9467 15.2489 0
1015 1 75.9701 9.01207 0
1016 1 37.1292 48.0582 0
1017 2 68.6199 54.4953 0
1018 1 25.506 25.8088 0
1019 1 44.3481 29.1398 0
1020 2 31.1314 7.40445 0
1021 2 16.0478 24.5635 0
1022 1 4.57169 60.5443 0
1023 1 40.1555 9.45257 0
1024 1 9.16971 67.3375 0
1025 1 36.8817 66.0191 0
1026 1 7.9346 39.983 0
1027 1 47.4868 2.63666 0
1028 1 1.83914 32.8324 0
1029 1 48.9869 18.3632 0
1030 2 46.7325 48.1933 0
1031 2 37.6038 36.9786 0
1032 1 16.2105 73.1049 0
1033 1 57.7698 19.6879 0
1034 1 35.3625 29.4721 0
1035 1 65.6533 28.1437 0
1036 2 73.6824 45.7844 0
1037 1 31.1128 72.9344 0
1038 1 68.6478 60.6873 0
1039 1 4.95255 31.2969 0
1040 2 65.0646 33.8679 0
1041 1 35.2661 65.2975 0
1042 2 62.5177 68.4448 0
1043 2 60.8728 58.494 0
1044 1 69.7728 22.6924 0
1045 1 66.9293 23.502 0
1046 1 40.9078 68.3432 0
1047 2 9.96366 47.5375 0
1048 1 53.3655 0.120025 0
1049 1 60 48.9737 0
1050 2 45.3275 6.45766 0
1051 1 43.3308 31.8815 0
1052 1 66.3405 44.3751 0
1053 2 32.2528 18.4144 0
1054 1 54.4186 6.33658 0
1055 2 32.911 46.6889 0
1056 2 14.6162 45.175 0
1057 1 11.7877 71.3704 0
1058 1 27.2844 5.61768 0
1059 1 9.44293 75.1468 0
1060 2 21.8126 42.1709 0
1061 1 10.2238 23.1173 0
1062 2 16.8833 41.2895 0
1063 1 0.14345 67.5483 0
1064 1 23.1242 4.73354 0
1065 2 29.6435 52.8652 0
1066 1 37.3736 46.3773 0
1067 1 13.8996 10.3156 0
1068 2 35.5001 67.3345 0
1069 1 68.3512 23.4291 0
1070 2 8.2381 34.2573 0
1071 2 49.5474 42.926 0
1072 2 9.42109 48.6163 0
1073 2 15.0157 2.7452 0
1074 2 32.7392 43.9885 0
1075 1 75.8896 49.5974 0
1076 1 40.9873 8.77887 0
1077 1 41.7773 32.5445 0
1078 2 71.1133 26.668 0
1079 2 38.5858 10.3568 0
1080 2 30.0687 72.493 0
1081 2 45.4259 48.9916 0
1082 2 6.38683 27.5925 0
1083 2 21.806 19.9548 0
1084 1 43.6142 58.3519 0
1085 1 19.1808 52.2088 0
1086 1 70.4764 66.6782 0
1087 1 29.6086 71.7642 0
1088 1 45.311 63.8008 0
1089 2 8.38244 31.4539 0
1090 1 42.8927 34.2693 0
1091 2 27.549 17.8124 0
1092 1 63.0324 53.4964 0
1093 1 69.0233 32.5309 0
1094 2 43.3733 55.3817 0
1095 1 25.282 71.0197 0
1096 2 48.1315 18.678 0
1097 1 76.2892 16.3861 0
1098 1 62.8744 43.562 0
1099 1 31.748 5.33996 0
1100 1 67.7416 3.13174 0
1101 1 74.5247 11.5452 0
1102 1 26.1343 74.6238 0
1103 1 51.4416 71.1366 0
1104 1 47.0499 58.362 0
1105 1 48.2398 40.48 0
1106 1 16.4224 71.3178 0
1107 2 45.2829 62.9036 0
1108 1 55.474 31.4328 0
1109 1 73.1553 24.5403 0
1110 2 14.7349 11.796 0
1111 1 2.57837 56.7205 0
1112 1 75.5582 18.6962 0
1113 2 75.443 7.40863 0
1114 2 14.2258 53.2729 0
1115 2 32.7696 49.4235 0
1116 1 76.7697 64.9892 0
1117 1 66.6112 56.1508 0
1118 1 12.6513 74.9798 0
1119 2 11.205 64.126 0
1120 1 41.7738 58.5583 0
1121 2 21.1725 64.1459 0
1122 1 32.0121 32.4812 0
1123 2 23.0617 51.8997 0
1124 1 51.9426 62.8308 0
1125 2 14.6245 4.30725 0
1126 2 15.4382 20.0786 0
1127 1 75.1416 24.4909 0
1128 1 67.1815 52.0325 0
1129 1 60.8564 39.5035 0
1130 1 30.5303 47.3812 0
1131 1 62.4637 15.356 0
1132 2 75.8351 63.5398 0
1133 2 57.0294 21.3656 0
1134 2 20.6828 71.9758 0
1135 1 0.88417 68.278 0
1136 2 51.231 27.0864 0
1137 1 52.1722 61.0353 0
1138 1 30.0139 13.4283 0
1139 2 57.7355 52.8667 0
1140 2 9.32127 23.0857 0
1141 1 74.7651 65.6644 0
1142 1 26.7535 51.8817 0
1143 1 48.1922 45.1337 0
1144 2 58.2848 17.4127 0
1145 1 37.8658 61.4033 0
1146 1 15.5637 18.7451 0
1147 1 28.1004 25.6504 0
1148 1 10.8257 36.6542 0
1149 1 57.3588 29.5785 0
1150 2 65.4698 61.5596 0
1151 1 21.9478 3.53969 0
1152 1 59.9255 52.0086 0
1153 1 72.8792 28.8337 0
1154 1 13.7972 4.62539 0
1155 2 58.5272 21.1348 0
1156 1 44.6265 32.3964 0
1157 1 12.2647 18.1549 0
1158 2 58.4821 47.8139 0
1159 2 5.59267 70.5667 0
1160 1 34.191 9.22986 0
1161 2 44.1939 56.7231 0
1162 1 16.3589 9.85971 0
1163 2 13.0839 72.9219 0
1164 1 23.9719 58.6353 0
1165 1 21.0992 45.7594 0
1166 2 14.9201 50.5256 0
1167 1 27.9854 20.8987 0
1168 1 56.3872 64.7875 0
1169 1 19.5993 66.5573 0
1170 2 6.21503 33.4961 0
1171 1 48.8088 34.148 0
1172 1 22.7971 6.67992 0
1173 1 51.7969 64.0018 0
1174 1 38.9105 29.0517 0
1175 2 62.7633 44.4048 0
1176 1 68.2414 36.4022 0
1177 1 47.7208 70.1378 0
1178 2 61.3057 47.6001 0
1179 1 71.4856 33.5116 0
1180 1 51.8236 17.9471 0
1181 1 54.4518 22.8824 0
1182 1 61.0445 73.8964 0
1183 2 43.1013 73.3701 0
1184 2 28.6836 22.7957 0
1185 1 17.4519 62.9833 0
1186 1 48.2525 49.3964 0
1187 1 74.5997 72.3258 0
1188 2 4.75633 37.498 0
1189 1 60.7038 65.4207 0
1190 1 28.271 51.515 0
1191 2 71.7518 5.23527 0
1192 1 24.4391 47.0124 0
1193 1 47.4994 18.0777 0
1194 2 16.5775 15.9995 0
1195 1 74.29 48.7351 0
1196 1 21.8944 49.8178 0
1197 1 35.5679 38.9841 0
1198 1 62.7688 74.9935 0
1199 2 58.0709 61.3393 0
1200 1 27.1644 8.62412 0
1201 1 3.13348 73.1017 0
1202 1 5.79613 48.8426 0
1203 2 47.3734 12.4465 0
1204 1 57.74 56.4849 0
1205 1 66.8275 50.2791 0
1206 1 52.0504 5.16188 0
1207 1 31.861 62.6913 0
1208 1 75.3611 57.9726 0
1209 2 65.3215 60.1587 0
1210 1 68.6242 31.4419 0
1211 2 25.5632 35.787 0
1212 1 33.9131 36.3761 0
1213 1 61.6762 68.8281 0
1214 1 60.4831 23.3194 0
1215 1 10.8169 71.7956 0
1216 1 11.1136 49.2915 0
1217 2 68.5775 2.89236 0
1218 2 62.5993 21.8531 0
1219 1 29.8687 15.1958 0
1220 1 61.0903 18.1929 0
1221 1 61.7783 54.9105 0
1222 2 66.6719 76.1743 0
1223 1 42.1992 48.2331 0
1224 1 0.551556 34.0216 0
1225 1 2.77321 25.6727 0
1226 2 66.0313 65.1043 0
1227 1 41.6982 57.4727 0
1228 1 77.1998 70.6069 0
1229 2 47.9339 9.45146 0
1230 1 25.4008 49.6725 0
1231 2 52.6408 18.3649 0
1232 1 67.7473 38.0237 0
1233 1 37.7644 57.5945 0
1234 1 1.82326 67.6634 0
1235 1 18.1224 45.9419 0
1236 1 51.4039 61.9067 0
1237 1 37.568 20.8955 0
1238 1 24.441 7.12422 0
1239 1 12.8717 22.692 0
1240 1 24.4251 62.8236 0
1241 1 76.3519 62.8214 0
1242 1 34.5893 58.5477 0