ITEM: TIMESTEP
0
ITEM: NUMBER OF ATOMS
7200
ITEM: BOX BOUNDS xy xz yz pp pp pp
0.0000000000000000e+00 7.7459666924100006e+01 0.0000000000000000e+00
0.0000000000000000e+00 7.7459666924100006e+01 0.0000000000000000e+00
-1.2909944490000000e-01 1.2909944490000000e-01 0.0000000000000000e+00
ITEM: ATOMS id type x y z
1 1 6.15161 12.6447 0
2 1 22.615 4.40984 0
3 1 74.6083 0.465309 0
4 1 31.5257 19.383 0
5 1 21.8978 64.1247 0
6 1 68.5553 30.73 0
7 2 58.5935 14.979 0
8 2 56.8078 44.6951 0
9 1 47.6017 61.4919 0
10 2 41.7725 0.229557 0
11 2 22.4932 60.7811 0
12 1 52.3502 19.9485 0
13 2 30.7911 4.06509 0
14 1 49.857 67.4182 0
15 1 32.6957 49.2425 0
16 1 26.6671 29.4753 0
17 1 19.527 46.8177 0
18 1 27.2025 22.6985 0
19 1 20.8023 61.6554 0
20 2 40.9798 66.3215 0
21 1 9.3551 67.8874 0
22 1 57.0446 35.2375 0
23 1 1.60586 57.2389 0
24 1 41.8944 76.7902 0
25 1 74.769 65.7808 0
26 1 36.0452 58.4973 0
27 2 23.8216 66.9239 0
28 1 43.5933 51.6421 0
29 2 9.04984 31.4876 0
30 2 35.2456 39.5344 0
31 1 16.952 51.7252 0
32 1 70.523 45.9675 0
33 1 3.62379 47.9947 0
34 2 67.9843 0.0815251 0
35 1 76.4958 58.4219 0
36 1 21.2813 58.2968 0
37 1 13.0158 64.9834 0
38 1 67.1307 23.0881 0
39 1 15.2 72.9696 0
40 2 22.6951 64.6175 0
41 2 20.4218 73.4887 0
42 1 3.31338 13.6083 0
43 1 11.3141 8.06497 0
44 1 7.58783 74.0202 0
45 1 0.825097 45.0911 0
46 1 48.6917 50.3411 0
47 1 75.4361 58.1466 0
48 1 42.9894 58.7418 0
49 2 71.2918 73.8646 0
50 1 10.3947 63.1757 0
51 1 74.7341 14.0286 0
52 2 49.8234 27.0034 0
53 1 68.463 17.0201 0
54 1 39.2449 19.7394 0
55 1 69.7458 68.6602 0
56 1 44.9617 27.1318 0
57 1 71.6851 48.3867 0
58 1 7.39207 65.3315 0
59 1 27.159 2.31569 0
60 1 22.6421 9.66392 0
61 1 37.1287 64.6227 0
62 1 44.647 39.8344 0
63 1 47.1177 8.20363 0
64 1 60.2077 43.2745 0
65 1 67.0664 45.7453 0
66 2 68.6091 2.64101 0
67 2 40.7729 29.0981 0
68 2 21.592 14.3852 0
69 1 63.1756 33.4386 0
70 1 74.3403 34.892 0
71 2 28.2646 52.2185 0
72 1 72.8902 2.57676 0
73 1 12.0737 3.0017 0
74 2 35.59 38.0818 0
75 1 56.0361 44.9808 0
76 1 13.2527 46.4506 0
77 1 25.2807 3.79511 0
78 1 0.0593062 3.55266 0
79 1 65.6076 63.7268 0
80 1 29.6833 9.712 0
81 1 55.9685 58.5298 0
82 2 38.8698 21.7299 0
83 1 14.1276 29.9256 0
84 1 43.7923 38.4416 0
85 1 40.109 26.721 0
86 2 42.6375 66.2535 0
87 1 69.1562 32.5415 0
88 1 7.90704 44.8558 0
89 1 29.1339 10.5849 0
90 1 38.7141 59.8374 0
91 2 64.9455 27.1758 0
92 2 42.3738 39.6873 0
93 1 41.9233 37.3347 0
94 1 31.1378 64.87 0
95 2 43.0859 42.9151 0
96 1 66.9065 66.4602 0
97 1 52.0034 49.3249 0
98 2 74.9992 70.0524 0
99 1 47.8793 34.1004 0
100 2 46.237 29.3985 0
101 1 50.7481 46.8055 0
102 1 76.602 15.3275 0
103 1 45.7712 57.8906 0
104 1 29.1553 54.0227 0
105 2 33.1132 19.6098 0
106 2 33.775 31.7053 0
107 1 1.65073 32.3049 0
108 1 10.4936 73.1002 0
109 1 37.1694 27.0959 0
110 2 59.0078 25.7521 0
111 1 63.9575 35.0915 0
112 1 29.2293 8.77662 0
113 2 8.82092 44.6941 0
114 2 15.8713 24.5551 0
115 2 32.0776 28.4031 0
116 2 1.86867 51.8231 0
117 1 9.26144 61.0966 0
118 2 72.4488 35.39 0
119 1 60.0229 1.28624 0
120 2 3.74696 38.3605 0
121 1 1.50896 72.982 0
122 1 24.8321 58.5673 0
123 2 12.6896 71.1495 0
124 1 53.9386 68.9598 0
125 1 42.1821 42.7628 0
126 1 49.641 42.8027 0
127 1 21.99 57.3576 0
128 1 22.3038 13.9229 0
129 1 16.2489 59.7048 0
130 1 70.6112 58.992 0
131 1 50.0926 22.6531 0
132 2 27.7581 55.3356 0
133 2 67.5888 3.58119 0
134 1 38.7561 44.098 0
135 1 39.6519 25.6145 0
136 2 45.8197 32.052 0
137 1 59.1008 52.9648 0
138 2 3.02652 55.8182 0
139 1 61.5747 6.21152 0
140 1 73.8661 12.3152 0
141 2 37.7011 57.9011 0
142 1 15.4213 9.20585 0
143 2 34.324 64.4569 0
144 2 51.3153 76.4745 0
145 2 76.6877 65.6969 0
146 1 60.0439 11.5745 0
147 1 40.1443 36.8535 0
148 1 45.2827 51.7547 0
149 2 61.4341 51.1035 0
150 1 29.9061 75.3037 0
151 2 39.8185 2.0068 0
152 1 50.8863 57.0465 0
153 2 14.9472 69.0034 0
154 2 30.0787 0.411756 0
155 1 69.8393 56.3501 0
156 1 37.6403 20.2677 0
157 1 44.3071 65.2008 0
158 1 56.0558 59.669 0
159 2 76.7015 16.1273 0
160 1 32.5318 17.7501 0
161 1 9.41765 71.8521 0
162 2 71.7544 20.2524 0
163 1 35.9073 43.1846 0
164 1 71.4227 23.5688 0
165 1 10.8077 10.9616 0
166 1 17.1967 41.6379 0
167 1 35.142 13.1478 0
168 1 46.9805 65.3508 0
169 1 53.2949 20.6415 0
170 1 64.6784 8.95543 0
171 2 52.5496 58.9974 0
172 2 38.5569 71.74 0
173 2 40.9959 21.7473 0
174 2 19.6025 42.247 0
175 2 37.8165 26.4947 0
176 1 35.7696 20.5754 0
177 1 37.0212 52.4118 0
178 1 42.4951 63.3776 0
179 1 63.4027 7.0271 0
180 2 13.8961 16.7548 0
181 1 62.538 17.1955 0
182 1 57.5598 76.5389 0
183 2 11.9427 27.6011 0
184 1 7.75269 72.5217 0
185 2 76.4052 29.6494 0
186 1 59.0743 22.3845 0
187 1 26.5476 56.8639 0
188 1 53.747 48.7443 0
189 2 64.247 39.4607 0
190 1 1.27967 73.99 0
191 1 62.8049 9.71097 0
192 1 69.8768 28.0786 0
193 2 13.5522 26.0293 0
194 2 61.3175 63.8148 0
195 1 5.54062 5.40261 0
196 2 45.3662 24.6001 0
197 2 35.6062 27.6897 0
198 1 13.6495 60.5047 0
199 2 52.2348 73.1701 0
200 1 62.1035 41.044 0
201 2 32.9062 71.5729 0
202 2 62.933 62.8359 0
203 1 47.9314 2.26883 0
204 1 36.5486 14.3415 0
205 1 68.4892 4.61808 0
206 2 40.7693 24.336 0
207 2 11.0253 68.825 0
208 1 35.684 28.5639 0
209 1 8.6729 11.5951 0
210 2 6.92689 24.727 0
211 1 10.1351 60.5008 0
212 2 35.6025 2.17301 0
213 2 73.5062 20.3444 0
214 1 2.98402 59.5272 0
215 2 8.74935 15.1621 0
216 1 0.103349 76.5391 0
217 1 63.3289 54.1101 0
218 2 8.86985 53.6966 0
219 2 3.52629 54.0204 0
220 2 40.2135 67.3227 0
221 1 28.2696 39.7078 0
222 1 56.3205 17.7536 0
223 2 35.6389 15.6715 0
224 2 24.4142 3.53885 0
225 1 31 25.1712 0
226 2 62.8904 50.6823 0
227 2 15.2661 76.779 0
228 1 17.4189 20.1948 0
229 1 76.1581 17.9127 0
230 1 30.5987 3.19534 0
231 1 9.51972 44.1538 0
232 1 43.3549 20.545 0
233 1 33.1591 20.7865 0
234 1 73.0747 4.33924 0
235 1 46.1218 50.7842 0
236 2 27.6315 0.563882 0
237 1 57.4353 48.2142 0
238 2 12.2838 29.3677 0
239 1 35.7895 6.18687 0
240 2 67.3099 72.4982 0
241 1 57.8073 50.8541 0
242 1 14.6852 36.9298 0
243 1 22.9795 57.5962 0
244 1 49.5179 57.6267 0
245 1 23.1549 34.0891 0
246 1 67.8969 46.4606 0
247 1 55.3571 68.3882 0
248 1 11.2891 67.9919 0
249 2 57.9269 37.4214 0
250 1 29.8766 3.98319 0
251 2 46.8754 45.1819 0
252 2 60.1638 36.9794 0
253 1 30.1035 22.2705 0
254 1 69.5545 24.69 0
255 1 10.4832 46.0977 0
256 1 42.7114 0.163891 0
257 1 18.498 61.2954 0
258 1 15.44 49.0999 0
259 1 47.7777 57.8569 0
260 2 40.262 42.2848 0
261 2 30.657 69.3239 0
262 1 31.824 34.6921 0
263 2 75.7932 39.3634 0
264 2 4.51737 30.3302 0
265 1 73.7429 58.7348 0
266 1 24.2086 34.403 0
267 2 4.73699 18.1819 0
268 2 59.0809 38.3572 0
269 1 49.6692 32.0228 0
270 2 5.05749 57.4697 0
271 2 13.2833 33.6499 0
272 2 46.0246 18.5623 0
273 1 24.1557 5.61327 0
274 1 33.8127 68.9157 0
275 1 3.68539 63.3723 0
276 1 4.59892 4.0175 0
277 2 7.30132 47.507 0
278 1 8.2969 6.73156 0
279 1 12.4697 42.8692 0
280 1 16.5954 35.788 0
281 1 41.0938 36.3921 0
282 2 77.0499 17.8649 0
283 1 5.73606 64.8617 0
284 2 59.3694 43.4273 0
285 1 4.42089 40.6783 0
286 1 24.2633 45.4628 0
287 1 16.2506 22.8364 0
288 2 2.67817 75.653 0
289 2 33.539 47.5089 0
290 2 75.1585 9.71017 0
291 1 22.8938 18.1855 0
292 1 37.9444 53.1891 0
293 1 50.1024 11.8826 0
294 1 37.5991 76.753 0
295 1 74.2441 2.16652 0
296 2 7.7608 22.4606 0
297 1 48.9481 52.9735 0
298 1 76.4298 40.928 0
299 2 59.2685 30.6009 0
300 1 40.1683 50.7685 0
301 1 68.6657 15.0119 0
302 1 68.5432 53.916 0
303 1 11.4879 22.8893 0
304 1 47.8374 7.5292 0
305 2 61.0571 75.7164 0
306 1 62.0377 45.2879 0
307 2 2.39867 21.3353 0
308 1 52.9366 9.18934 0
309 2 8.03878 12.254 0
310 2 75.0017 19.5831 0
311 1 29.0649 60.0293 0
312 1 0.861155 74.9414 0
313 1 68.8794 9.23831 0
314 1 55.9125 40.2761 0
315 2 71.4222 42.2523 0
316 2 27.5158 7.75296 0
317 1 46.8202 7.24509 0
318 2 6.26345 39.8913 0
319 1 26.7354 13.4431 0
320 1 27.2113 74.1798 0
321 1 51.0998 0.986108 0
322 2 4.52302 71.3246 0
323 2 14.3451 72.6924 0
324 1 72.2548 56.7238 0
325 1 45.663 19.4107 0
326 1 72.5913 52.9245 0
327 1 49.8438 39.8482 0
328 1 20.263 23.3933 0
329 1 53.662 14.4433 0
330 2 58.545 41.0316 0
331 2 50.7861 67.7146 0
332 1 64.73 42.1685 0
333 1 47.8273 18.0327 0
334 1 28.8364 41.0573 0
335 1 16.633 26.5444 0
336 2 71.4462 0.117691 0
337 1 44.5341 26.1374 0
338 2 13.7963 68.4119 0
339 1 38.8592 4.32204 0
340 1 25.2768 45.4502 0
341 2 15.4816 41.2625 0
342 1 61.3469 73.9526 0
343 2 70.6276 61.5185 0
344 2 28.172 47.9962 0
345 1 9.80328 12.9929 0
346 1 22.8091 16.749 0
347 1 40.9297 45.5245 0
348 1 38.9978 13.0631 0
349 1 34.5091 24.3373 0
350 1 41.2768 23.6508 0
351 1 21.6407 61.1353 0
352 1 50.3001 29.6295 0
353 1 3.24095 21.261 0
354 2 50.5267 42.7742 0
355 2 58.1304 26.1414 0
356 2 14.3554 77.3154 0
357 1 52.8335 62.8124 0
358 1 42.4371 12.6425 0
359 1 43.0174 16.4583 0
360 2 66.1548 35.6495 0
361 2 45.8692 45.2466 0
362 1 16.3612 64.5455 0
363 2 27.6992 6.29476 0
364 1 14.7611 74.4275 0
365 2 55.9364 56.6101 0
366 1 28.1964 56.1012 0
367 2 30.6495 31.0717 0
368 2 33.466 44.8895 0
369 2 56.5863 67.0906 0
370 1 14.2257 20.5929 0
371 1 44.8493 58.2755 0
372 2 43.2473 12.8802 0
373 1 8.40041 30.8551 0
374 2 45.6623 34.3328 0
375 1 63.3607 47.8114 0
376 2 68.3219 34.7996 0
377 2 50.466 45.2752 0
378 1 10.6579 77.385 0
379 1 15.501 22.1325 0
380 1 21.1547 45.495 0
381 1 9.79849 17.6364 0
382 1 25.6317 29.4148 0
383 1 24.5294 7.75104 0
384 1 38.8646 56.3733 0
385 1 44.1894 15.1025 0
386 1 65.1921 44.2849 0
387 1 59.7587 71.0251 0
388 2 64.061 47.1623 0
389 1 38.8995 49.0013 0
390 1 37.7211 32.9639 0
391 2 73.5177 73.8767 0
392 2 31.4473 10.4001 0
393 2 35.0814 67.3764 0
394 1 73.3542 74.7692 0
395 1 59.1126 9.20534 0
396 1 74.0606 17.2777 0
397 1 50.3318 32.77 0
398 1 40.2235 12.6656 0
399 1 53.7231 26.587 0
400 1 48.4399 1.18335 0
401 1 64.4838 1.09877 0
402 2 60.4023 2.19065 0
403 1 37.3734 54.1471 0
404 1 56.4119 60.5961 0
405 2 60.643 44.0587 0
406 1 29.8883 28.2772 0
407 2 62.3309 76.8692 0
408 1 75.2734 34.567 0
409 1 15.4192 53.8862 0
410 2 2.55011 15.0031 0
411 2 56.9025 25.204 0
412 1 72.0859 46.883 0
413 1 74.3783 41.4611 0
414 1 6.08111 45.3722 0
415 1 14.709 42.9469 0
416 2 4.93134 69.4713 0
417 2 69.4003 29.9157 0
418 1 40.6465 25.1509 0
419 2 66.4124 47.5716 0
420 2 10.2362 54.8383 0
421 1 62.9994 19.7867 0
422 1 1.41907 69.3589 0
423 1 7.05081 2.11237 0
424 1 61.0869 12.0948 0
425 1 56.4342 52.9924 0
426 1 52.5781 74.7036 0
427 2 31.3105 14.7894 0
428 1 49.1041 73.5009 0
429 1 55.831 72.1728 0
430 1 38.3974 41.5372 0
431 1 17.4973 5.07976 0
432 1 59.2278 46.8248 0
433 1 21.1438 2.78958 0
434 1 70.0385 25.606 0
435 1 63.3765 39.2459 0
436 2 62.8092 42.8911 0
437 2 54.3384 46.4361 0
438 1 51.4097 51.8702 0
439 2 61.0099 73.0369 0
440 1 38.9821 38.7842 0
441 2 68.6819 5.45298 0
442 1 17.3078 22.3841 0
443 1 45.8563 14.4793 0
444 1 63.5476 72.7098 0
445 2 47.0719 54.7166 0
446 1 66.2003 48.4836 0
447 1 13.6232 70.9315 0
448 1 53.5708 40.3882 0
449 1 34.9053 73.9013 0
450 2 41.7014 45.182 0
451 2 22.4134 46.3317 0
452 1 54.0846 17.2624 0
453 1 27.7016 3.18843 0
454 2 61.4602 27.7196 0
455 2 19.1304 2.23156 0
456 1 13.2616 42.0567 0
457 2 27.1772 3.92857 0
458 1 42.4776 17.4395 0
459 2 20.6548 52.7639 0
460 1 2.48946 8.72599 0
461 2 33.9186 38.6442 0
462 1 64.5543 75.7358 0
463 1 73.0685 67.7804 0
464 1 13.0934 40.9362 0
465 2 29.5448 47.3733 0
466 1 15.1599 14.5305 0
467 2 1.647 8.6229 0
468 1 9.79618 29.6627 0
469 1 6.30632 70.4871 0
470 1 7.99727 64.5708 0
471 2 73.9412 46.9401 0
472 1 21.8408 30.4303 0
473 1 46.3274 73.8321 0
474 1 36.0161 72.1681 0
475 1 19.9148 75.4445 0
476 2 36.5384 20.8758 0
477 1 60.7784 22.7394 0
478 2 20.3716 58.5354 0
479 1 22.6404 21.1028 0
480 1 29.3085 29.6405 0
481 1 12.5744 13.8486 0
482 1 5.60013 16.5842 0
483 2 69.308 1.44326 0
484 1 19.0636 39.0461 0
485 1 23.9804 39.8686 0
486 1 11.6452 76.0651 0
487 2 41.052 70.1057 0
488 1 38.8522 3.17333 0
489 1 55.0947 6.93802 0
490 1 24.5037 20.1368 0
491 1 35.2358 44.0328 0
492 2 66.0029 66.8199 0
493 1 73.6733 21.1727 0
494 1 75.309 20.4235 0
495 2 32.4721 62.8812 0
496 2 41.0725 31.7629 0
497 2 48.7702 21.4234 0
498 1 23.5727 37.1265 0
499 1 31.6425 3.86288 0
500 1 68.6506 66.6502 0
501 2 32.9541 54.0371 0
502 1 18.6965 62.3833 0
503 1 59.0901 11.4338 0
504 1 40.2461 43.1196 0
505 2 21.9075 9.01924 0
506 2 12.3852 74.584 0
507 1 43.2444 27.8563 0
508 1 23.4074 60.5304 0
509 1 28.181 21.3066 0
510 1 68.1646 35.6965 0
511 1 55.5687 22.1855 0
512 1 49.2331 74.9224 0
513 1 18.9158 30.8053 0
514 1 13.6636 64.0799 0
515 2 49.6086 8.37948 0
516 2 7.62171 52.9151 0
517 2 7.76996 43.4121 0
518 2 24.509 48.8082 0
519 2 33.6008 68.0571 0
520 1 69.5985 30.7408 0
521 1 53.4281 27.5424 0
522 2 17.9089 76.5546 0
523 1 70.6776 66.7977 0
524 1 51.3326 25.0236 0
525 1 32.4493 3.17744 0
526 2 22.1499 26.5593 0
527 1 48.9599 27.0725 0
528 2 67.9045 62.4792 0
529 2 59.5966 58.5454 0
530 1 5.92654 61.6731 0
531 2 63.8995 59.6597 0
532 2 18.7712 48.6466 0
533 1 71.5036 61.5477 0
534 1 18.3623 26.5247 0
535 1 13.8067 7.25337 0
536 1 16.5198 72.4967 0
537 1 16.2208 43.002 0
538 2 17.1167 24.7014 0
539 2 34.1265 1.32886 0
540 1 60.7693 39.1757 0
541 2 28.2257 8.86595 0
542 1 50.9426 59.9457 0
543 2 76.4792 54.951 0
544 2 53.8608 8.89399 0
545 1 37.586 37.799 0
546 1 51.5534 3.20991 0
547 1 9.82028 4.63617 0
548 2 23.6256 74.6359 0
549 2 75.7308 37.0652 0
550 2 4.70467 45.7458 0
551 1 43.27 2.841 0
552 2 55.5448 13.7238 0
553 2 7.76803 27.9136 0
554 1 58.6094 67.7449 0
555 1 55.9266 42.8202 0
556 1 0.930657 66.2489 0
557 1 51.2318 45.7043 0
558 1 61.762 55.3044 0
559 1 1.93034 15.9323 0
560 2 18.0408 47.4772 0
561 1 65.2009 71.156 0
562 2 76.3326 8.58536 0
563 2 37.1186 53.2901 0
564 1 56.7564 54.5703 0
565 2 23.4492 68.4669 0
566 2 12.3414 22.7614 0
567 1 51.04 44.642 0
568 2 38.7026 73.4449 0
569 2 25.4165 10.9682 0
570 1 71.9279 52.0087 0
571 1 76.4255 69.1375 0
572 2 8.60058 55.4711 0
573 2 76.9232 37.9388 0
574 1 4.38031 57.9526 0
575 1 30.9659 13.9835 0
576 1 12.8122 61.3471 0
577 1 35.8381 44.8875 0
578 2 56.5831 47.9096 0
579 2 40.1241 62.7578 0
580 1 47.5189 26.231 0
581 1 64.1848 71.8503 0
582 2 60.1923 71.9066 0
583 2 61.2261 45.4048 0
584 2 24.3664 51.3432 0
585 1 47.1315 3.76965 0
586 1 68.7513 39.1682 0
587 2 19.0421 17.1107 0
588 1 55.971 2.0113 0
589 2 65.9447 6.88166 0
590 1 19.7277 76.4265 0
591 1 56.6256 28.8284 0
592 1 55.8431 76.7983 0
593 1 49.7795 75.8227 0
594 1 60.9284 50.2917 0
595 1 6.2694 59.0346 0
596 2 7.90235 0.0159658 0
597 1 15.939 46.0913 0
598 1 63.1564 5.34192 0
599 1 14.1077 33.6145 0
600 1 5.5829 35.621 0
601 2 39.4951 51.2891 0
602 1 66.958 5.37932 0
603 2 12.8026 45.6489 0
604 2 71.7667 28.5099 0
605 1 53.1024 49.6336 0
606 1 39.8401 4.56897 0
607 1 75.4386 77.344 0
608 2 7.79044 39.3681 0
609 2 43.5932 74.7883 0
610 1 2.98422 33.8008 0
611 1 65.8568 39.8074 0
612 1 60.8165 63.1098 0
613 1 73.7847 24.8014 0
614 2 49.0154 22.7024 0
615 1 21.8795 34.6786 0
616 1 42.58 15.5053 0
617 1 53.8467 10.7729 0
618 2 8.0476 34.7784 0
619 2 44.2842 55.2877 0
620 2 63.6606 55.0295 0
621 2 60.3998 31.5469 0
622 1 66.2934 12.187 0
623 1 44.9016 14.066 0
624 2 7.47755 60.4535 0
625 1 2.65159 3.79536 0
626 1 7.84023 15.4991 0
627 2 5.31277 22.6875 0
628 1 21.4722 53.0511 0
629 2 63.7658 21.5702 0
630 1 37.0581 74.0129 0
631 1 57.9024 27.9357 0
632 1 16.4886 8.82786 0
633 2 13.97 3.4173 0
634 1 15.9959 65.6351 0
635 2 39.7317 48.8696 0
636 2 45.5807 27.7718 0
637 1 8.02317 4.58271 0
638 1 69.4574 50.6812 0
639 1 8.40196 46.5289 0
640 1 8.29042 42.7523 0
641 1 22.6479 29.7674 0
642 1 18.9209 37.961 0
643 1 22.2384 45.5231 0
644 2 2.4029 17.5867 0
645 1 52.8554 45.162 0
646 1 55.173 43.554 0
647 2 43.6315 17.0623 0
648 1 69.9341 7.93401 0
649 2 6.5118 63.4461 0
650 2 45.1423 65.7265 0
651 1 65.9609 25.5753 0
652 1 8.20783 76.6467 0
653 2 16.5631 16.7022 0
654 2 23.5529 6.19446 0
655 1 26.4009 58.6637 0
656 1 65.3554 52.2511 0
657 1 31.8038 46.766 0
658 1 4.50991 8.08162 0
659 2 65.2681 55.1736 0
660 1 36.3893 22.7972 0
661 1 47.2437 20.4572 0
662 1 8.26589 41.5887 0
663 1 9.43243 46.3023 0
664 1 47.965 76.1381 0
665 2 44.0296 2.37523 0
666 2 19.228 26.4984 0
667 1 6.30728 4.76759 0
668 2 72.0572 2.35001 0
669 1 77.0763 9.10045 0
670 2 33.745 61.7691 0
671 2 50.6201 9.33562 0
672 1 20.7501 16.3053 0
673 1 21.8452 16.264 0
674 1 32.5592 44.7805 0
675 2 3.40175 68.7528 0
676 2 34.787 66.1769 0
677 1 42.2745 62.3479 0
678 1 44.9232 34.7621 0
679 1 38.2548 75.9615 0
680 1 31.8135 62.2512 0
681 1 20.3964 43.8257 0
682 1 6.91925 52.3035 0
683 1 17.6339 7.80757 0
684 1 61.2251 58.1443 0
685 2 56.0096 4.61934 0
686 1 74.0132 67.9499 0
687 1 33.5097 3.11366 0
688 2 53.7148 59.7685 0
689 1 18.7919 52.7604 0
690 1 65.2097 56.0933 0
691 1 71.6091 38.7154 0
692 2 43.0514 33.4879 0
693 1 66.8844 15.0163 0
694 2 46.3965 67.9909 0
695 1 68.1839 13.0389 0
696 2 29.122 62.2021 0
697 1 24.1855 31.3042 0
698 1 12.6408 60.2047 0
699 1 67.2361 47.696 0
700 1 0.85318 34.0444 0
701 1 6.04372 55.8944 0
702 1 47.8103 52.6103 0
703 2 2.26197 69.4476 0
704 2 73.9191 65.4671 0
705 2 15.8315 8.29027 0
706 1 57.6563 36.5394 0
707 2 55.2152 15.1666 0
708 1 44.6294 43.1513 0
709 1 54.022 5.6156 0
710 2 60.4393 29.6932 0
711 1 60.7589 59.835 0
712 2 40.7122 15.746 0
713 2 50.8975 72.3295 0
714 2 2.26169 61.5652 0
715 1 58.6325 2.40701 0
716 1 0.151888 12.5186 0
717 1 4.086 68.2142 0
718 1 2.48212 66.6802 0
719 1 52.7617 36.6068 0
720 2 30.8028 53.0625 0
721 2 67.3953 39.0865 0
722 1 40.5048 10.7719 0
723 2 55.3956 19.3882 0
724 2 29.8827 4.93874 0
725 1 71.0694 25.2493 0
726 1 20.2477 22.3046 0
727 2 29.409 19.3301 0
728 1 0.519558 60.7188 0
729 2 17.1189 70.9121 0
730 1 14.985 19.9036 0
731 2 24.2033 30.4563 0
732 1 25.16 60.8271 0
733 1 39.2707 23.5337 0
734 2 66.9799 53.016 0
735 1 48.951 0.0685803 0
736 1 33.0333 48.144 0
737 2 77.4159 39.4503 0
738 1 28.9323 26.7082 0
739 1 38.6199 25.8666 0
740 1 41.557 47.0816 0
741 2 46.4134 32.8585 0
742 1 66.9304 43.9434 0
743 1 26.8509 75.1786 0
744 2 1.22685 28.0838 0
745 1 11.9831 47.6707 0
746 1 28.9534 4.88245 0
747 1 29.1729 70.0391 0
748 2 49.4732 48.6905 0
749 2 29.6625 27.4457 0
750 1 58.0352 34.9083 0
751 1 62.4197 53.5656 0
752 2 61.7239 66.93 0
753 1 34.2277 31.0272 0
754 2 14.3716 29.1119 0
755 1 7.75362 33.9114 0
756 2 47.3593 67.0193 0
757 1 46.2742 20.8897 0
758 1 70.5213 5.78775 0
759 1 41.1916 32.7787 0
760 1 74.5514 10.2764 0
761 1 76.9395 73.706 0
762 1 15.3772 57.6239 0
763 2 66.2998 15.6278 0
764 1 13.8022 56.5391 0
765 2 64.2423 62.4635 0
766 1 5.80292 14.8354 0
767 1 66.3988 69.8444 0
768 1 68.5487 11.1614 0
769 1 67.9487 39.8288 0
770 2 59.0092 65.2025 0
771 1 14.8937 39.0058 0
772 1 51.1096 28.0037 0
773 1 36.5584 42.3714 0
774 2 34.5096 30.231 0
775 1 66.3516 34.8286 0
776 2 34.5098 52.9435 0
777 1 8.05846 37.4482 0
778 2 67.0029 76.3203 0
779 1 56.0153 15.6519 0
780 1 17.4829 11.6955 0
781 1 41.5139 24.6765 0
782 1 63.1328 45.7566 0
783 1 53.5534 33.9728 0
784 1 53.5813 60.699 0
785 2 72.7497 18.8578 0
786 1 61.4055 60.5826 0
787 1 20.6055 67.5065 0
788 1 39.1305 50.5131 0
789 1 70.612 64.9582 0
790 1 52.384 64.671 0
791 1 70.3677 4.55872 0
792 1 2.85501 38.3156 0
793 1 21.6526 10.9793 0
794 2 15.2321 1.03186 0
795 2 7.19766 4.4866 0
796 2 67.4593 6.5729 0
797 1 52.9584 42.5107 0
798 1 44.8284 28.3131 0
799 1 27.2431 65.9949 0
800 1 17.0148 68.8249 0
801 2 12.8353 28.7386 0
802 2 72.3683 45.1917 0
803 2 22.4899 6.15426 0
804 2 44.0431 31.9787 0
805 1 28.0402 4.3254 0
806 1 54.1908 70.7155 0
807 2 28.5899 72.8568 0
808 1 33.0604 45.7133 0
809 2 31.1638 52.1737 0
810 1 62.5987 6.25631 0
811 1 44.4011 69.9431 0
812 2 12.9885 53.0709 0
813 2 55.013 42.5783 0
814 1 60.2418 24.3733 0
815 2 42.9787 19.7177 0
816 1 24.9479 65.7497 0
817 1 64.3443 6.27412 0
818 2 57.6657 12.1888 0
819 2 49.0309 49.5868 0
820 1 52.0825 76.224 0
821 1 20.0355 2.26229 0
822 1 51.7515 6.17132 0
823 1 6.95346 68.8868 0
824 2 24.1252 37.911 0
825 1 29.4607 39.2921 0
826 1 33.7961 16.5906 0
827 1 14.699 28.3286 0
828 1 3.61684 46.1945 0
829 1 69.1061 26.2486 0
830 2 39.1255 1.27019 0
831 2 52.0249 5.34958 0
832 1 72.6816 20.5206 0
833 1 20.3908 65.401 0
834 2 51.7082 17.2947 0
835 1 42.9404 75.5782 0
836 1 6.20477 7.16156 0
837 1 57.9301 32.7614 0
838 1 46.6871 53.9454 0
839 1 9.9228 50.1142 0
840 2 9.00491 43.1964 0
841 1 22.0114 65.1194 0
842 2 28.6139 64.6142 0
843 1 10.9908 44.9603 0
844 1 65.4428 22.8179 0
845 2 33.4021 17.3782 0
846 1 57.3486 42.5172 0
847 1 13.2306 50.6809 0
848 2 57.0525 60.0031 0
849 1 68.404 21.7646 0
850 1 0.530518 30.9981 0
851 1 25.3002 14.4344 0
852 1 1.85956 10.6758 0
853 1 37.479 0.414178 0
854 1 38.978 2.07779 0
855 1 52.5653 17.2969 0
856 2 22.3182 28.8338 0
857 1 70.9586 20.1493 0
858 2 35.1728 46.7497 0
859 1 7.29985 5.35623 0
860 2 59.9425 53.1043 0
861 2 75.7748 53.6765 0
862 2 12.279 50.5303 0
863 1 55.8123 14.5934 0
864 1 54.4607 59.4339 0
865 2 65.8563 73.0245 0
866 1 70.5886 22.7182 0
867 2 31.6478 17.3824 0
868 1 51.7963 62.9163 0
869 1 66.3173 33.715 0
870 1 24.1605 50.5357 0
871 1 72.4641 27.9056 0
872 1 23.8661 33.3235 0
873 1 41.6071 2.45554 0
874 1 72.1079 73.5881 0
875 1 43.473 60.4242 0
876 2 39.9501 17.3097 0
877 1 8.20368 47.5187 0
878 2 16.4743 27.445 0
879 1 74.8813 24.6389 0
880 2 51.5305 39.9533 0
881 2 55.5414 26.155 0
882 2 54.885 62.9164 0
883 1 23.4664 19.7863 0
884 1 67.3177 29.3059 0
885 1 46.5792 72.7413 0
886 1 44.7372 53.7788 0
887 2 28.3837 50.6848 0
888 1 0.981951 8.08936 0
889 2 54.5354 23.6306 0
890 2 2.08876 11.5259 0
891 1 30.8322 10.9991 0
892 1 37.5402 2.04351 0
893 1 17.9514 48.3697 0
894 1 2.46505 2.20278 0
895 2 48.0642 41.0613 0
896 1 14.2923 0.660455 0
897 2 56.8163 15.3859 0
898 1 21.5556 51.9998 0
899 1 56.7036 69.6369 0
900 2 52.8292 14.0023 0
901 1 30.4259 48.7692 0
902 1 39.7647 14.2954 0
903 1 21.5097 42.7763 0
904 2 12.8629 32.5255 0
905 1 47.6252 48.4699 0
906 1 69.819 55.169 0
907 1 9.99429 19.5911 0
908 1 66.3781 26.6682 0
909 1 5.1106 68.6634 0
910 2 14.7654 53.2727 0
911 2 0.685872 69.8227 0
912 2 36.9809 26.2996 0
913 2 36.5668 39.6969 0
914 1 75.4809 14.8787 0
915 2 54.1603 13.7368 0
916 1 5.70906 26.1289 0
917 2 2.8271 9.43042 0
918 2 26.7118 47.7442 0
919 1 32.0503 66.1747 0
920 1 25.9308 63.3395 0
921 1 55.5744 36.4626 0
922 2 52.7619 23.0351 0
923 2 6.47167 20.0396 0
924 1 56.5316 8.95133 0
925 1 76.4775 54.1179 0
926 2 30.7395 28.5134 0
927 1 56.5398 56.0265 0
928 1 48.0572 70.513 0
929 2 75.9256 60.4895 0
930 2 30.7357 16.4524 0
931 1 58.2365 41.8936 0
932 1 64.8648 39.9548 0
933 1 36.2298 26.6773 0
934 1 0.392388 73.2961 0
935 1 26.0575 53.4563 0
936 2 52.5446 71.5991 0
937 1 12.3624 62.3404 0
938 1 24.8374 1.05599 0
939 2 48.0563 30.7484 0
940 1 9.25997 48.0112 0
941 1 7.59863 3.67483 0
942 1 39.9564 11.682 0
943 2 14.8772 2.48284 0
944 2 11.6497 43.0679 0
945 1 41.8731 22.037 0
946 1 60.8456 67.1763 0
947 2 33.0981 73.1097 0
948 1 19.7302 71.8427 0
949 1 33.0468 23.1552 0
950 2 6.25368 0.337275 0
951 1 7.61769 68.0038 0
952 2 54.2309 18.1233 0
953 2 0.432383 35.7079 0
954 2 19.1282 46.0538 0
955 1 19.0896 35.2577 0
956 2 73.1776 28.3838 0
957 1 61.7382 23.2427 0
958 2 17.4488 8.67489 0
959 2 2.74585 47.9681 0
960 2 48.8797 68.7677 0
961 1 52.4559 39.9411 0
962 1 25.8385 19.8215 0
963 1 24.354 6.57876 0
964 2 10.2452 10.2454 0
965 2 55.3684 45.4126 0
966 1 71.9329 50.4728 0
967 1 48.8658 39.1816 0
968 1 19.7065 73.0107 0
969 1 60.3133 5.0528 0
970 2 39.5778 6.4648 0
971 1 1.7266 13.2953 0
972 1 13.1808 39.9588 0
973 1 72.2656 43.2045 0
974 2 65.5821 45.0566 0
975 2 77.2172 68.5101 0
976 2 28.4471 16.0939 0
977 1 41.9164 46.1143 0
978 2 63.4681 6.16264 0
979 2 42.4898 70.3 0
980 1 68.6417 77.007 0
981 1 60.5808 56.6133 0
982 1 10.0575 65.1185 0
983 1 17.3566 16.3912 0
984 1 14.8876 55.1028 0
985 1 56.1605 3.71761 0
986 1 29.3648 61.2636 0
987 2 19.7597 29.711 0
988 2 29.8012 37.6961 0
989 2 74.6362 40.6591 0
990 2 6.03978 59.8354 0
991 2 44.7789 13.1455 0
992 1 75.2708 38.7239 0
993 2 27.6466 21.9785 0
994 2 18.6965 66.045 0
995 1 16.2374 33.3917 0
996 2 48.0034 65.441 0
997 2 50.4216 19.4493 0
998 2 52.2376 3.81063 0
999 2 49.4979 16.6906 0
1000 2 6.49039 58.1849 0
1001 1 34.3365 3.71261 0
1002 1 41.1926 44.5072 0
1003 1 17.8933 50.2922 0
1004 1 69.795 12.6906 0
1005 2 5.56664 24.4351 0
1006 2 56.3209 38.1978 0
1007 1 12.4825 23.792 0
1008 1 47.1165 25.1395 0
1009 1 25.5686 35.6374 0
1010 1 21.7387 49.8736 0
1011 2 12.4333 31.2417 0
1012 2 2.54517 13.2216 0
1013 2 59.9257 54.7804 0
1014 1 75.4713 8.45638 0
1015 1 74.3336 30.9043 0
1016 1 59.6072 51.1219 0
1017 2 10.5184 36.2046 0
1018 1 26.0778 50.5669 0
1019 1 48.4537 30.0053 0
1020 2 53.1385 19.6461 0
1021 2 10.7445 20.0795 0
1022 1 19.4674 53.5601 0
1023 1 44.4486 8.96732 0
1024 1 16.1344 4.80933 0
1025 1 41.8251 66.5455 0
1026 1 21.3207 44.4774 0
1027 1 52.2227 66.4727 0
1028 1 24.2068 41.0208 0
1029 1 46.9308 9.91564 0
1030 2 53.8108 42.342 0
1031 2 48.4476 34.7145 0
1032 1 5.81856 69.4508 0
1033 1 53.6435 25.4002 0
1034 1 76.2371 22.4901 0
1035 1 75.2058 28.4422 0
1036 2 7.54767 57.8237 0
1037 1 40.2198 69.913 0
1038 1 64.3859 74.7438 0
1039 1 74.27 32.9719 0
1040 2 71.9484 36.7458 0
1041 1 32.1746 71.1369 0
1042 2 65.6656 50.1777 0
1043 2 54.7901 57.5248 0
1044 1 70.9564 28.0414 0
1045 1 0.329791 25.9659 0
1046 1 31.0396 72.2756 0
1047 2 26.6735 52.799 0
1048 1 49.7352 9.2866 0
1049 1 9.35887 38.7574 0
1050 2 51.6737 34.1994 0
1051 1 50.8801 17.6365 0
1052 1 65.3177 36.1136 0
1053 2 37.3333 23.983 0
1054 1 58.6567 71.259 0
1055 2 17.243 47.848 0
1056 2 30.8191 44.0501 0
1057 1 18.9303 6.00968 0
1058 1 38.7972 9.86075 0
1059 1 2.88884 64.0711 0
1060 2 18.2159 27.3569 0
1061 1 17.1343 21.2728 0
1062 2 22.6756 27.8318 0
1063 1 76.5573 3.67838 0
1064 1 20.91 3.84581 0
1065 2 41.0793 37.236 0
1066 1 30.8421 62.7892 0
1067 1 15.7074 16.6409 0
1068 2 41.7384 8.97697 0
1069 1 2.60446 20.4234 0
1070 2 15.4707 19.1405 0
1071 2 76.199 56.401 0
1072 2 3.85505 70.2299 0
1073 2 7.18153 2.93703 0
1074 2 33.5303 55.2796 0
1075 1 2.83153 28.721 0
1076 1 23.0317 6.89853 0
1077 1 34.6898 18.8331 0
1078 2 66.4007 29.4057 0
1079 2 33.2007 18.2913 0
1080 2 35.9302 49.2729 0
1081 2 40.7006 57.3671 0
1082 2 69.0099 13.0578 0
1083 2 30.0687 8.8889 0
1084 1 47.8414 39.2757 0
1085 1 22.5676 42.8373 0
1086 1 46.7296 55.7408 0
1087 1 37.4295 60.8817 0
1088 1 48.0982 56.8142 0
1089 2 65.0479 23.7347 0
1090 1 31.0743 15.6698 0
1091 2 49.1402 18.0861 0
1092 1 49.5059 63.2674 0
1093 1 4.76755 20.1102 0
1094 2 44.6974 61.662 0
1095 1 20.2998 12.9688 0
1096 2 57.9286 30.0006 0
1097 1 68.7825 16.0738 0
1098 1 54.7433 39.0084 0
1099 1 23.3872 72.119 0
1100 1 74.9755 62.641 0
1101 1 69.206 27.2424 0
1102 1 29.9127 11.4329 0
1103 1 47.4514 5.86419 0
1104 1 47.3501 38.3295 0
1105 1 58.7794 34.0926 0
1106 1 5.45966 77.4421 0
1107 2 43.7412 69.435 0
1108 1 53.4015 22.3534 0
1109 1 76.7164 23.394 0
1110 2 67.7243 21.1924 0
1111 1 66.0982 55.4555 0
1112 1 18.1822 71.9913 0
1113 2 75.8195 4.10109 0
1114 2 28.0416 41.5362 0
1115 2 24.0737 65.2585 0
1116 1 69.5618 63.0204 0
1117 1 71.3915 53.0055 0
1118 1 12.8119 70.2883 0
1119 2 25.2186 52.9354 0
1120 1 41.7219 56.4393 0
1121 2 11.2894 73.1796 0
1122 1 29.9409 34.7127 0
1123 2 33.3583 41.0685 0
1124 1 46.7032 41.7009 0
1125 2 26.2613 5.45426 0
1126 2 11.9847 20.9004 0
1127 1 12.0685 15.0331 0
1128 1 60.4184 58.8022 0
1129 1 64.779 50.1197 0
1130 1 20.3128 66.4965 0
1131 1 66.7678 24.7459 0
1132 2 64.2938 58.4387 0
1133 2 45.572 6.36275 0
1134 2 10.3935 5.68192 0
1135 1 60.323 57.7099 0
1136 2 59.3252 29.1133 0
1137 1 49.1756 60.0711 0
1138 1 32.348 20.0404 0
1139 2 47.0083 39.2054 0
1140 2 6.47687 14.3195 0
1141 1 64.6099 63.7803 0
1142 1 54.5373 30.8408 0
1143 1 64.3625 66.9157 0
1144 2 0.29135 75.6657 0
1145 1 32.0496 45.6743 0
1146 1 22.5943 8.55429 0
1147 1 31.371 27.8914 0
1148 1 14.621 16.2715 0
1149 1 59.8252 23.3129 0
1150 2 57.8098 49.9385 0
1151 1 57.8332 20.02 0
1152 1 41.893 35.6903 0
1153 1 73.5928 10.6877 0
1154 1 0.859936 10.927 0
1155 2 64.2812 10.8673 0
1156 1 63.7661 20.6914 0
1157 1 12.1971 17.2705 0
1158 2 62.7921 59.1955 0
1159 2 60.8637 68.0046 0
1160 1 28.898 3.25043 0
1161 2 36.6382 5.93965 0
1162 1 67.996 7.18274 0
1163 2 8.3947 75.7601 0
1164 1 42.005 72.7531 0
1165 1 15.3386 34.8304 0
1166 2 35.7475 36.0474 0
1167 1 31.4135 23.5349 0
1168 1 42.9281 76.5896 0
1169 1 16.7934 73.8214 0
1170 2 3.24253 35.7537 0
1171 1 63.0592 44.6948 0
1172 1 32.1247 21.0364 0
1173 1 52.8587 59.8662 0
1174 1 51.5935 50.257 0
1175 2 49.5971 55.9529 0
1176 1 73.0291 39.5477 0
1177 1 51.5237 67.2598 0
1178 2 28.6443 38.9784 0
1179 1 71.2203 43.09 0
1180 1 57.96 3.13124 0
1181 1 63.0467 34.5548 0
1182 1 48.8696 76.4776 0
1183 2 47.4915 56.1447 0
1184 2 31.4351 35.4944 0
1185 1 18.2149 49.3126 0
1186 1 43.8478 52.7107 0
1187 1 50.3914 63.8781 0
1188 2 21.2349 43.589 0
1189 1 57.4532 62.0037 0
1190 1 44.8324 47.0397 0
1191 2 57.804 16.1736 0
1192 1 29.8672 42.4609 0
1193 1 36.499 23.8724 0
1194 2 11.1545 22.0867 0
1195 1 5.34905 60.6219 0
1196 1 20.68 60.3683 0
1197 1 36.8255 30.3635 0
1198 1 67.1871 77.1416 0
1199 2 56.1648 55.257 0
1200 1 53.3528 17.9739 0
1201 1 63.4162 67.5352 0
1202 1 12.1051 51.4706 0
1203 2 44.7897 22.7943 0
1204 1 67.9956 67.5208 0
1205 1 76.3148 66.4667 0
1206 1 64.7869 2.21207 0
1207 1 52.9218 52.8934 0
1208 1 10.358 40.8239 0
1209 2 49.1936 59.2614 0
1210 1 55.1016 27.6165 0
1211 2 25.8613 61.4321 0
1212 1 27.1564 32.2092 0
1213 1 52.8747 54.762 0
1214 1 76.7746 17.0225 0
1215 1 75.5572 75.3012 0
1216 1 7.53524 69.8586 0
1217 2 57.1432 55.3712 0
1218 2 60.9816 6.89728 0
1219 1 31.9848 14.1379 0
1220 1 57.0171 2.72446 0
1221 1 62.7447 54.9983 0
1222 2 64.2512 69.9085 0
1223 1 52.3627 43.4399 0
1224 1 71.6925 34.9926 0
1225 1 1.71673 38.8251 0
1226 2 57.6223 54.4553 0
1227 1 30.2737 65.6149 0
1228 1 53.3914 58.889 0
1229 2 50.4533 11.0937 0
1230 1 17.0313 30.7759 0
1231 2 60.3039 19.806 0
1232 1 76.1395 46.7325 0
1233 1 23.6519 64.449 0
1234 1 62.1236 69.4011 0
1235 1 18.7537 64.1851 0
1236 1 41.3704 68.1971 0
1237 1 33.9483 14.9628 0
1238 1 37.0011 6.6816 0
1239 1 0.960928 16.3613 0
1240 1 43.8518 71.9457 0
1241 1 5.85306 62.8492 0