ITEM: TIMESTEP
0
ITEM: NUMBER OF ATOMS
7200
ITEM: BOX BOUNDS xy xz yz pp pp pp
0.0000000000000000e+00 7.7459666924100006e+01 0.0000000000000000e+00
0.0000000000000000e+00 7.7459666924100006e+01 0.0000000000000000e+00
-1.2909944490000000e-01 1.2909944490000000e-01 0.0000000000000000e+00
ITEM: ATOMS id type x y z
1 1 12.1339 20.1089 0
2 1 15.0006 63.9702 0
3 1 75.1503 71.1601 0
4 1 20.5138 8.15356 0
5 1 34.7832 56.1118 0
6 1 56.6237 28.7472 0
7 2 5.48494 2.74323 0
8 2 64.782 46.4392 0
9 1 42.7131 55.8703 0
10 2 19.1402 14.7175 0
11 2 25.4272 53.0575 0
12 1 55.0725 11.7013 0
13 2 23.1844 6.10073 0
14 1 46.6532 70.1794 0
15 1 39.3899 31.2465 0
16 1 18.2856 14.9095 0
17 1 31.3512 40.0579 0
18 1 33.8006 5.76517 0
19 1 27.0701 57.6817 0
20 2 44.8215 3.65245 0
21 1 12.3327 65.9644 0
22 1 54.2159 11.002 0
23 1 75.672 45.7117 0
24 1 56.0167 66.3346 0
25 1 6.71073 70.9798 0
26 1 21.2417 67.5803 0
27 2 29.0598 63.7075 0
28 1 51.2716 74.2624 0
29 2 22.6216 47.807 0
30 2 24.5109 31.7714 0
31 1 15.2117 53.456 0
32 1 51.0844 38.2219 0
33 1 60.8498 48.4513 0
34 2 45.2222 9.82155 0
35 1 75.1282 63.0299 0
36 1 30.6737 60.0619 0
37 1 22.2022 61.422 0
38 1 45.9302 19.849 0
39 1 22.4237 5.65851 0
40 2 24.8279 59.1054 0
41 2 18.4903 64.5252 0
42 1 21.0188 1.17875 0
43 1 18.7943 33.5421 0
44 1 34.4312 62.7242 0
45 1 3.30024 34.5589 0
46 1 67.5296 7.67683 0
47 1 73.6654 58.9798 0
48 1 44.1274 68.2566 0
49 2 77.4049 4.23943 0
50 1 31.033 66.5803 0
51 1 1.33291 9.93532 0
52 2 33.0609 24.2969 0
53 1 53.4588 18.7073 0
54 1 49.6649 30.4004 0
55 1 9.72767 1.08095 0
56 1 45.9556 26.2472 0
57 1 67.3727 42.9781 0
58 1 69.7936 69.1629 0
59 1 34.2107 2.07445 0
60 1 28.7293 3.34868 0
61 1 40.3715 75.9085 0
62 1 52.394 45.0117 0
63 1 57.0625 10.1242 0
64 1 50.8227 45.7136 0
65 1 67.0783 73.876 0
66 2 55.8941 11.5613 0
67 2 40.6734 35.9958 0
68 2 0.863773 29.3411 0
69 1 62.086 45.4857 0
70 1 8.31449 35.5856 0
71 2 7.48766 42.2173 0
72 1 76.8938 3.52445 0
73 1 6.33946 64.1613 0
74 2 41.5283 22.7987 0
75 1 75.4086 53.2826 0
76 1 19.6468 46.9097 0
77 1 25.0638 74.4594 0
78 1 3.5858 15.5876 0
79 1 12.6509 73.3767 0
80 1 43.4596 16.6619 0
81 1 55.2226 62.3394 0
82 2 44.313 16.7222 0
83 1 5.70162 32.9633 0
84 1 32.9702 45.9094 0
85 1 34.5392 20.7928 0
86 2 34.7681 64.7028 0
87 1 71.401 34.7141 0
88 1 18.4318 54.7587 0
89 1 27.7256 13.1537 0
90 1 37.641 37.9638 0
91 2 45.1841 41.1399 0
92 2 41.4044 56.2716 0
93 1 27.8168 16.9654 0
94 1 33.7365 55.6714 0
95 2 40.1711 56.5172 0
96 1 64.7917 1.74977 0
97 1 44.0971 49.0195 0
98 2 2.79087 60.116 0
99 1 61.9538 48.1939 0
100 2 32.4152 30.844 0
101 1 47.7568 54.5146 0
102 1 55.9495 21.6313 0
103 1 56.7406 70.4817 0
104 1 2.88113 60.9884 0
105 2 40.1647 2.99812 0
106 2 30.4049 34.8307 0
107 1 13.0963 31.3986 0
108 1 0.859525 0.799199 0
109 1 35.6064 41.5421 0
110 2 65.1213 25.477 0
111 1 65.8613 11.9284 0
112 1 34.2081 72.6247 0
113 2 0.24618 60.3539 0
114 2 74.5355 29.3019 0
115 2 30.3145 12.6637 0
116 2 74.5356 53.474 0
117 1 16.1404 46.0262 0
118 2 46.805 26.6136 0
119 1 62.4715 0.376951 0
120 2 5.93598 49.8732 0
121 1 6.07253 3.42447 0
122 1 19.7025 32.9906 0
123 2 5.2378 17.7264 0
124 1 46.544 57.2736 0
125 1 31.6634 27.2421 0
126 1 57.9969 52.1477 0
127 1 4.45079 58.9852 0
128 1 14.3481 23.4566 0
129 1 16.4592 52.2201 0
130 1 7.32397 2.18017 0
131 1 59.0206 24.8352 0
132 2 30.9886 41.8062 0
133 2 52.5788 7.10148 0
134 1 65.8507 50.9413 0
135 1 31.6151 30.4692 0
136 2 55.228 46.571 0
137 1 61.8059 56.6972 0
138 2 70.6193 47.9034 0
139 1 68.413 27.332 0
140 1 3.56563 21.9664 0
141 2 48.3597 63.5168 0
142 1 6.53419 22.6464 0
143 2 40.6733 70.0422 0
144 2 47.1293 75.3525 0
145 2 18.2113 53.0041 0
146 1 54.7842 4.18191 0
147 1 9.42353 39.0048 0
148 1 46.3629 53.5355 0
149 2 68.115 49.2179 0
150 1 32.8818 56.4027 0
151 2 29.4967 13.7915 0
152 1 49.1797 63.1407 0
153 2 17.4388 46.4745 0
154 2 31.4233 72.5838 0
155 1 70.629 48.8363 0
156 1 43.3165 10.316 0
157 1 49.0703 71.0922 0
158 1 60.2923 69.2986 0
159 2 10.4706 26.1322 0
160 1 38.1726 17.5628 0
161 1 7.27723 63.6713 0
162 2 72.6536 23.9608 0
163 1 30.5257 27.1916 0
164 1 60.268 29.4129 0
165 1 75.7139 27.8125 0
166 1 2.01826 44.8633 0
167 1 39.0611 0.888117 0
168 1 38.5074 72.7025 0
169 1 56.7522 30.966 0
170 1 58.1321 2.02503 0
171 2 36.9553 60.9362 0
172 2 33.6877 53.6747 0
173 2 43.8047 24.3414 0
174 2 27.4342 55.8033 0
175 2 31.1318 26.5331 0
176 1 46.1633 16.2669 0
177 1 19.7682 58.5205 0
178 1 61.8561 61.3546 0
179 1 64.5448 24.6633 0
180 2 33.7758 39.7443 0
181 1 45.1834 27.7315 0
182 1 61.6383 58.6193 0
183 2 11.8566 37.3626 0
184 1 5.12409 67.5389 0
185 2 67.1321 29.3363 0
186 1 59.0358 35.107 0
187 1 39.4569 46.4743 0
188 1 57.3511 47.7635 0
189 2 63.8348 52.9515 0
190 1 23.2669 4.18614 0
191 1 71.8149 8.25018 0
192 1 65.4084 10.1814 0
193 2 10.8807 41.5141 0
194 2 68.9235 69.1806 0
195 1 11.1835 3.31604 0
196 2 49.6649 54.8955 0
197 2 20.2795 10.0689 0
198 1 13.3465 61.2986 0
199 2 75.6433 66.1806 0
200 1 59.8286 27.649 0
201 2 34.6981 1.36627 0
202 2 74.6308 55.0232 0
203 1 52.4438 65.7235 0
204 1 29.749 3.65913 0
205 1 56.1006 26.0963 0
206 2 35.727 37.0324 0
207 2 14.0274 9.55986 0
208 1 33.7475 14.0551 0
209 1 12.2063 11.599 0
210 2 5.35162 20.6075 0
211 1 17.2076 8.21271 0
212 2 24.8661 6.17957 0
213 2 56.2003 28.0009 0
214 1 71.188 57.6544 0
215 2 67.0595 22.3695 0
216 1 20.6507 73.6176 0
217 1 59.5731 34.1487 0
218 2 54.9262 58.5448 0
219 2 67.9822 42.3604 0
220 2 43.0798 63.762 0
221 1 19.037 45.3348 0
222 1 44.9589 12.5376 0
223 2 39.2591 67.4818 0
224 2 27.6995 68.6777 0
225 1 32.4511 23.6389 0
226 2 66.4829 57.2603 0
227 2 5.99434 16.4293 0
228 1 34.4639 9.31587 0
229 1 70.9758 26.8012 0
230 1 32.512 74.0925 0
231 1 10.6831 34.3325 0
232 1 41.968 12.8503 0
233 1 34.6726 7.61632 0
234 1 76.0722 8.24902 0
235 1 60.7128 59.2087 0
236 2 44.5792 70.4948 0
237 1 77.1726 62.1408 0
238 2 9.29544 21.4569 0
239 1 58.5218 3.21875 0
240 2 61.7358 46.3212 0
241 1 47.497 66.7397 0
242 1 18.4349 30.6196 0
243 1 7.24098 56.325 0
244 1 61.2463 64.3654 0
245 1 10.9565 30.8528 0
246 1 2.07223 35.5547 0
247 1 65.7099 49.9098 0
248 1 12.3558 0.852449 0
249 2 50.217 41.237 0
250 1 29.2049 9.37035 0
251 2 57.937 50.2851 0
252 2 65.8475 23.1929 0
253 1 19.8141 17.6384 0
254 1 54.2604 25.0978 0
255 1 65.4815 42.8824 0
256 1 31.2085 8.51461 0
257 1 22.1773 57.819 0
258 1 26.1506 38.5612 0
259 1 55.7773 56.8868 0
260 2 44.1347 53.6499 0
261 2 26.4987 62.6682 0
262 1 24.0234 33.6212 0
263 2 12.5059 34.7199 0
264 2 71.4996 59.8094 0
265 1 77.0432 46.8153 0
266 1 38.1111 44.7703 0
267 2 61.6032 24.5989 0
268 2 56.6997 46.0191 0
269 1 48.2032 21.0791 0
270 2 9.06941 47.0396 0
271 2 23.214 34.024 0
272 2 20.4544 14.2846 0
273 1 15.0353 65.0645 0
274 1 32.4049 50.0487 0
275 1 8.60293 48.9816 0
276 1 75.1653 9.9731 0
277 2 15.5594 71.2406 0
278 1 7.70814 17.4574 0
279 1 4.52384 44.3408 0
280 1 20.1407 35.7766 0
281 1 30.5623 38.6878 0
282 2 75.9267 26.41 0
283 1 76.406 55.7152 0
284 2 54.2948 38.4399 0
285 1 70.9697 52.6698 0
286 1 11.3315 63.365 0
287 1 19.2 76.763 0
288 2 75.9661 3.7975 0
289 2 21.4197 38.9497 0
290 2 68.6469 76.6809 0
291 1 35.2179 22.5573 0
292 1 27.7168 58.4947 0
293 1 47.4866 19.0669 0
294 1 40.2146 2.16657 0
295 1 69.4135 2.76468 0
296 2 74.1171 8.20578 0
297 1 39.6339 59.5169 0
298 1 72.4073 35.1641 0
299 2 49.2577 36.7553 0
300 1 39.2074 43.7759 0
301 1 73.3707 19.6289 0
302 1 50.9809 35.4015 0
303 1 20.3664 32.2016 0
304 1 60.6434 72.4118 0
305 2 58.8868 76.2234 0
306 1 63.0563 52.4831 0
307 2 73.4234 38.8085 0
308 1 41.5668 5.1846 0
309 2 24.9163 17.0179 0
310 2 13.484 13.1053 0
311 1 29.3559 49.6013 0
312 1 67.464 61.5941 0
313 1 74.7414 76.2665 0
314 1 40.4376 46.0217 0
315 2 56.4281 31.7893 0
316 2 39.8585 63.2468 0
317 1 50.8303 20.5355 0
318 2 6.9189 31.1974 0
319 1 30.867 25.7105 0
320 1 36.2175 61.5629 0
321 1 58.8248 68.4426 0
322 2 74.0476 11.8591 0
323 2 25.0503 63.4782 0
324 1 64.3673 41.5566 0
325 1 41.2199 6.20934 0
326 1 9.68892 58.8636 0
327 1 48.8205 54.7269 0
328 1 0.792362 36.9258 0
329 1 41.6091 42.6168 0
330 2 51.8093 35.0829 0
331 2 69.8152 3.66414 0
332 1 59.4342 28.672 0
333 1 36.919 12.2492 0
334 1 16.8379 34.7198 0
335 1 20.6802 38.5816 0
336 2 72.3466 74.4349 0
337 1 34.82 33.7498 0
338 2 17.1306 1.59464 0
339 1 42.5968 68.2448 0
340 1 18.9816 57.786 0
341 2 74.1607 44.1782 0
342 1 67.1494 5.99736 0
343 2 56.5712 49.7825 0
344 2 22.9066 65.9028 0
345 1 7.86307 27.7389 0
346 1 17.5427 71.7101 0
347 1 35.6482 56.7868 0
348 1 56.5186 18.9502 0
349 1 33.66 20.18 0
350 1 37.0986 31.1862 0
351 1 17.9442 53.8185 0
352 1 47.758 30.9853 0
353 1 75.28 25.7248 0
354 2 22.6759 26.292 0
355 2 43.535 18.3121 0
356 2 11.8747 2.78723 0
357 1 68.5154 67.541 0
358 1 24.2295 3.6944 0
359 1 22.2887 14.6358 0
360 2 45.2009 31.4521 0
361 2 48.2378 67.1822 0
362 1 27.0957 74.525 0
363 2 37.9779 73.4642 0
364 1 13.2785 66.5037 0
365 2 9.01551 57.1122 0
366 1 24.9291 50.5077 0
367 2 19.7015 23.4558 0
368 2 51.3774 54.9647 0
369 2 65.317 70.7801 0
370 1 3.29323 28.1977 0
371 1 46.0143 73.5349 0
372 2 40.28 9.81771 0
373 1 10.3762 31.7627 0
374 2 66.5676 41.3475 0
375 1 52.2834 52.778 0
376 2 75.5246 43.1539 0
377 2 58.2193 38.1268 0
378 1 20.5337 63.6172 0
379 1 13.8738 20.3117 0
380 1 9.76151 62.4811 0
381 1 26.6465 23.4285 0
382 1 30.9163 23.4899 0
383 1 9.67372 11.9388 0
384 1 34.9776 51.6219 0
385 1 28.4946 77.1582 0
386 1 55.0081 40.5575 0
387 1 59.7562 76.5434 0
388 2 56.1152 57.7918 0
389 1 24.6212 56.6004 0
390 1 29.5014 12.9151 0
391 2 59.7648 26.7495 0
392 2 29.9382 9.90265 0
393 2 38.9516 64.866 0
394 1 10.2898 73.8065 0
395 1 53.1279 22.0095 0
396 1 13.8636 70.4737 0
397 1 46.7474 17.233 0
398 1 45.4771 70.9926 0
399 1 69.9873 18.019 0
400 1 59.6173 74.367 0
401 1 44.4616 11.6001 0
402 2 56.4652 17.0478 0
403 1 38.3052 51.5932 0
404 1 69.3794 71.02 0
405 2 73.7727 76.3753 0
406 1 34.2691 19.2916 0
407 2 45.6836 21.8319 0
408 1 63.5674 30.326 0
409 1 18.6108 61.2246 0
410 2 67.546 16.653 0
411 2 66.6003 36.6503 0
412 1 58.9128 38.6296 0
413 1 6.96902 36.5973 0
414 1 71.4939 48.1845 0
415 1 6.98562 41.533 0
416 2 73.6879 62.3877 0
417 2 75.179 12.6623 0
418 1 54.1728 30.1437 0
419 2 56.6813 47.169 0
420 2 24.8677 55.7931 0
421 1 60.3274 19.3563 0
422 1 2.07482 71.3762 0
423 1 4.05146 12.1139 0
424 1 60.6166 26.9128 0
425 1 58.9295 50.5113 0
426 1 56.0591 73.8273 0
427 2 39.4432 14.8667 0
428 1 51.6036 50.1615 0
429 1 59.1794 71.1461 0
430 1 36.6624 37.1939 0
431 1 0.0126993 29.5514 0
432 1 63.4262 49.0123 0
433 1 29.1793 69.4148 0
434 1 1.94325 42.9609 0
435 1 64.0471 34.2126 0
436 2 68.0289 39.0147 0
437 2 44.288 59.703 0
438 1 39.0842 61.3436 0
439 2 41.1979 12.4099 0
440 1 43.409 43.9187 0
441 2 66.6447 15.26 0
442 1 9.48821 37.9754 0
443 1 54.5497 16.8531 0
444 1 16.8721 75.4791 0
445 2 69.4372 67.4698 0
446 1 61.6133 42.3507 0
447 1 27.0003 70.7828 0
448 1 46.8864 37.9909 0
449 1 37.1259 73.1708 0
450 2 48.556 59.5685 0
451 2 6.39529 61.879 0
452 1 66.5236 11.0861 0
453 1 28.5592 76.0824 0
454 2 62.7065 29.9279 0
455 2 26.5337 67.8103 0
456 1 11.4739 44.5504 0
457 2 18.5663 1.80247 0
458 1 38.0162 76.9881 0
459 2 15.5649 56.7796 0
460 1 5.77889 4.41833 0
461 2 27.1013 27.8633 0
462 1 45.785 24.5202 0
463 1 75.7745 69.7376 0
464 1 9.04316 47.91 0
465 2 40.5744 45.1418 0
466 1 21.7779 12.878 0
467 2 11.6124 1.34442 0
468 1 19.1613 36.2501 0
469 1 1.95147 2.09725 0
470 1 61.658 10.4998 0
471 2 74.0552 40.8685 0
472 1 25.4603 43.0011 0
473 1 61.6877 65.97 0
474 1 33.6473 54.6082 0
475 1 22.5949 59.6977 0
476 2 38.9385 31.9956 0
477 1 60.4555 11.5871 0
478 2 33.2802 74.4488 0
479 1 33.3371 22.2478 0
480 1 19.7969 25.6456 0
481 1 6.94542 18.4599 0
482 1 10.873 25.2933 0
483 2 1.08551 1.59561 0
484 1 14.3175 38.3282 0
485 1 21.4128 57.1079 0
486 1 7.23403 4.73149 0
487 2 70.7534 10.292 0
488 1 58.4239 5.82403 0
489 1 52.3339 15.2258 0
490 1 36.0267 31.055 0
491 1 30.5 42.5727 0
492 2 61.0199 9.79645 0
493 1 73.3734 8.79138 0
494 1 67.5727 31.863 0
495 2 22.5258 49.1568 0
496 2 52.6978 42.3693 0
497 2 40.6139 6.92298 0
498 1 23.5152 25.9422 0
499 1 35.7465 74.3018 0
500 1 2.88928 4.18397 0
501 2 45.5756 43.4666 0
502 1 16.6316 24.8062 0
503 1 50.082 9.74648 0
504 1 37.1376 32.8186 0
505 2 26.6148 77.0171 0
506 2 17.5461 65.1285 0
507 1 42.1075 37.3835 0
508 1 12.7969 32.7544 0
509 1 28.9298 24.9377 0
510 1 6.93211 38.7694 0
511 1 69.2912 26.7076 0
512 1 54.5931 53.3328 0
513 1 11.7466 34.3132 0
514 1 25.4009 64.2925 0
515 2 61.2197 11.2688 0
516 2 11.3197 38.6447 0
517 2 75.5255 73.3539 0
518 2 19.1466 54.2001 0
519 2 33.3579 1.88681 0
520 1 74.4543 37.0386 0
521 1 42.0554 24.5104 0
522 2 24.4627 66.2006 0
523 1 77.253 12.1579 0
524 1 70.3907 34.6681 0
525 1 22.8191 0.0738503 0
526 2 76.5782 22.4049 0
527 1 49.366 26.2703 0
528 2 74.6063 4.89583 0
529 2 34.3132 46.0692 0
530 1 8.00775 59.5016 0
531 2 76.3272 69.0771 0
532 2 32.2459 60.7527 0
533 1 72.952 5.49923 0
534 1 34.4033 27.1008 0
535 1 29.1122 19.2043 0
536 1 32.7273 65.8785 0
537 1 35.0531 47.8141 0
538 2 16.3996 21.6408 0
539 2 46.0497 76.8367 0
540 1 61.0915 40.693 0
541 2 25.0807 7.98079 0
542 1 51.4082 56.8017 0
543 2 69.6565 55.5336 0
544 2 51.8251 10.668 0
545 1 28.3167 22.8697 0
546 1 34.3545 3.18233 0
547 1 10.2516 14.4074 0
548 2 23.8012 2.97368 0
549 2 65.396 21.7006 0
550 2 5.14888 39.4056 0
551 1 30.2026 7.97642 0
552 2 70.6395 40.2945 0
553 2 29.4286 44.9772 0
554 1 51.9124 62.2351 0
555 1 50.4045 57.2476 0
556 1 72.946 68.0147 0
557 1 62.0444 53.9182 0
558 1 2.50572 68.4557 0
559 1 72.6458 36.1724 0
560 2 21.3412 61.3667 0
561 1 5.60653 0.578815 0
562 2 4.57976 11.3538 0
563 2 54.1754 48.8601 0
564 1 70.2258 68.1726 0
565 2 21.965 1.4735 0
566 2 18.0182 23.8403 0
567 1 48.8862 42.2974 0
568 2 22.8387 73.9693 0
569 2 15.7168 27.3982 0
570 1 73.0098 34.3162 0
571 1 0.54006 3.58386 0
572 2 6.69815 48.5996 0
573 2 0.0370009 44.8841 0
574 1 3.81004 69.0007 0
575 1 18.4176 7.72064 0
576 1 16.5377 63.0245 0
577 1 43.3203 50.4726 0
578 2 67.6005 34.2148 0
579 2 45.938 68.445 0
580 1 62.6569 42.805 0
581 1 6.63679 60.6811 0
582 2 68.779 59.5894 0
583 2 64.1631 58.7533 0
584 2 33.6262 65.5879 0
585 1 59.8772 0.125872 0
586 1 48.9528 58.7105 0
587 2 14.6202 21.7292 0
588 1 49.4561 5.31324 0
589 2 53.5259 10.4313 0
590 1 24.6782 73.4375 0
591 1 55.9268 6.63307 0
592 1 48.5624 74.283 0
593 1 44.0277 13.1873 0
594 1 59.9303 63.4115 0
595 1 72.1634 65.4244 0
596 2 7.12194 1.33815 0
597 1 3.47161 43.9911 0
598 1 69.0769 9.23107 0
599 1 2.75801 50.9678 0
600 1 0.0900901 47.7676 0
601 2 42.2348 36.37 0
602 1 62.1329 14.2465 0
603 2 71.1792 50.6628 0
604 2 62.4328 16.3715 0
605 1 52.5958 69.1416 0
606 1 41.5341 3.97581 0
607 1 76.4714 1.42382 0
608 2 1.36332 40.3061 0
609 2 40.6877 0.493936 0
610 1 7.92904 49.8149 0
611 1 54.0953 58.6728 0
612 1 76.8671 6.20323 0
613 1 76.9618 23.1516 0
614 2 50.4586 28.551 0
615 1 34.4113 39.1622 0
616 1 39.7097 16.1376 0
617 1 67.9036 0.657607 0
618 2 11.9076 42.5929 0
619 2 55.343 42.4574 0
620 2 71.1179 73.7509 0
621 2 58.505 35.7757 0
622 1 60.2393 18.1222 0
623 1 37.436 11.3536 0
624 2 20.5188 54.7147 0
625 1 26.9853 76.2394 0
626 1 73.7324 29.0891 0
627 2 2.08621 24.9696 0
628 1 28.7684 58.1466 0
629 2 77.3008 25.4649 0
630 1 29.1899 73.0101 0
631 1 56.8388 37.2203 0
632 1 21.6973 64.9735 0
633 2 25.5515 71.9457 0
634 1 18.7931 50.7244 0
635 2 41.5335 43.5818 0
636 2 36.9303 40.7334 0
637 1 11.1927 11.0545 0
638 1 67.3401 40.8419 0
639 1 70.3681 46.1869 0
640 1 0.338766 53.8489 0
641 1 36.553 33.7413 0
642 1 9.60815 33.8831 0
643 1 50.3986 44.7725 0
644 2 19.2801 27.3323 0
645 1 57.0186 52.3285 0
646 1 46.5412 46.9355 0
647 2 23.5609 10.5486 0
648 1 64.2102 12.4922 0
649 2 10.7596 69.1277 0
650 2 47.359 62.1356 0
651 1 46.0288 12.2149 0
652 1 29.6498 70.9333 0
653 2 13.4955 23.2275 0
654 2 10.3336 3.71536 0
655 1 5.64013 51.8447 0
656 1 72.687 53.7672 0
657 1 33.7256 46.6098 0
658 1 71.6266 13.1076 0
659 2 0.816105 66.1036 0
660 1 26.7096 35.718 0
661 1 37.0989 9.76552 0
662 1 32.825 60.0342 0
663 1 10.523 28.7282 0
664 1 58.2452 75.6515 0
665 2 49.1725 76.9492 0
666 2 12.6963 58.1935 0
667 1 26.446 73.7006 0
668 2 7.81862 76.2266 0
669 1 4.49474 9.15272 0
670 2 43.7871 37.4437 0
671 2 37.3001 17.5304 0
672 1 9.87197 19.5713 0
673 1 6.88267 16.6384 0
674 1 32.6349 42.6305 0
675 2 5.55953 58.9311 0
676 2 37.9454 6.26652 0
677 1 41.6936 54.3373 0
678 1 53.8339 39.2869 0
679 1 46.0734 69.2946 0
680 1 31.8082 53.5586 0
681 1 26.432 53.9939 0
682 1 62.3772 59.3731 0
683 1 18.0606 59.1521 0
684 1 64.5974 68.9783 0
685 2 35.9059 18.7082 0
686 1 50.2033 6.2858 0
687 1 41.5505 18.8967 0
688 2 53.5278 73.5677 0
689 1 71.9713 62.3433 0
690 1 66.3074 72.3733 0
691 1 41.708 39.8597 0
692 2 59.9731 44.0788 0
693 1 71.3259 77.3123 0
694 2 53.7202 64.3506 0
695 1 42.0268 11.811 0
696 2 35.6412 47.1331 0
697 1 25.7466 13.4115 0
698 1 8.4248 3.50137 0
699 1 66.5896 13.8678 0
700 1 72.0979 46.9288 0
701 1 64.2089 31.1901 0
702 1 63.6844 65.4298 0
703 2 71.9416 2.23388 0
704 2 8.30256 61.2706 0
705 2 4.9937 7.20616 0
706 1 52.3111 51.7186 0
707 2 59.8022 38.5278 0
708 1 50.3956 43.1403 0
709 1 51.6697 73.1087 0
710 2 60.2429 28.5172 0
711 1 56.0795 54.1917 0
712 2 62.7461 32.6221 0
713 2 68.5171 70.5776 0
714 2 0.594141 64.8398 0
715 1 45.3688 18.873 0
716 1 76.4084 29.8679 0
717 1 29.8619 63.2925 0
718 1 14.2986 3.63123 0
719 1 53.2916 37.0379 0
720 2 49.2603 38.8 0
721 2 66.8121 39.801 0
722 1 48.9328 7.99493 0
723 2 39.8783 75.2627 0
724 2 10.3346 59.4044 0
725 1 50.81 39.3591 0
726 1 8.14774 30.0167 0
727 2 13.0071 1.48805 0
728 1 67.4594 55.5923 0
729 2 21.6368 59.6284 0
730 1 33.0082 27.4277 0
731 2 16.5122 36.3459 0
732 1 16.3646 54.3822 0
733 1 29.8703 29.4898 0
734 2 66.5458 46.3896 0
735 1 66.829 67.3301 0
736 1 47.1948 49.3819 0
737 2 4.17642 45.7122 0
738 1 13.5833 34.5658 0
739 1 17.9329 37.4308 0
740 1 48.5675 38.2681 0
741 2 57.3512 55.7935 0
742 1 58.9825 37.64 0
743 1 27.2287 62.1391 0
744 2 72.7118 19.0683 0
745 1 23.0567 72.6815 0
746 1 35.1223 10.1048 0
747 1 47.5279 76.1482 0
748 2 43.1019 69.803 0
749 2 22.2435 24.3849 0
750 1 55.3823 35.1383 0
751 1 57.7963 40.2617 0
752 2 2.37703 70.5149 0
753 1 53.0827 39.9264 0
754 2 21.7572 15.377 0
755 1 24.0785 49.9304 0
756 2 49.3669 75.9301 0
757 1 48.4617 19.3775 0
758 1 6.05096 9.8438 0
759 1 61.8426 47.1435 0
760 1 12.1696 10.5368 0
761 1 70.0056 71.8852 0
762 1 15.2124 57.5804 0
763 2 77.195 7.04239 0
764 1 75.0956 56.888 0
765 2 47.2026 56.6183 0
766 1 63.2146 22.5157 0
767 1 13.7832 1.19544 0
768 1 65.2611 7.98008 0
769 1 61.8208 50.0308 0
770 2 60.5337 73.2966 0
771 1 18.7833 39.8215 0
772 1 44.9838 50.9457 0
773 1 40.7304 43.2625 0
774 2 32.4571 25.4149 0
775 1 71.5963 30.5326 0
776 2 44.1446 42.4557 0
777 1 70.3748 55.1073 0
778 2 10.4411 63.0604 0
779 1 45.212 25.4006 0
780 1 17.1669 6.21827 0
781 1 29.4663 35.1374 0
782 1 57.7009 64.9103 0
783 1 60.6508 35.6309 0
784 1 70.9855 49.866 0
785 2 8.94459 11.4188 0
786 1 73.065 70.124 0
787 1 20.944 66.4925 0
788 1 40.059 54.9522 0
789 1 11.0096 4.32467 0
790 1 52.0735 70.1352 0
791 1 45.7749 13.2439 0
792 1 8.54803 24.9919 0
793 1 25.2562 15.0841 0
794 2 70.9274 16.4948 0
795 2 75.6524 14.0715 0
796 2 75.5297 67.8119 0
797 1 44.6136 65.4575 0
798 1 38.3809 19.0589 0
799 1 44.2673 76.4437 0
800 1 30.5596 70.4761 0
801 2 6.3589 25.7605 0
802 2 27.973 45.5279 0
803 2 23.6042 77.0764 0
804 2 52.6922 36.2356 0
805 1 23.865 71.8486 0
806 1 52.9533 70.7317 0
807 2 39.8628 50.4081 0
808 1 50.4553 47.4447 0
809 2 36.4311 62.3501 0
810 1 58.1888 76.8712 0
811 1 28.7031 60.9928 0
812 2 59.7395 48.219 0
813 2 46.4306 58.1272 0
814 1 54.2447 31.1833 0
815 2 41.1545 16.977 0
816 1 28.1879 34.639 0
817 1 68.0543 76.0871 0
818 2 36.8511 16.0908 0
819 2 45.791 56.8322 0
820 1 67.0599 69.887 0
821 1 16.7142 64.7538 0
822 1 56.44 76.8275 0
823 1 17.1286 55.7552 0
824 2 35.0243 42.2378 0
825 1 29.035 41.6086 0
826 1 32.7456 75.1025 0
827 1 7.14509 26.151 0
828 1 77.0074 51.2163 0
829 1 72.1817 40.2835 0
830 2 48.0404 64.6469 0
831 2 43.2464 4.59254 0
832 1 74.0299 14.2964 0
833 1 24.3802 43.242 0
834 2 48.4831 5.6077 0
835 1 69.0329 6.43731 0
836 1 58.0808 27.7518 0
837 1 56.4796 41.3588 0
838 1 39.0881 52.8811 0
839 1 15.988 60.2237 0
840 2 15.8243 46.8695 0
841 1 36.9681 52.5666 0
842 2 11.0173 61.3928 0
843 1 5.50942 42.3279 0
844 1 63.4495 21.4688 0
845 2 27.9994 2.24675 0
846 1 49.6407 39.5796 0
847 1 10.9486 57.6288 0
848 2 69.2018 47.5543 0
849 1 74.0867 10.9998 0
850 1 68.0007 19.7783 0
851 1 39.4173 18.6821 0
852 1 12.2504 1.91735 0
853 1 42.6876 61.3817 0
854 1 37.9732 69.4798 0
855 1 39.4367 25.6701 0
856 2 18.779 41.985 0
857 1 57.9048 34.0086 0
858 2 34.3927 28.6865 0
859 1 13.2686 64.787 0
860 2 2.06504 58.5012 0
861 2 60.3171 40.2973 0
862 2 2.96063 69.2176 0
863 1 58.915 23.7884 0
864 1 60.4304 53.7145 0
865 2 66.2997 68.0582 0
866 1 60.6043 17.0937 0
867 2 31.4649 21.8701 0
868 1 37.2748 61.7928 0
869 1 62.2487 20.0395 0
870 1 77.4425 52.8778 0
871 1 62.6518 26.1297 0
872 1 42.3576 50.8713 0
873 1 50.9255 62.6036 0
874 1 3.97104 71.6684 0
875 1 34.1448 57.761 0
876 2 51.4025 8.00525 0
877 1 13.2551 55.6158 0
878 2 14.8931 16.0529 0
879 1 76.5427 13.9676 0
880 2 31.6786 33.7047 0
881 2 51.8021 29.4708 0
882 2 47.8561 73.7667 0
883 1 25.7994 19.958 0
884 1 56.0268 36.5895 0
885 1 38.853 4.9625 0
886 1 37.1861 60.0615 0
887 2 54.9343 50.3004 0
888 1 0.486258 76.5475 0
889 2 59.2892 49.6402 0
890 2 7.71344 25.3781 0
891 1 37.9722 10.4532 0
892 1 40.0971 67.6295 0
893 1 30.0746 53.5968 0
894 1 77.0484 14.8894 0
895 2 32.4469 52.9793 0
896 1 37.5736 2.45505 0
897 2 35.791 17.0704 0
898 1 31.0638 43.5449 0
899 1 2.0934 75.7841 0
900 2 38.6665 0.142032 0
901 1 52.5657 41.4699 0
902 1 24.3903 75.2195 0
903 1 37.803 40.6642 0
904 2 0.0724037 37.5724 0
905 1 63.7592 62.1842 0
906 1 68.9245 44.658 0
907 1 3.72059 29.7773 0
908 1 50.6568 23.909 0
909 1 0.230811 48.8179 0
910 2 1.90443 50.7759 0
911 2 4.84165 4.52088 0
912 2 36.2438 32.9059 0
913 2 31.9003 51.5976 0
914 1 18.4051 12.9247 0
915 2 64.8839 5.52311 0
916 1 3.30698 39.7883 0
917 2 4.87331 33.403 0
918 2 19.2897 35.3565 0
919 1 8.17824 57.7158 0
920 1 15.9912 47.6844 0
921 1 0.0106688 26.5844 0
922 2 50.7884 18.9608 0
923 2 12.1801 24.3836 0
924 1 39.3601 17.6261 0
925 1 66.3608 47.3364 0
926 2 35.3878 35.3661 0
927 1 68.7157 0.0735254 0
928 1 52.3503 59.0232 0
929 2 52.2072 32.393 0
930 2 19.9857 15.8692 0
931 1 40.7586 47.5945 0
932 1 70.4186 39.1397 0
933 1 34.3396 21.8984 0
934 1 1.93587 60.2356 0
935 1 11.4571 50.6497 0
936 2 42.1954 4.60731 0
937 1 14.3257 73.1721 0
938 1 36.7728 67.4834 0
939 2 50.2803 51.4894 0
940 1 75.973 46.8201 0
941 1 77.1068 17.5513 0
942 1 37.8647 29.7324 0
943 2 22.2809 16.8283 0
944 2 2.03027 41.9858 0
945 1 40.4271 25.305 0
946 1 64.6011 67.2201 0
947 2 25.2026 1.94807 0
948 1 39.4033 68.4149 0
949 1 26.8799 11.6539 0
950 2 5.19968 9.77225 0
951 1 68.9743 65.6465 0
952 2 52.6114 2.7157 0
953 2 7.84585 44.8212 0
954 2 30.0062 62.4214 0
955 1 27.1981 38.4884 0
956 2 58.6692 11.0686 0
957 1 48.3051 23.6174 0
958 2 19.5357 2.82109 0
959 2 74.5026 26.0453 0
960 2 29.1863 66.7438 0
961 1 49.7005 52.1329 0
962 1 24.5254 1.41316 0
963 1 16.3616 12.576 0
964 2 8.67516 9.66649 0
965 2 53.7837 53.7442 0
966 1 0.669938 62.5786 0
967 1 50.026 35.7618 0
968 1 18.4627 0.0960456 0
969 1 57.9797 23.2243 0
970 2 22.5983 4.77292 0
971 1 21.2373 14.6366 0
972 1 6.85483 25.0859 0
973 1 0.907335 35.7861 0
974 2 0.984681 34.9373 0
975 2 73.0281 65.3696 0
976 2 34.7391 20.0074 0
977 1 36.0706 63.2371 0
978 2 3.23655 76.9904 0
979 2 36.2311 65.6694 0
980 1 72.9431 14.3093 0
981 1 73.7397 57.921 0
982 1 7.93278 54.6937 0
983 1 18.417 24.6251 0
984 1 9.24079 57.9279 0
985 1 34.5841 11.0496 0
986 1 37.9943 52.5826 0
987 2 18.1391 12.0469 0
988 2 42.2806 34.9375 0
989 2 9.86806 34.8213 0
990 2 69.7643 51.3932 0
991 2 46.1098 14.8478 0
992 1 62.412 34.5359 0
993 2 29.144 5.52819 0
994 2 1.88709 54.9601 0
995 1 38.8225 22.2953 0
996 2 54.8637 56.8857 0
997 2 43.5086 30.9645 0
998 2 60.1964 75.0131 0
999 2 39.2404 26.4928 0
1000 2 0.634397 49.6095 0
1001 1 41.7749 65.1541 0
1002 1 23.7077 34.9094 0
1003 1 9.59471 54.1918 0
1004 1 7.58528 22.4522 0
1005 2 10.7013 23.7536 0
1006 2 67.8877 60.8296 0
1007 1 18.7912 20.3295 0
1008 1 47.8 16.9021 0
1009 1 31.1094 33.1257 0
1010 1 11.5602 43.4382 0
1011 2 10.5111 22.2182 0
1012 2 2.18788 23.2695 0
1013 2 65.0209 56.0114 0
1014 1 74.2298 15.353 0
1015 1 76.0807 9.31266 0
1016 1 37.1453 48.0225 0
1017 2 68.7457 54.1752 0
1018 1 26.0947 25.1487 0
1019 1 44.3017 29.1349 0
1020 2 32.5816 6.25794 0
1021 2 15.8235 24.5559 0
1022 1 4.8635 60.7939 0
1023 1 41.0045 9.33448 0
1024 1 9.12472 67.9154 0
1025 1 37.1287 65.6574 0
1026 1 7.9604 40.1468 0
1027 1 47.414 2.56973 0
1028 1 1.91467 32.9211 0
1029 1 48.9479 18.215 0
1030 2 46.8337 47.7898 0
1031 2 37.571 37.1051 0
1032 1 16.4154 73.0094 0
1033 1 57.5762 19.2887 0
1034 1 35.2154 29.1556 0
1035 1 65.8259 28.3479 0
1036 2 73.7021 45.8572 0
1037 1 30.8829 73.2886 0
1038 1 68.6719 60.4322 0
1039 1 5.43669 31.8856 0
1040 2 64.9441 34.2611 0
1041 1 35.54 65.1622 0
1042 2 62.908 68.3193 0
1043 2 60.8199 58.3312 0
1044 1 67.7586 23.4887 0
1045 1 66.7035 23.2178 0
1046 1 41.1338 68.0123 0
1047 2 9.87552 47.6754 0
1048 1 53.2954 0.00982469 0
1049 1 59.966 49.0948 0
1050 2 45.4183 6.44801 0
1051 1 43.5428 31.8826 0
1052 1 66.2851 44.4553 0
1053 2 32.6339 18.4907 0
1054 1 55.0229 7.15592 0
1055 2 32.8378 46.7779 0
1056 2 14.6656 45.3356 0
1057 1 12.0393 71.69 0
1058 1 27.457 5.78803 0
1059 1 9.35023 75.3065 0
1060 2 21.8587 41.851 0
1061 1 10.076 23.1733 0
1062 2 16.8313 41.4075 0
1063 1 77.3222 67.8325 0
1064 1 23.4009 5.25518 0
1065 2 29.6752 52.6744 0
1066 1 37.3387 46.2875 0
1067 1 13.919 10.4138 0
1068 2 35.7068 67.0461 0
1069 1 67.8872 24.5254 0
1070 2 8.09017 34.3905 0
1071 2 49.5706 42.8281 0
1072 2 9.40372 48.6501 0
1073 2 16.4914 3.5756 0
1074 2 33.5157 44.4797 0
1075 1 75.8699 49.8675 0
1076 1 41.1117 7.61645 0
1077 1 41.5668 32.5739 0
1078 2 71.781 26.3073 0
1079 2 38.8344 10.7621 0
1080 2 30.0644 72.8463 0
1081 2 45.652 48.5905 0
1082 2 6.12128 27.5316 0
1083 2 21.4966 20.1315 0
1084 1 44.5486 57.9264 0
1085 1 19.271 52.3593 0
1086 1 70.1661 66.9334 0
1087 1 29.6395 72.0329 0
1088 1 45.0583 63.145 0
1089 2 8.37912 31.7094 0
1090 1 42.8318 34.2198 0
1091 2 27.7005 17.8358 0
1092 1 63.1201 53.5199 0
1093 1 69.0657 32.8681 0
1094 2 43.435 55.2108 0
1095 1 25.3564 71.0883 0
1096 2 48.1505 18.4932 0
1097 1 76.0995 17.6976 0
1098 1 62.7171 43.9098 0
1099 1 31.1283 4.88162 0
1100 1 67.6148 2.51509 0
1101 1 75.0266 11.7258 0
1102 1 26.0565 74.6841 0
1103 1 51.2485 70.7861 0
1104 1 47.2654 58.0841 0
1105 1 48.0612 40.2273 0
1106 1 16.5933 71.2566 0
1107 2 45.5494 62.2653 0
1108 1 55.6741 31.3233 0
1109 1 72.7563 24.879 0
1110 2 14.8116 11.9719 0
1111 1 2.60915 56.8791 0
1112 1 76.0555 18.7428 0
1113 2 75.5259 7.58694 0
1114 2 14.2619 53.5579 0
1115 2 33.0898 49.4918 0
1116 1 77.1524 64.5813 0
1117 1 66.8877 56.4378 0
1118 1 12.4907 75.4228 0
1119 2 11.3218 64.2698 0
1120 1 41.6951 57.6818 0
1121 2 21.3587 64.1575 0
1122 1 32.073 32.6458 0
1123 2 23.0181 51.8814 0
1124 1 52.9512 61.9719 0
1125 2 14.8462 4.36475 0
1126 2 15.5049 20.2299 0
1127 1 74.6104 23.9763 0
1128 1 67.3045 52.1226 0
1129 1 60.9182 39.6886 0
1130 1 30.6148 47.3194 0
1131 1 62.5308 15.319 0
1132 2 75.8026 63.5598 0
1133 2 55.9446 22.5547 0
1134 2 20.8066 71.9373 0
1135 1 0.751516 68.3993 0
1136 2 51.1709 26.962 0
1137 1 51.2939 61.4324 0
1138 1 30.3671 13.5958 0
1139 2 57.5292 53.0001 0
1140 2 9.19155 23.0115 0
1141 1 74.8699 65.7146 0
1142 1 26.8634 52.1196 0
1143 1 48.139 44.7253 0
1144 2 60.9435 16.2554 0
1145 1 38.0166 62.4784 0
1146 1 15.5038 18.8976 0
1147 1 28.0822 25.6895 0
1148 1 10.7171 36.7645 0
1149 1 57.5774 29.3857 0
1150 2 65.4974 61.0824 0
1151 1 22.146 3.84892 0
1152 1 59.9021 52.0653 0
1153 1 71.6568 29.4746 0
1154 1 13.9981 4.63834 0
1155 2 60.2469 20.2747 0
1156 1 44.6881 32.2167 0
1157 1 12.3445 18.3001 0
1158 2 58.3812 47.9497 0
1159 2 5.83103 70.5533 0
1160 1 32.9713 7.66083 0
1161 2 44.5685 56.1346 0
1162 1 16.0039 9.99358 0
1163 2 13.4774 73.0629 0
1164 1 24.0669 58.7106 0
1165 1 20.9329 45.4095 0
1166 2 15.0233 50.819 0
1167 1 28.0315 20.4156 0
1168 1 56.5976 64.7339 0
1169 1 19.7822 66.6392 0
1170 2 6.29249 33.5947 0
1171 1 48.6245 34.0674 0
1172 1 23.0636 6.93028 0
1173 1 51.8292 64.0575 0
1174 1 38.8302 29.232 0
1175 2 62.6813 44.8007 0
1176 1 68.3236 36.5293 0
1177 1 47.6555 69.9558 0
1178 2 61.1705 47.6127 0
1179 1 72.3421 32.7382 0
1180 1 51.9912 17.8597 0
1181 1 54.2164 22.9742 0
1182 1 60.6214 74.1227 0
1183 2 43.0014 73.3974 0
1184 2 28.0417 22.0716 0
1185 1 17.624 63.0926 0
1186 1 48.5872 48.7706 0
1187 1 73.8577 72.2909 0
1188 2 4.79034 37.7323 0
1189 1 60.8891 65.3091 0
1190 1 28.299 51.3836 0
1191 2 72.162 5.07013 0
1192 1 24.5512 46.945 0
1193 1 47.5547 17.9412 0
1194 2 16.7161 16.1386 0
1195 1 74.2848 48.8347 0
1196 1 21.8857 49.8443 0
1197 1 35.449 38.9634 0
1198 1 62.2213 76.0941 0
1199 2 57.9952 62.6043 0
1200 1 26.9622 8.85297 0
1201 1 2.80479 73.2138 0
1202 1 5.87884 48.9432 0
1203 2 47.3187 12.377 0
1204 1 57.619 56.7641 0
1205 1 66.7624 50.3951 0
1206 1 52.1433 5.0682 0
1207 1 31.8464 62.8426 0
1208 1 75.3307 57.9261 0
1209 2 65.5321 59.6582 0
1210 1 69.6322 31.9644 0
1211 2 25.5029 35.6633 0
1212 1 33.6777 36.276 0
1213 1 61.3792 68.9645 0
1214 1 61.6184 23.752 0
1215 1 11.7482 72.7385 0
1216 1 11.2849 49.5256 0
1217 2 68.3335 3.00415 0
1218 2 61.5728 20.8684 0
1219 1 30.2578 15.3793 0
1220 1 61.9967 17.9609 0
1221 1 61.6833 54.968 0
1222 2 66.6875 74.6581 0
1223 1 42.281 48.036 0
1224 1 0.639183 34.0937 0
1225 1 2.7415 25.6374 0
1226 2 65.9808 65.0179 0
1227 1 42.1347 56.7331 0
1228 1 76.1808 70.7586 0
1229 2 47.8562 9.35509 0
1230 1 25.5656 49.6173 0
1231 2 52.7912 18.1886 0
1232 1 67.8212 38.145 0
1233 1 39.1294 57.983 0
1234 1 1.669 67.8525 0
1235 1 18.1574 45.9854 0
1236 1 52.4995 63.1458 0
1237 1 37.8421 20.7333 0
1238 1 24.8149 7.08975 0
1239 1 12.7735 22.7235 0
1240 1 24.2974 62.9802 0