ITEM: TIMESTEP
0
ITEM: NUMBER OF ATOMS
7200
ITEM: BOX BOUNDS xy xz yz pp pp pp
0.0000000000000000e+00 7.7459666924100006e+01 0.0000000000000000e+00
0.0000000000000000e+00 7.7459666924100006e+01 0.0000000000000000e+00
-1.2909944490000000e-01 1.2909944490000000e-01 0.0000000000000000e+00
ITEM: ATOMS id type x y z
1 1 12.1312 20.1331 0
2 1 14.9375 63.9179 0
3 1 75.2834 71.2099 0
4 1 20.4044 8.17849 0
5 1 34.5693 55.9744 0
6 1 56.7285 28.5064 0
7 2 5.36482 3.38534 0
8 2 64.6534 46.4629 0
9 1 42.0832 56.0983 0
10 2 19.1296 14.6914 0
11 2 25.248 53.1026 0
12 1 55.317 11.5783 0
13 2 23.2483 6.05422 0
14 1 46.512 70.6017 0
15 1 39.4782 31.203 0
16 1 18.2701 14.9753 0
17 1 31.4567 40.0243 0
18 1 33.7274 5.841 0
19 1 27.0322 57.7046 0
20 2 44.8191 3.79114 0
21 1 12.2496 65.8745 0
22 1 54.4157 10.8726 0
23 1 75.7232 45.6979 0
24 1 55.9135 66.3436 0
25 1 6.7092 71.0963 0
26 1 21.1957 67.5703 0
27 2 28.9953 63.7552 0
28 1 51.3539 74.2854 0
29 2 22.471 47.9944 0
30 2 25.3548 32.1539 0
31 1 15.2105 53.2536 0
32 1 51.0918 37.9362 0
33 1 60.6821 48.4887 0
34 2 45.4226 9.81077 0
35 1 75.2161 62.9903 0
36 1 30.6188 59.9465 0
37 1 22.241 61.5674 0
38 1 45.8562 19.7851 0
39 1 22.4315 5.81422 0
40 2 24.9757 59.069 0
41 2 18.493 64.7048 0
42 1 20.9086 1.21509 0
43 1 19.0088 33.4937 0
44 1 34.3463 62.7622 0
45 1 3.40421 34.5662 0
46 1 68.1463 7.5563 0
47 1 73.4584 58.9786 0
48 1 44.0728 68.27 0
49 2 77.3738 4.21949 0
50 1 31.0367 66.6666 0
51 1 1.28251 10.0077 0
52 2 33.2387 24.2543 0
53 1 53.656 18.7011 0
54 1 49.6888 30.2942 0
55 1 9.76258 1.10771 0
56 1 46.0592 26.0568 0
57 1 67.4803 43.1158 0
58 1 69.8649 69.1763 0
59 1 34.162 2.12509 0
60 1 28.6213 3.33379 0
61 1 40.4967 76.04 0
62 1 52.1463 44.7882 0
63 1 57.2417 10.0047 0
64 1 50.5911 45.6916 0
65 1 67.0033 73.6692 0
66 2 56.1561 11.5126 0
67 2 40.7558 35.8719 0
68 2 0.853107 29.3082 0
69 1 61.9545 45.4148 0
70 1 8.4669 35.4384 0
71 2 7.55905 42.252 0
72 1 76.9195 3.44104 0
73 1 6.29469 64.215 0
74 2 41.5756 22.7719 0
75 1 75.4697 53.292 0
76 1 19.6912 46.8953 0
77 1 25.0079 74.4639 0
78 1 3.67612 15.6558 0
79 1 12.5918 73.3407 0
80 1 43.5038 16.6323 0
81 1 54.9939 62.2168 0
82 2 44.385 16.625 0
83 1 5.82015 32.9982 0
84 1 33.1011 45.7078 0
85 1 34.5547 20.7499 0
86 2 34.6339 64.7044 0
87 1 71.5745 34.7683 0
88 1 18.3736 54.7074 0
89 1 27.7826 13.1726 0
90 1 37.4829 37.9406 0
91 2 45.8806 41.0188 0
92 2 41.2006 56.0573 0
93 1 27.8617 16.9035 0
94 1 33.5114 55.7296 0
95 2 39.0584 56.7941 0
96 1 65.3416 1.29034 0
97 1 44.0823 48.9688 0
98 2 2.7425 60.0152 0
99 1 61.8572 48.201 0
100 2 32.5946 30.7763 0
101 1 47.6037 54.4225 0
102 1 56.1522 21.5187 0
103 1 56.5588 70.4282 0
104 1 2.71222 60.8874 0
105 2 40.1529 3.14138 0
106 2 30.4342 34.7312 0
107 1 13.1047 31.4449 0
108 1 0.884357 0.893558 0
109 1 35.5748 41.4461 0
110 2 65.1271 25.5479 0
111 1 66.0809 11.9308 0
112 1 34.2804 72.8529 0
113 2 0.216938 60.3466 0
114 2 74.6074 29.3906 0
115 2 30.4693 12.7415 0
116 2 74.6248 53.6005 0
117 1 16.2214 45.9429 0
118 2 46.9067 26.4826 0
119 1 62.7286 77.4547 0
120 2 5.9681 49.9212 0
121 1 6.17224 3.72622 0
122 1 20.0231 33.0632 0
123 2 5.39573 17.7956 0
124 1 46.2864 57.2056 0
125 1 31.5709 27.2629 0
126 1 58.0696 52.2295 0
127 1 4.34211 59.1243 0
128 1 14.4356 23.4576 0
129 1 16.4918 52.1585 0
130 1 7.20679 2.26393 0
131 1 59.108 25.0353 0
132 2 31.084 41.8681 0
133 2 52.6324 6.96504 0
134 1 65.7613 51.0023 0
135 1 31.7489 30.3652 0
136 2 55.1089 46.5466 0
137 1 61.7421 56.6736 0
138 2 70.5163 47.98 0
139 1 68.373 27.2768 0
140 1 3.45785 21.8936 0
141 2 48.1027 63.5339 0
142 1 6.4607 22.5824 0
143 2 40.5948 70.0908 0
144 2 47.1228 75.2896 0
145 2 18.2811 52.9103 0
146 1 54.9139 4.09875 0
147 1 9.51732 38.9842 0
148 1 46.3168 53.2553 0
149 2 67.9525 49.2774 0
150 1 32.7419 56.4958 0
151 2 29.5822 13.8317 0
152 1 48.9519 63.1275 0
153 2 17.296 46.4303 0
154 2 31.5538 72.2246 0
155 1 70.5056 48.9576 0
156 1 43.516 10.348 0
157 1 49.1852 70.9658 0
158 1 60.0601 69.2403 0
159 2 10.4977 25.97 0
160 1 38.1735 17.4972 0
161 1 7.15941 63.5752 0
162 2 72.521 23.9531 0
163 1 30.5471 27.0832 0
164 1 60.2038 29.567 0
165 1 75.6706 27.8414 0
166 1 2.03338 44.796 0
167 1 39.1753 0.969887 0
168 1 38.5053 72.9254 0
169 1 56.7281 30.8192 0
170 1 57.3712 0.874571 0
171 2 36.7999 61.1596 0
172 2 33.5878 53.8559 0
173 2 43.9692 24.4231 0
174 2 27.4104 55.8414 0
175 2 31.1884 26.5143 0
176 1 46.242 16.3206 0
177 1 19.6525 58.5679 0
178 1 61.826 61.419 0
179 1 64.5705 24.9014 0
180 2 33.3617 39.6309 0
181 1 45.2825 27.5672 0
182 1 61.8174 58.6686 0
183 2 12.2042 37.4168 0
184 1 5.28081 67.5195 0
185 2 67.1565 29.4623 0
186 1 59.095 35.0634 0
187 1 39.5298 46.3758 0
188 1 57.3024 47.6657 0
189 2 63.6975 53.0337 0
190 1 23.2096 4.09598 0
191 1 71.9351 7.94925 0
192 1 65.576 10.2438 0
193 2 10.8488 41.6434 0
194 2 68.5787 69.0439 0
195 1 11.0707 3.29922 0
196 2 49.4738 54.9171 0
197 2 20.2322 9.99534 0
198 1 13.3488 61.3239 0
199 2 75.7645 66.1753 0
200 1 60.0089 27.8156 0
201 2 34.6161 1.35949 0
202 2 74.601 55.0938 0
203 1 52.3294 65.6413 0
204 1 29.5564 3.75327 0
205 1 56.1499 26.1302 0
206 2 35.8128 36.9979 0
207 2 14.0466 9.54542 0
208 1 33.8596 13.9917 0
209 1 12.3 11.6462 0
210 2 5.33113 20.4723 0
211 1 17.1705 8.32286 0
212 2 24.7427 6.34808 0
213 2 56.0329 27.9972 0
214 1 71.0015 57.7558 0
215 2 67.008 22.5146 0
216 1 20.6708 73.5663 0
217 1 59.5013 34.0885 0
218 2 54.61 58.4525 0
219 2 67.9543 42.4207 0
220 2 42.4645 63.8981 0
221 1 18.9713 45.3243 0
222 1 44.9623 12.5022 0
223 2 39.0453 67.7157 0
224 2 27.7547 68.7352 0
225 1 32.5657 23.6708 0
226 2 66.3049 57.2205 0
227 2 5.97158 16.4718 0
228 1 34.5731 9.33639 0
229 1 70.9468 26.9255 0
230 1 32.2594 74.5112 0
231 1 10.7543 34.2856 0
232 1 42.0609 12.9205 0
233 1 34.7771 7.68149 0
234 1 76.0746 8.40577 0
235 1 60.7561 59.1407 0
236 2 44.713 70.3535 0
237 1 77.2294 62.245 0
238 2 9.20601 21.4558 0
239 1 58.4132 2.72956 0
240 2 61.5714 46.2046 0
241 1 47.4236 66.6394 0
242 1 18.5846 30.6316 0
243 1 7.01306 56.3999 0
244 1 61.1118 64.3176 0
245 1 10.9973 30.8009 0
246 1 2.10107 35.602 0
247 1 65.5526 49.9242 0
248 1 12.3796 0.648556 0
249 2 50.317 41.119 0
250 1 29.1467 9.3802 0
251 2 57.7806 50.2291 0
252 2 65.7037 23.2952 0
253 1 19.9009 17.6503 0
254 1 54.4132 25.0544 0
255 1 65.5024 42.983 0
256 1 31.1275 8.59995 0
257 1 22.2139 57.8702 0
258 1 26.0742 38.4619 0
259 1 55.5344 56.7752 0
260 2 43.9738 53.8565 0
261 2 26.3876 62.5997 0
262 1 24.4144 33.7443 0
263 2 12.7111 34.7242 0
264 2 71.3558 59.8959 0
265 1 77.0423 46.5552 0
266 1 38.1111 44.7242 0
267 2 61.6255 24.5379 0
268 2 56.6074 45.9455 0
269 1 48.1751 21.0661 0
270 2 9.17373 47.1311 0
271 2 22.5665 33.6192 0
272 2 20.4958 14.235 0
273 1 14.9217 65.0438 0
274 1 32.2865 49.9862 0
275 1 8.63045 49.016 0
276 1 75.3401 10.2591 0
277 2 15.5892 71.2885 0
278 1 7.61367 17.4077 0
279 1 4.54426 44.4294 0
280 1 20.3477 35.8207 0
281 1 30.7445 38.4525 0
282 2 75.8547 26.5211 0
283 1 76.5191 55.6111 0
284 2 54.3076 38.2348 0
285 1 70.9607 52.7142 0
286 1 11.323 63.2996 0
287 1 19.045 76.824 0
288 2 75.8473 3.88266 0
289 2 21.369 39.0901 0
290 2 69.245 76.3423 0
291 1 35.2174 22.5456 0
292 1 27.698 58.5071 0
293 1 47.3822 19.0769 0
294 1 40.3211 2.28713 0
295 1 69.9046 3.35323 0
296 2 74.2048 8.46377 0
297 1 40.2739 59.8438 0
298 1 72.6219 35.1888 0
299 2 49.3022 36.659 0
300 1 39.2009 43.7239 0
301 1 73.4638 19.6325 0
302 1 50.9347 35.1265 0
303 1 20.5279 32.1638 0
304 1 60.4762 72.4318 0
305 2 59.0355 75.9123 0
306 1 62.9669 52.5635 0
307 2 73.4352 38.7248 0
308 1 41.5593 5.34328 0
309 2 24.919 16.7816 0
310 2 13.3813 13.0844 0
311 1 29.2806 49.4395 0
312 1 67.3725 61.6952 0
313 1 74.7804 76.1792 0
314 1 40.4973 45.9127 0
315 2 56.4215 31.667 0
316 2 39.5625 63.4853 0
317 1 50.8998 20.5868 0
318 2 7.01669 31.3255 0
319 1 30.9576 25.6061 0
320 1 36.0889 61.6582 0
321 1 58.5179 68.4436 0
322 2 74.0909 11.8007 0
323 2 25.1189 63.4489 0
324 1 64.422 41.5629 0
325 1 41.197 6.33684 0
326 1 9.76515 58.9481 0
327 1 48.6232 54.745 0
328 1 0.915722 37.0965 0
329 1 41.6607 42.6671 0
330 2 51.7869 34.9482 0
331 2 70.1684 4.14894 0
332 1 59.4769 28.7857 0
333 1 37.0458 12.1946 0
334 1 17.0094 34.7442 0
335 1 20.5592 38.7746 0
336 2 72.3936 74.4498 0
337 1 34.8065 33.7501 0
338 2 17.0077 1.57572 0
339 1 42.5185 68.3225 0
340 1 18.8632 57.8893 0
341 2 74.1274 44.2196 0
342 1 66.9726 5.80652 0
343 2 56.4469 49.8115 0
344 2 22.8435 65.9784 0
345 1 7.93354 27.6647 0
346 1 17.5001 71.7368 0
347 1 35.4896 56.5333 0
348 1 56.5645 18.8448 0
349 1 33.7783 19.9834 0
350 1 37.3043 31.1537 0
351 1 17.9617 53.708 0
352 1 47.8807 30.7146 0
353 1 75.2491 25.8901 0
354 2 22.6486 26.3375 0
355 2 43.4453 18.3123 0
356 2 11.7898 2.81304 0
357 1 68.5356 67.5341 0
358 1 24.2261 3.76412 0
359 1 22.3729 14.6122 0
360 2 45.2196 31.3601 0
361 2 48.0693 67.2621 0
362 1 27.0782 74.5918 0
363 2 38.0102 73.605 0
364 1 13.2015 66.4658 0
365 2 8.82941 57.2554 0
366 1 24.8174 50.5365 0
367 2 19.7664 23.5302 0
368 2 51.189 54.9694 0
369 2 65.1934 70.5643 0
370 1 3.51768 28.3391 0
371 1 45.8983 73.5517 0
372 2 40.4422 9.96673 0
373 1 10.4266 31.7644 0
374 2 66.5821 41.3897 0
375 1 52.1958 52.6878 0
376 2 75.4547 43.1039 0
377 2 58.1594 38.0531 0
378 1 20.4382 63.6252 0
379 1 13.8067 20.3113 0
380 1 9.84607 62.4786 0
381 1 26.6288 23.3729 0
382 1 30.9529 23.485 0
383 1 9.72055 11.7834 0
384 1 34.8694 51.7569 0
385 1 28.3029 77.0519 0
386 1 54.8665 40.3257 0
387 1 59.4896 76.6372 0
388 2 55.9202 57.8406 0
389 1 24.5324 56.6445 0
390 1 29.5686 12.9907 0
391 2 59.9137 26.7699 0
392 2 30.0029 9.95876 0
393 2 38.6797 64.9693 0
394 1 10.2924 73.6626 0
395 1 53.2236 21.7663 0
396 1 13.7614 70.3599 0
397 1 46.8024 17.2467 0
398 1 45.4446 70.7881 0
399 1 69.9844 18.057 0
400 1 59.7385 74.2258 0
401 1 44.5725 11.5715 0
402 2 56.634 16.9734 0
403 1 38.2329 51.5798 0
404 1 69.3053 70.7851 0
405 2 73.8618 76.3701 0
406 1 34.2114 19.0384 0
407 2 45.7315 21.7532 0
408 1 63.613 30.4772 0
409 1 18.642 61.2913 0
410 2 67.4527 16.7593 0
411 2 66.5899 36.5351 0
412 1 58.8172 38.6288 0
413 1 7.28672 36.6179 0
414 1 71.376 48.2509 0
415 1 7.17955 41.44 0
416 2 73.7367 62.2311 0
417 2 75.1714 12.7734 0
418 1 54.3358 29.9337 0
419 2 56.5966 47.1588 0
420 2 24.7538 55.7761 0
421 1 60.2864 19.394 0
422 1 2.11145 71.3453 0
423 1 4.20241 12.1359 0
424 1 60.8249 27.0841 0
425 1 58.7274 50.4649 0
426 1 55.9838 73.7588 0
427 2 39.6206 14.9412 0
428 1 51.503 50.1409 0
429 1 59.0199 71.0898 0
430 1 36.6836 37.1621 0
431 1 0.057952 29.6087 0
432 1 63.3919 49.1754 0
433 1 29.1575 69.4614 0
434 1 1.87921 42.8651 0
435 1 64.1341 34.2215 0
436 2 67.9745 39.0589 0
437 2 43.6258 59.3828 0
438 1 38.8413 61.7775 0
439 2 41.2667 12.5679 0
440 1 43.3546 43.6545 0
441 2 66.7432 15.287 0
442 1 9.71287 37.9231 0
443 1 54.595 16.807 0
444 1 16.6851 75.31 0
445 2 69.4258 67.5658 0
446 1 61.6173 42.2353 0
447 1 27.0326 70.9266 0
448 1 46.8992 37.6099 0
449 1 37.1817 73.3225 0
450 2 48.0618 59.6615 0
451 2 6.4976 61.6989 0
452 1 66.7264 11.0815 0
453 1 28.6681 76.0214 0
454 2 62.7174 30.0467 0
455 2 26.5451 67.955 0
456 1 11.5429 44.7033 0
457 2 18.428 1.84199 0
458 1 37.9859 77.169 0
459 2 15.6008 56.6777 0
460 1 5.50473 4.54176 0
461 2 27.2562 26.94 0
462 1 45.8964 24.3423 0
463 1 75.9785 69.66 0
464 1 9.0693 47.9761 0
465 2 40.6119 45.0592 0
466 1 21.8419 12.9461 0
467 2 11.6928 1.22893 0
468 1 19.3251 36.1921 0
469 1 1.94491 2.12286 0
470 1 61.8405 10.4365 0
471 2 73.9955 40.9003 0
472 1 25.5988 42.9032 0
473 1 61.5835 65.9581 0
474 1 33.3314 54.7106 0
475 1 22.5346 59.8587 0
476 2 39.0202 32.049 0
477 1 60.6948 11.6404 0
478 2 33.1805 74.5598 0
479 1 33.4551 22.2349 0
480 1 19.9106 25.7679 0
481 1 7.13623 18.5674 0
482 1 10.8927 25.1411 0
483 2 1.20134 1.67991 0
484 1 14.4709 38.3343 0
485 1 21.3366 57.1875 0
486 1 7.23621 4.80267 0
487 2 70.9288 10.2224 0
488 1 58.8077 5.54728 0
489 1 52.3807 15.2418 0
490 1 35.5919 31.0553 0
491 1 30.5353 42.5917 0
492 2 61.253 9.76945 0
493 1 73.3209 8.97712 0
494 1 67.6199 32.0107 0
495 2 22.5628 49.0736 0
496 2 52.7068 42.0921 0
497 2 40.6512 7.031 0
498 1 23.5191 26.0394 0
499 1 35.849 74.4684 0
500 1 2.72796 4.29776 0
501 2 45.5523 43.4596 0
502 1 16.6761 24.8984 0
503 1 50.2793 9.729 0
504 1 37.0704 32.766 0
505 2 26.5085 76.9851 0
506 2 17.6342 65.2646 0
507 1 42.0591 37.3822 0
508 1 12.8337 32.7243 0
509 1 28.9684 24.8736 0
510 1 7.15413 38.7618 0
511 1 69.2467 26.7957 0
512 1 54.5357 53.387 0
513 1 11.9819 34.275 0
514 1 25.2797 64.3376 0
515 2 61.4856 11.2312 0
516 2 11.5275 38.6387 0
517 2 74.4095 74.6718 0
518 2 19.0195 54.1499 0
519 2 33.2063 1.951 0
520 1 74.5062 37.0999 0
521 1 42.1537 24.4115 0
522 2 24.4064 66.1036 0
523 1 77.2946 12.3379 0
524 1 70.4973 34.6453 0
525 1 22.786 0.0341858 0
526 2 76.353 22.3591 0
527 1 49.5303 26.0597 0
528 2 74.5646 5.17517 0
529 2 35.1639 45.3144 0
530 1 7.87078 59.5472 0
531 2 76.3361 68.9132 0
532 2 32.1651 60.8228 0
533 1 72.9304 5.43123 0
534 1 34.5197 27.045 0
535 1 29.0807 19.2162 0
536 1 32.6096 65.8243 0
537 1 34.9787 47.858 0
538 2 16.3623 21.7796 0
539 2 45.9884 76.7925 0
540 1 60.8878 40.631 0
541 2 24.9174 8.14387 0
542 1 51.134 56.7633 0
543 2 69.6147 55.6043 0
544 2 51.9934 10.4963 0
545 1 28.2381 22.8421 0
546 1 34.261 3.24082 0
547 1 10.2736 14.4538 0
548 2 23.5769 3.14696 0
549 2 65.4154 21.8615 0
550 2 5.37077 39.4071 0
551 1 30.1487 8.03708 0
552 2 70.6311 40.3021 0
553 2 29.4171 44.9531 0
554 1 51.6559 62.2574 0
555 1 50.2277 57.274 0
556 1 73.0574 68.0223 0
557 1 62.0503 53.9995 0
558 1 2.56929 68.5459 0
559 1 72.6523 36.2079 0
560 2 21.382 61.4395 0
561 1 5.68263 0.759512 0
562 2 4.60471 11.2903 0
563 2 53.9565 48.7545 0
564 1 70.1693 68.1288 0
565 2 21.7956 1.42339 0
566 2 18.1262 23.8362 0
567 1 48.8786 42.0438 0
568 2 22.8837 74.0853 0
569 2 15.6949 27.5306 0
570 1 73.1998 34.2624 0
571 1 0.497573 3.5029 0
572 2 6.68931 48.6279 0
573 2 0.0870749 44.769 0
574 1 3.84547 69.0732 0
575 1 18.3418 7.74635 0
576 1 16.4951 63.0877 0
577 1 43.3124 50.4679 0
578 2 67.7238 34.255 0
579 2 45.8984 69.0075 0
580 1 62.7442 42.6515 0
581 1 6.6417 60.7856 0
582 2 68.5093 59.6574 0
583 2 64.0747 58.7067 0
584 2 33.4445 65.5428 0
585 1 61.047 77.2942 0
586 1 48.5188 58.5589 0
587 2 14.6856 21.8026 0
588 1 49.5823 5.18764 0
589 2 53.7329 10.2891 0
590 1 24.6594 73.4768 0
591 1 56.2564 6.53307 0
592 1 48.5113 74.2995 0
593 1 44.1189 13.1593 0
594 1 59.7117 63.3318 0
595 1 72.1904 65.3261 0
596 2 7.15455 1.42353 0
597 1 3.53813 44.0108 0
598 1 69.1592 9.2094 0
599 1 2.76354 50.9262 0
600 1 0.198943 47.423 0
601 2 42.1463 36.0816 0
602 1 62.2868 14.2596 0
603 2 71.0243 50.8332 0
604 2 62.4033 16.4458 0
605 1 52.3378 69.2076 0
606 1 41.5711 4.16863 0
607 1 76.4107 1.34681 0
608 2 1.47661 40.3073 0
609 2 40.8621 0.606474 0
610 1 7.86105 49.8007 0
611 1 53.7388 58.7717 0
612 1 76.7723 6.26371 0
613 1 76.8603 23.1558 0
614 2 50.4532 28.4078 0
615 1 34.5439 38.8862 0
616 1 39.776 16.1403 0
617 1 69.1054 2.62111 0
618 2 12.0533 42.6448 0
619 2 55.1132 42.4761 0
620 2 70.9293 73.7971 0
621 2 58.5809 35.7704 0
622 1 60.153 18.1475 0
623 1 37.5385 11.3071 0
624 2 20.2582 54.7479 0
625 1 27.0147 76.3099 0
626 1 73.7264 29.1656 0
627 2 2.175 25.1596 0
628 1 28.7622 58.0633 0
629 2 77.3231 25.539 0
630 1 29.1716 73.0319 0
631 1 56.9021 37.0968 0
632 1 21.6152 65.0174 0
633 2 25.4818 71.9831 0
634 1 18.7743 50.6776 0
635 2 41.3965 43.6512 0
636 2 37.1092 40.8059 0
637 1 11.3421 11.1195 0
638 1 67.3077 40.8711 0
639 1 70.2359 46.3472 0
640 1 0.253903 53.9006 0
641 1 36.4494 33.6712 0
642 1 9.68743 33.7239 0
643 1 50.2431 44.7233 0
644 2 19.2882 27.4065 0
645 1 57.0251 52.2858 0
646 1 46.2631 47.0198 0
647 2 23.6415 10.631 0
648 1 64.3855 12.3991 0
649 2 10.7076 68.9704 0
650 2 47.1489 61.8966 0
651 1 46.0534 12.1755 0
652 1 29.628 70.9406 0
653 2 13.6261 23.2541 0
654 2 10.343 3.79311 0
655 1 5.57662 51.8688 0
656 1 72.7524 53.6682 0
657 1 33.6844 46.5931 0
658 1 71.6918 13.1172 0
659 2 0.987285 66.2685 0
660 1 26.7176 35.4243 0
661 1 37.3665 9.83213 0
662 1 32.7281 60.0814 0
663 1 10.594 28.66 0
664 1 58.3286 75.4728 0
665 2 49.1387 76.8972 0
666 2 12.8017 58.1692 0
667 1 26.4135 73.7513 0
668 2 7.78123 76.1845 0
669 1 4.32953 9.37117 0
670 2 43.9656 37.6873 0
671 2 37.3334 17.5206 0
672 1 9.95917 19.5962 0
673 1 6.89453 16.6435 0
674 1 32.6195 42.5335 0
675 2 5.50313 59.093 0
676 2 37.9253 6.41216 0
677 1 41.3114 53.9559 0
678 1 53.7732 38.9204 0
679 1 46.5866 69.5048 0
680 1 31.7179 53.6199 0
681 1 26.273 53.9324 0
682 1 62.3786 59.6181 0
683 1 18.059 59.3005 0
684 1 64.3496 68.9373 0
685 2 35.9662 18.6406 0
686 1 50.3821 6.18293 0
687 1 41.5192 18.9381 0
688 2 53.4908 73.6359 0
689 1 72.025 62.3784 0
690 1 66.0248 72.1963 0
691 1 41.8308 40.0008 0
692 2 59.8397 44.0183 0
693 1 71.2774 76.8997 0
694 2 53.7519 64.2812 0
695 1 42.2645 11.8487 0
696 2 35.5876 47.1318 0
697 1 25.7683 13.3748 0
698 1 8.37425 3.46485 0
699 1 66.826 13.8001 0
700 1 72.0452 46.8758 0
701 1 64.2276 31.3496 0
702 1 63.5442 65.3883 0
703 2 72.0364 2.21756 0
704 2 8.25913 61.3439 0
705 2 4.97063 7.46868 0
706 1 52.1592 51.6515 0
707 2 59.6427 38.3871 0
708 1 50.286 42.9785 0
709 1 51.6071 73.2575 0
710 2 60.3757 28.6666 0
711 1 56.0091 54.1863 0
712 2 62.8296 32.7808 0
713 2 68.3997 70.4619 0
714 2 0.630322 64.823 0
715 1 45.2807 18.8469 0
716 1 76.5068 29.8482 0
717 1 29.7968 63.4263 0
718 1 14.2427 3.70539 0
719 1 53.3353 36.9205 0
720 2 49.2292 38.3984 0
721 2 66.9275 39.9536 0
722 1 49.1737 7.99396 0
723 2 39.9482 75.3877 0
724 2 10.3596 59.6159 0
725 1 50.6751 39.1919 0
726 1 8.17117 29.9246 0
727 2 12.837 1.38564 0
728 1 67.4003 55.6419 0
729 2 21.665 59.7605 0
730 1 33.0124 27.3591 0
731 2 16.6312 36.3967 0
732 1 16.4071 54.2312 0
733 1 29.8748 29.5614 0
734 2 66.3305 46.4874 0
735 1 66.6688 67.2629 0
736 1 47.6941 49.3037 0
737 2 4.25577 45.7074 0
738 1 13.6945 34.533 0
739 1 18.1771 37.4619 0
740 1 48.4729 37.9259 0
741 2 57.1379 55.7034 0
742 1 58.976 37.5863 0
743 1 27.0946 62.0717 0
744 2 72.776 19.012 0
745 1 23.0633 72.6776 0
746 1 35.1205 10.2204 0
747 1 47.468 76.1353 0
748 2 43.0955 69.9446 0
749 2 22.3023 24.5581 0
750 1 55.3474 34.9572 0
751 1 57.7148 40.1717 0
752 2 2.48495 70.5023 0
753 1 53.0941 39.6895 0
754 2 21.8148 15.2961 0
755 1 23.9936 49.9052 0
756 2 49.3462 75.8977 0
757 1 48.3821 19.5186 0
758 1 6.09237 9.89045 0
759 1 61.7765 47.089 0
760 1 12.2394 10.5891 0
761 1 69.9246 71.6792 0
762 1 15.2012 57.4772 0
763 2 77.1381 7.08599 0
764 1 75.0895 56.9604 0
765 2 46.9147 56.5935 0
766 1 63.3101 22.6451 0
767 1 13.6841 1.10669 0
768 1 65.4817 8.04167 0
769 1 61.7548 50.1008 0
770 2 60.3526 73.6176 0
771 1 18.912 40.0197 0
772 1 44.9413 51.0882 0
773 1 40.7182 43.166 0
774 2 32.5865 25.5424 0
775 1 71.7163 30.7179 0
776 2 43.6926 42.8027 0
777 1 70.3995 55.2329 0
778 2 10.5187 63.0149 0
779 1 45.3963 25.2394 0
780 1 17.0957 6.30622 0
781 1 29.6655 35.0745 0
782 1 57.4544 64.9036 0
783 1 60.5715 35.5401 0
784 1 70.9046 50.0094 0
785 2 8.95723 11.3985 0
786 1 73.3812 70.183 0
787 1 20.9374 66.5764 0
788 1 39.8415 54.6876 0
789 1 11.0298 4.36775 0
790 1 52.1037 70.316 0
791 1 45.8729 13.2805 0
792 1 8.61978 24.9919 0
793 1 25.2585 14.9644 0
794 2 71.2464 16.6825 0
795 2 75.6449 14.2298 0
796 2 75.571 67.784 0
797 1 44.4963 65.3436 0
798 1 38.4304 18.9578 0
799 1 44.2196 76.5835 0
800 1 30.6037 70.5545 0
801 2 6.4741 25.7605 0
802 2 28.0352 45.4419 0
803 2 23.5987 77.1705 0
804 2 52.5602 35.8992 0
805 1 23.8502 71.9754 0
806 1 53.0142 70.8928 0
807 2 39.8271 50.3866 0
808 1 50.4154 47.2231 0
809 2 36.3161 62.4985 0
810 1 58.4009 76.635 0
811 1 28.702 60.9612 0
812 2 59.7372 48.2961 0
813 2 46.0243 58.0441 0
814 1 54.4424 31.0239 0
815 2 41.1697 17.0134 0
816 1 28.1239 34.4342 0
817 1 67.7885 75.7012 0
818 2 36.7816 16.1118 0
819 2 45.5936 56.6641 0
820 1 66.8442 69.7473 0
821 1 16.6949 64.8537 0
822 1 56.6951 76.7553 0
823 1 17.1324 55.736 0
824 2 35.4346 42.2974 0
825 1 29.1908 41.4243 0
826 1 32.8538 75.402 0
827 1 7.27496 26.0602 0
828 1 76.8683 51.162 0
829 1 72.2743 40.2238 0
830 2 47.7862 64.4115 0
831 2 43.3124 4.67254 0
832 1 73.8838 14.4058 0
833 1 24.5802 43.2464 0
834 2 48.7061 5.50781 0
835 1 68.4442 6.50082 0
836 1 58.2107 27.6332 0
837 1 56.3298 41.2993 0
838 1 38.8934 52.7279 0
839 1 16.0273 60.3087 0
840 2 15.7725 46.6896 0
841 1 36.8288 52.571 0
842 2 11.0311 61.1427 0
843 1 5.61636 42.4662 0
844 1 63.4933 21.5877 0
845 2 27.8791 2.08919 0
846 1 49.489 39.1852 0
847 1 10.9265 57.7094 0
848 2 68.982 47.6804 0
849 1 74.1389 10.9816 0
850 1 67.9196 19.7804 0
851 1 39.4763 18.605 0
852 1 12.1823 1.95837 0
853 1 42.3569 61.5863 0
854 1 37.7708 69.7143 0
855 1 39.5432 25.632 0
856 2 18.7248 41.9913 0
857 1 57.8302 34.028 0
858 2 34.4983 28.801 0
859 1 13.1358 64.7269 0
860 2 2.07114 58.4353 0
861 2 60.1937 40.0452 0
862 2 3.03598 69.3039 0
863 1 59.0951 23.9246 0
864 1 60.2337 53.8319 0
865 2 66.1145 68.0652 0
866 1 60.5811 17.0839 0
867 2 31.5319 21.7826 0
868 1 37.1298 61.9596 0
869 1 62.2194 20.105 0
870 1 0.0797229 52.7679 0
871 1 62.7887 26.135 0
872 1 42.3097 50.7297 0
873 1 50.6936 62.6194 0
874 1 4.03239 71.6652 0
875 1 34.1755 57.7471 0
876 2 51.633 7.94998 0
877 1 13.4085 55.4449 0
878 2 14.8066 16.0906 0
879 1 76.515 14.0917 0
880 2 31.7528 33.6445 0
881 2 51.9043 29.3076 0
882 2 47.8334 73.5991 0
883 1 25.6432 20.0604 0
884 1 56.0072 36.5354 0
885 1 38.9107 5.15666 0
886 1 36.9467 60.1669 0
887 2 54.7038 50.2343 0
888 1 0.451708 76.5688 0
889 2 59.1574 49.738 0
890 2 7.74234 25.2198 0
891 1 38.2119 10.4974 0
892 1 40.1441 67.6851 0
893 1 30 53.5724 0
894 1 76.9686 15.0475 0
895 2 32.3953 53.0565 0
896 1 37.5612 2.63388 0
897 2 35.7989 17.0763 0
898 1 31.0341 43.5641 0
899 1 2.10755 75.7406 0
900 2 38.6136 0.330077 0
901 1 52.3193 41.3089 0
902 1 24.2612 75.2491 0
903 1 37.9404 40.5098 0
904 2 0.271009 37.7288 0
905 1 63.6769 62.1282 0
906 1 68.9072 44.7069 0
907 1 3.8289 29.9123 0
908 1 50.8892 23.8298 0
909 1 0.391954 48.6648 0
910 2 1.90841 50.7473 0
911 2 4.64213 4.76234 0
912 2 36.2159 32.747 0
913 2 31.8535 51.6233 0
914 1 18.3627 12.9597 0
915 2 64.6537 5.39169 0
916 1 3.55748 39.9014 0
917 2 4.94442 33.5039 0
918 2 19.5465 35.3839 0
919 1 8.16642 57.8088 0
920 1 15.8898 47.7266 0
921 1 0.0473145 26.6672 0
922 2 50.8256 18.9886 0
923 2 12.2648 24.2924 0
924 1 39.3677 17.5154 0
925 1 66.2745 47.3796 0
926 2 35.4544 35.2654 0
927 1 68.8697 0.0419767 0
928 1 51.9774 58.9275 0
929 2 52.1547 32.0634 0
930 2 20.057 15.8466 0
931 1 40.7925 47.5513 0
932 1 70.4018 39.1436 0
933 1 34.3602 21.7902 0
934 1 1.87463 60.2599 0
935 1 11.3791 50.5934 0
936 2 42.2115 4.77605 0
937 1 14.3241 73.0211 0
938 1 36.7068 67.7347 0
939 2 50.3288 51.2941 0
940 1 75.9614 46.7917 0
941 1 77.2184 17.6455 0
942 1 38.0525 29.6438 0
943 2 22.3244 16.7806 0
944 2 2.10312 41.9632 0
945 1 40.592 25.314 0
946 1 64.4983 67.2176 0
947 2 25.0666 2.03425 0
948 1 39.3971 68.4785 0
949 1 26.9462 11.7399 0
950 2 5.12022 9.90709 0
951 1 69.0508 65.5993 0
952 2 52.7078 2.70928 0
953 2 7.91473 44.8224 0
954 2 29.9244 62.5562 0
955 1 27.2127 38.3293 0
956 2 58.9606 10.9482 0
957 1 48.4511 23.6826 0
958 2 19.398 2.86231 0
959 2 73.4083 25.083 0
960 2 29.139 66.9215 0
961 1 49.46 52.0222 0
962 1 24.343 1.61531 0
963 1 16.3047 12.5693 0
964 2 8.72283 9.60862 0
965 2 53.7241 53.7719 0
966 1 0.66774 62.7515 0
967 1 49.8693 35.5534 0
968 1 18.2319 0.0722102 0
969 1 58.1129 23.5071 0
970 2 22.5335 4.67346 0
971 1 21.328 14.5822 0
972 1 6.83788 25.0283 0
973 1 1.00976 36.0047 0
974 2 1.14459 35.1384 0
975 2 73.0113 65.4139 0
976 2 34.6616 19.8194 0
977 1 35.9457 63.2871 0
978 2 3.13525 77.1442 0
979 2 36.0182 65.8032 0
980 1 72.8627 14.3222 0
981 1 73.6907 57.9068 0
982 1 7.76143 54.8424 0
983 1 18.3566 24.728 0
984 1 9.26913 57.9788 0
985 1 34.6814 11.1476 0
986 1 37.8859 52.5723 0
987 2 18.048 12.1471 0
988 2 42.2032 34.8182 0
989 2 10.0009 34.7199 0
990 2 69.7691 51.586 0
991 2 46.2321 14.8104 0
992 1 62.5034 34.6701 0
993 2 29.1007 5.64795 0
994 2 1.95165 54.8746 0
995 1 38.854 22.1879 0
996 2 54.6753 56.9769 0
997 2 43.4884 30.7867 0
998 2 60.3757 75.0215 0
999 2 39.4037 26.4746 0
1000 2 0.488061 49.5309 0
1001 1 41.8079 65.6076 0
1002 1 23.4254 34.3733 0
1003 1 9.55087 54.3363 0
1004 1 7.53092 22.435 0
1005 2 10.7731 23.6078 0
1006 2 67.8362 60.9478 0
1007 1 18.861 20.4674 0
1008 1 47.865 16.9469 0
1009 1 31.2144 32.9888 0
1010 1 11.6089 43.4178 0
1011 2 10.5102 22.2872 0
1012 2 2.23006 23.2782 0
1013 2 65.0047 55.9686 0
1014 1 74.0701 15.4494 0
1015 1 76.0594 9.44586 0
1016 1 37.1145 48.028 0
1017 2 68.6839 54.3006 0
1018 1 26.0695 24.9588 0
1019 1 44.3638 28.9709 0
1020 2 32.3976 6.35473 0
1021 2 15.8814 24.6011 0
1022 1 4.76806 60.9324 0
1023 1 41.0727 9.46491 0
1024 1 9.349 67.7312 0
1025 1 36.9506 65.829 0
1026 1 8.17267 40.1814 0
1027 1 47.4366 2.47833 0
1028 1 2.01666 32.9634 0
1029 1 49.0857 18.1981 0
1030 2 46.749 47.8749 0
1031 2 37.5611 36.9913 0
1032 1 16.4526 73.1123 0
1033 1 57.6158 19.1255 0
1034 1 35.3737 29.1214 0
1035 1 65.8309 28.4246 0
1036 2 73.6774 45.9258 0
1037 1 31.265 73.0805 0
1038 1 68.5854 60.5311 0
1039 1 5.49718 31.9744 0
1040 2 64.9681 34.2996 0
1041 1 35.3665 65.2215 0
1042 2 62.7513 68.1794 0
1043 2 60.6632 58.2671 0
1044 1 67.6305 23.4142 0
1045 1 66.6161 23.3316 0
1046 1 41.1495 68.1698 0
1047 2 9.895 47.6957 0
1048 1 53.4632 0.034442 0
1049 1 59.8301 49.1346 0
1050 2 45.4763 6.4285 0
1051 1 43.5195 31.7604 0
1052 1 66.1816 44.582 0
1053 2 32.6025 18.4363 0
1054 1 55.1632 7.10398 0
1055 2 32.8307 46.6107 0
1056 2 14.6965 45.203 0
1057 1 12.0435 71.6408 0
1058 1 27.3602 5.7914 0
1059 1 9.28378 75.242 0
1060 2 21.9858 42.0568 0
1061 1 10.0944 23.0881 0
1062 2 17.0168 41.4245 0
1063 1 77.4551 67.8129 0
1064 1 23.3245 5.18349 0
1065 2 29.6633 52.7588 0
1066 1 37.3253 46.1916 0
1067 1 13.9699 10.4573 0
1068 2 35.4482 67.1964 0
1069 1 67.8808 24.4523 0
1070 2 8.18102 34.4454 0
1071 2 49.4958 42.6294 0
1072 2 9.45931 48.7675 0
1073 2 16.3045 3.59677 0
1074 2 33.7858 45.0595 0
1075 1 75.9791 49.6735 0
1076 1 41.1928 7.70833 0
1077 1 41.7209 32.6255 0
1078 2 71.5923 26.356 0
1079 2 39.0481 10.8732 0
1080 2 30.0379 72.8714 0
1081 2 45.8753 48.9255 0
1082 2 6.30521 27.4916 0
1083 2 21.5686 20.0903 0
1084 1 44.2012 57.5608 0
1085 1 19.3153 52.2849 0
1086 1 70.1432 66.998 0
1087 1 29.5718 72.0509 0
1088 1 44.6542 62.9874 0
1089 2 8.46518 31.6027 0
1090 1 42.9809 34.4336 0
1091 2 27.7494 17.7627 0
1092 1 63.0589 53.6107 0
1093 1 69.1697 32.9783 0
1094 2 43.4775 55.0524 0
1095 1 25.3727 71.1186 0
1096 2 48.2953 18.5867 0
1097 1 76.1689 17.7637 0
1098 1 62.6172 43.8034 0
1099 1 30.999 5.01093 0
1100 1 68.2891 1.85163 0
1101 1 74.9671 11.9201 0
1102 1 26.0818 74.7956 0
1103 1 51.3261 71.0775 0
1104 1 46.9203 58.0409 0
1105 1 48.1925 40.0491 0
1106 1 16.5175 71.3115 0
1107 2 45.161 62.2197 0
1108 1 55.6063 31.1358 0
1109 1 72.5555 24.8668 0
1110 2 14.8433 11.9053 0
1111 1 2.70181 56.9054 0
1112 1 76.1829 18.7775 0
1113 2 75.4455 7.73841 0
1114 2 14.2406 53.4611 0
1115 2 32.9957 49.4887 0
1116 1 77.2587 64.6186 0
1117 1 66.7841 56.5038 0
1118 1 12.405 75.4472 0
1119 2 11.2279 64.1855 0
1120 1 41.284 57.9862 0
1121 2 21.1836 64.2341 0
1122 1 32.0807 32.4261 0
1123 2 22.9488 51.8493 0
1124 1 52.7087 61.9432 0
1125 2 14.7097 4.46565 0
1126 2 15.5499 20.2002 0
1127 1 74.4494 24.2173 0
1128 1 67.1716 52.1725 0
1129 1 60.8684 39.5416 0
1130 1 30.6121 47.2627 0
1131 1 62.6327 15.303 0
1132 2 75.8103 63.6009 0
1133 2 56.1406 22.3685 0
1134 2 20.8751 72.1727 0
1135 1 0.811406 68.5053 0
1136 2 51.1949 26.8097 0
1137 1 51.0337 61.3775 0
1138 1 30.4232 13.6532 0
1139 2 57.6643 52.9578 0
1140 2 9.01453 22.866 0
1141 1 74.992 65.6276 0
1142 1 26.9022 52.2653 0
1143 1 48.1949 44.7128 0
1144 2 61.0372 16.321 0
1145 1 38.0171 62.6139 0
1146 1 15.6098 18.905 0
1147 1 28.3214 25.6824 0
1148 1 10.8808 36.741 0
1149 1 57.5151 29.233 0
1150 2 65.3742 61.2334 0
1151 1 22.0258 3.97645 0
1152 1 59.7347 52.0351 0
1153 1 71.7223 29.6321 0
1154 1 13.8608 4.74887 0
1155 2 60.1088 20.3004 0
1156 1 44.5221 32.1578 0
1157 1 12.4069 18.1778 0
1158 2 58.2498 47.869 0
1159 2 5.64689 70.5331 0
1160 1 32.9321 7.80949 0
1161 2 43.8665 56.5983 0
1162 1 15.9202 10.0699 0
1163 2 13.4411 73.0144 0
1164 1 23.9869 58.6788 0
1165 1 20.8468 45.4493 0
1166 2 15.0671 50.5416 0
1167 1 28.0197 20.2432 0
1168 1 56.4234 64.6256 0
1169 1 19.6252 66.7698 0
1170 2 6.42242 33.6839 0
1171 1 48.5104 33.8679 0
1172 1 22.8792 6.88737 0
1173 1 51.7562 63.9545 0
1174 1 38.9976 29.0964 0
1175 2 62.5225 44.7149 0
1176 1 68.2889 36.6232 0
1177 1 48.4786 70.0853 0
1178 2 61.1382 47.719 0
1179 1 72.4958 32.7093 0
1180 1 52.0404 17.9107 0
1181 1 54.4639 22.9536 0
1182 1 60.9092 74.3204 0
1183 2 43.0657 73.4624 0
1184 2 28.1926 21.9708 0
1185 1 17.5255 63.2536 0
1186 1 48.8302 49.4728 0
1187 1 73.9961 72.2628 0
1188 2 4.9463 37.7474 0
1189 1 60.7256 65.3061 0
1190 1 28.2997 51.4026 0
1191 2 72.2672 4.86143 0
1192 1 24.7026 46.9719 0
1193 1 47.6472 18.0204 0
1194 2 16.7169 16.1498 0
1195 1 74.2681 48.8778 0
1196 1 21.8345 49.6326 0
1197 1 35.5754 38.8694 0
1198 1 62.5021 76.3614 0
1199 2 57.7665 62.4554 0
1200 1 26.8816 8.9517 0
1201 1 2.95955 73.2318 0
1202 1 5.87674 49.0036 0
1203 2 47.5366 12.3922 0
1204 1 57.4377 56.6022 0
1205 1 66.6312 50.3418 0
1206 1 52.2257 5.06398 0
1207 1 31.7924 62.7646 0
1208 1 75.2909 58.0135 0
1209 2 65.2721 59.724 0
1210 1 69.74 32.0453 0
1211 2 24.7913 35.4079 0
1212 1 33.7641 36.1902 0
1213 1 61.1545 68.8566 0
1214 1 61.6453 23.657 0
1215 1 11.7364 72.65 0
1216 1 11.2468 49.4544 0
1217 2 67.4037 2.27791 0
1218 2 61.4785 20.9959 0
1219 1 30.2955 15.4016 0
1220 1 61.9041 18.0494 0
1221 1 61.6453 54.9509 0
1222 2 66.3552 74.3129 0
1223 1 42.2502 47.9777 0
1224 1 0.744267 34.2775 0
1225 1 2.84661 25.7605 0
1226 2 65.791 64.9573 0
1227 1 41.4552 56.9776 0
1228 1 76.2447 70.6876 0
1229 2 48.0412 9.33658 0
1230 1 25.6697 49.8219 0
1231 2 53.0532 18.0504 0
1232 1 67.758 38.2352 0
1233 1 38.4353 58.6297 0
1234 1 1.70289 67.9442 0
1235 1 18.1307 46.1468 0
1236 1 52.3706 63.0461 0
1237 1 37.9784 20.6985 0
1238 1 24.6983 7.23757 0
1239 1 12.9548 22.6792 0
1240 1 24.423 62.9847 0