ITEM: TIMESTEP
0
ITEM: NUMBER OF ATOMS
7200
ITEM: BOX BOUNDS xy xz yz pp pp pp
0.0000000000000000e+00 7.7459666924100006e+01 0.0000000000000000e+00
0.0000000000000000e+00 7.7459666924100006e+01 0.0000000000000000e+00
-1.2909944490000000e-01 1.2909944490000000e-01 0.0000000000000000e+00
ITEM: ATOMS id type x y z
1 1 12.1208 20.1698 0
2 1 14.8217 64.0522 0
3 1 75.1221 71.2674 0
4 1 20.3954 8.0776 0
5 1 34.4912 55.9987 0
6 1 56.6881 28.6102 0
7 2 5.48039 3.36429 0
8 2 64.8977 46.3357 0
9 1 42.2266 56.1159 0
10 2 19.1062 14.6497 0
11 2 25.3941 53.2646 0
12 1 55.2794 11.5454 0
13 2 23.157 6.00021 0
14 1 46.4987 70.5858 0
15 1 39.5012 31.2964 0
16 1 18.2251 14.953 0
17 1 31.3569 40.0645 0
18 1 33.774 5.73439 0
19 1 27.0237 57.8177 0
20 2 44.8086 3.64711 0
21 1 12.2638 65.9865 0
22 1 54.4495 10.8427 0
23 1 75.6722 45.6929 0
24 1 55.9051 66.3285 0
25 1 6.62099 70.9938 0
26 1 21.1091 67.6587 0
27 2 28.9833 63.7929 0
28 1 51.2303 74.2313 0
29 2 22.5317 47.9513 0
30 2 25.3789 32.1373 0
31 1 15.1992 53.3665 0
32 1 51.0949 38.0167 0
33 1 60.9407 48.4681 0
34 2 45.2829 9.61528 0
35 1 75.2711 63.1463 0
36 1 30.5713 60.0072 0
37 1 22.2542 61.5438 0
38 1 45.8478 19.8244 0
39 1 22.3089 5.71039 0
40 2 24.7949 59.1194 0
41 2 18.5064 64.6413 0
42 1 20.9867 1.17543 0
43 1 18.8816 33.5664 0
44 1 34.2873 62.731 0
45 1 3.41025 34.5457 0
46 1 68.199 7.60213 0
47 1 73.5287 59.1283 0
48 1 44.165 68.333 0
49 2 77.3473 4.11947 0
50 1 31.0531 66.6558 0
51 1 1.40381 9.95826 0
52 2 33.111 24.1082 0
53 1 53.5484 18.6375 0
54 1 49.6513 30.2719 0
55 1 9.63858 1.0125 0
56 1 45.8996 26.0525 0
57 1 67.5444 42.965 0
58 1 69.737 69.1805 0
59 1 34.2017 2.09657 0
60 1 28.5946 3.48724 0
61 1 40.4734 75.9212 0
62 1 52.1712 44.9528 0
63 1 57.2721 9.80541 0
64 1 50.6592 45.6542 0
65 1 66.8247 73.7507 0
66 2 56.1359 11.455 0
67 2 40.7777 35.9392 0
68 2 0.842473 29.097 0
69 1 62.1044 45.4273 0
70 1 8.45255 35.5566 0
71 2 7.48515 42.3381 0
72 1 76.9307 3.32846 0
73 1 6.24276 64.2017 0
74 2 41.5786 22.7863 0
75 1 75.4337 53.233 0
76 1 19.662 46.9076 0
77 1 24.9574 74.5214 0
78 1 3.62331 15.547 0
79 1 12.5306 73.4664 0
80 1 43.5253 16.6167 0
81 1 54.9704 62.2346 0
82 2 44.4017 16.6705 0
83 1 5.7533 32.9146 0
84 1 33.0162 45.744 0
85 1 34.546 20.7854 0
86 2 34.6148 64.601 0
87 1 71.5229 34.6957 0
88 1 18.4158 54.7618 0
89 1 27.7331 13.0037 0
90 1 37.4791 37.9834 0
91 2 45.759 41.0861 0
92 2 41.3345 55.9927 0
93 1 27.821 16.9085 0
94 1 33.4562 55.6757 0
95 2 39.1879 56.6539 0
96 1 65.1367 1.37152 0
97 1 44.2072 49.0362 0
98 2 2.78753 60.0232 0
99 1 61.9715 48.1778 0
100 2 32.5205 30.8557 0
101 1 47.7107 54.4282 0
102 1 56.0273 21.582 0
103 1 56.4924 70.4187 0
104 1 2.69801 60.8914 0
105 2 40.0846 3.02788 0
106 2 30.4113 34.8788 0
107 1 13.2016 31.4579 0
108 1 0.789985 0.80548 0
109 1 35.6596 41.6052 0
110 2 65.1727 25.4626 0
111 1 66.0223 12.0317 0
112 1 34.2183 72.7955 0
113 2 0.288412 60.3371 0
114 2 74.5121 29.4697 0
115 2 30.3344 12.7845 0
116 2 74.559 53.6002 0
117 1 16.2047 45.9228 0
118 2 46.8515 26.4941 0
119 1 62.5694 0.0763864 0
120 2 6.00378 49.8372 0
121 1 6.32773 3.55489 0
122 1 19.6538 32.8907 0
123 2 5.36683 17.7541 0
124 1 46.469 57.3439 0
125 1 31.6835 27.2609 0
126 1 58.086 52.0655 0
127 1 4.4306 58.9805 0
128 1 14.4151 23.5022 0
129 1 16.4581 52.2006 0
130 1 7.23129 2.10861 0
131 1 59.0971 24.9813 0
132 2 31.1626 41.9474 0
133 2 52.6213 6.90239 0
134 1 65.7994 50.951 0
135 1 31.609 30.4708 0
136 2 55.2877 46.3935 0
137 1 61.76 56.6317 0
138 2 70.5482 48.0043 0
139 1 68.3846 27.2662 0
140 1 3.5707 21.8677 0
141 2 48.1531 63.5375 0
142 1 6.61864 22.6769 0
143 2 40.4718 70.0607 0
144 2 47.1622 75.3376 0
145 2 18.2869 52.9418 0
146 1 54.7586 4.0545 0
147 1 9.42446 38.9946 0
148 1 46.4024 53.3351 0
149 2 67.9777 49.1815 0
150 1 32.7499 56.5925 0
151 2 29.5239 13.8681 0
152 1 48.9411 63.1719 0
153 2 17.3691 46.3788 0
154 2 31.4853 72.2201 0
155 1 70.5282 48.9317 0
156 1 43.4984 10.3411 0
157 1 49.1972 71.0625 0
158 1 60.0946 69.2086 0
159 2 10.5869 26.2049 0
160 1 38.2489 17.4931 0
161 1 7.21389 63.6072 0
162 2 72.6672 24.0025 0
163 1 30.6058 27.1452 0
164 1 60.254 29.4641 0
165 1 75.5622 27.8052 0
166 1 1.972 44.8134 0
167 1 39.2337 0.856396 0
168 1 38.4433 72.7831 0
169 1 56.7541 30.9715 0
170 1 57.2885 0.931189 0
171 2 36.8334 61.0762 0
172 2 33.6893 53.7801 0
173 2 43.7894 24.4181 0
174 2 27.5376 56.0449 0
175 2 30.9916 26.322 0
176 1 46.2412 16.333 0
177 1 19.6692 58.6579 0
178 1 61.851 61.2998 0
179 1 64.5823 24.834 0
180 2 33.2345 39.5776 0
181 1 45.2604 27.6582 0
182 1 61.7466 58.5117 0
183 2 12.0913 37.4193 0
184 1 5.18058 67.4124 0
185 2 67.2418 29.45 0
186 1 59.144 34.9867 0
187 1 39.5003 46.4329 0
188 1 57.4291 47.6389 0
189 2 63.7966 53.0312 0
190 1 23.1701 4.10301 0
191 1 71.8038 8.13396 0
192 1 65.4845 10.3538 0
193 2 10.9005 41.5971 0
194 2 68.6431 69.0631 0
195 1 11.1477 3.29892 0
196 2 49.6255 54.9448 0
197 2 20.273 9.95947 0
198 1 13.4233 61.2844 0
199 2 75.7535 66.3196 0
200 1 60.0068 27.7329 0
201 2 34.6215 1.28071 0
202 2 74.5221 55.1445 0
203 1 52.316 65.625 0
204 1 29.5154 3.88183 0
205 1 56.0816 26.0219 0
206 2 35.7608 37.0262 0
207 2 14.0291 9.54811 0
208 1 33.82 14.0352 0
209 1 12.1859 11.569 0
210 2 5.44895 20.5096 0
211 1 17.1792 8.22211 0
212 2 24.7444 6.18021 0
213 2 56.0328 28.0141 0
214 1 71.0573 57.8467 0
215 2 66.9967 22.484 0
216 1 20.6526 73.6416 0
217 1 59.6109 34.0543 0
218 2 54.8024 58.5533 0
219 2 68.1413 42.2612 0
220 2 43.1184 64.0391 0
221 1 19.0038 45.3175 0
222 1 44.984 12.391 0
223 2 39.0217 67.6698 0
224 2 27.7223 68.7103 0
225 1 32.361 23.6482 0
226 2 66.4819 57.244 0
227 2 6.03586 16.3775 0
228 1 34.5347 9.31207 0
229 1 71.0245 26.7059 0
230 1 32.1963 74.5284 0
231 1 10.8311 34.379 0
232 1 42.0864 12.929 0
233 1 34.9324 7.59207 0
234 1 76.073 8.23268 0
235 1 60.7582 59.0867 0
236 2 44.7511 70.2914 0
237 1 77.2079 62.2386 0
238 2 9.37331 21.5053 0
239 1 58.3611 2.75796 0
240 2 61.7344 46.2532 0
241 1 47.3887 66.6391 0
242 1 18.6414 30.6514 0
243 1 7.22915 56.3559 0
244 1 61.1743 64.3062 0
245 1 11.0736 30.8932 0
246 1 2.06684 35.571 0
247 1 65.6369 49.9256 0
248 1 12.2988 0.849735 0
249 2 50.2937 41.1368 0
250 1 29.0431 9.35565 0
251 2 57.7113 50.122 0
252 2 65.7595 23.2935 0
253 1 19.8532 17.5883 0
254 1 54.4484 25.0147 0
255 1 65.5895 42.7743 0
256 1 31.4355 8.54922 0
257 1 22.1941 57.9193 0
258 1 26.1723 38.7523 0
259 1 55.6503 56.7549 0
260 2 44.095 53.7366 0
261 2 26.4234 62.624 0
262 1 24.4462 33.8453 0
263 2 12.7628 34.7032 0
264 2 71.4685 59.9542 0
265 1 77.0599 46.6873 0
266 1 38.0975 44.7305 0
267 2 61.6272 24.5845 0
268 2 56.8234 45.885 0
269 1 48.0694 20.9716 0
270 2 9.1591 47.1083 0
271 2 22.7005 33.7647 0
272 2 20.4453 14.196 0
273 1 14.9404 65.137 0
274 1 32.2444 50.0375 0
275 1 8.65803 49.0109 0
276 1 75.3508 10.1167 0
277 2 15.5508 71.3909 0
278 1 7.64411 17.503 0
279 1 4.56703 44.423 0
280 1 20.4467 35.6046 0
281 1 30.6932 38.5026 0
282 2 75.8964 26.4485 0
283 1 76.3746 55.6611 0
284 2 54.3192 38.255 0
285 1 70.969 52.7931 0
286 1 11.3061 63.4476 0
287 1 19.0637 76.8544 0
288 2 75.8536 3.7545 0
289 2 21.4095 39.1959 0
290 2 69.0154 76.4743 0
291 1 35.2334 22.5607 0
292 1 27.7596 58.5991 0
293 1 47.3713 18.9684 0
294 1 40.3255 2.18229 0
295 1 69.7097 2.96498 0
296 2 74.1307 8.34853 0
297 1 40.2908 59.8466 0
298 1 72.5004 35.1307 0
299 2 49.2854 36.6857 0
300 1 39.1896 43.7494 0
301 1 73.4985 19.666 0
302 1 50.9497 35.1698 0
303 1 20.7517 32.313 0
304 1 60.4466 72.3353 0
305 2 59.0536 75.8427 0
306 1 63.0702 52.5206 0
307 2 73.4111 38.7288 0
308 1 41.5884 5.25509 0
309 2 25.0102 16.93 0
310 2 13.4287 12.948 0
311 1 29.3357 49.6114 0
312 1 67.4181 61.5957 0
313 1 74.6202 76.0789 0
314 1 40.5937 46.0337 0
315 2 56.4807 31.8349 0
316 2 39.5806 63.447 0
317 1 50.9033 20.5932 0
318 2 7.05588 31.314 0
319 1 30.9504 25.3919 0
320 1 36.1018 61.608 0
321 1 58.5649 68.3834 0
322 2 74.0764 11.7479 0
323 2 25.037 63.501 0
324 1 64.4687 41.3785 0
325 1 41.2298 6.24414 0
326 1 9.70966 58.9301 0
327 1 48.7319 54.7311 0
328 1 0.778743 37.1096 0
329 1 41.6999 42.7035 0
330 2 51.7703 34.8358 0
331 2 69.893 3.83549 0
332 1 59.5072 28.7202 0
333 1 36.9719 12.2742 0
334 1 17.0583 34.8454 0
335 1 20.6355 38.729 0
336 2 72.0357 74.4777 0
337 1 34.7346 33.7442 0
338 2 17.0918 1.57775 0
339 1 42.518 68.5108 0
340 1 18.8276 58.0016 0
341 2 74.0736 44.1991 0
342 1 66.9738 5.90047 0
343 2 56.4318 49.7227 0
344 2 22.9406 66.1147 0
345 1 8.03657 27.7629 0
346 1 17.3812 71.794 0
347 1 35.3634 56.5197 0
348 1 56.4134 18.8426 0
349 1 33.6303 20.1488 0
350 1 37.1895 31.1086 0
351 1 17.9726 53.762 0
352 1 47.8061 30.7561 0
353 1 75.3759 25.724 0
354 2 22.5825 26.3119 0
355 2 43.4753 18.2949 0
356 2 11.8751 2.79375 0
357 1 68.4825 67.4881 0
358 1 24.2172 3.79245 0
359 1 22.3609 14.545 0
360 2 45.1964 31.4185 0
361 2 48.0822 67.1962 0
362 1 27.0244 74.6149 0
363 2 37.9515 73.4734 0
364 1 13.1507 66.5153 0
365 2 9.08508 57.1561 0
366 1 24.8237 50.6434 0
367 2 19.7432 23.4952 0
368 2 51.4376 54.9171 0
369 2 65.1529 70.4882 0
370 1 3.44554 28.3289 0
371 1 46.0082 73.4991 0
372 2 40.4233 9.93266 0
373 1 10.4873 31.863 0
374 2 66.7015 41.2779 0
375 1 52.3458 52.7379 0
376 2 75.5441 43.2085 0
377 2 58.1927 38.1233 0
378 1 20.5252 63.7322 0
379 1 13.8885 20.2759 0
380 1 9.75699 62.5101 0
381 1 26.6246 23.3203 0
382 1 30.7113 23.7181 0
383 1 9.59461 11.8285 0
384 1 34.9014 51.7152 0
385 1 28.3821 77.1143 0
386 1 54.9656 40.3238 0
387 1 59.4595 76.6192 0
388 2 56.0014 57.8201 0
389 1 24.517 56.7087 0
390 1 29.4983 13.0107 0
391 2 59.9525 26.8363 0
392 2 30.0613 10.1699 0
393 2 38.8117 64.9925 0
394 1 10.1824 73.7635 0
395 1 53.1941 21.8812 0
396 1 13.6455 70.5709 0
397 1 46.8421 17.2115 0
398 1 45.4579 70.7662 0
399 1 70.0203 18.0306 0
400 1 59.7716 74.1131 0
401 1 44.568 11.4455 0
402 2 56.5923 16.9661 0
403 1 38.2985 51.5433 0
404 1 69.2926 70.8896 0
405 2 73.7573 76.2659 0
406 1 34.2248 19.1205 0
407 2 45.718 21.7424 0
408 1 63.5829 30.3864 0
409 1 18.6053 61.3461 0
410 2 67.4085 16.6565 0
411 2 66.607 36.4979 0
412 1 58.9135 38.6189 0
413 1 7.04866 36.5706 0
414 1 71.3857 48.2707 0
415 1 7.12778 41.6139 0
416 2 73.7475 62.3607 0
417 2 75.1461 12.6072 0
418 1 54.3568 30.02 0
419 2 56.7257 47.1083 0
420 2 24.8937 55.9371 0
421 1 60.2107 19.4046 0
422 1 2.06579 71.3866 0
423 1 4.2304 12.0205 0
424 1 60.7691 26.9937 0
425 1 58.8702 50.407 0
426 1 56.0193 73.7505 0
427 2 39.5095 14.852 0
428 1 51.64 50.1875 0
429 1 59.0168 70.9989 0
430 1 36.619 37.11 0
431 1 0.029214 29.4913 0
432 1 63.5971 49.0867 0
433 1 29.178 69.5204 0
434 1 1.98124 42.9438 0
435 1 64.1125 34.1451 0
436 2 68.1135 38.9582 0
437 2 43.7796 59.3889 0
438 1 38.9453 61.6693 0
439 2 41.2961 12.5646 0
440 1 43.3508 43.6811 0
441 2 66.7029 15.0814 0
442 1 9.66526 37.9559 0
443 1 54.5634 16.8364 0
444 1 16.6522 75.4233 0
445 2 69.4213 67.4956 0
446 1 61.7182 42.1345 0
447 1 26.9845 70.8314 0
448 1 46.9922 37.7186 0
449 1 37.0613 73.2164 0
450 2 48.0604 59.7919 0
451 2 6.48231 61.764 0
452 1 66.6779 11.2214 0
453 1 28.6396 76.0529 0
454 2 62.7258 29.9483 0
455 2 26.4877 67.89 0
456 1 11.4203 44.5958 0
457 2 18.5491 1.87658 0
458 1 38.0511 77.0261 0
459 2 15.5638 56.7676 0
460 1 5.48087 4.24769 0
461 2 27.2504 27.0903 0
462 1 45.7542 24.3238 0
463 1 75.8727 69.7965 0
464 1 9.03969 48.0195 0
465 2 40.669 45.1546 0
466 1 21.7912 12.8468 0
467 2 11.5757 1.41187 0
468 1 19.4209 36.2481 0
469 1 1.93165 2.15542 0
470 1 61.8249 10.5304 0
471 2 73.9907 40.8611 0
472 1 25.5708 43.1362 0
473 1 61.6379 65.8206 0
474 1 33.5055 54.635 0
475 1 22.5161 59.8247 0
476 2 38.9971 32.081 0
477 1 60.5239 11.5648 0
478 2 33.0942 74.4932 0
479 1 33.41 22.2681 0
480 1 19.9047 25.7695 0
481 1 7.18939 18.5602 0
482 1 10.9621 25.3981 0
483 2 1.11696 1.64859 0
484 1 14.4643 38.4093 0
485 1 21.296 57.2538 0
486 1 7.17105 4.67312 0
487 2 70.8296 10.235 0
488 1 58.6386 5.71699 0
489 1 52.3822 15.193 0
490 1 35.4917 31.1597 0
491 1 30.565 42.5793 0
492 2 61.2176 9.8112 0
493 1 73.3662 8.80678 0
494 1 67.6487 31.9992 0
495 2 22.4919 49.2529 0
496 2 52.7188 42.2862 0
497 2 40.7335 6.94457 0
498 1 23.5994 25.9093 0
499 1 35.7735 74.4321 0
500 1 2.77525 4.08556 0
501 2 45.4536 43.4486 0
502 1 16.813 24.8667 0
503 1 50.2699 9.80474 0
504 1 37.0546 32.7119 0
505 2 26.4752 76.8722 0
506 2 17.532 65.2576 0
507 1 42.1018 37.39 0
508 1 12.952 32.8343 0
509 1 28.9298 24.859 0
510 1 7.06223 38.7446 0
511 1 69.288 26.6974 0
512 1 54.6 53.3001 0
513 1 11.9622 34.3136 0
514 1 25.3837 64.3199 0
515 2 61.371 11.2849 0
516 2 11.4491 38.6768 0
517 2 74.4016 74.4717 0
518 2 19.1144 54.2337 0
519 2 33.2457 1.83947 0
520 1 74.5059 37.105 0
521 1 42.0756 24.4557 0
522 2 24.3816 66.1586 0
523 1 77.2281 12.1828 0
524 1 70.4753 34.6009 0
525 1 22.8063 0.0506464 0
526 2 76.4736 22.261 0
527 1 49.4726 26.1203 0
528 2 74.7126 5.04086 0
529 2 35.1804 45.1093 0
530 1 7.84895 59.5676 0
531 2 76.3313 69.0634 0
532 2 32.1619 60.8484 0
533 1 73.0891 5.55 0
534 1 34.5534 27.1246 0
535 1 29.0668 19.3082 0
536 1 32.6039 65.7955 0
537 1 35.0116 47.838 0
538 2 16.4326 21.6542 0
539 2 46.039 76.8041 0
540 1 60.8698 40.6721 0
541 2 24.8895 8.01157 0
542 1 51.2827 56.7861 0
543 2 69.5594 55.5444 0
544 2 52.0324 10.4741 0
545 1 28.2796 22.8701 0
546 1 34.2481 3.21077 0
547 1 10.1949 14.3617 0
548 2 23.5819 3.19892 0
549 2 65.437 21.8709 0
550 2 5.25129 39.4314 0
551 1 30.422 8.31269 0
552 2 70.6087 40.2737 0
553 2 29.4659 44.9251 0
554 1 51.6924 62.2445 0
555 1 50.3662 57.2477 0
556 1 73.0197 68.1135 0
557 1 62.0615 53.9225 0
558 1 2.58085 68.5957 0
559 1 72.7016 36.2031 0
560 2 21.3985 61.5065 0
561 1 5.6526 0.613295 0
562 2 4.58519 11.0715 0
563 2 54.224 48.6889 0
564 1 70.1163 68.0864 0
565 2 21.8207 1.39263 0
566 2 18.1366 23.8546 0
567 1 48.8271 42.1616 0
568 2 22.8228 74.1499 0
569 2 15.7443 27.5696 0
570 1 73.1402 34.2125 0
571 1 0.52718 3.49352 0
572 2 6.68552 48.5803 0
573 2 0.0533003 44.8808 0
574 1 3.81522 69.0263 0
575 1 18.2888 7.74936 0
576 1 16.4199 63.1702 0
577 1 43.4096 50.3985 0
578 2 67.6952 34.1488 0
579 2 45.9005 69.0207 0
580 1 62.7379 42.5643 0
581 1 6.62493 60.7746 0
582 2 68.7101 59.6433 0
583 2 64.0686 58.6856 0
584 2 33.4419 65.5032 0
585 1 60.8978 77.3696 0
586 1 48.7362 58.6228 0
587 2 14.654 21.7678 0
588 1 49.4826 5.22255 0
589 2 53.7665 10.2818 0
590 1 24.6131 73.4748 0
591 1 56.0277 6.5159 0
592 1 48.4981 74.2571 0
593 1 44.0834 13.0365 0
594 1 59.8376 63.3186 0
595 1 72.2595 65.4584 0
596 2 7.16732 1.20743 0
597 1 3.55481 44.0829 0
598 1 69.0522 9.16037 0
599 1 2.71661 50.9973 0
600 1 0.202832 47.5638 0
601 2 42.1585 36.1274 0
602 1 62.1525 14.289 0
603 2 71.045 50.8669 0
604 2 62.2761 16.5249 0
605 1 52.3383 69.1966 0
606 1 41.6004 4.03227 0
607 1 76.3195 1.34329 0
608 2 1.37755 40.409 0
609 2 40.8145 0.443578 0
610 1 7.90685 49.7451 0
611 1 53.9239 58.7158 0
612 1 76.8377 6.13407 0
613 1 76.9803 23.1052 0
614 2 50.4096 28.4209 0
615 1 34.5841 38.7757 0
616 1 39.7692 16.0943 0
617 1 68.7697 2.48946 0
618 2 11.99 42.6764 0
619 2 55.2852 42.2805 0
620 2 70.7362 73.9961 0
621 2 58.598 35.712 0
622 1 60.1693 18.2496 0
623 1 37.4712 11.3373 0
624 2 20.4059 54.8665 0
625 1 27.0027 76.1819 0
626 1 73.7659 29.0017 0
627 2 2.32622 25.0641 0
628 1 28.734 58.1033 0
629 2 77.3807 25.5027 0
630 1 29.176 73.0727 0
631 1 56.9848 37.0789 0
632 1 21.5459 65.0935 0
633 2 25.4793 72.0086 0
634 1 18.8038 50.6877 0
635 2 41.453 43.701 0
636 2 37.0063 40.7578 0
637 1 11.2453 11.0599 0
638 1 67.3702 40.7748 0
639 1 70.4165 46.3171 0
640 1 0.271284 53.9247 0
641 1 36.4674 33.5901 0
642 1 9.74623 33.9218 0
643 1 50.2523 44.7191 0
644 2 19.4874 27.4177 0
645 1 56.9976 52.1778 0
646 1 46.3417 47.0353 0
647 2 23.6563 10.5476 0
648 1 64.2934 12.3987 0
649 2 10.7556 69.1806 0
650 2 47.1696 61.9039 0
651 1 46.1106 12.1227 0
652 1 29.5702 70.9577 0
653 2 13.6177 23.2419 0
654 2 10.3496 3.72829 0
655 1 5.59257 51.823 0
656 1 72.649 53.8443 0
657 1 33.7309 46.5005 0
658 1 71.6549 13.0467 0
659 2 0.872837 66.2206 0
660 1 26.8065 35.6462 0
661 1 37.2916 9.76745 0
662 1 32.7153 60.0688 0
663 1 10.7154 28.8138 0
664 1 58.3587 75.3051 0
665 2 49.242 76.9008 0
666 2 12.7251 58.2086 0
667 1 26.3172 73.7432 0
668 2 7.67614 76.215 0
669 1 4.25963 9.11401 0
670 2 44.0105 37.7374 0
671 2 37.3314 17.5004 0
672 1 9.97368 19.5703 0
673 1 6.92691 16.6749 0
674 1 32.6507 42.5937 0
675 2 4.88922 58.2044 0
676 2 38.0671 6.21109 0
677 1 41.4617 54.0533 0
678 1 53.8152 39.0461 0
679 1 46.6785 69.521 0
680 1 31.7258 53.6585 0
681 1 26.3337 54.084 0
682 1 62.4065 59.5616 0
683 1 18.0398 59.3548 0
684 1 64.3668 68.7985 0
685 2 35.9041 18.6367 0
686 1 50.3129 6.15563 0
687 1 41.6129 18.9702 0
688 2 53.4843 73.6143 0
689 1 72.0625 62.5111 0
690 1 65.9517 72.2443 0
691 1 41.8433 39.9652 0
692 2 59.9901 44.038 0
693 1 71.2406 77.0616 0
694 2 53.6732 64.277 0
695 1 42.2095 11.8813 0
696 2 35.624 47.1439 0
697 1 25.6311 13.3873 0
698 1 8.42209 3.48797 0
699 1 66.8272 14.0204 0
700 1 72.1864 46.8872 0
701 1 64.2716 31.2732 0
702 1 63.6216 65.2217 0
703 2 72.101 2.27123 0
704 2 8.21056 61.3454 0
705 2 4.9986 7.27562 0
706 1 52.3743 51.6616 0
707 2 59.7596 38.4545 0
708 1 50.3194 43.0457 0
709 1 51.612 73.2152 0
710 2 60.3635 28.6147 0
711 1 56.1034 54.0769 0
712 2 62.9174 32.6335 0
713 2 68.322 70.4664 0
714 2 0.59054 64.8368 0
715 1 45.274 18.9382 0
716 1 76.4022 29.8817 0
717 1 29.7814 63.4437 0
718 1 14.2323 3.74241 0
719 1 53.3335 36.8977 0
720 2 49.3144 38.5292 0
721 2 66.8651 39.805 0
722 1 49.1356 7.94271 0
723 2 39.9346 75.2425 0
724 2 10.3097 59.5648 0
725 1 50.8127 39.2727 0
726 1 8.31428 30.1462 0
727 2 12.9396 1.52592 0
728 1 67.5597 55.5949 0
729 2 21.642 59.7459 0
730 1 32.8651 27.4441 0
731 2 16.681 36.4507 0
732 1 16.371 54.3582 0
733 1 29.9255 29.5777 0
734 2 66.6288 46.3561 0
735 1 66.6376 67.2147 0
736 1 47.9293 49.3563 0
737 2 4.17779 45.8034 0
738 1 13.753 34.5217 0
739 1 18.2244 37.4928 0
740 1 48.6203 38.0202 0
741 2 57.2405 55.5801 0
742 1 59.0483 37.5476 0
743 1 27.1352 62.1251 0
744 2 72.8232 18.9603 0
745 1 23.0684 72.7881 0
746 1 35.1133 10.2675 0
747 1 47.5245 76.1334 0
748 2 43.0261 70.021 0
749 2 22.3308 24.4421 0
750 1 55.39 35.0531 0
751 1 57.7399 40.1286 0
752 2 2.4377 70.4371 0
753 1 53.1226 39.8122 0
754 2 21.7521 15.2562 0
755 1 23.9941 50.0204 0
756 2 49.3906 75.9391 0
757 1 48.3776 19.3668 0
758 1 6.0483 9.72301 0
759 1 61.8842 47.103 0
760 1 12.1812 10.5049 0
761 1 69.7901 71.775 0
762 1 15.225 57.5604 0
763 2 77.198 6.92111 0
764 1 75.0491 57.0064 0
765 2 47.0925 56.6947 0
766 1 63.2673 22.6971 0
767 1 13.7302 1.19176 0
768 1 65.2647 8.11095 0
769 1 61.8433 50.0026 0
770 2 60.3842 73.4616 0
771 1 18.9486 40.0017 0
772 1 44.9958 51.0337 0
773 1 40.7086 43.2501 0
774 2 32.6215 25.696 0
775 1 71.7076 30.5561 0
776 2 43.6539 42.8542 0
777 1 70.415 55.3391 0
778 2 10.3385 63.1542 0
779 1 45.2189 25.27 0
780 1 17.1087 6.28128 0
781 1 29.6232 35.2027 0
782 1 57.4673 64.8773 0
783 1 60.7127 35.5655 0
784 1 70.8731 49.9816 0
785 2 8.88615 11.2714 0
786 1 73.1227 70.1884 0
787 1 20.9831 66.5815 0
788 1 39.8121 54.8172 0
789 1 11.0336 4.34547 0
790 1 52.1111 70.3183 0
791 1 45.7789 13.188 0
792 1 8.6895 25.0838 0
793 1 25.2241 15.0214 0
794 2 71.3821 16.6612 0
795 2 75.6585 14.0986 0
796 2 75.585 67.949 0
797 1 44.492 65.3293 0
798 1 38.4823 19.0906 0
799 1 44.2635 76.4546 0
800 1 30.6076 70.5193 0
801 2 6.50783 25.9694 0
802 2 28.0371 45.6097 0
803 2 23.6457 77.185 0
804 2 52.5916 35.9762 0
805 1 23.7703 71.9939 0
806 1 53.014 70.8915 0
807 2 39.8598 50.3221 0
808 1 50.5173 47.1729 0
809 2 36.283 62.4447 0
810 1 58.3806 76.4863 0
811 1 28.6266 61.0629 0
812 2 59.7663 48.2446 0
813 2 46.2571 58.189 0
814 1 54.3618 31.1375 0
815 2 41.1045 16.9904 0
816 1 28.1223 34.5661 0
817 1 67.5619 75.8214 0
818 2 36.8334 16.1143 0
819 2 45.7552 56.75 0
820 1 66.9033 69.8519 0
821 1 16.6674 64.8616 0
822 1 56.7101 76.7485 0
823 1 17.1433 55.7347 0
824 2 35.1962 42.4011 0
825 1 29.1266 41.5948 0
826 1 32.7922 75.3663 0
827 1 7.3468 26.1967 0
828 1 76.8397 51.1209 0
829 1 72.1879 40.2672 0
830 2 47.8162 64.4784 0
831 2 43.2714 4.62113 0
832 1 73.9672 14.296 0
833 1 24.5485 43.3504 0
834 2 48.5226 5.52137 0
835 1 68.4293 6.56617 0
836 1 58.2035 27.6644 0
837 1 56.411 41.2505 0
838 1 38.9862 52.7345 0
839 1 16.0337 60.2697 0
840 2 15.7428 46.7069 0
841 1 36.8635 52.5642 0
842 2 10.984 61.2973 0
843 1 5.59668 42.4389 0
844 1 63.5473 21.6522 0
845 2 27.9286 2.3452 0
846 1 49.6684 39.3535 0
847 1 10.8742 57.6445 0
848 2 69.0369 47.6751 0
849 1 74.0996 10.8669 0
850 1 67.9689 19.6872 0
851 1 39.4971 18.7185 0
852 1 12.1977 2 0
853 1 42.3677 61.5606 0
854 1 37.6452 69.6317 0
855 1 39.4828 25.6658 0
856 2 18.8091 41.9753 0
857 1 57.8603 33.9464 0
858 2 34.4743 28.8715 0
859 1 13.1224 64.7707 0
860 2 2.0825 58.4328 0
861 2 60.1818 40.1623 0
862 2 3.01131 69.3165 0
863 1 59.0048 23.8405 0
864 1 60.3548 53.7417 0
865 2 66.1612 67.9881 0
866 1 60.4682 17.2356 0
867 2 31.5479 21.8926 0
868 1 37.1463 61.9112 0
869 1 62.0618 20.225 0
870 1 0.085436 52.7623 0
871 1 62.7139 26.0735 0
872 1 42.4084 50.7336 0
873 1 50.6362 62.556 0
874 1 4.01313 71.6291 0
875 1 34.0905 57.7748 0
876 2 51.6595 7.99535 0
877 1 13.3485 55.5395 0
878 2 14.6859 16.0669 0
879 1 76.5509 13.9659 0
880 2 31.749 33.6787 0
881 2 51.9041 29.3008 0
882 2 47.8099 73.7062 0
883 1 25.752 20.082 0
884 1 56.0951 36.4936 0
885 1 38.9481 5.06883 0
886 1 37.0669 59.9478 0
887 2 54.8158 50.2253 0
888 1 0.352432 76.5449 0
889 2 59.2184 49.6198 0
890 2 7.81171 25.4176 0
891 1 38.1503 10.4804 0
892 1 39.9162 67.898 0
893 1 30.0161 53.7168 0
894 1 77.0987 14.8991 0
895 2 32.4405 53.0996 0
896 1 37.5597 2.55525 0
897 2 35.6929 17.0623 0
898 1 31.0643 43.637 0
899 1 2.03743 75.798 0
900 2 38.7374 0.178713 0
901 1 52.4772 41.4282 0
902 1 24.2466 75.3202 0
903 1 37.8867 40.5163 0
904 2 0.0542775 37.5673 0
905 1 63.7049 62.033 0
906 1 69.0662 44.6908 0
907 1 3.71425 29.7794 0
908 1 50.6781 23.813 0
909 1 0.447195 48.7067 0
910 2 1.81244 50.8035 0
911 2 4.65396 4.51978 0
912 2 36.1741 32.7508 0
913 2 31.8835 51.6652 0
914 1 18.3607 12.8873 0
915 2 64.6581 5.46986 0
916 1 3.47256 39.8712 0
917 2 4.96753 33.4264 0
918 2 19.5954 35.341 0
919 1 8.16133 57.842 0
920 1 15.8883 47.6285 0
921 1 0.0332652 26.5914 0
922 2 50.7779 18.8951 0
923 2 12.3429 24.3899 0
924 1 39.3299 17.6183 0
925 1 66.3885 47.2245 0
926 2 35.4901 35.3287 0
927 1 68.676 0.130721 0
928 1 52.1951 58.9737 0
929 2 52.0308 32.0557 0
930 2 19.9758 15.8283 0
931 1 40.8244 47.5167 0
932 1 70.4002 39.0466 0
933 1 34.357 21.8781 0
934 1 1.91872 60.1227 0
935 1 11.3933 50.6255 0
936 2 42.1822 4.66782 0
937 1 14.1982 73.2721 0
938 1 36.6091 67.7143 0
939 2 50.5441 51.275 0
940 1 76.0605 46.9058 0
941 1 77.3083 17.49 0
942 1 37.9489 29.8236 0
943 2 22.285 16.8058 0
944 2 2.12823 42.0254 0
945 1 40.479 25.3221 0
946 1 64.4722 67.0837 0
947 2 25.1548 2.04754 0
948 1 39.1325 68.6369 0
949 1 26.6931 11.6409 0
950 2 4.94292 9.69629 0
951 1 68.9584 65.5914 0
952 2 52.5812 2.72731 0
953 2 7.86175 44.8504 0
954 2 29.8415 62.57 0
955 1 27.2467 38.5387 0
956 2 58.8075 10.9484 0
957 1 48.4572 23.6866 0
958 2 19.4797 2.79197 0
959 2 73.6237 24.9543 0
960 2 29.1631 66.9444 0
961 1 49.54 52.1246 0
962 1 24.328 1.66378 0
963 1 16.3351 12.5456 0
964 2 8.62078 9.58207 0
965 2 53.8001 53.7192 0
966 1 0.700975 62.7823 0
967 1 49.9315 35.5859 0
968 1 18.3385 0.102406 0
969 1 58.0565 23.4141 0
970 2 22.5428 4.73521 0
971 1 21.2655 14.5064 0
972 1 6.90488 25.1887 0
973 1 0.845901 36.0162 0
974 2 1.23446 35.2619 0
975 2 73.1339 65.4273 0
976 2 34.631 19.8923 0
977 1 35.9404 63.236 0
978 2 3.14041 77.0903 0
979 2 36.1525 65.7538 0
980 1 72.9268 14.1742 0
981 1 73.7223 58.0673 0
982 1 7.80552 54.7299 0
983 1 18.4936 24.7198 0
984 1 9.21588 57.9935 0
985 1 34.5167 11.2311 0
986 1 37.9103 52.5597 0
987 2 18.0956 12.0494 0
988 2 42.271 34.7963 0
989 2 10.0243 34.7706 0
990 2 69.8665 51.5781 0
991 2 46.2302 14.7923 0
992 1 62.4257 34.5782 0
993 2 29.1284 5.81567 0
994 2 1.87568 55.0579 0
995 1 38.8876 22.2665 0
996 2 54.7352 56.889 0
997 2 43.5475 30.8794 0
998 2 60.3158 74.8782 0
999 2 39.2872 26.5643 0
1000 2 0.565819 49.5892 0
1001 1 41.8656 65.3954 0
1002 1 23.4919 34.434 0
1003 1 9.53382 54.2624 0
1004 1 7.67707 22.5434 0
1005 2 10.9498 23.7567 0
1006 2 67.8769 60.8318 0
1007 1 18.8466 20.4018 0
1008 1 47.8336 16.8344 0
1009 1 31.1919 33.0219 0
1010 1 11.5281 43.4919 0
1011 2 10.538 22.2721 0
1012 2 2.34244 23.3287 0
1013 2 65.1332 55.9797 0
1014 1 74.2009 15.4721 0
1015 1 76.0535 9.34288 0
1016 1 37.1524 47.9493 0
1017 2 68.7582 54.2505 0
1018 1 26.2101 25.0246 0
1019 1 44.3204 29.0157 0
1020 2 32.5473 6.24591 0
1021 2 15.9796 24.558 0
1022 1 4.77823 60.8234 0
1023 1 41.1381 9.42534 0
1024 1 9.33888 67.7988 0
1025 1 37.0493 65.8164 0
1026 1 8.01063 40.158 0
1027 1 47.4816 2.49367 0
1028 1 1.9751 32.9692 0
1029 1 49.0445 18.0782 0
1030 2 46.9606 47.9934 0
1031 2 37.5171 37.1001 0
1032 1 16.3193 73.2054 0
1033 1 57.4489 19.1337 0
1034 1 35.2333 29.2825 0
1035 1 65.8481 28.4339 0
1036 2 73.7736 45.9117 0
1037 1 31.1628 73.0659 0
1038 1 68.6885 60.5476 0
1039 1 5.44866 31.8458 0
1040 2 65.032 34.216 0
1041 1 35.4101 65.2253 0
1042 2 62.7711 68.1717 0
1043 2 60.6414 58.2217 0
1044 1 67.714 23.4501 0
1045 1 66.6936 23.3057 0
1046 1 41.1398 68.2158 0
1047 2 9.90568 47.6868 0
1048 1 53.4299 77.4276 0
1049 1 59.9532 49.0941 0
1050 2 45.4621 6.38315 0
1051 1 43.5094 31.8134 0
1052 1 66.2818 44.4801 0
1053 2 32.6394 18.4902 0
1054 1 55.0858 7.0908 0
1055 2 32.8636 46.6853 0
1056 2 14.684 45.2173 0
1057 1 11.9383 71.7827 0
1058 1 27.4201 5.89124 0
1059 1 9.18547 75.2018 0
1060 2 21.9123 42.1048 0
1061 1 10.1927 23.277 0
1062 2 16.9607 41.4137 0
1063 1 77.4544 67.8367 0
1064 1 23.279 5.1757 0
1065 2 29.6717 52.8567 0
1066 1 37.3206 46.2546 0
1067 1 13.9151 10.3912 0
1068 2 35.5989 67.1044 0
1069 1 67.9273 24.4418 0
1070 2 8.26716 34.5311 0
1071 2 49.485 42.7379 0
1072 2 9.48227 48.7355 0
1073 2 16.3949 3.58201 0
1074 2 33.7862 45.3133 0
1075 1 75.9441 49.701 0
1076 1 41.2487 7.6653 0
1077 1 41.8243 32.794 0
1078 2 71.801 26.2073 0
1079 2 39.0472 10.8099 0
1080 2 30.0474 72.8324 0
1081 2 46.0496 48.9356 0
1082 2 6.33994 27.5974 0
1083 2 21.4719 20.1225 0
1084 1 44.2568 57.5544 0
1085 1 19.0934 52.3529 0
1086 1 70.1743 67.0053 0
1087 1 29.5503 72.0239 0
1088 1 44.7282 63.0906 0
1089 2 8.44308 31.8021 0
1090 1 43.0853 34.5254 0
1091 2 27.7219 17.7636 0
1092 1 63.0978 53.6064 0
1093 1 69.2138 32.8592 0
1094 2 43.5737 55.1547 0
1095 1 25.2907 71.134 0
1096 2 48.2537 18.5053 0
1097 1 76.2778 17.7021 0
1098 1 62.7617 43.7136 0
1099 1 31.081 4.95274 0
1100 1 67.8902 1.87863 0
1101 1 74.9789 11.7304 0
1102 1 26.0023 74.7697 0
1103 1 51.2685 70.9813 0
1104 1 47.1396 58.1351 0
1105 1 48.2494 40.1113 0
1106 1 16.435 71.4297 0
1107 2 45.1769 62.2934 0
1108 1 55.6007 31.2431 0
1109 1 72.7555 24.9012 0
1110 2 14.8936 11.8045 0
1111 1 2.68088 56.886 0
1112 1 76.2727 18.7121 0
1113 2 75.4422 7.61764 0
1114 2 14.2629 53.4844 0
1115 2 32.9116 49.4422 0
1116 1 77.2141 64.7208 0
1117 1 66.8938 56.4845 0
1118 1 12.2982 75.571 0
1119 2 11.0821 64.4075 0
1120 1 41.3772 57.9451 0
1121 2 21.2406 64.3076 0
1122 1 32.1112 32.5189 0
1123 2 23.0054 51.9485 0
1124 1 52.7157 61.8925 0
1125 2 14.7608 4.40531 0
1126 2 15.5222 20.2481 0
1127 1 74.5553 24.101 0
1128 1 67.2372 52.0796 0
1129 1 60.8303 39.6125 0
1130 1 30.5929 47.338 0
1131 1 62.5361 15.2989 0
1132 2 75.9101 63.6983 0
1133 2 56.0563 22.4753 0
1134 2 20.7876 72.0793 0
1135 1 0.800784 68.5653 0
1136 2 51.2091 26.8507 0
1137 1 51.074 61.4215 0
1138 1 30.4109 13.6563 0
1139 2 57.5903 52.843 0
1140 2 8.96784 22.9834 0
1141 1 74.9997 65.7422 0
1142 1 27.0235 52.3233 0
1143 1 48.1094 44.7376 0
1144 2 60.9106 16.512 0
1145 1 37.9589 62.5804 0
1146 1 15.5857 18.8862 0
1147 1 28.2934 25.6563 0
1148 1 10.9185 36.7914 0
1149 1 57.5131 29.3221 0
1150 2 65.4207 61.0604 0
1151 1 22.0246 3.96473 0
1152 1 59.8194 52.0785 0
1153 1 71.7274 29.5432 0
1154 1 13.9416 4.75518 0
1155 2 60.082 20.2969 0
1156 1 44.5489 32.1862 0
1157 1 12.3749 18.1304 0
1158 2 58.5369 47.9426 0
1159 2 5.65896 70.5553 0
1160 1 33.0729 7.73299 0
1161 2 43.9568 56.5858 0
1162 1 15.8602 9.93332 0
1163 2 13.3375 73.1172 0
1164 1 23.994 58.7612 0
1165 1 20.9273 45.632 0
1166 2 15.0345 50.6801 0
1167 1 28.0106 20.3579 0
1168 1 56.4055 64.6352 0
1169 1 19.5232 66.8389 0
1170 2 6.24866 33.6313 0
1171 1 48.4828 33.8905 0
1172 1 22.8971 6.77641 0
1173 1 51.6982 64.0127 0
1174 1 38.9038 29.3384 0
1175 2 62.6291 44.6445 0
1176 1 68.3077 36.4279 0
1177 1 48.4699 69.8582 0
1178 2 61.1943 47.6563 0
1179 1 72.4133 32.685 0
1180 1 52.0484 17.8333 0
1181 1 54.348 22.9651 0
1182 1 60.8743 74.1902 0
1183 2 43.13 73.3366 0
1184 2 28.1041 22.0169 0
1185 1 17.5053 63.2326 0
1186 1 49.0354 49.5164 0
1187 1 73.6822 72.2683 0
1188 2 4.83306 37.7038 0
1189 1 60.7262 65.2843 0
1190 1 28.3354 51.4983 0
1191 2 72.3362 4.97792 0
1192 1 24.6105 47.078 0
1193 1 47.6199 17.9034 0
1194 2 16.6584 16.0702 0
1195 1 74.2329 48.8873 0
1196 1 21.8575 49.9354 0
1197 1 35.6033 38.9633 0
1198 1 62.2718 76.426 0
1199 2 57.8723 62.5041 0
1200 1 26.9804 8.85067 0
1201 1 2.87875 73.2509 0
1202 1 5.87306 48.938 0
1203 2 47.4882 12.3313 0
1204 1 57.5038 56.6834 0
1205 1 66.6762 50.2946 0
1206 1 52.1447 5.10907 0
1207 1 31.7423 62.7564 0
1208 1 75.3827 58.0142 0
1209 2 65.3352 59.6827 0
1210 1 69.7719 31.9627 0
1211 2 24.8331 35.5673 0
1212 1 33.7385 36.19 0
1213 1 61.1735 68.8646 0
1214 1 61.5849 23.674 0
1215 1 11.63 72.8026 0
1216 1 11.3014 49.4882 0
1217 2 67.1425 2.34022 0
1218 2 61.4871 20.8948 0
1219 1 30.2216 15.3551 0
1220 1 61.9111 18.0553 0
1221 1 61.7174 54.8959 0
1222 2 66.1744 74.4183 0
1223 1 42.3927 48.0578 0
1224 1 0.723807 34.1108 0
1225 1 2.83528 25.7502 0
1226 2 65.9105 64.9246 0
1227 1 41.5737 56.9407 0
1228 1 76.1487 70.8212 0
1229 2 48.046 9.34583 0
1230 1 25.5979 49.9174 0
1231 2 52.8985 18.0519 0
1232 1 67.8365 38.0951 0
1233 1 38.6519 58.4769 0
1234 1 1.68837 67.941 0
1235 1 18.1808 46.0468 0
1236 1 52.3325 63.0628 0
1237 1 37.9316 20.7168 0
1238 1 24.6557 7.18083 0
1239 1 12.8674 22.7515 0
1240 1 24.2966 63.0022 0
1241 1 76.2871 62.8466 0