ITEM: TIMESTEP
0
ITEM: NUMBER OF ATOMS
7200
ITEM: BOX BOUNDS xy xz yz pp pp pp
0.0000000000000000e+00 7.7459666924100006e+01 0.0000000000000000e+00
0.0000000000000000e+00 7.7459666924100006e+01 0.0000000000000000e+00
-1.2909944490000000e-01 1.2909944490000000e-01 0.0000000000000000e+00
ITEM: ATOMS id type x y z
1 1 13.0251 18.76 0
2 1 19.7113 72.654 0
3 1 74.122 5.52228 0
4 1 29.5481 7.70001 0
5 1 24.2228 64.4263 0
6 1 63.9271 26.2301 0
7 2 75.9507 4.92123 0
8 2 55.8333 43.916 0
9 1 37.2826 63.1908 0
10 2 26.7504 12.1535 0
11 2 26.519 58.2274 0
12 1 52.1879 7.61003 0
13 2 30.3471 10.5395 0
14 1 46.8104 70.5535 0
15 1 29.0626 27.3473 0
16 1 22.3098 18.4934 0
17 1 29.1062 45.5772 0
18 1 31.8676 14.5483 0
19 1 29.5623 63.2013 0
20 2 41.9504 65.3572 0
21 1 22.2796 74.8701 0
22 1 54.368 24.5797 0
23 1 66.2339 45.0264 0
24 1 50.3749 68.5375 0
25 1 72.2258 70.6576 0
26 1 28.0409 68.6301 0
27 2 27.0351 61.7147 0
28 1 40.7038 59.1484 0
29 2 8.32956 46.8343 0
30 2 37.3478 41.8022 0
31 1 12.0836 61.7088 0
32 1 56.8838 28.9858 0
33 1 63.2602 42.2712 0
34 2 54.6525 4.74291 0
35 1 2.77292 63.3258 0
36 1 30.5303 53.9545 0
37 1 18.9862 58.6857 0
38 1 52.4742 22.7293 0
39 1 20.9368 4.99342 0
40 2 18.1138 68.5695 0
41 2 16.1568 77.2303 0
42 1 13.0977 5.878 0
43 1 11.4955 12.9998 0
44 1 23.1572 68.501 0
45 1 5.2522 31.6858 0
46 1 62.194 67.3185 0
47 1 64.5727 54.0083 0
48 1 43.1216 55.6368 0
49 2 72.8687 70.0953 0
50 1 27.7989 62.0619 0
51 1 69.7384 19.0765 0
52 2 41.6567 34.4584 0
53 1 66.5017 14.8006 0
54 1 44.0076 28.7498 0
55 1 4.16413 3.84876 0
56 1 48.0328 26.1837 0
57 1 67.3196 42.4874 0
58 1 6.41541 68.1299 0
59 1 19.9883 71.4417 0
60 1 22.4749 7.11061 0
61 1 27.2545 65.3302 0
62 1 44.633 43.0549 0
63 1 52.0813 6.5808 0
64 1 53.2687 32.0179 0
65 1 65.8332 68.6363 0
66 2 62.9131 5.52609 0
67 2 48.2536 34.4443 0
68 2 11.0845 18.5727 0
69 1 64.1472 38.343 0
70 1 10.9444 31.0008 0
71 2 12.3777 56.5642 0
72 1 73.0259 5.23873 0
73 1 14.8369 69.8975 0
74 2 33.0841 26.6614 0
75 1 68.803 54.1639 0
76 1 15.5504 46.493 0
77 1 22.5022 4.5708 0
78 1 0.246582 75.7948 0
79 1 72.0283 69.6831 0
80 1 43.2995 16.1861 0
81 1 55.4677 60.3216 0
82 2 43.3327 15.3362 0
83 1 15.5271 31.5231 0
84 1 36.2871 40.2848 0
85 1 32.3607 26.2365 0
86 2 44.1434 63.4822 0
87 1 74.8563 37.259 0
88 1 22.5627 54.9396 0
89 1 27.3714 19.3371 0
90 1 31.3079 42.3269 0
91 2 53.9936 52.8475 0
92 2 43.4421 48.7822 0
93 1 30.7311 33.5822 0
94 1 30.2586 58.772 0
95 2 39.6614 54.4582 0
96 1 62.4123 72.4649 0
97 1 51.1564 50.6907 0
98 2 6.73764 54.4875 0
99 1 51.7908 49.8784 0
100 2 44.2138 31.107 0
101 1 48.0278 48.3787 0
102 1 76.1189 21.3023 0
103 1 53.6674 67.4118 0
104 1 19.9091 57.3047 0
105 2 37.7716 2.93919 0
106 2 38.906 34.7443 0
107 1 14.4325 31.4171 0
108 1 12.4637 6.66302 0
109 1 34.2578 31.8458 0
110 2 57.6629 29.3587 0
111 1 59.4023 26.2735 0
112 1 31.9829 74.1481 0
113 2 9.98352 55.3007 0
114 2 9.31795 27.9398 0
115 2 35.7841 16.6108 0
116 2 68.5518 51.8072 0
117 1 21.1941 47.9324 0
118 2 52.5817 16.7799 0
119 1 63.7162 76.1871 0
120 2 74.8337 50.8452 0
121 1 4.28716 8.15953 0
122 1 24.1406 35.6006 0
123 2 75.7932 9.0883 0
124 1 45.9415 69.868 0
125 1 40.2744 30.6905 0
126 1 60.0764 46.9071 0
127 1 7.46544 61.7809 0
128 1 11.6172 17.8265 0
129 1 21.7225 59.0722 0
130 1 74.1317 62.4809 0
131 1 50.1443 31.6081 0
132 2 31.5188 44.2776 0
133 2 68.1654 10.3509 0
134 1 52.6012 41.8346 0
135 1 39.5769 31.5674 0
136 2 55.3694 50.3043 0
137 1 61.9102 63.9002 0
138 2 5.48173 50.2194 0
139 1 74.7785 12.4065 0
140 1 4.46087 21.4103 0
141 2 43.8244 56.0544 0
142 1 19.0007 17.4141 0
143 2 35.7011 59.073 0
144 2 43.493 73.4284 0
145 2 13.7146 46.7586 0
146 1 60.7666 15.2645 0
147 1 25.3927 42.1206 0
148 1 47.9989 51.2296 0
149 2 70.0415 52.7113 0
150 1 34.2991 69.1157 0
151 2 32.1956 8.94007 0
152 1 51.4706 63.1869 0
153 2 19.4032 53.3197 0
154 2 28.6327 74.6827 0
155 1 3.06695 48.5444 0
156 1 33.4677 72.0055 0
157 1 43.7835 69.8614 0
158 1 66.8096 66.9431 0
159 2 7.25391 34.0764 0
160 1 34.9815 16.213 0
161 1 9.73724 69.8375 0
162 2 2.28311 28.4816 0
163 1 36.7256 27.0971 0
164 1 55.9539 21.7829 0
165 1 4.50537 24.0972 0
166 1 5.89324 42.2703 0
167 1 35.3856 74.6293 0
168 1 31.3443 63.4444 0
169 1 53.2839 20.1072 0
170 1 59.4017 77.2592 0
171 2 41.277 64.0759 0
172 2 38.4331 53.3118 0
173 2 39.6569 16.9968 0
174 2 25.6071 54.7336 0
175 2 31.6644 29.2541 0
176 1 36.0877 26.2676 0
177 1 24.1502 68.7988 0
178 1 55.0016 63.9987 0
179 1 66.0277 24.4857 0
180 2 26.9473 30.7229 0
181 1 47.9412 19.2541 0
182 1 53.925 69.1266 0
183 2 8.79948 35.9276 0
184 1 3.2238 73.6623 0
185 2 5.63432 29.6706 0
186 1 53.0199 21.7999 0
187 1 48.1154 41.0987 0
188 1 61.712 49.0528 0
189 2 57.5075 44.3622 0
190 1 21.2374 76.2833 0
191 1 57.1623 69.6775 0
192 1 68.1219 17.0014 0
193 2 9.01195 45.3228 0
194 2 74.9494 62.2832 0
195 1 9.39257 7.32544 0
196 2 50.4567 47.5089 0
197 2 23.0489 3.94027 0
198 1 20.4366 68.8645 0
199 2 65.9666 62.7477 0
200 1 61.6148 36.2894 0
201 2 36.0664 1.07238 0
202 2 74.3265 60.7096 0
203 1 40.4439 0.791301 0
204 1 31.6622 13.5696 0
205 1 64.5639 8.70948 0
206 2 34.4646 36.0039 0
207 2 7.40431 5.92052 0
208 1 35.4493 14.5263 0
209 1 13.6357 9.59106 0
210 2 9.12621 20.0336 0
211 1 76.3686 10.9187 0
212 2 27.248 6.292 0
213 2 59.9473 15.0325 0
214 1 69.2865 57.6765 0
215 2 70.8834 24.62 0
216 1 8.05992 8.43138 0
217 1 59.0839 43.1938 0
218 2 61.6229 49.9525 0
219 2 5.5721 40.2683 0
220 2 46.9868 65.4393 0
221 1 18.1715 44.1705 0
222 1 50.5173 13.3618 0
223 2 33.1711 76.6286 0
224 2 24.3804 73.3106 0
225 1 34.6146 24.1959 0
226 2 62.977 54.7132 0
227 2 11.6455 15.0639 0
228 1 25.5896 14.3737 0
229 1 1.82386 29.2225 0
230 1 33.6617 73.9142 0
231 1 11.2513 42.4203 0
232 1 45.344 11.8422 0
233 1 23.3046 21.018 0
234 1 73.0534 4.15635 0
235 1 58.0402 53.9086 0
236 2 23.2455 72.4856 0
237 1 76.5257 59.3586 0
238 2 6.71087 27.5064 0
239 1 47.1641 2.93291 0
240 2 68.7514 53.2958 0
241 1 59.1691 58.4368 0
242 1 12.9289 31.4714 0
243 1 8.94751 61.1804 0
244 1 63.5259 62.9891 0
245 1 7.14051 36.6898 0
246 1 72.4326 39.4357 0
247 1 64.6333 55.7105 0
248 1 6.34547 76.7417 0
249 2 51.4826 43.858 0
250 1 32.9942 21.7442 0
251 2 61.0018 41.3865 0
252 2 58.6196 26.0235 0
253 1 26.218 22.9623 0
254 1 57.3168 20.5267 0
255 1 75.0193 44.45 0
256 1 35.5545 3.4361 0
257 1 19.1395 75.2915 0
258 1 24.3503 49.0662 0
259 1 60.5806 67.3539 0
260 2 37.6734 48.8156 0
261 2 24.2968 62.5932 0
262 1 29.2066 33.2589 0
263 2 11.741 28.0532 0
264 2 3.12508 61.3922 0
265 1 77.0779 45.7827 0
266 1 34.1166 44.5155 0
267 2 61.9386 27.8997 0
268 2 69.3256 49.2924 0
269 1 46.6688 17.9821 0
270 2 74.2777 58.8859 0
271 2 21.2527 40.7177 0
272 2 38.4253 14.7473 0
273 1 21.5251 1.92634 0
274 1 28.8762 62.2162 0
275 1 1.12815 59.9251 0
276 1 76.7586 20.3597 0
277 2 17.3485 60.5994 0
278 1 13.3365 17.7294 0
279 1 2.90959 53.4832 0
280 1 20.2477 37.4146 0
281 1 28.9926 39.4088 0
282 2 72.0342 22.2069 0
283 1 3.47895 58.6479 0
284 2 54.8367 43.3308 0
285 1 73.4654 45.714 0
286 1 20.8593 60.9368 0
287 1 18.4637 10.6007 0
288 2 64.3084 5.56321 0
289 2 26.4875 39.6727 0
290 2 75.4199 10.9157 0
291 1 25.143 32.8843 0
292 1 38.0131 58.3263 0
293 1 49.7133 8.80054 0
294 1 39.1527 74.1176 0
295 1 67.7875 6.36345 0
296 2 2.5299 15.4692 0
297 1 47.5086 50.1819 0
298 1 73.4854 33.0056 0
299 2 57.6848 30.7062 0
300 1 46.4206 46.4649 0
301 1 2.06199 23.5443 0
302 1 56.5457 27.3016 0
303 1 15.5796 29.5826 0
304 1 57.9305 66.8439 0
305 2 57.9114 70.2413 0
306 1 59.7667 49.9642 0
307 2 67.028 26.7302 0
308 1 37.9186 6.42369 0
309 2 18.5997 29.5832 0
310 2 4.81697 14.3517 0
311 1 27.3249 44.8729 0
312 1 72.3117 59.2825 0
313 1 70.195 7.29646 0
314 1 50.558 53.1273 0
315 2 55.6268 36.2688 0
316 2 27.6548 75.751 0
317 1 49.4846 10.1294 0
318 2 2.33636 40.2501 0
319 1 40.9221 23.8907 0
320 1 27.3023 72.0801 0
321 1 51.5708 70.0792 0
322 2 3.61436 7.54177 0
323 2 20.991 66.787 0
324 1 69.8676 48.6245 0
325 1 47.5877 4.55168 0
326 1 2.49674 55.9575 0
327 1 47.3778 55.2967 0
328 1 0.85876 40.995 0
329 1 46.804 24.3561 0
330 2 56.5232 34.2887 0
331 2 60.5171 74.9152 0
332 1 63.3056 33.9508 0
333 1 36.8045 21.2313 0
334 1 12.433 40.0773 0
335 1 25.0903 36.1718 0
336 2 75.0728 2.54324 0
337 1 38.9261 32.3859 0
338 2 20.4826 72.2223 0
339 1 43.7755 60.1839 0
340 1 18.3034 57.9137 0
341 2 6.01974 49.3304 0
342 1 63.6716 4.95667 0
343 2 61.7547 64.7243 0
344 2 27.3876 56.6995 0
345 1 13.5328 23.8173 0
346 1 19.2661 7.96428 0
347 1 38.1111 60.1269 0
348 1 44.2307 19.4508 0
349 1 36.496 14.8315 0
350 1 39.8876 27.9956 0
351 1 22.3029 56.7773 0
352 1 50.0028 33.685 0
353 1 12.2326 27.2736 0
354 2 31.5565 26.606 0
355 2 52.7984 29.0453 0
356 2 4.92348 7.44813 0
357 1 65.1549 62.9895 0
358 1 24.3643 6.71602 0
359 1 40.5145 15.7194 0
360 2 45.354 23.193 0
361 2 49.2479 56.1036 0
362 1 28.5466 67.6401 0
363 2 25.7048 71.3447 0
364 1 12.7232 0.140247 0
365 2 74.6521 66.0692 0
366 1 31.9186 50.5739 0
367 2 30.2109 31.832 0
368 2 48.6503 43.9666 0
369 2 66.8645 65.2413 0
370 1 3 20.2082 0
371 1 35.173 60.8127 0
372 2 36.0253 11.2428 0
373 1 15.8797 35.4281 0
374 2 57.5885 31.7366 0
375 1 57.5122 52.3975 0
376 2 70.0984 40.2209 0
377 2 65.632 44.1525 0
378 1 13.1433 1.16167 0
379 1 20.7526 16.5456 0
380 1 11.9064 54.6854 0
381 1 18.3618 20.7784 0
382 1 27.6661 29.0299 0
383 1 18.5001 9.45136 0
384 1 33.8566 56.5623 0
385 1 31.2266 11.5978 0
386 1 53.3855 53.4886 0
387 1 58.012 2.68654 0
388 2 59.2281 51.7504 0
389 1 36.3521 58.5979 0
390 1 34.1395 27.689 0
391 2 65.1497 22.0096 0
392 2 33.6483 19.3793 0
393 2 44.2102 58.5805 0
394 1 5.72123 73.0672 0
395 1 55.9507 16.2373 0
396 1 0.0728953 12.1986 0
397 1 44.8381 18.5958 0
398 1 38.4916 71.3904 0
399 1 70.8914 20.8752 0
400 1 58.049 72.2257 0
401 1 55.6999 9.46644 0
402 2 56.3044 10.1146 0
403 1 42.5872 50.5011 0
404 1 63.4326 69.7116 0
405 2 65.8677 71.1117 0
406 1 30.0925 17.9142 0
407 2 52.483 5.87376 0
408 1 70.1327 30.7612 0
409 1 10.9621 73.4627 0
410 2 0.671885 15.6154 0
411 2 58.3882 27.9419 0
412 1 66.4432 38.2713 0
413 1 2.15631 33.4977 0
414 1 0.222719 54.1202 0
415 1 9.95196 37.1806 0
416 2 73.1248 61.2481 0
417 2 4.37505 17.4868 0
418 1 43.708 23.8371 0
419 2 53.8823 54.222 0
420 2 12.0807 64.4952 0
421 1 69.5151 21.2763 0
422 1 69.4787 67.6344 0
423 1 8.56063 4.60674 0
424 1 58.3106 23.1823 0
425 1 55.164 58.6498 0
426 1 57.2207 75.8005 0
427 2 37.4085 7.07265 0
428 1 56.7311 63.1271 0
429 1 58.2941 69.5023 0
430 1 27.7854 30.383 0
431 1 12.4077 15.4759 0
432 1 58.7378 55.747 0
433 1 26.7441 70.2097 0
434 1 68.8566 38.7769 0
435 1 60.2589 25.4888 0
436 2 65.9679 40.4303 0
437 2 50.2546 53.8624 0
438 1 44.4486 55.4933 0
439 2 57.4433 11.3328 0
440 1 46.7227 39.0463 0
441 2 72.505 3.51198 0
442 1 5.71092 32.5819 0
443 1 57.0019 12.8775 0
444 1 4.20544 73.3786 0
445 2 60.8553 70.3516 0
446 1 66.7955 50.0682 0
447 1 16.4638 67.6868 0
448 1 53.6545 39.7715 0
449 1 36.1906 69.8893 0
450 2 44.8904 49.6948 0
451 2 8.66687 55.6428 0
452 1 49.709 17.3442 0
453 1 32.0836 7.01672 0
454 2 58.8045 34.4337 0
455 2 24.3099 76.1463 0
456 1 13.9389 49.543 0
457 2 34.5476 11.477 0
458 1 25.3102 6.27228 0
459 2 10.7075 50.5792 0
460 1 3.81989 0.275233 0
461 2 34.7305 22.6768 0
462 1 57.5503 15.0034 0
463 1 71.2823 59.0296 0
464 1 7.7644 48.6381 0
465 2 31.8493 35.5904 0
466 1 19.0109 14.3276 0
467 2 77.3486 9.00895 0
468 1 22.7232 43.2922 0
469 1 2.31844 72.9798 0
470 1 74.509 14.4179 0
471 2 64.2038 37.5323 0
472 1 13.8152 43.2506 0
473 1 42.179 74.4627 0
474 1 37.5772 62.1736 0
475 1 22.2934 76.0147 0
476 2 44.5004 23.4768 0
477 1 52.6603 12.6431 0
478 2 14.2937 65.8469 0
479 1 28.2326 22.0399 0
480 1 25.3463 24.0203 0
481 1 12.2208 11.8361 0
482 1 10.8806 24.6162 0
483 2 73.6528 3.50914 0
484 1 14.0226 40.7884 0
485 1 15.491 54.7691 0
486 1 8.20796 6.27392 0
487 2 61.9705 71.7253 0
488 1 40.2295 1.98341 0
489 1 53.3657 17.087 0
490 1 35.0621 29.1038 0
491 1 31.4234 36.3275 0
492 2 61.1696 5.1752 0
493 1 67.4004 12.9833 0
494 1 70.0334 28.4635 0
495 2 18.2734 59.139 0
496 2 45.6433 45.9688 0
497 2 44.8506 3.32021 0
498 1 23.3149 37.8958 0
499 1 27.9264 76.631 0
500 1 73.5733 74.6775 0
501 2 45.2404 53.9342 0
502 1 31.3984 43.3509 0
503 1 49.6612 7.74656 0
504 1 31.2591 37.9982 0
505 2 24.9133 74.7808 0
506 2 8.42626 67.7697 0
507 1 44.4344 24.6339 0
508 1 8.64729 44.3982 0
509 1 19.6741 26.4187 0
510 1 74.4502 39.8888 0
511 1 63.3523 25.3644 0
512 1 56.6172 57.7142 0
513 1 20.0545 49.0215 0
514 1 25.1209 62.1581 0
515 2 51.0592 1.42932 0
516 2 5.71857 46.1254 0
517 2 4.35429 62.4811 0
518 2 26.9811 49.1641 0
519 2 33.2062 68.4773 0
520 1 1.12525 43.8187 0
521 1 54.5985 16.8934 0
522 2 20.8366 71.4063 0
523 1 75.8981 6.51864 0
524 1 62.8472 24.4077 0
525 1 28.4167 3.00672 0
526 2 1.44943 35.0219 0
527 1 43.8188 18.4231 0
528 2 72.1289 68.7335 0
529 2 37.2014 58.4837 0
530 1 9.11498 63.0341 0
531 2 4.24096 61.1479 0
532 2 24.9307 58.869 0
533 1 76.823 76.3947 0
534 1 24.3079 24.3436 0
535 1 27.5028 20.5948 0
536 1 23.1352 66.8262 0
537 1 27.7198 49.6634 0
538 2 19.9082 29.2614 0
539 2 30.0995 73.6554 0
540 1 55.4106 46.3013 0
541 2 28.5327 14.8156 0
542 1 52.5994 65.5879 0
543 2 72.6972 52.2059 0
544 2 53.243 5.33913 0
545 1 40.7326 39.6682 0
546 1 43.7304 1.95347 0
547 1 8.88686 13.2944 0
548 2 21.475 9.53291 0
549 2 73.0556 30.034 0
550 2 7.77166 45.5673 0
551 1 37.9144 11.2629 0
552 2 72.038 30.9873 0
553 2 28.1926 45.5125 0
554 1 65.2931 64.0987 0
555 1 48.6068 56.675 0
556 1 74.4725 65.1879 0
557 1 51.9402 54.8312 0
558 1 69.0671 64.2162 0
559 1 75.9312 35.7213 0
560 2 25.9123 62.5255 0
561 1 71.4024 72.5712 0
562 2 77.1576 12.995 0
563 2 44.2348 51.3045 0
564 1 58.8255 62.2239 0
565 2 14.71 0.0474552 0
566 2 18.8368 33.4892 0
567 1 52.6528 36.2894 0
568 2 33.7743 64.7038 0
569 2 24.205 19.3613 0
570 1 3.45888 34.6523 0
571 1 71.667 0.0847262 0
572 2 3.49729 62.8126 0
573 2 63.6555 28.1603 0
574 1 7.35645 62.8438 0
575 1 21.2494 11.3967 0
576 1 21.5482 60.0795 0
577 1 42.8226 47.7018 0
578 2 62.313 35.7726 0
579 2 47.0992 66.8708 0
580 1 46.6348 41.7237 0
581 1 73.6917 64.4031 0
582 2 72.3619 62.541 0
583 2 63.8396 53.1839 0
584 2 28.4192 61.3561 0
585 1 58.2031 1.6889 0
586 1 53.0876 54.4512 0
587 2 19.4021 22.859 0
588 1 45.2438 76.2938 0
589 2 56.5429 7.09689 0
590 1 15.5279 4.64056 0
591 1 59.5238 17.4411 0
592 1 53.9504 75.7156 0
593 1 51.6676 5.65129 0
594 1 62.3985 58.4432 0
595 1 7.88756 1.57137 0
596 2 2.36937 8.45568 0
597 1 75.5538 49.9843 0
598 1 66.1835 2.53287 0
599 1 13.1005 54.5639 0
600 1 73.4684 55.8764 0
601 2 45.2969 40.435 0
602 1 65.405 7.0876 0
603 2 12.1124 36.9206 0
604 2 62.4435 14.7937 0
605 1 53.5747 49.6457 0
606 1 29.3436 66.5577 0
607 1 73.5925 8.6477 0
608 2 77.3809 34.5144 0
609 2 39.0552 67.607 0
610 1 4.03621 51.8456 0
611 1 61.9145 59.3946 0
612 1 70.2555 75.5903 0
613 1 70.2273 24.0292 0
614 2 48.4478 22.0499 0
615 1 26.66 32.0561 0
616 1 46.1468 13.193 0
617 1 61.9131 68.3322 0
618 2 10.4704 45.2255 0
619 2 46.2272 44.6062 0
620 2 76.7782 64.0704 0
621 2 63.3193 38.7088 0
622 1 65.7235 21.1174 0
623 1 40.8359 7.53935 0
624 2 15.0035 53.2287 0
625 1 8.87223 1.98628 0
626 1 75.1358 30.5329 0
627 2 6.50188 21.2882 0
628 1 16.7794 61.2696 0
629 2 72.3529 19.3718 0
630 1 30.5607 68.7512 0
631 1 51.6129 37.9566 0
632 1 21.3434 0.959524 0
633 2 27.2534 73.6804 0
634 1 17.6163 58.713 0
635 2 40.4752 45.2583 0
636 2 45.188 31.3531 0
637 1 8.42123 14.211 0
638 1 62.7409 39.3236 0
639 1 68.9056 45.9471 0
640 1 1.83906 53.4175 0
641 1 32.7538 33.0696 0
642 1 22.529 37.1997 0
643 1 43.8732 41.2604 0
644 2 17.7921 27.9966 0
645 1 58.1679 48.6007 0
646 1 53.5691 36.9752 0
647 2 22.5491 10.4386 0
648 1 70.1624 12.5522 0
649 2 9.34421 1.2178 0
650 2 48.8347 61.4121 0
651 1 60.547 22.7757 0
652 1 13.3851 70.6888 0
653 2 20.866 15.6537 0
654 2 24.3047 11.0088 0
655 1 16.9497 48.3304 0
656 1 69.6228 53.463 0
657 1 36.974 49.295 0
658 1 74.8932 9.2608 0
659 2 68.1551 65.9617 0
660 1 34.4378 34.0492 0
661 1 43.4979 8.91224 0
662 1 22.9616 55.882 0
663 1 4.00974 37.3195 0
664 1 57.186 1.1903 0
665 2 45.4065 75.4369 0
666 2 16.963 49.2634 0
667 1 15.8531 75.2718 0
668 2 3.04311 0.62317 0
669 1 0.278373 4.28498 0
670 2 30.493 43.2223 0
671 2 48.4326 12.0773 0
672 1 17.3042 21.3845 0
673 1 11.9803 18.7512 0
674 1 29.1816 47.4076 0
675 2 7.83951 69.5887 0
676 2 34.3756 74.5761 0
677 1 39.2933 62.7212 0
678 1 51.3915 42.9819 0
679 1 40.7279 57.6432 0
680 1 35.1645 57.1844 0
681 1 19.9754 58.3665 0
682 1 64.5518 45.9415 0
683 1 8.34818 3.61183 0
684 1 67.1709 66.0249 0
685 2 50.0737 9.59469 0
686 1 58.7788 0.701951 0
687 1 47.288 15.5337 0
688 2 56.9206 64.3053 0
689 1 2.58845 57.9998 0
690 1 63.7183 71.3077 0
691 1 50.8586 24.8588 0
692 2 50.7147 36.6662 0
693 1 70.4488 5.59716 0
694 2 49.45 64.6073 0
695 1 50.9169 9.26504 0
696 2 38.3561 62.5752 0
697 1 34.3633 30.7815 0
698 1 1.79013 5.04324 0
699 1 65.5419 27.7759 0
700 1 75.6763 40.6528 0
701 1 62.4181 38.3006 0
702 1 59.8925 62.4459 0
703 2 70.3614 69.1633 0
704 2 10.7169 75.4361 0
705 2 16.8582 12.9074 0
706 1 47.6722 35.1684 0
707 2 53.4888 34.7842 0
708 1 49.5158 43.9204 0
709 1 49.5845 74.3898 0
710 2 58.1741 20.5415 0
711 1 64.4402 60.3221 0
712 2 48.0782 28.8602 0
713 2 68.8967 69.2124 0
714 2 74.24 56.2698 0
715 1 53.1762 7.9969 0
716 1 7.54703 24.3156 0
717 1 19.6474 68.2562 0
718 1 13.2516 67.9227 0
719 1 50.8941 38.6428 0
720 2 44.2312 43.9869 0
721 2 70.9181 45.8893 0
722 1 43.5208 6.86203 0
723 2 58.0457 8.94797 0
724 2 16.7081 75.5201 0
725 1 58.6646 28.9545 0
726 1 13.1762 25.4828 0
727 2 20.529 9.17856 0
728 1 68.5854 48.9444 0
729 2 6.5263 73.5431 0
730 1 26.9392 29.7976 0
731 2 21.6786 30.4089 0
732 1 16.1307 59.1405 0
733 1 37.0179 22.2354 0
734 2 55.1621 34.879 0
735 1 51.3982 68.4665 0
736 1 39.8585 40.2941 0
737 2 75.6394 41.494 0
738 1 26.9169 33.0975 0
739 1 28.0201 41.1969 0
740 1 53.7361 38.7355 0
741 2 54.4798 55.6552 0
742 1 60.4386 37.6844 0
743 1 26.0739 72.2402 0
744 2 76.0073 30.2798 0
745 1 7.24015 71.1038 0
746 1 42.3125 10.9421 0
747 1 28.9889 69.4584 0
748 2 45.1699 57.3394 0
749 2 19.2313 32.0505 0
750 1 54.8584 35.8069 0
751 1 59.6426 42.2709 0
752 2 0.41181 60.4499 0
753 1 48.3765 29.7142 0
754 2 15.0145 25.3824 0
755 1 20.4815 59.2639 0
756 2 46.1486 72.9014 0
757 1 47.446 17.3017 0
758 1 76.3003 8.29904 0
759 1 55.0498 44.2482 0
760 1 4.31044 10.8016 0
761 1 0.173596 1.0146 0
762 1 12.9161 64.5603 0
763 2 70.6485 11.7523 0
764 1 4.83835 52.5089 0
765 2 59.6789 53.9686 0
766 1 74.1163 16.5133 0
767 1 5.26215 1.228 0
768 1 67.963 13.9672 0
769 1 59.7947 45.7081 0
770 2 59.1248 68.7209 0
771 1 18.6937 45.2696 0
772 1 44.2613 49.1026 0
773 1 49.1978 46.0193 0
774 2 38.9417 28.0947 0
775 1 72.3909 34.844 0
776 2 42.2738 45.6763 0
777 1 6.87472 48.1056 0
778 2 1.61115 66.9403 0
779 1 39.1735 14.3698 0
780 1 26.8429 7.06708 0
781 1 40.6288 31.7327 0
782 1 60.8723 60.6903 0
783 1 56.5522 39.84 0
784 1 73.8395 46.7305 0
785 2 5.42436 12.9938 0
786 1 65.083 51.2366 0
787 1 23.5917 61.9017 0
788 1 45.96 57.6828 0
789 1 2.80756 74.5939 0
790 1 48.6109 66.3769 0
791 1 56.2704 5.2508 0
792 1 2.22749 39.275 0
793 1 13.6811 22.7571 0
794 2 76.06 3.95649 0
795 2 1.68476 10.9907 0
796 2 67.4084 75.4943 0
797 1 51.0581 55.4172 0
798 1 35.1155 28.0396 0
799 1 32.3415 68.6361 0
800 1 22.0265 68.3734 0
801 2 5.75803 33.4258 0
802 2 13.9455 44.1262 0
803 2 25.8751 0.950894 0
804 2 57.8169 38.7092 0
805 1 14.1266 3.08727 0
806 1 63.0393 65.6055 0
807 2 23.9717 66.6736 0
808 1 46.1613 38.1355 0
809 2 25.803 64.3748 0
810 1 60.4685 11.5764 0
811 1 33.1844 53.9977 0
812 2 71.8655 52.69 0
813 2 53.6777 51.6063 0
814 1 58.4523 33.5259 0
815 2 42.8884 12.8088 0
816 1 28.4553 44.7105 0
817 1 57.1668 74.8159 0
818 2 42.7475 9.24481 0
819 2 50.4174 56.5346 0
820 1 62.4309 69.2727 0
821 1 24.7935 70.8125 0
822 1 46.2466 75.7676 0
823 1 5.88713 61.9179 0
824 2 37.1979 47.4981 0
825 1 35.0037 43.002 0
826 1 26.4769 3.99524 0
827 1 8.4234 34.4331 0
828 1 6.61444 61.2144 0
829 1 74.5668 36.2643 0
830 2 42.1604 69.2402 0
831 2 57.0335 3.80227 0
832 1 67.8287 1.92959 0
833 1 26.1038 61.5988 0
834 2 42.0144 4.17047 0
835 1 59.0352 2.39054 0
836 1 59.5962 21.8636 0
837 1 49.3063 30.2636 0
838 1 46.3227 52.3742 0
839 1 17.4216 76.1239 0
840 2 5.92638 53.8924 0
841 1 30.1217 46.9924 0
842 2 19.6241 56.5382 0
843 1 7.51915 54.2243 0
844 1 74.1946 23.3112 0
845 2 35.5901 4.96747 0
846 1 52.3538 43.4551 0
847 1 76.7523 56.0415 0
848 2 66.24 47.8961 0
849 1 70.3812 15.5202 0
850 1 61.5771 17.7413 0
851 1 34.1808 21.0587 0
852 1 11.4472 1.26057 0
853 1 44.6467 64.9642 0
854 1 33.205 61.8319 0
855 1 51.449 22.4421 0
856 2 15.8119 37.4963 0
857 1 56.8382 19.0869 0
858 2 28.5102 33.8233 0
859 1 12.6364 74.2698 0
860 2 62.5913 49.1249 0
861 2 67.1708 46.3296 0
862 2 4.35056 58.7797 0
863 1 55.722 19.5935 0
864 1 67.4277 56.406 0
865 2 72.9119 64.0676 0
866 1 60.093 15.9906 0
867 2 35.32 19.5241 0
868 1 45.7724 56.5806 0
869 1 71.6132 25.0556 0
870 1 9.37906 53.8304 0
871 1 70.1802 25.1398 0
872 1 40.5484 43.1706 0
873 1 47.7981 68.7718 0
874 1 9.97523 73.0178 0
875 1 40.486 61.2258 0
876 2 39.2608 2.01367 0
877 1 14.9749 65.3706 0
878 2 20.8933 20.1493 0
879 1 72.9212 21.824 0
880 2 31.0132 32.8001 0
881 2 51.5242 17.3748 0
882 2 42.9805 64.6048 0
883 1 34.5039 14.1471 0
884 1 56.9275 35.0798 0
885 1 29.4539 77.1846 0
886 1 45.7244 49.8166 0
887 2 44.0133 45.6079 0
888 1 75.5994 11.7277 0
889 2 52.1759 42.5413 0
890 2 8.44108 24.7874 0
891 1 34.012 8.23099 0
892 1 27.5477 67.5759 0
893 1 28.0483 57.1972 0
894 1 0.488952 13.2597 0
895 2 45.5182 63.3324 0
896 1 32.6625 73.4359 0
897 2 37.4524 24.963 0
898 1 36.667 39.2991 0
899 1 72.9007 66.9381 0
900 2 47.4364 6.32791 0
901 1 39.5678 37.0965 0
902 1 32.798 2.44661 0
903 1 26.5666 50.8978 0
904 2 1.23173 26.9505 0
905 1 58.7225 57.5311 0
906 1 67.579 43.615 0
907 1 11.7575 19.8877 0
908 1 63.1802 21.9777 0
909 1 5.15077 62.903 0
910 2 3.29547 54.2299 0
911 2 4.84335 72.7955 0
912 2 37.561 21.5753 0
913 2 33.1739 43.9564 0
914 1 16.7123 20.4987 0
915 2 61.9133 1.26676 0
916 1 10.1492 43.6831 0
917 2 3.16909 30.1592 0
918 2 15.3838 38.9873 0
919 1 17.7181 61.6272 0
920 1 12.2583 49.8902 0
921 1 74.2764 35.2712 0
922 2 53.4995 15.2838 0
923 2 10.8793 20.2939 0
924 1 41.4944 15.2035 0
925 1 67.6835 41.3282 0
926 2 41.5446 32.812 0
927 1 69.3627 70.7162 0
928 1 45.0898 58.2385 0
929 2 57.4847 33.2432 0
930 2 16.0588 24.0475 0
931 1 53.2654 52.3488 0
932 1 67.6649 31.7423 0
933 1 32.4653 22.6645 0
934 1 12.5756 71.2978 0
935 1 13.235 56.4067 0
936 2 45.7626 77.0201 0
937 1 5.78953 4.29103 0
938 1 37.3886 75.0321 0
939 2 52.5965 47.011 0
940 1 2.2228 43.6179 0
941 1 6.24163 19.3693 0
942 1 42.6847 18.7955 0
943 2 18.4609 13.6357 0
944 2 3.7909 50.9978 0
945 1 42.6002 25.1521 0
946 1 69.8531 64.9019 0
947 2 25.5535 5.47478 0
948 1 25.0311 65.084 0
949 1 36.0066 15.7749 0
950 2 14.6538 4.64009 0
951 1 75.0012 61.4013 0
952 2 51.2783 0.0768708 0
953 2 5.23322 41.6766 0
954 2 24.6705 60.4248 0
955 1 25.8446 45.7742 0
956 2 70.604 29.9927 0
957 1 54.8912 14.4721 0
958 2 24.4502 4.18762 0
959 2 2.89412 26.6649 0
960 2 33.2483 63.6967 0
961 1 44.6749 50.5358 0
962 1 22.8326 12.4273 0
963 1 19.7796 10.5743 0
964 2 14.5304 14.4615 0
965 2 55.5761 57.9675 0
966 1 0.122711 57.4834 0
967 1 47.5168 30.3921 0
968 1 24.1258 72.3516 0
969 1 60.7583 20.7378 0
970 2 25.0285 12.1811 0
971 1 29.2081 17.4396 0
972 1 9.78836 30.8396 0
973 1 75.2391 38.9838 0
974 2 73.5574 33.8898 0
975 2 1.56194 65.6595 0
976 2 37.6531 22.8298 0
977 1 39.0189 54.9937 0
978 2 73.0979 9.47497 0
979 2 37.2031 60.1743 0
980 1 1.38519 7.09518 0
981 1 71.6702 53.5372 0
982 1 14.766 54.0245 0
983 1 20.6647 10.05 0
984 1 7.72864 65.5673 0
985 1 40.3631 12.0175 0
986 1 37.5652 50.845 0
987 2 15.3945 28.0304 0
988 2 38.6647 31.4852 0
989 2 4.81418 30.9338 0
990 2 1.07352 53.8442 0
991 2 52.5524 11.0795 0
992 1 73.8847 37.8036 0
993 2 32.5872 16.3597 0
994 2 10.8292 68.5088 0
995 1 29.763 26.424 0
996 2 55.5147 64.6469 0
997 2 43.3554 19.2265 0
998 2 53.0338 77.1155 0
999 2 44.3916 13.518 0
1000 2 1.01073 57.586 0
1001 1 33.9926 68.1138 0
1002 1 28.6665 41.9949 0
1003 1 9.43995 55.9251 0
1004 1 7.16462 16.2931 0
1005 2 15.5624 22.5174 0
1006 2 60.5772 53.876 0
1007 1 17.6611 24.7568 0
1008 1 50.5754 18.0281 0
1009 1 33.2531 32.0426 0
1010 1 11.2306 45.7977 0
1011 2 12.0482 31.7782 0
1012 2 8.77575 18.7855 0
1013 2 59.9231 63.3307 0
1014 1 0.0669238 9.83646 0
1015 1 67.6872 20.9673 0
1016 1 45.6755 53.1815 0
1017 2 6.90584 47.131 0
1018 1 33.5102 42.1574 0
1019 1 46.6936 32.329 0
1020 2 37.3279 11.8437 0
1021 2 22.7731 20.3557 0
1022 1 9.65811 66.3967 0
1023 1 33.088 4.5168 0
1024 1 11.86 75.0012 0
1025 1 44.7202 69.4707 0
1026 1 0.800243 51.9773 0
1027 1 40.8587 67.8366 0
1028 1 8.19486 36.5035 0
1029 1 45.6332 21.1676 0
1030 2 48.7564 51.598 0
1031 2 45.6634 38.8787 0
1032 1 9.03046 70.7224 0
1033 1 62.7616 34.8637 0
1034 1 49.1286 26.3649 0
1035 1 67.4429 27.513 0
1036 2 63.6677 47.594 0
1037 1 40.6378 75.1279 0
1038 1 73.2545 63.1938 0
1039 1 8.78827 21.7591 0
1040 2 64.6791 41.4805 0
1041 1 16.9062 69.3888 0
1042 2 59.6016 57.5409 0
1043 2 62.13 66.4479 0
1044 1 3.78565 23.2922 0
1045 1 76.3039 31.1447 0
1046 1 35.8204 65.1029 0
1047 2 9.21749 46.519 0
1048 1 40.8333 76.1951 0
1049 1 6.07934 38.4163 0
1050 2 60.1532 12.5563 0
1051 1 49.6942 24.6271 0
1052 1 64.7318 43.8975 0
1053 2 29.3902 18.4184 0
1054 1 48.0415 0.24375 0
1055 2 25.6455 46.7917 0
1056 2 15.6044 41.8342 0
1057 1 18.6687 77.4053 0
1058 1 36.6097 73.3755 0
1059 1 8.93292 72.7362 0
1060 2 22.0089 35.4245 0
1061 1 16.5772 17.5087 0
1062 2 13.379 36.6103 0
1063 1 1.47796 73.5644 0
1064 1 22.0281 5.50398 0
1065 2 41.2947 53.747 0
1066 1 32.2272 52.5626 0
1067 1 18.2785 8.39634 0
1068 2 36.4498 66.7148 0
1069 1 73.4047 34.6969 0
1070 2 10.5507 32.5761 0
1071 2 59.0822 50.4992 0
1072 2 3.40598 63.9346 0
1073 2 4.8586 8.82655 0
1074 2 36.2959 45.7852 0
1075 1 2.76066 44.5477 0
1076 1 29.4383 75.1065 0
1077 1 43.2991 33.4432 0
1078 2 63.9748 29.6594 0
1079 2 45.0849 5.0741 0
1080 2 22.3468 59.7154 0
1081 2 41.3124 41.5266 0
1082 2 10.2108 18.6638 0
1083 2 29.0175 13.078 0
1084 1 46.4032 50.6133 0
1085 1 30.7709 52.1212 0
1086 1 59.8209 65.7617 0
1087 1 42.8126 2.37363 0
1088 1 48.456 62.2 0
1089 2 4.96541 35.75 0
1090 1 41.5005 27.3929 0
1091 2 25.9138 15.9989 0
1092 1 59.0371 59.4249 0
1093 1 65.9853 34.4728 0
1094 2 41.5312 59.4655 0
1095 1 16.2949 76.3358 0
1096 2 49.4553 19.5621 0
1097 1 71.7361 22.9844 0
1098 1 65.6515 43.2653 0
1099 1 24.7319 67.0657 0
1100 1 74.6023 0.805808 0
1101 1 0.659096 25.0537 0
1102 1 26.642 1.22886 0
1103 1 47.2004 67.7642 0
1104 1 45.4873 51.5465 0
1105 1 53.717 41.8494 0
1106 1 13.9389 11.465 0
1107 2 48.1957 65.607 0
1108 1 56.6373 33.415 0
1109 1 71.5379 31.6557 0
1110 2 3.80314 16.0174 0
1111 1 71.0148 52.3151 0
1112 1 19.0773 16.3745 0
1113 2 71.9556 6.89252 0
1114 2 20.4461 49.7497 0
1115 2 38.3026 56.7528 0
1116 1 72.6146 53.1622 0
1117 1 68.2258 52.5958 0
1118 1 11.9748 4.56711 0
1119 2 14.0369 70.0445 0
1120 1 33.9671 54.7974 0
1121 2 17.0922 65.5733 0
1122 1 48.2869 36.1831 0
1123 2 20.6171 56.8227 0
1124 1 44.6199 56.5608 0
1125 2 18.9772 5.87694 0
1126 2 13.8129 18.4582 0
1127 1 11.2163 14.3013 0
1128 1 73.433 59.1076 0
1129 1 55.6337 43.0718 0
1130 1 27.4951 58.3005 0
1131 1 61.6714 21.3081 0
1132 2 2.38316 52.7312 0
1133 2 61.5409 20.3421 0
1134 2 12.44 5.32073 0
1135 1 69.4837 63.2792 0
1136 2 44.3082 17.787 0
1137 1 49.2408 59.4111 0
1138 1 34.4665 19.4621 0
1139 2 56.1259 45.8126 0
1140 2 4.117 25.9916 0
1141 1 70.4455 50.7571 0
1142 1 49.1802 48.6197 0
1143 1 54.102 46.8413 0
1144 2 70.2749 17.4809 0
1145 1 41.5289 58.5633 0
1146 1 9.81178 12.7312 0
1147 1 30.3477 23.8991 0
1148 1 10.2188 31.7704 0
1149 1 60.664 26.4752 0
1150 2 66.2289 53.0337 0
1151 1 32.6744 11.868 0
1152 1 54.9886 47.2079 0
1153 1 9.30224 27.0543 0
1154 1 14.3863 8.77359 0
1155 2 68.2422 13.0797 0
1156 1 61.8734 32.3531 0
1157 1 8.95156 17.1614 0
1158 2 59.9397 44.85 0
1159 2 69.883 76.4047 0
1160 1 23.7926 3.64404 0
1161 2 38.5133 60.8625 0
1162 1 14.3083 12.4137 0
1163 2 76.7591 6.49762 0
1164 1 28.8695 56.6124 0
1165 1 18.7225 47.3521 0
1166 2 20.9502 46.1891 0
1167 1 25.588 25.0425 0
1168 1 48.0993 73.1894 0
1169 1 15.9568 73.4633 0
1170 2 7.65418 28.2433 0
1171 1 49.3507 37.9067 0
1172 1 42.5925 7.43319 0
1173 1 47.966 61.2308 0
1174 1 43.3326 35.9543 0
1175 2 65.0572 48.5845 0
1176 1 68.2123 30.8284 0
1177 1 50.2249 64.1697 0
1178 2 54.5876 49.1378 0
1179 1 3.1933 38.7894 0
1180 1 53.4086 10.7364 0
1181 1 54.1443 32.5641 0
1182 1 51.6157 74.8229 0
1183 2 43.4233 60.9349 0
1184 2 27.2797 25.4151 0
1185 1 12.4229 66.2856 0
1186 1 43.4815 43.3962 0
1187 1 65.2957 70.4392 0
1188 2 8.47057 32.6949 0
1189 1 62.4608 61.4965 0
1190 1 34.6402 35.1183 0
1191 2 64.308 13.3392 0
1192 1 22.2172 50.6951 0
1193 1 42.8697 22.9504 0
1194 2 15.2073 18.5097 0
1195 1 70.1045 51.8433 0
1196 1 21.9717 53.5746 0
1197 1 46.4207 33.9709 0
1198 1 60.4815 72.9474 0
1199 2 55.5202 67.4868 0
1200 1 36.3899 11.9785 0
1201 1 0.123513 74.7558 0
1202 1 8.4526 62.0939 0
1203 2 53.0749 9.93055 0
1204 1 53.6045 59.1015 0
1205 1 67.802 54.7013 0
1206 1 49.7992 1.34342 0
1207 1 40.0861 55.1937 0
1208 1 70.5972 43.8577 0
1209 2 61.1708 59.9129 0
1210 1 54.1556 30.5848 0
1211 2 27.4653 46.8975 0
1212 1 25.3419 30.2771 0
1213 1 65.1896 69.4967 0
1214 1 76.4943 29.2057 0
1215 1 2.31251 1.13128 0
1216 1 10.4909 49.8018 0
1217 2 58.8692 74.066 0
1218 2 61.2437 18.6179 0
1219 1 25.7435 26.7945 0
1220 1 70.5261 19.8811 0
1221 1 65.2143 67.6141 0
1222 2 67.3904 69.9199 0
1223 1 54.0801 43.7637 0
1224 1 73.0541 37.0055 0
1225 1 12.6394 23.2398 0
1226 2 68.6678 67.5791 0
1227 1 39.5894 57.9811 0
1228 1 64.6369 66.0148 0
1229 2 52.5518 2.28114 0
1230 1 17.0432 38.6432 0
1231 2 57.6779 16.6367 0
1232 1 74.0465 43.1482 0
1233 1 34.9795 56.2436 0
1234 1 69.7224 69.7618 0
1235 1 11.6446 50.6875 0
1236 1 49.5043 69.209 0
1237 1 35.8211 21.0697 0
1238 1 36.5297 5.32133 0
1239 1 19.5854 27.6068 0
1240 1 28.1688 73.9888 0