ITEM: TIMESTEP
0
ITEM: NUMBER OF ATOMS
7200
ITEM: BOX BOUNDS xy xz yz pp pp pp
0.0000000000000000e+00 2.1900000000000000e+02 0.0000000000000000e+00
0.0000000000000000e+00 2.1900000000000000e+02 0.0000000000000000e+00
-3.6499999999999999e-01 3.6499999999999999e-01 0.0000000000000000e+00
ITEM: ATOMS id type x y z
1 1 67.634 134.518 -5.55112e-17
2 1 183.314 108.632 -5.55112e-17
3 1 13.6463 158.392 -5.55112e-17
4 1 3.46522 86.4234 -5.55112e-17
5 1 215.764 157.196 -5.55112e-17
6 1 117.229 210.666 -5.55112e-17
7 1 42.2208 51.4805 -5.55112e-17
8 2 149.009 83.2357 -5.55112e-17
9 1 203.422 9.46058 -5.55112e-17
10 2 58.0886 193.354 -5.55112e-17
11 1 114.612 14.9535 -5.55112e-17
12 1 129.134 78.0784 -5.55112e-17
13 2 51.1657 79.3077 -5.55112e-17
14 1 65.3193 18.0179 -5.55112e-17
15 1 136.872 105.466 -5.55112e-17
16 2 60.8483 172.51 -5.55112e-17
17 1 114.04 31.0356 -5.55112e-17
18 2 31.4993 78.3555 -5.55112e-17
19 1 106.393 52.5897 -5.55112e-17
20 1 144.153 103.609 -5.55112e-17
21 1 42.014 5.1976 -5.55112e-17
22 2 49.8223 147.876 -5.55112e-17
23 2 17.3259 54.3664 -5.55112e-17
24 1 159.226 99.4358 -5.55112e-17
25 1 75.8071 183.134 -5.55112e-17
26 2 86.5013 97.0978 -5.55112e-17
27 1 155.801 174.191 -5.55112e-17
28 2 22.6494 156.526 -5.55112e-17
29 1 53.1123 46.6847 -5.55112e-17
30 1 139.533 88.0108 -5.55112e-17
31 1 211.329 90.599 -5.55112e-17
32 1 58.0934 104.542 -5.55112e-17
33 1 157.614 154.254 -5.55112e-17
34 1 61.1048 77.8012 -5.55112e-17
35 1 177.191 68.6732 -5.55112e-17
36 1 61.568 75.2745 -5.55112e-17
37 2 136.366 140.537 -5.55112e-17
38 1 197.784 74.2275 -5.55112e-17
39 1 122.426 138.214 -5.55112e-17
40 1 165.991 163.685 -5.55112e-17
41 1 120.927 182.192 -5.55112e-17
42 1 102.767 36.543 -5.55112e-17
43 1 135.397 61.0696 -5.55112e-17
44 1 107.168 23.6002 -5.55112e-17
45 1 214.616 84.7783 -5.55112e-17
46 1 28.1739 203.56 -5.55112e-17
47 1 88.971 172.434 -5.55112e-17
48 2 47.4337 86.227 -5.55112e-17
49 1 77.0729 110.764 -5.55112e-17
50 1 46.2459 197.801 -5.55112e-17
51 1 181.267 34.3622 -5.55112e-17
52 1 203.958 132.386 -5.55112e-17
53 1 156.589 27.2275 -5.55112e-17
54 1 24.408 119.269 -5.55112e-17
55 1 22.8301 48.1277 -5.55112e-17
56 1 117.751 140.164 -5.55112e-17
57 2 68.1369 214.567 -5.55112e-17
58 1 32.6917 40.4952 -5.55112e-17
59 1 28.7672 151.943 -5.55112e-17
60 2 152.102 147.07 -5.55112e-17
61 2 35.8782 202.829 -5.55112e-17
62 1 10.5416 162.198 -5.55112e-17
63 1 112.073 198.12 -5.55112e-17
64 1 133.603 39.4577 -5.55112e-17
65 1 213.932 114.203 -5.55112e-17
66 1 129.016 134.283 -5.55112e-17
67 1 95.9621 140.015 -5.55112e-17
68 1 66.7626 116.674 -5.55112e-17
69 1 141.182 174.031 -5.55112e-17
70 1 59.0396 111.202 -5.55112e-17
71 1 7.55104 125.729 -5.55112e-17
72 1 171.471 60.6795 -5.55112e-17
73 1 187.643 185.632 -5.55112e-17
74 1 207.15 21.5212 -5.55112e-17
75 2 93.7779 1.65671 -5.55112e-17
76 1 17.809 4.72671 -5.55112e-17
77 1 36.493 23.9716 -5.55112e-17
78 1 124.586 117.517 -5.55112e-17
79 2 126.548 1.09302 -5.55112e-17
80 1 75.3149 106.495 -5.55112e-17
81 1 110.708 141.069 -5.55112e-17
82 1 53.8333 141.71 -5.55112e-17
83 2 129.826 182.322 -5.55112e-17
84 1 179.707 80.4612 -5.55112e-17
85 1 22.2039 41.111 -5.55112e-17
86 1 128.189 142.254 -5.55112e-17
87 1 217.423 216.955 -5.55112e-17
88 1 19.2649 34.9292 -5.55112e-17
89 2 44.1408 3.26527 -5.55112e-17
90 2 190.389 187.052 -5.55112e-17
91 1 149.283 90.6615 -5.55112e-17
92 2 168.953 21.3308 -5.55112e-17
93 1 141.779 15.368 -5.55112e-17
94 2 202.168 12.2729 -5.55112e-17
95 1 33.4086 194.999 -5.55112e-17
96 1 130.479 95.5249 -5.55112e-17
97 1 97.4673 5.14525 -5.55112e-17
98 1 125.255 55.3042 -5.55112e-17
99 1 178.345 21.4267 -5.55112e-17
100 1 176.14 8.76152 -5.55112e-17
101 1 114.557 12.5362 -5.55112e-17
102 1 24.537 46.0942 -5.55112e-17
103 1 57.8984 80.9195 -5.55112e-17
104 1 69.3443 109.101 -5.55112e-17
105 1 142.375 201.535 -5.55112e-17
106 1 78.1783 102.905 -5.55112e-17
107 2 146.308 101.518 -5.55112e-17
108 1 36.3622 210.411 -5.55112e-17
109 1 54.3676 89.0437 -5.55112e-17
110 1 107.761 63.2572 -5.55112e-17
111 1 60.9903 20.956 -5.55112e-17
112 1 95.0783 137.564 -5.55112e-17
113 1 98.9724 43.7962 -5.55112e-17
114 1 158.48 23.0738 -5.55112e-17
115 1 51.2585 162.962 -5.55112e-17
116 2 214.42 133.881 -5.55112e-17
117 1 201.546 216.071 -5.55112e-17
118 1 164.932 68.1519 -5.55112e-17
119 2 57.8114 98.9499 -5.55112e-17
120 1 53.1923 199.398 -5.55112e-17
121 1 152.096 83.8952 -5.55112e-17
122 1 103.046 14.7943 -5.55112e-17
123 1 136.719 75.817 -5.55112e-17
124 1 154.852 201.409 -5.55112e-17
125 1 141.43 117.499 -5.55112e-17
126 1 111.42 65.4848 -5.55112e-17
127 1 163.579 78.2063 -5.55112e-17
128 1 175.597 136.483 -5.55112e-17
129 1 7.68021 104.328 -5.55112e-17
130 1 83.7177 129.145 -5.55112e-17
131 1 176.048 152.554 -5.55112e-17
132 2 183.419 1.96765 -5.55112e-17
133 1 127.311 79.6651 -5.55112e-17
134 1 35.2721 86.0282 -5.55112e-17
135 1 78.1762 8.38988 -5.55112e-17
136 1 210.626 201.498 -5.55112e-17
137 1 102.056 136.853 -5.55112e-17
138 1 50.7367 212.095 -5.55112e-17
139 1 202.448 105.537 -5.55112e-17
140 2 141.964 186.059 -5.55112e-17
141 1 205.523 96.6134 -5.55112e-17
142 2 211.921 49.158 -5.55112e-17
143 1 111.15 80.8043 -5.55112e-17
144 2 43.5722 199.222 -5.55112e-17
145 1 172.275 103.003 -5.55112e-17
146 1 100.091 120.353 -5.55112e-17
147 1 154.837 145.75 -5.55112e-17
148 1 6.88742 200.666 -5.55112e-17
149 1 68.0741 21.5207 -5.55112e-17
150 1 54.0597 37.2225 -5.55112e-17
151 1 26.2463 112.681 -5.55112e-17
152 1 63.5244 104.848 -5.55112e-17
153 2 52.4112 6.02678 -5.55112e-17
154 1 149.09 94.9327 -5.55112e-17
155 1 107.683 16.9195 -5.55112e-17
156 2 71.8274 116.429 -5.55112e-17
157 1 207.512 104.957 -5.55112e-17
158 1 29.1369 28.91 -5.55112e-17
159 1 22.4111 135.709 -5.55112e-17
160 1 12.2148 201.137 -5.55112e-17
161 1 1.50529 7.67122 -5.55112e-17
162 1 127.319 127.448 -5.55112e-17
163 1 17.826 32.6815 -5.55112e-17
164 1 166.975 52.8976 -5.55112e-17
165 1 125.317 122.093 -5.55112e-17
166 2 159.464 60.7691 -5.55112e-17
167 1 175.166 46.744 -5.55112e-17
168 1 149.316 169.354 -5.55112e-17
169 1 1.89486 101.825 -5.55112e-17
170 1 95.1746 168.662 -5.55112e-17
171 1 146.654 60.9222 -5.55112e-17
172 1 218.869 17.3025 -5.55112e-17
173 1 46.052 143.244 -5.55112e-17
174 1 131.141 62.7099 -5.55112e-17
175 2 137.231 160.931 -5.55112e-17
176 1 109.785 70.8168 -5.55112e-17
177 2 70.408 56.929 -5.55112e-17
178 1 65.5645 87.0833 -5.55112e-17
179 1 173.335 163.798 -5.55112e-17
180 1 203.488 196.827 -5.55112e-17
181 1 135.04 167.589 -5.55112e-17
182 2 77.5297 20.9983 -5.55112e-17
183 1 76.9444 164.266 -5.55112e-17
184 1 176.282 86.6375 -5.55112e-17
185 2 175.572 20.565 -5.55112e-17
186 2 208.9 133.922 -5.55112e-17
187 1 93.1356 29.1412 -5.55112e-17
188 1 102.734 170.515 -5.55112e-17
189 1 123.68 174.683 -5.55112e-17
190 2 13.442 161.402 -5.55112e-17
191 1 77.5753 157.454 -5.55112e-17
192 2 63.7181 109.926 -5.55112e-17
193 2 80.0649 172.624 -5.55112e-17
194 1 32.9942 149.569 -5.55112e-17
195 1 145.24 163.341 -5.55112e-17
196 1 168.501 191.77 -5.55112e-17
197 1 74.2746 69.976 -5.55112e-17
198 2 9.89428 132.89 -5.55112e-17
199 1 210.794 56.9511 -5.55112e-17
200 1 80.2529 6.88321 -5.55112e-17
201 2 71.8625 110.271 -5.55112e-17
202 1 52.8051 210.584 -5.55112e-17
203 1 175.377 81.5002 -5.55112e-17
204 1 188.511 156.517 -5.55112e-17
205 2 191.81 82.437 -5.55112e-17
206 1 89.4931 133.202 -5.55112e-17
207 1 105.885 30.1374 -5.55112e-17
208 1 32.721 85.757 -5.55112e-17
209 1 81.8913 2.51087 -5.55112e-17
210 1 7.97399 64.5417 -5.55112e-17
211 2 146.52 156.418 -5.55112e-17
212 1 120.228 112.808 -5.55112e-17
213 1 134.667 104.293 -5.55112e-17
214 1 74.4024 14.2871 -5.55112e-17
215 1 74.4815 201.763 -5.55112e-17
216 1 193.773 138.936 -5.55112e-17
217 1 126.917 187.288 -5.55112e-17
218 2 28.5378 168.54 -5.55112e-17
219 1 155.58 213.555 -5.55112e-17
220 2 107.096 55.6201 -5.55112e-17
221 1 213.324 56.0814 -5.55112e-17
222 1 143.335 146.23 -5.55112e-17
223 1 52.5156 207.802 -5.55112e-17
224 2 10.0681 188.337 -5.55112e-17
225 1 201.582 142.18 -5.55112e-17
226 1 138.95 189.994 -5.55112e-17
227 2 51.1316 17.0843 -5.55112e-17
228 1 138.714 77.3593 -5.55112e-17
229 1 60.8612 135.558 -5.55112e-17
230 1 158.967 131.133 -5.55112e-17
231 1 148.309 122.897 -5.55112e-17
232 1 0.944599 90.8532 -5.55112e-17
233 1 109.886 100.396 -5.55112e-17
234 1 133.822 216.413 -5.55112e-17
235 1 21.1816 142.91 -5.55112e-17
236 1 45.8368 81.5113 -5.55112e-17
237 1 199.039 7.91285 -5.55112e-17
238 1 147.789 128.253 -5.55112e-17
239 2 17.695 112.174 -5.55112e-17
240 1 99.7859 6.07982 -5.55112e-17
241 2 187.759 14.5915 -5.55112e-17
242 2 198.567 36.8958 -5.55112e-17
243 2 114.643 27.9088 -5.55112e-17
244 1 97.6457 7.77914 -5.55112e-17
245 1 84.5585 59.182 -5.55112e-17
246 1 126.316 119.412 -5.55112e-17
247 1 210.768 98.8121 -5.55112e-17
248 1 94.8774 4.20841 -5.55112e-17
249 1 23.2206 65.5581 -5.55112e-17
250 2 149.739 29.9458 -5.55112e-17
251 1 153.5 212.11 -5.55112e-17
252 1 195.414 64 -5.55112e-17
253 1 94.0831 61.2728 -5.55112e-17
254 2 77.0332 197.367 -5.55112e-17
255 1 212.344 148.966 -5.55112e-17
256 1 84.7433 165.68 -5.55112e-17
257 1 211.974 151.536 -5.55112e-17
258 2 164.114 27.7952 -5.55112e-17
259 1 58.3243 165.682 -5.55112e-17
260 1 127.453 11.5972 -5.55112e-17
261 1 185.049 13.8163 -5.55112e-17
262 1 53.2019 52.4516 -5.55112e-17
263 1 12.7164 213.744 -5.55112e-17
264 1 172.637 43.0369 -5.55112e-17
265 1 166.422 22.6792 -5.55112e-17
266 1 155.517 9.69616 -5.55112e-17
267 1 2.82146 64.5887 -5.55112e-17
268 1 21.6468 35.4863 -5.55112e-17
269 1 125.891 95.0044 -5.55112e-17
270 1 141.12 106.659 -5.55112e-17
271 1 12.4494 92.4888 -5.55112e-17
272 1 159.259 202.053 -5.55112e-17
273 1 40.637 168.879 -5.55112e-17
274 2 113.111 87.9786 -5.55112e-17
275 1 64.1587 5.09718 -5.55112e-17
276 2 53.7329 32.1159 -5.55112e-17
277 2 167.276 121.933 -5.55112e-17
278 1 38.7182 100.58 -5.55112e-17
279 2 109.897 205.097 -5.55112e-17
280 1 60.0392 31.8603 -5.55112e-17
281 1 147.189 28.7453 -5.55112e-17
282 1 164.788 8.07901 -5.55112e-17
283 1 113.283 141.7 -5.55112e-17
284 1 136.608 165.651 -5.55112e-17
285 1 35.8874 12.3279 -5.55112e-17
286 2 34.0543 214.97 -5.55112e-17
287 1 82.5339 135.504 -5.55112e-17
288 1 21.4351 57.4044 -5.55112e-17
289 1 71.4709 54.0538 -5.55112e-17
290 1 150.778 193.453 -5.55112e-17
291 1 158.707 144.871 -5.55112e-17
292 2 19.8082 181.141 -5.55112e-17
293 2 65.7472 194.427 -5.55112e-17
294 1 112.05 40.5396 -5.55112e-17
295 1 124.754 48.0556 -5.55112e-17
296 1 134.891 41.7614 -5.55112e-17
297 1 118.848 145.229 -5.55112e-17
298 1 105.016 198.886 -5.55112e-17
299 1 160.495 106.46 -5.55112e-17
300 2 62.2061 95.0069 -5.55112e-17
301 1 58.7695 46.0955 -5.55112e-17
302 1 127.126 192.979 -5.55112e-17
303 2 198.675 59.8741 -5.55112e-17
304 2 144.941 129.785 -5.55112e-17
305 1 86.3199 99.9262 -5.55112e-17
306 1 50.9156 73.5542 -5.55112e-17
307 1 35.0584 122.198 -5.55112e-17
308 1 161.688 59.022 -5.55112e-17
309 2 72.9379 184.45 -5.55112e-17
310 1 194.638 215.576 -5.55112e-17
311 1 79.8141 33.8949 -5.55112e-17
312 1 192.366 147.923 -5.55112e-17
313 2 147.383 66.218 -5.55112e-17
314 1 52.1575 135.356 -5.55112e-17
315 1 111.427 150.654 -5.55112e-17
316 1 72.4999 1.1733 -5.55112e-17
317 1 13.6786 99.3916 -5.55112e-17
318 1 100.085 215.126 -5.55112e-17
319 1 50.8732 33.4098 -5.55112e-17
320 1 144.12 99.5477 -5.55112e-17
321 1 88.6457 203.952 -5.55112e-17
322 1 143.206 140.727 -5.55112e-17
323 1 188.048 107.918 -5.55112e-17
324 1 81.2375 26.9945 -5.55112e-17
325 1 162.949 139.375 -5.55112e-17
326 1 85.2323 151.891 -5.55112e-17
327 2 149.791 186.153 -5.55112e-17
328 1 167.977 40.3485 -5.55112e-17
329 2 47.3896 115.491 -5.55112e-17
330 1 23.9123 101.845 -5.55112e-17
331 1 174.72 176.012 -5.55112e-17
332 2 112.491 104.531 -5.55112e-17
333 1 44.3227 17.6834 -5.55112e-17
334 1 139.845 168.845 -5.55112e-17
335 1 12.5032 206.388 -5.55112e-17
336 1 212.585 106.448 -5.55112e-17
337 1 103.315 182.256 -5.55112e-17
338 1 159.449 57.7947 -5.55112e-17
339 1 109.599 217.433 -5.55112e-17
340 1 153.699 141.519 -5.55112e-17
341 1 160.47 158.509 -5.55112e-17
342 1 128.686 144.85 -5.55112e-17
343 1 127.555 29.2712 -5.55112e-17
344 1 63.6732 181.96 -5.55112e-17
345 1 60.9445 109.621 -5.55112e-17
346 1 9.30245 127.555 -5.55112e-17
347 1 92.1578 92.6707 -5.55112e-17
348 1 164.093 179.073 -5.55112e-17
349 1 193.472 75.2413 -5.55112e-17
350 2 89.7348 40.8047 -5.55112e-17
351 1 154.975 65.9417 -5.55112e-17
352 1 60.9881 182.752 -5.55112e-17
353 1 39.2913 166.326 -5.55112e-17
354 1 167.858 161.422 -5.55112e-17
355 1 58.8255 156.67 -5.55112e-17
356 1 23.9423 36.3376 -5.55112e-17
357 1 62.7872 158.924 -5.55112e-17
358 1 172.088 180.583 -5.55112e-17
359 1 157.876 158.767 -5.55112e-17
360 1 74.0478 53.5494 -5.55112e-17
361 1 63.2482 168.137 -5.55112e-17
362 1 169.159 200.969 -5.55112e-17
363 1 163.458 189.945 -5.55112e-17
364 2 116.426 92.5906 -5.55112e-17
365 1 178.864 90.4309 -5.55112e-17
366 1 117.668 161.14 -5.55112e-17
367 1 174.2 6.97475 -5.55112e-17
368 1 196.963 192.318 -5.55112e-17
369 2 115.53 188.18 -5.55112e-17
370 1 15.1811 205.899 -5.55112e-17
371 1 53.9728 137.129 -5.55112e-17
372 2 0.136734 93.9532 -5.55112e-17
373 2 212.928 7.83218 -5.55112e-17
374 1 150.944 88.7058 -5.55112e-17
375 1 37.3303 111.578 -5.55112e-17
376 1 16.1971 152.883 -5.55112e-17
377 1 28.7895 213.225 -5.55112e-17
378 1 74.6087 129.578 -5.55112e-17
379 1 42.8034 60.6665 -5.55112e-17
380 1 177.947 150.893 -5.55112e-17
381 1 13.5813 5.64282 -5.55112e-17
382 1 54.168 67.3429 -5.55112e-17
383 1 169.598 67.441 -5.55112e-17
384 1 21.7997 13.915 -5.55112e-17
385 1 191.649 76.8997 -5.55112e-17
386 2 82.0656 44.5302 -5.55112e-17
387 1 144.219 19.11 -5.55112e-17
388 1 56.6265 43.8097 -5.55112e-17
389 1 206.581 158.966 -5.55112e-17
390 2 207.211 179.521 -5.55112e-17
391 2 35.7373 40.1838 -5.55112e-17
392 1 41.6101 218.176 -5.55112e-17
393 1 0.404274 33.4913 -5.55112e-17
394 1 102.409 101.325 -5.55112e-17
395 1 16.3088 27.2907 -5.55112e-17
396 1 202.916 153.606 -5.55112e-17
397 1 100.979 16.3834 -5.55112e-17
398 1 11.521 191.068 -5.55112e-17
399 1 19.3289 59.3006 -5.55112e-17
400 1 103.517 179.724 -5.55112e-17
401 1 87.9832 176.866 -5.55112e-17
402 2 191.342 178.777 -5.55112e-17
403 1 214.478 53.8962 -5.55112e-17
404 1 36.0572 71.4898 -5.55112e-17
405 1 204.274 29.2151 -5.55112e-17
406 1 201.076 68.1566 -5.55112e-17
407 2 19.1096 62.5961 -5.55112e-17
408 1 34.2287 35.4027 -5.55112e-17
409 1 169.161 129.134 -5.55112e-17
410 1 20.3245 154.747 -5.55112e-17
411 1 152.009 160.367 -5.55112e-17
412 1 115.178 215.22 -5.55112e-17
413 1 63.6862 156.291 -5.55112e-17
414 1 38.3133 13.6459 -5.55112e-17
415 1 207.991 148.23 -5.55112e-17
416 1 72.1533 200.216 -5.55112e-17
417 1 141.137 94.1807 -5.55112e-17
418 2 184.527 7.40188 -5.55112e-17
419 1 108.746 150.09 -5.55112e-17
420 2 136.578 109.013 -5.55112e-17
421 1 87.9728 104.153 -5.55112e-17
422 1 176.282 23.4895 -5.55112e-17
423 2 158.1 41.1567 -5.55112e-17
424 1 157.356 149.162 -5.55112e-17
425 1 129.373 167.124 -5.55112e-17
426 1 133.185 112.811 -5.55112e-17
427 1 45.3703 84.1189 -5.55112e-17
428 1 71.5038 191.969 -5.55112e-17
429 1 194.559 83.1836 -5.55112e-17
430 1 215.21 60.081 -5.55112e-17
431 1 120.395 206.841 -5.55112e-17
432 1 161.611 53.7526 -5.55112e-17
433 1 105.151 153.952 -5.55112e-17
434 1 71.6186 30.3391 -5.55112e-17
435 1 178.236 161.705 -5.55112e-17
436 1 44.5113 36.2434 -5.55112e-17
437 1 175.569 109.494 -5.55112e-17
438 2 109.645 21.8063 -5.55112e-17
439 1 67.3072 208.753 -5.55112e-17
440 1 3.46185 161.703 -5.55112e-17
441 1 192.826 131.439 -5.55112e-17
442 1 50.5438 13.7222 -5.55112e-17
443 1 158.257 104.658 -5.55112e-17
444 1 218.385 101.352 -5.55112e-17
445 1 139.674 7.52529 -5.55112e-17
446 1 131.69 78.8952 -5.55112e-17
447 1 39.0118 145.052 -5.55112e-17
448 1 75.7724 7.40542 -5.55112e-17
449 1 131.931 120.569 -5.55112e-17
450 1 139.692 187.795 -5.55112e-17
451 1 170.736 47.3013 -5.55112e-17
452 1 130.989 145.185 -5.55112e-17
453 1 179.121 182.06 -5.55112e-17
454 1 160.298 211.691 -5.55112e-17
455 1 100.047 71.9749 -5.55112e-17
456 1 167.179 27.0487 -5.55112e-17
457 1 97.9061 113.591 -5.55112e-17
458 1 198.276 0.16999 -5.55112e-17
459 1 81.2896 69.2952 -5.55112e-17
460 1 48.7768 102.31 -5.55112e-17
461 1 188.635 177.918 -5.55112e-17
462 1 181.951 116.153 -5.55112e-17
463 1 126.54 33.8037 -5.55112e-17
464 1 154.833 194.992 -5.55112e-17
465 1 122.029 159.92 -5.55112e-17
466 1 24.1192 213.693 -5.55112e-17
467 1 17.1215 79.7461 -5.55112e-17
468 1 161.375 218.362 -5.55112e-17
469 1 68.3151 77.859 -5.55112e-17
470 1 78.1218 38.2009 -5.55112e-17
471 1 129.008 174.667 -5.55112e-17
472 1 47.7658 83.1918 -5.55112e-17
473 1 26.205 102.546 -5.55112e-17
474 1 88.3976 101.613 -5.55112e-17
475 1 185.007 163.599 -5.55112e-17
476 2 192.373 11.7409 -5.55112e-17
477 1 53.6812 84.7687 -5.55112e-17
478 1 58.3027 126.005 -5.55112e-17
479 1 201.76 80.5424 -5.55112e-17
480 1 85.4284 23.6886 -5.55112e-17
481 1 14.7625 94.0529 -5.55112e-17
482 1 99.5576 160.1 -5.55112e-17
483 1 142.216 159.675 -5.55112e-17
484 2 87.457 46.0419 -5.55112e-17
485 1 33.6982 100.381 -5.55112e-17
486 1 81.7799 17.3935 -5.55112e-17
487 1 100.771 196.648 -5.55112e-17
488 1 5.82627 121.144 -5.55112e-17
489 1 211.764 135.066 -5.55112e-17
490 1 205.043 84.0138 -5.55112e-17
491 1 197.433 121.353 -5.55112e-17
492 1 2.7106 128.971 -5.55112e-17
493 1 193.918 210.545 -5.55112e-17
494 1 211.358 38.3907 -5.55112e-17
495 1 198.629 89.5261 -5.55112e-17
496 2 44.0001 189.559 -5.55112e-17
497 1 39.3042 216.762 -5.55112e-17
498 1 104.95 121.373 -5.55112e-17
499 2 136.831 216.716 -5.55112e-17
500 1 26.1936 29.814 -5.55112e-17
501 2 112.957 216.976 -5.55112e-17
502 2 123.634 143.326 -5.55112e-17
503 1 147.186 184.013 -5.55112e-17
504 1 113.223 148.841 -5.55112e-17
505 1 118.005 18.6798 -5.55112e-17
506 1 26.1807 121.629 -5.55112e-17
507 1 14.6307 129.781 -5.55112e-17
508 1 196.519 217.258 -5.55112e-17
509 2 27.0473 75.4076 -5.55112e-17
510 2 146.331 133.744 -5.55112e-17
511 1 196.159 35.267 -5.55112e-17
512 2 210.251 59.9419 -5.55112e-17
513 1 56.2855 127.529 -5.55112e-17
514 1 48.7381 18.8601 -5.55112e-17
515 1 204.359 24.9914 -5.55112e-17
516 1 182.462 205.856 -5.55112e-17
517 1 112.206 117.509 -5.55112e-17
518 2 103.481 20.5324 -5.55112e-17
519 1 11.6102 52.7958 -5.55112e-17
520 2 212.381 23.0936 -5.55112e-17
521 1 88.9803 111.168 -5.55112e-17
522 1 31.0554 30.4877 -5.55112e-17
523 1 24.6017 67.9882 -5.55112e-17
524 1 99.6268 74.7283 -5.55112e-17
525 1 174.966 121.189 -5.55112e-17
526 1 190.821 64.7012 -5.55112e-17
527 1 75.4607 4.72651 -5.55112e-17
528 1 168.89 28.9636 -5.55112e-17
529 1 57.2348 158.77 -5.55112e-17
530 1 100.337 31.8947 -5.55112e-17
531 1 66.4124 197.439 -5.55112e-17
532 1 206.552 187.801 -5.55112e-17
533 1 134.067 151.058 -5.55112e-17
534 1 97.5355 144.777 -5.55112e-17
535 1 14.4328 104.943 -5.55112e-17
536 1 203.665 117.699 -5.55112e-17
537 1 201.097 166.696 -5.55112e-17
538 1 168.541 81.0036 -5.55112e-17
539 1 89.3456 211.794 -5.55112e-17
540 1 102.673 88.9218 -5.55112e-17
541 1 40.6642 58.9765 -5.55112e-17
542 1 67.3641 211.375 -5.55112e-17
543 1 147.214 151.708 -5.55112e-17
544 1 128.901 200.586 -5.55112e-17
545 1 8.32338 149.606 -5.55112e-17
546 1 179.439 41.1961 -5.55112e-17
547 1 83.0721 172.237 -5.55112e-17
548 1 100.02 8.66326 -5.55112e-17
549 1 51.3242 76.3957 -5.55112e-17
550 2 162.539 121.645 -5.55112e-17
551 2 134.614 158.11 -5.55112e-17
552 2 94.0703 180.843 -5.55112e-17
553 1 122.093 42.7062 -5.55112e-17
554 1 73.8258 101.935 -5.55112e-17
555 2 66.1052 124.013 -5.55112e-17
556 1 148.487 21.7771 -5.55112e-17
557 1 76.5233 12.7476 -5.55112e-17
558 1 147.915 125.628 -5.55112e-17
559 1 187.809 47.2782 -5.55112e-17
560 1 131.561 51.3306 -5.55112e-17
561 1 146.762 168.779 -5.55112e-17
562 1 195.717 144.305 -5.55112e-17
563 2 167.984 113.866 -5.55112e-17
564 1 41.8021 66.9928 -5.55112e-17
565 1 60.181 10.4228 -5.55112e-17
566 1 75.1251 34.3588 -5.55112e-17
567 1 150.503 110.884 -5.55112e-17
568 1 22.2238 114.602 -5.55112e-17
569 1 114.643 185.325 -5.55112e-17
570 1 124.98 124.594 -5.55112e-17
571 1 175.415 203.56 -5.55112e-17
572 1 61.5021 112.162 -5.55112e-17
573 1 177.17 76.7671 -5.55112e-17
574 1 41.8314 130.477 -5.55112e-17
575 1 21.8454 76.176 -5.55112e-17
576 1 196.006 98.5429 -5.55112e-17
577 1 202.873 33.3137 -5.55112e-17
578 1 123.109 196.924 -5.55112e-17
579 1 15.7979 166.986 -5.55112e-17
580 1 103.133 139.331 -5.55112e-17
581 1 141.161 154.288 -5.55112e-17
582 1 75.9276 79.1869 -5.55112e-17
583 1 162.175 185.541 -5.55112e-17
584 2 29.0945 117.424 -5.55112e-17
585 1 48.7231 198.922 -5.55112e-17
586 1 137.981 170.826 -5.55112e-17
587 1 99.5555 104.913 -5.55112e-17
588 1 17.0978 1.87352 -5.55112e-17
589 1 103.323 17.4976 -5.55112e-17
590 1 70.2412 0.0993021 -5.55112e-17
591 1 215.398 162.106 -5.55112e-17
592 1 56.3524 156.1 -5.55112e-17
593 1 209.498 181.445 -5.55112e-17
594 1 181.588 180.881 -5.55112e-17
595 1 82.8857 39.9036 -5.55112e-17
596 1 65.7493 35.9762 -5.55112e-17
597 2 180.395 203.924 -5.55112e-17
598 1 167.397 211.414 -5.55112e-17
599 1 207.85 171.203 -5.55112e-17
600 1 104.76 10.6936 -5.55112e-17
601 1 11.9601 135.041 -5.55112e-17
602 1 97.9017 31.2849 -5.55112e-17
603 1 207.901 202.388 -5.55112e-17
604 1 121.039 1.72982 -5.55112e-17
605 2 85.3528 77.752 -5.55112e-17
606 1 102.961 201.987 -5.55112e-17
607 2 172.03 146.751 -5.55112e-17
608 1 94.85 76.8913 -5.55112e-17
609 1 15.8574 6.5112 -5.55112e-17
610 1 214.304 150.497 -5.55112e-17
611 1 201.822 190.132 -5.55112e-17
612 1 218.23 37.912 -5.55112e-17
613 1 59.2825 151.003 -5.55112e-17
614 2 127.969 179.532 -5.55112e-17
615 1 105.749 18.5979 -5.55112e-17
616 1 202.309 130.468 -5.55112e-17
617 1 127.46 198.518 -5.55112e-17
618 1 201.579 211.973 -5.55112e-17
619 1 179.181 78.1115 -5.55112e-17
620 1 141.15 142.08 -5.55112e-17
621 1 196.949 93.8199 -5.55112e-17
622 1 95.2273 213.968 -5.55112e-17
623 1 218.641 12.3112 -5.55112e-17
624 1 23.9061 209.221 -5.55112e-17
625 1 204.973 154.791 -5.55112e-17
626 1 94.0841 191.48 -5.55112e-17
627 1 63.8061 74.2279 -5.55112e-17
628 1 34.3015 27.9627 -5.55112e-17
629 1 10.0641 94.701 -5.55112e-17
630 2 151.293 22.108 -5.55112e-17
631 1 15.4848 86.3958 -5.55112e-17
632 1 49.1301 92.369 -5.55112e-17
633 1 38.8681 211.59 -5.55112e-17
634 1 1.3311 147.467 -5.55112e-17
635 1 155.316 150.748 -5.55112e-17
636 1 208.163 57.6444 -5.55112e-17
637 1 201.288 58.183 -5.55112e-17
638 1 172.713 76.7964 -5.55112e-17
639 2 203.775 78.4491 -5.55112e-17
640 1 143.306 152.389 -5.55112e-17
641 1 192.753 85.1134 -5.55112e-17
642 1 32.1364 91.6318 -5.55112e-17
643 2 182.105 42.7385 -5.55112e-17
644 1 68.7279 155.268 -5.55112e-17
645 1 106.71 196.826 -5.55112e-17
646 2 211.79 141.395 -5.55112e-17
647 1 11.1322 185.112 -5.55112e-17
648 1 132.257 103.213 -5.55112e-17
649 2 23.7128 150.789 -5.55112e-17
650 1 204.468 186.417 -5.55112e-17
651 1 218.373 113.314 -5.55112e-17
652 1 153.468 44.0043 -5.55112e-17
653 1 114.538 175.542 -5.55112e-17
654 1 23.2505 21.5357 -5.55112e-17
655 2 183.516 101.083 -5.55112e-17
656 1 30.2344 125.277 -5.55112e-17
657 2 79.3985 207.337 -5.55112e-17
658 1 54.1417 44.4336 -5.55112e-17
659 2 156.413 192.626 -5.55112e-17
660 1 102.115 55.5969 -5.55112e-17
661 1 42.7175 116.461 -5.55112e-17
662 1 81.601 130.559 -5.55112e-17
663 1 32.1555 25.5346 -5.55112e-17
664 1 146.402 17.7549 -5.55112e-17
665 1 140.12 75.3408 -5.55112e-17
666 2 48.0541 180.991 -5.55112e-17
667 1 93.2528 99.6389 -5.55112e-17
668 2 101.937 94.0487 -5.55112e-17
669 1 36.3 17.5457 -5.55112e-17
670 1 96.677 173.686 -5.55112e-17
671 2 53.8335 176.07 -5.55112e-17
672 1 186.896 11.8666 -5.55112e-17
673 1 63.1858 19.6572 -5.55112e-17
674 1 2.20288 31.7963 -5.55112e-17
675 1 128.563 23.7243 -5.55112e-17
676 1 169.508 123.829 -5.55112e-17
677 1 131.704 174.953 -5.55112e-17
678 1 137.634 30.9254 -5.55112e-17
679 2 152.443 33.1333 -5.55112e-17
680 1 202.961 41.6394 -5.55112e-17
681 2 129.425 119.267 -5.55112e-17
682 1 0.135871 47.6893 -5.55112e-17
683 1 68.6428 4.40108 -5.55112e-17
684 1 120.078 154.799 -5.55112e-17
685 1 153.082 38.9988 -5.55112e-17
686 1 27.9633 193.838 -5.55112e-17
687 1 118.534 192.131 -5.55112e-17
688 1 163.043 110.314 -5.55112e-17
689 2 56.0587 46.7454 -5.55112e-17
690 1 70.1866 19.9862 -5.55112e-17
691 1 89.4524 66.3583 -5.55112e-17
692 1 130.902 8.30596 -5.55112e-17
693 1 48.6303 143.176 -5.55112e-17
694 1 76.1977 125.252 -5.55112e-17
695 1 146.066 38.6225 -5.55112e-17
696 1 146.418 81.3068 -5.55112e-17
697 1 139.783 201.661 -5.55112e-17
698 1 116.574 66.205 -5.55112e-17
699 1 180.396 191.534 -5.55112e-17
700 1 205.939 209.232 -5.55112e-17
701 1 54.0866 16.9429 -5.55112e-17
702 1 113.469 129.163 -5.55112e-17
703 2 188.433 143.892 -5.55112e-17
704 1 29.1468 218.398 -5.55112e-17
705 2 68.9637 112.082 -5.55112e-17
706 1 165.98 177.121 -5.55112e-17
707 1 113.992 24.7582 -5.55112e-17
708 1 84.4638 209.386 -5.55112e-17
709 1 147.401 196.431 -5.55112e-17
710 1 192.359 191.63 -5.55112e-17
711 1 111.482 92.9754 -5.55112e-17
712 1 192.411 207.938 -5.55112e-17
713 1 14.2252 136.139 -5.55112e-17
714 1 136.078 13.1224 -5.55112e-17
715 1 55.9095 199.242 -5.55112e-17
716 1 40.2292 123.502 -5.55112e-17
717 1 51.6184 107.344 -5.55112e-17
718 1 130.916 185.204 -5.55112e-17
719 2 119.56 78.7955 -5.55112e-17
720 1 98.6817 64.8029 -5.55112e-17
721 1 95.5996 98.8184 -5.55112e-17
722 1 133.681 63.2486 -5.55112e-17
723 2 48.6567 45.6012 -5.55112e-17
724 1 15.4396 49.3229 -5.55112e-17
725 1 29.4465 108.916 -5.55112e-17
726 1 189.917 45.6061 -5.55112e-17
727 1 148.497 205.367 -5.55112e-17
728 2 18.2425 87.6018 -5.55112e-17
729 1 133.887 165.209 -5.55112e-17
730 1 174.214 199.013 -5.55112e-17
731 1 49.0141 190.236 -5.55112e-17
732 1 218.656 9.41529 -5.55112e-17
733 1 205.404 34.1428 -5.55112e-17
734 1 3.92147 30.0032 -5.55112e-17
735 1 41.0952 22.6968 -5.55112e-17
736 2 190.482 74.1865 -5.55112e-17
737 1 81.5484 86.7365 -5.55112e-17
738 1 20.044 165.413 -5.55112e-17
739 1 105.966 156.385 -5.55112e-17
740 1 59.6776 116.26 -5.55112e-17
741 2 189.042 78.1746 -5.55112e-17
742 1 74.4567 43.9078 -5.55112e-17
743 1 202.949 66.4394 -5.55112e-17
744 2 210.616 172.626 -5.55112e-17
745 1 131.119 31.9677 -5.55112e-17
746 1 14.2697 29.1982 -5.55112e-17
747 2 204.243 22.1889 -5.55112e-17
748 1 182.702 193.06 -5.55112e-17
749 1 196.538 211.089 -5.55112e-17
750 1 213.128 163.539 -5.55112e-17
751 1 59.4699 58.7533 -5.55112e-17
752 1 177.827 105.758 -5.55112e-17
753 1 99.4137 150.827 -5.55112e-17
754 1 15.0018 215.187 -5.55112e-17
755 1 83.2123 195.386 -5.55112e-17
756 2 103.602 196.077 -5.55112e-17
757 1 27.2972 18.263 -5.55112e-17
758 1 135.237 146.243 -5.55112e-17
759 1 73.0523 107.722 -5.55112e-17
760 1 95.0009 39.8497 -5.55112e-17
761 1 58.5151 161.202 -5.55112e-17
762 1 43.5559 23.5064 -5.55112e-17
763 1 114.025 99.5813 -5.55112e-17
764 2 177.856 147.983 -5.55112e-17
765 1 91.8183 62.7029 -5.55112e-17
766 1 114.332 35.7473 -5.55112e-17
767 1 96.9331 78.4321 -5.55112e-17
768 1 9.73184 3.89154 -5.55112e-17
769 1 107.609 75.8736 -5.55112e-17
770 2 113.298 109.887 -5.55112e-17
771 1 143.704 178.746 -5.55112e-17
772 1 102.149 28.3947 -5.55112e-17
773 1 109.438 167.49 -5.55112e-17
774 1 111.438 124.196 -5.55112e-17
775 1 68.9401 7.02059 -5.55112e-17
776 1 37.9824 10.9147 -5.55112e-17
777 1 108.224 182.019 -5.55112e-17
778 1 22.8169 19.0947 -5.55112e-17
779 1 191.964 44.0722 -5.55112e-17
780 1 3.49392 169.144 -5.55112e-17
781 1 127.138 100.259 -5.55112e-17
782 1 175.711 49.4559 -5.55112e-17
783 1 98.5846 15.5002 -5.55112e-17
784 2 194.915 159.162 -5.55112e-17
785 1 111.126 165.481 -5.55112e-17
786 1 119.532 177.192 -5.55112e-17
787 1 185.532 74.9514 -5.55112e-17
788 1 177.276 45.2375 -5.55112e-17
789 2 142.998 109.168 -5.55112e-17
790 1 109.774 28.6585 -5.55112e-17
791 2 14.4352 121.743 -5.55112e-17
792 2 215.884 13.5018 -5.55112e-17
793 2 115.484 68.877 -5.55112e-17
794 1 56.1896 188.53 -5.55112e-17
795 1 132.217 53.5773 -5.55112e-17
796 1 130.787 22.2638 -5.55112e-17
797 1 198.031 155.423 -5.55112e-17
798 2 195.785 203.971 -5.55112e-17
799 2 207.806 64.9969 -5.55112e-17
800 2 55.4451 217.437 -5.55112e-17
801 1 102.922 132.321 -5.55112e-17
802 1 124.508 75.8685 -5.55112e-17
803 1 181.998 68.6289 -5.55112e-17
804 2 122.886 205.176 -5.55112e-17
805 1 44.9091 106.538 -5.55112e-17
806 1 11.8397 117.002 -5.55112e-17
807 2 100.473 99.3954 -5.55112e-17
808 1 14.6305 116.748 -5.55112e-17
809 2 57.7824 134.356 -5.55112e-17
810 1 130.109 197.964 -5.55112e-17
811 1 32.7994 5.83793 -5.55112e-17
812 1 131.914 34.482 -5.55112e-17
813 2 107.807 110.932 -5.55112e-17
814 1 147.411 69.3108 -5.55112e-17
815 1 89.1802 164.516 -5.55112e-17
816 1 200.803 9.64079 -5.55112e-17
817 1 108.107 214.926 -5.55112e-17
818 1 57.5291 101.823 -5.55112e-17
819 1 9.78815 136.199 -5.55112e-17
820 1 45.3743 120.06 -5.55112e-17
821 1 94.7324 151.825 -5.55112e-17
822 2 41.719 135.941 -5.55112e-17
823 2 139.203 91.8833 -5.55112e-17
824 1 34.8575 107.288 -5.55112e-17
825 1 65.3627 15.3515 -5.55112e-17
826 1 190.453 13.9998 -5.55112e-17
827 1 192.858 107.451 -5.55112e-17
828 1 142.175 123.369 -5.55112e-17
829 1 127.29 210.906 -5.55112e-17
830 1 81.552 127.978 -5.55112e-17
831 1 217.348 42.7871 -5.55112e-17
832 1 93.1646 87.4517 -5.55112e-17
833 1 61.9475 84.7228 -5.55112e-17
834 1 106.947 9.29071 -5.55112e-17
835 1 58.2788 218.258 -5.55112e-17
836 1 10.9545 50.2777 -5.55112e-17
837 1 6.74386 70.4734 -5.55112e-17
838 1 98.1346 178.542 -5.55112e-17
839 2 198.403 3.13214 -5.55112e-17
840 1 5.19073 202.424 -5.55112e-17
841 2 63.0353 184.962 -5.55112e-17
842 1 94.5187 91.7415 -5.55112e-17
843 2 159.534 182.765 -5.55112e-17
844 1 26.0333 158.64 -5.55112e-17
845 1 71.2378 189.348 -5.55112e-17
846 1 158.932 190.738 -5.55112e-17
847 1 42.0654 140.943 -5.55112e-17
848 1 188.278 117.262 -5.55112e-17
849 1 189.286 166.806 -5.55112e-17
850 1 39.6446 129.335 -5.55112e-17
851 1 89.5002 37.65 -5.55112e-17
852 1 11.7468 209.121 -5.55112e-17
853 1 32.286 138.98 -5.55112e-17
854 1 171.228 84.681 -5.55112e-17
855 1 126.01 19.9613 -5.55112e-17
856 1 209.955 169.972 -5.55112e-17