ITEM: TIMESTEP
0
ITEM: NUMBER OF ATOMS
7200
ITEM: BOX BOUNDS xy xz yz pp pp pp
0.0000000000000000e+00 2.1900000000000000e+02 0.0000000000000000e+00
0.0000000000000000e+00 2.1900000000000000e+02 0.0000000000000000e+00
-3.6499999999999999e-01 3.6499999999999999e-01 0.0000000000000000e+00
ITEM: ATOMS id type x y z
1 1 67.6489 134.722 -5.55112e-17
2 1 182.979 108.627 -5.55112e-17
3 1 13.8628 158.401 -5.55112e-17
4 1 3.85194 86.3734 -5.55112e-17
5 1 215.696 157.315 -5.55112e-17
6 1 117.154 210.569 -5.55112e-17
7 1 42.4331 51.6052 -5.55112e-17
8 2 149.112 83.1387 -5.55112e-17
9 1 203.226 9.81174 -5.55112e-17
10 2 58.2914 193.588 -5.55112e-17
11 1 114.532 15.0248 -5.55112e-17
12 1 129.276 77.8185 -5.55112e-17
13 2 51.3337 79.203 -5.55112e-17
14 1 65.378 18.0639 -5.55112e-17
15 1 136.964 105.473 -5.55112e-17
16 2 61.0021 172.536 -5.55112e-17
17 1 113.954 30.8933 -5.55112e-17
18 2 31.728 78.3112 -5.55112e-17
19 1 106.672 52.3661 -5.55112e-17
20 1 144.158 103.423 -5.55112e-17
21 1 42.0776 5.41172 -5.55112e-17
22 2 49.6721 148.025 -5.55112e-17
23 2 17.3297 54.5895 -5.55112e-17
24 1 159.163 99.3513 -5.55112e-17
25 1 75.6841 182.887 -5.55112e-17
26 2 86.3809 96.9085 -5.55112e-17
27 1 155.642 174.205 -5.55112e-17
28 2 22.5269 156.512 -5.55112e-17
29 1 53.2293 46.7788 -5.55112e-17
30 1 139.559 87.9898 -5.55112e-17
31 1 211.403 90.4638 -5.55112e-17
32 1 58.0715 104.234 -5.55112e-17
33 1 157.548 154.387 -5.55112e-17
34 1 61.2501 77.5981 -5.55112e-17
35 1 177.316 68.9334 -5.55112e-17
36 1 61.6579 75.125 -5.55112e-17
37 2 136.306 140.449 -5.55112e-17
38 1 197.673 74.4881 -5.55112e-17
39 1 122.044 138.262 -5.55112e-17
40 1 165.915 163.819 -5.55112e-17
41 1 120.558 182.164 -5.55112e-17
42 1 103.054 36.2395 -5.55112e-17
43 1 135.4 60.9127 -5.55112e-17
44 1 107.122 23.4959 -5.55112e-17
45 1 214.795 84.7591 -5.55112e-17
46 1 28.0812 203.686 -5.55112e-17
47 1 88.8977 172.249 -5.55112e-17
48 2 47.8806 86.4193 -5.55112e-17
49 1 76.8543 110.46 -5.55112e-17
50 1 46.3825 197.833 -5.55112e-17
51 1 181.171 34.6257 -5.55112e-17
52 1 203.839 132.757 -5.55112e-17
53 1 156.718 27.1592 -5.55112e-17
54 1 24.4103 119.385 -5.55112e-17
55 1 22.7891 48.3277 -5.55112e-17
56 1 117.575 139.972 -5.55112e-17
57 2 67.9643 214.703 -5.55112e-17
58 1 32.708 40.4379 -5.55112e-17
59 1 29.0233 152.086 -5.55112e-17
60 2 152.033 147.204 -5.55112e-17
61 2 36.006 203.046 -5.55112e-17
62 1 10.7584 162.19 -5.55112e-17
63 1 111.917 197.961 -5.55112e-17
64 1 134.008 39.2641 -5.55112e-17
65 1 214.054 114.432 -5.55112e-17
66 1 129.059 134.188 -5.55112e-17
67 1 95.4622 139.758 -5.55112e-17
68 1 66.7837 116.421 -5.55112e-17
69 1 141.125 174.18 -5.55112e-17
70 1 59.1288 111.218 -5.55112e-17
71 1 7.73359 125.651 -5.55112e-17
72 1 171.871 60.7787 -5.55112e-17
73 1 187.926 185.844 -5.55112e-17
74 1 206.949 21.8068 -5.55112e-17
75 2 93.7826 1.28716 -5.55112e-17
76 1 17.681 4.60646 -5.55112e-17
77 1 36.3512 23.8886 -5.55112e-17
78 1 124.408 116.947 -5.55112e-17
79 2 126.291 0.988212 -5.55112e-17
80 1 75.1093 106.044 -5.55112e-17
81 1 110.317 140.868 -5.55112e-17
82 1 54.0097 141.846 -5.55112e-17
83 2 129.884 182.293 -5.55112e-17
84 1 179.771 80.8313 -5.55112e-17
85 1 22.4084 41.4038 -5.55112e-17
86 1 127.977 142.214 -5.55112e-17
87 1 217.225 217.109 -5.55112e-17
88 1 19.1514 34.9777 -5.55112e-17
89 2 44.023 3.37071 -5.55112e-17
90 2 190.552 187.27 -5.55112e-17
91 1 149.604 90.4734 -5.55112e-17
92 2 168.839 21.3615 -5.55112e-17
93 1 141.944 15.2372 -5.55112e-17
94 2 201.996 12.6224 -5.55112e-17
95 1 33.4934 195.111 -5.55112e-17
96 1 130.451 95.6027 -5.55112e-17
97 1 97.3106 4.7478 -5.55112e-17
98 1 125.511 54.9198 -5.55112e-17
99 1 178.322 21.4752 -5.55112e-17
100 1 176.289 8.69805 -5.55112e-17
101 1 114.397 12.4131 -5.55112e-17
102 1 24.5987 46.2668 -5.55112e-17
103 1 58.1826 80.6011 -5.55112e-17
104 1 68.7713 109.105 -5.55112e-17
105 1 142.487 201.636 -5.55112e-17
106 1 78.0127 102.596 -5.55112e-17
107 2 146.257 101.411 -5.55112e-17
108 1 36.3301 210.58 -5.55112e-17
109 1 54.8252 88.8358 -5.55112e-17
110 1 107.99 62.8941 -5.55112e-17
111 1 61.13 21.1512 -5.55112e-17
112 1 94.8206 137.171 -5.55112e-17
113 1 99.3741 43.575 -5.55112e-17
114 1 158.566 22.9355 -5.55112e-17
115 1 51.1905 163.268 -5.55112e-17
116 2 214.297 133.839 -5.55112e-17
117 1 201.513 216.536 -5.55112e-17
118 1 164.997 67.9615 -5.55112e-17
119 2 58.2715 98.8047 -5.55112e-17
120 1 53.2578 199.487 -5.55112e-17
121 1 152.103 83.6937 -5.55112e-17
122 1 102.945 14.8816 -5.55112e-17
123 1 136.834 75.4555 -5.55112e-17
124 1 154.893 201.45 -5.55112e-17
125 1 141.44 117.796 -5.55112e-17
126 1 111.68 65.4576 -5.55112e-17
127 1 163.891 78.143 -5.55112e-17
128 1 175.623 136.496 -5.55112e-17
129 1 7.66144 104.105 -5.55112e-17
130 1 83.6878 128.659 -5.55112e-17
131 1 175.773 152.546 -5.55112e-17
132 2 183.406 1.90314 -5.55112e-17
133 1 127.196 79.3173 -5.55112e-17
134 1 35.379 86.3003 -5.55112e-17
135 1 78.3873 8.45128 -5.55112e-17
136 1 210.423 201.729 -5.55112e-17
137 1 101.805 136.812 -5.55112e-17
138 1 50.5413 212.219 -5.55112e-17
139 1 202.512 105.58 -5.55112e-17
140 2 141.829 186.354 -5.55112e-17
141 1 205.706 96.5249 -5.55112e-17
142 2 211.909 49.1486 -5.55112e-17
143 1 111.413 80.6408 -5.55112e-17
144 2 43.6225 199.315 -5.55112e-17
145 1 172.109 103.02 -5.55112e-17
146 1 99.8311 120.138 -5.55112e-17
147 1 154.447 145.795 -5.55112e-17
148 1 6.53997 200.786 -5.55112e-17
149 1 68.0692 21.6238 -5.55112e-17
150 1 54.1026 37.3907 -5.55112e-17
151 1 26.2267 112.716 -5.55112e-17
152 1 63.5389 104.567 -5.55112e-17
153 2 52.3477 6.24326 -5.55112e-17
154 1 149.054 94.8147 -5.55112e-17
155 1 107.789 17.0695 -5.55112e-17
156 2 71.766 115.806 -5.55112e-17
157 1 207.485 104.915 -5.55112e-17
158 1 28.96 28.9518 -5.55112e-17
159 1 22.3239 135.794 -5.55112e-17
160 1 11.8991 201.352 -5.55112e-17
161 1 1.43016 7.99201 -5.55112e-17
162 1 127.442 127.435 -5.55112e-17
163 1 17.8197 32.7695 -5.55112e-17
164 1 167.036 52.9963 -5.55112e-17
165 1 124.64 121.393 -5.55112e-17
166 2 159.41 60.7648 -5.55112e-17
167 1 175.224 46.5715 -5.55112e-17
168 1 149.281 169.606 -5.55112e-17
169 1 1.79204 101.95 -5.55112e-17
170 1 94.9495 168.436 -5.55112e-17
171 1 146.855 60.9832 -5.55112e-17
172 1 218.768 17.4734 -5.55112e-17
173 1 46.214 143.399 -5.55112e-17
174 1 131.201 62.3005 -5.55112e-17
175 2 137.457 160.75 -5.55112e-17
176 1 109.868 70.7057 -5.55112e-17
177 2 70.4112 56.7442 -5.55112e-17
178 1 65.6154 86.8633 -5.55112e-17
179 1 173.35 163.947 -5.55112e-17
180 1 203.62 197.189 -5.55112e-17
181 1 134.885 167.455 -5.55112e-17
182 2 77.5466 20.709 -5.55112e-17
183 1 77.0116 164.095 -5.55112e-17
184 1 176.172 86.9957 -5.55112e-17
185 2 175.355 20.5841 -5.55112e-17
186 2 208.937 133.983 -5.55112e-17
187 1 93.1354 29.0862 -5.55112e-17
188 1 102.74 170.228 -5.55112e-17
189 1 123.486 174.652 -5.55112e-17
190 2 13.7141 161.632 -5.55112e-17
191 1 77.4763 157.238 -5.55112e-17
192 2 63.4594 109.728 -5.55112e-17
193 2 79.7773 172.394 -5.55112e-17
194 1 33.1241 149.312 -5.55112e-17
195 1 145.212 163.474 -5.55112e-17
196 1 168.643 191.43 -5.55112e-17
197 1 74.3776 69.9102 -5.55112e-17
198 2 9.62907 132.926 -5.55112e-17
199 1 210.632 57.2749 -5.55112e-17
200 1 80.2662 6.72417 -5.55112e-17
201 2 71.7106 109.795 -5.55112e-17
202 1 52.6762 210.736 -5.55112e-17
203 1 175.525 81.8242 -5.55112e-17
204 1 188.493 156.465 -5.55112e-17
205 2 191.803 82.4873 -5.55112e-17
206 1 89.1422 133.06 -5.55112e-17
207 1 105.905 29.9855 -5.55112e-17
208 1 32.8807 85.9892 -5.55112e-17
209 1 81.9513 2.49312 -5.55112e-17
210 1 7.7655 64.9181 -5.55112e-17
211 2 146.361 156.354 -5.55112e-17
212 1 120.32 112.504 -5.55112e-17
213 1 134.865 104.132 -5.55112e-17
214 1 74.4785 14.2364 -5.55112e-17
215 1 74.4766 201.889 -5.55112e-17
216 1 193.633 139.046 -5.55112e-17
217 1 126.721 186.859 -5.55112e-17
218 2 28.6765 168.485 -5.55112e-17
219 1 155.474 213.623 -5.55112e-17
220 2 107.293 55.3264 -5.55112e-17
221 1 212.881 56.0388 -5.55112e-17
222 1 143.366 146.149 -5.55112e-17
223 1 52.4911 208.049 -5.55112e-17
224 2 10.2248 188.573 -5.55112e-17
225 1 201.333 142.296 -5.55112e-17
226 1 138.916 190.36 -5.55112e-17
227 2 50.8796 17.1019 -5.55112e-17
228 1 138.574 77.1925 -5.55112e-17
229 1 60.7528 135.606 -5.55112e-17
230 1 158.947 131.066 -5.55112e-17
231 1 148.387 122.872 -5.55112e-17
232 1 1.21891 90.897 -5.55112e-17
233 1 109.963 100.093 -5.55112e-17
234 1 133.829 216.264 -5.55112e-17
235 1 20.8887 143.062 -5.55112e-17
236 1 46.2829 81.6805 -5.55112e-17
237 1 199.041 8.17369 -5.55112e-17
238 1 147.726 128.207 -5.55112e-17
239 2 17.7911 112.243 -5.55112e-17
240 1 99.8018 6.13302 -5.55112e-17
241 2 187.595 14.6925 -5.55112e-17
242 2 198.528 37.0705 -5.55112e-17
243 2 114.63 27.857 -5.55112e-17
244 1 97.5909 7.63012 -5.55112e-17
245 1 84.5788 58.7631 -5.55112e-17
246 1 125.92 119.024 -5.55112e-17
247 1 210.935 98.6119 -5.55112e-17
248 1 94.6929 4.0114 -5.55112e-17
249 1 23.3799 65.8812 -5.55112e-17
250 2 149.908 29.7043 -5.55112e-17
251 1 153.561 212.059 -5.55112e-17
252 1 195.304 64.4993 -5.55112e-17
253 1 94.2156 61.352 -5.55112e-17
254 2 76.7003 197.447 -5.55112e-17
255 1 212.281 149.031 -5.55112e-17
256 1 84.613 165.668 -5.55112e-17
257 1 211.759 151.609 -5.55112e-17
258 2 164.077 27.8056 -5.55112e-17
259 1 58.2985 165.876 -5.55112e-17
260 1 127.269 11.256 -5.55112e-17
261 1 184.82 13.5582 -5.55112e-17
262 1 53.4962 52.647 -5.55112e-17
263 1 12.6983 213.584 -5.55112e-17
264 1 172.332 43.117 -5.55112e-17
265 1 166.451 22.7652 -5.55112e-17
266 1 155.63 9.70444 -5.55112e-17
267 1 2.63923 64.8724 -5.55112e-17
268 1 21.6088 35.5581 -5.55112e-17
269 1 125.873 94.9192 -5.55112e-17
270 1 141.348 106.275 -5.55112e-17
271 1 12.8498 92.6334 -5.55112e-17
272 1 159.344 202.135 -5.55112e-17
273 1 40.7799 169.189 -5.55112e-17
274 2 113.21 87.7493 -5.55112e-17
275 1 64.2184 5.09715 -5.55112e-17
276 2 54.002 32.2517 -5.55112e-17
277 2 167.236 121.97 -5.55112e-17
278 1 38.8339 100.886 -5.55112e-17
279 2 109.83 205.129 -5.55112e-17
280 1 59.9822 31.8254 -5.55112e-17
281 1 147.389 28.4566 -5.55112e-17
282 1 165.118 8.13547 -5.55112e-17
283 1 112.977 141.487 -5.55112e-17
284 1 136.655 165.688 -5.55112e-17
285 1 35.8247 12.4412 -5.55112e-17
286 2 33.9619 215.088 -5.55112e-17
287 1 82.4948 135.182 -5.55112e-17
288 1 21.4589 57.6815 -5.55112e-17
289 1 71.4955 53.8544 -5.55112e-17
290 1 150.763 193.421 -5.55112e-17
291 1 158.608 144.793 -5.55112e-17
292 2 20.1248 181.233 -5.55112e-17
293 2 65.785 194.531 -5.55112e-17
294 1 112.099 40.3651 -5.55112e-17
295 1 125.035 47.8245 -5.55112e-17
296 1 134.987 41.6752 -5.55112e-17
297 1 118.609 144.958 -5.55112e-17
298 1 105.083 198.492 -5.55112e-17
299 1 160.097 106.38 -5.55112e-17
300 2 62.2657 94.7789 -5.55112e-17
301 1 58.9054 46.0036 -5.55112e-17
302 1 126.886 192.739 -5.55112e-17
303 2 198.395 60.1735 -5.55112e-17
304 2 144.911 129.498 -5.55112e-17
305 1 86.2622 99.7236 -5.55112e-17
306 1 51.134 73.6725 -5.55112e-17
307 1 35.3507 122.327 -5.55112e-17
308 1 161.921 59.0378 -5.55112e-17
309 2 73.0617 184.448 -5.55112e-17
310 1 194.373 215.638 -5.55112e-17
311 1 79.8983 33.6707 -5.55112e-17
312 1 192.244 147.885 -5.55112e-17
313 2 147.532 66.2476 -5.55112e-17
314 1 52.1073 135.334 -5.55112e-17
315 1 111.22 150.533 -5.55112e-17
316 1 72.6802 1.257 -5.55112e-17
317 1 13.9544 99.2452 -5.55112e-17
318 1 100.144 215.024 -5.55112e-17
319 1 51.0549 33.0021 -5.55112e-17
320 1 144.296 99.5189 -5.55112e-17
321 1 88.5183 203.888 -5.55112e-17
322 1 143.164 140.426 -5.55112e-17
323 1 188.211 107.967 -5.55112e-17
324 1 81.2542 26.7657 -5.55112e-17
325 1 162.712 139.239 -5.55112e-17
326 1 85.1549 151.88 -5.55112e-17
327 2 149.798 186.196 -5.55112e-17
328 1 167.693 40.4791 -5.55112e-17
329 2 47.4675 115.658 -5.55112e-17
330 1 23.9765 102.115 -5.55112e-17
331 1 174.686 175.741 -5.55112e-17
332 2 112.389 104.335 -5.55112e-17
333 1 44.2908 17.8851 -5.55112e-17
334 1 139.726 169.062 -5.55112e-17
335 1 12.4484 206.383 -5.55112e-17
336 1 212.609 106.403 -5.55112e-17
337 1 103.025 182.236 -5.55112e-17
338 1 159.344 57.7622 -5.55112e-17
339 1 109.419 217.171 -5.55112e-17
340 1 153.566 141.4 -5.55112e-17
341 1 160.394 158.674 -5.55112e-17
342 1 128.79 144.561 -5.55112e-17
343 1 127.649 29.1767 -5.55112e-17
344 1 63.6485 181.883 -5.55112e-17
345 1 60.6746 109.339 -5.55112e-17
346 1 9.48625 127.339 -5.55112e-17
347 1 92.2486 92.5354 -5.55112e-17
348 1 164.003 179.237 -5.55112e-17
349 1 193.346 75.4274 -5.55112e-17
350 2 90.0324 40.6468 -5.55112e-17
351 1 154.87 66.0228 -5.55112e-17
352 1 61.1715 182.866 -5.55112e-17
353 1 39.2532 166.634 -5.55112e-17
354 1 167.89 161.646 -5.55112e-17
355 1 58.4232 156.837 -5.55112e-17
356 1 23.8061 36.6602 -5.55112e-17
357 1 62.6168 158.868 -5.55112e-17
358 1 172.08 180.838 -5.55112e-17
359 1 157.807 159.009 -5.55112e-17
360 1 74.229 53.3717 -5.55112e-17
361 1 63.2871 168.108 -5.55112e-17
362 1 169.29 200.888 -5.55112e-17
363 1 163.705 190.084 -5.55112e-17
364 2 116.49 92.4877 -5.55112e-17
365 1 178.813 90.5901 -5.55112e-17
366 1 117.501 161.054 -5.55112e-17
367 1 174.349 6.96994 -5.55112e-17
368 1 197.094 192.644 -5.55112e-17
369 2 115.129 188.012 -5.55112e-17
370 1 15.0749 205.88 -5.55112e-17
371 1 53.7478 137.191 -5.55112e-17
372 2 0.265097 93.8295 -5.55112e-17
373 2 212.705 8.23841 -5.55112e-17
374 1 151.035 88.3179 -5.55112e-17
375 1 37.286 112.073 -5.55112e-17
376 1 16.2293 152.966 -5.55112e-17
377 1 28.7091 213.344 -5.55112e-17
378 1 74.7302 129.296 -5.55112e-17
379 1 42.9159 60.5572 -5.55112e-17
380 1 177.818 151.027 -5.55112e-17
381 1 13.4723 5.54235 -5.55112e-17
382 1 54.2827 66.9573 -5.55112e-17
383 1 169.668 67.477 -5.55112e-17
384 1 21.7308 13.9135 -5.55112e-17
385 1 191.515 77.0486 -5.55112e-17
386 2 82.0177 44.3594 -5.55112e-17
387 1 144.232 18.8926 -5.55112e-17
388 1 56.4969 43.9159 -5.55112e-17
389 1 206.643 158.982 -5.55112e-17
390 2 207.312 179.667 -5.55112e-17
391 2 35.5859 40.303 -5.55112e-17
392 1 41.6562 218.223 -5.55112e-17
393 1 0.355909 33.6255 -5.55112e-17
394 1 102.477 101.359 -5.55112e-17
395 1 16.3924 27.5968 -5.55112e-17
396 1 202.555 154.002 -5.55112e-17
397 1 100.847 16.4298 -5.55112e-17
398 1 11.61 191.183 -5.55112e-17
399 1 19.4916 59.5378 -5.55112e-17
400 1 103.309 179.721 -5.55112e-17
401 1 87.7209 176.675 -5.55112e-17
402 2 191.437 178.948 -5.55112e-17
403 1 214.291 53.9141 -5.55112e-17
404 1 36.0844 71.4307 -5.55112e-17
405 1 204.376 29.5136 -5.55112e-17
406 1 201.157 68.3806 -5.55112e-17
407 2 19.457 62.6719 -5.55112e-17
408 1 34.3758 35.3748 -5.55112e-17
409 1 169.314 128.985 -5.55112e-17
410 1 20.0906 154.833 -5.55112e-17
411 1 151.964 160.495 -5.55112e-17
412 1 114.955 215.228 -5.55112e-17
413 1 63.4933 156.315 -5.55112e-17
414 1 38.1148 13.6765 -5.55112e-17
415 1 207.846 148.158 -5.55112e-17
416 1 72.0573 200.229 -5.55112e-17
417 1 141.003 93.7978 -5.55112e-17
418 2 184.533 7.33339 -5.55112e-17
419 1 108.455 149.876 -5.55112e-17
420 2 136.726 108.886 -5.55112e-17
421 1 87.9379 103.981 -5.55112e-17
422 1 176.385 23.4262 -5.55112e-17
423 2 158.202 41.264 -5.55112e-17
424 1 157.29 149.213 -5.55112e-17
425 1 129.291 166.913 -5.55112e-17
426 1 133.279 112.814 -5.55112e-17
427 1 45.6692 84.3964 -5.55112e-17
428 1 71.2469 192.054 -5.55112e-17
429 1 194.744 83.2111 -5.55112e-17
430 1 215.259 60.1191 -5.55112e-17
431 1 120.242 206.441 -5.55112e-17
432 1 161.488 53.7558 -5.55112e-17
433 1 105.105 153.86 -5.55112e-17
434 1 71.6418 30.3741 -5.55112e-17
435 1 178.103 161.674 -5.55112e-17
436 1 44.6639 36.2465 -5.55112e-17
437 1 175.27 109.203 -5.55112e-17
438 2 109.672 21.7555 -5.55112e-17
439 1 67.4095 208.902 -5.55112e-17
440 1 3.49534 161.883 -5.55112e-17
441 1 192.739 131.419 -5.55112e-17
442 1 50.4 13.8501 -5.55112e-17
443 1 158.084 104.789 -5.55112e-17
444 1 218.323 101.167 -5.55112e-17
445 1 139.645 7.46411 -5.55112e-17
446 1 131.68 78.8606 -5.55112e-17
447 1 38.8382 144.978 -5.55112e-17
448 1 75.8861 7.50395 -5.55112e-17
449 1 131.506 120.59 -5.55112e-17
450 1 139.531 187.986 -5.55112e-17
451 1 170.676 47.2442 -5.55112e-17
452 1 131.201 144.823 -5.55112e-17
453 1 179.23 182.207 -5.55112e-17
454 1 160.049 211.715 -5.55112e-17
455 1 100.247 71.5668 -5.55112e-17
456 1 167.115 27.1109 -5.55112e-17
457 1 97.7347 113.404 -5.55112e-17
458 1 198.404 0.365173 -5.55112e-17
459 1 81.32 68.9828 -5.55112e-17
460 1 48.7863 102.342 -5.55112e-17
461 1 188.787 178.061 -5.55112e-17
462 1 181.715 115.95 -5.55112e-17
463 1 126.815 33.5285 -5.55112e-17
464 1 154.953 195.2 -5.55112e-17
465 1 121.651 159.85 -5.55112e-17
466 1 23.9643 213.963 -5.55112e-17
467 1 17.3386 80.1376 -5.55112e-17
468 1 161.528 218.58 -5.55112e-17
469 1 68.6581 77.7371 -5.55112e-17
470 1 78.0023 37.9364 -5.55112e-17
471 1 128.835 174.537 -5.55112e-17
472 1 48.0814 83.3847 -5.55112e-17
473 1 26.477 102.712 -5.55112e-17
474 1 88.4255 101.342 -5.55112e-17
475 1 185.033 163.744 -5.55112e-17
476 2 192.282 11.9625 -5.55112e-17
477 1 53.8233 84.6754 -5.55112e-17
478 1 58.5207 125.919 -5.55112e-17
479 1 201.746 80.581 -5.55112e-17
480 1 85.3442 23.4037 -5.55112e-17
481 1 15.117 94.1921 -5.55112e-17
482 1 99.5804 159.836 -5.55112e-17
483 1 142.046 159.975 -5.55112e-17
484 2 87.7348 45.5497 -5.55112e-17
485 1 34.2314 100.457 -5.55112e-17
486 1 81.7904 17.2858 -5.55112e-17
487 1 100.901 196.646 -5.55112e-17
488 1 5.74064 121.204 -5.55112e-17
489 1 211.687 135.202 -5.55112e-17
490 1 205.175 84.0999 -5.55112e-17
491 1 197.501 121.543 -5.55112e-17
492 1 2.69886 128.981 -5.55112e-17
493 1 194.086 210.687 -5.55112e-17
494 1 211.314 38.3854 -5.55112e-17
495 1 198.517 89.683 -5.55112e-17
496 2 44.0379 189.592 -5.55112e-17
497 1 39.1734 217.023 -5.55112e-17
498 1 104.85 121.071 -5.55112e-17
499 2 136.79 216.439 -5.55112e-17
500 1 26.135 29.8386 -5.55112e-17
501 2 112.626 216.85 -5.55112e-17
502 2 123.545 143.335 -5.55112e-17
503 1 147.128 184.115 -5.55112e-17
504 1 112.896 148.495 -5.55112e-17
505 1 118.205 18.6557 -5.55112e-17
506 1 26.1156 121.781 -5.55112e-17
507 1 14.5133 130.026 -5.55112e-17
508 1 196.441 217.332 -5.55112e-17
509 2 27.1864 75.7054 -5.55112e-17
510 2 146.277 133.395 -5.55112e-17
511 1 196.114 35.3671 -5.55112e-17
512 2 210.117 60.1524 -5.55112e-17
513 1 56.5108 127.557 -5.55112e-17
514 1 48.7307 18.9952 -5.55112e-17
515 1 204.276 25.326 -5.55112e-17
516 1 182.825 206.004 -5.55112e-17
517 1 112.023 117.333 -5.55112e-17
518 2 103.457 20.5324 -5.55112e-17
519 1 11.6928 52.9545 -5.55112e-17
520 2 212.398 23.1892 -5.55112e-17
521 1 88.7351 110.938 -5.55112e-17
522 1 31.0906 30.5702 -5.55112e-17
523 1 24.5237 68.2585 -5.55112e-17
524 1 99.8626 74.4653 -5.55112e-17
525 1 174.88 121.071 -5.55112e-17
526 1 191.053 64.8745 -5.55112e-17
527 1 75.4255 4.84846 -5.55112e-17
528 1 168.72 29.1212 -5.55112e-17
529 1 57.026 158.89 -5.55112e-17
530 1 100.389 31.9669 -5.55112e-17
531 1 66.3734 197.535 -5.55112e-17
532 1 206.522 187.971 -5.55112e-17
533 1 134.008 150.946 -5.55112e-17
534 1 97.2108 144.783 -5.55112e-17
535 1 14.3956 104.645 -5.55112e-17
536 1 203.461 117.738 -5.55112e-17
537 1 201.308 166.788 -5.55112e-17
538 1 168.783 81.0393 -5.55112e-17
539 1 89.1905 211.726 -5.55112e-17
540 1 103.193 88.6253 -5.55112e-17
541 1 40.6376 58.9708 -5.55112e-17
542 1 67.3491 211.586 -5.55112e-17
543 1 147.156 151.954 -5.55112e-17
544 1 128.963 200.242 -5.55112e-17
545 1 8.15879 149.88 -5.55112e-17
546 1 179.315 41.2619 -5.55112e-17
547 1 82.725 172.285 -5.55112e-17
548 1 99.8766 8.72286 -5.55112e-17
549 1 51.5988 76.2736 -5.55112e-17
550 2 162.6 121.542 -5.55112e-17
551 2 134.582 157.828 -5.55112e-17
552 2 93.7744 180.559 -5.55112e-17
553 1 122.61 42.2266 -5.55112e-17
554 1 73.5261 101.657 -5.55112e-17
555 2 65.781 123.877 -5.55112e-17
556 1 148.548 21.8029 -5.55112e-17
557 1 76.53 12.5907 -5.55112e-17
558 1 148.112 125.495 -5.55112e-17
559 1 187.714 47.5089 -5.55112e-17
560 1 131.484 51.1845 -5.55112e-17
561 1 146.785 168.718 -5.55112e-17
562 1 195.66 144.483 -5.55112e-17
563 2 167.918 113.876 -5.55112e-17
564 1 42.0833 66.976 -5.55112e-17
565 1 60.0226 10.4456 -5.55112e-17
566 1 75.1925 34.3033 -5.55112e-17
567 1 150.262 111.098 -5.55112e-17
568 1 22.1938 114.712 -5.55112e-17
569 1 114.11 185.164 -5.55112e-17
570 1 124.892 123.813 -5.55112e-17
571 1 175.417 203.587 -5.55112e-17
572 1 61.574 111.979 -5.55112e-17
573 1 177.339 76.7315 -5.55112e-17
574 1 41.8574 130.333 -5.55112e-17
575 1 21.8224 76.322 -5.55112e-17
576 1 196.002 98.6152 -5.55112e-17
577 1 202.801 33.4804 -5.55112e-17
578 1 122.702 196.904 -5.55112e-17
579 1 15.8649 167.003 -5.55112e-17
580 1 102.646 139.271 -5.55112e-17
581 1 141.149 154.331 -5.55112e-17
582 1 76.233 79.1045 -5.55112e-17
583 1 162.303 185.761 -5.55112e-17
584 2 29.0735 117.694 -5.55112e-17
585 1 48.8056 198.963 -5.55112e-17
586 1 137.886 170.992 -5.55112e-17
587 1 99.5179 104.79 -5.55112e-17
588 1 17.036 1.89587 -5.55112e-17
589 1 103.177 17.4809 -5.55112e-17
590 1 70.3798 0.0656306 -5.55112e-17
591 1 215.498 162.377 -5.55112e-17
592 1 55.963 156.388 -5.55112e-17
593 1 209.555 181.659 -5.55112e-17
594 1 181.542 181.174 -5.55112e-17
595 1 83.001 39.5653 -5.55112e-17
596 1 65.8688 35.8673 -5.55112e-17
597 2 180.322 204.21 -5.55112e-17
598 1 167.189 211.564 -5.55112e-17
599 1 207.993 171.292 -5.55112e-17
600 1 104.844 10.7431 -5.55112e-17
601 1 11.7808 134.992 -5.55112e-17
602 1 98.0094 31.2304 -5.55112e-17
603 1 207.891 202.773 -5.55112e-17
604 1 120.862 1.30337 -5.55112e-17
605 2 85.6508 77.4256 -5.55112e-17
606 1 102.766 202.124 -5.55112e-17
607 2 171.901 146.707 -5.55112e-17
608 1 95.1786 76.5105 -5.55112e-17
609 1 15.8391 6.37774 -5.55112e-17
610 1 214.172 150.673 -5.55112e-17
611 1 201.942 190.474 -5.55112e-17
612 1 218.025 37.933 -5.55112e-17
613 1 59.0938 151.01 -5.55112e-17
614 2 127.85 179.576 -5.55112e-17
615 1 105.542 18.6382 -5.55112e-17
616 1 202.213 130.623 -5.55112e-17
617 1 127.205 198.41 -5.55112e-17
618 1 201.565 212.327 -5.55112e-17
619 1 179.132 78.405 -5.55112e-17
620 1 141.106 141.988 -5.55112e-17
621 1 197.149 93.9323 -5.55112e-17
622 1 95.2284 213.708 -5.55112e-17
623 1 218.704 12.3731 -5.55112e-17
624 1 23.7075 209.284 -5.55112e-17
625 1 204.872 155.155 -5.55112e-17
626 1 94.2553 191.042 -5.55112e-17
627 1 64.2049 73.9289 -5.55112e-17
628 1 34.2177 28.1289 -5.55112e-17
629 1 10.1694 94.8636 -5.55112e-17
630 2 151.498 22.0143 -5.55112e-17
631 1 15.6382 86.6412 -5.55112e-17
632 1 49.6775 92.2747 -5.55112e-17
633 1 38.8701 211.726 -5.55112e-17
634 1 1.38498 147.747 -5.55112e-17
635 1 155.164 150.801 -5.55112e-17
636 1 208.027 57.7333 -5.55112e-17
637 1 201.017 58.3687 -5.55112e-17
638 1 172.867 76.8413 -5.55112e-17
639 2 203.808 78.5667 -5.55112e-17
640 1 143.235 152.417 -5.55112e-17
641 1 192.878 85.2348 -5.55112e-17
642 1 32.5201 91.8897 -5.55112e-17
643 2 182.145 42.5675 -5.55112e-17
644 1 68.4545 155.147 -5.55112e-17
645 1 106.743 196.517 -5.55112e-17
646 2 211.776 141.436 -5.55112e-17
647 1 11.2596 185.256 -5.55112e-17
648 1 132.462 103.167 -5.55112e-17
649 2 23.7843 150.836 -5.55112e-17
650 1 204.487 186.577 -5.55112e-17
651 1 218.547 113.367 -5.55112e-17
652 1 153.485 44.0463 -5.55112e-17
653 1 114.467 175.35 -5.55112e-17
654 1 22.9831 21.4424 -5.55112e-17
655 2 183.681 101.05 -5.55112e-17
656 1 30.5382 125.287 -5.55112e-17
657 2 79.3749 207.335 -5.55112e-17
658 1 54.0468 44.3231 -5.55112e-17
659 2 156.365 192.581 -5.55112e-17
660 1 102.288 55.3354 -5.55112e-17
661 1 42.7844 116.471 -5.55112e-17
662 1 81.5112 130.108 -5.55112e-17
663 1 32.0021 25.6666 -5.55112e-17
664 1 146.492 17.6329 -5.55112e-17
665 1 139.845 75.0241 -5.55112e-17
666 2 47.9711 181.036 -5.55112e-17
667 1 93.2139 99.4647 -5.55112e-17
668 2 102.138 93.5132 -5.55112e-17
669 1 35.9357 17.6284 -5.55112e-17
670 1 96.612 173.624 -5.55112e-17
671 2 54.0654 176.307 -5.55112e-17
672 1 186.687 11.9621 -5.55112e-17
673 1 63.238 19.5258 -5.55112e-17
674 1 2.2369 31.7796 -5.55112e-17
675 1 128.648 23.6014 -5.55112e-17
676 1 169.595 123.781 -5.55112e-17
677 1 131.598 175.001 -5.55112e-17
678 1 137.866 30.6623 -5.55112e-17
679 2 152.385 32.9957 -5.55112e-17
680 1 202.886 41.8529 -5.55112e-17
681 2 129.001 119.205 -5.55112e-17
682 1 0.271639 47.6992 -5.55112e-17
683 1 68.7024 4.41846 -5.55112e-17
684 1 119.923 154.607 -5.55112e-17
685 1 153.019 38.7418 -5.55112e-17
686 1 27.9873 193.933 -5.55112e-17
687 1 118.207 192.001 -5.55112e-17
688 1 162.591 110.22 -5.55112e-17
689 2 56.1177 46.8095 -5.55112e-17
690 1 70.2779 19.9644 -5.55112e-17
691 1 89.3287 66.2035 -5.55112e-17
692 1 130.787 7.9997 -5.55112e-17
693 1 48.7618 143.221 -5.55112e-17
694 1 75.9991 124.96 -5.55112e-17
695 1 146.14 38.6275 -5.55112e-17
696 1 146.144 81.1481 -5.55112e-17
697 1 139.803 201.739 -5.55112e-17
698 1 116.667 65.8319 -5.55112e-17
699 1 180.624 191.681 -5.55112e-17
700 1 205.698 209.509 -5.55112e-17
701 1 53.9078 16.9356 -5.55112e-17
702 1 113.315 128.701 -5.55112e-17
703 2 188.202 144.051 -5.55112e-17
704 1 29.1926 218.59 -5.55112e-17
705 2 69.0756 111.983 -5.55112e-17
706 1 165.868 177.394 -5.55112e-17
707 1 114.055 24.8826 -5.55112e-17
708 1 84.3252 209.375 -5.55112e-17
709 1 147.371 196.473 -5.55112e-17
710 1 192.42 191.827 -5.55112e-17
711 1 111.522 92.9472 -5.55112e-17
712 1 192.589 208.07 -5.55112e-17
713 1 14.1938 136.452 -5.55112e-17
714 1 135.716 13.0487 -5.55112e-17
715 1 55.8997 199.234 -5.55112e-17
716 1 40.5074 123.478 -5.55112e-17
717 1 51.7362 107.359 -5.55112e-17
718 1 130.971 185.242 -5.55112e-17
719 2 119.786 78.6829 -5.55112e-17
720 1 98.8134 64.7357 -5.55112e-17
721 1 95.6433 98.542 -5.55112e-17
722 1 133.734 62.8833 -5.55112e-17
723 2 48.5078 45.5832 -5.55112e-17
724 1 15.407 49.3801 -5.55112e-17
725 1 29.7165 109.03 -5.55112e-17
726 1 189.805 45.9563 -5.55112e-17
727 1 148.504 205.484 -5.55112e-17
728 2 18.5776 87.7381 -5.55112e-17
729 1 134.006 165.097 -5.55112e-17
730 1 174.191 199.231 -5.55112e-17
731 1 49.0515 190.211 -5.55112e-17
732 1 218.572 9.60786 -5.55112e-17
733 1 205.355 34.3607 -5.55112e-17
734 1 4.00371 29.9748 -5.55112e-17
735 1 40.8956 22.8611 -5.55112e-17
736 2 190.316 74.3957 -5.55112e-17
737 1 81.7822 86.5531 -5.55112e-17
738 1 20.0949 165.499 -5.55112e-17
739 1 105.792 156.273 -5.55112e-17
740 1 59.9267 116.263 -5.55112e-17
741 2 188.969 78.1737 -5.55112e-17
742 1 74.4369 43.7286 -5.55112e-17
743 1 202.905 66.6015 -5.55112e-17
744 2 210.876 172.671 -5.55112e-17
745 1 131.043 31.8829 -5.55112e-17
746 1 14.3792 29.4973 -5.55112e-17
747 2 204.1 22.4981 -5.55112e-17
748 1 182.82 193.062 -5.55112e-17
749 1 196.687 211.096 -5.55112e-17
750 1 213.196 163.747 -5.55112e-17
751 1 59.6548 58.8367 -5.55112e-17
752 1 177.861 105.809 -5.55112e-17
753 1 99.1422 150.633 -5.55112e-17
754 1 14.7575 215.467 -5.55112e-17
755 1 83.3546 195.088 -5.55112e-17
756 2 103.734 195.706 -5.55112e-17
757 1 27.1412 18.2759 -5.55112e-17
758 1 135.525 146.299 -5.55112e-17
759 1 72.9495 107.194 -5.55112e-17
760 1 95.2665 39.8171 -5.55112e-17
761 1 58.2979 161.351 -5.55112e-17
762 1 43.4101 23.4917 -5.55112e-17
763 1 114.254 99.6046 -5.55112e-17
764 2 177.855 148.104 -5.55112e-17
765 1 91.8094 62.4632 -5.55112e-17
766 1 114.366 35.7419 -5.55112e-17
767 1 97.1727 78.1049 -5.55112e-17
768 1 9.39287 3.93429 -5.55112e-17
769 1 107.841 75.6112 -5.55112e-17
770 2 113.432 109.83 -5.55112e-17
771 1 143.5 179.12 -5.55112e-17
772 1 102.047 28.3022 -5.55112e-17
773 1 109.337 167.175 -5.55112e-17
774 1 111.226 123.923 -5.55112e-17
775 1 69.0554 7.04936 -5.55112e-17
776 1 37.9084 10.9699 -5.55112e-17
777 1 107.939 181.899 -5.55112e-17
778 1 22.7327 18.97 -5.55112e-17
779 1 191.872 44.4219 -5.55112e-17
780 1 3.30777 169.177 -5.55112e-17
781 1 127.143 99.871 -5.55112e-17
782 1 175.726 49.3778 -5.55112e-17
783 1 98.5079 15.6149 -5.55112e-17
784 2 194.702 159.339 -5.55112e-17
785 1 111.025 165.202 -5.55112e-17
786 1 119.187 177.07 -5.55112e-17
787 1 185.339 74.9209 -5.55112e-17
788 1 177.266 45.1319 -5.55112e-17
789 2 142.782 108.903 -5.55112e-17
790 1 109.689 28.2502 -5.55112e-17
791 2 14.5956 121.944 -5.55112e-17
792 2 215.92 13.7233 -5.55112e-17
793 2 115.829 68.6607 -5.55112e-17
794 1 56.4197 188.707 -5.55112e-17
795 1 132.476 53.5141 -5.55112e-17
796 1 130.846 22.023 -5.55112e-17
797 1 197.847 155.557 -5.55112e-17
798 2 195.767 203.899 -5.55112e-17
799 2 207.743 65.2412 -5.55112e-17
800 2 55.5315 217.596 -5.55112e-17
801 1 102.894 132.32 -5.55112e-17
802 1 124.505 75.6106 -5.55112e-17
803 1 182.015 68.6174 -5.55112e-17
804 2 122.821 204.84 -5.55112e-17
805 1 45.0159 106.467 -5.55112e-17
806 1 11.9001 117.088 -5.55112e-17
807 2 100.499 99.303 -5.55112e-17
808 1 14.722 116.756 -5.55112e-17
809 2 57.7443 134.367 -5.55112e-17
810 1 129.939 197.696 -5.55112e-17
811 1 32.7143 5.90879 -5.55112e-17
812 1 131.958 34.3726 -5.55112e-17
813 2 107.958 110.857 -5.55112e-17
814 1 147.443 69.2708 -5.55112e-17
815 1 89.1679 164.445 -5.55112e-17
816 1 200.814 10.0233 -5.55112e-17
817 1 108.191 214.69 -5.55112e-17
818 1 57.3389 101.697 -5.55112e-17
819 1 9.61295 136.166 -5.55112e-17
820 1 45.4371 120.355 -5.55112e-17
821 1 94.5942 151.738 -5.55112e-17
822 2 41.7276 135.953 -5.55112e-17
823 2 139.183 91.5125 -5.55112e-17
824 1 34.9807 107.915 -5.55112e-17
825 1 65.1392 15.4341 -5.55112e-17
826 1 190.461 14.1594 -5.55112e-17
827 1 192.825 107.615 -5.55112e-17
828 1 142.214 123.471 -5.55112e-17
829 1 127.277 210.805 -5.55112e-17
830 1 81.4254 127.518 -5.55112e-17
831 1 217.364 42.7802 -5.55112e-17
832 1 93.1563 87.0727 -5.55112e-17
833 1 62.0731 84.3023 -5.55112e-17
834 1 106.97 9.18733 -5.55112e-17
835 1 58.0941 218.585 -5.55112e-17
836 1 10.9428 50.4532 -5.55112e-17
837 1 6.90006 70.9152 -5.55112e-17
838 1 98.189 178.497 -5.55112e-17
839 2 198.223 3.36102 -5.55112e-17
840 1 4.83008 202.711 -5.55112e-17
841 2 63.1798 184.987 -5.55112e-17
842 1 94.6876 91.634 -5.55112e-17
843 2 159.408 182.896 -5.55112e-17
844 1 26.4835 158.721 -5.55112e-17
845 1 71.2476 189.257 -5.55112e-17
846 1 158.819 190.634 -5.55112e-17
847 1 42.1783 141.113 -5.55112e-17
848 1 188.317 117.393 -5.55112e-17
849 1 189.293 166.96 -5.55112e-17
850 1 39.6939 129.205 -5.55112e-17
851 1 89.553 37.7113 -5.55112e-17
852 1 11.7304 209.163 -5.55112e-17
853 1 32.0036 138.889 -5.55112e-17
854 1 171.326 84.7628 -5.55112e-17
855 1 126.204 19.8668 -5.55112e-17
856 1 210.167 169.912 -5.55112e-17