ITEM: TIMESTEP
0
ITEM: NUMBER OF ATOMS
7200
ITEM: BOX BOUNDS xy xz yz pp pp pp
0.0000000000000000e+00 2.1900000000000000e+02 0.0000000000000000e+00
0.0000000000000000e+00 2.1900000000000000e+02 0.0000000000000000e+00
-3.6499999999999999e-01 3.6499999999999999e-01 0.0000000000000000e+00
ITEM: ATOMS id type x y z
1 1 67.7814 135.007 -5.55112e-17
2 1 183.365 108.366 -5.55112e-17
3 1 13.5346 158.04 -5.55112e-17
4 1 3.73767 85.6577 -5.55112e-17
5 1 215.753 157.086 -5.55112e-17
6 1 117.407 210.614 -5.55112e-17
7 1 42.3858 51.4839 -5.55112e-17
8 2 149.307 83.088 -5.55112e-17
9 1 203.047 9.7576 -5.55112e-17
10 2 58.1447 193.876 -5.55112e-17
11 1 114.546 15.2704 -5.55112e-17
12 1 129.342 78.2483 -5.55112e-17
13 2 51.2923 79.3185 -5.55112e-17
14 1 65.7042 17.9675 -5.55112e-17
15 1 136.838 105.342 -5.55112e-17
16 2 60.564 172.843 -5.55112e-17
17 1 114.155 30.7958 -5.55112e-17
18 2 31.6496 78.2931 -5.55112e-17
19 1 106.492 52.9091 -5.55112e-17
20 1 144.377 103.367 -5.55112e-17
21 1 42.291 5.64415 -5.55112e-17
22 2 49.6067 147.895 -5.55112e-17
23 2 17.4284 54.3725 -5.55112e-17
24 1 159.366 99.1879 -5.55112e-17
25 1 75.6317 183.422 -5.55112e-17
26 2 86.0872 97.0025 -5.55112e-17
27 1 155.616 173.439 -5.55112e-17
28 2 23.0913 156.618 -5.55112e-17
29 1 53.2085 46.6064 -5.55112e-17
30 1 139.575 88.1766 -5.55112e-17
31 1 211.815 90.533 -5.55112e-17
32 1 58.0124 104 -5.55112e-17
33 1 157.808 154.142 -5.55112e-17
34 1 61.131 77.6457 -5.55112e-17
35 1 177.309 68.9321 -5.55112e-17
36 1 61.6386 75.1918 -5.55112e-17
37 2 136.317 140.6 -5.55112e-17
38 1 197.968 74.5535 -5.55112e-17
39 1 122.001 138.027 -5.55112e-17
40 1 165.702 163.712 -5.55112e-17
41 1 120.56 182.282 -5.55112e-17
42 1 103.242 36.49 -5.55112e-17
43 1 135.07 60.6797 -5.55112e-17
44 1 107.266 23.3666 -5.55112e-17
45 1 214.905 84.7655 -5.55112e-17
46 1 28.3445 203.874 -5.55112e-17
47 1 88.835 172.512 -5.55112e-17
48 2 47.7024 86.5698 -5.55112e-17
49 1 76.7498 110.417 -5.55112e-17
50 1 46.2921 197.94 -5.55112e-17
51 1 181.26 34.3816 -5.55112e-17
52 1 203.909 132.53 -5.55112e-17
53 1 156.62 27.074 -5.55112e-17
54 1 24.505 119.419 -5.55112e-17
55 1 22.9296 48.2597 -5.55112e-17
56 1 117.521 140.074 -5.55112e-17
57 2 67.8176 215.016 -5.55112e-17
58 1 32.6098 40.9578 -5.55112e-17
59 1 28.9347 151.931 -5.55112e-17
60 2 152.094 146.995 -5.55112e-17
61 2 36.0073 203.314 -5.55112e-17
62 1 10.8261 161.896 -5.55112e-17
63 1 112.119 198.122 -5.55112e-17
64 1 134.284 39.5196 -5.55112e-17
65 1 214.253 114.085 -5.55112e-17
66 1 129.077 134.098 -5.55112e-17
67 1 95.7732 139.778 -5.55112e-17
68 1 66.8051 116.55 -5.55112e-17
69 1 141.303 173.84 -5.55112e-17
70 1 58.9046 111.034 -5.55112e-17
71 1 7.86446 125.764 -5.55112e-17
72 1 171.667 60.6352 -5.55112e-17
73 1 187.937 185.334 -5.55112e-17
74 1 207.018 21.5791 -5.55112e-17
75 2 93.9166 1.25877 -5.55112e-17
76 1 17.6119 5.10074 -5.55112e-17
77 1 36.3903 24.5059 -5.55112e-17
78 1 124.628 117.252 -5.55112e-17
79 2 126.389 1.2231 -5.55112e-17
80 1 74.9437 106.305 -5.55112e-17
81 1 110.507 141.041 -5.55112e-17
82 1 53.8686 141.739 -5.55112e-17
83 2 129.976 181.854 -5.55112e-17
84 1 179.847 80.3477 -5.55112e-17
85 1 22.1484 41.1125 -5.55112e-17
86 1 127.96 142.017 -5.55112e-17
87 1 217.425 217.144 -5.55112e-17
88 1 19.0017 34.9107 -5.55112e-17
89 2 44.0967 3.43574 -5.55112e-17
90 2 190.386 186.898 -5.55112e-17
91 1 149.724 90.3584 -5.55112e-17
92 2 168.447 21.5545 -5.55112e-17
93 1 141.336 15.1681 -5.55112e-17
94 2 201.646 12.6584 -5.55112e-17
95 1 33.5641 195.475 -5.55112e-17
96 1 130.344 95.4864 -5.55112e-17
97 1 97.432 4.80004 -5.55112e-17
98 1 125.326 55.2885 -5.55112e-17
99 1 178.274 21.4623 -5.55112e-17
100 1 176.077 8.64372 -5.55112e-17
101 1 114.564 12.6316 -5.55112e-17
102 1 24.6699 46.3766 -5.55112e-17
103 1 58.029 80.9474 -5.55112e-17
104 1 68.754 109.306 -5.55112e-17
105 1 142.602 201.021 -5.55112e-17
106 1 78.0286 102.795 -5.55112e-17
107 2 146.407 101.301 -5.55112e-17
108 1 36.3937 210.738 -5.55112e-17
109 1 54.6848 89.1399 -5.55112e-17
110 1 108.267 63.3039 -5.55112e-17
111 1 61.2748 20.8302 -5.55112e-17
112 1 94.8618 137.211 -5.55112e-17
113 1 99.3217 43.7633 -5.55112e-17
114 1 158.41 22.9374 -5.55112e-17
115 1 51.1936 163.286 -5.55112e-17
116 2 214.6 133.549 -5.55112e-17
117 1 201.687 216.364 -5.55112e-17
118 1 165.039 67.8536 -5.55112e-17
119 2 57.8447 98.7787 -5.55112e-17
120 1 53.333 199.822 -5.55112e-17
121 1 152.109 83.7887 -5.55112e-17
122 1 102.964 14.7012 -5.55112e-17
123 1 136.991 75.9419 -5.55112e-17
124 1 155.105 201.241 -5.55112e-17
125 1 141.83 117.533 -5.55112e-17
126 1 111.864 65.8171 -5.55112e-17
127 1 163.73 78.0769 -5.55112e-17
128 1 175.605 136.2 -5.55112e-17
129 1 7.67679 104.226 -5.55112e-17
130 1 83.5614 129.163 -5.55112e-17
131 1 175.845 152.074 -5.55112e-17
132 2 183.293 2.0957 -5.55112e-17
133 1 127.137 79.6433 -5.55112e-17
134 1 35.1933 86.2451 -5.55112e-17
135 1 78.4023 8.52819 -5.55112e-17
136 1 210.233 201.605 -5.55112e-17
137 1 102.165 136.914 -5.55112e-17
138 1 50.5016 212.37 -5.55112e-17
139 1 202.561 105.424 -5.55112e-17
140 2 141.814 185.787 -5.55112e-17
141 1 205.896 96.5344 -5.55112e-17
142 2 211.734 49.0989 -5.55112e-17
143 1 111.56 80.8285 -5.55112e-17
144 2 43.6518 199.167 -5.55112e-17
145 1 172.169 103.03 -5.55112e-17
146 1 99.9226 120.217 -5.55112e-17
147 1 154.608 145.553 -5.55112e-17
148 1 6.59254 201.082 -5.55112e-17
149 1 68.3464 21.3801 -5.55112e-17
150 1 54.0941 37.0928 -5.55112e-17
151 1 26.2854 112.926 -5.55112e-17
152 1 63.2171 104.485 -5.55112e-17
153 2 52.4166 6.42812 -5.55112e-17
154 1 149.223 94.5713 -5.55112e-17
155 1 107.848 17.0989 -5.55112e-17
156 2 71.7494 116.121 -5.55112e-17
157 1 207.908 104.783 -5.55112e-17
158 1 28.6058 29.392 -5.55112e-17
159 1 22.3306 135.667 -5.55112e-17
160 1 11.7923 201.494 -5.55112e-17
161 1 1.39166 8.117 -5.55112e-17
162 1 127.675 127.313 -5.55112e-17
163 1 17.7615 32.799 -5.55112e-17
164 1 166.978 52.9814 -5.55112e-17
165 1 125.562 121.686 -5.55112e-17
166 2 159.205 60.6375 -5.55112e-17
167 1 175.143 46.5039 -5.55112e-17
168 1 149.264 168.972 -5.55112e-17
169 1 2.04776 101.872 -5.55112e-17
170 1 95.0293 168.527 -5.55112e-17
171 1 146.638 60.8315 -5.55112e-17
172 1 218.591 17.4649 -5.55112e-17
173 1 45.7883 143.416 -5.55112e-17
174 1 130.961 62.5641 -5.55112e-17
175 2 137.308 160.342 -5.55112e-17
176 1 109.911 70.9246 -5.55112e-17
177 2 70.6557 56.7815 -5.55112e-17
178 1 65.3028 87.0021 -5.55112e-17
179 1 173.303 163.628 -5.55112e-17
180 1 203.45 197.176 -5.55112e-17
181 1 135.055 167.336 -5.55112e-17
182 2 77.5826 20.6496 -5.55112e-17
183 1 77.0724 164.516 -5.55112e-17
184 1 176.024 86.7166 -5.55112e-17
185 2 175.28 20.4628 -5.55112e-17
186 2 209.218 133.708 -5.55112e-17
187 1 93.3587 29.2389 -5.55112e-17
188 1 102.589 170.408 -5.55112e-17
189 1 123.729 174.392 -5.55112e-17
190 2 14.1333 160.871 -5.55112e-17
191 1 77.5321 157.721 -5.55112e-17
192 2 63.5867 109.746 -5.55112e-17
193 2 79.5785 172.781 -5.55112e-17
194 1 33.1594 149.378 -5.55112e-17
195 1 145.221 163.082 -5.55112e-17
196 1 168.325 191.765 -5.55112e-17
197 1 74.4214 70.0426 -5.55112e-17
198 2 9.78752 133.035 -5.55112e-17
199 1 210.561 57.371 -5.55112e-17
200 1 80.484 6.98488 -5.55112e-17
201 2 71.5849 110.18 -5.55112e-17
202 1 52.7443 210.996 -5.55112e-17
203 1 175.378 81.312 -5.55112e-17
204 1 188.297 156.159 -5.55112e-17
205 2 191.795 82.6262 -5.55112e-17
206 1 89.0465 133.22 -5.55112e-17
207 1 105.67 30.1101 -5.55112e-17
208 1 32.7416 85.9788 -5.55112e-17
209 1 81.9609 2.65743 -5.55112e-17
210 1 8.21751 64.5975 -5.55112e-17
211 2 146.466 156.087 -5.55112e-17
212 1 120.445 112.785 -5.55112e-17
213 1 134.637 104.078 -5.55112e-17
214 1 74.7926 14.0961 -5.55112e-17
215 1 74.3278 202.097 -5.55112e-17
216 1 193.523 139.016 -5.55112e-17
217 1 126.571 186.891 -5.55112e-17
218 2 28.1829 168.667 -5.55112e-17
219 1 155.465 213.733 -5.55112e-17
220 2 107.16 55.7087 -5.55112e-17
221 1 212.855 56.4538 -5.55112e-17
222 1 143.491 145.876 -5.55112e-17
223 1 52.5842 208.383 -5.55112e-17
224 2 9.72276 188.619 -5.55112e-17
225 1 201.229 142.211 -5.55112e-17
226 1 138.841 190.053 -5.55112e-17
227 2 51.278 17.0677 -5.55112e-17
228 1 138.746 77.8174 -5.55112e-17
229 1 61.0184 135.848 -5.55112e-17
230 1 158.923 130.715 -5.55112e-17
231 1 148.442 122.699 -5.55112e-17
232 1 1.42046 90.4563 -5.55112e-17
233 1 109.811 100.621 -5.55112e-17
234 1 133.689 216.077 -5.55112e-17
235 1 21.0947 143.088 -5.55112e-17
236 1 46.1297 81.4575 -5.55112e-17
237 1 198.988 8.17558 -5.55112e-17
238 1 147.706 127.989 -5.55112e-17
239 2 17.7723 112.11 -5.55112e-17
240 1 99.7523 5.94046 -5.55112e-17
241 2 187.745 14.581 -5.55112e-17
242 2 198.35 36.9479 -5.55112e-17
243 2 114.648 27.7714 -5.55112e-17
244 1 97.6679 7.57983 -5.55112e-17
245 1 84.5709 58.9632 -5.55112e-17
246 1 126.431 119.299 -5.55112e-17
247 1 211.166 98.4338 -5.55112e-17
248 1 94.578 3.97252 -5.55112e-17
249 1 23.5322 65.9739 -5.55112e-17
250 2 149.746 30.0071 -5.55112e-17
251 1 153.603 212.103 -5.55112e-17
252 1 195.444 64.2079 -5.55112e-17
253 1 94.1934 61.5905 -5.55112e-17
254 2 76.3664 197.594 -5.55112e-17
255 1 212.258 148.78 -5.55112e-17
256 1 84.681 166.137 -5.55112e-17
257 1 212.063 151.414 -5.55112e-17
258 2 163.775 27.9667 -5.55112e-17
259 1 57.8544 166.313 -5.55112e-17
260 1 127.793 11.5941 -5.55112e-17
261 1 184.686 13.4736 -5.55112e-17
262 1 53.4655 52.5759 -5.55112e-17
263 1 12.7655 213.843 -5.55112e-17
264 1 172.489 42.9005 -5.55112e-17
265 1 165.922 22.6798 -5.55112e-17
266 1 155.501 9.5998 -5.55112e-17
267 1 2.88564 64.7754 -5.55112e-17
268 1 21.5126 35.5793 -5.55112e-17
269 1 125.428 95.1133 -5.55112e-17
270 1 141.231 106.274 -5.55112e-17
271 1 12.5777 92.8536 -5.55112e-17
272 1 159.324 202.121 -5.55112e-17
273 1 40.3754 169.22 -5.55112e-17
274 2 112.719 87.8132 -5.55112e-17
275 1 64.111 5.25512 -5.55112e-17
276 2 53.9173 31.733 -5.55112e-17
277 2 167.222 121.681 -5.55112e-17
278 1 38.7022 101.549 -5.55112e-17
279 2 109.918 205.232 -5.55112e-17
280 1 60.236 31.7083 -5.55112e-17
281 1 147.215 28.6269 -5.55112e-17
282 1 164.916 8.19464 -5.55112e-17
283 1 113.064 141.684 -5.55112e-17
284 1 136.621 165.428 -5.55112e-17
285 1 35.8963 12.5319 -5.55112e-17
286 2 33.697 215.213 -5.55112e-17
287 1 82.6524 135.529 -5.55112e-17
288 1 21.73 57.6942 -5.55112e-17
289 1 71.3707 53.8369 -5.55112e-17
290 1 151.061 192.95 -5.55112e-17
291 1 158.783 144.7 -5.55112e-17
292 2 19.8627 181.614 -5.55112e-17
293 2 65.6243 194.898 -5.55112e-17
294 1 112.12 40.5507 -5.55112e-17
295 1 124.884 47.791 -5.55112e-17
296 1 135.165 41.8373 -5.55112e-17
297 1 118.602 145.162 -5.55112e-17
298 1 105.126 198.697 -5.55112e-17
299 1 160.621 106.19 -5.55112e-17
300 2 61.9756 94.8283 -5.55112e-17
301 1 58.7221 45.9044 -5.55112e-17
302 1 127.099 192.464 -5.55112e-17
303 2 198.535 60.0508 -5.55112e-17
304 2 144.876 129.344 -5.55112e-17
305 1 85.8916 99.8297 -5.55112e-17
306 1 51.2451 73.7058 -5.55112e-17
307 1 35.4367 122.758 -5.55112e-17
308 1 161.622 59.2259 -5.55112e-17
309 2 72.9602 184.593 -5.55112e-17
310 1 194.253 215.398 -5.55112e-17
311 1 79.881 33.8724 -5.55112e-17
312 1 192.097 147.593 -5.55112e-17
313 2 147.419 66.169 -5.55112e-17
314 1 52.0147 135.312 -5.55112e-17
315 1 111.36 150.646 -5.55112e-17
316 1 72.6789 1.30155 -5.55112e-17
317 1 13.7113 99.4275 -5.55112e-17
318 1 100.37 215.252 -5.55112e-17
319 1 51.0743 33.197 -5.55112e-17
320 1 144.349 99.2475 -5.55112e-17
321 1 88.5789 203.993 -5.55112e-17
322 1 143.2 140.326 -5.55112e-17
323 1 188.359 107.516 -5.55112e-17
324 1 81.2694 26.7836 -5.55112e-17
325 1 162.798 139.04 -5.55112e-17
326 1 84.9721 152.058 -5.55112e-17
327 2 149.884 185.423 -5.55112e-17
328 1 167.924 40.2467 -5.55112e-17
329 2 47.5745 115.872 -5.55112e-17
330 1 23.7412 102.283 -5.55112e-17
331 1 174.966 175.596 -5.55112e-17
332 2 112.385 104.644 -5.55112e-17
333 1 44.1983 17.9305 -5.55112e-17
334 1 139.945 168.758 -5.55112e-17
335 1 12.6381 206.449 -5.55112e-17
336 1 212.796 106.489 -5.55112e-17
337 1 103.112 182.423 -5.55112e-17
338 1 159.116 57.7175 -5.55112e-17
339 1 109.679 217.308 -5.55112e-17
340 1 153.646 141.124 -5.55112e-17
341 1 160.384 158.126 -5.55112e-17
342 1 128.771 144.573 -5.55112e-17
343 1 127.242 29.3558 -5.55112e-17
344 1 63.557 182.313 -5.55112e-17
345 1 60.7037 109.314 -5.55112e-17
346 1 9.78472 127.363 -5.55112e-17
347 1 92.1671 92.7067 -5.55112e-17
348 1 164.014 178.88 -5.55112e-17
349 1 193.655 75.4672 -5.55112e-17
350 2 90.0396 40.9724 -5.55112e-17
351 1 155.207 66.0126 -5.55112e-17
352 1 61.0362 183.033 -5.55112e-17
353 1 38.9889 166.95 -5.55112e-17
354 1 167.638 161.374 -5.55112e-17
355 1 58.5124 157.08 -5.55112e-17
356 1 24.0042 36.5446 -5.55112e-17
357 1 62.5122 159.218 -5.55112e-17
358 1 171.992 180.486 -5.55112e-17
359 1 157.824 158.693 -5.55112e-17
360 1 74.1129 53.3847 -5.55112e-17
361 1 63.0981 168.171 -5.55112e-17
362 1 169.458 200.717 -5.55112e-17
363 1 163.472 189.819 -5.55112e-17
364 2 116.293 92.7454 -5.55112e-17
365 1 178.722 90.4519 -5.55112e-17
366 1 117.407 160.841 -5.55112e-17
367 1 174.279 6.93784 -5.55112e-17
368 1 196.821 192.172 -5.55112e-17
369 2 115.498 188.219 -5.55112e-17
370 1 15.3001 206.014 -5.55112e-17
371 1 53.868 137.472 -5.55112e-17
372 2 0.431612 93.7309 -5.55112e-17
373 2 212.658 8.28594 -5.55112e-17
374 1 151.138 88.2661 -5.55112e-17
375 1 37.3235 112.195 -5.55112e-17
376 1 17.3502 151.713 -5.55112e-17
377 1 28.6224 213.381 -5.55112e-17
378 1 74.5656 129.467 -5.55112e-17
379 1 42.9748 60.4514 -5.55112e-17
380 1 177.927 150.572 -5.55112e-17
381 1 13.5182 5.77153 -5.55112e-17
382 1 54.1317 67.0757 -5.55112e-17
383 1 169.881 67.4768 -5.55112e-17
384 1 21.9519 14.2033 -5.55112e-17
385 1 191.752 76.9892 -5.55112e-17
386 2 82.0053 44.6007 -5.55112e-17
387 1 144.201 19.1141 -5.55112e-17
388 1 56.485 43.607 -5.55112e-17
389 1 206.591 158.839 -5.55112e-17
390 2 207.576 179.507 -5.55112e-17
391 2 35.6466 40.3716 -5.55112e-17
392 1 41.5158 218.242 -5.55112e-17
393 1 0.0108631 33.4969 -5.55112e-17
394 1 102.019 101.568 -5.55112e-17
395 1 16.0934 27.6233 -5.55112e-17
396 1 202.528 153.699 -5.55112e-17
397 1 100.788 16.303 -5.55112e-17
398 1 11.3006 191.265 -5.55112e-17
399 1 19.6389 59.4165 -5.55112e-17
400 1 103.226 179.621 -5.55112e-17
401 1 87.6205 176.974 -5.55112e-17
402 2 191.362 178.282 -5.55112e-17
403 1 214.244 54.2703 -5.55112e-17
404 1 36.1945 71.8547 -5.55112e-17
405 1 204.283 29.2822 -5.55112e-17
406 1 201.287 68.3614 -5.55112e-17
407 2 19.5023 62.7662 -5.55112e-17
408 1 34.0816 35.5125 -5.55112e-17
409 1 169.368 128.711 -5.55112e-17
410 1 19.9395 155.06 -5.55112e-17
411 1 151.827 159.813 -5.55112e-17
412 1 115.139 215.158 -5.55112e-17
413 1 63.4956 156.763 -5.55112e-17
414 1 38.2778 13.3455 -5.55112e-17
415 1 207.871 147.753 -5.55112e-17
416 1 71.8955 200.431 -5.55112e-17
417 1 141.154 93.571 -5.55112e-17
418 2 184.223 7.37028 -5.55112e-17
419 1 108.633 149.936 -5.55112e-17
420 2 137.039 108.803 -5.55112e-17
421 1 87.8474 104.15 -5.55112e-17
422 1 175.987 23.1725 -5.55112e-17
423 2 158.165 41.5087 -5.55112e-17
424 1 157.406 148.997 -5.55112e-17
425 1 129.516 166.785 -5.55112e-17
426 1 133.463 112.372 -5.55112e-17
427 1 45.55 84.2438 -5.55112e-17
428 1 70.8574 192.362 -5.55112e-17
429 1 194.76 83.3852 -5.55112e-17
430 1 215.209 60.2771 -5.55112e-17
431 1 120.502 206.44 -5.55112e-17
432 1 161.612 53.6821 -5.55112e-17
433 1 104.974 153.658 -5.55112e-17
434 1 71.6903 30.4499 -5.55112e-17
435 1 178.024 161.295 -5.55112e-17
436 1 42.6311 37.4908 -5.55112e-17
437 1 175.849 109.387 -5.55112e-17
438 2 109.661 21.8718 -5.55112e-17
439 1 67.2751 209.298 -5.55112e-17
440 1 3.68865 161.843 -5.55112e-17
441 1 192.767 131.114 -5.55112e-17
442 1 50.1918 13.945 -5.55112e-17
443 1 157.833 104.501 -5.55112e-17
444 1 218.382 101.07 -5.55112e-17
445 1 139.964 7.04632 -5.55112e-17
446 1 131.805 79.2171 -5.55112e-17
447 1 38.8929 145.084 -5.55112e-17
448 1 75.8212 7.30331 -5.55112e-17
449 1 131.891 120.603 -5.55112e-17
450 1 139.75 187.659 -5.55112e-17
451 1 170.795 46.9632 -5.55112e-17
452 1 131.264 144.843 -5.55112e-17
453 1 179.096 181.985 -5.55112e-17
454 1 160.352 211.739 -5.55112e-17
455 1 100.414 72.0456 -5.55112e-17
456 1 166.945 27.2094 -5.55112e-17
457 1 97.9314 113.697 -5.55112e-17
458 1 198.428 0.338608 -5.55112e-17
459 1 81.394 69.2099 -5.55112e-17
460 1 48.602 102.317 -5.55112e-17
461 1 188.663 177.594 -5.55112e-17
462 1 181.976 115.847 -5.55112e-17
463 1 126.822 33.9142 -5.55112e-17
464 1 154.967 194.749 -5.55112e-17
465 1 121.555 159.555 -5.55112e-17
466 1 23.6693 213.997 -5.55112e-17
467 1 17.3702 80.1156 -5.55112e-17
468 1 161.503 218.699 -5.55112e-17
469 1 68.6638 77.8755 -5.55112e-17
470 1 78.4376 38.1095 -5.55112e-17
471 1 128.814 174.528 -5.55112e-17
472 1 48.1172 83.4299 -5.55112e-17
473 1 26.0446 102.95 -5.55112e-17
474 1 88.1125 101.592 -5.55112e-17
475 1 185.057 163.267 -5.55112e-17
476 2 192.326 11.6509 -5.55112e-17
477 1 53.5463 84.7965 -5.55112e-17
478 1 58.6428 126.186 -5.55112e-17
479 1 201.773 80.7637 -5.55112e-17
480 1 85.2911 23.6458 -5.55112e-17
481 1 14.8841 94.3731 -5.55112e-17
482 1 99.4369 159.944 -5.55112e-17
483 1 142.143 159.432 -5.55112e-17
484 2 87.5774 45.9058 -5.55112e-17
485 1 33.6477 100.764 -5.55112e-17
486 1 82.0047 17.191 -5.55112e-17
487 1 101.083 196.639 -5.55112e-17
488 1 5.8861 121.349 -5.55112e-17
489 1 212.007 134.928 -5.55112e-17
490 1 205.383 84.0265 -5.55112e-17
491 1 197.476 121.124 -5.55112e-17
492 1 2.83136 128.747 -5.55112e-17
493 1 193.859 210.525 -5.55112e-17
494 1 211.219 38.3144 -5.55112e-17
495 1 198.806 89.3367 -5.55112e-17
496 2 44.2828 189.734 -5.55112e-17
497 1 39.0359 217.303 -5.55112e-17
498 1 105.001 121.523 -5.55112e-17
499 2 136.634 216.215 -5.55112e-17
500 1 25.9594 29.9888 -5.55112e-17
501 2 112.815 217.026 -5.55112e-17
502 2 123.487 143.055 -5.55112e-17
503 1 147.282 183.792 -5.55112e-17
504 1 112.867 148.736 -5.55112e-17
505 1 117.828 18.655 -5.55112e-17
506 1 26.0615 121.742 -5.55112e-17
507 1 14.6499 129.926 -5.55112e-17
508 1 196.631 217.48 -5.55112e-17
509 2 26.9198 75.3887 -5.55112e-17
510 2 146.238 133.104 -5.55112e-17
511 1 195.918 35.4589 -5.55112e-17
512 2 210.012 60.246 -5.55112e-17
513 1 56.7233 127.88 -5.55112e-17
514 1 48.836 18.6499 -5.55112e-17
515 1 204.151 25.0546 -5.55112e-17
516 1 182.66 205.746 -5.55112e-17
517 1 111.924 117.653 -5.55112e-17
518 2 103.288 20.6189 -5.55112e-17
519 1 11.746 52.7682 -5.55112e-17
520 2 212.463 23.2094 -5.55112e-17
521 1 88.7088 111.423 -5.55112e-17
522 1 31.0938 30.4778 -5.55112e-17
523 1 24.898 68.1549 -5.55112e-17
524 1 100.104 74.8483 -5.55112e-17
525 1 174.704 120.806 -5.55112e-17
526 1 190.974 64.8597 -5.55112e-17
527 1 75.4457 4.80347 -5.55112e-17
528 1 168.622 28.9936 -5.55112e-17
529 1 56.9555 159.263 -5.55112e-17
530 1 100.411 32.2225 -5.55112e-17
531 1 66.5081 197.81 -5.55112e-17
532 1 206.817 187.913 -5.55112e-17
533 1 134.148 150.849 -5.55112e-17
534 1 97.5026 144.884 -5.55112e-17
535 1 14.4673 104.702 -5.55112e-17
536 1 203.763 117.579 -5.55112e-17
537 1 201.245 166.39 -5.55112e-17
538 1 168.61 80.8185 -5.55112e-17
539 1 89.1075 211.78 -5.55112e-17
540 1 103.16 89.143 -5.55112e-17
541 1 40.7738 58.8927 -5.55112e-17
542 1 67.5054 211.917 -5.55112e-17
543 1 147.359 151.631 -5.55112e-17
544 1 129.285 200.218 -5.55112e-17
545 1 8.03628 149.598 -5.55112e-17
546 1 179.498 40.9783 -5.55112e-17
547 1 82.3207 172.631 -5.55112e-17
548 1 100.106 8.61479 -5.55112e-17
549 1 51.5384 76.2853 -5.55112e-17
550 2 162.571 121.221 -5.55112e-17
551 2 134.583 157.779 -5.55112e-17
552 2 93.8695 180.679 -5.55112e-17
553 1 122.411 42.4328 -5.55112e-17
554 1 73.5369 101.69 -5.55112e-17
555 2 65.9708 124.098 -5.55112e-17
556 1 148.349 22.0031 -5.55112e-17
557 1 76.8233 12.5748 -5.55112e-17
558 1 148.086 125.228 -5.55112e-17
559 1 187.77 47.6119 -5.55112e-17
560 1 131.493 51.1421 -5.55112e-17
561 1 146.668 168.45 -5.55112e-17
562 1 195.595 144.468 -5.55112e-17
563 2 168.098 113.611 -5.55112e-17
564 1 42.2082 67.1217 -5.55112e-17
565 1 60.1967 10.6969 -5.55112e-17
566 1 75.5198 34.4784 -5.55112e-17
567 1 150.344 110.947 -5.55112e-17
568 1 22.0493 114.648 -5.55112e-17
569 1 114.33 185.473 -5.55112e-17
570 1 124.993 124.047 -5.55112e-17
571 1 175.671 203.372 -5.55112e-17
572 1 61.2842 111.956 -5.55112e-17
573 1 177.213 76.7624 -5.55112e-17
574 1 41.6292 130.486 -5.55112e-17
575 1 21.8025 76.751 -5.55112e-17
576 1 196.063 98.4591 -5.55112e-17
577 1 202.492 33.4736 -5.55112e-17
578 1 123.148 197.22 -5.55112e-17
579 1 13.9343 168.241 -5.55112e-17
580 1 102.856 139.243 -5.55112e-17
581 1 141.381 153.807 -5.55112e-17
582 1 76.2254 79.1464 -5.55112e-17
583 1 161.582 185.124 -5.55112e-17
584 2 28.9999 117.644 -5.55112e-17
585 1 48.7184 198.871 -5.55112e-17
586 1 138.118 170.932 -5.55112e-17
587 1 99.2232 105.26 -5.55112e-17
588 1 16.8607 2.34902 -5.55112e-17
589 1 103.294 17.4213 -5.55112e-17
590 1 70.3913 0.269014 -5.55112e-17
591 1 215.707 161.902 -5.55112e-17
592 1 56.1484 156.492 -5.55112e-17
593 1 209.562 181.647 -5.55112e-17
594 1 181.553 180.804 -5.55112e-17
595 1 83.1809 39.7971 -5.55112e-17
596 1 66.3089 35.9287 -5.55112e-17
597 2 180.443 203.783 -5.55112e-17
598 1 167.359 211.234 -5.55112e-17
599 1 207.916 171.19 -5.55112e-17
600 1 105.126 10.7948 -5.55112e-17
601 1 11.9936 134.788 -5.55112e-17
602 1 97.984 31.3746 -5.55112e-17
603 1 207.791 202.792 -5.55112e-17
604 1 120.844 1.47553 -5.55112e-17
605 2 85.4877 77.6854 -5.55112e-17
606 1 102.621 202.204 -5.55112e-17
607 2 171.435 146.492 -5.55112e-17
608 1 95.0757 76.9626 -5.55112e-17
609 1 15.697 6.89817 -5.55112e-17
610 1 214.438 150.266 -5.55112e-17
611 1 201.882 190.216 -5.55112e-17
612 1 217.696 38.0069 -5.55112e-17
613 1 58.9087 151.047 -5.55112e-17
614 2 127.795 179.54 -5.55112e-17
615 1 105.753 18.5195 -5.55112e-17
616 1 202.579 130.408 -5.55112e-17
617 1 127.641 198.083 -5.55112e-17
618 1 201.47 212.101 -5.55112e-17
619 1 179.44 77.9629 -5.55112e-17
620 1 141.22 141.767 -5.55112e-17
621 1 197.294 93.5705 -5.55112e-17
622 1 95.1903 213.905 -5.55112e-17
623 1 218.434 12.2729 -5.55112e-17
624 1 23.9196 209.432 -5.55112e-17
625 1 204.759 154.738 -5.55112e-17
626 1 94.2276 191.087 -5.55112e-17
627 1 64.1236 74.1051 -5.55112e-17
628 1 34.5349 28.6052 -5.55112e-17
629 1 10.2389 94.3526 -5.55112e-17
630 2 151.179 22.2398 -5.55112e-17
631 1 15.5584 86.547 -5.55112e-17
632 1 49.1966 92.1103 -5.55112e-17
633 1 38.8713 211.721 -5.55112e-17
634 1 1.24631 147.474 -5.55112e-17
635 1 155.226 150.482 -5.55112e-17
636 1 207.953 58.1266 -5.55112e-17
637 1 201.165 58.3473 -5.55112e-17
638 1 172.608 76.7439 -5.55112e-17
639 2 203.882 78.7767 -5.55112e-17
640 1 143.472 152.231 -5.55112e-17
641 1 192.812 85.3813 -5.55112e-17
642 1 32.0948 91.5778 -5.55112e-17
643 2 182.045 42.6274 -5.55112e-17
644 1 68.4733 155.508 -5.55112e-17
645 1 106.938 196.866 -5.55112e-17
646 2 211.79 141.185 -5.55112e-17
647 1 11.0217 185.55 -5.55112e-17
648 1 132.317 103.097 -5.55112e-17
649 2 23.7706 150.855 -5.55112e-17
650 1 204.692 186.281 -5.55112e-17
651 1 218.535 113.153 -5.55112e-17
652 1 153.609 44.1458 -5.55112e-17
653 1 114.567 175.573 -5.55112e-17
654 1 23.387 21.768 -5.55112e-17
655 2 183.968 100.793 -5.55112e-17
656 1 28.3066 123.654 -5.55112e-17
657 2 79.2815 207.573 -5.55112e-17
658 1 54.1787 44.335 -5.55112e-17
659 2 156.336 192.29 -5.55112e-17
660 1 102.129 55.9117 -5.55112e-17
661 1 43.0378 116.648 -5.55112e-17
662 1 81.4997 130.684 -5.55112e-17
663 1 31.7398 25.7046 -5.55112e-17
664 1 146.683 18.239 -5.55112e-17
665 1 139.764 75.3125 -5.55112e-17
666 2 47.9005 181.39 -5.55112e-17
667 1 93.258 99.8322 -5.55112e-17
668 2 101.601 93.8976 -5.55112e-17
669 1 36.4157 17.6821 -5.55112e-17
670 1 96.62 173.631 -5.55112e-17
671 2 53.6003 176.44 -5.55112e-17
672 1 186.612 11.95 -5.55112e-17
673 1 63.5759 19.4538 -5.55112e-17
674 1 1.90795 31.806 -5.55112e-17
675 1 128.289 23.4379 -5.55112e-17
676 1 169.623 123.449 -5.55112e-17
677 1 131.745 174.74 -5.55112e-17
678 1 137.527 30.9288 -5.55112e-17
679 2 152.144 33.2661 -5.55112e-17
680 1 202.786 41.5465 -5.55112e-17
681 2 129.448 118.75 -5.55112e-17
682 1 0.147407 47.7445 -5.55112e-17
683 1 68.6551 4.56317 -5.55112e-17
684 1 120.107 154.563 -5.55112e-17
685 1 153.159 38.881 -5.55112e-17
686 1 27.8906 194.067 -5.55112e-17
687 1 118.527 192.142 -5.55112e-17
688 1 162.917 109.848 -5.55112e-17
689 2 56.0846 46.722 -5.55112e-17
690 1 70.5725 19.9357 -5.55112e-17
691 1 89.4925 66.4551 -5.55112e-17
692 1 131.219 8.23008 -5.55112e-17
693 1 48.495 143.357 -5.55112e-17
694 1 76.1565 124.976 -5.55112e-17
695 1 146.331 38.6896 -5.55112e-17
696 1 146.481 81.1099 -5.55112e-17
697 1 139.82 201.439 -5.55112e-17
698 1 116.791 66.0216 -5.55112e-17
699 1 180.302 191.495 -5.55112e-17
700 1 205.765 209.4 -5.55112e-17
701 1 54.2044 16.7478 -5.55112e-17
702 1 113.657 128.8 -5.55112e-17
703 2 188.221 143.817 -5.55112e-17
704 1 29.1627 218.624 -5.55112e-17
705 2 69.0177 112.239 -5.55112e-17
706 1 165.841 176.942 -5.55112e-17
707 1 114.226 24.9468 -5.55112e-17
708 1 84.362 209.426 -5.55112e-17
709 1 147.548 196.148 -5.55112e-17
710 1 192.263 191.286 -5.55112e-17
711 1 111.324 93.105 -5.55112e-17
712 1 192.444 207.955 -5.55112e-17
713 1 13.9946 136.099 -5.55112e-17
714 1 136.447 13.2924 -5.55112e-17
715 1 55.8249 199.486 -5.55112e-17
716 1 40.6844 123.711 -5.55112e-17
717 1 51.4313 107.689 -5.55112e-17
718 1 130.965 184.814 -5.55112e-17
719 2 119.814 79.0728 -5.55112e-17
720 1 98.9298 65.2871 -5.55112e-17
721 1 95.3125 98.9689 -5.55112e-17
722 1 133.59 62.8173 -5.55112e-17
723 2 48.641 45.4028 -5.55112e-17
724 1 15.3677 49.1681 -5.55112e-17
725 1 29.3867 109.012 -5.55112e-17
726 1 189.797 45.7326 -5.55112e-17
727 1 148.543 205.001 -5.55112e-17
728 2 18.0699 87.8317 -5.55112e-17
729 1 133.86 164.94 -5.55112e-17
730 1 174.552 198.872 -5.55112e-17
731 1 49.3248 190.346 -5.55112e-17
732 1 218.431 9.56834 -5.55112e-17
733 1 205.105 34.422 -5.55112e-17
734 1 4.02939 29.8538 -5.55112e-17
735 1 41.2024 22.8915 -5.55112e-17
736 2 190.475 74.4203 -5.55112e-17
737 1 81.8573 86.511 -5.55112e-17
738 1 18.3749 166.666 -5.55112e-17
739 1 105.631 156.187 -5.55112e-17
740 1 59.7202 116.185 -5.55112e-17
741 2 189.186 78.2371 -5.55112e-17
742 1 74.8519 43.9079 -5.55112e-17
743 1 203.07 66.6715 -5.55112e-17
744 2 210.718 172.664 -5.55112e-17
745 1 131.057 32.0242 -5.55112e-17
746 1 14.0998 29.4848 -5.55112e-17
747 2 204.179 22.2316 -5.55112e-17
748 1 182.793 192.688 -5.55112e-17
749 1 196.474 210.824 -5.55112e-17
750 1 213.295 163.39 -5.55112e-17
751 1 59.6909 58.7066 -5.55112e-17
752 1 178.318 105.851 -5.55112e-17
753 1 99.2545 150.533 -5.55112e-17
754 1 14.7994 215.648 -5.55112e-17
755 1 83.0305 195.484 -5.55112e-17
756 2 103.897 195.876 -5.55112e-17
757 1 27.4453 18.8488 -5.55112e-17
758 1 135.538 146.085 -5.55112e-17
759 1 72.6116 107.515 -5.55112e-17
760 1 95.3499 39.9103 -5.55112e-17
761 1 58.1447 161.616 -5.55112e-17
762 1 43.7478 23.5981 -5.55112e-17
763 1 113.996 99.7475 -5.55112e-17
764 2 177.691 147.508 -5.55112e-17
765 1 92.0052 62.6866 -5.55112e-17
766 1 114.31 35.7473 -5.55112e-17
767 1 97.0824 78.4495 -5.55112e-17
768 1 9.545 4.33534 -5.55112e-17
769 1 108.159 75.8703 -5.55112e-17
770 2 113.565 110.109 -5.55112e-17
771 1 143.775 178.709 -5.55112e-17
772 1 102.171 28.5535 -5.55112e-17
773 1 109.296 167.307 -5.55112e-17
774 1 111.218 124.255 -5.55112e-17
775 1 69.0485 7.00159 -5.55112e-17
776 1 37.962 10.8449 -5.55112e-17
777 1 107.892 182.159 -5.55112e-17
778 1 22.7849 19.5224 -5.55112e-17
779 1 191.845 43.9383 -5.55112e-17
780 1 3.69688 169.083 -5.55112e-17
781 1 127.037 100.067 -5.55112e-17
782 1 175.489 49.3 -5.55112e-17
783 1 98.3685 15.4684 -5.55112e-17
784 2 194.767 159.193 -5.55112e-17
785 1 111.217 165.408 -5.55112e-17
786 1 119.28 177.04 -5.55112e-17
787 1 185.596 74.8602 -5.55112e-17
788 1 177.283 44.9985 -5.55112e-17
789 2 143.065 108.802 -5.55112e-17
790 1 109.717 28.2609 -5.55112e-17
791 2 14.6038 121.853 -5.55112e-17
792 2 215.704 13.5065 -5.55112e-17
793 2 116.063 68.8442 -5.55112e-17
794 1 56.4599 188.763 -5.55112e-17
795 1 132.404 53.3916 -5.55112e-17
796 1 130.721 22.0008 -5.55112e-17
797 1 197.656 155.364 -5.55112e-17
798 2 195.869 203.972 -5.55112e-17
799 2 207.821 65.3977 -5.55112e-17
800 2 55.5818 217.808 -5.55112e-17
801 1 102.689 132.384 -5.55112e-17
802 1 124.561 75.8815 -5.55112e-17
803 1 181.804 68.6928 -5.55112e-17
804 2 123.093 205.116 -5.55112e-17
805 1 44.8459 106.64 -5.55112e-17
806 1 11.9356 117.155 -5.55112e-17
807 2 100.27 99.5738 -5.55112e-17
808 1 14.6424 116.447 -5.55112e-17
809 2 57.9073 134.519 -5.55112e-17
810 1 130.103 197.5 -5.55112e-17
811 1 33.0433 6.1824 -5.55112e-17
812 1 132.039 34.5997 -5.55112e-17
813 2 107.851 111.131 -5.55112e-17
814 1 147.208 69.1505 -5.55112e-17
815 1 89.1701 164.815 -5.55112e-17
816 1 200.566 10.157 -5.55112e-17
817 1 108.447 214.784 -5.55112e-17
818 1 57.1843 101.505 -5.55112e-17
819 1 9.74155 136.113 -5.55112e-17
820 1 45.4557 120.39 -5.55112e-17
821 1 94.5678 151.788 -5.55112e-17
822 2 41.7079 135.814 -5.55112e-17
823 2 138.84 91.4808 -5.55112e-17
824 1 34.7737 108.295 -5.55112e-17
825 1 65.4032 15.395 -5.55112e-17
826 1 190.539 13.8581 -5.55112e-17
827 1 192.944 107.387 -5.55112e-17
828 1 142.114 123.213 -5.55112e-17
829 1 127.283 211.025 -5.55112e-17
830 1 81.5614 128.012 -5.55112e-17
831 1 217.155 42.7081 -5.55112e-17
832 1 93.3994 87.4167 -5.55112e-17
833 1 61.979 84.4887 -5.55112e-17
834 1 107.377 9.41095 -5.55112e-17
835 1 58.2693 218.467 -5.55112e-17
836 1 10.8878 50.5594 -5.55112e-17
837 1 7.13242 70.5094 -5.55112e-17
838 1 98.0523 178.72 -5.55112e-17
839 2 197.991 3.22963 -5.55112e-17
840 1 4.92095 202.791 -5.55112e-17
841 2 63.0291 185.213 -5.55112e-17
842 1 94.4964 91.7882 -5.55112e-17
843 2 159.487 182.444 -5.55112e-17
844 1 25.8813 158.655 -5.55112e-17
845 1 70.9624 189.552 -5.55112e-17
846 1 158.817 190.374 -5.55112e-17
847 1 41.8888 140.886 -5.55112e-17
848 1 188.458 117.094 -5.55112e-17
849 1 189.319 166.48 -5.55112e-17
850 1 39.4185 129.302 -5.55112e-17
851 1 89.6816 37.8496 -5.55112e-17
852 1 11.781 209.064 -5.55112e-17
853 1 32.0797 138.932 -5.55112e-17
854 1 171.308 84.6588 -5.55112e-17
855 1 125.927 19.5237 -5.55112e-17
856 1 210.191 169.88 -5.55112e-17