ITEM: TIMESTEP
0
ITEM: NUMBER OF ATOMS
7200
ITEM: BOX BOUNDS xy xz yz pp pp pp
0.0000000000000000e+00 2.1900000000000000e+02 0.0000000000000000e+00
0.0000000000000000e+00 2.1900000000000000e+02 0.0000000000000000e+00
-3.6499999999999999e-01 3.6499999999999999e-01 0.0000000000000000e+00
ITEM: ATOMS id type x y z
1 1 67.8166 134.779 -5.55112e-17
2 1 183.04 108.67 -5.55112e-17
3 1 13.7398 158.559 -5.55112e-17
4 1 3.84463 86.2019 -5.55112e-17
5 1 215.433 157.07 -5.55112e-17
6 1 117.072 210.411 -5.55112e-17
7 1 42.3216 51.6696 -5.55112e-17
8 2 149.316 82.999 -5.55112e-17
9 1 203.278 9.71264 -5.55112e-17
10 2 58.1548 193.447 -5.55112e-17
11 1 114.836 14.7139 -5.55112e-17
12 1 129.37 77.7947 -5.55112e-17
13 2 51.4842 79.314 -5.55112e-17
14 1 65.4666 17.7164 -5.55112e-17
15 1 136.933 105.305 -5.55112e-17
16 2 60.8829 172.578 -5.55112e-17
17 1 114.191 30.779 -5.55112e-17
18 2 31.6704 78.4263 -5.55112e-17
19 1 106.418 52.419 -5.55112e-17
20 1 144.335 103.181 -5.55112e-17
21 1 41.9881 5.35981 -5.55112e-17
22 2 49.7241 147.75 -5.55112e-17
23 2 17.3382 54.7371 -5.55112e-17
24 1 159.28 99.4709 -5.55112e-17
25 1 75.8181 183.024 -5.55112e-17
26 2 86.4491 96.9013 -5.55112e-17
27 1 155.613 174.338 -5.55112e-17
28 2 22.457 156.524 -5.55112e-17
29 1 53.1981 46.7015 -5.55112e-17
30 1 139.75 88.0354 -5.55112e-17
31 1 211.407 90.475 -5.55112e-17
32 1 57.8376 104.3 -5.55112e-17
33 1 157.494 154.646 -5.55112e-17
34 1 61.5127 77.685 -5.55112e-17
35 1 177.128 69.166 -5.55112e-17
36 1 61.7397 75.2098 -5.55112e-17
37 2 136.447 140.665 -5.55112e-17
38 1 197.761 74.5691 -5.55112e-17
39 1 122.294 138.185 -5.55112e-17
40 1 165.824 163.856 -5.55112e-17
41 1 120.816 182.391 -5.55112e-17
42 1 102.879 36.2986 -5.55112e-17
43 1 135.405 60.7728 -5.55112e-17
44 1 107.411 22.9778 -5.55112e-17
45 1 214.873 84.5772 -5.55112e-17
46 1 28.298 203.246 -5.55112e-17
47 1 88.7945 172.199 -5.55112e-17
48 2 47.6303 86.4292 -5.55112e-17
49 1 76.7614 110.556 -5.55112e-17
50 1 46.3389 197.711 -5.55112e-17
51 1 181.1 34.4657 -5.55112e-17
52 1 203.777 132.681 -5.55112e-17
53 1 156.831 27.2066 -5.55112e-17
54 1 24.2227 119.171 -5.55112e-17
55 1 22.8442 48.459 -5.55112e-17
56 1 117.641 140.149 -5.55112e-17
57 2 68.0617 214.69 -5.55112e-17
58 1 32.6591 40.509 -5.55112e-17
59 1 28.9863 152.168 -5.55112e-17
60 2 151.838 147.29 -5.55112e-17
61 2 36.1463 203.002 -5.55112e-17
62 1 10.5428 162.27 -5.55112e-17
63 1 111.896 197.786 -5.55112e-17
64 1 134.008 39.335 -5.55112e-17
65 1 214.003 114.465 -5.55112e-17
66 1 129.071 134.263 -5.55112e-17
67 1 95.7313 139.727 -5.55112e-17
68 1 66.4464 116.572 -5.55112e-17
69 1 140.827 174.164 -5.55112e-17
70 1 58.8584 111.412 -5.55112e-17
71 1 7.57008 125.812 -5.55112e-17
72 1 171.608 60.9136 -5.55112e-17
73 1 187.776 185.853 -5.55112e-17
74 1 207.331 21.4839 -5.55112e-17
75 2 93.7386 1.20178 -5.55112e-17
76 1 17.9013 4.73402 -5.55112e-17
77 1 36.5041 24.3161 -5.55112e-17
78 1 124.74 117.278 -5.55112e-17
79 2 126.437 1.11784 -5.55112e-17
80 1 74.9738 106.359 -5.55112e-17
81 1 110.631 140.986 -5.55112e-17
82 1 53.8705 141.702 -5.55112e-17
83 2 129.897 182.162 -5.55112e-17
84 1 179.989 80.8669 -5.55112e-17
85 1 22.3092 41.4315 -5.55112e-17
86 1 128.424 142.12 -5.55112e-17
87 1 217.581 217.395 -5.55112e-17
88 1 19.1708 35.1494 -5.55112e-17
89 2 44.0664 3.43073 -5.55112e-17
90 2 190.366 187.377 -5.55112e-17
91 1 149.707 90.4501 -5.55112e-17
92 2 168.964 21.3695 -5.55112e-17
93 1 141.263 15.2256 -5.55112e-17
94 2 202.005 12.4539 -5.55112e-17
95 1 33.5584 194.995 -5.55112e-17
96 1 130.517 95.5077 -5.55112e-17
97 1 97.1654 4.68424 -5.55112e-17
98 1 125.412 55.1255 -5.55112e-17
99 1 178.148 21.656 -5.55112e-17
100 1 176.148 9.15708 -5.55112e-17
101 1 114.369 12.2493 -5.55112e-17
102 1 24.649 46.4745 -5.55112e-17
103 1 58.0437 80.6671 -5.55112e-17
104 1 68.5475 109.309 -5.55112e-17
105 1 142.536 201.457 -5.55112e-17
106 1 77.9481 102.786 -5.55112e-17
107 2 146.643 101.488 -5.55112e-17
108 1 36.2061 210.679 -5.55112e-17
109 1 54.6211 89.0826 -5.55112e-17
110 1 108.154 62.9853 -5.55112e-17
111 1 60.9011 20.8765 -5.55112e-17
112 1 95.0297 137.242 -5.55112e-17
113 1 99.2592 43.3091 -5.55112e-17
114 1 158.498 23.0039 -5.55112e-17
115 1 51.3138 163.247 -5.55112e-17
116 2 214.246 133.718 -5.55112e-17
117 1 201.723 216.27 -5.55112e-17
118 1 165.064 68.0844 -5.55112e-17
119 2 57.9668 98.9564 -5.55112e-17
120 1 53.3225 199.585 -5.55112e-17
121 1 152.129 83.6839 -5.55112e-17
122 1 103.092 14.596 -5.55112e-17
123 1 136.925 75.7363 -5.55112e-17
124 1 154.897 201.574 -5.55112e-17
125 1 141.468 117.709 -5.55112e-17
126 1 111.674 65.2983 -5.55112e-17
127 1 163.82 78.3218 -5.55112e-17
128 1 175.614 136.663 -5.55112e-17
129 1 7.54352 104.244 -5.55112e-17
130 1 83.7697 128.596 -5.55112e-17
131 1 175.6 152.547 -5.55112e-17
132 2 183.329 2.04827 -5.55112e-17
133 1 127.209 79.3255 -5.55112e-17
134 1 35.57 86.2177 -5.55112e-17
135 1 78.4566 8.38447 -5.55112e-17
136 1 210.333 201.352 -5.55112e-17
137 1 102.137 136.709 -5.55112e-17
138 1 50.3915 212.07 -5.55112e-17
139 1 202.645 105.534 -5.55112e-17
140 2 141.963 186.336 -5.55112e-17
141 1 205.752 96.6129 -5.55112e-17
142 2 211.86 48.9802 -5.55112e-17
143 1 111.376 80.5299 -5.55112e-17
144 2 43.7389 198.996 -5.55112e-17
145 1 172.479 103.244 -5.55112e-17
146 1 99.8706 120.035 -5.55112e-17
147 1 154.398 145.849 -5.55112e-17
148 1 6.78957 200.688 -5.55112e-17
149 1 67.8218 21.5015 -5.55112e-17
150 1 54.1797 37.3273 -5.55112e-17
151 1 26.0303 112.73 -5.55112e-17
152 1 63.2417 104.684 -5.55112e-17
153 2 52.2928 5.94217 -5.55112e-17
154 1 149.139 94.5256 -5.55112e-17
155 1 107.945 16.6828 -5.55112e-17
156 2 71.4611 116.24 -5.55112e-17
157 1 207.735 104.813 -5.55112e-17
158 1 28.9493 28.9947 -5.55112e-17
159 1 22.0844 135.856 -5.55112e-17
160 1 12.1435 201.224 -5.55112e-17
161 1 1.58403 8.06034 -5.55112e-17
162 1 127.592 127.377 -5.55112e-17
163 1 17.8167 32.771 -5.55112e-17
164 1 167.171 53.056 -5.55112e-17
165 1 125.277 121.702 -5.55112e-17
166 2 159.491 60.7235 -5.55112e-17
167 1 175.077 46.7274 -5.55112e-17
168 1 149.231 169.61 -5.55112e-17
169 1 1.85429 101.95 -5.55112e-17
170 1 94.808 168.233 -5.55112e-17
171 1 146.669 60.7979 -5.55112e-17
172 1 218.872 17.3386 -5.55112e-17
173 1 45.8348 143.479 -5.55112e-17
174 1 131.252 62.4627 -5.55112e-17
175 2 137.486 160.921 -5.55112e-17
176 1 109.892 70.6717 -5.55112e-17
177 2 70.5525 56.827 -5.55112e-17
178 1 65.4603 86.9049 -5.55112e-17
179 1 173.303 164.102 -5.55112e-17
180 1 203.5 197.126 -5.55112e-17
181 1 134.891 167.483 -5.55112e-17
182 2 77.5124 20.7141 -5.55112e-17
183 1 76.8019 163.992 -5.55112e-17
184 1 176.294 86.9344 -5.55112e-17
185 2 175.266 20.7228 -5.55112e-17
186 2 208.738 133.953 -5.55112e-17
187 1 93.2419 28.8771 -5.55112e-17
188 1 102.672 170.348 -5.55112e-17
189 1 123.676 174.512 -5.55112e-17
190 2 13.5333 161.66 -5.55112e-17
191 1 77.4799 157.101 -5.55112e-17
192 2 63.2514 109.932 -5.55112e-17
193 2 80.0538 172.355 -5.55112e-17
194 1 32.9381 149.427 -5.55112e-17
195 1 145.213 163.655 -5.55112e-17
196 1 168.643 192.163 -5.55112e-17
197 1 74.316 69.8478 -5.55112e-17
198 2 9.70468 133.02 -5.55112e-17
199 1 210.671 56.9308 -5.55112e-17
200 1 80.465 6.82251 -5.55112e-17
201 2 71.3902 110.191 -5.55112e-17
202 1 52.6634 210.727 -5.55112e-17
203 1 175.602 81.7131 -5.55112e-17
204 1 188.369 156.508 -5.55112e-17
205 2 191.997 82.5722 -5.55112e-17
206 1 89.4866 133.002 -5.55112e-17
207 1 105.946 29.9611 -5.55112e-17
208 1 33.0098 85.9262 -5.55112e-17
209 1 82.0668 2.68792 -5.55112e-17
210 1 8.03839 64.5272 -5.55112e-17
211 2 146.488 156.713 -5.55112e-17
212 1 120.458 112.382 -5.55112e-17
213 1 134.84 104.106 -5.55112e-17
214 1 74.441 14.245 -5.55112e-17
215 1 74.447 201.603 -5.55112e-17
216 1 193.67 138.958 -5.55112e-17
217 1 126.685 186.907 -5.55112e-17
218 2 28.7531 168.336 -5.55112e-17
219 1 155.544 213.951 -5.55112e-17
220 2 106.853 55.4802 -5.55112e-17
221 1 212.92 56.1737 -5.55112e-17
222 1 143.388 146.321 -5.55112e-17
223 1 52.4893 208.075 -5.55112e-17
224 2 10.0822 188.456 -5.55112e-17
225 1 201.405 142.351 -5.55112e-17
226 1 138.813 190.219 -5.55112e-17
227 2 51.0379 16.9216 -5.55112e-17
228 1 138.837 77.41 -5.55112e-17
229 1 60.825 135.682 -5.55112e-17
230 1 158.906 131.105 -5.55112e-17
231 1 148.455 122.902 -5.55112e-17
232 1 1.46404 90.881 -5.55112e-17
233 1 109.801 100.435 -5.55112e-17
234 1 133.768 216.205 -5.55112e-17
235 1 20.9462 143.356 -5.55112e-17
236 1 46.2339 81.6845 -5.55112e-17
237 1 199.004 8.08557 -5.55112e-17
238 1 147.794 128.268 -5.55112e-17
239 2 17.6055 112.165 -5.55112e-17
240 1 99.5542 5.85612 -5.55112e-17
241 2 187.888 14.8674 -5.55112e-17
242 2 198.715 37.2503 -5.55112e-17
243 2 114.733 27.7367 -5.55112e-17
244 1 97.4521 7.51885 -5.55112e-17
245 1 84.6895 58.8756 -5.55112e-17
246 1 126.36 119.251 -5.55112e-17
247 1 210.924 98.5521 -5.55112e-17
248 1 94.5213 3.88939 -5.55112e-17
249 1 23.4986 65.8968 -5.55112e-17
250 2 149.826 29.6712 -5.55112e-17
251 1 153.773 212.308 -5.55112e-17
252 1 195.358 64.1701 -5.55112e-17
253 1 94.1674 61.3475 -5.55112e-17
254 2 76.8682 197.189 -5.55112e-17
255 1 212.264 148.897 -5.55112e-17
256 1 84.5416 165.339 -5.55112e-17
257 1 211.805 151.517 -5.55112e-17
258 2 164.017 27.8379 -5.55112e-17
259 1 58.2653 165.649 -5.55112e-17
260 1 127.403 11.1511 -5.55112e-17
261 1 185.104 14.2158 -5.55112e-17
262 1 53.4913 52.5036 -5.55112e-17
263 1 12.706 213.688 -5.55112e-17
264 1 172.457 43.025 -5.55112e-17
265 1 166.471 22.7993 -5.55112e-17
266 1 155.434 9.6758 -5.55112e-17
267 1 2.84043 64.6706 -5.55112e-17
268 1 21.775 35.5934 -5.55112e-17
269 1 125.927 94.9117 -5.55112e-17
270 1 141.431 106.372 -5.55112e-17
271 1 12.7159 92.7186 -5.55112e-17
272 1 159.348 202.222 -5.55112e-17
273 1 40.7363 168.853 -5.55112e-17
274 2 112.932 87.8036 -5.55112e-17
275 1 64.426 4.81395 -5.55112e-17
276 2 53.99 32.2209 -5.55112e-17
277 2 167.098 122.024 -5.55112e-17
278 1 38.5566 101.204 -5.55112e-17
279 2 109.848 204.996 -5.55112e-17
280 1 60.1921 31.7027 -5.55112e-17
281 1 147.193 28.4417 -5.55112e-17
282 1 164.881 8.18915 -5.55112e-17
283 1 113.227 141.524 -5.55112e-17
284 1 136.571 165.635 -5.55112e-17
285 1 35.9183 12.6408 -5.55112e-17
286 2 33.8211 215.057 -5.55112e-17
287 1 82.7363 135.321 -5.55112e-17
288 1 21.5532 57.7815 -5.55112e-17
289 1 71.466 54.113 -5.55112e-17
290 1 150.851 193.445 -5.55112e-17
291 1 158.399 145.122 -5.55112e-17
292 2 19.8375 181.199 -5.55112e-17
293 2 65.7786 194.499 -5.55112e-17
294 1 111.871 40.2681 -5.55112e-17
295 1 124.929 48.0325 -5.55112e-17
296 1 134.907 41.8042 -5.55112e-17
297 1 118.71 145.133 -5.55112e-17
298 1 104.838 198.471 -5.55112e-17
299 1 160.434 106.345 -5.55112e-17
300 2 62.2811 94.9043 -5.55112e-17
301 1 58.8144 45.9584 -5.55112e-17
302 1 127.003 192.812 -5.55112e-17
303 2 198.58 59.974 -5.55112e-17
304 2 144.933 129.588 -5.55112e-17
305 1 85.9163 99.6974 -5.55112e-17
306 1 51.2457 73.7146 -5.55112e-17
307 1 34.9855 122.557 -5.55112e-17
308 1 161.875 58.9767 -5.55112e-17
309 2 73.118 184.319 -5.55112e-17
310 1 194.295 215.621 -5.55112e-17
311 1 79.8462 33.6739 -5.55112e-17
312 1 192.095 147.825 -5.55112e-17
313 2 147.49 66.1799 -5.55112e-17
314 1 52.0733 135.209 -5.55112e-17
315 1 111.101 150.462 -5.55112e-17
316 1 72.947 1.01072 -5.55112e-17
317 1 13.6841 99.5586 -5.55112e-17
318 1 100.178 215.056 -5.55112e-17
319 1 51.1119 33.1422 -5.55112e-17
320 1 144.433 99.7402 -5.55112e-17
321 1 88.5916 203.813 -5.55112e-17
322 1 143.357 140.344 -5.55112e-17
323 1 188.045 107.978 -5.55112e-17
324 1 81.3589 26.8481 -5.55112e-17
325 1 162.757 139.408 -5.55112e-17
326 1 85.2565 151.662 -5.55112e-17
327 2 149.756 186.033 -5.55112e-17
328 1 167.576 40.3537 -5.55112e-17
329 2 47.0217 115.768 -5.55112e-17
330 1 23.6792 102.175 -5.55112e-17
331 1 174.631 176.126 -5.55112e-17
332 2 112.501 104.589 -5.55112e-17
333 1 44.5627 17.6468 -5.55112e-17
334 1 139.594 169.24 -5.55112e-17
335 1 12.5971 206.441 -5.55112e-17
336 1 212.667 106.479 -5.55112e-17
337 1 103.253 182.436 -5.55112e-17
338 1 159.428 57.7166 -5.55112e-17
339 1 109.275 217.07 -5.55112e-17
340 1 153.519 141.605 -5.55112e-17
341 1 160.356 158.698 -5.55112e-17
342 1 128.879 144.652 -5.55112e-17
343 1 127.473 29.319 -5.55112e-17
344 1 63.5943 181.889 -5.55112e-17
345 1 60.2425 109.341 -5.55112e-17
346 1 9.31349 127.548 -5.55112e-17
347 1 92.2445 92.4741 -5.55112e-17
348 1 164.082 179.342 -5.55112e-17
349 1 193.487 75.2582 -5.55112e-17
350 2 89.7227 40.6849 -5.55112e-17
351 1 154.885 65.7409 -5.55112e-17
352 1 61.043 182.849 -5.55112e-17
353 1 39.4387 166.412 -5.55112e-17
354 1 167.916 161.696 -5.55112e-17
355 1 58.3355 156.732 -5.55112e-17
356 1 24.0635 36.7741 -5.55112e-17
357 1 62.649 158.598 -5.55112e-17
358 1 172.234 180.974 -5.55112e-17
359 1 157.806 159.222 -5.55112e-17
360 1 74.1771 53.4384 -5.55112e-17
361 1 63.3105 168.029 -5.55112e-17
362 1 169.317 201.23 -5.55112e-17
363 1 163.685 189.939 -5.55112e-17
364 2 116.634 92.6208 -5.55112e-17
365 1 179.033 90.7164 -5.55112e-17
366 1 117.676 160.982 -5.55112e-17
367 1 174.351 7.14722 -5.55112e-17
368 1 196.945 192.649 -5.55112e-17
369 2 115.307 188.014 -5.55112e-17
370 1 15.337 205.998 -5.55112e-17
371 1 53.5401 137.238 -5.55112e-17
372 2 0.309177 93.9275 -5.55112e-17
373 2 212.888 7.99792 -5.55112e-17
374 1 151.272 88.3697 -5.55112e-17
375 1 37.0844 112.03 -5.55112e-17
376 1 16.1525 152.998 -5.55112e-17
377 1 28.5823 213.229 -5.55112e-17
378 1 74.5504 129.365 -5.55112e-17
379 1 43.0451 60.589 -5.55112e-17
380 1 177.73 150.972 -5.55112e-17
381 1 13.6359 5.44769 -5.55112e-17
382 1 54.5073 67.284 -5.55112e-17
383 1 169.725 67.6961 -5.55112e-17
384 1 21.9111 14.0049 -5.55112e-17
385 1 191.583 77.0221 -5.55112e-17
386 2 82.0641 44.4674 -5.55112e-17
387 1 144.194 19.0227 -5.55112e-17
388 1 56.5317 43.8292 -5.55112e-17
389 1 206.64 158.899 -5.55112e-17
390 2 207.141 179.599 -5.55112e-17
391 2 35.6631 40.3291 -5.55112e-17
392 1 41.5623 218.16 -5.55112e-17
393 1 0.217364 33.2938 -5.55112e-17
394 1 102.499 101.191 -5.55112e-17
395 1 16.1964 27.615 -5.55112e-17
396 1 202.381 153.837 -5.55112e-17
397 1 100.846 16.1657 -5.55112e-17
398 1 11.6032 191.049 -5.55112e-17
399 1 19.5446 59.6691 -5.55112e-17
400 1 103.307 179.814 -5.55112e-17
401 1 87.7904 176.525 -5.55112e-17
402 2 191.112 179.033 -5.55112e-17
403 1 214.274 54.0706 -5.55112e-17
404 1 36.2631 71.4214 -5.55112e-17
405 1 204.352 29.1212 -5.55112e-17
406 1 201.19 68.1949 -5.55112e-17
407 2 19.3331 62.7578 -5.55112e-17
408 1 34.2645 35.4084 -5.55112e-17
409 1 169.219 129.043 -5.55112e-17
410 1 19.95 154.898 -5.55112e-17
411 1 151.836 160.783 -5.55112e-17
412 1 114.925 215.184 -5.55112e-17
413 1 63.4736 156.211 -5.55112e-17
414 1 38.3558 13.7648 -5.55112e-17
415 1 207.75 148.286 -5.55112e-17
416 1 72.1391 200.152 -5.55112e-17
417 1 141.266 93.7567 -5.55112e-17
418 2 184.474 7.44725 -5.55112e-17
419 1 108.593 149.849 -5.55112e-17
420 2 136.905 108.814 -5.55112e-17
421 1 87.9972 103.94 -5.55112e-17
422 1 176.379 23.5531 -5.55112e-17
423 2 157.921 41.5276 -5.55112e-17
424 1 157.205 149.318 -5.55112e-17
425 1 129.255 166.846 -5.55112e-17
426 1 133.282 112.818 -5.55112e-17
427 1 45.6603 84.3399 -5.55112e-17
428 1 71.2625 191.813 -5.55112e-17
429 1 194.746 83.1846 -5.55112e-17
430 1 215.193 60.1285 -5.55112e-17
431 1 120.271 206.507 -5.55112e-17
432 1 161.513 53.7806 -5.55112e-17
433 1 105.047 153.924 -5.55112e-17
434 1 71.738 30.3038 -5.55112e-17
435 1 178.013 161.771 -5.55112e-17
436 1 44.657 36.0994 -5.55112e-17
437 1 175.462 109.399 -5.55112e-17
438 2 109.928 21.5811 -5.55112e-17
439 1 67.4447 208.937 -5.55112e-17
440 1 3.29965 162.014 -5.55112e-17
441 1 192.779 131.508 -5.55112e-17
442 1 50.71 13.697 -5.55112e-17
443 1 158.178 104.692 -5.55112e-17
444 1 218.433 101.239 -5.55112e-17
445 1 139.85 7.4546 -5.55112e-17
446 1 131.934 78.6757 -5.55112e-17
447 1 38.7201 145.148 -5.55112e-17
448 1 75.9499 7.46801 -5.55112e-17
449 1 131.905 120.593 -5.55112e-17
450 1 139.629 187.946 -5.55112e-17
451 1 170.694 47.311 -5.55112e-17
452 1 131.323 144.76 -5.55112e-17
453 1 179.223 182.461 -5.55112e-17
454 1 160.305 211.812 -5.55112e-17
455 1 100.03 71.843 -5.55112e-17
456 1 167.11 26.9632 -5.55112e-17
457 1 97.8334 113.467 -5.55112e-17
458 1 198.642 0.24839 -5.55112e-17
459 1 81.1135 69.2316 -5.55112e-17
460 1 48.7741 102.493 -5.55112e-17
461 1 188.519 178.111 -5.55112e-17
462 1 181.807 116.129 -5.55112e-17
463 1 126.747 33.823 -5.55112e-17
464 1 155.027 195.111 -5.55112e-17
465 1 121.59 159.848 -5.55112e-17
466 1 24.1607 213.878 -5.55112e-17
467 1 17.4704 80.1078 -5.55112e-17
468 1 161.49 218.717 -5.55112e-17
469 1 68.5336 77.7946 -5.55112e-17
470 1 78.1994 37.9026 -5.55112e-17
471 1 128.924 174.467 -5.55112e-17
472 1 48.1205 83.3501 -5.55112e-17
473 1 26.174 102.786 -5.55112e-17
474 1 88.2762 101.273 -5.55112e-17
475 1 184.783 163.77 -5.55112e-17
476 2 192.364 11.9833 -5.55112e-17
477 1 53.8367 84.7588 -5.55112e-17
478 1 58.1742 125.894 -5.55112e-17
479 1 201.832 80.4828 -5.55112e-17
480 1 85.4465 23.5062 -5.55112e-17
481 1 15.0267 94.27 -5.55112e-17
482 1 99.4712 159.846 -5.55112e-17
483 1 142.088 160.055 -5.55112e-17
484 2 87.5006 45.8493 -5.55112e-17
485 1 33.7749 100.679 -5.55112e-17
486 1 81.8483 17.3658 -5.55112e-17
487 1 100.797 196.63 -5.55112e-17
488 1 5.97557 121.344 -5.55112e-17
489 1 211.546 134.974 -5.55112e-17
490 1 205.299 84.0422 -5.55112e-17
491 1 197.185 121.586 -5.55112e-17
492 1 2.77841 128.798 -5.55112e-17
493 1 194.024 210.748 -5.55112e-17
494 1 211.253 38.3032 -5.55112e-17
495 1 198.832 89.3296 -5.55112e-17
496 2 44.1222 189.461 -5.55112e-17
497 1 39.1802 216.922 -5.55112e-17
498 1 104.893 121.055 -5.55112e-17
499 2 136.749 216.528 -5.55112e-17
500 1 26.1777 29.9546 -5.55112e-17
501 2 112.529 216.841 -5.55112e-17
502 2 123.684 143.43 -5.55112e-17
503 1 147.325 183.976 -5.55112e-17
504 1 112.938 148.515 -5.55112e-17
505 1 118.167 18.5782 -5.55112e-17
506 1 26.1218 121.901 -5.55112e-17
507 1 14.4115 129.874 -5.55112e-17
508 1 196.468 217.239 -5.55112e-17
509 2 27.3172 75.537 -5.55112e-17
510 2 146.468 133.516 -5.55112e-17
511 1 196.037 35.7276 -5.55112e-17
512 2 210.207 59.9287 -5.55112e-17
513 1 56.0965 127.647 -5.55112e-17
514 1 48.7781 18.8154 -5.55112e-17
515 1 204.191 25.1253 -5.55112e-17
516 1 182.781 206.178 -5.55112e-17
517 1 112.334 117.427 -5.55112e-17
518 2 103.475 20.1389 -5.55112e-17
519 1 11.6726 52.9081 -5.55112e-17
520 2 212.43 23.1781 -5.55112e-17
521 1 88.6813 110.97 -5.55112e-17
522 1 31.2024 30.3398 -5.55112e-17
523 1 24.8667 67.9811 -5.55112e-17
524 1 99.8523 74.4347 -5.55112e-17
525 1 174.915 121.278 -5.55112e-17
526 1 190.83 64.73 -5.55112e-17
527 1 75.4839 4.82196 -5.55112e-17
528 1 168.669 28.9696 -5.55112e-17
529 1 56.9626 158.885 -5.55112e-17
530 1 100.491 31.9186 -5.55112e-17
531 1 66.553 197.343 -5.55112e-17
532 1 206.546 188.134 -5.55112e-17
533 1 134.082 151.13 -5.55112e-17
534 1 97.3703 144.624 -5.55112e-17
535 1 14.1752 104.857 -5.55112e-17
536 1 203.642 117.798 -5.55112e-17
537 1 201.283 166.709 -5.55112e-17
538 1 168.843 80.9418 -5.55112e-17
539 1 89.1613 211.704 -5.55112e-17
540 1 103.356 88.7887 -5.55112e-17
541 1 40.7796 59.0549 -5.55112e-17
542 1 67.4567 211.741 -5.55112e-17
543 1 147.299 151.971 -5.55112e-17
544 1 128.942 200.478 -5.55112e-17
545 1 7.95566 150.021 -5.55112e-17
546 1 179.182 41.1835 -5.55112e-17
547 1 82.8239 171.945 -5.55112e-17
548 1 99.8084 8.48548 -5.55112e-17
549 1 51.8368 76.4512 -5.55112e-17
550 2 162.501 121.455 -5.55112e-17
551 2 134.658 158.066 -5.55112e-17
552 2 93.9318 180.284 -5.55112e-17
553 1 122.473 42.4731 -5.55112e-17
554 1 73.3725 101.927 -5.55112e-17
555 2 65.6405 123.739 -5.55112e-17
556 1 148.536 21.9252 -5.55112e-17
557 1 76.5493 12.6504 -5.55112e-17
558 1 148.099 125.684 -5.55112e-17
559 1 187.434 47.6104 -5.55112e-17
560 1 131.491 51.2846 -5.55112e-17
561 1 146.757 168.805 -5.55112e-17
562 1 195.62 144.449 -5.55112e-17
563 2 167.916 114.038 -5.55112e-17
564 1 41.9271 66.9462 -5.55112e-17
565 1 60.2999 10.1778 -5.55112e-17
566 1 75.3342 34.3232 -5.55112e-17
567 1 150.308 111.122 -5.55112e-17
568 1 22.0618 114.686 -5.55112e-17
569 1 114.343 185.143 -5.55112e-17
570 1 124.981 124.2 -5.55112e-17
571 1 175.598 203.775 -5.55112e-17
572 1 61.2086 112.14 -5.55112e-17
573 1 177.485 76.9054 -5.55112e-17
574 1 41.4938 130.816 -5.55112e-17
575 1 21.9086 76.6211 -5.55112e-17
576 1 196.428 98.5443 -5.55112e-17
577 1 202.855 33.313 -5.55112e-17
578 1 122.879 196.95 -5.55112e-17
579 1 15.6627 167.013 -5.55112e-17
580 1 102.875 139.189 -5.55112e-17
581 1 141.208 154.492 -5.55112e-17
582 1 75.914 79.2061 -5.55112e-17
583 1 162.193 185.835 -5.55112e-17
584 2 28.9354 117.657 -5.55112e-17
585 1 48.5933 198.887 -5.55112e-17
586 1 137.739 171.13 -5.55112e-17
587 1 99.4035 104.736 -5.55112e-17
588 1 17.2847 1.61963 -5.55112e-17
589 1 103.21 17.2503 -5.55112e-17
590 1 70.5195 0.0216726 -5.55112e-17
591 1 215.228 162.125 -5.55112e-17
592 1 55.89 156.194 -5.55112e-17
593 1 209.38 181.414 -5.55112e-17
594 1 181.46 181.254 -5.55112e-17
595 1 83.0443 39.7582 -5.55112e-17
596 1 66.1419 35.9587 -5.55112e-17
597 2 180.543 204.52 -5.55112e-17
598 1 167.254 211.583 -5.55112e-17
599 1 207.872 171.344 -5.55112e-17
600 1 104.768 10.4724 -5.55112e-17
601 1 11.7761 135.077 -5.55112e-17
602 1 98.1629 30.9705 -5.55112e-17
603 1 208.079 202.621 -5.55112e-17
604 1 120.782 1.18391 -5.55112e-17
605 2 85.4345 77.5181 -5.55112e-17
606 1 102.75 201.999 -5.55112e-17
607 2 171.814 146.631 -5.55112e-17
608 1 95.1785 76.6146 -5.55112e-17
609 1 16.0103 6.46363 -5.55112e-17
610 1 214.296 150.646 -5.55112e-17
611 1 201.816 190.305 -5.55112e-17
612 1 218.189 37.8332 -5.55112e-17
613 1 59.0678 151.031 -5.55112e-17
614 2 127.971 179.491 -5.55112e-17
615 1 105.659 18.1363 -5.55112e-17
616 1 202.171 130.532 -5.55112e-17
617 1 127.174 198.482 -5.55112e-17
618 1 201.7 212.521 -5.55112e-17
619 1 179.344 78.3727 -5.55112e-17
620 1 141.318 141.964 -5.55112e-17
621 1 197.385 93.8773 -5.55112e-17
622 1 95.3266 213.675 -5.55112e-17
623 1 218.899 12.2013 -5.55112e-17
624 1 24.0804 209.208 -5.55112e-17
625 1 204.621 154.639 -5.55112e-17
626 1 94.1201 190.917 -5.55112e-17
627 1 64.1535 74.1083 -5.55112e-17
628 1 34.426 28.381 -5.55112e-17
629 1 10.2194 94.7584 -5.55112e-17
630 2 151.434 21.9389 -5.55112e-17
631 1 15.5884 86.7102 -5.55112e-17
632 1 49.5039 92.207 -5.55112e-17
633 1 38.7404 211.602 -5.55112e-17
634 1 1.35143 147.667 -5.55112e-17
635 1 155.167 150.891 -5.55112e-17
636 1 208.245 57.8329 -5.55112e-17
637 1 201.172 58.1898 -5.55112e-17
638 1 172.97 76.7947 -5.55112e-17
639 2 203.931 78.5614 -5.55112e-17
640 1 143.215 152.665 -5.55112e-17
641 1 193.053 85.2344 -5.55112e-17
642 1 32.1131 91.6504 -5.55112e-17
643 2 181.862 42.7226 -5.55112e-17
644 1 68.5299 155.178 -5.55112e-17
645 1 106.584 196.38 -5.55112e-17
646 2 211.891 141.372 -5.55112e-17
647 1 11.2181 185.285 -5.55112e-17
648 1 132.43 103 -5.55112e-17
649 2 23.7444 151.039 -5.55112e-17
650 1 204.423 186.526 -5.55112e-17
651 1 218.306 113.561 -5.55112e-17
652 1 153.5 44.007 -5.55112e-17
653 1 114.493 175.681 -5.55112e-17
654 1 23.2689 21.4684 -5.55112e-17
655 2 183.796 101.065 -5.55112e-17
656 1 30.3205 125.396 -5.55112e-17
657 2 79.3355 207.259 -5.55112e-17
658 1 54.0154 44.2527 -5.55112e-17
659 2 156.546 192.688 -5.55112e-17
660 1 102.077 55.457 -5.55112e-17
661 1 42.3677 116.69 -5.55112e-17
662 1 81.7003 130.324 -5.55112e-17
663 1 31.9117 25.5507 -5.55112e-17
664 1 146.562 17.9156 -5.55112e-17
665 1 139.955 75.1638 -5.55112e-17
666 2 47.8713 181.024 -5.55112e-17
667 1 93.1571 99.4991 -5.55112e-17
668 2 101.973 93.476 -5.55112e-17
669 1 36.1617 17.829 -5.55112e-17
670 1 96.4072 173.418 -5.55112e-17
671 2 53.8949 176.035 -5.55112e-17
672 1 186.485 12.0796 -5.55112e-17
673 1 63.1347 19.2116 -5.55112e-17
674 1 2.18716 31.7093 -5.55112e-17
675 1 128.343 23.6261 -5.55112e-17
676 1 169.393 123.766 -5.55112e-17
677 1 131.575 174.933 -5.55112e-17
678 1 137.706 30.7955 -5.55112e-17
679 2 152.371 32.9959 -5.55112e-17
680 1 202.696 41.5909 -5.55112e-17
681 2 129.437 119.171 -5.55112e-17
682 1 0.214797 47.7059 -5.55112e-17
683 1 68.8116 4.24143 -5.55112e-17
684 1 120.019 154.491 -5.55112e-17
685 1 153.008 38.6606 -5.55112e-17
686 1 27.994 193.942 -5.55112e-17
687 1 118.516 191.803 -5.55112e-17
688 1 162.78 110.252 -5.55112e-17
689 2 56.0729 46.7031 -5.55112e-17
690 1 70.0517 19.8481 -5.55112e-17
691 1 89.1895 66.2743 -5.55112e-17
692 1 131.116 8.09112 -5.55112e-17
693 1 48.3608 143.095 -5.55112e-17
694 1 76.0769 125.04 -5.55112e-17
695 1 146.082 38.4607 -5.55112e-17
696 1 146.437 81.1825 -5.55112e-17
697 1 139.848 201.578 -5.55112e-17
698 1 116.695 65.8311 -5.55112e-17
699 1 180.54 191.98 -5.55112e-17
700 1 205.844 209.368 -5.55112e-17
701 1 54.0135 16.8943 -5.55112e-17
702 1 113.591 128.799 -5.55112e-17
703 2 188.265 143.884 -5.55112e-17
704 1 29.3971 218.644 -5.55112e-17
705 2 68.7952 112.198 -5.55112e-17
706 1 165.905 177.396 -5.55112e-17
707 1 114.229 24.7735 -5.55112e-17
708 1 84.3922 209.36 -5.55112e-17
709 1 147.453 196.31 -5.55112e-17
710 1 192.228 191.97 -5.55112e-17
711 1 111.473 93.1014 -5.55112e-17
712 1 192.683 208.163 -5.55112e-17
713 1 14.0334 136.319 -5.55112e-17
714 1 136.136 13.2961 -5.55112e-17
715 1 56.1034 199.096 -5.55112e-17
716 1 40.1448 123.899 -5.55112e-17
717 1 51.4165 107.583 -5.55112e-17
718 1 131.05 185.222 -5.55112e-17
719 2 119.751 78.6507 -5.55112e-17
720 1 98.8925 64.8109 -5.55112e-17
721 1 95.4295 98.533 -5.55112e-17
722 1 133.768 62.7578 -5.55112e-17
723 2 48.5019 45.5554 -5.55112e-17
724 1 15.2955 49.4035 -5.55112e-17
725 1 29.3322 109.108 -5.55112e-17
726 1 189.453 45.8643 -5.55112e-17
727 1 148.607 205.451 -5.55112e-17
728 2 18.1703 87.7951 -5.55112e-17
729 1 133.825 165.187 -5.55112e-17
730 1 174.508 199.355 -5.55112e-17
731 1 49.2968 190.046 -5.55112e-17
732 1 218.619 9.48899 -5.55112e-17
733 1 205.366 34.1277 -5.55112e-17
734 1 4.01445 30.0594 -5.55112e-17
735 1 41.0546 22.7485 -5.55112e-17
736 2 190.504 74.2435 -5.55112e-17
737 1 81.6457 86.4759 -5.55112e-17
738 1 19.9476 165.6 -5.55112e-17
739 1 105.91 156.366 -5.55112e-17
740 1 59.6562 116.306 -5.55112e-17
741 2 189.013 78.3874 -5.55112e-17
742 1 74.6452 43.7839 -5.55112e-17
743 1 202.964 66.4863 -5.55112e-17
744 2 210.646 172.678 -5.55112e-17
745 1 130.995 32.1755 -5.55112e-17
746 1 14.1528 29.4957 -5.55112e-17
747 2 204.269 22.2641 -5.55112e-17
748 1 182.834 193.341 -5.55112e-17
749 1 196.656 211.146 -5.55112e-17
750 1 212.904 163.534 -5.55112e-17
751 1 59.7023 58.691 -5.55112e-17
752 1 177.88 105.773 -5.55112e-17
753 1 99.222 150.884 -5.55112e-17
754 1 14.9847 215.419 -5.55112e-17
755 1 83.4203 195.135 -5.55112e-17
756 2 103.588 195.855 -5.55112e-17
757 1 27.1618 18.4819 -5.55112e-17
758 1 135.507 146.439 -5.55112e-17
759 1 72.689 107.615 -5.55112e-17
760 1 94.7136 39.6936 -5.55112e-17
761 1 58.3288 161.18 -5.55112e-17
762 1 43.5623 23.2752 -5.55112e-17
763 1 114.109 99.6992 -5.55112e-17
764 2 177.741 148.032 -5.55112e-17
765 1 91.8718 62.5764 -5.55112e-17
766 1 114.348 35.6657 -5.55112e-17
767 1 97.0328 78.3611 -5.55112e-17
768 1 9.84751 4.10257 -5.55112e-17
769 1 107.941 75.6371 -5.55112e-17
770 2 113.559 109.75 -5.55112e-17
771 1 143.572 178.888 -5.55112e-17
772 1 102.391 28.1721 -5.55112e-17
773 1 109.454 167.287 -5.55112e-17
774 1 111.338 124.077 -5.55112e-17
775 1 69.0504 6.97839 -5.55112e-17
776 1 38.1186 11.0493 -5.55112e-17
777 1 108.014 181.944 -5.55112e-17
778 1 22.7177 19.0742 -5.55112e-17
779 1 191.566 44.3221 -5.55112e-17
780 1 3.04054 169.19 -5.55112e-17
781 1 126.947 99.6688 -5.55112e-17
782 1 175.561 49.2911 -5.55112e-17
783 1 98.322 15.3834 -5.55112e-17
784 2 194.65 159.358 -5.55112e-17
785 1 111.007 165.34 -5.55112e-17
786 1 119.573 177.185 -5.55112e-17
787 1 185.497 75.0869 -5.55112e-17
788 1 177.16 45.2378 -5.55112e-17
789 2 143.091 108.82 -5.55112e-17
790 1 109.832 28.0011 -5.55112e-17
791 2 14.6384 121.903 -5.55112e-17
792 2 216.001 13.5105 -5.55112e-17
793 2 115.847 68.6934 -5.55112e-17
794 1 56.4063 188.612 -5.55112e-17
795 1 132.536 53.5367 -5.55112e-17
796 1 130.575 22.3187 -5.55112e-17
797 1 197.774 155.531 -5.55112e-17
798 2 196.022 204.073 -5.55112e-17
799 2 207.647 65.0573 -5.55112e-17
800 2 55.4614 217.556 -5.55112e-17
801 1 103.063 132.296 -5.55112e-17
802 1 124.731 75.6026 -5.55112e-17
803 1 182.031 68.6256 -5.55112e-17
804 2 122.801 204.855 -5.55112e-17
805 1 44.5565 106.611 -5.55112e-17
806 1 11.8508 117.122 -5.55112e-17
807 2 100.434 99.2099 -5.55112e-17
808 1 14.5244 116.668 -5.55112e-17
809 2 57.7528 134.375 -5.55112e-17
810 1 129.974 197.93 -5.55112e-17
811 1 32.8743 6.02739 -5.55112e-17
812 1 131.939 34.6463 -5.55112e-17
813 2 107.863 110.955 -5.55112e-17
814 1 147.385 69.2788 -5.55112e-17
815 1 88.9659 164.177 -5.55112e-17
816 1 200.726 9.78766 -5.55112e-17
817 1 108.078 214.574 -5.55112e-17
818 1 57.2011 101.795 -5.55112e-17
819 1 9.48427 136.427 -5.55112e-17
820 1 45.2284 120.413 -5.55112e-17
821 1 94.6202 151.563 -5.55112e-17
822 2 41.6144 135.96 -5.55112e-17
823 2 139.451 91.4688 -5.55112e-17
824 1 34.62 108 -5.55112e-17
825 1 65.3173 15.0971 -5.55112e-17
826 1 190.528 14.1828 -5.55112e-17
827 1 192.74 107.48 -5.55112e-17
828 1 142.309 123.448 -5.55112e-17
829 1 127.034 210.944 -5.55112e-17
830 1 81.4162 127.826 -5.55112e-17
831 1 217.381 42.8137 -5.55112e-17
832 1 93.2818 87.1204 -5.55112e-17
833 1 62.136 84.4545 -5.55112e-17
834 1 107.1 8.8222 -5.55112e-17
835 1 58.1316 218.218 -5.55112e-17
836 1 10.8972 50.4 -5.55112e-17
837 1 6.8676 70.8335 -5.55112e-17
838 1 98.3696 178.5 -5.55112e-17
839 2 198.225 3.16111 -5.55112e-17
840 1 5.03971 202.547 -5.55112e-17
841 2 63.2341 184.803 -5.55112e-17
842 1 94.6719 91.6262 -5.55112e-17
843 2 159.642 182.863 -5.55112e-17
844 1 26.0379 158.879 -5.55112e-17
845 1 71.2143 189.203 -5.55112e-17
846 1 159.071 190.798 -5.55112e-17
847 1 41.8501 141.108 -5.55112e-17
848 1 188.348 117.294 -5.55112e-17
849 1 189.37 166.938 -5.55112e-17
850 1 39.4356 129.379 -5.55112e-17
851 1 89.6499 37.5916 -5.55112e-17
852 1 11.6595 209.01 -5.55112e-17
853 1 31.6662 138.905 -5.55112e-17
854 1 171.464 84.6167 -5.55112e-17
855 1 126.171 19.6968 -5.55112e-17
856 1 210.03 169.831 -5.55112e-17
857 1 68.1839 175.562 -5.55112e-17