ITEM: TIMESTEP
0
ITEM: NUMBER OF ATOMS
7200
ITEM: BOX BOUNDS xy xz yz pp pp pp
0.0000000000000000e+00 2.1900000000000000e+02 0.0000000000000000e+00
0.0000000000000000e+00 2.1900000000000000e+02 0.0000000000000000e+00
-3.6499999999999999e-01 3.6499999999999999e-01 0.0000000000000000e+00
ITEM: ATOMS id type x y z
1 1 71.6925 210.734 -5.55112e-17
2 1 113.755 73.17 -5.55112e-17
3 1 32.6805 26.4613 -5.55112e-17
4 1 72.6954 101.457 -5.55112e-17
5 1 89.1834 115.283 -5.55112e-17
6 1 160.875 188.722 -5.55112e-17
7 1 198.604 40.8582 -5.55112e-17
8 2 183.161 134.51 -5.55112e-17
9 1 177.258 204.022 -5.55112e-17
10 2 68.4418 213.979 -5.55112e-17
11 1 159.33 54.1821 -5.55112e-17
12 1 131.382 54.3846 -5.55112e-17
13 2 35.6248 65.8239 -5.55112e-17
14 1 57.9724 87.3134 -5.55112e-17
15 1 162.935 118.763 -5.55112e-17
16 2 94.4642 1.22555 -5.55112e-17
17 1 122.693 28.5309 -5.55112e-17
18 2 64.9598 62.0987 -5.55112e-17
19 1 116.867 89.8448 -5.55112e-17
20 1 193.246 105.982 -5.55112e-17
21 1 93.1644 203.554 -5.55112e-17
22 2 29.4941 157.799 -5.55112e-17
23 2 62.5114 34.2286 -5.55112e-17
24 1 166.029 140.615 -5.55112e-17
25 1 45.3009 175.812 -5.55112e-17
26 2 100.314 104.907 -5.55112e-17
27 1 185.878 199.287 -5.55112e-17
28 2 70.8308 149.648 -5.55112e-17
29 1 5.05576 88.7376 -5.55112e-17
30 1 160.669 65.2891 -5.55112e-17
31 1 180.49 48.2924 -5.55112e-17
32 1 73.3498 166.942 -5.55112e-17
33 1 203.78 187.739 -5.55112e-17
34 1 55.755 37.8371 -5.55112e-17
35 1 168.328 24.916 -5.55112e-17
36 1 215.505 139.914 -5.55112e-17
37 2 132.685 123.931 -5.55112e-17
38 1 135.063 122.426 -5.55112e-17
39 1 121.268 130.87 -5.55112e-17
40 1 158.755 193.199 -5.55112e-17
41 1 76.3228 37.3703 -5.55112e-17
42 1 86.984 72.7841 -5.55112e-17
43 1 176.238 67.5691 -5.55112e-17
44 1 123.118 99.6331 -5.55112e-17
45 1 7.09973 56.2287 -5.55112e-17
46 1 120.494 177.581 -5.55112e-17
47 1 38.4613 175.179 -5.55112e-17
48 2 30.1593 43.9662 -5.55112e-17
49 1 13.4495 79.2181 -5.55112e-17
50 1 80.1492 169.258 -5.55112e-17
51 1 100.964 33.285 -5.55112e-17
52 1 153.539 118.406 -5.55112e-17
53 1 76.9932 210.772 -5.55112e-17
54 1 179.165 117.651 -5.55112e-17
55 1 217.038 200.556 -5.55112e-17
56 1 116.665 137.266 -5.55112e-17
57 2 124.112 173.918 -5.55112e-17
58 1 212.13 8.67542 -5.55112e-17
59 1 182.773 75.6539 -5.55112e-17
60 2 168.255 118.043 -5.55112e-17
61 2 67.1943 162.486 -5.55112e-17
62 1 19.0344 105.263 -5.55112e-17
63 1 96.4708 3.58373 -5.55112e-17
64 1 155.365 11.9181 -5.55112e-17
65 1 174.397 146.319 -5.55112e-17
66 1 113.086 81.1795 -5.55112e-17
67 1 193.117 121.931 -5.55112e-17
68 1 60.6769 214.884 -5.55112e-17
69 1 102.216 189.25 -5.55112e-17
70 1 42.1279 78.8994 -5.55112e-17
71 1 133.231 181.318 -5.55112e-17
72 1 123.33 71.6773 -5.55112e-17
73 1 169.222 172.605 -5.55112e-17
74 1 171.76 6.86752 -5.55112e-17
75 2 113.451 7.84024 -5.55112e-17
76 1 181.518 30.2424 -5.55112e-17
77 1 203.839 196.648 -5.55112e-17
78 1 59.1367 188.484 -5.55112e-17
79 2 128.659 72.7665 -5.55112e-17
80 1 64.7599 138.858 -5.55112e-17
81 1 159.941 133.116 -5.55112e-17
82 1 78.7978 184.184 -5.55112e-17
83 2 106.226 177.431 -5.55112e-17
84 1 208.091 24.2613 -5.55112e-17
85 1 37.6816 117.324 -5.55112e-17
86 1 112.754 134.59 -5.55112e-17
87 1 56.2459 45.2191 -5.55112e-17
88 1 201.087 18.7494 -5.55112e-17
89 2 47.604 13.1509 -5.55112e-17
90 2 210.005 174.122 -5.55112e-17
91 1 199.862 34.5939 -5.55112e-17
92 2 149.814 200.157 -5.55112e-17
93 1 137.038 206.153 -5.55112e-17
94 2 152.531 22.2347 -5.55112e-17
95 1 18.8281 11.2959 -5.55112e-17
96 1 174.709 83.9506 -5.55112e-17
97 1 213.939 208.327 -5.55112e-17
98 1 115.787 58.2205 -5.55112e-17
99 1 161.368 67.9841 -5.55112e-17
100 1 122.551 154.496 -5.55112e-17
101 1 81.6092 74.2777 -5.55112e-17
102 1 202.544 70.1335 -5.55112e-17
103 1 81.8201 15.5674 -5.55112e-17
104 1 2.07973 141.282 -5.55112e-17
105 1 111.148 79.5133 -5.55112e-17
106 1 75.1486 100.397 -5.55112e-17
107 2 115.076 42.9091 -5.55112e-17
108 1 49.3627 196.44 -5.55112e-17
109 1 24.8858 140.386 -5.55112e-17
110 1 60.224 79.7684 -5.55112e-17
111 1 31.6163 209.325 -5.55112e-17
112 1 43.8688 130.917 -5.55112e-17
113 1 152.513 146.456 -5.55112e-17
114 1 119.538 3.19323 -5.55112e-17
115 1 63.2063 178.487 -5.55112e-17
116 2 24.7676 160.161 -5.55112e-17
117 1 185.578 176.889 -5.55112e-17
118 1 170.323 4.59474 -5.55112e-17
119 2 45.6821 103.549 -5.55112e-17
120 1 27.3732 31.4397 -5.55112e-17
121 1 177.566 54.5346 -5.55112e-17
122 1 112.663 19.337 -5.55112e-17
123 1 158.07 118.747 -5.55112e-17
124 1 194.66 4.71982 -5.55112e-17
125 1 121.606 54.7161 -5.55112e-17
126 1 46.2563 60.219 -5.55112e-17
127 1 184.362 59.5814 -5.55112e-17
128 1 173.499 194.452 -5.55112e-17
129 1 0.646129 156.367 -5.55112e-17
130 1 59.2304 130.793 -5.55112e-17
131 1 192.197 155.142 -5.55112e-17
132 2 2.10702 214.753 -5.55112e-17
133 1 122.456 102.263 -5.55112e-17
134 1 46.2179 71.7968 -5.55112e-17
135 1 119.088 207.477 -5.55112e-17
136 1 194.803 154.964 -5.55112e-17
137 1 118.748 203.07 -5.55112e-17
138 1 37.643 32.0379 -5.55112e-17
139 1 210.783 97.5691 -5.55112e-17
140 2 120.659 205.333 -5.55112e-17
141 1 190.946 52.939 -5.55112e-17
142 2 190.515 19.467 -5.55112e-17
143 1 48.9514 172.727 -5.55112e-17
144 2 35.9809 3.88617 -5.55112e-17
145 1 111.866 39.6378 -5.55112e-17
146 1 154.812 41.1025 -5.55112e-17
147 1 171.127 176.773 -5.55112e-17
148 1 60.0783 207.985 -5.55112e-17
149 1 75.208 66.8116 -5.55112e-17
150 1 189.98 11.8773 -5.55112e-17
151 1 82.2229 164.82 -5.55112e-17
152 1 29.0771 117.582 -5.55112e-17
153 2 19.4916 207.515 -5.55112e-17
154 1 180.055 134.223 -5.55112e-17
155 1 152.437 164.036 -5.55112e-17
156 2 17.8052 191.16 -5.55112e-17
157 1 196.446 71.0706 -5.55112e-17
158 1 37.9389 216.034 -5.55112e-17
159 1 6.70863 182.701 -5.55112e-17
160 1 56.5829 179.542 -5.55112e-17
161 1 54.6225 216.827 -5.55112e-17
162 1 53.737 147.245 -5.55112e-17
163 1 73.0109 25.1522 -5.55112e-17
164 1 158.992 56.6945 -5.55112e-17
165 1 193.155 211.774 -5.55112e-17
166 2 183.337 49.1647 -5.55112e-17
167 1 133.818 74.4393 -5.55112e-17
168 1 153.056 181.57 -5.55112e-17
169 1 107.622 130.241 -5.55112e-17
170 1 107.214 170.235 -5.55112e-17
171 1 182.272 126.905 -5.55112e-17
172 1 29.0388 55.5473 -5.55112e-17
173 1 44.7374 145.564 -5.55112e-17
174 1 98.9793 99.7012 -5.55112e-17
175 2 167.385 162.777 -5.55112e-17
176 1 68.1065 159.606 -5.55112e-17
177 2 52.9522 91.0961 -5.55112e-17
178 1 57.2861 94.0577 -5.55112e-17
179 1 1.80264 146.036 -5.55112e-17
180 1 181.682 209.982 -5.55112e-17
181 1 211.325 150.205 -5.55112e-17
182 2 203.806 8.35739 -5.55112e-17
183 1 85.9813 151.613 -5.55112e-17
184 1 200.391 44.8395 -5.55112e-17
185 2 125.561 38.6692 -5.55112e-17
186 2 175.589 130.4 -5.55112e-17
187 1 81.8383 52.2344 -5.55112e-17
188 1 126.768 7.72725 -5.55112e-17
189 1 153.996 203.597 -5.55112e-17
190 2 31.5043 171.525 -5.55112e-17
191 1 146.514 206.416 -5.55112e-17
192 2 207.482 70.6936 -5.55112e-17
193 2 90.8325 166.334 -5.55112e-17
194 1 207.94 134.341 -5.55112e-17
195 1 1.28818 188.77 -5.55112e-17
196 1 194.594 129.697 -5.55112e-17
197 1 23.323 73.8571 -5.55112e-17
198 2 48.3277 119.766 -5.55112e-17
199 1 15.5552 5.67974 -5.55112e-17
200 1 91.8147 33.0926 -5.55112e-17
201 2 69.1673 117.68 -5.55112e-17
202 1 67.8258 25.0867 -5.55112e-17
203 1 172.39 83.8467 -5.55112e-17
204 1 168.882 140.168 -5.55112e-17
205 2 13.7975 106.831 -5.55112e-17
206 1 122.962 116.491 -5.55112e-17
207 1 147.956 75.4856 -5.55112e-17
208 1 25.3946 81.4351 -5.55112e-17
209 1 114.707 211.418 -5.55112e-17
210 1 11.1243 80.3714 -5.55112e-17
211 2 141.429 183.086 -5.55112e-17
212 1 190.066 55.304 -5.55112e-17
213 1 178.604 66.9456 -5.55112e-17
214 1 83.818 49.0823 -5.55112e-17
215 1 130.041 203.705 -5.55112e-17
216 1 143.452 106.646 -5.55112e-17
217 1 148.582 149.275 -5.55112e-17
218 2 17.0072 124.079 -5.55112e-17
219 1 89.0404 183.283 -5.55112e-17
220 2 94.1206 94.3421 -5.55112e-17
221 1 210.283 52.7105 -5.55112e-17
222 1 148.942 127.197 -5.55112e-17
223 1 35.2111 178.589 -5.55112e-17
224 2 50.6458 183.362 -5.55112e-17
225 1 206.407 130.295 -5.55112e-17
226 1 17.3009 172.042 -5.55112e-17
227 2 23.0433 212.818 -5.55112e-17
228 1 116.918 132.437 -5.55112e-17
229 1 14.6254 190.904 -5.55112e-17
230 1 175.062 153.588 -5.55112e-17
231 1 150.726 71.954 -5.55112e-17
232 1 213.821 43.6625 -5.55112e-17
233 1 24.4987 78.99 -5.55112e-17
234 1 112.705 44.5138 -5.55112e-17
235 1 217.662 79.2789 -5.55112e-17
236 1 40.5323 121.692 -5.55112e-17
237 1 4.17437 160.091 -5.55112e-17
238 1 108.145 135.972 -5.55112e-17
239 2 24.1913 110.489 -5.55112e-17
240 1 132.028 201.564 -5.55112e-17
241 2 97.5585 171.498 -5.55112e-17
242 2 198.57 211.274 -5.55112e-17
243 2 62.5833 19.2232 -5.55112e-17
244 1 79.3031 57.0073 -5.55112e-17
245 1 70.5083 100.488 -5.55112e-17
246 1 183.293 141.999 -5.55112e-17
247 1 169.322 101.336 -5.55112e-17
248 1 131.899 16.2185 -5.55112e-17
249 1 4.95443 86.1816 -5.55112e-17
250 2 100.225 22.1571 -5.55112e-17
251 1 95.2634 22.2632 -5.55112e-17
252 1 187.48 18.5656 -5.55112e-17
253 1 162.024 44.7241 -5.55112e-17
254 2 73.4833 154.721 -5.55112e-17
255 1 206.762 162.777 -5.55112e-17
256 1 97.8883 155.962 -5.55112e-17
257 1 30.4343 135.845 -5.55112e-17
258 2 153.506 26.8758 -5.55112e-17
259 1 24.1575 117.687 -5.55112e-17
260 1 90.2762 120.185 -5.55112e-17
261 1 8.93343 191.875 -5.55112e-17
262 1 54.0003 78.8679 -5.55112e-17
263 1 34.3183 72.9985 -5.55112e-17
264 1 174.154 2.32761 -5.55112e-17
265 1 11.1907 16.9774 -5.55112e-17
266 1 188.029 35.506 -5.55112e-17
267 1 197.915 68.4331 -5.55112e-17
268 1 40.1539 46.1224 -5.55112e-17
269 1 115.573 101.833 -5.55112e-17
270 1 87.8318 113.237 -5.55112e-17
271 1 116.139 87.012 -5.55112e-17
272 1 213.521 166.966 -5.55112e-17
273 1 72.1332 16.2826 -5.55112e-17
274 2 148.254 115.257 -5.55112e-17
275 1 76.0796 81.4465 -5.55112e-17
276 2 1.30356 34.701 -5.55112e-17
277 2 145.053 47.1284 -5.55112e-17
278 1 44.8382 141.288 -5.55112e-17
279 2 92.7158 26.9464 -5.55112e-17
280 1 191.251 14.3687 -5.55112e-17
281 1 107.208 9.62576 -5.55112e-17
282 1 97.944 182.313 -5.55112e-17
283 1 133.986 144.959 -5.55112e-17
284 1 117.666 70.2048 -5.55112e-17
285 1 0.00271404 212.365 -5.55112e-17
286 2 81.4271 7.00371 -5.55112e-17
287 1 63.0458 105.032 -5.55112e-17
288 1 7.05302 92.398 -5.55112e-17
289 1 47.6197 73.7246 -5.55112e-17
290 1 198.472 186.883 -5.55112e-17
291 1 168.485 149.902 -5.55112e-17
292 2 47.8046 5.32616 -5.55112e-17
293 2 97.444 8.5515 -5.55112e-17
294 1 101.814 17.0745 -5.55112e-17
295 1 120.553 0.843302 -5.55112e-17
296 1 144.326 4.16996 -5.55112e-17
297 1 176.85 155.583 -5.55112e-17
298 1 161.865 210.923 -5.55112e-17
299 1 145.312 111.197 -5.55112e-17
300 2 61.2794 143.203 -5.55112e-17
301 1 46.704 48.2889 -5.55112e-17
302 1 93.3174 165.005 -5.55112e-17
303 2 43.7777 65.5703 -5.55112e-17
304 2 166.704 170.283 -5.55112e-17
305 1 91.779 89.7322 -5.55112e-17
306 1 33.315 59.5334 -5.55112e-17
307 1 19.0471 183.829 -5.55112e-17
308 1 102.129 57.8884 -5.55112e-17
309 2 111.34 151.794 -5.55112e-17
310 1 10.9785 29.7741 -5.55112e-17
311 1 61.1686 56.2067 -5.55112e-17
312 1 182.862 151.963 -5.55112e-17
313 2 129.486 7.61609 -5.55112e-17
314 1 76.8546 85.5707 -5.55112e-17
315 1 121.734 145.398 -5.55112e-17
316 1 28.0634 45.9481 -5.55112e-17
317 1 16.9437 148.034 -5.55112e-17
318 1 98.1576 197.109 -5.55112e-17
319 1 84.2529 19.1573 -5.55112e-17
320 1 128.126 107.712 -5.55112e-17
321 1 37.8768 39.3001 -5.55112e-17
322 1 157.719 144.875 -5.55112e-17
323 1 177.048 183.177 -5.55112e-17
324 1 97.2474 57.7622 -5.55112e-17
325 1 138.4 142.997 -5.55112e-17
326 1 89.0028 141.952 -5.55112e-17
327 2 103.064 184.251 -5.55112e-17
328 1 15.2495 37.6391 -5.55112e-17
329 2 9.55272 139.485 -5.55112e-17
330 1 28.0751 119.873 -5.55112e-17
331 1 162.011 174.641 -5.55112e-17
332 2 139.41 100.47 -5.55112e-17
333 1 34.6621 202.61 -5.55112e-17
334 1 92.7156 175.885 -5.55112e-17
335 1 214.099 196.331 -5.55112e-17
336 1 191.456 120.346 -5.55112e-17
337 1 146.668 201.404 -5.55112e-17
338 1 162.114 9.91634 -5.55112e-17
339 1 170.037 120.243 -5.55112e-17
340 1 184.388 139.615 -5.55112e-17
341 1 109.391 187.875 -5.55112e-17
342 1 168.802 186.441 -5.55112e-17
343 1 127.86 110.219 -5.55112e-17
344 1 70.5822 158.347 -5.55112e-17
345 1 26.297 1.42916 -5.55112e-17
346 1 10.4646 184.656 -5.55112e-17
347 1 45.736 89.5258 -5.55112e-17
348 1 118.85 159.953 -5.55112e-17
349 1 64.961 94.3104 -5.55112e-17
350 2 83.5765 54.644 -5.55112e-17
351 1 180.292 40.4614 -5.55112e-17
352 1 205.956 139.723 -5.55112e-17
353 1 39.5309 204.126 -5.55112e-17
354 1 177.37 166.555 -5.55112e-17
355 1 101.331 137.53 -5.55112e-17
356 1 159.202 19.0198 -5.55112e-17
357 1 49.5829 155.69 -5.55112e-17
358 1 203.557 192.257 -5.55112e-17
359 1 185.566 186.713 -5.55112e-17
360 1 10.4315 113.42 -5.55112e-17
361 1 108.556 190.11 -5.55112e-17
362 1 195.137 218.476 -5.55112e-17
363 1 182.13 172.764 -5.55112e-17
364 2 189.865 145.421 -5.55112e-17
365 1 171.292 115.313 -5.55112e-17
366 1 127.135 146.099 -5.55112e-17
367 1 58.6725 114.053 -5.55112e-17
368 1 200.306 217.951 -5.55112e-17
369 2 96.2221 179.82 -5.55112e-17
370 1 215.834 21.7868 -5.55112e-17
371 1 7.89364 114.176 -5.55112e-17
372 2 205.711 33.2209 -5.55112e-17
373 2 137.327 10.9289 -5.55112e-17
374 1 163.768 51.5356 -5.55112e-17
375 1 168.68 122.601 -5.55112e-17
376 1 59.7314 168.782 -5.55112e-17
377 1 203.857 77.2442 -5.55112e-17
378 1 77.0026 170.243 -5.55112e-17
379 1 8.65297 81.7124 -5.55112e-17
380 1 177.59 143.334 -5.55112e-17
381 1 37.8108 205.925 -5.55112e-17
382 1 56.7846 119.806 -5.55112e-17
383 1 90.3152 66.2782 -5.55112e-17
384 1 49.5529 10.7245 -5.55112e-17
385 1 207.81 124.742 -5.55112e-17
386 2 52.6267 11.4222 -5.55112e-17
387 1 158.426 204.198 -5.55112e-17
388 1 78.529 114.02 -5.55112e-17
389 1 82.3265 148.642 -5.55112e-17
390 2 210.512 166.769 -5.55112e-17
391 2 198.582 207.064 -5.55112e-17
392 1 76.6143 185.457 -5.55112e-17
393 1 216.191 45.2912 -5.55112e-17
394 1 84.9432 117.121 -5.55112e-17
395 1 11.0793 0.310513 -5.55112e-17
396 1 206.542 169.889 -5.55112e-17
397 1 129.157 55.1752 -5.55112e-17
398 1 218.394 153.874 -5.55112e-17
399 1 202.909 28.8042 -5.55112e-17
400 1 107.912 21.7987 -5.55112e-17
401 1 105.725 174.607 -5.55112e-17
402 2 9.13033 128.749 -5.55112e-17
403 1 202.57 46.5827 -5.55112e-17
404 1 2.76623 117.042 -5.55112e-17
405 1 24.9973 183.154 -5.55112e-17
406 1 186.332 48.695 -5.55112e-17
407 2 32.7472 70.6943 -5.55112e-17
408 1 50.4218 22.4438 -5.55112e-17
409 1 189.958 110.227 -5.55112e-17
410 1 33.7457 200.289 -5.55112e-17
411 1 183.615 163.652 -5.55112e-17
412 1 132.218 25.7328 -5.55112e-17
413 1 55.6491 122.187 -5.55112e-17
414 1 7.97806 20.4581 -5.55112e-17
415 1 174.642 160.398 -5.55112e-17
416 1 59.4457 30.119 -5.55112e-17
417 1 138.985 77.2319 -5.55112e-17
418 2 175.635 196.724 -5.55112e-17
419 1 128.136 134.596 -5.55112e-17
420 2 164.163 89.8648 -5.55112e-17
421 1 17.258 115.683 -5.55112e-17
422 1 140.682 11.2914 -5.55112e-17
423 2 160.195 195.923 -5.55112e-17
424 1 104.114 166.353 -5.55112e-17
425 1 138.197 156.972 -5.55112e-17
426 1 155.209 137.511 -5.55112e-17
427 1 108.534 118.077 -5.55112e-17
428 1 68.3403 141.995 -5.55112e-17
429 1 167.096 138.359 -5.55112e-17
430 1 172.87 21.0194 -5.55112e-17
431 1 170.649 163.148 -5.55112e-17
432 1 150.079 39.1768 -5.55112e-17
433 1 120.273 147.477 -5.55112e-17
434 1 43.2929 39.3239 -5.55112e-17
435 1 148.17 152.028 -5.55112e-17
436 1 86.5705 3.94538 -5.55112e-17
437 1 196.494 136.267 -5.55112e-17
438 2 146.184 60.2274 -5.55112e-17
439 1 75.5131 24.6047 -5.55112e-17
440 1 217.666 72.0975 -5.55112e-17
441 1 214.148 178.653 -5.55112e-17
442 1 105.027 211.279 -5.55112e-17
443 1 0.495346 83.273 -5.55112e-17
444 1 204.981 84.8208 -5.55112e-17
445 1 129.559 57.6367 -5.55112e-17
446 1 183.198 137.416 -5.55112e-17
447 1 35.7289 183.023 -5.55112e-17
448 1 111.327 12.9525 -5.55112e-17
449 1 160.233 144.528 -5.55112e-17
450 1 121.835 213.22 -5.55112e-17
451 1 158.608 27.6375 -5.55112e-17
452 1 147.452 144.728 -5.55112e-17
453 1 214.964 168.761 -5.55112e-17
454 1 211.775 33.7686 -5.55112e-17
455 1 130.695 84.1631 -5.55112e-17
456 1 180.701 0.274392 -5.55112e-17
457 1 90.2395 76.6043 -5.55112e-17
458 1 167.134 192.064 -5.55112e-17
459 1 27.1669 39.0646 -5.55112e-17
460 1 183.267 113.391 -5.55112e-17
461 1 194.364 181.395 -5.55112e-17
462 1 58.2962 170.791 -5.55112e-17
463 1 128.943 12.7124 -5.55112e-17
464 1 140.984 205.19 -5.55112e-17
465 1 171.605 107.382 -5.55112e-17
466 1 43.5279 143.332 -5.55112e-17
467 1 39.5626 79.078 -5.55112e-17
468 1 202.2 175.84 -5.55112e-17
469 1 62.456 98.7295 -5.55112e-17
470 1 64.6135 23.2797 -5.55112e-17
471 1 99.8323 189.423 -5.55112e-17
472 1 39.9076 90.6695 -5.55112e-17
473 1 89.5869 91.3468 -5.55112e-17
474 1 108.688 151.416 -5.55112e-17
475 1 88.7493 189.932 -5.55112e-17
476 2 186.517 15.8579 -5.55112e-17
477 1 179.022 78.3238 -5.55112e-17
478 1 5.04866 184.445 -5.55112e-17
479 1 205.659 42.0446 -5.55112e-17
480 1 55.253 42.7092 -5.55112e-17
481 1 20.542 143.012 -5.55112e-17
482 1 110.707 140.748 -5.55112e-17
483 1 121.007 149.818 -5.55112e-17
484 2 73.6601 56.2728 -5.55112e-17
485 1 61.2741 205.685 -5.55112e-17
486 1 66.8525 27.662 -5.55112e-17
487 1 65.686 215.103 -5.55112e-17
488 1 72.0208 113.378 -5.55112e-17
489 1 189.029 78.8446 -5.55112e-17
490 1 212.071 204.994 -5.55112e-17
491 1 162.592 92.3396 -5.55112e-17
492 1 208.85 129.273 -5.55112e-17
493 1 151.85 201.934 -5.55112e-17
494 1 176.283 173.385 -5.55112e-17
495 1 119.699 18.4908 -5.55112e-17
496 2 78.8587 212.646 -5.55112e-17
497 1 34.1554 24.4432 -5.55112e-17
498 1 112.066 124.109 -5.55112e-17
499 2 120.052 174.442 -5.55112e-17
500 1 97.5278 210.185 -5.55112e-17
501 2 149.331 215.407 -5.55112e-17
502 2 144.267 155.585 -5.55112e-17
503 1 169.583 170.005 -5.55112e-17
504 1 126.035 143.681 -5.55112e-17
505 1 177.177 36.3475 -5.55112e-17
506 1 21.4243 195.03 -5.55112e-17
507 1 90.1036 139.585 -5.55112e-17
508 1 145.552 42.1548 -5.55112e-17
509 2 60.0874 94.1664 -5.55112e-17
510 2 140.069 88.8922 -5.55112e-17
511 1 54.7067 59.4285 -5.55112e-17
512 2 26.4723 84.5271 -5.55112e-17
513 1 56.9797 216.999 -5.55112e-17
514 1 105.817 84.1427 -5.55112e-17
515 1 216.907 195.981 -5.55112e-17
516 1 57.4473 175.376 -5.55112e-17
517 1 110.356 122.332 -5.55112e-17
518 2 100.103 69.2534 -5.55112e-17
519 1 20.8025 27.8077 -5.55112e-17
520 2 46.3891 39.4275 -5.55112e-17
521 1 182.874 108.031 -5.55112e-17
522 1 18.1213 214.698 -5.55112e-17
523 1 18.1422 141.9 -5.55112e-17
524 1 23.4903 76.3855 -5.55112e-17
525 1 73.4534 193.897 -5.55112e-17
526 1 165.073 38.5124 -5.55112e-17
527 1 74.3012 218.824 -5.55112e-17
528 1 136.53 3.90744 -5.55112e-17
529 1 62.7153 124.097 -5.55112e-17
530 1 138.029 84.3731 -5.55112e-17
531 1 99.0011 144.199 -5.55112e-17
532 1 56.6655 162.87 -5.55112e-17
533 1 89.1211 168.643 -5.55112e-17
534 1 104.842 130.872 -5.55112e-17
535 1 187.038 139.789 -5.55112e-17
536 1 171.37 139.491 -5.55112e-17
537 1 177.185 176.221 -5.55112e-17
538 1 129.886 33.2008 -5.55112e-17
539 1 48.2134 2.20859 -5.55112e-17
540 1 147.326 112.753 -5.55112e-17
541 1 88.921 213.32 -5.55112e-17
542 1 77.5895 26.4977 -5.55112e-17
543 1 103.203 163.788 -5.55112e-17
544 1 164.619 192.649 -5.55112e-17
545 1 48.5922 103.523 -5.55112e-17
546 1 169.217 6.9951 -5.55112e-17
547 1 10.7203 123.597 -5.55112e-17
548 1 48.9189 165.539 -5.55112e-17
549 1 29.827 30.7677 -5.55112e-17
550 2 217.761 141.626 -5.55112e-17
551 2 120.446 99.9486 -5.55112e-17
552 2 138.739 199.353 -5.55112e-17
553 1 110.218 6.22377 -5.55112e-17
554 1 210.999 74.9421 -5.55112e-17
555 2 204.264 57.5854 -5.55112e-17
556 1 176.331 16.4757 -5.55112e-17
557 1 57.821 32.1555 -5.55112e-17
558 1 170.62 167.663 -5.55112e-17
559 1 201.677 26.3789 -5.55112e-17
560 1 105.929 44.8545 -5.55112e-17
561 1 177.971 164.036 -5.55112e-17
562 1 169.766 160.901 -5.55112e-17
563 2 174.09 175.796 -5.55112e-17
564 1 32.6798 61.6474 -5.55112e-17
565 1 89.7761 5.69817 -5.55112e-17
566 1 45.3821 86.4393 -5.55112e-17
567 1 192.942 96.5774 -5.55112e-17
568 1 61.0421 193.004 -5.55112e-17
569 1 79.4549 155.084 -5.55112e-17
570 1 138.984 116.24 -5.55112e-17
571 1 184.073 191.518 -5.55112e-17
572 1 132.444 99.0439 -5.55112e-17
573 1 173.493 43.9718 -5.55112e-17
574 1 197.489 171 -5.55112e-17
575 1 195.451 54.4765 -5.55112e-17
576 1 180.804 101.596 -5.55112e-17
577 1 158.394 2.6382 -5.55112e-17
578 1 150.153 194.018 -5.55112e-17
579 1 7.32406 3.19316 -5.55112e-17
580 1 147.45 57.7335 -5.55112e-17
581 1 186.444 155.945 -5.55112e-17
582 1 37.325 58.8662 -5.55112e-17
583 1 176.991 6.88134 -5.55112e-17
584 2 44.0499 164.129 -5.55112e-17
585 1 73.0284 104.529 -5.55112e-17
586 1 118.269 149.179 -5.55112e-17
587 1 209.39 60.5901 -5.55112e-17
588 1 34.2887 170.461 -5.55112e-17
589 1 107.856 182.867 -5.55112e-17
590 1 70.1364 32.0275 -5.55112e-17
591 1 64.7443 168.303 -5.55112e-17
592 1 9.15542 106.073 -5.55112e-17
593 1 196.385 38.8283 -5.55112e-17
594 1 218.212 198.126 -5.55112e-17
595 1 112.069 77.2641 -5.55112e-17
596 1 11.6458 44.2489 -5.55112e-17
597 2 202.339 15.9939 -5.55112e-17
598 1 190.806 1.79999 -5.55112e-17
599 1 16.8168 25.8015 -5.55112e-17
600 1 133.423 209.122 -5.55112e-17
601 1 76.7657 188.015 -5.55112e-17
602 1 110.692 1.5063 -5.55112e-17
603 1 5.65988 21.5264 -5.55112e-17
604 1 119.246 6.023 -5.55112e-17
605 2 89.9094 94.4312 -5.55112e-17
606 1 151.533 179.62 -5.55112e-17
607 2 155.241 188.668 -5.55112e-17
608 1 119.408 114.775 -5.55112e-17
609 1 64.2884 135.825 -5.55112e-17
610 1 181.746 139.741 -5.55112e-17
611 1 49.5149 142.898 -5.55112e-17
612 1 22.9522 80.9305 -5.55112e-17
613 1 195.167 171.323 -5.55112e-17
614 2 186.884 174.417 -5.55112e-17
615 1 69.0364 211.022 -5.55112e-17
616 1 180.81 103.953 -5.55112e-17
617 1 52.0849 181.121 -5.55112e-17
618 1 212.927 173.472 -5.55112e-17
619 1 162.429 121.143 -5.55112e-17
620 1 162.037 77.1052 -5.55112e-17
621 1 171.091 72.0106 -5.55112e-17
622 1 91.3186 182.495 -5.55112e-17
623 1 192.509 3.7707 -5.55112e-17
624 1 36.5092 29.7903 -5.55112e-17
625 1 190.334 103.222 -5.55112e-17
626 1 85.2034 209.019 -5.55112e-17
627 1 94.7988 74.7827 -5.55112e-17
628 1 64.2937 12.2258 -5.55112e-17
629 1 72.9674 132.237 -5.55112e-17
630 2 142.344 43.1051 -5.55112e-17
631 1 45.8717 115.471 -5.55112e-17
632 1 72.3354 138.337 -5.55112e-17
633 1 48.0631 204.442 -5.55112e-17
634 1 161.371 72.6473 -5.55112e-17
635 1 146.779 125.612 -5.55112e-17
636 1 194.794 73.3371 -5.55112e-17
637 1 29.9821 47.1719 -5.55112e-17
638 1 6.44009 61.3875 -5.55112e-17
639 2 49.6062 53.2974 -5.55112e-17
640 1 146.414 157.006 -5.55112e-17
641 1 180.351 109.257 -5.55112e-17
642 1 177.013 71.8761 -5.55112e-17
643 2 175.605 39.1756 -5.55112e-17
644 1 81.8215 189.114 -5.55112e-17
645 1 123.589 180.932 -5.55112e-17
646 2 22.4022 188.153 -5.55112e-17
647 1 107.669 217.385 -5.55112e-17
648 1 145.883 108.65 -5.55112e-17
649 2 198.021 124.046 -5.55112e-17
650 1 27.1814 190.296 -5.55112e-17
651 1 212.842 142.854 -5.55112e-17
652 1 163.619 7.39661 -5.55112e-17
653 1 150.748 187.084 -5.55112e-17
654 1 28.6649 36.5186 -5.55112e-17
655 2 181.9 89.9752 -5.55112e-17
656 1 22.0398 171.055 -5.55112e-17
657 2 78.5359 39.0744 -5.55112e-17
658 1 6.3779 49.2285 -5.55112e-17
659 2 190.616 199.97 -5.55112e-17
660 1 70.6988 36.5936 -5.55112e-17
661 1 55.3025 117.765 -5.55112e-17
662 1 32.897 105.89 -5.55112e-17
663 1 102.404 201.371 -5.55112e-17
664 1 152.125 48.8203 -5.55112e-17
665 1 156.451 77.5864 -5.55112e-17
666 2 69.8744 208.263 -5.55112e-17
667 1 164.185 48.7759 -5.55112e-17
668 2 82.4579 92.3754 -5.55112e-17
669 1 80.2387 45.1523 -5.55112e-17
670 1 105.038 204.074 -5.55112e-17
671 2 68.9833 185.739 -5.55112e-17
672 1 183.904 33.7039 -5.55112e-17
673 1 48.1328 46.2735 -5.55112e-17
674 1 212.472 183.617 -5.55112e-17
675 1 128.224 37.431 -5.55112e-17
676 1 169.993 134.913 -5.55112e-17
677 1 105.185 169.048 -5.55112e-17
678 1 116.154 9.17837 -5.55112e-17
679 2 167.299 212.011 -5.55112e-17
680 1 30.6766 9.56147 -5.55112e-17
681 2 135.314 21.8325 -5.55112e-17
682 1 177.739 40.9722 -5.55112e-17
683 1 37.3845 46.5564 -5.55112e-17
684 1 105.357 172.289 -5.55112e-17
685 1 165.714 77.2011 -5.55112e-17
686 1 77.4518 99.3825 -5.55112e-17
687 1 156.172 170.626 -5.55112e-17
688 1 151.454 84.8114 -5.55112e-17
689 2 93.7767 37.5106 -5.55112e-17
690 1 84.401 16.5543 -5.55112e-17
691 1 54.4239 14.2102 -5.55112e-17
692 1 125.815 148.272 -5.55112e-17
693 1 94.1577 4.28023 -5.55112e-17
694 1 16.5648 206.675 -5.55112e-17
695 1 206.383 122.673 -5.55112e-17
696 1 119.314 105.502 -5.55112e-17
697 1 142.92 163.053 -5.55112e-17
698 1 136.021 75.844 -5.55112e-17
699 1 201.578 156.846 -5.55112e-17
700 1 38.7788 22.7319 -5.55112e-17
701 1 20.8882 48.7364 -5.55112e-17
702 1 60.844 104.232 -5.55112e-17
703 2 3.57991 138.036 -5.55112e-17
704 1 62.0013 188.197 -5.55112e-17
705 2 202.695 80.1306 -5.55112e-17
706 1 112.944 148.556 -5.55112e-17
707 1 119.08 61.6797 -5.55112e-17
708 1 54.2037 153.591 -5.55112e-17
709 1 154.377 195.433 -5.55112e-17
710 1 208.23 164.886 -5.55112e-17
711 1 132.315 96.6137 -5.55112e-17
712 1 203.128 146.903 -5.55112e-17
713 1 164.219 109.114 -5.55112e-17
714 1 158.778 67.2052 -5.55112e-17
715 1 74.613 206.069 -5.55112e-17
716 1 86.451 135.552 -5.55112e-17
717 1 168.677 110.483 -5.55112e-17
718 1 167.102 184.632 -5.55112e-17
719 2 52.6996 96.9326 -5.55112e-17
720 1 99.7459 59.39 -5.55112e-17
721 1 185.651 70.2906 -5.55112e-17
722 1 123.628 74.3781 -5.55112e-17
723 2 11.1245 72.1523 -5.55112e-17
724 1 215.144 214.962 -5.55112e-17
725 1 11.2289 75.183 -5.55112e-17
726 1 87.1384 92.858 -5.55112e-17
727 1 196.843 181.771 -5.55112e-17
728 2 196.951 118.851 -5.55112e-17
729 1 127.346 156.5 -5.55112e-17
730 1 61.5613 180.838 -5.55112e-17
731 1 67.1051 206.7 -5.55112e-17
732 1 50.8269 24.9411 -5.55112e-17
733 1 51.3625 35.5062 -5.55112e-17
734 1 194.604 23.529 -5.55112e-17
735 1 34.7104 47.2058 -5.55112e-17
736 2 18.4737 83.1082 -5.55112e-17
737 1 2.67679 132.369 -5.55112e-17
738 1 0.824224 200.439 -5.55112e-17
739 1 124.979 176.629 -5.55112e-17
740 1 76.6789 136.455 -5.55112e-17
741 2 194.295 49.6887 -5.55112e-17
742 1 39.2564 41.638 -5.55112e-17
743 1 56.4218 66.3811 -5.55112e-17
744 2 213.605 152.685 -5.55112e-17
745 1 117.242 194.564 -5.55112e-17
746 1 13.9643 7.73986 -5.55112e-17
747 2 180.054 7.17164 -5.55112e-17
748 1 59.0896 205.591 -5.55112e-17
749 1 189.733 4.10719 -5.55112e-17
750 1 206.584 106.82 -5.55112e-17
751 1 60.1253 74.4592 -5.55112e-17
752 1 116.051 178.4 -5.55112e-17
753 1 125.17 166.546 -5.55112e-17
754 1 197.099 204.681 -5.55112e-17
755 1 121.174 198.888 -5.55112e-17
756 2 136.389 174.296 -5.55112e-17
757 1 206.237 192.062 -5.55112e-17
758 1 7.16144 180.325 -5.55112e-17
759 1 89.5136 144.372 -5.55112e-17
760 1 112.101 63.2931 -5.55112e-17
761 1 93.6327 208.122 -5.55112e-17
762 1 203.225 89.4812 -5.55112e-17
763 1 51.7209 137.618 -5.55112e-17
764 2 153.545 169.331 -5.55112e-17
765 1 70.3697 77.4235 -5.55112e-17
766 1 132.918 8.2111 -5.55112e-17
767 1 93.9608 69.0413 -5.55112e-17
768 1 157.765 211.098 -5.55112e-17
769 1 58.8967 34.4174 -5.55112e-17
770 2 69.7118 97.4547 -5.55112e-17
771 1 179.118 181.762 -5.55112e-17
772 1 110.947 58.1644 -5.55112e-17
773 1 89.8731 199.558 -5.55112e-17
774 1 144.85 124.183 -5.55112e-17
775 1 110.626 18.1709 -5.55112e-17
776 1 35.4759 39.2877 -5.55112e-17
777 1 191.81 182.505 -5.55112e-17
778 1 210.194 198.607 -5.55112e-17
779 1 183.399 11.0693 -5.55112e-17
780 1 192.787 125.048 -5.55112e-17
781 1 55.619 96.937 -5.55112e-17
782 1 193.448 52.5286 -5.55112e-17
783 1 137.329 34.1693 -5.55112e-17
784 2 200.886 97.1131 -5.55112e-17
785 1 127.984 199.283 -5.55112e-17
786 1 100.08 184.578 -5.55112e-17
787 1 163.207 16.7324 -5.55112e-17
788 1 147.498 40.627 -5.55112e-17
789 2 170.339 112.806 -5.55112e-17
790 1 52.0894 59.7628 -5.55112e-17
791 2 52.0722 165.461 -5.55112e-17
792 2 208.156 218.018 -5.55112e-17
793 2 123.693 49.6284 -5.55112e-17
794 1 88.7597 36.7326 -5.55112e-17
795 1 175.631 50.7722 -5.55112e-17
796 1 71.2394 13.7248 -5.55112e-17
797 1 175.781 133.666 -5.55112e-17
798 2 200.965 39.4589 -5.55112e-17
799 2 218.261 94.4748 -5.55112e-17
800 2 107.375 6.63216 -5.55112e-17
801 1 63.1304 114.326 -5.55112e-17
802 1 61.4941 107.096 -5.55112e-17
803 1 180.011 62.1299 -5.55112e-17
804 2 100.001 53.1566 -5.55112e-17
805 1 15.0708 101.756 -5.55112e-17
806 1 79.2557 160.999 -5.55112e-17
807 2 128.564 88.6134 -5.55112e-17
808 1 51.6526 71.3102 -5.55112e-17
809 2 206.23 93.6989 -5.55112e-17
810 1 155.737 2.3291 -5.55112e-17
811 1 206.554 205.694 -5.55112e-17
812 1 139.366 9.14694 -5.55112e-17
813 2 160.606 123.226 -5.55112e-17
814 1 102.828 117.419 -5.55112e-17
815 1 90.9231 159.908 -5.55112e-17
816 1 212.226 15.2429 -5.55112e-17
817 1 160.025 5.18052 -5.55112e-17
818 1 65.9782 155.304 -5.55112e-17
819 1 46.3056 199.578 -5.55112e-17
820 1 39.3148 145 -5.55112e-17
821 1 102.951 123.422 -5.55112e-17
822 2 20.3044 164.436 -5.55112e-17
823 2 93.1552 61.8099 -5.55112e-17
824 1 111.053 88.1237 -5.55112e-17
825 1 1.91361 7.67801 -5.55112e-17
826 1 10.9298 202.486 -5.55112e-17
827 1 198.361 159.036 -5.55112e-17
828 1 140.076 103.21 -5.55112e-17
829 1 149.197 203.13 -5.55112e-17
830 1 87.1221 90.1233 -5.55112e-17
831 1 178.482 26.24 -5.55112e-17
832 1 18.7566 59.9306 -5.55112e-17
833 1 51.5906 55.3129 -5.55112e-17
834 1 91.8601 3.71094 -5.55112e-17
835 1 14.0452 41.1976 -5.55112e-17
836 1 218.916 59.0633 -5.55112e-17
837 1 29.8832 86.4901 -5.55112e-17
838 1 171.914 192.634 -5.55112e-17
839 2 199.32 168.736 -5.55112e-17
840 1 143.439 1.85884 -5.55112e-17
841 2 83.0015 168.144 -5.55112e-17
842 1 60.124 20.943 -5.55112e-17
843 2 186.017 137.001 -5.55112e-17
844 1 33.9283 206.996 -5.55112e-17
845 1 73.9815 164.524 -5.55112e-17
846 1 136.741 152.175 -5.55112e-17
847 1 80.987 198.538 -5.55112e-17
848 1 117.561 50.043 -5.55112e-17
849 1 197.03 147.021 -5.55112e-17
850 1 19.3893 135.005 -5.55112e-17
851 1 75.5186 2.13126 -5.55112e-17
852 1 90.3457 192.064 -5.55112e-17
853 1 87.2021 125.903 -5.55112e-17
854 1 107.225 94.4897 -5.55112e-17
855 1 123.739 79.4156 -5.55112e-17
856 1 79.3703 189.516 -5.55112e-17