ITEM: TIMESTEP
0
ITEM: NUMBER OF ATOMS
7200
ITEM: BOX BOUNDS xy xz yz pp pp pp
0.0000000000000000e+00 2.1900000000000000e+02 0.0000000000000000e+00
0.0000000000000000e+00 2.1900000000000000e+02 0.0000000000000000e+00
-3.6499999999999999e-01 3.6499999999999999e-01 0.0000000000000000e+00
ITEM: ATOMS id type x y z
1 1 67.5108 134.262 -5.55112e-17
2 1 182.922 108.947 -5.55112e-17
3 1 12.7259 160.448 -5.55112e-17
4 1 10.7389 86.596 -5.55112e-17
5 1 215.955 157.271 -5.55112e-17
6 1 116.715 210.581 -5.55112e-17
7 1 41.8965 51.8065 -5.55112e-17
8 2 149.909 83.5394 -5.55112e-17
9 1 203.379 10.2139 -5.55112e-17
10 2 57.4075 192.858 -5.55112e-17
11 1 114.478 14.7147 -5.55112e-17
12 1 129.991 79.8369 -5.55112e-17
13 2 52.0995 79.398 -5.55112e-17
14 1 65.272 17.7809 -5.55112e-17
15 1 134.711 104.938 -5.55112e-17
16 2 61.1481 172.56 -5.55112e-17
17 1 113.959 30.5186 -5.55112e-17
18 2 32.0029 77.8335 -5.55112e-17
19 1 106.367 51.8909 -5.55112e-17
20 1 146.284 99.7124 -5.55112e-17
21 1 41.8797 5.36072 -5.55112e-17
22 2 49.8759 147.214 -5.55112e-17
23 2 15.6181 56.5724 -5.55112e-17
24 1 160.164 100.73 -5.55112e-17
25 1 75.4288 183.098 -5.55112e-17
26 2 86.9215 96.3616 -5.55112e-17
27 1 155.748 174.231 -5.55112e-17
28 2 25.0187 158.724 -5.55112e-17
29 1 55.3377 46.6405 -5.55112e-17
30 1 138.338 88.7621 -5.55112e-17
31 1 211.683 91.106 -5.55112e-17
32 1 58.3282 103.715 -5.55112e-17
33 1 157.959 154.524 -5.55112e-17
34 1 61.8299 77.2566 -5.55112e-17
35 1 177.224 69.099 -5.55112e-17
36 1 62.4104 74.7552 -5.55112e-17
37 2 136.597 140.302 -5.55112e-17
38 1 198 74.8224 -5.55112e-17
39 1 122.262 138.09 -5.55112e-17
40 1 165.597 163.974 -5.55112e-17
41 1 120.904 181.801 -5.55112e-17
42 1 102.722 36.1233 -5.55112e-17
43 1 135.01 61.2983 -5.55112e-17
44 1 106.958 23.5354 -5.55112e-17
45 1 214.838 85.4969 -5.55112e-17
46 1 28.1494 202.984 -5.55112e-17
47 1 88.6941 172.338 -5.55112e-17
48 2 46.3264 84.6684 -5.55112e-17
49 1 76.999 110.067 -5.55112e-17
50 1 46.1991 197.603 -5.55112e-17
51 1 180.66 34.5846 -5.55112e-17
52 1 204.2 132.568 -5.55112e-17
53 1 156.738 27.9729 -5.55112e-17
54 1 29.6107 126.026 -5.55112e-17
55 1 23.3995 48.2447 -5.55112e-17
56 1 117.825 139.948 -5.55112e-17
57 2 67.3293 213.887 -5.55112e-17
58 1 35.1795 40.2556 -5.55112e-17
59 1 27.4078 150.388 -5.55112e-17
60 2 152.146 147.112 -5.55112e-17
61 2 35.7094 202.927 -5.55112e-17
62 1 13.8052 158.224 -5.55112e-17
63 1 111.729 197.227 -5.55112e-17
64 1 133.845 39.1184 -5.55112e-17
65 1 216.811 114.952 -5.55112e-17
66 1 129.458 134.195 -5.55112e-17
67 1 95.672 139.644 -5.55112e-17
68 1 67.0387 115.894 -5.55112e-17
69 1 140.957 173.794 -5.55112e-17
70 1 59.2864 110.33 -5.55112e-17
71 1 3.62531 122.936 -5.55112e-17
72 1 171.727 61.1962 -5.55112e-17
73 1 187.815 186.373 -5.55112e-17
74 1 206.987 21.7934 -5.55112e-17
75 2 93.2577 1.0749 -5.55112e-17
76 1 17.4599 4.95557 -5.55112e-17
77 1 36.029 21.7258 -5.55112e-17
78 1 124.458 117.021 -5.55112e-17
79 2 126.34 0.752313 -5.55112e-17
80 1 75.1231 105.882 -5.55112e-17
81 1 110.636 140.978 -5.55112e-17
82 1 53.6508 141.121 -5.55112e-17
83 2 130.107 182.145 -5.55112e-17
84 1 180.124 80.5804 -5.55112e-17
85 1 23.513 43.5762 -5.55112e-17
86 1 128.747 142.27 -5.55112e-17
87 1 217.325 217.286 -5.55112e-17
88 1 18.97 35.1612 -5.55112e-17
89 2 43.8515 3.30552 -5.55112e-17
90 2 190.49 187.621 -5.55112e-17
91 1 148.679 89.9617 -5.55112e-17
92 2 168.392 21.7556 -5.55112e-17
93 1 141.671 15.5758 -5.55112e-17
94 2 201.866 12.9941 -5.55112e-17
95 1 33.2371 195.038 -5.55112e-17
96 1 127.196 98.4765 -5.55112e-17
97 1 96.8098 4.63288 -5.55112e-17
98 1 124.961 56.0836 -5.55112e-17
99 1 174.063 20.5388 -5.55112e-17
100 1 175.637 9.01084 -5.55112e-17
101 1 111.052 4.77475 -5.55112e-17
102 1 24.7873 46.127 -5.55112e-17
103 1 58.1709 80.471 -5.55112e-17
104 1 66.4391 108.393 -5.55112e-17
105 1 142.208 201.168 -5.55112e-17
106 1 78.2557 102.348 -5.55112e-17
107 2 149.292 99.5933 -5.55112e-17
108 1 35.7554 210.607 -5.55112e-17
109 1 53.2636 86.9057 -5.55112e-17
110 1 101.968 61.944 -5.55112e-17
111 1 60.6775 20.9763 -5.55112e-17
112 1 94.8388 136.804 -5.55112e-17
113 1 102.098 49.0217 -5.55112e-17
114 1 158.056 23.8468 -5.55112e-17
115 1 51.1415 162.885 -5.55112e-17
116 2 214.625 133.786 -5.55112e-17
117 1 203 217.385 -5.55112e-17
118 1 164.689 68.3094 -5.55112e-17
119 2 60.4635 98.9993 -5.55112e-17
120 1 53.1122 199.432 -5.55112e-17
121 1 154.286 80.995 -5.55112e-17
122 1 102.687 14.5505 -5.55112e-17
123 1 136.391 75.6146 -5.55112e-17
124 1 154.662 201.33 -5.55112e-17
125 1 141.609 117.472 -5.55112e-17
126 1 109.348 64.2982 -5.55112e-17
127 1 163.382 77.8191 -5.55112e-17
128 1 175.846 136.622 -5.55112e-17
129 1 7.88884 104.158 -5.55112e-17
130 1 83.709 128.45 -5.55112e-17
131 1 175.876 152.972 -5.55112e-17
132 2 183 2.79894 -5.55112e-17
133 1 127.541 80.4148 -5.55112e-17
134 1 32.4086 85.6527 -5.55112e-17
135 1 78.0186 7.84388 -5.55112e-17
136 1 210.137 201.47 -5.55112e-17
137 1 102.149 136.69 -5.55112e-17
138 1 49.9994 212.052 -5.55112e-17
139 1 204.339 108.125 -5.55112e-17
140 2 142.076 185.966 -5.55112e-17
141 1 205.898 97.2162 -5.55112e-17
142 2 211.734 49.7051 -5.55112e-17
143 1 109.558 87.3984 -5.55112e-17
144 2 43.4888 198.96 -5.55112e-17
145 1 173.143 103.187 -5.55112e-17
146 1 99.9329 119.978 -5.55112e-17
147 1 154.65 145.739 -5.55112e-17
148 1 5.98257 203.5 -5.55112e-17
149 1 67.9036 21.1628 -5.55112e-17
150 1 54.1117 37.353 -5.55112e-17
151 1 27.5938 115.11 -5.55112e-17
152 1 62.4006 101.268 -5.55112e-17
153 2 51.74 6.18605 -5.55112e-17
154 1 150.716 96.9493 -5.55112e-17
155 1 107.428 16.5321 -5.55112e-17
156 2 71.9862 115.787 -5.55112e-17
157 1 208.412 105.186 -5.55112e-17
158 1 28.7262 29.0835 -5.55112e-17
159 1 21.802 137.157 -5.55112e-17
160 1 14.731 201.306 -5.55112e-17
161 1 0.970423 7.986 -5.55112e-17
162 1 127.947 127.851 -5.55112e-17
163 1 17.1883 32.9813 -5.55112e-17
164 1 166.482 53.7485 -5.55112e-17
165 1 124.855 121.297 -5.55112e-17
166 2 159.073 61.1304 -5.55112e-17
167 1 174.537 47.2157 -5.55112e-17
168 1 149.086 169.433 -5.55112e-17
169 1 2.45901 101.787 -5.55112e-17
170 1 94.9464 168.287 -5.55112e-17
171 1 146.481 60.8938 -5.55112e-17
172 1 218.84 17.4527 -5.55112e-17
173 1 45.8404 142.976 -5.55112e-17
174 1 130.965 63.2805 -5.55112e-17
175 2 137.95 160.546 -5.55112e-17
176 1 110 72.7494 -5.55112e-17
177 2 70.8311 56.5277 -5.55112e-17
178 1 63.8253 86.5322 -5.55112e-17
179 1 173.397 164.304 -5.55112e-17
180 1 203.5 197.441 -5.55112e-17
181 1 134.85 167.37 -5.55112e-17
182 2 77.1514 20.0793 -5.55112e-17
183 1 76.7076 163.751 -5.55112e-17
184 1 176.471 86.8375 -5.55112e-17
185 2 176.745 19.4307 -5.55112e-17
186 2 208.779 134.143 -5.55112e-17
187 1 92.9283 28.5897 -5.55112e-17
188 1 102.801 170.145 -5.55112e-17
189 1 123.522 174.344 -5.55112e-17
190 2 13.4948 163.225 -5.55112e-17
191 1 77.2659 157.113 -5.55112e-17
192 2 63.5426 109.093 -5.55112e-17
193 2 79.6519 172.017 -5.55112e-17
194 1 31.8952 152.068 -5.55112e-17
195 1 145.505 163.497 -5.55112e-17
196 1 168.298 192.532 -5.55112e-17
197 1 74.9303 69.3937 -5.55112e-17
198 2 10.74 133.528 -5.55112e-17
199 1 210.591 57.0022 -5.55112e-17
200 1 80.0006 6.11592 -5.55112e-17
201 2 71.7269 109.754 -5.55112e-17
202 1 52.3032 210.557 -5.55112e-17
203 1 175.787 81.7871 -5.55112e-17
204 1 188.846 156.493 -5.55112e-17
205 2 191.955 82.7671 -5.55112e-17
206 1 89.1551 132.803 -5.55112e-17
207 1 105.338 29.8376 -5.55112e-17
208 1 31.7669 80.5383 -5.55112e-17
209 1 81.5456 1.83544 -5.55112e-17
210 1 10.3554 65.0233 -5.55112e-17
211 2 146.634 156.173 -5.55112e-17
212 1 120.279 112.473 -5.55112e-17
213 1 134.45 102.394 -5.55112e-17
214 1 74.2969 13.6386 -5.55112e-17
215 1 74.0253 201.253 -5.55112e-17
216 1 193.781 139.441 -5.55112e-17
217 1 126.686 186.631 -5.55112e-17
218 2 28.035 168.855 -5.55112e-17
219 1 155.13 213.881 -5.55112e-17
220 2 106.469 55.0723 -5.55112e-17
221 1 212.958 56.4466 -5.55112e-17
222 1 143.522 146.063 -5.55112e-17
223 1 52.1575 207.801 -5.55112e-17
224 2 9.72195 188.943 -5.55112e-17
225 1 201.541 142.502 -5.55112e-17
226 1 139.007 190.1 -5.55112e-17
227 2 50.8744 17.0794 -5.55112e-17
228 1 137.874 77.8538 -5.55112e-17
229 1 60.3478 134.975 -5.55112e-17
230 1 159.368 131.251 -5.55112e-17
231 1 148.741 123.377 -5.55112e-17
232 1 217.147 83.7689 -5.55112e-17
233 1 107.93 100.931 -5.55112e-17
234 1 133.447 215.901 -5.55112e-17
235 1 21.0519 144.622 -5.55112e-17
236 1 44.3495 76.9197 -5.55112e-17
237 1 197.196 6.8402 -5.55112e-17
238 1 147.888 128.623 -5.55112e-17
239 2 18.3259 114.625 -5.55112e-17
240 1 99.3589 5.56647 -5.55112e-17
241 2 186.773 16.1833 -5.55112e-17
242 2 198.597 37.1527 -5.55112e-17
243 2 114.707 27.5754 -5.55112e-17
244 1 97.4037 7.18562 -5.55112e-17
245 1 85.2477 58.6816 -5.55112e-17
246 1 126.16 119.118 -5.55112e-17
247 1 211.122 98.9036 -5.55112e-17
248 1 94.2066 3.76951 -5.55112e-17
249 1 23.255 65.813 -5.55112e-17
250 2 149.754 30.4779 -5.55112e-17
251 1 153.27 212.193 -5.55112e-17
252 1 195.576 64.559 -5.55112e-17
253 1 94.8521 61.2356 -5.55112e-17
254 2 76.5112 196.946 -5.55112e-17
255 1 212.449 148.885 -5.55112e-17
256 1 84.2531 165.815 -5.55112e-17
257 1 212.122 151.76 -5.55112e-17
258 2 163.894 28.2126 -5.55112e-17
259 1 58.4632 165.447 -5.55112e-17
260 1 127.161 11.1615 -5.55112e-17
261 1 184.403 13.99 -5.55112e-17
262 1 52.9277 52.1391 -5.55112e-17
263 1 12.5367 213.893 -5.55112e-17
264 1 171.955 43.4293 -5.55112e-17
265 1 170.443 23.8956 -5.55112e-17
266 1 154.951 10.0278 -5.55112e-17
267 1 1.87873 64.0131 -5.55112e-17
268 1 21.4952 35.233 -5.55112e-17
269 1 129.741 99.4293 -5.55112e-17
270 1 144.861 106.846 -5.55112e-17
271 1 9.29354 88.9595 -5.55112e-17
272 1 159.186 202.1 -5.55112e-17
273 1 40.5823 168.547 -5.55112e-17
274 2 114.122 88.8117 -5.55112e-17
275 1 63.5849 4.92278 -5.55112e-17
276 2 53.7322 32.2336 -5.55112e-17
277 2 167.502 122.054 -5.55112e-17
278 1 38.737 100.192 -5.55112e-17
279 2 109.888 204.665 -5.55112e-17
280 1 59.5518 31.8324 -5.55112e-17
281 1 147.096 29.4106 -5.55112e-17
282 1 164.026 8.59093 -5.55112e-17
283 1 113.463 141.361 -5.55112e-17
284 1 136.47 165.648 -5.55112e-17
285 1 35.4335 12.2622 -5.55112e-17
286 2 33.6968 214.885 -5.55112e-17
287 1 82.3738 135.217 -5.55112e-17
288 1 21.0875 57.4046 -5.55112e-17
289 1 72.0395 53.982 -5.55112e-17
290 1 150.865 193.429 -5.55112e-17
291 1 158.746 144.99 -5.55112e-17
292 2 19.9295 181.495 -5.55112e-17
293 2 64.991 193.778 -5.55112e-17
294 1 112.037 39.7407 -5.55112e-17
295 1 124.825 47.2337 -5.55112e-17
296 1 134.415 41.8989 -5.55112e-17
297 1 119.021 144.906 -5.55112e-17
298 1 104.819 198.372 -5.55112e-17
299 1 161.792 107.461 -5.55112e-17
300 2 62.6496 93.7597 -5.55112e-17
301 1 59.0159 43.64 -5.55112e-17
302 1 127.34 192.2 -5.55112e-17
303 2 198.386 60.0191 -5.55112e-17
304 2 145.185 129.796 -5.55112e-17
305 1 86.6778 99.2882 -5.55112e-17
306 1 51.3341 73.7889 -5.55112e-17
307 1 36.3463 120.889 -5.55112e-17
308 1 161.557 59.5109 -5.55112e-17
309 2 72.5893 184.462 -5.55112e-17
310 1 196.159 213.449 -5.55112e-17
311 1 79.5756 33.0262 -5.55112e-17
312 1 192.604 148.125 -5.55112e-17
313 2 147.284 65.9049 -5.55112e-17
314 1 53.4757 132.167 -5.55112e-17
315 1 111.352 150.55 -5.55112e-17
316 1 72.4621 0.391509 -5.55112e-17
317 1 14.3052 98.1845 -5.55112e-17
318 1 99.8301 214.839 -5.55112e-17
319 1 50.9319 32.9853 -5.55112e-17
320 1 146.602 94.8864 -5.55112e-17
321 1 88.3673 203.619 -5.55112e-17
322 1 141.614 139.224 -5.55112e-17
323 1 187.904 108.295 -5.55112e-17
324 1 80.9441 26.1526 -5.55112e-17
325 1 163.289 139.353 -5.55112e-17
326 1 85.0347 151.543 -5.55112e-17
327 2 149.908 185.724 -5.55112e-17
328 1 167.628 40.6939 -5.55112e-17
329 2 47.4684 114.416 -5.55112e-17
330 1 15.7259 113.737 -5.55112e-17
331 1 174.597 176.434 -5.55112e-17
332 2 112.461 104.569 -5.55112e-17
333 1 43.9894 17.3607 -5.55112e-17
334 1 139.697 168.732 -5.55112e-17
335 1 12.4523 204.742 -5.55112e-17
336 1 213.273 106.521 -5.55112e-17
337 1 103.336 182.113 -5.55112e-17
338 1 159.27 58.0388 -5.55112e-17
339 1 108.957 216.546 -5.55112e-17
340 1 154.207 141.521 -5.55112e-17
341 1 160.478 158.625 -5.55112e-17
342 1 128.952 144.628 -5.55112e-17
343 1 127.695 28.6999 -5.55112e-17
344 1 62.8126 181.291 -5.55112e-17
345 1 60.8521 108.73 -5.55112e-17
346 1 8.53789 125.333 -5.55112e-17
347 1 92.864 92.2176 -5.55112e-17
348 1 164.071 179.435 -5.55112e-17
349 1 193.753 75.7297 -5.55112e-17
350 2 89.2956 40.173 -5.55112e-17
351 1 154.67 66.4293 -5.55112e-17
352 1 60.7936 182.987 -5.55112e-17
353 1 39.4773 166.15 -5.55112e-17
354 1 167.886 161.838 -5.55112e-17
355 1 58.4862 156.511 -5.55112e-17
356 1 23.6821 36.4053 -5.55112e-17
357 1 62.7326 158.299 -5.55112e-17
358 1 172.182 181.282 -5.55112e-17
359 1 157.932 159.4 -5.55112e-17
360 1 74.6584 53.2906 -5.55112e-17
361 1 62.8586 167.618 -5.55112e-17
362 1 168.929 201.508 -5.55112e-17
363 1 163.427 189.864 -5.55112e-17
364 2 115.273 92.4404 -5.55112e-17
365 1 179.074 90.5879 -5.55112e-17
366 1 117.642 160.821 -5.55112e-17
367 1 173.794 7.3447 -5.55112e-17
368 1 196.856 193.166 -5.55112e-17
369 2 115.437 187.863 -5.55112e-17
370 1 14.2657 206.758 -5.55112e-17
371 1 53.6476 136.447 -5.55112e-17
372 2 0.963755 93.9238 -5.55112e-17
373 2 212.53 8.42352 -5.55112e-17
374 1 146.938 88.1161 -5.55112e-17
375 1 37.3976 111.279 -5.55112e-17
376 1 14.1622 152.079 -5.55112e-17
377 1 28.3643 213.566 -5.55112e-17
378 1 74.3324 128.827 -5.55112e-17
379 1 38.0974 64.6414 -5.55112e-17
380 1 177.886 151.323 -5.55112e-17
381 1 13.2782 5.80658 -5.55112e-17
382 1 54.4445 66.8958 -5.55112e-17
383 1 169.811 68.122 -5.55112e-17
384 1 21.6109 14.0647 -5.55112e-17
385 1 191.783 77.1025 -5.55112e-17
386 2 82.1338 44.0242 -5.55112e-17
387 1 144.069 19.7367 -5.55112e-17
388 1 56.6376 44.0433 -5.55112e-17
389 1 206.798 159.445 -5.55112e-17
390 2 207.177 179.968 -5.55112e-17
391 2 36.3101 37.526 -5.55112e-17
392 1 41.3904 217.823 -5.55112e-17
393 1 0.18934 33.687 -5.55112e-17
394 1 102.769 101.597 -5.55112e-17
395 1 15.8042 27.6216 -5.55112e-17
396 1 203.097 154.089 -5.55112e-17
397 1 100.704 15.9494 -5.55112e-17
398 1 11.0064 191.635 -5.55112e-17
399 1 19.4955 62.2463 -5.55112e-17
400 1 103.305 179.626 -5.55112e-17
401 1 87.7472 176.68 -5.55112e-17
402 2 191.27 179.351 -5.55112e-17
403 1 214.176 54.2178 -5.55112e-17
404 1 36.2373 71.3536 -5.55112e-17
405 1 204.394 29.8214 -5.55112e-17
406 1 201.306 68.8053 -5.55112e-17
407 2 17.9224 64.775 -5.55112e-17
408 1 34.0246 35.5173 -5.55112e-17
409 1 169.432 129.116 -5.55112e-17
410 1 20.5687 156.4 -5.55112e-17
411 1 152.323 160.805 -5.55112e-17
412 1 114.667 214.852 -5.55112e-17
413 1 63.4997 155.769 -5.55112e-17
414 1 37.8658 13.2405 -5.55112e-17
415 1 208.19 148.35 -5.55112e-17
416 1 71.6671 199.657 -5.55112e-17
417 1 140.801 93.3637 -5.55112e-17
418 2 184.566 10.9078 -5.55112e-17
419 1 108.791 149.323 -5.55112e-17
420 2 137.648 109.013 -5.55112e-17
421 1 88.2483 103.669 -5.55112e-17
422 1 174.222 17.8638 -5.55112e-17
423 2 157.784 41.3231 -5.55112e-17
424 1 157.557 149.25 -5.55112e-17
425 1 129.328 166.788 -5.55112e-17
426 1 133.202 112.68 -5.55112e-17
427 1 44.7869 79.6563 -5.55112e-17
428 1 70.5692 191.57 -5.55112e-17
429 1 194.757 83.3425 -5.55112e-17
430 1 215.256 60.2031 -5.55112e-17
431 1 119.927 206.416 -5.55112e-17
432 1 161.277 54.0553 -5.55112e-17
433 1 105.014 153.628 -5.55112e-17
434 1 71.3184 29.7783 -5.55112e-17
435 1 178.106 162.179 -5.55112e-17
436 1 41.5195 37.1144 -5.55112e-17
437 1 175.508 111.052 -5.55112e-17
438 2 109.194 21.6919 -5.55112e-17
439 1 67.0482 208.198 -5.55112e-17
440 1 1.51613 162.965 -5.55112e-17
441 1 192.932 131.802 -5.55112e-17
442 1 50.2684 13.7981 -5.55112e-17
443 1 156.904 104.095 -5.55112e-17
444 1 218.922 101.304 -5.55112e-17
445 1 139.61 7.5504 -5.55112e-17
446 1 135.361 78.2219 -5.55112e-17
447 1 39.1801 144.658 -5.55112e-17
448 1 75.4646 6.62806 -5.55112e-17
449 1 131.839 120.722 -5.55112e-17
450 1 139.676 187.807 -5.55112e-17
451 1 170.188 47.8231 -5.55112e-17
452 1 133.853 144.353 -5.55112e-17
453 1 179.308 182.706 -5.55112e-17
454 1 159.723 211.945 -5.55112e-17
455 1 100.663 71.8382 -5.55112e-17
456 1 166.675 27.5431 -5.55112e-17
457 1 97.8201 113.017 -5.55112e-17
458 1 200.044 217.512 -5.55112e-17
459 1 81.8142 68.6923 -5.55112e-17
460 1 48.7184 101.759 -5.55112e-17
461 1 188.703 178.403 -5.55112e-17
462 1 183.182 118.58 -5.55112e-17
463 1 126.885 33.1138 -5.55112e-17
464 1 155.141 195.117 -5.55112e-17
465 1 121.965 159.709 -5.55112e-17
466 1 23.4398 213.515 -5.55112e-17
467 1 17.6218 77.7254 -5.55112e-17
468 1 160.876 0.0804493 -5.55112e-17
469 1 69.2268 77.0971 -5.55112e-17
470 1 77.9799 37.4701 -5.55112e-17
471 1 128.903 174.246 -5.55112e-17
472 1 48.8867 82.8933 -5.55112e-17
473 1 29.6809 108.519 -5.55112e-17
474 1 88.8196 101.059 -5.55112e-17
475 1 185.192 164.011 -5.55112e-17
476 2 192.136 12.5385 -5.55112e-17
477 1 50.7816 87.6924 -5.55112e-17
478 1 58.958 124.773 -5.55112e-17
479 1 201.727 81.4085 -5.55112e-17
480 1 85.0203 22.7164 -5.55112e-17
481 1 14.4265 95.5163 -5.55112e-17
482 1 99.4014 159.799 -5.55112e-17
483 1 142.404 159.894 -5.55112e-17
484 2 87.4598 45.3568 -5.55112e-17
485 1 33.8937 99.8776 -5.55112e-17
486 1 81.3497 16.5334 -5.55112e-17
487 1 100.859 196.677 -5.55112e-17
488 1 9.82554 123.157 -5.55112e-17
489 1 211.912 135.407 -5.55112e-17
490 1 205.412 84.5181 -5.55112e-17
491 1 197.516 121.195 -5.55112e-17
492 1 5.41611 130.328 -5.55112e-17
493 1 193.756 210.69 -5.55112e-17
494 1 211.424 38.618 -5.55112e-17
495 1 199.361 89.7976 -5.55112e-17
496 2 43.8786 188.996 -5.55112e-17
497 1 38.8474 216.795 -5.55112e-17
498 1 104.655 121.354 -5.55112e-17
499 2 136.395 216.217 -5.55112e-17
500 1 26.2782 30.0863 -5.55112e-17
501 2 112.238 216.633 -5.55112e-17
502 2 123.806 143.134 -5.55112e-17
503 1 145.054 184.925 -5.55112e-17
504 1 113.295 148.489 -5.55112e-17
505 1 117.795 18.6075 -5.55112e-17
506 1 25.9747 116.736 -5.55112e-17
507 1 12.7039 131.139 -5.55112e-17
508 1 191.964 8.00095 -5.55112e-17
509 2 28.6955 73.6924 -5.55112e-17
510 2 146.471 133.628 -5.55112e-17
511 1 195.945 35.9446 -5.55112e-17
512 2 210.177 59.9245 -5.55112e-17
513 1 56.7663 126.588 -5.55112e-17
514 1 48.4733 18.9088 -5.55112e-17
515 1 204.304 25.462 -5.55112e-17
516 1 182.557 206.752 -5.55112e-17
517 1 111.963 117.688 -5.55112e-17
518 2 103.35 20.1104 -5.55112e-17
519 1 11.9424 53.4167 -5.55112e-17
520 2 212.284 23.4483 -5.55112e-17
521 1 88.9775 110.603 -5.55112e-17
522 1 30.7438 30.7795 -5.55112e-17
523 1 24.3966 67.8574 -5.55112e-17
524 1 100.494 74.5769 -5.55112e-17
525 1 174.867 121.401 -5.55112e-17
526 1 191.087 65.1102 -5.55112e-17
527 1 75.0956 4.21603 -5.55112e-17
528 1 168.803 29.1274 -5.55112e-17
529 1 56.6952 158.633 -5.55112e-17
530 1 100.078 31.7793 -5.55112e-17
531 1 65.7265 196.8 -5.55112e-17
532 1 206.521 188.455 -5.55112e-17
533 1 134.858 150.841 -5.55112e-17
534 1 97.391 144.647 -5.55112e-17
535 1 14.5204 104.867 -5.55112e-17
536 1 208.459 119.907 -5.55112e-17
537 1 201.588 166.837 -5.55112e-17
538 1 168.585 81.0717 -5.55112e-17
539 1 88.7029 211.047 -5.55112e-17
540 1 102.649 88.9577 -5.55112e-17
541 1 42.9339 57.867 -5.55112e-17
542 1 67.2045 210.713 -5.55112e-17
543 1 147.8 151.898 -5.55112e-17
544 1 128.643 200.153 -5.55112e-17
545 1 8.17773 149.747 -5.55112e-17
546 1 179.083 41.2632 -5.55112e-17
547 1 82.5369 172.213 -5.55112e-17
548 1 99.8035 8.18665 -5.55112e-17
549 1 52.0784 76.2642 -5.55112e-17
550 2 162.95 121.797 -5.55112e-17
551 2 134.799 158.07 -5.55112e-17
552 2 94.1411 180.369 -5.55112e-17
553 1 122.24 42.0306 -5.55112e-17
554 1 73.5439 101.512 -5.55112e-17
555 2 65.6127 123.138 -5.55112e-17
556 1 148.602 22.4786 -5.55112e-17
557 1 76.4081 11.8941 -5.55112e-17
558 1 148.413 125.977 -5.55112e-17
559 1 187.328 47.2352 -5.55112e-17
560 1 130.786 51.7379 -5.55112e-17
561 1 146.773 168.577 -5.55112e-17
562 1 195.844 144.896 -5.55112e-17
563 2 167.771 114.011 -5.55112e-17
564 1 41.9702 67.42 -5.55112e-17
565 1 60.0272 10.0139 -5.55112e-17
566 1 74.8642 34.0541 -5.55112e-17
567 1 150.549 111.423 -5.55112e-17
568 1 22.1293 120.659 -5.55112e-17
569 1 114.538 185.112 -5.55112e-17
570 1 125.239 123.876 -5.55112e-17
571 1 175.219 204.175 -5.55112e-17
572 1 61.4914 111.433 -5.55112e-17
573 1 177.428 76.8491 -5.55112e-17
574 1 42.7553 130.842 -5.55112e-17
575 1 20.854 82.8883 -5.55112e-17
576 1 196.216 98.5977 -5.55112e-17
577 1 202.888 33.738 -5.55112e-17
578 1 122.653 196.962 -5.55112e-17
579 1 12.6028 165.997 -5.55112e-17
580 1 102.945 139.104 -5.55112e-17
581 1 141.17 154.325 -5.55112e-17
582 1 76.7975 78.4303 -5.55112e-17
583 1 162.173 185.679 -5.55112e-17
584 2 29.1713 117.852 -5.55112e-17
585 1 48.4039 198.714 -5.55112e-17
586 1 138.013 170.88 -5.55112e-17
587 1 99.455 104.611 -5.55112e-17
588 1 17.1989 2.0572 -5.55112e-17
589 1 103.195 17.0893 -5.55112e-17
590 1 69.9343 218.48 -5.55112e-17
591 1 215.72 162.465 -5.55112e-17
592 1 56.1041 155.895 -5.55112e-17
593 1 209.33 181.894 -5.55112e-17
594 1 181.507 181.509 -5.55112e-17
595 1 83.306 39.2091 -5.55112e-17
596 1 65.873 35.7787 -5.55112e-17
597 2 180.069 204.851 -5.55112e-17
598 1 166.733 212.094 -5.55112e-17
599 1 208.091 171.528 -5.55112e-17
600 1 104.547 10.5223 -5.55112e-17
601 1 12.4812 135.613 -5.55112e-17
602 1 97.767 30.6952 -5.55112e-17
603 1 207.891 202.886 -5.55112e-17
604 1 120.313 1.1672 -5.55112e-17
605 2 86.2372 77.2894 -5.55112e-17
606 1 102.374 202.427 -5.55112e-17
607 2 172.009 147.11 -5.55112e-17
608 1 95.6864 76.3122 -5.55112e-17
609 1 15.5113 6.65914 -5.55112e-17
610 1 214.365 150.645 -5.55112e-17
611 1 201.441 190.8 -5.55112e-17
612 1 218.031 38.5514 -5.55112e-17
613 1 58.7601 150.699 -5.55112e-17
614 2 127.899 179.045 -5.55112e-17
615 1 105.477 18.1276 -5.55112e-17
616 1 202.15 130.676 -5.55112e-17
617 1 126.885 198.315 -5.55112e-17
618 1 201.238 212.901 -5.55112e-17
619 1 179.451 78.2017 -5.55112e-17
620 1 143.713 140.417 -5.55112e-17
621 1 198.297 97.1671 -5.55112e-17
622 1 94.977 213.592 -5.55112e-17
623 1 218.577 12.3581 -5.55112e-17
624 1 23.0834 207.781 -5.55112e-17
625 1 205.251 155.228 -5.55112e-17
626 1 94.0189 191.263 -5.55112e-17
627 1 64.597 73.6404 -5.55112e-17
628 1 34.1393 27.8455 -5.55112e-17
629 1 19.8112 101.309 -5.55112e-17
630 2 151.388 22.6897 -5.55112e-17
631 1 13.108 79.8272 -5.55112e-17
632 1 49.0444 91.9862 -5.55112e-17
633 1 38.2517 211.278 -5.55112e-17
634 1 1.38013 147.676 -5.55112e-17
635 1 155.424 150.815 -5.55112e-17
636 1 208.088 58.0205 -5.55112e-17
637 1 200.93 58.2857 -5.55112e-17
638 1 172.695 77.1188 -5.55112e-17
639 2 203.759 79.166 -5.55112e-17
640 1 143.521 152.212 -5.55112e-17
641 1 193.015 85.6123 -5.55112e-17
642 1 31.1615 90.1617 -5.55112e-17
643 2 181.44 42.94 -5.55112e-17
644 1 68.5217 154.893 -5.55112e-17
645 1 106.862 196.535 -5.55112e-17
646 2 211.8 141.105 -5.55112e-17
647 1 10.6155 185.371 -5.55112e-17
648 1 132.082 103.487 -5.55112e-17
649 2 24.5429 151.544 -5.55112e-17
650 1 204.478 186.851 -5.55112e-17
651 1 0.0116572 113.406 -5.55112e-17
652 1 153.253 44.7352 -5.55112e-17
653 1 114.165 175.165 -5.55112e-17
654 1 22.8191 21.6399 -5.55112e-17
655 2 184.016 100.634 -5.55112e-17
656 1 26.8024 122.39 -5.55112e-17
657 2 78.7436 206.586 -5.55112e-17
658 1 53.9746 44.0684 -5.55112e-17
659 2 156.576 192.677 -5.55112e-17
660 1 101.541 54.4668 -5.55112e-17
661 1 45.3212 116.454 -5.55112e-17
662 1 81.4568 129.984 -5.55112e-17
663 1 32.2665 26.0217 -5.55112e-17
664 1 148.206 17.036 -5.55112e-17
665 1 139.104 75.7419 -5.55112e-17
666 2 47.8653 180.639 -5.55112e-17
667 1 93.8246 99.0522 -5.55112e-17
668 2 102.692 91.9059 -5.55112e-17
669 1 35.7782 17.4174 -5.55112e-17
670 1 96.4977 173.481 -5.55112e-17
671 2 53.818 175.83 -5.55112e-17
672 1 186.901 12.9792 -5.55112e-17
673 1 62.836 19.5552 -5.55112e-17
674 1 2.33056 32.0867 -5.55112e-17
675 1 128.331 23.3664 -5.55112e-17
676 1 169.718 123.951 -5.55112e-17
677 1 131.601 174.457 -5.55112e-17
678 1 138.12 30.4931 -5.55112e-17
679 2 152.327 33.6527 -5.55112e-17
680 1 202.811 41.6855 -5.55112e-17
681 2 129.288 119.417 -5.55112e-17
682 1 0.146108 48.2833 -5.55112e-17
683 1 68.1302 3.70369 -5.55112e-17
684 1 120.328 154.489 -5.55112e-17
685 1 152.736 39.3459 -5.55112e-17
686 1 27.8403 193.6 -5.55112e-17
687 1 118.45 191.715 -5.55112e-17
688 1 162.314 110.128 -5.55112e-17
689 2 58.2419 46.4911 -5.55112e-17
690 1 69.9401 19.5391 -5.55112e-17
691 1 90.0649 65.9224 -5.55112e-17
692 1 130.676 7.92609 -5.55112e-17
693 1 48.3769 142.977 -5.55112e-17
694 1 76.0587 124.552 -5.55112e-17
695 1 145.657 38.9212 -5.55112e-17
696 1 151.802 81.4859 -5.55112e-17
697 1 139.572 201.363 -5.55112e-17
698 1 116.352 66.6384 -5.55112e-17
699 1 180.31 192.336 -5.55112e-17
700 1 205.769 209.734 -5.55112e-17
701 1 53.7878 16.7804 -5.55112e-17
702 1 113.795 128.773 -5.55112e-17
703 2 188.569 144.486 -5.55112e-17
704 1 29.0037 218.538 -5.55112e-17
705 2 68.9217 111.436 -5.55112e-17
706 1 165.952 177.764 -5.55112e-17
707 1 113.728 24.562 -5.55112e-17
708 1 83.7175 208.998 -5.55112e-17
709 1 147.117 196.28 -5.55112e-17
710 1 191.848 192.158 -5.55112e-17
711 1 112.682 91.189 -5.55112e-17
712 1 191.994 208.481 -5.55112e-17
713 1 14.7559 136.793 -5.55112e-17
714 1 135.715 13.0326 -5.55112e-17
715 1 55.7865 199.108 -5.55112e-17
716 1 37.096 123.366 -5.55112e-17
717 1 51.6553 106.387 -5.55112e-17
718 1 131.517 185.071 -5.55112e-17
719 2 120.926 76.9863 -5.55112e-17
720 1 100.347 64.9759 -5.55112e-17
721 1 96.2314 98.2924 -5.55112e-17
722 1 133.471 63.3181 -5.55112e-17
723 2 48.7002 45.8506 -5.55112e-17
724 1 15.5539 49.4708 -5.55112e-17
725 1 29.7813 105.73 -5.55112e-17
726 1 189.327 45.7516 -5.55112e-17
727 1 148.232 205.103 -5.55112e-17
728 2 21.0867 90.3938 -5.55112e-17
729 1 133.887 164.991 -5.55112e-17
730 1 174.289 199.609 -5.55112e-17
731 1 48.7627 189.94 -5.55112e-17
732 1 218.04 9.52034 -5.55112e-17
733 1 205.543 34.6635 -5.55112e-17
734 1 4.15722 30.3003 -5.55112e-17
735 1 40.1557 24.1432 -5.55112e-17
736 2 190.249 74.4444 -5.55112e-17
737 1 82.2451 86.0054 -5.55112e-17
738 1 18.6176 167.322 -5.55112e-17
739 1 105.692 156.325 -5.55112e-17
740 1 60.0998 115.439 -5.55112e-17
741 2 189.195 78.5827 -5.55112e-17
742 1 74.563 43.2047 -5.55112e-17
743 1 203.036 66.9691 -5.55112e-17
744 2 210.371 173.35 -5.55112e-17
745 1 131.268 31.4174 -5.55112e-17
746 1 13.869 29.4429 -5.55112e-17
747 2 204.149 22.8348 -5.55112e-17
748 1 182.653 193.36 -5.55112e-17
749 1 196.19 211.191 -5.55112e-17
750 1 213.529 163.79 -5.55112e-17
751 1 59.551 58.5631 -5.55112e-17
752 1 178.843 107.149 -5.55112e-17
753 1 99.0407 150.823 -5.55112e-17
754 1 17.0618 215.062 -5.55112e-17
755 1 83.0603 194.87 -5.55112e-17
756 2 103.759 195.707 -5.55112e-17
757 1 26.8441 18.8884 -5.55112e-17
758 1 134.95 148.563 -5.55112e-17
759 1 73.0395 107.137 -5.55112e-17
760 1 96.7925 40.5695 -5.55112e-17
761 1 58.121 161.055 -5.55112e-17
762 1 43.0603 23.166 -5.55112e-17
763 1 114.916 99.7564 -5.55112e-17
764 2 178.175 148.468 -5.55112e-17
765 1 94.7039 64.1467 -5.55112e-17
766 1 114.222 35.262 -5.55112e-17
767 1 97.4251 78.0438 -5.55112e-17
768 1 9.12613 4.60203 -5.55112e-17
769 1 110.64 78.0185 -5.55112e-17
770 2 113.486 109.991 -5.55112e-17
771 1 143.617 178.811 -5.55112e-17
772 1 101.889 28.1348 -5.55112e-17
773 1 109.313 167.124 -5.55112e-17
774 1 111.371 124.036 -5.55112e-17
775 1 68.5439 6.32316 -5.55112e-17
776 1 37.6655 10.6413 -5.55112e-17
777 1 108.184 181.652 -5.55112e-17
778 1 22.1756 19.0302 -5.55112e-17
779 1 191.344 43.9572 -5.55112e-17
780 1 3.14154 169.686 -5.55112e-17
781 1 123.836 104.104 -5.55112e-17
782 1 175.207 49.7424 -5.55112e-17
783 1 98.3444 15.0295 -5.55112e-17
784 2 194.916 159.459 -5.55112e-17
785 1 110.983 165.118 -5.55112e-17
786 1 119.423 176.744 -5.55112e-17
787 1 185.57 74.9707 -5.55112e-17
788 1 176.423 45.2866 -5.55112e-17
789 2 139.433 104.732 -5.55112e-17
790 1 109.795 28.6358 -5.55112e-17
791 2 13.024 118.054 -5.55112e-17
792 2 216.018 14.0346 -5.55112e-17
793 2 117.276 69.4692 -5.55112e-17
794 1 56.1613 188.036 -5.55112e-17
795 1 132.109 53.9001 -5.55112e-17
796 1 130.684 21.7229 -5.55112e-17
797 1 197.947 156.143 -5.55112e-17
798 2 195.905 204.447 -5.55112e-17
799 2 207.702 65.3336 -5.55112e-17
800 2 55.1714 217.191 -5.55112e-17
801 1 103.051 132.254 -5.55112e-17
802 1 126.473 76.2092 -5.55112e-17
803 1 182.045 68.7556 -5.55112e-17
804 2 122.514 204.971 -5.55112e-17
805 1 44.4421 105.821 -5.55112e-17
806 1 12.9808 112.554 -5.55112e-17
807 2 100.933 99.4808 -5.55112e-17
808 1 10.3175 117.253 -5.55112e-17
809 2 57.8577 133.652 -5.55112e-17
810 1 129.697 197.716 -5.55112e-17
811 1 32.5033 5.98319 -5.55112e-17
812 1 132.203 34.0354 -5.55112e-17
813 2 107.716 111.234 -5.55112e-17
814 1 146.347 73.3587 -5.55112e-17
815 1 88.8499 164.381 -5.55112e-17
816 1 200.673 10.4193 -5.55112e-17
817 1 107.695 214.182 -5.55112e-17
818 1 57.4439 97.9567 -5.55112e-17
819 1 9.91354 136.445 -5.55112e-17
820 1 44.6362 120.905 -5.55112e-17
821 1 94.4644 151.609 -5.55112e-17
822 2 42.2657 135.584 -5.55112e-17
823 2 138.685 98.7634 -5.55112e-17
824 1 35.0647 107.222 -5.55112e-17
825 1 64.8194 15.3901 -5.55112e-17
826 1 192.602 2.83667 -5.55112e-17
827 1 192.694 107.886 -5.55112e-17
828 1 142.564 123.325 -5.55112e-17
829 1 126.889 210.873 -5.55112e-17
830 1 81.3903 127.388 -5.55112e-17
831 1 217.334 43.4302 -5.55112e-17
832 1 93.701 86.9605 -5.55112e-17
833 1 62.967 84.1191 -5.55112e-17
834 1 106.72 8.71827 -5.55112e-17
835 1 56.0414 0.99652 -5.55112e-17
836 1 11.3142 50.7447 -5.55112e-17
837 1 4.69521 71.7343 -5.55112e-17
838 1 97.9211 178.621 -5.55112e-17
839 2 198.302 3.79389 -5.55112e-17
840 1 4.88576 205.727 -5.55112e-17
841 2 63.205 184.627 -5.55112e-17
842 1 95.0853 91.5726 -5.55112e-17
843 2 159.244 182.833 -5.55112e-17
844 1 29.3619 156.309 -5.55112e-17
845 1 70.675 189.026 -5.55112e-17
846 1 158.935 190.514 -5.55112e-17
847 1 42.4052 140.631 -5.55112e-17
848 1 190.431 117.284 -5.55112e-17
849 1 189.436 167.185 -5.55112e-17
850 1 38.4806 127.891 -5.55112e-17
851 1 92.0297 41.2018 -5.55112e-17
852 1 11.1035 209.699 -5.55112e-17
853 1 30.9886 135.523 -5.55112e-17
854 1 171.363 84.7962 -5.55112e-17
855 1 125.694 19.7235 -5.55112e-17
856 1 210.542 170.378 -5.55112e-17