ITEM: TIMESTEP
0
ITEM: NUMBER OF ATOMS
7200
ITEM: BOX BOUNDS xy xz yz pp pp pp
0.0000000000000000e+00 2.1900000000000000e+02 0.0000000000000000e+00
0.0000000000000000e+00 2.1900000000000000e+02 0.0000000000000000e+00
-3.6499999999999999e-01 3.6499999999999999e-01 0.0000000000000000e+00
ITEM: ATOMS id type x y z
1 1 67.7275 134.606 -5.55112e-17
2 1 183.048 108.885 -5.55112e-17
3 1 13.8827 158.641 -5.55112e-17
4 1 3.68571 86.4792 -5.55112e-17
5 1 215.725 157.209 -5.55112e-17
6 1 117.183 210.458 -5.55112e-17
7 1 42.4034 51.5647 -5.55112e-17
8 2 149.047 82.9136 -5.55112e-17
9 1 203.331 9.70583 -5.55112e-17
10 2 58.3455 193.453 -5.55112e-17
11 1 114.648 14.7644 -5.55112e-17
12 1 128.93 77.8101 -5.55112e-17
13 2 51.0882 79.3387 -5.55112e-17
14 1 65.2772 17.8685 -5.55112e-17
15 1 136.964 105.401 -5.55112e-17
16 2 61.1534 172.61 -5.55112e-17
17 1 114.144 30.9744 -5.55112e-17
18 2 31.5361 78.2568 -5.55112e-17
19 1 106.541 52.5922 -5.55112e-17
20 1 144.33 103.3 -5.55112e-17
21 1 42.2628 5.44496 -5.55112e-17
22 2 49.9001 147.831 -5.55112e-17
23 2 17.3482 54.5568 -5.55112e-17
24 1 159.201 99.2364 -5.55112e-17
25 1 75.9135 183.237 -5.55112e-17
26 2 86.373 96.8489 -5.55112e-17
27 1 155.836 174.194 -5.55112e-17
28 2 22.7366 156.559 -5.55112e-17
29 1 53.1482 46.8356 -5.55112e-17
30 1 139.564 88.137 -5.55112e-17
31 1 211.323 90.444 -5.55112e-17
32 1 57.9701 104.485 -5.55112e-17
33 1 157.628 154.489 -5.55112e-17
34 1 60.8992 77.678 -5.55112e-17
35 1 177.12 68.624 -5.55112e-17
36 1 61.2816 75.1054 -5.55112e-17
37 2 136.739 140.794 -5.55112e-17
38 1 197.729 74.3385 -5.55112e-17
39 1 122.3 137.974 -5.55112e-17
40 1 165.852 164.092 -5.55112e-17
41 1 120.777 182.259 -5.55112e-17
42 1 103.036 36.2706 -5.55112e-17
43 1 135.217 60.8332 -5.55112e-17
44 1 107.415 23.3207 -5.55112e-17
45 1 214.77 84.6687 -5.55112e-17
46 1 28.4194 203.426 -5.55112e-17
47 1 89.0098 172.198 -5.55112e-17
48 2 47.3965 86.5601 -5.55112e-17
49 1 76.7023 110.764 -5.55112e-17
50 1 46.4067 197.582 -5.55112e-17
51 1 181.042 34.61 -5.55112e-17
52 1 203.781 132.82 -5.55112e-17
53 1 156.564 27.1229 -5.55112e-17
54 1 24.3563 119.569 -5.55112e-17
55 1 23.0219 48.4073 -5.55112e-17
56 1 117.615 140.104 -5.55112e-17
57 2 67.9419 214.758 -5.55112e-17
58 1 32.8377 40.4685 -5.55112e-17
59 1 29.2752 152.08 -5.55112e-17
60 2 151.856 147.035 -5.55112e-17
61 2 36.2162 202.768 -5.55112e-17
62 1 10.5729 162.479 -5.55112e-17
63 1 111.726 197.721 -5.55112e-17
64 1 133.7 39.3522 -5.55112e-17
65 1 213.938 114.163 -5.55112e-17
66 1 129.172 134.071 -5.55112e-17
67 1 95.7267 139.681 -5.55112e-17
68 1 66.5169 116.446 -5.55112e-17
69 1 140.869 173.889 -5.55112e-17
70 1 58.9927 111.307 -5.55112e-17
71 1 7.52439 125.77 -5.55112e-17
72 1 171.578 60.5285 -5.55112e-17
73 1 188.166 185.6 -5.55112e-17
74 1 207.32 21.4386 -5.55112e-17
75 2 93.7138 1.39259 -5.55112e-17
76 1 17.9572 4.90098 -5.55112e-17
77 1 36.5992 24.3769 -5.55112e-17
78 1 124.815 116.828 -5.55112e-17
79 2 126.56 1.1266 -5.55112e-17
80 1 75.1965 106.393 -5.55112e-17
81 1 110.679 140.803 -5.55112e-17
82 1 53.887 141.881 -5.55112e-17
83 2 129.903 182.068 -5.55112e-17
84 1 179.747 80.5567 -5.55112e-17
85 1 22.6374 41.2112 -5.55112e-17
86 1 128.335 141.619 -5.55112e-17
87 1 217.761 217.441 -5.55112e-17
88 1 19.4446 35.0659 -5.55112e-17
89 2 44.3213 3.48768 -5.55112e-17
90 2 190.665 187.157 -5.55112e-17
91 1 149.59 90.4208 -5.55112e-17
92 2 168.745 21.4927 -5.55112e-17
93 1 141.196 15.1746 -5.55112e-17
94 2 202.066 12.4227 -5.55112e-17
95 1 33.5624 194.885 -5.55112e-17
96 1 130.416 95.1537 -5.55112e-17
97 1 97.3431 4.80963 -5.55112e-17
98 1 125.525 54.9375 -5.55112e-17
99 1 177.98 21.5445 -5.55112e-17
100 1 176.059 8.79644 -5.55112e-17
101 1 114.43 12.2723 -5.55112e-17
102 1 24.765 46.4032 -5.55112e-17
103 1 57.8926 80.6563 -5.55112e-17
104 1 68.7848 109.429 -5.55112e-17
105 1 142.412 201.306 -5.55112e-17
106 1 77.915 103.009 -5.55112e-17
107 2 146.437 101.206 -5.55112e-17
108 1 36.6742 210.554 -5.55112e-17
109 1 54.2029 89.1702 -5.55112e-17
110 1 107.899 63.145 -5.55112e-17
111 1 61.0508 20.9795 -5.55112e-17
112 1 94.9109 137.207 -5.55112e-17
113 1 99.4467 43.6764 -5.55112e-17
114 1 158.443 23.0563 -5.55112e-17
115 1 51.3156 163.241 -5.55112e-17
116 2 214.15 133.867 -5.55112e-17
117 1 201.55 216.566 -5.55112e-17
118 1 164.995 67.8476 -5.55112e-17
119 2 57.8273 98.6256 -5.55112e-17
120 1 53.3899 199.216 -5.55112e-17
121 1 151.954 83.815 -5.55112e-17
122 1 103.25 14.759 -5.55112e-17
123 1 136.597 75.5653 -5.55112e-17
124 1 155.086 201.415 -5.55112e-17
125 1 141.324 117.514 -5.55112e-17
126 1 111.458 65.3907 -5.55112e-17
127 1 163.781 78.0257 -5.55112e-17
128 1 175.368 136.644 -5.55112e-17
129 1 7.65815 104.156 -5.55112e-17
130 1 83.7105 128.494 -5.55112e-17
131 1 175.786 152.748 -5.55112e-17
132 2 183.285 2.30543 -5.55112e-17
133 1 126.824 79.4407 -5.55112e-17
134 1 35.4441 86.3416 -5.55112e-17
135 1 78.4566 8.48379 -5.55112e-17
136 1 210.51 201.867 -5.55112e-17
137 1 102.134 136.907 -5.55112e-17
138 1 50.6077 212.273 -5.55112e-17
139 1 202.458 105.701 -5.55112e-17
140 2 142.25 186.159 -5.55112e-17
141 1 205.731 96.4441 -5.55112e-17
142 2 212.057 49.0335 -5.55112e-17
143 1 111.359 80.5752 -5.55112e-17
144 2 43.802 199.261 -5.55112e-17
145 1 172.375 102.9 -5.55112e-17
146 1 99.9837 120.067 -5.55112e-17
147 1 154.581 145.843 -5.55112e-17
148 1 6.88108 200.958 -5.55112e-17
149 1 67.9888 21.7704 -5.55112e-17
150 1 54.1057 37.4855 -5.55112e-17
151 1 26.228 112.947 -5.55112e-17
152 1 63.2498 104.766 -5.55112e-17
153 2 52.2358 6.19431 -5.55112e-17
154 1 149.07 94.5084 -5.55112e-17
155 1 107.989 16.7648 -5.55112e-17
156 2 71.4321 115.999 -5.55112e-17
157 1 207.524 104.633 -5.55112e-17
158 1 29.1271 29.0713 -5.55112e-17
159 1 22.4664 135.98 -5.55112e-17
160 1 12.1745 201.874 -5.55112e-17
161 1 1.7311 8.02254 -5.55112e-17
162 1 127.337 127.044 -5.55112e-17
163 1 18.119 32.7181 -5.55112e-17
164 1 167.016 52.8955 -5.55112e-17
165 1 125.03 121.485 -5.55112e-17
166 2 159.535 60.3605 -5.55112e-17
167 1 175.245 46.5596 -5.55112e-17
168 1 148.98 169.56 -5.55112e-17
169 1 1.93347 101.817 -5.55112e-17
170 1 95.174 168.466 -5.55112e-17
171 1 146.652 60.9481 -5.55112e-17
172 1 218.911 17.3955 -5.55112e-17
173 1 46.0517 143.343 -5.55112e-17
174 1 131.045 62.5092 -5.55112e-17
175 2 137.304 160.718 -5.55112e-17
176 1 109.83 70.6831 -5.55112e-17
177 2 70.6852 57.0354 -5.55112e-17
178 1 65.4662 86.9396 -5.55112e-17
179 1 173.518 164.022 -5.55112e-17
180 1 203.488 197.186 -5.55112e-17
181 1 134.747 167.241 -5.55112e-17
182 2 77.4652 20.6867 -5.55112e-17
183 1 77.1446 164.226 -5.55112e-17
184 1 175.979 86.6651 -5.55112e-17
185 2 175.219 20.7556 -5.55112e-17
186 2 208.652 133.938 -5.55112e-17
187 1 93.1277 29.0651 -5.55112e-17
188 1 102.746 170.142 -5.55112e-17
189 1 123.375 174.319 -5.55112e-17
190 2 13.4843 161.77 -5.55112e-17
191 1 77.6065 157.213 -5.55112e-17
192 2 63.6998 109.766 -5.55112e-17
193 2 80.0099 172.324 -5.55112e-17
194 1 33.0725 149.585 -5.55112e-17
195 1 145.166 163.496 -5.55112e-17
196 1 168.737 192.09 -5.55112e-17
197 1 74.3249 69.9872 -5.55112e-17
198 2 9.64704 132.895 -5.55112e-17
199 1 210.783 57.2532 -5.55112e-17
200 1 80.585 6.95355 -5.55112e-17
201 2 71.6319 110.062 -5.55112e-17
202 1 52.6271 210.633 -5.55112e-17
203 1 175.398 81.5133 -5.55112e-17
204 1 188.578 156.74 -5.55112e-17
205 2 191.671 82.5039 -5.55112e-17
206 1 89.1574 132.867 -5.55112e-17
207 1 105.848 29.8827 -5.55112e-17
208 1 32.8475 86.0475 -5.55112e-17
209 1 82.1563 2.72837 -5.55112e-17
210 1 7.91079 64.855 -5.55112e-17
211 2 146.516 156.393 -5.55112e-17
212 1 120.544 112.337 -5.55112e-17
213 1 134.718 103.867 -5.55112e-17
214 1 74.4143 14.2958 -5.55112e-17
215 1 74.3947 201.862 -5.55112e-17
216 1 193.432 138.917 -5.55112e-17
217 1 126.952 186.79 -5.55112e-17
218 2 28.546 168.18 -5.55112e-17
219 1 155.215 213.766 -5.55112e-17
220 2 107.016 55.5047 -5.55112e-17
221 1 212.852 55.7859 -5.55112e-17
222 1 143.551 146.176 -5.55112e-17
223 1 52.5005 208.011 -5.55112e-17
224 2 10.2265 188.702 -5.55112e-17
225 1 201.324 142.23 -5.55112e-17
226 1 139.2 190.095 -5.55112e-17
227 2 51.1008 17.4066 -5.55112e-17
228 1 138.715 77.0589 -5.55112e-17
229 1 60.8347 135.669 -5.55112e-17
230 1 158.998 131.049 -5.55112e-17
231 1 148.516 122.739 -5.55112e-17
232 1 1.11185 90.8448 -5.55112e-17
233 1 110.092 100.23 -5.55112e-17
234 1 133.755 216.108 -5.55112e-17
235 1 20.9331 143.111 -5.55112e-17
236 1 46.1798 81.7647 -5.55112e-17
237 1 198.907 8.13488 -5.55112e-17
238 1 147.859 127.977 -5.55112e-17
239 2 17.5561 112.449 -5.55112e-17
240 1 99.623 5.99511 -5.55112e-17
241 2 187.637 14.6387 -5.55112e-17
242 2 198.643 36.9323 -5.55112e-17
243 2 114.753 27.672 -5.55112e-17
244 1 97.5427 7.54834 -5.55112e-17
245 1 84.6453 58.6994 -5.55112e-17
246 1 126.207 119.126 -5.55112e-17
247 1 210.67 98.5359 -5.55112e-17
248 1 94.6269 3.99913 -5.55112e-17
249 1 23.2858 65.8261 -5.55112e-17
250 2 149.711 29.7567 -5.55112e-17
251 1 153.338 212.115 -5.55112e-17
252 1 195.474 64.2145 -5.55112e-17
253 1 94.3216 61.6086 -5.55112e-17
254 2 76.6464 197.421 -5.55112e-17
255 1 212.389 149.133 -5.55112e-17
256 1 84.9634 165.747 -5.55112e-17
257 1 212.014 151.575 -5.55112e-17
258 2 164.026 27.8826 -5.55112e-17
259 1 58.4531 165.872 -5.55112e-17
260 1 127.552 11.3534 -5.55112e-17
261 1 184.821 13.9287 -5.55112e-17
262 1 53.6127 52.595 -5.55112e-17
263 1 12.8269 213.707 -5.55112e-17
264 1 172.45 43.0355 -5.55112e-17
265 1 166.317 22.8966 -5.55112e-17
266 1 155.352 9.68699 -5.55112e-17
267 1 2.71491 64.62 -5.55112e-17
268 1 21.9265 35.3958 -5.55112e-17
269 1 125.78 94.8024 -5.55112e-17
270 1 141.36 106.145 -5.55112e-17
271 1 12.5162 92.6615 -5.55112e-17
272 1 159.385 202.09 -5.55112e-17
273 1 40.8182 169.112 -5.55112e-17
274 2 112.898 87.9204 -5.55112e-17
275 1 64.1036 5.18946 -5.55112e-17
276 2 53.969 32.3702 -5.55112e-17
277 2 167.29 121.93 -5.55112e-17
278 1 38.5651 101.111 -5.55112e-17
279 2 109.815 204.932 -5.55112e-17
280 1 60.172 31.8733 -5.55112e-17
281 1 147.182 28.5645 -5.55112e-17
282 1 164.897 8.20043 -5.55112e-17
283 1 113.11 141.591 -5.55112e-17
284 1 136.539 165.5 -5.55112e-17
285 1 35.9642 12.4235 -5.55112e-17
286 2 34.2781 215.03 -5.55112e-17
287 1 82.4874 135.254 -5.55112e-17
288 1 21.5783 57.7059 -5.55112e-17
289 1 71.5079 54.1541 -5.55112e-17
290 1 150.982 193.372 -5.55112e-17
291 1 158.62 145.09 -5.55112e-17
292 2 19.8728 181.119 -5.55112e-17
293 2 65.716 194.346 -5.55112e-17
294 1 111.776 40.4064 -5.55112e-17
295 1 124.815 47.9283 -5.55112e-17
296 1 134.863 41.6197 -5.55112e-17
297 1 119.086 144.991 -5.55112e-17
298 1 104.869 198.686 -5.55112e-17
299 1 160.089 106.386 -5.55112e-17
300 2 62.1681 95.0037 -5.55112e-17
301 1 58.8392 46.0451 -5.55112e-17
302 1 127.169 192.646 -5.55112e-17
303 2 198.668 60.047 -5.55112e-17
304 2 144.962 129.586 -5.55112e-17
305 1 86.0846 99.8057 -5.55112e-17
306 1 51.0182 73.8187 -5.55112e-17
307 1 35.3551 122.472 -5.55112e-17
308 1 161.984 58.834 -5.55112e-17
309 2 73.2697 184.34 -5.55112e-17
310 1 194.047 215.574 -5.55112e-17
311 1 79.7459 33.7393 -5.55112e-17
312 1 192.127 147.942 -5.55112e-17
313 2 147.554 66.0564 -5.55112e-17
314 1 52.185 135.256 -5.55112e-17
315 1 111.442 150.209 -5.55112e-17
316 1 72.9257 1.08683 -5.55112e-17
317 1 13.7257 99.3512 -5.55112e-17
318 1 100.136 215.207 -5.55112e-17
319 1 51.0364 33.509 -5.55112e-17
320 1 144.388 99.2535 -5.55112e-17
321 1 88.378 203.859 -5.55112e-17
322 1 143.4 140.208 -5.55112e-17
323 1 188.033 108.131 -5.55112e-17
324 1 81.0707 26.8019 -5.55112e-17
325 1 162.751 139.341 -5.55112e-17
326 1 85.2369 151.814 -5.55112e-17
327 2 149.946 185.803 -5.55112e-17
328 1 167.602 40.4615 -5.55112e-17
329 2 47.2085 115.707 -5.55112e-17
330 1 24.007 102.073 -5.55112e-17
331 1 174.83 176.016 -5.55112e-17
332 2 112.353 104.412 -5.55112e-17
333 1 44.4894 18.0033 -5.55112e-17
334 1 139.61 168.795 -5.55112e-17
335 1 12.6218 206.64 -5.55112e-17
336 1 212.316 106.306 -5.55112e-17
337 1 103.013 182.061 -5.55112e-17
338 1 159.267 57.5878 -5.55112e-17
339 1 109.263 217.11 -5.55112e-17
340 1 153.543 141.416 -5.55112e-17
341 1 160.317 158.495 -5.55112e-17
342 1 128.917 144.176 -5.55112e-17
343 1 127.302 29.2592 -5.55112e-17
344 1 63.7644 181.917 -5.55112e-17
345 1 60.8568 109.581 -5.55112e-17
346 1 9.44979 127.597 -5.55112e-17
347 1 92.3343 92.5735 -5.55112e-17
348 1 164.026 179.111 -5.55112e-17
349 1 193.202 75.2438 -5.55112e-17
350 2 89.9095 40.7546 -5.55112e-17
351 1 154.96 65.7013 -5.55112e-17
352 1 61.1008 182.879 -5.55112e-17
353 1 39.4739 166.472 -5.55112e-17
354 1 167.805 161.761 -5.55112e-17
355 1 58.4446 156.844 -5.55112e-17
356 1 24.2521 36.4898 -5.55112e-17
357 1 62.6245 158.936 -5.55112e-17
358 1 172.236 180.784 -5.55112e-17
359 1 157.838 159.016 -5.55112e-17
360 1 74.174 53.3099 -5.55112e-17
361 1 63.1934 167.993 -5.55112e-17
362 1 169.288 201.07 -5.55112e-17
363 1 163.651 190.349 -5.55112e-17
364 2 116.381 92.3439 -5.55112e-17
365 1 178.679 90.609 -5.55112e-17
366 1 117.409 160.728 -5.55112e-17
367 1 174.041 6.9509 -5.55112e-17
368 1 197.087 192.499 -5.55112e-17
369 2 115.352 188.038 -5.55112e-17
370 1 15.2741 206.075 -5.55112e-17
371 1 53.9697 137.166 -5.55112e-17
372 2 0.175081 93.8264 -5.55112e-17
373 2 213.107 8.09712 -5.55112e-17
374 1 151.175 88.2235 -5.55112e-17
375 1 37.1968 112.072 -5.55112e-17
376 1 16.3032 153.187 -5.55112e-17
377 1 29.0744 213.157 -5.55112e-17
378 1 74.5447 129.537 -5.55112e-17
379 1 42.8139 60.3554 -5.55112e-17
380 1 177.818 151.192 -5.55112e-17
381 1 13.8756 5.64089 -5.55112e-17
382 1 54.264 67.2196 -5.55112e-17
383 1 169.801 67.2784 -5.55112e-17
384 1 22.0284 13.7906 -5.55112e-17
385 1 191.316 77.0724 -5.55112e-17
386 2 82.0157 44.4603 -5.55112e-17
387 1 144.117 19.0268 -5.55112e-17
388 1 56.4345 43.8064 -5.55112e-17
389 1 206.659 159.125 -5.55112e-17
390 2 207.842 179.844 -5.55112e-17
391 2 35.7237 40.3874 -5.55112e-17
392 1 41.7442 218.281 -5.55112e-17
393 1 0.447684 33.3579 -5.55112e-17
394 1 102.387 101.173 -5.55112e-17
395 1 16.4248 27.6324 -5.55112e-17
396 1 202.646 153.52 -5.55112e-17
397 1 101.089 16.2825 -5.55112e-17
398 1 11.735 191.274 -5.55112e-17
399 1 19.4058 59.5385 -5.55112e-17
400 1 103.268 179.494 -5.55112e-17
401 1 87.8338 176.642 -5.55112e-17
402 2 191.458 178.97 -5.55112e-17
403 1 214.474 53.7925 -5.55112e-17
404 1 35.9644 71.5504 -5.55112e-17
405 1 204.258 29.3227 -5.55112e-17
406 1 201.069 68.1757 -5.55112e-17
407 2 19.3395 62.6595 -5.55112e-17
408 1 34.3823 35.6089 -5.55112e-17
409 1 169.241 128.759 -5.55112e-17
410 1 20.2942 155.024 -5.55112e-17
411 1 152.009 160.565 -5.55112e-17
412 1 115.121 215.318 -5.55112e-17
413 1 63.546 156.497 -5.55112e-17
414 1 38.315 13.7077 -5.55112e-17
415 1 208.083 148.119 -5.55112e-17
416 1 71.8929 200.071 -5.55112e-17
417 1 141.198 93.6445 -5.55112e-17
418 2 184.332 7.67302 -5.55112e-17
419 1 108.788 149.865 -5.55112e-17
420 2 136.817 108.655 -5.55112e-17
421 1 88.0151 103.967 -5.55112e-17
422 1 176.039 23.6821 -5.55112e-17
423 2 157.992 41.2282 -5.55112e-17
424 1 157.412 149.337 -5.55112e-17
425 1 129.095 166.801 -5.55112e-17
426 1 133.394 112.554 -5.55112e-17
427 1 45.4156 84.4166 -5.55112e-17
428 1 71.2294 191.859 -5.55112e-17
429 1 194.421 83.28 -5.55112e-17
430 1 215.379 60.137 -5.55112e-17
431 1 120.448 206.346 -5.55112e-17
432 1 161.595 53.6831 -5.55112e-17
433 1 105.191 153.69 -5.55112e-17
434 1 71.5083 30.185 -5.55112e-17
435 1 178.13 161.695 -5.55112e-17
436 1 44.7668 36.3381 -5.55112e-17
437 1 175.354 109.425 -5.55112e-17
438 2 109.862 21.5905 -5.55112e-17
439 1 67.2697 209.073 -5.55112e-17
440 1 3.39434 161.93 -5.55112e-17
441 1 192.784 131.398 -5.55112e-17
442 1 50.6153 14.0318 -5.55112e-17
443 1 157.943 104.803 -5.55112e-17
444 1 218.282 100.954 -5.55112e-17
445 1 139.56 7.32169 -5.55112e-17
446 1 131.507 78.8245 -5.55112e-17
447 1 38.9296 145.212 -5.55112e-17
448 1 75.8881 7.59683 -5.55112e-17
449 1 131.687 120.286 -5.55112e-17
450 1 139.908 187.776 -5.55112e-17
451 1 170.605 47.2509 -5.55112e-17
452 1 131.284 144.632 -5.55112e-17
453 1 179.306 182.494 -5.55112e-17
454 1 160.049 211.681 -5.55112e-17
455 1 100.217 71.7846 -5.55112e-17
456 1 166.941 27.1677 -5.55112e-17
457 1 98.0141 113.295 -5.55112e-17
458 1 198.522 0.165987 -5.55112e-17
459 1 81.2103 69.0391 -5.55112e-17
460 1 48.944 102.415 -5.55112e-17
461 1 188.751 178.02 -5.55112e-17
462 1 181.878 116.434 -5.55112e-17
463 1 126.478 33.7165 -5.55112e-17
464 1 154.988 195.088 -5.55112e-17
465 1 121.648 159.597 -5.55112e-17
466 1 24.3155 213.809 -5.55112e-17
467 1 17.273 80.0998 -5.55112e-17
468 1 161.252 218.684 -5.55112e-17
469 1 68.2362 77.9388 -5.55112e-17
470 1 78.08 37.825 -5.55112e-17
471 1 128.72 174.219 -5.55112e-17
472 1 48.038 83.6199 -5.55112e-17
473 1 26.4851 102.839 -5.55112e-17
474 1 88.3554 101.403 -5.55112e-17
475 1 185.113 163.964 -5.55112e-17
476 2 192.534 11.8079 -5.55112e-17
477 1 53.5391 84.7627 -5.55112e-17
478 1 58.4846 125.912 -5.55112e-17
479 1 201.372 80.3839 -5.55112e-17
480 1 85.3441 23.524 -5.55112e-17
481 1 14.9155 94.2431 -5.55112e-17
482 1 99.7592 159.897 -5.55112e-17
483 1 142.041 160.032 -5.55112e-17
484 2 87.6465 45.8432 -5.55112e-17
485 1 33.8178 100.729 -5.55112e-17
486 1 81.7979 17.4945 -5.55112e-17
487 1 100.797 196.755 -5.55112e-17
488 1 5.6653 121.331 -5.55112e-17
489 1 211.396 134.992 -5.55112e-17
490 1 205.129 84.0463 -5.55112e-17
491 1 197.265 121.454 -5.55112e-17
492 1 2.72633 128.769 -5.55112e-17
493 1 193.879 210.738 -5.55112e-17
494 1 211.414 38.5121 -5.55112e-17
495 1 198.55 89.5332 -5.55112e-17
496 2 44.0469 189.308 -5.55112e-17
497 1 39.3342 217.121 -5.55112e-17
498 1 104.961 121.076 -5.55112e-17
499 2 136.753 216.523 -5.55112e-17
500 1 26.4891 29.8508 -5.55112e-17
501 2 112.703 216.946 -5.55112e-17
502 2 123.679 142.978 -5.55112e-17
503 1 147.493 183.943 -5.55112e-17
504 1 113.059 148.409 -5.55112e-17
505 1 117.812 18.3887 -5.55112e-17
506 1 26.3207 121.961 -5.55112e-17
507 1 14.6473 130.025 -5.55112e-17
508 1 196.425 217.246 -5.55112e-17
509 2 26.854 75.5485 -5.55112e-17
510 2 146.355 133.332 -5.55112e-17
511 1 196.262 35.2471 -5.55112e-17
512 2 210.268 60.0856 -5.55112e-17
513 1 56.3841 127.594 -5.55112e-17
514 1 48.8509 19.123 -5.55112e-17
515 1 204.308 24.9917 -5.55112e-17
516 1 182.647 206.145 -5.55112e-17
517 1 112.199 117.336 -5.55112e-17
518 2 103.615 20.4836 -5.55112e-17
519 1 11.812 53.0212 -5.55112e-17
520 2 212.491 23.0831 -5.55112e-17
521 1 88.6248 111.155 -5.55112e-17
522 1 31.4406 30.2914 -5.55112e-17
523 1 24.6294 68.2324 -5.55112e-17
524 1 99.6537 74.636 -5.55112e-17
525 1 174.941 121.261 -5.55112e-17
526 1 190.981 64.7746 -5.55112e-17
527 1 75.6129 4.94453 -5.55112e-17
528 1 168.742 29.251 -5.55112e-17
529 1 56.9457 158.912 -5.55112e-17
530 1 100.31 32.149 -5.55112e-17
531 1 66.5432 197.393 -5.55112e-17
532 1 206.87 188.314 -5.55112e-17
533 1 134.051 151.077 -5.55112e-17
534 1 97.2125 144.485 -5.55112e-17
535 1 14.4151 104.752 -5.55112e-17
536 1 203.577 117.895 -5.55112e-17
537 1 201.294 166.606 -5.55112e-17
538 1 168.728 80.8121 -5.55112e-17
539 1 88.8942 211.792 -5.55112e-17
540 1 103.355 88.8358 -5.55112e-17
541 1 40.6778 58.9179 -5.55112e-17
542 1 67.3034 211.647 -5.55112e-17
543 1 147.217 151.836 -5.55112e-17
544 1 129.054 200.138 -5.55112e-17
545 1 8.15083 149.849 -5.55112e-17
546 1 179.386 41.1773 -5.55112e-17
547 1 82.9811 172.13 -5.55112e-17
548 1 99.9892 8.71282 -5.55112e-17
549 1 51.3065 76.4482 -5.55112e-17
550 2 162.838 121.475 -5.55112e-17
551 2 134.489 157.679 -5.55112e-17
552 2 93.9522 180.338 -5.55112e-17
553 1 122.212 42.4485 -5.55112e-17
554 1 73.5981 101.934 -5.55112e-17
555 2 65.7817 123.996 -5.55112e-17
556 1 148.385 21.9106 -5.55112e-17
557 1 76.6186 12.6542 -5.55112e-17
558 1 148.227 125.48 -5.55112e-17
559 1 187.752 47.5292 -5.55112e-17
560 1 131.467 51.2955 -5.55112e-17
561 1 146.54 168.766 -5.55112e-17
562 1 195.336 144.347 -5.55112e-17
563 2 168.156 113.89 -5.55112e-17
564 1 41.7984 67.0266 -5.55112e-17
565 1 60.1555 10.4371 -5.55112e-17
566 1 75.1732 34.4238 -5.55112e-17
567 1 150.254 111.214 -5.55112e-17
568 1 22.1567 114.895 -5.55112e-17
569 1 114.367 185.22 -5.55112e-17
570 1 124.827 123.916 -5.55112e-17
571 1 175.599 203.697 -5.55112e-17
572 1 61.4345 112.087 -5.55112e-17
573 1 177.255 76.4555 -5.55112e-17
574 1 41.9484 130.55 -5.55112e-17
575 1 21.6393 76.1845 -5.55112e-17
576 1 195.986 98.7082 -5.55112e-17
577 1 202.93 33.5427 -5.55112e-17
578 1 122.891 196.496 -5.55112e-17
579 1 15.4568 167.047 -5.55112e-17
580 1 103.035 139.226 -5.55112e-17
581 1 141.335 154.414 -5.55112e-17
582 1 75.7247 79.3244 -5.55112e-17
583 1 162.165 185.585 -5.55112e-17
584 2 29.0535 117.814 -5.55112e-17
585 1 48.8007 198.752 -5.55112e-17
586 1 137.649 170.86 -5.55112e-17
587 1 99.3422 104.88 -5.55112e-17
588 1 17.3505 2.04428 -5.55112e-17
589 1 103.426 17.3068 -5.55112e-17
590 1 70.4635 0.0497191 -5.55112e-17
591 1 215.446 162.359 -5.55112e-17
592 1 55.9523 156.388 -5.55112e-17
593 1 209.804 182.151 -5.55112e-17
594 1 181.586 181.208 -5.55112e-17
595 1 82.8604 39.6994 -5.55112e-17
596 1 65.9897 35.9542 -5.55112e-17
597 2 180.36 204.461 -5.55112e-17
598 1 167.044 211.707 -5.55112e-17
599 1 207.891 171.052 -5.55112e-17
600 1 105.02 10.5011 -5.55112e-17
601 1 11.8726 134.97 -5.55112e-17
602 1 98.0685 31.0497 -5.55112e-17
603 1 208.041 202.872 -5.55112e-17
604 1 120.828 1.10398 -5.55112e-17
605 2 85.473 77.5371 -5.55112e-17
606 1 102.723 202.367 -5.55112e-17
607 2 171.79 146.828 -5.55112e-17
608 1 95.032 76.8407 -5.55112e-17
609 1 16.0553 6.60287 -5.55112e-17
610 1 214.342 150.454 -5.55112e-17
611 1 202.11 190.434 -5.55112e-17
612 1 218.259 37.7053 -5.55112e-17
613 1 59.1856 150.867 -5.55112e-17
614 2 127.9 179.202 -5.55112e-17
615 1 105.811 18.4086 -5.55112e-17
616 1 202.222 130.641 -5.55112e-17
617 1 127.334 198.199 -5.55112e-17
618 1 201.526 212.279 -5.55112e-17
619 1 178.917 78.1386 -5.55112e-17
620 1 141.566 142.076 -5.55112e-17
621 1 197.1 94.0468 -5.55112e-17
622 1 95.2131 213.71 -5.55112e-17
623 1 218.845 12.1351 -5.55112e-17
624 1 24.1102 209.283 -5.55112e-17
625 1 204.877 154.925 -5.55112e-17
626 1 94.2793 191.133 -5.55112e-17
627 1 63.806 74.0864 -5.55112e-17
628 1 34.4498 28.5027 -5.55112e-17
629 1 10.1591 94.65 -5.55112e-17
630 2 151.323 22.0887 -5.55112e-17
631 1 15.438 86.4537 -5.55112e-17
632 1 49.1489 92.3297 -5.55112e-17
633 1 38.9293 211.579 -5.55112e-17
634 1 1.33518 147.452 -5.55112e-17
635 1 155.23 150.895 -5.55112e-17
636 1 208.306 57.6625 -5.55112e-17
637 1 201.33 58.3037 -5.55112e-17
638 1 172.712 76.45 -5.55112e-17
639 2 203.684 78.7348 -5.55112e-17
640 1 143.153 152.563 -5.55112e-17
641 1 192.737 85.311 -5.55112e-17
642 1 32.1452 91.6243 -5.55112e-17
643 2 182.203 42.682 -5.55112e-17
644 1 68.6358 155.23 -5.55112e-17
645 1 106.498 196.444 -5.55112e-17
646 2 211.79 141.556 -5.55112e-17
647 1 11.1429 185.414 -5.55112e-17
648 1 132.409 102.751 -5.55112e-17
649 2 23.8859 150.956 -5.55112e-17
650 1 204.576 186.667 -5.55112e-17
651 1 218.347 113.455 -5.55112e-17
652 1 153.293 43.8355 -5.55112e-17
653 1 114.313 175.355 -5.55112e-17
654 1 23.1882 21.4031 -5.55112e-17
655 2 183.403 101.151 -5.55112e-17
656 1 30.6187 125.552 -5.55112e-17
657 2 79.2554 207.463 -5.55112e-17
658 1 53.8711 44.365 -5.55112e-17
659 2 156.462 192.592 -5.55112e-17
660 1 102.225 55.5337 -5.55112e-17
661 1 42.771 116.561 -5.55112e-17
662 1 81.6845 130.171 -5.55112e-17
663 1 31.8283 25.1552 -5.55112e-17
664 1 146.509 17.8915 -5.55112e-17
665 1 139.963 75.0077 -5.55112e-17
666 2 48.1422 180.625 -5.55112e-17
667 1 93.1014 99.6565 -5.55112e-17
668 2 101.814 93.5438 -5.55112e-17
669 1 36.4938 17.6614 -5.55112e-17
670 1 96.6227 173.502 -5.55112e-17
671 2 54.0694 176.099 -5.55112e-17
672 1 186.67 12.0655 -5.55112e-17
673 1 63.3367 19.561 -5.55112e-17
674 1 2.19593 31.7793 -5.55112e-17
675 1 128.557 23.6331 -5.55112e-17
676 1 169.562 123.741 -5.55112e-17
677 1 131.395 174.779 -5.55112e-17
678 1 137.666 30.8278 -5.55112e-17
679 2 152.168 33.0523 -5.55112e-17
680 1 203.111 41.9081 -5.55112e-17
681 2 129.281 118.891 -5.55112e-17
682 1 0.390545 47.7853 -5.55112e-17
683 1 68.6838 4.35013 -5.55112e-17
684 1 120.09 154.53 -5.55112e-17
685 1 152.808 38.6975 -5.55112e-17
686 1 28.1416 193.689 -5.55112e-17
687 1 118.566 191.942 -5.55112e-17
688 1 162.672 110.012 -5.55112e-17
689 2 56.1148 46.6284 -5.55112e-17
690 1 70.1614 20.1274 -5.55112e-17
691 1 89.4324 66.3476 -5.55112e-17
692 1 130.951 7.97404 -5.55112e-17
693 1 48.6281 143.251 -5.55112e-17
694 1 76.1031 125.091 -5.55112e-17
695 1 145.932 38.4934 -5.55112e-17
696 1 146.438 80.9783 -5.55112e-17
697 1 139.767 201.543 -5.55112e-17
698 1 116.52 65.9037 -5.55112e-17
699 1 180.588 191.641 -5.55112e-17
700 1 205.917 209.606 -5.55112e-17
701 1 54.0781 17.1795 -5.55112e-17
702 1 113.443 128.97 -5.55112e-17
703 2 188.221 144.013 -5.55112e-17
704 1 29.6514 218.649 -5.55112e-17
705 2 69.011 112.322 -5.55112e-17
706 1 166.031 177.11 -5.55112e-17
707 1 113.981 24.5775 -5.55112e-17
708 1 84.2822 209.449 -5.55112e-17
709 1 147.288 196.457 -5.55112e-17
710 1 192.234 191.814 -5.55112e-17
711 1 111.418 92.9737 -5.55112e-17
712 1 192.547 208.223 -5.55112e-17
713 1 14.2664 136.108 -5.55112e-17
714 1 136.17 13.193 -5.55112e-17
715 1 55.9339 199.111 -5.55112e-17
716 1 40.5289 123.46 -5.55112e-17
717 1 51.9044 107.231 -5.55112e-17
718 1 131.135 185.105 -5.55112e-17
719 2 119.621 78.6348 -5.55112e-17
720 1 98.9056 64.9314 -5.55112e-17
721 1 95.4492 98.6891 -5.55112e-17
722 1 133.637 63.0033 -5.55112e-17
723 2 48.4011 45.6364 -5.55112e-17
724 1 15.6768 49.4143 -5.55112e-17
725 1 29.2493 109.377 -5.55112e-17
726 1 189.881 45.9282 -5.55112e-17
727 1 148.411 205.212 -5.55112e-17
728 2 18.2163 87.8314 -5.55112e-17
729 1 133.886 164.804 -5.55112e-17
730 1 174.342 199.473 -5.55112e-17
731 1 49.3025 189.857 -5.55112e-17
732 1 218.757 9.52363 -5.55112e-17
733 1 205.268 34.3037 -5.55112e-17
734 1 4.01364 30.1361 -5.55112e-17
735 1 41.0125 23.0734 -5.55112e-17
736 2 190.351 74.389 -5.55112e-17
737 1 81.7031 86.605 -5.55112e-17
738 1 20.0596 165.729 -5.55112e-17
739 1 105.864 156.23 -5.55112e-17
740 1 59.6636 116.201 -5.55112e-17
741 2 188.725 78.2341 -5.55112e-17
742 1 74.4802 43.8463 -5.55112e-17
743 1 202.947 66.3773 -5.55112e-17
744 2 210.753 172.546 -5.55112e-17
745 1 130.796 32.0821 -5.55112e-17
746 1 14.5441 29.5254 -5.55112e-17
747 2 204.27 22.1247 -5.55112e-17
748 1 182.759 193.157 -5.55112e-17
749 1 196.391 211.239 -5.55112e-17
750 1 213.164 163.78 -5.55112e-17
751 1 59.6034 58.7768 -5.55112e-17
752 1 177.752 105.823 -5.55112e-17
753 1 99.2488 150.475 -5.55112e-17
754 1 15.2124 215.543 -5.55112e-17
755 1 83.2287 195.474 -5.55112e-17
756 2 103.592 195.796 -5.55112e-17
757 1 27.402 18.2355 -5.55112e-17
758 1 135.495 146.297 -5.55112e-17
759 1 72.8498 107.566 -5.55112e-17
760 1 95.0166 40.0157 -5.55112e-17
761 1 58.2983 161.139 -5.55112e-17
762 1 43.7493 23.5664 -5.55112e-17
763 1 114.133 99.5381 -5.55112e-17
764 2 177.786 148.259 -5.55112e-17
765 1 91.871 62.5395 -5.55112e-17
766 1 114.188 35.5174 -5.55112e-17
767 1 97.0235 78.417 -5.55112e-17
768 1 9.64695 4.19532 -5.55112e-17
769 1 107.665 75.6053 -5.55112e-17
770 2 113.634 109.739 -5.55112e-17
771 1 143.596 178.924 -5.55112e-17
772 1 102.11 28.1472 -5.55112e-17
773 1 109.417 167.007 -5.55112e-17
774 1 111.473 124.09 -5.55112e-17
775 1 68.8857 6.95134 -5.55112e-17
776 1 38.1528 11.0739 -5.55112e-17
777 1 107.947 181.906 -5.55112e-17
778 1 22.8578 18.9427 -5.55112e-17
779 1 192.093 44.356 -5.55112e-17
780 1 3.4572 169.322 -5.55112e-17
781 1 127.124 99.5709 -5.55112e-17
782 1 175.605 49.2709 -5.55112e-17
783 1 98.5174 15.4818 -5.55112e-17
784 2 194.961 159.18 -5.55112e-17
785 1 111.038 164.978 -5.55112e-17
786 1 119.29 177.114 -5.55112e-17
787 1 185.355 74.9308 -5.55112e-17
788 1 177.406 45.1341 -5.55112e-17
789 2 143.059 108.637 -5.55112e-17
790 1 109.997 28.254 -5.55112e-17
791 2 14.6658 122.169 -5.55112e-17
792 2 215.937 13.4613 -5.55112e-17
793 2 115.661 68.8316 -5.55112e-17
794 1 56.5922 188.684 -5.55112e-17
795 1 132.474 53.6526 -5.55112e-17
796 1 130.641 22.0594 -5.55112e-17
797 1 197.754 155.392 -5.55112e-17
798 2 195.923 203.945 -5.55112e-17
799 2 207.784 65.139 -5.55112e-17
800 2 55.3645 217.536 -5.55112e-17
801 1 102.861 132.366 -5.55112e-17
802 1 124.393 75.6832 -5.55112e-17
803 1 181.993 68.647 -5.55112e-17
804 2 122.911 204.9 -5.55112e-17
805 1 44.9124 106.646 -5.55112e-17
806 1 11.822 117.004 -5.55112e-17
807 2 100.33 99.2574 -5.55112e-17
808 1 14.4061 116.886 -5.55112e-17
809 2 57.7733 134.315 -5.55112e-17
810 1 130.001 197.626 -5.55112e-17
811 1 32.9866 5.93879 -5.55112e-17
812 1 131.822 34.5353 -5.55112e-17
813 2 107.961 110.851 -5.55112e-17
814 1 147.349 69.1418 -5.55112e-17
815 1 89.2233 164.54 -5.55112e-17
816 1 200.833 9.87083 -5.55112e-17
817 1 108.174 214.633 -5.55112e-17
818 1 57.3042 101.501 -5.55112e-17
819 1 9.61842 136.171 -5.55112e-17
820 1 45.3073 120.39 -5.55112e-17
821 1 94.7583 151.705 -5.55112e-17
822 2 41.8344 135.959 -5.55112e-17
823 2 139.181 91.2462 -5.55112e-17
824 1 34.6163 107.989 -5.55112e-17
825 1 65.2375 15.3186 -5.55112e-17
826 1 190.461 14.0581 -5.55112e-17
827 1 192.615 107.792 -5.55112e-17
828 1 142.451 123.235 -5.55112e-17
829 1 127.121 210.467 -5.55112e-17
830 1 81.3686 127.714 -5.55112e-17
831 1 217.685 42.8769 -5.55112e-17
832 1 93.119 87.2633 -5.55112e-17
833 1 61.7355 84.2751 -5.55112e-17
834 1 107.149 8.883 -5.55112e-17
835 1 58.0849 218.347 -5.55112e-17
836 1 11.1998 50.4346 -5.55112e-17
837 1 6.84104 70.9444 -5.55112e-17
838 1 98.1734 178.274 -5.55112e-17
839 2 198.439 3.11731 -5.55112e-17
840 1 5.01631 202.762 -5.55112e-17
841 2 63.2933 184.902 -5.55112e-17
842 1 94.5923 91.7174 -5.55112e-17
843 2 159.762 183.001 -5.55112e-17
844 1 25.8083 158.346 -5.55112e-17
845 1 71.3862 189.155 -5.55112e-17
846 1 159.061 190.77 -5.55112e-17
847 1 42.2661 141.17 -5.55112e-17
848 1 188.255 117.211 -5.55112e-17
849 1 189.528 167.032 -5.55112e-17
850 1 39.8241 129.254 -5.55112e-17
851 1 89.647 37.5413 -5.55112e-17
852 1 11.8755 209.382 -5.55112e-17
853 1 32.0474 139.007 -5.55112e-17
854 1 171.068 84.5017 -5.55112e-17
855 1 125.914 19.7589 -5.55112e-17
856 1 210.156 169.82 -5.55112e-17
857 1 68.4084 175.721 -5.55112e-17