ITEM: TIMESTEP
0
ITEM: NUMBER OF ATOMS
9088
ITEM: BOX BOUNDS pp pp pp
-2.0812827393585151e-01 5.6092620899875712e+01
-2.0812827393585151e-01 5.6092620899875712e+01
-2.0812827393585151e-01 5.6092620899875712e+01
ITEM: ATOMS id type x y z
1 1 28.2397 41.0633 49.168
2 1 44.434 4.36971 36.599
3 1 41.8613 12.7661 50.1621
4 1 37.0121 49.3211 43.7271
5 1 11.3198 34.5276 8.27129
6 1 36.0749 25.667 21.9792
7 1 19.8087 33.2312 1.36757
8 1 48.1937 1.53749 9.2915
9 1 55.6755 50.3717 39.9936
10 1 36.9008 13.5373 53.5651
11 1 48.6245 35.7853 32.5056
12 1 35.4987 19.3381 36.9124
13 1 21.7866 48.7321 36.9552
14 1 19.7025 49.3187 49.7566
15 1 2.91821 36.5878 30.2923
16 1 26.8436 0.799184 38.5122
17 1 50.1569 10.0197 28.0538
18 1 4.06077 47.9575 36.037
19 1 30.1074 23.6719 51.7979
20 1 31.4168 2.52945 44.603
21 1 25.4741 49.2046 50.3253
22 1 9.6535 41.7648 1.92494
23 1 21.8801 17.6191 37.9907
24 1 3.23584 7.74391 55.4618
25 1 26.2351 27.4072 39.2389
26 1 19.8302 28.1119 43.3159
27 1 34.689 29.1923 54.3479
28 1 13.3969 32.5664 14.7687
29 1 10.8914 50.4333 40.0789
30 1 48.769 7.21125 44.7177
31 1 30.3012 4.87661 0.276505
32 1 33.8797 5.43378 23.2829
33 1 24.3927 41.932 2.58736
34 1 14.3995 24.8256 1.56306
35 1 20.1387 51.201 40.5377
36 1 16.4325 32.1553 18.9379
37 1 23.6278 55.9544 46.703
38 1 23.2666 21.0301 5.8658
39 1 13.378 26.4704 0.0411532
40 1 8.72425 11.3705 47.8001
41 1 46.8054 40.7856 1.15101
42 1 5.73248 38.9572 15.0705
43 1 21.8759 16.7364 9.4382
44 1 50.7255 52.098 23.5067
45 1 13.1601 43.5737 55.7613
46 1 0.123541 17.6858 11.1944
47 1 42.7392 6.43354 32.3122
48 1 18.3285 30.6473 19.6963
49 1 7.49546 20.0472 32.3817
50 1 18.0871 19.6107 20.6045
51 1 49.9691 32.3145 30.3831
52 1 22.5439 10.2127 37.6037
53 1 52.509 20.3812 1.34505
54 1 52.4883 20.4499 43.7408
55 1 39.6539 45.2008 29.3829
56 1 11.7754 25.0336 44.6398
57 1 6.93131 33.2495 34.8028
58 1 37.3105 11.1922 21.7122
59 1 5.50896 30.4893 28.548
60 1 36.2377 32.7768 54.6253
61 1 11.7982 27.1291 54.0228
62 1 52.7193 22.2563 24.3335
63 1 49.4068 43.271 29.0592
64 1 22.5731 4.19662 16.083
65 1 11.0064 42.4043 47.8918
66 1 8.14123 44.804 9.87443
67 1 12.2749 42.8596 52.9146
68 1 11.2787 33.6245 52.332
69 1 37.4972 38.4084 45.9818
70 1 2.05171 27.8775 4.94488
71 1 51.9836 47.1162 28.1514
72 1 55.6153 29.5594 1.36751
73 1 23.393 44.1169 8.54685
74 1 4.23963 33.367 47.0172
75 1 37.5856 19.4062 5.22258
76 1 38.3413 23.7735 6.02799
77 1 47.2126 40.1989 32.1213
78 1 33.9579 40.5114 10.6338
79 1 32.0548 23.2214 42.6643
80 1 39.5716 0.159578 30.6343
81 1 17.5788 27.6082 54.3513
82 1 50.6067 1.2911 23.8777
83 1 8.07557 14.8474 27.861
84 1 36.3162 2.17088 3.92239
85 1 39.6489 10.7728 38.5235
86 1 34.6386 34.0414 34.8589
87 1 25.9778 7.86809 32.0149
88 1 16.1854 11.7771 13.0343
89 1 7.1934 48.0449 39.2148
90 1 1.20441 39.7816 51.4201
91 1 17.9954 7.91883 21.9922
92 1 10.2935 11.8516 19.4967
93 1 38.272 9.86378 11.3093
94 1 35.8972 34.3065 29.0458
95 1 40.6771 24.4873 18.8109
96 1 7.17144 -0.154778 14.0194
97 1 3.49568 9.02347 32.5262
98 1 18.1186 12.6216 30.3922
99 1 42.3909 36.6928 5.64418
100 1 3.37756 6.31172 26.9759
101 1 0.322025 33.4383 47.4137
102 1 5.35733 1.20162 12.3739
103 1 41.6521 43.1611 55.8695
104 1 14.7684 54.9108 39.2767
105 1 31.3319 14.078 10.7746
106 1 18.7921 48.1256 47.3492
107 1 32.7119 0.00755293 44.6531
108 1 46.7985 17.1303 46.9076
109 1 10.5462 45.6529 16.4318
110 1 31.2287 9.27723 10.8085
111 1 37.7819 54.479 15.2957
112 1 5.58846 5.7582 10.1952
113 1 28.9893 33.3446 11.4837
114 1 24.4544 16.8757 40.1012
115 1 42.7168 34.8282 31.0491
116 1 32.2854 5.81656 38.106
117 1 -0.086713 12.411 40.4863
118 1 1.52721 44.0296 31.7942
119 1 36.3189 36.2694 33.9932
120 1 15.0673 1.61772 39.831
121 2 11.9107 39.0976 35.3075
122 2 51.5351 18.6521 12.632
123 2 54.9718 46.7593 20.8845
124 2 52.7313 29.7937 19.6389
125 2 53.8922 35.2823 38.7509
126 2 25.2356 7.47028 17.7805
127 2 12.266 51.3897 15.641
128 2 7.62321 30.0845 35.0881
129 2 55.2545 17.7482 7.54745
130 2 1.41117 20.8895 45.9085
131 2 52.1357 12.054 47.3718
132 2 38.9757 46.6757 17.6294
133 2 34.6027 42.5786 15.9764
134 2 15.0418 5.34354 8.96399
135 2 42.9031 34.0796 3.65005
136 2 9.86217 0.674911 32.1279
137 2 40.8883 24.1763 46.4178
138 2 5.39173 4.80205 49.3528
139 2 31.1452 14.9822 13.8973
140 2 45.4163 27.1856 38.8743
141 2 7.77915 38.5198 22.7318
142 2 29.9154 23.2461 40.4977
143 1 47.2177 19.9806 45.7977
144 1 29.1212 17.8807 13.4815
145 1 54.0791 12.651 6.35678
146 1 51.9844 26.5286 15.2263
147 1 29.1364 27.8302 33.2753
148 1 27.2567 10.1657 38.5643
149 1 46.2196 6.09859 44.8097
150 1 24.8847 25.5276 9.60749
151 1 49.9066 24.4366 54.1727
152 1 10.3653 33.6721 45.1647
153 1 50.0493 48.323 29.4452
154 1 43.3498 41.7518 31.0143
155 1 32.2169 18.5534 10.6003
156 1 8.14356 33.2908 9.19736
157 1 51.57 34.0325 22.1641
158 1 37.6612 5.59007 0.474887
159 1 54.9789 48.1763 13.6784
160 1 49.4224 2.59411 2.45189
161 1 10.7824 25.3494 21.1818
162 1 13.0395 12.9006 44.4052
163 1 19.9934 21.5033 26.5619
164 1 55.9218 38.4859 12.0563
165 1 51.4311 35.4533 6.69413
166 1 45.3178 41.8093 14.6512
167 1 31.4212 39.6823 46.2308
168 1 36.8492 7.68721 43.147
169 1 28.2737 50.6072 39.2737
170 1 39.5259 33.8977 47.4063
171 1 28.3094 32.6732 23.5698
172 1 21.2976 43.7751 28.523
173 1 14.0566 40.0477 10.1107
174 1 35.5297 1.78077 32.4772
175 1 18.423 27.9113 16.4596
176 1 39.6441 36.8325 6.5201
177 1 10.0197 4.86836 24.9127
178 1 18.419 5.77223 8.89546
179 1 26.9955 45.1232 47.9956
180 1 55.3938 26.7245 8.53368
181 1 48.8208 42.8375 31.627
182 1 49.4801 30.2048 52.6416
183 1 13.4907 20.6092 4.14389
184 1 25.9277 53.1098 11.9886
185 1 33.5243 10.1383 34.2963
186 1 43.5954 26.6712 26.5801
187 1 1.54808 7.06199 53.0301
188 1 28.6651 39.3421 3.38878
189 1 13.5727 41.2072 33.8597
190 1 35.5431 48.6001 21.9302
191 1 20.547 19.1199 45.9987
192 1 50.4107 0.0319511 7.82161
193 1 37.1711 8.73789 13.6267
194 1 36.0962 4.04253 30.8788
195 1 24.7837 27.7738 1.22681
196 1 35.0013 5.30033 26.5313
197 1 6.96676 9.48481 49.4988
198 1 12.8859 18.8808 28.7195
199 1 31.5741 18.9711 3.13869
200 1 39.8698 20.6107 41.2812
201 1 26.919 12.9517 16.0355
202 1 39.0385 1.96024 2.47454
203 1 31.1501 27.5754 37.187
204 1 40.9575 27.3681 19.4692
205 1 7.72878 12.3434 2.78679
206 1 39.3319 25.2395 24.5272
207 1 0.0117157 45.1292 45.7737
208 1 31.7157 5.21157 10.7915
209 1 47.6129 6.55098 47.1606
210 1 27.2837 21.6235 41.7483
211 1 8.4869 5.63743 21.6851
212 1 43.3939 27.492 43.2542
213 1 22.3372 12.5816 51.13
214 1 0.820399 37.5179 2.2316
215 1 11.3258 27.5966 22.7499
216 1 0.249409 24.5212 51.0549
217 1 21.8954 8.79555 35.4201
218 1 1.26858 9.70447 54.3205
219 1 44.0184 51.6011 5.92431
220 1 44.5391 8.09204 44.012
221 1 30.5209 0.460117 17.117
222 1 2.71386 7.58013 21.3683
223 1 25.9678 44.2228 2.79457
224 1 42.5727 8.8957 25.6237
225 1 43.9419 48.8748 38.4191
226 1 12.7133 41.967 25.4822
227 1 20.2171 45.7486 33.3151
228 1 55.9508 20.1895 52.8373
229 1 11.1398 27.2973 42.8284
230 1 31.1642 29.7359 41.2633
231 1 31.7632 35.3964 25.0594
232 1 40.8359 17.1839 17.9068
233 1 50.9829 50.1079 38.1349
234 1 10.7605 14.3438 51.0843
235 1 41.6139 18.2111 42.2818
236 1 6.73187 47.7663 29.4949
237 1 53.2131 29.5454 22.8684
238 1 38.4315 1.05001 -0.190042
239 1 34.0499 28.5653 6.17104
240 1 9.1988 32.7925 50.9837
241 1 20.3348 49.3605 10.5451
242 1 32.7054 11.0192 2.81265
243 1 7.5118 24.2705 33.6235
244 1 55.8565 42.4986 7.30975
245 1 1.31402 27.9578 19.7439
246 1 54.4026 5.71977 5.79912
247 1 54.4617 48.8642 10.8547
248 1 44.1846 0.26653 45.6857
249 1 10.418 44.827 49.0092
250 1 23.537 24.4152 18.0485
251 1 17.5652 39.368 3.52014
252 1 47.9872 17.0054 39.0303
253 1 2.78142 27.0218 48.1915
254 1 9.48588 8.69779 32.6807
255 1 55.1155 9.32892 18.036
256 1 30.9438 47.475 24.7718
257 1 1.23232 12.3632 35.0555
258 1 33.2878 18.1981 28.0545
259 1 45.6771 45.7927 55.0361
260 1 25.0818 41.5438 33.9961
261 1 32.3578 10.5185 39.4397
262 1 22.0621 44.9234 11.5307
263 2 43.9129 24.8357 29.2472
264 2 25.4766 47.3103 1.47317
265 2 49.832 7.21828 49.1386
266 2 6.99251 24.727 38.7938
267 2 14.6199 21.3466 1.34858
268 2 4.65488 3.2637 24.6608
269 2 15.086 2.46305 16.6366
270 2 44.4282 43.5791 53.518
271 2 53.981 45.0257 26.0163
272 2 33.0366 40.2367 13.8483
273 2 33.4314 6.10343 34.7071
274 2 52.8554 27.129 30.6455
275 2 27.2878 7.01696 53.0166
276 2 55.943 14.1519 4.35379
277 2 1.17149 42.9768 39.4594
278 2 12.0007 34.6139 18.4124
279 2 43.9432 51.4481 46.5476
280 2 19.6597 55.1283 21.8385
281 2 41.5442 17.0025 14.7263
282 2 15.2665 28.8367 8.07152
283 2 46.9685 47.672 28.7422
284 2 16.7395 27.1894 34.7747
285 1 4.69738 35.4602 5.87051
286 1 49.6702 34.9313 20.3002
287 1 44.5286 1.73571 36.195
288 1 19.8885 14.7186 31.5708
289 1 22.9968 31.53 4.26246
290 1 50.8115 12.9262 24.083
291 1 18.1734 43.9119 34.1766
292 1 40.9085 5.37918 44.0906
293 1 54.5696 19.5543 55.6525
294 1 30.7981 32.6922 41.7573
295 1 46.9669 25.1669 29.9217
296 1 12.3096 32.3666 35.2047
297 1 48.2833 13.9656 34.0139
298 1 30.8862 22.4065 13.152
299 1 31.9171 18.6655 17.9045
300 1 24.601 31.9118 9.45929
301 1 24.7993 49.8978 23.0421
302 1 46.4485 33.5114 25.8754
303 1 53.8125 3.19281 1.71643
304 1 13.3973 34.6123 53.6562
305 1 25.5131 38.4326 23.2531
306 1 28.932 52.0315 32.7891
307 1 5.21013 40.0325 32.1205
308 1 39.8275 53.854 45.2025
309 1 49.5818 30.6972 28.2929
310 1 10.5439 52.8225 38.4144
311 1 38.0094 35.096 5.3797
312 1 10.4136 7.72985 25.9618
313 1 5.21332 55.3893 18.1154
314 1 28.9965 47.5196 53.1194
315 1 4.55246 6.4299 14.9632
316 1 44.025 10.5709 11.0772
317 1 30.583 31.6439 39.0506
318 1 5.98099 23.0747 11.5223
319 1 3.23709 2.39336 18.024
320 1 19.0209 33.7306 25.4629
321 1 25.87 38.5052 34.2429
322 1 55.168 21.5386 23.0284
323 1 11.2516 10.9122 32.9953
324 1 18.5627 8.49756 32.1804
325 1 21.5725 45.8698 43.1487
326 1 16.8092 31.9372 40.9534
327 1 12.2792 9.09173 35
328 1 0.531204 8.14238 36.6712
329 1 4.43264 25.3537 44.7367
330 1 7.95582 30.6897 30.0424
331 1 15.8186 39.1016 52.5278
332 1 0.686304 44.1333 11.9034
333 1 16.214 13.6906 10.7574
334 1 33.6279 34.8919 22.709
335 1 35.3121 13.1505 51.2636
336 1 49.8564 21.4188 13.1949
337 1 0.756342 34.1303 7.56941
338 1 9.52394 23.0169 22.4449
339 1 15.0463 24.6231 44.4551
340 1 25.1344 23.4134 26.2089
341 1 26.4992 51.382 24.9403
342 1 55.9976 26.3891 17.6304
343 1 36.0253 13.9369 27.4695
344 1 32.8979 15.9969 11.4941
345 1 48.5853 16.364 3.78148
346 1 0.542181 6.71758 23.3102
347 1 20.1036 18.4961 11.0911
348 1 13.152 10.6025 23.1411
349 1 4.22268 37.305 10.5635
350 1 1.63701 53.8666 51.411
351 1 44.9252 35.6236 5.55679
352 1 18.8055 8.59968 52.0592
353 1 24.556 34.6835 53.8775
354 1 46.8224 37.0554 39.3135
355 1 48.8649 28.3903 38.8235
356 1 9.71285 40.231 42.902
357 1 20.0874 50.3711 52.7478
358 1 21.6599 24.021 36.7102
359 1 28.9188 44.5724 46.3382
360 1 16.5529 38.1764 45.4259
361 1 40.3647 22.4142 43.8873
362 1 0.266578 53.822 4.5464
363 1 44.4446 18.3385 14.8839
364 1 41.1329 0.628678 33.0332
365 1 40.0788 44.9319 6.81539
366 1 15.4443 34.7114 14.7377
367 1 50.6041 47.2307 37.9246
368 1 40.3899 44.879 26.6291
369 1 33.2494 14.3083 16.0236
370 1 3.5651 40.865 50.5482
371 1 19.5229 28.0979 48.8842
372 1 13.8343 22.1751 33.8594
373 1 21.8195 0.0242555 38.2821
374 1 47.1981 50.5065 2.57421
375 1 4.26154 52.9587 35.2479
376 1 42.7111 48.6562 25.0852
377 1 6.77985 23.6654 53.6378
378 1 29.1551 52.4607 21.397
379 1 51.5054 39.4207 20.4161
380 1 11.0787 13.1502 26.9387
381 1 26.163 50.2866 29.1207
382 1 55.1548 22.4545 8.40459
383 1 12.5967 23.3201 23.0617
384 1 49.2653 16.4599 32.9935
385 1 29.7384 9.10376 19.7716
386 1 36.5036 38.8298 23.0986
387 1 21.2834 33.6935 39.4037
388 1 24.3235 6.86633 40.5607
389 1 26.5039 11.0926 14.1985
390 1 45.3346 48.8657 31.668
391 1 7.22038 9.43872 6.71654
392 1 48.4541 49.1564 37.3515
393 1 3.52599 27.8002 0.9407
394 1 2.91727 37.844 46.546
395 1 55.0193 7.59247 48.2319
396 1 15.141 4.79439 23.793
397 1 49.4155 26.0663 22.4625
398 1 21.7382 29.2091 4.00199
399 1 7.0202 54.2355 41.8881
400 1 35.7178 42.8431 27.4943
401 1 18.849 30.6965 24.8911
402 1 31.8071 47.9945 43.7754
403 1 13.1356 42.4088 28.0716
404 1 26.8504 34.7812 46.0327
405 2 19.8933 8.0553 14.1652
406 2 35.9911 30.6867 7.91963
407 2 33.9657 13.1368 12.7953
408 2 24.8852 49.9484 12.7554
409 2 46.7874 0.168268 16.6069
410 2 36.7092 49.2902 16.3244
411 2 5.74974 41.6176 17.0616
412 2 53.639 8.74151 35.9699
413 2 31.1616 21.7173 45.2085
414 2 12.5254 35.1459 47.6557
415 2 55.5279 51.7154 8.97882
416 2 51.9301 43.147 55.0973
417 2 44.4489 4.82888 10.3278
418 2 7.29589 36.0049 11.1684
419 2 15.5334 54.3725 22.4315
420 2 23.8547 23.0728 23.2209
421 2 41.3064 49.4928 9.7144
422 2 31.9666 16.2963 7.98151
423 2 8.13039 0.661636 43.3467
424 2 52.187 10.6414 4.67659
425 2 48.14 51.9801 38.6821
426 2 37.422 8.50275 38.4395
427 1 29.6762 30.0728 -0.0709388
428 1 4.16685 54.0802 52.0161
429 1 55.4553 27.432 50.8674
430 1 51.808 54.9788 9.64195
431 1 19.98 47.773 26.2405
432 1 42.2745 8.19425 6.71001
433 1 39.8496 24.889 13.7661
434 1 13.3973 22.6738 43.7585
435 1 23.222 52.1486 8.29214
436 1 32.509 31.992 48.3023
437 1 25.9497 24.3331 33.6729
438 1 46.9027 3.18272 35.4781
439 1 1.625 38.2662 53.9766
440 1 8.98139 25.1356 29.4618
441 1 22.2728 14.5827 10.7772
442 1 42.6296 18.8988 17.125
443 1 41.8269 10.6726 27.4722
444 1 51.7019 42.1497 47.395
445 1 5.39465 14.7126 17.5611
446 1 38.484 31.6505 40.1532
447 1 21.0115 51.9654 10.1481
448 1 44.8572 3.30922 0.0175381
449 1 54.2108 6.88597 28.9519
450 1 51.0934 33.1565 0.333825
451 1 27.9367 48.9989 14.0814
452 1 48.3095 12.3557 23.1153
453 1 9.1479 21.5897 33.7666
454 1 5.2875 35.3445 51.8889
455 1 6.98633 21.8886 23.5615
456 1 46.3336 3.64134 51.8417
457 1 53.4922 39.071 18.5338
458 1 27.5251 20.3122 36.4187
459 1 2.89387 34.8909 9.80418
460 1 29.5622 0.28912 34.1588
461 1 8.00804 16.6366 17.3628
462 1 48.5962 27.7744 9.44967
463 1 15.6276 2.49682 7.3355
464 1 31.8217 52.6713 23.0735
465 1 8.20123 46.7722 17.5868
466 1 5.04437 47.6528 5.39567
467 1 47.2964 11.3682 38.1547
468 1 44.8216 54.1186 6.86237
469 1 14.8665 43.4488 24.4971
470 1 28.4758 0.271006 14.8421
471 1 26.6386 9.8171 3.61104
472 1 15.1251 37.9618 27.8166
473 1 48.6865 38.867 46.5056
474 1 40.1078 12.52 16.8324
475 1 23.1763 25.1282 20.6247
476 1 12.1709 21.8471 40.1504
477 1 49.1077 3.08616 37.3598
478 1 41.5646 7.20841 13.8981
479 1 55.4614 25.855 35.2353
480 1 40.8211 8.41757 3.92381
481 1 25.52 1.70302 51.2083
482 1 29.9989 37.0775 22.9015
483 1 46.1689 19.7206 34.2026
484 1 5.64446 37.3996 7.21962
485 1 18.493 45.1669 25.1392
486 1 47.1792 7.82216 42.7289
487 1 21.0587 12.7222 22.1054
488 1 5.80344 47.499 25.4133
489 1 3.01255 44.5397 13.6046
490 1 24.3688 49.7781 26.0034
491 1 13.2514 29.8505 47.3267
492 1 26.9668 24.5743 41.6156
493 1 44.4738 30.345 34.1734
494 1 4.7286 54.4028 13.6284
495 1 11.7013 33.9173 12.9781
496 1 39.3316 17.8433 36.947
497 1 7.24033 17.127 31.8716
498 1 19.7208 20.5434 9.01068
499 1 33.8095 29.9402 20.0845
500 1 51.8995 3.1024 36.2739
501 1 16.349 50.8381 43.4454
502 1 50.829 42.9324 6.97388
503 1 42.3979 20.9578 42.9122
504 1 40.2338 47.1275 32.2376
505 1 38.4045 27.4946 3.9048
506 1 22.3626 27.5567 42.1558
507 1 53.4763 54.6953 32.2617
508 1 10.6629 42.9506 17.4055
509 1 53.6348 29.2276 8.14128
510 1 30.4451 0.64987 3.80727
511 1 49.4904 5.60165 6.15896
512 1 14.2636 50.4063 12.7256
513 1 33.2794 30.2595 29.365
514 1 28.418 27.8294 21.0224
515 1 29.273 12.493 27.5012
516 1 5.25946 40.812 37.3108
517 1 15.4786 3.21374 -0.105069
518 1 24.1717 12.1584 13.5092
519 1 7.96553 12.185 45.1149
520 1 35.953 17.5398 4.70709
521 1 45.9742 24.6743 32.4394
522 1 7.23831 17.3029 0.799763
523 1 38.7153 1.81543 25.7855
524 1 40.0831 51.862 32.1047
525 1 25.7829 41.7463 22.5277
526 1 26.6107 15.5593 30.5623
527 1 29.0218 54.5731 23.4642
528 1 2.32424 6.77172 6.19203
529 1 40.2512 8.49256 33.6799
530 1 38.0172 16.7812 18.4808
531 1 40.4227 10.667 49.3111
532 1 35.195 9.95694 11.9025
533 1 43.1645 6.44336 20.6549
534 1 19.7003 35.9684 20.373
535 1 43.2837 2.81069 38.2938
536 1 38.9369 22.1166 15.7022
537 1 19.285 22.0797 20.9696
538 1 6.47884 27.1267 2.80868
539 1 28.7212 37.8174 33.1471
540 1 48.1879 12.0669 16.2195
541 1 42.6758 5.85225 7.86349
542 1 32.9652 47.9972 35.8268
543 1 37.9679 44.7972 34.9995
544 1 31.481 34.7698 15.2462
545 1 51.7854 24.5671 5.75177
546 1 23.5816 50.9694 40.8347
547 2 15.5525 40.7647 26.448
548 2 12.8266 46.8657 1.28184
549 2 34.8425 47.9956 25.607
550 2 55.5366 51.3756 12.8636
551 2 52.5956 7.08393 16.8465
552 2 10.0548 7.04325 35.4565
553 2 37.6272 10.3025 16.7657
554 2 23.263 5.7844 52.962
555 2 14.8683 12.8986 21.5789
556 2 12.6862 41.6329 43.0285
557 2 13.8792 5.52354 34.0908
558 2 17.3481 33.247 3.29122
559 2 40.0816 17.0194 21.1299
560 2 5.33124 16.2334 29.2771
561 2 38.5964 12.6821 51.1057
562 2 3.99674 19.5982 28.4604
563 2 29.891 46.9752 34.9485
564 2 16.5902 5.12791 40.0468
565 2 20.0785 22.3156 35.0472
566 2 31.2511 13.4839 39.0461
567 2 44.6003 38.4129 0.505475
568 2 43.6693 18.2631 20.2236
569 1 14.622 1.35422 19.4654
570 1 52.505 36.5997 49.1215
571 1 20.4715 14.2191 5.94581
572 1 46.4431 14.9694 53.6215
573 1 15.6219 15.3476 26.0927
574 1 30.2067 46.2553 17.1676
575 1 30.1539 49.7053 42.426
576 1 13.8615 -0.0513185 11.3255
577 1 1.86158 6.51621 15.5687
578 1 55.3395 39.9462 44.3785
579 1 34.2529 44.8479 48.3828
580 1 21.1668 31.9535 6.45119
581 1 37.5447 10.2248 29.2042
582 1 12.1326 41.5414 37.757
583 1 45.1581 25.5911 18.3196
584 1 29.0421 40.6784 29.3841
585 1 33.287 8.09573 23.138
586 1 55.4334 0.212398 31.306
587 1 10.8705 1.79246 7.10893
588 1 9.12571 44.1977 46.6064
589 1 34.3974 47.2714 49.896
590 1 56.0357 7.51783 6.69241
591 1 12.9126 9.39648 31.197
592 1 53.0537 33.2169 6.56626
593 1 18.7893 25.2451 33.8426
594 1 2.83135 42.6692 42.0007
595 1 34.1213 12.1419 43.7726
596 1 3.54836 5.09859 39.3622
597 1 29.0774 51.6741 7.58724
598 1 48.5704 47.1087 25.6146
599 1 5.29136 3.92294 13.5602
600 1 11.3881 32.325 4.34714
601 1 21.8746 42.4493 54.2385
602 1 2.91187 42.6908 15.5014
603 1 26.7935 35.4284 52.0598
604 1 5.79182 21.618 30.0833
605 1 28.6191 42.919 27.4297
606 1 29.788 48.0032 31.7728
607 1 39.0736 14.2141 33.4984
608 1 37.1306 4.56089 49.4692
609 1 34.172 30.3669 12.8541
610 1 43.2707 5.19744 45.1108
611 1 20.9372 44.8276 30.899
612 1 17.8106 46.6522 45.5274
613 1 3.29758 51.3889 0.958207
614 1 53.7666 33.5913 10.8062
615 1 5.84219 43.0262 41.4074
616 1 38.0518 3.5343 55.1007
617 1 16.0481 11.9399 51.6316
618 1 5.45476 55.5247 53.659
619 1 36.6415 11.2288 26.7714
620 1 28.4194 26.9444 25.5469
621 1 52.9794 8.57364 27.3041
622 1 3.93 29.7069 43.9449
623 1 15.0933 44.4914 11.901
624 1 27.717 9.38855 55.0056
625 1 10.1783 15.1126 25.4235
626 1 38.8622 26.9703 22.5572
627 1 33.484 37.769 1.64236
628 1 31.738 10.2679 17.4208
629 1 41.549 46.7553 11.3147
630 1 39.279 55.731 22.3129
631 1 43.5951 28.8063 13.8307
632 1 4.51318 32.385 26.8168
633 1 16.008 6.37715 49.5981
634 1 47.9601 46.0632 17.85
635 1 29.8513 45.1183 23.474
636 1 6.05874 6.74071 17.2399
637 1 0.546118 14.7845 39.3315
638 1 32.7651 47.3658 55.6314
639 1 28.6387 5.30833 4.63723
640 1 22.1016 53.3987 6.09918
641 1 -0.184217 47.9251 35.6879
642 1 53.5053 18.6305 10.2938
643 1 41.3047 27.613 24.5072
644 1 20.2849 42.61 46.0545
645 1 0.400096 19.3446 41.0124
646 1 13.0883 31.168 12.3969
647 1 3.48091 29.6039 9.01722
648 1 19.6117 17.0237 5.06308
649 1 20.7357 20.1361 19.6501
650 1 14.9899 4.17493 2.72715
651 1 30.3611 33.3495 33.2137
652 1 51.3099 14.8695 42.5586
653 1 51.8534 30.475 51.2958
654 1 29.4275 34.2262 55.9768
655 1 41.186 4.58184 30.4053
656 1 36.6137 52.1597 40.1074
657 1 55.8663 34.8655 20.9263
658 1 25.0277 8.44385 54.6827
659 1 38.6161 39.8474 50.2698
660 1 1.67142 44.1702 6.41193
661 1 46.1791 36.4668 12.8965
662 1 15.6417 41.4699 44.2993
663 1 20.1093 35.821 37.5823
664 1 53.2239 17.1414 27.9971
665 1 33.9802 43.0745 23.0276
666 1 15.2852 8.95831 26.229
667 1 35.6209 16.2952 28.7705
668 1 47.4651 12.3084 44.2483
669 1 51.1191 22.6356 15.619
670 1 46.9716 3.31832 11.1678
671 1 32.3943 4.26362 25.3606
672 1 1.89358 18.6737 9.21918
673 1 11.4936 4.32983 35.8374
674 1 45.9087 51.2534 7.71288
675 1 23.4979 7.79321 32.9605
676 1 53.8152 16.7341 24.0853
677 1 55.9661 36.1146 54.0499
678 1 15.7092 55.8309 17.5996
679 1 52.96 12.6214 22.0509
680 1 28.5195 32.321 45.8018
681 1 0.366557 25.9232 48.9038
682 1 7.42471 3.30268 44.9092
683 1 43.2968 12.9509 21.0991
684 1 38.5469 32.1409 37.4059
685 1 22.8752 55.1174 14.9477
686 1 44.5613 14.8992 11.4318
687 1 47.1847 55.1056 28.3667
688 1 20.373 7.05644 33.3651
689 2 21.7215 49.5045 24.0085
690 2 29.9876 50.2055 10.0608
691 2 34.4109 26.9183 38.658
692 2 8.24709 42.4928 49.264
693 2 44.9355 48.2987 22.4228
694 2 3.06716 51.5281 54.1867
695 2 17.7015 15.43 45.2206
696 2 16.1447 40.8401 8.18708
697 2 1.42275 18.2655 36.1162
698 2 17.1263 18.666 6.87823
699 2 44.7377 11.6918 39.8927
700 2 38.13 4.78563 3.69586
701 2 53.5203 27.4836 5.50597
702 2 35.9522 28.7866 27.0051
703 2 48.9395 45.749 44.1991
704 2 54.4014 12.7058 17.5919
705 2 2.2721 36.9991 7.58414
706 2 2.03984 40.6135 44.4641
707 2 47.64 17.1063 18.8928
708 2 43.3091 54.4121 0.551327
709 2 44.3363 30.3021 42.3625
710 2 52.8979 48.5328 30.9473
711 1 36.9322 1.79252 46.3198
712 1 17.5626 25.6908 49.229
713 1 1.25629 49.3626 44.2212
714 1 37.7553 30.3665 24.9992
715 1 0.960007 11.1337 44.6338
716 1 2.73998 16.1647 51.1766
717 1 47.4949 0.764203 3.16264
718 1 4.62001 41.8029 55.772
719 1 42.1065 16.8494 52.4488
720 1 19.2857 16.3949 13.3436
721 1 31.2496 6.63661 5.01495
722 1 31.9182 37.544 55.5285
723 1 19.1667 14.8896 15.7862
724 1 48.3854 36.9588 53.7952
725 1 13.1492 45.6883 34.5834
726 1 29.8935 41.3988 41.7644
727 1 32.4926 55.2743 18.7887
728 1 28.041 0.712264 55.362
729 1 41.1554 1.3389 52.0543
730 1 5.34188 7.4819 37.4542
731 1 53.9019 11.0375 20.171
732 1 12.8747 1.14934 14.8312
733 1 36.07 52.9688 55.0374
734 1 36.8985 43.6437 17.7525
735 1 39.952 9.65092 1.53159
736 1 51.6447 19.1075 50.57
737 1 31.0712 41.8404 27.4223
738 1 0.291296 11.9787 6.75205
739 1 21.75 17.1795 2.87032
740 1 40.465 35.3982 49.4099
741 1 54.0431 9.34669 32.6554
742 1 19.0565 40.3616 6.20282
743 1 44.6926 29.0624 27.0613
744 1 33.5203 55.6635 40.2679
745 1 45.0183 12.7847 12.9666
746 1 20.3859 17.8016 20.9377
747 1 0.533121 3.53223 36.3739
748 1 46.1422 54.8618 2.25429
749 1 17.3177 13.1036 42.646
750 1 23.4219 18.9846 1.93557
751 1 18.9042 32.6845 33.5967
752 1 15.0721 48.0991 38.6032
753 1 20.1451 9.74001 43.5911
754 1 36.4313 53.9877 27.2473
755 1 29.4138 17.8364 18.1357
756 1 31.4966 49.1892 53.7656
757 1 7.29589 19.4257 29.6433
758 1 54.8012 26.9368 20.0574
759 1 44.8523 6.85684 18.6932
760 1 19.1084 32.5713 54.677
761 1 48.6312 15.3698 46.4634
762 1 30.5531 52.5471 12.1987
763 1 24.3233 17.9434 8.81643
764 1 18.561 13.0208 21.2738
765 1 42.5017 19.9789 40.2493
766 1 19.6796 35.7004 2.89963
767 1 4.54169 51.8883 28.6433
768 1 25.696 22.2457 35.7495
769 1 17.8995 48.7081 54.5055
770 1 19.1066 3.75468 4.70517
771 1 11.6218 38.7825 44.0113
772 1 29.7847 13.2218 52.7915
773 1 10.4563 16.7055 45.4473
774 1 33.3698 2.52821 26.9968
775 1 46.3717 41.5854 29.9231
776 1 25.3009 55.7616 22.3609
777 1 45.7601 47.4465 25.5798
778 1 22.0376 33.4218 47.8901
779 1 41.0325 26.8858 44.531
780 1 31.2421 47.5659 41.0664
781 1 20.0906 38.0529 24.8421
782 1 4.87517 18.9778 15.7325
783 1 50.188 0.743891 36.9449
784 1 44.2647 27.7758 24.1207
785 1 27.5783 25.9406 48.3443
786 1 15.1379 7.43556 42.2761
787 1 5.37984 31.0438 54.2886
788 1 2.38337 10.3392 37.1546
789 1 15.3238 46.1988 28.4225
790 1 51.4772 29.4467 43.6826
791 1 36.4991 18.748 24.5863
792 1 26.1052 55.3185 19.537
793 1 2.57165 50.3949 22.1865
794 1 29.875 25.8001 28.382
795 1 55.887 21.392 36.7711
796 1 44.2923 12.7603 4.01244
797 1 19.0848 11.1624 13.9832
798 1 42.5023 28.9561 54.4556
799 1 16.2269 35.6831 12.2352
800 1 16.8462 30.8018 54.8289
801 1 48.6198 48.4415 11.0155
802 1 20.993 15.1809 37.1049
803 1 40.0578 45.2206 39.9898
804 1 52.0803 36.6776 9.28374
805 1 38.8908 44.5704 32.0201
806 1 13.2233 15.1694 37.2644
807 1 55.6208 15.9666 34.6796
808 1 49.0102 8.25059 38.602
809 1 10.1458 12.4023 1.48041
810 1 8.05104 40.7948 32.1492
811 1 33.6238 22.2279 47.9138
812 1 53.5954 16.3647 44.6039
813 1 0.69032 11.3564 2.29691
814 1 45.9269 4.74836 20.1145
815 1 4.59884 8.697 41.6946
816 1 49.6822 4.65192 35.2607
817 1 44.2386 43.4866 29.1372
818 1 54.9068 48.5146 55.3388
819 1 18.7073 37.1338 43.4503
820 1 53.3871 27.9907 38.4353
821 1 32.0778 29.5404 38.7656
822 1 1.13171 4.02196 29.0216
823 1 53.6599 46.3286 37.7866
824 1 54.4848 0.0960746 28.6093
825 1 17.6014 54.3671 29.8911
826 1 16.6294 50.7047 3.86367
827 1 19.7347 33.7047 22.6934
828 1 35.2678 23.1276 26.1838
829 1 49.5643 55.9057 29.5417
830 1 51.3406 43.2316 4.1268
831 2 7.05747 40.3975 39.9636
832 2 23.7488 14.2953 3.13868
833 2 20.2225 43.1768 23.3225
834 2 43.4008 26.8885 47.0134
835 2 24.862 0.183749 27.7366
836 2 23.8132 14.3304 32.5724
837 2 15.5197 27.0554 17.6247
838 2 23.1052 42.5092 47.7385
839 2 28.5872 35.3408 31.4105
840 2 19.7758 16.1791 53.7009
841 2 15.7577 27.5634 26.6129
842 2 47.1879 9.3972 45.8727
843 2 42.1943 1.60213 29.7642
844 2 31.4297 15.4005 18.4506
845 2 8.50095 51.7445 16.0999
846 2 41.5139 41.1409 48.5929
847 2 48.4771 54.9665 10.2586
848 2 47.4833 44.4385 25.9305
849 2 23.2226 17.3448 34.9455
850 2 22.6705 32.1579 44.4948
851 2 48.1014 55.889 54.023
852 2 46.6277 38.7225 20.4283
853 1 36.0097 46.5773 9.24951
854 1 30.2028 42.0261 46.9152
855 1 47.4192 26.5302 15.3084
856 1 10.1275 23.9863 34.6917
857 1 55.0943 17.0305 40.2868
858 1 14.5278 50.1871 48.8161
859 1 35.0009 24.7275 40.957
860 1 9.37158 37.8337 4.13884
861 1 52.3628 36.2667 29.5083
862 1 54.4277 30.7653 5.65925
863 1 33.2971 11.3191 10.302
864 1 47.4175 26.4785 49.4035
865 1 14.7346 26.423 14.6755
866 1 12.4386 34.1215 -0.128091
867 1 50.5951 21.8604 37.1628
868 1 49.114 1.99398 34.4884
869 1 53.5986 26.0695 52.526
870 1 33.4947 24.6828 20.7802
871 1 10.2037 27.9848 14.9734
872 1 53.4202 37.6531 40.8523
873 1 12.735 39.4968 31.9368
874 1 54.0702 46.0434 1.20404
875 1 41.8472 29.6974 47.9743
876 1 -0.133249 16.5963 31.2479
877 1 -0.104216 27.2977 22.3284
878 1 4.4507 35.8445 20.3953
879 1 10.4788 14.1734 30.8967
880 1 51.6883 11.4668 1.82812
881 1 31.881 13.2751 47.8118
882 1 44.8292 22.463 52.6509
883 1 26.385 13.841 13.8126
884 1 51.4546 54.5522 36.4831
885 1 29.9641 23.0018 1.43888
886 1 39.2276 47.6605 2.01595
887 1 7.17958 15.7189 19.7211
888 1 2.91104 29.8678 46.8751
889 1 46.3324 7.78957 34.0049
890 1 54.9248 2.93731 6.32205
891 1 53.1009 20.6996 37.6555
892 1 37.7849 54.3492 20.3913
893 1 14.3882 51.3897 33.759
894 1 9.09222 40.95 9.90404
895 1 3.86669 49.6328 40.3791
896 1 2.60726 40.9042 17.9143
897 1 28.3124 53.2362 10.2459
898 1 41.2319 35.4567 42.5807
899 1 16.7231 19.2546 32.3476
900 1 9.04538 28.0072 2.39937
901 1 33.9351 37.3512 42.4635
902 1 25.6039 46.3589 25.9635
903 1 3.63097 26.5146 8.91916
904 1 35.7606 35.6743 11.5914
905 1 28.0434 30.3154 22.2687
906 1 17.4521 36.2069 7.16896
907 1 34.8686 50.6833 13.8634
908 1 1.53342 6.29912 34.7329
909 1 40.5844 3.2969 42.4697
910 1 52.4977 38.4349 7.30168
911 1 12.7202 8.62002 24.9002
912 1 17.0412 18.3044 37.0677
913 1 4.10067 45.1258 5.79497
914 1 53.1999 51.7329 30.9431
915 1 18.4095 21.2132 39.2263
916 1 28.3347 26.2493 40.3607
917 1 35.3016 56.084 4.26567
918 1 50.3307 34.7384 14.7075
919 1 48.7172 40.776 38.5123
920 1 11.9998 38.6971 38.391
921 1 32.0668 54.5809 11.0304
922 1 17.6646 41.6277 31.6783
923 1 50.1806 5.74075 38.76
924 1 0.781572 11.5774 16.6027
925 1 45.0781 55.6517 4.85747
926 1 27.9171 49.8323 51.6993
927 1 52.6132 49.4615 43.5039
928 1 42.3154 12.1058 13.0671
929 1 50.0339 33.206 7.37489
930 1 38.299 0.863885 20.0411
931 1 17.0094 25.3886 31.7734
932 1 12.6153 48.7576 52.6679
933 1 30.7429 7.01108 43.956
934 1 24.7353 51.5183 54.764
935 1 5.4373 39.218 54.9519
936 1 7.44865 32.9414 12.0272
937 1 33.9551 0.768301 42.6094
938 1 36.5876 6.11005 40.449
939 1 5.71178 29.6331 15.7913
940 1 7.38181 39.0075 52.8532
941 1 36.387 6.47097 35.626
942 1 15.0659 46.5226 45.3553
943 1 33.5275 36.6181 34.4313
944 1 8.80484 41.375 16.185
945 1 44.675 20.777 44.5479
946 1 9.66136 42.5176 44.3846
947 1 41.4885 30.9188 40.7929
948 1 15.5479 55.4911 43.8195
949 1 49.7415 49.9915 15.4099
950 1 39.267 27.4648 50.6101
951 1 14.8657 43.1869 53.7375
952 1 44.0745 0.786285 48.7563
953 1 25.86 22.2384 51.3397
954 1 11.2226 45.6424 40.6586
955 1 12.9828 21.8241 15.3352
956 1 12.0506 20.5512 8.40339
957 1 47.0676 43.7851 51.2019
958 1 8.25289 25.6217 36.2714
959 1 31.4541 49.9939 35.3633
960 1 53.8455 14.1345 12.3788
961 1 37.0467 41.4683 42.4714
962 1 54.9718 6.57125 18.684
963 1 7.48294 30.2769 46.9981
964 1 25.5921 14.5959 44.3721
965 1 15.3774 30.414 35.7488
966 1 24.7467 42.7132 31.5068
967 1 8.01745 8.40209 11.7973
968 1 42.874 10.1642 54.0044
969 1 32.2861 37.1613 50.6051
970 1 31.104 17.3476 15.9492
971 1 44.7757 6.11528 42.4779
972 1 52.3172 8.62083 51.6378
973 2 45.3672 4.17047 25.6775
974 2 46.1764 39.3241 35.1703
975 2 53.4398 38.9311 27.7167
976 2 17.4807 30.4566 49.7872
977 2 52.9053 36.2596 16.1603
978 2 52.4798 36.1246 19.8
979 2 32.9659 42.1096 40.9058
980 2 54.9216 6.59789 44.9001
981 2 36.2919 11.8806 9.76974
982 2 54.388 29.8273 49.231
983 2 12.187 31.3367 1.53261
984 2 46.2311 22.8198 34.5925
985 2 51.9357 2.17356 13.3523
986 2 7.47982 18.5553 37.7759
987 2 20.197 6.59696 5.17131
988 2 2.34406 26.7247 51.7552
989 2 39.888 27.809 32.122
990 2 54.2542 9.81294 14.94
991 2 22.9179 21.2722 17.662
992 2 16.1458 15.7367 55.0132
993 2 1.64596 15.7057 55.7803
994 2 53.3587 22.9246 35.2212
995 1 54.2683 3.28451 43.4929
996 1 51.242 25.229 47.07
997 1 24.7111 2.13855 48.0179
998 1 3.31095 49.3736 26.9753
999 1 25.0626 51.1794 52.1329
1000 1 19.6163 9.0242 47.733
1001 1 30.8738 30.2729 36.3432
1002 1 52.6032 26.4347 8.24437
1003 1 13.6558 28.7864 30.8985
1004 1 6.30759 40.2502 6.85467