ITEM: TIMESTEP
0
ITEM: NUMBER OF ATOMS
9088
ITEM: BOX BOUNDS pp pp pp
-1.9896510878306123e-01 5.6083457734765290e+01
-1.9896510878306123e-01 5.6083457734765290e+01
-1.9896510878306123e-01 5.6083457734765290e+01
ITEM: ATOMS id type x y z
1 1 28.2075 41.7016 49.1223
2 1 44.3765 4.42522 36.4436
3 1 41.5618 12.754 50.0305
4 1 37.0937 49.2676 43.5213
5 1 11.5199 34.7179 8.39912
6 1 36.0152 25.4745 22.0369
7 1 19.8188 32.9964 1.18786
8 1 48.4076 1.79696 9.26202
9 1 55.6926 50.186 40.0568
10 1 36.7483 13.4009 53.3993
11 1 48.5459 35.8065 32.5969
12 1 35.4154 19.2823 36.7141
13 1 21.7292 48.6328 36.8185
14 1 19.836 49.3473 49.9819
15 1 2.94817 36.8688 30.2463
16 1 26.7301 0.741922 38.6518
17 1 50.3154 10.138 28.0332
18 1 3.97589 47.7747 35.646
19 1 30.2543 23.8975 51.8039
20 1 31.1171 2.49454 44.7872
21 1 25.2913 49.1255 50.2109
22 1 9.61291 41.5962 1.67183
23 1 21.9538 17.7699 37.9512
24 1 3.57677 7.97408 55.35
25 1 26.2951 27.3803 38.6855
26 1 19.8778 28.0406 43.2567
27 1 34.65 29.6411 54.4261
28 1 13.576 32.8217 14.9749
29 1 10.7352 50.1943 40.3415
30 1 49.188 7.50097 44.4932
31 1 30.5416 4.61906 0.0878953
32 1 33.9138 5.31202 23.4013
33 1 24.3273 41.8382 2.74913
34 1 14.7394 24.8892 1.78468
35 1 19.6988 51.2849 40.3358
36 1 16.3888 32.1998 18.9115
37 1 23.6605 55.9 46.926
38 1 23.4086 20.8438 5.71397
39 1 13.2964 26.0655 -0.083226
40 1 8.81551 11.3239 47.9016
41 1 46.8032 40.9086 1.11539
42 1 5.65141 39.215 14.7344
43 1 21.9737 16.93 9.40286
44 1 50.6113 52.2101 23.5718
45 1 13.0137 43.584 56.0104
46 1 -0.0583332 17.737 10.8985
47 1 42.5493 6.1177 32.0879
48 1 18.356 30.6433 20.0091
49 1 7.2134 19.833 32.6742
50 1 17.9799 19.502 20.485
51 1 50.0982 32.2217 30.3861
52 1 22.412 10.6555 37.2752
53 1 52.6135 20.3987 1.46928
54 1 52.2357 17.5102 42.6333
55 1 39.6289 44.9356 29.4563
56 1 12.0133 24.8771 44.5524
57 1 7.05994 33.0692 34.6055
58 1 37.4898 11.312 21.6043
59 1 5.41043 30.2842 28.7206
60 1 36.0179 32.5439 54.7064
61 1 11.941 27.2087 53.8776
62 1 52.5575 22.3067 24.3575
63 1 49.2453 43.124 28.949
64 1 22.517 4.06988 15.9777
65 1 11.2727 42.6157 48.0759
66 1 8.03411 44.9699 9.9925
67 1 12.2459 43.4564 53.1912
68 1 11.4681 33.7482 52.2975
69 1 37.7535 38.0695 45.9683
70 1 1.94388 27.9307 4.9671
71 1 51.7881 46.8084 28.2697
72 1 55.4289 29.7182 1.50197
73 1 22.9609 46.5555 6.35762
74 1 4.5324 33.4836 47.0365
75 1 37.6765 19.3912 5.34661
76 1 38.4953 23.8903 5.94934
77 1 47.4481 40.0949 32.1402
78 1 33.9852 40.4615 10.5143
79 1 31.92 23.4185 42.6451
80 1 39.359 0.0831988 30.6085
81 1 17.4901 27.9536 54.4173
82 1 50.5783 1.26487 23.9608
83 1 8.25087 14.8154 27.9375
84 1 36.3591 2.13731 4.02984
85 1 39.3794 10.8224 38.5171
86 1 34.6818 34.1827 34.5533
87 1 25.9275 8.11761 31.9813
88 1 15.9452 11.4504 12.8253
89 1 7.12589 47.7852 39.421
90 1 1.37381 39.5637 51.4103
91 1 18.2677 7.86325 21.7806
92 1 10.1383 12.0155 19.1729
93 1 38.4141 9.74493 11.2421
94 1 35.6335 34.0949 28.6116
95 1 40.9039 24.4896 18.7729
96 1 6.92487 -0.0129044 13.854
97 1 3.38564 8.49444 32.6513
98 1 18.1128 12.8311 30.0011
99 1 42.4546 36.4248 5.70983
100 1 3.56194 6.20134 27.0069
101 1 0.623285 33.5667 47.3548
102 1 4.95572 1.31773 12.3748
103 1 41.7256 43.2201 56.0327
104 1 15.0298 54.6515 39.5944
105 1 31.2664 13.9359 10.7424
106 1 19.0066 48.2448 47.6848
107 1 32.5314 -0.0883536 44.844
108 1 46.685 17.2205 47.4135
109 1 10.4809 45.7144 16.9863
110 1 31.4048 9.14939 10.7392
111 1 38.2576 54.0185 14.6261
112 1 5.36815 5.47209 10.2394
113 1 28.8915 33.2931 11.3438
114 1 24.3137 17.1208 39.9256
115 1 42.7741 34.6491 31.2253
116 1 32.1903 5.72178 38.2858
117 1 0.066482 12.3192 40.379
118 1 1.44536 43.9556 31.7641
119 1 36.2333 36.101 34.0167
120 1 15.0704 1.45161 39.7581
121 2 11.9202 38.8925 35.3813
122 2 51.4147 18.619 12.8841
123 2 55.1201 46.6868 21.0536
124 2 52.5491 29.7375 19.7537
125 2 53.7602 35.3582 38.7454
126 2 25.1704 7.36537 17.8078
127 2 12.3466 51.3085 15.733
128 2 7.77185 30.1259 35.3279
129 2 55.1052 17.8131 7.62727
130 2 1.57604 21.1405 45.8348
131 2 51.959 12.1059 47.1809
132 2 39.057 46.5043 17.7798
133 2 34.7187 42.8131 16.2724
134 2 14.9458 5.25543 9.17673
135 2 42.9969 33.9362 3.78957
136 2 9.82984 0.73403 32.1905
137 2 40.7418 24.2462 46.2865
138 2 5.42737 4.73647 49.2625
139 2 31.2371 14.7924 13.9107
140 2 45.3859 27.3202 38.9239
141 2 7.9707 38.3108 23.0966
142 2 29.7785 23.6698 40.157
143 1 46.9886 19.9152 46.1361
144 1 29.3201 17.5427 13.5681
145 1 53.9543 12.645 6.3547
146 1 52.249 26.6279 15.4671
147 1 28.9996 27.8351 33.0933
148 1 27.1698 10.3671 38.6118
149 1 46.4614 6.55643 44.8563
150 1 25.0375 25.634 9.33712
151 1 50.2364 24.1586 54.0387
152 1 10.1802 33.6979 45.1961
153 1 49.8976 48.2756 29.7234
154 1 43.0044 41.5433 30.7643
155 1 32.489 18.5944 10.5534
156 1 7.73415 33.1791 9.46916
157 1 51.7005 34.1236 22.2142
158 1 37.6129 5.29419 0.0885769
159 1 54.6237 47.9505 13.6707
160 1 49.2501 2.46988 2.26685
161 1 10.5077 25.6513 21.561
162 1 13.2138 12.9359 44.168
163 1 19.9119 21.5395 26.3451
164 1 55.8039 38.4173 12.0157
165 1 51.4241 35.6221 6.70461
166 1 45.3243 41.7139 14.5852
167 1 31.2907 39.6992 46.1955
168 1 36.75 7.97607 43.0143
169 1 28.278 50.5449 39.2637
170 1 39.5708 34.0173 47.142
171 1 28.286 32.6365 23.5926
172 1 21.3886 43.8101 28.6823
173 1 13.9418 39.9115 10.1369
174 1 35.357 1.82739 32.3866
175 1 18.4784 27.8752 16.3153
176 1 39.5863 37.1252 6.79953
177 1 9.88476 5.06117 24.9321
178 1 18.4042 5.5175 8.91264
179 1 26.8742 44.6966 48.1936
180 1 55.3185 26.9507 8.63922
181 1 48.8622 42.4709 32.1144
182 1 49.4834 30.3386 52.6543
183 1 13.4163 20.6071 4.0713
184 1 26.0238 52.8519 11.8675
185 1 33.4133 9.77273 34.4628
186 1 43.8808 26.4531 26.5104
187 1 1.51149 7.00919 53.2618
188 1 28.544 39.2877 3.68751
189 1 13.4526 41.3141 34.2213
190 1 35.5811 48.925 21.8535
191 1 20.5357 19.1916 46.2798
192 1 50.2521 0.080584 7.92665
193 1 37.1312 8.57388 13.6186
194 1 35.7922 3.79687 30.7947
195 1 24.8033 27.4807 1.15523
196 1 34.9285 5.19359 26.4569
197 1 7.21289 9.31064 49.4001
198 1 12.9128 18.7384 28.5133
199 1 31.6054 18.8931 3.0449
200 1 39.6356 20.3765 41.0229
201 1 26.648 12.9187 16.1197
202 1 38.8002 1.79687 2.63745
203 1 31.3013 27.6573 37.0762
204 1 40.948 27.302 19.4402
205 1 8.01144 12.3277 2.76277
206 1 39.4362 25.3451 24.4365
207 1 0.345517 45.2153 45.5001
208 1 32.0787 4.89498 10.6763
209 1 47.7178 6.74432 47.1906
210 1 27.2766 21.7048 41.652
211 1 8.5026 5.8627 21.6787
212 1 43.353 27.5091 43.3292
213 1 22.3942 12.4325 51.1132
214 1 1.06471 37.5824 2.71685
215 1 11.4371 28.0049 22.9276
216 1 0.000295948 24.3674 50.9718
217 1 21.953 8.92111 35.2289
218 1 1.42075 9.87392 54.2129
219 1 43.9052 51.5203 6.18205
220 1 44.4364 8.25472 43.8804
221 1 30.7903 0.631695 17.1298
222 1 2.6946 7.80188 21.4073
223 1 25.9785 43.9758 3.10286
224 1 42.6649 8.96463 25.7965
225 1 43.9039 48.8658 38.2476
226 1 12.9166 42.0958 25.5062
227 1 20.2317 45.5739 33.3221
228 1 55.8886 19.8883 52.854
229 1 11.3283 26.9474 43.1898
230 1 31.0869 30.1478 41.202
231 1 31.5671 35.1439 25.4281
232 1 41.1593 17.0548 17.8615
233 1 50.9104 50.2184 38.318
234 1 10.966 14.3159 50.862
235 1 41.5286 18.4369 42.0703
236 1 6.75499 47.7409 29.3847
237 1 52.7513 29.79 23.5606
238 1 38.8509 1.39058 -0.191062
239 1 33.918 28.6714 6.20043
240 1 9.01204 33.1127 51.0491
241 1 20.3122 49.2919 10.7536
242 1 32.9466 10.9195 2.95905
243 1 7.53428 24.1294 33.3776
244 1 55.9665 42.3638 7.48567
245 1 1.13774 27.7513 20.0754
246 1 54.0652 5.73308 5.69103
247 1 54.1863 49.1219 11.0499
248 1 44.0596 0.556498 45.402
249 1 10.436 45.1186 48.9035
250 1 23.4723 24.3138 17.7677
251 1 17.8228 39.3827 3.87581
252 1 47.8428 16.7517 38.8208
253 1 2.63221 27.079 48.2797
254 1 9.04433 7.03874 32.4027
255 1 55.0952 9.28036 18.1164
256 1 31.0958 47.6265 24.6361
257 1 1.52948 12.3641 35.0557
258 1 33.4394 18.3973 27.7274
259 1 45.8673 45.8794 55.1049
260 1 24.9094 41.5295 33.9616
261 1 32.2664 10.4722 39.5065
262 1 21.1625 43.5772 9.68233
263 2 43.9536 24.6927 29.402
264 2 25.6321 47.1626 1.86849
265 2 50.1162 7.28801 49.1619
266 2 7.00194 24.5509 38.8177
267 2 14.6415 21.4639 1.25765
268 2 4.54126 3.49252 24.6297
269 2 15.2769 2.40121 16.475
270 2 44.4384 43.3233 53.6924
271 2 53.7187 44.8576 26.2215
272 2 33.2364 40.3151 13.9341
273 2 33.2173 6.28931 34.8855
274 2 52.8811 26.9541 30.5899
275 2 27.1576 7.05565 52.9538
276 2 55.9243 14.0435 4.2367
277 2 1.22676 42.7748 39.4304
278 2 11.8108 34.3896 18.759
279 2 43.9596 51.3893 46.4357
280 2 19.7341 55.1796 22.0912
281 2 41.2678 16.9584 14.7276
282 2 15.2502 28.9223 8.25955
283 2 46.7539 47.6992 28.7247
284 2 16.7474 27.0576 34.9565
285 1 4.73393 35.1856 5.78158
286 1 49.7995 34.7429 20.1447
287 1 44.6402 1.76911 35.926
288 1 20.0682 16.9459 29.4357
289 1 22.696 31.4386 4.3954
290 1 50.794 13.0816 24.1847
291 1 18.0731 43.7592 34.3721
292 1 40.7482 5.29729 43.9711
293 1 54.4208 19.6906 55.4537
294 1 30.9871 32.9919 41.7777
295 1 47.009 25.3639 29.7388
296 1 12.5283 32.282 35.1916
297 1 48.4012 14.1417 34.0273
298 1 30.7985 22.1775 12.9787
299 1 31.7617 18.5934 17.9746
300 1 24.7729 31.8438 9.4914
301 1 24.7868 50.0288 23.1312
302 1 46.7606 33.5152 26.0026
303 1 53.9344 3.52429 1.53614
304 1 13.6398 34.2812 53.7913
305 1 25.5334 38.2815 22.9099
306 1 28.9324 52.0637 32.7961
307 1 5.06908 40.1701 32.2594
308 1 39.7216 53.9276 45.1052
309 1 49.5885 30.5361 28.4855
310 1 10.3981 52.9346 38.3911
311 1 38.088 35.0343 5.57079
312 1 10.3768 7.95736 25.7415
313 1 5.00454 55.7297 18.1353
314 1 28.9802 47.5906 53.0719
315 1 4.35375 6.20181 14.7897
316 1 43.8951 10.3644 10.5959
317 1 30.5906 32.1347 38.8022
318 1 5.75987 23.0308 11.4868
319 1 3.18562 2.77563 17.9621
320 1 18.9904 33.7224 25.469
321 1 25.9924 38.4571 34.1054
322 1 55.2019 21.504 23.0439
323 1 11.5074 10.7921 33.016
324 1 18.6113 8.95796 32.2832
325 1 21.6026 46.1649 43.2837
326 1 16.8463 32.0451 40.9815
327 1 12.5655 8.98206 35.0524
328 1 0.70204 8.10791 36.6817
329 1 4.3817 25.5901 44.7359
330 1 8.07051 30.7709 30.0561
331 1 15.4838 39.4029 52.2107
332 1 0.777614 44.415 12.0193
333 1 16.3442 13.3878 10.6144
334 1 33.5081 34.8661 22.6526
335 1 35.314 13.0867 51.1254
336 1 49.9919 21.3149 13.0192
337 1 0.871319 33.9449 7.73308
338 1 9.45699 23.0662 22.3965
339 1 14.8437 23.8121 44.6925
340 1 25.0281 23.3036 26.0595
341 1 26.7367 51.2349 25.0315
342 1 -0.168995 26.4747 17.8509
343 1 35.9563 14.1032 27.5988
344 1 33.1025 15.8528 11.5813
345 1 48.9238 16.6884 4.04196
346 1 0.275861 6.93712 23.7164
347 1 19.9998 18.1555 10.9913
348 1 12.9529 10.1984 22.4859
349 1 4.45128 37.2348 10.2593
350 1 2.00227 53.982 51.172
351 1 45.1208 35.4926 5.42094
352 1 18.7234 8.40319 52.066
353 1 24.435 34.7262 53.8766
354 1 46.4538 37.1337 39.5973
355 1 48.5899 28.3396 38.914
356 1 9.52923 40.0814 42.7777
357 1 20.3232 50.4935 52.968
358 1 21.7418 24.1318 36.9319
359 1 28.739 44.9738 46.1362
360 1 16.4928 37.994 45.3
361 1 39.7908 22.2056 43.6395
362 1 0.491873 54.0464 4.70593
363 1 44.2521 18.3339 14.6142
364 1 41.3558 0.470786 32.6438
365 1 39.7196 46.7264 6.82034
366 1 15.6316 34.7668 14.699
367 1 50.4399 46.8941 38.1941
368 1 40.6153 45.0127 26.7021
369 1 33.6773 14.4183 16.1153
370 1 3.52568 40.5678 50.5737
371 1 19.2579 28.083 48.9042
372 1 13.8913 22.1263 33.8199
373 1 21.7323 -0.152404 38.584
374 1 47.1705 50.4179 2.58358
375 1 4.07432 52.6853 35.1644
376 1 42.9301 48.9852 25.2274
377 1 6.26033 21.6747 55.9083
378 1 29.2095 52.5065 21.2617
379 1 51.4483 39.445 20.4834
380 1 10.8281 12.8675 26.7246
381 1 25.9391 50.2673 29.1622
382 1 55.2805 22.6935 8.63792
383 1 12.5278 23.537 22.9336
384 1 49.461 16.5053 33.0391
385 1 29.7462 9.07783 19.6314
386 1 36.3017 38.7496 23.2284
387 1 21.2991 33.8565 39.3398
388 1 24.3787 7.01857 40.4571
389 1 26.6299 10.8877 14.2695
390 1 45.5322 48.6743 31.9673
391 1 6.9347 9.41011 6.72261
392 1 48.4298 48.7842 37.4143
393 1 3.26029 27.7122 0.871723
394 1 3.12427 37.9686 46.5026
395 1 54.9306 7.62605 48.1811
396 1 14.8997 5.12549 23.7919
397 1 49.6096 25.9389 22.4318
398 1 21.61 28.9094 3.97805
399 1 6.94068 54.1167 41.9262
400 1 35.6198 42.6703 27.7011
401 1 18.683 30.5723 24.7741
402 1 31.6916 48.0586 43.8069
403 1 13.2361 42.6631 28.2944
404 1 26.6664 34.8962 45.9025
405 2 19.6298 7.96712 14.2472
406 2 35.9723 30.9437 7.70966
407 2 34.3862 12.9547 12.7841
408 2 24.8934 49.7838 12.8345
409 2 47.1624 0.285141 16.5717
410 2 36.6098 49.0703 16.3294
411 2 5.64898 41.6821 17.1641
412 2 53.5703 8.86862 35.9134
413 2 31.1542 21.7343 45.1493
414 2 12.5712 34.9118 47.6795
415 2 55.8548 51.7888 9.07533
416 2 52.2133 42.87 55.1349
417 2 44.3701 5.02287 10.4428
418 2 7.41137 36.2166 11.1087
419 2 15.6262 54.6746 22.4877
420 2 23.605 23.1812 23.1708
421 2 41.2105 49.1952 10.0167
422 2 31.9997 16.2145 8.14702
423 2 8.14635 0.302325 43.3418
424 2 52.0519 10.5092 4.92703
425 2 48.078 51.7618 38.8535
426 2 37.4335 8.29878 38.0642
427 1 29.6777 29.8179 -0.171455
428 1 4.044 53.32 52.4477
429 1 55.5458 27.5466 50.9999
430 1 52.0394 55.0257 9.69112
431 1 20.087 47.4369 26.201
432 1 42.6701 8.15986 6.46042
433 1 39.9408 24.6602 14.0067
434 1 12.9184 22.0637 44.014
435 1 22.9869 52.3651 8.70947
436 1 32.4337 31.8249 48.2893
437 1 25.777 24.4925 33.6279
438 1 46.9866 3.1856 35.2915
439 1 1.52638 38.0785 54.1596
440 1 8.89607 25.2574 29.611
441 1 22.5079 14.5475 10.7912
442 1 42.7641 18.6797 16.7485
443 1 41.9855 10.6867 27.5556
444 1 51.1546 42.3958 47.7684
445 1 5.17327 14.7999 17.5429
446 1 38.4056 31.5305 39.9395
447 1 20.7216 52.0556 10.2653
448 1 44.2142 3.06445 -0.187749
449 1 54.1238 6.93033 29.0503
450 1 51.138 33.2684 0.18879
451 1 27.6824 49.301 14.3654
452 1 48.282 12.243 22.7431
453 1 9.27846 21.2018 33.7446
454 1 4.95058 35.128 52.7948
455 1 6.98582 22.1018 23.5344
456 1 46.5449 3.52044 51.7324
457 1 53.7242 38.9934 18.76
458 1 27.2849 20.2125 36.4865
459 1 2.86366 34.6167 9.69782
460 1 29.5982 0.342929 34.4651
461 1 8.20878 16.8004 17.3312
462 1 48.5475 27.6208 9.41537
463 1 15.3743 2.32052 7.39446
464 1 31.7344 52.5326 22.8047
465 1 7.92829 46.8481 17.5537
466 1 4.6295 47.8322 5.36629
467 1 47.1424 11.3614 37.9383
468 1 45.0974 54.0546 7.18634
469 1 14.8389 43.4721 24.5945
470 1 28.6693 0.39063 15.1361
471 1 26.9266 9.83568 3.27562
472 1 15.1454 37.8744 28.3848
473 1 48.6802 38.7564 46.7946
474 1 39.9688 12.5187 16.5193
475 1 22.8727 25.0166 20.4391
476 1 12.2123 21.7953 40.1664
477 1 48.9792 3.49938 37.1361
478 1 41.6595 7.1799 13.7761
479 1 55.3478 25.8175 35.3579
480 1 41.0046 8.07781 3.65931
481 1 25.6789 1.64628 50.869
482 1 29.9373 37.0334 22.8024
483 1 46.2752 19.4772 33.9649
484 1 5.84528 37.2745 7.24383
485 1 18.5509 45.2644 25.2911
486 1 47.2162 8.03159 42.6119
487 1 21.1244 12.7204 22.0596
488 1 6.04188 47.5619 25.4384
489 1 2.95812 44.5078 13.6841
490 1 24.3199 49.9433 26.1962
491 1 13.3138 29.6836 47.3424
492 1 27.0376 24.8492 41.7421
493 1 44.084 30.2925 34.0489
494 1 4.50416 54.3616 13.5428
495 1 11.8354 33.987 13.0223
496 1 39.237 17.6348 37.3151
497 1 7.35073 17.3013 31.6403
498 1 19.7633 20.2421 8.70011
499 1 33.893 29.7079 20.1851
500 1 51.9564 3.09985 36.0102
501 1 16.164 50.8502 43.398
502 1 50.777 42.9281 6.99596
503 1 42.1568 21.1145 42.794
504 1 40.0931 47.1002 32.1789
505 1 38.3506 27.5379 3.83433
506 1 22.3929 27.679 41.9419
507 1 53.5524 54.5775 32.2409
508 1 10.7528 43.0449 17.6401
509 1 53.5233 29.2511 8.27897
510 1 30.4658 0.658683 3.51976
511 1 49.7003 5.7457 5.98438
512 1 14.1044 50.4549 12.9841
513 1 33.2736 30.1599 29.3498
514 1 28.275 27.7623 21.1487
515 1 29.3112 12.5199 27.4069
516 1 5.23226 40.5689 37.2039
517 1 16.0779 3.11432 0.252259
518 1 24.1473 12.1231 13.3948
519 1 8.02507 11.8917 45.0996
520 1 35.9626 17.5903 4.69824
521 1 45.8111 24.9427 32.1293
522 1 7.4199 17.1621 0.640212
523 1 38.6013 1.71148 25.6474
524 1 39.9391 51.7069 31.9713
525 1 25.7802 41.6033 22.5749
526 1 26.5789 15.5217 30.6032
527 1 29.1568 54.6439 23.4707
528 1 2.28318 6.83499 6.4864
529 1 40.044 8.22049 33.4589
530 1 38.1521 16.7775 18.5394
531 1 39.0941 7.98066 48.3063
532 1 34.9468 9.81341 11.8467
533 1 43.429 6.22204 20.6284
534 1 19.8786 35.7701 21.0338
535 1 43.1825 2.78963 38.1653
536 1 39.1672 22.5948 15.8667
537 1 18.8701 22.1685 20.915
538 1 6.74146 27.5179 2.78899
539 1 28.629 37.6223 33.4799
540 1 48.1163 12.0365 16.2028
541 1 42.7557 6.00218 8.03519
542 1 33.0011 47.915 35.7845
543 1 38.2653 44.9116 35.1327
544 1 31.6466 34.7368 15.0899
545 1 51.6164 24.6287 5.92802
546 1 23.9552 51.1004 41.178
547 2 15.2216 40.6588 26.6813
548 2 12.9675 46.661 1.32655
549 2 34.7028 47.8783 25.6002
550 2 55.499 51.5901 12.6884
551 2 52.337 7.15351 16.8653
552 2 10.0006 6.68824 35.2573
553 2 37.6329 10.1126 16.903
554 2 23.3244 5.90532 53.0226
555 2 14.7983 12.9205 21.461
556 2 12.7477 41.6713 43.1772
557 2 13.843 6.08156 34.1443
558 2 17.3506 33.1387 3.34078
559 2 40.1034 16.7625 20.9298
560 2 5.08091 16.1999 29.363
561 2 38.5566 12.6002 50.9159
562 2 3.76025 19.5574 28.5337
563 2 30.1195 46.9192 34.8187
564 2 16.8208 5.32604 40.0735
565 2 20.2759 22.1157 34.8478
566 2 31.1289 13.5636 38.7368
567 2 44.6042 38.5013 0.501945
568 2 43.4269 18.069 20.1909
569 1 14.9725 1.58159 19.4631
570 1 52.2992 36.7379 49.5621
571 1 20.2396 14.6125 6.18552
572 1 46.5427 15.1358 53.665
573 1 15.6339 15.4547 25.7269
574 1 30.0557 46.2397 17.4298
575 1 30.0879 49.5618 42.2443
576 1 13.9245 0.0422437 11.565
577 1 1.64712 6.47237 15.2768
578 1 55.3136 40.1136 44.4671
579 1 34.01 44.7273 48.5201
580 1 20.9205 32.2072 6.56494
581 1 37.7234 10.3065 29.0993
582 1 12.2927 41.2432 37.9833
583 1 45.5502 25.6258 18.3565
584 1 29.063 40.6548 28.9711
585 1 33.3287 7.97623 23.2351
586 1 55.3975 0.0346805 31.0016
587 1 10.7874 1.77357 7.30608
588 1 9.16504 44.1606 46.8929
589 1 34.566 47.2193 49.5477
590 1 55.9484 7.53029 6.79841
591 1 13.0889 9.4242 30.8709
592 1 52.7886 33.1345 6.39282
593 1 18.6648 25.0871 33.7429
594 1 3.06777 42.4476 41.8739
595 1 34.3097 11.7936 43.6516
596 1 3.53257 4.79759 39.3447
597 1 28.9751 51.7886 7.70257
598 1 48.4299 47.2983 25.5817
599 1 5.01184 3.75087 13.4904
600 1 11.7592 31.9877 4.39396
601 1 21.9929 42.1524 54.2843
602 1 2.86393 42.5343 15.502
603 1 26.9213 35.5222 52.1983
604 1 5.40815 21.691 30.0529
605 1 28.4332 42.8719 27.2445
606 1 27.7068 46.5577 30.4228
607 1 39.0872 14.1714 33.7102
608 1 37.2653 4.80138 49.4256
609 1 34.1854 30.2945 12.8254
610 1 43.3624 5.65438 44.8884
611 1 20.742 44.8731 30.8878
612 1 17.928 46.917 45.5594
613 1 3.2759 51.4172 1.04777
614 1 53.8946 33.3465 10.8713
615 1 5.74811 42.876 41.4293
616 1 38.427 3.58315 54.3706
617 1 16.4528 11.6417 51.8842
618 1 5.74078 55.3649 53.5824
619 1 36.6548 11.547 27.0016
620 1 28.1923 26.9859 25.7389
621 1 53.005 8.81783 27.4053
622 1 3.93139 29.5913 43.6304
623 1 15.1084 44.5045 12.0788
624 1 27.6661 9.31825 55.1168
625 1 10.1478 14.9788 25.272
626 1 39.4689 27.5343 22.5451
627 1 33.2136 38.2016 1.64736
628 1 31.9009 10.139 17.3115
629 1 41.8054 46.101 10.923
630 1 39.3774 55.4023 22.4666
631 1 43.786 28.7274 13.6876
632 1 4.75351 32.1967 26.9412
633 1 16.0013 6.291 49.4378
634 1 48.046 45.9796 17.7812
635 1 29.3219 44.9108 23.2345
636 1 5.86559 6.71046 17.2641
637 1 0.65545 14.8799 39.6669
638 1 32.8648 47.6553 55.5503
639 1 28.8027 5.25979 4.42256
640 1 21.9519 53.4188 6.38101
641 1 55.9942 47.4871 35.7035
642 1 53.5039 18.7254 10.4298
643 1 41.3369 27.6724 24.6658
644 1 20.08 42.4856 45.7729
645 1 0.567527 19.7022 41.0259
646 1 13.1008 31.0695 12.6196
647 1 3.18287 29.4875 8.86216
648 1 19.465 17.0351 5.20647
649 1 20.5507 20.2768 19.7311
650 1 15.0139 4.11963 2.9266
651 1 30.1656 33.2042 33.0322
652 1 50.5235 11.0142 40.9123
653 1 51.7604 30.442 51.2379
654 1 29.5203 34.0538 -0.0536592
655 1 41.0895 4.53109 30.3188
656 1 36.6148 52.239 39.9304
657 1 55.8931 34.7693 20.7274
658 1 24.6711 8.17532 54.7018
659 1 38.7804 40.1707 50.4317
660 1 1.68088 44.206 6.78861
661 1 46.1528 36.1358 13.0325
662 1 15.6085 41.2717 44.3872
663 1 20.3149 35.675 37.5424
664 1 52.9753 16.9569 28.2796
665 1 34.1291 42.9567 23.0357
666 1 15.217 9.21555 26.1917
667 1 35.8081 16.6179 28.0745
668 1 47.3922 12.4051 44.2413
669 1 51.184 22.7583 15.5051
670 1 47.0478 3.29053 11.3032
671 1 32.4077 4.65651 25.5676
672 1 1.77282 18.6386 8.99452
673 1 11.7409 3.93784 35.778
674 1 46.2539 51.223 7.58107
675 1 23.4063 7.876 32.9753
676 1 53.8416 16.776 24.1516
677 1 55.7257 36.0105 54.0921
678 1 15.8889 55.8435 17.6421
679 1 52.7833 12.5048 22.1646
680 1 28.5097 32.5572 46.0542
681 1 0.121952 26.0375 48.9634
682 1 7.48808 3.13872 44.6291
683 1 43.2658 12.9365 21.1298
684 1 38.342 32.3153 37.1395
685 1 22.8641 54.9767 14.9815
686 1 44.5656 15.0786 11.0927
687 1 47.1327 55.379 28.2343
688 1 20.4366 7.13549 33.3733
689 2 21.6648 49.4759 24.0688
690 2 30.1961 50.3891 10.1131
691 2 34.5324 27.1263 39.0834
692 2 8.18006 42.4571 49.2784
693 2 44.5382 48.1667 22.5309
694 2 3.05502 51.2921 54.3695
695 2 17.5848 15.4477 45.169
696 2 16.3823 40.9329 8.2755
697 2 1.63785 18.2396 36.1053
698 2 17.2484 18.8255 6.92195
699 2 44.6725 11.7481 39.7529
700 2 38.7252 4.86429 3.59783
701 2 53.4877 27.5427 5.72045
702 2 35.9682 28.8078 27.3154
703 2 48.8329 45.6239 44.4345
704 2 54.4439 12.9422 17.5964
705 2 2.67152 36.8315 7.71588
706 2 2.18297 40.4091 44.427
707 2 47.6938 17.0176 18.8548
708 2 43.2131 54.3904 0.702207
709 2 44.1533 30.5068 42.3584
710 2 52.9659 48.3688 31.0612
711 1 37.1438 2.30095 46.1352
712 1 17.7466 25.3065 49.335
713 1 1.22432 49.2678 44.1426
714 1 37.6203 30.2038 25.0139
715 1 0.949521 11.1369 44.5941
716 1 2.91494 15.6497 51.2791
717 1 47.2218 1.07631 3.31914
718 1 4.7551 41.8086 56.0391
719 1 42.083 16.8743 52.4968
720 1 19.2011 16.2431 13.3557
721 1 31.269 6.60674 4.94824
722 1 31.699 37.9638 55.623
723 1 19.3451 14.7411 15.839
724 1 48.5145 37.2688 53.5807
725 1 13.1815 45.7045 35.0716
726 1 29.8353 41.3544 41.7549
727 1 32.8008 55.3508 18.8136
728 1 28.0763 0.465531 55.224
729 1 41.0624 1.57373 52.0195
730 1 6.13132 6.83783 35.9753
731 1 53.9984 11.1519 20.1939
732 1 12.7578 1.00835 14.7311
733 1 36.0243 52.926 55.0898
734 1 37.3219 43.5891 17.9771
735 1 40.1028 9.63664 1.29853
736 1 51.7596 18.9314 50.5211
737 1 30.968 41.7783 27.4783
738 1 0.229408 11.9395 6.81788
739 1 21.7218 16.5826 3.0337
740 1 40.4077 35.3339 49.5234
741 1 53.8159 9.45147 32.8869
742 1 18.9561 40.3789 6.26073
743 1 44.6397 29.1417 26.9013
744 1 33.5946 55.5512 40.3514
745 1 44.9154 12.6793 12.9483
746 1 20.3609 17.7201 20.676
747 1 0.98406 3.25695 36.4194
748 1 46.2083 54.8102 2.34138
749 1 17.1673 13.2073 42.4526
750 1 23.4172 18.9814 1.80163
751 1 18.7742 32.7654 33.7917
752 1 15.0253 48.4089 38.7079
753 1 20.2037 10.1044 43.7036
754 1 36.3586 54.0898 26.73
755 1 28.9993 18.0513 17.9267
756 1 31.4885 49.1969 53.8415
757 1 6.94196 19.5023 29.7873
758 1 54.6568 26.9421 20.1853
759 1 44.918 7.08481 18.8414
760 1 19.1466 32.678 54.5744
761 1 48.3818 15.3798 46.492
762 1 30.5257 52.556 12.0766
763 1 24.711 17.8602 8.67118
764 1 18.4678 13.0649 21.2383
765 1 42.4536 20.0652 40.2026
766 1 19.3626 36.0129 3.09189
767 1 4.59468 51.7638 28.3789
768 1 25.9422 22.2979 35.596
769 1 18.4675 48.3359 54.8729
770 1 19.0166 3.71116 4.61009
771 1 11.6933 38.7262 44.2537
772 1 29.6838 13.1285 52.549
773 1 10.3089 16.4959 45.6882
774 1 33.6842 2.40756 26.7859
775 1 46.4343 41.5998 30.115
776 1 25.3514 55.842 22.397
777 1 45.6716 47.5157 25.6461
778 1 22.0292 33.4595 47.8371
779 1 41.0439 27.116 44.5696
780 1 31.2094 47.3781 40.7925
781 1 20.2443 38.077 25.2039
782 1 4.5419 19.1537 15.5535
783 1 50.4077 0.919041 36.7435
784 1 44.1871 27.763 24.0006
785 1 27.5566 26.1281 48.3298
786 1 15.6028 7.86674 42.0922
787 1 5.73137 31.075 54.1382
788 1 2.47367 10.4421 36.9944
789 1 15.4576 46.2127 28.4448
790 1 51.9238 29.7569 43.4884
791 1 36.0917 18.4453 24.5255
792 1 26.1211 55.1682 19.6726
793 1 2.67155 50.4215 22.2066
794 1 29.9508 25.6149 28.3654
795 1 55.826 21.373 36.9656
796 1 44.3692 12.5558 4.01174
797 1 19.0018 11.135 13.9445
798 1 42.5536 29.3196 54.4643
799 1 16.4001 35.7319 12.1522
800 1 17.1593 30.8036 55.1544
801 1 48.8911 48.2964 10.9527
802 1 20.7222 15.3826 36.7218
803 1 39.905 44.8946 40.1092
804 1 51.7337 36.607 9.43462
805 1 38.7295 44.6516 32.1635
806 1 13.2885 15.3354 37.5338
807 1 55.6629 16.2026 34.8097
808 1 49.029 8.13286 38.3697
809 1 10.583 12.359 1.06239
810 1 8.0211 41.0479 32.3696
811 1 33.486 22.1684 48.2822
812 1 53.6264 16.3781 44.6901
813 1 0.769027 11.3947 2.48848
814 1 45.8795 4.93712 19.9821
815 1 4.70967 8.9549 41.7681
816 1 49.8008 5.04417 35.1577
817 1 44.4408 43.4162 29.2044
818 1 54.7349 48.5946 55.3388
819 1 18.3993 37.3109 43.1356
820 1 53.1456 28.1647 38.1901
821 1 32.15 29.5634 38.7431
822 1 0.816964 3.93359 29.2905
823 1 53.8891 46.4917 37.9888
824 1 54.3244 0.119399 28.4033
825 1 17.431 54.4057 30.0022
826 1 16.5859 50.6841 4.01719
827 1 19.9664 33.7462 22.7922
828 1 35.493 23.6351 25.9569
829 1 49.3655 55.9268 29.7225
830 1 51.5603 43.3537 4.22637
831 2 7.22016 40.2327 39.9407
832 2 24.1672 14.3446 3.34109
833 2 20.2434 43.2313 23.524
834 2 43.3401 26.9942 46.973
835 2 25.0212 0.136417 27.7229
836 2 23.8038 14.3184 32.3925
837 2 15.5674 27.1565 17.5939
838 2 22.9237 42.6332 47.5067
839 2 28.4542 35.5335 31.4456
840 2 19.7962 16.1418 53.6202
841 2 15.7741 27.1982 26.8105
842 2 47.2108 9.53781 45.6918
843 2 42.2737 1.46685 29.8658
844 2 31.3064 15.2702 18.5447
845 2 8.5486 51.8187 16.0017
846 2 41.5268 41.083 48.5756
847 2 48.8183 55.0757 10.5401
848 2 47.7876 44.2884 25.9139
849 2 23.1543 17.4722 34.6793
850 2 22.6637 32.2227 44.6656
851 2 48.1193 0.0959914 53.8101
852 2 46.5834 38.7667 20.3847
853 1 35.6856 45.6421 9.50801
854 1 30.3062 42.3194 46.6435
855 1 47.535 26.688 15.2134
856 1 10.0871 23.8126 34.6014
857 1 55.0251 17.1679 40.5342
858 1 14.3538 50.4575 48.8576
859 1 35.3488 24.7137 41.0796
860 1 9.34829 37.7728 3.88015
861 1 52.0227 36.583 29.2994
862 1 54.1937 30.5728 5.67214
863 1 33.1556 11.6681 10.1569
864 1 47.6049 26.7272 49.4237
865 1 14.5413 26.3728 14.5793
866 1 12.4638 34.0499 -0.0439112
867 1 50.5248 21.9304 37.1595
868 1 49.2788 1.80328 34.4351
869 1 53.5565 26.4747 52.4002
870 1 33.3676 24.6103 20.9691
871 1 10.0894 27.9118 15.1417
872 1 53.2122 37.6586 40.8838
873 1 12.6504 39.2519 32.3742
874 1 53.9574 45.9833 1.47673
875 1 41.4886 29.5325 48.1513
876 1 0.190938 16.7405 31.4345
877 1 -0.121272 27.49 22.6169
878 1 4.45341 35.7626 20.15
879 1 10.8162 13.9995 31.1621
880 1 51.5573 11.7244 2.22483
881 1 31.9695 13.6016 47.8579
882 1 44.799 22.5663 52.7864
883 1 26.4559 14.1395 13.8487
884 1 51.5612 54.3304 36.4789
885 1 29.9573 23.0488 1.44444
886 1 39.6152 47.7492 2.01948
887 1 7.09106 15.675 19.6039
888 1 2.80147 29.9789 46.8884
889 1 46.2822 7.86946 34.1993
890 1 54.9225 3.02115 6.34555
891 1 52.8499 20.4025 37.7949
892 1 37.269 54.5406 20.8668
893 1 14.5486 51.5631 33.9905
894 1 9.08859 41.2571 9.63306
895 1 3.6807 49.2998 40.2054
896 1 2.65374 40.8402 17.9542
897 1 28.1453 53.2227 10.3623
898 1 41.0159 35.3397 42.6976
899 1 16.5201 19.4686 32.1435
900 1 9.39196 27.6774 2.33768
901 1 33.9689 37.7826 41.7355
902 1 25.822 45.8571 26.1263
903 1 3.79613 26.3278 8.71662
904 1 35.9574 35.4875 11.5369
905 1 28.1299 30.0216 22.3792
906 1 17.4611 36.1271 7.49084
907 1 34.9214 50.4834 13.9644
908 1 1.58098 6.05678 34.8911
909 1 40.5102 2.96991 42.3261
910 1 52.6254 38.2257 7.38439
911 1 12.8013 8.65905 24.8072
912 1 17.039 18.5171 36.6221
913 1 4.12361 45.2373 6.04749
914 1 53.1049 51.8471 31.1155
915 1 18.4828 21.5009 39.3741
916 1 28.3002 26.7966 40.1747
917 1 35.1626 55.8885 4.11649
918 1 50.4406 35.1057 14.4719
919 1 48.5706 40.6239 38.6804
920 1 12.0782 38.586 38.6776
921 1 31.6087 54.939 11.4075
922 1 17.5435 41.7697 31.8901
923 1 49.9402 5.66628 38.6276
924 1 0.683148 11.4679 16.2325
925 1 45.3853 55.5762 4.68742
926 1 27.6573 49.6207 51.4205
927 1 52.7227 49.0644 43.4832
928 1 42.2244 11.9781 12.7387
929 1 49.9897 33.0961 7.36467
930 1 38.2348 0.674678 19.8562
931 1 16.9719 25.3238 31.8038
932 1 12.8481 49.0993 52.8074
933 1 30.6003 7.1027 43.5433
934 1 24.7171 51.3462 54.5761
935 1 5.46836 39.1888 55.1711
936 1 7.27561 32.9982 12.0162
937 1 34.0674 0.764021 42.6985
938 1 36.4637 6.15484 40.2663
939 1 5.31951 29.2786 16.0805
940 1 7.65088 39.0646 53.2473
941 1 36.4841 6.43272 35.4767
942 1 15.1561 46.6973 45.5302
943 1 33.5324 36.4666 34.2731
944 1 9.19953 41.4762 16.0718
945 1 44.7503 21.0282 44.625
946 1 9.78259 42.577 44.3523
947 1 41.193 31.1344 40.926
948 1 15.5899 55.6764 43.9667
949 1 49.5726 50.214 15.7335
950 1 39.3478 27.4976 50.5204
951 1 15.0932 43.392 53.9789
952 1 44.1856 0.945835 48.3871
953 1 26.059 22.3889 51.1279
954 1 11.0431 45.6278 40.639
955 1 13.0895 21.8752 15.287
956 1 12.0977 20.2713 8.32462
957 1 46.9351 43.7455 51.2174
958 1 8.41311 25.6117 36.4671
959 1 31.5159 49.9954 35.3189
960 1 53.6288 14.1125 12.3851
961 1 36.9449 41.3564 42.6686
962 1 54.8475 6.39991 18.7604
963 1 7.55455 30.4042 47.0525
964 1 25.3123 14.6608 44.3219
965 1 15.2499 30.5923 35.7492
966 1 24.9853 42.6291 31.3081
967 1 10.6557 9.54927 11.0432
968 1 42.5748 9.70859 53.6026
969 1 32.0012 37.4587 50.487
970 1 30.9006 17.2477 15.6212
971 1 45.2065 6.18947 42.3063
972 1 52.3901 8.51774 51.5826
973 2 45.2759 4.43144 25.8729
974 2 45.9922 39.3529 35.0928
975 2 53.3617 39.0674 27.6874
976 2 17.2676 30.5179 49.8723
977 2 52.8629 36.2203 16.3034
978 2 52.66 36.1537 19.8453
979 2 33.0321 42.6652 40.4274
980 2 55.0327 6.3196 44.7396
981 2 36.4358 11.7057 9.74631
982 2 54.311 29.7465 49.1647
983 2 12.2517 31.3103 1.20085
984 2 46.2659 22.736 34.2728
985 2 52.114 2.59208 13.0296
986 2 7.28928 18.4774 37.6417
987 2 20.3889 6.63971 5.2876
988 2 2.39415 26.723 51.7186
989 2 39.9483 27.9976 32.3695
990 2 54.0469 10.1128 15.1179
991 2 22.9494 21.1846 17.7747
992 2 16.3873 15.646 54.9723
993 2 1.60786 15.5852 55.8269
994 2 53.3889 22.9254 35.2701
995 1 54.334 3.21568 43.613
996 1 51.3209 25.1417 46.9342
997 1 24.6632 2.21147 47.9444
998 1 3.25357 49.2516 26.8203
999 1 25.2768 51.0314 52.1489
1000 1 19.4878 9.13751 47.9734
1001 1 30.5757 30.3338 36.5583
1002 1 52.627 26.2925 8.60965
1003 1 13.9401 28.822 30.8157