ITEM: TIMESTEP
0
ITEM: NUMBER OF ATOMS
9088
ITEM: BOX BOUNDS pp pp pp
-2.8557234358699540e-01 5.6170064969514819e+01
-2.8557234358699540e-01 5.6170064969514819e+01
-2.8557234358699540e-01 5.6170064969514819e+01
ITEM: ATOMS id type x y z
1 1 29.6886 41.9391 51.4218
2 1 44.2434 4.60583 36.5363
3 1 36.6482 6.81435 43.0313
4 1 36.7336 49.5747 43.9735
5 1 11.2393 34.5877 8.21427
6 1 38.995 30.9268 30.886
7 1 20.0772 33.1044 1.26833
8 1 0.904638 4.41838 6.40045
9 1 55.9481 50.3191 40.1112
10 1 37.0077 13.292 53.5303
11 1 48.7656 35.6622 32.7389
12 1 35.4389 19.3739 36.5194
13 1 21.7341 48.56 36.9224
14 1 22.3887 49.6456 51.0535
15 1 3.14483 36.9986 30.1061
16 1 30.0123 54.5001 33.9479
17 1 49.9296 9.7123 28.3049
18 1 9.34433 50.9003 26.1633
19 1 30.3408 23.8149 52.2962
20 1 45.554 6.01061 52.588
21 1 25.4325 49.0637 50.7165
22 1 9.56956 41.819 1.71193
23 1 20.7949 15.1859 37.022
24 1 3.20081 7.83067 55.2208
25 1 23.994 28.3795 40.1822
26 1 19.8537 28.2051 43.5954
27 1 34.896 29.0328 54.4899
28 1 17.588 29.8285 17.6123
29 1 16.4342 50.578 43.456
30 1 43.1586 10.1907 50.2288
31 1 33.2853 6.79002 3.33375
32 1 33.7212 5.47431 23.3072
33 1 24.4241 41.7398 2.51799
34 1 14.6659 24.9143 1.54375
35 1 20.9219 51.0914 40.9367
36 1 24.815 44.0901 12.5343
37 1 23.8007 55.9333 47.0243
38 1 20.1681 29.0105 6.22368
39 1 13.2365 26.4084 -0.157396
40 1 9.0391 11.4826 47.6234
41 1 46.8703 41.1341 1.19033
42 1 5.68505 38.7667 15.0179
43 1 21.4585 16.744 9.58915
44 1 50.7439 51.9462 23.7181
45 1 13.062 43.655 -0.273605
46 1 -0.276648 17.6914 11.0382
47 1 42.3424 6.10218 32.1986
48 1 15.1173 30.5741 16.6917
49 1 7.50909 25.1388 24.1588
50 1 17.341 16.625 24.2651
51 1 50.5853 32.2705 30.2399
52 1 22.3366 10.1845 37.5775
53 1 52.6028 20.6249 1.02131
54 1 55.3287 27.037 41.9023
55 1 39.6699 44.7347 29.4952
56 1 8.17055 21.1832 49.6796
57 1 6.96342 33.2857 34.7681
58 1 37.5267 11.454 21.488
59 1 5.51013 30.7187 28.5447
60 1 36.5288 32.7636 54.7554
61 1 14.142 31.9077 52.6315
62 1 53.1208 22.3815 24.3839
63 1 49.3794 43.406 28.8014
64 1 22.0222 4.12415 16.3951
65 1 11.0614 42.4108 48.0207
66 1 7.89544 45.1675 10.2723
67 1 12.272 42.9529 52.9453
68 1 11.3893 33.9449 52.4991
69 1 37.2749 38.329 46.0067
70 1 2.11101 28.4854 5.22538
71 1 52.0767 46.879 28.1639
72 1 55.537 29.7366 1.49519
73 1 31.9476 55.3577 11.134
74 1 2.76225 35.3647 45.8593
75 1 37.5885 19.4381 5.37324
76 1 38.2286 23.986 5.791
77 1 47.2262 40.1582 31.8792
78 1 42.4444 53.3969 14.3806
79 1 31.6034 23.1953 42.8443
80 1 39.1803 -0.136253 31.1461
81 1 17.2721 28.1094 54.4304
82 1 50.4432 1.05204 23.8258
83 1 8.45097 17.1524 26.1501
84 1 36.4734 2.05875 4.0288
85 1 39.4591 10.6309 38.3606
86 1 34.8274 34.3736 34.6655
87 1 27.2785 9.74358 33.5419
88 1 15.5982 11.2825 12.8048
89 1 4.52269 50.5208 34.1644
90 1 0.998321 39.8616 51.7404
91 1 18.1062 7.69036 22.0065
92 1 9.86153 12.0491 19.0624
93 1 38.4258 9.71243 11.4416
94 1 35.6509 34.6124 28.8379
95 1 40.6618 24.766 18.6695
96 1 7.09068 0.0430437 13.9277
97 1 3.39901 8.55713 33.0215
98 1 15.0738 13.4341 30.0858
99 1 42.1827 36.6059 5.50549
100 1 3.33217 6.01871 27.1801
101 1 0.666792 33.7896 47.4287
102 1 5.08359 0.78832 11.9688
103 1 41.6694 43.2616 56.0982
104 1 14.427 54.8778 39.4096
105 1 31.6008 14.0994 10.4821
106 1 19.0768 48.1676 47.4805
107 1 42.0019 14.5186 48.3302
108 1 46.8455 17.0854 47.3076
109 1 10.4403 45.7956 16.6035
110 1 31.3908 9.08095 10.8155
111 1 38.2325 53.3454 10.0613
112 1 8.09899 5.87364 11.0229
113 1 28.841 33.4763 11.6548
114 1 24.4443 16.6964 40.3298
115 1 42.8486 34.8076 31.186
116 1 32.0982 5.6769 38.1026
117 1 56.0809 12.2343 40.4461
118 1 2.32661 49.8377 35.2037
119 1 36.5487 36.5052 34.0288
120 1 15.1765 2.15878 40.3256
121 2 11.8651 39.0612 35.4118
122 2 51.2926 18.4897 12.6215
123 2 55.2642 46.6056 20.9269
124 2 52.703 29.91 19.7193
125 2 54.005 35.4721 38.5062
126 2 25.1372 7.45971 17.8283
127 2 12.2175 51.4085 15.6761
128 2 7.74686 30.2626 35.388
129 2 55.2423 17.7504 7.74038
130 2 1.27121 21.1777 45.8959
131 2 52.3791 11.7868 47.1288
132 2 39.2093 46.4466 17.6698
133 2 34.7958 42.9038 15.8543
134 2 14.9156 5.0709 8.81923
135 2 42.7904 33.9047 3.58178
136 2 9.90966 0.587165 32.1619
137 2 40.8824 24.1253 46.4563
138 2 5.12447 4.70869 49.5295
139 2 31.0936 14.7216 13.6318
140 2 45.5488 26.9596 38.9198
141 2 7.68865 38.4311 22.9543
142 2 29.4262 23.4529 40.3518
143 1 48.7239 21.6399 41.7651
144 1 29.4898 17.5843 13.7642
145 1 54.269 12.3371 6.48086
146 1 52.1306 26.6027 15.2467
147 1 29.1602 28.0427 32.8079
148 1 26.3897 7.20567 38.4244
149 1 47.6114 6.57851 47.0351
150 1 24.9752 25.3016 9.55047
151 1 51.4986 25.4602 52.2413
152 1 10.0662 33.6089 45.2262
153 1 49.9568 48.414 29.3293
154 1 43.3735 42.1241 30.8498
155 1 32.1239 18.6654 10.2205
156 1 9.83362 34.1084 10.6811
157 1 51.7979 34.0093 22.1021
158 1 47.2235 11.3741 48.8312
159 1 1.58757 47.0005 8.17873
160 1 48.2962 4.03564 0.370345
161 1 10.3652 25.3293 21.3813
162 1 12.9728 12.8386 44.057
163 1 20.0936 21.2256 26.7751
164 1 55.7397 38.6198 11.77
165 1 51.3943 35.8395 6.64071
166 1 45.0027 41.8729 14.5641
167 1 31.2079 39.7405 46.416
168 1 44.922 9.98435 48.1191
169 1 28.1301 48.1694 40.9245
170 1 39.7376 33.8359 47.0273
171 1 29.2953 35.4493 24.9389
172 1 21.259 43.9829 28.4089
173 1 14.0584 40.2664 9.64394
174 1 35.1612 1.43771 33.0563
175 1 18.6234 27.6509 16.5472
176 1 39.3703 36.8424 6.43264
177 1 9.82329 5.08788 24.9277
178 1 16.6622 4.17566 11.7644
179 1 25.2348 45.0708 46.2721
180 1 55.331 27.2647 8.22975
181 1 48.7748 42.8968 31.7656
182 1 49.7775 30.1319 52.5751
183 1 13.2701 20.6229 3.8978
184 1 25.8545 53.0098 12.0287
185 1 33.4073 10.0767 34.1656
186 1 44.1299 26.5263 26.8536
187 1 1.22186 6.77692 53.5224
188 1 28.7995 38.8769 3.79569
189 1 13.3369 41.2625 33.8807
190 1 35.8399 48.7979 21.7955
191 1 17.7533 20.864 49.6871
192 1 49.8127 54.3955 6.20994
193 1 37.2246 8.50532 13.8541
194 1 36.0568 3.37502 31.2782
195 1 12.3653 22.1307 50.6052
196 1 44.1115 4.55714 22.9586
197 1 6.67092 9.09859 49.3003
198 1 7.0712 21.8358 23.2904
199 1 31.9271 18.9328 3.27725
200 1 39.746 20.4532 41.5081
201 1 26.6244 12.9254 16.1782
202 1 39.3478 1.66039 2.93289
203 1 31.0599 27.518 37.0894
204 1 40.9549 27.3233 19.3697
205 1 7.87049 12.2635 2.50817
206 1 41.679 27.8195 24.6325
207 1 51.6989 46.1532 42.6431
208 1 31.9303 5.15603 10.7441
209 1 47.2294 8.43994 48.9519
210 1 27.2666 21.6922 41.883
211 1 8.62943 5.76536 21.6167
212 1 46.1394 31.259 44.8679
213 1 22.3695 12.3558 51.4131
214 1 1.12019 37.709 2.31942
215 1 10.5283 33.0943 23.298
216 1 -0.0480372 24.5816 51.1737
217 1 21.7585 8.77696 35.363
218 1 1.35742 9.92329 54.3756
219 1 44.0368 49.4558 7.69745
220 1 43.5986 14.8201 50.9184
221 1 28.0033 51.5468 16.8333
222 1 3.00411 5.26576 20.1213
223 1 26.2551 44.0257 2.72046
224 1 41.3856 50.8354 13.0087
225 1 43.6882 49.1183 38.202
226 1 12.5111 42.327 25.4171
227 1 20.3326 46.1535 33.2663
228 1 -0.217783 20.6148 52.9765
229 1 13.1546 26.1129 42.2849
230 1 30.9945 29.7787 41.333
231 1 32.1649 35.2193 25.2146
232 1 41.0849 16.7425 17.8212
233 1 50.7673 50.4599 38.1024
234 1 10.6337 14.1914 51.43
235 1 42.4533 21.4404 45.7632
236 1 1.37659 51.8748 29.7871
237 1 52.9047 29.5577 22.9704
238 1 36.2208 0.15979 1.48913
239 1 33.6913 28.6852 6.01071
240 1 9.30735 32.7068 51.1246
241 1 20.252 49.2436 10.6755
242 1 32.593 11.1504 3.09036
243 1 5.44536 21.8131 30.1052
244 1 2.15116 47.2718 5.30145
245 1 1.58813 27.7334 20.026
246 1 4.33156 0.446422 -0.262646
247 1 55.9012 48.4392 13.3758
248 1 43.9314 0.413717 45.8619
249 1 10.4988 44.9883 48.6133
250 1 23.4451 24.5432 17.9368
251 1 17.2306 36.2457 7.30489
252 1 47.736 16.3683 38.8852
253 1 2.8914 27.2389 48.1592
254 1 12.4867 9.22868 35.201
255 1 55.223 9.25195 18.0961
256 1 30.892 47.994 24.5227
257 1 1.38178 12.3051 35.0277
258 1 33.1678 18.1684 27.5554
259 1 45.5268 46.2089 55.2374
260 1 25.1657 41.6088 34.0014
261 1 32.1579 10.442 39.5891
262 1 21.9851 39.2379 9.33679
263 2 44.2272 24.6242 29.2939
264 2 25.4873 47.274 1.71992
265 2 49.9459 7.036 49.1821
266 2 7.21176 24.671 38.4891
267 2 14.8947 21.4161 1.13953
268 2 4.57111 3.1054 24.7861
269 2 15.2843 2.32158 16.7019
270 2 44.613 43.4878 53.6022
271 2 54.1625 44.9041 26.2424
272 2 33.2223 40.2731 13.6342
273 2 33.1569 5.9611 34.9917
274 2 53.0958 27.0239 30.7078
275 2 27.1553 6.92694 53.2487
276 2 56.0876 13.7891 4.13032
277 2 1.02681 43.1623 39.3675
278 2 11.7649 34.5023 18.4732
279 2 43.9882 51.3254 46.8355
280 2 19.7218 55.4819 22.0475
281 2 41.4539 17.0383 14.6809
282 2 15.1787 28.9417 8.01672
283 2 46.9155 47.9442 28.8223
284 2 17.1483 27.2305 34.4512
285 1 4.48406 35.6995 5.81932
286 1 49.5587 34.8929 20.4204
287 1 44.5354 1.67433 36.4214
288 1 21.0819 13.0372 24.5571
289 1 24.6812 35.0729 5.81525
290 1 50.9964 13.1606 24.3158
291 1 18.086 44.5824 34.4474
292 1 40.9238 5.67119 44.2139
293 1 54.8117 19.4949 55.6993
294 1 30.9619 32.6035 41.6731
295 1 47.3371 25.334 29.7777
296 1 12.4386 32.5375 35.24
297 1 48.4802 14.4056 33.7039
298 1 30.8555 22.2542 13.261
299 1 33.6416 17.2033 17.2459
300 1 24.6678 31.699 9.48998
301 1 24.6895 49.9613 23.4315
302 1 46.4579 33.4749 26.0846
303 1 53.9565 3.33284 1.34243
304 1 10.9185 38.0723 53.963
305 1 25.4805 38.5584 23.1009
306 1 28.8464 52.3087 33.1737
307 1 5.03334 40.0453 32.3526
308 1 39.8679 54.1586 45.3909
309 1 49.7387 30.6493 28.4474
310 1 12.3879 47.7677 37.94
311 1 38.0605 35.0954 4.81784
312 1 10.2961 8.00194 26.0698
313 1 5.04819 55.6566 18.2087
314 1 29.136 47.3187 53.4557
315 1 4.43124 6.16619 14.8093
316 1 44.2142 10.2321 10.3392
317 1 30.4071 32.0551 38.9115
318 1 5.78772 23.2603 11.1764
319 1 3.03616 2.20834 17.9808
320 1 19.2786 33.7294 25.3406
321 1 26.4043 38.6085 34.0253
322 1 55.3597 21.6742 22.9671
323 1 9.2268 8.22494 32.8481
324 1 18.3831 8.5723 32.2912
325 1 21.7521 46.1594 43.0189
326 1 16.7555 32.1577 40.9855
327 1 14.7655 11.3027 35.3352
328 1 0.31783 8.2854 36.8098
329 1 4.31196 25.4258 45.0595
330 1 8.01098 31.1463 29.942
331 1 14.5531 37.4129 53.4386
332 1 0.475759 46.0493 14.0495
333 1 16.7687 7.69094 9.75783
334 1 33.5328 35.3071 22.94
335 1 38.7292 3.07436 50.8625
336 1 50.0405 21.3217 12.8486
337 1 0.933155 34.3393 7.65866
338 1 9.12583 21.41 27.8639
339 1 16.8846 20.3424 42.5172
340 1 24.9688 23.0635 26.0296
341 1 26.5697 51.3887 25.2745
342 1 -0.17072 27.2752 18.0036
343 1 35.9392 13.5584 27.3943
344 1 33.2422 15.788 11.3103
345 1 48.7593 16.7403 3.69137
346 1 0.256309 6.67994 23.7869
347 1 19.5384 18.2783 10.9439
348 1 12.7591 10.5692 22.6477
349 1 4.3411 37.3367 10.2521
350 1 54.5432 47.9633 50.5067
351 1 44.7649 35.6703 5.32836
352 1 19.1568 8.38118 52.4253
353 1 24.3807 34.7285 53.8555
354 1 46.3884 39.4977 38.1532
355 1 48.899 28.4361 38.5851
356 1 9.56545 40.4111 42.9459
357 1 19.835 49.5552 49.9442
358 1 12.8167 20.4229 46.5753
359 1 29.0356 44.8909 46.4098
360 1 16.587 38.3792 45.5256
361 1 37.9543 22.0846 50.9785
362 1 3.25203 47.2075 10.7589
363 1 44.5077 18.22 14.6419
364 1 41.4525 0.453202 33.3027
365 1 38.774 0.860134 19.9047
366 1 15.6474 34.5171 14.42
367 1 52.5749 48.4309 36.4621
368 1 40.3943 45.03 26.691
369 1 33.3573 14.4482 15.9142
370 1 3.36355 40.8946 50.7635
371 1 17.2849 27.7269 47.2746
372 1 13.7777 22.49 33.5614
373 1 19.3416 51.4976 43.1596
374 1 47.2384 50.1942 2.30276
375 1 2.12166 52.0125 36.567
376 1 42.8104 48.9692 24.9199
377 1 5.85048 24.3947 55.7677
378 1 29.3355 52.8701 21.545
379 1 51.5724 39.4902 20.3594
380 1 11.0219 12.8904 26.7612
381 1 26.3032 50.1572 29.3237
382 1 55.3199 22.5073 8.56361
383 1 10.9059 18.805 23.4624
384 1 49.5252 16.4317 32.6626
385 1 29.5961 8.98989 19.6149
386 1 36.2419 39.2376 23.3836
387 1 19.8866 36.1612 37.676
388 1 24.2707 7.20971 40.4992
389 1 26.3368 11.1068 14.4061
390 1 45.5597 48.994 31.7471
391 1 6.86395 9.14877 6.81741
392 1 48.3445 49.2982 37.3645
393 1 3.23695 27.8723 0.877997
394 1 3.02301 37.9004 46.3205
395 1 55.0324 7.4306 48.2817
396 1 14.6977 6.78112 26.1749
397 1 49.7986 25.8892 22.1364
398 1 18.3845 27.9898 51.7041
399 1 6.78438 54.4833 41.9533
400 1 35.9254 42.9506 27.818
401 1 18.4095 30.7357 24.7664
402 1 31.7623 48.23 43.6114
403 1 13.1016 42.7833 28.4696
404 1 26.9807 34.5891 45.8429
405 2 19.9158 8.09395 14.5587
406 2 36.0524 30.8139 7.6748
407 2 34.7094 13.2248 12.9011
408 2 24.9594 49.797 12.4954
409 2 46.0329 0.264454 16.7422
410 2 36.8618 49.1023 16.3255
411 2 5.77228 41.5234 16.9691
412 2 53.6621 9.028 35.8382
413 2 31.0221 21.5884 45.456
414 2 12.7708 34.9699 47.6855
415 2 55.8362 52.112 9.34881
416 2 51.8267 42.8258 55.4306
417 2 43.8745 4.9932 10.2714
418 2 7.2292 35.8186 11.1682
419 2 15.5745 54.7591 22.4388
420 2 23.5939 23.2968 23.2785
421 2 41.6024 49.7678 9.94476
422 2 32.1083 16.2277 8.20981
423 2 7.91809 0.487286 43.5289
424 2 52.3373 10.4374 4.58927
425 2 47.9799 52.041 39.1461
426 2 37.3985 8.35348 38.0627
427 1 15.9055 25.2054 42.5255
428 1 52.295 51.823 1.61588
429 1 56.035 27.5637 51.1421
430 1 37.6619 3.71543 24.8479
431 1 20.2861 47.5417 25.7514
432 1 42.2187 7.91196 6.29157
433 1 38.413 17.0304 18.4843
434 1 15.4706 22.588 43.542
435 1 23.0046 52.2844 8.22166
436 1 32.5296 31.6548 48.6172
437 1 25.8133 24.455 33.406
438 1 47.0485 3.20353 35.6744
439 1 1.36416 38.411 53.9556
440 1 8.04825 14.9466 27.6711
441 1 22.3226 14.1919 10.8665
442 1 42.7419 18.5765 17.0892
443 1 46.7898 10.7527 21.8303
444 1 53.1346 41.7532 45.3577
445 1 4.9832 14.6619 17.8045
446 1 38.4762 31.7712 39.7951
447 1 20.7507 52.0023 10.4
448 1 31.5544 14.0435 54.4917
449 1 54.4287 7.10192 29.0348
450 1 44.9601 34.7295 1.55984
451 1 26.1042 50.0744 17.8672
452 1 43.5158 12.7233 34.0156
453 1 8.23596 23.0836 25.7788
454 1 6.35003 33.8901 54.3777
455 1 16.7383 14.0306 23.4343
456 1 45.9374 3.70371 51.4776
457 1 53.679 38.9689 18.5005
458 1 27.1799 20.01 36.9587
459 1 2.73621 35.0137 9.90669
460 1 25.3382 55.5716 35.2153
461 1 8.11412 16.6744 17.4094
462 1 48.4556 28.0159 9.495
463 1 13.0906 6.87601 6.16651
464 1 31.9129 52.8211 22.8531
465 1 6.72892 49.5734 20.2858
466 1 4.37205 47.596 7.78262
467 1 47.2123 11.228 38.041
468 1 43.8994 51.7766 6.06181
469 1 13.0651 39.6778 24.1249
470 1 29.2828 2.75685 16.0053
471 1 26.7032 9.90779 3.73778
472 1 13.8078 40.6104 29.7149
473 1 48.6092 38.5713 47.0232
474 1 40.1465 13.6685 13.839
475 1 22.8234 25.1987 20.3798
476 1 8.52548 25.4008 36.0345
477 1 48.9885 3.10499 37.4983
478 1 44.5437 6.9014 13.1077
479 1 55.6132 25.9097 35.168
480 1 40.9137 8.16601 3.79532
481 1 25.5269 1.41837 51.2719
482 1 30.2113 37.2445 22.6925
483 1 46.4548 19.5209 34.2917
484 1 5.25292 37.7429 7.14101
485 1 18.4023 45.2992 25.117
486 1 47.2177 7.73684 42.7824
487 1 21.0015 12.5626 22.045
488 1 11.1197 44.3043 21.592
489 1 3.09925 44.2881 13.7178
490 1 24.3088 49.8961 26.0965
491 1 13.5759 29.6596 47.216
492 1 27.1836 24.7105 41.8645
493 1 44.2595 30.4871 33.683
494 1 4.96645 54.894 13.2837
495 1 11.7419 33.806 12.7329
496 1 39.0906 17.8006 37.4112
497 1 7.02084 17.1209 32.1305
498 1 19.4249 20.5291 8.44693
499 1 33.7444 29.8534 20.0751
500 1 51.276 2.4559 38.9832
501 1 14.9507 47.7572 38.6827
502 1 51.0227 43.4014 6.81724
503 1 43.896 22.0527 48.2864
504 1 40.1509 47.4503 31.4598
505 1 40.538 25.5072 5.04889
506 1 22.6198 27.3588 42.3869
507 1 53.2811 54.5623 32.4366
508 1 10.8519 42.838 17.437
509 1 53.3257 29.1259 7.91105
510 1 30.4929 0.572721 3.65518
511 1 49.9038 5.57688 6.00392
512 1 14.2532 50.7101 12.6299
513 1 30.1757 28.7304 29.6558
514 1 28.2859 27.932 20.8435
515 1 29.1967 12.4619 27.3488
516 1 5.15225 40.5284 37.2161
517 1 15.719 3.2813 -0.0344762
518 1 23.9595 12.4083 13.5277
519 1 7.98148 12.3624 44.959
520 1 36.0007 17.4224 4.50303
521 1 45.8602 24.9279 32.1798
522 1 7.30181 16.9535 0.645266
523 1 38.8178 1.39294 25.6352
524 1 39.9217 52.1231 32.0627
525 1 25.6824 41.6928 22.5706
526 1 29.3809 14.6882 30.7315
527 1 28.9829 54.7149 23.5873
528 1 2.33282 6.78597 6.47036
529 1 40.4135 8.08564 33.8227
530 1 37.8327 14.0932 12.0589
531 1 50.2895 10.9615 45.325
532 1 35.4581 10.0652 11.8914
533 1 38.6911 9.28275 19.7902
534 1 19.5403 35.6687 20.1581
535 1 44.0509 55.8967 31.9006
536 1 37.1391 20.4959 14.5814
537 1 18.9167 22.209 20.7326
538 1 7.40061 16.7753 51.8492
539 1 28.9216 38.0208 32.9367
540 1 48.3997 11.9491 16.1605
541 1 42.6273 5.61241 7.46849
542 1 33.0357 48.0705 35.9878
543 1 38.0438 45.0937 35.2688
544 1 31.7537 34.7385 15.1678
545 1 52.1636 24.8273 5.97056
546 1 22.1667 52.8544 42.9527
547 2 15.3255 40.9984 26.5368
548 2 12.8415 46.9814 1.29841
549 2 34.8848 47.8988 25.6675
550 2 55.6765 51.8626 13.2325
551 2 52.5982 6.82967 17.1107
552 2 9.95165 6.78473 35.5535
553 2 37.6554 10.0766 16.9934
554 2 23.3319 5.6874 53.2351
555 2 14.6963 13.172 21.4436
556 2 12.7906 41.6221 43.2521
557 2 13.9301 5.51562 33.9554
558 2 17.4296 32.9632 3.52919
559 2 39.9718 17.1157 21.116
560 2 5.13637 16.5301 29.5951
561 2 38.4956 12.6439 50.9812
562 2 3.74619 19.6657 28.3212
563 2 30.3131 47.1221 35.3192
564 2 16.8647 4.87523 39.9812
565 2 20.3651 22.2943 35.037
566 2 31.1823 13.4186 39.0271
567 2 44.5733 38.6046 0.686319
568 2 43.5407 18.1141 20.1057
569 1 14.4527 1.6751 19.3994
570 1 51.057 34.8114 50.8441
571 1 17.5664 15.671 7.0007
572 1 46.2757 14.7567 53.3726
573 1 14.6525 13.4109 25.1121
574 1 30.0185 46.2284 17.4734
575 1 29.7566 49.8265 42.462
576 1 13.4116 54.8707 9.05902
577 1 1.67867 6.20589 15.6009
578 1 55.2131 40.0558 44.4613
579 1 38.9154 45.7999 46.0483
580 1 22.6733 22.0342 2.32846
581 1 35.5466 8.17342 30.408
582 1 12.1806 41.8776 37.9098
583 1 45.7412 25.7652 18.0737
584 1 28.9176 41.0493 28.9365
585 1 33.4089 8.06923 23.3963
586 1 55.6657 0.0531748 31.2933
587 1 10.7894 1.7688 7.37924
588 1 8.92256 44.1648 46.7887
589 1 32.4393 45.3295 50.3974
590 1 1.51353 9.10045 7.69023
591 1 12.8102 9.40582 31.1274
592 1 52.6228 33.2917 6.70314
593 1 19.7145 24.3127 37.6847
594 1 2.8469 42.4771 41.9949
595 1 35.5818 14.2183 43.3443
596 1 3.47014 4.71396 39.2207
597 1 29.1053 52.0121 7.30015
598 1 48.6563 47.1787 25.5554
599 1 4.88596 3.69911 13.2864
600 1 11.6016 32.2422 4.31535
601 1 20.3887 41.4434 52.0256
602 1 2.89464 42.5295 15.6807
603 1 27.1551 35.3531 52.5568
604 1 3.18332 20.7902 31.2212
605 1 29.2769 40.7932 25.9502
606 1 27.2349 48.2136 35.231
607 1 38.8232 14.4077 33.6439
608 1 40.2248 16.4658 47.2139
609 1 33.8718 30.4988 12.6746
610 1 43.5212 5.45737 44.7045
611 1 20.9105 45.1629 30.9367
612 1 17.7723 46.8311 45.393
613 1 3.21736 51.5383 0.941881
614 1 53.7494 33.401 10.5274
615 1 5.95475 43.414 41.597
616 1 32.9407 6.55752 52.2401
617 1 16.0547 11.9322 51.8593
618 1 53.5611 50.8794 55.3818
619 1 34.7549 9.61642 25.5568
620 1 31.1209 30.722 27.7191
621 1 52.9011 8.661 27.3807
622 1 5.03863 31.1324 45.6254
623 1 14.9002 44.5478 11.6536
624 1 27.5347 9.51963 55.3076
625 1 11.8764 21.4951 28.5334
626 1 35.6439 25.7948 21.9904
627 1 33.511 38.0166 1.51843
628 1 31.5957 10.3615 17.3229
629 1 40.3403 41.3849 12.0631
630 1 36.3208 0.212437 15.6272
631 1 43.9662 29.4125 13.63
632 1 4.42174 32.4357 26.7939
633 1 16.2074 6.32444 49.5768
634 1 48.4898 46.1129 17.6291
635 1 30.8842 42.7991 24.4322
636 1 5.91192 6.49341 17.2881
637 1 1.78964 17.6378 39.1721
638 1 32.8475 47.5184 55.7873
639 1 28.7507 5.165 4.69075
640 1 21.9897 53.5618 6.16724
641 1 55.5762 47.6445 35.7624
642 1 53.7689 18.4764 10.2933
643 1 43.6094 28.0777 29.124
644 1 20.5165 42.8077 45.8305
645 1 0.691425 19.416 40.9476
646 1 13.1306 31.1386 12.574
647 1 2.99255 29.7009 8.47162
648 1 22.073 19.4303 4.02486
649 1 17.9915 19.5152 20.9342
650 1 15.0508 4.15367 3.04533
651 1 30.5665 33.4326 32.8492
652 1 52.4893 20.3628 43.7827
653 1 52.0536 30.8715 51.5611
654 1 29.4375 33.9826 -0.183139
655 1 40.8532 4.20101 30.5907
656 1 37.0244 52.24 40.2644
657 1 53.0074 33.156 19.858
658 1 24.7708 8.68249 54.9923
659 1 36.8265 36.2319 52.3976
660 1 1.74314 43.8681 6.71336
661 1 46.2659 36.5027 12.9673
662 1 15.6582 41.3978 44.4797
663 1 19.1127 37.8036 35.5878
664 1 54.064 16.809 23.8744
665 1 33.9141 43.2613 22.8836
666 1 14.9558 10.9203 24.1631
667 1 30.0093 18.2159 20.7493
668 1 42.2728 19.9681 49.7416
669 1 50.868 22.7677 15.4219
670 1 52.5691 3.83014 9.85761
671 1 33.3903 2.11739 27.1622
672 1 1.51824 18.4974 8.81112
673 1 11.3995 3.83627 35.9757
674 1 46.3632 51.3797 7.76236
675 1 23.3622 7.60204 33.3881
676 1 -0.189672 15.2882 23.1058
677 1 55.8926 36.2576 54.4369
678 1 15.7193 55.9199 17.8851
679 1 52.6829 12.4125 22.3151
680 1 28.7292 32.118 45.8671
681 1 0.384913 26.1735 48.8123
682 1 7.13755 3.52671 45.2845
683 1 43.0973 12.9879 21.0541
684 1 38.5585 32.2589 37.0122
685 1 22.8795 54.8138 15.0117
686 1 44.7796 15.171 11.2536
687 1 47.1337 55.105 28.4489
688 1 20.4809 7.03442 33.4336
689 2 21.6261 49.5986 23.9139
690 2 30.1268 50.3385 9.84648
691 2 34.2518 26.8401 39.0072
692 2 8.25695 42.2445 49.1229
693 2 44.9125 48.2384 22.5392
694 2 3.16576 51.2314 54.3677
695 2 17.7936 15.2841 45.0933
696 2 16.4234 41.0636 7.95378
697 2 1.26728 18.1183 36.3221
698 2 16.8168 18.8393 6.87543
699 2 44.6187 11.3715 40.0551
700 2 38.213 4.71533 3.65977
701 2 53.6962 27.3791 5.18703
702 2 36.0927 28.9014 27.1902
703 2 49.2563 45.7142 44.203
704 2 54.3895 12.9411 17.8299
705 2 2.30046 37.0748 7.64803
706 2 1.89767 40.6011 44.3248
707 2 47.5414 17.0906 18.8697
708 2 43.3677 54.7624 0.477411
709 2 44.3566 30.3095 42.4351
710 2 53.0545 48.5462 30.8869
711 1 37.443 7.98797 45.5906
712 1 18.7528 30.2975 52.9678
713 1 1.40866 49.5635 43.9592
714 1 40.8553 29.1986 30.0681
715 1 1.06542 11.1868 44.5964
716 1 2.83884 15.1865 51.5892
717 1 49.0395 1.89763 1.96437
718 1 4.78288 41.7477 56.1504
719 1 41.9147 17.0698 52.0904
720 1 18.9584 16.3382 13.4033
721 1 31.1452 6.64694 5.44808
722 1 32.2249 37.7999 55.7717
723 1 19.2947 14.9056 15.9717
724 1 48.6507 37.5292 53.7267
725 1 12.8267 46.0534 34.9922
726 1 31.6478 39.5813 42.709
727 1 28.3269 45.9279 10.5843
728 1 27.8505 0.805423 55.6217
729 1 41.5545 18.1694 42.2555
730 1 11.8991 7.37964 32.8338
731 1 54.0306 10.8331 20.1515
732 1 12.6338 0.997398 14.952
733 1 34.838 55.4174 56.105
734 1 37.2465 43.7727 17.9062
735 1 37.2096 4.86092 0.169468
736 1 51.8652 19.0088 51.1936
737 1 30.9407 41.9332 27.526
738 1 0.509725 11.5867 6.55959
739 1 19.6834 14.3003 6.00579
740 1 40.4107 34.9458 49.363
741 1 53.3978 9.53318 30.1896
742 1 17.7409 35.0454 15.6232
743 1 44.658 29.2896 27.0967
744 1 33.6183 55.5555 40.6859
745 1 44.957 12.635 12.7747
746 1 20.3443 17.6814 20.8009
747 1 0.519748 2.73184 36.2587
748 1 45.6636 52.4622 1.33007
749 1 17.0166 12.9819 42.6141
750 1 23.3283 21.183 6.3785
751 1 18.8147 33.301 33.855
752 1 14.4388 45.5476 37.3842
753 1 20.3446 9.73673 43.7364
754 1 36.341 54.0179 27.3829
755 1 26.3217 18.6193 15.1372
756 1 31.6086 49.2667 54.0782
757 1 9.22973 21.3999 33.9413
758 1 54.5449 27.3076 20.2472
759 1 45.0583 7.3221 18.8212
760 1 19.3358 32.4712 54.5085
761 1 48.869 14.6963 40.7834
762 1 30.7978 52.7362 11.6944
763 1 24.34 17.7035 8.70772
764 1 18.2009 12.9963 21.3533
765 1 42.5278 19.7726 40.2571
766 1 24.6731 29.4313 3.34574
767 1 1.88142 46.0183 22.3833
768 1 25.5671 22.1621 35.6546
769 1 18.0177 48.8009 54.4316
770 1 19.2186 4.06477 4.82175
771 1 11.8467 38.7397 44.2214
772 1 29.6017 13.107 52.5916
773 1 10.3537 16.6257 45.7307
774 1 33.4798 6.99686 25.7934
775 1 46.5329 41.9704 29.8165
776 1 24.9584 55.6232 22.8849
777 1 46.1409 47.8437 25.2987
778 1 22.1128 33.6485 47.9783
779 1 41.0317 26.9587 44.607
780 1 30.9939 47.3714 40.8848
781 1 20.0067 38.2518 25.0545
782 1 4.51227 18.8475 15.4984
783 1 50.1465 0.889189 36.889
784 1 44.3655 27.9532 24.2406
785 1 27.6342 25.9348 48.1616
786 1 15.9904 7.81099 42.1054
787 1 5.81454 31.063 53.9886
788 1 2.1873 10.2644 36.9227
789 1 16.0053 44.4574 26.5765
790 1 51.8046 29.6885 43.3541
791 1 35.304 19.5181 27.2034
792 1 26.2111 55.1188 19.6651
793 1 2.44942 50.4687 22.0312
794 1 29.6311 25.6352 27.649
795 1 -0.276459 20.7781 34.2172
796 1 44.5881 12.2556 4.16944
797 1 18.9218 11.0158 13.8003
798 1 42.4434 26.6731 55.7909
799 1 13.84 42.6833 5.82842
800 1 16.9786 30.8906 54.9002
801 1 49.3316 48.7236 11.2463
802 1 21.9918 13.1834 38.2992
803 1 40.0069 45.2704 40.2312
804 1 51.9248 36.9046 9.5
805 1 38.8854 45.1679 32.2837
806 1 13.2088 14.9608 37.1469
807 1 55.5256 15.8551 34.5445
808 1 49.0691 8.17325 38.6909
809 1 9.14077 14.9723 0.757321
810 1 8.20078 40.7737 32.1294
811 1 33.5988 22.2308 47.9767
812 1 38.1807 3.58932 54.5001
813 1 0.812468 11.5745 2.20651
814 1 45.6311 5.05638 20.3351
815 1 5.05775 8.88335 41.4685
816 1 49.8754 4.48888 35.1512
817 1 44.5816 43.7642 29.0232
818 1 54.9282 47.9907 55.2876
819 1 18.4597 37.6121 42.9914
820 1 53.4563 27.9094 38.2704
821 1 32.1428 29.5214 39.0352
822 1 1.07365 4.3254 28.9616
823 1 53.7585 46.5523 37.9867
824 1 53.9758 54.4689 29.6004
825 1 17.1602 54.3721 30.1011
826 1 16.9718 50.6876 3.79377
827 1 20.0851 34.008 22.553
828 1 31.9264 20.4319 19.9886
829 1 49.3958 56.0324 29.7605
830 1 51.6347 43.5702 4.08559
831 2 7.05937 40.4874 39.9609
832 2 24.0042 14.5867 3.15651
833 2 20.2663 43.253 23.4219
834 2 43.315 26.9198 46.7435
835 2 25.2614 -0.0428624 27.976
836 2 23.7834 14.2958 32.2297
837 2 15.5083 26.9624 17.5314
838 2 23.3684 42.5991 47.5842
839 2 28.789 35.666 31.2421
840 2 19.5999 16.4012 53.7155
841 2 15.5883 27.4707 26.6504
842 2 47.1987 9.53498 45.8102
843 2 42.1593 1.34507 30.0652
844 2 31.3528 15.4802 18.4327
845 2 8.59068 51.9102 16.0779
846 2 41.3483 41.1935 48.5623
847 2 48.8325 55.3934 10.3594
848 2 47.7161 44.0515 26.0255
849 2 22.9068 17.1621 35.0238
850 2 22.5223 32.2251 44.5008
851 2 48.3106 0.00533775 53.83
852 2 46.7465 38.8413 20.4068
853 1 33.5977 53.3583 13.0002
854 1 30.3813 42.4095 46.5049
855 1 47.5539 27.0446 14.8605
856 1 8.81946 28.1906 29.9104
857 1 55.1637 17.0907 40.2584
858 1 14.0545 50.3715 48.7927
859 1 36.7569 24.8969 38.7504
860 1 9.30255 37.6553 3.85919
861 1 52.0791 36.5075 29.2515
862 1 54.6546 30.8793 5.53448
863 1 33.6373 11.7016 10.2575
864 1 47.8985 26.631 49.3151
865 1 14.4745 26.3758 14.5083
866 1 12.0592 32.3473 54.8048
867 1 50.738 21.6347 37.2502
868 1 49.3775 1.52409 34.4315
869 1 53.6701 26.7847 52.4962
870 1 33.4103 24.5601 21.0025
871 1 10.2934 28.038 15.0895
872 1 53.5147 37.5343 40.8412
873 1 14.8343 37.8689 31.1626
874 1 54.2876 46.0068 1.42829
875 1 41.7831 29.4259 48.1596
876 1 55.807 17.4417 28.8223
877 1 -0.0932991 27.5458 22.6697
878 1 4.29111 35.7161 20.1316
879 1 10.4748 14.4504 31.0053
880 1 51.7873 11.6219 1.70019
881 1 32.2264 13.1302 47.7657
882 1 44.8398 22.4503 52.6968
883 1 29.2997 22.0499 8.13967
884 1 51.6355 54.1997 36.588
885 1 29.8375 22.9073 1.16337
886 1 39.3287 47.8532 1.71805
887 1 6.99868 15.5056 19.7482
888 1 2.71449 30.015 47.4338
889 1 46.3105 7.71268 34.4797
890 1 55.8154 7.25134 6.78347
891 1 53.2685 20.4478 38.0349
892 1 41.4907 0.540231 21.7462
893 1 14.5603 51.6467 33.9815
894 1 8.99895 40.9759 9.98951
895 1 3.96292 47.4035 39.8225
896 1 2.59394 40.9872 17.8764
897 1 28.3515 53.307 10.2812
898 1 40.9566 35.1935 42.2708
899 1 16.6943 18.9159 32.1245
900 1 6.93844 19.7719 51.7826
901 1 34.3109 37.4864 42.0878
902 1 25.7324 45.7479 26.1286
903 1 3.68102 26.5064 8.6635
904 1 35.6429 35.8048 11.7676
905 1 28.3512 30.5695 22.1771
906 1 17.7478 36.3384 9.85905
907 1 19.9213 42.9278 14.5511
908 1 1.30548 6.24996 34.8447
909 1 45.4571 3.04419 40.9307
910 1 52.566 38.3055 7.38132
911 1 12.6508 8.81563 25.0347
912 1 16.9876 18.2657 36.8149
913 1 56.1023 48.9515 7.62398
914 1 52.9733 52.1208 31.1593
915 1 20.6976 19.2323 46.4315
916 1 26.2319 27.5807 38.6839
917 1 35.2819 55.9766 4.2493
918 1 50.3223 34.9959 14.749
919 1 51.0211 40.8539 37.1117
920 1 11.9701 38.4162 38.801
921 1 39.0327 46.4325 4.21592
922 1 17.6963 41.8083 31.9918
923 1 51.8713 3.2451 36.6547
924 1 0.199384 11.5827 16.5278
925 1 45.3154 54.243 7.16038
926 1 27.889 49.6501 52.0332
927 1 53.3484 47.7183 47.9871
928 1 43.6034 9.59516 13.0749
929 1 49.9301 33.3262 6.96999
930 1 36.7149 48.3252 6.32067
931 1 16.9876 25.4046 31.5699
932 1 8.46152 51.7164 52.6865
933 1 30.6107 7.36426 44.322
934 1 24.5206 51.199 54.9393
935 1 5.44301 39.385 55.0325
936 1 7.63725 32.3204 11.8318
937 1 40.1133 3.10633 43.0576
938 1 33.5656 10.019 41.8346
939 1 5.22116 28.7756 13.4204
940 1 6.56053 37.5478 50.7117
941 1 36.1844 6.55324 35.5407
942 1 15.2439 46.676 45.5294
943 1 33.6159 36.8094 34.5769
944 1 9.34148 41.2311 15.952
945 1 44.8674 21.1044 44.6003
946 1 9.97449 42.6167 44.6199
947 1 41.4376 30.9792 40.8007
948 1 15.7315 55.5298 43.9675
949 1 50.4258 50.7206 15.4299
950 1 39.4994 19.7897 48.7811
951 1 14.7937 43.2077 53.9088
952 1 43.6606 0.797369 48.8736
953 1 24.5591 25.8648 55.8521
954 1 11.2105 46.0543 40.6393
955 1 13.1451 21.8018 15.4875
956 1 11.989 20.0065 8.51983
957 1 47.0901 43.7099 51.2676
958 1 7.18272 19.6966 29.5375
959 1 31.7003 50.0892 35.3528
960 1 53.9568 14.1132 12.7528
961 1 36.8667 41.6101 42.6035
962 1 42.2615 7.33967 18.3682
963 1 7.66424 30.4503 46.9624
964 1 25.3505 14.6671 44.5504
965 1 15.3915 30.5949 35.3747
966 1 24.8538 42.8845 31.4329
967 1 9.02697 6.77952 13.6758
968 1 50.6562 13.7481 45.1629
969 1 32.0868 36.7839 50.4301
970 1 31.3349 16.9503 15.6471
971 1 49.6251 17.0525 42.39
972 1 50.7832 4.39712 50.6933
973 2 45.212 4.14605 25.9669
974 2 46.215 39.5769 34.9528
975 2 53.6225 39.0713 27.8635
976 2 17.4048 30.2931 49.6514
977 2 53.216 36.4666 16.1116
978 2 52.517 36.2695 19.6754
979 2 32.9808 42.3384 40.828
980 2 54.9888 6.22994 45.0095
981 2 36.829 11.8945 9.85853
982 2 54.2729 29.6069 49.4945
983 2 12.3564 31.2344 1.32552
984 2 46.3989 22.5925 34.4118
985 2 52.497 2.36073 13.1825
986 2 7.25128 18.4121 37.8074
987 2 20.3656 6.87189 5.13229
988 2 2.39478 26.5806 51.8193
989 2 39.7588 27.9186 32.4212
990 2 54.017 9.86534 15.0863
991 2 22.7771 21.2366 17.7381
992 2 15.893 15.7919 54.7679
993 2 1.25808 15.5811 -0.0939651
994 2 53.6868 22.6913 35.4095
995 1 53.9602 3.19669 43.5709
996 1 51.4841 25.1103 47.0293
997 1 24.6766 2.1035 47.9934
998 1 4.52615 49.3025 29.8277
999 1 25.3598 51.1604 52.1931
1000 1 19.8217 8.93194 47.8651
1001 1 30.8509 30.4409 36.6031
1002 1 52.4655 26.4552 8.22513
1003 1 13.9713 28.9618 30.6119