ITEM: TIMESTEP
0
ITEM: NUMBER OF ATOMS
9088
ITEM: BOX BOUNDS pp pp pp
-1.8547437868618769e-01 5.6069967004707991e+01
-1.8547437868618769e-01 5.6069967004707991e+01
-1.8547437868618769e-01 5.6069967004707991e+01
ITEM: ATOMS id type x y z
1 1 28.1512 40.8609 49.2929
2 1 44.2732 4.47072 36.5739
3 1 41.6665 12.5131 50.1407
4 1 37.1267 49.0808 43.9461
5 1 11.3306 34.5508 8.23633
6 1 36.071 25.4888 21.9291
7 1 20.0735 33.0781 1.35688
8 1 48.3285 1.93943 9.3288
9 1 55.6901 50.1097 39.9779
10 1 36.933 13.4558 53.5182
11 1 48.5798 35.8163 32.692
12 1 35.5576 19.3221 36.8041
13 1 21.5308 48.7826 36.9696
14 1 19.7647 49.5785 50.0988
15 1 3.06525 36.7577 30.1988
16 1 26.6389 0.810048 39.0486
17 1 50.2673 10.0915 28.0969
18 1 4.05049 47.9443 35.9496
19 1 30.2801 23.9138 51.739
20 1 30.921 2.5378 44.6908
21 1 25.4363 49.1555 50.2575
22 1 9.45819 41.716 1.93952
23 1 21.7607 17.8749 37.781
24 1 3.27188 7.80499 55.4041
25 1 26.2258 27.2626 38.9526
26 1 19.8135 28.1301 43.3311
27 1 34.7404 29.2899 54.5724
28 1 13.5344 32.6133 14.8026
29 1 10.942 50.2745 40.3213
30 1 49.0242 7.2749 44.4488
31 1 30.6596 4.54638 0.181372
32 1 33.9579 5.53543 23.4002
33 1 24.3222 41.8716 2.60992
34 1 14.7355 24.7911 1.84572
35 1 19.9052 51.2274 40.4208
36 1 16.5729 32.3421 18.945
37 1 23.3652 55.7879 47.3078
38 1 23.6425 21.2023 5.80034
39 1 13.254 26.0874 0.0417213
40 1 8.66838 11.4509 47.8428
41 1 46.8885 41.0253 1.1334
42 1 5.65502 39.1618 14.9129
43 1 21.8518 16.9006 9.65414
44 1 50.7656 51.9275 23.6593
45 1 13.2663 43.4778 55.9784
46 1 -0.0139048 17.9537 11.2252
47 1 42.6069 6.39598 31.8782
48 1 18.4469 30.8211 19.8881
49 1 7.23174 19.928 32.6548
50 1 18.4309 19.7721 20.6006
51 1 50.1146 32.1865 30.4796
52 1 22.3515 10.5478 37.4851
53 1 52.3967 20.4337 1.3593
54 1 52.1087 17.5503 42.7809
55 1 39.6979 45.1409 29.7131
56 1 11.5179 25.7672 44.7462
57 1 7.01179 33.2961 34.5881
58 1 37.4593 11.4459 21.8313
59 1 5.54277 30.6886 28.5791
60 1 36.2942 32.7191 54.6547
61 1 11.9608 27.104 54.0335
62 1 52.6945 22.2301 24.4298
63 1 49.1979 43.4115 28.6863
64 1 22.3764 4.35931 16.4403
65 1 10.8802 42.4355 47.8517
66 1 7.95678 44.9808 9.93186
67 1 12.2677 43.218 53.0916
68 1 11.4618 33.6145 52.208
69 1 37.5683 38.2896 45.8961
70 1 2.19912 28.0413 4.90815
71 1 51.8645 46.8113 28.3016
72 1 55.4027 29.6659 1.55884
73 1 25.0697 46.6948 4.95346
74 1 4.9647 33.2502 47.0555
75 1 37.5364 19.4834 5.22118
76 1 38.5156 23.9438 5.90013
77 1 47.4174 40.3621 32.2057
78 1 33.9796 40.5557 10.3924
79 1 31.804 23.2755 42.7878
80 1 39.476 0.283583 30.599
81 1 17.819 27.4083 54.1109
82 1 50.6379 1.19988 23.6469
83 1 8.15583 14.8099 27.8639
84 1 36.4457 2.29432 3.90163
85 1 39.5373 10.6657 38.5509
86 1 34.8221 34.0622 35.0724
87 1 25.6389 8.34208 31.9919
88 1 15.8608 11.2461 12.8398
89 1 7.18546 47.8855 39.3107
90 1 1.14246 39.5213 51.5319
91 1 17.8303 8.07522 21.7239
92 1 10.1738 12.115 19.0855
93 1 38.3649 9.78406 11.2576
94 1 35.5726 34.2145 28.8699
95 1 40.7116 24.3382 18.9013
96 1 7.1595 0.000604926 13.9173
97 1 3.69762 8.80338 32.8357
98 1 17.8887 12.7076 30.1593
99 1 42.3088 36.6773 5.63118
100 1 3.49552 6.10613 26.9882
101 1 0.399655 33.5949 47.2049
102 1 5.18826 1.02553 12.3172
103 1 41.5785 43.5252 55.9945
104 1 14.6968 54.7408 39.3237
105 1 31.3806 13.8692 10.8443
106 1 19.0168 48.4321 47.5416
107 1 32.4026 -0.00542647 45.1662
108 1 46.597 17.0438 47.3161
109 1 10.1502 45.8123 16.9901
110 1 31.3498 9.15615 10.8615
111 1 37.7377 54.471 15.1296
112 1 5.4038 5.33005 10.3122
113 1 28.8841 33.3653 11.4407
114 1 24.4591 16.9715 39.9993
115 1 43.0715 34.582 31.0796
116 1 31.9403 5.85393 37.9108
117 1 56.0034 12.2605 40.5883
118 1 1.73557 43.9841 31.7825
119 1 36.4739 36.0661 33.9656
120 1 15.2574 2.08603 39.7773
121 2 11.9918 38.8329 35.3907
122 2 51.3894 18.6033 12.9121
123 2 54.9763 46.7527 20.932
124 2 52.474 29.6765 19.7471
125 2 53.854 35.521 38.4385
126 2 25.1924 7.44286 17.7633
127 2 12.4971 51.3408 15.8316
128 2 7.68436 29.9947 35.2225
129 2 55.2483 17.8856 7.73613
130 2 1.26927 21.1337 45.8132
131 2 52.1957 11.9969 47.3962
132 2 39.1358 46.5444 17.5579
133 2 34.6723 42.7869 16.0068
134 2 15.4031 5.11804 8.9267
135 2 42.6634 33.7205 3.74286
136 2 9.99799 0.569818 32.0679
137 2 40.6075 24.0955 46.404
138 2 5.44485 4.63045 49.3242
139 2 31.1673 14.8502 13.8737
140 2 45.3789 27.3664 38.875
141 2 7.9042 38.42 22.809
142 2 29.7275 23.4453 40.3773
143 1 47.035 19.7425 45.7491
144 1 29.1588 17.3002 13.3589
145 1 53.839 12.5835 6.43919
146 1 52.2952 26.662 15.213
147 1 29.3319 27.9694 32.8145
148 1 27.2009 10.2618 38.4938
149 1 46.4201 6.05936 44.6799
150 1 25.059 25.7729 9.59529
151 1 49.8686 24.4192 53.9676
152 1 10.3936 33.4999 45.4606
153 1 50.1415 48.5168 29.5807
154 1 43.0977 41.8454 30.8128
155 1 32.2879 18.3487 10.3744
156 1 8.09306 33.1668 9.28168
157 1 51.712 34.1874 22.1705
158 1 37.6447 5.71265 0.325745
159 1 54.7414 47.7618 13.857
160 1 49.0275 2.48631 2.32175
161 1 10.6077 25.278 21.5801
162 1 12.9004 12.994 44.1982
163 1 20.0762 21.4356 26.3996
164 1 55.7474 38.5091 12.1495
165 1 51.4792 35.5425 6.77391
166 1 45.2473 41.5837 14.7069
167 1 31.4153 39.8737 46.2938
168 1 36.6634 7.79432 43.338
169 1 28.2701 50.5624 39.0098
170 1 39.6686 33.8065 47.0474
171 1 28.4515 32.6735 23.5725
172 1 21.4817 43.7641 28.4518
173 1 13.9974 39.6518 9.93298
174 1 35.3725 1.74725 32.4303
175 1 19.0018 28.0371 16.5915
176 1 39.5919 37.0256 6.70305
177 1 9.9888 5.01176 25.0912
178 1 18.4359 5.50135 9.0483
179 1 27.078 45.079 48.1613
180 1 55.4231 26.7088 8.63839
181 1 48.4135 43.0608 31.4347
182 1 49.7412 30.055 52.3991
183 1 13.4142 20.5165 4.10399
184 1 25.9514 52.7957 12.0695
185 1 33.3742 10.2754 34.2997
186 1 43.9453 26.369 26.7544
187 1 1.66746 6.71967 53.1998
188 1 28.5559 39.1606 3.38573
189 1 13.3658 41.38 33.9229
190 1 35.3233 48.8858 22.1585
191 1 20.7901 19.0232 45.93
192 1 50.1235 -0.117058 7.82167
193 1 37.0896 8.85978 13.8562
194 1 36.097 3.79421 30.8409
195 1 24.6975 27.927 1.40276
196 1 34.8744 5.19031 26.2427
197 1 7.02414 9.1405 49.3457
198 1 12.7333 18.8861 28.6722
199 1 31.3776 19.1204 2.66315
200 1 40.0734 20.4792 41.3723
201 1 26.8692 12.9922 16.1726
202 1 38.9761 2.13667 2.69329
203 1 30.9828 27.6136 37.2061
204 1 41.1955 27.3263 19.3006
205 1 7.80109 12.7149 2.63501
206 1 39.5519 25.3178 24.659
207 1 0.260048 45.2044 45.9057
208 1 31.8747 5.02312 10.9357
209 1 47.5514 6.49057 47.2228
210 1 27.3663 21.7751 41.7675
211 1 8.66489 5.7629 21.87
212 1 43.2972 27.5193 43.4479
213 1 22.2518 12.2071 51.0757
214 1 0.829029 37.7217 2.55796
215 1 11.5688 27.7003 22.8166
216 1 -0.0230907 24.61 51.2432
217 1 21.9065 8.91838 35.3379
218 1 1.23848 9.51418 54.3191
219 1 43.9159 51.7374 5.92087
220 1 44.6251 8.04676 44.0659
221 1 30.797 0.621599 17.2325
222 1 2.56628 7.64299 21.4592
223 1 26.2211 44.0231 2.82628
224 1 42.6733 8.9671 25.6484
225 1 43.8415 48.9309 38.3125
226 1 12.8906 42.0764 25.4186
227 1 20.0413 45.5032 33.221
228 1 -0.0203649 20.096 52.7829
229 1 11.0449 27.2624 42.5545
230 1 31.1036 29.9247 41.3064
231 1 31.7564 35.3156 25.295
232 1 41.0444 16.8968 18.0196
233 1 51.0661 50.0581 38.2503
234 1 10.8675 13.9621 51.1144
235 1 41.5509 18.229 42.0861
236 1 6.95065 47.7922 29.5021
237 1 53.0607 29.7957 23.4869
238 1 38.4663 1.18592 0.1474
239 1 33.7251 28.7081 5.99987
240 1 9.26337 33.0965 51.1139
241 1 20.2579 49.1251 10.477
242 1 32.8411 10.9192 2.98304
243 1 7.32056 24.1125 33.3537
244 1 55.9334 42.4778 7.42394
245 1 1.66114 27.8113 19.8815
246 1 53.9804 5.60686 5.6671
247 1 54.4404 49.1583 11.1723
248 1 44.243 0.576478 45.7249
249 1 10.5245 44.8288 48.8538
250 1 23.5954 24.4949 18.0548
251 1 17.8208 39.2336 4.1261
252 1 47.6632 16.4532 38.7775
253 1 2.71483 26.9164 48.0901
254 1 9.29473 8.45677 32.9034
255 1 54.9851 9.0124 17.9114
256 1 30.8615 47.5357 24.6243
257 1 1.18429 12.4508 34.9604
258 1 33.2046 18.4599 27.6424
259 1 45.5815 45.9806 54.948
260 1 25.0432 41.5838 34.1138
261 1 32.1756 10.5915 39.6404
262 1 24.2754 45.9214 11.3512
263 2 44.0047 24.7389 29.2733
264 2 25.4418 47.1577 1.62706
265 2 49.9739 7.23148 49.1223
266 2 6.85503 24.4034 38.7034
267 2 14.63 21.4384 1.22913
268 2 4.66217 3.17544 24.679
269 2 15.2841 2.33252 16.6916
270 2 44.3159 43.4903 53.6416
271 2 53.8034 44.8227 26.215
272 2 33.2826 40.3128 13.749
273 2 33.2385 6.07033 34.692
274 2 52.9158 27.189 30.4357
275 2 27.1926 7.08366 52.9977
276 2 55.8195 13.8322 4.28009
277 2 1.35402 42.9691 39.299
278 2 11.8987 34.4376 18.6272
279 2 43.8959 51.5476 46.4084
280 2 19.6755 55.3809 22.2068
281 2 41.4457 16.9362 14.5855
282 2 15.2101 28.8582 8.26092
283 2 46.6722 47.9669 28.8255
284 2 16.8978 27.038 34.8629
285 1 4.84934 35.2925 5.68421
286 1 49.7394 34.5176 20.3754
287 1 44.5025 1.80733 35.9853
288 1 20.0436 16.7243 29.6178
289 1 22.7774 31.5781 4.48398
290 1 50.8946 12.9592 24.0422
291 1 17.9855 43.6912 34.1276
292 1 40.8371 5.33057 44.1933
293 1 54.6724 19.5633 55.6684
294 1 30.7869 32.7018 41.6048
295 1 47.2002 25.3331 29.7423
296 1 12.349 32.2399 35.1301
297 1 48.3987 14.2703 34.1852
298 1 31.0182 22.113 12.9462
299 1 31.8972 18.7427 17.6731
300 1 24.6351 32.1456 9.34187
301 1 24.6726 49.9554 23.2513
302 1 46.6779 33.5209 26.0078
303 1 53.7003 3.34134 1.42808
304 1 13.6201 34.5734 53.6318
305 1 25.5339 38.4512 23.1502
306 1 28.8224 52.0701 32.824
307 1 5.12783 40.0836 32.0876
308 1 39.9956 53.9395 45.2576
309 1 49.6867 30.7624 28.3475
310 1 10.7783 52.4185 38.4621
311 1 37.9637 35.0668 5.64034
312 1 10.2961 8.09829 26.0374
313 1 5.13034 55.4997 18.1208
314 1 29.0303 47.3446 53.233
315 1 4.38568 6.495 14.6918
316 1 44.0897 10.4937 10.435
317 1 30.6211 31.8565 38.8412
318 1 5.92763 23.3068 11.4526
319 1 3.39653 2.7626 18.0296
320 1 19.2334 33.5324 25.38
321 1 26.2429 38.9006 34.074
322 1 55.2477 21.8476 22.9608
323 1 10.9543 11.3413 33.0339
324 1 18.2214 8.63769 32.2776
325 1 21.8152 46.035 43.0407
326 1 16.6596 32.0608 40.9499
327 1 12.3788 9.2397 35.0286
328 1 0.474964 8.12414 36.8545
329 1 4.38586 25.5596 44.9779
330 1 7.79625 30.9575 30.1552
331 1 15.7311 39.311 52.4732
332 1 0.802039 43.9947 11.8921
333 1 16.2361 13.6169 10.6738
334 1 33.7902 34.987 22.425
335 1 35.2357 13.116 51.1275
336 1 49.9866 21.2566 12.9265
337 1 1.11889 33.9905 7.57994
338 1 9.52448 22.9979 22.5878
339 1 15.4117 24.2088 44.6817
340 1 25.1725 23.3744 26.0907
341 1 26.5096 51.2157 25.0564
342 1 0.0340756 27.047 17.8891
343 1 35.7146 14.2294 27.6517
344 1 32.9556 15.8408 11.3717
345 1 48.6139 16.745 4.02827
346 1 0.412907 6.97203 23.4725
347 1 20.0025 18.5295 11.1554
348 1 12.7366 10.2938 22.6102
349 1 4.39274 37.0049 10.5903
350 1 1.88032 53.4214 51.3553
351 1 45.0948 35.6853 5.43646
352 1 18.9142 8.40994 52.0107
353 1 24.4107 34.8122 53.7385
354 1 46.6123 37.3304 39.754
355 1 48.751 28.4592 38.6169
356 1 9.88176 40.0786 42.9757
357 1 20.2512 50.5209 52.909
358 1 21.7693 24.4433 36.5583
359 1 28.8668 44.9699 46.2349
360 1 16.5887 38.1472 45.1864
361 1 40.3738 22.0598 43.8911
362 1 0.432573 53.8461 4.61308
363 1 44.1959 18.2103 14.8081
364 1 40.9225 0.598611 32.8081
365 1 40.2025 44.9617 6.77481
366 1 15.5896 34.3174 14.6269
367 1 50.6056 47.0948 37.9336
368 1 40.5602 45.0193 26.4953
369 1 33.6146 14.4581 16.1015
370 1 3.45829 40.7583 50.7217
371 1 19.4041 28.057 48.6872
372 1 13.8229 22.2079 33.7633
373 1 21.6524 55.8543 38.485
374 1 47.1071 50.509 2.62348
375 1 4.33066 53.0126 34.9369
376 1 42.7651 48.9885 24.9556
377 1 7.48176 23.525 52.7685
378 1 29.1076 52.6902 21.1372
379 1 51.4921 39.4006 20.7061
380 1 10.8662 13.0461 26.8536
381 1 26.2062 50.3048 29.0669
382 1 55.2199 22.5989 8.63261
383 1 12.8535 23.2183 23.1456
384 1 49.2341 16.3806 33.0194
385 1 29.8333 9.20858 19.5718
386 1 36.2209 38.8222 23.1089
387 1 21.2543 33.96 39.3772
388 1 24.1969 6.94987 40.1895
389 1 26.5724 10.9091 14.4175
390 1 45.4719 48.8317 31.8236
391 1 6.97377 9.00214 7.03225
392 1 48.5664 49.1958 37.3698
393 1 3.18427 27.7207 1.03707
394 1 3.34747 37.6638 46.7259
395 1 55.2072 7.40968 48.1527
396 1 14.9058 5.21739 23.9502
397 1 49.8684 26.0039 22.441
398 1 21.7503 29.1827 3.97444
399 1 7.17013 54.3157 41.8841
400 1 35.7676 42.9525 27.4148
401 1 18.8328 30.4011 24.9502
402 1 31.7917 47.9241 43.7535
403 1 13.1531 42.4012 28.2507
404 1 26.9094 34.8878 45.8241
405 2 19.7951 8.1242 14.0591
406 2 35.9772 30.9024 7.7773
407 2 34.2661 13.0535 12.8547
408 2 24.6884 49.6791 12.7676
409 2 46.7781 0.410619 16.7235
410 2 36.6418 49.364 16.236
411 2 5.75437 41.6295 16.9712
412 2 53.5722 8.75268 35.9029
413 2 31.0883 21.6697 45.3315
414 2 12.4668 35.0666 47.6172
415 2 55.7039 51.6035 9.10274
416 2 51.9104 42.9278 55.081
417 2 44.4557 5.00774 10.5845
418 2 7.3525 35.9518 11.0879
419 2 15.6133 54.4138 22.4672
420 2 23.9996 23.0989 23.2474
421 2 40.9742 49.3554 9.56802
422 2 31.8369 16.213 8.10601
423 2 8.34145 0.592242 43.3047
424 2 52.0284 10.4229 4.93201
425 2 48.0281 51.9396 38.9179
426 2 37.3424 8.32277 38.265
427 1 29.4913 30.167 0.0115814
428 1 4.29536 53.6401 52.4198
429 1 55.6424 27.5936 51.3353
430 1 51.8641 54.9612 9.62527
431 1 20.1504 47.5024 26.2914
432 1 42.8888 8.22919 6.73313
433 1 40.1403 24.7793 13.7413
434 1 13.2322 22.4646 43.9031
435 1 23.117 52.0888 8.55995
436 1 32.4306 31.6957 48.5599
437 1 26.0255 24.3567 33.4465
438 1 46.9295 3.07737 35.2031
439 1 1.35107 38.0952 53.9779
440 1 8.90728 25.1885 29.6815
441 1 22.4513 14.2099 10.9611
442 1 42.5788 18.655 17.039
443 1 41.8601 10.7984 27.3977
444 1 51.4566 42.1386 47.6922
445 1 5.31693 14.8403 17.5154
446 1 38.4284 31.6023 39.8883
447 1 20.818 51.9739 10.1542
448 1 44.2293 3.37354 0.234083
449 1 54.0772 6.88779 28.8957
450 1 51.3323 33.1315 0.134763
451 1 27.8801 49.1666 13.9306
452 1 48.0221 12.2786 22.7109
453 1 9.15473 21.2819 33.8844
454 1 5.37054 35.3982 52.1217
455 1 6.99311 22.1155 23.5259
456 1 46.2215 3.74727 51.6278
457 1 53.5564 38.9564 18.7498
458 1 27.3124 20.2918 36.5555
459 1 2.81703 34.7575 9.7906
460 1 29.3866 0.317256 34.2971
461 1 8.08703 16.7065 17.4516
462 1 48.4778 27.4829 9.3691
463 1 15.8131 2.09921 7.25151
464 1 31.4846 52.6474 22.8802
465 1 7.67377 46.7631 17.49
466 1 4.96375 47.8938 5.34943
467 1 47.0338 11.1107 38.0826
468 1 44.8868 54.0769 7.12837
469 1 15.1536 43.2382 24.5376
470 1 28.6403 0.571662 15.264
471 1 26.928 10.0037 3.60496
472 1 15.1992 38.1667 27.9682
473 1 48.5809 38.7662 46.6601
474 1 39.8824 12.3236 16.8129
475 1 22.9451 24.9928 20.7232
476 1 11.9796 21.9033 40.1299
477 1 49.0301 3.27045 37.0791
478 1 41.4947 7.61346 13.7262
479 1 55.4151 25.8578 35.2169
480 1 40.9806 8.26182 4.02707
481 1 25.596 1.21852 51.1131
482 1 29.9606 37.2714 22.6527
483 1 46.4435 19.544 34.2805
484 1 5.64365 37.4003 7.23594
485 1 18.5214 45.5129 25.3205
486 1 46.8838 7.75723 42.6667
487 1 21.031 12.8348 22.0425
488 1 5.81187 47.6093 25.7058
489 1 2.91623 44.3961 13.6537
490 1 24.1924 49.9024 26.2091
491 1 13.3979 29.7627 47.3132
492 1 27.0714 24.5684 41.6752
493 1 44.2876 30.4371 33.9566
494 1 4.62761 54.5208 13.5895
495 1 11.7464 33.8676 12.9752
496 1 39.073 17.7575 37.1872
497 1 7.23839 17.3205 32.0202
498 1 19.6933 20.4163 8.79559
499 1 34.256 29.961 20.2493
500 1 51.6458 3.24781 36.161
501 1 16.142 50.6689 43.2825
502 1 50.9024 42.8448 6.98671
503 1 42.563 20.9193 42.8245
504 1 40.1992 47.095 32.0846
505 1 38.4804 27.7487 3.88791
506 1 22.2242 27.5198 41.6762
507 1 53.4359 54.4202 31.9752
508 1 10.6875 42.8928 17.5147
509 1 53.5087 28.9697 8.51384
510 1 30.5986 0.786964 3.74683
511 1 49.6337 5.85269 6.09993
512 1 14.3005 50.4504 12.789
513 1 33.3857 30.1396 29.2712
514 1 28.2964 27.9348 21.0923
515 1 29.3319 12.4628 27.3742
516 1 5.27659 40.6648 37.2241
517 1 15.5643 3.24397 0.0178702
518 1 24.1933 12.1914 13.5111
519 1 8.04357 12.193 45.1494
520 1 35.7868 17.6778 4.69565
521 1 45.9115 24.9546 32.2452
522 1 7.36018 17.3795 0.884681
523 1 38.588 1.86017 26.0111
524 1 39.9813 51.8244 32.3214
525 1 25.7657 41.3494 22.707
526 1 26.2785 15.8727 30.5743
527 1 29.0688 54.6138 23.4305
528 1 2.23031 6.40908 6.37
529 1 40.2423 8.20879 33.5366
530 1 38.073 16.8339 18.3712
531 1 40.4884 10.111 49.2227
532 1 35.179 10.0867 11.9117
533 1 43.025 6.29003 20.7583
534 1 19.6327 35.3468 20.2637
535 1 43.0541 3.06684 38.5532
536 1 39.0563 22.2463 15.5738
537 1 19.0858 22.2419 20.9171
538 1 6.70939 27.3244 2.79749
539 1 28.7448 37.8359 33.0039
540 1 48.3122 12.3038 16.3943
541 1 42.714 6.05057 8.13407
542 1 33.1075 47.7013 35.8014
543 1 38.1669 45.025 35.0909
544 1 31.6378 34.7196 15.1181
545 1 51.9281 24.4365 5.80829
546 1 23.7051 50.5212 41.0194
547 2 15.3673 40.9152 26.4437
548 2 12.9589 46.6638 1.2944
549 2 34.8741 47.7092 25.6324
550 2 55.6756 51.4002 12.8913
551 2 52.4779 7.2813 16.7221
552 2 9.8137 6.99167 35.4292
553 2 37.5808 10.2434 16.8416
554 2 23.5363 5.77515 53.2144
555 2 14.7632 12.8537 21.523
556 2 12.6761 41.4068 42.9806
557 2 13.9656 5.61183 34.0954
558 2 17.4443 33.0507 3.32652
559 2 40.1174 16.9336 21.0693
560 2 5.11932 16.3107 29.3849
561 2 38.5777 12.7494 50.9755
562 2 3.8648 19.7031 28.5852
563 2 30.2021 46.8448 34.8621
564 2 16.6287 5.12961 40.1641
565 2 20.2262 22.2574 34.8208
566 2 31.1328 13.5018 38.9667
567 2 44.4447 38.4844 0.779759
568 2 43.5643 18.1592 20.2067
569 1 14.8562 1.66999 19.7459
570 1 52.4391 36.7218 49.3876
571 1 20.345 14.2685 5.692
572 1 46.4315 14.864 53.4517
573 1 15.5968 15.4185 26.0319
574 1 30.3424 46.214 17.1758
575 1 30.0812 49.4785 42.3011
576 1 14.108 0.00564622 11.3381
577 1 1.91798 6.50243 15.4563
578 1 55.1956 40.0173 44.2965
579 1 34.0999 44.7052 48.4388
580 1 20.8438 32.2069 6.48615
581 1 37.57 10.3311 29.2437
582 1 12.3111 41.4276 37.7974
583 1 45.6546 25.513 18.2107
584 1 28.8738 40.7476 28.8444
585 1 33.2631 8.20115 23.2824
586 1 55.5318 0.257352 31.2439
587 1 10.8847 1.75857 7.30636
588 1 9.02902 44.1471 46.6249
589 1 34.5897 47.4418 49.5735
590 1 55.9076 7.37783 6.92468
591 1 12.7261 9.58142 31.6397
592 1 52.6856 32.929 6.61109
593 1 18.9535 25.1182 33.6744
594 1 2.75479 42.3127 42.0071
595 1 34.1453 12.0075 43.9217
596 1 3.71823 5.00236 39.3884
597 1 28.743 51.5683 7.77618
598 1 48.7514 47.5392 25.0653
599 1 5.39007 3.66028 13.4723
600 1 11.9308 32.4328 4.51939
601 1 21.7562 42.1807 54.2262
602 1 3.07512 42.5318 15.6145
603 1 26.9142 35.4812 51.8991
604 1 5.72964 21.6624 30.1153
605 1 28.7499 42.9923 27.5435
606 1 27.7278 46.6034 30.4408
607 1 38.8299 14.3574 33.8305
608 1 36.9932 4.65712 49.2898
609 1 33.9959 30.5549 12.9038
610 1 43.5537 5.52789 44.8357
611 1 20.8385 44.7876 30.8238
612 1 17.8703 46.8926 45.3562
613 1 3.33135 51.3342 1.0421
614 1 53.9006 33.328 10.9211
615 1 5.87057 42.6667 41.4415
616 1 38.1791 3.72818 54.9206
617 1 16.2663 11.84 51.7416
618 1 5.38779 55.6564 53.8909
619 1 36.4843 11.4357 27.0968
620 1 28.3446 27.0106 25.5293
621 1 53.1355 8.77375 27.332
622 1 3.66139 29.5344 43.5246
623 1 15.0838 44.068 11.9528
624 1 27.5857 9.48899 55.0532
625 1 10.2163 15.0073 25.3961
626 1 39.57 27.7127 22.6696
627 1 33.3422 38.0827 1.4455
628 1 31.7582 10.4042 17.4279
629 1 41.6889 46.6346 11.2483
630 1 39.5815 55.578 22.7187
631 1 43.852 28.8424 13.6927
632 1 4.78033 32.4442 26.5725
633 1 15.6533 6.55459 49.3266
634 1 47.8113 45.9073 17.69
635 1 29.501 44.8609 23.3623
636 1 5.97127 6.88124 16.9909
637 1 0.521232 14.9201 39.7539
638 1 32.6763 47.3461 55.5567
639 1 28.4976 5.19256 4.67658
640 1 21.8551 53.4878 6.44667
641 1 56.0519 47.7389 35.5829
642 1 53.5382 18.5609 10.339
643 1 41.3141 27.7809 24.8298
644 1 20.1514 42.6786 46.1097
645 1 0.551155 19.584 40.9171
646 1 13.0885 31.2524 12.5972
647 1 3.48762 29.4825 8.96212
648 1 19.4884 16.9138 4.90026
649 1 20.773 20.4069 19.5284
650 1 15.1331 3.98551 3.04508
651 1 30.8312 33.1217 33.4704
652 1 51.0782 13.264 39.6868
653 1 52.0218 30.6177 50.819
654 1 29.5407 34.0074 -0.165096
655 1 41.0558 4.66031 30.2409
656 1 36.8705 52.0714 40.1378
657 1 55.6764 34.5961 20.7882
658 1 24.7229 8.46644 54.8035
659 1 38.867 39.9423 50.2251
660 1 1.71333 44.0909 6.54186
661 1 45.9389 36.2064 12.8362
662 1 15.7263 41.5224 44.4123
663 1 20.2183 35.7882 37.6133
664 1 53.0691 16.7506 28.1923
665 1 34.286 43.0398 22.8374
666 1 15.1317 9.40194 26.1055
667 1 35.2582 16.9514 28.3467
668 1 47.5841 12.1085 44.3614
669 1 51.3015 22.749 15.6254
670 1 46.8918 3.19563 11.123
671 1 32.2376 4.43616 25.1373
672 1 1.69335 18.6529 9.18238
673 1 11.5634 4.44013 35.78
674 1 45.9878 51.2912 7.48615
675 1 23.1562 7.88427 33.149
676 1 53.8743 16.6247 24.1688
677 1 55.7828 35.9383 54.1747
678 1 15.6888 55.6614 17.8946
679 1 52.801 12.185 22.3526
680 1 28.5576 32.2905 46.0683
681 1 0.14916 26.0702 48.7782
682 1 7.25306 3.1429 44.9264
683 1 43.22 12.8616 21.1305
684 1 38.397 32.466 37.216
685 1 22.8806 54.9512 14.9528
686 1 44.6127 15.1821 11.238
687 1 47.0847 55.2521 28.2591
688 1 20.202 7.2907 33.4508
689 2 21.6212 49.6113 24.1528
690 2 29.9889 50.039 10.1964
691 2 34.3887 26.8961 38.8857
692 2 8.03827 42.3972 49.2303
693 2 44.8052 48.4014 22.3624
694 2 2.90769 51.3572 54.0755
695 2 17.5346 15.1453 45.1867
696 2 16.1928 40.9286 8.18778
697 2 1.46404 18.4808 36.1537
698 2 17.1764 18.7079 7.00887
699 2 44.6769 11.4414 39.9173
700 2 38.2654 4.96519 3.92034
701 2 53.6185 27.3391 5.61499
702 2 36.0074 28.766 27.1225
703 2 48.9458 45.8619 44.3354
704 2 54.4019 12.9072 17.6813
705 2 2.46292 36.9227 7.68948
706 2 2.09582 40.3747 44.5414
707 2 47.9122 17.0242 18.9861
708 2 43.1488 54.4936 0.514024
709 2 44.2514 30.5354 42.4332
710 2 53.0094 48.4282 31.0627
711 1 36.918 2.11401 46.0185
712 1 17.9081 25.472 48.9554
713 1 1.11137 49.5525 44.0991
714 1 37.6031 30.361 24.8683
715 1 1.02992 11.0577 44.7365
716 1 2.92857 15.9176 51.2368
717 1 47.0961 0.845523 3.63733
718 1 4.6684 41.8126 55.7761
719 1 41.9562 16.6707 52.4922
720 1 19.2337 16.161 13.3744
721 1 31.3573 6.75139 5.06236
722 1 32.0113 37.9557 55.2755
723 1 19.3638 14.8301 15.8241
724 1 48.4193 37.0463 53.5861
725 1 13.246 45.657 34.9571
726 1 30.0439 41.2699 41.7231
727 1 32.8644 55.5071 19.2104
728 1 28.1055 0.539364 55.1633
729 1 40.9809 1.39919 51.9992
730 1 5.43439 7.32698 37.555
731 1 54.2241 11.0264 20.1927
732 1 13.1067 0.994178 14.9388
733 1 35.8887 53.0478 55.1586
734 1 36.9501 43.9642 17.9738
735 1 40.1997 9.47217 1.74003
736 1 51.7859 18.8751 50.5353
737 1 31.1792 41.7318 27.3795
738 1 0.303583 11.4789 6.81547
739 1 21.8102 17.0072 3.21801
740 1 40.3811 35.029 49.2221
741 1 53.9337 9.244 32.7893
742 1 19.1586 40.6689 6.38698
743 1 44.6275 29.3588 26.9934
744 1 33.2305 55.495 40.3361
745 1 44.8462 12.4471 12.9823
746 1 20.382 17.9366 20.6345
747 1 0.676772 2.90743 36.2034
748 1 45.9662 54.7955 2.64085
749 1 17.243 13.3057 42.6183
750 1 23.5652 18.9382 1.95819
751 1 19.0381 32.9621 33.8145
752 1 15.0896 48.3272 38.7391
753 1 20.164 10.0447 43.6174
754 1 36.2609 53.8428 27.2473
755 1 29.4621 18.1631 18.0702
756 1 31.7152 49.1585 53.7318
757 1 7.12384 19.3231 29.777
758 1 54.7829 27.4811 20.101
759 1 44.7766 7.14452 18.866
760 1 19.1206 32.2226 54.5703
761 1 48.5193 15.2686 46.5787
762 1 30.6343 52.4018 12.2786
763 1 24.2714 17.8237 8.62647
764 1 18.5863 13.136 21.1478
765 1 42.6281 19.7198 40.228
766 1 19.4728 35.629 2.93075
767 1 4.57623 51.867 28.5924
768 1 25.771 22.2842 35.5398
769 1 18.2252 48.6378 54.5608
770 1 18.9716 3.67226 4.45019
771 1 11.9018 38.399 44.1032
772 1 29.5213 12.864 52.8462
773 1 10.2052 16.4293 45.6226
774 1 33.3119 2.60355 26.9097
775 1 46.2405 41.706 30.25
776 1 25.2082 55.8659 22.4469
777 1 45.9301 47.7163 25.4415
778 1 21.9829 33.4273 47.8555
779 1 40.9626 27.0832 44.7282
780 1 31.2123 47.2855 41.028
781 1 20.2369 37.8775 25.1691
782 1 4.80363 19.0527 15.8413
783 1 50.4085 0.934037 36.8842
784 1 44.3793 27.9928 24.4404
785 1 27.1933 26.0287 48.6039
786 1 15.4219 7.68756 42.0883
787 1 5.51051 31.0366 54.04
788 1 2.24753 10.4682 37.4342
789 1 15.6825 46.1725 28.3823
790 1 51.3116 29.5697 43.5588
791 1 36.4992 18.7842 24.6393
792 1 26.0798 55.3141 19.3989
793 1 2.60706 50.3437 22.1915
794 1 30.0711 25.4291 27.9023
795 1 55.6413 21.6154 36.9605
796 1 44.4019 12.2574 4.15173
797 1 18.935 11.1743 13.9157
798 1 42.2954 29.1109 54.1986
799 1 16.2165 35.5965 11.9755
800 1 17.0027 30.5324 54.973
801 1 49.0478 48.2837 10.801
802 1 20.807 15.3542 36.8778
803 1 40.0522 45.3472 39.8953
804 1 51.828 36.6147 9.32223
805 1 38.7376 44.7422 32.2812
806 1 13.3861 15.2681 37.3189
807 1 55.6347 16.1166 34.7446
808 1 48.9319 8.19553 38.4053
809 1 10.2957 12.3564 1.33377
810 1 8.05227 40.6674 31.8872
811 1 33.3467 22.0636 48.2772
812 1 53.3671 15.954 44.5781
813 1 0.718943 11.3559 2.57222
814 1 45.8774 4.8198 20.1171
815 1 4.58777 8.872 41.7515
816 1 49.952 5.25434 35.3702
817 1 44.4351 43.525 29.2207
818 1 54.9166 48.3935 55.1591
819 1 18.3948 37.1257 43.3656
820 1 53.1583 28.3621 38.2909
821 1 32.2317 29.3458 38.8457
822 1 1.01332 3.96458 29.0479
823 1 54.0368 46.6183 37.954
824 1 54.7049 0.121293 28.5385
825 1 17.5608 54.2715 29.739
826 1 16.6651 50.4843 3.9074
827 1 20.0613 33.8186 22.6712
828 1 35.5367 23.2383 26.2189
829 1 49.5935 55.9079 29.5327
830 1 51.3135 43.3844 4.37183
831 2 7.21196 40.2186 39.9955
832 2 23.8075 14.373 3.35543
833 2 20.1862 43.3219 23.438
834 2 43.3053 26.9016 46.7748
835 2 25.3282 0.170579 27.9346
836 2 23.8665 14.6278 32.4831
837 2 15.8545 27.0832 17.6035
838 2 23.0753 42.5049 47.5302
839 2 28.9542 35.2093 31.2956
840 2 19.7605 16.1177 53.43
841 2 15.7014 27.3121 26.5354
842 2 47.2633 9.43602 45.8669
843 2 42.2166 1.71321 29.9613
844 2 31.3597 15.4165 18.4457
845 2 8.39148 51.7375 16.0625
846 2 41.4326 41.1624 48.5495
847 2 48.5549 55.0563 10.3785
848 2 47.7607 44.5653 26.0425
849 2 23.1282 17.4847 34.8526
850 2 22.5382 32.2716 44.416
851 2 47.9594 0.00793203 53.8675
852 2 46.4573 38.7876 20.3981
853 1 35.9611 46.4368 9.51001
854 1 30.3037 42.5893 46.4371
855 1 47.5507 26.6945 15.068
856 1 10.3479 23.6364 34.6547
857 1 54.7845 17.2485 40.4175
858 1 14.1923 50.387 48.719
859 1 34.9534 24.8019 41.1997
860 1 9.34367 37.6469 4.09818
861 1 51.7673 36.4379 29.1168
862 1 54.0965 30.5587 5.81134
863 1 32.9775 11.5289 10.543
864 1 47.403 26.3612 49.5552
865 1 14.7816 26.3795 14.5336
866 1 12.5097 34.1028 -0.0965905
867 1 50.7566 21.8996 37.2237
868 1 49.2173 1.95057 34.5155
869 1 53.5422 26.4113 52.7081
870 1 33.5455 24.5036 20.871
871 1 10.2488 28.1622 15.1636
872 1 53.1544 37.5286 40.7067
873 1 12.627 39.124 32.1141
874 1 54.0061 46.1424 1.40877
875 1 41.7115 29.2389 48.1496
876 1 0.262728 16.9166 31.2101
877 1 -0.13072 27.6151 22.5909
878 1 4.48052 35.7892 20.2458
879 1 10.7152 14.0871 31.2191
880 1 51.3863 11.2592 1.9657
881 1 31.8938 13.2888 47.9305
882 1 44.8941 22.2671 52.5388
883 1 26.1586 13.9389 13.8762
884 1 51.3842 54.3118 36.3519
885 1 29.9074 23.1539 1.21669
886 1 39.1494 47.8756 2.26514
887 1 7.15855 15.5803 19.7298
888 1 2.77513 29.7884 47.0823
889 1 46.2689 7.69079 34.0873
890 1 54.5207 2.91387 6.33103
891 1 53.2319 20.6721 37.8913
892 1 37.6529 54.3126 20.4435
893 1 14.2124 51.3375 34.0392
894 1 9.13254 41.0867 9.62115
895 1 4.01599 49.5253 40.4702
896 1 2.64594 40.8116 17.7724
897 1 27.9643 53.3035 10.2804
898 1 41.0548 35.237 42.6878
899 1 16.6298 18.902 32.0937
900 1 9.23511 28.0322 1.82215
901 1 34.209 37.3128 41.9159
902 1 25.7905 45.9618 26.1218
903 1 3.82175 26.4539 9.06143
904 1 35.7086 35.8598 11.3976
905 1 28.1386 30.2235 22.2326
906 1 17.5305 36.0504 7.43432
907 1 34.796 51.403 14.2436
908 1 1.41121 6.18629 34.8613
909 1 40.3073 2.92915 42.7288
910 1 52.6622 38.2267 7.40002
911 1 12.668 8.68119 24.9313
912 1 16.9016 18.4867 36.9374
913 1 4.11866 45.1465 5.81876
914 1 53.0167 51.8456 31.0673
915 1 18.4132 21.3615 38.9939
916 1 28.4559 26.4528 40.2579
917 1 35.1037 55.7263 4.43427
918 1 50.2818 34.7215 14.8702
919 1 48.551 40.8856 38.6577
920 1 12.1847 38.6904 38.4979
921 1 31.5451 54.9725 11.3791
922 1 17.6577 41.6878 31.8753
923 1 50.1934 5.59079 38.5727
924 1 0.593911 11.6771 16.5631
925 1 44.8981 55.6735 5.03186
926 1 27.929 49.7697 51.6625
927 1 52.735 49.4868 43.1786
928 1 42.2727 12.3679 12.6088
929 1 49.9632 32.9464 7.10959
930 1 38.2712 0.707606 19.9386
931 1 16.9189 25.3519 31.7524
932 1 12.5943 48.6184 52.3434
933 1 30.6836 7.00364 44.0554
934 1 24.6751 51.3251 54.7021
935 1 5.37913 39.2329 54.9998
936 1 7.61091 32.8505 12.0056
937 1 33.9336 0.485956 42.79
938 1 36.2367 5.93447 40.5388
939 1 5.42046 29.6106 16.1085
940 1 7.56589 39.0116 53.1662
941 1 36.3438 6.46049 35.1826
942 1 15.1864 46.5629 45.4542
943 1 33.6814 36.7738 34.4025
944 1 9.1727 41.3501 15.7653
945 1 44.7709 20.8721 44.8067
946 1 9.8726 42.4693 44.3349
947 1 41.4214 31.0717 40.6894
948 1 15.5 55.3533 43.7697
949 1 49.7076 49.9397 15.5098
950 1 39.3097 27.7574 50.5137
951 1 15.1125 43.2951 53.6574
952 1 44.1126 0.769258 48.4931
953 1 25.9917 22.5701 51.2738
954 1 11.2778 45.5521 40.8137
955 1 13.3546 21.953 15.4751
956 1 12.1483 20.3125 8.40793
957 1 47.0862 43.8908 51.1862
958 1 8.3598 25.1258 36.2945
959 1 31.6735 50.0093 35.5106
960 1 53.7258 14.1034 12.4597
961 1 36.8697 41.3326 42.6464
962 1 54.9536 6.3283 18.8946
963 1 7.505 29.925 47.2269
964 1 25.244 14.7119 44.5558
965 1 15.4016 30.4552 35.6442
966 1 24.7997 42.6277 31.5776
967 1 10.9803 9.26686 11.3383
968 1 42.6042 9.65849 53.7676
969 1 32.1461 37.3002 50.3027
970 1 31.3513 17.1128 15.6664
971 1 45.1185 5.7176 42.4387
972 1 52.5522 8.47838 51.626
973 2 45.313 4.32335 25.5539
974 2 46.1505 39.3944 35.1671
975 2 53.4174 39.0903 27.7864
976 2 17.2061 30.642 49.7084
977 2 52.746 36.3935 16.2209
978 2 52.4557 36.2014 19.8952
979 2 33.1306 42.3917 40.5622
980 2 54.9474 6.26982 44.8024
981 2 36.3133 11.8237 9.76247
982 2 54.4255 29.5601 48.9353
983 2 12.3075 31.3522 1.27255
984 2 46.1627 22.7681 34.397
985 2 52.061 2.17863 13.4146
986 2 7.23014 18.6302 37.845
987 2 20.3841 6.59168 5.1187
988 2 2.41604 26.6105 51.9357
989 2 39.9752 28.029 32.2417
990 2 53.9359 10.0484 15.0591
991 2 23.0103 21.2522 17.5957
992 2 16.0481 15.7853 54.7405
993 2 1.5448 15.5921 55.9793
994 2 53.4369 23.0291 35.2432
995 1 54.3714 3.21577 43.7877
996 1 51.3623 25.2908 47.2121
997 1 24.5816 2.15499 47.9743
998 1 3.45778 49.4341 27.05
999 1 25.1727 51.0114 51.9684
1000 1 19.4514 8.82213 47.8109
1001 1 31.0428 30.3703 36.5228
1002 1 52.6807 26.4255 8.47919
1003 1 13.9423 29.028 30.7668