ITEM: TIMESTEP
0
ITEM: NUMBER OF ATOMS
9088
ITEM: BOX BOUNDS pp pp pp
-3.4021559346070668e-01 5.6224708219398579e+01
-3.4021559346070668e-01 5.6224708219398579e+01
-3.4021559346070668e-01 5.6224708219398579e+01
ITEM: ATOMS id type x y z
1 1 23.9372 47.4098 50.7715
2 1 44.5775 4.68209 36.539
3 1 25.3938 18.2755 29.7171
4 1 37.2462 49.417 44.2103
5 1 16.6169 12.6602 32.5167
6 1 27.487 24.7767 26.7816
7 1 10.6603 25.927 8.38077
8 1 44.9924 13.2071 49.1233
9 1 52.2216 48.7274 51.966
10 1 37.3665 13.5666 53.2254
11 1 48.5506 35.5493 32.8172
12 1 35.7749 19.4322 36.5501
13 1 27.448 42.3879 35.0199
14 1 8.39677 51.9353 52.2041
15 1 2.68445 36.859 30.5494
16 1 31.8929 51.8439 33.2614
17 1 50.6985 9.56962 27.9376
18 1 1.87771 46.6346 21.6484
19 1 34.7937 33.574 27.0508
20 1 26.7604 40.9097 4.56032
21 1 25.2579 51.2673 52.0714
22 1 49.3163 43.4466 49.6636
23 1 3.50198 26.2748 3.08266
24 1 3.29053 13.1623 56.1247
25 1 21.8126 44.3119 40.0846
26 1 20.1499 28.213 43.6843
27 1 34.5557 30.6832 0.649278
28 1 52.4824 0.811055 13.5571
29 1 21.2168 41.4958 7.84353
30 1 41.3871 5.15742 44.2049
31 1 33.6903 10.8212 2.987
32 1 41.1309 13.542 26.1857
33 1 23.037 46.9397 3.24733
34 1 14.5109 24.6445 1.84221
35 1 9.10735 8.36617 47.108
36 1 23.7185 42.2678 38.6685
37 1 35.2833 8.89913 36.1302
38 1 36.7844 52.9442 8.58719
39 1 13.3271 26.2485 -0.0738606
40 1 8.68965 11.2073 48.004
41 1 47.1689 41.0349 0.759438
42 1 5.48018 39.0023 14.7006
43 1 22.6204 22.1367 12.4574
44 1 50.7424 52.1894 23.3084
45 1 12.7448 43.8329 56.22
46 1 0.0698294 17.9912 10.9945
47 1 38.209 9.71008 31.9317
48 1 23.2567 24.8072 47.7179
49 1 3.32266 21.5773 40.4921
50 1 21.4781 10.9168 23.4275
51 1 50.1884 32.2081 30.6006
52 1 28.9936 7.97865 43.7502
53 1 52.8834 20.3567 0.822589
54 1 54.1117 15.4869 39.2189
55 1 39.8506 45.0791 29.9452
56 1 10.9292 28.8999 17.736
57 1 6.94437 32.984 34.5822
58 1 37.5859 11.7058 21.6048
59 1 7.90474 24.8737 21.2463
60 1 42.532 44.7524 44.9338
61 1 8.54215 25.8074 4.28359
62 1 36.0976 14.3509 27.6211
63 1 49.7895 43.2545 29.4791
64 1 22.4086 3.85968 16.026
65 1 42.5018 11.1285 2.39978
66 1 9.59814 47.0771 50.2034
67 1 2.13779 38.1188 49.6546
68 1 4.47562 27.8609 6.17741
69 1 34.8005 32.6106 50.8604
70 1 11.4343 13.7617 11.8662
71 1 52.0829 47.1467 28.3165
72 1 55.788 29.4816 1.32227
73 1 28.4799 46.4538 14.7782
74 1 22.2587 37.2818 35.457
75 1 37.824 19.5413 5.09396
76 1 39.0801 24.0583 5.85278
77 1 46.6772 47.8842 37.353
78 1 38.9633 42.398 9.95476
79 1 31.6252 23.0825 43.2559
80 1 34.5691 0.667213 42.7794
81 1 20.8679 21.6072 54.7596
82 1 54.9506 46.25 47.9504
83 1 30.2427 44.6131 37.4965
84 1 42.9924 51.4515 53.1632
85 1 39.7743 10.8878 38.7908
86 1 34.8276 34.0262 34.904
87 1 19.0191 28.5013 49.2139
88 1 16.0412 11.5002 13.2172
89 1 3.59715 4.56891 39.171
90 1 3.05666 40.5077 47.6464
91 1 18.1535 7.84979 21.4162
92 1 10.3105 11.8268 19.0608
93 1 38.8832 9.47156 11.0499
94 1 29.4411 54.6345 42.4489
95 1 40.8363 24.2477 18.8409
96 1 7.25561 0.261043 13.4368
97 1 3.83192 10.4042 34.7148
98 1 23.7618 26.0465 32.9736
99 1 42.6138 36.6674 5.87213
100 1 7.08869 49.7838 10.2613
101 1 11.4597 44.0725 46.0467
102 1 5.64708 5.8361 9.93965
103 1 41.9037 43.3941 56.1744
104 1 9.19536 50.0441 44.8561
105 1 31.6994 13.9971 10.3511
106 1 17.348 53.8762 43.4291
107 1 34.1524 2.52328 1.00164
108 1 39.4908 27.4462 50.9247
109 1 6.36191 52.9783 24.692
110 1 31.5991 9.1421 10.5629
111 1 37.9198 4.21442 24.9432
112 1 6.71329 7.02182 5.05732
113 1 28.7253 33.3548 11.0925
114 1 15.5412 16.0366 47.8036
115 1 44.489 35.134 35.2878
116 1 32.0818 0.387569 38.4733
117 1 54.0626 12.089 40.9135
118 1 2.03384 2.06852 54.7606
119 1 38.9801 35.8592 34.365
120 1 15.0711 1.1979 39.8345
121 2 11.9871 38.9156 35.3425
122 2 52.1032 18.8436 12.9076
123 2 55.3851 46.7107 20.8956
124 2 52.81 29.9566 19.8511
125 2 53.8874 35.505 38.5534
126 2 25.2711 7.19774 17.671
127 2 12.1857 51.3259 15.2075
128 2 7.71862 30.0391 35.5107
129 2 55.5772 17.8158 7.43607
130 2 1.35368 21.0854 45.9317
131 2 54.0343 15.2565 46.2975
132 2 39.1531 46.5273 17.3728
133 2 34.8004 42.9562 15.5611
134 2 15.2251 5.12075 8.60483
135 2 42.9767 33.9302 3.68463
136 2 10.0985 0.726919 31.7929
137 2 41.4381 24.1078 46.53
138 2 5.23853 4.72605 49.4307
139 2 31.2498 14.8726 13.3309
140 2 45.089 27.3526 38.7133
141 2 7.68706 38.2271 22.8674
142 2 29.6161 23.0106 40.6769
143 1 6.98608 16.7906 32.3036
144 1 28.2474 21.954 15.7906
145 1 54.3937 12.411 5.99055
146 1 51.3246 22.7073 15.6552
147 1 4.46025 35.5155 26.2046
148 1 14.804 17.6066 31.7954
149 1 48.1285 4.09246 39.5761
150 1 25.0489 25.4364 9.5218
151 1 15.6408 39.3952 52.8484
152 1 5.74021 27.9405 44.2564
153 1 50.2832 48.7035 29.5249
154 1 43.0204 41.8797 30.9059
155 1 32.9982 18.4586 10.3395
156 1 23.0256 34.0054 3.45311
157 1 43.7911 29.7264 22.6896
158 1 30.263 11.3391 55.8713
159 1 27.357 46.3068 8.58504
160 1 49.5069 2.26502 2.40858
161 1 2.71666 14.5056 31.2068
162 1 12.9208 12.9132 44.1404
163 1 19.987 21.2458 26.3856
164 1 -0.198137 38.5026 11.7205
165 1 52.1539 37.1484 4.0063
166 1 45.554 41.8511 14.5311
167 1 32.0465 39.8924 46.6042
168 1 39.7464 2.67035 1.03465
169 1 16.6996 36.4261 40.7545
170 1 39.4253 33.9453 47.3821
171 1 29.3545 32.7669 21.0406
172 1 6.65539 53.0228 28.3321
173 1 5.46745 35.1113 8.60084
174 1 32.37 0.0490125 47.3276
175 1 21.3421 28.0645 14.8092
176 1 39.6756 37.1534 6.39165
177 1 10.0198 4.58215 24.8336
178 1 23.2733 13.9193 35.2024
179 1 12.8507 6.34743 36.6028
180 1 -0.108466 26.0652 11.0004
181 1 36.4589 49.3241 20.828
182 1 51.7727 27.9726 51.2826
183 1 13.5499 20.499 3.95589
184 1 37.6223 48.9077 25.349
185 1 35.4742 14.76 36.298
186 1 28.9278 20.3419 20.114
187 1 1.50407 6.672 53.6533
188 1 30.441 38.1575 0.892762
189 1 13.516 41.0443 33.7556
190 1 34.7405 42.7676 12.2182
191 1 23.8284 49.1591 7.68662
192 1 45.632 2.39365 8.50862
193 1 37.1978 8.60786 13.7902
194 1 35.8391 4.17953 31.2851
195 1 2.88472 46.0809 54.8258
196 1 41.5295 44.1218 8.82146
197 1 7.16779 9.25066 49.4908
198 1 13.6609 16.0112 10.9379
199 1 14.2042 31.2405 3.29714
200 1 40.034 20.6088 40.9734
201 1 28.6687 25.9179 23.4511
202 1 43.5754 50.1648 17.2775
203 1 38.7721 30.6082 42.3408
204 1 2.81825 33.8535 21.2619
205 1 13.6115 14.534 48.8443
206 1 26.4698 54.7016 37.5503
207 1 0.166275 46.0743 38.0612
208 1 32.0722 5.05657 10.7709
209 1 33.9711 2.03979 51.3247
210 1 27.4055 21.6951 42.0818
211 1 8.24269 9.34278 22.94
212 1 46.5103 37.4854 39.7936
213 1 22.6619 12.3763 51.4079
214 1 0.976294 37.842 2.32819
215 1 4.41655 35.7994 20.1152
216 1 54.5244 23.9656 49.0176
217 1 22.3708 12.8899 38.0571
218 1 1.41276 9.30809 54.1624
219 1 38.2878 3.11199 18.298
220 1 22.6966 16.6979 31.6019
221 1 46.8152 46.7151 5.40399
222 1 51.1498 49.2141 6.78334
223 1 10.3232 20.0014 39.2176
224 1 19.6186 35.2622 2.60079
225 1 44.3621 49.0128 38.1525
226 1 18.3272 38.6965 23.3941
227 1 20.3345 45.4196 33.0536
228 1 0.0622311 19.9681 53.1028
229 1 5.44913 51.6651 52.1927
230 1 30.9495 29.777 41.7514
231 1 43.0397 25.563 20.7206
232 1 35.1124 12.5376 16.2837
233 1 50.596 49.7521 35.3861
234 1 10.6133 45.0198 48.5371
235 1 49.955 26.2347 49.5404
236 1 7.50411 2.95658 44.7014
237 1 55.0772 34.1481 18.2003
238 1 32.4793 6.55507 54.974
239 1 34.2453 28.5639 5.84849
240 1 16.8494 18.6322 53.8435
241 1 19.9723 49.3042 10.2511
242 1 50.5894 7.67948 36.7377
243 1 9.17296 30.4753 18.7883
244 1 25.4068 2.48788 40.3668
245 1 0.956835 28.1309 19.7665
246 1 6.04724 5.05914 3.56752
247 1 48.6775 2.07534 9.20708
248 1 44.675 0.615106 45.6134
249 1 7.97589 35.0669 49.8166
250 1 23.791 24.3793 17.6095
251 1 39.3415 56.0868 6.05758
252 1 11.3685 25.6686 44.8648
253 1 2.75062 27.0796 48.3133
254 1 9.04618 47.1695 33.1766
255 1 0.631949 9.18317 15.7139
256 1 31.2534 47.6759 24.5476
257 1 1.44202 12.1273 35.0441
258 1 33.1495 18.5111 27.6478
259 1 45.9316 46.0361 55.0477
260 1 25.2807 41.3238 33.9687
261 1 31.9007 10.1839 39.3817
262 1 46.285 47.7659 17.5884
263 2 44.1783 24.6379 29.315
264 2 25.3848 47.9566 1.24068
265 2 50.3644 7.37479 49.4467
266 2 6.92788 24.5986 38.4756
267 2 14.7238 21.3711 1.42133
268 2 4.59783 2.90652 24.502
269 2 15.3753 2.35943 16.7062
270 2 44.7814 43.6979 53.8331
271 2 54.1093 44.8051 26.3629
272 2 33.1311 40.452 13.5056
273 2 32.3317 7.87867 36.653
274 2 53.3442 26.8925 30.5444
275 2 27.3638 6.61081 53.3591
276 2 -0.0632374 13.6814 4.10124
277 2 1.25401 43.1834 39.7078
278 2 9.88809 35.8225 18.6722
279 2 44.2292 51.749 46.7708
280 2 20.1962 55.2408 22.3639
281 2 41.3928 17.2903 14.5305
282 2 15.259 28.7987 7.96112
283 2 46.9652 47.9541 28.7921
284 2 16.9554 27.1011 34.6137
285 1 16.6508 31.7346 8.12272
286 1 49.9342 34.6109 20.2252
287 1 40.9498 55.8243 39.7943
288 1 16.6402 23.1919 38.1193
289 1 7.53711 20.6998 54.1247
290 1 50.8563 12.7286 24.2259
291 1 36.2307 40.1421 40.727
292 1 33.933 4.89009 40.3596
293 1 54.4278 24.9455 1.40063
294 1 31.1574 32.6852 41.9986
295 1 47.2727 25.28 29.9796
296 1 14.2363 34.2846 32.9875
297 1 48.3131 13.9649 33.6436
298 1 33.5966 23.4508 12.8072
299 1 45.8016 10.8634 14.7975
300 1 24.5794 31.9602 9.28863
301 1 25.1196 49.8141 22.891
302 1 47.2945 35.7869 24.3693
303 1 53.9439 3.28282 1.56719
304 1 6.32067 41.3077 9.54487
305 1 26.1545 44.4423 28.4099
306 1 28.2626 0.35131 55.1752
307 1 5.04833 40.1012 32.0457
308 1 40.2155 54.0909 45.2552
309 1 49.5897 30.5231 28.2984
310 1 4.53788 10.554 9.58295
311 1 38.2054 35.0592 5.21963
312 1 10.5379 7.65525 25.619
313 1 6.68125 56.0854 20.2571
314 1 29.1798 49.7307 54.9987
315 1 4.83102 6.14634 14.5795
316 1 48.7983 -0.215161 0.740983
317 1 27.4099 48.0911 41.5243
318 1 5.86773 23.2397 11.3257
319 1 2.92933 2.74734 12.3701
320 1 12.7989 28.7438 32.876
321 1 26.2567 38.5375 34.3835
322 1 55.6273 21.8842 22.9474
323 1 21.0457 12.0542 30.4017
324 1 18.4755 8.70977 32.2329
325 1 21.8145 46.5149 43.1195
326 1 16.7432 31.597 40.8929
327 1 7.53732 50.5256 23.9903
328 1 0.451021 7.8525 36.5583
329 1 4.31736 25.5764 44.8604
330 1 12.4474 22.0893 40.1647
331 1 11.2938 35.3432 54.5325
332 1 9.84122 28.8166 10.4402
333 1 0.313523 -0.0271101 2.68414
334 1 33.826 35.1187 22.6386
335 1 47.2978 27.2357 49.3283
336 1 47.4675 21.162 12.4633
337 1 0.894445 34.1171 7.31429
338 1 9.71867 18.63 28.2192
339 1 8.59684 20.5522 10.0006
340 1 24.9641 23.1952 26.0562
341 1 32.3817 45.1116 39.3329
342 1 55.4115 22.686 20.3307
343 1 44.3513 6.8072 24.2059
344 1 33.6403 15.6518 11.5474
345 1 49.5816 16.6508 3.69114
346 1 49.2767 51.9606 17.3072
347 1 19.8713 18.3949 11.1017
348 1 19.5627 10.2263 21.5813
349 1 4.43345 36.9148 10.3025
350 1 6.61274 52.77 33.6522
351 1 45.1463 35.6563 5.51376
352 1 1.49706 49.2633 41.2585
353 1 11.3153 36.4133 52.0874
354 1 54.4515 37.7576 43.8023
355 1 48.8581 28.7677 38.927
356 1 9.89065 40.3948 43.107
357 1 18.5537 39.6906 52.916
358 1 24.7051 20.5658 8.50844
359 1 32.2801 46.7894 53.0172
360 1 26.0979 15.4258 51.1346
361 1 23.5827 15.6567 46.1237
362 1 51.1369 35.4485 50.4297
363 1 44.2081 18.5265 14.7164
364 1 47.8543 9.68984 40.9021
365 1 37.3107 46.6832 11.8791
366 1 14.942 31.2267 17.2982
367 1 13.7336 48.5858 44.746
368 1 28.3735 46.4468 24.9186
369 1 36.3736 15.5321 11.5952
370 1 55.9429 54.5768 11.2502
371 1 9.73255 54.5975 51.375
372 1 13.2624 32.7995 15.6185
373 1 3.23975 54.5405 55.8277
374 1 47.2518 50.6074 2.26328
375 1 18.6102 2.36511 36.0013
376 1 43.0442 48.9415 24.9422
377 1 34.8181 24.3474 53.1325
378 1 36.1921 46.0218 16.1283
379 1 50.1583 39.7256 22.3572
380 1 27.673 40.661 24.071
381 1 16.5264 16.8716 51.8862
382 1 47.6102 21.2029 8.11718
383 1 16.8859 15.1287 34.0028
384 1 1.81876 14.7052 35.702
385 1 29.3405 8.98976 19.5699
386 1 35.9945 39.0935 22.9321
387 1 25.971 42.6643 48.9665
388 1 21.9507 8.70186 35.4467
389 1 26.9133 13.9855 13.7369
390 1 45.696 48.8661 31.7316
391 1 3.89989 55.8023 50.4547
392 1 47.9137 51.2182 35.4647
393 1 3.19914 27.6659 0.906156
394 1 24.2806 32.205 1.71327
395 1 54.9539 4.83055 47.7959
396 1 14.373 48.4815 22.4832
397 1 11.8205 37.1055 20.7019
398 1 8.33267 21.3793 49.262
399 1 6.94517 54.1675 41.6091
400 1 36.313 43.3022 27.5168
401 1 16.5555 45.0709 4.06242
402 1 31.8309 48.2658 43.6903
403 1 14.9138 38.3523 27.9152
404 1 25.4946 40.2125 46.942
405 2 19.7955 8.09411 14.0238
406 2 36.0529 30.8838 7.99957
407 2 34.5891 12.971 12.7494
408 2 24.7869 49.4331 12.5824
409 2 45.5131 56.1288 16.1622
410 2 36.831 49.4216 16.2018
411 2 5.68626 41.5105 17.0112
412 2 53.6504 8.4791 35.6181
413 2 31.3254 21.1886 45.8371
414 2 12.8168 35.6184 47.4895
415 2 55.736 52.2422 8.50564
416 2 52.0146 43.1629 55.3377
417 2 44.0503 5.18663 10.121
418 2 7.58864 36.0419 11.0133
419 2 15.5952 54.3461 22.446
420 2 24.0306 23.2107 23.0318
421 2 41.2933 49.5342 9.69067
422 2 32.2995 16.2736 8.05985
423 2 8.16833 0.254693 43.0864
424 2 52.4405 10.4109 4.62815
425 2 48.2814 51.9733 38.9959
426 2 37.6087 8.39322 38.1066
427 1 12.714 19.1367 40.2711
428 1 9.84807 50.0353 13.5872
429 1 33.6516 -0.0732516 11.2125
430 1 16.6413 3.36818 23.9371
431 1 21.2719 45.0551 25.9361
432 1 35.121 6.46622 38.0145
433 1 26.0432 23.2211 17.1056
434 1 18.049 34.8679 42.2911
435 1 22.9433 52.2703 8.61919
436 1 32.8389 32.2187 48.9767
437 1 27.6533 23.8569 35.7889
438 1 51.3266 7.477 33.84
439 1 1.91351 38.0668 54.4952
440 1 12.9001 11.0165 26.3577
441 1 22.4671 14.0501 10.6713
442 1 41.0029 22.2212 13.4318
443 1 38.1805 10.5297 29.4137
444 1 13.9756 45.658 39.751
445 1 5.19797 14.7811 17.5029
446 1 38.6356 31.7212 39.7992
447 1 20.7084 52.1258 10.3605
448 1 29.6575 14.1074 55.3924
449 1 54.4373 6.63779 29.1219
450 1 54.7131 37.9455 46.4585
451 1 26.2791 51.959 6.2622
452 1 55.3236 9.67983 17.9056
453 1 15.0289 15.8498 23.4709
454 1 9.65341 32.9819 51.0531
455 1 21.3324 13.457 24.8846
456 1 27.1915 0.461961 36.4411
457 1 53.788 41.4742 19.7246
458 1 27.3245 20.1751 36.901
459 1 2.66871 34.5481 9.57912
460 1 42.4636 8.13297 44.4904
461 1 5.18184 17.2617 18.5095
462 1 48.7228 27.8881 9.49239
463 1 10.8388 10.8356 3.86983
464 1 31.2374 52.8906 23.0497
465 1 6.13845 3.36526 34.6623
466 1 4.60794 47.5951 17.9881
467 1 33.7323 23.7513 38.3815
468 1 46.8303 11.4709 38.3256
469 1 14.99 41.3151 31.2777
470 1 20.6979 43.6226 9.50713
471 1 27.0639 9.81721 3.29735
472 1 13.7567 23.0918 37.8645
473 1 50.3616 41.0377 45.8991
474 1 45.0008 26.6322 22.1217
475 1 23.2981 25.003 20.2719
476 1 13.9098 40.53 29.0454
477 1 49.6354 3.46263 37.326
478 1 42.2664 10.0234 27.1952
479 1 56.0235 25.8486 35.445
480 1 45.8091 13.7798 6.12272
481 1 19.4347 53.9336 41.9754
482 1 32.5778 48.2102 30.0145
483 1 46.5814 19.2704 34.2442
484 1 12.2095 34.5078 2.24531
485 1 18.4677 45.3771 25.0455
486 1 44.3194 4.43978 54.0089
487 1 26.0608 16.9754 27.2242
488 1 6.16439 54.6278 30.8563
489 1 2.96262 44.6161 13.4116
490 1 24.5175 49.9789 26.4892
491 1 26.757 9.40884 19.1582
492 1 27.1723 24.8641 41.8675
493 1 12.5245 42.889 31.009
494 1 2.01871 55.2668 11.9205
495 1 13.3216 22.0191 12.2474
496 1 39.2583 17.8155 36.9674
497 1 13.154 43.0012 28.3063
498 1 6.84884 14.7982 13.4093
499 1 34.2298 30.5451 20.7052
500 1 50.0937 4.24958 32.4331
501 1 50.2284 49.3124 53.4663
502 1 5.6027 44.1091 9.41474
503 1 45.0928 8.38412 44.0072
504 1 34.7647 52.5833 26.7769
505 1 36.6069 25.2162 0.897712
506 1 19.0733 32.8653 41.115
507 1 52.0567 52.6163 28.0953
508 1 10.8522 42.9935 17.5175
509 1 53.4258 29.3803 7.99171
510 1 31.5666 2.01696 1.7881
511 1 48.5716 7.90513 4.81573
512 1 14.1043 50.4577 12.5061
513 1 17.6173 16.6553 25.005
514 1 31.1687 26.8467 21.0346
515 1 28.0561 9.89815 27.8252
516 1 5.14113 40.7299 37.3075
517 1 17.4997 4.30167 6.51702
518 1 24.2851 12.1261 13.1389
519 1 8.02304 9.06951 44.7168
520 1 35.9286 17.8303 4.29538
521 1 48.448 25.3922 34.6269
522 1 9.32032 19.1709 2.661
523 1 44.0526 10.7763 22.8998
524 1 40.0943 52.149 31.7782
525 1 9.54357 25.5792 32.9223
526 1 26.0204 12.5632 31.282
527 1 39.5338 2.42859 28.9758
528 1 2.31246 6.53127 6.17052
529 1 40.2789 6.60945 31.2172
530 1 46.9233 55.6456 5.35087
531 1 31.3606 1.24736 28.0128
532 1 48.3257 55.3435 16.1302
533 1 41.2645 8.64975 3.35231
534 1 18.8922 30.5761 14.8864
535 1 32.9808 51.416 51.9337
536 1 50.1016 31.8376 19.7099
537 1 18.8195 21.8787 20.9776
538 1 25.2904 16.9973 43.8842
539 1 28.9189 37.4032 33.4424
540 1 40.0561 11.6771 28.1859
541 1 40.8867 40.375 9.5341
542 1 31.7423 46.5002 32.0819
543 1 38.3193 45.3817 35.1787
544 1 31.6655 34.9142 15.0659
545 1 52.1039 24.958 5.75342
546 1 10.2316 36.865 29.7246
547 2 15.6453 40.5707 26.0827
548 2 12.8731 46.7527 0.960077
549 2 34.218 51.3195 21.766
550 2 0.739865 50.073 13.8766
551 2 50.9157 6.60588 17.9912
552 2 10.1102 6.7041 35.3499
553 2 37.7196 10.1058 16.9029
554 2 23.2434 5.58884 53.177
555 2 14.7306 13.0165 21.7825
556 2 12.6317 41.6463 43.0607
557 2 13.8408 5.55593 33.81
558 2 17.2941 33.1115 3.23625
559 2 40.2816 17.0616 21.0901
560 2 4.67771 15.9927 29.2938
561 2 39.1395 12.4034 50.6332
562 2 3.73379 19.4292 28.3892
563 2 30.4376 47.1132 35.1175
564 2 16.6791 5.04527 40.2009
565 2 20.3326 22.139 34.6531
566 2 31.0635 13.3145 38.8216
567 2 44.8237 38.4555 0.28231
568 2 43.6825 18.1175 20.2034
569 1 18.7263 55.8877 17.4459
570 1 50.3225 36.2211 47.9824
571 1 19.7879 20.2178 8.82771
572 1 51.9655 19.3272 50.4366
573 1 18.2346 18.1915 23.0635
574 1 35.1016 55.0457 7.11052
575 1 10.6096 17.4834 25.7479
576 1 13.3459 4.23478 19.0418
577 1 0.10468 7.87221 13.3599
578 1 55.6408 40.1799 44.6917
579 1 27.2774 36.1848 49.098
580 1 12.5941 12.0572 55.8408
581 1 36.0366 0.453645 0.870743
582 1 15.9474 23.1727 21.9853
583 1 45.8682 25.6902 17.963
584 1 31.283 2.01259 36.078
585 1 33.4057 8.03056 23.1333
586 1 55.6715 -0.133661 30.9571
587 1 10.8442 1.44135 7.06351
588 1 5.44329 47.2311 15.477
589 1 51.3664 33.8817 48.4603
590 1 1.36964 9.33617 7.83147
591 1 23.0052 6.79298 37.6837
592 1 52.6396 33.2146 6.26403
593 1 24.7017 34.8177 47.2229
594 1 2.89782 42.545 42.2675
595 1 34.6316 16.0937 44.4529
596 1 5.4683 2.44767 39.4526
597 1 28.707 29.2872 6.50076
598 1 7.43426 48.068 39.6878
599 1 53.1231 7.56256 15.9225
600 1 14.1478 34.0845 4.39083
601 1 20.483 47.2975 3.73293
602 1 3.04885 42.4874 15.4144
603 1 27.0314 35.5114 52.2248
604 1 17.0388 11.5743 25.8341
605 1 15.6483 35.6245 49.0736
606 1 18.1805 41.3632 45.7613
607 1 38.7136 14.3168 34.0096
608 1 49.3225 35.2204 52.4675
609 1 34.2673 30.4105 12.6921
610 1 43.9156 5.3623 45.2105
611 1 16.8417 55.6693 41.0958
612 1 18.0168 47.0607 45.7241
613 1 15.0826 48.9009 53.5575
614 1 53.8583 33.3668 10.4802
615 1 6.05276 42.8192 41.4483
616 1 51.7 24.1377 29.7922
617 1 16.555 11.6878 52.1579
618 1 55.2715 49.8506 15.9257
619 1 38.0745 13.3271 26.2568
620 1 33.217 30.186 23.0203
621 1 53.2003 8.41095 27.4529
622 1 3.21308 37.8595 46.7933
623 1 15.4785 44.2626 11.6266
624 1 34.1741 11.3379 51.7935
625 1 14.0563 31.3844 20.24
626 1 33.6773 21.3444 26.7097
627 1 40.5167 54.9848 28.6632
628 1 32.121 7.70612 17.7827
629 1 44.1717 48.5038 5.19792
630 1 45.103 7.3847 26.5888
631 1 43.8333 28.9488 13.8203
632 1 22.073 10.0574 28.7675
633 1 10.3091 10.658 55.2636
634 1 48.0856 45.7442 17.9404
635 1 18.485 53.8165 39.281
636 1 6.15098 6.84079 16.9669
637 1 50.8121 12.702 35.9351
638 1 43.7722 55.0294 13.8814
639 1 26.8787 2.81438 2.14757
640 1 33.2874 44.1553 6.71208
641 1 47.73 40.4302 32.5012
642 1 53.661 18.7093 9.93503
643 1 52.0858 15.8367 30.9078
644 1 26.3274 47.4109 43.8168
645 1 43.8377 18.2709 51.0535
646 1 13.308 31.4849 12.9087
647 1 12.4248 34.0734 12.974
648 1 7.99312 30.8118 41.1815
649 1 15.8207 18.6046 24.8568
650 1 13.6385 9.66135 3.25171
651 1 31.7982 26.3089 26.4575
652 1 16.3397 33.9221 6.3754
653 1 51.8068 27.9528 48.4294
654 1 28.1517 32.1929 55.3348
655 1 45.0988 0.0782805 24.6658
656 1 37.2452 52.0557 40.2801
657 1 38.5884 20.7558 17.6772
658 1 25.3041 8.31075 55.157
659 1 31.9872 42.5272 37.3783
660 1 5.06114 55.6785 17.6652
661 1 46.1949 36.6982 12.8643
662 1 19.3168 37.6819 35.2071
663 1 16.6833 38.5285 10.3218
664 1 54.0316 50.1434 3.39846
665 1 28.7531 5.14415 4.40562
666 1 20.1253 21.0693 50.2845
667 1 45.145 16.7315 22.8202
668 1 48.111 25.9379 53.9828
669 1 51.6043 24.7133 13.4657
670 1 27.8165 47.7982 17.1455
671 1 40.3685 45.2025 6.37141
672 1 1.96968 18.5042 8.99138
673 1 13.7843 9.95045 43.602
674 1 44.0984 51.8678 5.90765
675 1 5.07939 39.0176 55.0498
676 1 55.689 18.2027 26.2614
677 1 55.9412 36.2138 54.2425
678 1 15.8726 55.6698 17.5198
679 1 44.7492 2.59717 16.0152
680 1 28.3744 32.4249 46.0446
681 1 53.3572 23.7197 52.3311
682 1 8.71778 3.55885 42.4691
683 1 32.9744 11.4979 29.9143
684 1 38.2634 32.4857 37.1301
685 1 23.0611 54.984 14.7124
686 1 44.7294 15.0649 10.8517
687 1 47.435 55.3789 28.2491
688 1 24.3398 4.48684 38.8624
689 2 21.9324 49.4259 24.1034
690 2 30.2244 50.4663 10.1941
691 2 34.4426 26.9401 39.0318
692 2 14.0142 36.8435 53.8839
693 2 44.9746 48.3841 22.4684
694 2 3.43839 51.7326 54.5412
695 2 17.7222 14.8888 45.5901
696 2 16.3069 40.6099 7.75752
697 2 1.59979 18.1338 36.2467
698 2 17.4537 18.4063 7.13011
699 2 44.7776 11.2255 40.3868
700 2 38.4442 4.54486 3.57255
701 2 53.8394 27.3195 5.32706
702 2 35.9095 28.8461 27.2183
703 2 48.6858 45.8961 44.7804
704 2 54.1054 12.5702 17.4928
705 2 2.70747 36.8862 7.38736
706 2 2.42173 40.3236 44.7372
707 2 47.6772 17.0948 18.615
708 2 43.0208 54.8664 0.825104
709 2 44.2159 30.5512 42.5707
710 2 53.1771 48.6981 30.6079
711 1 44.4072 1.93097 51.7341
712 1 21.2931 14.9285 0.0689123
713 1 0.611062 50.6205 47.116
714 1 44.6436 32.1565 26.7878
715 1 0.215838 11.8797 40.3211
716 1 2.79852 15.5883 51.0512
717 1 44.042 55.9633 4.16429
718 1 5.63681 41.6498 48.555
719 1 42.5587 21.0326 42.4354
720 1 19.0866 16.3019 13.1933
721 1 31.0472 6.45585 5.12715
722 1 32.5805 37.6322 55.9324
723 1 19.0528 15.1992 15.703
724 1 39.0069 36.5459 41.6089
725 1 11.1331 50.1633 40.794
726 1 23.783 42.7389 45.0388
727 1 32.434 44.8809 16.7759
728 1 28.6355 1.10611 1.44392
729 1 52.9624 19.8684 47.7086
730 1 3.76646 54.5352 29.1713
731 1 41.6506 8.12964 13.3503
732 1 13.4134 1.22279 14.3908
733 1 47.9254 4.98248 42.6271
734 1 37.7136 45.3456 19.6588
735 1 50.5598 32.2029 50.3721
736 1 42.445 1.44109 0.349064
737 1 26.0271 44.341 33.6953
738 1 0.710611 11.6975 6.24036
739 1 23.1521 22.652 53.353
740 1 36.8281 37.8654 49.8221
741 1 52.7178 11.3443 28.2621
742 1 4.59342 18.4843 31.4265
743 1 35.9433 34.5696 29.1324
744 1 33.7966 55.5884 40.4526
745 1 48.0948 12.14 10.8092
746 1 15.5123 24.0998 27.1237
747 1 0.766408 2.50723 36.0613
748 1 43.2811 52.0864 8.53179
749 1 17.3663 13.1811 42.7742
750 1 53.3369 4.61363 18.9731
751 1 30.1395 3.18783 23.8424
752 1 21.6928 15.277 39.5784
753 1 16.9927 10.1232 42.7647
754 1 25.3198 55.8199 22.5256
755 1 26.048 25.4377 18.6405
756 1 31.5102 49.3028 53.4688
757 1 25.7156 33.8522 23.2109
758 1 54.8292 27.1791 20.3963
759 1 45.2051 0.146034 55.46
760 1 18.0022 41.0018 0.572232
761 1 54.869 14.1428 21.0221
762 1 38.2047 54.4765 14.2865
763 1 24.3734 17.7281 8.69708
764 1 14.4261 14.8941 32.1735
765 1 41.5061 23.3527 34.1503
766 1 38.0985 19.3515 50.8891
767 1 9.15041 8.11617 32.2803
768 1 25.6757 21.9833 35.4129
769 1 18.1534 48.6583 54.7664
770 1 14.7426 6.36789 3.3169
771 1 12.2188 38.604 43.9808
772 1 30.1598 15.4659 49.082
773 1 10.6669 16.2405 45.6307
774 1 41.3033 0.304695 43.9172
775 1 46.2764 41.7453 30.3077
776 1 26.2666 1.47933 21.0011
777 1 9.27763 52.7417 28.4469
778 1 22.087 33.8612 47.4898
779 1 40.918 26.8014 44.7313
780 1 25.8437 54.3772 41.1686
781 1 13.4052 35.5875 14.936
782 1 8.40468 21.0608 14.4823
783 1 50.1923 0.966914 36.6394
784 1 42.355 19.8511 12.731
785 1 29.915 26.4531 47.04
786 1 15.0588 7.80485 36.1487
787 1 5.02555 31.0444 54.4974
788 1 2.2343 9.93241 36.8881
789 1 22.3078 17.7302 47.6602
790 1 47.6421 36.6817 47.7286
791 1 35.8253 19.7168 27.1941
792 1 24.0568 56.1619 16.7761
793 1 55.0454 48.9718 11.0042
794 1 27.4749 27.8474 18.4672
795 1 55.3523 51.5371 11.7659
796 1 1.17626 53.9711 54.0991
797 1 18.7101 11.0132 13.8776
798 1 55.6312 23.0409 53.486
799 1 18.7349 25.4363 10.3024
800 1 17.0987 30.6547 55.0763
801 1 49.0249 48.1729 10.7052
802 1 11.4871 20.0918 26.6304
803 1 36.9391 47.6492 39.1342
804 1 51.9741 37.1692 8.83772
805 1 39.16 48.1768 29.8661
806 1 10.9401 15.1895 35.545
807 1 55.7563 19.2084 38.4328
808 1 46.4022 3.07453 37.7515
809 1 11.3982 34.4065 8.21703
810 1 7.92593 40.648 32.2621
811 1 33.9202 22.3307 48.2537
812 1 33.5383 45.8189 14.6907
813 1 1.07504 11.4146 2.55996
814 1 38.706 9.3108 19.8566
815 1 4.6116 8.61235 41.4738
816 1 48.9411 8.04656 38.8447
817 1 44.665 43.8872 29.3789
818 1 48.5551 46.8009 39.3876
819 1 22.1575 35.1732 1.18519
820 1 56.2002 20.6513 35.5181
821 1 13.8262 37.0683 23.0479
822 1 0.990152 4.12754 29.0279
823 1 55.9628 50.6075 40.2925
824 1 6.21916 0.107906 24.9876
825 1 15.8028 49.1325 32.435
826 1 16.6959 50.5611 3.93472
827 1 25.7506 49.4214 39.5148
828 1 39.2637 33.559 42.5267
829 1 49.6304 56.0886 29.4388
830 1 51.7571 43.3058 4.19183
831 2 7.2638 40.3081 39.8205
832 2 24.3197 14.6648 3.11154
833 2 20.3095 43.1286 23.5049
834 2 42.8138 29.0097 45.7912
835 2 25.4247 1.60379 28.9176
836 2 19.4831 17.0391 32.423
837 2 15.9726 27.1882 17.5508
838 2 23.0292 42.6846 48.0051
839 2 28.4994 34.9632 31.274
840 2 19.8254 15.9729 53.77
841 2 15.8796 26.9313 26.3327
842 2 47.3593 9.43464 45.9329
843 2 42.2706 1.27722 29.5545
844 2 31.4327 15.5093 18.5255
845 2 8.47294 51.7762 15.7892
846 2 41.929 41.431 48.7196
847 2 48.4445 55.4103 10.555
848 2 48.1774 44.4628 26.1438
849 2 23.4684 17.3479 34.6282
850 2 23.0044 32.4293 44.7615
851 2 48.2679 0.202899 54.0236
852 2 46.585 38.9709 20.4321
853 1 27.9729 53.9968 15.7395
854 1 30.6556 42.406 46.9803
855 1 47.8062 27.0584 15.0523
856 1 50.7008 12.5155 26.8215
857 1 49.7963 15.7491 43.1023
858 1 13.9004 48.1052 47.4102
859 1 50.134 21.6719 25.6703
860 1 9.31981 37.6609 3.77123
861 1 51.9169 36.8633 29.3757
862 1 54.4943 30.8143 5.52417
863 1 33.449 11.6294 9.97543
864 1 31.7709 21.2896 4.02259
865 1 14.6248 26.7849 14.5708
866 1 2.00277 39.7935 0.162413
867 1 53.4923 12.806 44.7248
868 1 51.7096 2.34416 38.8007
869 1 53.6485 26.3374 49.8349
870 1 55.3948 28.7982 28.8225
871 1 10.1087 28.0472 15.1066
872 1 53.6817 37.7271 40.5048
873 1 21.9692 42.9668 12.9046
874 1 54.2508 45.9226 1.4314
875 1 55.2208 25.3164 44.2802
876 1 41.3611 6.14255 16.0143
877 1 -0.00591627 27.5792 22.6617
878 1 41.0554 19.8547 19.1687
879 1 6.02123 24.2801 31.0361
880 1 51.6168 11.2293 1.79949
881 1 32.8187 18.4889 45.4536
882 1 44.8237 22.6002 53.0106
883 1 21.4701 9.00303 5.76008
884 1 51.9259 54.6416 36.5149
885 1 16.0325 35.5664 52.3174
886 1 36.9453 35.3881 0.448437
887 1 7.03618 15.5163 19.7826
888 1 9.3558 30.429 49.7101
889 1 47.9382 5.69396 33.2508
890 1 2.05356 48.1145 2.49166
891 1 42.9641 19.0237 44.342
892 1 19.2346 45.067 5.00154
893 1 24.4879 0.154932 40.4996
894 1 9.55642 47.9063 6.76111
895 1 8.68441 43.2474 28.823
896 1 2.47586 40.8632 17.7523
897 1 28.8292 52.7377 4.96426
898 1 36.2617 26.839 55.2126
899 1 16.723 19.3827 32.4026
900 1 10.6367 22.4526 52.8198
901 1 37.9016 43.2646 43.6918
902 1 25.9347 50.1054 29.2109
903 1 13.0299 4.89932 16.2896
904 1 35.6944 35.7821 11.4719
905 1 28.2594 30.109 22.2279
906 1 10.1832 29.1221 25.3391
907 1 25.0335 43.6656 13.1115
908 1 1.44607 5.6261 34.9249
909 1 45.8939 2.76157 40.7484
910 1 50.4829 39.8464 7.98414
911 1 13.1899 8.78112 24.7861
912 1 21.0491 14.3113 45.442
913 1 7.44112 1.30283 54.2071
914 1 53.324 51.8407 30.9399
915 1 20.2476 16.2955 47.2127
916 1 18.8957 40.0733 33.9159
917 1 31.4004 3.16154 51.6045
918 1 50.5046 35.0419 14.2907
919 1 48.6717 40.7171 39.1654
920 1 25.8741 36.0845 24.3952
921 1 41.2782 55.8292 19.0395
922 1 17.5385 41.851 31.7771
923 1 54.5406 2.56581 32.4085
924 1 0.205818 11.8026 16.8176
925 1 44.8174 54.2811 6.98511
926 1 27.9929 49.9988 51.7665
927 1 51.5635 0.380348 41.3898
928 1 39.7624 12.6419 11.3111
929 1 50.0702 33.0954 7.06233
930 1 33.9734 40.4536 10.1817
931 1 17.4801 24.8164 28.711
932 1 35.2281 9.84515 25.5283
933 1 29.4011 8.95302 46.3573
934 1 24.5139 51.2673 54.7193
935 1 0.579327 47.8562 16.2018
936 1 20.6153 31.7006 21.3625
937 1 38.4506 32.7525 44.8745
938 1 34.7114 13.7026 46.241
939 1 3.10495 44.0341 0.548981
940 1 54.4599 4.27503 11.1501
941 1 33.296 54.4366 38.1493
942 1 15.2864 46.6566 45.8488
943 1 36.0365 38.2928 35.5938
944 1 8.91333 41.2065 15.9161
945 1 45.4217 28.1958 44.3076
946 1 14.1858 44.4113 44.6354
947 1 37.2974 28.6619 34.2035
948 1 15.6277 55.9344 44.3389
949 1 50.5577 2.01118 28.3901
950 1 39.8993 12.6618 43.7052
951 1 15.0511 43.4755 53.8668
952 1 44.5701 0.735695 48.3215
953 1 28.214 24.1127 3.54221
954 1 8.29213 55.17 29.6854
955 1 13.0592 21.8797 15.513
956 1 6.50246 8.26088 2.54427
957 1 47.5438 43.6797 51.4782
958 1 54.3931 23.3029 30.1768
959 1 21.1561 46.1296 54.8439
960 1 53.9116 14.0711 12.3548
961 1 37.0889 40.8604 3.17797
962 1 34.9305 6.93307 18.5081
963 1 7.66974 30.3086 47.107
964 1 25.4932 14.3748 44.5293
965 1 16.385 32.1027 33.5476
966 1 25.0862 42.3413 31.3658
967 1 15.3379 1.36422 48.7095
968 1 42.9958 17.0162 45.982
969 1 37.0971 41.9927 51.8921
970 1 38.9529 27.3551 27.6305
971 1 34.6699 11.2607 41.0494
972 1 33.6349 1.87505 40.5207
973 2 45.4992 4.10333 25.6147
974 2 46.2985 39.514 35.3948
975 2 53.7291 39.1336 27.929
976 2 17.6199 30.9351 49.8623
977 2 53.0106 35.9288 16.1041
978 2 52.5842 36.3479 20.0243
979 2 33.1606 42.3868 40.4058
980 2 55.2553 6.11001 44.9441
981 2 36.5641 11.9313 9.77841
982 2 54.5623 29.4849 49.328
983 2 12.4151 31.3483 0.653748
984 2 46.6381 22.6511 34.4165
985 2 51.9048 2.04653 10.5923
986 2 7.65012 18.5394 37.9376
987 2 16.2056 7.4919 5.88939
988 2 2.44212 26.4314 51.9571
989 2 39.8838 27.6375 32.3237
990 2 54.362 9.76836 14.6674
991 2 23.1504 21.2446 17.6596
992 2 15.9927 15.8703 54.5867
993 2 1.43605 15.4173 56.1773
994 2 53.4672 23.1482 35.4654
995 1 54.3848 2.79215 43.654
996 1 51.1797 25.6518 47.3694
997 1 24.3781 2.12388 48.0461
998 1 5.56155 48.0959 25.1158
999 1 19.7419 44.2242 53.8694
1000 1 19.7217 8.89234 47.9083
1001 1 30.6897 30.2461 37.0189
1002 1 52.9662 26.7138 8.33489