ITEM: TIMESTEP
0
ITEM: NUMBER OF ATOMS
9088
ITEM: BOX BOUNDS pp pp pp
-2.5236872097762386e-01 5.6136861346828113e+01
-2.5236872097762386e-01 5.6136861346828113e+01
-2.5236872097762386e-01 5.6136861346828113e+01
ITEM: ATOMS id type x y z
1 1 28.1974 41.2798 49.1044
2 1 44.3111 4.5445 36.5706
3 1 40.3653 15.4371 50.4125
4 1 36.9673 49.2998 43.5385
5 1 11.2018 34.4355 8.38224
6 1 35.8723 25.7412 22.245
7 1 19.8698 33.0722 0.966251
8 1 48.2079 1.45965 9.3883
9 1 55.7682 50.3794 39.8716
10 1 36.7591 13.1666 53.5567
11 1 48.2959 35.666 32.606
12 1 35.6871 19.4442 36.9708
13 1 21.6253 48.7141 36.9444
14 1 19.857 49.5039 50.2621
15 1 3.001 36.5692 30.4794
16 1 27.008 0.7029 39.0189
17 1 50.2387 10.1029 28.0699
18 1 3.9581 47.7621 36.4559
19 1 30.357 23.8454 51.9265
20 1 31.3348 2.77358 45.0808
21 1 25.4211 49.2273 50.3635
22 1 9.59011 41.6679 1.87719
23 1 21.9896 17.8317 37.7213
24 1 3.40616 7.89996 55.5064
25 1 26.2143 27.384 38.9936
26 1 19.7219 28.1011 43.4971
27 1 34.9758 29.3745 54.4098
28 1 13.6843 32.5039 14.88
29 1 11.2902 50.8281 39.36
30 1 50.2844 10.5097 41.2564
31 1 30.8214 5.26647 0.280061
32 1 33.8092 5.21316 22.9295
33 1 24.1475 41.7344 2.44414
34 1 14.328 24.6453 1.67463
35 1 19.9399 50.8692 40.4267
36 1 20.0566 35.7392 14.9892
37 1 23.7922 -0.0420464 46.5532
38 1 22.4087 19.2592 4.37217
39 1 13.2476 26.2888 0.115821
40 1 8.56047 11.4836 47.9191
41 1 46.7058 40.9931 0.939333
42 1 5.28955 38.8682 14.8851
43 1 21.7894 17.0122 9.66159
44 1 50.7186 52.0439 23.489
45 1 13.0113 43.7359 56.0185
46 1 -0.087156 17.6858 11.0369
47 1 42.4284 6.21074 32.0897
48 1 18.5947 30.8818 19.9232
49 1 4.9667 19.1016 31.4268
50 1 18.19 19.6985 20.3675
51 1 50.1762 32.3508 30.6302
52 1 22.4948 10.4985 37.6549
53 1 52.7165 20.4367 1.26338
54 1 55.9273 20.8105 42.6661
55 1 39.8504 45.182 29.2549
56 1 11.1759 27.2343 43.1235
57 1 6.91571 33.0608 34.3907
58 1 37.3701 11.3895 21.738
59 1 5.2095 30.305 28.7406
60 1 36.3103 32.5724 54.5437
61 1 11.8533 27.081 54.2766
62 1 52.7325 22.1218 24.1849
63 1 49.4988 43.1275 28.7711
64 1 22.455 4.03002 16.4003
65 1 11.2274 42.6558 48.0708
66 1 7.88149 44.9206 10.0406
67 1 12.2338 43.1639 53.2504
68 1 11.7302 33.6053 52.3989
69 1 37.546 38.2897 46.0459
70 1 1.85812 28.0622 4.81376
71 1 51.8734 46.8422 28.1276
72 1 55.6627 29.7914 1.5071
73 1 25.9396 44.0886 10.3128
74 1 6.05533 34.2962 44.6162
75 1 37.5752 19.4754 5.10952
76 1 38.5842 23.866 5.90566
77 1 47.456 40.173 32.1832
78 1 34.0227 40.5868 10.245
79 1 31.7666 23.08 42.9605
80 1 39.3546 0.355836 30.2153
81 1 17.3213 27.5772 54.382
82 1 50.9895 1.90858 24.0164
83 1 8.03677 14.8303 27.9279
84 1 36.4935 1.87108 3.94788
85 1 39.5547 10.7474 38.8165
86 1 34.6711 34.0461 34.7992
87 1 25.9902 7.89692 31.9159
88 1 15.5626 11.532 12.8802
89 1 6.74077 48.4624 39.3605
90 1 1.30752 39.6251 51.6898
91 1 17.6473 8.01274 21.686
92 1 9.95517 11.8226 19.2952
93 1 38.5337 9.50223 11.0177
94 1 35.9047 34.1748 28.9685
95 1 40.5986 24.5523 18.6875
96 1 6.91132 -0.0516288 13.883
97 1 3.80813 8.94149 32.8115
98 1 18.229 12.799 30.1753
99 1 42.4448 36.5778 5.49638
100 1 3.29989 6.30845 27.0035
101 1 0.937135 33.687 47.2488
102 1 4.91359 1.04287 12.2576
103 1 41.5284 43.5791 55.8571
104 1 14.5852 55.4228 39.3024
105 1 31.3715 14.1057 10.8303
106 1 18.9438 48.1836 47.8096
107 1 34.0166 0.874059 42.7118
108 1 46.8463 17.1779 47.5822
109 1 10.1978 45.7109 16.8327
110 1 31.5627 9.26575 10.7556
111 1 38.3939 54.0124 14.5483
112 1 5.64081 5.52597 9.97719
113 1 29.0708 33.3167 11.5096
114 1 24.5509 16.9307 40.451
115 1 42.8284 34.6337 31.2426
116 1 31.7881 6.26159 37.7567
117 1 -0.0485101 12.2246 40.8103
118 1 1.72666 43.8 31.7657
119 1 36.2358 36.2315 33.7539
120 1 15.199 2.29292 40.1449
121 2 11.8923 39.1303 35.33
122 2 51.3905 18.6021 12.7548
123 2 55.1233 46.5563 20.8898
124 2 52.6993 29.6855 19.8808
125 2 54.1013 35.4327 38.7389
126 2 25.1093 7.5022 17.8632
127 2 12.3448 51.3653 15.7039
128 2 7.85576 29.9642 35.2302
129 2 55.2636 17.9043 7.80237
130 2 1.37756 21.1995 46.016
131 2 52.2164 11.6547 47.347
132 2 39.27 46.6306 17.828
133 2 34.9268 42.8362 15.7731
134 2 15.1294 5.32986 8.85665
135 2 42.8938 33.9274 3.75356
136 2 9.88252 0.606247 32.1939
137 2 40.8439 24.108 46.3046
138 2 5.27066 4.637 49.2089
139 2 31.2084 14.8731 13.8032
140 2 45.269 27.32 39.152
141 2 7.80479 38.4637 22.896
142 2 29.904 23.4103 40.1492
143 1 46.9941 19.5526 46.0647
144 1 29.4001 17.8755 13.4158
145 1 54.0184 12.6886 6.61484
146 1 52.2419 26.7122 15.6392
147 1 29.3993 28.2829 32.7972
148 1 26.926 10.357 38.5496
149 1 46.2119 6.16317 44.8325
150 1 25.0173 25.7449 9.29541
151 1 49.8849 24.2644 54.1108
152 1 10.2916 33.7136 45.4618
153 1 49.8406 48.4194 29.4507
154 1 43.0169 41.7549 30.7495
155 1 32.6141 18.518 10.4408
156 1 7.70287 33.3291 9.59788
157 1 51.5025 34.0929 22.3175
158 1 37.6345 5.36776 0.169817
159 1 55.0746 47.8868 13.8495
160 1 49.208 2.54482 2.53918
161 1 10.4878 25.187 21.331
162 1 13.2056 13.0339 44.3402
163 1 20.0318 21.3541 26.5688
164 1 55.9077 38.4534 11.8456
165 1 51.5263 35.5329 6.67813
166 1 45.431 41.5044 14.5892
167 1 31.3367 40.0938 46.4967
168 1 44.0832 7.6392 52.2657
169 1 28.326 50.8144 39.5718
170 1 39.6766 33.9667 47.2654
171 1 28.6556 32.8267 23.8223
172 1 21.1719 43.6674 28.4514
173 1 14.0966 39.8233 9.96515
174 1 35.1328 1.84616 32.3506
175 1 18.5959 28.0377 16.3224
176 1 39.8897 37.0387 6.62376
177 1 9.91418 4.91417 25.1332
178 1 15.2965 7.27933 11.3942
179 1 26.7983 44.5791 48.2811
180 1 55.4406 26.9119 8.4827
181 1 48.5598 42.8211 31.4291
182 1 50.057 30.1386 52.5545
183 1 13.5454 20.6837 3.96797
184 1 25.8384 52.5504 12.1221
185 1 33.4077 9.91387 34.0978
186 1 43.7835 26.2788 26.7533
187 1 1.50755 6.71896 53.574
188 1 28.2883 39.5272 3.2791
189 1 13.3647 41.3252 33.9392
190 1 35.4698 48.6196 22.3502
191 1 17.896 18.0695 46.5234
192 1 50.2392 -0.171413 8.09699
193 1 37.1286 8.70207 13.6238
194 1 35.9416 3.89929 30.8019
195 1 22.5551 27.3984 55.3536
196 1 34.7569 5.65463 26.6444
197 1 7.16299 9.27636 49.5401
198 1 12.6646 17.7881 30.7729
199 1 31.8601 18.8691 3.08772
200 1 39.7654 20.4118 41.5735
201 1 26.4924 13.0318 16.1399
202 1 39.1012 1.94197 2.90588
203 1 31.1941 27.7738 37.2661
204 1 40.8888 27.2491 19.0854
205 1 7.83515 12.387 2.69151
206 1 39.2129 25.3405 24.4906
207 1 0.460198 45.6452 44.9689
208 1 31.9112 4.88805 11.1426
209 1 47.9169 6.34121 47.09
210 1 27.2132 21.2989 41.8374
211 1 8.68484 5.65326 21.6943
212 1 43.2835 27.4458 43.4109
213 1 22.2895 12.363 51.1795
214 1 1.17478 37.7187 2.13961
215 1 11.6745 27.7133 22.6859
216 1 0.366043 24.5321 50.9532
217 1 22.267 8.65031 35.3204
218 1 1.56019 9.40055 54.424
219 1 44.0828 52.1886 5.96818
220 1 47.4704 5.10669 42.4212
221 1 28.9461 0.377375 15.9023
222 1 2.50424 7.33777 21.4963
223 1 26.1572 44.1175 2.8066
224 1 42.6773 8.95301 25.7933
225 1 43.8084 49.0082 38.0845
226 1 12.7087 41.8635 25.4806
227 1 20.3028 45.7838 33.4451
228 1 -0.0533732 20.0584 53.027
229 1 9.93731 28.3107 40.3923
230 1 31.1646 29.7282 41.5037
231 1 31.7089 35.419 25.3507
232 1 40.892 17.0084 17.9084
233 1 51.0672 50.0516 37.9475
234 1 10.7835 14.1632 51.0994
235 1 41.6225 18.4395 42.0262
236 1 6.70869 47.4912 29.691
237 1 52.7299 29.7555 23.2823
238 1 35.9029 0.48712 1.71549
239 1 33.9872 28.6431 5.82712
240 1 9.53423 33.0171 50.9929
241 1 20.1241 49.2641 10.696
242 1 32.8256 11.0251 3.19068
243 1 7.41629 23.4827 33.3767
244 1 55.7471 42.5316 7.51973
245 1 1.16623 27.7825 20.0841
246 1 54.1033 5.52645 5.58907
247 1 54.3001 48.9622 11.372
248 1 44.0119 0.183171 45.802
249 1 10.5784 45.1241 49.0524
250 1 23.3881 24.6821 17.8015
251 1 19.1939 35.4871 2.67485
252 1 48.2616 16.5473 39.0073
253 1 2.86417 27.0919 48.293
254 1 10.6432 5.60713 33.0647
255 1 55.0749 8.99617 18.0753
256 1 30.8768 47.338 24.8465
257 1 1.39084 12.1983 35.09
258 1 33.2341 18.4758 27.6722
259 1 45.4843 45.8388 55.1044
260 1 25.1185 41.6288 33.9646
261 1 32.1101 10.7355 39.6942
262 1 28.0896 45.8481 10.2032
263 2 44.0742 24.4328 29.2461
264 2 25.4688 47.1858 1.57463
265 2 49.8976 7.2184 49.1664
266 2 6.86907 24.8184 38.8368
267 2 14.7049 21.1973 1.22135
268 2 4.50659 3.15472 24.6791
269 2 15.1622 2.42776 16.715
270 2 44.3027 43.6975 53.5269
271 2 53.6513 44.7046 26.1694
272 2 33.0228 40.1832 13.6005
273 2 33.2178 6.16249 34.6848
274 2 52.7331 27.0559 30.7253
275 2 27.2681 7.1864 53.3752
276 2 -0.199649 13.8546 4.32763
277 2 1.11515 42.9965 39.573
278 2 11.8547 34.6091 18.6967
279 2 44.0305 51.3954 46.5539
280 2 19.7135 55.4458 22.3468
281 2 41.6808 16.9493 14.667
282 2 15.0792 28.8937 8.1733
283 2 46.7017 47.7132 28.6346
284 2 16.7495 27.2285 34.7411
285 1 4.56203 35.4265 5.62666
286 1 49.4172 35.0154 20.0502
287 1 44.4507 1.58991 36.1276
288 1 24.1706 16.4949 30.7224
289 1 22.3979 30.7959 8.54828
290 1 50.6427 12.7635 24.2075
291 1 18.044 44.0688 34.4475
292 1 40.9112 4.95384 44.2229
293 1 54.6448 19.511 55.382
294 1 30.8894 32.7222 41.7948
295 1 47.2675 25.3524 29.8992
296 1 12.4128 32.1395 35.3517
297 1 48.2486 14.3499 34.1049
298 1 30.9425 22.1942 12.8798
299 1 31.8092 18.7854 17.8356
300 1 24.6126 31.7246 9.36788
301 1 24.7715 49.7251 23.0538
302 1 46.6183 33.7774 25.7807
303 1 54.0604 3.43888 1.57815
304 1 11.896 37.6854 49.5361
305 1 25.4358 38.3313 22.9927
306 1 29.0414 52.3963 32.9899
307 1 5.27564 39.9874 32.1563
308 1 39.775 54.1318 45.4074
309 1 49.6495 30.9639 28.3566
310 1 10.3636 53.332 38.7833
311 1 38.337 35.0657 5.33901
312 1 10.2291 7.96532 26.0424
313 1 5.00229 55.3848 18.0716
314 1 28.8509 47.7282 53.1129
315 1 4.44487 6.3342 14.7395
316 1 43.984 10.3134 10.5054
317 1 30.3744 32.2444 38.9416
318 1 5.92411 23.0875 11.399
319 1 3.29409 2.72385 18.2465
320 1 18.8235 33.6674 25.4135
321 1 26.1617 38.8771 34.2093
322 1 55.3176 21.733 23.1137
323 1 11.3705 10.7281 32.6387
324 1 18.5765 8.68308 32.3768
325 1 21.499 46.1752 43.2176
326 1 16.7084 31.8243 40.7644
327 1 12.5048 9.39843 34.9958
328 1 0.407713 8.15181 36.9015
329 1 4.50259 25.3765 45.1757
330 1 7.7676 30.594 30.0519
331 1 15.548 39.0554 52.6488
332 1 0.46832 44.2238 12.0127
333 1 16.274 13.6703 10.8548
334 1 33.6066 34.9188 22.8991
335 1 35.3968 13.0076 51.3067
336 1 49.9342 21.1818 12.606
337 1 0.739935 34.2785 7.59623
338 1 9.29184 22.8233 22.6288
339 1 13.085 22.3492 43.7756
340 1 25.2539 23.2457 26.0053
341 1 26.6232 51.2678 24.9647
342 1 0.339469 26.997 17.7112
343 1 36.075 14.0352 27.6594
344 1 33.214 16.0595 11.4256
345 1 48.7857 16.6462 4.18588
346 1 0.0839216 6.82076 23.6816
347 1 19.6933 18.304 10.8658
348 1 12.7031 10.2836 22.6833
349 1 4.2798 37.045 10.3973
350 1 1.84149 53.3711 51.1599
351 1 45.1417 35.556 5.46319
352 1 18.6671 8.54463 52.2921
353 1 24.3004 34.5905 53.8413
354 1 46.7432 37.1571 39.5871
355 1 48.6089 28.4478 38.8744
356 1 9.82945 40.1691 42.666
357 1 20.0959 50.4811 52.987
358 1 21.8447 24.3904 36.7616
359 1 28.786 45.1818 46.381
360 1 16.5422 38.2375 45.4944
361 1 40.086 21.7324 43.7754
362 1 0.488703 53.8386 4.46279
363 1 44.3335 18.2186 14.653
364 1 40.9823 0.711379 32.8052
365 1 38.4856 51.4834 9.13536
366 1 15.3634 34.5808 14.7643
367 1 50.5921 47.1804 37.9303
368 1 40.4753 44.9759 26.3941
369 1 33.5002 14.3568 15.9848
370 1 3.6573 40.7452 50.7709
371 1 19.2347 28.1133 48.8777
372 1 13.9203 22.2927 33.7096
373 1 20.9723 55.5226 37.8787
374 1 47.219 50.4499 2.55091
375 1 4.21778 52.953 34.9224
376 1 43.0414 48.7277 25.0476
377 1 6.89882 19.9853 51.4467
378 1 29.0757 52.7964 21.1782
379 1 51.4572 39.2353 20.2574
380 1 10.8731 13.0248 26.7984
381 1 26.0648 50.1612 29.325
382 1 55.2314 22.472 8.48664
383 1 12.8678 23.4561 23.0191
384 1 49.4204 16.4907 32.9918
385 1 29.8659 9.28766 19.6352
386 1 36.1372 38.9256 23.112
387 1 21.1212 33.8192 39.1542
388 1 24.3216 7.06252 40.5752
389 1 26.7576 11.0233 14.1812
390 1 45.2482 49.0594 31.797
391 1 6.90766 9.29627 6.89643
392 1 48.3867 48.869 37.0694
393 1 3.5116 27.6125 1.10295
394 1 3.42668 38.0263 46.212
395 1 54.8713 7.71517 48.2435
396 1 14.7308 5.30401 24.3127
397 1 49.5814 25.9847 23.0249
398 1 21.9755 27.9982 1.40673
399 1 6.95663 54.1396 41.8358
400 1 35.7951 43.0711 27.5227
401 1 18.5067 30.8273 24.6929
402 1 31.8144 48.3847 43.7715
403 1 13.1645 42.2862 28.3507
404 1 26.7752 34.8908 45.7721
405 2 19.7222 8.02064 14.2461
406 2 36.1986 31.0267 7.82252
407 2 34.4247 12.9556 12.9475
408 2 24.7591 49.3916 12.4535
409 2 47.149 0.128062 16.5807
410 2 36.7383 49.1859 16.2923
411 2 5.81262 41.6491 17.1657
412 2 53.6349 8.98165 35.9675
413 2 31.2532 21.4387 45.5128
414 2 12.6259 34.8806 47.5437
415 2 55.7182 51.7264 9.08196
416 2 51.9129 42.9396 55.107
417 2 44.1661 4.73724 10.3884
418 2 7.22715 36.1218 11.2519
419 2 15.4121 54.6605 22.5202
420 2 24.0134 23.304 23.0926
421 2 41.4203 49.4041 9.65818
422 2 32.0092 16.3242 7.98254
423 2 8.06069 0.564687 43.1894
424 2 52.2395 10.5815 5.06991
425 2 48.0988 51.993 38.9932
426 2 37.3471 8.37696 38.2396
427 1 29.5647 30.0555 56.1365
428 1 3.96928 53.6289 52.4878
429 1 55.8172 27.6682 51.1835
430 1 51.9069 54.9071 9.68537
431 1 19.9695 47.5574 26.3041
432 1 42.8831 7.79446 6.93624
433 1 39.8519 24.7792 13.6625
434 1 12.6187 21.0148 45.9022
435 1 22.7904 52.1501 8.04693
436 1 32.4888 31.9249 48.4328
437 1 26.0657 24.3376 33.7184
438 1 46.9313 2.89422 35.5753
439 1 1.42624 38.1738 54.1066
440 1 7.98531 22.3537 30.9391
441 1 22.3491 14.3609 10.7272
442 1 42.6673 18.8425 16.9947
443 1 41.7291 10.4558 27.6426
444 1 51.6245 42.3978 47.5827
445 1 5.12232 14.9336 17.7438
446 1 38.383 31.5567 39.8944
447 1 20.9049 51.9789 10.2125
448 1 44.4292 5.11968 50.7658
449 1 54.1196 6.97233 28.9876
450 1 48.9266 32.7582 0.277838
451 1 27.9861 48.8723 14.2
452 1 48.0359 12.1756 22.9257
453 1 7.28488 20.2462 32.5677
454 1 5.71806 35.2903 52.1999
455 1 6.72043 21.9698 23.6112
456 1 46.4113 3.12671 51.6323
457 1 53.5112 38.8994 18.4606
458 1 27.0637 20.1003 36.4317
459 1 2.85846 34.4676 9.72326
460 1 29.3159 0.615212 34.5478
461 1 7.86347 16.6004 17.5144
462 1 48.5569 27.6713 9.66318
463 1 15.4773 2.29446 7.42258
464 1 31.5635 52.534 22.7731
465 1 7.82425 46.7144 17.4304
466 1 4.69329 47.9332 5.63033
467 1 47.179 10.9588 38.0709
468 1 45.1243 54.4182 6.83246
469 1 14.8267 41.3074 23.2905
470 1 26.9478 0.427926 13.8957
471 1 26.6428 10.0586 3.61945
472 1 15.354 38.1426 28.2276
473 1 48.8654 38.6263 46.4969
474 1 40.0359 12.395 16.8892
475 1 23.0682 25.1977 20.5228
476 1 12.1272 21.8047 40.2584
477 1 48.9689 3.02862 37.3958
478 1 41.589 7.36606 13.7257
479 1 55.3235 25.8579 35.2833
480 1 40.8738 8.40089 3.47094
481 1 25.4916 1.38028 51.165
482 1 30.0803 36.9567 22.691
483 1 46.2525 19.2041 34.2544
484 1 5.559 37.312 7.0224
485 1 18.5355 45.4998 25.2068
486 1 47.2442 7.70691 42.7806
487 1 20.7528 12.7468 21.9377
488 1 5.78665 47.6665 25.5208
489 1 2.87891 44.5224 13.6504
490 1 24.3497 49.7535 25.9858
491 1 13.3854 29.7179 47.071
492 1 27.127 24.3958 41.5373
493 1 44.3852 30.3499 33.9237
494 1 4.82492 54.5896 13.4937
495 1 11.9836 33.9848 13.0369
496 1 39.3015 17.7719 37.2656
497 1 7.28467 17.4014 32.1626
498 1 19.7118 20.4254 8.77535
499 1 33.7903 29.9097 20.1943
500 1 51.8221 3.30212 36.4156
501 1 16.0369 50.9215 43.339
502 1 50.8111 42.8889 6.95626
503 1 42.5895 20.9764 42.6928
504 1 40.0567 47.2916 31.9952
505 1 38.4443 27.4611 3.93613
506 1 22.2036 27.5362 42.1661
507 1 53.6533 54.5381 32.3318
508 1 10.7332 42.7911 17.4668
509 1 53.5584 29.0963 8.28903
510 1 30.5076 0.568091 3.61082
511 1 49.9826 5.45287 6.1626
512 1 14.2875 50.5072 12.8181
513 1 33.3757 30.2273 29.3182
514 1 28.3467 27.7279 20.9619
515 1 29.3427 12.4654 27.4946
516 1 5.21381 40.3834 37.0059
517 1 15.7794 3.17292 0.148277
518 1 24.1292 12.0166 13.6886
519 1 7.98182 11.9398 45.226
520 1 35.8404 17.4883 4.54633
521 1 45.8981 24.671 32.3054
522 1 7.35965 17.358 0.764596
523 1 38.5869 1.55898 26.3546
524 1 39.9645 51.9065 32.228
525 1 25.9277 41.4496 22.1885
526 1 26.9256 15.8539 30.4367
527 1 29.4178 54.6563 23.2745
528 1 2.61636 6.61251 6.38266
529 1 40.1467 8.18839 33.7667
530 1 39.1078 17.7264 15.7514
531 1 44.6257 8.01089 43.8487
532 1 35.1637 9.83523 11.7964
533 1 43.1994 6.22471 20.4769
534 1 19.8894 35.687 20.1798
535 1 43.1911 2.88336 38.5632
536 1 38.245 23.6722 17.7328
537 1 19.228 22.2684 20.6566
538 1 6.29693 27.2382 2.59962
539 1 28.658 38.0688 33.2984
540 1 48.3863 12.3118 16.395
541 1 42.4464 5.54292 7.86602
542 1 33.0856 48.0788 35.7682
543 1 37.8474 45.0593 35.0333
544 1 31.6656 34.6066 15.1606
545 1 52.246 24.5512 5.87738
546 1 23.5658 50.805 40.9939
547 2 15.5005 40.9444 26.5856
548 2 12.7327 46.9043 1.3709
549 2 34.8112 47.7358 25.4858
550 2 55.3873 51.6118 12.8329
551 2 52.5353 7.15778 16.9249
552 2 9.91794 7.15414 35.6582
553 2 37.6672 10.0317 16.9664
554 2 23.2383 5.7306 53.2271
555 2 14.5586 12.8851 21.4966
556 2 12.7669 41.6867 43.0776
557 2 13.8664 5.82357 34.188
558 2 17.3335 33.1767 3.29584
559 2 40.0105 16.8403 21.0534
560 2 5.00255 16.4653 29.637
561 2 38.5264 12.7078 50.8876
562 2 3.7172 19.7418 28.5051
563 2 30.0206 47.1633 34.9646
564 2 16.8865 5.19298 40.0503
565 2 20.1199 22.7192 34.504
566 2 31.1695 13.4579 38.9195
567 2 44.6317 38.4022 0.296257
568 2 43.6291 18.2094 20.1512
569 1 14.7138 1.28533 19.4216
570 1 52.7422 36.6047 49.2448
571 1 20.8321 14.3314 5.59245
572 1 46.359 14.7739 53.5384
573 1 15.6323 15.1504 25.7552
574 1 30.4742 46.1669 17.1784
575 1 30.0909 49.6541 42.2557
576 1 13.8395 0.0973462 11.7269
577 1 1.80862 6.51344 15.3132
578 1 55.3901 39.8801 44.335
579 1 34.1714 45.0131 48.4006
580 1 22.6817 31.4003 3.9136
581 1 37.3684 10.3459 29.0138
582 1 12.2275 41.8468 37.7599
583 1 45.5471 25.3439 18.4289
584 1 28.753 41.0363 28.8281
585 1 33.2621 8.08731 23.227
586 1 55.5465 0.048363 31.2668
587 1 10.7656 1.6991 7.44703
588 1 9.17684 44.0386 46.7154
589 1 34.4938 47.4723 49.5883
590 1 56.101 7.38456 6.81733
591 1 13.3068 9.60356 30.9593
592 1 52.8455 33.0669 6.21122
593 1 18.8262 25.266 33.6208
594 1 2.76739 42.3267 42.0124
595 1 34.1861 11.9291 43.7303
596 1 3.48222 4.87792 39.0387
597 1 29.1188 51.7024 7.74592
598 1 48.5581 47.3676 25.6235
599 1 5.09034 3.81996 13.7491
600 1 11.6464 32.5474 4.48464
601 1 21.7138 42.0742 53.9104
602 1 3.11031 42.5715 15.4983
603 1 26.7708 35.3923 52.2409
604 1 5.27198 21.9258 30.2111
605 1 28.1003 43.4414 27.3419
606 1 27.0898 46.5559 33.1183
607 1 38.927 14.0072 33.8607
608 1 41.4384 8.21816 51.0961
609 1 34.1192 29.9837 12.9045
610 1 43.4656 5.56575 44.9255
611 1 20.7382 44.8284 30.8876
612 1 17.696 46.7381 45.7608
613 1 2.94971 51.0027 0.999552
614 1 53.9748 33.3085 11.0006
615 1 5.77138 42.8019 41.2709
616 1 38.5457 3.32428 55.0591
617 1 16.3514 11.9937 52.0216
618 1 6.5121 53.5478 51.405
619 1 36.7664 11.3851 26.7775
620 1 28.113 26.695 25.3844
621 1 52.793 8.71056 27.3188
622 1 3.80216 29.8516 43.6782
623 1 14.9776 44.4597 11.8853
624 1 27.8547 9.42733 55.3633
625 1 10.0306 15.0958 25.2525
626 1 39.3254 27.5644 22.7599
627 1 34.2061 36.3374 56.1275
628 1 31.4695 10.2817 17.3528
629 1 41.8769 46.7184 10.869
630 1 39.3201 55.4273 22.3312
631 1 43.8606 28.8881 14.0299
632 1 4.63541 32.4458 27.0077
633 1 15.8796 6.63703 49.5558
634 1 47.9242 45.8818 18.021
635 1 29.5384 44.9116 23.598
636 1 6.04254 6.72411 17.0525
637 1 0.918168 15.0066 40.1448
638 1 32.6669 47.4669 55.4395
639 1 28.6614 5.36169 4.90103
640 1 21.9959 53.8529 5.81658
641 1 55.9709 47.5258 35.6541
642 1 53.6395 18.7137 10.5101
643 1 41.26 27.6576 24.9626
644 1 20.4068 42.6883 45.8376
645 1 0.53977 19.3491 40.6388
646 1 13.1847 31.1556 12.4685
647 1 3.0321 29.6486 8.61804
648 1 19.576 17.1649 5.31772
649 1 20.7879 20.2024 19.5941
650 1 14.9954 4.0343 3.18806
651 1 30.4658 33.4462 33.3106
652 1 50.7328 13.1797 40.4052
653 1 52.2692 30.7383 50.7972
654 1 29.4852 34.1998 -0.202028
655 1 40.7864 4.67477 30.516
656 1 36.6754 52.3345 39.8892
657 1 55.7715 34.4315 20.6526
658 1 24.9797 8.51416 55.0641
659 1 38.8643 39.8968 50.3606
660 1 1.5734 43.8919 6.72396
661 1 45.8568 36.4006 12.6706
662 1 15.6634 41.4437 44.488
663 1 20.1729 35.7367 37.4631
664 1 53.2297 17.0203 27.7575
665 1 34.1819 42.992 23.0144
666 1 14.9642 9.40038 26.4273
667 1 35.5459 16.9547 28.1235
668 1 45.3642 11.9394 46.9001
669 1 51.3296 22.7732 14.919
670 1 46.7466 3.11546 10.9855
671 1 32.6437 4.39553 25.2242
672 1 1.76494 18.7195 9.03519
673 1 11.5434 4.27135 35.7456
674 1 46.258 51.1758 7.49954
675 1 23.2082 7.75377 32.8671
676 1 53.7212 16.852 24.1374
677 1 56.0163 36.1122 54.1097
678 1 15.554 55.6264 17.6794
679 1 52.8993 12.1976 22.0655
680 1 28.515 32.3032 46.0263
681 1 0.131551 26.4192 49.0521
682 1 7.06668 3.42407 44.7794
683 1 43.1668 12.8202 21.2682
684 1 38.327 32.1198 37.126
685 1 22.9074 54.7656 15.1988
686 1 44.746 14.8911 11.1663
687 1 47.2373 55.445 28.4135
688 1 20.477 7.1945 33.5037
689 2 21.4401 49.4921 24.1945
690 2 30.0983 50.2819 10.1635
691 2 34.3524 27.0463 39.0329
692 2 8.27683 42.4755 49.33
693 2 44.7928 48.3169 22.5216
694 2 2.84523 51.3436 54.2727
695 2 17.4809 15.3778 45.1702
696 2 16.246 41.0557 8.12833
697 2 1.3251 17.9918 36.0251
698 2 17.2014 18.925 7.09858
699 2 44.8834 11.5002 39.9956
700 2 38.2026 4.83294 3.78344
701 2 53.6538 27.4287 5.41393
702 2 35.8854 28.9692 27.3753
703 2 49.153 45.8945 44.0932
704 2 54.5467 12.9829 17.7532
705 2 2.39061 36.8841 7.47271
706 2 2.27685 40.278 44.4748
707 2 47.5096 16.9698 19.0875
708 2 43.2882 54.9877 0.749443
709 2 44.0599 30.2908 42.4826
710 2 53.0453 48.4322 30.7696
711 1 36.8806 2.31956 46.2473
712 1 13.0502 28.9072 52.5587
713 1 1.02555 49.6877 44.0718
714 1 37.697 30.4048 25.1641
715 1 1.03479 11.3466 44.8363
716 1 2.57815 15.9644 51.1434
717 1 47.4536 0.842806 3.33949
718 1 4.74163 41.9872 55.8216
719 1 41.9401 16.4519 52.3969
720 1 19.1546 16.3034 13.2972
721 1 31.1099 6.63283 5.36115
722 1 31.9915 37.6182 55.6102
723 1 19.2697 14.8998 15.7026
724 1 48.4647 37.4051 53.721
725 1 13.0996 45.8184 34.9408
726 1 29.8625 41.7355 41.8193
727 1 32.8315 55.186 19.2877
728 1 27.9716 0.714844 55.6225
729 1 41.4505 1.44655 52.266
730 1 5.37817 7.41956 37.3716
731 1 54.3573 10.9057 20.2851
732 1 12.8384 1.25254 14.8073
733 1 35.7702 52.7705 55.4181
734 1 37.2414 43.5726 17.8136
735 1 39.9242 9.69857 1.3641
736 1 51.5005 19.0967 50.6715
737 1 30.9239 41.962 27.412
738 1 0.615942 11.4345 6.8538
739 1 23.5452 18.9739 1.96185
740 1 40.6231 35.0499 49.5257
741 1 53.8427 9.28582 32.8031
742 1 19.2374 40.5938 6.28674
743 1 44.7793 29.5769 27.2457
744 1 33.6644 55.7694 40.3875
745 1 44.7166 12.6611 13.0838
746 1 20.0319 17.7131 20.8529
747 1 0.606301 3.10742 36.1462
748 1 45.5148 52.5045 1.34088
749 1 17.1874 13.2288 42.7018
750 1 23.2632 21.538 3.37906
751 1 18.7626 33.3597 33.4674
752 1 15.1535 47.8235 38.8076
753 1 20.2388 9.72078 43.5585
754 1 36.4145 54.1087 26.9938
755 1 29.2505 17.9638 17.9113
756 1 31.66 49.1829 53.8881
757 1 8.93832 25.2449 29.7913
758 1 55.1154 27.2331 20.4059
759 1 44.941 7.38726 18.7114
760 1 19.3541 32.71 54.3763
761 1 48.6175 15.2476 47.0607
762 1 30.6849 52.656 11.8125
763 1 24.7135 17.8854 8.66053
764 1 18.2314 13.0553 21.3457
765 1 42.579 19.9603 40.0756
766 1 20.724 33.3504 3.47319
767 1 4.41813 51.6832 28.4494
768 1 25.8894 22.4696 35.6543
769 1 18.3453 48.3459 54.592
770 1 19.0506 3.58714 4.70832
771 1 11.879 38.6195 43.9321
772 1 29.7479 12.9607 52.8959
773 1 10.2582 16.3544 45.7404
774 1 33.4624 2.08714 26.8819
775 1 46.4966 41.3194 30.0188
776 1 24.9932 55.9725 22.5472
777 1 45.8113 47.5781 25.4228
778 1 22.1641 33.4909 47.7775
779 1 40.9626 26.9535 44.6657
780 1 31.0899 47.4653 40.8241
781 1 20.2638 38.1293 25.0062
782 1 4.52387 19.0348 15.434
783 1 50.155 0.629512 37.0754
784 1 44.0901 28.2001 24.5888
785 1 27.3886 26.09 48.3112
786 1 15.6093 7.35693 42.0987
787 1 5.44655 31.0419 54.1858
788 1 2.18382 10.3611 37.2902
789 1 15.2911 46.5007 28.3117
790 1 51.6853 29.3516 43.8712
791 1 36.4598 18.5901 24.5291
792 1 25.9451 55.0641 19.4196
793 1 2.40481 50.4701 22.3012
794 1 30.2066 25.496 27.9911
795 1 55.7559 21.3982 36.8014
796 1 44.3311 11.7769 4.16269
797 1 18.9233 11.3251 13.9409
798 1 42.4722 29.0683 54.3498
799 1 16.1347 35.6128 12.0461
800 1 17.1663 30.6344 55.0478
801 1 48.7846 48.3266 11.0232
802 1 21.0748 15.6026 37.0326
803 1 40.3115 44.9609 39.9573
804 1 51.8593 36.6725 9.35385
805 1 38.6378 44.5409 32.088
806 1 13.1353 15.1345 37.5929
807 1 55.4316 15.8876 34.5365
808 1 49.0036 8.09712 38.5078
809 1 10.2939 12.5707 1.15176
810 1 7.90904 41.0378 32.1013
811 1 33.7343 22.2685 48.3426
812 1 53.3608 15.9556 44.9274
813 1 0.622566 11.4009 2.59664
814 1 45.8063 4.89732 19.8686
815 1 4.35231 8.76819 41.6717
816 1 49.7184 4.37154 35.129
817 1 44.5089 43.5803 29.1948
818 1 54.8623 48.36 55.2589
819 1 18.2585 37.1068 43.1841
820 1 53.1875 28.1123 38.4413
821 1 32.0222 29.5743 38.9428
822 1 0.847341 4.12007 29.1088
823 1 54.0694 46.378 37.8798
824 1 54.4605 -0.113853 28.3268
825 1 17.3235 54.3379 29.8107
826 1 16.5127 50.1642 3.93171
827 1 20.1272 33.7494 22.6097
828 1 35.4059 23.038 26.3842
829 1 49.6578 56.0293 29.7754
830 1 51.4192 43.2561 3.95931
831 2 7.1653 40.382 39.9761
832 2 23.8968 14.4053 3.24439
833 2 20.2946 43.4105 23.3285
834 2 43.3759 26.9004 47.039
835 2 25.4497 56.095 27.6611
836 2 23.6439 14.1066 32.5986
837 2 15.7417 27.1573 17.9489
838 2 23.0434 42.4022 47.4225
839 2 28.8196 35.6484 31.3858
840 2 19.6188 16.1564 53.5613
841 2 15.8388 27.2963 26.5878
842 2 47.0271 9.25598 45.989
843 2 42.3892 1.51377 30.2867
844 2 31.506 15.3845 18.3278
845 2 8.40016 51.8314 16.4079
846 2 41.6328 41.2038 48.7593
847 2 48.6279 55.0103 10.3453
848 2 47.7211 44.3388 25.8767
849 2 23.0198 17.5658 34.7668
850 2 22.8234 32.1354 44.3874
851 2 48.408 0.16777 53.8197
852 2 46.3444 38.8894 20.1175
853 1 37.1234 43.3548 8.21579
854 1 30.1349 42.4368 46.749
855 1 47.8148 26.6829 14.9472
856 1 10.5431 24.4199 27.5562
857 1 55.1557 16.8837 39.9723
858 1 14.0465 50.4175 49.1117
859 1 35.1306 24.5529 41.0973
860 1 9.23385 37.4671 4.14169
861 1 51.841 36.6629 29.297
862 1 54.401 30.8334 5.4523
863 1 33.1889 11.6113 10.3929
864 1 47.6783 26.495 49.9267
865 1 14.6059 26.4904 14.6748
866 1 11.1613 33.6668 0.147862
867 1 50.8884 21.7088 36.9627
868 1 49.2916 1.54365 34.5335
869 1 53.8526 26.7038 52.5915
870 1 33.7844 24.5943 20.9324
871 1 10.1947 27.965 15.0481
872 1 53.5554 38.0021 40.3957
873 1 12.5423 39.5651 32.0662
874 1 53.9704 46.1005 1.0985
875 1 41.7059 29.4291 48.3025
876 1 0.395108 16.7266 30.9767
877 1 0.273729 27.6017 22.8523
878 1 4.43446 35.6904 20.3314
879 1 10.3835 14.3111 31.0185
880 1 51.5181 11.2762 1.95499
881 1 31.8818 13.1878 47.9971
882 1 44.9824 22.5648 52.6146
883 1 26.3414 13.788 13.7132
884 1 51.6352 54.6837 36.3397
885 1 29.964 23.0475 1.20899
886 1 39.3579 47.7628 2.01103
887 1 6.97994 15.7892 19.8516
888 1 2.85455 29.9744 46.7979
889 1 46.4247 7.7162 34.2982
890 1 54.4944 2.9363 5.94831
891 1 53.2544 20.5256 37.838
892 1 39.5752 54.8863 19.3713
893 1 14.3518 51.4279 34.0819
894 1 9.29043 41.4991 9.78106
895 1 4.86073 49.8905 38.1098
896 1 2.67885 40.8024 17.8084
897 1 28.2349 52.9982 10.353
898 1 41.02 35.5609 42.4714
899 1 16.6682 19.1258 32.3001
900 1 8.96321 27.8309 2.01046
901 1 34.0281 37.6394 41.8926
902 1 25.5793 45.7881 25.8195
903 1 3.6584 26.6175 9.00131
904 1 35.7666 35.3634 11.4108
905 1 27.9791 30.3235 22.1302
906 1 17.4663 36.0246 7.11668
907 1 34.794 50.2686 13.8567
908 1 1.40736 6.03367 34.8826
909 1 40.6259 2.73083 42.7729
910 1 52.6678 38.3415 7.07852
911 1 12.8535 8.65445 25.1323
912 1 16.9969 18.8922 36.932
913 1 3.8311 45.0135 5.95777
914 1 53.0178 51.7931 31.2155
915 1 16.367 23.2849 38.5266
916 1 28.3992 26.233 40.4082
917 1 35.2683 55.9315 4.4562
918 1 50.487 34.608 14.5838
919 1 48.9132 40.5355 38.6067
920 1 12.2153 38.7607 38.3611
921 1 31.7402 55.0914 11.2696
922 1 17.6898 42.095 32.1473
923 1 50.0358 5.56632 38.1896
924 1 0.567662 11.6021 16.1235
925 1 45.4282 56.0443 4.44094
926 1 27.7143 49.8102 51.5616
927 1 52.9331 49.4484 43.2726
928 1 42.084 12.1276 12.8428
929 1 50.0818 33.1263 7.14534
930 1 38.284 0.716952 19.9028
931 1 16.9592 25.1556 31.4683
932 1 12.7681 48.7532 52.5175
933 1 30.6038 7.13333 44.2241
934 1 24.7052 51.333 54.6465
935 1 5.52187 39.3353 55.0434
936 1 7.38992 32.8444 12.0842
937 1 37.983 3.35954 43.4882
938 1 36.6032 5.87404 40.3289
939 1 5.49612 29.4358 15.909
940 1 7.76939 39.0507 53.21
941 1 36.4719 6.3885 35.4138
942 1 15.1613 46.7129 45.2698
943 1 33.6495 36.5283 34.6543
944 1 8.83408 41.3971 15.9918
945 1 45.1204 20.8502 44.3591
946 1 9.8886 42.8206 44.1993
947 1 41.2598 31.0883 40.9836
948 1 15.5674 55.8048 43.7515
949 1 49.7668 49.9284 15.6636
950 1 39.5483 27.5674 50.588
951 1 14.8413 43.3405 54.0529
952 1 44.1605 0.522214 48.4619
953 1 26.0235 22.7084 51.2659
954 1 10.8904 45.9268 40.4961
955 1 13.2689 21.9982 15.6075
956 1 11.9506 20.3835 8.2813
957 1 47.1071 43.7908 51.1794
958 1 10.3251 23.9058 34.6385
959 1 31.3467 50.3481 35.5047
960 1 53.7805 13.9417 12.5111
961 1 36.8187 41.499 42.6338
962 1 54.9492 6.50599 18.9269
963 1 7.87847 30.2585 47.4037
964 1 25.5417 14.4455 44.6056
965 1 15.4636 30.0625 35.6063
966 1 24.7039 42.6752 31.3773
967 1 9.24135 6.95465 13.853
968 1 42.6874 9.35306 53.6198
969 1 32.1987 37.2944 50.512
970 1 30.8466 17.278 15.846
971 1 49.9537 4.79003 43.8007
972 1 50.604 6.6814 52.1671
973 2 45.2306 4.46962 25.7448
974 2 46.0577 39.2963 35.3511
975 2 53.4006 38.9516 27.7581
976 2 17.3418 30.5932 49.8994
977 2 52.8681 36.1824 16.0305
978 2 52.3781 35.9926 19.6409
979 2 33.005 42.4432 40.773
980 2 54.9554 6.24718 44.8146
981 2 36.6065 11.7245 9.91477
982 2 54.5088 29.4677 49.1456
983 2 12.3266 31.2978 1.41873
984 2 46.3174 22.5738 34.3689
985 2 51.9041 2.44146 13.2586
986 2 7.15979 18.6429 37.7075
987 2 20.289 6.66132 4.99917
988 2 2.57875 27.0188 51.7159
989 2 40.0926 27.9011 32.5207
990 2 53.808 10.2199 15.3036
991 2 22.8744 21.1784 17.5902
992 2 15.9378 15.6346 55.0471
993 2 1.54821 15.4093 56.0111
994 2 53.3757 22.7706 35.4132
995 1 54.3544 3.17316 43.5839
996 1 51.3903 24.9686 47.2846
997 1 25.0266 2.18069 48.3023
998 1 3.61112 49.125 27.0446
999 1 25.2711 51.2788 52.2259
1000 1 19.3734 8.83313 47.8686
1001 1 30.6601 30.536 36.7646
1002 1 52.7903 26.2789 8.43835
1003 1 13.8523 28.9327 30.4617