ITEM: TIMESTEP
0
ITEM: NUMBER OF ATOMS
9088
ITEM: BOX BOUNDS pp pp pp
-4.4861777902110689e-01 5.6333110405051428e+01
-4.4861777902110689e-01 5.6333110405051428e+01
-4.4861777902110689e-01 5.6333110405051428e+01
ITEM: ATOMS id type x y z 
1 1 30.6228 6.46661 49.2594 
2 1 16.2924 1.31027 36.4293 
3 1 22.7484 53.1513 19.5033 
4 1 12.0669 43.1318 2.99533 
5 1 50.6964 53.3689 9.99825 
6 1 6.24621 13.1024 30.6086 
7 1 46.0895 13.2275 27.3754 
8 1 16.1892 54.7676 12.2143 
9 1 25.0391 20.189 19.8386 
10 1 4.10824 39.2627 18.2344 
11 1 8.19672 36.1504 52.1285 
12 1 26.0362 4.1068 44.8132 
13 1 43.924 51.814 14.219 
14 1 46.3722 45.0705 37.2685 
15 1 52.546 54.3948 29.4571 
16 1 20.533 3.20491 30.1724 
17 1 6.14753 8.13811 48.2333 
18 1 37.6573 22.8011 23.9421 
19 1 22.6519 45.0687 16.4325 
20 1 36.4677 30.5824 49.0407 
21 1 4.7137 47.9494 7.11073 
22 1 47.0796 7.13086 26.1128 
23 1 17.515 19.983 26.8703 
24 1 38.7847 8.49656 55.3329 
25 1 17.6521 33.6335 50.644 
26 1 9.22257 12.3377 14.8142 
27 1 6.19324 45.6898 6.80013 
28 1 18.8231 49.4955 49.9172 
29 1 42.4365 53.3065 41.1307 
30 1 12.749 19.2344 49.3758 
31 1 47.891 18.4346 35.3165 
32 1 13.3765 22.9146 5.28687 
33 1 38.9226 53.4381 45.1627 
34 1 23.6609 39.5365 11.9151 
35 1 13.575 20.4951 38.7205 
36 1 14.982 48.2254 48.2892 
37 1 34.6233 47.0698 36.6952 
38 1 45.2405 24.0589 24.2125 
39 1 30.2341 10.2607 21.554 
40 1 42.611 7.87643 37.9063 
41 1 9.76346 46.7477 17.1452 
42 1 44.9153 42.0411 18.2173 
43 1 27.3411 21.1023 39.7679 
44 1 33.3729 36.5973 30.5037 
45 1 42.6268 23.9553 25.742 
46 1 35.8633 55.5362 20.1241 
47 1 12.9814 0.878942 49.985 
48 1 17.7796 8.53749 16.0072 
49 1 40.0037 1.85259 23.217 
50 1 54.3413 33.0166 14.4331 
51 1 11.076 39.8789 12.5811 
52 1 9.58431 48.4232 38.7813 
53 1 18.3959 54.3376 47.1287 
54 1 0.271213 13.987 36.2275 
55 1 33.126 8.08759 38.6957 
56 1 36.6072 31.5814 40.3439 
57 1 52.4471 32.9701 35.5102 
58 1 46.138 39.1339 6.64312 
59 1 11.2678 0.92822 25.3862 
60 1 41.1313 36.2808 32.7619 
61 1 44.3609 14.988 27.6231 
62 1 16.7439 54.3758 4.63076 
63 1 6.50217 31.2575 42.8656 
64 1 49.7312 53.6154 28.1872 
65 1 6.23463 47.8725 32.2446 
66 1 29.2314 26.0994 29.99 
67 1 26.06 13.4077 8.26371 
68 1 46.8239 54.3419 20.2158 
69 1 34.7394 13.2899 40.9591 
70 1 8.27117 6.98042 30.7587 
71 1 51.604 52.1814 21.7774 
72 1 55.2 43.3317 38.9233 
73 1 19.0747 37.709 56.0339 
74 1 13.7089 35.3119 0.0736209 
75 1 33.4446 38.512 44.3994 
76 1 45.3928 31.1095 43.6173 
77 1 36.6854 32.3979 28.7813 
78 1 12.0957 54.4013 12.8477 
79 1 8.57195 39.1197 17.0088 
80 1 23.8308 27.8007 38.6186 
81 1 38.7743 21.1718 16.6671 
82 1 6.79477 8.67267 53.5048 
83 1 6.14455 1.6719 50.418 
84 1 9.85609 25.7914 47.3925 
85 1 32.0314 14.7314 50.5258 
86 1 40.9529 25.6758 24.6842 
87 1 29.2431 46.1133 37.494 
88 1 24.0886 49.8536 49.1467 
89 1 6.08303 52.3941 45.5425 
90 1 29.3028 23.0515 31.1818 
91 1 29.2903 28.3395 28.8876 
92 1 21.9108 47.8647 10.797 
93 1 42.8275 29.7504 20.8653 
94 1 8.15867 39.5721 25.901 
95 1 32.001 35.8607 11.6194 
96 1 51.0339 10.2375 38.8675 
97 1 34.3094 54.8067 42.331 
98 1 5.2694 30.1821 12.744 
99 1 29.5116 40.4551 16.953 
100 1 26.3449 19.1349 51.4653 
101 1 34.3886 42.2348 13.0882 
102 1 2.37645 13.5634 37.857 
103 1 17.5983 28.2801 55.2221 
104 1 1.40682 19.3434 1.48316 
105 1 20.4256 40.4614 43.6459 
106 1 6.88993 26.9679 55.5543 
107 1 51.7379 48.5304 52.2343 
108 1 21.7804 10.6187 8.42632 
109 1 31.8144 25.7247 28.1301 
110 1 53.4458 39.6914 6.21759 
111 1 34.3521 15.7826 4.50172 
112 1 28.6383 41.8914 54.8682 
113 1 17.4872 1.54308 1.70673 
114 1 36.6444 41.6054 2.37141 
115 1 5.95928 17.5062 15.8725 
116 1 6.02447 55.9033 33.4667 
117 1 -0.291323 5.0517 42.5768 
118 1 49.8587 17.1017 13.4946 
119 1 6.91218 55.094 21.2308 
120 1 53.1687 3.80262 32.0692 
121 2 28.3454 48.9218 39.3879 
122 2 41.1807 33.6986 4.04881 
123 2 11.8377 0.913163 14.7239 
124 2 44.5021 32.7913 14.5641 
125 2 0.703664 40.6101 25.9768 
126 2 22.8533 20.0831 21.7441 
127 2 15.1324 14.3776 18.2552 
128 2 15.8879 28.3454 36.5258 
129 2 9.14309 13.8766 7.36727 
130 2 1.27401 19.3018 50.7357 
131 2 20.6774 20.7682 2.85853 
132 2 41.0488 45.2913 19.1264 
133 2 37.8847 38.5266 11.9545 
134 2 13.8672 51.3091 21.2329 
135 2 39.9141 46.5056 23.2457 
136 2 1.09446 4.5006 24.764 
137 2 39.5907 33.4641 44.1712 
138 2 4.11721 0.801902 38.2228 
139 2 32.1261 16.8818 52.4964 
140 2 42.2241 19.2505 37.2421 
141 2 54.658 45.043 17.1782 
142 2 25.8303 34.4186 54.6209 
143 1 11.4621 25.1503 35.7167 
144 1 33.1422 19.261 50.632 
145 1 2.67881 55.2875 26.1296 
146 1 9.62134 9.54072 29.1914 
147 1 6.31783 41.9347 38.5599 
148 1 30.6469 44.6157 39.6787 
149 1 35.6755 22.4975 37.4156 
150 1 9.18599 45.9452 28.2998 
151 1 11.3469 23.5203 55.1799 
152 1 35.2709 24.4145 33.3842 
153 1 19.0214 17.5682 20.1571 
154 1 4.08324 14.3368 31.3981 
155 1 44.4006 0.827416 51.4314 
156 1 43.5467 43.4295 52.0036 
157 1 15.6342 47.9605 4.25766 
158 1 36.8371 31.6761 51.5978 
159 1 3.03607 22.137 8.85315 
160 1 22.0706 26.2232 40.3719 
161 1 43.2788 42.4444 9.10294 
162 1 29.8854 34.3805 10.1981 
163 1 27.7725 7.45951 12.1136 
164 1 19.1342 49.1538 32.4552 
165 1 22.6444 25.0397 12.3064 
166 1 52.773 42.0668 29.7819 
167 1 5.29879 33.3305 19.3724 
168 1 30.7681 44.16 51.7463 
169 1 25.6396 1.33528 14.5169 
170 1 -0.310135 9.68421 15.2474 
171 1 42.0815 39.108 3.06213 
172 1 31.63 46.2001 9.05623 
173 1 52.4109 31.5828 18.6934 
174 1 45.661 35.5159 49.8087 
175 1 35.1043 24.7492 2.99984 
176 1 41.4774 17.4244 14.8168 
177 1 49.4301 16.1518 36.4792 
178 1 5.8957 54.9305 2.65273 
179 1 11.1874 28.3069 2.99229 
180 1 16.7803 31.3826 34.9767 
181 1 12.2438 20.156 54.5875 
182 1 34.6667 26.1958 21.1274 
183 1 18.8445 11.1433 28.5396 
184 1 41.7846 26.2313 11.9367 
185 1 56.0802 52.8461 54.8287 
186 1 4.50958 3.44283 33.8987 
187 1 10.3897 50.5077 36.5079 
188 1 24.4484 51.4469 36.8468 
189 1 43.9244 7.49201 53.872 
190 1 6.4141 18.1879 25.5017 
191 1 47.0821 15.6272 42.3833 
192 1 47.4023 36.3561 40.898 
193 1 32.8556 39.5634 6.37668 
194 1 -0.440714 35.54 53.7127 
195 1 19.8889 34.3343 49.0347 
196 1 23.1665 44.8795 20.5843 
197 1 26.7085 52.924 8.22774 
198 1 18.1305 8.3162 45.546 
199 1 51.0825 42.92 43.8219 
200 1 29.0513 16.8181 44.5379 
201 1 50.8788 18.9697 44.3634 
202 1 44.585 1.81564 27.4574 
203 1 20.7078 1.96967 27.8082 
204 1 15.1041 17.1634 55.3638 
205 1 36.3069 25.5543 16.2487 
206 1 16.9175 52.515 13.8166 
207 1 36.1595 47.1483 28.155 
208 1 9.9329 38.7684 19.7732 
209 1 53.4826 28.5757 28.1835 
210 1 11.3739 31.2888 36.1878 
211 1 30.3891 33.1582 24.5316 
212 1 16.3892 49.1128 50.4456 
213 1 15.218 19.0219 31.8871 
214 1 35.2979 7.03984 48.3505 
215 1 31.0307 25.8084 50.074 
216 1 3.40524 42.1074 31.0316 
217 1 23.2838 25.3371 38.3274 
218 1 37.5654 50.015 51.914 
219 1 36.8513 15.4402 32.5992 
220 1 12.9719 19.1322 10.9045 
221 1 11.1646 56.0875 55.0091 
222 1 32.1762 24.0499 2.80308 
223 1 50.5771 41.8319 28.3236 
224 1 21.1896 16.445 45.3878 
225 1 36.8001 14.6724 35.3999 
226 1 2.96452 21.5254 49.3062 
227 1 19.6837 48.2592 44.2024 
228 1 55.2158 48.8648 7.29577 
229 1 29.2105 23.1244 19.0059 
230 1 30.4605 4.80326 44.1497 
231 1 8.98466 31.8706 43.1421 
232 1 16.9556 41.8639 39.5595 
233 1 53.2973 43.87 3.93491 
234 1 32.0941 10.1426 1.34772 
235 1 5.86106 49.7871 40.8265 
236 1 13.2577 42.2486 36.6442 
237 1 3.64171 10.0468 0.789064 
238 1 5.05688 33.7217 5.0335 
239 1 18.0028 14.8883 49.4658 
240 1 26.348 46.0313 17.378 
241 1 41.3998 51.0694 14.4745 
242 1 9.08537 19.2664 54.4282 
243 1 6.20285 11.8748 8.13294 
244 1 9.80284 22.6354 40.7949 
245 1 29.8109 38.6445 35.1916 
246 1 2.13972 18.7177 12.1739 
247 1 1.27945 7.07401 50.8336 
248 1 10.1172 38.2712 2.31035 
249 1 19.0369 42.3882 15.2392 
250 1 31.6993 11.2058 6.51123 
251 1 37.0961 21.6122 45.3638 
252 1 9.37257 3.45022 5.74914 
253 1 9.81569 16.3954 12.5486 
254 1 3.32486 47.0057 33.179 
255 1 56.2188 3.12785 38.2203 
256 1 41.6703 32.6869 7.10564 
257 1 14.1308 0.719314 7.89292 
258 1 16.9655 49.4746 10.9129 
259 1 30.1746 23.2779 50.3308 
260 1 9.99545 44.8711 51.1387 
261 1 20.6125 53.6243 11.8328 
262 1 16.7682 45.6831 33.5845 
263 2 49.7311 32.6838 25.8178 
264 2 27.2707 0.672549 53.6816 
265 2 36.4148 12.4697 33.1514 
266 2 8.39938 22.4764 48.2181 
267 2 9.32592 7.50387 54.87 
268 2 1.94947 10.4523 19.8828 
269 2 16.7723 5.44678 8.12165 
270 2 40.2076 41.5233 43.9091 
271 2 55.6715 4.15347 33.9541 
272 2 29.114 47.3703 17.3325 
273 2 38.0979 52.1473 26.8215 
274 2 6.10325 45.553 34.5729 
275 2 18.5467 39.318 7.74389 
276 2 7.93027 17.5325 10.3121 
277 2 1.29638 43.2012 42.8481 
278 2 4.47875 35.632 24.2222 
279 2 25.1043 35.5259 50.1621 
280 2 16.904 39.4819 22.4899 
281 2 32.1591 24.2671 19.6375 
282 2 50.2371 15.1386 0.234026 
283 2 37.8782 1.86379 39.3975 
284 2 3.84232 19.5113 32.5605 
285 1 53.6212 16.2812 47.8133 
286 1 51.9436 46.8669 -0.4481 
287 1 7.01174 0.330517 35.9255 
288 1 20.9712 24.7536 42.3195 
289 1 36.7424 33.8782 15.218 
290 1 14.2949 12.1325 5.78747 
291 1 19.698 37.8039 14.2646 
292 1 55.3025 54.3005 6.99051 
293 1 10.8109 40.9828 29.3852 
294 1 0.419352 0.208758 49.8333 
295 1 20.5883 30.8706 6.94567 
296 1 24.4349 19.9533 29.8256 
297 1 45.0422 52.3976 0.54562 
298 1 24.8759 34.1819 11.9675 
299 1 12.5114 20.1507 51.7469 
300 1 -0.426074 30.5824 23.8717 
301 1 34.0891 33.9383 17.2456 
302 1 50.9999 45.3506 1.50635 
303 1 38.1186 41.0533 33.3265 
304 1 33.0143 42.6321 51.7034 
305 1 25.5782 55.6089 48.9667 
306 1 28.6121 50.1563 15.4515 
307 1 22.2382 51.5813 29.8242 
308 1 22.1086 18.4902 1.49432 
309 1 21.9524 3.10071 51.931 
310 1 50.0568 19.9234 12.6669 
311 1 36.9148 46.0607 22.9456 
312 1 3.58584 5.47538 35.9296 
313 1 14.1002 18.6669 53.1245 
314 1 38.628 28.2643 14.5084 
315 1 25.8518 46.101 9.52338 
316 1 8.93717 46.7535 33.7363 
317 1 10.612 21.5267 29.9747 
318 1 17.6043 32.9336 4.25948 
319 1 19.2988 14.122 -0.406169 
320 1 30.2905 43.8994 45.1646 
321 1 11.2626 17.0163 10.3307 
322 1 39.9268 9.0384 29.3024 
323 1 18.4353 34.1683 22.3417 
324 1 13.1047 9.4096 5.48415 
325 1 9.84926 8.98252 10.5221 
326 1 16.4058 39.1924 56.1217 
327 1 11.9243 55.7119 39.682 
328 1 18.9867 9.12933 39.1483 
329 1 29.496 4.05731 9.95646 
330 1 4.03615 49.2693 38.6137 
331 1 33.8926 52.4712 4.99285 
332 1 31.1918 21.7707 27.0875 
333 1 15.5228 0.120513 10.5428 
334 1 39.8644 13.9833 25.4119 
335 1 45.6243 20.1583 25.7357 
336 1 36.2727 35.4279 10.8971 
337 1 19.1551 36.1825 35.3463 
338 1 3.77621 -0.286861 28.1421 
339 1 33.8594 -0.1771 7.88932 
340 1 4.70458 35.9178 43.8635 
341 1 55.1646 9.0788 27.065 
342 1 37.6395 23.3737 8.02554 
343 1 24.4571 43.0991 23.2058 
344 1 53.0188 15.5054 45.4521 
345 1 53.9318 52.3108 -0.418035 
346 1 39.1315 48.0825 8.14744 
347 1 28.4387 27.8391 21.0975 
348 1 53.9146 39.7401 11.1778 
349 1 2.11733 18.364 34.8124 
350 1 16.7017 18.6714 4.64089 
351 1 11.7579 1.54844 20.0177 
352 1 4.27479 43.3414 44.8077 
353 1 9.75596 23.7171 26.3076 
354 1 31.4705 37.293 14.3217 
355 1 28.2279 52.0468 2.20249 
356 1 1.66387 33.9637 23.4273 
357 1 27.3239 31.5667 41.6266 
358 1 22.2329 34.568 40.1318 
359 1 20.372 47.6752 30.4346 
360 1 27.422 53.3947 37.5008 
361 1 36.4905 49.2955 17.4514 
362 1 30.1763 53.3682 40.7918 
363 1 49.1295 47.3512 20.9219 
364 1 31.4152 19.2878 2.8714 
365 1 3.95614 22.1895 14.8387 
366 1 19.6738 41.3088 17.6093 
367 1 0.751847 38.718 40.0199 
368 1 41.3344 41.2157 34.4558 
369 1 29.8806 3.8038 6.98942 
370 1 20.3647 14.1192 13.9943 
371 1 46.7887 31.4669 12.832 
372 1 47.6468 7.91326 41.6568 
373 1 27.5831 39.8667 26.0248 
374 1 42.0617 8.45765 35.147 
375 1 23.4492 40.7458 16.817 
376 1 25.3031 53.534 14.9567 
377 1 36.1147 33.2692 48.1379 
378 1 10.8659 46.9297 6.77652 
379 1 -0.438435 34.0356 41.2943 
380 1 51.5155 13.1785 13.4653 
381 1 19.5264 30.5475 42.6728 
382 1 30.9692 17.1783 17.6891 
383 1 41.7717 43.4446 49.0585 
384 1 53.3316 47.9994 21.0033 
385 1 27.7214 44.6833 54.8842 
386 1 42.927 27.0231 9.58874 
387 1 11.1958 12.8619 43.9607 
388 1 16.7849 24.2567 46.7463 
389 1 29.811 11.1961 32.156 
390 1 12.654 31.3011 15.1775 
391 1 27.7729 37.911 33.2218 
392 1 24.6997 26.4683 45.3101 
393 1 19.2359 12.349 9.31775 
394 1 53.3153 32.538 51.7942 
395 1 41.4587 30.5865 2.87109 
396 1 2.72234 6.06097 3.7264 
397 1 23.5486 27.3179 8.05687 
398 1 41.9909 51.1509 54.6775 
399 1 38.8459 13.1016 31.2814 
400 1 44.1342 21.2811 46.7103 
401 1 0.278972 51.5158 40.2806 
402 1 29.8499 55.2145 28.89 
403 1 13.5883 48.5461 34.8195 
404 1 18.2112 1.39988 21.1741 
405 2 8.37416 24.8909 13.5269 
406 2 15.9006 21.7726 31.9433 
407 2 30.6778 16.9615 14.5574 
408 2 26.906 38.6701 45.6289 
409 2 37.7571 45.5602 14.5028 
410 2 37.0828 46.4568 10.0453 
411 2 6.52867 47.7862 9.73859 
412 2 8.57812 1.2146 32.1775 
413 2 52.1736 19.1831 49.6808 
414 2 56.2049 39.8576 9.34549 
415 2 53.5163 43.08 52.8133 
416 2 4.15281 47.7376 54.9832 
417 2 49.9968 48.7223 1.22292 
418 2 55.398 20.7698 6.56222 
419 2 12.5476 14.7721 25.98 
420 2 13.787 13.6767 38.1738 
421 2 20.9112 51.803 2.35662 
422 2 32.0459 2.04668 8.38114 
423 2 12.362 52.4916 39.1426 
424 2 54.4619 7.37756 8.79396 
425 2 51.0323 42.4093 36.2406 
426 2 52.3204 16.8926 37.9648 
427 1 35.1979 4.70222 5.7529 
428 1 21.0149 44.1 56.3205 
429 1 38.2638 45.4114 52.5892 
430 1 2.73061 1.23261 10.2531 
431 1 50.6468 24.8534 42.6813 
432 1 32.3094 14.757 26.7411 
433 1 36.1392 24.5955 22.5408 
434 1 24.4887 48.7429 14.1563 
435 1 54.7992 -0.360667 50.774 
436 1 0.200619 53.5906 8.82377 
437 1 18.2939 50.0664 13.9483 
438 1 50.6056 18.5982 35.8563 
439 1 18.132 43.3893 10.4941 
440 1 14.0539 10.2419 51.4357 
441 1 37.3153 28.3286 24.8946 
442 1 38.3084 10.9181 27.9274 
443 1 18.6243 35.4352 0.422575 
444 1 8.71799 1.16796 25.5836 
445 1 28.2051 38.371 3.82838 
446 1 8.24147 17.9518 4.96949 
447 1 32.1594 40.8498 32.6607 
448 1 19.4842 11.8392 38.1413 
449 1 4.74878 21.5669 29.7832 
450 1 47.8939 7.64752 53.117 
451 1 40.0273 40.3007 17.3758 
452 1 55.0606 18.2373 3.87936 
453 1 36.6245 39.0864 37.5655 
454 1 3.76871 46.0813 8.91048 
455 1 21.2745 36.7361 41.2359 
456 1 13.2724 4.60075 -0.308259 
457 1 26.5405 47.1017 12.8087 
458 1 15.0734 32.3347 5.29374 
459 1 2.90271 28.1036 6.93515 
460 1 50.6979 36.8631 55.0653 
461 1 39.3804 52.3632 51.0873 
462 1 29.3054 35.5036 42.2705 
463 1 1.05899 7.44974 19.7389 
464 1 4.39168 50.7275 35.8217 
465 1 34.7732 38.7601 1.43436 
466 1 35.9422 20.7639 53.7267 
467 1 30.6215 3.65061 0.420438 
468 1 28.7573 53.1581 50.7687 
469 1 1.71875 53.4394 53.6762 
470 1 11.3232 25.2608 12.1645 
471 1 46.3301 8.62092 6.99471 
472 1 48.5855 32.0701 40.8696 
473 1 39.6157 4.09108 53.952 
474 1 19.9478 13.0065 7.15738 
475 1 9.07103 1.99387 3.18053 
476 1 11.3219 41.8588 38.4091 
477 1 50.8405 30.134 14.0817 
478 1 25.2283 15.7508 15.9177 
479 1 49.715 2.35859 54.4844 
480 1 22.2105 51.9156 50.1938 
481 1 14.0427 8.4327 22.1751 
482 1 8.93758 6.65367 23.1219 
483 1 41.2665 29.9527 52.6359 
484 1 50.0133 -0.316588 54.4572 
485 1 2.22129 16.3349 46.7746 
486 1 21.9423 25.1061 15.3835 
487 1 34.7545 12.5487 35.7948 
488 1 31.9734 3.86444 21.7746 
489 1 46.0933 45.0359 31.928 
490 1 52.7548 38.7956 34.6381 
491 1 5.62762 38.332 7.0151 
492 1 18.5956 23.0385 35.4735 
493 1 25.6643 35.3623 22.4511 
494 1 23.4109 49.8745 6.35212 
495 1 2.79719 9.01754 45.0664 
496 1 43.6691 16.8099 12.7355 
497 1 49.1317 40.3849 5.89633 
498 1 15.5291 42.0034 10.7671 
499 1 11.7686 22.729 27.7203 
500 1 32.0563 50.7541 18.3747 
501 1 51.1584 20.3514 10.0562 
502 1 22.0993 53.6089 4.86761 
503 1 3.61159 18.1738 24.4731 
504 1 44.2089 48.5728 1.92884 
505 1 29.3418 15.1345 27.9686 
506 1 11.8226 39.8411 32.1836 
507 1 15.2574 50.0948 43.4184 
508 1 22.2223 39.0731 39.6209 
509 1 16.7666 36.2249 43.955 
510 1 10.4953 27.372 13.6125 
511 1 11.344 35.3996 6.40374 
512 1 53.149 13.3888 27.1227 
513 1 21.8576 37.3662 44.1541 
514 1 43.1926 0.0608856 26.02 
515 1 13.5806 39.0686 46.3673 
516 1 47.0399 0.846815 43.0525 
517 1 3.93409 24.2546 25.9617 
518 1 42.2511 48.8328 53.0949 
519 1 48.2294 6.02969 11.8672 
520 1 50.2518 46.4461 48.1002 
521 1 2.77319 32.9753 37.3417 
522 1 4.87372 32.8323 23.8287 
523 1 47.9473 21.5685 26.6744 
524 1 17.8873 25.0354 8.64913 
525 1 32.523 49.5323 21.0441 
526 1 22.2613 27.2099 55.6572 
527 1 52.587 17.4529 15.2064 
528 1 41.1261 0.568748 35.2188 
529 1 55.4159 16.3233 37.1164 
530 1 35.5713 49.385 10.6601 
531 1 24.8486 4.16766 18.2867 
532 1 30.5338 47.1501 51.7061 
533 1 35.673 18.768 14.0266 
534 1 33.944 25.678 50.9645 
535 1 40.5546 10.9303 34.5627 
536 1 44.4662 18.1436 8.61479 
537 1 10.9143 6.35353 2.29939 
538 1 46.6241 41.0368 4.24696 
539 1 32.4045 11.8937 19.7264 
540 1 4.04902 30.5411 27.0132 
541 1 14.5494 11.7243 30.8517 
542 1 52.9227 40.7266 43.2831 
543 1 26.5527 25.9851 8.39348 
544 1 26.3534 20.3028 36.246 
545 1 14.3788 15.1238 6.82634 
546 1 30.8319 47.1972 40.533 
547 2 3.91978 4.674 31.235 
548 2 20.6995 1.65391 2.50072 
549 2 0.208078 23.548 13.2116 
550 2 6.79306 51.32 56.0345 
551 2 52.1705 0.835313 31.2094 
552 2 50.0294 2.63596 34.4372 
553 2 51.5767 3.56902 20.8884 
554 2 22.949 46.8004 0.238994 
555 2 18.9929 17.6184 25.1794 
556 2 22.1874 55.3825 54.327 
557 2 7.98813 2.10273 14.6946 
558 2 38.3707 36.8887 8.63226 
559 2 33.754 9.78445 21.7807 
560 2 18.6682 10.9093 4.59141 
561 2 39.9537 23.1541 45.1921 
562 2 16.1753 3.61252 25.9859 
563 2 41.9448 43.6815 39.617 
564 2 6.43799 18.5917 29.9339 
565 2 21.9669 29.3878 33.5006 
566 2 26.5289 23.7018 28.835 
567 2 49.54 38.8101 16.6347 
568 2 23.4577 52.7969 7.32797 
569 1 0.798041 26.5693 40.5346 
570 1 34.2186 13.654 2.91756 
571 1 -0.201821 41.3893 0.339034 
572 1 41.5013 9.89612 7.96929 
573 1 40.3652 48.3618 46.6411 
574 1 39.3061 31.7158 5.49747 
575 1 19.5826 15.459 33.9989 
576 1 31.6625 45.6281 47.3314 
577 1 33.9142 18.5887 24.863 
578 1 16.8337 0.154271 53.4768 
579 1 8.1173 15.5924 48.3206 
580 1 7.95828 4.01713 22.1019 
581 1 34.5722 18.9898 2.48331 
582 1 15.467 49.4096 8.64872 
583 1 24.0357 26.6373 17.1615 
584 1 18.9149 27.5657 8.78408 
585 1 14.7197 31.4126 7.95677 
586 1 12.9008 55.5681 26.5141 
587 1 39.1607 46.5668 28.961 
588 1 48.7321 51.048 49.1919 
589 1 20.4112 10.2311 25.7671 
590 1 31.2237 53.4332 52.0282 
591 1 53.6641 45.1186 24.0078 
592 1 50.7161 45.9964 35.9667 
593 1 21.018 12.3483 11.5108 
594 1 2.30407 2.72162 36.118 
595 1 14.5853 50.1667 46.65 
596 1 48.2152 32.6103 -0.171204 
597 1 13.9962 10.043 45.6148 
598 1 24.6459 5.1399 23.2468 
599 1 33.7943 17.7301 16.5161 
600 1 41.7667 32.269 16.0895 
601 1 48.1717 3.37733 52.4098 
602 1 37.0336 19.015 46.661 
603 1 21.4579 0.19369 43.9737 
604 1 13.7262 54.8213 50.3495 
605 1 55.6073 35.5744 27.9154 
606 1 40.3054 33.0884 34.7135 
607 1 16.4277 0.270282 39.1173 
608 1 32.9999 19.3831 14.4834 
609 1 48.8543 29.2656 16.0464 
610 1 35.5552 41.2532 51.452 
611 1 25.154 54.7172 24.4078 
612 1 13.8537 32.1463 2.92145 
613 1 12.3132 46.8235 48.7297 
614 1 27.1581 10.5696 31.3958 
615 1 13.0315 33.1307 18.4638 
616 1 9.60111 3.42452 39.2309 
617 1 54.6156 22.7584 53.5872 
618 1 18.9698 28.2355 24.5971 
619 1 1.45408 34.5684 50.2448 
620 1 9.71515 3.33758 10.2871 
621 1 16.7803 27.003 33.7872 
622 1 0.188567 39.563 12.2513 
623 1 33.2789 16.2207 41.6823 
624 1 8.46786 2.52619 41.8203 
625 1 21.6711 48.2824 27.7813 
626 1 19.1595 39.4869 24.8328 
627 1 18.5785 34.2087 9.72226 
628 1 30.1919 10.6748 10.879 
629 1 34.6759 47.8298 21.7591 
630 1 53.1213 35.6571 3.89021 
631 1 27.5402 4.94449 23.8702 
632 1 38.1705 20.4863 51.7991 
633 1 5.38726 14.6001 43.4003 
634 1 14.5426 9.23254 41.1079 
635 1 23.3517 40.6729 35.6528 
636 1 10.7237 44.4548 42.3504 
637 1 34.9412 36.796 45.6959 
638 1 50.887 9.32434 5.32208 
639 1 26.543 52.1427 44.2947 
640 1 45.5878 22.6643 26.3831 
641 1 -0.0632337 24.6407 47.5033 
642 1 20.3113 6.17675 25.8851 
643 1 15.0636 12.7633 14.9187 
644 1 28.6962 14.466 46.2356 
645 1 12.1837 44.9206 22.7322 
646 1 17.3771 3.71468 50.7201 
647 1 16.4196 3.65083 21.0806 
648 1 4.53876 21.684 44.6794 
649 1 22.5279 3.32817 18.0246 
650 1 15.9404 22.2187 0.523884 
651 1 40.2244 5.21871 8.95794 
652 1 45.7118 48.0117 31.6378 
653 1 22.3747 7.71969 48.1773 
654 1 51.4443 28.103 22.3855 
655 1 29.3936 51.3601 48.8521 
656 1 40.9399 22.2363 27.6269 
657 1 6.93728 5.57702 53.4352 
658 1 21.2466 53.6676 21.9358 
659 1 54.0859 54.0783 36.2855 
660 1 2.74034 7.90005 22.2501 
661 1 10.1075 14.3255 24.3227 
662 1 25.1996 11.2489 27.0944 
663 1 1.38415 39.3438 17.1069 
664 1 14.7478 44.9634 27.376 
665 1 17.5249 9.29091 49.5043 
666 1 41.4619 21.4192 32.4053 
667 1 55.6357 28.8498 43.8854 
668 1 17.1148 18.022 22.7632 
669 1 0.134396 53.7342 42.703 
670 1 39.2664 8.12712 50.9085 
671 1 49.9409 2.13133 4.88802 
672 1 27.0394 35.9652 47.3209 
673 1 23.1472 54.0962 2.3865 
674 1 2.35089 47.7968 46.2921 
675 1 17.4703 41.4956 25.1517 
676 1 11.3657 43.0729 44.4398 
677 1 4.37551 7.83923 10.6526 
678 1 -0.304725 21.6077 34.44 
679 1 49.9761 48.5694 13.7277 
680 1 54.0653 33.9575 49.5335 
681 1 37.4208 3.37156 23.8063 
682 1 25.248 55.3237 53.4101 
683 1 55.854 3.859 0.315895 
684 1 17.8805 15.5382 42.2992 
685 1 30.4746 21.4872 24.2354 
686 1 36.5643 32.273 17.6474 
687 1 15.3064 5.34423 4.97136 
688 1 26.2391 3.51297 21.533 
689 2 18.8161 30.7339 27.57 
690 2 41.1604 55.8347 54.9124 
691 2 21.6435 41.7274 54.381 
692 2 10.2147 26.7672 54.6397 
693 2 2.09633 52.6627 27.3987 
694 2 3.50368 45.3236 51.1903 
695 2 19.1056 19.3179 45.9125 
696 2 17.6185 30.0903 6.2339 
697 2 6.49598 23.4417 36.6205 
698 2 24.0907 26.3586 51.2513 
699 2 6.19692 5.39147 46.137 
700 2 50.8169 52.157 18.6281 
701 2 5.23269 16.5027 4.30338 
702 2 23.1458 15.4723 18.3282 
703 2 41.6886 48.9414 33.536 
704 2 46.7203 23.8173 10.913 
705 2 54.2817 39.6287 0.808259 
706 2 2.95338 1.57725 51.2758 
707 2 54.6202 7.53367 24.3939 
708 2 45.0006 9.58549 46.1661 
709 2 30.7649 9.72295 55.0242 
710 2 9.44984 48.9441 25.298 
711 1 38.6419 39.5431 15.0306 
712 1 29.3701 26.7183 13.037 
713 1 13.7273 30.1465 44.7958 
714 1 13.9968 37.8449 51.1899 
715 1 41.6521 48.6258 39.7262 
716 1 18.6278 52.5788 22.9681 
717 1 19.2066 10.8141 46.2717 
718 1 49.0854 6.33166 23.6916 
719 1 25.0889 26.1517 2.37175 
720 1 24.3501 22.0236 55.8975 
721 1 9.46558 41.5984 47.772 
722 1 29.9804 20.3411 31.4442 
723 1 54.6156 48.3213 43.0052 
724 1 21.0174 30.2584 48.1721 
725 1 18.6111 48.6151 26.4048 
726 1 42.2297 22.8288 20.4029 
727 1 53.8383 51.9946 53.3525 
728 1 50.3172 26.6427 46.0715 
729 1 29.0457 32.5926 2.45041 
730 1 8.06075 4.58018 43.5719 
731 1 2.97212 34.2752 39.6987 
732 1 48.061 9.05603 4.57782 
733 1 18.8425 48.3426 20.8697 
734 1 53.2256 23.3807 55.9548 
735 1 47.4612 55.0246 43.1818 
736 1 17.4194 11.5454 1.05099 
737 1 0.0265874 40.7876 2.81331 
738 1 55.6048 42.2581 28.471 
739 1 29.5405 25.7448 52.261 
740 1 0.341851 10.8705 28.2387 
741 1 26.8614 50.39 30.2232 
742 1 11.3294 35.7648 33.5653 
743 1 38.6217 35.2904 39.2024 
744 1 53.3828 2.14528 5.07828 
745 1 46.6632 35.2732 4.75694 
746 1 48.4539 25.3099 19.2876 
747 1 5.44061 42.8618 11.9801 
748 1 23.9805 48.5256 26.1939 
749 1 24.6737 53.0531 54.671 
750 1 5.37047 24.3965 12.477 
751 1 46.1543 50.7517 31.3892 
752 1 26.0819 16.2507 51.0465 
753 1 35.1509 12.8929 13.0847 
754 1 28.1507 0.750111 16.1907 
755 1 13.9559 11.2144 35.5241 
756 1 16.7745 43.4481 48.46 
757 1 26.6925 5.60039 50.236 
758 1 24.2196 56.282 39.3861 
759 1 51.2981 7.36763 50.2778 
760 1 34.6453 26.3007 18.1278 
761 1 28.9241 10.2306 23.908 
762 1 15.3693 56.0893 47.0116 
763 1 50.5324 20.0549 26.4932 
764 1 21.2087 16.3437 38.4076 
765 1 46.5492 24.6574 20.9971 
766 1 39.513 54.7383 29.2868 
767 1 10.1182 18.7883 51.7207 
768 1 34.5112 10.6521 31.297 
769 1 15.1486 37.5856 3.64201 
770 1 51.6886 29.1506 45.5041 
771 1 48.2732 45.4818 23.2104 
772 1 32.5727 0.224784 29.1127 
773 1 31.9493 20.6569 40.4506 
774 1 23.6897 40.5991 9.14152 
775 1 15.5199 14.2447 32.5131 
776 1 45.2226 16.521 52.1287 
777 1 4.4039 37.8918 9.52287 
778 1 10.5945 30.4379 51.5522 
779 1 9.01496 4.01733 30.347 
780 1 37.0328 25.1013 55.7778 
781 1 26.9429 40.7854 52.4165 
782 1 19.6412 16.7311 47.7996 
783 1 21.1763 43.8456 46.0097 
784 1 41.1158 11.563 18.7194 
785 1 42.518 34.4723 43.1683 
786 1 38.563 49.5892 29.7236 
787 1 33.5708 45.1785 23.0349 
788 1 16.3505 29.3739 39.13 
789 1 8.30392 25.2703 52.4028 
790 1 46.6696 1.97169 50.3688 
791 1 33.5852 29.8432 48.3429 
792 1 26.6241 12.2166 3.49887 
793 1 2.18608 7.50189 31.2183 
794 1 24.1177 33.4963 35.0974 
795 1 38.4529 2.07626 6.14158 
796 1 37.0547 15.3339 13.5714 
797 1 43.585 27.4441 56.1161 
798 1 21.0203 56.1778 36.1382 
799 1 28.3908 -0.274399 11.8473 
800 1 47.5682 23.0603 48.6315 
801 1 25.9609 46.3077 4.57524 
802 1 32.1718 2.07706 17.4696 
803 1 27.6883 47.9905 36.0269 
804 1 42.6075 36.8604 55.2711 
805 1 10.3948 4.67177 41.4527 
806 1 38.7882 54.5679 52.4222 
807 1 28.8382 0.734531 27.5708 
808 1 9.53081 7.02573 33.3233 
809 1 3.39662 33.8873 56.3055 
810 1 3.02954 23.5876 5.35893 
811 1 8.69512 27.5442 20.4554 
812 1 1.17584 47.7377 36.7353 
813 1 24.1 14.5817 0.0391482 
814 1 26.4027 13.3542 49.6416 
815 1 16.8794 55.3831 15.0866 
816 1 21.6139 55.9008 41.1849 
817 1 22.0806 35.2695 47.8047 
818 1 8.17675 39.0639 49.9075 
819 1 22.755 44.0286 2.17302 
820 1 39.7708 7.92601 9.07633 
821 1 50.4939 40.5515 41.9296 
822 1 22.7364 21.8386 18.6225 
823 1 36.0486 47.7369 12.9248 
824 1 9.19605 27.6672 49.2363 
825 1 2.68268 4.67362 46.7046 
826 1 37.6277 31.5456 14.9135 
827 1 42.0817 34.0182 21.4588 
828 1 0.244343 36.7752 51.3607 
829 1 11.9818 34.5917 29.0688 
830 1 25.1088 20.9791 12.9516 
831 2 16.6273 37.9753 46.3257 
832 2 16.3477 36.1999 8.55526 
833 2 16.5255 29.8234 10.2228 
834 2 54.2759 29.1009 22.7263 
835 2 27.4538 3.79262 15.9447 
836 2 29.7525 12.8208 25.2662 
837 2 54.9797 23.3685 16.7798 
838 2 35.0142 54.5913 31.3335 
839 2 38.3045 29.8833 27.4986 
840 2 47.8672 35.5315 55.772 
841 2 13.229 46.5503 16.6436 
842 2 45.8443 13.4022 51.23 
843 2 36.2331 1.00662 36.0955 
844 2 27.3669 12.0026 22.0495 
845 2 2.21969 55.1547 23.0819 
846 2 43.8464 29.5487 11.5605 
847 2 49.8474 4.38966 7.11884 
848 2 48.9567 44.4394 28.1514 
849 2 27.0586 22.0775 50.4871 
850 2 3.94456 38.2874 36.1588 
851 2 46.4991 6.4281 16.5786 
852 2 53.3983 40.3372 27.1348 
853 1 35.4321 13.1568 53.6975 
854 1 19.0811 28.6995 49.3699 
855 1 16.8567 36.9504 37.1131 
856 1 46.2705 18.8946 6.62796 
857 1 1.79736 47.5794 49.0741 
858 1 27.1763 2.49978 46.8866 
859 1 14.2474 13.3283 8.95878 
860 1 12.7682 28.7993 14.0478 
861 1 39.1801 27.9329 39.9576 
862 1 20.7319 1.00598 25.2532 
863 1 37.8726 23.8081 3.64787 
864 1 18.1769 4.70272 48.579 
865 1 41.8765 1.58749 28.0111 
866 1 51.7668 26.916 29.8485 
867 1 26.2468 18.7193 8.46245 
868 1 51.2323 13.6301 10.4892 
869 1 54.0131 51.9086 17.6619 
870 1 30.7033 35.2238 38.2382 
871 1 48.5397 12.9824 14.8903 
872 1 55.5052 30.0199 38.0941 
873 1 11.0156 22.9149 17.6815 
874 1 14.6118 7.48729 6.36046 
875 1 36.3712 40.705 -0.378143 
876 1 2.71692 11.8033 44.5895 
877 1 15.8093 31.9719 54.4373 
878 1 51.9192 26.8725 43.6883 
879 1 42.501 21.4828 52.5106 
880 1 25.4187 31.0375 21.0903 
881 1 23.7463 23.5193 16.65 
882 1 47.0097 48.1654 18.3228 
883 1 17.048 35.4888 48.4343 
884 1 54.2417 14.0427 10.5881 
885 1 23.6873 29.0664 23.4753 
886 1 41.0707 31.0455 22.0353 
887 1 35.9872 38.2344 43.4748 
888 1 23.4101 51.7263 44.5448 
889 1 29.764 28.4146 18.1069 
890 1 14.051 52.5014 13.1734 
891 1 0.369076 43.4027 30.5104 
892 1 25.7146 43.9219 47.9943 
893 1 18.3919 20.4596 36.1242 
894 1 27.9487 12.1706 14.6803 
895 1 21.8772 19.1505 8.21071 
896 1 45.8869 1.40255 40.6951 
897 1 15.8429 33.823 22.2365 
898 1 37.6988 7.08923 6.64377 
899 1 37.7874 42.689 53.1114 
900 1 34.3954 31.7234 30.9879 
901 1 30.6154 14.4339 37.7098 
902 1 43.5531 1.1337 54.2802 
903 1 21.6462 24.6565 50.6242 
904 1 46.2048 6.46034 19.9943 
905 1 34.3037 11.4579 15.9304 
906 1 55.0233 41.9533 31.5683 
907 1 54.408 30.9574 42.8436 
908 1 20.063 14.8002 20.0336 
909 1 25.2395 45.5328 52.8733 
910 1 21.0438 32.6545 26.0263 
911 1 5.83515 51.8922 14.7967 
912 1 22.4315 51.3365 42.1288 
913 1 28.542 13.4869 40.078 
914 1 55.846 32.9669 22.5431 
915 1 45.7597 14.7445 40.1109 
916 1 23.2351 36.502 21.1193 
917 1 30.8828 24.4698 8.23235 
918 1 35.6983 0.217255 5.40241 
919 1 13.6431 32.4155 21.4366 
920 1 9.89253 50.835 49.2278 
921 1 22.092 1.87287 5.56254 
922 1 18.8986 31.7151 15.3654 
923 1 15.1495 4.62823 41.0088 
924 1 45.7037 2.32402 4.28949 
925 1 37.4498 8.2825 28.14 
926 1 15.9929 39.9691 12.2866 
927 1 14.6334 46.4537 19.7981 
928 1 6.72639 15.0848 8.956 
929 1 51.7635 1.06372 6.79926 
930 1 54.189 49.5239 34.2896 
931 1 41.5165 12.7338 36.1667 
932 1 16.7621 23.1645 37.71 
933 1 12.8136 45.265 13.1392 
934 1 9.86132 24.7264 0.32426 
935 1 54.4416 33.2147 7.98071 
936 1 34.4371 53.6111 23.2502 
937 1 52.234 30.5804 11.6916 
938 1 18.142 48.7572 0.360685 
939 1 28.1326 24.447 6.89154 
940 1 14.9409 43.9625 30.1281 
941 1 23.74 6.87841 14.1516 
942 1 47.6837 20.8764 31.6598 
943 1 1.38725 28.7804 42.2661 
944 1 33.5868 22.9451 39.346 
945 1 5.94532 8.65359 34.2184 
946 1 50.7527 11.5091 27.8217 
947 1 43.193 7.19795 11.7253 
948 1 1.21812 16.8864 17.1099 
949 1 53.1374 52.0522 11.9041 
950 1 54.2615 34.1288 33.4071 
951 1 11.5067 13.2484 35.5034 
952 1 37.7291 53.6413 31.7487 
953 1 46.3088 3.5764 42.585 
954 1 5.76467 14.3942 48.1478 
955 1 18.6146 54.9032 12.9823 
956 1 7.10881 51.5412 35.1504 
957 1 47.297 41.2601 19.4998 
958 1 45.2489 4.62966 33.6106 
959 1 34.7691 23.5264 52.2287 
960 1 18.2347 20.357 23.9222 
961 1 0.246041 22.2152 49.0452 
962 1 25.2931 32.8123 22.9966 
963 1 22.6694 51.5622 21.9838 
964 1 26.9535 29.5695 17.0459 
965 1 44.7293 10.7191 26.8764 
966 1 29.3735 52.7676 24.7766 
967 1 42.8055 8.66464 26.3193 
968 1 47.1942 46.4101 44.5055 
969 1 15.2898 38.5159 19.6463 
970 1 11.1559 53.888 46.5713 