ITEM: TIMESTEP
0
ITEM: NUMBER OF ATOMS
9088
ITEM: BOX BOUNDS pp pp pp
-2.2807916883951224e-01 5.6112571794688442e+01
-2.2807916883951224e-01 5.6112571794688442e+01
-2.2807916883951224e-01 5.6112571794688442e+01
ITEM: ATOMS id type x y z
1 1 28.3099 41.3158 49.2658
2 1 44.401 4.23835 36.5464
3 1 41.4387 12.7693 50.0832
4 1 37.0016 49.208 43.8667
5 1 11.3108 34.2212 8.22603
6 1 35.6122 25.5212 21.9026
7 1 19.7902 33.0123 1.3492
8 1 48.3694 1.60264 9.22005
9 1 55.8385 50.1754 39.9504
10 1 36.8529 13.4204 53.5968
11 1 48.7595 35.771 32.8483
12 1 35.5627 19.4974 36.8215
13 1 21.1939 48.5653 37.0319
14 1 19.8332 49.3683 50.2927
15 1 2.95852 36.567 29.9978
16 1 26.4631 0.612264 39.1953
17 1 50.3527 9.98336 27.9693
18 1 3.93042 47.8752 35.9669
19 1 30.2931 23.9679 51.756
20 1 30.9386 2.23087 44.783
21 1 25.5054 48.8555 50.1674
22 1 9.50097 41.7484 1.81041
23 1 21.7245 17.9456 38.0171
24 1 3.2947 7.6857 55.5582
25 1 26.3045 27.3623 38.6901
26 1 19.8663 27.9587 43.3833
27 1 34.8265 29.3203 54.6286
28 1 13.4749 32.7235 14.6033
29 1 10.9176 50.4068 39.9498
30 1 49.0206 9.63225 43.0048
31 1 30.6127 4.84896 0.134995
32 1 34.0149 5.2088 23.5488
33 1 24.2942 41.9956 2.5732
34 1 14.4972 24.446 1.84279
35 1 20.1045 51.1554 40.6941
36 1 16.5385 32.7528 18.9891
37 1 23.2903 55.6568 47.2758
38 1 23.2092 21.5813 3.32643
39 1 13.3375 26.2431 0.188102
40 1 8.85128 11.518 47.8184
41 1 46.7411 41.1592 1.44508
42 1 5.64597 39.1194 14.7856
43 1 21.6629 17.0348 9.51592
44 1 50.9488 51.9391 23.6018
45 1 13.1192 43.7938 55.9942
46 1 -0.03776 17.9149 10.8425
47 1 42.5843 6.05427 32.1956
48 1 18.4609 31.0896 19.6039
49 1 4.92531 19.0198 31.5762
50 1 18.2022 19.703 20.3336
51 1 50.1912 32.3432 30.4413
52 1 22.368 10.3271 37.3604
53 1 52.6283 20.4311 1.20334
54 1 52.3302 18.5682 45.7582
55 1 39.708 45.0576 29.5131
56 1 11.936 25.5235 44.6614
57 1 6.91259 32.9733 34.5768
58 1 37.2735 11.413 21.6512
59 1 5.31161 30.3088 28.3454
60 1 36.2009 32.8076 54.9536
61 1 11.8444 27.1379 54.2483
62 1 52.9038 21.8743 24.3174
63 1 49.5027 43.499 29.0588
64 1 22.3742 4.35652 16.278
65 1 11.1571 42.3048 47.7715
66 1 7.90744 45.0247 9.99033
67 1 12.2499 43.4566 53.1023
68 1 11.1607 33.7872 52.4106
69 1 37.5078 38.4075 45.823
70 1 2.01276 28.0423 4.79046
71 1 52.1014 46.8099 28.5353
72 1 55.6753 29.7542 1.66135
73 1 21.2271 44.579 6.63345
74 1 5.01453 34.2048 44.9625
75 1 37.7449 19.606 5.1562
76 1 38.4855 23.9628 5.94709
77 1 47.5575 40.244 32.0648
78 1 33.8322 40.5144 10.7927
79 1 31.9485 23.4566 42.6938
80 1 39.4865 0.0278412 30.805
81 1 17.6294 28.0004 54.4278
82 1 50.6496 1.24043 23.7765
83 1 8.16635 14.8848 28.0329
84 1 36.4065 2.12331 4.13566
85 1 39.4111 10.6294 38.5003
86 1 34.5602 34.0218 34.8166
87 1 25.9642 8.07866 31.9445
88 1 15.822 11.456 12.9265
89 1 6.9105 48.2053 39.3154
90 1 1.22637 39.6087 51.7724
91 1 17.9421 7.88186 22.0924
92 1 10.0469 11.8659 19.3019
93 1 38.4361 9.68821 11.3239
94 1 35.6185 34.1399 28.7172
95 1 40.6165 24.6334 18.8625
96 1 7.05249 -0.113436 13.9266
97 1 3.37901 8.68844 32.745
98 1 17.6778 12.7588 30.0537
99 1 42.4173 36.4504 5.68474
100 1 3.44163 5.93729 27.0021
101 1 0.862044 33.9447 47.2042
102 1 5.15187 1.29592 12.2639
103 1 41.7388 43.2987 55.8738
104 1 14.5812 55.0647 39.6877
105 1 31.5706 13.9302 10.7776
106 1 19.2105 48.4406 47.7074
107 1 34.1132 0.762316 42.4947
108 1 46.6759 17.4771 47.4108
109 1 10.4582 45.658 16.0719
110 1 31.4319 9.22836 10.7598
111 1 37.9661 54.3073 15.0092
112 1 5.48621 5.67639 10.2575
113 1 28.8911 33.3592 11.5466
114 1 24.2787 16.7265 40.1414
115 1 42.9909 34.5646 31.1931
116 1 31.9309 6.10447 37.9512
117 1 -0.00660215 12.5082 40.6305
118 1 1.76973 43.8282 31.7124
119 1 36.504 35.7892 33.9198
120 1 15.1573 2.07543 40.1061
121 2 11.814 38.8666 35.4551
122 2 51.414 18.6647 12.9626
123 2 55.1582 46.4005 20.8205
124 2 52.6073 29.6749 19.8755
125 2 54.0095 35.5266 38.5833
126 2 25.2181 7.65341 17.7442
127 2 12.1701 51.3029 15.5187
128 2 7.68697 29.887 35.3343
129 2 55.2111 17.8579 7.50921
130 2 1.55009 21.4147 45.9904
131 2 52.1061 11.8903 47.2529
132 2 39.2636 46.4616 18.051
133 2 34.9439 42.6188 15.7219
134 2 15.1965 5.26064 9.05981
135 2 42.8939 33.9832 3.90419
136 2 9.8759 0.685478 32.1075
137 2 40.7184 24.3178 46.326
138 2 5.29885 4.71776 49.2788
139 2 31.1924 14.7437 13.8313
140 2 45.4344 27.3052 39.1316
141 2 8.04515 38.43 22.8347
142 2 29.814 23.6027 40.1648
143 1 47.2638 19.8602 46.0189
144 1 29.3002 17.5912 13.6904
145 1 54.1291 12.5684 6.47871
146 1 52.3825 26.5866 15.303
147 1 29.4987 28.3648 32.5196
148 1 26.8702 10.1693 38.5078
149 1 46.5804 6.16596 44.8686
150 1 24.9556 25.6909 9.60118
151 1 49.959 24.452 53.9818
152 1 9.71279 33.5184 45.0433
153 1 49.7954 48.5237 29.0422
154 1 43.1544 41.6991 30.8965
155 1 32.4381 18.4309 10.2287
156 1 7.64486 33.0826 9.17067
157 1 51.4695 34.2307 22.1085
158 1 37.4143 5.61301 0.33215
159 1 54.9485 48.0782 13.5833
160 1 49.0703 2.36482 2.29942
161 1 10.5143 25.4238 21.3119
162 1 13.049 12.9084 44.0784
163 1 20.0476 21.3656 26.4037
164 1 55.9503 38.5642 11.8222
165 1 51.5067 35.5658 6.66906
166 1 45.3824 41.8802 14.7416
167 1 31.2657 39.8062 46.2517
168 1 39.4582 7.78009 48.6796
169 1 28.1543 50.6467 39.1677
170 1 39.4785 34.0051 47.0042
171 1 28.299 32.7372 23.7701
172 1 21.2037 43.4971 28.3946
173 1 14.1092 40.1731 9.94409
174 1 35.2353 1.68385 32.6547
175 1 18.8855 27.9161 16.3567
176 1 39.696 37.1288 6.744
177 1 10.0078 4.91724 25.3824
178 1 18.0953 6.51194 11.7842
179 1 26.7971 45.1927 47.8595
180 1 55.201 26.9042 8.38723
181 1 48.6003 42.8856 31.4447
182 1 49.5255 30.3198 52.7151
183 1 13.4671 20.3525 3.89178
184 1 25.799 52.6756 11.8189
185 1 33.3987 10.0441 34.2862
186 1 44.0464 26.4533 27.0014
187 1 1.40356 6.91499 53.4065
188 1 28.7079 39.4624 3.24449
189 1 13.1944 41.4311 33.8334
190 1 35.4298 48.7846 21.9073
191 1 20.3611 19.0245 45.9296
192 1 50.1951 0.0178873 7.97737
193 1 37.2389 8.70227 13.6854
194 1 36.1059 3.76212 30.8811
195 1 24.6008 27.8123 1.40705
196 1 34.7896 5.6116 26.3889
197 1 7.10029 9.07047 49.481
198 1 12.7042 17.2399 30.6963
199 1 31.5549 18.8654 3.22944
200 1 39.8797 20.6717 41.173
201 1 26.9764 13.0107 16.2196
202 1 38.8112 1.98244 2.74216
203 1 31.7405 27.7935 37.1259
204 1 40.9139 27.1644 19.4094
205 1 8.06699 12.1359 3.03488
206 1 39.8658 25.6332 24.8337
207 1 0.244488 45.1283 45.7354
208 1 31.9786 5.09427 10.692
209 1 47.486 6.61908 47.3626
210 1 27.4922 21.5465 41.6668
211 1 8.54392 5.72437 21.42
212 1 43.2001 27.4541 43.4898
213 1 22.2197 12.353 51.1227
214 1 1.08217 37.6668 2.41919
215 1 11.3688 27.9646 22.6439
216 1 -0.169671 24.5767 51.2541
217 1 21.7756 8.78773 35.1738
218 1 1.28288 9.56535 54.4964
219 1 44.1014 51.7046 6.01426
220 1 45.1624 5.63802 42.5465
221 1 28.8312 0.756312 15.7133
222 1 2.39371 7.60194 21.2499
223 1 26.07 44.0998 2.87585
224 1 42.5431 8.65795 25.1053
225 1 43.8706 48.9375 38.62
226 1 12.7507 42.0449 25.3742
227 1 19.9939 45.8349 33.1992
228 1 55.9406 20.1712 53.0932
229 1 11.0077 27.2993 42.7521
230 1 31.0222 29.6843 41.3677
231 1 31.7977 35.2044 25.3094
232 1 40.6842 17.0804 17.7881
233 1 51.071 50.0448 38.0747
234 1 11.0148 14.115 51.2409
235 1 41.3478 18.5598 42.157
236 1 6.81322 47.7843 29.5171
237 1 52.6392 29.7226 23.5828
238 1 36.2431 0.476249 1.91836
239 1 34.0752 28.6601 6.01484
240 1 9.1969 32.8054 51.1609
241 1 19.9107 49.1256 10.6528
242 1 32.8355 10.9476 2.96454
243 1 7.4747 24.355 33.3765
244 1 55.8877 42.7712 7.54051
245 1 1.22938 27.8626 20.0128
246 1 54.0448 5.77114 5.77189
247 1 54.2992 49.0369 10.7498
248 1 44.0387 0.746643 45.715
249 1 10.6163 45.0806 48.6992
250 1 23.4217 24.4195 18.1932
251 1 17.7491 39.1572 3.82553
252 1 47.593 16.5912 38.9074
253 1 2.65373 27.281 48.418
254 1 9.07254 8.49162 32.6595
255 1 55.2845 9.01119 18.1212
256 1 30.5644 47.3901 24.5913
257 1 1.3746 12.2815 35.043
258 1 33.2119 18.4627 27.8878
259 1 45.6487 45.9266 55.0774
260 1 24.873 41.4722 33.8879
261 1 32.2681 10.7007 39.7179
262 1 20.5482 43.6356 9.38551
263 2 44.2724 24.6987 29.4953
264 2 25.7434 46.9492 1.4978
265 2 49.886 7.51205 49.2703
266 2 7.00627 24.7877 38.7205
267 2 14.6835 21.3768 1.2347
268 2 4.4628 3.41704 24.7329
269 2 15.2448 2.34656 16.6133
270 2 44.544 43.5255 53.4828
271 2 54.182 44.8598 26.3063
272 2 32.7951 40.2983 13.8137
273 2 33.3992 6.03347 34.7884
274 2 53.0041 26.9313 30.7692
275 2 27.2814 7.21698 53.0203
276 2 56.0934 14.1099 4.52584
277 2 1.16209 42.8335 39.3731
278 2 11.8682 34.2844 18.4309
279 2 43.864 51.536 46.5471
280 2 19.5944 55.2639 22.1812
281 2 41.3396 16.9454 14.5823
282 2 14.8442 28.8508 8.34396
283 2 46.6927 47.7565 28.7563
284 2 16.9139 27.2107 34.6273
285 1 4.781 35.3031 5.90176
286 1 49.3857 34.9925 20.2103
287 1 44.7403 1.60259 36.2134
288 1 22.1076 17.0517 31.9891
289 1 20.4154 29.7404 6.38754
290 1 50.7796 12.8444 24.0099
291 1 17.9408 44.2052 34.1687
292 1 41.0592 5.24814 44.1112
293 1 54.4176 19.9146 55.527
294 1 31.1181 32.6597 41.684
295 1 47.279 25.0634 30.0595
296 1 12.4726 32.0305 35.0331
297 1 48.342 14.1574 33.8779
298 1 30.8258 22.2848 13.1425
299 1 31.7944 18.6538 17.8542
300 1 24.7283 31.7263 9.34236
301 1 24.7253 49.972 23.2
302 1 46.3779 33.4469 25.6006
303 1 53.9587 3.53014 1.71723
304 1 15.6064 34.7165 51.7573
305 1 25.3276 38.4062 23.184
306 1 28.7836 52.3595 32.6462
307 1 5.31186 40.1253 32.0611
308 1 39.9741 54.1689 45.2702
309 1 49.5839 30.6469 28.2619
310 1 10.2709 53.251 38.4647
311 1 38.29 35.3788 5.55851
312 1 10.2579 7.9521 26.0224
313 1 5.03259 55.4305 18.2715
314 1 29.0494 47.4775 52.9541
315 1 4.58325 6.18128 14.7971
316 1 43.9554 10.39 10.7443
317 1 30.3764 31.9339 38.6382
318 1 6.01381 23.3704 11.5718
319 1 3.09507 2.5938 18.1761
320 1 18.9967 33.5556 25.3817
321 1 26.2222 38.8152 34.243
322 1 55.2522 21.5902 22.8685
323 1 11.0772 11.0121 32.8186
324 1 18.3236 8.62335 32.2057
325 1 21.719 45.7657 42.9702
326 1 16.5811 31.961 41.1073
327 1 12.3198 9.15359 34.9661
328 1 0.276799 8.48735 36.9982
329 1 4.30563 25.699 44.9927
330 1 7.67446 30.5543 29.9544
331 1 15.6548 39.3682 52.5543
332 1 0.608296 44.5297 12.0087
333 1 16.0363 13.6578 10.6489
334 1 33.6957 34.8899 22.9232
335 1 35.5311 13.2984 51.1555
336 1 50.2089 21.404 13.2265
337 1 1.02976 34.1161 7.77537
338 1 9.54916 22.9969 22.0654
339 1 12.9622 22.6255 44.0436
340 1 25.1356 23.4112 26.154
341 1 26.4915 51.2043 24.9232
342 1 -0.134261 26.8388 18.0094
343 1 35.7331 13.92 27.5164
344 1 33.1065 15.8851 11.4867
345 1 48.9805 16.8131 3.59413
346 1 0.112372 6.80348 23.3679
347 1 19.7825 18.446 11.0656
348 1 12.982 10.2078 22.6938
349 1 4.4068 36.963 10.3971
350 1 1.62437 53.8298 51.1108
351 1 45.1779 35.5887 5.5196
352 1 18.6825 8.45086 52.0172
353 1 24.5081 34.7066 53.8744
354 1 46.8287 37.204 40.0308
355 1 48.7592 28.5294 38.7845
356 1 9.68652 40.2455 42.9413
357 1 20.1914 50.3427 53.1041
358 1 22.0452 24.4044 36.5102
359 1 29.0717 44.936 46.356
360 1 16.4787 38.2248 45.4303
361 1 39.7734 22.2709 43.5724
362 1 0.562398 54.0853 4.51435
363 1 44.0024 18.4711 14.5471
364 1 41.2868 0.412787 32.9962
365 1 39.1092 48.3177 7.73639
366 1 15.617 34.7001 14.5174
367 1 50.7174 46.8239 38.3001
368 1 40.4572 44.9868 26.6673
369 1 33.34 14.4197 16.0634
370 1 3.4319 40.8018 50.5224
371 1 19.4171 28.2324 48.9383
372 1 13.8366 22.0989 33.7072
373 1 21.2691 55.8735 38.4385
374 1 47.1457 50.4068 2.48351
375 1 4.30762 52.9121 35.2343
376 1 42.7479 48.8876 25.1152
377 1 6.71538 19.7211 51.6386
378 1 28.889 52.642 21.285
379 1 51.4772 39.5416 20.4727
380 1 11.0585 13.1275 26.8792
381 1 26.3424 50.1358 29.1759
382 1 55.1082 22.3744 8.46767
383 1 12.6523 23.3995 22.1436
384 1 49.3001 16.4354 32.8645
385 1 29.8083 8.97451 19.7023
386 1 36.0205 38.7165 23.2334
387 1 21.0142 34.0189 39.383
388 1 24.3123 6.69684 40.3267
389 1 26.7193 11.1019 14.3258
390 1 45.3845 48.6043 31.7002
391 1 7.09802 9.17747 6.97695
392 1 48.8685 48.6961 37.353
393 1 3.2422 27.7212 0.892276
394 1 3.33824 38.0254 46.3079
395 1 54.8341 7.72882 47.9505
396 1 14.5704 4.69938 23.7633
397 1 49.8678 25.9112 22.4921
398 1 21.2786 29.0989 3.99426
399 1 6.88293 54.4747 41.6316
400 1 35.7688 42.969 27.5394
401 1 18.8408 30.7863 24.9558
402 1 31.7017 48.0836 43.6156
403 1 13.1756 42.546 28.322
404 1 26.7438 34.932 45.7917
405 2 19.7335 8.01953 14.1634
406 2 36.1335 30.9478 7.67542
407 2 34.4784 13.0426 12.8068
408 2 24.8685 49.3721 12.858
409 2 47.0257 0.216321 16.7549
410 2 36.7439 49.2528 16.3468
411 2 5.74209 41.4797 16.726
412 2 53.6523 8.71856 35.7234
413 2 30.9281 21.7472 45.2183
414 2 12.4381 35.072 47.5551
415 2 55.5903 51.7588 8.99121
416 2 52.0348 42.9312 55.371
417 2 44.3719 4.99126 10.0891
418 2 7.46651 36.1229 10.9453
419 2 15.545 54.2474 22.5143
420 2 23.9549 23.0441 23.2428
421 2 41.4688 49.385 9.8424
422 2 31.9584 16.1425 8.05295
423 2 8.08528 0.715907 43.2375
424 2 52.204 10.5241 4.81936
425 2 48.3969 51.852 39.1271
426 2 37.335 8.06722 38.1784
427 1 29.8597 29.8163 56.0585
428 1 3.86412 53.4451 52.6256
429 1 55.8254 27.5656 51.194
430 1 51.8706 55.0043 9.64588
431 1 19.9701 47.5304 26.1816
432 1 42.5207 8.05738 6.40946
433 1 39.8084 24.6413 13.8075
434 1 12.6567 21.0097 46.1441
435 1 22.9624 52.0671 8.61548
436 1 32.3748 32.0955 48.4505
437 1 26.0531 24.3734 33.6908
438 1 47.0609 2.77674 35.3655
439 1 1.35499 38.247 53.9167
440 1 11.5763 22.5012 32.3196
441 1 22.4082 14.3833 11.1543
442 1 42.6888 18.6629 16.918
443 1 42.0769 10.5294 27.3662
444 1 51.2121 42.3803 47.695
445 1 5.00878 14.9146 17.8633
446 1 38.4751 31.455 39.9172
447 1 20.6734 51.9632 10.0639
448 1 45.9455 6.45089 52.5676
449 1 54.0063 6.88276 29.0147
450 1 48.8807 32.8073 0.555578
451 1 27.7479 49.3078 14.3975
452 1 48.1873 11.9153 22.7562
453 1 7.30922 19.802 32.4869
454 1 5.51744 35.3287 51.8611
455 1 6.83592 22.1449 23.4443
456 1 46.6278 3.56501 51.8392
457 1 53.4739 39.0828 18.1745
458 1 27.2009 20.3538 36.5982
459 1 2.98598 34.5705 9.65238
460 1 29.4392 0.193933 34.1672
461 1 8.0713 16.7792 17.3761
462 1 48.635 27.6655 9.38453
463 1 15.5515 2.39283 7.42793
464 1 31.667 52.5343 22.9752
465 1 8.01383 46.7887 17.1582
466 1 4.70903 47.8609 5.57199
467 1 46.7325 11.5111 37.9295
468 1 45.0476 54.2741 6.8419
469 1 14.8637 43.4073 24.2867
470 1 26.9125 0.568173 14.0249
471 1 26.4971 9.92299 3.57727
472 1 15.35 38.0584 27.9884
473 1 48.7232 38.7506 46.5905
474 1 39.8462 12.2027 16.6392
475 1 23.0092 25.0504 20.7929
476 1 12.3012 22.1114 40.2713
477 1 49.0894 3.08384 37.4761
478 1 41.749 7.46373 13.6608
479 1 55.8374 25.7435 35.4886
480 1 41.2459 8.14853 3.71213
481 1 25.6257 1.55006 51.1118
482 1 30.0705 36.8783 23.0143
483 1 46.3004 19.3502 34.2239
484 1 5.70187 37.2339 7.54597
485 1 18.1291 45.2348 25.2284
486 1 47.1908 7.57943 42.5273
487 1 20.9802 12.7222 22.0203
488 1 5.7229 47.4626 25.2501
489 1 2.98055 44.692 13.6757
490 1 24.2021 49.6957 25.9824
491 1 13.1246 29.8204 47.2827
492 1 27.0659 24.2995 41.3567
493 1 44.269 30.4706 34.1548
494 1 4.43115 54.5595 13.3742
495 1 11.6366 33.7266 12.797
496 1 39.2048 17.8293 37.2854
497 1 7.07044 17.2196 31.738
498 1 19.5975 20.5037 8.82979
499 1 33.5429 29.6839 20.0213
500 1 51.8852 3.41688 36.4791
501 1 16.2538 50.7443 43.4727
502 1 50.6646 43.119 6.94456
503 1 42.3502 21.1175 42.8666
504 1 40.0158 46.984 32.084
505 1 38.6134 27.6307 3.90791
506 1 22.2459 27.382 41.9886
507 1 53.5184 54.5375 32.3876
508 1 10.7806 42.9241 17.5083
509 1 53.3265 29.4046 8.06997
510 1 30.5079 0.432467 3.66548
511 1 49.9859 5.54025 6.02886
512 1 14.3069 50.527 12.701
513 1 33.1428 30.0057 29.2582
514 1 28.3271 27.7863 20.9518
515 1 29.002 12.6149 27.419
516 1 5.27161 40.4226 37.1342
517 1 16.0945 3.10044 56.096
518 1 23.9785 12.3879 13.4066
519 1 8.02004 12.0752 45.1666
520 1 35.8422 17.7416 4.5303
521 1 45.7154 24.9245 32.3608
522 1 7.30794 17.1498 0.894406
523 1 38.6335 1.43957 25.8687
524 1 39.982 51.612 32.3106
525 1 25.7451 41.3218 22.483
526 1 26.6417 15.104 30.7016
527 1 29.2323 54.7462 23.6141
528 1 2.34496 6.73184 6.44663
529 1 40.4934 8.1648 33.5988
530 1 38.0937 16.8023 18.1501
531 1 43.8607 9.61687 45.502
532 1 35.2604 9.99384 11.6487
533 1 42.9921 6.07902 20.7817
534 1 19.7347 35.3632 20.5379
535 1 42.9736 2.65288 38.204
536 1 38.3271 23.2611 18.203
537 1 19.2522 22.1697 20.863
538 1 6.84089 27.307 2.87292
539 1 28.6783 37.8758 33.1696
540 1 48.259 12.2679 16.2837
541 1 42.5401 5.76891 7.77194
542 1 32.8529 47.8179 35.9663
543 1 38.0445 44.9576 35.1165
544 1 31.7024 34.8998 15.4042
545 1 52.0918 24.7103 5.84396
546 1 23.7211 50.8222 41.248
547 2 15.0891 40.6062 26.4345
548 2 12.8864 46.6468 1.38154
549 2 34.8391 47.9941 25.578
550 2 55.4788 51.4417 12.9959
551 2 52.5684 6.80043 16.9652
552 2 9.76515 6.95023 35.2399
553 2 37.6358 9.99979 16.8317
554 2 23.2625 5.82057 53.0873
555 2 14.7567 13.001 21.5347
556 2 12.7131 41.6001 43.0119
557 2 13.8762 5.85184 34.0848
558 2 17.3298 33.0816 3.35589
559 2 39.8894 16.9445 20.8978
560 2 5.19398 16.2509 29.357
561 2 38.5983 12.6982 50.8374
562 2 3.75843 19.7314 28.5117
563 2 29.9902 47.1024 34.8642
564 2 16.7282 4.88976 40.1363
565 2 20.2958 22.3513 34.7088
566 2 31.0473 13.6633 39.0835
567 2 44.6376 38.5541 0.670921
568 2 43.3812 18.3444 20.2672
569 1 15.0279 1.37731 19.36
570 1 52.4086 36.6813 49.2415
571 1 20.2191 14.1817 6.06265
572 1 46.5255 14.919 53.7825
573 1 15.7373 15.3647 26.0969
574 1 30.3984 46.1459 17.3648
575 1 30.2098 49.7109 42.0705
576 1 13.9436 -0.0527081 11.2181
577 1 1.78491 6.52487 15.3565
578 1 55.3766 39.9998 44.3546
579 1 34.1316 44.9959 47.9407
580 1 20.7429 32.3294 6.32528
581 1 37.4953 10.3225 29.6881
582 1 12.1566 41.3341 37.9019
583 1 45.1976 25.4418 18.076
584 1 29.273 40.7222 28.9222
585 1 33.2376 8.25983 23.1516
586 1 55.4544 0.321299 31.1832
587 1 10.9413 1.73626 7.29173
588 1 9.12025 43.8981 46.7264
589 1 34.48 47.4891 49.8608
590 1 56.0678 7.39905 6.98451
591 1 13.0201 9.64619 30.8007
592 1 52.6827 33.0198 6.50632
593 1 18.5004 24.9328 33.2443
594 1 3.07901 42.3457 41.9441
595 1 34.8566 11.9787 44.3087
596 1 3.6355 4.9027 38.985
597 1 28.9849 51.5102 7.55915
598 1 49.2392 47.3741 25.143
599 1 5.12645 3.85825 13.2409
600 1 11.4445 32.3101 4.038
601 1 21.9642 42.4193 54.192
602 1 2.92237 42.4627 15.6076
603 1 26.8377 35.4775 52.168
604 1 5.52147 21.6586 30.0735
605 1 28.1238 43.3108 27.6781
606 1 27.3196 46.4437 33.3123
607 1 38.8754 14.3163 33.7987
608 1 44.5519 5.35892 50.7165
609 1 34.1592 30.4391 12.6238
610 1 43.6087 5.66614 45.234
611 1 20.7891 44.7768 30.8727
612 1 17.8502 46.8424 45.6822
613 1 3.32359 51.4642 1.1346
614 1 53.9095 33.137 10.8778
615 1 5.90598 43.1047 41.5353
616 1 38.5204 3.71873 54.8446
617 1 16.2967 11.7608 51.5184
618 1 6.50432 53.4991 51.3184
619 1 36.8717 11.454 27.4447
620 1 27.9533 27.0286 25.6335
621 1 53.0397 8.78198 27.3328
622 1 3.67077 29.6721 43.6213
623 1 15.0033 44.1839 11.9048
624 1 27.8475 9.42289 55.2449
625 1 10.0838 15.0606 25.3597
626 1 39.805 27.9905 22.3361
627 1 34.3039 36.594 55.8024
628 1 31.7852 10.2615 17.2042
629 1 42.0032 46.8062 11.549
630 1 37.5956 54.2746 20.4817
631 1 43.555 29.0347 14.0841
632 1 4.46904 32.3426 26.723
633 1 15.8309 6.51616 49.3605
634 1 48.0584 45.8296 17.8213
635 1 31.4965 43.8494 21.825
636 1 5.96304 6.82432 17.1211
637 1 0.601095 15.0081 39.9463
638 1 32.5284 47.3152 55.5165
639 1 28.687 5.15328 4.52785
640 1 22.1999 53.5873 6.22606
641 1 -0.168254 47.8007 35.5842
642 1 53.6812 18.8821 10.3943
643 1 41.6386 27.8837 24.6947
644 1 20.2789 42.4176 45.9338
645 1 0.38056 19.3665 40.9923
646 1 13.0538 31.256 12.469
647 1 2.69322 29.3502 8.6306
648 1 19.4048 16.9417 5.15981
649 1 20.8084 20.2759 19.5757
650 1 15.0414 3.85146 3.05218
651 1 30.1249 33.3725 32.9573
652 1 52.667 15.4333 40.1989
653 1 51.8167 30.5621 51.4034
654 1 29.7201 34.2964 55.9381
655 1 40.9783 4.32798 30.2976
656 1 36.6351 52.2043 40.1495
657 1 55.7378 34.6159 20.9046
658 1 24.683 8.25462 54.9548
659 1 38.7166 39.8746 50.2297
660 1 1.66895 43.9952 6.65635
661 1 45.8261 36.8735 12.8969
662 1 15.6759 41.0398 44.4687
663 1 19.838 36.0659 37.5268
664 1 53.1705 16.6687 27.9695
665 1 34.1863 42.9353 22.8124
666 1 15.1939 8.99003 26.3305
667 1 35.4196 16.7889 28.2272
668 1 47.3194 12.3906 44.4314
669 1 51.3295 22.6749 15.443
670 1 48.1293 5.68111 10.7638
671 1 32.276 4.36829 25.5072
672 1 1.98876 18.6274 9.04719
673 1 11.3906 4.44529 35.8648
674 1 46.1122 51.3727 7.8855
675 1 23.2324 7.78971 33.1423
676 1 54.0168 16.5589 24.1906
677 1 55.6834 36.001 54.1663
678 1 15.62 55.6616 17.7621
679 1 52.691 11.9831 22.1414
680 1 28.2256 32.4681 45.9204
681 1 -0.118612 26.1813 48.9194
682 1 7.12033 3.34588 44.7374
683 1 43.486 12.9615 21.0102
684 1 38.5011 32.6858 37.1885
685 1 22.7169 54.9925 15.2495
686 1 44.8016 14.8707 11.4263
687 1 47.2193 55.159 28.2905
688 1 20.5024 7.19744 33.3357
689 2 21.499 49.2657 24.0413
690 2 29.9881 50.2556 10.1202
691 2 34.5673 26.9545 38.9037
692 2 8.21298 42.4538 49.1173
693 2 45.198 48.2167 22.538
694 2 2.83012 51.1865 54.4213
695 2 17.6078 15.0909 45.1168
696 2 16.2243 40.9285 8.12744
697 2 1.44832 18.3164 36.3328
698 2 17.164 18.6251 7.01652
699 2 44.5908 11.3937 40.2601
700 2 38.2968 4.91119 3.78357
701 2 53.4914 27.6293 5.67942
702 2 36.039 28.8479 27.1503
703 2 48.9802 46.0565 44.5427
704 2 54.2945 12.7391 17.619
705 2 2.46707 36.8287 7.56374
706 2 2.17312 40.4656 44.335
707 2 47.6533 17.1103 18.7553
708 2 43.2808 54.5478 0.773641
709 2 44.2356 30.42 42.3024
710 2 52.9611 48.4818 30.9111
711 1 36.9763 1.89168 46.2569
712 1 13.858 27.4102 50.7895
713 1 1.25859 49.3981 44.0256
714 1 37.5786 30.5805 24.9121
715 1 0.887683 10.9587 44.6716
716 1 2.58371 15.7575 51.2741
717 1 47.2313 0.986166 3.29242
718 1 4.78617 41.9915 55.7202
719 1 41.9959 16.6043 52.5816
720 1 19.1037 16.0543 13.2627
721 1 31.1343 6.64491 5.08762
722 1 31.9048 37.6686 55.2275
723 1 19.3236 14.9342 15.94
724 1 48.4116 37.3528 53.554
725 1 12.8753 45.9643 34.7619
726 1 29.8846 41.2077 41.8192
727 1 32.3638 55.2393 19.4546
728 1 28.0376 0.75867 55.3276
729 1 39.5411 55.7626 51.9028
730 1 4.93966 6.92511 38.0023
731 1 54.1309 10.8118 20.0498
732 1 13.0798 1.07838 14.7552
733 1 35.9893 53.1152 55.1938
734 1 37.1111 43.4437 17.9129
735 1 39.8947 9.94258 1.32346
736 1 51.7966 19.0395 50.7275
737 1 31.0308 41.8986 27.5105
738 1 0.384181 11.8613 6.8507
739 1 21.7009 16.9934 2.93776
740 1 40.5881 35.4243 49.4068
741 1 53.7809 9.20975 32.6943
742 1 19.2106 40.2666 6.09685
743 1 44.8833 29.1748 27.151
744 1 33.324 55.5905 40.4265
745 1 44.9282 12.2483 13.0889
746 1 20.5343 18.0502 21.0247
747 1 0.366799 3.10088 36.1696
748 1 46.2028 55.002 1.77807
749 1 17.335 13.1771 42.5785
750 1 23.4826 18.9987 2.09056
751 1 18.8845 32.9052 33.9718
752 1 14.9094 48.0184 38.6686
753 1 20.0758 9.73691 43.4999
754 1 36.1712 53.9047 27.2665
755 1 29.0393 17.8731 18.0752
756 1 31.6179 49.4594 53.8634
757 1 7.4597 23.6422 28.0834
758 1 54.6411 27.3285 20.3211
759 1 44.9287 7.22154 18.6593
760 1 19.2471 32.6548 54.6925
761 1 48.5672 15.1877 46.5981
762 1 30.5824 52.7006 12.2388
763 1 24.2884 18.1098 8.67979
764 1 18.235 13.0386 21.2321
765 1 42.5161 20.089 40.1383
766 1 19.512 35.8327 3.05696
767 1 4.69042 51.8567 28.3857
768 1 25.7557 22.2328 35.2192
769 1 18.2074 48.6377 54.6227
770 1 18.9251 3.55367 4.80141
771 1 11.5445 38.3912 44.1598
772 1 29.2987 13.278 52.6951
773 1 10.5158 16.5793 45.8805
774 1 33.3964 2.44501 27.6143
775 1 46.6792 41.809 29.932
776 1 25.2457 55.8912 22.2044
777 1 46.0709 47.7551 25.5599
778 1 22.1033 33.5925 47.8345
779 1 40.8814 27.0636 44.8389
780 1 30.862 47.1572 40.6835
781 1 20.1509 37.9461 25.1223
782 1 4.39071 19.1966 15.6215
783 1 50.3262 0.83783 36.9336
784 1 44.453 27.7665 24.2403
785 1 27.3692 25.9935 48.1364
786 1 15.318 7.52257 42.0177
787 1 4.83936 30.826 54.1652
788 1 2.24293 10.6182 37.1476
789 1 15.362 46.1019 28.1857
790 1 51.7609 29.8092 43.8076
791 1 36.7557 18.5313 24.5944
792 1 26.0603 55.2075 19.5298
793 1 2.86183 50.5093 22.2133
794 1 30.2487 25.5883 28.0624
795 1 55.9048 21.0485 36.747
796 1 44.7367 12.9877 4.14537
797 1 18.6658 11.2872 13.7777
798 1 42.6968 29.1611 54.5601
799 1 16.3047 35.596 12.2353
800 1 17.1342 30.7736 55.097
801 1 48.8118 48.1762 11.031
802 1 21.0356 15.3823 36.8377
803 1 40.0548 45.372 39.9278
804 1 51.9858 36.7251 9.41863
805 1 38.6824 44.858 32.3696
806 1 13.3479 15.0967 37.2852
807 1 55.3286 15.9518 34.6672
808 1 49.2001 8.04387 38.6809
809 1 10.3303 12.4142 1.65506
810 1 7.98269 40.7307 32.279
811 1 33.3686 22.315 48.1545
812 1 53.3064 16.0207 44.7196
813 1 0.536022 11.3069 2.61243
814 1 45.7856 4.83431 20.2688
815 1 4.47578 9.04567 41.9875
816 1 49.914 4.84244 35.2624
817 1 44.3642 43.6098 29.1703
818 1 54.8775 48.2007 55.6233
819 1 18.1722 37.1321 43.1271
820 1 52.9323 28.1117 38.2164
821 1 32.3265 29.6561 38.9258
822 1 0.664826 4.17502 29.1224
823 1 53.8407 46.3773 37.9182
824 1 54.5408 0.0213765 28.1512
825 1 17.3097 54.071 29.7445
826 1 16.4963 50.2792 3.89831
827 1 20.2541 33.4011 22.7158
828 1 35.6422 23.4024 25.9002
829 1 49.5763 55.9052 29.8051
830 1 51.3298 43.5522 4.27817
831 2 7.0481 40.2491 39.9334
832 2 23.8697 14.3526 3.21748
833 2 20.1708 43.2395 23.3453
834 2 43.3287 27.0062 46.9211
835 2 25.0329 0.0454563 28.0589
836 2 23.7159 14.2719 32.3071
837 2 15.6944 27.095 17.7431
838 2 23.1667 42.2211 47.5085
839 2 28.3876 35.4024 31.4174
840 2 19.7809 16.2058 53.4765
841 2 15.8449 27.0492 26.3981
842 2 47.257 9.37984 45.8354
843 2 42.1458 1.37395 29.6811
844 2 31.2977 15.3213 18.5017
845 2 8.51638 51.7731 16.0123
846 2 41.2046 41.204 48.7326
847 2 48.7322 55.1942 10.6039
848 2 48.0625 44.4168 25.9521
849 2 23.0715 17.4619 34.8364
850 2 22.6485 32.1562 44.4928
851 2 48.1662 0.161279 54.0124
852 2 46.5338 38.8959 20.2835
853 1 36.065 45.9737 9.36303
854 1 30.413 42.3496 46.8294
855 1 47.4891 26.6284 15.1178
856 1 9.0636 25.4281 29.2703
857 1 54.9143 17.2114 40.5303
858 1 14.1454 50.1202 48.8602
859 1 35.2002 24.6566 41.0408
860 1 9.06692 37.358 4.01129
861 1 52.4057 36.0027 29.3794
862 1 54.3436 30.8592 5.60366
863 1 33.0741 11.3771 10.3017
864 1 47.5082 26.4863 49.6527
865 1 14.7629 26.0072 14.4483
866 1 12.2818 33.9334 -0.144818
867 1 50.6405 21.9322 37.1442
868 1 49.3273 1.60243 34.3574
869 1 53.759 26.4286 52.9373
870 1 33.4784 24.3201 20.9491
871 1 10.4781 28.2343 15.0305
872 1 53.3104 37.4148 40.9533
873 1 12.6592 39.2804 32.1132
874 1 54.1396 46.1574 1.38961
875 1 41.7314 29.7058 48.0688
876 1 0.192926 16.6185 31.2799
877 1 -0.103355 27.2972 22.6555
878 1 4.5769 35.7597 20.0942
879 1 10.8665 14.3812 31.2662
880 1 51.7596 11.3135 1.88781
881 1 31.7311 13.4082 47.9025
882 1 44.5776 22.362 52.7795
883 1 26.297 13.953 13.9474
884 1 51.468 54.6 36.4811
885 1 30.2403 23.3066 1.37354
886 1 39.2511 47.6675 2.34942
887 1 6.87021 15.5536 19.7045
888 1 2.71912 30.2254 47.2671
889 1 46.2143 7.75639 34.258
890 1 54.6833 2.98537 6.47329
891 1 53.0077 20.4705 37.9198
892 1 40.4786 54.1007 20.3757
893 1 14.1188 51.3149 33.7863
894 1 9.0646 41.0727 9.56123
895 1 4.10632 49.53 40.4701
896 1 2.53508 40.6131 17.5993
897 1 27.9987 53.0928 10.3148
898 1 41.1919 35.3571 42.571
899 1 16.9547 18.9914 32.1132
900 1 9.35019 27.8174 2.0594
901 1 34.119 37.3341 42.1068
902 1 25.4079 46.125 25.7445
903 1 3.69945 26.6201 8.8702
904 1 35.6696 35.8638 11.7759
905 1 28.2149 30.1539 22.181
906 1 17.4094 36.0913 7.30118
907 1 34.8377 51.1629 14.1576
908 1 1.40696 6.12693 35.0001
909 1 40.2882 3.193 42.5557
910 1 52.404 38.4613 7.18824
911 1 12.9208 8.63063 25.0006
912 1 17.1116 18.4238 36.55
913 1 3.96813 45.1846 5.83532
914 1 53.109 52.032 30.923
915 1 18.6011 21.3272 39.3653
916 1 28.5669 26.4958 40.4129
917 1 35.0683 55.7173 4.61751
918 1 50.5013 34.9055 14.6007
919 1 48.7058 41.0884 38.1122
920 1 11.8 38.5136 38.6392
921 1 31.6658 55.2824 11.4824
922 1 17.5964 41.9936 31.9196
923 1 50.3121 5.37492 38.2105
924 1 0.542487 11.6649 16.6201
925 1 45.4552 55.9333 4.6568
926 1 28.1343 49.7018 51.2386
927 1 52.8886 49.567 43.6664
928 1 42.2936 12.2545 12.7389
929 1 50.0073 33.0529 7.56792
930 1 38.0471 0.671764 19.6912
931 1 16.4805 25.0797 31.4633
932 1 12.3652 48.0548 52.0292
933 1 30.678 6.89648 43.5589
934 1 24.7364 51.5104 54.7371
935 1 5.35172 39.2081 55.2182
936 1 7.57603 32.6003 11.6199
937 1 37.5357 3.61308 43.268
938 1 36.1737 5.61837 40.3833
939 1 5.541 29.3699 15.9945
940 1 7.3888 39.0988 53.2948
941 1 36.3779 6.33354 35.4497
942 1 15.2405 46.4513 45.333
943 1 33.5781 36.7443 34.5363
944 1 9.1795 41.0825 15.9479
945 1 44.8918 20.7714 44.5601
946 1 9.80334 42.612 44.261
947 1 41.4332 30.8673 40.7368
948 1 15.4048 55.7121 44.1185
949 1 49.8248 50.18 15.7403
950 1 39.4114 27.8354 50.6272
951 1 15.0759 43.2739 53.796
952 1 44.3669 0.715544 48.3616
953 1 26.0503 22.6531 51.1599
954 1 10.9384 45.4657 40.5266
955 1 13.176 21.9322 15.3589
956 1 12.3246 20.2278 8.51136
957 1 46.8737 43.7809 50.893
958 1 8.52795 25.2696 36.1723
959 1 31.4392 50.119 35.5067
960 1 53.9439 13.9853 12.4874
961 1 36.9041 41.2917 42.3955
962 1 54.9726 6.28128 18.8077
963 1 7.5074 30.4186 47.2078
964 1 25.4666 14.8045 44.4973
965 1 15.5268 30.6561 35.5044
966 1 24.8212 42.5332 31.2282
967 1 8.1428 8.57399 11.8757
968 1 42.1282 9.59749 53.7431
969 1 32.205 37.2173 50.3209
970 1 31.3335 17.2397 15.772
971 1 47.6273 4.90771 42.4653
972 1 50.5018 7.06081 52.3043
973 2 45.2211 4.18469 25.7088
974 2 46.1505 39.4444 35.1211
975 2 53.4177 38.7943 27.7775
976 2 17.392 30.5776 49.8182
977 2 52.8862 36.2458 16.0934
978 2 52.3349 36.157 19.697
979 2 33.0043 42.3598 40.6404
980 2 55.1683 6.20066 44.7257
981 2 36.5686 11.7754 9.86647
982 2 54.4941 29.6493 49.2283
983 2 12.3475 31.1223 1.14978
984 2 46.3366 22.6758 34.3248
985 2 52.1253 2.36701 13.2208
986 2 7.1065 18.2787 37.8295
987 2 20.302 6.59512 5.17741
988 2 2.48438 26.6333 51.9121
989 2 39.9958 27.7789 32.1992
990 2 53.9729 9.98143 15.0922
991 2 22.9972 21.1658 17.7841
992 2 16.1619 15.8116 54.8477
993 2 1.42779 15.6935 -0.161931
994 2 53.5533 22.7349 35.4852
995 1 54.4383 3.3291 43.7625
996 1 51.0681 25.3303 47.2636
997 1 24.8524 1.8683 48.2379
998 1 3.74458 49.422 26.992
999 1 25.4983 50.9275 52.0175
1000 1 19.4123 8.88859 47.7294
1001 1 30.7995 30.4589 36.4303
1002 1 52.8066 26.2652 8.53244
1003 1 13.8583 28.9123 30.8074
1004 1 6.48983 40.0354 6.84179