ITEM: TIMESTEP
0
ITEM: NUMBER OF ATOMS
9088
ITEM: BOX BOUNDS pp pp pp
-3.8962592817033764e-01 5.6274118554085341e+01
-3.8962592817033764e-01 5.6274118554085341e+01
-3.8962592817033764e-01 5.6274118554085341e+01
ITEM: ATOMS id type x y z
1 1 25.1094 45.9042 51.9892
2 1 44.6553 4.6939 36.3877
3 1 32.1608 13.1845 20.5018
4 1 37.6231 52.041 50.2635
5 1 27.4494 0.28245 -0.187446
6 1 47.3468 54.6738 51.337
7 1 2.03119 14.1832 21.5608
8 1 43.6526 25.9158 45.3201
9 1 34.02 55.7077 49.8491
10 1 36.1787 6.72961 2.31855
11 1 48.6389 35.7944 32.7204
12 1 35.6761 19.5401 36.6905
13 1 17.1473 1.8242 18.7465
14 1 6.19595 8.59332 10.9093
15 1 5.06656 55.8616 25.8988
16 1 27.1809 5.1138 47.5115
17 1 50.0912 9.91711 27.8286
18 1 32.5115 17.7459 19.8461
19 1 36.3841 51.9392 28.7848
20 1 51.8467 2.73421 33.1709
21 1 24.1982 5.08012 36.1908
22 1 51.3836 34.0207 48.0702
23 1 11.0739 41.2615 46.0805
24 1 5.744 49.2617 4.96855
25 1 21.2075 49.7848 46.4355
26 1 3.95051 24.9225 51.916
27 1 49.5535 16.667 32.8447
28 1 2.21049 19.4038 25.5003
29 1 9.0698 51.9745 30.9001
30 1 34.8301 55.5626 13.5355
31 1 29.7734 14.5809 3.46648
32 1 26.2788 49.699 40.311
33 1 20.9607 47.7971 49.5871
34 1 29.5869 24.7757 52.553
35 1 7.8261 9.2506 44.7354
36 1 42.9674 50.7448 43.6025
37 1 28.4306 6.44459 34.1755
38 1 44.4399 4.37128 30.3907
39 1 13.3062 25.7429 9.06272
40 1 8.54134 11.3836 48.0816
41 1 50.3894 40.0224 7.7296
42 1 1.61446 47.8821 25.3407
43 1 21.126 24.4591 13.5857
44 1 50.82 52.5144 23.2155
45 1 16.0379 47.6547 55.6433
46 1 -0.374496 18.3094 10.6672
47 1 52.5669 25.2406 19.9769
48 1 14.8288 51.499 38.6744
49 1 37.8512 3.23484 43.3889
50 1 7.88681 36.4063 31.6815
51 1 50.5386 32.2188 30.4999
52 1 24.5404 4.12233 47.7667
53 1 55.5183 14.5162 54.7143
54 1 49.2813 19.0458 54.9085
55 1 40.0437 45.5778 29.2523
56 1 18.4471 28.2417 21.6117
57 1 6.76841 33.1741 34.3829
58 1 53.2118 13.8399 26.7279
59 1 55.3955 23.4834 25.3066
60 1 50.1981 24.7097 53.8106
61 1 17.7856 48.8083 11.5378
62 1 27.4774 47.7744 3.90583
63 1 9.841 44.6332 22.2517
64 1 22.2244 7.51845 16.3507
65 1 13.0792 22.4498 33.1302
66 1 20.6605 40.6125 1.16518
67 1 16.8868 30.0813 2.95564
68 1 3.62626 34.9761 2.77
69 1 13.4616 50.7711 27.9581
70 1 9.31928 19.3452 6.73322
71 1 2.89637 49.07 16.387
72 1 55.4525 29.8292 1.4498
73 1 43.048 50.109 56.0328
74 1 35.403 41.1418 34.5111
75 1 37.5303 19.4564 4.89947
76 1 42.5575 24.2931 2.97264
77 1 44.0009 46.8796 36.6516
78 1 15.4717 41.9117 44.1411
79 1 46.1617 30.9479 45.0255
80 1 30.5206 53.2347 0.04542
81 1 6.19198 21.7455 53.8235
82 1 54.2663 54.2819 26.2464
83 1 32.3657 36.3767 45.9551
84 1 47.2131 18.5814 42.2584
85 1 37.389 11.7079 39.9937
86 1 26.5214 38.7793 17.2132
87 1 14.0598 19.9546 39.6943
88 1 21.3101 10.3022 5.03355
89 1 3.94389 2.1021 39.371
90 1 12.6993 28.7796 18.1281
91 1 29.6576 52.3665 35.565
92 1 9.82191 12.1045 19.1632
93 1 32.9064 11.034 36.7749
94 1 33.5113 55.5529 40.3355
95 1 40.582 33.2384 20.9826
96 1 2.20082 17.1968 30.5495
97 1 2.43224 7.03807 42.1095
98 1 38.684 31.0274 32.7459
99 1 42.4738 36.8467 5.34523
100 1 1.76298 48.6054 2.1332
101 1 13.3763 48.5435 46.9775
102 1 7.78537 5.60452 7.40449
103 1 42.0232 43.2097 55.8265
104 1 8.82398 50.547 47.4727
105 1 31.3508 14.0803 10.5905
106 1 13.8743 47.0595 42.3309
107 1 19.3557 0.321594 46.2331
108 1 44.9209 9.24194 24.2656
109 1 14.0887 40.1959 17.5856
110 1 31.6575 8.96767 10.4055
111 1 43.0283 15.4813 21.9736
112 1 5.38156 43.5035 9.71057
113 1 30.6205 35.3106 9.65716
114 1 31.4197 46.5028 31.5698
115 1 44.4847 37.4234 35.9915
116 1 13.1764 41.2066 32.7089
117 1 16.9459 4.42741 6.9426
118 1 44.969 0.861666 1.11995
119 1 52.1625 52.3695 15.5808
120 1 18.7831 50.5263 31.4918
121 2 11.7803 38.9782 34.9028
122 2 51.5129 18.7478 12.7931
123 2 55.1286 46.7588 20.5595
124 2 52.4609 30.1005 19.6583
125 2 54.279 36.0011 38.7138
126 2 25.27 7.08235 17.2647
127 2 12.3592 51.7819 16.0337
128 2 7.63358 30.2149 35.2429
129 2 55.1177 17.9538 7.2432
130 2 1.06411 20.949 45.7517
131 2 49.4933 9.55806 47.4013
132 2 39.2294 46.5312 17.8863
133 2 37.9766 44.4631 14.5509
134 2 17.3884 2.06374 9.79936
135 2 42.9718 34.0729 3.28393
136 2 4.23246 0.239467 30.0966
137 2 41.097 24.4202 46.4262
138 2 4.63128 5.02188 49.2812
139 2 31.1128 15.0157 13.4396
140 2 45.3928 27.1851 38.6436
141 2 8.86398 38.0299 22.5499
142 2 28.8536 23.1532 40.2354
143 1 53.5224 14.1026 33.8842
144 1 32.3649 21.4384 17.1108
145 1 17.7169 54.4104 13.9474
146 1 50.3758 23.8095 3.29586
147 1 4.77794 1.37418 34.5148
148 1 9.57257 20.6517 35.8216
149 1 51.9105 7.05388 3.88446
150 1 24.7411 25.7585 9.19693
151 1 2.41588 35.5197 53.8083
152 1 5.59497 27.5197 44.0868
153 1 50.2885 48.7674 29.225
154 1 43.2493 41.7519 30.7685
155 1 28.4325 12.7279 11.6461
156 1 8.00345 40.5133 13.2992
157 1 24.4889 35.094 46.4831
158 1 27.6143 25.5504 49.5781
159 1 25.9778 4.83546 22.131
160 1 37.0702 20.5524 45.0312
161 1 11.948 18.6704 5.31154
162 1 12.823 13.2838 43.9534
163 1 21.2806 35.7126 36.9156
164 1 56.138 38.4251 11.6149
165 1 51.9159 37.4287 3.94341
166 1 44.4239 39.7464 15.5207
167 1 41.3831 28.9549 42.7981
168 1 39.7201 30.6374 7.1109
169 1 31.0378 41.6418 43.6467
170 1 37.056 39.5667 30.0707
171 1 25.4795 39.269 28.6871
172 1 4.96139 54.9709 39.1649
173 1 5.29071 35.3614 8.28522
174 1 15.989 6.86022 53.8798
175 1 20.7207 28.7464 14.4564
176 1 39.5649 36.9777 6.42745
177 1 9.56499 5.12251 24.9995
178 1 27.0142 10.2564 38.8505
179 1 11.0368 9.5064 41.5709
180 1 39.6499 29.2859 1.93163
181 1 33.341 54.7871 37.9251
182 1 49.1841 12.2488 51.5447
183 1 51.8641 11.1561 50.4643
184 1 15.2011 51.0068 50.9993
185 1 11.0895 15.8203 34.5421
186 1 41.2783 14.6781 16.5542
187 1 1.28077 7.05256 53.4787
188 1 28.5938 39.228 2.2107
189 1 30.4999 28.1756 26.4096
190 1 24.7068 51.4751 29.7756
191 1 26.7751 42.2641 22.5694
192 1 46.608 9.95732 8.77698
193 1 37.2204 24.127 14.7102
194 1 36.5902 3.74369 31.071
195 1 16.4873 20.564 41.7715
196 1 34.7853 27.355 34.1414
197 1 6.70417 9.44987 49.3252
198 1 7.93279 35.1847 38.6058
199 1 10.6464 39.5274 56.0355
200 1 23.6054 17.6048 49.9872
201 1 41.0974 24.4048 30.9605
202 1 37.919 23.2649 48.1419
203 1 27.429 29.8745 3.77355
204 1 48.4423 16.0415 55.0864
205 1 11.8002 14.2678 46.4182
206 1 34.3737 40.7618 24.2138
207 1 47.9458 9.9479 40.2703
208 1 29.7693 0.142234 15.3556
209 1 42.9468 1.03596 37.6441
210 1 25.0549 23.1876 36.6303
211 1 5.97131 55.0235 15.5562
212 1 4.95902 52.9005 24.1524
213 1 22.2086 11.8415 51.3619
214 1 0.305084 37.6092 2.34662
215 1 1.17543 39.6143 24.0235
216 1 54.6673 24.3865 48.7169
217 1 18.3337 19.1496 22.34
218 1 1.08593 9.77294 54.5134
219 1 41.1455 5.86313 15.8275
220 1 9.17079 10.308 34.694
221 1 31.2229 6.87378 26.9073
222 1 48.4533 11.6256 22.0426
223 1 10.6978 36.19 54.4689
224 1 17.8009 27.9013 54.8727
225 1 42.9976 44.862 39.9473
226 1 19.9416 11.5825 6.73525
227 1 26.9793 48.8247 35.3377
228 1 18.8134 32.0769 51.4279
229 1 49.1808 3.63114 37.444
230 1 35.0976 29.768 38.9331
231 1 0.0481592 15.8183 22.783
232 1 34.4369 10.2237 17.4183
233 1 37.1444 43.7371 22.4717
234 1 9.0835 37.9654 3.90662
235 1 0.483309 55.7955 48.547
236 1 11.6033 51.8252 12.4538
237 1 4.89315 35.7646 19.973
238 1 16.6024 5.41141 0.597795
239 1 34.0042 28.4704 5.78111
240 1 25.3094 37.2596 3.28318
241 1 20.2211 49.6813 10.6554
242 1 46.9258 17.8186 36.2821
243 1 7.21529 27.9151 11.5964
244 1 17.5 5.26506 9.54341
245 1 1.58975 27.994 19.8131
246 1 17.2324 7.05627 13.8016
247 1 38.9733 13.1681 23.2039
248 1 44.3016 0.311734 45.6373
249 1 11.8047 27.1259 53.5357
250 1 23.457 24.5818 17.2439
251 1 30.926 53.27 11.5913
252 1 28.5923 31.9824 55.0898
253 1 2.49714 27.0492 48.0029
254 1 19.467 41.1513 54.3976
255 1 26.1428 18.22 24.2364
256 1 26.7927 5.93276 36.0917
257 1 1.09697 12.3097 34.7795
258 1 35.2082 16.5638 23.2641
259 1 5.34211 50.4275 16.6247
260 1 24.8637 41.0229 54.4571
261 1 16.9274 38.8285 31.7544
262 1 51.4465 11.0208 14.2847
263 2 44.0689 24.4118 28.8929
264 2 21.4414 49.2699 54.9154
265 2 46.6246 9.99737 52.3586
266 2 6.96251 24.6086 38.3837
267 2 14.837 21.8996 0.978051
268 2 3.93455 3.9487 24.1263
269 2 14.975 2.77087 16.5017
270 2 44.7227 43.5824 53.5624
271 2 54.0347 45.0668 26.1642
272 2 33.6529 40.8767 13.5762
273 2 33.564 5.88042 34.599
274 2 53.3694 27.3282 30.2308
275 2 27.3399 6.76022 53.1632
276 2 56.0065 13.8686 4.20627
277 2 0.651241 43.0179 39.4812
278 2 10.019 36.0642 18.5703
279 2 44.1166 51.986 46.6406
280 2 19.3681 55.8609 22.331
281 2 41.3292 17.2492 14.3145
282 2 11.2109 27.0309 5.35782
283 2 46.8337 47.9388 28.781
284 2 17.1484 26.8672 33.6694
285 1 8.95007 44.0512 46.849
286 1 42.4073 6.89025 13.9971
287 1 28.6936 6.84773 50.356
288 1 39.5004 47.665 38.2557
289 1 25.3209 18.7709 11.1633
290 1 47.8763 0.608894 18.0806
291 1 23.8062 53.6386 28.3167
292 1 33.8496 1.61544 51.8169
293 1 53.8654 25.1369 0.954541
294 1 4.71622 25.5445 32.8605
295 1 46.7352 25.1836 27.0241
296 1 39.4012 31.6432 14.069
297 1 19.9788 0.629969 36.9851
298 1 33.0257 23.561 12.5172
299 1 0.64746 15.4438 17.1935
300 1 22.0696 34.5315 52.8171
301 1 37.647 50.0378 23.9241
302 1 49.4867 42.4619 23.9332
303 1 49.7168 35.0553 43.6148
304 1 8.27522 52.8654 52.2474
305 1 45.9196 31.7314 48.5293
306 1 31.4467 49.5276 53.8679
307 1 4.93952 40.3827 31.9613
308 1 39.6025 3.66841 0.85301
309 1 49.7313 30.633 28.4254
310 1 -0.0831039 49.0384 4.32864
311 1 37.8928 35.1919 5.34914
312 1 9.88636 7.99773 25.4204
313 1 45.8667 2.27709 22.2443
314 1 19.8242 48.0668 52.1847
315 1 12.1407 49.6161 13.9676
316 1 34.3393 13.8863 53.5055
317 1 45.3194 2.92828 15.6854
318 1 5.36619 23.3795 11.1916
319 1 44.3619 50.185 6.95072
320 1 34.5053 10.1156 28.427
321 1 29.551 40.8933 30.8493
322 1 55.3224 20.872 25.443
323 1 23.7344 53.0516 4.42581
324 1 22.4376 17.6816 32.1157
325 1 21.6351 46.501 42.6916
326 1 12.1675 55.0668 22.1047
327 1 51.1083 0.214642 14.7156
328 1 -0.156161 8.20066 36.2871
329 1 3.5289 26.8797 42.1427
330 1 19.6086 24.4864 37.3492
331 1 36.041 38.9491 22.7926
332 1 9.83381 23.7847 6.37982
333 1 4.42321 48.8114 52.7591
334 1 21.1169 44.3064 15.9332
335 1 46.4089 11.5553 37.6379
336 1 47.2869 21.4334 12.1952
337 1 0.730039 33.8841 7.34253
338 1 36.3597 5.97144 29.5204
339 1 17.1875 39.2393 14.3952
340 1 25.2696 23.6646 25.6728
341 1 31.1002 47.7138 40.6998
342 1 55.3487 21.7434 22.6008
343 1 19.5654 51.9671 14.9972
344 1 33.188 15.8334 11.2998
345 1 49.1318 16.5707 3.76442
346 1 48.3139 50.3369 13.218
347 1 19.7139 18.1752 10.8402
348 1 29.652 16.9238 39.5359
349 1 5.98378 39.2582 11.5436
350 1 21.6488 29.5857 3.55507
351 1 44.4436 37.3385 2.81614
352 1 6.23027 45.907 19.9021
353 1 48.9456 39.3195 46.4171
354 1 55.4671 16.2128 34.1172
355 1 38.9624 20.5709 49.6884
356 1 9.48395 40.0686 42.241
357 1 55.581 54.3633 23.7282
358 1 31.0972 29.026 47.1629
359 1 32.4521 50.7735 48.5447
360 1 25.634 28.8413 25.7383
361 1 28.6952 47.1093 30.8426
362 1 52.6509 38.7596 37.8224
363 1 42.606 19.0784 16.6535
364 1 32.9395 24.337 49.6425
365 1 27.0545 20.146 28.648
366 1 14.2148 49.1004 22.6082
367 1 6.18479 55.7773 20.1409
368 1 33.3472 31.6377 33.8601
369 1 45.4165 19.4241 7.0508
370 1 22.3674 55.4593 36.3164
371 1 29.9758 2.05697 13.3263
372 1 11.0194 34.5863 7.91161
373 1 10.5634 35.37 50.1891
374 1 29.2481 44.3583 48.8342
375 1 46.9085 29.3842 47.1974
376 1 33.892 0.448365 16.0291
377 1 37.0567 32.3635 52.2896
378 1 22.2005 19.5788 30.1922
379 1 41.833 43.153 21.3493
380 1 20.197 29.1024 29.5242
381 1 12.046 4.32979 47.3655
382 1 49.8061 17.3919 46.7933
383 1 42.8169 21.7788 38.1769
384 1 0.798316 13.2722 37.5209
385 1 29.5828 9.22178 19.4643
386 1 21.7911 14.2079 28.6915
387 1 52.0675 55.5624 19.0628
388 1 44.4902 54.8413 26.6424
389 1 29.8645 7.92843 15.5791
390 1 45.5807 49.0676 31.492
391 1 45.6484 11.7264 44.5346
392 1 49.9628 52.6129 36.3759
393 1 11.6117 26.5609 49.1911
394 1 11.8517 21.2829 1.13576
395 1 45.3404 9.3393 44.1818
396 1 54.6552 48.769 27.8426
397 1 51.0312 49.0245 26.0244
398 1 4.19836 27.8917 11.1178
399 1 6.55854 54.4062 41.7154
400 1 24.2673 15.2966 32.1374
401 1 31.9454 2.72369 50.5602
402 1 31.763 48.3191 43.422
403 1 30.0622 52.587 41.4418
404 1 32.2503 43.4017 49.5577
405 2 19.8101 8.61615 14.3862
406 2 35.923 31.0198 7.30599
407 2 34.3172 13.0933 12.6053
408 2 24.57 50.2393 12.3926
409 2 45.4542 -0.148534 16.2126
410 2 29.869 51.8739 14.0533
411 2 5.72401 42.0063 16.5371
412 2 53.758 9.00733 35.4509
413 2 31.1871 21.6445 45.6735
414 2 12.3397 35.4198 47.5914
415 2 55.6484 51.4629 8.7628
416 2 52.0088 43.3283 55.1404
417 2 44.6377 5.19099 9.91836
418 2 7.39265 36.0254 10.8844
419 2 15.4377 54.6536 22.6269
420 2 23.9641 23.2084 23.0869
421 2 42.4097 49.9514 9.16611
422 2 31.9321 16.1156 7.88201
423 2 7.55446 0.560833 43.0793
424 2 52.1798 10.202 4.994
425 2 48.3633 52.3142 38.8228
426 2 37.3711 8.46506 38.1858
427 1 26.9662 28.6568 48.8541
428 1 8.60102 55.3402 9.69027
429 1 28.7734 6.48409 56.1451
430 1 12.1463 7.47235 17.7216
431 1 34.44 21.2825 45.1561
432 1 37.1298 16.8319 44.0571
433 1 37.1094 21.5382 28.2588
434 1 3.08432 41.5134 25.0482
435 1 16.963 54.8791 6.02918
436 1 32.2435 45.2073 56.0157
437 1 23.694 7.7099 44.8853
438 1 37.5677 32.2342 30.6016
439 1 1.20892 38.5125 54.449
440 1 22.6419 16.8864 20.5477
441 1 23.8068 18.0588 13.2353
442 1 40.9829 34.6797 5.81404
443 1 14.0097 42.8945 13.2858
444 1 52.5531 50.7614 33.0265
445 1 11.7727 12.1086 28.5893
446 1 47.9467 13.2665 43.593
447 1 23.2061 52.6122 11.0728
448 1 50.6472 24.3655 49.4176
449 1 55.0462 7.018 25.8591
450 1 0.900141 25.9585 42.8214
451 1 40.4091 2.32742 54.9683
452 1 46.3171 8.21886 14.1994
453 1 12.7826 43.7342 55.5472
454 1 10.8383 7.48617 12.1534
455 1 5.38168 4.49235 37.3631
456 1 35.2974 45.9956 36.1795
457 1 55.3197 38.5785 16.0954
458 1 24.0776 10.2844 34.3669
459 1 2.78249 34.7169 9.52205
460 1 8.95993 13.4597 23.4427
461 1 19.4842 5.28362 3.16923
462 1 48.8348 27.7982 9.31429
463 1 7.47316 14.6472 15.5848
464 1 36.3228 53.2337 13.8871
465 1 11.6294 48.8997 27.4595
466 1 8.61045 54.3598 29.8638
467 1 50.7629 54.0005 1.21541
468 1 0.604274 10.9978 44.4255
469 1 24.5442 7.45057 35.3977
470 1 9.13239 12.3994 28.9932
471 1 10.0867 -0.210847 7.12587
472 1 11.5752 50.5992 47.7836
473 1 50.0991 41.6438 45.3361
474 1 55.236 22.8034 20.1851
475 1 23.4727 24.9329 20.2033
476 1 0.470469 39.6103 47.0509
477 1 46.225 5.53412 44.4067
478 1 37.311 19.5937 41.998
479 1 55.6525 25.7745 35.0407
480 1 29.8424 51.9214 52.1344
481 1 15.9332 53.5893 37.513
482 1 31.7634 41.4921 34.8987
483 1 46.5444 19.5256 34.0926
484 1 10.1742 23.1669 34.3581
485 1 6.22482 39.9667 21.5597
486 1 12.5265 43.4391 50.1323
487 1 35.8586 31.8314 32.3808
488 1 11.7109 20.4271 26.6628
489 1 10.8588 34.4324 15.5758
490 1 31.5112 9.4128 47.3868
491 1 27.0617 27.8915 18.5656
492 1 26.3763 11.5831 34.1902
493 1 9.12935 46.871 36.5481
494 1 17.479 35.8856 4.41169
495 1 12.8968 20.7906 52.2614
496 1 39.4914 17.8228 37.162
497 1 29.8853 34.5715 36.4537
498 1 0.10097 16.5219 19.9049
499 1 10.2344 12.3528 7.31647
500 1 50.3093 13.0226 35.1381
501 1 53.5692 12.3483 40.5668
502 1 6.06248 0.997902 9.47878
503 1 48.2484 19.2765 16.4711
504 1 40.3188 6.64121 5.4449
505 1 34.1525 31.3932 0.197284
506 1 19.0061 26.6348 49.6898
507 1 55.5717 50.2625 39.9203
508 1 5.25531 1.25373 12.2885
509 1 53.5769 29.5092 8.26387
510 1 25.8108 51.781 5.67573
511 1 31.4227 0.816052 1.32076
512 1 11.6488 3.8894 0.947006
513 1 30.8456 10.5858 34.9088
514 1 33.2755 24.2136 17.6069
515 1 32.3931 11.4045 39.4465
516 1 4.9596 40.5903 36.7758
517 1 7.85548 3.70819 32.6663
518 1 29.2133 17.7306 12.9307
519 1 9.68049 5.83527 48.1889
520 1 35.9855 17.5844 4.31668
521 1 10.0286 52.4032 49.0566
522 1 11.8683 25.0621 51.5417
523 1 48.4885 55.6602 15.7915
524 1 40.4375 51.9446 32.2666
525 1 31.0558 43.2817 24.6714
526 1 10.93 20.8513 32.9173
527 1 40.839 32.9337 10.7364
528 1 41.1718 54.2926 20.1906
529 1 18.7159 40.0488 33.8381
530 1 46.5107 38.0318 31.7842
531 1 43.1876 3.73059 38.8224
532 1 32.7178 46.0604 19.1159
533 1 35.2021 48.7432 0.484674
534 1 0.13048 12.8104 19.4833
535 1 33.9387 48.4441 49.645
536 1 39.266 28.9798 20.532
537 1 13.2211 14.9995 37.1225
538 1 14.8082 24.5721 45.1299
539 1 25.666 16.2519 12.6769
540 1 38.1872 18.6413 31.9688
541 1 31.8977 45.1889 9.35204
542 1 34.9122 38.2296 18.062
543 1 38.447 45.1007 35.1479
544 1 31.7498 35.0168 14.8706
545 1 50.5749 27.616 4.98621
546 1 27.1751 40.2013 26.9467
547 2 12.7764 42.9111 26.2362
548 2 11.5889 52.6869 2.29772
549 2 36.9756 54.6833 21.2943
550 2 0.877818 50.3893 13.8305
551 2 48.543 5.74542 19.5037
552 2 7.85493 5.69536 35.3684
553 2 36.3734 7.87057 16.1707
554 2 23.1341 5.70854 53.1618
555 2 14.7928 13.3927 21.3843
556 2 12.0763 41.7766 43.1363
557 2 13.4987 6.10818 33.901
558 2 17.0052 33.156 2.88092
559 2 40.0494 17.1762 20.8716
560 2 4.7894 16.1959 29.1383
561 2 38.8855 12.6828 50.8132
562 2 3.66118 19.3729 28.2902
563 2 30.0868 47.4894 34.5909
564 2 16.7005 5.2133 39.9977
565 2 19.9754 22.0758 34.97
566 2 31.1299 14.0906 39.2194
567 2 44.7056 38.8776 -0.0758506
568 2 43.6175 18.0702 19.9819
569 1 21.4428 3.37466 23.7749
570 1 1.88349 52.4109 27.4656
571 1 11.7684 47.7342 49.1527
572 1 22.6254 40.2845 7.88647
573 1 20.9267 34.5451 27.3755
574 1 0.912818 6.5575 8.82116
575 1 52.3002 17.5849 45.8082
576 1 34.2316 37.2405 41.3444
577 1 -0.190942 9.17308 20.3832
578 1 54.2195 37.8819 43.35
579 1 25.5461 42.9165 -0.255229
580 1 4.9786 13.7587 5.66603
581 1 32.7862 51.5274 12.5231
582 1 29.4739 14.7992 29.947
583 1 31.4525 51.9548 33.2088
584 1 27.4252 13.9174 48.789
585 1 28.6439 2.32799 26.2134
586 1 55.5716 0.588355 30.9629
587 1 11.4732 9.89872 15.7725
588 1 37.1557 0.995099 30.2518
589 1 43.7142 27.888 7.22719
590 1 7.19661 19.4959 4.92333
591 1 25.4085 14.9408 44.0562
592 1 52.7973 33.4811 6.41979
593 1 24.7776 34.22 30.7915
594 1 0.0864645 44.3875 42.2807
595 1 48.1928 21.427 39.2036
596 1 3.86305 1.08625 27.1181
597 1 27.8989 26.1314 54.3237
598 1 48.422 16.4305 25.1921
599 1 5.06129 4.2032 16.1975
600 1 7.54184 45.6132 49.2839
601 1 2.9896 56.1355 54.3824
602 1 2.99256 42.6713 15.3374
603 1 15.4406 44.8601 55.9006
604 1 31.5266 19.0075 17.5381
605 1 26.1489 43.6272 7.28403
606 1 31.7027 44.9421 39.3659
607 1 26.8686 3.82977 27.4159
608 1 44.5196 41.3121 1.93841
609 1 34.118 30.6355 12.7212
610 1 54.9032 3.57174 52.975
611 1 29.4969 27.9515 17.9293
612 1 17.988 47.1183 45.6083
613 1 0.419098 44.9009 8.79485
614 1 53.9466 33.5526 10.5853
615 1 4.47732 42.3088 43.8048
616 1 50.8303 21.3521 29.8074
617 1 16.123 11.3366 51.7492
618 1 16.4266 7.21191 7.99551
619 1 39.7416 30.2201 53.3486
620 1 33.0461 30.4992 22.6002
621 1 9.91832 6.91016 30.1397
622 1 9.81584 28.1901 40.3296
623 1 51.5651 15.1013 43.9899
624 1 53.1133 3.34476 41.2333
625 1 37.5212 3.92995 25.087
626 1 44.9728 30.8183 12.1469
627 1 38.4629 39.8735 10.9296
628 1 22.1284 6.49829 24.1109
629 1 53.4129 9.43189 46.0601
630 1 30.6558 29.6685 31.8036
631 1 43.1455 33.8499 12.3077
632 1 22.5274 16.236 54.1888
633 1 53.7543 9.78791 32.519
634 1 44.7804 8.16595 7.9117
635 1 35.0801 27.4599 52.0118
636 1 42.1968 12.312 12.0155
637 1 46.9133 16.4807 33.6356
638 1 11.3094 21.2359 5.80911
639 1 26.6321 3.16902 2.61967
640 1 47.8868 12.4233 10.5462
641 1 21.0435 29.5108 26.3091
642 1 52.6671 21.7846 12.8059
643 1 14.5197 11.2084 28.418
644 1 11.8476 9.41981 1.06266
645 1 53.3348 12.1892 36.1596
646 1 26.7633 48.4544 23.9738
647 1 2.57099 41.7072 1.38924
648 1 24.4236 27.2138 0.875507
649 1 32.5223 37.0253 20.3308
650 1 10.2043 10.0093 8.59573
651 1 39.3578 22.5252 15.3899
652 1 4.1433 39.4619 0.631138
653 1 42.383 29.2564 54.3759
654 1 5.22731 5.8146 55.5813
655 1 40.7179 1.16252 23.8976
656 1 36.8138 52.3089 39.997
657 1 47.646 24.5182 -0.356853
658 1 24.9154 8.20572 54.7404
659 1 43.144 48.0595 32.017
660 1 3.07664 52.3198 22.2294
661 1 46.3722 36.4676 12.5668
662 1 46.0715 47.8436 25.5664
663 1 18.3916 41.8449 8.5956
664 1 53.8989 41.1581 54.1749
665 1 28.7051 5.30127 4.54674
666 1 17.0187 54.1027 27.4822
667 1 0.239321 30.8045 32.9224
668 1 52.8379 8.28436 23.3906
669 1 52.9131 27.5446 21.507
670 1 42.1486 35.147 15.4228
671 1 38.0305 5.84308 26.9346
672 1 14.1473 26.7124 6.82656
673 1 12.9986 14.998 41.769
674 1 5.78975 40.5509 5.57064
675 1 54.7227 43.6674 53.4147
676 1 0.444875 23.2632 43.43
677 1 49.6251 35.276 54.9908
678 1 18.7779 53.207 20.7294
679 1 50.124 54.3969 52.725
680 1 28.2644 32.4013 45.6083
681 1 1.23878 49.4794 44.0661
682 1 8.34117 4.47202 42.123
683 1 22.9036 34.0384 38.5525
684 1 52.7722 20.5177 44.5559
685 1 20.57 34.0076 29.8741
686 1 38.5426 3.11771 17.7555
687 1 45.2912 53.9227 29.9308
688 1 19.2062 51.6682 34.3737
689 2 21.8703 50.0691 24.1348
690 2 30.3174 50.4212 10.3366
691 2 34.0658 26.9248 39.9097
692 2 14.0367 35.1594 54.3787
693 2 45.1524 48.4423 22.2516
694 2 10.4149 54.501 53.9773
695 2 17.4692 15.3007 45.1126
696 2 20.853 33.5161 8.32756
697 2 1.13593 18.0415 36.3111
698 2 17.4326 19.6946 6.33776
699 2 44.7516 11.2839 39.7343
700 2 37.9772 4.61432 3.21633
701 2 53.6018 27.852 5.3688
702 2 32.4709 26.7752 31.7453
703 2 48.9793 46.2218 44.4409
704 2 55.267 13.2404 16.6807
705 2 1.95091 36.8276 7.68
706 2 2.04452 40.6127 44.4411
707 2 49.2107 18.0111 21.2918
708 2 43.3598 54.9612 0.150918
709 2 44.3371 30.3727 42.1537
710 2 53.5616 49.2071 30.5801
711 1 44.1194 1.87868 51.3848
712 1 40.7322 11.4597 24.4151
713 1 8.26671 47.5588 44.028
714 1 20.1592 16.4341 33.2441
715 1 19.2621 11.5979 41.6498
716 1 2.56072 16.0336 51.1275
717 1 43.9543 10.4735 9.74942
718 1 2.86195 45.6273 49.7034
719 1 49.1405 37.2058 51.1608
720 1 19.0106 16.1766 12.8307
721 1 30.981 6.55159 4.94902
722 1 21.729 41.8259 53.3969
723 1 19.0101 15.2142 15.4174
724 1 40.8355 39.5407 51.5258
725 1 17.8941 1.8585 33.0294
726 1 28.2956 16.8427 25.7601
727 1 33.3865 43.2362 39.8727
728 1 25.3419 1.71015 0.57411
729 1 7.89787 22.6456 52.2033
730 1 9.26152 2.80642 17.1838
731 1 37.2675 43.5748 17.5382
732 1 5.91066 13.9388 54.7802
733 1 28.2995 31.526 41.4595
734 1 39.7881 16.7264 32.4221
735 1 49.1042 49.2691 37.1097
736 1 30.6441 1.23774 20.1773
737 1 1.56979 18.6625 7.02485
738 1 12.9956 7.16651 3.90661
739 1 -0.212876 41.2984 53.8352
740 1 47.9168 16.2774 38.156
741 1 49.0561 19.3714 40.6669
742 1 10.6911 8.07168 44.4711
743 1 35.6157 43.5317 12.9528
744 1 28.5498 41.4703 48.3611
745 1 45.1523 -0.28065 10.9698
746 1 17.4237 13.1234 30.207
747 1 0.438195 5.63898 37.3161
748 1 45.8831 0.296306 19.7572
749 1 17.2279 13.1136 42.3431
750 1 -0.384679 1.62351 20.9975
751 1 29.8002 4.58414 51.6006
752 1 1.61666 16.3288 24.7187
753 1 15.8255 3.15852 37.4769
754 1 21.11 7.40185 1.34132
755 1 8.4241 17.1719 29.1058
756 1 10.5015 51.0434 52.2314
757 1 8.90382 3.18807 52.2216
758 1 53.3792 27.3144 18.3199
759 1 39.8968 35.6895 24.7716
760 1 11.3467 41.7929 8.43546
761 1 4.57642 55.8928 17.8977
762 1 39.2665 4.93431 10.4049
763 1 21.352 16.4878 9.21301
764 1 23.9065 42.8775 45.2349
765 1 35.8407 32.3243 38.2171
766 1 5.53309 53.7909 52.8296
767 1 49.1897 22.3049 46.038
768 1 10.6589 9.21521 36.7343
769 1 18.2075 48.9974 54.701
770 1 45.9318 16.964 26.4895
771 1 15.5654 31.1368 0.937035
772 1 25.3867 22.2562 3.33198
773 1 10.6139 15.6462 48.6436
774 1 41.2585 -0.146591 43.7178
775 1 51.7923 8.3176 33.4798
776 1 21.2165 4.12623 26.6675
777 1 15.787 2.39415 30.7786
778 1 39.5713 40.9391 43.5414
779 1 54.2532 13.6568 47.8288
780 1 12.4039 34.7345 1.99217
781 1 31.9171 35.5548 24.9321
782 1 25.8669 23.3271 44.8075
783 1 0.514555 3.3241 36.0508
784 1 32.3327 22.7742 24.8628
785 1 40.2437 8.24503 48.8006
786 1 15.7381 7.08993 31.5828
787 1 15.9032 27.2512 50.236
788 1 2.06262 10.4949 36.6454
789 1 15.5074 36.1655 43.576
790 1 50.8896 25.668 51.5172
791 1 49.3017 24.7692 15.39
792 1 37.487 45.3637 19.9364
793 1 21.4592 0.152709 17.189
794 1 19.0729 34.8788 52.7245
795 1 23.0501 38.6615 23.9909
796 1 17.7189 12.2313 8.31026
797 1 18.558 11.6011 13.6474
798 1 30.8256 18.2808 48.9925
799 1 15.0987 19.4924 47.1239
800 1 8.16178 21.2071 33.3248
801 1 49.2705 48.682 10.7811
802 1 25.3322 33.0412 24.2715
803 1 39.4315 44.2739 46.6272
804 1 53.3901 39.5835 2.25295
805 1 33.5206 43.6038 28.1405
806 1 4.08053 23.9966 3.24487
807 1 53.6256 12.6906 54.4028
808 1 36.9747 50.6687 55.8785
809 1 45.1769 45.4919 26.9816
810 1 7.5479 41.1209 31.6671
811 1 39.2353 10.5392 45.3263
812 1 37.6871 54.8215 -0.0720905
813 1 42.2603 30.9456 17.9255
814 1 30.6563 20.6773 14.8123
815 1 4.33531 8.90544 41.4572
816 1 5.75352 24.8165 35.1608
817 1 -0.187619 49.0907 29.6894
818 1 46.1925 45.442 37.7451
819 1 27.2717 51.5322 30.0175
820 1 44.2811 8.64327 16.1678
821 1 22.5259 3.39776 33.7655
822 1 0.793721 4.41493 28.8101
823 1 11.5426 45.2495 24.3824
824 1 2.81377 37.1032 29.7593
825 1 30.8884 7.75391 34.6023
826 1 8.50679 9.89007 54.3195
827 1 32.4689 53.9742 47.7586
828 1 28.9124 55.3956 32.0832
829 1 49.7126 -0.182723 29.4181
830 1 51.1973 43.5917 3.57219
831 2 7.05938 40.3256 39.7136
832 2 21.8316 15.4123 2.6033
833 2 20.5623 43.8908 23.951
834 2 43.2007 29.2044 45.7552
835 2 27.9649 -0.110819 27.6402
836 2 19.1456 17.884 30.6033
837 2 15.331 27.4339 17.4279
838 2 22.9975 43.0255 48.2893
839 2 30.1773 39.6207 28.0338
840 2 19.6697 15.9934 53.329
841 2 15.9227 27.4365 26.1498
842 2 44.298 7.67777 46.6236
843 2 42.3743 1.33126 29.5861
844 2 30.9001 15.4547 18.2973
845 2 8.11263 52.109 16.2914
846 2 41.3071 41.5546 48.6553
847 2 48.6559 55.49 10.2044
848 2 47.9058 44.5825 26.0259
849 2 24.9087 19.9243 32.8414
850 2 22.9645 33.0597 44.332
851 2 48.1366 -0.292297 54.1457
852 2 46.3373 38.8735 20.2623
853 1 24.6699 47.1766 11.4582
854 1 33.5438 43.8698 45.0027
855 1 51.4032 22.831 15.4728
856 1 44.0947 24.2064 47.3381
857 1 43.0853 9.89237 42.4366
858 1 25.4949 52.799 45.3131
859 1 11.1161 40.1178 22.2635
860 1 11.8726 37.8697 20.8338
861 1 52.0601 36.9483 29.1481
862 1 54.139 31.1259 5.71784
863 1 33.2048 11.4488 9.97484
864 1 14.4252 37.1225 19.3444
865 1 19.0679 38.8468 20.0744
866 1 51.8895 45.8927 42.6442
867 1 9.0041 17.8772 40.6192
868 1 44.6589 29.1734 36.272
869 1 32.1335 35.2178 37.7618
870 1 55.6241 29.0077 28.3646
871 1 10.0832 28.3966 15.0615
872 1 48.8711 43.0247 43.4072
873 1 11.9829 32.4509 3.78321
874 1 45.415 54.3358 45.115
875 1 56.2577 27.5245 44.4734
876 1 33.6871 12.2102 26.8632
877 1 32.0612 23.5909 33.4647
878 1 42.3884 55.6835 16.3498
879 1 33.6861 26.1373 29.0878
880 1 51.9895 11.4969 2.14149
881 1 46.2266 22.223 45.3625
882 1 44.4151 23.2214 52.4427
883 1 14.7197 1.83489 19.4863
884 1 51.8015 55.0478 36.2842
885 1 30.4017 11.0182 21.5507
886 1 37.062 40.9515 2.90371
887 1 6.769 16 19.5679
888 1 -0.144173 25.9975 48.7303
889 1 33.0963 51.4689 7.90255
890 1 55.8189 48.7665 1.46945
891 1 38.8693 11.4874 34.2052
892 1 31.5608 47.0614 21.1684
893 1 38.6304 18.4523 46.452
894 1 26.5896 33.2496 52.1144
895 1 12.9969 42.5128 29.7872
896 1 2.68595 40.9618 17.6048
897 1 19.7809 0.55076 54.8797
898 1 54.5073 15.1269 29.574
899 1 15.6197 29.8394 28.4889
900 1 6.46057 45.3353 40.5483
901 1 35.8881 43.4119 43.0271
902 1 16.7158 36.6978 26.9343
903 1 14.7324 13.4107 53.1497
904 1 35.8366 35.7651 11.2955
905 1 27.9413 30.441 19.3228
906 1 32.5416 3.90467 25.1098
907 1 26.7621 39.173 21.9841
908 1 1.52758 6.39801 33.9481
909 1 44.0661 12.9005 46.6019
910 1 49.4072 36.3624 8.09705
911 1 17.9193 8.03743 21.8658
912 1 20.7119 14.0057 45.3219
913 1 50.8287 10.6922 10.8293
914 1 53.3345 52.2604 30.777
915 1 22.1479 6.72713 37.5229
916 1 42.3453 55.5724 25.1702
917 1 36.9201 4.69883 22.4815
918 1 53.0307 38.7795 22.5518
919 1 53.1933 47.4824 32.7815
920 1 25.2185 55.4058 56.0955
921 1 9.47813 13.8745 13.4603
922 1 22.7974 36.3201 25.3136
923 1 47.8292 5.48011 33.1269
924 1 55.4039 50.0964 15.8609
925 1 45.8735 13.8035 42.0204
926 1 42.6568 42.9607 13.061
927 1 9.54003 0.669683 52.8761
928 1 41.8408 17.7934 23.3111
929 1 50.0559 33.4557 7.12423
930 1 40.464 5.40595 18.6605
931 1 13.9523 32.0442 42.196
932 1 23.086 50.3986 37.9347
933 1 33.3628 54.0585 45.3673
934 1 6.36251 33.7448 54.6824
935 1 51.1943 2.63796 13.0642
936 1 34.4506 24.9116 46.9697
937 1 37.952 41.2304 38.5261
938 1 25.8096 24.6147 29.9315
939 1 43.6043 55.5738 8.8827
940 1 15.1571 5.14315 23.4955
941 1 29.5615 3.83668 37.9814
942 1 15.0412 46.8645 45.3485
943 1 52.3276 55.883 44.1439
944 1 9.03735 41.7962 15.4202
945 1 26.97 39.3309 41.5209
946 1 13.9471 44.2785 44.4061
947 1 19.518 39.9363 30.5722
948 1 16.0305 50.7548 10.5546
949 1 54.9841 9.75865 50.9204
950 1 40.4455 -0.220264 8.54734
951 1 14.8992 43.4182 53.6623
952 1 44.1025 0.708618 48.8569
953 1 18.5387 3.39836 4.64954
954 1 5.28927 53.3081 21.2748
955 1 27.3404 4.01561 13.7933
956 1 -0.334833 29.5171 9.6729
957 1 30.9131 6.98797 52.7007
958 1 54.0853 24.5149 29.6176
959 1 11.1048 4.74868 52.7082
960 1 17.7264 9.76251 11.6772
961 1 28.9542 26.4087 39.2171
962 1 31.2808 10.0791 16.9982
963 1 8.68322 28.1683 37.1493
964 1 25.1732 19.4072 41.1631
965 1 32.9216 45.9311 33.9
966 1 26.7014 8.45827 40.906
967 1 6.23658 0.384586 45.8436
968 1 41.2697 -0.103445 18.9294
969 1 8.11454 42.917 24.4656
970 1 40.6227 20.2358 15.1318
971 1 18.9496 25.4904 42.5167
972 1 50.9147 17.0454 52.8191
973 2 45.4113 3.77633 25.0807
974 2 46.4243 39.8653 35.3001
975 2 53.5007 39.4272 27.5954
976 2 18.1163 29.6505 49.6746
977 2 53.0934 36.5304 15.9391
978 2 52.2922 36.5531 19.5986
979 2 35.5182 39.9881 41.0385
980 2 54.9147 6.70721 44.6639
981 2 36.2315 11.7512 9.32255
982 2 54.5788 29.6587 48.7196
983 2 12.3072 31.5084 0.671528
984 2 46.2702 22.6079 34.3374
985 2 51.3345 1.86875 9.89527
986 2 6.99892 18.1635 38.1204
987 2 13.819 5.98628 8.44474
988 2 1.89662 26.7537 51.5543
989 2 40.0177 27.5718 32.2396
990 2 54.5102 10.2424 14.7709
991 2 22.8184 21.3465 17.1619
992 2 16.295 15.5843 55.0316
993 2 1.1631 15.7526 55.8728
994 2 53.8113 23.1826 35.1393
995 1 54.1121 3.96009 43.5092
996 1 53.4299 26.4488 52.4108
997 1 30.0731 35.3048 19.5254
998 1 4.57549 48.5404 24.4277
999 1 20.6166 43.0227 50.4112
1000 1 19.591 8.96921 48.2615
1001 1 34.6026 27.4448 47.1899
1002 1 52.8061 26.8406 8.36961
1003 1 5.29515 52.7317 14.5739