ITEM: TIMESTEP
0
ITEM: NUMBER OF ATOMS
9088
ITEM: BOX BOUNDS pp pp pp
-2.2298770207851615e-01 5.6107480327923419e+01
-2.2298770207851615e-01 5.6107480327923419e+01
-2.2298770207851615e-01 5.6107480327923419e+01
ITEM: ATOMS id type x y z
1 1 28.3259 41.2238 49.1651
2 1 44.1817 4.56888 36.6668
3 1 41.5877 13.3428 49.7081
4 1 37.1582 49.3019 43.4749
5 1 11.0143 34.623 8.4931
6 1 35.7361 25.7291 21.6297
7 1 20.0047 33.0095 1.03059
8 1 48.1256 1.32058 9.40506
9 1 55.7774 50.4769 40.0542
10 1 37.0325 13.6172 53.4602
11 1 48.7656 35.6946 32.4
12 1 35.6449 19.5645 36.5972
13 1 21.6808 48.4903 36.9938
14 1 19.7187 49.5591 50.1939
15 1 3.19997 36.9193 30.4096
16 1 26.5216 0.613542 38.7863
17 1 50.4689 9.96781 28.199
18 1 3.87965 47.7029 35.735
19 1 29.9403 24.0551 51.8504
20 1 31.0181 2.77973 44.6145
21 1 25.2878 49.0223 50.4646
22 1 9.70694 42.0651 2.08597
23 1 22.022 17.7557 37.5672
24 1 3.33361 8.01196 55.4075
25 1 26.1886 27.4338 38.6845
26 1 19.7575 28.2384 43.4339
27 1 34.8661 29.1871 54.4902
28 1 13.5133 32.5889 14.8307
29 1 10.7665 50.3155 40.4471
30 1 48.995 10.0371 43.1819
31 1 30.6078 4.86581 0.240512
32 1 34.0383 5.49371 23.2001
33 1 24.3429 41.6243 2.80567
34 1 14.6386 24.8156 1.82061
35 1 20.2832 51.1965 40.5913
36 1 17.1905 32.5794 16.2174
37 1 23.664 55.595 47.2952
38 1 23.0844 21.4392 2.73455
39 1 13.1533 26.4755 0.0956072
40 1 8.78421 11.453 47.8348
41 1 46.6943 40.6617 0.87392
42 1 5.51092 39.0659 14.7452
43 1 21.9691 16.7613 9.72709
44 1 50.8843 51.8253 23.6533
45 1 13.17 43.6913 -0.110945
46 1 0.108505 17.6335 11.157
47 1 42.6657 6.04035 32.0037
48 1 18.2917 30.57 19.8195
49 1 5.01366 19.0398 31.5955
50 1 18.0178 19.7682 20.7735
51 1 50.2042 32.3153 30.2864
52 1 22.2531 10.5903 37.4537
53 1 52.4667 20.6265 1.45429
54 1 52.5191 18.5554 45.7749
55 1 39.7192 45.0989 29.4122
56 1 11.5135 25.4295 44.9616
57 1 6.97849 33.127 34.6617
58 1 37.3444 11.2661 21.4321
59 1 5.34589 30.5108 28.7171
60 1 36.4007 32.8258 54.5373
61 1 11.9994 27.4361 53.99
62 1 52.9914 22.192 24.4868
63 1 49.3661 43.3024 28.7416
64 1 22.4339 4.25575 16.2218
65 1 11.2372 42.3599 48.0329
66 1 7.97053 44.8644 9.75348
67 1 12.3119 43.1854 53.175
68 1 11.3209 33.7249 52.436
69 1 37.3815 38.5413 46.0386
70 1 1.83009 27.8937 4.90462
71 1 52.0691 46.9285 28.0788
72 1 55.6978 29.595 1.56026
73 1 26.0162 46.2848 4.69899
74 1 5.69645 34.0683 44.9176
75 1 37.5728 19.5036 5.39997
76 1 38.5691 23.7866 5.98646
77 1 47.5625 40.4306 32.1867
78 1 33.9334 40.4988 10.5492
79 1 31.6921 23.1887 42.8568
80 1 39.6446 0.00476229 30.9422
81 1 17.6018 27.8877 54.5636
82 1 50.3055 1.08409 23.7273
83 1 7.76 14.9088 27.8332
84 1 36.285 2.02728 3.79927
85 1 39.3135 10.7815 38.6297
86 1 34.7374 34.0257 34.7221
87 1 25.8238 8.19598 32.0083
88 1 15.6804 11.7965 12.8809
89 1 6.80938 48.1946 39.5974
90 1 0.957535 39.6177 51.391
91 1 18.085 7.58202 21.9004
92 1 9.94356 12.1356 19.3277
93 1 38.5875 9.57262 11.0158
94 1 35.6493 34.0144 28.7702
95 1 40.7997 24.5013 18.6289
96 1 7.18678 -0.129846 13.8152
97 1 3.48863 8.74855 32.9203
98 1 17.7469 12.5789 30.0112
99 1 42.4837 36.6569 5.60324
100 1 3.35197 5.84815 26.6975
101 1 0.624643 33.7946 47.5358
102 1 5.26244 1.06597 12.3185
103 1 41.7875 43.5474 55.9426
104 1 14.3697 54.9345 39.4725
105 1 31.6513 13.9023 10.8491
106 1 19.1595 48.2273 47.7157
107 1 33.8385 0.52994 42.7982
108 1 46.7855 17.4958 47.5187
109 1 10.0477 46.0449 16.5058
110 1 31.1282 8.94469 10.6773
111 1 37.8641 54.5086 15.103
112 1 5.19509 5.43567 10.3061
113 1 29.0885 33.5169 11.5682
114 1 24.2829 16.8989 39.8472
115 1 42.938 34.6308 31.0115
116 1 31.9608 5.66595 38.1596
117 1 -0.0796364 12.4361 40.5242
118 1 1.8063 44.0803 31.7999
119 1 36.3029 36.061 33.6954
120 1 14.8749 1.86791 39.808
121 2 12.1076 38.8957 35.175
122 2 51.4165 18.4743 12.6424
123 2 55.41 46.5298 20.6508
124 2 52.5092 29.6667 19.8761
125 2 54.0647 35.6217 38.422
126 2 25.091 7.41279 17.8147
127 2 12.252 51.4933 15.5694
128 2 7.77737 30.159 35.4108
129 2 55.33 17.8333 7.50376
130 2 1.37235 21.1182 45.7134
131 2 52.0316 11.9377 47.2216
132 2 39.1197 46.3783 17.8152
133 2 34.8069 42.6699 15.8791
134 2 15.2662 5.15341 8.91385
135 2 42.8242 33.8914 3.71118
136 2 9.7958 0.714044 32.2001
137 2 40.6478 24.4403 46.3717
138 2 5.23231 4.76627 49.468
139 2 31.1278 14.941 13.7435
140 2 45.3137 27.2752 38.7699
141 2 7.98202 38.2774 22.7172
142 2 29.5843 23.291 40.3646
143 1 46.7954 19.7527 45.9354
144 1 29.3395 17.4759 13.6521
145 1 53.8201 12.6028 6.25722
146 1 52.391 26.3245 15.2544
147 1 29.3674 28.0261 33.0451
148 1 26.8327 10.1792 38.2896
149 1 46.218 6.20331 44.6955
150 1 25.2578 25.4489 9.55938
151 1 50.0786 24.5501 53.8064
152 1 10.3044 33.5429 45.2287
153 1 50.0509 48.4286 29.0896
154 1 43.1496 41.8132 30.7018
155 1 32.4153 18.4558 10.4387
156 1 8.12196 33.229 9.33199
157 1 51.5212 34.1237 22.2133
158 1 37.3667 5.73456 0.509276
159 1 55.0247 47.8696 13.7823
160 1 49.2975 2.45142 2.2134
161 1 10.3591 25.6672 21.0763
162 1 13.1691 12.9836 44.1891
163 1 19.9597 21.4938 26.554
164 1 55.8525 38.3924 11.777
165 1 51.3833 35.7069 6.46659
166 1 45.4825 41.5282 14.5071
167 1 31.3066 39.8359 46.2087
168 1 33.2731 6.30857 48.1025
169 1 28.1225 50.6141 39.4963
170 1 39.5344 33.9953 47.1971
171 1 28.4165 32.8072 23.4811
172 1 21.3906 43.6234 28.6444
173 1 14.0134 39.8825 10.3084
174 1 35.5869 1.75003 32.3964
175 1 18.6397 27.9166 16.441
176 1 39.6137 37.142 6.70618
177 1 9.86071 4.78984 25.1224
178 1 18.0595 6.28537 11.8764
179 1 27.1513 45.1214 48.1654
180 1 55.3808 26.7432 8.28666
181 1 48.3878 43.0979 31.8404
182 1 49.6743 30.0187 52.546
183 1 13.6369 20.5464 4.02142
184 1 25.9022 52.5179 12.1984
185 1 33.6533 10.205 34.0621
186 1 43.8715 26.506 26.6129
187 1 1.46932 6.90685 53.7333
188 1 28.7661 39.2218 3.31225
189 1 13.4849 41.3613 34.1737
190 1 35.4067 48.7025 21.8871
191 1 20.2572 19.079 45.8781
192 1 50.337 0.0173624 7.74634
193 1 37.165 8.59461 13.6385
194 1 35.9542 3.71093 30.7201
195 1 24.6217 27.7677 0.956888
196 1 34.8887 4.9031 26.2689
197 1 7.29829 9.22049 49.361
198 1 12.5139 17.7769 30.8985
199 1 31.3411 18.8888 3.04374
200 1 39.8349 20.7159 41.2347
201 1 26.7475 13.0766 16.1889
202 1 39.1643 2.0793 2.59635
203 1 31.0125 27.6575 37.195
204 1 41.0854 27.2228 19.4586
205 1 7.85747 12.504 2.98527
206 1 39.4304 25.4722 25.0601
207 1 -0.0384828 45.0955 45.8137
208 1 32.0042 4.67649 10.9663
209 1 47.435 6.51254 47.2009
210 1 27.2897 21.7198 41.939
211 1 8.46011 5.49072 21.8463
212 1 42.9917 27.5919 43.1534
213 1 22.3885 12.404 51.3845
214 1 0.85195 37.5545 2.54873
215 1 11.4967 27.6186 22.8914
216 1 0.181091 24.7344 50.9848
217 1 21.8725 8.71527 35.4867
218 1 1.26041 9.93939 54.2873
219 1 44.0341 51.8375 6.03274
220 1 44.8163 5.90697 42.5233
221 1 28.8742 0.236599 15.9139
222 1 2.56326 7.59136 21.4279
223 1 26.2622 43.982 2.96855
224 1 42.6436 9.44466 24.7498
225 1 43.8024 48.946 38.3707
226 1 12.8524 41.9713 25.3492
227 1 20.0699 45.8321 33.3496
228 1 55.9583 20.1809 53.0581
229 1 11.1534 27.1453 42.9776
230 1 31.0566 30.032 41.477
231 1 31.8388 35.3649 24.9203
232 1 40.7474 17.0979 17.9082
233 1 51.0213 50.2818 38.0528
234 1 10.8934 14.1325 51.4733
235 1 41.5629 18.5141 42.1425
236 1 6.96659 48.0367 29.5503
237 1 53.3773 29.5111 23.0092
238 1 38.5317 1.36799 -0.0499188
239 1 34.0354 28.7236 6.06307
240 1 9.45033 32.8144 50.9129
241 1 20.2441 49.2303 10.7768
242 1 32.7154 10.9782 3.02848
243 1 7.59033 24.3251 33.6595
244 1 55.823 42.168 7.54999
245 1 1.61949 27.8332 19.8633
246 1 54.1583 5.53586 5.80935
247 1 54.4784 48.9523 10.7689
248 1 44.1143 0.524102 45.8272
249 1 10.6775 44.9542 48.9865
250 1 23.4712 24.5079 18.1204
251 1 17.9382 39.5361 3.80733
252 1 47.7446 16.4195 38.6468
253 1 2.72276 27.1497 48.1075
254 1 9.33089 8.39824 32.7377
255 1 55.0869 9.21964 18.026
256 1 30.6749 47.3063 24.4307
257 1 1.42838 12.2911 35.0638
258 1 33.2817 18.3292 27.4922
259 1 45.6928 45.8852 55.3048
260 1 25.1902 41.4193 34.1308
261 1 32.2303 10.6991 39.7609
262 1 24.468 45.2548 10.5013
263 2 43.9021 24.7662 29.2629
264 2 25.7398 46.8471 1.67707
265 2 49.6555 7.49889 49.0378
266 2 6.99029 24.6483 38.8721
267 2 14.6829 21.4351 1.13159
268 2 4.42375 3.23345 24.8725
269 2 15.3492 2.4322 16.543
270 2 44.5922 43.5627 53.5386
271 2 53.877 44.9303 26.1078
272 2 33.2443 40.1618 13.9487
273 2 33.1647 5.84733 34.8379
274 2 53.0457 27.0109 30.7232
275 2 26.9745 7.10368 53.0402
276 2 56.0541 13.9919 4.33825
277 2 0.9388 43.0608 39.6274
278 2 11.8407 34.5026 18.6254
279 2 44.0734 51.6156 46.4806
280 2 19.8156 55.2204 22.0267
281 2 41.511 17.0047 14.5011
282 2 15.2281 28.7471 8.17793
283 2 46.789 47.7346 28.6467
284 2 16.6944 27.0133 34.8997
285 1 4.90821 35.3904 5.73917
286 1 49.5329 34.5388 20.0457
287 1 44.7464 1.73783 35.9848
288 1 21.8618 17.1451 31.9449
289 1 20.3567 29.0952 6.38198
290 1 50.843 12.8429 24.1413
291 1 18.1665 43.9082 34.522
292 1 40.5471 5.21702 44.0623
293 1 54.3306 19.8194 55.3949
294 1 30.9855 32.8604 41.7028
295 1 47.0449 25.2274 29.8204
296 1 12.4488 32.2413 35.4181
297 1 48.2133 14.1207 34.0585
298 1 30.7523 22.0673 13.1841
299 1 31.7022 18.6081 17.7975
300 1 24.5944 31.8404 9.48172
301 1 24.9855 49.968 23.2845
302 1 46.7171 33.4613 25.8976
303 1 53.65 3.36996 1.54608
304 1 15.7623 35.3563 55.6065
305 1 25.4119 38.461 23.0044
306 1 28.8621 52.3832 32.7722
307 1 5.15362 40.0849 32.0767
308 1 39.9031 54.0869 44.8733
309 1 49.4717 30.6397 28.3174
310 1 10.2747 52.6989 38.3881
311 1 38.4011 34.982 5.51155
312 1 10.2261 7.6155 25.9224
313 1 4.97738 55.7925 18.0644
314 1 29.093 47.7783 53.0722
315 1 4.66318 6.23044 14.7222
316 1 44.1747 10.3163 10.6524
317 1 30.6403 32.1713 39.038
318 1 5.78889 23.1607 11.3548
319 1 3.29795 2.48269 18.1128
320 1 18.8738 33.6067 25.1985
321 1 25.9531 38.5397 34.1338
322 1 55.5273 21.6344 23.0537
323 1 11.5426 10.62 33.0973
324 1 18.43 8.76282 32.2457
325 1 21.5231 46.1374 43.4617
326 1 16.8102 32.0931 41.1398
327 1 12.4906 9.0155 35.1809
328 1 0.390705 8.54536 37.0613
329 1 4.33325 25.6762 45.1504
330 1 7.87324 30.9525 30.0632
331 1 15.9194 39.3862 52.6992
332 1 0.619429 44.2713 11.9466
333 1 16.2392 13.9944 10.8886
334 1 33.8521 34.853 22.6913
335 1 35.215 13.4967 51.2355
336 1 49.9344 21.0114 12.7233
337 1 0.835775 33.9462 7.44099
338 1 9.58566 23.1381 22.3286
339 1 13.2755 22.4805 43.9718
340 1 25.0641 23.3689 26.3351
341 1 26.73 51.3776 25.207
342 1 56.0516 26.5543 17.8596
343 1 36.0209 13.7738 27.2545
344 1 33.2417 15.876 11.5026
345 1 48.5648 16.6011 3.82026
346 1 0.367082 6.80882 23.8255
347 1 19.9541 18.3566 11.1646
348 1 13.0469 10.2291 22.6083
349 1 4.53794 36.9573 10.3713
350 1 1.60478 54.1553 51.102
351 1 45.0574 35.5641 5.58277
352 1 18.8186 8.40024 52.0867
353 1 24.4527 34.6804 53.7849
354 1 46.6612 37.0254 39.45
355 1 48.734 28.537 38.603
356 1 9.61665 40.2558 42.9813
357 1 20.2946 50.5024 52.8096
358 1 21.6154 24.0577 36.9551
359 1 28.9503 44.9465 46.2
360 1 16.567 38.3742 45.5048
361 1 40.4671 22.3643 44.0631
362 1 0.339806 53.8948 4.43604
363 1 44.3745 18.4031 14.7413
364 1 41.1826 0.51606 32.8479
365 1 37.5499 45.7878 6.9384
366 1 15.5494 34.4271 14.6283
367 1 50.878 46.84 38.3674
368 1 40.6772 44.752 26.5086
369 1 33.4837 14.5742 15.97
370 1 3.22007 40.7168 50.661
371 1 19.4984 28.1305 49.0348
372 1 13.5997 22.1975 33.7362
373 1 21.5903 56.0007 38.5526
374 1 47.089 50.2966 2.46551
375 1 4.19963 52.8724 35.1832
376 1 42.7471 48.7493 25.1583
377 1 6.8954 19.8392 51.5354
378 1 29.4242 52.5849 21.3469
379 1 51.6358 39.1969 20.4109
380 1 10.9236 13.0797 26.8553
381 1 26.2539 50.2187 28.7753
382 1 55.1913 22.4234 8.42984
383 1 12.6423 23.3687 22.9226
384 1 49.4397 16.5739 32.6091
385 1 29.7472 9.15992 19.5065
386 1 36.1029 38.715 22.9284
387 1 21.1545 33.7453 39.2714
388 1 24.3081 6.93683 40.3029
389 1 26.656 11.0163 14.3472
390 1 45.3524 48.4952 31.8679
391 1 6.56771 9.31793 6.79453
392 1 48.3996 48.7172 37.1691
393 1 3.54988 28.0223 0.944695
394 1 3.10809 37.8546 46.6296
395 1 55.0366 7.68835 48.2517
396 1 14.8723 4.93151 23.7211
397 1 49.7067 25.8276 22.2882
398 1 21.7186 29.0644 4.03756
399 1 6.7916 54.3674 42.3606
400 1 35.7332 42.9667 27.3062
401 1 18.4744 30.6804 25.1626
402 1 31.8477 48.0651 43.691
403 1 13.184 42.9123 28.3529
404 1 26.6225 34.6624 45.8236
405 2 19.7164 8.15495 14.2908
406 2 36.2641 30.8638 7.55747
407 2 34.4003 12.9535 12.7977
408 2 24.8084 49.7074 12.9163
409 2 47.2137 0.0176797 16.4864
410 2 37.0253 48.9361 16.3085
411 2 5.80577 41.4189 16.9914
412 2 53.4329 8.7899 35.8987
413 2 31.1502 21.5626 45.3543
414 2 12.8195 35.1669 47.8467
415 2 55.7331 51.597 8.87388
416 2 52.157 43.119 55.1789
417 2 43.9628 4.85117 10.4694
418 2 7.42834 35.9103 11.063
419 2 15.6175 54.3372 22.5005
420 2 23.857 22.9753 23.3401
421 2 41.3678 49.3998 9.50473
422 2 31.9385 16.1418 8.22724
423 2 8.05742 0.656621 43.1731
424 2 52.2321 10.4559 4.90958
425 2 47.9236 51.7535 38.9861
426 2 37.3183 8.44044 38.063
427 1 29.5368 30.0596 -0.0142058
428 1 3.73751 53.641 52.3038
429 1 55.9618 27.775 51.0503
430 1 52.2195 54.8221 9.58309
431 1 20.2771 47.4762 26.2222
432 1 42.7702 8.34818 6.60886
433 1 39.9114 25.0355 13.8496
434 1 12.597 20.961 46.1631
435 1 23.0062 52.3217 8.68365
436 1 32.3421 32.0748 48.5396
437 1 25.7465 24.6759 33.7201
438 1 46.967 3.43257 35.4612
439 1 1.41894 38.1801 53.957
440 1 10.6823 22.9197 30.1607
441 1 22.4921 14.5328 11.1437
442 1 42.8361 18.7973 16.9925
443 1 42.1794 10.1914 27.4302
444 1 51.5273 41.9287 47.6626
445 1 5.35283 14.7889 17.6211
446 1 39.0117 31.5834 39.791
447 1 20.7357 52.1342 10.1144
448 1 42.8811 1.03712 -0.126084
449 1 54.2625 6.93189 29.2617
450 1 48.838 32.8842 0.736508
451 1 27.9313 49.1117 14.2486
452 1 48.2722 12.2372 22.8797
453 1 7.26896 19.7563 32.7042
454 1 5.54666 35.5473 51.891
455 1 7.16682 22.1989 23.5695
456 1 46.07 3.75266 51.5619
457 1 53.6899 39.2836 18.3719
458 1 27.1003 20.203 36.668
459 1 2.67734 34.4461 9.61338
460 1 29.6196 0.241056 34.1527
461 1 7.95483 16.7025 17.3154
462 1 48.3837 27.5108 9.25802
463 1 15.7523 2.18519 7.50458
464 1 31.9054 52.626 22.8496
465 1 7.51012 46.6513 17.3016
466 1 5.1078 47.9348 5.08631
467 1 46.9376 11.4472 38.1312
468 1 44.952 54.2146 6.89183
469 1 15.1141 43.5356 24.5808
470 1 26.9704 0.542526 14.0743
471 1 26.397 9.84309 3.39414
472 1 15.064 38.3127 27.9265
473 1 48.7523 38.6165 46.6458
474 1 39.9938 12.3578 16.6703
475 1 23.1834 24.9742 20.7817
476 1 12.1715 21.9487 40.1128
477 1 48.9291 3.13167 37.6083
478 1 41.5872 7.42051 13.7601
479 1 55.5637 26.052 35.274
480 1 40.9622 8.35206 4.01768
481 1 25.7248 1.51238 51.1845
482 1 29.794 37.1483 22.6974
483 1 46.3916 19.1677 34.2172
484 1 5.84894 37.2927 7.15907
485 1 18.7219 45.3373 25.2724
486 1 47.1665 8.01909 42.9264
487 1 21.0816 12.7846 22.4577
488 1 6.13504 47.8882 25.4742
489 1 2.93015 44.5238 13.6166
490 1 24.3321 49.6662 26.2404
491 1 13.3215 29.8115 47.329
492 1 26.9152 24.7387 41.6943
493 1 44.3862 30.1396 33.7217
494 1 4.4049 54.7896 13.4579
495 1 11.7098 33.8197 13.1493
496 1 39.1535 17.9202 37.4446
497 1 7.16085 17.0505 32.083
498 1 19.8294 20.2585 8.91778
499 1 34.1405 30.2939 19.9836
500 1 51.6599 3.2419 36.2587
501 1 16.1833 50.8564 43.5191
502 1 50.9637 43.2351 7.02186
503 1 42.5519 21.1175 42.7241
504 1 40.1297 47.0483 32.1641
505 1 38.3576 27.6694 3.81567
506 1 22.3781 27.5352 42.0487
507 1 53.6004 54.2766 32.3761
508 1 10.4048 43.406 17.6162
509 1 53.3417 29.1122 8.31167
510 1 30.7085 0.661817 3.46266
511 1 49.8456 5.52524 6.16306
512 1 14.1968 50.3672 12.8146
513 1 33.2691 30.4164 29.221
514 1 28.4347 27.7821 21.1843
515 1 29.4132 12.5771 27.1707
516 1 5.32762 40.6871 37.3247
517 1 15.9536 3.07532 0.0398221
518 1 24.0946 12.0636 13.598
519 1 8.12709 11.8582 45.3041
520 1 35.8312 17.5381 4.67471
521 1 45.9063 24.7211 32.1946
522 1 7.37581 17.1044 0.791633
523 1 38.6998 1.46471 25.6751
524 1 40.219 51.8028 31.9938
525 1 25.7186 41.6396 22.5085
526 1 26.5613 15.6934 30.3804
527 1 29.2785 54.52 23.4763
528 1 2.22376 6.54091 6.17083
529 1 40.1359 8.17692 33.5373
530 1 37.9326 16.5016 18.3098
531 1 43.5376 10.1735 45.6973
532 1 35.0286 9.79518 11.5493
533 1 43.105 6.30374 20.5134
534 1 19.6493 35.8148 20.3228
535 1 43.0665 2.90922 38.4076
536 1 38.9977 22.2067 15.5898
537 1 19.0451 22.1835 20.8656
538 1 6.65462 27.6363 2.8121
539 1 28.547 37.9183 33.2355
540 1 48.3521 12.0163 16.1819
541 1 42.7385 5.88848 7.77169
542 1 33.1205 47.9853 35.9184
543 1 38.0323 44.924 35.1084
544 1 31.5974 34.6394 15.2865
545 1 51.9823 24.469 5.75146
546 1 23.7317 50.4998 40.6566
547 2 15.3788 40.9136 26.5204
548 2 13.0215 47.0174 1.21428
549 2 35.0623 47.8959 25.3289
550 2 55.7112 51.4261 12.8567
551 2 52.4979 6.97116 16.7811
552 2 9.75319 7.10419 35.4963
553 2 37.6159 9.96462 16.7486
554 2 23.1122 5.50323 53.0731
555 2 14.533 13.0077 21.6248
556 2 12.4561 41.5405 43.0448
557 2 13.6412 5.88312 34.0387
558 2 17.3484 33.2895 3.48871
559 2 40.1603 17.1339 21.0929
560 2 5.1653 16.3813 29.4386
561 2 38.5603 12.7794 51.0352
562 2 3.93885 19.6736 28.595
563 2 30.03 46.7602 34.8189
564 2 16.5778 5.15485 39.9716
565 2 20.2612 22.231 34.9054
566 2 31.1145 13.4552 38.8921
567 2 44.5918 38.5193 0.563335
568 2 43.5889 18.0355 20.1215
569 1 14.9758 1.48613 19.4809
570 1 52.207 36.3045 49.2357
571 1 20.7089 14.212 5.44469
572 1 46.2534 14.6655 53.4303
573 1 15.4126 15.7615 25.8543
574 1 30.3389 46.1366 17.419
575 1 30.249 49.5312 42.2083
576 1 14.2974 -0.0243968 11.501
577 1 1.81934 6.56974 15.4419
578 1 55.4072 39.6736 44.3489
579 1 34.2134 44.8091 48.3158
580 1 21.2062 31.9754 6.41735
581 1 37.6059 10.4037 29.1348
582 1 11.8491 41.7711 38.1362
583 1 45.3313 25.3658 18.2315
584 1 29.0582 40.7061 28.8233
585 1 33.2079 8.16681 23.0211
586 1 55.2217 -0.175139 31.1191
587 1 10.8158 1.74661 7.1482
588 1 9.17029 44.1864 46.8866
589 1 34.7496 47.3118 49.5371
590 1 55.8473 7.24472 6.87931
591 1 12.9283 9.39937 30.9199
592 1 52.609 33.1078 6.45584
593 1 18.6307 25.1315 33.6065
594 1 2.82625 42.2254 41.8724
595 1 34.1309 11.9641 43.859
596 1 3.37745 4.97645 39.3189
597 1 29.0384 51.6497 7.38259
598 1 48.5857 46.9413 25.5746
599 1 5.24466 3.73651 13.4191
600 1 11.6956 32.5627 4.29352
601 1 21.9149 42.1063 54.42
602 1 2.89766 42.4726 15.1912
603 1 26.7663 35.3847 52.33
604 1 5.62089 21.7916 30.1513
605 1 28.1434 43.3459 27.7246
606 1 27.4097 46.4606 33.1495
607 1 38.7449 14.3846 33.9124
608 1 39.2402 5.28161 48.6544
609 1 34.1969 30.3157 12.5787
610 1 42.9642 5.4117 45.1342
611 1 20.8095 44.6096 31.0495
612 1 17.8365 46.6734 45.6975
613 1 3.17948 51.8773 1.01918
614 1 53.6396 33.3093 10.9283
615 1 5.64267 42.9565 41.3345
616 1 39.432 5.84394 54.8044
617 1 16.3211 12.0107 51.8136
618 1 6.63901 53.6698 51.1273
619 1 37.409 11.32 26.4756
620 1 28.3571 27.0485 25.7552
621 1 53.2181 8.5618 27.0376
622 1 3.78976 30.0036 44.2728
623 1 14.9102 44.6619 11.5971
624 1 27.8132 9.63759 55.4669
625 1 9.97408 14.9165 25.3979
626 1 38.0518 26.032 22.7999
627 1 34.3215 36.5838 56.0567
628 1 31.6728 10.1424 17.2096
629 1 42.0951 46.5555 10.7357
630 1 37.8088 54.4291 20.5533
631 1 43.5078 28.8641 13.8281
632 1 4.7024 32.4354 26.9818
633 1 15.7492 6.81044 49.658
634 1 47.9004 45.5365 17.7277
635 1 29.5497 44.9162 23.4824
636 1 6.22561 6.84437 17.0303
637 1 0.921772 15.0976 39.7918
638 1 32.6051 47.3057 55.553
639 1 28.6814 5.30281 4.53218
640 1 22.0925 53.676 6.45673
641 1 55.9128 47.7172 35.7909
642 1 53.671 18.5996 10.2222
643 1 41.1878 27.605 24.6229
644 1 20.1572 42.6648 45.9741
645 1 0.402037 19.2018 40.8905
646 1 13.0222 31.2117 12.2965
647 1 3.25642 29.6142 8.91479
648 1 19.6515 16.9962 4.92476
649 1 20.5512 20.3743 19.5782
650 1 15.1992 4.08405 3.02738
651 1 30.4911 33.4346 33.1624
652 1 52.5994 15.2857 39.8577
653 1 52.1109 30.6195 51.2751
654 1 29.4519 34.0955 -0.136346
655 1 41.1227 4.33107 29.8453
656 1 36.6455 52.065 40.1996
657 1 -0.159158 34.6391 21.1041
658 1 24.7735 8.34803 54.8062
659 1 38.7921 40.2487 50.5383
660 1 1.61752 43.9324 6.60546
661 1 46.2955 36.2333 12.9029
662 1 15.3672 41.7847 44.3891
663 1 20.2929 35.7712 37.5499
664 1 53.3715 16.8674 27.9133
665 1 34.1234 42.9558 22.674
666 1 15.055 9.05695 26.3333
667 1 35.6547 17.0458 28.1919
668 1 47.3416 12.0521 44.0608
669 1 51.3511 22.8825 15.754
670 1 46.7065 3.05017 11.2826
671 1 32.2381 4.4966 25.2461
672 1 1.8546 18.6555 8.78319
673 1 11.2933 4.25303 35.7412
674 1 46.0067 51.2141 7.48178
675 1 23.3009 7.72425 32.8514
676 1 54.0249 16.6737 23.9033
677 1 55.7364 35.8459 54.2932
678 1 15.8276 55.9775 17.6496
679 1 52.6902 12.1714 22.132
680 1 28.2922 32.1087 46.1625
681 1 -0.0192617 26.1758 48.6611
682 1 7.08061 3.35557 44.8847
683 1 43.3329 12.9382 20.9374
684 1 38.3027 32.2627 37.1507
685 1 22.5321 54.7471 15.176
686 1 44.5992 14.7191 11.314
687 1 47.1464 55.0288 28.5745
688 1 20.3358 7.28325 33.4251
689 2 21.8003 49.2458 24.0742
690 2 30.0987 50.2925 10.2264
691 2 34.3274 27.0063 39.0984
692 2 8.28656 42.4913 49.2405
693 2 44.7304 48.0291 22.5288
694 2 3.11374 51.2021 54.4325
695 2 17.6555 15.1383 45.2521
696 2 16.144 40.9771 8.20519
697 2 1.57014 18.4255 36.0686
698 2 17.3067 18.5258 6.95092
699 2 44.5637 11.5165 39.9338
700 2 38.212 5.01891 3.67727
701 2 53.5971 27.4763 5.5493
702 2 36.0394 28.9711 27.0866
703 2 48.9123 45.7643 44.2734
704 2 54.3451 12.958 17.6115
705 2 2.60116 36.5994 7.53097
706 2 2.2317 40.4708 44.6192
707 2 47.6513 17.1495 18.9586
708 2 43.3136 54.7184 0.639058
709 2 44.1808 30.5652 42.4629
710 2 53.0782 48.4629 30.7366
711 1 36.7623 2.14873 46.0375
712 1 17.8405 25.7055 48.9706
713 1 0.952483 49.4563 44.3488
714 1 37.4938 30.8098 25.0491
715 1 0.916661 11.224 44.6931
716 1 2.78313 15.5349 51.3638
717 1 47.3287 0.68191 3.42211
718 1 4.48183 41.6295 55.7664
719 1 42.0771 16.8917 52.6646
720 1 19.176 16.2833 13.4673
721 1 31.152 6.47234 4.86669
722 1 31.8346 37.6808 55.3992
723 1 19.2917 14.9698 15.9118
724 1 48.5426 37.1248 53.6059
725 1 12.9461 45.9213 34.9343
726 1 29.9292 41.1235 41.8874
727 1 32.5662 55.2202 18.9017
728 1 27.9066 0.52588 55.448
729 1 38.4983 1.57465 53.4752
730 1 5.16496 6.954 38.1855
731 1 53.9607 10.7288 20.0382
732 1 12.8275 1.03893 14.9297
733 1 36.1913 53.037 55.3543
734 1 37.2876 43.46 17.8363
735 1 39.8543 9.60955 1.53249
736 1 51.8249 19.0537 50.8091
737 1 30.9814 41.9261 27.2003
738 1 0.170361 11.7739 6.91619
739 1 21.9938 17.044 3.17423
740 1 40.5744 35.4937 49.1037
741 1 53.7715 9.33966 32.7284
742 1 18.7589 40.5461 6.23376
743 1 44.5605 29.0986 27.1416
744 1 33.425 55.7803 40.4497
745 1 45.0875 12.587 13.0413
746 1 20.2419 17.767 20.8067
747 1 0.374042 2.97869 36.3365
748 1 46.1709 55.0091 2.32262
749 1 17.052 13.0244 42.5834
750 1 23.528 18.8601 2.0833
751 1 18.8653 33.0658 33.9639
752 1 14.6606 48.059 38.8861
753 1 20.2412 9.88717 43.7566
754 1 36.1704 53.8845 27.0115
755 1 29.196 17.9822 18.3671
756 1 31.5101 49.1602 53.6092
757 1 9.12487 21.2068 28.3845
758 1 54.8056 27.0511 20.2449
759 1 44.8777 6.705 18.2748
760 1 19.1493 32.3984 54.5875
761 1 48.5729 15.3195 46.5876
762 1 30.8492 52.526 12.3723
763 1 24.2313 17.7673 8.9248
764 1 18.435 13.0901 21.3399
765 1 42.4092 19.9666 40.0933
766 1 19.6159 35.7167 2.92445
767 1 4.66844 51.7201 28.5399
768 1 25.857 22.3596 35.4419
769 1 18.4621 48.4414 54.7479
770 1 19.1048 3.56185 4.44277
771 1 11.9552 38.5648 44.0094
772 1 29.6229 13.1913 52.5947
773 1 10.1289 16.5189 45.7546
774 1 33.3358 2.32213 27.2266
775 1 46.1209 41.5544 30.1202
776 1 25.1428 55.6584 22.3283
777 1 45.9585 47.5944 25.4755
778 1 22.065 33.6085 47.9599
779 1 40.7707 26.9896 44.5653
780 1 31.3126 47.299 40.9311
781 1 20.1198 37.9282 25.0738
782 1 4.53558 19.1505 15.6877
783 1 50.1441 0.751651 36.8442
784 1 44.1608 27.9361 24.199
785 1 27.5442 26.0844 48.2435
786 1 15.5119 7.57194 42.0492
787 1 6.10127 31.3465 53.8938
788 1 2.51628 10.5512 37.3417
789 1 15.5711 46.235 28.6362
790 1 51.5089 29.6099 43.5646
791 1 37.0082 19.1336 24.723
792 1 26.1489 54.8929 19.7431
793 1 2.6764 50.3457 22.237
794 1 29.791 25.8076 28.2786
795 1 55.8732 21.3042 36.97
796 1 44.2798 12.2671 4.09954
797 1 18.7624 11.243 14.0529
798 1 42.7343 28.9868 54.6011
799 1 16.2598 35.8679 12.3432
800 1 16.9204 30.6564 55.2032
801 1 48.8855 48.3083 10.9856
802 1 20.8557 15.3606 36.6234
803 1 39.8285 44.9111 40.3882
804 1 51.6425 36.7107 9.34144
805 1 38.6965 44.785 31.9159
806 1 13.2339 15.1329 37.6401
807 1 55.5623 15.817 34.5291
808 1 48.6495 8.10241 38.8737
809 1 10.0671 12.4851 1.13154
810 1 7.98785 40.8264 32.4252
811 1 33.5343 21.9278 48.2355
812 1 53.4918 16.1573 44.7522
813 1 0.579566 11.5772 2.53886
814 1 45.4172 4.57441 20.3694
815 1 4.88521 9.10826 41.8612
816 1 49.5913 4.77825 35.2249
817 1 44.5949 43.5329 29.2583
818 1 54.9016 48.5074 55.3402
819 1 18.1525 37.2795 43.0374
820 1 53.1766 28.257 38.2494
821 1 32.0032 29.692 38.8912
822 1 0.942861 3.97811 28.982
823 1 54.0119 46.5289 38.0535
824 1 54.3116 0.244332 28.5025
825 1 17.298 54.1843 29.9302
826 1 16.5377 50.6429 3.97972
827 1 19.8012 33.6489 22.521
828 1 35.5189 22.858 26.3159
829 1 49.6536 55.8028 29.7816
830 1 51.6076 43.4626 4.03518
831 2 7.32726 40.2859 39.941
832 2 23.6721 14.3211 3.2681
833 2 20.3027 43.2471 23.5512
834 2 43.3425 27.1073 46.621
835 2 25.1724 -0.0186366 27.8065
836 2 23.8684 14.5189 32.2372
837 2 15.6533 26.9797 17.6487
838 2 23.1384 42.4063 47.7341
839 2 28.6269 35.4553 31.3693
840 2 19.7567 16.2047 53.4671
841 2 15.7032 27.3381 26.4057
842 2 47.0365 9.59203 45.9528
843 2 42.2919 1.48984 29.8124
844 2 31.3633 15.1673 18.4993
845 2 8.22707 51.644 15.9906
846 2 41.3488 41.403 48.658
847 2 48.7149 54.7953 10.3378
848 2 47.781 44.183 25.8773
849 2 23.1177 17.3657 34.7543
850 2 22.5247 32.2518 44.5621
851 2 48.0959 -0.0674398 53.9221
852 2 46.6099 38.7644 20.4089
853 1 35.9994 46.2995 9.54455
854 1 30.2341 42.2523 46.802
855 1 47.5685 26.6593 14.8312
856 1 10.1557 23.9568 34.7524
857 1 55.0033 17.1454 40.0642
858 1 14.1578 50.2519 48.8266
859 1 35.1489 24.7082 41.001
860 1 9.45992 38.0756 4.01616
861 1 51.9449 36.7314 29.1723
862 1 54.417 30.8151 5.71634
863 1 32.9583 11.3462 10.4649
864 1 47.5915 26.7969 49.484
865 1 14.6532 26.4122 14.3958
866 1 12.3949 34.2607 0.0966826
867 1 50.8011 22.0172 36.9931
868 1 49.1956 1.7945 34.2405
869 1 53.7497 26.5195 52.4347
870 1 33.3189 24.7025 20.8525
871 1 10.2778 27.7637 15.0677
872 1 53.4574 37.845 40.6035
873 1 12.531 39.536 31.7863
874 1 54.1378 46.1953 1.08838
875 1 41.6452 29.5571 48.113
876 1 0.0323878 16.5196 31.2469
877 1 0.254454 27.3997 22.5792
878 1 4.6004 35.8354 20.1898
879 1 10.6261 13.9736 31.0444
880 1 51.9354 11.5089 1.81722
881 1 31.4866 13.2731 48.1551
882 1 44.7549 22.3387 52.4602
883 1 26.3705 13.9791 13.7456
884 1 51.6003 54.5147 36.5028
885 1 29.8667 23.0737 1.14968
886 1 39.3523 47.8687 2.27789
887 1 7.07346 15.7863 19.7883
888 1 2.82224 30.1491 46.9963
889 1 46.0731 7.48313 34.3799
890 1 54.5972 2.90283 6.33419
891 1 53.0163 20.5885 37.5444
892 1 40.5899 53.905 20.5172
893 1 14.6118 51.5895 33.9413
894 1 9.29885 41.2264 9.77142
895 1 3.8474 49.5404 40.4111
896 1 2.81602 40.713 17.7616
897 1 27.9856 53.1087 10.4577
898 1 41.1612 35.3859 42.4156
899 1 16.6787 19.1972 32.2013
900 1 9.00346 27.8542 2.02366
901 1 34.0849 37.478 41.9014
902 1 25.5631 46.04 25.9892
903 1 3.70567 26.5072 8.75446
904 1 35.7914 35.6865 11.6748
905 1 27.9325 30.1548 22.4106
906 1 17.4244 36.1794 7.38691
907 1 35.2588 50.4476 13.9133
908 1 1.29248 6.32167 35.1476
909 1 40.3415 2.90018 42.571
910 1 52.3806 38.3168 7.12636
911 1 12.7174 8.67929 24.9055
912 1 17.0413 18.5591 36.8063
913 1 3.97281 45.1762 5.94575
914 1 53.1576 51.6323 30.9632
915 1 18.1339 21.3216 39.3091
916 1 28.4674 26.3385 40.2853
917 1 35.2008 55.8166 4.32784
918 1 50.5672 34.5047 14.8393
919 1 48.6151 40.9241 38.3124
920 1 12.1729 38.8347 38.6066
921 1 31.8324 54.9757 11.2545
922 1 17.5038 41.6693 32.0121
923 1 49.9839 5.53805 38.8008
924 1 0.433629 11.4092 16.5552
925 1 45.1052 55.8395 4.84437
926 1 27.8065 49.811 51.5035
927 1 52.5819 49.1843 43.31
928 1 42.3809 11.9952 12.5155
929 1 49.9554 32.8656 7.29348
930 1 38.5062 0.910141 19.7855
931 1 16.5997 25.3655 31.5472
932 1 12.7577 48.4664 52.4198
933 1 30.4341 7.06034 44.0482
934 1 24.847 51.5712 54.6974
935 1 5.46037 39.2527 54.9192
936 1 7.59203 32.7497 12.0348
937 1 36.6957 1.08265 43.2932
938 1 36.1892 5.98245 40.4224
939 1 5.58874 29.273 15.7625
940 1 7.54693 39.2331 52.9873
941 1 36.4706 6.34257 35.3692
942 1 15.0922 46.4218 45.3238
943 1 33.6487 36.4912 34.406
944 1 9.12141 41.3756 15.9063
945 1 44.7102 21.0169 44.338
946 1 9.7094 42.8953 44.3049
947 1 41.5282 31.0637 40.6054
948 1 15.4414 55.6365 44.0197
949 1 50.0187 49.7051 15.3222
950 1 39.1586 27.5871 50.5175
951 1 15.0536 43.1345 53.9223
952 1 43.818 0.856021 48.5037
953 1 25.7272 22.2256 50.7545
954 1 11.0284 45.7957 40.6566
955 1 13.1107 21.8947 15.4406
956 1 11.9363 20.3765 8.30761
957 1 46.8648 43.8745 51.0361
958 1 8.44207 25.4091 36.312
959 1 31.2665 49.9299 35.8625
960 1 53.8476 13.886 12.2485
961 1 37.1074 41.4364 42.7792
962 1 54.8802 6.23013 18.7558
963 1 7.59353 30.1882 47.2386
964 1 25.4657 14.5618 44.3202
965 1 15.3865 30.536 35.7172
966 1 24.8384 42.6256 31.4055
967 1 8.35722 8.39676 11.5526
968 1 42.6107 9.48342 53.8268
969 1 32.1895 37.1443 50.5336
970 1 31.3929 17.0853 15.7453
971 1 47.4085 5.16094 42.6
972 1 50.4532 6.89981 52.0223
973 2 45.1465 4.31658 25.4787
974 2 46.1499 39.3346 35.1013
975 2 53.5611 39.0354 27.8286
976 2 17.4726 30.6418 49.9318
977 2 52.9046 36.3488 16.1232
978 2 52.427 36.2112 19.8508
979 2 33.0551 42.3666 40.5783
980 2 55.0428 6.39169 44.9234
981 2 36.5112 11.9205 9.9763
982 2 54.3649 29.6474 49.2508
983 2 12.2281 31.4125 1.45138
984 2 46.4156 22.7363 34.4123
985 2 52.1252 2.27965 12.9725
986 2 7.40812 18.5599 37.997
987 2 20.1743 6.49201 5.24094
988 2 2.36965 26.9252 51.8684
989 2 39.9373 27.8694 32.4165
990 2 54.2143 9.8283 14.9369
991 2 23.0339 21.3043 17.8301
992 2 15.9912 15.9332 54.8641
993 2 1.39294 15.6943 56.0974
994 2 53.5678 22.9475 35.3567
995 1 54.2083 3.31145 43.6878
996 1 50.9792 25.1476 46.9436
997 1 24.545 2.04229 48.1617
998 1 3.46796 49.5081 27.2465
999 1 25.4057 51.2536 52.1279
1000 1 19.6446 8.84236 47.813
1001 1 30.9466 30.7158 36.7511
1002 1 52.6497 26.4706 8.27213