ITEM: TIMESTEP
0
ITEM: NUMBER OF ATOMS
9088
ITEM: BOX BOUNDS pp pp pp
-2.6837241783346105e-01 5.6152865043687562e+01
-2.6837241783346105e-01 5.6152865043687562e+01
-2.6837241783346105e-01 5.6152865043687562e+01
ITEM: ATOMS id type x y z
1 1 28.434 41.9477 49.1909
2 1 44.1428 4.40012 36.668
3 1 43.558 13.7339 46.1876
4 1 37.0563 49.0877 43.9535
5 1 11.3723 34.3031 8.14066
6 1 39.2215 27.7916 25.6177
7 1 19.8317 32.9074 1.00727
8 1 48.2778 1.17223 9.26675
9 1 55.571 50.46 40.2466
10 1 36.7943 13.254 53.5756
11 1 48.7376 35.7409 32.5447
12 1 35.8803 19.4591 36.6718
13 1 21.7762 48.8855 36.5827
14 1 19.9873 49.5226 49.9432
15 1 3.20134 36.702 30.2964
16 1 28.8573 -0.0872894 39.9047
17 1 50.6301 10.0038 27.9222
18 1 3.86308 49.7274 40.0358
19 1 30.4825 23.6935 51.8178
20 1 31.2692 2.28847 45.0371
21 1 25.4092 49.1028 50.2885
22 1 9.73195 41.6416 1.87325
23 1 21.9128 17.889 38.0406
24 1 3.70507 7.88109 55.6122
25 1 26.1026 27.2789 38.9904
26 1 19.7115 28.062 43.6347
27 1 34.5437 29.6531 54.7069
28 1 13.471 32.574 14.8897
29 1 10.7126 50.2298 40.7913
30 1 50.6059 12.6915 42.3333
31 1 32.6511 4.76031 2.49941
32 1 33.8304 5.26183 22.8887
33 1 24.3665 41.7912 2.68239
34 1 14.548 24.5591 1.90521
35 1 19.5502 53.8719 41.575
36 1 20.4386 35.9404 15.7656
37 1 23.619 56.0775 47.2185
38 1 23.4173 18.7416 1.69274
39 1 13.2981 26.1064 0.338297
40 1 8.58962 11.4124 47.8871
41 1 47.0388 40.9151 1.17407
42 1 5.39886 39.0255 14.7381
43 1 21.7961 16.8025 9.63459
44 1 50.8448 51.995 23.8625
45 1 12.9673 43.7218 55.9763
46 1 -0.0580879 17.6414 10.9962
47 1 42.4634 6.28383 32.2559
48 1 18.3467 30.2721 19.5229
49 1 4.70372 18.9408 31.8297
50 1 18.4468 19.6113 20.6447
51 1 50.3092 32.1796 30.3603
52 1 22.5574 10.2734 37.6648
53 1 52.7755 20.7397 1.09904
54 1 54.5162 20.8079 45.4854
55 1 39.7609 45.2931 29.57
56 1 12.01 24.9669 45.0362
57 1 6.79133 33.0553 34.6042
58 1 37.3739 11.2524 21.726
59 1 5.29631 30.3863 28.8796
60 1 36.1286 32.6264 54.6715
61 1 11.8457 27.0164 54.6551
62 1 52.794 22.5101 24.26
63 1 49.5448 43.3045 28.8651
64 1 22.4753 4.16873 16.0395
65 1 11.1531 42.437 48.2604
66 1 7.87468 44.8696 10.096
67 1 12.0441 43.31 53.5216
68 1 11.3029 33.7618 52.6879
69 1 37.5509 38.7795 45.8946
70 1 1.97072 27.8871 4.93264
71 1 52.0945 47.0266 28.2194
72 1 55.5115 29.4813 1.34897
73 1 30.2961 47.2598 9.68715
74 1 5.38112 34.0691 44.921
75 1 37.4681 19.542 5.12201
76 1 38.5301 23.8154 5.97536
77 1 47.798 40.2714 32.2401
78 1 34.0074 40.5095 10.6629
79 1 31.8346 23.2611 42.85
80 1 39.2928 0.36439 30.2715
81 1 17.1114 27.8159 54.346
82 1 50.4245 1.36249 23.7541
83 1 8.10803 14.838 27.7477
84 1 36.3478 2.22947 3.79138
85 1 39.744 10.6509 38.7002
86 1 34.8553 34.1999 34.7646
87 1 27.4289 10.0826 33.3113
88 1 15.7702 11.1543 12.8319
89 1 7.40572 47.8454 39.5657
90 1 1.12473 39.6021 51.6636
91 1 17.837 7.84271 21.9628
92 1 10.2904 11.9468 19.2586
93 1 38.3308 9.69485 11.2393
94 1 35.7337 34.2941 29.0846
95 1 40.7871 24.3676 18.7548
96 1 6.99565 -0.0648214 13.8927
97 1 3.52052 8.75382 32.7853
98 1 20.4326 14.9656 31.5969
99 1 42.2032 36.7657 5.37034
100 1 3.18817 5.69477 26.7529
101 1 0.580222 33.7498 47.3848
102 1 5.26863 1.52995 12.3128
103 1 41.6601 43.3803 55.9403
104 1 14.5242 54.8169 39.3698
105 1 31.6852 13.9862 10.7835
106 1 19.0298 48.4757 47.5421
107 1 34.0758 0.165124 42.6187
108 1 46.7796 17.0389 47.4373
109 1 10.0362 45.5665 16.8565
110 1 31.4671 9.20787 10.6208
111 1 34.6338 54.5746 15.2662
112 1 6.26409 6.12916 12.7089
113 1 29.0022 33.3871 11.4309
114 1 24.4465 16.9214 40.0377
115 1 42.84 35.032 31.3282
116 1 32.1111 5.83281 37.9766
117 1 -0.0173404 12.4812 40.625
118 1 4.44313 44.6868 32.2117
119 1 36.4027 36.2393 34.0924
120 1 14.9306 1.84815 40.0025
121 2 12.0094 39.0902 35.4216
122 2 51.5365 18.8479 12.726
123 2 55.2641 46.7372 20.9348
124 2 52.563 29.7267 19.7919
125 2 53.9153 35.6439 38.5082
126 2 25.1601 7.50132 17.67
127 2 12.1884 51.4171 15.7231
128 2 7.5796 30.1116 35.5395
129 2 55.4804 17.662 7.67116
130 2 1.35264 21.2282 45.8031
131 2 52.3189 11.857 47.2828
132 2 39.2146 46.4951 17.8951
133 2 34.8788 42.9077 15.859
134 2 15.2267 5.10902 9.00026
135 2 42.6478 33.8483 3.74254
136 2 9.79846 0.635366 32.1551
137 2 40.7722 24.3812 46.4437
138 2 5.51003 4.40922 49.3
139 2 31.052 14.6866 13.7036
140 2 45.3562 27.4489 38.8642
141 2 8.03548 38.194 23.0167
142 2 29.8329 23.3216 40.3895
143 1 47.1392 19.6713 46.0984
144 1 29.433 17.5959 13.5217
145 1 54.1762 12.354 6.47679
146 1 52.2134 26.8664 15.3795
147 1 29.1919 27.8744 32.9376
148 1 26.6491 8.5189 40.6424
149 1 46.5626 6.2371 44.7402
150 1 25.1819 25.4236 9.60768
151 1 50.0458 24.8482 53.9262
152 1 10.199 33.5543 45.2648
153 1 49.8183 48.4884 29.7896
154 1 43.2587 41.8211 30.7886
155 1 32.2406 18.5145 10.3412
156 1 7.75638 33.2663 9.58987
157 1 51.3412 34.1022 22.3167
158 1 37.5479 4.91164 -0.0149794
159 1 54.9782 48.4056 13.8457
160 1 49.3707 2.75402 2.49315
161 1 10.6186 25.3344 21.7341
162 1 12.9775 12.7802 44.224
163 1 19.9351 21.3055 26.5846
164 1 55.7863 38.414 12.2158
165 1 51.6458 36.1174 6.90294
166 1 45.1018 41.8481 14.9503
167 1 31.4369 39.9267 46.3271
168 1 44.2772 7.6451 49.4038
169 1 27.4465 48.3774 41.0525
170 1 39.5804 34.0398 47.5892
171 1 28.8699 35.1162 24.77
172 1 21.6414 43.9295 28.445
173 1 14.095 40.1562 10.109
174 1 35.4149 1.73343 32.4582
175 1 18.4256 27.8694 16.3219
176 1 39.5036 37.0967 6.92921
177 1 10.2038 4.78862 25.042
178 1 11.8899 7.97768 13.6617
179 1 27.3134 44.4769 48.4042
180 1 55.3236 26.8268 8.3754
181 1 48.7331 43.0342 31.4912
182 1 49.5541 30.1299 52.6298
183 1 13.2654 20.013 3.65234
184 1 25.7521 52.657 11.9769
185 1 33.4642 10.1261 34.4119
186 1 43.6004 26.4685 26.9114
187 1 2.02267 6.79115 53.4217
188 1 28.5102 39.2532 3.74669
189 1 13.4991 41.3465 34.0515
190 1 35.6827 48.7407 21.948
191 1 18.9925 20.4626 45.0937
192 1 52.7553 55.1444 6.95995
193 1 37.0071 8.34835 13.6848
194 1 35.7624 4.02348 30.8348
195 1 17.8658 25.4642 49.1974
196 1 35.067 5.48263 26.2857
197 1 6.83704 9.03497 49.4142
198 1 12.6002 18.1137 29.7586
199 1 31.2595 18.8632 2.86241
200 1 39.7806 20.7319 41.4522
201 1 26.7382 12.8368 15.9664
202 1 39.5997 2.1377 2.38096
203 1 31.3252 27.8172 37.122
204 1 41.0392 27.1862 19.1282
205 1 7.94723 12.3614 2.82429
206 1 39.4063 25.4517 24.3051
207 1 0.26421 45.3432 45.8049
208 1 32.2425 4.90622 10.6241
209 1 47.7168 6.64931 47.1795
210 1 27.4346 21.468 41.7731
211 1 8.75352 5.63809 21.9611
212 1 43.3368 27.5793 43.207
213 1 22.5899 12.4666 51.1972
214 1 1.00359 37.4944 2.73519
215 1 11.9677 30.3609 24.3834
216 1 0.173673 24.6886 51.1888
217 1 22.0424 8.72585 35.4969
218 1 1.6144 9.55069 54.5007
219 1 43.9329 51.7229 5.78035
220 1 47.3989 5.14656 42.1885
221 1 30.7748 0.560001 17.0997
222 1 2.0069 7.36035 21.4721
223 1 26.2216 43.8558 3.10619
224 1 41.9828 7.39683 26.1158
225 1 43.8864 48.9809 38.3082
226 1 12.7934 42.0389 25.4218
227 1 20.1961 45.7045 33.3611
228 1 55.9907 20.4583 52.8834
229 1 11.2683 26.4988 42.9004
230 1 30.9568 30.1148 41.3938
231 1 31.7099 35.3909 25.0464
232 1 40.959 16.9134 17.763
233 1 50.7512 50.3614 37.8136
234 1 10.8785 14.1845 51.3228
235 1 41.6756 18.4052 42.1109
236 1 6.77692 47.6275 29.657
237 1 52.5997 29.7919 23.3902
238 1 35.8644 0.241228 1.04265
239 1 33.4994 28.7529 5.93957
240 1 9.40982 32.8167 51.0288
241 1 20.2449 49.0698 10.762
242 1 32.9213 11.1671 2.78418
243 1 7.56409 24.1599 33.5907
244 1 56.0713 42.8827 7.61745
245 1 1.5006 28.0428 19.7203
246 1 54.2912 5.58104 5.62955
247 1 54.4451 49.2416 11.0634
248 1 43.9292 0.35161 45.6161
249 1 10.3305 44.7917 49.1613
250 1 23.3053 24.5561 18.195
251 1 18.4585 38.2537 1.69658
252 1 47.9513 16.9217 38.7898
253 1 2.75569 26.9897 48.5432
254 1 11.5895 7.65606 33.0973
255 1 54.9191 9.14523 17.8662
256 1 30.9888 47.2863 24.5938
257 1 1.34634 12.4383 35.0422
258 1 32.996 18.6657 27.6817
259 1 45.6745 45.798 55.1025
260 1 24.9805 41.7416 34.0379
261 1 32.1823 10.3641 39.5953
262 1 33.3726 50.0087 9.71954
263 2 43.9331 24.9852 29.5867
264 2 25.5991 47.1061 1.71203
265 2 50.0795 7.19579 49.3741
266 2 6.92065 24.4843 38.7538
267 2 14.7938 21.2301 1.15726
268 2 4.58499 2.97702 24.9284
269 2 15.1082 2.43312 16.5116
270 2 44.3201 43.5334 53.8205
271 2 53.9024 44.844 26.2502
272 2 33.0608 40.2257 13.8726
273 2 33.3297 5.74803 34.7952
274 2 52.9662 27.0396 30.5245
275 2 27.0913 6.80249 53.116
276 2 56.142 13.8614 4.11016
277 2 1.28309 43.2242 39.4106
278 2 11.7127 34.4917 18.627
279 2 43.8542 51.5872 46.4245
280 2 19.7784 55.3102 22.2183
281 2 41.187 16.8976 14.4021
282 2 15.2476 28.624 8.04719
283 2 46.8302 47.8812 28.9272
284 2 16.784 26.9898 34.9272
285 1 4.99689 35.1588 6.01699
286 1 49.7383 34.4606 20.2536
287 1 44.2289 1.85449 35.58
288 1 25.3813 18.6286 29.7132
289 1 20.3395 29.1867 6.294
290 1 50.7433 13.0085 23.6891
291 1 18.1765 43.7751 34.3413
292 1 40.8163 5.63251 44.1989
293 1 54.659 19.6855 55.6254
294 1 30.8853 32.8322 41.6293
295 1 47.4436 25.4685 30.0026
296 1 12.1911 32.1328 35.3365
297 1 48.2868 14.0696 33.8779
298 1 30.9267 22.0839 13.2053
299 1 31.7315 18.6135 17.4253
300 1 24.6156 31.8391 9.64195
301 1 24.9045 49.8669 22.9261
302 1 46.3299 33.4512 25.8345
303 1 54.2886 3.48811 1.51394
304 1 15.8747 35.1254 51.8589
305 1 25.6185 38.4308 22.7999
306 1 28.7345 52.3047 32.5771
307 1 5.33291 39.8458 32.2514
308 1 39.8215 53.6019 45.7604
309 1 49.6408 30.8247 28.1297
310 1 10.3725 53.3114 38.5319
311 1 38.4964 35.1578 5.35837
312 1 10.2697 7.70853 25.8428
313 1 4.98416 55.6224 18.0975
314 1 29.1208 47.5206 53.2562
315 1 4.61162 6.31878 14.894
316 1 44.1002 10.5485 10.649
317 1 30.4424 31.9093 39.0117
318 1 5.73349 23.2473 11.3652
319 1 3.54176 2.16307 18.1897
320 1 18.7814 33.8648 25.2531
321 1 26.139 38.628 33.9973
322 1 55.0496 21.7251 22.811
323 1 11.3054 10.7646 32.8809
324 1 18.5706 8.89438 32.3776
325 1 21.4741 46.077 43.0779
326 1 16.8157 32.1583 41.2854
327 1 12.8414 9.08686 35.1709
328 1 0.0419145 8.18613 36.8301
329 1 4.11268 25.628 44.9399
330 1 7.67454 30.8305 30.2705
331 1 15.9931 39.1772 52.4526
332 1 0.593181 44.3538 12.0674
333 1 16.278 10.7864 9.98502
334 1 33.7013 34.6148 22.6982
335 1 35.3832 13.349 51.0226
336 1 49.7856 21.4156 13.0542
337 1 0.786087 33.8728 7.79644
338 1 9.35141 22.8046 22.3227
339 1 14.6448 22.5537 47.5146
340 1 25.1952 23.4147 26.3399
341 1 26.5821 51.1155 24.9535
342 1 55.9962 26.8569 17.3415
343 1 36.0477 14.0009 27.7613
344 1 33.227 15.7983 11.6155
345 1 48.9376 16.7476 4.05978
346 1 0.154051 6.63027 23.7318
347 1 19.9745 18.1688 11.1409
348 1 12.8353 10.2719 22.928
349 1 4.12769 36.912 10.6133
350 1 52.5836 54.9164 53.4195
351 1 44.8339 35.7356 5.66724
352 1 18.8309 8.18203 52.0117
353 1 24.1946 34.7422 53.9275
354 1 46.5857 37.1927 39.6839
355 1 48.701 28.4568 38.6034
356 1 9.5631 39.8629 42.9117
357 1 20.229 49.9189 52.951
358 1 21.7257 24.0163 37.115
359 1 29.0086 44.9052 46.2382
360 1 16.5554 38.0629 45.5707
361 1 40.0548 22.3339 44.0771
362 1 0.00503414 54.0216 1.89678
363 1 44.1373 17.9351 14.4401
364 1 40.8562 0.648711 32.7716
365 1 38.8117 43.4799 7.46321
366 1 15.4429 34.5302 14.7154
367 1 52.1819 45.4101 40.4325
368 1 40.5017 45.1177 26.5976
369 1 33.3321 14.3837 15.9094
370 1 3.37421 40.7556 50.8681
371 1 19.4791 27.8161 49.1934
372 1 13.2849 21.9508 33.9445
373 1 21.3867 55.9058 37.9977
374 1 47.0727 50.5669 2.51227
375 1 4.12888 53.0939 35.3668
376 1 43.296 49.1932 24.8814
377 1 5.32491 25.9558 1.28833
378 1 29.1334 52.7437 21.2965
379 1 51.2911 39.3209 20.5537
380 1 11.0819 12.7438 26.8534
381 1 26.2471 50.3656 28.8589
382 1 55.1187 22.9739 8.63777
383 1 12.5956 23.4995 22.8143
384 1 49.4135 16.6048 32.7971
385 1 29.7809 8.95688 19.6252
386 1 36.2509 38.7494 23.2546
387 1 19.8677 35.86 37.497
388 1 24.2866 6.87247 40.1484
389 1 27.0549 10.9029 14.1824
390 1 45.4452 48.8914 31.6115
391 1 6.9934 9.4778 6.58486
392 1 48.3474 48.8964 37.4132
393 1 3.20689 27.6528 0.818182
394 1 3.03609 38.0455 46.7436
395 1 55.1035 7.48229 48.2271
396 1 14.9755 5.19643 24.4005
397 1 49.6397 26.0291 22.4042
398 1 25.7833 26.9052 0.722576
399 1 6.79265 54.3682 41.7314
400 1 35.8128 42.7975 27.2981
401 1 18.2609 30.8037 24.8203
402 1 31.4275 48.0083 43.6021
403 1 13.186 42.8336 28.1366
404 1 26.695 34.9724 45.6671
405 2 19.9318 8.18643 14.1794
406 2 36.0402 31.1178 7.5072
407 2 34.4308 13.1075 13.0256
408 2 24.6329 49.6714 12.7904
409 2 47.019 0.332833 16.6144
410 2 36.9876 49.0273 16.3234
411 2 5.55715 41.4543 16.8839
412 2 53.4422 9.01725 35.9191
413 2 31.2646 21.5924 45.586
414 2 12.3604 35.0938 47.5802
415 2 55.9841 51.5167 8.86498
416 2 51.9498 42.8424 55.1837
417 2 44.3538 5.03251 10.0955
418 2 7.36523 36.0238 11.2348
419 2 15.6604 54.511 22.3797
420 2 23.6737 23.3678 23.4892
421 2 41.2129 49.7528 9.56175
422 2 32.0153 16.1484 8.13007
423 2 8.10913 0.361198 43.2017
424 2 52.4564 10.3578 4.81457
425 2 47.7746 52.1941 38.7946
426 2 37.4027 8.23873 38.3663
427 1 29.5323 30.0901 -0.039828
428 1 56.1118 50.9034 54.6841
429 1 55.6366 27.6971 51.1056
430 1 52.2677 55.0771 9.93189
431 1 20.251 47.6944 26.1771
432 1 42.6419 7.95797 6.6687
433 1 39.0302 21.9171 15.1523
434 1 14.7996 18.2076 52.9542
435 1 23.0491 51.8864 8.51176
436 1 32.2516 31.9913 48.3972
437 1 26.1391 24.164 33.7121
438 1 46.6278 2.90119 35.4661
439 1 1.35349 37.9765 54.4274
440 1 7.24408 23.6197 28.2716
441 1 22.5294 14.1733 10.863
442 1 42.6106 18.803 16.8187
443 1 42.1087 10.1242 27.3186
444 1 51.5802 42.0113 47.6639
445 1 5.02586 14.9618 17.6784
446 1 38.8751 31.7856 39.6871
447 1 20.8393 51.752 10.1647
448 1 35.0278 6.30177 45.5164
449 1 54.1281 7.08581 28.804
450 1 47.3328 33.6141 2.38221
451 1 27.5848 49.3677 14.0637
452 1 51.2614 17.2171 19.0844
453 1 7.08784 19.883 32.5842
454 1 5.52448 35.4741 52.0636
455 1 5.8291 23.359 25.8121
456 1 46.195 3.79795 51.7316
457 1 53.6531 38.9047 18.5285
458 1 27.3566 20.2218 36.707
459 1 2.76808 34.4395 9.71562
460 1 26.5926 0.529294 38.7687
461 1 8.16323 16.7494 17.1515
462 1 48.6499 27.6715 9.32521
463 1 15.2638 2.47571 7.44923
464 1 31.3412 52.7749 22.71
465 1 7.37161 46.547 17.5474
466 1 4.74107 47.8412 5.42441
467 1 47.4556 11.2701 38.008
468 1 44.9974 54.3511 7.05138
469 1 15.0089 41.2752 23.3716
470 1 28.6278 0.31114 15.2784
471 1 26.931 9.80535 3.34271
472 1 15.7103 34.5893 28.8204
473 1 48.7753 38.5475 46.6025
474 1 39.8118 12.2116 16.6011
475 1 22.7326 25.2624 20.8834
476 1 12.0432 21.7161 40.523
477 1 49.0742 3.35007 37.0208
478 1 41.5814 7.72513 13.5839
479 1 55.4289 25.8506 35.2904
480 1 41.1127 8.43924 3.79901
481 1 25.7206 1.35684 51.0864
482 1 30.0286 36.8659 22.8771
483 1 46.4978 19.5198 34.0571
484 1 5.91587 37.2586 7.40586
485 1 18.3675 45.2738 25.2989
486 1 47.0889 8.20726 42.6582
487 1 21.0391 12.6017 21.9506
488 1 4.80881 48.4051 21.127
489 1 2.69171 44.4498 13.9094
490 1 24.5278 49.7573 26.147
491 1 13.1468 29.6973 47.2734
492 1 26.9854 24.5827 41.7648
493 1 44.33 30.3003 33.8217
494 1 4.55385 54.6997 13.5183
495 1 11.7784 33.7889 13.2218
496 1 39.1302 17.6634 37.4346
497 1 7.2996 17.2602 31.89
498 1 20.0396 20.4406 8.87829
499 1 33.9502 29.5396 20.2048
500 1 51.76 3.39338 36.1616
501 1 16.0731 50.7934 43.5543
502 1 50.8879 43.1919 7.08085
503 1 42.3004 20.9546 42.8514
504 1 40.2361 47.225 32.2147
505 1 38.5412 27.9009 3.6802
506 1 22.3419 27.4007 42.2182
507 1 53.4329 54.9015 32.1821
508 1 10.6054 42.8914 17.6084
509 1 53.4204 29.2269 8.32322
510 1 30.5735 0.677123 3.77712
511 1 50.1354 5.48629 6.24157
512 1 14.3141 50.5578 12.6696
513 1 27.9323 29.868 28.32
514 1 28.269 27.8529 21.09
515 1 29.4398 12.4854 27.4351
516 1 5.05251 40.3779 37.1985
517 1 15.4874 3.41744 0.15617
518 1 24.1743 11.7983 13.4162
519 1 7.9718 11.9028 45.1558
520 1 35.7935 17.6805 4.66683
521 1 45.6816 25.0543 32.4134
522 1 7.14102 17.2586 0.950257
523 1 38.7156 1.77383 25.7714
524 1 40.028 51.956 32.1114
525 1 25.7897 41.7478 22.473
526 1 26.4486 15.7271 30.6196
527 1 28.9702 54.6722 23.2525
528 1 2.58249 6.71887 6.34574
529 1 40.1693 8.09979 33.7333
530 1 38.1338 16.4642 18.6492
531 1 44.8132 8.13745 44.0433
532 1 35.1139 9.79522 11.7421
533 1 43.0927 6.32131 20.4329
534 1 19.4503 35.5127 20.3887
535 1 42.7975 55.8957 38.6153
536 1 38.6276 23.7361 17.3724
537 1 18.9871 22.0818 20.917
538 1 6.73015 27.3756 2.82927
539 1 28.639 37.8591 33.2134
540 1 48.0792 12.0378 16.0066
541 1 42.649 5.68905 7.79582
542 1 33.219 47.8366 35.7253
543 1 37.9243 45.0172 35.0147
544 1 31.7768 34.7519 15.4997
545 1 51.8554 24.6242 5.75572
546 1 23.4771 50.8696 41.1476
547 2 15.2273 40.4755 26.6397
548 2 12.8488 46.531 1.49922
549 2 34.7957 47.7573 25.3823
550 2 55.5247 51.5648 13.0295
551 2 52.6022 7.17983 16.6843
552 2 9.98022 6.81637 35.4588
553 2 37.6061 9.96046 16.8108
554 2 23.3262 5.53123 53.0416
555 2 14.6983 12.9054 21.7401
556 2 12.4306 41.5073 43.0057
557 2 13.6266 5.51197 33.8479
558 2 17.4735 33.0072 3.43126
559 2 40.0622 17.0342 21.037
560 2 5.14031 16.3506 29.26
561 2 38.591 12.6065 51.1377
562 2 3.87379 19.6016 28.3935
563 2 30.1714 46.7827 34.9901
564 2 16.8624 4.95027 39.7415
565 2 19.8445 22.3851 34.9154
566 2 31.1582 13.3134 38.9199
567 2 44.6188 38.5235 0.646147
568 2 43.2559 18.2061 20.1453
569 1 14.6045 1.70148 19.2995
570 1 52.5619 36.6713 49.4019
571 1 21.1004 13.9372 3.09382
572 1 46.4246 15.0868 53.6023
573 1 16.3725 14.2384 27.8215
574 1 30.5862 46.273 16.8675
575 1 29.7483 49.6671 42.0471
576 1 13.8409 0.131822 11.6562
577 1 1.84632 6.47393 15.4735
578 1 55.3544 39.897 44.5244
579 1 34.4043 45.2707 48.1015
580 1 17.9258 29.2427 6.70131
581 1 37.7576 10.3611 28.9749
582 1 11.9693 41.8837 38.0192
583 1 45.3561 25.3704 18.1849
584 1 29.9082 40.548 30.0363
585 1 33.2839 8.18065 23.0766
586 1 55.4112 0.256802 31.0783
587 1 10.6369 1.59233 7.43981
588 1 8.7664 44.0507 46.9164
589 1 34.2968 47.6534 50.237
590 1 1.78759 9.04737 7.77748
591 1 12.9504 9.24895 31.2944
592 1 52.974 33.2501 6.61885
593 1 18.7307 24.7092 33.623
594 1 2.80108 42.4017 41.838
595 1 34.4325 11.8525 44.0303
596 1 3.28165 4.91212 38.9965
597 1 28.8016 51.7362 7.81224
598 1 48.6118 47.3045 25.8658
599 1 5.30935 3.97108 13.471
600 1 11.3696 32.1322 4.18869
601 1 22.0313 42.4104 54.1356
602 1 2.74749 42.2389 15.481
603 1 26.3818 35.5076 52.2985
604 1 5.19797 21.9294 29.9987
605 1 27.9277 46.6612 30.4697
606 1 28.5429 49.1347 29.2536
607 1 38.8079 14.3915 33.8413
608 1 46.5098 18.3362 49.9811
609 1 33.9365 30.2618 12.7418
610 1 43.5838 5.56958 44.9334
611 1 21.0217 44.8064 30.9543
612 1 17.7916 46.8356 45.5347
613 1 3.25216 51.6236 0.762999
614 1 53.8285 33.5555 10.8189
615 1 5.72283 42.8317 41.842
616 1 39.4734 8.12505 48.7066
617 1 16.5643 11.6242 51.7661
618 1 5.32671 55.5133 54.0391
619 1 36.9314 11.3341 26.783
620 1 30.2777 28.5175 27.0238
621 1 53.0896 8.95951 27.0363
622 1 3.73709 29.7385 44.2282
623 1 15.1464 44.4722 12.1982
624 1 27.656 9.13932 55.239
625 1 10.084 14.7317 25.3894
626 1 35.7528 25.5209 21.9372
627 1 34.1303 36.547 55.8968
628 1 31.7634 10.0542 17.4374
629 1 42.1151 47.1523 10.8877
630 1 36.3893 1.89487 17.6839
631 1 43.6904 29.194 13.9098
632 1 4.62556 32.2441 27.0901
633 1 16.0821 6.17459 49.6578
634 1 48.0872 45.7174 17.8614
635 1 29.221 44.7603 20.8097
636 1 6.0421 6.85518 17.2419
637 1 0.714335 15.0906 39.9976
638 1 32.5612 47.5167 55.8023
639 1 28.815 5.07703 4.56667
640 1 21.6293 53.0639 6.33687
641 1 55.6748 47.7566 35.796
642 1 53.6126 18.5148 10.1121
643 1 41.7313 27.498 24.6694
644 1 20.2331 42.675 45.9658
645 1 0.409459 19.2995 41.1582
646 1 13.0938 31.0702 12.5368
647 1 3.27004 29.4046 8.59832
648 1 18.3074 15.5121 7.42627
649 1 20.8246 20.2687 19.7715
650 1 15.3288 4.05208 3.14669
651 1 30.1244 33.353 33.4645
652 1 48.9869 14.9048 40.6775
653 1 51.8518 30.7414 51.4132
654 1 29.4925 34.4461 0.0836615
655 1 40.8905 4.27197 30.1109
656 1 36.8051 52.14 40.1609
657 1 55.9192 34.6474 20.8174
658 1 24.9164 8.2592 54.8913
659 1 38.7476 40.1955 50.5195
660 1 1.62437 44.4758 6.69545
661 1 46.0868 36.3083 12.87
662 1 15.8764 41.0046 44.5142
663 1 19.1716 37.3831 35.2605
664 1 53.6282 16.9307 23.7949
665 1 34.3098 42.7705 23.0258
666 1 15.141 9.14903 26.4922
667 1 36.0609 16.5958 28.3141
668 1 45.6408 12.167 46.4051
669 1 50.8339 22.9414 15.0869
670 1 50.4751 -0.123749 7.92114
671 1 32.7979 4.33178 25.0552
672 1 1.77361 18.7633 8.93951
673 1 11.5992 4.12233 35.656
674 1 45.8758 51.6912 7.52971
675 1 23.4208 7.5413 32.7612
676 1 56.0751 15.3555 23.0798
677 1 55.6032 35.9528 54.1164
678 1 15.7269 55.7805 17.9216
679 1 52.6915 12.5029 21.9637
680 1 28.1503 32.2292 46.0169
681 1 55.9861 26.4078 48.897
682 1 7.25666 3.22579 44.9563
683 1 43.1612 12.5469 20.8299
684 1 38.37 32.4149 37.1622
685 1 22.5153 54.6842 15.0591
686 1 44.5256 14.9839 10.9868
687 1 47.0872 55.5991 28.174
688 1 20.4437 7.32927 33.4927
689 2 21.8798 49.5904 24.0284
690 2 30.2025 50.3446 9.99077
691 2 34.087 26.9827 38.961
692 2 8.31824 42.1618 49.4626
693 2 45.1055 48.5324 22.6027
694 2 2.88463 51.5743 54.0248
695 2 17.4768 14.964 45.3844
696 2 16.3493 40.7922 8.34193
697 2 1.4502 18.2993 36.1307
698 2 17.1533 18.7679 6.96625
699 2 44.894 11.457 39.8968
700 2 38.4328 4.63821 3.62881
701 2 53.5014 27.3922 5.46649
702 2 36.0246 28.6484 27.0487
703 2 48.9518 45.9156 44.1554
704 2 54.3073 12.7522 17.5609
705 2 2.29275 36.713 7.78692
706 2 2.13778 40.353 44.6039
707 2 47.7381 17.2394 18.8323
708 2 43.2745 54.8871 0.407712
709 2 44.014 30.4593 42.3096
710 2 53.0618 48.4956 30.9771
711 1 36.9556 1.74083 46.044
712 1 18.4248 30.1256 52.9288
713 1 1.26861 49.4764 44.0145
714 1 37.6191 30.1811 24.9761
715 1 0.915003 11.1935 44.6014
716 1 2.6071 15.4927 51.215
717 1 47.5066 1.02793 3.40724
718 1 4.66714 41.7904 55.8817
719 1 42.1087 16.9205 52.5437
720 1 19.0549 16.4245 13.5821
721 1 31.1821 6.44491 5.10701
722 1 31.8232 37.8667 55.2769
723 1 19.4896 14.9859 15.8908
724 1 48.2849 37.2086 53.657
725 1 13.2425 45.8397 34.6341
726 1 31.5149 39.5408 42.5415
727 1 35.005 50.8573 14.2621
728 1 28.0445 0.677867 55.5183
729 1 40.0313 5.65488 54.7235
730 1 6.39277 6.24884 35.7153
731 1 54.148 11.1249 20.0976
732 1 12.6107 1.06225 14.7435
733 1 35.6321 52.8817 55.4167
734 1 37.1396 43.4729 17.7753
735 1 40.2764 9.48331 1.448
736 1 51.8905 19.1177 50.6422
737 1 31.2112 41.7596 27.6763
738 1 0.745222 11.7717 6.31534
739 1 23.1629 21.247 3.082
740 1 40.3392 35.6786 49.5436
741 1 54.2921 9.69748 32.7699
742 1 19.0309 40.1307 6.2952
743 1 44.7608 29.1464 27.1272
744 1 33.6857 55.5615 40.2534
745 1 45.0166 12.3187 12.9881
746 1 20.5297 17.7722 20.957
747 1 0.526139 3.20016 36.2973
748 1 45.3166 52.5995 0.874477
749 1 17.0662 12.8916 42.5265
750 1 21.8921 16.5829 2.82668
751 1 18.7659 32.7693 33.5874
752 1 14.6896 48.386 38.6036
753 1 20.0505 9.53875 43.5938
754 1 36.315 54.2342 26.6272
755 1 28.977 18.6417 16.0545
756 1 31.4497 49.1815 53.7529
757 1 6.86634 21.9156 23.4819
758 1 55.0443 27.3151 20.1914
759 1 45.1755 7.12811 18.3681
760 1 18.9977 32.5097 54.5153
761 1 50.9911 14.8126 47.6025
762 1 30.3225 52.7818 12.1575
763 1 24.3727 17.8284 8.78304
764 1 18.3806 13.1996 21.3272
765 1 42.2689 20.1167 40.291
766 1 21.9321 28.1626 8.32637
767 1 4.32078 48.7995 23.7015
768 1 26.0016 22.0388 35.4785
769 1 18.2553 48.5721 54.6434
770 1 19.2407 3.67857 4.6781
771 1 11.8361 38.75 44.1121
772 1 29.5285 12.869 52.5258
773 1 10.0529 16.14 45.8078
774 1 33.468 2.11949 26.9033
775 1 46.3021 41.7009 30.0494
776 1 25.2587 55.6853 21.9918
777 1 45.8495 48.0573 25.6865
778 1 21.7525 33.6171 47.6449
779 1 40.861 27.2278 44.4217
780 1 31.1028 47.2505 41.0309
781 1 20.1727 38.0895 25.0828
782 1 4.38867 19.1375 15.7316
783 1 50.2418 0.990369 36.8796
784 1 44.2081 27.7215 24.3863
785 1 27.8699 26.0163 48.306
786 1 15.3493 7.45201 41.8279
787 1 5.36969 30.8712 54.2302
788 1 2.1974 10.4746 37.0152
789 1 15.5734 45.8222 27.7098
790 1 51.5661 29.7404 43.6721
791 1 34.4 18.0803 25.2012
792 1 26.1443 55.2351 19.3815
793 1 2.60468 50.4821 22.3677
794 1 29.981 25.4986 28.129
795 1 55.6573 21.6936 37.0471
796 1 44.5316 12.1847 4.05174
797 1 19.0213 11.3598 14.0423
798 1 42.4925 29.2678 54.1952
799 1 16.1344 35.8068 12.1062
800 1 16.9075 30.7936 55.3441
801 1 49.0448 48.5935 10.927
802 1 21.086 15.4333 37.0208
803 1 40.1497 45.1905 39.8568
804 1 51.9024 37.0968 9.47182
805 1 38.7593 44.788 32.1353
806 1 13.1964 15.1065 37.5765
807 1 55.8298 16.2767 34.6499
808 1 49.0404 8.08136 38.577
809 1 10.4053 12.3175 1.1143
810 1 8.09333 40.7275 32.1422
811 1 33.5517 22.2072 48.3848
812 1 49.6592 17.331 42.7107
813 1 1.03247 11.4137 2.48286
814 1 45.8244 4.82622 20.0049
815 1 4.45842 8.82326 41.8727
816 1 50.0545 5.09846 35.2094
817 1 44.5567 43.9145 29.3296
818 1 54.8465 48.5988 55.2455
819 1 18.1999 37.4151 43.4249
820 1 53.1111 28.3195 38.3505
821 1 32.1469 29.7397 38.9053
822 1 0.877772 3.83688 28.7147
823 1 53.8935 46.4633 38.2018
824 1 54.2739 0.134423 28.509
825 1 17.3255 54.3433 29.7176
826 1 16.7826 50.4646 3.81821
827 1 19.8099 33.6562 22.4903
828 1 31.2062 19.9141 22.5382
829 1 49.3808 -0.165552 29.7632
830 1 51.5883 43.3273 4.2189
831 2 6.95783 40.2409 40.0022
832 2 24.1876 14.176 3.27062
833 2 20.2925 43.3064 23.5585
834 2 43.405 27.1522 46.8135
835 2 25.1155 -0.218829 27.7241
836 2 23.7412 14.3782 32.7539
837 2 15.4155 26.8911 17.4654
838 2 23.2315 42.4188 47.676
839 2 28.5523 35.1413 31.3083
840 2 19.6639 16.1616 53.3405
841 2 15.6161 27.0525 26.6808
842 2 47.4852 9.38213 45.7991
843 2 42.1945 1.36383 29.7269
844 2 31.3944 15.1222 18.4955
845 2 8.29106 51.8101 16.0372
846 2 41.2626 41.3531 48.675
847 2 48.743 55.0229 10.3673
848 2 47.7718 44.3465 25.9522
849 2 23.4646 17.42 34.988
850 2 22.3941 32.3239 44.3983
851 2 48.1429 -0.0107799 53.8522
852 2 46.5346 38.8377 20.3681
853 1 40.9008 41.2556 12.4544
854 1 30.2776 42.3404 46.6227
855 1 47.7628 26.8137 14.9458
856 1 8.95361 25.0622 29.8574
857 1 54.9679 16.9676 40.1212
858 1 14.2769 50.0331 49.0464
859 1 35.1094 24.631 40.9372
860 1 9.33085 37.8162 3.98488
861 1 52.4628 36.2246 29.3127
862 1 54.6317 30.7852 5.75439
863 1 33.4497 11.4108 10.5351
864 1 47.5668 26.6367 49.5857
865 1 14.7309 26.192 14.2313
866 1 10.6835 33.6919 0.0622474
867 1 50.8583 21.9134 37.4018
868 1 48.95 1.93276 34.5751
869 1 53.499 26.7737 52.6927
870 1 33.3133 24.5029 20.8933
871 1 10.0251 27.84 15.0837
872 1 53.1705 38.1904 40.4687
873 1 12.6705 39.504 32.0946
874 1 54.1503 45.9025 1.48255
875 1 41.5216 29.6433 48.2542
876 1 0.0388461 16.9306 31.1691
877 1 -0.0183946 27.5394 22.5446
878 1 4.3982 35.5249 20.2208
879 1 10.5478 14.1519 30.9811
880 1 51.7452 11.4635 1.94569
881 1 31.9861 13.4522 47.7443
882 1 44.9872 22.5425 52.4846
883 1 25.783 19.073 11.3596
884 1 51.3881 54.6512 36.3685
885 1 29.9646 23.2937 1.0392
886 1 39.2333 47.8448 2.0946
887 1 7.05595 15.7306 19.6378
888 1 3.05138 30.2413 46.9553
889 1 46.1936 7.69128 34.2842
890 1 54.9708 3.11879 6.47056
891 1 53.0396 20.6184 37.7463
892 1 41.5387 51.2239 15.5701
893 1 14.2362 51.3549 33.8483
894 1 8.8919 41.1523 9.8788
895 1 5.28112 47.161 34.1407
896 1 2.53225 40.6695 17.7663
897 1 28.1427 53.0946 10.1657
898 1 40.9351 35.8397 42.6045
899 1 16.6598 18.9537 32.2357
900 1 9.21653 27.6727 1.82485
901 1 33.8912 37.4741 41.8511
902 1 25.6349 46.1766 25.5473
903 1 3.79218 26.6409 8.92966
904 1 35.7798 35.5626 11.5827
905 1 28.1293 30.3665 22.0889
906 1 17.4603 36.1182 7.54704
907 1 39.1818 51.218 11.7981
908 1 1.2772 6.30591 34.7673
909 1 41.4999 4.04478 40.0675
910 1 52.8952 38.6847 7.24844
911 1 12.9496 8.59242 25.143
912 1 16.9642 18.4064 37.0102
913 1 4.26437 45.1617 5.86325
914 1 53.1734 52.1753 30.8847
915 1 16.0275 25.1061 42.5378
916 1 28.0776 26.6043 40.5767
917 1 35.0963 56.1084 4.3395
918 1 50.3852 34.7758 14.3987
919 1 48.5971 40.8276 38.3535
920 1 12.0468 38.8101 38.5184
921 1 31.776 55.0861 11.5317
922 1 17.6463 41.6243 31.8373
923 1 50.306 5.66578 38.6014
924 1 0.52758 11.5715 16.2525
925 1 45.3351 55.6506 4.56482
926 1 27.9628 49.8706 51.4779
927 1 52.6944 49.4992 43.3989
928 1 42.3686 12.1398 12.641
929 1 50.348 33.2344 7.41469
930 1 37.6981 52.3266 13.8777
931 1 16.8766 25.5256 31.7489
932 1 12.3487 48.5631 52.8381
933 1 30.8263 6.71159 44.0462
934 1 24.7105 51.5169 54.6425
935 1 5.51179 39.2925 55.2289
936 1 7.74049 32.9978 12.257
937 1 37.5589 2.75364 43.3982
938 1 36.5471 5.79091 40.709
939 1 5.31756 29.2497 15.9417
940 1 7.57082 38.6182 53.2133
941 1 36.3533 6.3369 35.5303
942 1 15.1015 46.4604 45.6466
943 1 33.4841 36.6827 34.3832
944 1 9.01248 41.3257 16.3
945 1 44.5834 20.86 44.7206
946 1 9.73042 42.5487 44.4249
947 1 41.4968 31.1433 40.7557
948 1 15.6118 55.5571 43.9678
949 1 49.9604 50.5096 15.6032
950 1 39.3454 27.537 50.7877
951 1 15.0516 43.3379 53.9749
952 1 44.2409 0.713883 48.5504
953 1 26.1121 22.3589 51.2083
954 1 11.1077 45.7457 40.5113
955 1 13.1052 22.0049 15.3378
956 1 12.2232 20.2193 8.26385
957 1 47.0712 43.7555 51.0255
958 1 10.9983 21.7325 32.6834
959 1 31.4854 49.9822 35.3877
960 1 53.6408 14.2407 12.4157
961 1 36.9616 41.4087 41.854
962 1 55.1814 6.40559 18.5654
963 1 7.70323 30.2324 47.1465
964 1 25.4819 14.6928 44.1972
965 1 15.3893 30.3849 35.962
966 1 24.9669 42.473 31.2656
967 1 10.1127 13.5057 9.67808
968 1 42.4702 9.68732 53.9502
969 1 32.1028 37.4517 50.165
970 1 31.6889 16.8395 15.6162
971 1 50.0196 4.71068 43.6787
972 1 50.4443 6.93395 52.4624
973 2 45.1947 4.40328 25.5634
974 2 46.2207 39.4556 35.3133
975 2 53.5372 39.1075 28.0315
976 2 17.4098 30.3681 49.992
977 2 52.8467 36.1967 16.1269
978 2 52.3548 36.1941 19.677
979 2 32.9829 42.3321 40.6792
980 2 54.8981 6.44966 44.7514
981 2 36.4548 11.7651 9.74799
982 2 54.2104 29.7131 49.2789
983 2 12.2847 31.2162 1.07725
984 2 46.4713 22.8646 34.294
985 2 52.1117 2.50833 13.1397
986 2 7.19861 18.5463 38.0301
987 2 20.3231 6.54557 5.1818
988 2 2.30046 26.9136 51.7377
989 2 39.7795 27.7936 32.5455
990 2 53.9888 10.0286 14.8487
991 2 22.8023 21.4425 17.9414
992 2 16.0991 15.6013 54.6454
993 2 1.46817 15.7166 55.9056
994 2 53.3131 22.8751 35.4569
995 1 54.4828 3.39691 43.8714
996 1 51.3436 25.3698 46.9823
997 1 25.0933 2.26469 48.2425
998 1 6.50595 51.5701 36.3119
999 1 25.2947 51.2258 51.9065
1000 1 19.466 8.84207 47.8753
1001 1 30.7479 30.4075 36.5495
1002 1 52.6942 26.4427 8.10284
1003 1 13.9165 29.0299 30.6949