ITEM: TIMESTEP
0
ITEM: NUMBER OF ATOMS
9088
ITEM: BOX BOUNDS pp pp pp
-2.2752447294302530e-01 5.6112017098866851e+01
-2.2752447294302530e-01 5.6112017098866851e+01
-2.2752447294302530e-01 5.6112017098866851e+01
ITEM: ATOMS id type x y z
1 1 28.2953 41.1271 49.4013
2 1 44.4591 4.50616 36.694
3 1 41.543 12.5846 50.0334
4 1 37.0782 49.1726 43.8883
5 1 11.7231 34.4008 8.10542
6 1 35.9692 25.493 21.8601
7 1 19.9942 33.2714 1.24594
8 1 48.5588 1.77311 8.98307
9 1 55.784 50.2347 39.8998
10 1 36.9477 13.4659 53.4616
11 1 48.613 35.9089 32.56
12 1 35.8435 19.4017 36.7572
13 1 21.6575 48.7059 36.8535
14 1 19.6711 49.5646 50.2326
15 1 2.84406 36.7122 30.279
16 1 26.3752 0.595438 39.1179
17 1 50.0328 9.94305 27.9485
18 1 4.10319 48.0911 36.1244
19 1 30.3453 23.9918 51.877
20 1 31.2208 2.66464 44.5029
21 1 25.2448 49.1504 50.3409
22 1 9.66347 41.5092 1.87262
23 1 21.9788 17.7588 38.1021
24 1 3.20022 7.76445 55.5085
25 1 26.2998 27.707 39.1126
26 1 19.8674 28.0959 43.3274
27 1 34.8553 29.2634 54.4772
28 1 13.4346 32.5156 14.9042
29 1 10.702 50.3403 39.7967
30 1 49.5569 8.00304 44.2852
31 1 31.035 4.94652 0.0475939
32 1 34.0682 5.32796 23.2055
33 1 24.4966 41.7917 2.49328
34 1 14.3834 24.4118 1.81075
35 1 19.9917 51.2552 40.502
36 1 16.6181 32.3862 19.0252
37 1 23.6421 -0.225017 47.3374
38 1 23.6699 21.3177 5.98116
39 1 13.2139 26.3478 0.159637
40 1 8.6494 11.2406 48.0321
41 1 46.7426 40.9749 0.976809
42 1 5.45744 38.8856 14.8053
43 1 21.9041 16.923 9.741
44 1 50.673 51.9905 23.6762
45 1 13.1469 43.7193 -0.176258
46 1 0.0471824 17.7741 11.0617
47 1 42.5359 6.35703 32.1705
48 1 18.5673 30.645 19.9248
49 1 5.02457 18.9709 31.8929
50 1 18.14 19.8193 20.5107
51 1 50.1663 32.2654 30.2166
52 1 22.3627 10.515 37.52
53 1 52.3042 20.4518 1.25669
54 1 52.0002 17.5757 42.8154
55 1 39.7866 45.1522 29.4242
56 1 11.793 24.9776 44.914
57 1 7.04819 33.2928 34.6646
58 1 37.3563 11.5165 21.6109
59 1 5.42474 30.4905 28.4921
60 1 36.2892 32.7923 54.7562
61 1 11.7152 27.0676 54.2043
62 1 52.7795 22.4048 24.3756
63 1 49.4093 43.3368 28.8331
64 1 22.4618 4.1574 16.2369
65 1 11.0484 42.4568 47.9702
66 1 7.92186 44.935 10.0474
67 1 12.1895 43.3223 53.4466
68 1 11.5848 33.6476 52.5011
69 1 37.2068 38.4371 45.9525
70 1 2.22531 27.8336 4.82651
71 1 52.1097 47.017 28.306
72 1 55.5985 29.6074 1.5782
73 1 25.6195 42.8853 7.60394
74 1 5.64737 34.3069 44.9733
75 1 37.6356 19.4915 5.39363
76 1 38.6113 23.9062 6.19549
77 1 47.6206 40.3027 32.4006
78 1 34.2607 40.3572 10.5834
79 1 31.8512 23.1417 42.8924
80 1 39.5763 0.303077 30.8361
81 1 17.289 28.2228 54.3318
82 1 50.6965 1.39539 23.9054
83 1 7.8895 14.9036 28.0194
84 1 36.39 2.1012 3.85795
85 1 39.6547 10.8633 38.6888
86 1 34.862 34.1158 34.7769
87 1 25.9207 8.43008 32.0674
88 1 16.0253 11.6199 12.8498
89 1 6.99479 47.9476 39.3362
90 1 1.18845 39.7243 51.4782
91 1 17.7899 8.00698 21.9671
92 1 10.2915 11.7312 19.3904
93 1 38.4224 9.84508 11.3311
94 1 35.8091 34.0272 28.7127
95 1 40.7275 24.2666 18.9526
96 1 7.1897 -0.191919 14.0001
97 1 3.26005 8.73552 32.5056
98 1 18.0225 12.8048 30.0967
99 1 42.5375 36.6136 5.52739
100 1 3.27492 6.19584 26.8571
101 1 0.970707 33.9382 47.4418
102 1 5.20479 1.30393 12.4666
103 1 41.8092 43.162 55.8061
104 1 14.6264 54.8645 39.4027
105 1 31.3348 14.0821 10.6362
106 1 19.0774 48.4864 47.6989
107 1 32.4588 0.521597 45.4108
108 1 46.4251 17.0996 47.4777
109 1 9.93347 46.0521 16.3179
110 1 31.4268 9.13346 10.6327
111 1 37.9611 54.4538 14.6183
112 1 5.6098 5.55142 10.1339
113 1 28.9577 33.3705 11.1025
114 1 24.1345 16.7932 40.1592
115 1 42.9042 34.7705 31.3617
116 1 32.1882 5.82559 38.1811
117 1 0.176133 12.4879 40.5354
118 1 1.64465 44.1239 31.7045
119 1 36.3273 36.2468 34.0203
120 1 14.8267 1.37693 39.9271
121 2 12.0371 38.8227 35.3324
122 2 51.4412 18.5226 12.856
123 2 55.0341 46.2836 20.8361
124 2 52.6242 29.7043 19.7291
125 2 53.807 35.5084 38.5632
126 2 25.082 7.33043 17.7821
127 2 12.12 51.5521 15.6071
128 2 7.55919 30.1108 35.3533
129 2 55.1683 17.7689 7.42337
130 2 1.48839 21.0514 45.8985
131 2 52.1726 11.6084 47.3193
132 2 39.2563 46.5974 17.7606
133 2 34.8534 42.7584 16.1499
134 2 15.1278 5.23148 9.00654
135 2 42.8828 33.76 3.84469
136 2 9.87953 0.520522 32.2447
137 2 40.951 24.2444 46.3577
138 2 5.2219 4.6381 49.055
139 2 31.2407 14.8844 13.8852
140 2 45.555 27.1649 38.8816
141 2 7.76523 38.4184 22.9918
142 2 29.7883 23.2915 40.3145
143 1 47.0756 19.6313 46.3278
144 1 29.2667 17.7012 13.5698
145 1 54.0307 12.4897 6.64339
146 1 52.3188 26.5015 15.1963
147 1 29.3348 27.9267 32.9508
148 1 27.2777 10.0914 38.4059
149 1 46.7309 6.32582 44.6907
150 1 25.1276 25.5231 9.50679
151 1 50.0319 24.3005 53.845
152 1 10.3012 33.5862 45.1437
153 1 49.973 48.4375 28.9053
154 1 43.148 41.7525 30.6057
155 1 32.4239 18.4711 10.6056
156 1 7.85189 32.9715 9.00084
157 1 51.6605 34.186 21.8682
158 1 37.6838 5.80534 0.380895
159 1 54.9862 47.9135 13.5138
160 1 49.1719 2.16805 2.26081
161 1 10.5554 25.3361 21.3009
162 1 13.1252 12.5996 44.2253
163 1 20.0446 21.4615 26.6861
164 1 55.9506 38.4202 11.636
165 1 51.7527 35.8195 6.57627
166 1 45.4172 41.8601 14.6818
167 1 31.2981 39.8974 46.4196
168 1 37.0337 8.08792 43.9445
169 1 28.1076 50.9341 39.3791
170 1 39.2872 34.0613 47.3616
171 1 28.487 32.6971 23.6924
172 1 21.1639 43.9396 28.6435
173 1 14.1888 39.9448 9.79501
174 1 35.3818 1.79436 32.3141
175 1 18.7078 27.9247 16.5172
176 1 39.5547 36.9643 6.72631
177 1 9.99581 4.89198 24.7616
178 1 18.5478 5.79979 8.99453
179 1 26.9807 45.303 47.8803
180 1 55.3078 27.1973 8.57501
181 1 48.6161 42.7354 31.5698
182 1 49.9521 30.0779 52.5323
183 1 13.6106 20.3148 3.80439
184 1 25.9692 52.7161 12.3792
185 1 33.2814 10.0108 34.2602
186 1 43.7444 26.3567 26.3938
187 1 1.29321 6.91271 53.4642
188 1 28.5784 39.3301 3.54557
189 1 13.3098 41.4245 34.0878
190 1 35.3819 48.9217 21.8307
191 1 20.7452 19.0088 46.0965
192 1 50.3101 0.0952488 7.9046
193 1 37.1523 8.59077 13.4257
194 1 35.8987 4.08458 30.8958
195 1 24.6412 27.091 1.23751
196 1 34.9608 5.66085 26.3712
197 1 7.09207 9.25985 49.1919
198 1 12.5957 18.855 28.7585
199 1 31.4634 19.0475 3.23837
200 1 39.859 20.538 41.4374
201 1 26.712 13.027 16.2921
202 1 39.1836 1.78104 2.52113
203 1 31.4501 27.4079 37.472
204 1 40.9628 27.0007 19.4368
205 1 7.5541 12.1714 2.74402
206 1 39.3388 25.3696 24.2893
207 1 0.16708 45.1702 45.5656
208 1 32.0781 5.09535 10.7996
209 1 47.8845 6.74385 47.1467
210 1 27.3326 21.5684 42.0044
211 1 8.76712 5.81552 21.9773
212 1 43.3879 27.3125 43.3307
213 1 22.2384 12.3803 51.4467
214 1 1.06895 37.4643 2.4698
215 1 11.3333 27.858 22.603
216 1 -0.04003 24.7368 51.0087
217 1 21.9229 8.89573 35.4056
218 1 1.32196 9.77771 54.3179
219 1 44.0862 51.3665 5.97621
220 1 44.8451 8.09863 43.8819
221 1 30.6227 0.582306 17.2306
222 1 2.54942 7.81564 21.3732
223 1 26.0291 44.1907 3.06154
224 1 42.9694 9.15649 25.6821
225 1 43.8149 48.9193 38.2582
226 1 12.6682 42.1606 25.4666
227 1 20.4545 45.6875 33.4599
228 1 55.9338 20.2256 52.813
229 1 11.3816 27.1027 43.2057
230 1 31.2748 30.0179 41.3895
231 1 31.8604 35.2367 25.4099
232 1 40.7456 17.0534 17.8613
233 1 50.9584 49.9625 38.0808
234 1 10.9677 14.1105 50.9402
235 1 41.7083 18.5191 42.082
236 1 6.94902 47.8527 29.5812
237 1 52.7966 29.8791 23.6827
238 1 38.7298 1.34836 -0.206189
239 1 34.1738 28.8861 6.14147
240 1 9.32271 32.8913 51.0699
241 1 20.1322 49.3605 10.8977
242 1 32.8198 11.0893 3.04511
243 1 7.56744 24.2187 33.278
244 1 55.8342 42.64 7.74495
245 1 1.57789 27.7826 19.8738
246 1 54.4156 5.65843 5.71167
247 1 54.4135 49.1327 10.9505
248 1 44.5304 0.200711 46.0119
249 1 10.7668 45.0823 48.879
250 1 23.5086 24.4056 17.9372
251 1 17.7299 39.5052 3.45715
252 1 47.8402 16.7019 38.9949
253 1 2.68458 27.0974 48.1798
254 1 9.07847 8.41216 32.6671
255 1 55.2046 9.51683 17.9466
256 1 31.0344 47.538 24.7233
257 1 1.47838 12.3736 34.9966
258 1 33.3909 18.1464 27.7288
259 1 45.6037 45.878 54.8843
260 1 25.0878 41.5084 33.7553
261 1 32.2618 10.403 39.6438
262 1 24.8291 48.0664 10.1873
263 2 44.034 24.5964 29.2145
264 2 25.4211 47.0468 1.69508
265 2 49.8996 7.29113 49.2854
266 2 7.13725 24.6535 38.4707
267 2 14.6976 21.3956 1.11901
268 2 4.50558 3.40146 24.6999
269 2 15.1334 2.47294 16.4784
270 2 44.3942 43.2686 53.5123
271 2 53.999 44.7595 26.2001
272 2 33.4883 40.2864 13.8973
273 2 33.3554 6.44296 34.9574
274 2 52.9004 26.9332 30.5208
275 2 27.2845 6.99701 53.3162
276 2 55.8535 13.923 4.29425
277 2 1.28816 42.7363 39.505
278 2 11.9139 34.4853 18.5554
279 2 43.9145 51.5234 46.4371
280 2 19.6721 55.2449 22.1914
281 2 41.3167 17.0912 14.6866
282 2 15.4773 28.8295 7.98627
283 2 46.8536 47.9503 28.7104
284 2 16.8998 27.2506 34.9387
285 1 4.87338 34.9874 5.70098
286 1 49.6573 34.6367 20.1962
287 1 44.6474 1.95283 35.9327
288 1 19.641 14.9763 31.512
289 1 23.0518 31.2624 4.30326
290 1 50.7228 13.1145 23.9494
291 1 17.9879 43.7355 34.4333
292 1 40.8937 5.0723 44.2788
293 1 54.4454 19.5823 55.5726
294 1 30.8656 32.9638 41.7765
295 1 47.1622 25.1593 29.7728
296 1 12.3666 32.4695 35.1705
297 1 48.4741 14.2232 33.9652
298 1 30.8809 22.302 12.8088
299 1 32.0569 18.9419 17.7242
300 1 24.4829 31.971 9.54635
301 1 24.7822 49.7651 23.0007
302 1 46.4724 33.6725 26.0238
303 1 53.7964 3.60932 1.54495
304 1 13.7289 34.6481 53.6454
305 1 25.5734 38.6191 23.1256
306 1 28.7661 52.1077 32.8614
307 1 5.15106 40.2441 32.0869
308 1 39.8448 54.1223 45.2828
309 1 49.5668 30.7153 28.1734
310 1 10.3856 52.762 38.4027
311 1 38.2079 35.1159 5.44485
312 1 10.1632 8.04306 26.1213
313 1 4.88391 55.6514 18.2998
314 1 28.8645 47.4606 53.1186
315 1 4.45998 6.38935 14.7148
316 1 44.0877 10.6438 10.6735
317 1 30.6189 31.968 38.9421
318 1 5.86238 23.1289 11.4237
319 1 3.26781 2.79647 18.4073
320 1 19.1554 33.6645 25.2951
321 1 25.8295 38.6207 33.9347
322 1 55.2233 21.4739 22.8384
323 1 11.2267 10.7973 32.8854
324 1 18.485 8.76091 32.3114
325 1 21.58 46.1619 43.2206
326 1 16.7325 31.9406 41.23
327 1 12.3649 9.43853 35.0246
328 1 0.533703 8.33292 36.6388
329 1 4.13829 25.6518 44.7475
330 1 7.84262 30.7474 30.1175
331 1 15.861 39.6474 52.5864
332 1 0.497662 44.1961 12.0792
333 1 16.2317 13.8515 10.7808
334 1 33.723 34.7749 22.8265
335 1 35.3788 13.174 51.3363
336 1 50.0449 21.5296 12.971
337 1 0.866454 34.1257 7.53665
338 1 9.56938 22.9755 22.2618
339 1 15.1326 24.0931 44.6774
340 1 24.8854 23.5079 26.2084
341 1 26.5541 50.8376 24.8774
342 1 0.0286733 26.9113 17.8647
343 1 35.7967 14 27.7967
344 1 33.0936 15.8576 11.459
345 1 48.7671 16.5388 3.77573
346 1 -0.065675 6.8654 23.7643
347 1 19.9861 18.775 11.3429
348 1 12.9344 10.5127 22.8932
349 1 4.19724 37.2426 10.3637
350 1 1.76338 53.6391 51.4534
351 1 45.125 35.6456 5.4172
352 1 18.9731 8.38793 52.0221
353 1 24.3933 34.5566 53.872
354 1 46.7273 37.3816 39.5285
355 1 48.815 28.4751 38.8662
356 1 9.5938 39.9176 42.8547
357 1 20.1338 50.5947 52.7191
358 1 21.7046 24.3188 36.7887
359 1 28.9581 45.195 46.2974
360 1 16.6242 37.8265 45.6247
361 1 40.0405 22.2276 43.4913
362 1 0.41431 54.0632 4.2689
363 1 44.3231 18.375 14.8209
364 1 41.1953 0.554025 33.0162
365 1 40.3355 45.2596 6.86067
366 1 15.5583 34.5344 14.4063
367 1 50.5941 47.0591 38.4149
368 1 40.6386 44.8358 26.4634
369 1 33.2428 14.4102 16.0353
370 1 3.54846 40.6827 50.6264
371 1 19.4986 27.8472 48.8594
372 1 13.6271 22.5136 33.7187
373 1 21.6109 56.0132 38.408
374 1 47.2283 50.1464 2.66727
375 1 4.16677 53.1061 34.7261
376 1 42.6139 48.8073 25.0793
377 1 6.78304 19.9416 51.2409
378 1 29.1551 52.7442 21.5322
379 1 51.4741 39.3572 20.0845
380 1 10.9251 12.9624 26.9413
381 1 26.2368 50.3243 29.0172
382 1 55.3462 22.599 8.37518
383 1 12.7479 23.3766 22.7005
384 1 49.5379 16.4021 32.8498
385 1 29.5013 8.9795 19.7388
386 1 36.0523 38.6763 23.2959
387 1 21.3234 34.004 39.3402
388 1 24.2167 7.12385 40.4295
389 1 26.9261 11.0396 14.4363
390 1 45.3187 48.938 31.7265
391 1 6.83558 9.17906 6.83983
392 1 48.3997 49.066 37.3941
393 1 3.56524 27.9388 0.686813
394 1 3.26366 37.991 46.3713
395 1 55.1805 7.5542 47.9858
396 1 14.6626 5.27481 23.9884
397 1 49.5804 25.8436 22.7703
398 1 21.8565 28.8726 3.94073
399 1 6.64618 53.9284 41.8247
400 1 35.8238 42.815 27.6335
401 1 18.3444 30.7706 24.7607
402 1 31.8873 48.2451 43.6336
403 1 12.9071 42.46 28.3635
404 1 26.839 34.8662 46.0652
405 2 19.7796 8.09726 14.2243
406 2 36.2563 31.1929 7.73351
407 2 34.3118 13.2316 12.9629
408 2 24.7894 49.8113 12.9659
409 2 47.0869 0.328779 16.6204
410 2 36.8424 49.32 16.5466
411 2 5.68193 41.4807 16.7837
412 2 53.538 8.78827 35.7852
413 2 31.1352 21.5538 45.3951
414 2 12.6224 35.1346 47.7207
415 2 55.6811 51.8161 8.81831
416 2 51.908 43.0336 55.2342
417 2 44.2268 5.07278 10.2137
418 2 7.3178 35.9852 11.1595
419 2 15.5616 54.5962 22.4674
420 2 23.9703 23.227 23.2383
421 2 41.2199 49.3244 9.96234
422 2 31.9801 16.3568 8.13023
423 2 8.11504 0.390006 43.031
424 2 52.143 10.6523 4.79917
425 2 48.1157 51.8521 38.9755
426 2 37.4113 8.61758 38.4542
427 1 29.5976 29.914 -0.170972
428 1 4.11514 53.5956 52.493
429 1 55.8609 27.5803 51.0351
430 1 51.8368 55.1024 9.70725
431 1 20.0337 47.6047 26.2574
432 1 42.4207 8.24111 6.52707
433 1 40.0958 24.6172 13.8159
434 1 13.1016 22.3492 44.2448
435 1 22.8454 52.2161 8.56082
436 1 32.2348 31.9086 48.8205
437 1 26.1868 24.2006 33.6467
438 1 47.1325 2.98226 35.4195
439 1 1.37102 38.334 54.1096
440 1 10.6147 22.9528 30.0394
441 1 22.5729 14.4205 11.1049
442 1 42.5876 18.7393 16.9742
443 1 41.6323 10.682 27.4414
444 1 51.7637 42.1861 47.2891
445 1 5.21457 14.7247 17.8922
446 1 38.6897 31.4582 39.7546
447 1 20.8508 52.1381 10.4727
448 1 45.1818 2.88009 0.018635
449 1 54.099 7.00205 28.8909
450 1 51.4579 33.101 -0.163198
451 1 27.8294 49.1172 14.2377
452 1 48.1221 12.2936 22.6286
453 1 7.47296 20.0969 32.442
454 1 5.54151 35.4828 51.7653
455 1 7.22234 22.0401 23.4108
456 1 46.031 3.95928 51.425
457 1 53.7949 38.9045 18.4194
458 1 27.1847 20.149 36.6125
459 1 2.98572 34.6518 9.69514
460 1 29.2074 0.19792 34.3673
461 1 7.8857 16.4138 17.2595
462 1 48.3979 27.6473 9.23103
463 1 15.58 2.51304 7.41331
464 1 31.7256 52.4502 22.7261
465 1 7.54638 46.7143 17.1576
466 1 5.02942 47.9075 5.45169
467 1 47.1362 11.2658 38.133
468 1 44.8433 54.0531 6.79014
469 1 14.7307 43.3453 24.4712
470 1 28.4731 -0.0470151 14.7509
471 1 26.643 10.0202 3.79416
472 1 15.24 37.6713 28.1689
473 1 48.6342 38.5437 46.7087
474 1 40.0537 12.4197 16.7095
475 1 22.9159 25.1083 20.4075
476 1 12.2695 21.6895 40.0671
477 1 48.9946 2.92119 37.2607
478 1 41.5727 7.50278 13.6165
479 1 55.45 25.6977 35.0523
480 1 41.1393 8.31784 3.85902
481 1 25.716 1.54879 51.1367
482 1 30.0821 37.1707 22.8543
483 1 46.0662 19.424 34.062
484 1 5.96686 36.9868 7.2042
485 1 18.2797 45.2265 25.3689
486 1 47.4729 7.75455 42.5165
487 1 20.8838 12.781 22.0442
488 1 5.8373 47.5577 25.4687
489 1 2.65087 44.1743 13.725
490 1 24.3071 49.7323 26.0377
491 1 13.2353 29.5993 47.3003
492 1 26.9694 24.4876 41.7269
493 1 44.3987 30.4786 33.8299
494 1 4.58152 54.7812 13.4818
495 1 11.9268 33.7285 12.8247
496 1 38.9888 17.8648 37.3113
497 1 7.39863 17.1809 32.0188
498 1 19.7462 20.2565 8.94087
499 1 34.0998 30.037 20.2144
500 1 51.6803 3.28597 36.4291
501 1 16.2535 50.9979 43.6416
502 1 50.8933 42.7945 6.86962
503 1 42.5156 21.134 42.8563
504 1 40.0184 47.099 32.3017
505 1 38.3636 27.522 3.83212
506 1 22.2204 27.624 42.0236
507 1 53.4727 54.4942 32.2346
508 1 10.5159 43.0145 17.5807
509 1 53.3005 29.2488 7.87344
510 1 30.5542 0.590697 3.61573
511 1 49.8863 5.68836 5.96886
512 1 14.339 50.5096 12.5504
513 1 33.3917 30.1873 29.1559
514 1 28.6932 27.7248 21.1611
515 1 29.1923 12.4505 27.3747
516 1 5.33578 40.7139 37.1956
517 1 16.0421 3.06905 0.324216
518 1 24.2726 12.2478 13.5621
519 1 7.82513 11.909 45.0501
520 1 35.9337 17.629 4.62254
521 1 45.7928 24.9668 32.1523
522 1 7.26952 17.1798 0.381273
523 1 38.5195 1.74905 25.9367
524 1 39.9503 52.1056 32.2432
525 1 25.7234 41.3535 22.2198
526 1 26.3274 15.8876 30.486
527 1 29.2033 54.5322 23.731
528 1 2.27035 6.52043 6.42904
529 1 40.2997 8.37671 33.7847
530 1 37.9208 16.675 18.6397
531 1 40.4628 10.1584 49.0549
532 1 35.34 9.71291 11.7217
533 1 43.2428 6.49459 20.7481
534 1 20.0672 35.7194 20.4944
535 1 43.2893 2.75145 38.5866
536 1 39.0572 22.5279 15.5888
537 1 19.1494 22.316 20.7788
538 1 6.60288 27.4661 2.56099
539 1 28.6771 37.5636 33.2393
540 1 48.1539 12.2967 16.3607
541 1 42.5914 5.89523 7.51467
542 1 32.876 48.075 35.8653
543 1 37.8762 44.6545 35.031
544 1 31.7612 34.6783 15.2363
545 1 51.6848 24.5387 5.93027
546 1 23.8336 50.9614 41.1245
547 2 15.1786 40.5905 26.5234
548 2 12.8166 46.6834 1.40492
549 2 35.0009 47.8742 25.47
550 2 55.5657 51.4796 12.811
551 2 52.5046 7.08681 16.9223
552 2 9.8018 6.99607 35.2377
553 2 37.7837 10.0553 16.8216
554 2 23.4637 5.85795 53.2941
555 2 14.5962 13.0062 21.494
556 2 12.4324 41.6008 43.1889
557 2 13.6514 5.74942 33.8377
558 2 17.4604 33.1224 3.34156
559 2 39.9728 17.0691 21.0783
560 2 5.25286 16.3007 29.4134
561 2 38.5745 12.7971 50.8511
562 2 4.04728 19.7558 28.5378
563 2 30.0041 47.1233 35.0087
564 2 16.6066 5.46943 39.9107
565 2 19.9168 22.1105 35.1529
566 2 31.1372 13.5633 39.0029
567 2 44.5737 38.3827 0.335888
568 2 43.5481 18.2001 20.3417
569 1 14.7717 1.46861 19.397
570 1 52.2351 36.647 49.5033
571 1 20.3319 14.0575 5.90211
572 1 46.2613 14.7705 53.298
573 1 15.6707 15.6896 25.9246
574 1 30.3742 46.174 17.1812
575 1 30.1414 49.948 42.2013
576 1 14.2391 0.319494 11.3046
577 1 1.74365 6.44783 15.2043
578 1 55.265 39.5056 44.3108
579 1 34.0153 44.9414 48.5315
580 1 21.1052 32.0302 6.40035
581 1 37.6772 10.45 29.3639
582 1 12.3238 41.4184 37.9635
583 1 45.5083 25.4364 18.1038
584 1 29.1374 40.7647 29.3004
585 1 33.3653 8.01896 23.1215
586 1 55.4362 -0.0830987 30.9174
587 1 10.9033 1.68467 7.26156
588 1 9.13468 44.1493 46.8876
589 1 34.4488 47.5622 49.7608
590 1 -0.219075 7.71387 6.4234
591 1 13.0438 9.56278 30.7768
592 1 52.8107 33.2639 6.51967
593 1 18.4681 25.0761 33.5047
594 1 3.09374 42.6053 41.9869
595 1 34.2094 11.8793 43.9226
596 1 3.55683 4.73709 38.9837
597 1 28.6311 51.4964 7.65758
598 1 49.1391 47.2525 25.037
599 1 5.20597 3.68418 13.7789
600 1 11.6984 32.3085 4.47772
601 1 21.7769 42.271 54.2444
602 1 3.08596 42.3951 15.4599
603 1 26.8154 35.4171 52.265
604 1 5.57246 21.7801 30.0143
605 1 28.1228 43.373 27.4893
606 1 27.552 46.8257 30.4439
607 1 38.9142 14.1922 34.0963
608 1 36.9404 4.3414 49.3788
609 1 34.0957 30.3725 12.9004
610 1 43.5731 5.41804 45.0846
611 1 20.6434 44.907 30.9456
612 1 17.7683 47.0456 45.8067
613 1 3.10852 51.2267 1.09284
614 1 53.7508 33.659 10.845
615 1 5.73094 42.821 41.4745
616 1 38.1548 3.80262 54.7325
617 1 16.206 11.7654 51.8568
618 1 5.49633 55.5218 53.8441
619 1 36.5774 11.412 27.007
620 1 28.3447 26.9455 25.8479
621 1 53.049 8.77267 27.1071
622 1 3.63287 29.8259 44.1165
623 1 14.9127 44.2204 11.9197
624 1 27.7777 9.3994 55.3184
625 1 10.2069 14.8992 25.095
626 1 39.5674 27.3594 22.4379
627 1 33.4042 38.2724 1.61183
628 1 31.6349 10.0922 17.5379
629 1 41.8655 46.4325 11.2341
630 1 39.5859 55.7555 22.4797
631 1 43.6615 29.0232 13.801
632 1 4.58137 32.4305 26.7113
633 1 15.6947 6.2226 49.3327
634 1 47.9258 45.5449 17.8235
635 1 29.6553 44.9436 23.416
636 1 5.93916 6.90215 17.0353
637 1 0.741042 15.0119 39.5472
638 1 32.5975 47.533 55.6596
639 1 28.7841 5.16913 4.65319
640 1 22.1092 53.8227 6.20793
641 1 55.9974 47.7231 35.5406
642 1 53.4082 18.4115 10.3734
643 1 41.4135 27.601 24.6979
644 1 20.1376 42.6253 46.1541
645 1 0.489799 19.3729 40.9234
646 1 13.198 31.0619 12.4255
647 1 3.24831 29.5338 8.59372
648 1 19.6545 16.7606 5.06907
649 1 20.8518 20.2179 19.7808
650 1 15.267 4.148 3.20213
651 1 30.5408 33.2695 33.2816
652 1 50.8104 13.3232 39.8494
653 1 52.1542 30.6733 51.3367
654 1 29.7729 34.4007 -0.188258
655 1 40.9559 4.5005 30.2548
656 1 36.7553 52.0845 40.1542
657 1 55.7896 34.6338 20.5513
658 1 24.8399 8.25699 55.1325
659 1 38.5667 39.9731 50.4902
660 1 1.85601 43.8262 6.53742
661 1 46.0569 36.366 12.9339
662 1 15.5756 41.7482 44.3424
663 1 20.0639 35.822 37.6444
664 1 52.8171 16.6233 28.0698
665 1 34.174 42.9498 22.785
666 1 15.0288 9.2837 26.2223
667 1 35.7138 16.7632 28.3607
668 1 47.6402 12.4726 44.4544
669 1 51.0018 22.7096 15.5498
670 1 46.8961 2.88747 11.1138
671 1 32.7732 4.45788 25.2546
672 1 1.64339 18.555 8.92593
673 1 11.5986 4.31608 35.8753
674 1 45.9949 51.3443 7.50253
675 1 23.559 7.87741 32.8278
676 1 53.7071 16.5144 23.8866
677 1 55.7922 35.9248 54.268
678 1 15.8271 55.9223 17.5574
679 1 52.8979 12.5771 22.152
680 1 28.6132 32.2951 46.1117
681 1 -0.0328232 26.4826 48.6231
682 1 7.13116 3.3229 44.7492
683 1 43.3058 13.2374 20.9528
684 1 38.3527 32.2382 37.2656
685 1 22.9139 54.9997 15.2932
686 1 44.7223 15.031 11.1489
687 1 47.0635 55.1305 28.2036
688 1 20.3637 7.45742 33.3682
689 2 21.8013 49.4583 24.0447
690 2 30.085 50.0381 10.1475
691 2 34.7328 26.9648 38.9976
692 2 7.96369 42.4489 49.2826
693 2 44.9148 48.1979 22.5208
694 2 2.93434 51.3014 54.2655
695 2 17.5595 15.1829 45.501
696 2 16.6022 40.7873 8.11147
697 2 1.45364 18.1461 36.1142
698 2 17.2684 18.7191 6.91729
699 2 44.7272 11.5359 40.1065
700 2 38.4097 4.90491 3.60207
701 2 53.4914 27.3732 5.53024
702 2 36.1275 28.7317 27.1203
703 2 48.7886 45.7479 44.2771
704 2 54.2902 13.0446 17.5963
705 2 2.69008 36.6064 7.50817
706 2 2.16051 40.5076 44.4646
707 2 47.5039 17.389 18.6793
708 2 43.3711 54.5036 0.72937
709 2 44.3097 30.5942 42.3637
710 2 52.9246 48.6736 30.8719
711 1 36.779 2.35794 46.2951
712 1 17.9048 25.4451 49.0024
713 1 1.09173 49.1684 44.6019
714 1 37.7426 30.3152 25.106
715 1 0.900007 10.9106 44.5505
716 1 2.6541 15.6919 51.2295
717 1 47.2652 0.728252 3.55736
718 1 4.89823 41.737 55.8353
719 1 41.784 16.7034 52.7014
720 1 19.1051 16.2876 13.7694
721 1 31.2611 6.69529 5.096
722 1 31.9178 37.9194 55.5051
723 1 19.2888 15.2476 16.0778
724 1 48.4855 37.2948 53.5102
725 1 13.0106 45.7157 35.0395
726 1 29.6066 41.4665 41.9172
727 1 32.7438 55.2334 18.9891
728 1 28.1562 0.451717 55.4834
729 1 41.1313 1.68103 52.0209
730 1 5.08576 6.91313 37.8055
731 1 54.2184 10.986 19.9546
732 1 12.9554 1.1596 14.875
733 1 36.0102 52.8739 55.2204
734 1 37.1325 43.5606 18.1055
735 1 39.8712 9.74845 1.29787
736 1 51.6015 18.9284 50.6887
737 1 31.0317 41.926 27.3564
738 1 0.452881 11.5196 6.56181
739 1 21.8597 17.0288 2.92004
740 1 40.2902 35.2817 49.6285
741 1 53.9848 9.72511 32.4748
742 1 19.1589 40.1816 6.3541
743 1 44.723 29.1256 26.8782
744 1 33.3841 55.8018 40.2617
745 1 44.9711 12.4198 12.9236
746 1 20.2759 17.9068 21.1947
747 1 0.645219 3.24284 36.0642
748 1 46.2674 54.6112 2.53748
749 1 17.2346 13.078 42.7976
750 1 23.3027 18.9985 1.81647
751 1 19.042 32.723 33.7811
752 1 15.1509 48.7255 38.9096
753 1 19.9874 9.78167 43.4802
754 1 36.3975 54.2334 27.1422
755 1 29.4606 17.9953 18.4039
756 1 31.7939 49.3603 53.7747
757 1 9.27412 21.5604 28.0998
758 1 54.7612 27.0904 20.0866
759 1 44.8526 6.92736 18.7133
760 1 19.2228 32.493 54.2421
761 1 48.4355 15.3547 46.7299
762 1 30.762 52.7101 12.0661
763 1 24.4462 18.0044 8.81733
764 1 18.3205 13.175 21.3289
765 1 42.5612 19.9635 39.9582
766 1 19.696 35.5499 3.19877
767 1 4.72498 51.7722 28.5055
768 1 26.1579 22.331 35.8799
769 1 18.4584 48.6454 54.6956
770 1 19.0087 3.45155 4.80629
771 1 11.6931 38.4824 44.0788
772 1 29.4747 13.0208 52.9034
773 1 10.0023 16.2874 45.6858
774 1 33.5395 2.2537 27.1015
775 1 46.2317 41.4687 30.172
776 1 24.9743 55.7334 22.5733
777 1 46.3332 47.5812 25.5845
778 1 21.9215 33.4038 47.7329
779 1 41.0636 27.1222 44.6605
780 1 31.1264 47.4352 41.1078
781 1 20.4581 38.0361 24.9912
782 1 4.45238 18.9895 15.683
783 1 50.3417 0.771224 36.7928
784 1 44.5488 28.0972 24.2541
785 1 27.6277 26.0256 48.1849
786 1 15.6652 7.67001 42.2247
787 1 5.14406 31.0526 54.0561
788 1 2.26693 10.5355 37.0548
789 1 15.4422 46.2094 28.3178
790 1 51.817 29.6076 43.3847
791 1 36.1526 18.5882 24.7455
792 1 26.3129 55.2331 19.6773
793 1 2.86863 50.2218 22.2857
794 1 30.1331 25.2871 28.0002
795 1 56.0576 21.2528 36.8228
796 1 44.3504 12.2056 4.04224
797 1 18.8044 11.3419 14.1499
798 1 42.5932 29.1097 54.4737
799 1 16.3966 35.8892 11.9272
800 1 17.1449 30.6296 55.2739
801 1 48.9169 48.2438 11.0394
802 1 20.8296 15.5533 36.9753
803 1 40.107 45.244 40.1795
804 1 51.9487 36.8806 9.348
805 1 38.562 44.5466 32.2559
806 1 13.2315 15.2668 37.5049
807 1 55.658 16.097 34.5527
808 1 49.1775 8.0843 38.4373
809 1 10.2958 12.3902 1.24282
810 1 8.03091 40.9259 32.1908
811 1 33.3492 22.2207 48.3468
812 1 53.3955 16.0537 44.7333
813 1 0.673239 11.4365 2.32144
814 1 45.6657 4.7894 20.1351
815 1 4.59225 8.72543 41.3548
816 1 49.5217 4.1802 34.8432
817 1 44.4908 43.5079 29.1729
818 1 55.0075 48.3967 55.2808
819 1 18.1784 37.2019 43.3073
820 1 53.5535 28.2581 38.1493
821 1 32.1959 29.5303 38.8431
822 1 1.16151 4.08971 28.769
823 1 53.9241 46.5018 38.058
824 1 54.4351 0.0598455 28.0892
825 1 17.4837 54.4714 29.7872
826 1 16.8089 50.4289 4.25409
827 1 20.297 33.9492 22.7454
828 1 35.3254 23.4192 25.9793
829 1 49.2709 55.9386 29.6104
830 1 51.3933 43.2056 4.19201
831 2 7.20037 40.4631 39.9056
832 2 24.101 14.3623 3.35545
833 2 20.2936 43.308 23.4761
834 2 43.4056 27.0341 46.8823
835 2 25.1968 0.11227 27.7795
836 2 23.6611 14.2322 32.5187
837 2 15.7938 27.2256 17.7286
838 2 22.834 42.2912 47.7535
839 2 28.5832 35.5072 31.2506
840 2 19.4218 16.1617 53.4636
841 2 15.8617 27.324 26.4442
842 2 47.3046 9.47483 45.6067
843 2 42.2896 1.4128 30.0301
844 2 31.3484 15.3504 18.5716
845 2 8.31589 51.8501 16.2684
846 2 41.181 41.0977 48.7183
847 2 48.4661 54.9719 10.5013
848 2 47.7804 44.4782 25.9371
849 2 23.1855 17.3302 35.0106
850 2 22.6863 32.1865 44.6588
851 2 48.1095 56.0554 53.8981
852 2 46.7405 38.9815 20.436
853 1 36.156 46.3915 9.33202
854 1 30.0574 42.3163 47.0179
855 1 47.6281 26.737 15.0512
856 1 10.3424 23.968 34.5658
857 1 55.1568 17.1166 40.1605
858 1 14.3603 50.4828 48.767
859 1 35.2478 24.7576 40.9518
860 1 9.4406 37.8438 3.79332
861 1 52.2517 36.3532 29.0555
862 1 54.6083 30.8194 5.3745
863 1 33.5013 11.3864 10.3652
864 1 47.5687 26.5616 49.5163
865 1 14.6657 26.6217 14.4013
866 1 12.5072 34.0646 -0.189804
867 1 50.7343 21.8755 36.9123
868 1 49.177 1.4681 34.1572
869 1 53.6324 26.3988 52.602
870 1 33.4249 24.609 20.9726
871 1 10.1995 27.8584 14.9115
872 1 53.3416 37.5956 40.5906
873 1 12.3625 39.4591 32.0027
874 1 54.0985 45.6977 1.20861
875 1 41.4689 29.5022 48.0633
876 1 0.141716 16.6923 30.9242
877 1 0.269271 27.491 22.6728
878 1 4.70403 35.6976 20.3342
879 1 10.4624 14.5123 30.9716
880 1 51.4479 11.618 1.86396
881 1 31.6247 13.4911 47.9662
882 1 44.8763 22.2821 52.579
883 1 26.4578 14.272 13.7539
884 1 51.4769 54.5822 36.4186
885 1 29.7181 23.0608 1.22461
886 1 39.2052 47.6099 2.20359
887 1 7.29284 15.4951 19.7507
888 1 2.76465 30.3247 46.9108
889 1 46.3199 7.81478 34.0194
890 1 54.6735 2.98401 6.26857
891 1 53.1543 20.4638 37.5519
892 1 37.6411 54.3213 20.3833
893 1 14.4348 51.2784 33.8983
894 1 9.03156 40.9852 9.87549
895 1 3.86663 49.4468 40.5036
896 1 2.63448 40.8488 17.8155
897 1 28.1638 53.1488 10.5199
898 1 40.9964 35.3611 42.5539
899 1 16.3715 19.0464 32.398
900 1 9.19906 28.0532 2.03062
901 1 34.1413 37.4053 42.291
902 1 25.6157 46.0884 26.0326
903 1 3.88755 26.4265 8.75669
904 1 35.9736 35.779 11.6652
905 1 28.1815 30.1544 22.3852
906 1 17.6108 36.1231 7.32555
907 1 35.0102 50.6853 13.9528
908 1 1.37929 6.10976 34.6676
909 1 40.4016 2.91348 42.5149
910 1 52.8522 38.2232 7.07504
911 1 12.5385 8.84586 25.112
912 1 16.8757 18.4766 36.8732
913 1 3.97336 45.1608 5.65411
914 1 52.9524 51.9152 30.9647
915 1 18.4295 21.3485 39.8114
916 1 28.3602 26.5136 40.4293
917 1 35.2008 55.6274 4.14621
918 1 50.4186 35.0077 14.3723
919 1 48.5478 41.2552 38.2768
920 1 12.2913 38.7618 38.6005
921 1 32.047 54.8726 10.8605
922 1 17.5178 41.9397 32.0429
923 1 50.008 5.4145 38.5479
924 1 0.596446 11.5869 16.5195
925 1 45.2394 55.8522 4.76
926 1 27.7765 49.5794 51.7801
927 1 52.745 49.1248 43.4759
928 1 42.2955 12.4049 12.4052
929 1 50.0575 33.32 7.33228
930 1 38.7845 0.444065 19.74
931 1 16.6346 25.2697 31.9486
932 1 12.2496 48.1594 52.3163
933 1 30.873 7.11657 43.8622
934 1 24.6824 51.1942 54.7098
935 1 5.47791 38.983 54.9957
936 1 7.67749 32.8249 11.7195
937 1 33.8418 0.391638 42.6854
938 1 36.5019 5.84272 40.4262
939 1 5.27093 29.596 15.7578
940 1 7.56574 39.2153 53.0811
941 1 36.2871 6.62646 35.5062
942 1 15.1268 46.6178 45.5328
943 1 33.6457 36.7157 34.4126
944 1 8.94269 41.4118 16.0318
945 1 44.4897 20.4747 44.6085
946 1 9.7617 42.7289 44.504
947 1 41.6609 30.8586 40.7917
948 1 15.6042 55.838 43.9949
949 1 49.8568 49.9485 15.4607
950 1 39.1812 27.4373 50.6023
951 1 15.0066 43.1154 53.9158
952 1 44.1336 0.749809 48.6955
953 1 26.2323 22.4194 51.3729
954 1 10.9476 45.6239 40.4492
955 1 13.1004 21.9689 15.3429
956 1 12.489 19.9466 8.35303
957 1 47.131 43.701 50.9246
958 1 8.53433 25.3866 36.2091
959 1 31.3362 50.3823 35.6447
960 1 53.5161 14.0735 12.5046
961 1 37.0149 41.4885 42.695
962 1 54.8744 6.45194 19.0126
963 1 7.34713 30.4309 46.7321
964 1 25.4396 14.6004 44.3171
965 1 15.3309 30.4048 35.8063
966 1 24.9637 42.7717 31.3127
967 1 8.29361 8.61022 11.9295
968 1 42.5806 9.94295 53.7425
969 1 32.1113 37.4579 50.4445
970 1 31.3184 17.0715 15.8522
971 1 45.4062 5.58731 42.552
972 1 52.3775 8.37085 51.6776
973 2 45.2825 4.50758 25.6895
974 2 46.1309 39.5601 35.0612
975 2 53.4402 39.0046 27.6668
976 2 17.4676 30.308 49.7204
977 2 52.9618 36.0365 16.1759
978 2 52.7462 36.1662 19.6829
979 2 32.7863 42.2764 40.7281
980 2 55.2779 6.16877 44.9283
981 2 36.5294 11.8737 9.84435
982 2 54.2585 29.6458 49.041
983 2 12.1919 31.1903 1.25743
984 2 46.4345 22.7348 34.2502
985 2 52.1901 2.4589 13.0377
986 2 7.41311 18.5613 37.6433
987 2 20.2914 6.48782 5.41563
988 2 2.51411 26.7568 51.8399
989 2 40.0905 27.9004 32.3193
990 2 54.251 9.87458 15.0849
991 2 22.835 21.3303 17.699
992 2 16.1222 15.4542 55.2211
993 2 1.59782 15.5641 55.9122
994 2 53.3958 22.7828 35.2019
995 1 54.2727 3.2699 43.8728
996 1 51.1753 25.1101 47.1292
997 1 24.4508 2.11887 48.1652
998 1 3.28736 49.473 27.0611
999 1 24.9749 50.9451 52.0742
1000 1 19.5856 8.93412 47.9888
1001 1 30.8729 30.3046 36.6664
1002 1 52.5423 26.2376 8.30073
1003 1 13.8175 29.1446 30.6356