ITEM: TIMESTEP
0
ITEM: NUMBER OF ATOMS
9088
ITEM: BOX BOUNDS pp pp pp
-2.3877870329191608e-01 5.6123271329142064e+01
-2.3877870329191608e-01 5.6123271329142064e+01
-2.3877870329191608e-01 5.6123271329142064e+01
ITEM: ATOMS id type x y z
1 1 28.2652 41.093 49.2205
2 1 44.2518 4.4208 36.523
3 1 44.5054 15.9984 48.0675
4 1 37.0017 49.5427 43.5737
5 1 11.3938 34.5629 8.26696
6 1 40.107 27.4095 22.6382
7 1 20.068 33.1435 1.1529
8 1 48.1283 1.35992 9.26617
9 1 55.7686 50.3402 40.0084
10 1 36.8746 13.5098 53.3961
11 1 48.4128 35.7901 32.6076
12 1 35.7941 19.1598 36.7249
13 1 21.6568 48.4551 37.1253
14 1 19.9956 49.6232 50.0533
15 1 2.94821 36.7502 30.1914
16 1 29.0436 0.30251 39.9044
17 1 50.334 9.75956 28.0545
18 1 3.7555 49.6972 40.2663
19 1 30.0696 24.0775 51.9625
20 1 31.148 2.55342 45.0428
21 1 25.4087 49.0098 50.0822
22 1 9.48444 41.7487 1.92323
23 1 21.7743 17.7609 38.1186
24 1 3.40506 7.71238 55.5645
25 1 26.4014 27.2342 38.8939
26 1 19.8381 27.959 43.4272
27 1 35.015 29.6407 54.6151
28 1 13.5693 32.6805 14.8518
29 1 11.2333 50.2176 40.1026
30 1 49.9502 11.051 45.0172
31 1 30.355 4.60478 0.0529349
32 1 34.0378 5.46457 23.3775
33 1 24.2795 41.9714 2.57551
34 1 14.3591 24.8243 1.80817
35 1 19.7097 53.5559 41.5624
36 1 19.695 40.8965 13.2304
37 1 23.7038 55.7951 46.9549
38 1 23.5249 21.1682 5.7182
39 1 13.6557 26.4622 -0.198866
40 1 8.67119 11.2138 48.2473
41 1 47.0759 40.9482 1.13203
42 1 5.48744 39.0593 14.7064
43 1 21.7628 16.819 9.43664
44 1 50.9138 51.8153 23.7263
45 1 13.0333 43.9308 -0.151749
46 1 -0.00879187 17.6497 11.2713
47 1 42.7369 6.2002 32.248
48 1 18.5532 30.6408 19.7976
49 1 4.85429 18.9773 31.7828
50 1 18.3491 19.7414 20.5136
51 1 50.0715 32.2683 30.367
52 1 22.2768 10.6582 37.7003
53 1 52.652 20.2727 1.05527
54 1 56.0155 20.9227 42.8153
55 1 40.0144 44.8033 29.4403
56 1 11.5198 25.3459 44.8828
57 1 6.76767 33.146 34.614
58 1 37.7192 11.3881 21.6549
59 1 5.37312 30.3311 28.6398
60 1 36.5007 32.894 54.7018
61 1 11.9497 27.2112 54.0698
62 1 52.9422 22.1572 24.5785
63 1 49.5182 43.3941 29.0496
64 1 22.1841 4.2745 16.2223
65 1 10.9015 42.5272 47.8358
66 1 8.11209 45.0346 10.3136
67 1 12.017 43.233 53.2078
68 1 11.2558 33.725 52.4797
69 1 37.5559 38.1449 46.1999
70 1 2.03025 28.2043 5.08302
71 1 51.81 46.9804 28.4012
72 1 55.6911 29.973 1.39236
73 1 18.7103 45.3398 5.47641
74 1 5.68482 34.0686 44.9091
75 1 37.7451 19.5375 5.12454
76 1 38.3387 23.6931 5.91795
77 1 47.534 40.5697 32.4093
78 1 34.0975 40.6023 10.5394
79 1 31.7994 23.1059 43.0846
80 1 39.6552 0.179554 30.8369
81 1 17.2771 27.9047 54.5052
82 1 50.6791 1.00311 23.7112
83 1 8.14358 15.1169 27.7225
84 1 36.3413 2.20222 4.003
85 1 39.607 10.8714 38.4935
86 1 34.6959 33.6795 34.7224
87 1 27.1765 10.0885 33.3964
88 1 15.7391 11.6018 12.5937
89 1 7.32459 47.6811 39.6308
90 1 1.31321 39.6037 51.3649
91 1 17.9794 7.80247 21.9346
92 1 10.043 11.8492 19.3816
93 1 38.4919 9.78195 11.3553
94 1 35.5897 34.113 29.0176
95 1 40.8478 24.3706 18.8529
96 1 7.12589 -0.0358769 13.8439
97 1 3.21885 8.70144 33.0162
98 1 17.875 12.7778 30.1133
99 1 42.4022 36.742 5.77369
100 1 3.41237 5.88188 26.9525
101 1 0.350316 33.7692 47.3598
102 1 5.06692 0.936352 12.3675
103 1 41.6646 43.2901 56.0255
104 1 14.6528 55.0893 39.0143
105 1 31.3102 13.9921 10.862
106 1 18.9846 48.1549 47.5847
107 1 33.9166 0.682357 42.7061
108 1 46.8722 17.4874 47.3401
109 1 10.0462 45.9214 17.0544
110 1 31.3383 9.15018 10.7959
111 1 40.2429 53.0423 12.864
112 1 5.60584 5.5056 9.97884
113 1 29.1589 33.5878 11.2466
114 1 24.155 17.0451 40.0973
115 1 42.719 34.6859 31.1348
116 1 32.3776 5.83363 37.9715
117 1 -0.0327409 12.3641 40.4967
118 1 4.28895 44.1356 31.7209
119 1 36.347 36.0275 34.0064
120 1 15.0908 1.8177 39.8856
121 2 11.815 38.5788 35.3156
122 2 51.4016 18.6622 12.7228
123 2 55.0793 46.8021 20.8766
124 2 52.563 29.6739 19.935
125 2 53.8077 35.6399 38.2613
126 2 25.1973 7.37204 17.8118
127 2 12.4252 51.3322 15.8156
128 2 7.44537 29.999 35.3516
129 2 55.4521 17.9164 7.69745
130 2 1.52959 21.0887 45.8986
131 2 52.2329 11.9761 47.2755
132 2 39.148 46.5865 17.8115
133 2 34.9203 42.8232 16.1499
134 2 15.0824 5.1743 8.95944
135 2 42.8909 33.9821 3.78568
136 2 9.84762 0.488431 32.0052
137 2 40.5653 24.2743 46.3086
138 2 5.33063 4.7368 48.9948
139 2 31.3019 15.1257 13.6883
140 2 45.2101 27.3776 38.91
141 2 8.08416 38.463 22.9967
142 2 29.4884 23.5952 40.6387
143 1 47.19 19.755 46.1409
144 1 29.4486 17.9327 13.6299
145 1 54.2691 12.3725 6.64787
146 1 52.0313 26.5522 15.2958
147 1 29.2877 27.7285 33.0339
148 1 26.6569 8.46099 40.3731
149 1 46.7286 6.1992 44.6219
150 1 25.0531 25.4423 9.39093
151 1 50.1308 24.5755 53.9714
152 1 10.3274 33.4866 45.4939
153 1 49.9503 48.5314 29.5484
154 1 43.0977 41.8516 30.7597
155 1 32.5174 18.5158 10.2852
156 1 7.81067 33.4006 9.51603
157 1 51.3397 33.9068 22.2224
158 1 37.6704 5.62487 0.43455
159 1 55.2565 48.074 13.932
160 1 48.9711 2.12416 1.75722
161 1 10.3644 25.4581 21.4762
162 1 12.7264 12.8447 44.3825
163 1 19.9837 21.286 26.3081
164 1 55.8571 38.493 11.7999
165 1 51.5849 35.6374 6.77759
166 1 45.0744 41.4823 14.4629
167 1 31.4532 39.8032 46.4448
168 1 44.7144 3.03416 0.0193546
169 1 28.6346 48.3107 40.4082
170 1 39.7261 33.7784 47.1266
171 1 29.0312 35.513 24.7914
172 1 21.1473 43.8083 28.5504
173 1 14.267 40.1437 9.92449
174 1 35.2478 1.62041 32.5433
175 1 18.6513 27.9598 16.4938
176 1 39.5975 37.0908 6.68669
177 1 9.97611 4.99647 25.2052
178 1 12.9164 7.31433 10.6891
179 1 26.9763 45.193 47.9564
180 1 55.4938 27.141 8.329
181 1 48.7586 42.9499 31.8519
182 1 49.7435 30.07 52.7557
183 1 13.5553 20.5575 3.89736
184 1 26.0218 52.9834 12.1925
185 1 33.4961 9.95819 34.4066
186 1 43.8467 26.5698 26.6191
187 1 1.56591 6.95602 53.6344
188 1 28.5475 39.199 3.65881
189 1 13.3918 41.2222 34.1125
190 1 35.816 48.6367 21.8258
191 1 20.2775 19.0422 45.923
192 1 50.5396 -0.155514 7.62836
193 1 37.4122 8.71779 13.6842
194 1 36.0591 3.74745 30.9538
195 1 17.5389 25.233 49.201
196 1 34.5561 5.43785 26.4143
197 1 7.03306 9.33446 49.4559
198 1 12.6251 17.6576 30.8395
199 1 31.5353 18.8315 2.80779
200 1 39.9837 20.5243 41.3513
201 1 26.7978 13.0293 16.3244
202 1 39.2316 2.03489 2.81717
203 1 31.4349 27.5801 37.3758
204 1 41.0905 27.3266 19.0492
205 1 7.97057 12.5473 2.62374
206 1 39.487 25.4842 24.7712
207 1 0.230234 45.1246 45.5509
208 1 32.0884 5.47657 10.8011
209 1 47.65 6.61458 47.1426
210 1 27.0903 21.8496 42.0248
211 1 8.41534 5.63518 21.7084
212 1 43.1966 27.3751 43.3162
213 1 22.5085 12.2627 50.9988
214 1 0.888527 37.8657 2.33155
215 1 11.4487 27.8459 23.1462
216 1 -0.0830295 24.8727 50.8742
217 1 21.9761 9.08064 35.34
218 1 0.999234 10.0777 54.4488
219 1 44.0806 52.0481 6.12874
220 1 47.6518 5.09723 42.2829
221 1 30.4473 0.671997 17.014
222 1 2.4541 7.47171 21.4315
223 1 26.2459 44.3397 2.86321
224 1 42.3067 9.36451 24.5954
225 1 43.7527 48.8062 38.4152
226 1 12.7029 42.0756 25.4486
227 1 20.327 45.5822 33.3145
228 1 0.042611 20.3601 52.9599
229 1 10.7918 27.2042 42.8316
230 1 31.0071 29.8927 41.3251
231 1 31.8459 35.1586 25.1857
232 1 40.5861 16.8762 17.7245
233 1 51.016 50.3381 38.3152
234 1 10.8594 14.3349 51.2459
235 1 41.5837 18.3103 42.4562
236 1 6.89148 47.869 29.5958
237 1 53.5014 29.2997 23.0058
238 1 36.0994 0.42092 1.69315
239 1 34.1003 28.6453 6.1223
240 1 9.00628 32.8806 51.1489
241 1 20.4056 49.3071 10.9586
242 1 32.8935 10.5536 3.1671
243 1 7.57632 24.1661 33.2968
244 1 55.8351 42.9429 7.74055
245 1 1.52362 28.079 19.9262
246 1 54.2013 5.64842 5.72302
247 1 54.6133 49.182 10.9668
248 1 44.293 0.250348 45.8425
249 1 10.4465 45.0229 48.7832
250 1 23.2226 24.3805 17.9828
251 1 19.5462 35.6639 2.8808
252 1 47.9986 16.7229 38.8476
253 1 2.63361 27.3723 48.1848
254 1 10.0385 5.07343 33.1599
255 1 54.9892 9.04925 18.0263
256 1 30.7992 47.4777 24.5189
257 1 1.44541 12.4614 35.162
258 1 33.033 18.674 27.6867
259 1 45.4197 45.8686 54.8475
260 1 24.8979 41.2241 33.9457
261 1 31.9567 10.513 39.6873
262 1 30.1084 47.1918 9.30684
263 2 43.9326 24.7304 29.2528
264 2 25.4153 47.147 1.69175
265 2 49.6913 7.2844 49.116
266 2 6.9826 24.4152 38.6258
267 2 14.7264 21.4034 1.27819
268 2 4.74226 3.32779 24.7304
269 2 15.2537 2.48849 16.6803
270 2 44.4076 43.451 53.7247
271 2 54.0047 44.8626 26.166
272 2 33.2 40.2465 13.9009
273 2 33.3411 5.96044 34.9176
274 2 52.9801 27.2289 30.6051
275 2 27.2002 7.08738 53.1822
276 2 -0.208534 13.9981 4.42463
277 2 1.22706 43.0758 39.4346
278 2 12.1537 34.8395 18.9397
279 2 44.0243 51.4779 46.6864
280 2 19.8282 55.2584 22.1344
281 2 41.3707 16.9897 14.7932
282 2 15.2433 28.7874 8.19903
283 2 46.7097 47.7133 28.7078
284 2 16.8855 27.0966 35.025
285 1 4.66097 35.6322 5.63309
286 1 49.5678 34.4988 20.2361
287 1 44.5447 1.80891 36.2592
288 1 24.1367 16.3214 30.5571
289 1 22.4869 30.8402 8.21363
290 1 50.7266 12.9301 24.1037
291 1 18.0775 43.7567 34.1246
292 1 40.9748 5.70688 44.3101
293 1 54.7569 20.0365 55.5226
294 1 30.9773 32.8443 41.7622
295 1 46.922 25.3811 29.7729
296 1 12.5004 32.1105 35.2929
297 1 48.0707 14.0335 33.9172
298 1 30.9117 22.2428 13.0688
299 1 32.1775 18.6231 17.8074
300 1 24.465 31.9085 9.0785
301 1 24.8865 49.7824 23.0459
302 1 46.5654 33.5186 26.1748
303 1 53.9242 3.19097 1.5972
304 1 13.0775 37.1583 55.5219
305 1 25.5751 38.6347 22.9457
306 1 28.8032 52.3409 32.9054
307 1 5.01585 39.7214 32.1798
308 1 39.817 54.3517 45.2516
309 1 49.3681 30.7512 28.4289
310 1 10.5911 52.8749 38.5428
311 1 38.0742 35.0091 5.60007
312 1 10.2533 7.94679 25.9858
313 1 5.07988 55.5284 18.1153
314 1 28.9877 47.5321 53.122
315 1 4.32405 6.23514 14.7724
316 1 44.1184 9.8846 10.4617
317 1 30.5024 32.1306 38.99
318 1 5.89343 23.4772 11.5517
319 1 3.5673 2.51417 18.454
320 1 18.92 33.3912 24.9903
321 1 26.2187 38.5353 34.2131
322 1 55.3135 21.7398 22.9854
323 1 11.1569 10.4899 32.9259
324 1 18.6675 8.77023 32.2229
325 1 21.5073 45.9969 43.3109
326 1 16.8265 32.16 41.2237
327 1 12.4342 9.11581 35.0805
328 1 0.438337 8.27756 36.9389
329 1 4.41183 25.4645 44.9266
330 1 7.83211 30.7695 30.2129
331 1 16.0554 39.2618 52.3138
332 1 0.56462 44.1916 12.0301
333 1 16.1082 13.753 10.4899
334 1 33.6171 34.9363 22.8336
335 1 35.4593 13.0738 51.1636
336 1 50.0348 21.3802 12.9655
337 1 0.821349 34.6109 7.64123
338 1 9.43996 22.9554 22.7934
339 1 13.5466 22.8525 41.8813
340 1 24.9973 23.5805 26.259
341 1 26.357 51.1138 24.996
342 1 -0.0667038 27.1627 17.7301
343 1 36.1864 14.188 27.9392
344 1 33.157 15.9885 11.2443
345 1 49.2908 16.5197 4.00097
346 1 0.0505821 6.73177 23.7328
347 1 19.8661 18.5661 10.9467
348 1 12.7559 10.2496 22.6098
349 1 4.12466 37.2725 10.5569
350 1 1.89863 53.5193 51.1687
351 1 45.2067 35.7855 5.51235
352 1 18.8683 8.37556 52.0813
353 1 24.3053 34.4687 53.9038
354 1 46.9892 37.3667 39.5159
355 1 48.7264 28.5237 38.9841
356 1 9.41755 39.9983 42.6765
357 1 19.9951 50.5129 52.8289
358 1 21.7755 24.2109 36.8661
359 1 29.1831 44.9013 46.4469
360 1 16.3172 38.2531 45.5175
361 1 39.8711 22.0907 43.6848
362 1 0.454946 54.3855 4.62184
363 1 44.2889 18.2008 14.7907
364 1 41.123 0.340645 33.1065
365 1 39.366 47.7443 7.45126
366 1 15.5321 34.6544 14.5643
367 1 50.647 46.9306 38.1501
368 1 40.6994 44.8827 26.5545
369 1 33.0865 13.9583 15.8799
370 1 3.50605 40.7267 50.6835
371 1 19.1683 28.1333 48.867
372 1 13.8409 22.3812 33.5997
373 1 21.4926 55.8797 38.1307
374 1 47.1242 50.2938 2.55025
375 1 4.42803 52.6765 35.3868
376 1 43.0007 48.698 24.908
377 1 7.695 21.0925 53.9637
378 1 28.9589 52.6116 21.1949
379 1 51.5225 39.2092 20.2245
380 1 10.8574 13.0852 26.9068
381 1 26.1625 50.4417 29.2645
382 1 55.3638 22.7048 8.43758
383 1 12.6236 23.1802 22.7408
384 1 48.9961 16.4094 32.8312
385 1 29.8703 9.13169 20.0224
386 1 36.0615 38.7018 23.4197
387 1 20.9986 33.8208 39.5041
388 1 24.2924 6.90219 40.2846
389 1 26.2565 11.0743 14.3639
390 1 45.3209 48.8151 31.6802
391 1 6.92352 9.208 6.84329
392 1 48.4237 49.1217 37.4324
393 1 3.25323 28.0213 0.922882
394 1 2.85735 37.9476 46.5508
395 1 54.7969 7.76417 48.2126
396 1 14.784 4.77206 23.8356
397 1 49.6409 26.0961 22.2618
398 1 21.9386 26.7941 54.8518
399 1 6.98171 54.2256 41.669
400 1 35.5986 42.8447 27.7295
401 1 18.8291 30.4264 24.8792
402 1 31.7594 48.3547 43.536
403 1 12.9379 42.6076 28.6648
404 1 26.7452 35.0625 45.7896
405 2 19.7605 8.28572 14.2534
406 2 36.1582 30.7985 7.69891
407 2 34.257 13.0417 12.8175
408 2 24.8914 50.0238 12.789
409 2 47.5831 0.571333 16.2573
410 2 36.8086 49.0322 16.5319
411 2 5.75729 41.6727 17.0843
412 2 53.5922 9.00178 36.1191
413 2 31.0787 21.6398 45.6106
414 2 12.6454 34.8946 47.7295
415 2 56.1046 52.0238 9.46769
416 2 52.1508 43.0817 55.1925
417 2 44.4559 4.87186 10.3084
418 2 7.48204 36.1069 11.2957
419 2 15.6658 54.4371 22.5134
420 2 23.7639 23.1817 23.3187
421 2 41.1016 49.3022 9.64194
422 2 31.8489 16.2586 7.83617
423 2 7.91694 0.496545 42.9952
424 2 52.0822 10.473 4.74774
425 2 47.9557 51.7786 38.9277
426 2 37.5716 8.34063 38.2603
427 1 29.5951 30.2198 -0.216797
428 1 0.730538 53.82 53.652
429 1 55.8503 27.8373 50.9275
430 1 51.9371 54.969 9.87285
431 1 20.0908 47.4336 26.294
432 1 42.9904 8.15862 6.50886
433 1 40.7545 21.9146 13.529
434 1 15.6383 25.232 42.6883
435 1 23.1511 52.2125 8.61646
436 1 32.5032 31.8992 48.5257
437 1 26.0307 24.0977 33.6182
438 1 47.0987 2.95105 35.599
439 1 1.40701 38.2767 53.9628
440 1 7.83674 22.324 30.9606
441 1 22.4498 14.3648 10.8337
442 1 42.6624 18.2976 17.4114
443 1 42.1705 9.94874 27.1691
444 1 51.6389 42.3345 47.6537
445 1 5.50228 14.6494 17.5856
446 1 38.8669 31.4964 39.8836
447 1 20.8793 52.0436 10.1633
448 1 33.7969 6.20569 48.3822
449 1 54.1611 6.78343 29.1663
450 1 47.001 34.2182 2.98459
451 1 27.8478 49.2518 14.5307
452 1 51.5135 17.2513 19.3896
453 1 7.16158 20.0421 32.3944
454 1 5.312 35.4198 52.5755
455 1 5.58902 22.9665 25.3643
456 1 45.8818 3.58687 51.4407
457 1 53.6325 39.1025 18.4021
458 1 27.3845 20.3032 36.6456
459 1 2.78365 35.0116 9.6876
460 1 26.7288 0.398836 38.9057
461 1 8.20845 16.7641 17.2492
462 1 48.4367 27.5955 9.09628
463 1 15.5273 2.38779 7.44842
464 1 31.3303 52.7372 23.0535
465 1 7.80243 47.5022 17.9954
466 1 4.9035 47.9702 5.37298
467 1 47.2874 11.4005 38.1393
468 1 45.1902 54.2425 7.05558
469 1 14.9015 43.366 24.2824
470 1 28.4211 0.0470557 14.8843
471 1 26.813 9.88859 3.47662
472 1 15.1449 37.994 28.251
473 1 48.5344 38.9689 46.7339
474 1 40.2555 12.4864 16.8224
475 1 23.0057 25.1157 20.6395
476 1 12.0005 21.6882 40.0143
477 1 49.2771 3.66711 37.3193
478 1 41.6365 7.27564 13.7654
479 1 55.5667 25.7894 35.1788
480 1 41.1244 8.07353 4.00502
481 1 25.2808 1.27874 50.9501
482 1 30.2821 37.221 22.6842
483 1 46.3593 19.345 34.275
484 1 5.54849 37.4529 7.39721
485 1 18.4891 45.1563 25.0874
486 1 47.302 7.85241 42.8843
487 1 20.6911 12.6642 22.1095
488 1 5.65345 47.4993 25.5569
489 1 2.64612 44.5144 13.654
490 1 24.3558 49.5703 25.9474
491 1 13.3812 29.5739 47.1524
492 1 26.9175 24.8175 41.9631
493 1 44.2538 30.2769 34.1529
494 1 4.63772 54.5274 13.5655
495 1 11.7338 33.9112 13.0993
496 1 39.0784 17.8274 37.2546
497 1 7.14939 17.2387 31.8289
498 1 19.2611 20.5482 8.94706
499 1 33.9229 30.2749 19.9916
500 1 51.9428 3.21697 36.0475
501 1 16.346 50.9091 43.2389
502 1 50.7459 43.1356 7.09414
503 1 42.3676 20.8826 43.1267
504 1 40.3454 47.0371 32.2391
505 1 38.4061 27.3554 3.74314
506 1 22.5026 27.4515 42.2532
507 1 53.7515 54.5316 32.3622
508 1 10.4809 43.1067 17.6784
509 1 53.5532 29.3561 7.77668
510 1 30.5145 0.893588 3.34363
511 1 49.9403 5.62687 5.76889
512 1 14.1319 50.4204 12.6029
513 1 30.2828 28.5258 27.7922
514 1 28.3865 27.8194 20.9965
515 1 28.9675 12.6183 27.4448
516 1 5.20909 40.3782 37.089
517 1 15.433 2.9685 0.197949
518 1 24.0814 12.3499 13.2346
519 1 8.15545 11.7378 45.3424
520 1 36.1451 17.4103 4.36749
521 1 45.941 24.7905 32.2614
522 1 7.53272 17.2099 0.827564
523 1 38.7215 1.72931 26.1837
524 1 40.1699 51.8463 32.0485
525 1 25.8908 41.7937 22.5565
526 1 26.5651 15.1692 31.0195
527 1 28.9727 54.6356 23.5495
528 1 2.20654 6.59243 6.36778
529 1 40.1583 8.10337 33.8298
530 1 38.3519 17.6903 15.7136
531 1 44.7157 8.37547 43.9612
532 1 35.197 9.90069 11.9082
533 1 42.9288 6.3423 20.5933
534 1 19.5523 35.762 20.3259
535 1 42.7677 2.78887 38.3397
536 1 38.3357 23.6034 18.2413
537 1 19.4467 22.4161 20.9213
538 1 6.85666 27.4644 2.74458
539 1 28.6748 37.6536 33.4466
540 1 48.4745 11.5722 16.2189
541 1 42.7102 6.04265 8.01085
542 1 32.9668 47.7252 36.0771
543 1 37.6525 44.9824 34.8575
544 1 31.7393 34.7081 15.2032
545 1 52.1817 24.6403 5.74123
546 1 23.446 50.3029 40.6155
547 2 15.1878 40.8604 26.7587
548 2 12.5804 46.9388 1.24053
549 2 35.0994 47.8368 25.7175
550 2 55.5954 51.2992 12.9451
551 2 52.5503 6.82197 16.9061
552 2 10.0493 6.91506 35.6753
553 2 37.5541 10.216 16.7393
554 2 23.2038 5.659 52.9356
555 2 14.7804 12.6841 21.6234
556 2 12.6317 41.6223 42.8885
557 2 13.7795 5.42752 33.9419
558 2 17.5025 33.0128 3.4099
559 2 40.0756 17.0538 20.9963
560 2 5.292 16.3608 29.3305
561 2 38.7122 12.843 50.9331
562 2 3.73852 19.597 28.5746
563 2 29.7953 47.06 35.0795
564 2 16.6215 5.06296 40.1274
565 2 19.9963 22.3798 34.8663
566 2 31.2533 13.5129 39.1856
567 2 44.6101 38.5263 0.593923
568 2 43.7026 18.1916 20.3866
569 1 14.8732 1.32098 19.6442
570 1 52.2022 37.0554 49.6619
571 1 20.4728 14.3714 5.57648
572 1 46.5083 15.174 53.7085
573 1 15.5305 15.5155 25.9373
574 1 30.3595 46.1321 17.5535
575 1 30.14 49.8186 41.969
576 1 13.9099 -0.116921 11.5583
577 1 1.72427 6.50209 15.4073
578 1 55.3419 39.811 44.3942
579 1 34.075 45.0621 48.2659
580 1 22.7609 31.5543 3.96773
581 1 37.6889 9.95373 29.1741
582 1 12.1457 41.6293 38.0767
583 1 45.3059 25.4409 18.1653
584 1 29.336 40.8092 29.328
585 1 33.3812 8.12185 23.3926
586 1 55.7193 0.3217 31.2383
587 1 10.7898 1.53548 7.29167
588 1 9.20974 44.1677 46.4702
589 1 34.2583 47.3423 49.8278
590 1 55.9252 7.63172 6.69805
591 1 12.9279 9.12356 31.1506
592 1 52.8912 33.246 6.22674
593 1 18.8893 25.2214 33.5242
594 1 2.74564 42.3128 41.8478
595 1 34.2881 11.9145 43.8461
596 1 3.45977 4.6866 39.183
597 1 29.0833 51.748 7.40812
598 1 48.9231 47.3193 25.2297
599 1 5.35884 3.42756 13.5457
600 1 11.3413 32.4501 4.19126
601 1 21.6365 42.237 54.1765
602 1 2.8853 42.5086 15.6034
603 1 26.6244 35.4227 52.5015
604 1 5.29154 21.888 29.9411
605 1 27.951 46.3495 27.9823
606 1 29.8684 50.8516 30.9956
607 1 38.7267 13.954 34.0222
608 1 41.8247 12.9283 50.0439
609 1 34.0369 30.0641 12.6291
610 1 43.6734 5.77668 45.0116
611 1 20.9281 44.6263 31.0041
612 1 17.8418 46.6716 45.785
613 1 3.18754 51.9644 0.881331
614 1 53.8947 33.3404 10.8772
615 1 5.77142 42.6158 41.2064
616 1 44.1541 8.38503 51.876
617 1 16.0449 11.9198 51.804
618 1 6.26689 53.5605 51.2528
619 1 36.8429 11.4627 27.1947
620 1 28.5327 27.0894 25.7989
621 1 53.1291 8.83527 27.36
622 1 3.76168 29.5782 43.9683
623 1 15.0928 44.366 11.8102
624 1 28.1129 9.58461 55.1827
625 1 10.1977 14.8977 24.8996
626 1 35.6069 25.7434 21.8292
627 1 34.5066 36.8785 56.0994
628 1 31.5895 10.0737 17.3771
629 1 41.8286 46.978 11.4676
630 1 40.328 2.01622 22.0395
631 1 43.8746 28.6729 14.0066
632 1 4.7222 32.4585 26.8343
633 1 16.1182 6.14217 49.6344
634 1 47.8462 45.8069 17.8871
635 1 31.4747 43.8895 21.7309
636 1 5.95946 6.77993 16.9502
637 1 0.728552 15.1006 40.0544
638 1 32.8631 47.5899 55.4603
639 1 28.5461 5.2939 4.3683
640 1 22.0108 53.457 6.47462
641 1 55.9251 47.7281 35.7803
642 1 53.7104 18.6026 10.2031
643 1 41.197 27.7002 24.9722
644 1 20.1305 42.4483 46.1782
645 1 0.613426 19.4139 40.8465
646 1 13.3751 31.1056 12.5721
647 1 3.34014 29.5735 8.36896
648 1 19.6698 16.9669 5.05353
649 1 20.7989 20.2602 19.6479
650 1 15.0113 3.99669 2.89024
651 1 30.2526 33.1656 33.0424
652 1 52.1588 17.6595 42.7167
653 1 52.0351 30.7507 51.3384
654 1 29.5138 34.0074 -0.189864
655 1 41.2616 4.54022 30.1444
656 1 36.6174 52.2248 40.0182
657 1 55.9363 34.9459 20.5824
658 1 24.8608 8.22448 54.712
659 1 38.801 39.8986 50.3529
660 1 1.58911 44.1835 6.68731
661 1 46.2781 36.1012 13.2094
662 1 15.5186 41.3449 44.3551
663 1 20.0666 35.7092 37.5065
664 1 54.044 16.8831 24.3689
665 1 34.0129 42.676 22.6529
666 1 15.2245 9.05847 26.1186
667 1 35.1721 16.9677 28.3001
668 1 46.0512 12.5446 46.4478
669 1 51.2401 22.8726 15.6194
670 1 51.0969 0.991015 10.1752
671 1 32.4892 4.22228 25.2065
672 1 1.81235 18.7085 9.04921
673 1 11.3979 3.91631 35.5841
674 1 46.1884 51.1472 7.80331
675 1 23.1627 7.83687 33.1094
676 1 56.054 15.3465 23.012
677 1 55.8737 36.1993 54.0557
678 1 15.7748 55.9797 17.763
679 1 52.7607 12.4568 22.2568
680 1 28.3588 32.4041 45.9936
681 1 -0.180591 26.2324 48.8387
682 1 6.97379 3.17234 44.7859
683 1 43.2468 13.1025 21.0432
684 1 38.4262 32.0917 37.0885
685 1 22.5981 55.1995 15.1054
686 1 44.7722 14.8566 11.2371
687 1 47.0605 55.1463 28.3515
688 1 20.445 7.28361 33.3194
689 2 21.6505 49.3478 23.9953
690 2 29.939 50.498 9.96929
691 2 34.4007 26.8543 38.9647
692 2 8.14391 42.4524 49.1616
693 2 45.011 48.2888 22.5728
694 2 2.8238 51.2866 54.3331
695 2 17.6131 15.2742 45.3009
696 2 16.5097 40.9597 8.15853
697 2 1.48611 18.2594 36.0874
698 2 16.9524 18.7021 6.94029
699 2 44.8563 11.3489 39.8504
700 2 38.4386 5.04726 3.68218
701 2 53.5944 27.7856 5.21713
702 2 36.126 28.6418 27.2456
703 2 48.9696 46.0755 44.2311
704 2 54.3756 12.7791 17.6441
705 2 2.36272 37.2693 7.4179
706 2 1.99411 40.334 44.4458
707 2 47.4107 17.0925 18.8736
708 2 43.2654 54.4922 0.518433
709 2 44.2874 30.329 42.3851
710 2 53.1062 48.4775 31.1092
711 1 36.884 2.09788 46.5547
712 1 18.4742 30.1765 52.8203
713 1 1.16691 49.2291 44.1103
714 1 38.6595 28.6434 25.2979
715 1 1.06822 11.0574 44.6596
716 1 2.96922 15.7332 51.0014
717 1 47.1599 0.942335 3.39926
718 1 3.86456 42.0335 56.0031
719 1 42.0525 16.9526 52.7158
720 1 19.1472 16.2503 13.2162
721 1 31.322 6.57763 4.87739
722 1 32.196 37.7605 55.5117
723 1 19.625 14.9617 15.9156
724 1 48.4854 37.1926 53.7459
725 1 13.2568 45.6183 34.8616
726 1 30.6549 40.8747 41.213
727 1 37.4007 54.4315 15.2843
728 1 28.164 0.437637 55.136
729 1 38.2924 3.55651 55.0995
730 1 5.98553 4.3627 37.49
731 1 53.9405 10.9908 20.2434
732 1 12.7958 1.25423 15.092
733 1 35.7081 53.1421 54.7758
734 1 37.457 43.8053 18.159
735 1 39.8896 9.62755 1.2609
736 1 51.8536 19.0642 50.7117
737 1 31.1098 41.946 27.5324
738 1 0.513099 11.6129 6.54246
739 1 22.0564 16.9066 2.75865
740 1 40.5147 35.2424 49.6367
741 1 53.7254 9.69248 32.7764
742 1 18.8701 40.4193 5.82465
743 1 44.841 29.2752 27.2098
744 1 33.3873 55.8459 40.2746
745 1 45.3321 12.8007 13.0702
746 1 20.4498 17.8451 21.2328
747 1 0.606096 3.07506 36.4839
748 1 45.192 52.244 1.53325
749 1 17.4243 13.1709 42.7028
750 1 23.072 21.1509 2.9047
751 1 18.9087 32.9577 33.7379
752 1 15.093 47.9603 38.7237
753 1 20.3851 9.65502 43.5491
754 1 36.4931 54.2157 27.236
755 1 29.4299 18.0853 18.3308
756 1 31.4611 49.3226 53.7878
757 1 6.97959 22.0111 23.3952
758 1 54.6433 27.2084 20.1257
759 1 44.7933 7.09259 18.5853
760 1 19.2715 32.4796 54.6204
761 1 48.6508 15.2376 46.5591
762 1 30.6269 52.6263 12.1248
763 1 24.6065 17.9357 8.71302
764 1 18.0599 12.9339 21.2547
765 1 42.6054 19.6761 40.2136
766 1 21.2032 31.9293 6.26946
767 1 4.8037 51.4668 25.7357
768 1 25.697 22.1297 35.3637
769 1 18.1607 48.6085 54.7177
770 1 18.9689 3.39975 4.62588
771 1 11.5638 38.5711 44.2644
772 1 29.9905 13.1487 52.797
773 1 10.2391 16.5032 45.7496
774 1 33.3717 2.50231 27.2389
775 1 45.9659 41.3439 30.1206
776 1 25.1107 55.7705 22.3928
777 1 45.8432 47.6608 25.4638
778 1 21.9686 33.31 47.9001
779 1 40.865 26.9174 44.6464
780 1 31.028 47.2361 40.7869
781 1 20.2867 38.252 25.1239
782 1 4.39131 19.0181 15.3003
783 1 50.0945 0.89486 36.9001
784 1 43.836 27.9592 24.3917
785 1 27.3719 26.1013 48.673
786 1 15.6857 7.77605 42.1349
787 1 5.55429 31.3013 54.1907
788 1 2.17735 10.542 36.9249
789 1 15.4893 45.9582 28.1675
790 1 51.4911 29.4414 43.6908
791 1 36.8048 18.7297 24.6622
792 1 26.1612 55.3095 19.5698
793 1 2.77527 50.3705 22.337
794 1 30.0901 25.4664 28.1183
795 1 56.0955 21.5552 36.8526
796 1 44.6069 12.5871 3.87478
797 1 18.7085 11.5358 13.8171
798 1 42.6141 29.3312 54.4248
799 1 16.0738 35.8817 12.1505
800 1 16.9967 30.8774 55.1528
801 1 48.9418 48.2626 10.9967
802 1 20.8538 15.4535 36.591
803 1 40.0704 45.2296 40.0882
804 1 51.9232 36.9965 9.52733
805 1 38.4948 44.5985 32.2165
806 1 13.1146 15.4239 37.3783
807 1 55.5527 16.0956 34.5691
808 1 48.8609 8.22831 38.4858
809 1 10.1887 12.139 1.20431
810 1 8.12341 40.7517 32.1837
811 1 33.1969 22.2366 48.1577
812 1 53.7271 16.0345 44.8741
813 1 0.51543 11.1662 2.40158
814 1 45.7585 4.89036 19.7927
815 1 4.44179 8.79574 41.8135
816 1 50.143 5.36994 35.3809
817 1 44.4923 43.691 29.0928
818 1 54.8489 48.7007 55.2146
819 1 18.0001 37.2348 43.3297
820 1 53.1725 28.3269 38.3163
821 1 32.0351 29.7925 38.9224
822 1 1.28172 4.14911 28.8356
823 1 54.0807 46.3492 37.8917
824 1 54.4612 0.0114815 28.5458
825 1 17.6418 54.1758 29.3772
826 1 16.7892 50.4451 4.05441
827 1 20.1314 33.7388 22.5268
828 1 33.5467 21.5194 26.8204
829 1 49.36 55.635 29.9229
830 1 51.3371 43.2832 4.18044
831 2 7.48505 40.1547 39.898
832 2 23.9436 14.1848 2.8963
833 2 20.3656 43.2381 23.3283
834 2 43.375 27.1151 46.7285
835 2 25.2085 -0.13526 27.6772
836 2 23.8144 14.0169 32.5837
837 2 15.8002 27.0667 17.8838
838 2 23.0405 42.358 47.6267
839 2 28.6446 35.3945 31.3216
840 2 19.8204 16.1277 53.3791
841 2 15.6902 27.4633 26.5537
842 2 47.2128 9.45996 45.851
843 2 42.2886 1.43488 30.0552
844 2 31.3953 15.372 18.4549
845 2 8.49877 51.5211 16.4453
846 2 41.348 41.4284 48.8453
847 2 48.7484 54.8571 10.3587
848 2 47.8758 44.368 26.008
849 2 23.2069 17.4361 34.78
850 2 22.5486 32.2192 44.498
851 2 47.993 -0.0689851 54.0134
852 2 46.4072 38.6315 20.3523
853 1 38.386 43.3784 7.65842
854 1 30.145 42.3863 47.0649
855 1 47.6389 26.7737 14.6672
856 1 11.2949 21.4438 27.8817
857 1 54.9836 17.3486 40.4185
858 1 14.251 50.2761 48.6171
859 1 35.0552 24.5852 41.1138
860 1 9.52814 37.8773 4.18406
861 1 52.1729 36.5228 29.2338
862 1 54.5253 31.1037 5.35132
863 1 33.1264 11.3634 10.252
864 1 47.7059 26.5519 49.8212
865 1 14.4474 26.5379 14.7479
866 1 12.8564 34.4508 0.120188
867 1 50.7087 21.9509 37.2241
868 1 49.6059 1.87443 34.3921
869 1 53.8377 26.8985 52.4254
870 1 33.38 24.6443 20.9801
871 1 10.1412 28.1103 15.003
872 1 53.237 37.6505 40.4369
873 1 12.5708 39.3017 31.915
874 1 54.085 46.0065 1.46577
875 1 41.9837 29.4546 48.2072
876 1 55.9561 16.6793 31.3358
877 1 56.017 27.5616 22.5853
878 1 4.694 35.629 20.2422
879 1 10.5673 14.2968 31.2161
880 1 51.7384 11.4944 1.76521
881 1 31.7964 13.2386 47.8925
882 1 44.7393 22.6762 52.6719
883 1 26.4022 14.0284 13.7894
884 1 51.4597 54.5319 36.4787
885 1 29.8088 23.3036 1.07807
886 1 39.4048 47.6923 2.22081
887 1 7.23402 15.6116 19.7754
888 1 2.86298 29.9757 46.9075
889 1 46.1769 7.57614 34.1084
890 1 54.952 2.74464 6.23108
891 1 53.1774 20.6874 37.5867
892 1 39.9418 53.3604 16.0472
893 1 14.5318 50.9958 33.5622
894 1 8.62851 40.7373 9.74023
895 1 3.56515 48.5493 32.6477
896 1 2.71012 40.8128 17.9345
897 1 28.2883 53.1305 10.4057
898 1 41.1582 35.3723 42.6205
899 1 16.5644 19.2221 32.2453
900 1 9.4251 27.9342 1.93804
901 1 34.315 37.5265 42.2309
902 1 25.8672 45.7044 25.8523
903 1 3.79465 26.7417 8.80022
904 1 35.8715 35.6387 11.5169
905 1 28.4457 30.1866 22.3339
906 1 17.2521 35.9842 7.38532
907 1 39.1508 51.0115 14.7082
908 1 1.37386 6.34042 34.8094
909 1 40.3983 2.8584 42.7036
910 1 52.4943 38.5149 7.32717
911 1 12.7441 8.70819 24.8721
912 1 16.8702 18.4159 36.9791
913 1 4.1763 45.538 5.8893
914 1 53.3497 51.8065 31.2789
915 1 16.6925 23.2096 38.2705
916 1 28.1724 26.5387 40.6799
917 1 35.3062 56.0008 4.46686
918 1 50.5385 34.8123 14.1181
919 1 48.8955 40.8747 38.2504
920 1 11.8234 38.384 38.7241
921 1 31.8607 54.7557 11.3909
922 1 17.5805 41.6881 31.8964
923 1 50.1667 5.98206 38.3569
924 1 0.580207 11.5498 16.5928
925 1 45.264 55.8379 4.84358
926 1 27.7718 49.7779 51.5875
927 1 52.906 49.3126 43.3301
928 1 42.7783 11.8155 12.5895
929 1 50.2137 33.2251 7.22865
930 1 38.8596 0.446035 19.9557
931 1 16.9167 25.3891 31.6238
932 1 10.3538 49.7345 53.0582
933 1 30.8561 6.78 43.9199
934 1 24.6394 51.1855 54.7667
935 1 5.18185 39.4334 54.8453
936 1 7.59857 32.9242 12.3383
937 1 36.6008 5.03763 42.9932
938 1 36.3512 6.2129 40.5246
939 1 5.36324 29.3587 16.2017
940 1 7.36689 39.0077 52.9377
941 1 36.5078 6.37638 35.773
942 1 15.1674 46.2138 45.4175
943 1 33.6406 36.6126 34.5384
944 1 9.01353 41.4932 16.0808
945 1 44.7308 20.7053 44.5919
946 1 9.73974 42.2494 44.3895
947 1 41.577 30.9172 40.8367
948 1 15.5554 55.5736 43.6795
949 1 49.7015 50.0293 15.6086
950 1 39.2909 27.6014 50.9194
951 1 14.7733 43.2905 54.074
952 1 43.9765 0.790984 48.4498
953 1 25.9477 22.3692 51.7141
954 1 10.793 45.6398 40.7429
955 1 12.975 21.932 15.3221
956 1 11.8028 20.3108 8.36651
957 1 47.0349 44.0107 51.1027
958 1 11.6767 22.6517 32.347
959 1 31.364 49.9329 35.7259
960 1 53.7651 14.1014 12.7229
961 1 36.921 41.5812 42.6575
962 1 54.8366 6.29772 18.7993
963 1 7.76615 30.2307 47.1111
964 1 25.311 14.8753 44.4928
965 1 15.2752 30.4997 35.7368
966 1 24.7328 42.6128 31.4234
967 1 9.06302 6.68739 13.6295
968 1 42.6699 9.7424 53.5732
969 1 32.2276 36.9466 50.3961
970 1 31.0805 17.2559 15.7898
971 1 49.9104 5.22568 43.6784
972 1 50.5361 6.89356 52.1382
973 2 45.4921 4.16504 25.5651
974 2 46.2546 39.56 35.0933
975 2 53.3564 39.0824 27.7081
976 2 17.2924 30.3087 49.6673
977 2 52.8978 36.2284 16.1627
978 2 52.5518 36.1827 19.919
979 2 33.0356 42.5076 40.6675
980 2 54.9469 6.1791 44.9234
981 2 36.4628 11.7614 9.82603
982 2 54.276 29.8002 49.0647
983 2 12.09 31.446 1.27831
984 2 46.345 22.561 34.3837
985 2 51.9615 2.62808 12.5812
986 2 7.18117 18.2985 37.918
987 2 20.2018 6.36892 5.06917
988 2 2.46758 26.5386 51.8594
989 2 39.9779 27.955 32.3673
990 2 54.0352 10.0328 15.2367
991 2 23.0325 21.3516 17.5876
992 2 16.406 15.5527 54.9748
993 2 1.80834 15.6544 55.9808
994 2 53.521 23.1688 35.3453
995 1 54.4119 3.19173 43.8768
996 1 51.1121 25.4292 47.1527
997 1 24.8313 2.03425 48.2671
998 1 6.53405 48.7884 35.8972
999 1 24.8704 51.152 52.2145
1000 1 19.789 8.74663 47.7913
1001 1 30.8914 30.4909 36.5797
1002 1 52.6162 26.4406 8.09357
1003 1 14.0551 28.7621 30.8815
1004 1 6.27239 40.0194 7.01305