ITEM: TIMESTEP
0
ITEM: NUMBER OF ATOMS
9088
ITEM: BOX BOUNDS pp pp pp
-2.7677536276052772e-01 5.6161267988697801e+01
-2.7677536276052772e-01 5.6161267988697801e+01
-2.7677536276052772e-01 5.6161267988697801e+01
ITEM: ATOMS id type x y z
1 1 29.6306 41.9513 51.7283
2 1 44.6199 4.2515 36.6463
3 1 35.9642 9.33572 41.0972
4 1 37.0874 49.2282 43.8261
5 1 11.3796 34.6202 8.43808
6 1 39.5799 31.1481 30.9293
7 1 19.7708 32.9441 1.10264
8 1 0.801185 4.42343 6.72243
9 1 55.47 50.2974 40.1364
10 1 36.974 13.3458 53.5475
11 1 48.3067 35.5926 32.5508
12 1 35.5202 19.4413 36.6871
13 1 21.564 48.8069 36.826
14 1 19.7561 49.7805 50.6351
15 1 3.21892 36.6547 30.3553
16 1 30.5103 54.2969 33.8231
17 1 50.4358 9.96898 28.2147
18 1 1.79616 52.3191 30.1794
19 1 30.1866 23.7227 51.816
20 1 31.7196 2.71515 44.8137
21 1 25.4551 49.3207 50.5341
22 1 9.47639 41.6193 1.91085
23 1 21.6053 17.6024 37.9495
24 1 3.10729 7.69717 55.5958
25 1 23.7712 28.2445 40.3968
26 1 19.7353 28.0778 43.3352
27 1 34.7568 29.0596 54.5667
28 1 13.6424 32.5043 14.7355
29 1 13.0537 50.2928 41.8887
30 1 50.9213 13.0467 40.7603
31 1 32.6837 4.54197 2.33798
32 1 33.9659 5.20421 23.3132
33 1 24.3394 42.0183 2.48905
34 1 14.4211 24.4945 1.70815
35 1 19.2384 51.4341 43.3019
36 1 19.1225 40.174 16.3056
37 1 23.6299 56.058 47.4695
38 1 24.1357 22.9777 7.75043
39 1 13.1099 26.0355 -0.161676
40 1 8.44526 11.2524 47.6134
41 1 46.6821 41.046 1.05307
42 1 5.61655 39.0543 15.0851
43 1 21.4466 17.0348 9.58559
44 1 50.9994 52.136 23.6342
45 1 12.8465 43.7248 55.97
46 1 -0.0202967 17.6706 10.9509
47 1 42.6907 6.44668 32.1637
48 1 18.5111 30.6931 19.6506
49 1 8.56663 23.0627 23.6709
50 1 18.0484 19.4112 21.0507
51 1 50.2403 32.2921 30.4125
52 1 22.2795 10.504 37.5475
53 1 52.3039 20.4915 1.32979
54 1 55.6178 27.3819 41.9463
55 1 39.7796 45.221 29.5573
56 1 13.656 23.0996 46.5455
57 1 6.75343 33.3445 34.6264
58 1 37.356 11.4712 21.6642
59 1 5.68258 30.5615 28.5645
60 1 36.2951 32.5835 54.746
61 1 11.6088 26.9189 54.2247
62 1 52.8303 22.2937 24.4885
63 1 49.5896 43.2741 29.1429
64 1 22.4447 4.0831 15.9605
65 1 11.0103 42.524 47.8904
66 1 7.74909 44.7818 9.77695
67 1 12.2602 43.2527 53.0374
68 1 11.2022 33.8663 52.4939
69 1 35.664 39.5433 47.575
70 1 1.77123 27.9523 4.6657
71 1 52.0983 47.1087 28.2588
72 1 55.6842 29.6667 1.61407
73 1 37.7588 48.8872 10.496
74 1 8.15236 32.475 43.2533
75 1 37.5079 19.5193 5.34538
76 1 38.4584 24.2271 6.29614
77 1 47.4512 40.3418 31.6677
78 1 32.0245 41.8499 8.83409
79 1 31.6996 23.2967 43.0631
80 1 39.4822 0.0413223 30.7028
81 1 17.2909 27.3326 54.2384
82 1 50.8707 1.31423 23.8316
83 1 7.90537 14.7331 27.7645
84 1 36.5447 1.93077 4.12099
85 1 39.6892 11.0887 38.6047
86 1 34.7279 34.2367 34.3655
87 1 27.2606 9.81218 33.3404
88 1 15.7636 11.1408 13.0377
89 1 3.77667 49.7358 40.3557
90 1 1.30169 39.5138 51.5677
91 1 18.1187 7.75908 21.9591
92 1 10.0194 12.0024 19.314
93 1 38.4061 9.95911 11.4099
94 1 35.7763 34.37 28.9077
95 1 40.6941 24.4221 19.0379
96 1 7.10512 -0.2383 14.0132
97 1 3.31884 8.46839 32.9139
98 1 15.0467 13.1028 30.0627
99 1 42.3295 36.5495 5.69508
100 1 3.39495 5.89693 26.8736
101 1 0.774204 34.0892 47.3659
102 1 5.10372 1.20028 12.1991
103 1 41.8264 43.2338 56.0164
104 1 14.6027 55.3057 39.1738
105 1 31.142 13.8499 10.6221
106 1 19.1776 48.4692 47.8551
107 1 38.9069 55.791 51.7224
108 1 46.7279 17.1901 47.1766
109 1 10.2057 45.8154 16.9639
110 1 31.4213 8.91394 10.6331
111 1 38.7889 51.2315 11.6807
112 1 8.06088 5.59301 10.96
113 1 29.0446 32.923 11.5982
114 1 24.2608 16.8629 39.8839
115 1 42.8611 34.7111 31.0406
116 1 32.1222 6.11161 37.7868
117 1 -0.120743 12.5257 40.4407
118 1 6.00381 43.1827 35.9206
119 1 36.418 36.3262 33.9731
120 1 15.191 1.64447 39.6395
121 2 11.9001 38.7284 35.1884
122 2 51.6437 18.7866 12.9178
123 2 55.4163 46.7505 21.0015
124 2 52.7366 29.6676 19.7552
125 2 53.8872 35.7199 38.6451
126 2 25.1219 7.62593 17.6275
127 2 12.1578 51.195 15.6386
128 2 7.68976 30.1688 35.5044
129 2 55.0997 17.8562 7.74746
130 2 1.26681 21.2555 45.8626
131 2 51.9834 12.0796 47.2754
132 2 39.0826 46.6674 18.0125
133 2 35.1687 42.6445 15.5289
134 2 14.9759 4.79626 8.97354
135 2 42.5966 34.0571 3.73075
136 2 9.88568 0.671385 32.2553
137 2 40.4296 24.2571 46.4966
138 2 5.08919 4.86413 49.2027
139 2 30.8984 14.668 13.7352
140 2 45.3996 27.1881 38.7418
141 2 7.9412 38.292 22.922
142 2 29.4768 23.4862 40.5455
143 1 52.1071 20.6017 43.8492
144 1 29.3106 17.666 13.5299
145 1 53.9779 12.1019 6.79478
146 1 52.4197 26.6864 15.3329
147 1 29.3663 27.7245 33.1824
148 1 26.999 7.47171 38.5311
149 1 46.3906 6.47401 44.8095
150 1 25.0873 25.1146 9.57117
151 1 53.0632 25.4139 54.8238
152 1 10.3925 33.714 45.5228
153 1 49.7929 48.5598 29.0511
154 1 43.1411 41.779 30.9177
155 1 32.3116 18.7173 10.3692
156 1 7.71235 32.9893 9.48142
157 1 51.7632 34.0346 21.9616
158 1 37.9545 5.44556 0.669132
159 1 56.1244 47.3828 9.49339
160 1 49.265 2.41428 2.18866
161 1 10.7567 25.436 21.3868
162 1 12.8979 12.9342 44.1214
163 1 20.0556 21.3231 26.6739
164 1 55.6496 38.4249 11.8636
165 1 51.6745 35.5389 6.52995
166 1 45.0431 41.7493 14.806
167 1 31.3864 39.6115 46.3954
168 1 40.9716 19.0124 47.189
169 1 28.8059 48.4612 40.3663
170 1 39.5248 34.0698 47.1106
171 1 28.9707 35.3511 24.8592
172 1 21.1494 43.8446 28.5806
173 1 13.8852 39.956 9.89015
174 1 35.4404 1.60795 32.5225
175 1 18.1811 28.1712 16.2198
176 1 39.2168 36.922 6.78031
177 1 9.8389 4.40487 24.6803
178 1 15.2557 6.54216 11.523
179 1 27.1536 45.5523 47.9259
180 1 55.3574 26.7985 8.27299
181 1 48.9122 42.8258 31.6767
182 1 49.6071 30.1779 52.5469
183 1 13.2104 20.0962 3.85441
184 1 25.6876 52.7347 11.9189
185 1 33.4402 10.1458 34.2204
186 1 43.7554 26.3502 26.5223
187 1 1.54914 6.69901 53.5322
188 1 28.4109 39.297 3.36014
189 1 13.4795 41.2157 33.9437
190 1 35.7992 48.9036 21.6426
191 1 17.2233 23.032 43.6976
192 1 49.6616 54.113 5.91553
193 1 37.4264 8.75887 13.7525
194 1 36.0965 3.65283 30.6959
195 1 14.4911 16.8472 50.2463
196 1 37.3642 4.26344 25.0639
197 1 6.53498 9.52899 49.6133
198 1 8.92058 25.6325 29.4543
199 1 31.4227 18.6306 2.60575
200 1 39.8408 20.5427 41.5931
201 1 26.3526 13.0531 16.1866
202 1 38.9081 1.75402 2.76069
203 1 31.2531 27.7448 37.4414
204 1 40.7281 27.1393 19.571
205 1 7.81116 12.4925 2.3037
206 1 39.1229 27.8606 28.1478
207 1 0.157918 45.1423 45.7113
208 1 31.9265 5.03969 10.896
209 1 47.7209 6.58844 47.3801
210 1 27.3422 21.9048 41.7089
211 1 8.86209 5.65294 22.0484
212 1 43.2187 27.6344 43.5272
213 1 22.411 12.4117 51.1284
214 1 0.437592 37.7967 2.38377
215 1 11.6878 30.1861 24.0172
216 1 0.133013 24.7555 51.1157
217 1 21.8222 9.14568 35.2322
218 1 1.30572 9.82326 54.2701
219 1 44.0324 49.324 7.78522
220 1 50.1586 4.26614 44.0819
221 1 28.8236 0.537796 16.0227
222 1 3.07093 5.26901 19.9419
223 1 26.1421 43.8702 2.64351
224 1 39.8213 46.8765 10.0098
225 1 43.8495 49.1771 38.4676
226 1 12.5152 42.2456 25.3043
227 1 20.3256 45.7502 33.4853
228 1 55.9442 20.3088 52.92
229 1 11.0534 27.1769 42.8444
230 1 31.1177 29.9831 41.4474
231 1 32.0311 35.0922 25.5435
232 1 40.8697 17.2038 18.0102
233 1 50.9863 49.9884 38.1287
234 1 10.5747 14.13 50.9914
235 1 41.5352 18.0892 42.5273
236 1 6.89617 47.805 30.0476
237 1 53.0299 29.8774 23.3615
238 1 35.9635 0.535595 1.52363
239 1 33.8365 28.4687 6.01283
240 1 9.2139 32.8141 51.0773
241 1 20.2689 49.003 10.5277
242 1 32.7794 10.9249 3.03612
243 1 5.46192 21.8227 30.1303
244 1 55.7199 42.0855 7.65118
245 1 1.29692 27.8692 19.9818
246 1 0.247385 3.21867 1.97743
247 1 55.0208 48.0682 13.612
248 1 44.16 0.445743 45.5482
249 1 10.4071 44.8582 49.1437
250 1 23.3135 24.6177 17.7388
251 1 14.032 39.2502 6.1975
252 1 47.5898 16.2586 38.4881
253 1 2.68102 27.2484 48.3499
254 1 12.2732 8.98961 35.1564
255 1 55.2494 9.34029 17.9401
256 1 31.1173 47.3596 24.5935
257 1 1.41184 12.0828 35.05
258 1 33.1471 18.5601 27.6339
259 1 45.6939 46.0414 55.1268
260 1 25.0149 41.4506 33.7012
261 1 32.0631 10.5936 39.4816
262 1 21.3841 41.5416 8.55862
263 2 44.2514 24.8863 29.1825
264 2 25.3839 47.2624 1.62244
265 2 49.9637 7.21997 49.5517
266 2 7.01811 24.6941 38.6486
267 2 14.5227 21.0277 1.22454
268 2 4.61093 3.25062 24.8326
269 2 15.1404 2.22011 16.5566
270 2 44.477 43.577 53.7896
271 2 54.0212 45.0356 26.2391
272 2 33.1725 40.1834 13.7517
273 2 33.3763 6.18212 34.71
274 2 53.0373 27.1251 30.7471
275 2 26.9829 7.05948 52.8744
276 2 55.9441 13.6108 4.49771
277 2 1.06363 42.8336 39.6728
278 2 12.4905 34.3291 18.7783
279 2 43.9708 51.5057 46.5098
280 2 19.49 55.3882 22.1803
281 2 41.6338 16.9852 14.9648
282 2 14.9674 28.9611 7.99813
283 2 46.8325 48.2428 28.761
284 2 16.9715 27.2583 34.9525
285 1 4.57131 35.4222 5.64457
286 1 49.5518 35.0168 20.4641
287 1 44.6319 1.68071 36.0135
288 1 24.0145 15.5648 27.2633
289 1 24.5823 35.1591 5.78745
290 1 51.0289 12.7582 23.9135
291 1 18.1401 44.1574 34.5248
292 1 41.0139 5.06565 44.4845
293 1 54.4374 19.8036 55.7472
294 1 30.8397 32.8169 41.7569
295 1 47.0673 25.4956 29.8579
296 1 12.4118 32.3839 35.2622
297 1 48.4111 14.2362 33.8276
298 1 30.7102 22.0855 13.141
299 1 31.9421 18.5988 17.5142
300 1 24.7538 31.4796 9.27773
301 1 24.8884 49.9154 23.0626
302 1 46.9314 33.5994 26.0178
303 1 54.0296 3.03587 1.47966
304 1 12.386 37.6558 55.4264
305 1 25.5037 38.3309 23.1347
306 1 29.0805 52.2802 32.821
307 1 5.28257 40.1333 32.3659
308 1 40.0362 54.0808 45.1438
309 1 49.7723 30.4441 28.4742
310 1 11.0645 50.4808 40.1663
311 1 37.9333 34.8973 5.40719
312 1 10.365 7.86098 26.2288
313 1 5.16449 55.4542 18.2004
314 1 29.1119 47.8917 53.339
315 1 4.40307 6.29616 14.8808
316 1 43.6584 10.7351 10.3779
317 1 30.2854 32.1919 38.9376
318 1 5.75264 22.9235 11.365
319 1 3.4164 2.56587 18.3589
320 1 18.8252 33.8765 25.4927
321 1 26.3504 38.8259 34.1915
322 1 55.438 21.6937 22.9204
323 1 9.10298 8.35933 33.0035
324 1 18.3118 8.62306 32.2051
325 1 21.71 46.097 43.1989
326 1 16.4512 32.0488 41.1958
327 1 14.7362 10.9303 35.2998
328 1 0.359318 8.15113 36.7313
329 1 4.40913 25.3738 44.7461
330 1 8.0074 30.6599 30.2162
331 1 15.5796 39.1287 52.5306
332 1 0.759704 46.3376 13.8156
333 1 16.6501 7.68432 9.65224
334 1 33.5418 34.9751 22.674
335 1 33.8344 11.3971 51.8279
336 1 50.0518 21.5022 13.1465
337 1 0.588581 34.2094 7.55769
338 1 9.77988 22.8162 21.6612
339 1 16.6609 20.6555 42.4844
340 1 25.0621 23.412 25.8837
341 1 26.9005 50.8952 25.0375
342 1 -0.117045 26.9281 17.7511
343 1 35.8218 14.4401 27.6247
344 1 32.7826 15.7684 11.3689
345 1 48.5676 16.7185 4.33799
346 1 0.302344 6.99103 23.4955
347 1 19.6175 18.346 11.009
348 1 13.0188 10.0732 22.5103
349 1 4.24078 37.0889 10.3933
350 1 0.77779 51.9625 49.4029
351 1 45.1745 35.8444 5.38273
352 1 18.6521 8.11982 52.1332
353 1 24.1636 34.7827 53.8157
354 1 46.4218 39.3018 38.3365
355 1 48.9518 28.4663 38.9793
356 1 9.63843 40.0674 42.8061
357 1 20.3963 50.4701 53.1986
358 1 19.1853 21.018 42.2561
359 1 29.3019 44.8709 46.3927
360 1 16.4936 38.1995 45.6562
361 1 41.8012 21.4899 45.7178
362 1 0.311017 54.097 4.2752
363 1 44.2748 18.3912 14.9586
364 1 41.0543 0.302269 33.1425
365 1 32.9343 53.5772 17.1902
366 1 15.4479 34.9107 14.5101
367 1 52.217 45.3687 39.6257
368 1 40.7909 44.9671 26.8293
369 1 32.7582 14.3976 16.0658
370 1 3.4617 41.1277 50.7577
371 1 16.9125 27.9514 47.4451
372 1 13.6014 22.6582 33.6714
373 1 19.5407 55.8306 40.3279
374 1 47.4051 50.3877 2.39692
375 1 1.97337 52.1904 36.6761
376 1 42.9918 49.2625 24.9956
377 1 8.47503 18.3388 53.9342
378 1 29.164 52.9691 21.3887
379 1 51.6783 39.7788 20.2088
380 1 10.7545 13.1091 26.7591
381 1 26.2449 50.3796 28.7454
382 1 55.2527 23.307 8.80808
383 1 11.7625 20.8054 21.7528
384 1 49.4363 16.827 32.6685
385 1 30.0733 8.83845 19.3062
386 1 36.2982 38.8224 23.1026
387 1 20.3084 35.9164 37.7644
388 1 24.3482 6.68385 40.2679
389 1 26.418 11.034 14.3108
390 1 45.5548 48.9346 31.7553
391 1 7.01387 9.18882 6.99077
392 1 48.6946 48.7559 37.2121
393 1 3.25976 27.8806 0.853233
394 1 3.01975 37.9085 46.4256
395 1 54.9611 7.4086 47.9824
396 1 14.8272 5.13975 23.9259
397 1 50.0553 26.038 22.0521
398 1 18.4354 27.9739 51.6313
399 1 6.95311 54.4589 41.829
400 1 35.7378 42.969 27.611
401 1 18.4214 30.5866 24.7232
402 1 31.6971 48.2199 44.0871
403 1 12.9559 42.3639 28.3452
404 1 26.5418 34.8008 45.8267
405 2 19.5596 7.87013 14.1834
406 2 35.8559 30.6463 7.80923
407 2 34.0155 13.0435 12.7942
408 2 24.7119 49.7432 12.7822
409 2 47.8176 0.523318 16.3347
410 2 36.7048 49.258 16.4449
411 2 5.73251 41.3243 17.1726
412 2 53.6024 8.97428 35.8211
413 2 30.9611 21.507 45.5345
414 2 12.3554 35.1168 47.7435
415 2 55.6332 51.9241 9.15529
416 2 51.9512 42.9796 55.3067
417 2 43.9181 5.06021 10.1031
418 2 7.22882 35.9539 11.2106
419 2 15.5963 54.4677 22.4092
420 2 23.608 23.3389 23.1029
421 2 41.4367 49.6829 9.94915
422 2 31.8902 16.4224 7.8914
423 2 8.07688 0.610574 43.2657
424 2 52.1908 10.5244 4.93277
425 2 48.2027 52.0809 39.1139
426 2 37.4365 8.49285 38.2079
427 1 27.9951 31.5044 54.6897
428 1 48.8878 53.6986 55.4899
429 1 55.8326 27.7148 51.102
430 1 37.042 54.7528 23.034
431 1 20.263 47.7202 26.322
432 1 42.613 8.15723 6.47116
433 1 40.2345 19.8259 15.9846
434 1 15.2511 21.7143 48.2086
435 1 22.7403 52.3467 8.57553
436 1 32.15 31.9375 48.3712
437 1 26.1216 24.2235 33.6161
438 1 46.9779 3.08014 35.4296
439 1 1.19367 38.2642 53.9722
440 1 8.6265 16.9556 29.2434
441 1 22.2173 14.0907 10.8851
442 1 42.6939 19.1576 16.843
443 1 44.005 13.6924 31.6086
444 1 53.1121 42.2962 45.0995
445 1 5.24613 14.6099 17.6214
446 1 38.6001 31.6491 40.0376
447 1 20.7761 52.0819 10.1759
448 1 37.9524 10.6113 48.603
449 1 54.3213 6.8621 28.991
450 1 44.6814 35.2266 1.74486
451 1 27.9418 48.8947 19.5727
452 1 48.4726 16.3871 25.5823
453 1 11.495 21.5518 28.5052
454 1 5.53448 35.802 52.293
455 1 15.7018 15.3236 26.0843
456 1 46.72 3.43119 51.3191
457 1 53.5811 39.1717 18.2513
458 1 27.2053 20.2888 36.5816
459 1 2.83726 35.0255 9.86889
460 1 29.1828 0.291143 40.3151
461 1 7.76954 16.4615 17.5125
462 1 48.7572 27.7078 9.38431
463 1 14.8692 4.19403 5.52496
464 1 31.5807 52.8457 22.9139
465 1 7.71454 46.9295 17.3655
466 1 4.71076 47.9414 5.28224
467 1 46.5608 11.5334 38.0097
468 1 44.3643 51.9546 6.03334
469 1 13.3223 39.4424 24.0253
470 1 27.3052 0.307666 13.8677
471 1 26.7672 9.82318 3.44387
472 1 12.2197 38.2508 29.5311
473 1 48.8361 38.8359 46.7193
474 1 40.5803 13.6607 14.396
475 1 22.6419 25.2871 20.4172
476 1 12.873 20.6929 37.693
477 1 49.0553 3.04096 37.5149
478 1 41.9823 7.5722 13.738
479 1 55.7369 25.9629 35.3258
480 1 41.1259 8.47759 3.73588
481 1 25.8439 1.76663 51.3883
482 1 29.7513 37.2491 22.5777
483 1 46.4347 19.6084 34.2028
484 1 5.59748 37.4881 7.22754
485 1 18.5196 45.6283 25.3431
486 1 47.4576 7.86975 42.7579
487 1 20.9932 12.745 22.4312
488 1 7.67026 45.5136 25.3026
489 1 2.80663 44.4996 13.705
490 1 24.5778 49.2756 26.1264
491 1 13.351 29.833 47.4141
492 1 27.0368 24.7259 41.7107
493 1 44.0282 30.4524 33.8567
494 1 4.54462 54.6426 13.6008
495 1 11.7052 33.8142 13.0168
496 1 39.3145 18.0402 37.3028
497 1 7.17456 17.0418 32.1384
498 1 19.4439 20.5387 8.83373
499 1 33.7019 30.0003 20.056
500 1 51.4393 2.42829 38.8481
501 1 16.1684 50.9397 43.8795
502 1 50.7785 42.9819 6.87988
503 1 42.5745 21.2756 42.8025
504 1 40.1214 47.2083 32.264
505 1 39.9124 26.1441 5.23354
506 1 22.156 27.2773 42.2201
507 1 53.4821 54.5232 32.202
508 1 10.6267 43.1039 17.4912
509 1 53.4381 29.0495 8.10967
510 1 30.7466 0.569824 3.73247
511 1 49.9491 5.61053 6.06611
512 1 14.3146 50.4874 12.8055
513 1 28.9489 33.0946 29.5985
514 1 27.9777 27.9051 20.9897
515 1 29.3138 12.5345 27.0614
516 1 5.25507 40.5908 37.5857
517 1 15.7012 3.1454 0.0458171
518 1 23.9375 11.9117 13.375
519 1 7.75001 12.1722 44.9767
520 1 36.0856 17.6515 4.51459
521 1 45.5534 24.7636 32.3759
522 1 7.15846 17.1314 0.293181
523 1 38.6377 1.73681 25.4512
524 1 40.2253 51.9873 32.3244
525 1 25.9395 41.5545 22.4934
526 1 29.3921 14.6785 29.9127
527 1 29.2259 54.7961 23.5287
528 1 2.56264 6.49121 6.27361
529 1 40.4193 8.08222 33.8435
530 1 36.3655 14.6788 13.7825
531 1 45.9918 13.2235 42.3203
532 1 35.4488 9.70806 11.6438
533 1 42.4354 7.66373 18.3873
534 1 19.5405 35.6428 20.5603
535 1 43.3245 54.5005 33.8883
536 1 38.4229 17.667 15.6632
537 1 18.9689 22.2866 20.695
538 1 5.13164 25.7686 1.26202
539 1 28.609 37.6847 33.3853
540 1 48.3688 12.0622 16.4394
541 1 42.7056 5.79936 7.4681
542 1 33.2181 47.7851 35.8497
543 1 37.8483 45.1009 35.1574
544 1 31.6091 34.6683 14.8718
545 1 51.7502 24.7222 5.54228
546 1 23.9368 50.4125 40.4615
547 2 15.4413 40.8929 26.4455
548 2 12.8156 46.9834 1.21793
549 2 35.0268 47.5661 25.5596
550 2 55.9247 51.4892 12.7947
551 2 52.5889 7.04424 16.9696
552 2 9.81364 6.47676 35.2034
553 2 37.6823 10.0523 16.8957
554 2 23.0515 5.74048 52.9649
555 2 14.9484 13.0359 21.5332
556 2 12.7599 41.6674 43.1038
557 2 14.1327 5.71348 34.0405
558 2 17.4293 33.0584 3.19828
559 2 40.0962 16.9367 20.937
560 2 5.31137 16.2311 29.3615
561 2 38.7688 12.7471 51.0202
562 2 3.92083 19.515 28.5502
563 2 30.1455 46.9277 34.8882
564 2 16.6722 5.17561 40.0793
565 2 19.9958 22.0873 34.8978
566 2 31.3157 13.4579 38.8522
567 2 44.444 38.4909 0.608747
568 2 43.7262 18.207 20.184
569 1 14.6883 1.65568 19.4709
570 1 50.8277 34.9536 50.6064
571 1 21.1253 14.4169 5.21339
572 1 46.7202 15.2184 53.8774
573 1 15.008 15.6044 23.2246
574 1 30.7606 45.8651 16.8497
575 1 30.263 49.9183 42.0493
576 1 13.4559 54.2816 9.08013
577 1 1.83791 6.42578 15.2016
578 1 55.3011 40.2405 44.4952
579 1 38.8685 45.3282 45.9911
580 1 21.5281 23.3278 2.45748
581 1 37.7204 10.4606 29.2115
582 1 12.3442 41.492 37.979
583 1 45.5989 25.5692 18.1665
584 1 29.2109 40.6655 29.1674
585 1 33.7131 7.9209 23.5957
586 1 55.2862 -0.0552193 30.9749
587 1 10.7772 1.83339 7.26957
588 1 9.13097 44.2324 46.8282
589 1 34.1549 44.5456 48.4035
590 1 1.89535 9.27251 7.79242
591 1 12.9656 9.21508 31.1045
592 1 52.8331 33.1482 6.58923
593 1 21.1895 24.9474 33.2767
594 1 2.7654 42.4841 42.1808
595 1 33.9091 11.0471 46.0217
596 1 3.30971 4.93343 39.6437
597 1 28.5863 51.2585 7.62517
598 1 48.7383 47.1695 25.4032
599 1 5.31552 3.63965 13.512
600 1 11.5494 32.2869 4.40912
601 1 20.5785 41.6174 52.2399
602 1 2.96394 42.3706 15.4555
603 1 26.4886 35.3332 52.2252
604 1 3.18146 21.0606 31.4192
605 1 27.3505 44.1865 31.0273
606 1 28.5265 49.1604 29.3645
607 1 39.0391 13.8959 34.0739
608 1 40.31 15.8379 47.3021
609 1 34.0847 30.3792 12.6549
610 1 43.71 5.69955 44.8116
611 1 20.717 45.1153 30.8725
612 1 17.9193 46.6857 45.7536
613 1 3.27057 51.6698 0.879697
614 1 53.6802 33.3096 10.5404
615 1 5.93462 42.9429 41.422
616 1 33.6775 5.78183 49.3774
617 1 16.3164 11.6249 52.1099
618 1 1.04359 53.8694 53.7538
619 1 36.7394 11.6053 26.9219
620 1 31.2218 33.002 27.8857
621 1 53.0166 8.5037 27.0826
622 1 3.77391 29.5094 43.8292
623 1 14.9383 44.156 11.9465
624 1 27.6219 9.37561 55.0416
625 1 10.1094 15.0775 25.4104
626 1 35.9972 25.3488 21.6921
627 1 33.3157 38.0058 1.30061
628 1 31.5484 10.2673 17.2332
629 1 40.3771 41.5598 12.183
630 1 36.7271 1.23986 18.112
631 1 43.6467 28.9192 13.6964
632 1 4.73468 32.3959 26.9502
633 1 15.4985 6.41321 49.5665
634 1 48.1535 45.9421 17.5368
635 1 29.8315 45.1614 23.5554
636 1 6.01415 6.76413 17.1537
637 1 2.01477 17.8571 39.2347
638 1 32.8361 47.7806 55.2894
639 1 28.5405 5.26177 4.512
640 1 21.7577 53.5731 6.43697
641 1 55.8592 47.64 35.6399
642 1 53.6678 18.6438 10.6156
643 1 41.7372 28.455 27.1613
644 1 20.4631 42.5141 45.7543
645 1 0.678487 19.6908 40.8998
646 1 12.9472 31.276 12.3764
647 1 3.18486 29.3603 8.86062
648 1 22.3972 19.0842 4.3741
649 1 20.6313 20.3571 19.6653
650 1 15.0924 3.69059 2.74361
651 1 30.4407 33.2334 33.556
652 1 48.7983 14.6033 40.7031
653 1 51.8952 30.5686 51.0251
654 1 29.2835 34.1137 56.1289
655 1 41.0342 4.57304 30.7085
656 1 36.4632 52.4433 40.3225
657 1 55.6891 34.8498 20.5255
658 1 24.9298 8.21995 54.7958
659 1 36.396 35.0913 -0.0736459
660 1 1.6532 44.1751 6.71975
661 1 46.2002 36.1402 12.8688
662 1 15.5903 41.3193 44.5487
663 1 19.1557 37.5687 35.7584
664 1 54.1721 16.5162 23.9671
665 1 34.5948 42.837 22.9281
666 1 15.3008 9.2227 26.1886
667 1 32.6907 17.0343 23.2882
668 1 43.826 18.1341 50.7447
669 1 51.138 23.1937 15.5355
670 1 52.5075 55.0747 6.95332
671 1 32.701 4.34916 25.5818
672 1 1.48211 18.5697 8.80977
673 1 11.6289 4.01561 35.675
674 1 46.3801 51.2801 7.52284
675 1 23.2224 7.73986 32.961
676 1 0.139257 15.1647 22.7944
677 1 56.0931 36.0467 54.1941
678 1 15.6817 55.5963 17.6345
679 1 52.8998 12.4815 22.0715
680 1 28.2091 32.0989 46.2652
681 1 0.0375776 26.0812 48.8467
682 1 7.08086 3.33012 44.8674
683 1 43.3099 13.0264 21.0956
684 1 38.5023 31.9784 37.3072
685 1 22.8499 54.9749 14.9971
686 1 44.2894 14.6827 11.4338
687 1 47.3407 55.2177 28.2921
688 1 20.4408 7.2537 33.3713
689 2 21.6306 49.4348 24.0103
690 2 29.9652 50.1279 10.0667
691 2 34.422 26.9455 38.9586
692 2 8.17604 42.4877 49.3897
693 2 44.7695 48.4281 22.5448
694 2 2.95681 51.4894 54.1258
695 2 17.3993 14.9185 45.4466
696 2 16.1428 41.2923 8.00792
697 2 1.46561 18.2656 36.0856
698 2 16.823 18.5874 7.01295
699 2 44.5752 10.8988 40.4209
700 2 38.3421 5.07333 3.56581
701 2 53.3921 27.5831 5.39738
702 2 36.1749 28.9299 27.2684
703 2 48.9757 45.7753 44.1424
704 2 54.3095 12.7888 17.5489
705 2 2.24416 37.017 7.58567
706 2 2.11432 40.3171 44.5279
707 2 47.5589 17.1929 18.902
708 2 43.5265 54.7422 0.899797
709 2 44.5203 30.2708 42.1857
710 2 52.8689 48.4987 30.974
711 1 36.9839 2.20582 46.5067
712 1 18.4552 30.3794 52.7556
713 1 1.08928 49.5417 44.3518
714 1 37.721 30.2988 25.0172
715 1 0.828309 11.0603 44.3446
716 1 2.43503 16.0275 51.2146
717 1 47.475 0.881865 3.39108
718 1 4.51052 41.7099 55.9297
719 1 42.0771 17.0026 52.8068
720 1 18.9703 16.2929 13.4118
721 1 30.9702 6.43106 5.27431
722 1 31.6861 37.6324 55.5008
723 1 19.029 15.0517 15.6788
724 1 48.1592 37.2434 53.5312
725 1 12.9117 46.1085 34.8238
726 1 31.6848 39.0302 42.0444
727 1 38.9514 46.1133 3.90428
728 1 28.1763 0.637456 55.4008
729 1 40.1442 17.1885 45.0676
730 1 11.9199 7.5689 32.7106
731 1 54.1279 10.9582 20.165
732 1 12.8789 0.987489 14.5652
733 1 36.0295 53.0234 55.4899
734 1 37.2618 43.539 17.7956
735 1 39.7751 9.9177 1.26879
736 1 51.6298 19.2013 50.9053
737 1 30.9725 41.9124 27.3276
738 1 0.39862 11.2318 6.63183
739 1 23.819 20.9042 5.6957
740 1 40.1712 35.5039 49.6067
741 1 53.9514 9.24611 32.7363
742 1 21.7288 44.2932 11.4153
743 1 44.963 28.9066 27.0693
744 1 33.4188 55.8693 40.5482
745 1 45.014 12.3632 12.8597
746 1 20.488 17.862 20.8003
747 1 0.813407 3.49375 36.0584
748 1 45.6932 52.3589 1.62766
749 1 17.0383 13.0754 42.6771
750 1 26.2912 24.8508 5.49214
751 1 19.1302 32.7632 34.2378
752 1 15.2768 48.2253 38.549
753 1 19.9578 9.84332 43.5656
754 1 36.1952 54.1637 27.1094
755 1 26.0172 16.4744 12.8659
756 1 31.4354 49.3984 53.8106
757 1 8.6211 25.2363 36.1026
758 1 55.0498 27.2925 20.123
759 1 44.9205 7.19453 18.8124
760 1 19.2326 32.5036 54.7219
761 1 49.2517 12.6159 42.7901
762 1 30.263 52.7767 11.9896
763 1 24.2026 17.6944 8.70306
764 1 18.4334 13.1627 21.2413
765 1 42.565 19.6155 40.394
766 1 24.3671 27.5367 1.22845
767 1 4.41629 49.0899 24.1899
768 1 25.7373 22.1732 35.4777
769 1 18.5352 48.5192 54.7081
770 1 18.8664 3.21452 4.61143
771 1 11.7168 38.7689 44.2617
772 1 29.726 13.1169 52.8175
773 1 10.2414 16.4916 45.692
774 1 33.5556 2.06104 27.5461
775 1 46.9538 42.2065 29.8313
776 1 25.5834 55.7405 22.2497
777 1 46.2547 47.8975 25.4111
778 1 22.0266 33.6382 48.0658
779 1 41.055 26.9569 44.7038
780 1 31.4252 47.4284 40.6923
781 1 20.32 37.9801 24.8554
782 1 4.54367 18.9596 15.7285
783 1 50.7759 0.963249 36.3833
784 1 44.2435 27.7 24.3538
785 1 27.4457 26.2518 48.3831
786 1 15.5679 7.49466 42.109
787 1 5.33747 31.2642 54.029
788 1 2.46942 10.3942 36.9677
789 1 15.5367 46.3619 28.4706
790 1 51.9143 29.6485 43.5999
791 1 31.7904 19.5497 22.7347
792 1 26.2685 55.2964 19.4504
793 1 2.61838 50.3556 22.4407
794 1 30.1724 25.7828 28.0187
795 1 -0.0419858 20.6131 34.1313
796 1 44.3696 11.9 4.14723
797 1 18.8944 11.1224 13.6071
798 1 42.6763 28.9523 54.4599
799 1 15.7057 37.67 8.6105
800 1 17.1324 30.6623 55.1103
801 1 49.0675 48.5442 11.0479
802 1 20.9412 15.2035 36.736
803 1 39.7378 45.4743 39.9996
804 1 51.8954 36.7106 9.54015
805 1 38.807 44.6192 32.2835
806 1 13.1369 15.2853 37.3189
807 1 55.933 16.0182 34.6639
808 1 49.203 7.79032 38.3196
809 1 7.59825 15.0789 2.82231
810 1 7.95884 40.9173 32.0948
811 1 33.3162 21.8894 47.8015
812 1 41.565 6.54138 53.3889
813 1 0.702086 11.4272 2.39834
814 1 46.0528 4.87497 20.0875
815 1 4.75185 8.78092 41.5939
816 1 49.9486 4.83689 35.5068
817 1 44.8251 43.8309 29.3749
818 1 54.9939 48.5328 55.1951
819 1 17.8839 37.5673 43.2654
820 1 53.3518 28.3217 38.1387
821 1 32.2998 29.9719 38.7569
822 1 0.680338 3.86078 28.9516
823 1 54.0825 46.478 37.906
824 1 54.392 0.05595 28.2205
825 1 17.5962 54.3217 29.7326
826 1 16.3992 50.0354 3.78
827 1 20.0371 33.8777 22.909
828 1 31.6653 20.2588 20.0233
829 1 49.6427 -0.249379 29.561
830 1 51.4965 43.4008 4.31274
831 2 7.26492 40.3633 40.1538
832 2 23.8526 14.3522 3.2172
833 2 20.1879 43.1922 23.3802
834 2 43.218 27.1191 46.8791
835 2 25.4803 56.0284 27.801
836 2 23.8801 14.2467 32.4632
837 2 15.4548 26.865 17.3248
838 2 23.3207 42.4943 47.5199
839 2 28.8232 35.3872 31.5686
840 2 19.6656 15.9275 53.4987
841 2 15.6145 27.2354 26.6738
842 2 47.0985 9.54655 45.9651
843 2 42.1498 1.41578 30.1314
844 2 31.191 15.5642 18.4549
845 2 8.51931 51.825 16.115
846 2 41.3375 41.2686 48.8195
847 2 48.6154 55.2337 10.1174
848 2 47.9526 44.3603 26.0848
849 2 23.2418 17.4079 34.9711
850 2 22.4648 32.1407 44.3494
851 2 48.1549 0.0422298 53.7308
852 2 46.6636 38.7851 20.6094
853 1 36.9563 52.2541 13.88
854 1 30.1476 42.2028 47.056
855 1 47.7658 27.2187 15.0458
856 1 9.26426 27.9897 30.0775
857 1 55.0985 17.4474 40.6585
858 1 14.1089 50.1552 49.0913
859 1 34.8773 24.6001 41.0896
860 1 9.24919 37.8844 4.14034
861 1 52.124 36.4197 29.3648
862 1 54.2949 30.6031 5.43937
863 1 33.1954 11.611 10.2397
864 1 47.524 26.7468 49.3658
865 1 14.3981 26.0739 14.32
866 1 12.2215 31.9188 54.239
867 1 51.0093 21.831 37.2234
868 1 49.1062 1.64627 34.4745
869 1 55.8996 25.848 53.5139
870 1 33.5471 24.3381 20.5999
871 1 10.1436 27.7229 14.9273
872 1 53.4314 37.7065 40.6754
873 1 12.5165 39.4635 31.7974
874 1 54.0972 46.0704 1.3008
875 1 41.3208 29.4733 48.1519
876 1 0.477171 16.7144 31.1971
877 1 -0.0504184 27.4393 22.5083
878 1 4.50716 35.5912 20.2985
879 1 10.533 14.2143 31.029
880 1 51.4137 11.302 1.94907
881 1 32.1369 12.9185 47.8868
882 1 44.5001 22.6378 52.562
883 1 29.1827 21.6122 7.86545
884 1 51.5922 54.4203 36.2404
885 1 30.0876 23.0398 1.08865
886 1 39.2264 47.8934 1.83513
887 1 7.28671 15.5193 19.8156
888 1 2.85358 30.1625 47.2239
889 1 46.2677 7.65594 34.7462
890 1 54.3889 5.5062 6.17412
891 1 53.3042 20.6493 37.7671
892 1 41.2423 2.16089 19.3114
893 1 14.5494 51.828 33.8467
894 1 9.11841 41.1299 9.79976
895 1 5.17392 52.465 37.922
896 1 2.53718 40.6214 17.7428
897 1 27.9729 52.7539 10.2014
898 1 41.2362 35.5331 42.8516
899 1 16.7035 19.0368 32.2438
900 1 6.17531 27.4422 3.02419
901 1 34.27 37.3293 41.5608
902 1 25.6249 45.9817 25.8878
903 1 3.83247 26.6736 8.65943
904 1 36.0038 35.6169 11.3672
905 1 28.0519 30.3431 21.8437
906 1 19.179 34.6706 5.44797
907 1 38.5119 51.0984 8.95069
908 1 1.48496 6.34756 35.0066
909 1 45.705 2.94488 41.0265
910 1 52.3709 38.2244 7.45487
911 1 12.7859 8.6436 25.0682
912 1 16.9654 18.3807 36.8174
913 1 3.92082 45.002 5.65082
914 1 53.1382 51.9544 30.8755
915 1 16.2984 25.2013 42.1732
916 1 26.2364 27.8124 39.275
917 1 35.2148 56.1433 4.49582
918 1 50.7039 35.0198 14.4654
919 1 50.8895 41.322 36.9699
920 1 12.3857 38.9739 38.401
921 1 33.0932 53.8084 8.1166
922 1 17.5241 41.8682 32.0255
923 1 52.0883 3.488 36.3037
924 1 0.436868 11.4716 16.3601
925 1 45.1816 54.6229 6.72212
926 1 27.9643 49.8612 51.525
927 1 52.7807 49.4546 43.5747
928 1 43.9302 9.46529 14.2318
929 1 50.1978 32.9459 6.8393
930 1 37.5345 54.4007 15.5921
931 1 16.9546 25.3474 31.4656
932 1 10.4026 50.1725 53.4434
933 1 30.358 7.64588 44.2613
934 1 24.6438 51.6673 54.8508
935 1 6.26536 36.7933 54.5934
936 1 7.46988 32.7706 11.9715
937 1 40.6448 2.9672 42.5297
938 1 36.2325 6.49447 40.5621
939 1 5.47108 29.1054 15.6436
940 1 8.79823 39.5608 51.0127
941 1 36.3113 6.46336 35.4303
942 1 15.0289 46.6344 45.6499
943 1 33.6729 36.6889 34.446
944 1 9.08972 41.3261 16.2022
945 1 44.7017 21.0103 44.9395
946 1 9.76317 42.8164 44.5586
947 1 41.7997 30.9646 40.8051
948 1 15.3986 55.4559 43.974
949 1 49.7216 50.1554 15.5166
950 1 38.9286 27.4126 50.5801
951 1 15.0273 43.2361 54.1072
952 1 44.0981 0.740364 48.441
953 1 25.8856 22.4143 51.3162
954 1 11.2218 45.8524 40.6645
955 1 13.022 21.791 15.588
956 1 11.855 20.1418 8.46653
957 1 47.0505 43.7397 51.2887
958 1 12.6131 18.7107 28.3256
959 1 31.7721 50.1572 35.3096
960 1 53.7636 14.1033 12.6647
961 1 36.7693 41.3674 42.6163
962 1 42.687 8.5909 22.7706
963 1 7.52577 30.4334 47.3079
964 1 25.2225 14.5438 44.4843
965 1 15.1995 30.6254 35.7442
966 1 25.0101 42.5554 31.3898
967 1 9.0486 8.40271 4.62472
968 1 35.2782 4.09793 47.7853
969 1 32.0409 37.0517 50.2979
970 1 30.9828 17.2894 15.6695
971 1 48.0042 5.06305 42.6295
972 1 50.6721 4.59079 50.7668
973 2 45.3796 4.3217 25.6771
974 2 46.0215 39.4811 35.3832
975 2 53.5733 39.0331 27.9598
976 2 17.0494 30.5352 49.7842
977 2 52.8616 36.429 16.0811
978 2 52.4228 36.3696 19.8445
979 2 32.9325 42.4863 40.5997
980 2 54.8101 6.21686 44.7114
981 2 36.362 11.9014 9.82339
982 2 54.3733 29.6097 49.1213
983 2 12.0331 31.2362 1.284
984 2 46.4859 22.8501 34.4869
985 2 52.2274 2.23992 13.1985
986 2 7.38268 18.5067 37.8665
987 2 19.6923 6.31527 5.51616
988 2 2.30662 26.7886 52.0634
989 2 40.161 28.0165 32.1837
990 2 54.2768 9.76747 14.6132
991 2 22.9581 21.2594 17.7923
992 2 16.1644 15.3959 55.0475
993 2 1.27698 15.5116 56.0328
994 2 53.4351 22.9751 35.2881
995 1 54.1695 3.03257 43.7744
996 1 51.3004 25.4349 47.2323
997 1 24.8995 2.23685 48.1187
998 1 0.675877 48.9294 33.4909
999 1 24.9233 51.3816 52.2038
1000 1 19.6057 8.61246 47.9769
1001 1 30.7195 30.3493 36.5626
1002 1 52.6881 26.7692 8.37929
1003 1 14.0536 28.7537 30.7064