ITEM: TIMESTEP
0
ITEM: NUMBER OF ATOMS
9088
ITEM: BOX BOUNDS xy xz yz pp pp pp
6.0501246681006116e+00 5.5880813124022900e+01 -5.7171479978406934e-15
6.0501246681006169e+00 5.5880813124022900e+01 0.0000000000000000e+00
6.0501246681006169e+00 5.5880813124022900e+01 0.0000000000000000e+00
ITEM: ATOMS id type x y z
1 2 38.4532 28.9834 35.5386
2 2 9.45822 13.4269 54.6202
3 2 46.3788 34.2806 45.464
4 2 14.8208 16.7869 52.7406
5 2 16.5635 9.86214 52.2454
6 2 37.8787 55.519 25.8082
7 2 22.7265 15.2607 42.5529
8 2 32.3589 34.5249 40.2994
9 2 10.7918 47.922 53.6108
10 2 6.81812 41.4032 9.14257
11 2 32.8346 34.1352 49.1813
12 2 7.70799 53.7832 20.879
13 2 18.1967 22.1986 23.9865
14 2 52.3691 54.4592 54.3465
15 2 45.859 31.4114 17.4876
16 2 41.782 41.8955 26.4904
17 2 20.9064 11.2906 31.5527
18 2 38.4015 47.7363 6.5066
19 2 20.9781 7.52209 48.9752
20 2 22.4278 7.93688 39.3846
21 2 27.0283 44.4683 17.3213
22 2 32.6493 49.0874 35.6778
23 2 29.3731 10.0247 34.4803
24 2 10.9629 15.4619 42.8403
25 2 44.257 19.7801 20.355
26 2 45.3013 34.7467 27.9007
27 2 35.7364 26.4752 14.0266
28 2 54.9847 20.9001 53.9494
29 2 23.8704 41.6171 31.4286
30 2 19.9915 38.202 22.964
31 2 44.8251 24.7697 10.7156
32 2 15.2927 16.7024 42.1883
33 2 13.6953 37.2372 35.9672
34 2 41.4375 10.7192 32.705
35 2 36.6249 15.2948 10.7239
36 2 42.4418 30.5288 53.8047
37 2 43.1978 25.1295 42.9193
38 2 26.36 31.2494 19.7888
39 2 35.1238 35.3399 50.8201
40 2 29.4446 13.8271 19.0365
41 2 48.1826 21.1835 36.2494
42 2 24.546 30.1966 38.2858
43 2 20.3369 18.7034 40.9677
44 2 32.3722 7.0739 20.042
45 2 27.2952 49.5392 8.57994
46 2 48.6201 36.1904 52.0135
47 2 20.8372 27.7401 30.2873
48 2 33.8753 49.4935 22.9366
49 2 32.2129 19.6271 51.5635
50 2 48.6952 44.6299 17.313
51 2 29.4089 6.89841 54.1412
52 2 30.0586 55.2802 12.1358
53 2 25.5742 10.1075 54.4235
54 2 47.8919 28.0091 19.0235
55 2 18.7676 47.6771 50.3734
56 2 53.1375 19.0433 55.6737
57 2 54.7645 55.5648 42.3689
58 2 54.9045 11.3013 50.2739
59 2 18.5663 19.8795 48.0038
60 2 54.5325 52.8817 13.0067
61 2 35.492 7.17684 27.4477
62 2 30.9908 15.1004 32.8707
63 2 55.8378 15.0483 9.60804
64 2 20.9786 11.9228 47.5642
65 2 45.0025 53.7757 45.0513
66 2 44.971 37.2877 22.9323
67 2 12.1503 24.9121 15.2217
68 2 52.8281 45.3364 48.5773
69 2 32.0282 17.1043 22.3939
70 2 10.7546 15.3723 52.1197
71 2 20.8957 14.0856 27.9878
72 2 37.7157 54.0691 53.3882
73 2 9.41369 15.7311 16.6082
74 2 29.8322 22.7193 18.1176
75 2 13.3157 32.6276 25.3032
76 2 8.96125 16.1882 13.7604
77 2 33.066 38.1134 23.299
78 2 45.6537 47.2326 49.6121
79 2 53.444 33.2891 24.9671
80 2 40.2969 28.73 53.7368
81 2 38.9687 11.6631 23.5835
82 2 22.7021 33.8956 43.6753
83 2 25.4639 11.034 21.2664
84 2 45.928 11.5039 7.17029
85 2 36.7785 18.5919 38.8008
86 2 37.2895 15.8611 20.9311
87 2 28.1034 11.593 54.7748
88 2 17.3803 45.1626 9.1885
89 2 54.2337 24.8337 36.9349
90 2 30.2696 47.4502 16.2619
91 2 39.3315 35.5974 36.3069
92 2 24.4774 38.4993 21.7052
93 2 8.54481 30.7228 28.6078
94 2 49.2851 18.4312 51.6674
95 2 43.9221 37.2 41.8241
96 2 11.8339 25.6264 23.4954
97 2 43.0985 13.368 54.2564
98 2 23.7309 49.4661 45.132
99 2 28.6124 32.9616 24.7864
100 2 8.90537 46.9102 20.3483
101 2 31.4412 10.6706 48.8259
102 2 51.5123 29.4519 12.037
103 2 11.0223 52.5031 47.0275
104 2 21.5964 15.5393 38.627
105 2 16.1729 53.1676 16.815
106 2 54.5873 20.418 23.6514
107 2 44.3017 31.3864 13.1786
108 2 33.5467 24.9099 45.3701
109 2 17.413 39.4734 47.2993
110 2 25.3209 6.67109 53.9266
111 2 20.2326 44.069 52.7425
112 2 36.1645 52.2537 55.6069
113 2 44.7125 22.3417 48.9401
114 2 35.4821 32.1121 22.5988
115 2 41.0662 29.411 21.3294
116 2 39.1439 35.15 43.981
117 2 27.0202 49.9842 39.2502
118 2 30.82 18.6586 7.68446
119 2 11.3694 34.8753 47.8113
120 2 25.1475 11.138 17.4645
121 2 13.5412 46.7972 38.2245
122 2 28.1978 32.4248 53.9556
123 2 42.6622 34.4197 20.5114
124 2 30.3991 15.7963 6.49044
125 2 12.5147 52.0433 11.1375
126 2 37.8193 30.8303 46.5311
127 2 17.7065 47.6261 35.3821
128 2 51.2032 19.0296 30.6954
129 2 33.3447 11.0625 11.8585
130 2 46.2207 55.5569 42.6845
131 2 13.6471 40.2487 22.999
132 2 32.786 34.2262 55.3067
133 2 37.3786 20.5042 9.66644
134 2 25.256 17.1655 37.9254
135 2 30.3683 29.5904 41.3877
136 2 53.0035 34.8872 16.7301
137 2 21.4316 18.5433 28.286
138 2 48.5191 43.0033 26.2675
139 2 8.33498 46.1075 33.9541
140 2 17.5449 11.8745 17.5006
141 2 44.2599 11.5984 24.975
142 2 25.793 37.357 44.1466
143 2 48.4621 50.1822 44.7379
144 2 19.2748 45.0588 29.1015
145 2 40.6902 51.0064 20.2072
146 2 23.4521 38.5713 45.7886
147 2 34.7491 21.6923 30.8693
148 2 21.2611 53.0869 47.233
149 2 30.0857 49.4319 52.0383
150 2 21.2683 19.3399 35.5686
151 2 17.2151 22.3499 8.51727
152 2 18.4014 40.8034 26.3575
153 2 19.9579 25.4225 55.0957
154 2 40.6023 50.5786 33.4429
155 2 36.4974 39.4166 16.1579
156 2 31.696 31.0665 8.82758
157 2 31.8021 34.6555 22.5045
158 2 49.0705 18.3714 25.3197
159 2 22.7086 38.6906 31.3731
160 2 28.4434 47.4288 6.31146
161 2 30.2382 12.049 46.0544
162 2 44.2491 45.6644 15.4319
163 2 41.8539 46.4008 32.2592
164 2 34.4906 33.6638 36.7184
165 2 32.6354 7.36391 25.9697
166 2 29.5884 17.1539 50.1916
167 2 24.865 26.9068 51.1128
168 2 9.01393 41.0508 47.7115
169 2 37.5068 15.1315 18.2722
170 2 14.9845 15.4495 18.7137
171 2 22.7582 35.5378 47.0695
172 2 17.2156 8.29011 45.6563
173 2 12.6676 54.259 32.7881
174 2 15.3668 47.5106 46.9292
175 2 16.119 17.2908 13.7357
176 2 47.0449 52.0326 40.1908
177 2 48.1273 24.7524 48.9447
178 2 27.8543 20.5815 29.158
179 2 17.2979 29.7318 32.338
180 2 13.7373 27.3902 25.8665
181 2 8.76904 54.9794 38.2662
182 2 41.7509 16.9569 18.6566
183 2 49.3961 24.2293 21.6205
184 2 8.3143 13.0134 16.7878
185 2 37.6082 54.7897 41.0773
186 2 53.071 47.0985 51.0552
187 2 29.5877 26.5847 32.0371
188 2 55.3288 20.5374 36.9264
189 2 6.47454 29.4905 24.241
190 2 30.5675 55.5496 49.767
191 2 24.5628 33.1572 12.4877
192 2 37.422 41.5213 6.28949
193 2 55.0931 16.5878 35.0627
194 2 41.5911 39.8303 21.6857
195 2 54.6445 6.70806 26.1677
196 2 31.6743 43.1729 18.6897
197 2 16.0965 43.2219 51.2798
198 2 44.591 53.2902 10.271
199 2 41.7247 13.5293 12.2261
200 2 9.48087 27.0182 26.1102
201 2 10.7994 15.3329 8.47375
202 2 28.4235 7.15112 31.4325
203 2 25.5575 13.8257 19.71
204 2 38.3889 35.2429 18.1943
205 2 20.6634 46.3217 39.3846
206 2 44.8855 50.3952 6.88732
207 2 9.20876 33.7515 36.3424
208 2 16.6926 33.1679 14.6103
209 2 6.35839 25.1564 44.0997
210 2 13.2529 49.843 7.02369
211 2 47.0392 11.0585 46.1788
212 2 44.2881 28.5949 24.687
213 2 12.0475 32.834 35.3174
214 2 12.3746 54.1441 49.8032
215 2 11.9619 19.7339 11.156
216 2 50.7557 16.0157 8.5195
217 2 52.3301 45.0126 32.4226
218 2 23.8204 13.5048 8.11279
219 2 7.14111 9.47004 15.105
220 2 22.4153 14.212 10.5482
221 2 20.1167 15.1832 14.6313
222 2 44.8383 46.2474 55.3232
223 2 31.8953 44.1921 53.6228
224 2 19.892 21.6382 46.5211
225 2 24.4548 32.3698 34.8624
226 2 45.1142 37.8104 6.1983
227 2 48.901 40.7547 14.0959
228 2 30.5234 34.0139 35.0956
229 2 32.0234 50.9805 26.0541
230 2 29.9907 9.28423 17.5699
231 2 47.3166 14.3816 54.1695
232 2 33.3712 15.9626 6.38401
233 2 47.6163 31.5591 6.42766
234 2 19.1587 36.1135 25.8043
235 2 53.197 32.994 32.1333
236 2 33.6294 37.7791 7.56247
237 2 23.194 24.0361 24.7741
238 2 44.6391 30.0153 49.6748
239 2 19.2307 16.2704 39.9802
240 2 8.24737 42.2216 25.35
241 2 33.002 30.3526 31.5227
242 2 30.484 40.0526 54.3035
243 2 25.4374 47.5982 41.0786
244 2 21.4282 20.9342 49.4368
245 2 48.7495 19.1434 20.0368
246 2 21.185 9.34923 22.046
247 2 54.3105 55.5737 9.4844
248 2 6.08556 19.6461 31.5665
249 2 47.7782 26.647 12.0967
250 2 9.67817 49.4764 39.8453
251 2 28.2137 8.6437 8.45611
252 2 8.54304 52.0186 27.2283
253 2 17.7877 29.2989 48.4423
254 2 15.9935 8.76571 26.2263
255 2 32.7096 26.9374 6.57635
256 2 11.551 8.46826 42.5676
257 2 20.6855 49.2221 27.3089
258 2 20.146 24.5302 29.7127
259 2 50.5421 16.7455 55.2556
260 2 35.4298 29.4733 35.1467
261 2 9.15068 25.1188 7.00404
262 2 51.1271 47.553 41.4252
263 2 23.384 27.7632 42.4983
264 2 8.45587 52.0842 52.5956
265 2 30.0059 28.7712 45.9755
266 2 11.2106 47.6026 29.818
267 2 7.52689 38.2799 38.5992
268 2 10.6996 25.1859 43.6186
269 2 27.3977 48.9986 53.4594
270 2 38.6674 42.4699 34.4582
271 2 18.3256 40.6602 31.8518
272 2 10.8568 9.7544 18.9898
273 2 31.5764 31.4211 36.1432
274 2 39.3154 29.5163 12.9432
275 2 52.5802 45.9034 35.0915
276 2 13.2666 17.82 20.4287
277 2 50.3408 29.2378 15.171
278 2 17.0868 12.7725 55.3637
279 2 53.5451 28.9052 35.5744
280 2 35.5428 8.13253 9.07015
281 2 36.9428 12.2663 11.5687
282 2 33.9798 10.0917 20.2198
283 2 37.38 14.7432 48.0146
284 2 18.0633 40.0621 23.4321
285 2 49.009 33.6861 24.0847
286 2 25.6786 55.6562 11.2961
287 2 9.98386 15.224 47.4398
288 2 8.83712 17.1875 53.3945
289 2 29.5262 6.50005 36.0055
290 2 7.42676 14.4577 44.3706
291 2 21.9039 43.7447 16.7778
292 2 10.6494 38.1899 52.8373
293 2 27.7019 51.6842 11.1246
294 2 12.3938 16.6259 11.6186
295 2 40.4836 6.22689 40.6158
296 2 23.5846 42.5585 8.15915
297 2 36.4187 38.7719 7.47468
298 2 8.98683 54.5935 10.8138
299 2 38.421 34.6124 20.8362
300 2 47.7734 47.4628 38.7289
301 2 45.7667 33.9674 42.1816
302 2 55.4343 42.814 29.3654
303 2 30.2761 53.4994 31.4437
304 2 42.315 55.3888 25.3098
305 2 34.5469 42.9157 14.6296
306 2 51.5491 24.3672 36.1563
307 2 30.6054 8.00159 29.4286
308 2 26.0967 37.1031 25.6664
309 2 44.0028 41.0435 22.8863
310 2 13.7455 51.3049 45.4691
311 2 17.7759 16.386 11.0302
312 2 51.5276 50.7585 16.2423
313 2 36.551 32.7329 6.14098
314 2 46.7358 41.3317 44.4457
315 2 11.4715 22.0805 16.0106
316 2 51.899 39.5348 12.9287
317 2 49.4401 50.5702 10.6962
318 2 24.6961 45.2024 22.4973
319 2 54.9572 25.2584 26.341
320 2 8.242 13.529 24.8497
321 2 52.1493 50.5193 48.123
322 2 17.6386 21.4051 36.0603
323 2 52.8336 9.46113 49.3456
324 2 49.8571 40.1173 16.9155
325 2 32.0863 34.1219 25.4823
326 2 26.0907 35.654 18.3947
327 2 41.5721 40.9483 30.5395
328 2 25.6265 30.7124 13.8897
329 2 47.1386 44.457 21.7463
330 2 41.4857 32.1857 13.1746
331 2 7.20372 55.044 15.9306
332 2 51.6615 49.4925 6.50498
333 2 19.3819 23.2752 27.3448
334 2 23.1518 6.21005 30.8792
335 2 50.7884 44.4869 27.4583
336 2 34.6961 40.1894 27.072
337 2 29.2958 17.1578 38.6631
338 2 14.2366 12.2963 45.5986
339 2 42.1207 54.3828 14.44
340 2 11.3853 25.1337 26.2326
341 2 21.0101 50.4061 40.0417
342 2 50.1809 39.5897 28.6974
343 2 50.2011 11.6477 7.14107
344 2 15.13 41.9348 26.9345
345 2 21.2074 48.2486 52.4474
346 2 12.966 48.3615 45.0373
347 2 11.815 20.8478 39.8728
348 2 47.8351 25.6031 39.7453
349 2 28.7935 35.3457 43.8053
350 2 42.6088 50.9866 39.3292
351 2 7.86998 37.7706 47.637
352 2 34.7103 41.3152 29.944
353 2 32.7028 23.3459 48.7088
354 2 51.4657 53.5461 45.0755
355 2 27.0765 24.4708 19.2112
356 2 47.9939 19.5826 42.5675
357 2 35.2865 29.1611 39.8373
358 2 8.04707 12.336 41.785
359 2 21.8972 11.0273 36.4736
360 2 21.811 24.2223 52.6017
361 2 47.9494 42.9371 34.6375
362 2 30.3287 39.8705 51.5887
363 2 47.9928 49.621 13.0366
364 2 26.6496 23.8867 13.8682
365 2 27.3978 50.0615 26.7863
366 2 21.5445 34.3453 32.9764
367 2 51.9047 18.0024 50.8438
368 2 26.2061 17.7912 26.1578
369 2 31.6312 21.0862 28.2318
370 2 14.5476 52.5865 7.07478
371 2 20.1871 21.3112 7.52613
372 2 15.6821 35.9018 16.1823
373 2 29.4711 25.1971 22.8165
374 2 46.5753 19.8488 29.2527
375 2 35.4637 7.71897 45.0104
376 2 35.6736 46.1526 17.2002
377 2 21.4195 37.0665 49.1424
378 2 32.5621 19.4736 32.5821
379 2 24.8411 11.5944 26.3329
380 2 11.5 27.0078 19.1989
381 2 17.6503 35.7323 9.92258
382 2 22.7009 13.4221 44.8043
383 2 14.4477 44.6311 9.95896
384 2 23.4812 16.7505 30.1668
385 2 16.7596 16.2351 50.1822
386 2 48.2145 23.0619 39.367
387 2 52.4329 20.2556 37.498
388 2 16.9627 50.5915 12.8153
389 2 17.6897 15.8101 55.7155
390 2 18.3258 26.1252 41.6734
391 2 19.8356 20.0451 12.2843
392 2 8.88537 17.4064 37.0032
393 2 48.9116 32.1971 17.0405
394 2 24.7438 21.2673 6.20485
395 2 38.2462 39.2272 12.4427
396 2 46.8867 44.8616 53.7851
397 2 17.7085 45.0851 13.6109
398 2 30.6913 29.5847 33.9711
399 2 40.6822 15.2402 30.8032
400 2 22.7159 29.3596 13.2131
401 2 18.5235 53.494 45.5293
402 2 54.5656 44.1584 36.2943
403 2 9.7379 17.2735 11.1463
404 2 29.8009 39.4423 10.4158
405 2 26.2021 35.6524 50.5217
406 2 35.2257 16.2624 51.6678
407 2 38.3722 26.3643 20.8186
408 2 40.9716 37.9378 54.8471
409 2 7.01998 23.3635 13.3058
410 2 7.33005 50.6197 38.3874
411 2 23.5471 29.591 22.6109
412 2 34.9397 8.40315 12.368
413 2 15.9839 25.619 21.4697
414 2 52.2495 13.3816 33.7212
415 2 9.43114 52.6843 35.1589
416 2 51.8857 51.9776 50.8759
417 2 20.2545 46.0965 46.3966
418 2 21.692 32.059 54.2216
419 2 43.5874 54.7894 29.4397
420 2 24.2289 42.9556 48.0589
421 2 32.2006 27.3069 36.8701
422 2 44.6287 21.1657 23.1049
423 2 46.8789 39.482 18.1363
424 2 7.1953 20.6309 19.161
425 2 15.5822 10.3686 9.27536
426 2 27.9247 43.9606 47.1846
427 2 34.8778 38.7426 38.1076
428 2 17.5092 41.3698 40.0869
429 2 28.4477 39.5447 16.3588
430 2 53.063 16.6871 38.674
431 2 29.7858 30.1331 11.5676
432 2 28.335 10.8348 42.9827
433 2 28.4258 38.1889 46.5807
434 2 15.8983 55.1431 53.4906
435 2 33.8924 52.874 25.9988
436 2 14.3821 27.669 43.083
437 2 25.7728 33.09 26.5625
438 2 44.8715 17.6221 36.9434
439 2 23.4758 6.07333 49.243
440 2 11.4737 49.279 49.6737
441 2 37.1715 53.8173 10.001
442 2 47.382 36.4021 17.5369
443 2 10.5521 50.2847 28.5397
444 2 34.0214 17.5428 44.2588
445 2 7.0131 27.8348 41.8104
446 2 11.343 29.7738 6.28593
447 2 31.9946 46.2283 20.0943
448 2 22.2559 33.7766 16.0235
449 2 40.5325 52.9999 37.625
450 2 27.3832 20.9151 26.22
451 2 11.4395 15.6631 40.102
452 2 47.8526 6.47751 30.6421
453 2 25.4916 48.4658 25.5577
454 2 45.285 37.678 48.8752
455 2 52.2798 28.3336 48.779
456 2 29.9666 50.1689 6.78822
457 2 27.5354 27.9327 13.9099
458 2 46.9215 49.3721 47.2478
459 2 8.04503 36.7612 53.2336
460 2 9.92623 45.5422 36.6745
461 2 37.1378 50.2045 9.28774
462 2 19.5501 15.9393 17.672
463 2 55.6769 47.363 46.1943
464 2 37.779 54.5332 49.1564
465 2 14.2974 24.5772 35.7272
466 2 42.3465 22.4059 10.1054
467 2 22.8853 46.5792 17.2502
468 2 44.829 31.0931 46.9694
469 2 8.18691 34.7392 48.6477
470 2 47.3323 30.5282 9.73192
471 2 43.3159 32.946 55.4959
472 2 41.8971 51.3035 9.98376
473 2 53.0717 40.23 32.2381
474 2 21.3996 52.9024 18.5188
475 2 42.6965 7.88849 45.2688
476 2 18.8053 53.1413 16.9503
477 2 35.3037 14.1557 15.6322
478 2 22.7124 11.5818 12.8371
479 2 41.2477 35.4696 23.1863
480 2 26.0288 43.3845 29.7838
481 2 23.5319 9.26347 30.5264
482 2 33.2411 47.058 15.7261
483 2 10.9019 53.4078 15.0253
484 2 51.0728 43.2823 51.558
485 2 21.9846 39.7512 54.8197
486 2 52.5523 15.5145 48.6483
487 2 35.2328 34.6635 41.9336
488 2 6.71423 46.6253 23.4539
489 2 13.0693 11.105 55.0399
490 2 34.5746 16.7188 8.88505
491 2 38.8759 6.88518 6.14526
492 2 40.13 46.5486 34.8781
493 2 43.4605 54.1806 42.1448
494 2 55.0253 36.7309 51.3514
495 2 18.4445 34.29 39.2176
496 2 50.6494 36.0069 18.0519
497 2 8.63346 53.4005 45.7956
498 2 23.0355 29.4895 7.63956
499 2 54.7876 26.6387 39.2858
500 2 16.2521 40.7393 30.1355
501 2 20.1871 6.15127 17.7535
502 2 35.5687 22.0113 27.2801
503 2 26.3212 31.9527 41.8195
504 2 29.999 51.0683 9.43008
505 2 23.8073 52.6985 8.24871
506 2 20.5095 41.1279 34.3308
507 2 25.6737 41.6934 15.7581
508 2 55.2803 17.0719 44.4398
509 2 21.4139 19.6954 43.7467
510 2 47.5079 44.8057 39.759
511 2 32.4303 21.4204 22.6756
512 2 52.9534 33.6162 13.1999
513 2 31.9966 38.3548 40.8698
514 2 54.1808 50.1004 52.0581
515 2 41.846 13.1846 25.5267
516 2 44.4644 52.113 23.2834
517 2 37.7951 54.7603 12.5095
518 2 31.8942 13.4934 12.7434
519 2 39.0761 31.5388 25.7113
520 2 48.1409 49.151 34.5605
521 2 19.1915 23.333 40.6157
522 2 38.2409 28.9966 32.3787
523 2 28.2667 28.876 7.64997
524 2 44.6494 32.9618 52.7476
525 2 52.9659 30.4116 14.5083
526 2 36.0671 47.1102 40.6036
527 2 52.2785 8.95974 53.1457
528 2 19.3586 8.52138 15.5569
529 2 40.8302 17.4938 21.7297
530 2 50.5229 28.5118 23.1946
531 2 24.2678 52.2069 53.4606
532 2 39.7813 44.7374 38.9623
533 2 30.1647 33.2843 45.5831
534 2 26.9828 14.6723 53.9302
535 2 11.5235 22.4966 55.3218
536 2 54.0406 53.2362 30.5021
537 2 19.1019 36.3602 29.1765
538 2 29.174 33.6556 29.6414
539 2 9.90915 30.5484 34.9036
540 2 48.1895 14.6859 38.1426
541 2 10.0361 37.0957 25.3038
542 2 31.5057 16.428 19.5445
543 2 40.3805 13.9878 54.8261
544 2 32.7424 37.8659 44.7054
545 2 27.4225 27.2963 26.92
546 2 31.3209 8.68475 12.6961
547 2 20.5438 12.2003 14.408
548 2 7.86287 6.60126 6.70024
549 2 7.03801 45.6632 53.1407
550 2 48.2504 33.7416 10.645
551 2 18.1607 38.5891 43.23
552 2 46.0068 33.5974 30.2684
553 2 23.4603 19.5044 8.80431
554 2 17.7583 16.3792 37.1803
555 2 40.0483 14.9938 50.035
556 2 27.7076 55.6448 52.2078
557 2 18.3504 26.7079 53.0982
558 2 14.28 31.8304 45.5112
559 2 42.988 16.6252 35.1017
560 2 32.7775 45.3125 38.2987
561 2 13.2236 23.8309 9.65068
562 2 18.029 22.8272 51.4564
563 2 33.9304 53.5119 28.8637
564 2 34.6544 29.9575 42.7584
565 2 7.72963 7.7145 48.5543
566 2 48.6685 45.3597 36.8787
567 2 25.1199 55.7346 7.07198
568 2 43.1379 12.1436 7.81262
569 2 11.4622 27.1935 36.6125
570 2 47.1683 31.1138 53.3693
571 2 13.6404 21.7786 43.7058
572 2 55.7423 10.1624 44.0942
573 2 39.3502 21.9632 30.7837
574 2 39.2954 12.7767 32.584
575 2 34.3329 25.3398 40.6053
576 2 30.3719 14.2044 51.7436
577 2 34.0866 20.4008 17.5469
578 2 22.789 18.1415 25.2752
579 2 27.7438 40.3797 33.07
580 2 21.5553 15.122 53.9126
581 2 24.0172 26.2129 46.4217
582 2 45.0305 8.20949 34.7149
583 2 15.2488 21.2789 27.1679
584 2 9.39042 35.2548 10.7204
585 2 48.1972 21.7516 45.9483
586 2 18.9868 47.5649 31.2196
587 2 6.62318 11.2649 39.0257
588 2 34.909 55.0887 42.083
589 2 40.3792 48.906 40.2652
590 2 44.8784 41.8525 55.2176
591 2 49.1432 14.0729 10.7053
592 2 8.07253 40.6789 12.044
593 2 26.7521 55.743 33.3749
594 2 39.0521 29.8721 42.1101
595 2 49.7861 25.0145 6.08486
596 2 44.514 40.8545 19.7878
597 2 42.7383 13.0921 32.7978
598 2 38.4909 35.4915 51.8236
599 2 41.3028 28.6553 31.544
600 2 20.07 17.1581 47.3027
601 2 46.3821 49.1574 29.7495
602 2 50.1489 33.2088 43.0698
603 2 35.8413 18.9086 20.5805
604 2 52.6912 23.4976 43.9411
605 2 12.4631 51.3064 16.4422
606 2 26.2947 49.2807 15.5845
607 2 40.9013 6.41251 28.0972
608 2 12.111 40.2236 32.5337
609 2 48.3063 30.5166 21.5468
610 2 32.4242 24.7611 19.742
611 2 54.2423 45.4824 55.3099
612 2 23.3441 21.4507 28.5596
613 2 21.4294 8.21219 27.9482
614 2 52.9678 32.0955 46.3647
615 2 22.7027 47.235 25.1308
616 2 15.8565 33.3771 37.1888
617 2 13.4141 38.9154 45.2595
618 2 17.6286 33.6994 42.7754
619 2 33.0808 38.2724 18.6801
620 2 37.4418 17.8241 32.4964
621 2 32.1463 25.1814 24.2389
622 2 50.6502 47.3458 24.5097
623 2 31.0458 45.9623 33.6393
624 2 35.5077 27.5014 20.6336
625 2 7.14147 6.39044 19.1373
626 2 28.1046 9.46511 20.7343
627 2 9.93087 27.3653 8.34972
628 2 10.5469 34.5988 33.4396
629 2 22.7512 28.7248 47.3148
630 2 24.1065 8.28202 21.4352
631 2 6.39229 43.8983 23.3253
632 2 33.1651 49.7089 12.5934
633 2 11.2676 29.139 16.9293
634 2 54.3834 12.501 55.5752
635 2 32.2748 28.3952 43.2847
636 2 53.7179 9.73552 40.1297
637 2 38.0649 26.7557 53.2886
638 2 42.0497 10.6856 14.4636
639 2 19.0983 55.8385 12.7241
640 2 38.1265 39.1506 49.2035
641 2 26.3515 49.0488 47.1678
642 2 39.3004 10.4663 34.9971
643 2 49.6677 37.1532 12.3865
644 2 35.0058 34.6556 54.2009
645 2 41.2189 20.8287 52.793
646 2 28.7144 44.9452 31.0784
647 2 24.7761 51.2541 47.6362
648 2 28.5703 20.7996 43.2953
649 2 15.9167 37.3145 25.3293
650 2 50.0388 22.8197 11.3274
651 2 12.6876 25.7005 29.5365
652 2 16.4426 28.5139 41.6354
653 2 48.9059 12.1377 47.9753
654 2 7.34831 33.3149 27.1569
655 2 12.9118 22.1758 51.2122
656 2 48.8066 24.6524 17.1093
657 2 52.8022 25.9981 21.9037
658 2 54.1609 9.70903 21.5092
659 2 36.7505 21.2903 47.0787
660 2 16.8163 12.4073 12.781
661 2 46.3567 55.1243 13.0051
662 2 24.173 24.1013 6.74354
663 2 8.85917 12.966 12.7344
664 2 35.9293 31.4102 10.9136
665 2 17.2251 47.6492 17.1885
666 2 20.0551 39.1293 38.2854
667 2 40.5162 29.4706 9.82039
668 2 55.8107 19.3614 49.3075
669 2 49.9653 6.56961 26.1461
670 2 45.6227 30.7304 22.7526
671 2 24.9191 24.213 49.4663
672 2 14.7114 49.4045 11.3638
673 2 27.6599 55.068 7.77649
674 2 11.2489 35.4093 53.4724
675 2 38.3967 47.7881 29.4908
676 2 41.4225 51.6826 30.1406
677 2 52.1477 30.1204 18.9444
678 2 48.7789 55.4277 21.5153
679 2 14.3947 6.12373 18.0462
680 2 27.4151 12.7979 38.7917
681 2 16.7796 51.4055 49.0224
682 2 48.8192 31.7348 29.0541
683 2 28.1809 24.1991 49.1512
684 2 22.9838 50.919 31.1616
685 2 37.4834 10.1154 48.3211
686 2 55.7709 31.1395 16.1689
687 2 42.1614 23.6923 20.2083
688 2 19.4778 7.69714 42.3748
689 2 51.9862 33.7224 36.6859
690 2 45.8971 46.7617 27.1139
691 2 29.0629 36.1104 30.8234
692 2 28.7805 23.5126 6.05318
693 2 54.2838 10.0053 16.6357
694 2 9.37319 55.5523 50.6087
695 2 29.7552 19.905 32.2751
696 2 39.2905 34.7289 8.92981
697 2 54.4604 15.3218 18.5523
698 2 49.8052 38.2195 46.1502
699 2 49.5154 43.533 44.8577
700 2 51.0154 25.2013 28.3151
701 2 11.3323 34.9092 44.9949
702 2 21.0443 6.49265 33.3107
703 2 51.533 43.5323 16.6446
704 2 29.8379 8.90728 41.6477
705 2 9.2736 29.4108 40.2454
706 2 28.009 34.2755 48.7812
707 2 15.9593 9.52877 13.9141
708 2 19.2407 24.204 13.9627
709 2 29.9523 46.2751 38.1867
710 2 6.75745 20.8722 43.9119
711 2 22.4508 29.178 17.6206
712 2 26.3907 14.9197 35.7456
713 2 29.987 30.306 54.8776
714 2 17.6613 9.76982 55.1063
715 2 11.0146 12.2228 9.01273
716 2 36.3503 36.1143 39.6795
717 2 25.7959 55.3202 21.5932
718 2 14.4535 22.3613 31.7307
719 2 23.5076 38.5154 34.8924
720 2 41.8319 21.1415 24.1162
721 2 7.68318 42.5428 20.2079
722 2 12.4575 36.7153 50.4149
723 2 15.8431 27.3878 49.8436
724 2 35.8441 50.9937 19.0524
725 2 13.5149 30.6159 8.22739
726 2 54.827 32.5897 29.4398
727 2 20.6254 35.4716 20.5201
728 2 49.6003 49.9711 41.5891
729 2 46.6363 29.2794 12.794
730 2 55.4927 14.1087 41.3775
731 2 32.9707 15.9239 16.8809
732 2 42.732 32.5657 43.0865
733 2 36.1782 36.4633 15.6137
734 2 38.9601 19.3809 19.1485
735 2 14.2927 49.7458 37.6403
736 2 11.5006 48.4165 33.7736
737 2 29.464 25.1686 28.0047
738 2 54.2985 39.1212 54.1687
739 2 42.4539 27.4574 35.5514
740 2 27.4633 30.9408 49.6539
741 2 22.6146 49.6009 42.2222
742 2 11.403 14.0137 24.4706
743 2 30.9688 47.6343 26.2809
744 2 30.4733 26.5086 20.5541
745 2 8.25638 36.797 7.37565
746 2 18.5734 55.8627 7.77144
747 2 50.9785 49.6305 32.3515
748 2 13.4645 13.1751 29.2591
749 2 10.7671 12.3047 27.0535
750 2 37.3592 22.5816 23.0972
751 2 17.5725 34.5097 23.7858
752 2 11.8602 40.2885 9.94195
753 2 51.5483 39.6484 41.6119
754 2 47.2902 38.4006 10.8872
755 2 17.5819 48.1201 12.1872
756 2 51.9907 31.2376 54.8196
757 2 14.3814 35.5237 20.6534
758 2 31.4808 11.6612 26.2726
759 2 53.4326 30.0355 38.4348
760 2 39.0757 7.81927 21.4084
761 2 34.7529 25.2392 36.217
762 2 25.1212 29.746 9.61533
763 2 19.697 49.2161 13.9503
764 2 13.4264 52.7896 37.1535
765 2 9.7535 18.1228 45.861
766 2 19.4942 16.2612 51.4889
767 2 44.8142 27.0475 43.174
768 2 28.8039 23.5734 11.682
769 2 46.1628 33.9393 50.2538
770 2 16.7975 8.94601 35.0226
771 2 14.8853 15.2122 9.65233
772 2 43.8471 35.337 10.6074
773 2 23.1764 48.909 29.0971
774 2 18.1523 12.5053 26.6441
775 2 7.67737 9.18535 28.217
776 2 24.7942 42.9432 20.8523
777 2 28.5342 48.2131 44.3683
778 2 12.7397 10.9472 35.0912
779 2 55.4234 51.98 21.4357
780 2 53.6716 28.8847 23.0025
781 2 6.48287 18.253 15.4403
782 2 31.108 26.6675 8.85668
783 2 52.7122 23.0735 29.6101
784 2 10.0949 28.6822 53.3381
785 2 11.6519 45.5524 40.4754
786 2 28.6902 34.1428 19.6475
787 2 12.0786 52.968 39.7186
788 2 18.5431 8.94679 50.1481
789 2 35.033 10.7385 29.6735
790 2 51.5591 39.7162 20.3363
791 2 53.1032 52.5141 9.07034
792 2 6.93024 49.3944 19.0057
793 2 9.43376 50.3483 31.7082
794 2 46.9688 47.1058 44.4982
795 2 11.3659 50.5107 25.6869
796 2 55.3758 37.0099 7.61859
797 2 52.1045 36.1764 13.916
798 2 23.0372 49.4307 37.7144
799 2 46.1286 43.4974 18.9153
800 2 40.2873 37.8256 8.59805
801 2 12.6867 41.1773 20.1377
802 2 7.40496 33.9119 14.8163
803 2 48.5107 21.3737 48.9632
804 2 19.695 10.1627 38.977
805 2 21.84 36.1672 8.46008
806 2 34.9341 45.3524 12.458
807 2 12.2553 41.6803 16.989
808 2 13.2437 35.9664 12.586
809 2 37.2906 54.1704 23.0482
810 2 38.6647 23.6314 20.0648
811 2 42.8671 12.0831 36.3576
812 2 14.3008 8.13354 8.1643
813 2 40.0257 24.4738 9.7574
814 2 37.4359 18.2343 50.9959
815 2 40.1175 49.9799 47.2879
816 2 50.2083 47.1362 35.4643
817 2 31.4884 29.4709 26.4367
818 2 23.6197 23.7809 45.3038
819 2 15.2011 23.3286 53.3576
820 2 33.618 49.0428 47.1228
821 2 50.4238 17.506 43.1511
822 2 24.8775 34.2162 30.9887
823 2 39.0567 53.1417 6.39561
824 2 50.5344 13.5849 53.111
825 2 13.5858 17.4393 26.1314
826 2 11.9216 42.0812 54.8964
827 2 32.5358 51.9623 7.88255
828 2 49.4902 22.6583 34.4505
829 2 24.3373 21.4057 50.6194
830 2 24.4695 43.3604 41.1514
831 2 18.2453 23.6978 11.0721
832 2 49.0826 8.60307 28.4479
833 2 38.9854 42.9619 16.6026
834 2 12.061 43.6643 28.1342
835 2 20.9284 52.5196 44.4173
836 2 46.7069 23.7315 20.3042
837 2 12.5398 16.6269 22.8489
838 2 23.7903 21.9913 47.9995
839 2 29.8957 55.0059 23.3771
840 2 9.75411 55.2395 17.5668
841 2 44.6627 39.5372 30.0169
842 2 22.3893 41.0262 29.065
843 2 20.4698 31.2978 36.3082
844 2 18.0311 19.3804 9.41098
845 2 34.8483 49.3616 27.3995
846 2 39.3661 18.9657 37.8423
847 2 15.9132 6.58224 6.27151
848 2 40.8821 8.07013 31.6756
849 2 33.7852 42.0585 39.0506
850 2 27.5379 41.5061 10.9123
851 2 9.11581 41.0117 6.90411
852 2 33.2789 21.8154 41.7668
853 2 10.443 7.45205 27.606
854 2 29.109 51.3833 18.1929
855 2 50.1682 53.1651 12.8675
856 2 28.7957 39.492 24.5612
857 2 29.9129 31.2365 38.6432
858 2 44.1139 47.5529 35.9082
859 2 29.6396 47.583 23.5743
860 2 46.9155 47.2613 22.0241
861 2 12.5321 11.3566 49.4495
862 2 31.7464 22.9672 7.45314
863 2 32.9246 24.7593 14.1407
864 2 46.786 50.5834 37.1939
865 2 35.6697 40.3337 42.7067
866 2 29.8206 18.6147 25.5602
867 2 28.134 43.188 51.7867
868 2 53.0838 47.9873 53.695
869 2 52.8282 40.2877 8.05461
870 2 31.1279 26.6202 29.812
871 2 24.4048 17.8489 21.2835
872 2 9.75687 45.1547 15.0813
873 2 39.838 29.1058 29.1916
874 2 18.7813 29.0008 27.9096
875 2 50.983 48.4031 45.7016
876 2 10.3999 35.0067 23.3951
877 2 46.1285 7.21939 6.68112
878 2 43.2528 23.4356 37.3242
879 2 37.1154 11.745 19.2532
880 2 36.6671 39.6373 18.8221
881 2 28.5205 46.8735 33.6878
882 2 43.5878 46.2357 38.3253
883 2 25.7958 12.6901 43.2202
884 2 48.2159 8.17915 33.2722
885 2 40.1511 9.26531 24.2767
886 2 37.2861 27.9093 23.3372
887 2 11.7756 9.03187 51.5068
888 2 10.5765 40.3604 43.722
889 2 9.4654 42.4795 51.436
890 2 13.4961 14.0515 12.2963
891 2 15.5351 18.789 18.299
892 2 14.7175 6.52656 27.4213
893 2 16.1979 43.9428 29.9253
894 2 16.6917 39.1274 6.38715
895 2 54.6759 54.6214 17.5229
896 2 7.22071 47.8132 12.4765
897 2 45.2645 42.4677 48.5503
898 2 35.0114 52.8142 39.6262
899 2 22.3928 51.7149 25.5996
900 2 15.0542 13.3125 25.3754
901 2 22.9534 9.58942 19.5241
902 2 22.9844 20.8059 24.1729
903 2 15.767 12.5163 38.6597
904 2 47.0093 36.4854 8.15489
905 2 20.5 39.2356 10.0231
906 2 32.5229 22.1361 33.1019
907 2 39.6353 53.1608 17.3883
908 2 9.10567 23.1431 44.9324
909 2 22.8049 28.9206 50.2998
910 2 48.8686 22.4122 25.6823
911 2 49.0249 37.9659 40.879
912 2 23.8712 18.5028 13.0061
913 2 43.5598 39.8861 16.5186
914 2 53.5077 42.9925 48.0368
915 2 30.4845 9.95615 38.3761
916 2 34.8643 32.6077 25.9269
917 2 51.8607 20.8043 51.5561
918 2 30.665 16.0073 26.9417
919 2 37.9681 43.3812 28.258
920 2 16.3649 19.5918 22.5788
921 2 44.4969 52.5659 17.1223
922 2 26.2 13.1094 30.8437
923 2 13.7033 15.3913 54.7282
924 2 10.3946 23.6712 34.4897
925 2 24.15 35.1754 34.066
926 2 10.9356 9.05105 48.1779
927 2 46.057 12.0434 17.3012
928 2 49.0809 52.3097 16.9341
929 2 45.2354 25.4248 52.5836
930 2 44.9317 12.7057 50.2496
931 2 41.8728 54.1553 55.0884
932 2 35.8203 16.1265 40.1731
933 2 6.65907 49.0633 28.3834
934 2 44.8038 19.7481 26.7659
935 2 45.6701 34.4412 21.4483
936 2 29.6684 48.2201 19.1264
937 2 45.3387 22.2902 39.5331
938 2 30.9713 25.6571 39.2077
939 2 23.9189 13.8641 13.6641
940 2 39.4255 26.3007 29.0181
941 2 38.5703 16.3454 23.5072
942 2 26.9838 47.4307 49.3459
943 2 43.9038 37.7337 33.9993
944 2 16.3033 23.5934 26.4577
945 2 48.2202 33.6001 47.6245
946 2 6.35582 36.4428 14.215
947 2 51.8002 9.94166 14.2044
948 2 46.5239 48.6565 17.6058
949 2 38.5689 20.9326 16.4979
950 2 17.1097 36.0229 19.0198
951 2 46.277 49.2061 52.2939
952 2 55.246 37.9528 11.0237
953 2 34.2667 52.1075 51.593
954 2 41.3533 43.9119 6.39014
955 2 24.7272 6.43299 24.4523
956 2 14.8592 19.6874 11.0839
957 2 48.0612 50.2455 21.9352
958 2 52.861 49.3349 19.0315
959 2 42.3866 46.9377 41.1078
960 2 53.4637 43.2921 27.2331
961 2 16.5918 37.9401 21.3798
962 2 52.9459 36.4725 26.2422
963 2 44.2296 48.745 32.7963
964 2 50.0547 49.3309 19.8153
965 2 47.3672 31.454 14.8032
966 2 28.5564 31.1551 17.8946
967 2 7.88536 27.1761 15.8447
968 2 50.8844 38.934 9.8813
969 2 38.282 39.3999 44.5677
970 2 7.17907 23.5009 40.3446
971 2 21.3287 27.4142 11.1775
972 2 54.5873 32.6877 37.7417
973 2 17.3011 30.9966 35.2452
974 2 49.5625 16.3349 47.7383
975 2 31.7697 42.2264 10.9156
976 2 37.6426 23.9658 16.7116
977 2 38.3767 22.6714 45.0706
978 2 44.9323 37.0375 31.6266
979 2 38.9519 38.4987 52.9405
980 2 40.6764 11.9686 52.9661
981 2 16.5 25.1532 30.9876
982 2 36.6102 28.3245 50.9431
983 2 19.3178 8.62584 7.75631
984 2 36.3685 18.5745 16.0924
985 2 46.3834 26.1458 30.1789
986 2 7.05579 20.6045 11.2355
987 2 31.021 19.3121 20.569
988 2 32.8097 14.1809 28.5706
989 2 50.9379 12.5346 12.1947
990 2 37.7728 32.3706 32.1403
991 2 9.35788 19.8805 52.5783
992 2 53.5421 7.4353 29.0684
993 2 13.7862 22.3417 24.1488
994 2 9.85456 18.0181 23.7151
995 2 27.0565 31.4833 7.95432
996 2 25.3579 25.7012 34.7692
997 2 46.9469 14.8332 48.7601
998 2 51.9572 24.5715 9.99125
999 2 52.2344 10.0097 29.9567
1000 2 14.2815 12.603 52.7692
1001 2 14.7352 48.8932 16.6235
1002 2 8.54404 46.1849 43.7658
1003 2 47.8141 41.0916 30.0948