ITEM: TIMESTEP
0
ITEM: NUMBER OF ATOMS
9088
ITEM: BOX BOUNDS xy xz yz pp pp pp
6.0356750696872261e+00 5.5895262722432165e+01 -5.7204636450883027e-15
6.0356750696872314e+00 5.5895262722432165e+01 0.0000000000000000e+00
6.0356750696872314e+00 5.5895262722432165e+01 0.0000000000000000e+00
ITEM: ATOMS id type x y z
1 2 54.6726 22.9359 46.4684
2 2 20.5942 7.84596 15.4652
3 2 12.2366 26.5029 6.05998
4 2 29.8837 11.437 13.5204
5 2 29.6588 51.6804 12.1205
6 2 52.3833 48.7233 37.5182
7 2 36.5411 13.5913 55.3986
8 2 46.977 29.1108 51.914
9 2 29.7437 42.2412 13.4191
10 2 23.7608 38.0779 17.1651
11 2 46.8225 28.9363 10.8562
12 2 21.2905 44.4524 30.5752
13 2 36.5072 14.9324 34.9487
14 2 17.3491 47.9707 16.3207
15 2 12.2915 27.8192 26.6059
16 2 6.75192 36.368 37.8249
17 2 35.5022 55.6821 38.757
18 2 54.5375 42.5908 15.2973
19 2 35.6188 51.807 10.6874
20 2 37.4312 50.3181 50.8833
21 2 42.3995 38.1804 28.017
22 2 47.5624 42.2799 43.7012
23 2 41.034 51.4579 46.4314
24 2 25.9303 53.8927 55.6143
25 2 51.0983 17.4524 26.3121
26 2 8.81145 28.2908 39.6773
27 2 6.1257 22.6107 20.8265
28 2 22.0085 16.6234 23.4361
29 2 36.5384 35.2821 39.6404
30 2 34.5186 31.8057 33.5717
31 2 6.197 21.5599 26.1292
32 2 31.3782 55.5888 53.7947
33 2 31.2964 30.2264 46.9174
34 2 6.91375 52.2002 50.8061
35 2 53.046 9.3485 31.6102
36 2 54.7584 24.8546 21.6569
37 2 8.51801 18.6886 55.0614
38 2 40.276 25.2351 31.2292
39 2 50.2124 29.6336 10.9767
40 2 46.1536 53.1424 29.4446
41 2 11.8984 15.4633 49.7331
42 2 39.8367 24.3715 50.1844
43 2 35.1519 13.8421 50.3763
44 2 46.8137 52.0048 26.9549
45 2 42.7713 43.1378 19.7706
46 2 12.8501 28.756 8.28704
47 2 30.3808 22.6151 38.5907
48 2 49.3074 44.0062 34.1705
49 2 46.8462 13.587 13.0629
50 2 10.5009 44.969 25.8418
51 2 44.6326 51.5431 13.1537
52 2 43.559 46.6008 19.6294
53 2 39.5251 53.2702 18.0193
54 2 8.18962 25.827 25.7463
55 2 33.8265 41.6947 11.0623
56 2 15.1317 12.2698 13.4348
57 2 19.6902 51.2148 6.37318
58 2 20.1129 7.45286 10.1813
59 2 33.6441 13.8815 9.33038
60 2 16.962 46.5534 25.2332
61 2 51.5319 53.0407 40.8296
62 2 47.7928 9.42837 39.5829
63 2 21.7225 10.234 24.766
64 2 37.226 53.7032 8.66466
65 2 6.79489 46.3281 9.12984
66 2 9.22211 33.1858 32.2018
67 2 25.1352 20.1236 26.4965
68 2 20.1277 39.7294 10.904
69 2 46.2343 9.22367 33.1178
70 2 27.2125 8.13206 9.27465
71 2 37.5906 7.15844 39.939
72 2 52.638 48.3536 11.174
73 2 17.8043 15.1444 22.9814
74 2 43.9826 15.3917 26.9529
75 2 24.8936 21.8566 35.6446
76 2 20.9086 14.0408 28.3953
77 2 48.2564 31.9984 35.1178
78 2 8.06104 43.8574 10.4301
79 2 19.3276 22.6345 31.2467
80 2 53.6808 20.7209 18.1119
81 2 54.448 51.907 33.7902
82 2 37.8083 28.1194 55.8737
83 2 39.315 6.36791 29.8145
84 2 12.4508 53.7285 15.7192
85 2 50.968 8.549 52.3938
86 2 50.0408 7.22487 33.6055
87 2 42.3771 54.1452 17.1214
88 2 30.7608 39.7001 20.5925
89 2 20.0478 17.006 43.8789
90 2 44.3898 40.8298 26.835
91 2 54.6472 29.7716 50.3402
92 2 39.466 32.8586 33.8386
93 2 26.4362 23.4992 37.5135
94 2 17.1793 14.6629 14.015
95 2 8.0544 29.5561 53.0946
96 2 29.08 21.7164 34.4975
97 2 6.82417 7.93804 15.7199
98 2 40.53 45.3376 7.74466
99 2 45.1971 28.1273 37.7477
100 2 25.6574 41.2941 33.2058
101 2 44.7123 52.6139 10.6414
102 2 12.2033 24.131 23.5471
103 2 25.3865 47.6303 9.42967
104 2 38.477 17.5597 48.6848
105 2 29.8094 42.6117 23.76
106 2 17.0527 12.0468 35.1048
107 2 9.39514 26.3151 20.9111
108 2 48.8349 18.5584 7.08147
109 2 33.0203 34.1754 9.05256
110 2 41.5667 46.4324 13.4786
111 2 33.1035 39.2583 12.5562
112 2 44.4059 46.5517 16.5215
113 2 11.0674 17.6295 9.31468
114 2 50.0144 26.9942 30.1754
115 2 8.41095 24.4797 30.6551
116 2 53.87 29.5415 55.8078
117 2 43.1082 43.7141 51.7975
118 2 45.6882 13.3944 18.9624
119 2 22.39 32.2366 13.862
120 2 40.6854 54.2735 27.7388
121 2 29.6582 44.2401 48.3877
122 2 42.7594 26.5518 15.772
123 2 6.97986 23.569 28.4244
124 2 43.4479 8.4763 17.884
125 2 32.5527 47.0419 17.4103
126 2 51.8819 25.4612 8.36966
127 2 29.3075 38.3148 48.7191
128 2 17.0784 16.1755 42.9577
129 2 49.5903 55.2231 25.8698
130 2 10.4583 49.8161 7.75037
131 2 24.694 35.116 34.1417
132 2 48.1776 28.6618 18.7785
133 2 48.3994 11.017 20.6398
134 2 41.5262 8.48989 50.1252
135 2 46.0741 23.8697 52.8148
136 2 21.6201 27.1825 25.4126
137 2 37.0822 10.9828 39.6995
138 2 13.5508 38.7834 37.6927
139 2 24.3774 42.5078 39.6894
140 2 33.7388 6.30331 27.8664
141 2 16.0125 55.5938 39.2718
142 2 40.8183 31.3313 55.6527
143 2 13.9955 43.8864 6.65483
144 2 34.5016 39.8332 39.3593
145 2 53.9325 41.6892 28.2885
146 2 38.7564 32.6171 6.88315
147 2 48.6311 16.9335 42.4227
148 2 37.6223 45.5174 11.0796
149 2 42.8258 41.6044 15.0197
150 2 36.0396 11.1061 48.4787
151 2 32.2982 16.4127 19.859
152 2 27.1062 36.2659 38.0351
153 2 34.8087 19.4775 16.3504
154 2 7.18319 45.1904 44.3395
155 2 52.9969 31.3768 28.4079
156 2 46.8564 24.1255 20.0879
157 2 47.1432 28.4916 34.3852
158 2 16.6509 10.0918 37.8719
159 2 38.8562 35.9161 43.0826
160 2 44.24 43.5368 16.8124
161 2 47.2359 55.5766 8.10663
162 2 55.8909 38.7529 28.524
163 2 6.98917 40.3309 43.3799
164 2 49.3805 28.0209 48.052
165 2 44.9511 7.12648 38.142
166 2 44.9432 11.1746 11.4148
167 2 40.1218 20.7003 12.4123
168 2 23.6045 34.2813 53.0531
169 2 52.4899 55.829 32.1863
170 2 21.4452 11.1539 29.6959
171 2 37.9914 29.8286 9.50304
172 2 33.176 52.3172 6.75085
173 2 20.1203 52.9334 40.6231
174 2 29.3731 41.6535 8.3655
175 2 30.0264 8.95973 26.0831
176 2 12.2973 43.675 54.0077
177 2 12.7474 21.7773 11.5522
178 2 39.3691 11.3018 37.0611
179 2 32.7481 24.3743 45.6908
180 2 29.2128 24.5332 35.9824
181 2 26.8624 52.9163 44.1176
182 2 53.2964 12.9748 24.6174
183 2 15.5537 21.6212 39.8832
184 2 22.7207 8.91093 28.8623
185 2 50.5966 45.2825 53.1588
186 2 16.5742 36.6278 13.6002
187 2 44.8242 23.6095 41.1005
188 2 17.7724 8.99842 46.505
189 2 20.5549 25.5015 35.264
190 2 48.3573 54.019 11.9509
191 2 39.2352 27.7531 23.6833
192 2 52.3837 34.6541 16.1032
193 2 21.0461 9.38074 46.4841
194 2 6.58109 34.148 33.3881
195 2 20.4369 50.251 37.332
196 2 46.7875 36.9218 29.8495
197 2 30.9205 37.4224 12.8851
198 2 9.93394 50.6844 19.1172
199 2 54.7962 8.44711 22.2741
200 2 23.9129 15.0827 35.1637
201 2 25.9326 9.53066 19.4628
202 2 42.3445 51.314 43.1605
203 2 41.2715 9.99139 30.7144
204 2 6.63 26.7959 31.9597
205 2 35.7898 41.0835 50.4613
206 2 13.0492 43.6582 11.0458
207 2 28.6441 22.1488 46.7119
208 2 32.3201 27.7049 26.0588
209 2 21.5851 17.2609 54.4787
210 2 28.0509 45.8618 19.0443
211 2 12.1013 54.1409 7.46008
212 2 13.6684 26.3564 38.959
213 2 28.7034 29.6534 50.6506
214 2 28.1064 48.9094 10.8596
215 2 23.7681 12.9146 21.2374
216 2 14.1578 9.02579 18.0417
217 2 21.9613 39.6002 46.0306
218 2 38.6347 7.95871 19.1628
219 2 23.9694 52.1173 27.853
220 2 37.276 7.65876 22.6046
221 2 34.0655 9.53823 26.127
222 2 11.4512 38.9249 16.5126
223 2 44.2303 36.8989 15.0988
224 2 35.1098 15.4499 7.62742
225 2 39.3457 26.0196 46.3942
226 2 8.8764 35.9403 19.9543
227 2 12.1557 37.4256 26.6284
228 2 46.116 27.7703 46.8263
229 2 46.8881 45.1684 37.2142
230 2 43.859 54.7827 28.666
231 2 12.6461 8.29348 15.3217
232 2 48.4784 8.93177 17.9692
233 2 12.9517 25.1535 15.6582
234 2 33.3432 29.266 38.0024
235 2 19.7716 23.4316 45.6722
236 2 6.84299 28.7356 16.6079
237 2 38.8767 18.8022 39.9453
238 2 9.40368 24.9536 12.6219
239 2 36.4067 13.7578 47.4015
240 2 19.6872 36.1762 37.6188
241 2 47.194 23.6273 43.1675
242 2 44.9915 35.2299 12.6983
243 2 40.2062 42.3453 51.8378
244 2 36.6469 14.8478 10.8343
245 2 10.2388 14.2322 32.332
246 2 35.8497 54.986 32.4014
247 2 23.3558 46.0668 19.724
248 2 20.0332 11.1904 43.7865
249 2 14.6986 16.7739 23.9087
250 2 20.165 43.5611 43.5696
251 2 48.4743 46.2302 18.9754
252 2 22.62 44.2608 38.4795
253 2 33.7515 24.1418 9.31114
254 2 30.5671 51.5506 38.3562
255 2 47.6831 20.2407 18.1927
256 2 25.094 51.3219 6.55722
257 2 34.5379 44.3525 37.337
258 2 34.9017 19.5532 41.4116
259 2 12.3604 11.7675 19.2727
260 2 52.1811 23.9241 48.135
261 2 24.8286 19.6791 19.0309
262 2 15.8338 41.4194 52.2325
263 2 38.7192 21.9251 53.6009
264 2 20.4649 45.3202 13.6773
265 2 45.5646 22.4884 7.45658
266 2 26.4142 45.6294 41.9439
267 2 17.5331 32.8932 49.0751
268 2 27.7204 21.5556 55.051
269 2 38.3811 46.4322 14.159
270 2 54.056 36.1608 45.8585
271 2 29.6045 31.882 45.197
272 2 32.9615 7.19816 25.0431
273 2 47.0617 25.3335 47.5713
274 2 54.8624 27.8598 23.2144
275 2 18.6627 37.4104 44.9041
276 2 27.2288 10.982 29.298
277 2 12.808 22.5257 27.8016
278 2 32.451 55.4968 18.0461
279 2 18.2625 20.8162 47.8344
280 2 50.8178 49.9042 19.2792
281 2 53.4839 7.93313 25.0304
282 2 44.2045 51.7766 33.5397
283 2 52.219 9.22268 10.2883
284 2 37.0755 34.376 35.3357
285 2 15.3554 28.7643 37.4839
286 2 40.5152 50.4521 19.813
287 2 25.3777 11.8639 11.4003
288 2 27.7767 8.93582 16.5861
289 2 43.9035 50.942 45.5681
290 2 25.7622 7.00185 7.1694
291 2 36.5117 35.4832 27.1235
292 2 17.8872 41.6392 19.8267
293 2 41.8791 45.1682 22.2201
294 2 22.5992 13.6401 24.3609
295 2 55.0461 51.6918 55.1079
296 2 38.6503 37.2122 19.0532
297 2 47.6682 33.773 14.0527
298 2 26.649 51.1411 17.6969
299 2 51.964 24.7474 37.4149
300 2 13.4141 41.8036 49.7081
301 2 11.3377 28.6017 54.203
302 2 21.0739 33.4832 44.8798
303 2 46.9267 47.6239 46.1806
304 2 7.34568 45.8125 37.8177
305 2 49.4652 34.5204 24.0992
306 2 17.4099 15.9668 50.0739
307 2 41.7774 54.7411 39.9314
308 2 40.9972 30.8492 37.1578
309 2 8.77314 35.7263 33.432
310 2 31.1388 45.3401 7.22976
311 2 32.2091 10.9663 22.4952
312 2 19.8034 40.5301 30.1141
313 2 51.2418 31.7914 16.1139
314 2 11.9688 36.1252 54.8645
315 2 21.6799 13.9966 31.4899
316 2 20.804 35.863 22.8278
317 2 14.2293 42.6964 22.0887
318 2 40.9643 42.4161 36.6823
319 2 17.8956 17.035 38.6735
320 2 23.5684 7.13737 35.9027
321 2 14.6728 43.9753 9.05673
322 2 32.0122 15.3264 47.0047
323 2 18.0514 53.3416 10.2138
324 2 13.9506 31.6058 30.9414
325 2 51.7784 26.7758 32.1537
326 2 41.388 29.7714 30.0009
327 2 6.45291 35.1883 41.541
328 2 40.2996 24.9849 25.9458
329 2 11.339 39.4928 33.1934
330 2 54.9642 30.1403 24.9683
331 2 25.0106 48.4175 25.5324
332 2 14.55 44.2541 16.9508
333 2 34.3787 17.658 38.161
334 2 31.6513 47.9474 40.8359
335 2 17.4357 37.9524 40.6006
336 2 49.1108 34.2455 38.7024
337 2 43.1859 13.8733 53.6938
338 2 24.5082 7.41858 11.3578
339 2 6.83748 49.3923 24.9458
340 2 27.7369 15.5936 39.6638
341 2 34.7853 45.5981 52.7601
342 2 18.0614 32.0128 40.2563
343 2 15.5913 6.13921 18.2638
344 2 33.3333 37.3123 37.7935
345 2 37.5963 41.5841 13.8806
346 2 28.2565 43.8446 7.04433
347 2 24.8261 20.2217 51.7115
348 2 15.2556 22.8242 50.5035
349 2 45.1132 30.1323 53.766
350 2 10.0479 45.8078 51.3372
351 2 24.3404 32.5136 8.57148
352 2 49.4315 34.8911 41.629
353 2 48.2174 17.0593 10.6767
354 2 12.766 48.2719 8.74896
355 2 43.1796 19.7305 29.0601
356 2 7.0173 55.7562 53.2454
357 2 51.3028 22.9436 51.9828
358 2 20.8202 8.98233 53.5398
359 2 37.6923 52.7761 49.5681
360 2 37.077 17.8704 14.067
361 2 13.3356 40.5934 42.7431
362 2 45.8858 34.4572 8.64621
363 2 12.2384 42.7679 27.3424
364 2 43.6328 18.8365 22.5386
365 2 42.7092 44.2519 37.9139
366 2 33.9039 31.0469 40.922
367 2 17.1774 10.5182 11.9395
368 2 42.0313 12.011 38.2327
369 2 48.2936 17.9455 39.3475
370 2 31.177 49.0234 21.3394
371 2 35.1719 15.1493 19.3051
372 2 29.7374 31.7085 25.2199
373 2 48 16.7506 32.6059
374 2 6.32752 12.2509 33.1782
375 2 50.9504 51.5276 6.17389
376 2 48.2967 41.1699 24.4914
377 2 37.9674 30.9184 13.5468
378 2 47.5898 13.3718 52.3784
379 2 39.3751 54.7565 37.6568
380 2 26.4379 22.6353 32.7574
381 2 31.5291 27.428 18.0626
382 2 35.7303 6.77552 10.3829
383 2 26.5859 39.6548 21.0777
384 2 35.0723 8.0692 41.5734
385 2 31.8683 10.3155 11.5936
386 2 14.5411 16.0633 54.3116
387 2 21.797 16.5028 51.3768
388 2 32.5399 46.0888 24.9292
389 2 32.9127 10.0732 16.9871
390 2 33.5834 20.0331 52.657
391 2 35.0893 13.5503 23.7971
392 2 24.4926 11.2056 48.3437
393 2 16.1375 35.133 26.0561
394 2 39.3513 15.1767 17.6757
395 2 53.7521 32.8221 23.5513
396 2 12.7141 38.2669 13.4244
397 2 32.9396 39.4797 24.1184
398 2 45.9439 23.2928 45.6158
399 2 54.7901 9.65661 47.3522
400 2 37.3447 23.8174 24.8783
401 2 33.0304 47.7257 6.38558
402 2 22.0245 38.4728 48.9702
403 2 25.1067 12.8848 27.7036
404 2 48.5528 28.8176 27.343
405 2 41.3141 30.1578 12.2527
406 2 50.1911 10.3899 13.644
407 2 53.2719 22.349 34.5325
408 2 55.1967 30.5328 14.6425
409 2 21.2202 17.9507 26.1125
410 2 22.073 41.4579 50.2274
411 2 36.8566 23.9753 34.0853
412 2 49.6041 51.6586 23.1947
413 2 31.1838 19.4112 30.3803
414 2 17.6089 6.2808 47.2344
415 2 26.9759 48.2838 42.9026
416 2 15.1689 46.7012 12.0989
417 2 35.293 40.7874 6.31009
418 2 37.1265 25.7881 15.5497
419 2 6.82273 52.8478 39.1631
420 2 39.236 36.8666 9.45009
421 2 46.9217 20.8051 47.3555
422 2 8.14141 17.7303 37.2771
423 2 12.5488 35.1792 30.2766
424 2 18.3929 18.5943 25.8672
425 2 30.2084 53.7357 25.8346
426 2 46.6971 38.7429 8.91032
427 2 49.6495 32.5831 49.7679
428 2 32.3479 34.2476 54.0069
429 2 43.6894 33.3286 27.4977
430 2 11.6346 55.4034 49.8603
431 2 44.4097 24.0105 23.4098
432 2 43.5902 6.09162 50.123
433 2 43.1353 32.1553 7.83104
434 2 29.3019 47.8285 14.9728
435 2 48.1403 47.6649 37.0627
436 2 30.5384 20.5939 8.81357
437 2 41.0832 27.7239 38.1822
438 2 8.73439 10.3031 46
439 2 40.347 52.1986 9.04155
440 2 25.4739 44.0364 10.923
441 2 52.1339 47.701 20.8828
442 2 14.8668 29.3491 29.8217
443 2 21.8578 43.62 41.2324
444 2 49.3593 11.8001 55.718
445 2 23.9781 22.7119 7.92526
446 2 25.5898 22.7257 17.8659
447 2 46.8464 39.8903 31.0118
448 2 37.3049 28.6012 27.5078
449 2 53.2717 47.3054 52.033
450 2 33.8013 16.9934 34.2409
451 2 25.6419 10.5099 52.3027
452 2 13.2995 48.8373 42.7028
453 2 38.4907 37.8174 38.6743
454 2 10.5641 31.0474 10.9846
455 2 16.5635 22.311 10.6374
456 2 45.6726 42.8541 19.6212
457 2 42.0474 22.3295 25.3506
458 2 11.6665 42.6191 8.76564
459 2 19.8367 27.0792 13.7928
460 2 22.2837 35.7552 43.7735
461 2 52.6681 44.7529 19.589
462 2 37.2291 11.0057 34.457
463 2 20.9564 41.8437 6.92728
464 2 51.0271 50.4716 10.5049
465 2 29.6408 19.2171 46.39
466 2 55.5279 18.4371 17.343
467 2 38.0905 40.3722 27.6404
468 2 55.0488 26.6191 7.07219
469 2 23.6327 37.6476 55.3556
470 2 10.8888 20.009 18.1098
471 2 8.29629 24.5129 17.1056
472 2 55.4949 45.0975 21.2893
473 2 17.3466 31.5094 43.6464
474 2 37.5612 46.0699 28.8325
475 2 9.99491 6.64336 6.96426
476 2 34.6171 46.7927 28.6769
477 2 46.8605 7.95573 27.1475
478 2 35.4335 55.045 26.0339
479 2 8.11798 30.7735 35.7914
480 2 41.0116 37.5444 41.2047
481 2 37.574 53.0593 41.8566
482 2 48.9899 40.377 27.6161
483 2 21.9146 48.0604 28.855
484 2 15.6485 40.7936 13.723
485 2 37.5425 33.4477 15.8088
486 2 16.1659 11.9724 7.81674
487 2 49.8541 29.6567 53.4564
488 2 16.9921 39.433 34.8419
489 2 28.1599 54.7295 17.5678
490 2 41.6768 13.3529 26.7866
491 2 51.8097 48.4147 16.4034
492 2 6.41237 40.0367 46.2016
493 2 13.9702 52.9194 50.4206
494 2 20.4101 32.8697 6.81954
495 2 33.3384 28.7282 50.9132
496 2 17.7127 32.3139 23.2625
497 2 27.6474 49.7244 52.7117
498 2 38.0162 23.5657 19.3348
499 2 18.4941 18.6306 50.8023
500 2 27.2235 34.2542 40.8825
501 2 36.6895 51.3587 28.5759
502 2 50.2814 17.5446 36.5678
503 2 41.4859 25.8744 53.3342
504 2 45.4937 46.6102 22.2114
505 2 37.7078 44.2583 20.2653
506 2 35.0392 40.0459 42.6507
507 2 41.0035 35.6301 26.9323
508 2 21.1347 12.5093 7.80538
509 2 34.1576 11.5164 55.2284
510 2 14.4415 37.269 51.1871
511 2 45.0775 16.6584 31.6886
512 2 14.8988 26.5107 26.3637
513 2 47.0272 32.5104 52.0864
514 2 18.0197 41.3151 11.7676
515 2 54.3033 11.9383 37.8083
516 2 8.53716 46.5813 34.7483
517 2 52.58 49.3441 23.9409
518 2 47.2034 10.1339 25.0687
519 2 9.33685 27.0997 35.8331
520 2 13.0344 42.8106 44.36
521 2 34.8175 17.5095 50.9084
522 2 52.0702 20.7359 45.6096
523 2 43.2321 22.7866 19.0541
524 2 9.00167 26.2491 9.14399
525 2 15.7639 22.4878 27.4462
526 2 53.2406 41.0953 52.7883
527 2 16.8184 52.2477 14.0776
528 2 32.5651 53.2647 27.8037
529 2 55.5007 12.2997 30.7358
530 2 15.1737 22.9769 36.8911
531 2 36.9856 44.5013 15.7756
532 2 54.4773 38.043 50.1137
533 2 44.5936 26.5294 7.0461
534 2 41.8255 9.01269 15.1593
535 2 25.8108 15.4154 17.2789
536 2 20.1992 45.7882 34.7018
537 2 35.5716 31.6143 38.3863
538 2 43.7811 26.3414 41.4947
539 2 23.4714 25.1165 50.3657
540 2 12.9869 12.1108 47.1167
541 2 26.9902 29.6216 37.1237
542 2 45.7717 6.25772 32.5771
543 2 55.8269 9.57568 17.7163
544 2 47.6697 32.0863 6.88848
545 2 38.175 22.424 36.3123
546 2 46.9093 52.4207 22.7051
547 2 34.2834 6.87115 22.2411
548 2 18.8572 49.2936 19.0481
549 2 22.1105 40.4037 14.9105
550 2 14.368 27.2349 19.9523
551 2 34.0478 31.3989 7.91377
552 2 15.4153 29.1026 41.5135
553 2 38.0069 13.8228 20.0763
554 2 32.8413 10.306 47.9471
555 2 55.1827 8.94444 11.424
556 2 44.0259 48.1885 9.58323
557 2 33.1817 20.6345 14.1051
558 2 27.0126 26.9687 55.7511
559 2 8.34873 54.585 43.0354
560 2 47.7057 40.1316 50.3582
561 2 28.5768 17.9937 20.8169
562 2 33.1958 17.0695 12.3603
563 2 47.0131 46.5345 41.7535
564 2 49.9786 24.1823 54.4032
565 2 21.7532 50.3036 12.6584
566 2 15.4372 38.3153 45.2845
567 2 42.1101 48.809 15.4344
568 2 51.1684 55.0896 20.915
569 2 23.5285 21.8769 47.0893
570 2 11.9775 26.5187 13.5052
571 2 28.8422 15.5292 54.6059
572 2 12.5182 52.3906 54.5214
573 2 52.8125 16.5645 39.5072
574 2 53.2686 55.8459 44.4613
575 2 49.4261 19.1168 52.6471
576 2 45.2642 8.39676 13.1453
577 2 51.1316 14.0993 32.4471
578 2 39.3237 15.4545 36.6623
579 2 42.5416 34.4297 44.679
580 2 36.4708 8.9642 15.2421
581 2 39.0382 19.9167 7.16219
582 2 15.5208 8.67894 51.3834
583 2 31.8877 15.4458 36.461
584 2 23.9734 26.5102 19.8178
585 2 13.6523 13.6268 10.8296
586 2 37.1235 40.6504 37.843
587 2 21.7297 52.062 51.6492
588 2 48.4782 50.9975 52.1449
589 2 53.137 44.3199 51.7913
590 2 14.2001 30.4574 22.2577
591 2 19.0288 10.4349 22.3908
592 2 23.3008 35.0447 24.6264
593 2 39.6291 50.9618 41.3654
594 2 54.5492 24.1377 54.9101
595 2 14.9156 19.8145 15.8375
596 2 9.99483 37.4437 28.8548
597 2 8.0702 7.5596 44.7206
598 2 53.2375 28.1481 13.7972
599 2 7.30289 23.9385 42.2914
600 2 35.3356 11.0848 8.58432
601 2 15.2258 46.6969 46.8731
602 2 16.1538 26.2457 54.2546
603 2 46.5245 14.8815 34.1305
604 2 17.1138 14.579 6.83828
605 2 25.5597 41.5455 30.1344
606 2 39.9017 44.313 27.4196
607 2 54.6795 50.8823 43.7076
608 2 32.3589 29.0594 42.3923
609 2 11.9624 27.198 31.9317
610 2 45.2778 18.7976 25.3514
611 2 21.4729 37.2895 15.7086
612 2 35.483 16.992 43.59
613 2 36.0273 52.7341 37.9202
614 2 21.2014 29.534 10.5606
615 2 35.1841 36.9604 35.5245
616 2 27.5629 23.3426 52.4712
617 2 29.1718 32.9679 7.43727
618 2 32.7401 27.6449 53.7798
619 2 48.0033 31.9544 30.7429
620 2 55.6854 13.3217 45.0111
621 2 43.3919 19.4899 38.5211
622 2 15.1741 42.7042 35.9345
623 2 46.5978 40.177 45.5708
624 2 48.3459 20.6269 33.2223
625 2 18.705 49.5179 32.5404
626 2 42.193 52.9074 31.8477
627 2 28.3843 22.8276 17.675
628 2 23.121 26.0285 47.5427
629 2 37.9465 22.395 8.18162
630 2 39.4632 52.6072 32.7842
631 2 21.5063 37.1936 36.1044
632 2 48.8973 44.9389 26.8728
633 2 25.6096 22.4613 28.2124
634 2 17.3861 7.69022 16.5968
635 2 47.6371 22.9365 55.4527
636 2 12.0255 51.3768 51.7704
637 2 52.6997 20.403 14.2405
638 2 6.74418 54.6824 24.7882
639 2 30.3486 49.827 26.8648
640 2 9.61035 28.5165 18.8869
641 2 39.7101 41.8533 9.07829
642 2 55.892 55.1194 44.641
643 2 14.0015 33.9638 24.4057
644 2 50.2784 29.3432 14.2945
645 2 49.094 12.8371 16.6061
646 2 43.698 39.1839 42.0419
647 2 40.6575 49.8072 6.79501
648 2 40.5019 13.3748 53.3868
649 2 32.1496 32.1003 35.8617
650 2 13.6482 15.6575 26.1461
651 2 29.2611 22.1541 41.9872
652 2 31.6266 22.4863 52.4716
653 2 14.0552 6.67907 9.10619
654 2 23.2981 26.7328 34.6134
655 2 27.724 17.852 10.9832
656 2 12.9904 18.3827 28.5664
657 2 23.2623 21.0579 38.3118
658 2 13.0919 6.33954 34.5613
659 2 51.9747 15.8358 9.28093
660 2 29.7022 6.14116 21.7905
661 2 9.06428 51.4286 26.1298
662 2 39.0788 18.0311 18.2756
663 2 24.7904 8.70893 22.348
664 2 50.6759 25.2616 28.0494
665 2 32.7231 41.4037 27.3973
666 2 34.919 33.4935 49.0673
667 2 52.43 25.1077 20.1547
668 2 23.5175 12.7691 9.46962
669 2 14.119 50.5996 40.3659
670 2 16.2801 25.3965 33.1264
671 2 40.2639 18.6734 10.3976
672 2 29.5491 44.9357 21.7541
673 2 44.365 53.4313 19.6091
674 2 21.7881 30.2099 16.1286
675 2 52.9024 41.9378 40.9976
676 2 55.7958 48.2675 44.5562
677 2 16.2891 30.4391 26.8081
678 2 14.6578 49.5261 33.9219
679 2 26.8788 48.3181 30.5219
680 2 49.4098 11.4269 51.0232
681 2 31.8534 45.3816 10.687
682 2 11.2885 24.2933 39.0236
683 2 43.6545 17.3636 10.783
684 2 40.6331 44.1863 49.6134
685 2 52.3925 54.7384 10.0525
686 2 20.9397 22.9365 33.5185
687 2 10.0616 21.8242 34.3712
688 2 30.9261 48.5393 53.1103
689 2 16.2557 27.9143 49.1883
690 2 10.0606 43.5143 35.8974
691 2 44.5769 29.8776 42.2483
692 2 43.6243 17.9383 17.7894
693 2 21.4854 7.58069 25.8961
694 2 27.3275 53.7599 10.0363
695 2 43.9895 15.3065 41.4832
696 2 50.2277 32.6631 20.6722
697 2 19.2741 6.12055 30.7345
698 2 17.7091 31.397 7.75024
699 2 14.275 37.4679 6.46395
700 2 15.0241 18.899 41.2761
701 2 26.7865 29.5446 6.76324
702 2 33.6759 48.4921 44.6488
703 2 18.4412 39.5976 25.9042
704 2 39.2783 55.8285 51.9435
705 2 22.045 20.3466 7.91372
706 2 44.4278 29.4539 8.35701
707 2 27.8856 55.5939 24.6195
708 2 34.397 18.5194 24.8861
709 2 44.4667 40.8638 49.5999
710 2 20.4298 14.1672 53.2193
711 2 36.6336 23.5261 29.3541
712 2 47.7195 9.90017 48.9263
713 2 45.8435 23.8987 17.0938
714 2 30.8872 53.9203 15.973
715 2 22.9972 54.4756 19.76
716 2 51.7529 30.0049 51.2037
717 2 40.6003 48.6909 31.9983
718 2 28.9521 16.4321 42.4367
719 2 39.2406 32.5942 46.3258
720 2 7.85072 14.4529 34.0061
721 2 22.7392 39.2464 26.6912
722 2 31.2299 29.7176 13.9581
723 2 26.8456 19.2732 6.81178
724 2 50.5404 45.2894 29.5425
725 2 30.5889 24.03 19.8182
726 2 19.3485 26.9264 46.0695
727 2 33.9834 30.1312 30.7142
728 2 14.7417 44.7102 52.8446
729 2 50.8049 14.454 24.8092
730 2 15.2769 9.69767 48.2896
731 2 46.2336 12.6413 30.0882
732 2 8.6122 24.9135 53.0351
733 2 48.7047 31.6656 27.4898
734 2 50.3345 11.3334 30.6271
735 2 25.468 46.126 46.3697
736 2 22.5129 46.2351 47.9448
737 2 45.2091 19.7122 41.3771
738 2 17.7743 32.9233 15.105
739 2 7.16556 21.0589 46.8588
740 2 42.3083 23.669 8.99336
741 2 36.7861 43.4127 53.9724
742 2 26.3624 7.49344 35.4685
743 2 46.1859 41.7437 37.5782
744 2 45.2564 21.2723 32.2813
745 2 27.4615 31.709 19.8737
746 2 33.1639 50.7583 20.034
747 2 15.5103 42.0121 45.615
748 2 27.9911 7.55476 40.4469
749 2 25.5066 6.20345 38.1966
750 2 52.3834 15.7191 34.9448
751 2 30.3884 32.5618 32.2301
752 2 29.0811 27.0634 16.3799
753 2 18.9712 32.3254 52.1236
754 2 11.1565 33.4725 20.6201
755 2 33.1396 42.3363 22.8246
756 2 17.8674 25.1725 16.8166
757 2 30.608 29.1781 31.8855
758 2 43.7028 6.43014 40.9601
759 2 22.451 21.489 50.0143
760 2 51.3423 52.8561 31.5761
761 2 51.0304 19.5873 48.5795
762 2 39.7992 23.858 21.2398
763 2 35.7681 43.6593 24.5403
764 2 30.7588 47.343 50.4977
765 2 25.8827 12.2735 6.4039
766 2 34.828 9.98285 12.5891
767 2 15.1443 22.5349 7.88856
768 2 43.1446 16.9398 24.7663
769 2 8.55103 28.952 11.2766
770 2 32.0497 53.272 46.4227
771 2 30.1583 9.23082 20.7673
772 2 8.61956 27.4709 23.1388
773 2 38.2082 43.2453 40.3416
774 2 32.615 55.5009 37.2707
775 2 22.8841 52.5242 39.1127
776 2 39.1148 37.6396 33.644
777 2 42.7995 47.4661 52.5862
778 2 27.375 54.9518 46.3394
779 2 18.1226 46.9782 28.2007
780 2 20.5611 25.5175 31.8807
781 2 19.0497 11.0901 25.3873
782 2 45.5655 20.3872 20.8817
783 2 23.1006 22.4128 41.4507
784 2 24.7048 22.0819 13.9002
785 2 26.5915 41.3386 49.7695
786 2 43.5927 28.1247 30.9623
787 2 24.4995 44.9875 50.5521
788 2 32.5291 52.9746 11.3421
789 2 50.0068 55.491 37.798
790 2 15.732 38.3962 29.6111
791 2 19.6927 47.7779 21.0803
792 2 23.0149 40.3211 29.3412
793 2 23.1064 46.2072 42.3429
794 2 12.4247 41.5546 6.1293
795 2 26.1876 44.7098 36.2855
796 2 24.6018 33.4533 20.5521
797 2 20.3589 28.8797 22.7762
798 2 36.1906 43.8615 49.2405
799 2 20.2323 36.1384 29.5188
800 2 7.03831 31.3391 21.0784
801 2 25.8739 36.7064 28.243
802 2 23.7655 27.0632 23.1178
803 2 12.1283 11.1755 13.8493
804 2 34.7313 53.716 48.2028
805 2 36.7322 30.0578 19.9577
806 2 51.0659 35.6108 28.0639
807 2 22.485 38.2531 21.9825
808 2 28.1277 34.014 21.1424
809 2 52.2141 48.4573 34.1131
810 2 54.4921 18.6738 33.1835
811 2 8.91732 6.47793 49.1432
812 2 29.7264 50.1691 17.0755
813 2 50.1318 17.6169 19.4505
814 2 53.0031 12.3983 12.9945
815 2 50.5003 42.5852 6.18847
816 2 15.0134 40.2064 47.5443
817 2 45.8222 17.3285 36.8629
818 2 38.9599 17.5197 53.3258
819 2 29.0242 18.628 13.8353
820 2 39.9191 44.9973 54.7711
821 2 11.293 11.9371 49.3721
822 2 39.9529 28.7161 42.3636
823 2 53.7376 46.6203 17.7547
824 2 15.8852 6.21009 14.0498
825 2 28.9449 11.4224 36.9661
826 2 30.1972 35.533 17.5723
827 2 49.0743 46.0062 21.9743
828 2 17.1821 17.6369 45.3481
829 2 40.0018 15.3447 11.6961
830 2 39.2157 37.9021 52.1567
831 2 32.7612 15.7945 24.3092
832 2 14.8792 55.1758 41.9975
833 2 52.0382 37.8347 21.2789
834 2 23.7983 34.2963 41.43
835 2 35.8132 46.9011 7.46314
836 2 12.8994 20.7001 36.0034
837 2 27.4874 10.4049 33.7181
838 2 39.0562 16.2805 9.33918
839 2 44.9529 49.0398 34.0365
840 2 26.4731 48.0919 27.8535
841 2 9.16001 34.0506 41.7747
842 2 36.3795 32.1892 42.74
843 2 35.8495 25.1611 47.4532
844 2 32.913 12.987 20.5279
845 2 49.3106 43.6273 38.6517
846 2 48.7044 7.08609 52.654
847 2 32.0587 44.3737 13.5058
848 2 55.2849 49.8564 39.4479
849 2 48.8004 35.6596 50.2499
850 2 41.7602 36.0797 19.1098
851 2 25.7826 30.6332 17.416
852 2 47.1129 15.6019 54.8235
853 2 25.5366 51.2347 38.1121
854 2 44.7019 46.1047 28.7724
855 2 14.6538 47.285 25.7974
856 2 43.3472 36.5833 35.9982
857 2 45.316 26.0839 49.5763
858 2 9.13771 43.3443 47.6356
859 2 45.0328 41.553 35.0986
860 2 10.1202 46.2874 32.2735
861 2 25.7129 55.7155 16.1706
862 2 47.3952 15.9404 19.3225
863 2 48.3257 19.9961 22.3903
864 2 12.7921 45.5712 45.2077
865 2 50.7128 34.7204 53.8905
866 2 42.5161 12.6992 33.9326
867 2 43.189 39.3424 12.4334
868 2 18.691 38.762 17.5762
869 2 14.2352 34.7463 20.8723
870 2 47.6632 14.1348 44.1201
871 2 38.5539 11.3865 31.9108
872 2 26.7151 36.6595 21.22
873 2 45.4189 20.3538 36.5871
874 2 35.0139 26.9595 40.8792
875 2 16.8506 43.7829 54.9362
876 2 25.9634 30.4021 33.2257
877 2 9.69655 49.3824 16.4017
878 2 7.36826 17.4236 51.0063
879 2 52.3792 55.0931 35.5785
880 2 51.7734 33.6056 30.4855
881 2 43.659 40.9044 45.0513
882 2 9.41241 39.8381 49.64
883 2 41.0611 55.5337 54.7937
884 2 9.36662 52.0146 44.4721
885 2 53.4222 51.7786 38.3718
886 2 9.14524 24.7673 33.6512
887 2 26.4127 55.2346 12.9802
888 2 23.8956 35.3434 7.53411
889 2 22.6769 35.5748 10.1874
890 2 29.4531 53.0802 21.029
891 2 30.4752 12.0671 25.1014
892 2 30.8356 52.4169 35.1018
893 2 25.6067 41.6971 47.3084
894 2 33.2878 35.7973 14.7388
895 2 21.258 46.3695 26.5427
896 2 22.3363 45.0255 22.7373
897 2 13.0963 32.8704 14.126
898 2 49.3429 47.1297 54.6963
899 2 38.6895 47.2062 36.7792
900 2 29.7057 7.10564 36.2704
901 2 37.994 50.183 32.5388
902 2 35.0602 19.1573 31.696
903 2 30.476 8.28704 51.1494
904 2 11.8121 30.4532 19.4313
905 2 36.683 33.4179 18.319
906 2 49.6946 20.8966 40.4635
907 2 55.0789 50.5786 30.682
908 2 25.9314 15.4097 53.4106
909 2 38.1622 22.3787 11.4712
910 2 16.3051 14.4535 39.1378
911 2 11.6869 31.8831 52.4253
912 2 39.7616 12.8737 24.1487
913 2 55.8521 29.5142 31.6658
914 2 15.9632 29.3071 7.19014
915 2 44.9168 53.0032 49.3004
916 2 50.3109 27.9499 35.2376
917 2 13.9767 16.2344 13.0131
918 2 45.3764 12.0172 37.1994
919 2 52.7216 37.2407 39.9474
920 2 30.8261 11.6455 32.3864
921 2 8.68492 46.3548 29.194
922 2 38.5577 55.3624 43.4578
923 2 30.5637 9.10367 14.9376
924 2 25.595 19.3874 47.6423
925 2 38.9225 28.9587 45.2573
926 2 23.7153 50.3083 8.76523
927 2 18.6487 45.7153 30.5384
928 2 13.7978 46.4556 28.9307
929 2 10.1596 18.4046 14.8705
930 2 9.91554 6.87414 11.3947
931 2 8.69168 52.0526 16.0797
932 2 7.61501 9.58732 54.3953
933 2 17.9187 38.9745 37.8042
934 2 11.9981 19.1569 38.0862
935 2 10.3767 28.3649 29.4483
936 2 44.8599 42.2165 30.5297
937 2 12.9047 14.3754 52.4005
938 2 46.6779 19.0541 52.1992
939 2 36.1195 55.3856 29.1893
940 2 6.68664 20.0289 39.9096
941 2 49.3128 11.3683 35.4034
942 2 41.948 38.6769 9.50419
943 2 8.87154 30.5311 47.2287
944 2 28.0652 19.6626 37.7316
945 2 16.8223 26.8748 7.62869
946 2 25.321 27.8562 28.1356
947 2 14.4746 10.0904 25.074
948 2 12.4895 43.9278 30.0328
949 2 55.5901 9.98233 26.8557
950 2 34.424 27.4799 28.8665
951 2 15.3999 45.9621 19.2735
952 2 17.2769 25.5376 28.6036
953 2 50.9033 45.9687 14.3215
954 2 6.41774 37.5995 18.1389
955 2 42.9299 51.606 38.4855
956 2 27.8294 12.3236 23.015
957 2 14.9127 43.709 26.5057
958 2 19.7021 43.0852 34.63
959 2 7.71142 41.1297 52.4907
960 2 23.8247 38.049 40.0564
961 2 27.9106 32.7712 33.1854
962 2 19.7874 30.605 35.3364
963 2 9.84567 43.1164 44.1025
964 2 14.4538 42.3571 31.4125
965 2 10.2756 21.6953 27.1118
966 2 43.1964 25.3576 29.3263
967 2 18.9093 19.296 29.9428
968 2 20.2297 32.3252 21.3673
969 2 51.7703 31.5989 54.4724
970 2 23.9755 18.4346 49.9133
971 2 36.0444 21.4077 22.6603
972 2 18.6637 25.9046 49.2887
973 2 36.5716 27.8269 43.5242
974 2 18.4874 12.4182 9.8625
975 2 52.21 35.1985 19.1622
976 2 50.2019 17.3344 29.5028
977 2 53.9654 16.7671 7.13818
978 2 12.7266 32.4238 43.6988
979 2 6.4446 38.9055 13.0165
980 2 54.5951 55.8715 14.7568
981 2 31.7348 19.9949 42.0162
982 2 51.7659 22.6449 12.5534
983 2 31.4961 52.1679 18.3371
984 2 55.3115 14.9045 31.3874
985 2 14.3009 12.3819 40.8843
986 2 19.3661 13.1781 21.4612
987 2 43.8905 10.1193 29.0674
988 2 49.7167 12.1268 43.8527
989 2 14.7105 10.8582 27.6193
990 2 52.7936 25.2872 43.8877
991 2 22.4841 16.2031 15.2602
992 2 17.2201 49.211 40.5672
993 2 25.2433 16.2025 38.2324
994 2 25.121 12.2966 35.2833
995 2 41.9655 25.6738 19.7659
996 2 39.3264 19.7734 44.9076
997 2 11.7852 9.59828 11.1119
998 2 20.6737 21.1258 23.1265
999 2 22.6554 50.7705 42.2483
1000 2 29.1838 6.49924 13.2738
1001 2 27.5151 42.0522 27.9719
1002 2 23.4389 43.2865 45.8322
1003 2 12.8254 34.2286 39.9512