ITEM: TIMESTEP
0
ITEM: NUMBER OF ATOMS
9088
ITEM: BOX BOUNDS xy xz yz pp pp pp
6.0442355036496584e+00 5.5886702288474751e+01 -5.7184993427953470e-15
6.0442355036496638e+00 5.5886702288474751e+01 0.0000000000000000e+00
6.0442355036496638e+00 5.5886702288474751e+01 0.0000000000000000e+00
ITEM: ATOMS id type x y z
1 2 31.7737 27.4067 28.0187
2 2 52.7037 12.1093 47.1974
3 2 39.4557 33.4544 38.154
4 2 8.11908 15.8155 44.8195
5 2 9.34044 8.75951 44.7045
6 2 30.7951 54.0841 17.963
7 2 16.5514 14.7092 36.4634
8 2 25.9228 33.2934 33.0649
9 2 53.6562 47.002 46.2496
10 2 49.5693 41.6623 48.9762
11 2 26.3911 33.1189 42.1501
12 2 50.5039 52.524 13.4731
13 2 12.122 20.9531 16.2951
14 2 45.8828 53.872 46.9182
15 2 39.3668 30.3803 9.91149
16 2 34.8278 40.6402 19.2188
17 2 14.0336 10.7605 20.9137
18 2 31.6879 46.9883 46.9681
19 2 13.7414 6.40636 41.7228
20 2 16.1587 6.79761 30.8821
21 2 21.0317 43.1911 9.49854
22 2 25.6937 47.7464 28.9091
23 2 21.4489 7.66868 26.6196
24 2 55.3279 15.3107 35.9257
25 2 37.4753 18.6788 13.1305
26 2 38.4108 33.7214 20.6456
27 2 28.7943 24.7233 6.82491
28 2 48.1451 18.951 48.4149
29 2 17.5532 40.7633 24.0353
30 2 12.8811 37.4597 14.9571
31 2 38.1438 23.2958 53.1235
32 2 8.59986 15.3601 34.5226
33 2 6.45866 34.4177 29.2258
34 2 36.3754 9.75169 29.951
35 2 30.4153 13.414 53.4722
36 2 36.2061 28.9171 46.3266
37 2 36.002 23.2532 35.4265
38 2 19.8345 30.2511 11.949
39 2 29.044 34.4627 43.7133
40 2 21.5822 10.888 13.2826
41 2 42.5757 19.3063 29.894
42 2 18.4685 28.5388 30.889
43 2 12.6962 19.8225 33.9835
44 2 24.6363 7.60857 9.83539
45 2 20.6505 47.8607 51.0857
46 2 42.0856 35.0808 44.7551
47 2 13.894 26.9695 23.0242
48 2 27.3353 48.5041 15.4788
49 2 25.4106 18.2791 43.8872
50 2 42.0745 43.1703 10.0859
51 2 21.6728 6.50647 45.0823
52 2 23.5265 51.7232 54.5502
53 2 18.386 8.43315 47.7034
54 2 41.2189 26.7332 11.829
55 2 12.0119 46.7376 42.6752
56 2 45.2605 18.1717 48.5655
57 2 49.5827 6.0498 35.142
58 2 48.2959 10.411 42.4706
59 2 12.2502 18.6172 40.4524
60 2 47.7084 51.6281 55.2121
61 2 29.8618 55.2761 21.7264
62 2 25.1639 16.6276 24.4316
63 2 49.2632 13.7777 51.8899
64 2 15.0874 8.56222 40.8775
65 2 36.4899 51.8251 39.2123
66 2 38.0466 36.5524 15.4132
67 2 55.0396 23.2697 8.13614
68 2 46.8048 44.3066 40.7485
69 2 24.976 15.2166 14.0615
70 2 54.9946 13.0304 43.4278
71 2 16.7576 11.5155 20.9969
72 2 30.4917 53.0963 45.4205
73 2 50.4767 15.0453 9.48798
74 2 23.2772 21.4224 11.1898
75 2 6.50211 31.5896 17.8537
76 2 52.9135 14.6133 55.6229
77 2 26.1997 36.9435 16.2606
78 2 38.9157 46.4731 42.1294
79 2 46.5979 32.7673 17.7149
80 2 33.1646 28.065 46.8451
81 2 32.501 6.89456 13.7284
82 2 16.3395 32.7723 36.4843
83 2 18.9315 9.79101 14.0634
84 2 38.8574 10.4962 50.0968
85 2 30.9867 15.5741 33.5049
86 2 30.3162 14.962 13.8583
87 2 21.0016 10.6587 48.2409
88 2 10.6209 44.2302 51.4545
89 2 48.5963 23.8756 28.7742
90 2 23.5194 45.9183 8.9896
91 2 32.9329 34.3164 28.5597
92 2 17.4863 38.1125 14.7152
93 2 51.9748 29.5321 20.5046
94 2 42.9312 17.0488 44.6727
95 2 37.1473 35.769 34.2229
96 2 54.8298 24.2568 16.0599
97 2 36.5068 11.7451 46.6487
98 2 17.7653 49.4921 38.3925
99 2 23.8874 30.7524 20.5979
100 2 51.9552 45.4482 12.5157
101 2 22.7137 7.03502 41.41
102 2 42.1859 28.6012 54.6238
103 2 53.5883 51.1053 39.5167
104 2 16.4781 15.3184 29.9841
105 2 9.40126 52.1173 8.91347
106 2 48.0212 19.4533 16.2946
107 2 37.7727 29.9045 55.4147
108 2 27.5222 23.6718 38.0037
109 2 11.2409 38.4909 39.5947
110 2 16.7555 54.6376 46.6226
111 2 13.7841 43.0035 44.9225
112 2 28.5572 51.5815 49.2717
113 2 38.0526 21.4297 42.4338
114 2 28.8634 30.7845 15.6709
115 2 34.2284 27.8343 13.5083
116 2 32.8453 34.375 36.9156
117 2 19.5468 49.9757 33.7923
118 2 23.6165 17.8028 49.9863
119 2 54.3215 34.9897 40.9705
120 2 17.0858 9.33356 10.0142
121 2 6.99167 45.349 31.0192
122 2 21.4392 31.0553 46.83
123 2 36.264 33.118 12.8884
124 2 22.7982 14.66 47.462
125 2 55.8273 51.0407 53.3855
126 2 31.4149 29.3369 39.5689
127 2 10.7129 44.4581 28.8598
128 2 44.8876 17.9652 23.2177
129 2 26.5133 9.57365 53.972
130 2 39.1607 54.859 35.0563
131 2 6.34234 39.9941 15.5653
132 2 25.7343 32.6891 48.1883
133 2 30.2252 19.0826 52.3126
134 2 19.6805 13.4428 31.7169
135 2 24.0328 28.6032 34.3309
136 2 48.2807 34.6617 10.9168
137 2 16.2158 15.4149 20.8748
138 2 41.8646 42.0445 18.9053
139 2 52.0059 44.7532 24.3353
140 2 12.5511 11.8652 9.93893
141 2 37.312 8.67239 19.143
142 2 19.4556 36.004 36.9137
143 2 41.9319 48.7439 37.3176
144 2 12.3827 42.6877 22.2536
145 2 33.5087 49.5817 12.6718
146 2 16.9859 37.4237 38.3065
147 2 27.5064 19.9054 22.1284
148 2 15.1574 49.9207 41.4925
149 2 23.1092 49.3155 44.5538
150 2 13.0893 18.3716 29.0702
151 2 10.5434 21.1991 50.5369
152 2 10.3762 38.2814 19.314
153 2 13.2678 23.8929 47.651
154 2 34.7823 48.6617 24.1152
155 2 29.8434 38.4119 8.65189
156 2 24.8768 29.8276 51.2901
157 2 25.1993 32.9263 15.2416
158 2 42.3147 16.674 19.2526
159 2 16.1339 37.7611 23.7855
160 2 22.0124 46.1229 48.7583
161 2 23.8348 10.5435 38.4366
162 2 37.5199 44.9264 8.18911
163 2 35.2 45.1015 24.8128
164 2 27.9092 32.5414 29.5085
165 2 24.6395 8.79959 18.8698
166 2 23.3637 16.1136 42.9084
167 2 18.7593 25.668 43.5704
168 2 51.9641 39.4359 40.0223
169 2 30.722 13.4561 11.3735
170 2 52.8664 15.0448 11.4587
171 2 16.4413 33.9973 39.4429
172 2 11.2137 6.87044 38.4078
173 2 53.1103 6.63592 22.6675
174 2 8.64019 46.0877 39.566
175 2 9.1518 16.5404 6.25409
176 2 40.8126 50.9391 33.2507
177 2 42.036 24.8412 41.7688
178 2 18.776 18.8198 24.2284
179 2 10.5718 28.9789 24.974
180 2 6.9495 25.9653 18.1431
181 2 51.5247 9.28321 27.459
182 2 34.6285 15.6967 11.647
183 2 42.4853 23.3883 14.2241
184 2 50.7119 13.8318 7.06222
185 2 31.0623 50.933 33.3548
186 2 46.5616 46.5015 43.342
187 2 22.7196 27.4676 22.6926
188 2 48.659 19.534 29.025
189 2 49.4462 28.6151 17.0798
190 2 25.8597 52.6977 45.9287
191 2 18.0544 32.1554 55.2796
192 2 30.5464 40.3788 48.9212
193 2 48.8036 15.3454 27.4099
194 2 34.5994 38.8766 14.5748
195 2 47.761 55.6348 18.7673
196 2 25.207 41.8461 11.3812
197 2 9.85677 42.3143 43.8783
198 2 37.6201 52.3809 52.7862
199 2 35.1781 12.4147 55.1036
200 2 53.1867 26.1377 18.0831
201 2 54.0715 14.3567 50.6919
202 2 20.9069 6.14326 24.2663
203 2 19.2229 12.574 12.2024
204 2 31.9222 34.314 10.9137
205 2 13.7537 45.2046 31.94
206 2 38.2307 49.1715 49.2863
207 2 52.0824 31.5672 28.7746
208 2 9.94362 32.4967 6.72407
209 2 50.0966 23.9807 36.4252
210 2 6.39236 48.78 49.2692
211 2 40.2704 9.85701 38.8701
212 2 37.7531 27.213 17.2051
213 2 55.1854 31.5931 28.0906
214 2 55.4833 53.5427 42.8399
215 2 55.2788 18.2128 53.4256
216 2 43.9882 14.726 51.2132
217 2 49.4402 44.3496 26.2842
218 2 17.159 11.7696 50.5167
219 2 49.8859 8.28096 7.71061
220 2 16.1329 12.8917 53.3645
221 2 12.9521 14.8142 7.39496
222 2 37.8073 44.9476 47.8835
223 2 25.5271 43.3232 46.2484
224 2 13.5817 20.2539 38.6389
225 2 18.2505 31.064 27.8609
226 2 38.5966 36.9964 48.109
227 2 42.0825 39.1497 6.23195
228 2 23.6378 32.6674 27.9339
229 2 25.2406 49.6418 18.4814
230 2 22.8523 9.81208 10.8006
231 2 40.7581 13.1551 46.9842
232 2 26.5886 14.6569 48.8409
233 2 40.3588 30.157 49.0132
234 2 12.315 35.5162 17.9908
235 2 46.5493 31.6705 24.6626
236 2 27.1015 36.7222 50.0775
237 2 15.9935 23.4256 17.4527
238 2 37.8175 28.6667 42.6655
239 2 12.3612 15.3684 32.0995
240 2 47.6681 42.8305 17.6491
241 2 26.5326 28.8882 24.2488
242 2 24.2518 38.0846 46.746
243 2 19.2523 46.7164 33.3339
244 2 15.4904 19.7229 42.3836
245 2 42.292 17.6846 10.3629
246 2 14.4731 10.2207 14.5088
247 2 47.2244 54.3368 51.9243
248 2 49.6289 18.7523 23.9547
249 2 40.9442 25.399 54.8413
250 2 51.0791 50.6935 27.8164
251 2 23.2341 7.62133 49.1362
252 2 52.1258 50.6064 19.5082
253 2 11.6548 28.4512 40.4588
254 2 8.46751 7.0162 19.0395
255 2 26.1252 25.705 49.5203
256 2 54.9833 7.36002 37.152
257 2 13.2227 48.2701 19.9653
258 2 13.5474 23.8339 22.3643
259 2 44.1175 15.2786 48.1946
260 2 29.1442 28.3176 27.6372
261 2 52.8434 23.7344 49.0837
262 2 43.9985 46.1743 33.5293
263 2 17.1702 26.2024 34.7143
264 2 51.3487 50.694 44.3889
265 2 23.9722 27.4089 38.3116
266 2 54.2255 47.329 22.1691
267 2 50.7541 36.8218 30.9789
268 2 53.661 24.6813 36.2199
269 2 20.0431 48.8512 45.6729
270 2 32.1719 41.2612 26.9574
271 2 12.1581 39.7769 24.1672
272 2 53.787 8.23237 11.5336
273 2 25.4925 30.2538 28.8663
274 2 32.4106 28.3361 55.2934
275 2 45.4106 44.0896 25.6688
276 2 7.01181 17.2431 13.2476
277 2 43.1777 28.2475 7.73233
278 2 9.99257 11.7199 47.8843
279 2 46.6227 27.7387 27.9678
280 2 28.4667 6.57608 51.1349
281 2 29.4153 10.4889 53.9525
282 2 26.7553 8.87432 12.0594
283 2 30.862 13.698 40.8052
284 2 9.33039 39.7413 16.8867
285 2 41.8682 32.4671 16.9221
286 2 17.0517 54.2601 54.7586
287 2 53.3307 14.9612 39.7873
288 2 53.6595 14.5589 45.6356
289 2 21.548 54.728 29.1541
290 2 51.2048 13.609 37.7514
291 2 15.4564 42.775 8.89595
292 2 55.7855 38.5768 47.3735
293 2 20.9834 50.135 53.6214
294 2 55.4982 15.1493 54.1816
295 2 30.2483 8.98871 32.801
296 2 16.9299 41.8925 50.3284
297 2 30.0355 37.6587 50.3446
298 2 52.0058 53.8115 53.6501
299 2 31.494 33.3826 13.5647
300 2 41.1199 46.5473 31.0866
301 2 39.097 33.0298 34.8513
302 2 48.1724 40.8814 24.3326
303 2 23.3411 52.9925 24.1533
304 2 35.4795 54.1706 17.6333
305 2 28.1047 41.8139 7.11726
306 2 45.1209 23.2528 29.0028
307 2 24.0651 6.32549 23.2512
308 2 19.3708 35.5566 18.6518
309 2 37.397 39.9949 15.1787
310 2 6.55717 50.1766 38.2467
311 2 10.704 16.1336 53.7297
312 2 43.9734 49.3515 8.21442
313 2 29.7633 31.9852 49.0661
314 2 39.8899 40.6201 36.8865
315 2 53.023 21.6011 10.1835
316 2 45.0121 39.9384 54.6588
317 2 42.5596 49.5149 52.9612
318 2 18.8877 44.8052 17.796
319 2 48.3735 24.0805 18.6508
320 2 51.6263 12.0995 17.2179
321 2 45.1705 48.7966 40.63
322 2 11.1168 20.3886 28.5718
323 2 46.2639 8.22206 41.4612
324 2 41.8739 38.4763 9.04674
325 2 25.0243 33.1529 17.9974
326 2 19.7369 34.6603 10.8471
327 2 34.6366 39.7808 23.023
328 2 19.0249 29.4667 6.66345
329 2 40.2036 43.2791 14.1729
330 2 35.0937 31.2423 55.5701
331 2 50.4739 54.0676 7.88049
332 2 45.2713 48.852 49.0473
333 2 12.2821 21.8738 19.693
334 2 15.7185 54.0798 22.8373
335 2 43.9382 43.7311 20.3377
336 2 27.7776 39.1769 20.2547
337 2 22.6475 17.8377 31.0822
338 2 7.96303 11.0041 37.8184
339 2 35.1377 53.3638 6.94692
340 2 54.4648 21.9558 17.6719
341 2 13.312 49.111 33.1333
342 2 44.1392 38.7476 22.2659
343 2 43.5517 10.3862 49.9293
344 2 12.2695 42.1637 16.7113
345 2 14.7656 47.4775 45.0507
346 2 6.4187 47.1613 37.8375
347 2 54.6027 24.9462 32.1702
348 2 41.8461 25.5144 32.3324
349 2 22.4367 34.1853 36.6864
350 2 36.3558 49.9298 31.852
351 2 51.2046 36.6616 40.2582
352 2 27.7626 39.8561 22.841
353 2 26.4794 21.9028 41.2037
354 2 40.5204 53.6813 38.8133
355 2 20.4196 23.4203 11.5342
356 2 38.4378 18.3949 39.6335
357 2 29.034 27.7978 32.604
358 2 52.0516 13.1608 33.372
359 2 16.5304 9.78799 30.3853
360 2 15.699 22.9417 45.2606
361 2 41.1322 42.2089 27.5816
362 2 23.5283 39.2262 44.003
363 2 41.3001 48.4545 55.2395
364 2 19.9851 22.7446 6.85288
365 2 20.5571 49.0332 19.0591
366 2 14.7115 33.0632 26.0573
367 2 44.722 15.8138 42.7159
368 2 19.444 16.3322 18.1507
369 2 24.282 21.1086 21.3213
370 2 7.57624 51.6716 49.501
371 2 13.583 19.8842 50.4513
372 2 9.3978 33.8592 10.4696
373 2 23.043 23.8332 15.2631
374 2 40.5734 18.6656 21.7807
375 2 29.0025 6.36388 37.5245
376 2 29.3775 45.0947 9.58341
377 2 14.9205 35.2115 41.5382
378 2 25.9692 20.4357 27.9963
379 2 17.7958 9.5098 18.9524
380 2 54.4892 25.804 11.8605
381 2 11.5871 34.373 52.3724
382 2 16.0884 11.1461 40.5145
383 2 7.42084 43.1052 52.0981
384 2 14.1464 14.4638 22.9739
385 2 10.6919 14.9799 42.9515
386 2 42.3867 22.0588 32.2594
387 2 45.2898 17.9358 30.4
388 2 10.2381 49.8512 55.1286
389 2 11.5458 14.5138 48.8449
390 2 11.8222 25.2165 34.1253
391 2 13.6648 18.9376 55.3564
392 2 53.0883 16.2077 29.2729
393 2 42.1872 30.7431 9.7857
394 2 18.0838 19.8792 48.651
395 2 31.6854 38.2915 55.5144
396 2 40.8724 42.945 46.929
397 2 11.1834 43.8577 55.8173
398 2 24.7785 28.1759 26.6236
399 2 34.0267 13.4345 23.6171
400 2 16.2387 28.4603 55.7282
401 2 10.4322 52.6587 37.7957
402 2 47.8844 42.9457 28.6471
403 2 53.0921 16.3744 52.6882
404 2 23.3927 38.4961 53.2538
405 2 19.4805 34.4326 42.7217
406 2 28.2758 15.0282 44.4208
407 2 31.4116 24.4609 12.8832
408 2 34.2571 37.1774 47.3442
409 2 50.0496 21.4624 55.6142
410 2 51.4189 46.2857 29.5079
411 2 16.6073 28.724 15.413
412 2 28.0978 7.14269 54.1775
413 2 9.17732 24.7779 13.8912
414 2 46.379 14.0028 28.1566
415 2 54.5775 53.118 25.7053
416 2 45.6029 51.456 43.2789
417 2 13.7546 45.6671 38.7007
418 2 15.2147 30.7056 47.1123
419 2 37.2747 54.9346 21.1743
420 2 17.8675 41.7471 40.7529
421 2 26.2564 25.5048 29.8632
422 2 38.0118 19.9478 15.8734
423 2 40.251 38.5074 11.1778
424 2 49.4392 18.5955 12.602
425 2 11.2978 10.9616 52.8447
426 2 21.363 42.0565 39.3591
427 2 28.2664 37.2125 31.1074
428 2 10.7279 39.6846 32.7637
429 2 22.1732 38.5848 8.95069
430 2 46.7841 13.1058 31.4417
431 2 23.1698 29.063 54.2807
432 2 22.2852 9.76424 35.778
433 2 22.1162 36.637 38.821
434 2 9.24141 54.1848 46.2142
435 2 26.6959 52.0543 18.4019
436 2 9.57977 25.7623 39.9601
437 2 18.941 32.2648 19.0219
438 2 38.789 16.3825 28.1744
439 2 17.7923 6.80517 40.411
440 2 54.2861 48.0383 42.382
441 2 29.5781 52.7684 52.2734
442 2 41.7312 34.1539 8.36453
443 2 51.4226 47.3674 20.6962
444 2 27.3623 16.3237 37.1755
445 2 48.7799 26.6087 37.2514
446 2 54.4385 28.294 49.0929
447 2 25.23 45.6213 12.798
448 2 15.3884 32.7484 8.99792
449 2 32.7578 52.9791 32.4276
450 2 19.9391 21.1702 18.4999
451 2 54.7579 14.2213 32.9502
452 2 37.4722 50.1339 24.5833
453 2 16.213 46.0205 17.383
454 2 38.2954 36.8944 41.2133
455 2 46.1919 27.8999 40.8083
456 2 23.1478 48.7506 49.0113
457 2 20.7845 26.5394 6.6215
458 2 40.2922 48.2785 39.9748
459 2 50.9835 36.1972 46.0952
460 2 54.2536 43.4746 28.0802
461 2 29.8134 49.6612 51.5559
462 2 15.5848 15.6351 13.8226
463 2 48.6581 46.2107 38.9063
464 2 29.8401 55.1308 41.645
465 2 7.93923 23.6994 28.194
466 2 35.6965 20.9817 53.1602
467 2 16.1827 45.3773 9.49056
468 2 38.1466 30.1278 39.5974
469 2 52.5282 35.1704 42.631
470 2 40.5706 29.6924 51.9972
471 2 36.4803 31.9409 48.068
472 2 34.8181 50.6195 52.1744
473 2 47.4567 37.6602 25.1395
474 2 14.7763 51.4476 10.85
475 2 35.5941 6.46348 38.0415
476 2 12.1778 52.3418 9.28483
477 2 27.7202 12.4266 7.82996
478 2 15.3922 11.1589 55.7973
479 2 34.6001 34.0973 15.3881
480 2 19.5552 42.0675 22.4439
481 2 16.9284 7.28228 23.0047
482 2 26.4986 45.5499 8.69507
483 2 54.1015 52.3079 7.69956
484 2 46.141 42.5395 46.1205
485 2 15.5117 38.6208 47.3721
486 2 45.4801 14.5601 40.0945
487 2 28.755 33.4525 34.9405
488 2 50.4563 45.2496 15.8419
489 2 55.6797 8.62892 49.7024
490 2 27.7056 15.4153 51.6647
491 2 32.5972 7.11998 47.9522
492 2 33.6237 45.1672 27.0055
493 2 36.6414 53.0395 34.5089
494 2 49.4021 35.0671 43.8908
495 2 11.9744 32.8855 31.6205
496 2 44.3226 35.0439 10.3656
497 2 53.0777 54.0376 38.0463
498 2 16.5478 28.2165 50.0554
499 2 48.1884 25.6993 31.5371
500 2 9.21376 40.028 23.2432
501 2 13.7026 54.5865 10.5393
502 2 29.0953 21.4129 20.1433
503 2 19.9572 30.3827 34.6521
504 2 23.3522 49.7633 51.9318
505 2 17.595 48.1323 50.8287
506 2 14.3371 40.5577 26.9196
507 2 18.8496 40.995 8.36895
508 2 48.8707 16.3172 37.057
509 2 14.8136 18.3827 36.231
510 2 40.384 44.0218 32.339
511 2 26.5747 19.6552 14.7999
512 2 44.5433 32.9327 55.7014
513 2 25.6885 36.4843 33.6313
514 2 47.5472 49.5278 44.7633
515 2 34.348 12.3755 16.5382
516 2 37.0968 50.8537 15.9589
517 2 31.0176 53.8394 55.0768
518 2 23.8244 14.0708 55.6118
519 2 32.1489 30.6622 17.5478
520 2 41.5428 47.5532 26.0823
521 2 12.7014 22.2512 32.4645
522 2 28.6577 24.0578 26.0727
523 2 21.7836 27.7081 49.8489
524 2 37.8656 31.7719 45.5592
525 2 46.2006 29.6327 7.00786
526 2 30.7155 45.8392 34.0455
527 2 45.3168 8.11934 46.1727
528 2 12.8393 10.0695 8.00318
529 2 33.9941 16.5583 14.7673
530 2 43.8954 27.6112 15.205
531 2 17.8695 50.8903 45.1269
532 2 32.3173 43.5957 30.9875
533 2 23.5356 31.9978 38.7336
534 2 20.1574 12.8931 46.5049
535 2 54.7683 21.3129 47.9546
536 2 44.2808 52.6497 20.4708
537 2 12.531 35.3777 22.4189
538 2 21.6808 30.2351 22.6476
539 2 53.3099 29.2732 27.5452
540 2 42.1686 14.3704 31.2842
541 2 53.0509 36.1063 17.5758
542 2 23.9269 12.384 12.0653
543 2 33.3409 15.0641 46.7038
544 2 26.5756 36.4681 37.0306
545 2 21.3175 26.9738 19.492
546 2 24.9848 6.32244 54.4677
547 2 12.3473 12.3741 55.2492
548 2 50.5592 55.5113 49.3208
549 2 50.1454 44.9229 46.6809
550 2 42.9857 31.315 50.9055
551 2 11.7072 37.1032 35.4006
552 2 39.5152 31.4395 22.9029
553 2 16.8695 17.969 51.4556
554 2 11.068 15.4243 29.507
555 2 33.1788 13.6413 42.5322
556 2 25.5716 52.9941 41.1207
557 2 11.9213 25.2981 45.4299
558 2 55.8179 30.7529 35.4775
559 2 37.9613 16.0442 25.5144
560 2 26.1082 44.514 31.9018
561 2 6.61237 22.5888 51.6915
562 2 11.7984 21.3488 44.0588
563 2 25.1042 51.0788 22.9203
564 2 28.3373 28.6051 35.6949
565 2 50.0799 55.0464 43.1041
566 2 42.0671 44.5809 29.2584
567 2 17.6141 55.5091 52.0565
568 2 35.8936 11.3504 49.7439
569 2 53.8945 26.2128 29.0382
570 2 40.7946 30.2926 46.0915
571 2 7.18677 20.5567 36.2716
572 2 46.3098 9.83615 35.2358
573 2 33.1615 21.2335 23.1811
574 2 31.8691 11.4563 25.0255
575 2 27.7568 23.803 33.6456
576 2 23.7906 13.3899 44.6857
577 2 26.479 19.4798 11.76
578 2 19.2751 18.9934 19.8386
579 2 21.1954 39.0806 25.669
580 2 14.9613 13.7763 46.559
581 2 17.2342 24.9436 38.9675
582 2 39.7081 7.31273 30.3963
583 2 10.5617 19.3721 19.0385
584 2 49.9983 33.4204 50.6038
585 2 42.6926 22.2271 40.5028
586 2 13.0665 46.6949 22.3038
587 2 48.9427 8.7786 35.5693
588 2 27.4051 53.3225 34.5764
589 2 31.8349 46.9714 31.5313
590 2 37.1792 40.764 46.1798
591 2 42.1585 13.1314 53.2844
592 2 51.4498 39.454 53.595
593 2 18.7697 54.4187 25.8917
594 2 32.5192 28.7969 35.0063
595 2 43.116 23.4925 48.1964
596 2 37.9292 39.6412 12.1788
597 2 36.744 12.4073 25.7797
598 2 31.9011 34.4158 44.6414
599 2 35.2485 28.1547 24.0983
600 2 13.4411 15.6129 39.6607
601 2 43.9632 51.1503 27.9642
602 2 43.8741 32.3486 35.8339
603 2 29.1313 17.8568 13.8556
604 2 46.9112 20.2431 35.3566
605 2 55.7158 50.0831 8.94954
606 2 19.6238 47.9604 7.9866
607 2 34.5135 54.7044 26.6839
608 2 55.0075 38.8248 24.7607
609 2 41.4061 29.1231 14.1131
610 2 25.4653 23.6053 13.2742
611 2 47.1619 44.0768 48.1315
612 2 16.6519 20.3149 21.8365
613 2 13.5342 7.64205 20.0287
614 2 47.0549 30.8974 39.4678
615 2 16.289 43.8436 19.3896
616 2 9.85089 31.7668 33.686
617 2 6.83284 37.3913 38.1099
618 2 11.4756 32.4585 35.8966
619 2 26.304 36.8803 11.5827
620 2 33.9578 16.4076 23.8448
621 2 25.5561 23.9413 16.5758
622 2 43.9207 46.5171 16.9483
623 2 24.588 44.7214 26.58
624 2 29.0057 25.9506 13.6293
625 2 50.1505 54.8403 11.2671
626 2 21.3731 8.15839 12.9719
627 2 53.2115 26.1392 50.5815
628 2 53.2165 33.0594 25.71
629 2 16.0435 27.5173 39.8051
630 2 17.5326 6.80839 14.0536
631 2 49.5846 42.4365 15.5815
632 2 26.39 48.0743 54.7953
633 2 54.0746 27.6662 9.53256
634 2 47.6701 11.6697 47.9619
635 2 25.7695 26.9913 36.0121
636 2 48.4652 7.72775 31.329
637 2 31.1764 25.8091 46.8476
638 2 35.2759 9.71151 7.14378
639 2 12.3226 55.2646 55.529
640 2 31.8264 37.9009 42.0708
641 2 17.9143 46.686 39.6255
642 2 34.8215 9.63019 25.5949
643 2 44.26 37.2664 6.20733
644 2 28.7122 33.5096 46.8521
645 2 34.368 19.3603 46.1025
646 2 21.8194 43.892 23.591
647 2 19.1104 53.5712 38.0638
648 2 21.7834 19.4199 35.6906
649 2 8.91879 35.939 17.3011
650 2 43.2015 21.4069 53.5479
651 2 55.4223 24.7541 22.3629
652 2 10.2218 27.2059 33.8208
653 2 42.2386 11.22 40.9191
654 2 50.2488 32.3546 19.4721
655 2 6.46309 20.7508 43.8621
656 2 41.82 23.2703 9.56076
657 2 46.0803 25.2247 14.2871
658 2 46.9282 8.20958 14.4063
659 2 30.1166 20.4337 39.8671
660 2 8.67055 13.3278 7.43183
661 2 39.3665 54.1455 55.736
662 2 17.3988 22.6332 49.6484
663 2 55.2348 13.4028 7.07797
664 2 29.3861 30.631 53.2775
665 2 10.5804 46.5963 9.35504
666 2 13.5333 37.9511 30.4557
667 2 33.7855 28.5409 52.4432
668 2 49.2347 18.1955 41.6462
669 2 43.2236 54.9805 18.5418
670 2 38.404 29.4906 15.3138
671 2 18.7086 23.1197 42.1459
672 2 8.03742 48.1806 53.347
673 2 21.9441 54.6547 51.9224
674 2 55.423 36.2344 45.9514
675 2 31.065 46.6064 22.1734
676 2 36.787 52.5151 22.8389
677 2 45.0912 29.4521 11.2859
678 2 41.8764 54.0682 14.1387
679 2 7.4778 54.8923 10.3551
680 2 21.3591 10.3435 31.8248
681 2 9.53247 50.47 42.077
682 2 42.1375 30.6785 21.4434
683 2 21.9335 22.6565 41.5645
684 2 15.3626 52.4096 25.2001
685 2 30.7635 8.8475 40.9014
686 2 48.9743 30.0476 8.55983
687 2 35.7737 22.1855 12.7972
688 2 8.73813 55.5184 34.7949
689 2 44.8179 32.7145 29.8924
690 2 38.9697 45.9034 19.3916
691 2 22.1779 34.7172 23.5142
692 2 22.057 22.4214 48.54
693 2 47.6123 10.2325 8.65825
694 2 53.1577 54.2528 45.5461
695 2 21.995 19.1127 22.6699
696 2 32.907 33.9716 51.4065
697 2 47.9781 14.3957 11.1974
698 2 42.9344 37.507 38.4387
699 2 42.4086 42.6487 37.6833
700 2 44.3207 24.5266 20.6544
701 2 54.5993 34.5321 37.4255
702 2 12.2546 53.2569 26.3825
703 2 44.5044 42.0268 9.10652
704 2 20.6117 6.92447 33.5298
705 2 53.3281 27.5636 35.752
706 2 21.3833 32.7722 41.3764
707 2 8.93059 9.02589 7.34055
708 2 12.59 22.9044 7.01849
709 2 23.4749 45.3711 30.764
710 2 52.609 19.4648 36.1118
711 2 15.3493 28.2698 10.42
712 2 20.7018 14.0939 29.2459
713 2 23.6676 29.0577 47.5955
714 2 9.74986 8.65735 48.2082
715 2 53.9241 11.1594 52.1283
716 2 30.6804 35.019 32.4919
717 2 19.2544 54.0441 14.0798
718 2 7.75952 21.0944 24.5071
719 2 16.9814 36.9029 27.7686
720 2 35.3251 20.1352 16.9868
721 2 50.5644 41.2566 12.2928
722 2 9.63005 34.58 45.7199
723 2 6.94928 24.1973 39.8461
724 2 29.2167 50.1498 11.4285
725 2 6.88909 28.9868 50.5727
726 2 48.4879 31.959 21.7805
727 2 12.1984 34.1391 13.8898
728 2 42.7313 48.6311 34.323
729 2 38.6563 25.6673 6.50381
730 2 49.047 13.1021 34.0274
731 2 26.6849 15.1226 9.742
732 2 36.3543 31.3595 35.4549
733 2 29.6288 35.3236 8.57046
734 2 32.7683 17.9411 11.893
735 2 6.40731 49.8103 28.7782
736 2 53.2221 47.0274 25.604
737 2 23.7058 25.373 20.1628
738 2 47.9867 37.4667 46.7092
739 2 35.8746 26.3216 28.1301
740 2 21.1514 29.7031 42.6806
741 2 15.4462 48.3941 35.1873
742 2 54.4182 12.5867 17.1354
743 2 24.1836 46.5186 18.7942
744 2 23.6707 25.9153 12.9745
745 2 52.3624 36.6708 49.3364
746 2 11.337 54.9037 50.3902
747 2 44.4474 47.9205 24.4246
748 2 6.40732 12.3559 21.6876
749 2 53.7869 11.3154 19.6399
750 2 31.3683 21.4515 15.5101
751 2 10.5411 33.7097 16.4136
752 2 55.2966 33.6328 48.436
753 2 44.8088 38.4254 34.4058
754 2 40.9465 37.1233 52.305
755 2 10.8829 47.0338 54.5782
756 2 45.6316 30.1117 47.7137
757 2 7.84278 32.6456 13.3022
758 2 24.3145 11.1849 20.4997
759 2 47.0956 28.4848 30.7229
760 2 29.6058 7.76564 12.8706
761 2 28.7785 23.5818 29.414
762 2 18.4702 28.8403 52.1299
763 2 13.0412 48.2041 55.8523
764 2 6.88491 51.009 31.5372
765 2 52.9362 17.5688 38.2175
766 2 13.6613 14.7496 43.8309
767 2 42.1275 26.05 38.018
768 2 22.136 22.0677 54.6779
769 2 39.4056 33.0655 42.978
770 2 8.76327 7.68615 27.68
771 2 8.25895 14.3964 52.1261
772 2 37.2156 34.6407 52.6871
773 2 16.2889 47.7351 21.5819
774 2 10.7897 10.8692 19.7114
775 2 50.8934 7.52142 20.5491
776 2 17.2629 43.4979 13.8351
777 2 20.6908 49.8418 37.2247
778 2 55.7843 10.1477 27.741
779 2 48.1152 50.7424 13.8269
780 2 46.7841 28.3137 15.4306
781 2 49.0423 16.6384 7.64963
782 2 24.0046 25.4444 51.5226
783 2 45.82 22.326 21.8011
784 2 53.2552 27.3361 46.3935
785 2 54.1316 44.6274 32.226
786 2 21.9819 32.85 11.9873
787 2 52.62 51.4743 30.4082
788 2 11.1891 7.62581 42.8131
789 2 28.499 9.5593 21.685
790 2 44.4827 38.596 13.5093
791 2 46.2701 51.7002 52.0778
792 2 50.2874 47.8795 11.6831
793 2 50.3309 49.6225 23.6241
794 2 40.1258 45.8134 36.9904
795 2 54.6663 49.5266 17.831
796 2 49.2318 38.0943 50.9674
797 2 46.9268 33.9714 6.90581
798 2 15.6398 49.3248 30.3322
799 2 39.4342 42.7769 11.3743
800 2 33.8103 36.963 51.2519
801 2 6.1703 39.2899 12.3892
802 2 50.2088 32.3975 7.11692
803 2 41.2651 20.201 41.903
804 2 12.6346 8.14456 28.5197
805 2 15.5414 35.2445 50.542
806 2 28.0868 44.1629 54.7756
807 2 54.8072 40.3556 9.6188
808 2 6.08907 34.4945 54.9083
809 2 30.2522 52.8305 15.2978
810 2 32.1476 21.8154 12.6651
811 2 32.2932 10.1207 27.1947
812 2 7.40716 54.7217 51.2857
813 2 33.0284 23.4807 50.2826
814 2 30.6121 17.2224 43.5157
815 2 33.4497 49.2095 39.5819
816 2 44.6946 46.2083 28.141
817 2 25.7331 27.779 19.0928
818 2 16.5617 22.341 38.2224
819 2 8.86286 22.1971 45.6415
820 2 21.5363 46.8081 37.1669
821 2 43.0752 17.0026 36.0349
822 2 18.1642 33.2687 24.0409
823 2 32.0427 51.679 48.0006
824 2 43.9396 12.5707 46.0799
825 2 7.22998 16.3095 18.8453
826 2 6.67189 37.0735 50.7335
827 2 25.7069 50.8823 50.2389
828 2 43.3042 21.3952 27.2303
829 2 18.2755 20.0505 43.1417
830 2 17.877 42.1906 33.5786
831 2 11.3509 22.0893 54.1671
832 2 43.9188 54.7048 24.6513
833 2 31.8157 41.6544 9.29127
834 2 54.0494 41.1733 22.2779
835 2 13.5544 51.854 37.5883
836 2 40.0092 22.5679 12.7561
837 2 55.4247 15.2346 15.4544
838 2 17.5364 20.6529 40.3214
839 2 23.7015 54.783 16.6975
840 2 52.8715 53.9312 10.0654
841 2 37.811 38.6099 22.9026
842 2 15.8931 39.9651 21.7496
843 2 14.2002 29.7996 29.0006
844 2 11.5929 18.3654 51.7691
845 2 27.788 48.1991 19.8187
846 2 30.1538 17.3066 31.2199
847 2 8.8328 55.4692 48.969
848 2 33.253 7.21677 24.3087
849 2 27.3777 40.1613 31.7337
850 2 21.2192 40.4885 53.3533
851 2 52.9529 39.5118 50.9166
852 2 24.3195 19.2111 34.3452
853 2 53.4991 55.6365 20.0545
854 2 22.67 50.7316 10.3489
855 2 43.5564 52.0171 55.1254
856 2 21.9203 38.4232 17.3091
857 2 24.0011 29.7748 31.3752
858 2 37.74 46.2292 28.317
859 2 22.8656 46.5087 16.4949
860 2 39.9452 46.248 14.4571
861 2 55.1932 10.5626 41.535
862 2 24.8632 21.3797 49.9534
863 2 26.2551 23.4354 7.2767
864 2 39.5187 48.8958 27.9369
865 2 28.9397 39.0866 35.427
866 2 22.5745 17.5577 18.0504
867 2 21.9159 42.1549 44.272
868 2 46.4581 47.2985 46.3403
869 2 46.2286 39.777 50.2301
870 2 23.9645 24.4798 23.3112
871 2 16.1978 15.7343 16.7069
872 2 52.8988 43.8003 7.01234
873 2 29.8859 29.5403 19.5567
874 2 11.9053 28.2283 20.5343
875 2 44.8557 48.1246 36.1075
876 2 53.2396 33.9905 15.8613
877 2 38.9311 55.485 48.9121
878 2 36.0022 22.1532 30.3176
879 2 29.5935 10.6102 11.6926
880 2 30.1616 38.1317 11.5346
881 2 21.7324 45.254 26.492
882 2 36.8067 45.2036 30.737
883 2 19.2929 10.6358 35.7979
884 2 41.4905 7.30262 26.1341
885 2 31.2044 7.52288 17.8809
886 2 31.1293 26.4758 15.9843
887 2 54.4094 7.87951 44.0088
888 2 53.3439 39.1933 36.4674
889 2 52.6327 41.6993 43.7478
890 2 7.73041 8.14951 52.447
891 2 8.78909 17.4215 11.2343
892 2 8.01308 54.3305 20.2044
893 2 7.72433 42.2276 24.5115
894 2 10.2524 38.1001 48.6267
895 2 49.2172 51.4793 9.56859
896 2 49.5208 47.1388 54.2795
897 2 38.219 41.5488 41.1452
898 2 28.4631 51.6532 32.4272
899 2 15.3815 50.5473 18.1386
900 2 8.77862 11.968 17.8885
901 2 15.957 6.81324 11.5551
902 2 15.6801 20.2564 16.6183
903 2 8.94821 11.4361 31.0223
904 2 42.0147 34.4467 51.2934
905 2 14.1912 38.2928 52.6129
906 2 27.0906 24.1898 23.4622
907 2 33.0456 51.9595 9.45169
908 2 53.0684 21.2259 34.1175
909 2 16.1425 27.2485 42.6984
910 2 42.4337 21.1135 17.9293
911 2 42.4639 36.9563 33.44
912 2 16.7885 16.7911 55.8615
913 2 36.5083 38.7918 8.76926
914 2 46.8518 41.3464 40.2846
915 2 23.7677 8.70122 31.0148
916 2 27.6699 31.4448 19.6714
917 2 44.0965 20.2677 46.4942
918 2 23.7399 15.867 20.0047
919 2 31.1898 42.0112 20.9193
920 2 9.83036 17.0959 14.4372
921 2 37.8764 51.3433 9.53818
922 2 17.5196 11.6138 23.8865
923 2 7.44124 14.8007 47.6462
924 2 53.8184 22.0245 27.0751
925 2 17.3043 33.7994 26.479
926 2 53.0541 7.87441 41.1819
927 2 39.8923 10.7756 10.6048
928 2 42.2542 51.2659 9.70668
929 2 38.6596 24.6244 45.3307
930 2 38.3586 11.7106 42.8328
931 2 34.9997 53.0875 47.6517
932 2 32.4756 11.6257 35.0012
933 2 49.0532 45.6065 20.2971
934 2 38.2342 18.9263 19.544
935 2 39.0677 33.5968 13.544
936 2 22.7932 47.312 11.7179
937 2 39.2337 21.2126 32.6677
938 2 24.9897 24.2715 31.948
939 2 16.5875 12.9541 7.50605
940 2 33.6913 25.156 21.5922
941 2 31.2982 14.9098 16.9921
942 2 19.9145 44.1214 40.6674
943 2 37.2762 36.7797 26.8043
944 2 9.28214 22.7055 19.0591
945 2 41.8274 33.0472 40.0897
946 2 49.8394 36.2311 6.08582
947 2 45.0909 8.97363 7.34378
948 2 40.0126 47.1753 10.306
949 2 33.1867 14.9398 8.31492
950 2 11.9167 35.2397 11.276
951 2 39.4489 48.1561 44.7466
952 2 47.8648 35.3416 54.0911
953 2 28.0925 50.7831 44.9564
954 2 34.4918 43.1155 48.8604
955 2 17.7871 55.0862 18.1536
956 2 8.45135 18.8479 53.8313
957 2 41.5684 49.1914 14.2224
958 2 46.3761 47.866 11.4264
959 2 35.8421 45.8485 33.6732
960 2 46.7306 43.735 20.3425
961 2 8.53455 36.4994 13.6727
962 2 46.0553 35.6479 18.3567
963 2 37.5646 47.0564 24.1919
964 2 43.8803 47.8406 12.8135
965 2 40.3914 29.7807 6.96485
966 2 22.0193 29.9388 10.1447
967 2 51.1959 25.6874 8.28884
968 2 44.4368 38.3395 51.8198
969 2 31.7717 37.8884 37.619
970 2 51.1231 21.8281 31.9175
971 2 14.9117 26.1893 53.5717
972 2 47.5732 31.8419 30.338
973 2 10.3462 30.2273 27.6972
974 2 42.7427 15.2845 40.0143
975 2 25.1694 40.9201 53.2406
976 2 31.167 22.8143 9.0252
977 2 32.214 21.2854 38.3371
978 2 39.8042 36.4065 24.2962
979 2 32.0962 37.6187 45.4762
980 2 33.0007 10.0788 45.4128
981 2 9.74851 24.6213 23.7994
982 2 29.9586 27.3148 44.0351
983 2 11.8458 7.8095 50.2535
984 2 30.2846 18.4551 10.5803
985 2 39.7366 24.1004 23.0004
986 2 49.8992 18.9757 53.5948
987 2 24.1393 18.0823 13.6862
988 2 25.8915 13.3853 21.9384
989 2 44.2638 11.4405 54.7232
990 2 31.1362 30.9279 24.6561
991 2 52.1268 18.7043 45.1593
992 2 47.0628 6.20299 21.9405
993 2 7.52293 21.039 16.9141
994 2 53.1794 16.8992 16.4379
995 2 20.4742 30.1286 50.4949
996 2 18.5536 24.7934 27.4968
997 2 40.2859 14.2553 41.4794
998 2 45.0791 23.9299 52.8666
999 2 50.1627 6.27267 23.6663
1000 2 7.32419 11.289 45.2253
1001 2 7.94659 47.5496 8.88206
1002 2 51.6717 44.9917 35.4237
1003 2 41.0756 40.2514 22.3715
1004 2 20.8585 51.3305 48.0098