ITEM: TIMESTEP
0
ITEM: NUMBER OF ATOMS
9088
ITEM: BOX BOUNDS xy xz yz pp pp pp
6.1302042932952583e+00 5.5800733499031459e+01 -5.6987726920382482e-15
6.1302042932952636e+00 5.5800733499031459e+01 0.0000000000000000e+00
6.1302042932952636e+00 5.5800733499031459e+01 0.0000000000000000e+00
ITEM: ATOMS id type x y z
1 2 49.4219 27.018 31.1487
2 2 20.9795 17.0555 51.1266
3 2 8.9759 37.3864 38.978
4 2 32.7797 22.9286 44.1377
5 2 29.4074 11.9751 47.1364
6 2 50.7426 55.6739 20.7579
7 2 32.4594 16.4621 37.6821
8 2 42.8317 37.1363 33.4556
9 2 24.1802 49.9095 45.8113
10 2 20.646 43.7267 46.7389
11 2 43.7371 37.7825 42.5345
12 2 21.302 51.9834 13.735
13 2 29.1716 25.6137 18.1491
14 2 14.9536 8.08613 48.4666
15 2 9.46102 36.6699 13.5899
16 2 53.2414 44.5301 20.7215
17 2 32.4393 15.063 24.6837
18 2 50.0999 51.7475 48.0451
19 2 32.9581 10.0461 42.5657
20 2 34.5637 11.0225 33.3895
21 2 39.1768 47.2346 11.6557
22 2 44.4576 50.7263 29.9354
23 2 40.6618 14.8187 23.8059
24 2 23.1664 18.8808 36.279
25 2 6.54463 22.7602 17.8328
26 2 9.20645 35.854 22.1908
27 2 47.7513 29.5897 8.68241
28 2 13.33 22.5942 44.9991
29 2 35.8387 44.0874 25.0983
30 2 30.1083 38.1768 13.7719
31 2 54.8666 26.4194 52.9551
32 2 25.2446 21.7624 40.2191
33 2 24.9389 38.6886 30.2668
34 2 53.2307 13.3195 26.6638
35 2 47.2158 14.8367 55.3131
36 2 6.15633 30.9905 46.963
37 2 53.3014 26.38 35.2257
38 2 38.7943 33.8803 13.7747
39 2 47.4905 37.8523 42.4876
40 2 42.1092 17.0402 11.9705
41 2 16.0107 27.7049 30.5159
42 2 36.3714 32.4278 32.7678
43 2 33.4032 23.4719 35.5114
44 2 44.2438 10.6564 14.0832
45 2 39.5656 51.9416 52.4366
46 2 10.3788 39.5535 46.6986
47 2 30.9675 30.2806 26.6789
48 2 45.6366 52.0385 16.9459
49 2 46.7996 18.811 44.7517
50 2 15.755 48.6185 11.6105
51 2 41.2843 8.46661 48.1955
52 2 40.7038 7.72565 6.54025
53 2 32.6733 14.627 50.1336
54 2 9.491 32.3524 13.8274
55 2 30.6376 50.5386 43.8735
56 2 13.7753 21.4607 51.6899
57 2 16.462 8.75105 36.4365
58 2 17.7584 14.4466 43.8818
59 2 31.4216 26.4907 39.7416
60 2 16.832 6.50714 6.54866
61 2 48.0616 9.30414 20.9869
62 2 40.3219 16.9203 31.5981
63 2 17.9902 18.1746 51.3054
64 2 34.0421 14.5801 41.5923
65 2 7.72735 6.97096 39.1215
66 2 7.586 40.2547 16.9981
67 2 25.1597 26.5341 8.36676
68 2 16.364 47.5576 42.6704
69 2 43.476 20.7192 18.289
70 2 22.1918 17.6762 48.4259
71 2 33.5099 17.0235 22.2155
72 2 49.5249 16.8753 39.8967
73 2 18.3951 16.7624 7.9661
74 2 41.5462 25.9311 11.887
75 2 18.3508 40.9279 19.8984
76 2 20.1608 19.4196 8.12323
77 2 44.8852 40.7347 17.4879
78 2 7.94199 51.4743 43.3276
79 2 14.8058 37.405 18.7992
80 2 53.4728 31.8101 48.7637
81 2 50.0165 19.5943 14.2188
82 2 35.774 36.4505 38.8576
83 2 36.0047 14.8098 15.1233
84 2 8.56412 14.8704 50.8623
85 2 50.4074 20.0443 32.0665
86 2 48.3942 17.0053 20.0448
87 2 40.7176 10.9295 44.7637
88 2 29.2791 47.824 53.1322
89 2 20.863 26.5612 29.3561
90 2 42.458 49.9065 10.6475
91 2 50.9729 37.8796 30.5364
92 2 35.5729 42.4519 16.3688
93 2 21.3126 30.7365 20.3625
94 2 10.8298 23.6367 44.275
95 2 7.2612 38.9093 36.6978
96 2 20.0185 25.7749 16.6571
97 2 55.3531 16.8088 48.4974
98 2 36.2648 52.4696 38.8746
99 2 39.8076 39.752 17.8013
100 2 21.6377 48.8933 14.2491
101 2 45.131 8.09955 47.7715
102 2 10.3484 31.3281 55.4159
103 2 23.0875 55.1288 40.8976
104 2 35.9215 15.9201 31.6941
105 2 28.1089 6.3036 10.5193
106 2 17.0267 23.697 17.2819
107 2 6.79066 33.9861 6.80642
108 2 47.5194 28.4003 37.7022
109 2 29.895 42.2917 41.9835
110 2 37.1471 9.33369 47.9455
111 2 30.7968 48.2092 45.6956
112 2 47.2433 55.6451 47.9015
113 2 53.7771 26.0678 43.3724
114 2 47.4932 34.6904 17.2158
115 2 53.2146 32.8058 15.5616
116 2 52.2217 36.4571 39.0647
117 2 40.8814 53.8953 32.8673
118 2 42.7188 20.5688 53.903
119 2 25.3447 40.362 42.9597
120 2 33.519 18.1554 11.5602
121 2 24.8339 50.7228 34.3773
122 2 40.3617 34.829 48.414
123 2 54.6011 40.156 13.4881
124 2 40.3542 19.681 48.049
125 2 24.0029 54.2164 52.2433
126 2 50.1848 34.3538 39.6912
127 2 27.5626 49.571 31.0541
128 2 13.1151 22.268 24.7434
129 2 43.5785 12.9294 54.4454
130 2 8.77593 8.91669 37.0025
131 2 19.5943 47.4881 55.7286
132 2 42.3277 37.6284 47.5625
133 2 50.3414 19.7022 51.9262
134 2 37.0655 19.967 33.4991
135 2 44.4316 34.2064 36.7716
136 2 20.6928 35.4291 8.29999
137 2 31.7476 27.1815 16.8342
138 2 8.83967 51.4401 22.6275
139 2 19.3253 49.4712 26.9095
140 2 26.9563 18.78 17.2433
141 2 6.82753 15.3044 18.764
142 2 39.3895 39.296 37.4998
143 2 11.1293 52.4595 38.5701
144 2 29.3723 46.526 25.2179
145 2 52.2816 52.3246 13.6608
146 2 37.4665 41.8151 38.1222
147 2 46.1701 25.8467 22.5472
148 2 35.0104 6.67993 41.9493
149 2 43.7405 49.8145 45.4804
150 2 33.1041 20.8512 30.4908
151 2 27.3793 24.5922 52.1785
152 2 31.1717 41.9395 19.4186
153 2 31.9028 28.3505 48.8199
154 2 50.5582 54.9091 30.1519
155 2 48.3397 42.2969 9.96602
156 2 45.6341 29.3887 51.428
157 2 43.899 37.4274 17.2523
158 2 10.6011 22.0716 15.2179
159 2 34.3515 41.2548 25.1583
160 2 40.6343 50.4939 49.8179
161 2 42.0248 19.5263 45.1296
162 2 54.5802 50.0206 9.84542
163 2 6.7573 50.7549 28.0567
164 2 46.1289 36.6373 30.6041
165 2 43.5952 11.6486 25.927
166 2 39.4014 16.8903 43.3358
167 2 37.136 29.7402 44.9175
168 2 21.1619 41.8385 39.2836
169 2 48.0305 19.3944 12.34
170 2 26.8457 17.8336 12.2568
171 2 33.8029 39.3668 42.6747
172 2 29.6273 11.308 39.6874
173 2 24.2518 8.19371 27.3901
174 2 28.8534 49.3517 41.7839
175 2 30.194 19.0098 9.03224
176 2 9.12898 54.6927 34.3324
177 2 11.8855 32.9334 43.2919
178 2 46.0045 25.6896 27.7595
179 2 32.3072 29.2113 31.5784
180 2 20.7117 32.7687 18.5835
181 2 21.769 7.89491 29.4088
182 2 52.5864 18.3342 13.5341
183 2 10.6975 26.2988 14.351
184 2 20.2527 14.5888 10.4925
185 2 48.4269 8.18337 36.5703
186 2 15.4754 50.2694 44.9011
187 2 45.6698 26.9631 25.1665
188 2 12.3505 25.3803 31.8219
189 2 17.3437 29.8435 18.9334
190 2 45.5297 15.2595 42.2508
191 2 36.6133 36.0143 6.77725
192 2 49.6942 44.4351 50.7851
193 2 17.431 19.3523 28.9594
194 2 53.3266 42.474 15.7384
195 2 16.5308 9.84223 19.8736
196 2 43.451 45.8318 13.0637
197 2 30.4014 45.0972 46.2677
198 2 53.0669 7.38007 8.59479
199 2 53.4451 17.3435 53.8879
200 2 19.6945 28.4454 21.0775
201 2 22.5413 23.1966 51.4321
202 2 39.4819 10.0782 25.8557
203 2 36.8114 20.7072 11.6058
204 2 50.138 38.6913 12.4198
205 2 36.0817 46.7559 35.0174
206 2 7.20464 54.0608 52.3927
207 2 21.0393 36.0407 31.9411
208 2 31.0389 35.3289 11.5276
209 2 18.4749 29.6161 40.3792
210 2 28.2865 53.2575 53.9447
211 2 9.47943 14.2409 40.5469
212 2 54.5715 31.9605 18.2616
213 2 24.624 39.2754 32.976
214 2 25.2187 54.743 46.1306
215 2 23.04 22.6552 54.759
216 2 11.8688 19.0349 52.3815
217 2 17.3558 51.2145 23.4571
218 2 38.0908 16.9373 51.2549
219 2 17.4232 14.215 8.61113
220 2 35.4672 14.0069 11.0821
221 2 34.2434 21.139 11.6384
222 2 9.03059 47.5423 50.7833
223 2 43.9118 47.1322 47.4127
224 2 27.9942 23.9777 37.2449
225 2 34.4593 30.0021 29.4311
226 2 7.37065 40.6098 50.4838
227 2 13.2834 43.2569 6.70882
228 2 43.0342 37.1071 28.5531
229 2 43.4644 53.2332 19.8442
230 2 42.248 12.1457 12.0709
231 2 10.1339 17.6362 48.0124
232 2 45.4817 26.3724 47.3736
233 2 10.1209 34.3046 49.9739
234 2 28.9007 38.4792 21.2505
235 2 14.94 36.7598 26.1783
236 2 47.1776 37.3046 50.8466
237 2 35.4747 26.9906 18.9466
238 2 54.2523 34.8358 41.2428
239 2 33.7795 19.5519 33.2868
240 2 21.0455 46.0448 23.5673
241 2 41.8453 32.6573 24.8321
242 2 42.8354 42.3025 48.2066
243 2 35.8078 50.1845 34.4379
244 2 37.2204 24.9389 43.722
245 2 8.33531 19.5431 11.8949
246 2 30.8777 14.8307 18.3522
247 2 16.6699 8.60997 53.2953
248 2 18.2142 22.8549 25.6778
249 2 11.0985 28.7137 7.04153
250 2 17.863 51.8489 34.05
251 2 38.1418 11.7858 46.7983
252 2 20.5588 54.9639 20.6528
253 2 28.9764 31.9142 40.0892
254 2 27.8217 11.5875 20.2876
255 2 44.7599 30.4804 49.0326
256 2 28.0025 17.179 37.2421
257 2 32.0621 52.2424 21.2185
258 2 33.8179 24.271 19.4395
259 2 19.1616 21.9042 48.7932
260 2 50.1482 34.3302 32.6003
261 2 22.3124 29.3448 55.109
262 2 13.2189 49.7053 35.1358
263 2 35.5129 30.6591 36.976
264 2 20.5631 55.2768 45.4598
265 2 45.771 26.6483 40.0467
266 2 23.3902 52.2461 24.3451
267 2 20.0214 40.0549 32.4685
268 2 23.098 27.6766 35.7796
269 2 39.1247 53.0087 49.246
270 2 50.8598 45.4115 28.3702
271 2 29.0436 46.151 28.1774
272 2 22.8298 12.2539 12.8172
273 2 39.1615 32.6606 28.4198
274 2 51.0241 32.3978 7.3795
275 2 16.0022 48.7766 27.8239
276 2 28.1358 20.2239 15.0919
277 2 11.8755 27.8522 10.1297
278 2 29.3788 19.4849 48.3515
279 2 16.3768 37.1799 32.7482
280 2 48.6473 11.7876 6.16626
281 2 46.0316 11.5358 54.005
282 2 45.5483 13.1734 14.6499
283 2 48.6881 18.4425 42.5129
284 2 30.3787 45.5428 21.2194
285 2 12.6064 40.045 15.9825
286 2 38.6047 9.38595 54.9138
287 2 21.1951 15.9932 40.2261
288 2 20.3075 18.9225 44.4685
289 2 39.9612 54.2633 29.8656
290 2 21.194 16.5114 37.0265
291 2 33.5718 46.4136 10.7318
292 2 23.6637 43.843 44.8776
293 2 40.4254 54.2481 54.8044
294 2 27.577 20.9867 55.4394
295 2 49.5578 13.7171 32.6552
296 2 35.8103 45.7664 51.8387
297 2 48.612 41.8344 52.4448
298 2 21.0484 8.14193 54.5901
299 2 50.3348 37.3656 15.441
300 2 7.81929 48.4153 30.0962
301 2 54.2408 38.4168 37.3831
302 2 14.9131 44.4971 26.0273
303 2 41.3543 6.66402 25.9616
304 2 49.3445 8.1918 18.7606
305 2 46.5599 45.4813 9.33486
306 2 14.8541 26.0636 28.1943
307 2 43.594 8.49837 20.1457
308 2 37.0775 39.0785 19.8134
309 2 6.52977 43.7263 17.1439
310 2 26.4109 53.4403 39.1615
311 2 31.5494 15.7525 6.79667
312 2 11.4123 53.6746 11.7578
313 2 43.4658 35.421 54.0874
314 2 11.4763 46.369 39.6362
315 2 21.0454 30.2938 8.33762
316 2 18.6277 42.6268 55.5312
317 2 11.7248 53.9374 54.5055
318 2 34.2674 46.8211 15.5912
319 2 25.4639 32.3718 20.437
320 2 20.6697 16.4582 18.7917
321 2 14.7473 52.5176 42.9196
322 2 30.4811 18.6908 34.1564
323 2 15.6227 12.6097 43.1394
324 2 13.2527 42.0481 10.1295
325 2 43.8461 34.3116 20.0876
326 2 38.4753 38.162 12.8183
327 2 53.3368 43.5107 24.5594
328 2 37.4696 33.6136 8.58743
329 2 11.0568 49.5544 15.6062
330 2 53.714 36.0424 7.15379
331 2 19.166 6.41149 8.71695
332 2 13.8148 52.8119 50.557
333 2 35.7651 26.1142 23.5147
334 2 34.9972 9.59846 25.1487
335 2 14.6424 48.3985 21.2655
336 2 46.8573 42.691 19.0661
337 2 41.3806 19.4693 33.8259
338 2 25.4342 11.8064 40.9955
339 2 53.6194 11.1711 8.0441
340 2 26.0414 26.1911 19.541
341 2 31.0584 51.0821 34.7055
342 2 12.7607 42.133 22.6005
343 2 13.1743 14.5803 50.8904
344 2 25.6994 44.3999 22.627
345 2 33.144 50.9667 46.5974
346 2 24.2699 48.4279 36.0103
347 2 26.9449 20.5552 33.6359
348 2 12.2109 29.6317 34.5738
349 2 43.9236 38.203 39.4691
350 2 54.3672 53.2061 33.4679
351 2 19.6278 38.5101 39.7221
352 2 46.2593 43.8016 24.0525
353 2 46.3312 23.6928 46.1646
354 2 13.6633 55.7939 38.6205
355 2 39.0736 27.2816 13.0724
356 2 10.8649 23.5758 36.2696
357 2 45.4845 32.9986 32.2114
358 2 19.3415 16.2685 34.2571
359 2 32.545 15.4036 27.3376
360 2 34.0749 26.9153 46.5487
361 2 11.6772 46.6518 29.7667
362 2 39.3273 43.1157 42.8951
363 2 10.465 53.7611 7.3978
364 2 38.5728 27.241 8.42479
365 2 39.22 52.9006 20.509
366 2 33.5579 36.2271 26.7236
367 2 17.0175 25.5002 44.6926
368 2 37.8252 22.5124 21.8627
369 2 41.5316 25.4098 23.5097
370 2 26.2587 6.44838 51.2924
371 2 29.0912 22.2141 48.7033
372 2 27.7434 40.8666 8.51863
373 2 39.3749 29.6197 17.7784
374 2 6.81923 25.3595 26.72
375 2 47.5062 11.1494 44.0263
376 2 47.8043 49.1661 11.3562
377 2 31.0959 39.6836 46.0744
378 2 40.7093 29.872 28.5182
379 2 37.4233 14.7449 22.9415
380 2 23.1797 30.2683 15.8728
381 2 30.8826 38.3175 54.2706
382 2 35.3039 16.1551 39.1453
383 2 26.4691 49.4798 6.86973
384 2 34.6793 23.6849 25.3715
385 2 28.0933 16.1687 45.7993
386 2 10.6864 25.9197 29.6949
387 2 14.3061 22.6458 31.0784
388 2 29.1398 53.8277 6.90154
389 2 35.241 18.2853 51.1758
390 2 32.0352 27.1047 36.012
391 2 32.1906 22.5596 6.52623
392 2 21.4222 20.1957 30.6952
393 2 6.28014 38.2091 7.99448
394 2 39.7737 23.5274 46.4426
395 2 49.0327 44.8517 8.373
396 2 6.79666 49.9195 49.3739
397 2 29.658 48.0574 7.49322
398 2 47.5462 23.1328 30.3855
399 2 52.6732 17.7627 25.6336
400 2 34.6792 32.209 7.41154
401 2 29.9369 6.86008 39.2023
402 2 16.1972 46.525 30.1201
403 2 27.2813 19.6595 10.1607
404 2 42.381 42.836 54.1046
405 2 38.1563 38.6829 45.3573
406 2 45.7953 18.9044 47.8167
407 2 50.7263 29.241 15.3177
408 2 54.9679 43.1628 55.603
409 2 16.953 25.7385 54.7413
410 2 21.3999 53.0257 29.602
411 2 37.8207 35.8751 20.5006
412 2 45.5702 11.8268 8.73425
413 2 25.5136 25.9224 14.998
414 2 14.5728 16.0992 27.3848
415 2 23.1833 54.9392 28.2976
416 2 14.4758 55.3954 44.7453
417 2 32.3349 49.9796 37.2847
418 2 34.0496 34.8921 48.3054
419 2 55.1112 8.11185 23.1532
420 2 35.7511 43.1676 40.632
421 2 43.2396 26.4905 31.6026
422 2 55.1505 25.7308 17.6637
423 2 10.9612 48.9866 12.6569
424 2 14.6258 28.0082 14.6022
425 2 28.7641 14.2379 52.8924
426 2 40.4449 46.3831 42.6368
427 2 46.9807 42.9383 33.7634
428 2 30.3393 43.9566 33.0103
429 2 40.1372 42.4737 10.402
430 2 13.652 17.7292 31.7458
431 2 41.956 32.8148 55.4021
432 2 39.8523 10.9674 33.9438
433 2 39.1177 38.4622 42.9172
434 2 28.0454 9.1312 47.4698
435 2 44.9042 55.7454 19.9631
436 2 25.0108 31.7232 38.3373
437 2 38.8933 33.3075 19.7918
438 2 7.60425 21.1924 29.7169
439 2 36.3288 11.4995 43.9825
440 2 24.4454 51.7566 43.2693
441 2 51.7603 55.7026 6.82073
442 2 9.43109 41.7611 8.221
443 2 19.8004 50.6359 21.7207
444 2 48.0626 14.0429 40.3958
445 2 15.7329 30.5559 31.305
446 2 23.5203 31.8767 48.5156
447 2 43.6869 48.7578 14.51
448 2 33.7564 37.0195 10.5658
449 2 46.351 53.0484 32.8067
450 2 40.1587 24.0498 20.5696
451 2 22.1356 20.1091 33.7436
452 2 11.4861 9.19669 24.8564
453 2 37.0937 51.251 19.3806
454 2 6.63931 38.714 41.3004
455 2 14.4927 31.2855 42.6642
456 2 41.6362 55.2762 48.9732
457 2 38.847 31.3304 7.16782
458 2 9.36761 52.9882 41.2153
459 2 17.9716 38.7065 48.3242
460 2 23.3586 50.9039 30.6676
461 2 47.0131 54.1485 53.4779
462 2 38.5429 18.7347 13.2023
463 2 17.7616 50.6719 39.9652
464 2 47.1289 54.2725 44.7813
465 2 20.2813 31.1333 29.9489
466 2 49.363 23.7446 53.2761
467 2 34.7486 49.0304 11.6578
468 2 6.82506 35.4803 39.8808
469 2 18.2508 35.5229 39.5272
470 2 10.7262 31.7509 52.1107
471 2 55.4589 35.6776 49.4319
472 2 53.8567 55.0106 54.0431
473 2 15.6872 46.2755 23.7564
474 2 33.7803 55.6425 12.6229
475 2 54.5364 11.0397 39.2088
476 2 31.041 6.41993 10.9933
477 2 50.3841 17.457 10.3829
478 2 39.7793 16.1296 13.2963
479 2 53.4877 37.8076 16.9277
480 2 37.863 45.8674 23.8109
481 2 36.2426 12.7005 24.6115
482 2 46.4174 51.7159 10.9872
483 2 23.3996 55.7939 9.06376
484 2 12.8511 47.2205 47.1521
485 2 34.0511 42.5555 49.1543
486 2 12.0979 19.737 41.4651
487 2 46.7815 35.927 36.7211
488 2 24.8249 42.5771 15.5087
489 2 20.6219 14.6377 44.8573
490 2 52.876 22.4303 54.6813
491 2 51.6962 13.2508 47.2757
492 2 51.6756 51.8574 29.6041
493 2 8.4106 8.11539 33.8671
494 2 17.6543 39.3834 44.694
495 2 29.1408 37.3661 31.5052
496 2 13.1428 40.1798 13.0094
497 2 20.4878 54.7695 42.1198
498 2 34.6255 31.8983 51.5573
499 2 19.4795 29.0054 32.7766
500 2 24.2807 46.9769 24.7938
501 2 32.4091 8.87726 12.0829
502 2 48.9502 22.0623 21.1622
503 2 39.0409 34.3824 36.9631
504 2 42.5839 53.5606 53.001
505 2 38.7592 6.64357 47.6687
506 2 32.8873 44.1568 28.1711
507 2 37.6225 44.6594 10.1405
508 2 17.964 19.6772 38.4657
509 2 30.8724 24.8852 37.0958
510 2 9.23055 47.8315 33.9658
511 2 44.3822 23.467 18.9904
512 2 14.6825 40.0018 54.6481
513 2 49.209 42.7851 37.485
514 2 16.607 53.3665 45.8565
515 2 51.9992 15.6511 17.4874
516 2 8.83488 6.26897 14.5151
517 2 47.3775 8.81157 9.58212
518 2 45.9234 16.9748 9.64976
519 2 51.1471 34.5772 19.6563
520 2 10.9291 54.0478 25.6244
521 2 28.1063 23.3734 34.4041
522 2 46.0606 31.6832 26.1452
523 2 41.642 33.8494 51.4513
524 2 7.49816 38.2644 47.8823
525 2 13.0972 34.8674 54.6186
526 2 47.5401 50.1265 34.25
527 2 14.8118 12.0526 47.0318
528 2 31.3843 11.6135 9.15654
529 2 55.4081 20.0321 17.1046
530 2 12.2589 23.9664 17.4275
531 2 32.9045 54.7103 46.5594
532 2 50.9066 47.6307 32.1994
533 2 41.434 32.7277 40.1963
534 2 39.5225 21.302 44.1053
535 2 24.6583 25.8633 51.3359
536 2 18.1116 7.9761 24.1573
537 2 28.3067 39.6877 23.6989
538 2 39.0789 31.9923 23.8608
539 2 24.8274 36.0374 24.0526
540 2 8.21171 16.5011 29.7454
541 2 20.9801 39.1576 16.5012
542 2 43.0593 19.4952 13.8345
543 2 52.7886 20.217 47.4625
544 2 46.3915 39.1729 36.4451
545 2 36.9496 29.8261 21.3893
546 2 44.0063 10.3799 6.58413
547 2 32.8459 14.7988 9.26301
548 2 20.4122 9.70993 50.3692
549 2 18.804 48.5633 47.7383
550 2 12.3572 37.0341 52.911
551 2 26.9021 38.9004 40.4282
552 2 8.89561 37.9033 24.7482
553 2 35.2538 22.4877 52.0964
554 2 29.2382 19.8696 31.811
555 2 52.254 18.3958 44.4653
556 2 43.1108 12.7275 45.1917
557 2 29.6492 29.779 46.5497
558 2 24.8127 35.4132 41.9051
559 2 55.4591 18.3453 27.2315
560 2 42.2147 47.5734 32.2982
561 2 25.4589 26.528 54.0914
562 2 29.9336 25.7973 45.7652
563 2 45.3003 6.26597 23.5562
564 2 47.2403 32.7213 36.3754
565 2 18.2581 10.4716 41.062
566 2 13.7118 47.8462 32.073
567 2 35.2266 7.14552 51.3461
568 2 54.2601 13.449 51.7093
569 2 15.8021 38.2536 28.4184
570 2 9.00863 34.2982 46.6967
571 2 23.2328 25.1987 39.4864
572 2 19.1163 12.0818 34.5816
573 2 53.3685 25.4815 27.7645
574 2 50.0802 13.2512 26.127
575 2 45.4743 29.7977 33.3706
576 2 45.0583 14.3054 47.3027
577 2 46.7904 24.8667 12.3193
578 2 34.353 20.6015 19.5391
579 2 39.5118 43.1729 26.9649
580 2 34.8288 17.2343 47.9139
581 2 35.611 29.6071 40.4379
582 2 8.60224 12.1419 33.4111
583 2 30.0463 24.9115 22.4366
584 2 15.3871 40.796 51.6433
585 2 10.3487 24.7687 39.1707
586 2 31.1129 49.9106 22.7298
587 2 17.0015 8.56967 31.615
588 2 48.4297 11.3987 41.2974
589 2 52.6246 52.5185 36.591
590 2 6.5939 44.6508 47.7023
591 2 11.0482 16.8758 54.8765
592 2 20.9137 38.9317 55.5075
593 2 37.9146 8.66193 27.8666
594 2 49.4592 30.2733 31.2746
595 2 13.0074 30.192 51.1754
596 2 7.3673 43.8516 13.8803
597 2 53.8956 15.8411 27.6557
598 2 50.9654 38.2071 46.7965
599 2 54.7537 32.0234 27.842
600 2 31.5004 18.4924 40.2482
601 2 6.97032 8.31594 16.8515
602 2 11.0963 34.2328 36.5457
603 2 46.1679 22.5695 14.9862
604 2 12.7963 28.9535 37.2322
605 2 24.7853 53.1627 10.3194
606 2 39.245 53.3251 9.1445
607 2 53.6663 8.26647 19.7332
608 2 22.7747 43.2381 30.0062
609 2 10.9187 33.503 16.2112
610 2 44.0882 27.6905 13.462
611 2 16.3207 48.2918 49.8772
612 2 36.5997 24.0895 28.3794
613 2 33.1108 11.4451 22.1285
614 2 15.6454 35.3352 40.8167
615 2 34.4362 49.6662 19.2664
616 2 26.3723 36.6993 31.5534
617 2 33.2931 42.3082 38.6371
618 2 28.7035 36.6672 36.7384
619 2 45.0694 40.8785 12.8026
620 2 50.4718 19.6267 27.4217
621 2 43.7066 29.8644 17.4065
622 2 11.0682 50.472 20.6039
623 2 43.3418 48.6416 27.5844
624 2 47.9148 29.627 14.9877
625 2 19.3181 9.19454 12.9564
626 2 40.3759 12.758 14.8961
627 2 20.9963 30.8976 51.2311
628 2 23.9212 35.0698 30.3885
629 2 34.052 31.9127 41.3829
630 2 36.6083 12.5508 8.74327
631 2 18.5635 45.8952 17.1875
632 2 44.8937 51.8329 7.02385
633 2 25.7583 32.2381 12.3372
634 2 16.5043 15.6096 49.9782
635 2 44.5979 31.3987 37.3647
636 2 15.8877 12.73 34.0233
637 2 51.0691 29.1174 46.2428
638 2 54.1088 13.4656 6.74028
639 2 32.5301 13.3628 54.1659
640 2 50.0357 40.2446 44.6328
641 2 41.6596 53.9218 39.7235
642 2 51.7678 12.4228 30.2524
643 2 9.79895 40.2929 55.1745
644 2 49.6353 37.3816 49.0361
645 2 53.4901 22.8305 46.1701
646 2 40.5793 47.6249 24.8586
647 2 36.6674 53.4468 41.7845
648 2 40.8852 23.8214 37.7561
649 2 27.3937 42.7627 24.7738
650 2 13.0898 23.3205 55.2601
651 2 27.6414 31.9946 22.4906
652 2 28.681 31.3427 35.1018
653 2 11.5843 15.6451 42.1469
654 2 17.4496 36.0223 19.4996
655 2 24.7385 27.2073 40.452
656 2 11.1932 24.6933 9.55759
657 2 10.3683 26.7594 17.5878
658 2 16.0718 12.6488 15.3967
659 2 48.0949 24.0682 40.4917
660 2 27.1022 16.7546 6.53581
661 2 6.37236 7.21827 7.73833
662 2 36.0172 26.5829 50.466
663 2 23.2076 18.977 7.79664
664 2 47.8989 34.7268 55.1191
665 2 29.3334 50.0914 11.1943
666 2 33.9499 39.1414 32.5984
667 2 52.7026 32.475 54.195
668 2 21.4841 23.0102 42.7013
669 2 12.0082 9.69253 19.6947
670 2 8.55881 34.2113 17.9375
671 2 35.5587 27.6242 42.8579
672 2 29.539 50.6741 53.2716
673 2 41.0623 9.72033 53.478
674 2 22.6225 36.7919 43.4924
675 2 54.2476 48.8977 26.7152
676 2 51.5721 6.68633 26.0552
677 2 6.95394 36.371 10.9245
678 2 14.9323 8.53961 16.5223
679 2 26.5073 8.78473 11.7431
680 2 40.5315 14.8183 29.2606
681 2 24.5895 7.68739 44.3309
682 2 11.1235 33.708 23.3566
683 2 39.7249 30.4963 43.3512
684 2 34.1936 54.5802 26.7434
685 2 45.0332 17.8784 40.0116
686 2 18.3647 28.4584 8.69582
687 2 6.87721 23.6172 13.187
688 2 31.0314 11.1962 36.016
689 2 13.438 35.0625 30.0475
690 2 6.85936 49.9711 20.9209
691 2 41.1434 39.0899 24.6268
692 2 40.9791 30.5952 50.8301
693 2 15.2495 12.8343 10.8128
694 2 21.8112 8.41534 45.039
695 2 38.5794 18.7871 29.4335
696 2 51.5325 37.0025 52.7365
697 2 16.5195 17.1631 12.134
698 2 12.0873 41.2245 39.4479
699 2 13.1113 44.8861 37.1886
700 2 15.5863 28.7929 21.7582
701 2 22.7097 37.7196 40.6973
702 2 32.8297 9.31026 27.3578
703 2 14.8227 42.9431 53.7258
704 2 42.6562 13.0252 38.376
705 2 19.4821 31.3104 34.7076
706 2 39.4232 35.7378 41.5757
707 2 28.124 12.7343 7.63046
708 2 31.338 26.7861 8.51595
709 2 41.5173 50.1711 31.6423
710 2 17.7137 22.9609 38.5075
711 2 34.3242 32.5046 11.8658
712 2 42.0399 14.0745 31.9656
713 2 48.6456 31.418 43.7746
714 2 29.3147 13.923 49.8055
715 2 22.6829 15.3108 6.42207
716 2 48.9082 37.022 32.5604
717 2 38.1572 8.40611 15.2917
718 2 26.9395 25.3868 26.7338
719 2 35.7024 41.1104 28.914
720 2 53.2548 23.6141 18.6325
721 2 19.6714 42.2215 12.807
722 2 26.6695 42.6946 46.9919
723 2 29.366 28.6835 39.9518
724 2 48.7926 53.4414 10.9283
725 2 25.6754 31.1833 52.9165
726 2 15.0584 36.4848 23.1014
727 2 34.2502 39.5273 13.2244
728 2 11.4212 52.3052 35.293
729 2 7.27871 30.8083 55.6974
730 2 16.453 15.8428 32.8401
731 2 44.5327 21.3553 12.2451
732 2 53.7518 34.3788 36.5572
733 2 48.2178 39.0303 10.0978
734 2 50.0749 21.673 11.9731
735 2 27.1957 7.31084 33.7118
736 2 23.8642 51.0249 27.3323
737 2 38.4456 26.661 24.6285
738 2 23.5272 40.3438 45.8027
739 2 54.1998 29.5354 29.7259
740 2 41.5741 36.7599 43.8335
741 2 38.0519 52.5327 33.6041
742 2 23.491 17.0564 18.2275
743 2 42.71 50.1311 20.0173
744 2 42.2013 29.6214 14.6926
745 2 16.981 44.1523 49.2127
746 2 30.7468 9.034 51.6763
747 2 13.335 52.3745 21.5898
748 2 25.8112 17.3594 22.8836
749 2 23.7119 13.717 20.3024
750 2 46.8774 26.9655 16.5798
751 2 28.3322 37.8309 18.0773
752 2 28.0174 39.492 54.1512
753 2 14.0401 42.7632 35.6445
754 2 52.8257 38.6149 7.94299
755 2 29.5507 50.7371 6.70667
756 2 16.6856 35.8163 47.1495
757 2 26.1091 38.0045 15.6275
758 2 41.778 13.4317 19.7949
759 2 20.5142 27.3171 36.8412
760 2 51.2542 8.49196 16.1283
761 2 46.6061 28.3899 28.0555
762 2 36.7097 32.3137 53.4226
763 2 31.8173 52.4125 8.2794
764 2 23.8889 54.945 33.3414
765 2 20.7482 23.5527 38.6861
766 2 31.929 18.1935 47.7027
767 2 8.51918 30.618 40.1863
768 2 40.6391 26.2683 6.30895
769 2 10.3598 37.8026 43.8973
770 2 28.3543 11.7801 29.327
771 2 26.6016 16.8502 53.3543
772 2 55.7267 38.7842 53.0503
773 2 34.8887 51.7487 22.8773
774 2 30.8364 14.9814 21.7315
775 2 19.4305 12.117 21.8543
776 2 35.5601 44.2039 14.2825
777 2 40.7971 54.9846 36.4469
778 2 25.0355 14.4577 29.342
779 2 19.8614 6.31239 12.1936
780 2 14.3272 33.2388 16.9345
781 2 19.5343 26.0419 6.78646
782 2 42.9074 30.4129 53.108
783 2 15.678 23.976 23.933
784 2 23.6611 31.1967 45.3117
785 2 22.3785 48.8759 33.1083
786 2 41.8231 35.5365 13.3648
787 2 24.7311 53.9987 36.907
788 2 31.9397 12.4367 43.3615
789 2 46.9928 13.7525 23.5163
790 2 13.2245 42.7182 14.7383
791 2 15.6934 55.6257 53.4197
792 2 17.2636 50.8534 15.0935
793 2 18.3659 54.7228 24.9092
794 2 9.22 49.8012 38.5403
795 2 23.2203 53.583 20.0649
796 2 18.5166 37.5362 51.4206
797 2 15.1743 32.6591 54.4696
798 2 33.6326 51.8192 32.8785
799 2 9.25543 47.2095 15.4962
800 2 50.0747 42.9209 55.2024
801 2 23.6186 40.8377 12.4813
802 2 11.8572 40.7026 7.61987
803 2 54.4579 28.0102 45.9015
804 2 29.229 13.6682 32.8846
805 2 34.4655 39.0931 52.2804
806 2 46.3784 48.7754 6.54097
807 2 19.3892 45.9286 53.0927
808 2 23.322 36.702 6.24307
809 2 51.1519 11.5503 15.4212
810 2 50.2549 24.8696 15.1691
811 2 52.7706 16.6231 33.8943
812 2 26.9782 11.9829 52.272
813 2 48.5055 30.9081 51.5286
814 2 48.8263 21.0022 44.711
815 2 48.7141 8.44811 42.7028
816 2 12.5132 48.8813 27.2461
817 2 43.846 30.7335 24.0569
818 2 32.117 23.4464 39.5562
819 2 27.1348 26.0523 47.1166
820 2 46.1638 49.5934 43.8248
821 2 12.8559 20.6905 37.11
822 2 35.5843 36.0536 24.6346
823 2 51.5388 6.40822 49.275
824 2 15.0727 19.176 47.4749
825 2 25.9139 21.697 20.8583
826 2 24.756 44.2818 48.8942
827 2 44.2434 55.6934 54.1907
828 2 9.88036 26.5024 26.6712
829 2 33.0336 19.9121 44.4063
830 2 36.9921 49.1913 36.5442
831 2 30.4413 26.4818 54.9748
832 2 10.9463 11.7248 22.2998
833 2 50.5476 45.9502 11.1477
834 2 26.753 48.4705 24.5973
835 2 32.7723 55.0498 38.3518
836 2 9.16468 27.9741 12.1193
837 2 23.6482 19.7628 16.8325
838 2 39.1812 25.9772 39.3074
839 2 42.2337 8.39069 17.6606
840 2 21.2603 8.55619 10.4599
841 2 6.84059 42.7999 24.0888
842 2 34.0684 43.7541 22.8847
843 2 32.5865 34.7339 31.0476
844 2 29.7959 22.6577 52.8776
845 2 45.7835 52.0472 21.3294
846 2 52.4474 19.7042 34.1629
847 2 27.4857 9.69013 50.4118
848 2 52.5279 10.8833 25.6694
849 2 45.8496 45.5913 35.3779
850 2 39.6946 44.2962 54.7543
851 2 20.355 39.3717 52.2238
852 2 44.282 22.8708 34.4636
853 2 22.1146 10.0239 21.6487
854 2 41.0541 54.3765 12.5058
855 2 12.8533 6.5588 6.94787
856 2 40.2999 42.2962 18.5634
857 2 41.7202 35.216 35.2213
858 2 54.901 54.0726 25.5525
859 2 41.2848 50.079 17.4398
860 2 9.72626 51.5587 17.878
861 2 24.2912 14.3573 42.7218
862 2 43.6087 26.3268 51.551
863 2 44.972 27.9325 8.62156
864 2 7.40256 52.0164 31.887
865 2 45.2496 45.0507 38.1782
866 2 42.0618 19.9829 21.018
867 2 40.171 45.9359 45.9475
868 2 15.2937 51.2093 48.0757
869 2 13.566 44.4884 51.1912
870 2 47.0392 31.3042 29.6701
871 2 36.83 21.5261 18.1958
872 2 24.9054 48.0784 9.34509
873 2 49.9916 35.4632 22.2752
874 2 31.3392 38.8827 17.1623
875 2 13.3785 51.0543 39.1867
876 2 24.8051 41.6197 21.8874
877 2 8.36744 10.4828 50.4978
878 2 8.17746 24.0867 28.7165
879 2 50.0701 15.8763 15.0345
880 2 48.8787 42.1009 12.8639
881 2 40.1271 49.1652 27.681
882 2 55.5262 48.2358 32.7381
883 2 38.0054 13.7791 33.475
884 2 10.4261 11.4155 26.7931
885 2 51.9425 12.3274 18.4076
886 2 47.404 28.4076 19.142
887 2 27.32 13.5913 42.6203
888 2 22.5992 39.7696 36.7853
889 2 21.0989 45.8476 44.8033
890 2 25.4305 18.631 55.2714
891 2 28.0491 22.2033 12.7126
892 2 26.9191 7.37199 19.1761
893 2 24.8403 49.7868 22.9786
894 2 28.9564 42.1023 50.4348
895 2 18.4522 53.0676 13.0566
896 2 15.68 47.5432 7.0553
897 2 6.42358 45.3111 41.3417
898 2 43.8448 54.9049 32.7198
899 2 34.2429 54.58 19.5997
900 2 27.6186 14.5384 18.8215
901 2 34.6077 10.9832 13.0006
902 2 37.9586 24.0599 16.6719
903 2 24.8177 12.1358 33.9168
904 2 7.23069 44.3576 53.8045
905 2 32.9707 42.0188 54.0714
906 2 48.2997 24.1027 27.573
907 2 53.0379 9.28596 12.1988
908 2 21.9305 32.9028 34.5964
909 2 34.4392 31.6301 44.5229
910 2 12.8439 26.4258 22.0073
911 2 11.3994 41.0023 34.7657
912 2 35.6047 21.4293 6.76539
913 2 7.49306 42.9072 10.7458
914 2 13.8654 46.3774 43.4203
915 2 44.519 11.0983 34.1812
916 2 46.3535 37.1194 21.1043
917 2 17.0929 28.8404 44.5217
918 2 40.5658 25.7904 28.7219
919 2 49.3785 45.8352 22.8344
920 2 28.2665 23.3468 15.859
921 2 7.11203 55.2169 9.95733
922 2 39.0136 18.6378 20.6748
923 2 24.6034 19.4369 48.4535
924 2 23.5982 28.4404 29.61
925 2 35.5189 38.2542 28.0818
926 2 22.5494 11.627 41.8823
927 2 8.57383 15.0918 11.1716
928 2 10.4374 6.99479 7.93302
929 2 6.93256 27.7516 49.6821
930 2 7.76983 16.2798 44.3212
931 2 55.4857 8.19391 54.5174
932 2 47.763 19.2637 33.8953
933 2 18.431 48.0872 23.3756
934 2 53.5535 25.7816 21.1402
935 2 7.17727 36.1154 15.4166
936 2 41.285 51.1409 13.3113
937 2 6.76543 22.7438 33.2423
938 2 43.6165 25.7372 35.8868
939 2 36.2 17.8295 53.7173
940 2 51.8875 30.4301 21.0408
941 2 52.1916 19.1848 20.1969
942 2 34.2584 50.3175 39.8384
943 2 55.2066 40.4795 28.8412
944 2 30.8581 28.3594 19.3627
945 2 10.7225 37.3009 41.199
946 2 16.5119 32.3788 9.13419
947 2 13.0345 9.67584 9.92861
948 2 8.03236 52.944 11.7018
949 2 50.6566 24.2098 10.6132
950 2 28.8866 43.0386 12.8068
951 2 8.4926 52.5245 45.7886
952 2 15.3865 37.6594 52.7706
953 2 40.2237 52.4199 42.171
954 2 53.4822 47.2317 50.7922
955 2 37.986 12.6453 16.6226
956 2 26.0621 23.5564 54.6979
957 2 11.8351 54.0333 14.9245
958 2 14.4993 51.0888 11.9498
959 2 54.4861 49.3465 35.7283
960 2 14.0612 43.9262 20.2103
961 2 27.8205 39.1895 11.6139
962 2 15.0335 40.0118 19.8763
963 2 53.9786 55.6132 27.4435
964 2 10.9803 49.5402 9.6207
965 2 9.90976 36.0635 10.6736
966 2 41.0245 33.573 11.6997
967 2 15.569 30.3956 12.0528
968 2 18.085 39.7597 55.5062
969 2 49.8813 38.8435 39.1734
970 2 14.3765 26.3652 37.3762
971 2 33.1942 30.0446 55.4673
972 2 19.3529 36.461 29.7924
973 2 29.584 34.6055 28.4549
974 2 10.908 20.3838 44.376
975 2 43.6716 45.4772 55.051
976 2 50.5098 27.1428 11.5723
977 2 50.3828 27.8093 38.5166
978 2 6.91748 39.8614 26.3681
979 2 50.9738 41.1574 47.4224
980 2 52.6477 15.7817 46.3323
981 2 24.4087 33.6359 25.4205
982 2 46.189 31.3995 45.1769
983 2 31.4842 11.9122 50.2551
984 2 47.3734 21.0559 9.95704
985 2 6.73074 31.0292 22.7595
986 2 19.2308 22.3926 52.6736
987 2 42.8986 22.6784 14.5364
988 2 43.8772 15.42 23.2562
989 2 13.9612 15.4995 6.19031
990 2 50.608 36.5624 25.6592
991 2 22.8027 21.5829 44.6964
992 2 15.6657 10.526 22.8357
993 2 23.8561 28.3732 17.9737
994 2 21.4382 21.0735 17.8138
995 2 38.759 33.9104 52.2582
996 2 37.474 28.363 35.573
997 2 9.83579 18.3295 42.731
998 2 15.8595 28.7762 51.53
999 2 14.0682 13.1148 23.4406
1000 2 27.2936 15.8187 48.7788
1001 2 27.0941 51.6994 10.5494
1002 2 19.6264 48.2758 38.4194
1003 2 9.59545 42.9325 22.626
1004 2 40.7729 7.50439 51.404