ITEM: TIMESTEP
0
ITEM: NUMBER OF ATOMS
9088
ITEM: BOX BOUNDS xy xz yz pp pp pp
6.0915381885634066e+00 5.5839399603760270e+01 -5.7076451299009897e-15
6.0915381885634119e+00 5.5839399603760270e+01 0.0000000000000000e+00
6.0915381885634119e+00 5.5839399603760270e+01 0.0000000000000000e+00
ITEM: ATOMS id type x y z
1 2 50.5649 10.5047 22.0556
2 2 22.0741 50.1264 42.2427
3 2 10.0591 20.934 30.1002
4 2 34.0252 6.19934 35.1074
5 2 30.4001 45.0388 38.3876
6 2 51.7143 38.9823 11.5378
7 2 33.4344 49.7774 28.5743
8 2 43.8993 20.4695 24.7904
9 2 25.6036 33.0228 37.1304
10 2 21.8732 27.0811 38.1641
11 2 44.7667 21.4092 33.6766
12 2 22.1794 35.3484 54.6399
13 2 30.3603 9.22462 9.07553
14 2 16.0833 41.089 39.5936
15 2 10.528 20.2154 54.1751
16 2 54.5983 27.9984 11.7384
17 2 33.7012 47.8922 15.4915
18 2 51.1899 35.1657 39.2083
19 2 34.1097 43.0347 33.3595
20 2 35.4826 44.0151 24.344
21 2 40.0791 30.3641 52.3785
22 2 45.8136 34.1056 21.5135
23 2 41.4658 47.9226 14.8409
24 2 24.3198 51.794 27.2932
25 2 7.53253 55.6954 8.8023
26 2 10.0098 19.2618 13.2573
27 2 48.9514 12.7066 49.4107
28 2 14.4323 6.11454 36.0112
29 2 36.8357 27.3154 15.9699
30 2 31.1311 21.5812 54.7564
31 2 6.39915 9.45119 43.7763
32 2 26.0452 54.7987 31.0301
33 2 25.9067 21.9172 21.3067
34 2 54.42 46.1836 17.5319
35 2 48.464 48.0358 46.2708
36 2 7.23427 14.1148 37.8909
37 2 54.0353 9.64788 26.4106
38 2 39.6486 17.319 54.0667
39 2 48.5585 20.9966 33.7219
40 2 43.2388 50.1065 52.781
41 2 16.8268 11.3556 21.1856
42 2 37.9571 15.7986 23.8773
43 2 34.4768 6.54513 26.3269
44 2 45.294 43.7463 54.7855
45 2 40.7471 35.4742 43.5559
46 2 11.4819 22.9026 38.0635
47 2 31.8391 13.2209 17.3448
48 2 46.8766 35.4851 8.14762
49 2 48.1078 51.874 35.5165
50 2 17.0156 32.0193 52.6495
51 2 42.4079 41.7586 39.5629
52 2 42.0295 40.8763 47.1496
53 2 33.6979 47.6269 41.3605
54 2 10.8463 15.6987 54.3225
55 2 32.0225 33.698 35.0835
56 2 14.8748 54.5679 42.7057
57 2 17.708 41.6971 27.3946
58 2 18.7173 47.2716 35.0747
59 2 32.9412 9.52271 30.742
60 2 17.8774 39.5082 47.4979
61 2 48.8883 42.3919 12.0573
62 2 41.3599 49.8202 22.6631
63 2 19.0642 51.1918 42.2861
64 2 35.4257 47.563 32.6164
65 2 8.99229 39.8422 30.0122
66 2 8.46459 23.4674 8.23183
67 2 26.0062 9.69871 49.0651
68 2 17.4342 30.7617 33.5097
69 2 44.6407 53.5387 9.341
70 2 23.1407 50.6857 39.5681
71 2 34.4752 49.8517 13.3509
72 2 51.1475 49.7933 31.1132
73 2 19.2501 50.0516 48.7246
74 2 42.5302 9.03999 52.5857
75 2 19.3929 24.3263 11.0938
76 2 21.3973 52.1788 49.075
77 2 45.7865 23.7381 8.42321
78 2 9.26618 34.6758 34.4348
79 2 15.8615 20.9173 9.98174
80 2 54.4351 14.7796 39.8221
81 2 51.3386 52.7945 54.9301
82 2 36.9775 19.8765 30.1586
83 2 36.9755 47.7838 55.7296
84 2 9.61569 47.8322 42.0063
85 2 51.4739 53.129 23.1671
86 2 49.5321 49.8163 10.846
87 2 41.6111 44.0462 36.0796
88 2 30.8115 31.3302 44.0452
89 2 21.7539 9.98388 20.2377
90 2 43.4595 33.1008 51.1891
91 2 52.0129 21.4025 21.5671
92 2 36.8823 25.4933 7.54703
93 2 22.3432 13.9756 11.5237
94 2 11.4792 6.79073 35.3894
95 2 8.39338 22.5654 27.4968
96 2 21.0303 9.14373 7.773
97 2 6.48151 49.8644 39.3391
98 2 37.2136 35.6439 29.8663
99 2 40.4367 22.7927 8.61283
100 2 22.4923 32.1917 54.7753
101 2 46.5061 41.3751 38.6806
102 2 11.5351 14.6739 46.232
103 2 24.3145 38.3681 32.3305
104 2 37.2145 48.7995 22.4038
105 2 28.9161 39.5129 51.1966
106 2 18.1966 6.94756 8.24739
107 2 7.73382 17.2814 47.4277
108 2 48.6874 11.7377 28.5137
109 2 30.8338 25.729 32.793
110 2 38.5971 42.2741 39.0375
111 2 32.394 31.5446 37.0189
112 2 48.3293 38.9019 38.864
113 2 54.8736 9.23012 34.1505
114 2 48.6597 18.2938 8.28779
115 2 54.7345 16.3589 6.4594
116 2 53.3464 19.8867 29.8926
117 2 42.1254 37.1701 23.9448
118 2 43.6667 53.3577 44.9791
119 2 26.225 23.6907 34.1958
120 2 34.5665 51.1307 52.3298
121 2 26.0637 33.9607 25.9725
122 2 41.5737 18.035 39.486
123 2 6.25766 23.2614 54.0512
124 2 41.4484 52.7065 38.9562
125 2 24.8703 37.9745 43.5067
126 2 51.1801 18.0516 30.5099
127 2 28.6472 32.874 22.2805
128 2 14.1851 55.365 15.8432
129 2 44.7616 46.0189 45.4322
130 2 9.75325 41.761 28.091
131 2 20.517 31.0912 46.7887
132 2 43.3196 20.6926 38.5886
133 2 52.2134 52.5754 43.2726
134 2 38.0578 52.9405 24.4042
135 2 45.5995 17.3869 27.6732
136 2 21.858 19.1561 48.796
137 2 32.9583 10.7233 7.55094
138 2 9.62573 34.6161 13.8815
139 2 20.1695 32.6991 17.9392
140 2 28.2164 51.8255 8.12937
141 2 7.95277 48.4907 9.76145
142 2 40.801 22.4216 28.3762
143 2 12.2448 35.857 29.2568
144 2 30.3756 30.0172 16.472
145 2 53.3191 35.9098 54.3547
146 2 38.6059 24.9482 29.2679
147 2 47.3017 9.28332 13.4618
148 2 36.0108 39.6565 33.0658
149 2 44.6543 33.5131 36.5655
150 2 34.3142 53.8643 21.5974
151 2 28.1541 7.58639 43.0291
152 2 31.9941 25.0552 10.3217
153 2 33.0843 11.3853 39.7943
154 2 51.7011 38.2448 21.1438
155 2 49.617 25.426 50.5666
156 2 46.9646 12.687 42.6843
157 2 45.0625 20.8939 8.27855
158 2 11.6473 55.1224 6.37011
159 2 35.5018 24.6385 16.44
160 2 41.7546 33.8871 40.9859
161 2 43.5158 52.5492 35.9853
162 2 55.8224 33.5979 50.4709
163 2 7.63918 34.1708 19.0772
164 2 47.3015 20.024 21.6739
165 2 44.2501 44.823 16.6215
166 2 40.6666 49.7672 34.1964
167 2 38.2256 12.8575 35.7384
168 2 22.0069 25.609 30.342
169 2 49.2497 52.9286 52.6313
170 2 27.8695 50.7854 52.9801
171 2 34.9413 22.4708 33.7194
172 2 30.8651 44.3156 30.2815
173 2 25.3152 41.1315 18.5612
174 2 30.3285 32.4659 32.9941
175 2 31.2389 52.028 49.6425
176 2 10.1698 38.3452 25.1305
177 2 12.7801 16.3154 34.5241
178 2 47.0886 8.92055 18.3258
179 2 33.2888 12.4892 22.2654
180 2 21.8931 16.1916 9.55857
181 2 23.0307 40.9244 20.7944
182 2 53.4828 51.3774 54.2867
183 2 11.8328 9.81718 55.3482
184 2 21.3273 47.9741 51.343
185 2 49.6687 41.4033 27.6051
186 2 16.5039 33.716 35.9499
187 2 46.9829 10.8609 16.0167
188 2 13.4463 8.82688 22.9091
189 2 18.3697 13.1777 9.86839
190 2 46.5612 48.1867 33.2348
191 2 37.7775 19.3569 47.5898
192 2 51.0154 27.8195 41.796
193 2 18.4097 52.3897 19.8973
194 2 54.3232 25.7369 6.69362
195 2 17.6357 42.6197 11.0196
196 2 44.4943 28.9636 53.6229
197 2 31.6776 28.7743 37.2292
198 2 54.3336 40.3385 49.4133
199 2 54.692 50.2368 44.6385
200 2 20.5937 11.7694 12.0379
201 2 23.6664 6.35327 42.3748
202 2 40.6802 43.2385 16.6289
203 2 37.8317 53.7094 52.4776
204 2 51.3831 21.8656 53.2797
205 2 37.3173 30.0327 26.1242
206 2 8.44764 37.528 43.7577
207 2 21.9855 19.3694 23.2122
208 2 31.7696 19.1238 51.9897
209 2 19.3653 13.1845 31.2549
210 2 29.0105 36.3086 45.3093
211 2 10.6799 47.4841 31.1751
212 2 55.689 15.5062 9.36902
213 2 25.6705 22.4345 24.2232
214 2 26.4712 37.8531 37.3766
215 2 24.0352 55.6374 45.606
216 2 13.2507 52.1331 43.6004
217 2 17.9155 34.6319 14.4694
218 2 39.1409 49.9138 42.0178
219 2 18.4723 47.3134 49.0335
220 2 36.1918 47.0297 51.5289
221 2 35.3522 54.1275 51.856
222 2 10.1398 30.7525 41.9752
223 2 45.3551 30.6736 38.7487
224 2 29.1367 7.15546 28.1483
225 2 35.6415 13.488 20.2145
226 2 8.60802 23.8913 41.4181
227 2 14.3234 26.6291 47.6281
228 2 44.0126 20.4078 19.1019
229 2 44.624 36.7841 10.991
230 2 43.2645 45.1712 52.7753
231 2 11.2144 50.7583 39.2945
232 2 46.7372 9.5972 38.6838
233 2 11.1365 17.6605 40.8754
234 2 29.9245 21.6827 12.3273
235 2 15.668 19.8811 17.1304
236 2 48.0842 20.6408 42.0238
237 2 36.704 9.81376 9.76041
238 2 55.2291 18.5539 32.3334
239 2 34.827 52.437 24.0413
240 2 21.9558 29.4355 14.5933
241 2 43.1891 16.0904 15.7616
242 2 44.3324 25.5851 39.2469
243 2 37.0987 33.35 25.5479
244 2 38.5587 8.38655 34.8323
245 2 9.59653 52.612 52.4812
246 2 32.2774 47.8404 9.50878
247 2 17.7539 41.834 44.2371
248 2 19.26 6.15813 16.2698
249 2 12.4275 11.5682 47.8431
250 2 18.9091 35.2239 25.3274
251 2 39.3211 44.621 37.8453
252 2 21.7013 38.3617 11.9311
253 2 29.7802 15.2463 31.285
254 2 28.9245 44.5332 11.6345
255 2 45.9719 13.6031 40.3373
256 2 29.0973 50.1297 28.4536
257 2 33.4058 35.5423 12.325
258 2 34.5246 7.25199 10.2253
259 2 20.0806 55.1782 39.836
260 2 51.0627 17.4926 23.7263
261 2 23.5171 12.7848 46.3316
262 2 14.4 32.9878 26.1491
263 2 36.764 14.1348 27.7985
264 2 21.4976 38.5985 36.6174
265 2 47.0478 10.1103 30.7791
266 2 24.2873 35.7719 15.686
267 2 20.9861 23.2649 23.7209
268 2 24.1139 10.8625 26.9317
269 2 40.4256 36.374 40.3193
270 2 52.1824 28.9203 19.1212
271 2 30.1356 29.3176 19.6269
272 2 23.9253 45.075 53.2825
273 2 40.3919 16.155 19.1187
274 2 52.0865 15.6425 48.1127
275 2 17.0766 32.313 18.9897
276 2 29.3759 53.406 55.7795
277 2 12.8376 10.8336 50.9218
278 2 30.3286 52.4762 38.8881
279 2 17.4311 20.6061 24.2036
280 2 49.7172 45.077 46.9494
281 2 47.3354 44.5085 44.8375
282 2 46.7499 46.1809 55.3821
283 2 49.6994 51.566 32.9207
284 2 31.3674 28.9037 12.4048
285 2 13.7228 23.3272 7.04267
286 2 39.8938 42.4532 46.1323
287 2 22.398 48.8563 31.4469
288 2 21.1343 52.2529 35.4384
289 2 41.2056 37.26 20.593
290 2 22.1652 49.4247 27.8804
291 2 34.6766 29.6871 51.4698
292 2 24.6459 27.405 35.8265
293 2 41.4854 37.8738 46.0139
294 2 28.6956 54.0366 46.425
295 2 50.8742 46.8387 23.3799
296 2 37.225 29.1207 43.1288
297 2 49.7299 25.0768 43.4768
298 2 21.9832 41.256 45.8144
299 2 51.6066 20.451 6.31444
300 2 8.85729 31.842 20.8922
301 2 55.285 21.9944 28.4022
302 2 15.887 28.0544 17.2278
303 2 42.4882 39.7333 16.9916
304 2 50.5811 40.9168 9.82054
305 2 47.7679 28.5446 50.221
306 2 15.6988 9.79454 18.8798
307 2 44.7293 41.4723 10.9924
308 2 38.3429 22.4767 10.7424
309 2 7.30712 27.2096 8.11332
310 2 27.4649 36.8512 30.206
311 2 32.3537 48.7355 47.4835
312 2 12.2994 37.207 52.5818
313 2 44.6336 18.666 44.9805
314 2 12.4349 29.5828 30.7778
315 2 22.0827 13.6431 49.1012
316 2 19.6128 26.0888 46.731
317 2 12.9133 37.2301 45.5608
318 2 34.824 30.2464 6.52622
319 2 26.4487 15.9278 11.4811
320 2 21.4253 49.4326 9.63566
321 2 16.0659 35.6847 34.1025
322 2 31.6006 51.7562 24.9868
323 2 16.7175 45.4441 34.0164
324 2 14.1586 25.6916 50.7696
325 2 44.9068 17.6408 11.1391
326 2 39.3144 21.6559 53.0583
327 2 54.4526 26.8523 15.5848
328 2 38.6944 17.0316 49.4559
329 2 11.9152 33.0658 6.61953
330 2 54.8373 19.2434 47.8872
331 2 19.994 39.4574 49.4664
332 2 15.118 36.1333 41.1836
333 2 36.8893 9.29041 14.3323
334 2 36.0778 42.3332 16.002
335 2 15.6819 31.8317 12.4554
336 2 47.9148 26.0202 9.92594
337 2 42.0851 52.9039 24.9624
338 2 26.3087 44.8284 31.6093
339 2 54.4462 43.8428 48.7099
340 2 27.3106 9.81691 10.3259
341 2 32.0897 34.2705 25.814
342 2 13.8502 25.4914 13.5647
343 2 14.3157 47.7913 41.9365
344 2 26.5006 27.7969 13.8079
345 2 34.702 34.8175 37.4034
346 2 25.3236 31.4648 27.5485
347 2 28.319 53.7014 24.7044
348 2 13.2944 13.0366 25.3444
349 2 45.054 21.6232 30.6287
350 2 55.5605 36.5065 24.4042
351 2 20.7271 21.6811 30.8604
352 2 47.0316 27.2705 15.0887
353 2 47.7758 7.12851 36.9851
354 2 14.83 39.0613 29.7994
355 2 40.1605 10.5352 53.6558
356 2 11.713 7.107 27.242
357 2 46.4394 16.7526 23.4076
358 2 20.4817 49.2958 25.229
359 2 33.5533 48.064 18.367
360 2 35.0893 10.0982 37.3441
361 2 12.8044 30.2529 20.8911
362 2 40.8053 26.4964 33.9669
363 2 11.1911 37.0347 48.5476
364 2 39.6613 10.3244 48.8276
365 2 40.319 35.8066 11.5455
366 2 34.2298 19.5238 17.6319
367 2 18.1756 8.96075 35.7138
368 2 38.7261 55.2674 12.7539
369 2 42.6334 8.71524 14.3284
370 2 27.3008 39.5514 42.6397
371 2 30.1667 55.1627 39.4219
372 2 29.2347 24.4617 49.1423
373 2 40.4444 12.8586 8.59633
374 2 7.56312 8.65331 17.6819
375 2 48.4917 43.925 35.0967
376 2 48.7008 32.2757 51.9656
377 2 32.3395 23.2921 37.1919
378 2 41.9544 13.5334 19.5506
379 2 38.6165 47.9133 13.7452
380 2 24.341 13.6718 6.91122
381 2 31.9451 21.6567 45.1905
382 2 35.8934 48.9051 29.7555
383 2 27.7184 32.4352 47.291
384 2 35.479 6.92282 16.0372
385 2 29.1325 49.0368 36.6327
386 2 11.7111 9.49273 20.5844
387 2 15.2864 6.33619 21.7437
388 2 30.2885 36.9003 47.5551
389 2 36.3096 50.7092 42.168
390 2 33.0997 10.4474 27.223
391 2 33.4327 55.398 46.8584
392 2 22.4181 53.2931 21.559
393 2 7.44398 21.3624 48.5476
394 2 40.7715 6.86054 37.2687
395 2 50.3827 28.2075 49.0859
396 2 8.07959 33.1706 40.4676
397 2 30.9515 31.4371 48.0013
398 2 48.5453 6.57423 21.1711
399 2 53.7009 50.8165 16.5731
400 2 35.7253 15.3095 48.1705
401 2 31.1154 39.7087 30.126
402 2 17.1009 29.8484 21.1548
403 2 28.4266 52.9312 50.7157
404 2 43.3782 25.9336 45.0359
405 2 38.968 22.1454 36.6162
406 2 46.8516 52.0936 38.5794
407 2 51.7628 12.7399 6.15457
408 2 6.38625 26.4124 46.8645
409 2 17.9459 9.0432 45.9024
410 2 22.3302 36.1344 20.8128
411 2 39.055 19.1432 11.6395
412 2 46.4601 44.9285 49.5757
413 2 26.6722 9.30077 55.7971
414 2 15.5122 49.2653 18.2647
415 2 23.8811 38.2953 19.3783
416 2 15.6378 38.3128 35.9708
417 2 33.8648 33.4746 28.5244
418 2 35.089 18.4284 39.1757
419 2 6.48794 40.9948 14.0865
420 2 36.7927 26.2851 31.6553
421 2 44.2436 9.82807 22.4321
422 2 6.23156 9.2574 8.62946
423 2 12.108 32.3028 53.2846
424 2 15.7146 11.3758 55.1766
425 2 29.8722 47.0555 44.2178
426 2 41.4419 29.6844 33.8653
427 2 48.0729 26.2967 24.633
428 2 31.4675 27.1765 24.1003
429 2 41.4383 25.8092 50.9218
430 2 14.529 50.7659 22.5214
431 2 42.8988 16.2453 46.4451
432 2 40.9288 43.855 25.1138
433 2 40.2938 21.7221 34.1748
434 2 28.8068 42.3643 38.7326
435 2 45.8715 39.1339 11.172
436 2 26.0562 14.8433 29.3899
437 2 40.0181 16.6122 10.7537
438 2 8.46175 54.3658 20.8831
439 2 37.3494 44.2373 35.0345
440 2 25.3501 35.267 34.5953
441 2 52.941 39.0433 47.596
442 2 10.1416 25.2223 48.8176
443 2 20.9055 34.1938 13.0006
444 2 49.1931 46.9553 31.2991
445 2 16.8565 14.0115 22.4445
446 2 24.3546 15.1011 39.6873
447 2 44.7675 32.0914 55.1599
448 2 34.6638 20.1655 51.3501
449 2 47.3426 36.151 23.8571
450 2 41.3118 7.34461 11.4755
451 2 23.4692 53.2661 24.6513
452 2 12.3678 42.3291 15.9994
453 2 38.1581 34.6671 10.5088
454 2 7.66748 22.2105 32.315
455 2 15.701 14.8015 33.8048
456 2 42.7562 38.6661 39.793
457 2 40.0285 14.2709 47.8117
458 2 10.6187 36.3739 32.0892
459 2 18.698 22.133 39.4392
460 2 24.455 34.1443 21.9211
461 2 48.2791 37.6612 44.4729
462 2 39.7769 51.8958 53.8526
463 2 18.8317 33.8571 31.3133
464 2 48.1325 37.5202 36.0317
465 2 21.493 14.4409 21.0275
466 2 50.5359 7.0605 44.3283
467 2 36.2731 32.2155 52.4417
468 2 7.84975 18.9904 31.1093
469 2 19.468 18.7839 30.6081
470 2 11.5157 14.9897 43.1894
471 2 6.82295 19.0222 40.544
472 2 54.7279 38.2297 44.9923
473 2 16.632 29.901 14.9939
474 2 34.4316 38.947 53.1329
475 2 6.30753 43.9509 30.7921
476 2 31.7314 39.5556 51.6985
477 2 51.3427 50.6999 50.9313
478 2 40.6775 49.0512 54.0517
479 2 54.6523 21.1237 7.71007
480 2 38.9565 29.1607 14.9331
481 2 37.411 45.6376 15.688
482 2 47.5279 34.7724 51.7084
483 2 24.3737 39.4726 50.2238
484 2 14.0977 30.4068 38.0896
485 2 35.0103 26.0405 40.0637
486 2 12.9776 52.7141 32.4101
487 2 47.691 19.1869 27.7004
488 2 25.7123 26.0963 6.56574
489 2 22.0278 47.6507 35.6542
490 2 53.1428 55.0613 45.5119
491 2 52.7746 46.2408 38.1442
492 2 52.7816 35.1495 20.509
493 2 9.38766 41.0076 24.9015
494 2 18.6919 22.8519 35.8265
495 2 30.1913 20.8908 22.9319
496 2 14.2173 23.6894 53.6935
497 2 21.5955 37.9896 33.2715
498 2 35.9534 15.2896 42.2593
499 2 20.5295 12.0086 24.103
500 2 24.8048 30.4044 15.7703
501 2 33.405 41.7616 52.9436
502 2 50.0184 54.8835 11.9948
503 2 40.1449 17.699 27.8249
504 2 43.656 37.022 44.3444
505 2 39.91 39.6789 38.7553
506 2 33.7725 27.3067 19.2224
507 2 38.4762 27.9519 50.8677
508 2 18.8529 52.713 29.2284
509 2 32.2026 7.96184 28.1314
510 2 10.3874 31.2169 24.9888
511 2 45.4552 6.86629 9.73613
512 2 15.766 23.709 45.7535
513 2 50.0395 26.092 28.2561
514 2 17.7852 36.5849 36.7404
515 2 53.1753 49.0634 8.43528
516 2 9.85201 39.5924 55.3841
517 2 48.3284 42.0903 50.1849
518 2 47.0269 50.1968 50.2614
519 2 52.0598 18.058 10.4237
520 2 11.9205 37.3651 16.4756
521 2 29.2308 6.73864 25.3282
522 2 47.492 14.802 17.2235
523 2 42.8133 17.0714 42.2495
524 2 8.42328 21.5931 38.9337
525 2 14.3395 18.0076 45.6511
526 2 48.8614 33.5558 25.5208
527 2 15.9734 45.2676 38.4069
528 2 32.552 44.6541 50.0489
529 2 6.97016 53.037 7.99013
530 2 13.3929 7.43167 8.52601
531 2 33.8902 38.0376 37.6154
532 2 52.0987 30.9412 23.2238
533 2 42.434 15.9092 31.4378
534 2 40.7108 54.2578 35.2037
535 2 25.7786 8.89233 42.1008
536 2 19.2956 41.3445 15.476
537 2 29.0438 22.9224 14.9751
538 2 40.2521 15.1222 14.9156
539 2 25.9159 19.2196 15.0036
540 2 9.13644 49.6584 20.8092
541 2 21.9665 22.5852 7.65459
542 2 44.284 52.6124 54.5504
543 2 53.9628 52.9791 38.5676
544 2 47.5561 22.4559 27.295
545 2 37.9206 13.1189 12.3565
546 2 45.3631 43.458 47.3125
547 2 33.5249 47.9613 50.0352
548 2 21.2377 42.4676 41.3838
549 2 20.2752 31.936 39.0209
550 2 13.4002 20.3518 44.0255
551 2 27.8681 22.3033 31.4634
552 2 9.71523 20.9886 15.8607
553 2 36.3168 55.1258 43.0008
554 2 30.1417 52.7158 22.664
555 2 53.4038 51.326 35.3846
556 2 44.123 45.6489 36.0013
557 2 30.7658 12.8469 37.5114
558 2 25.9214 18.6359 32.9019
559 2 6.9131 51.4019 18.2634
560 2 43.0745 30.554 23.4609
561 2 26.4817 9.70579 45.0674
562 2 31.3353 9.08763 36.5627
563 2 46.2955 39.3471 14.5901
564 2 48.3997 16.0723 27.223
565 2 19.2229 43.4286 32.0893
566 2 14.9191 31.3152 23.2847
567 2 36.3265 40.1851 42.3201
568 2 55.3009 46.3696 42.782
569 2 17.0088 21.6385 19.3476
570 2 9.97511 17.8349 37.769
571 2 24.31 8.38272 30.4124
572 2 20.6153 45.0179 25.4064
573 2 54.1965 8.88759 18.6094
574 2 51.0092 45.947 17.2847
575 2 46.5832 13.0386 24.2159
576 2 46.128 47.0362 38.1711
577 2 47.8542 8.23988 53.0436
578 2 35.5699 53.368 10.5322
579 2 40.3886 26.6065 18.3796
580 2 36.0139 50.3544 38.9298
581 2 36.7695 12.6899 31.7018
582 2 9.43272 44.7671 24.3984
583 2 31.2914 8.16019 13.5374
584 2 16.5824 24.1346 42.6027
585 2 11.242 7.89342 30.3269
586 2 32.1567 33.4296 13.7373
587 2 17.9477 41.6214 22.4839
588 2 49.495 43.6992 32.1683
589 2 53.8035 36.0678 27.4393
590 2 7.638 28.0096 38.7295
591 2 12.1538 49.6973 46.0101
592 2 21.9677 22.6293 46.3893
593 2 38.8013 41.5776 18.9243
594 2 50.6914 13.6269 21.875
595 2 13.9914 13.4515 42.2488
596 2 8.20314 27.2219 54.6996
597 2 55.0197 48.7938 18.5134
598 2 52.3254 21.4761 37.5915
599 2 54.9663 15.9812 18.0071
600 2 32.6447 51.5601 31.0523
601 2 8.39001 41.0758 7.73273
602 2 12.1278 17.5517 27.5082
603 2 47.2372 55.7245 55.5636
604 2 13.52 12.2681 28.414
605 2 25.9745 36.7764 51.3843
606 2 40.3019 36.7169 50.0271
607 2 54.5888 41.2878 10.1932
608 2 23.793 26.6173 21.3895
609 2 12.2702 17.0474 6.84343
610 2 45.0762 10.7593 54.2024
611 2 17.3039 31.7238 40.6712
612 2 37.6283 7.53414 19.3473
613 2 34.3089 44.2221 12.8997
614 2 16.7272 18.7305 31.8334
615 2 35.7807 32.8786 9.96733
616 2 27.3028 19.8793 22.4869
617 2 34.1747 25.6168 29.5234
618 2 29.9509 19.4412 28.0654
619 2 45.949 24.1881 53.6694
620 2 51.7602 52.7007 18.3833
621 2 44.7285 12.8473 8.09596
622 2 12.0639 33.5175 11.7952
623 2 44.0608 31.9633 18.7652
624 2 48.8811 12.89 55.7668
625 2 20.4403 42.0499 53.7757
626 2 41.5012 45.8487 6.23767
627 2 22.0322 14.3702 42.1243
628 2 24.6832 18.3992 21.4469
629 2 35.2065 15.0932 32.2135
630 2 37.5291 45.5368 49.4727
631 2 19.3899 29.4937 8.29704
632 2 46.0977 35.0223 47.4346
633 2 26.6051 15.3009 52.7133
634 2 17.499 48.8168 40.9329
635 2 45.6526 14.5058 28.3744
636 2 16.931 45.7547 24.8926
637 2 51.9056 12.5711 37.1879
638 2 55.3772 46.4118 47.3429
639 2 33.4427 46.2324 45.2231
640 2 51.2708 23.7465 36.0014
641 2 43.1262 37.1163 31.1724
642 2 52.9345 45.2634 21.3026
643 2 10.7413 23.8587 46.2562
644 2 50.7912 20.7906 40.1882
645 2 54.7328 6.09499 37.0121
646 2 41.3875 30.9589 16.1458
647 2 38.0243 36.7072 32.835
648 2 41.9177 6.62607 28.6511
649 2 28.2902 26.1797 15.8848
650 2 13.9116 6.43679 46.3934
651 2 28.4125 15.432 13.8068
652 2 30.0273 14.6023 25.8805
653 2 12.5811 48.7336 33.0638
654 2 18.6777 19.5115 10.4664
655 2 25.8427 10.0957 31.4732
656 2 12.3517 8.01382 50.3724
657 2 11.5068 10.2283 8.79449
658 2 17.238 45.9172 6.52541
659 2 49.0307 7.47987 31.373
660 2 28.0174 49.8076 47.2491
661 2 7.33083 40.4976 48.6666
662 2 37.5458 9.76133 41.4125
663 2 24.2541 52.3267 48.3296
664 2 48.9362 18.2154 46.3957
665 2 30.266 33.4487 51.9128
666 2 35.0492 22.3895 23.8943
667 2 53.854 15.8776 45.1472
668 2 22.3275 6.32064 33.6608
669 2 13.0265 42.5288 11.1575
670 2 9.62054 17.5579 8.50113
671 2 36.7964 10.7888 33.9918
672 2 31.2547 34.3439 44.2126
673 2 42.3587 42.6593 44.4233
674 2 23.6018 20.0329 34.8358
675 2 55.3826 32.4091 17.6386
676 2 52.5793 39.6171 17.313
677 2 8.07553 19.7236 51.7773
678 2 15.9951 41.4248 7.56379
679 2 27.5345 41.8025 52.3706
680 2 41.2983 47.8075 20.3546
681 2 25.5079 40.5631 36.09
682 2 11.7045 17.5373 14.2717
683 2 40.8466 13.8645 34.2615
684 2 35.0043 37.7053 17.8617
685 2 46.33 50.5589 31.0505
686 2 19.3815 11.796 49.1743
687 2 7.77362 7.1505 54.3977
688 2 31.995 44.0631 26.9673
689 2 14.3541 18.3532 21.2145
690 2 7.53008 33.4216 11.941
691 2 41.9216 22.514 15.7892
692 2 42.1959 14.1779 41.7373
693 2 16.4405 45.5666 51.3906
694 2 22.4006 41.6514 35.9048
695 2 39.6445 52.0067 20.5775
696 2 52.7513 20.2692 44.0523
697 2 17.6574 50.3144 52.8786
698 2 13.1818 24.7201 30.8258
699 2 14.2247 28.0686 27.9426
700 2 16.6167 12.1081 12.6163
701 2 23.6939 21.1476 31.6804
702 2 33.8086 42.0998 18.0696
703 2 15.7928 26.2872 44.8009
704 2 43.5944 46.1963 29.104
705 2 20.4422 14.6868 25.9919
706 2 40.5966 19.1421 32.6198
707 2 29.2117 45.8304 48.3334
708 2 32.4707 9.85705 48.8227
709 2 42.6547 33.2457 22.512
710 2 18.75 6.33732 29.5045
711 2 34.8715 15.3999 52.4477
712 2 42.8115 47.2959 22.7616
713 2 49.8239 14.7759 34.7044
714 2 30.2352 46.9096 41.1271
715 2 23.2811 48.2019 47.0688
716 2 50.1041 20.3192 23.2877
717 2 39.3025 40.9859 6.31655
718 2 27.9549 8.90719 17.8083
719 2 36.628 24.172 20.3596
720 2 54.3031 7.25899 9.34577
721 2 20.6407 25.4575 53.6613
722 2 27.5881 25.7932 38.1006
723 2 30.4934 12.1902 31.0505
724 2 49.663 36.8564 51.7094
725 2 26.6813 14.4789 43.5753
726 2 16.0334 19.9026 14.1264
727 2 35.2658 22.4947 54.0802
728 2 12.3732 35.8596 26.2897
729 2 8.37123 14.0733 46.7882
730 2 17.2549 49.0027 23.7852
731 2 45.6299 54.4249 52.5317
732 2 54.6973 17.6163 27.9224
733 2 49.3675 22.45 50.9652
734 2 51.1826 55.1934 52.7861
735 2 28.3907 40.2789 24.6227
736 2 25.1243 34.3845 18.78
737 2 39.4535 9.95351 15.6091
738 2 24.6432 23.7796 36.8585
739 2 55.5 12.6966 20.8471
740 2 42.8694 19.9266 34.8756
741 2 39.205 35.778 24.5542
742 2 24.3738 50.0286 9.16008
743 2 43.9614 33.4287 11.1325
744 2 43.2608 12.6798 55.2805
745 2 18.2367 27.7034 40.2001
746 2 31.6382 42.1121 42.6657
747 2 14.1687 35.7156 12.8123
748 2 26.9935 50.0487 13.7734
749 2 24.6235 46.8462 11.2255
750 2 47.7554 10.3787 7.57764
751 2 29.4022 21.191 9.12125
752 2 29.122 22.6743 44.9433
753 2 14.9546 26.0299 26.6749
754 2 53.7964 22.0864 48.3993
755 2 30.7668 34.1603 47.1873
756 2 17.5371 19.1238 38.0049
757 2 27.3591 21.3788 6.14689
758 2 42.9802 46.8679 10.974
759 2 21.3411 10.8797 27.9446
760 2 52.3628 41.4867 7.33038
761 2 47.6333 11.6606 18.8401
762 2 37.6858 15.7552 44.4686
763 2 33.0431 35.4736 48.6986
764 2 25.101 38.0218 25.0273
765 2 21.9499 6.82067 29.5374
766 2 32.8784 51.0773 38.8235
767 2 9.39547 13.8067 31.1779
768 2 41.7749 9.51777 46.9937
769 2 11.4028 21.0694 34.841
770 2 29.5451 44.6599 20.4005
771 2 27.6088 49.7503 44.3422
772 2 7.1486 22.182 43.7119
773 2 35.8454 35.1397 13.9828
774 2 32.0106 47.8027 12.7368
775 2 20.7349 45.1145 13.0289
776 2 36.5009 27.2901 55.1505
777 2 42.1962 38.2057 27.0226
778 2 26.1094 47.5336 20.0408
779 2 20.9586 39.4889 53.1317
780 2 15.4691 16.7625 7.50228
781 2 20.4107 9.09089 47.4789
782 2 44.0495 13.5932 44.436
783 2 16.6113 7.44512 14.8855
784 2 24.893 14.2735 36.1302
785 2 23.3671 32.153 24.2858
786 2 43.134 18.915 54.0802
787 2 25.6593 36.7926 28.2491
788 2 33.2822 45.5366 34.384
789 2 47.9075 46.9173 14.4113
790 2 14.1361 25.9824 55.5872
791 2 16.8598 38.9589 44.5338
792 2 18.0237 34.4096 6.43359
793 2 19.4201 38.4687 16.2641
794 2 10.5758 33.2843 29.4294
795 2 24.3947 37.145 11.2869
796 2 19.6482 20.691 42.5448
797 2 16.6329 15.9744 45.3307
798 2 34.7749 35.2352 24.0065
799 2 10.2373 30.6048 6.822
800 2 51.3777 26.219 46.2431
801 2 24.5678 24.2057 53.6333
802 2 12.4948 24.2574 48.5133
803 2 55.7796 11.2112 36.7537
804 2 29.9134 46.8642 23.9051
805 2 35.6778 22.4247 43.1591
806 2 47.6791 31.8225 47.2659
807 2 20.1092 29.4361 44.1939
808 2 24.3712 20.1499 46.7664
809 2 52.205 44.6942 6.75969
810 2 51.4774 8.45071 6.10575
811 2 53.9605 49.6179 24.8749
812 2 28.0747 44.9186 43.4804
813 2 49.78 14.1604 42.5863
814 2 49.9224 54.3735 35.7953
815 2 50.1361 41.319 34.0296
816 2 13.2668 32.229 18.1945
817 2 44.9208 14.0769 15.0191
818 2 33.2026 6.60357 30.2985
819 2 28.7231 9.48957 38.3434
820 2 47.3328 32.8779 35.0546
821 2 14.1323 53.9438 28.1223
822 2 36.5547 19.7407 15.7417
823 2 52.8531 39.2287 40.3887
824 2 16.0125 52.1803 38.6551
825 2 26.9088 54.7484 11.6768
826 2 25.8057 27.8326 39.9702
827 2 45.4454 38.9374 45.4616
828 2 10.8494 9.73654 17.6263
829 2 34.5114 52.7215 35.281
830 2 38.6857 32.1553 27.7129
831 2 31.6386 9.60317 45.6706
832 2 12.3039 44.8755 13.4847
833 2 51.6311 29.3654 52.0274
834 2 27.7444 31.7641 16.0953
835 2 34.0678 38.2968 29.2492
836 2 10.2068 11.2414 52.7259
837 2 24.7876 52.4912 7.79046
838 2 40.4947 9.14409 30.1502
839 2 42.9221 41.471 8.45401
840 2 22.1848 41.4213 51.0243
841 2 8.03878 26.1248 14.978
842 2 35.1329 26.9307 13.8293
843 2 33.8581 17.9077 22.0474
844 2 30.9152 55.608 43.5348
845 2 46.8223 35.3309 12.5946
846 2 53.8765 52.4744 25.4625
847 2 28.4836 42.6759 41.3528
848 2 53.3346 43.6876 16.5398
849 2 46.9931 28.9207 26.1451
850 2 41.024 27.8044 45.728
851 2 21.2702 22.7748 43.3341
852 2 45.1009 6.28164 25.5809
853 2 23.2035 43.093 12.3365
854 2 41.908 37.541 53.1539
855 2 13.8067 39.4277 47.6575
856 2 41.3188 25.2786 9.40115
857 2 42.8459 18.4722 26.218
858 2 55.7772 37.3636 16.5265
859 2 42.6364 33.1709 8.6964
860 2 10.6767 34.9951 9.16373
861 2 25.0723 47.7214 33.8401
862 2 44.672 8.8153 42.7263
863 2 46.1607 11.1286 49.4268
864 2 8.30928 35.4054 22.742
865 2 46.5925 28.7945 28.9901
866 2 43.2652 53.0059 12.3504
867 2 41.6052 29.0672 37.1347
868 2 16.2005 34.4379 39.0548
869 2 14.5575 27.8117 42.0916
870 2 48.3224 14.817 20.8794
871 2 37.6932 54.4889 9.25745
872 2 25.843 31.2597 50.5178
873 2 50.9904 18.8611 13.0588
874 2 32.4785 22.3749 7.90086
875 2 14.5914 34.7304 30.1315
876 2 25.7369 24.987 13.075
877 2 9.80905 43.4892 41.5608
878 2 9.3795 7.5004 19.9637
879 2 51.1662 48.9436 55.6351
880 2 49.8912 25.5872 53.499
881 2 41.4312 32.5511 18.9041
882 2 7.06943 31.8828 23.4
883 2 39.028 46.5276 24.552
884 2 11.3603 44.4258 17.8707
885 2 53.0212 45.4967 9.29179
886 2 48.5296 11.7214 9.97694
887 2 28.4477 46.5619 33.5247
888 2 23.657 22.9593 27.7978
889 2 22.1865 29.0821 36.1369
890 2 26.4974 51.8297 46.1523
891 2 28.9565 55.3409 53.1594
892 2 28.2377 40.2839 10.3476
893 2 25.7731 32.9927 14.3164
894 2 30.1935 25.4797 41.4066
895 2 19.2138 36.5967 53.8579
896 2 16.851 31.1623 47.9954
897 2 7.50701 28.7161 32.275
898 2 44.9733 38.1203 24.0263
899 2 35.1988 38.0235 10.745
900 2 28.5488 47.4878 9.98799
901 2 35.5829 43.7867 53.83
902 2 39.0376 7.06319 7.59185
903 2 25.679 45.1891 24.6736
904 2 7.8222 27.7752 44.7968
905 2 33.9282 25.3239 45.1214
906 2 49.41 7.5585 18.6785
907 2 54.493 42.3462 52.9567
908 2 23.027 15.9489 25.7872
909 2 35.7259 14.9948 35.631
910 2 14.0425 9.80633 12.9799
911 2 12.3879 24.2665 26.0522
912 2 36.7477 54.4108 47.3517
913 2 8.26414 26.1677 51.6351
914 2 14.8721 29.3704 34.3881
915 2 45.299 44.3099 24.913
916 2 47.2166 20.6405 12.1035
917 2 18.0419 12.0745 35.4392
918 2 41.7104 9.16911 19.4765
919 2 50.658 29.1727 13.9046
920 2 28.9765 6.83272 6.82673
921 2 8.0856 38.605 50.7976
922 2 40.3674 51.719 11.4676
923 2 25.6922 52.3256 39.485
924 2 24.3987 11.6258 20.5477
925 2 36.475 21.6904 19.183
926 2 23.9601 44.7664 33.2922
927 2 9.56515 48.4215 52.1529
928 2 11.6126 40.1747 49.1261
929 2 8.25119 11.2103 40.8395
930 2 8.85535 49.1692 35.375
931 2 6.57887 41.1387 45.5932
932 2 48.8457 52.4098 24.9816
933 2 19.3599 31.6873 14.8045
934 2 54.7689 9.55427 11.7987
935 2 8.26916 19.5967 6.2771
936 2 42.5405 34.1796 54.3099
937 2 7.85179 6.1233 24.4057
938 2 44.7457 9.11233 27.0482
939 2 37.1386 50.4235 44.502
940 2 52.9667 14.2103 12.0795
941 2 53.6412 52.2726 11.0568
942 2 35.6415 33.419 30.5778
943 2 6.61864 23.7356 19.7305
944 2 31.9908 11.583 10.0051
945 2 11.6971 20.5186 32.1544
946 2 17.5148 15.5165 49.8607
947 2 14.124 42.6279 50.777
948 2 9.14916 36.3794 52.4628
949 2 51.7906 7.73767 51.1636
950 2 29.6705 26.3041 53.7313
951 2 9.93009 35.9013 36.9186
952 2 16.5691 20.9987 43.9768
953 2 41.222 35.63 33.22
954 2 54.3845 30.6616 41.8932
955 2 38.9868 45.6183 7.69209
956 2 27.1125 6.61161 45.8391
957 2 13.0316 37.3352 6.11145
958 2 15.5479 34.8321 53.0944
959 2 55.7229 32.668 26.5055
960 2 15.3013 27.4383 11.4162
961 2 28.4339 22.8925 51.8943
962 2 16.678 23.469 10.9788
963 2 55.0181 39.0995 18.6489
964 2 11.9742 32.7514 50.6738
965 2 11.2532 19.389 51.3618
966 2 41.9348 16.678 52.2953
967 2 16.6494 13.8096 52.521
968 2 18.9944 23.3205 46.9531
969 2 50.8129 22.3386 30.0084
970 2 15.287 9.63507 28.5382
971 2 34.3772 13.1677 45.9242
972 2 20.3158 19.5278 20.8903
973 2 30.6585 18.1691 19.5995
974 2 11.931 53.3515 35.5114
975 2 44.8082 28.7211 46.1288
976 2 51.6687 10.6101 52.1939
977 2 51.5783 11.0184 29.3973
978 2 7.91262 23.5886 17.2355
979 2 52.2421 24.7618 38.2911
980 2 53.8427 48.8262 37.2228
981 2 25.2612 16.9496 16.4061
982 2 47.3809 14.8588 36.0385
983 2 32.699 44.7476 41.2785
984 2 48.4707 54.6056 50.7676
985 2 7.92612 14.3144 13.7812
986 2 20.1774 55.1717 43.6348
987 2 43.8891 55.6745 55.1106
988 2 44.8526 48.5225 14.2616
989 2 14.9488 48.3412 47.1894
990 2 51.6806 20.3979 16.6923
991 2 23.7162 54.5096 35.9488
992 2 16.5475 43.5745 13.9271
993 2 25.4257 11.7866 9.2002
994 2 22.4987 54.2506 8.71858
995 2 40.0964 17.3172 43.3055
996 2 38.3838 11.7357 26.3635
997 2 10.7356 51.4455 33.8489
998 2 16.7778 12.2351 42.6374
999 2 15.2292 46.0274 14.6566
1000 2 28.3654 48.9417 40.1144
1001 2 28.16 34.7481 51.0631
1002 2 20.7464 31.6444 29.5884
1003 2 10.6159 26.4409 13.6957
1004 2 42.0482 40.6331 42.4839