ITEM: TIMESTEP
0
ITEM: NUMBER OF ATOMS
9088
ITEM: BOX BOUNDS xy xz yz pp pp pp
6.0603444906775596e+00 5.5870593301397406e+01 -5.7148029273586483e-15
6.0603444906775650e+00 5.5870593301397406e+01 0.0000000000000000e+00
6.0603444906775650e+00 5.5870593301397406e+01 0.0000000000000000e+00
ITEM: ATOMS id type x y z
1 2 8.86394 36.9394 15.116
2 2 31.147 24.9506 31.4513
3 2 17.5971 46.6004 23.7622
4 2 35.8487 29.4164 31.2827
5 2 37.8645 21.1154 31.2731
6 2 9.45039 14.6615 54.7234
7 2 41.065 25.4905 21.8185
8 2 51.6043 46.327 17.9742
9 2 30.9729 9.79161 29.4183
10 2 26.1338 54.9516 32.4313
11 2 53.0155 46.9492 27.6873
12 2 30.141 11.3796 47.9144
13 2 37.594 34.805 51.7451
14 2 23.3386 17.3489 32.7914
15 2 17.9787 45.7309 47.3055
16 2 12.4707 53.5437 54.449
17 2 40.9902 24.4143 8.54649
18 2 8.70066 10.6413 32.306
19 2 41.5494 19.0012 26.3978
20 2 42.8032 20.2549 17.6894
21 2 48.0448 6.87209 45.6789
22 2 53.3001 9.7903 14.4044
23 2 48.9282 23.4334 8.03894
24 2 31.8095 27.6685 20.8468
25 2 16.1436 30.8254 49.4373
26 2 17.1549 45.2676 6.64049
27 2 6.59771 38.4077 42.9182
28 2 22.1858 30.9537 29.8406
29 2 44.6612 53.4139 8.70676
30 2 38.8934 47.309 47.9042
31 2 13.5396 35.0173 37.0586
32 2 34.0252 30.4942 24.1902
33 2 33.9929 48.225 14.1469
34 2 11.8015 22.1514 11.2198
35 2 55.5888 23.7251 39.6404
36 2 14.6474 40.0961 31.7502
37 2 12.1726 35.7772 19.4046
38 2 47.7938 42.9669 47.3531
39 2 55.6376 48.0125 28.3775
40 2 50.6923 26.1217 45.5609
41 2 25.4082 34.9084 13.6101
42 2 44.938 41.5297 16.8142
43 2 41.9228 32.052 19.2869
44 2 53.0241 19.6004 47.6742
45 2 48.2548 11.4571 36.6036
46 2 19.1162 48.9196 30.8858
47 2 38.9801 39.3449 10.0253
48 2 54.3041 11.5376 50.63
49 2 52.642 31.4742 29.8138
50 2 24.7894 7.83923 45.7703
51 2 49.7799 18.0409 29.4238
52 2 49.3902 16.5804 40.4167
53 2 41.9148 24.4825 32.4552
54 2 17.6033 41.2775 47.7301
55 2 39.7906 9.63878 28.2968
56 2 22.6489 30.7411 35.6241
57 2 25.6195 17.7661 20.8931
58 2 26.5085 23.5867 28.3587
59 2 38.7716 33.0657 28.1629
60 2 25.8483 15.3465 40.3225
61 2 6.69185 18.387 55.0649
62 2 48.716 26.4639 15.4478
63 2 27.5856 26.6219 37.6436
64 2 42.8363 23.9145 25.7962
65 2 16.2927 15.8812 23.2777
66 2 15.9776 49.1234 50.9769
67 2 33.8114 35.3884 42.1914
68 2 24.9497 6.77936 26.5958
69 2 51.8588 29.8753 51.5499
70 2 32.8754 26.4276 30.0241
71 2 42.2753 26.0872 6.64297
72 2 8.96362 24.6325 24.4745
73 2 27.1825 26.1471 41.89
74 2 50.4476 34.76 45.7328
75 2 26.8977 49.8992 53.5485
76 2 28.6302 28.3302 41.9543
77 2 53.7146 49.8962 51.1867
78 2 16.6566 10.7333 27.4604
79 2 23.0769 46.1734 52.5464
80 2 12.104 40.5288 33.4323
81 2 9.62635 28.3776 48.0483
82 2 44.5869 45.5386 23.177
83 2 44.4893 23.6228 48.7622
84 2 17.502 23.6479 35.8414
85 2 9.39902 29.5526 16.702
86 2 7.17283 25.7046 53.8501
87 2 51.308 21.8279 32.2479
88 2 37.6569 7.28452 37.6417
89 2 29.3282 35.738 13.1112
90 2 51.1643 9.38799 44.274
91 2 9.94328 47.2165 15.1633
92 2 44.8372 51.776 50.3831
93 2 27.3637 42.7318 54.505
94 2 19.9738 32.3154 29.1688
95 2 16.7082 48.5468 19.9498
96 2 28.3205 32.9395 51.3833
97 2 14.6413 25.8016 32.4084
98 2 45.0984 11.8113 22.8892
99 2 48.4635 48.7617 51.6559
100 2 30.6991 8.11339 48.4221
101 2 53.8077 17.4739 31.9199
102 2 19.3037 40.3544 39.8367
103 2 31.6366 14.4576 25.3101
104 2 44.6257 24.6519 15.5718
105 2 36.6911 15.3745 44.3595
106 2 25.1473 33.611 51.3241
107 2 15.3258 42.5245 40.6474
108 2 6.49012 37.6557 21.4947
109 2 38.2525 50.8737 26.2185
110 2 45.6301 18.438 31.9362
111 2 41.0056 8.29426 31.7975
112 2 55.656 14.8551 32.9375
113 2 13.0572 35.3145 27.0046
114 2 6.28021 43.7675 51.4497
115 2 11.9533 41.9135 49.5748
116 2 8.56938 45.9007 22.7413
117 2 50.0654 13.0562 17.0338
118 2 51.8725 29.4802 37.9727
119 2 33.7677 49.6866 27.1301
120 2 42.7047 26.0144 44.3618
121 2 33.7079 10.3978 19.1586
122 2 49.2024 44.0654 32.4184
123 2 13.4086 48.8932 47.322
124 2 50.932 26.3704 31.8094
125 2 32.5656 13.5435 36.4326
126 2 9.87084 43.6453 23.8321
127 2 36.1174 9.18862 15.3571
128 2 22.0311 30.9632 8.80001
129 2 51.9168 21.5249 39.1973
130 2 17.2744 17.6466 21.297
131 2 28.2972 6.81766 39.8446
132 2 50.6758 46.4411 31.572
133 2 8.09484 27.9188 38.532
134 2 45.7772 29.1746 17.1239
135 2 51.8305 42.352 19.9713
136 2 29.2737 44.776 42.5603
137 2 40.5254 33.6546 52.1622
138 2 18.126 10.6032 7.21698
139 2 27.2058 7.20346 11.5815
140 2 36.2586 22.5851 47.6567
141 2 15.7489 24.131 52.6943
142 2 48.2049 48.5614 21.7764
143 2 19.5887 12.0622 22.6245
144 2 38.367 6.11336 9.10585
145 2 11.4146 11.8264 47.4417
146 2 45.753 50.5568 22.4669
147 2 54.7611 34.7489 6.80668
148 2 43.8286 15.7166 26.1468
149 2 52.5183 9.7314 29.284
150 2 41.7587 30.1095 14.5348
151 2 37.3981 34.0671 36.1959
152 2 39.4728 51.005 53.2017
153 2 40.9362 37.6822 33.4191
154 2 9.68342 14.2069 14.5782
155 2 7.46666 51.4641 43.6962
156 2 54.5786 38.4819 35.8807
157 2 52.8109 46.6106 50.9259
158 2 21.0263 30.5376 51.2534
159 2 43.143 50.7325 9.13555
160 2 49.1601 9.77461 34.0493
161 2 50.0356 25.8457 25.9197
162 2 13.6874 9.30381 43.7341
163 2 15.4546 11.6745 13.4584
164 2 54.8788 45.9515 14.9669
165 2 52.0568 20.9324 10.0982
166 2 50.7718 28.7524 27.3872
167 2 46.063 39.3965 29.3194
168 2 29.3114 50.9565 23.4511
169 2 7.46325 28.3351 45.7779
170 2 35.3604 27.1041 46.2372
171 2 42.6141 48.4693 27.1713
172 2 38.6061 20.2748 23.4503
173 2 33.2892 17.111 11.6785
174 2 37.5638 8.12022 25.8699
175 2 38.4161 27.8714 42.6759
176 2 17.694 14.4374 18.7705
177 2 20.6428 41.9177 28.1292
178 2 54.5446 33.5467 9.78554
179 2 40.6205 38.4232 15.5023
180 2 31.7793 39.5385 53.4864
181 2 30.7921 17.2276 13.67
182 2 12.3896 27.2988 47.3524
183 2 18.5725 36.6905 46.9414
184 2 29.2783 23.75 44.729
185 2 7.20858 17.6273 20.8556
186 2 24.1164 9.56563 29.0456
187 2 7.10579 36.973 10.8373
188 2 21.0484 34.2006 15.8111
189 2 25.6789 39.3608 52.0937
190 2 54.8662 23.1131 26.6593
191 2 45.4865 45.0768 40.8343
192 2 8.70001 53.6415 35.2707
193 2 26.1261 28.4049 12.9603
194 2 12.2454 51.3584 49.4573
195 2 25.3565 18.7135 53.8632
196 2 52.4405 55.0773 46.8371
197 2 41.2442 55.529 30.6236
198 2 12.0835 16.2616 42.4154
199 2 12.2904 26.0434 38.3727
200 2 29.6924 36.9752 52.4892
201 2 32.6816 28.3325 37.3917
202 2 48.1556 19.0914 9.8636
203 2 44.0235 30.2525 46.0562
204 2 8.98802 47.713 46.2251
205 2 43.441 7.13337 18.0954
206 2 15.9081 13.1064 36.946
207 2 29.3651 45.0207 16.0326
208 2 39.8078 44.5939 45.383
209 2 27.0704 39.2921 24.3338
210 2 36.5148 12.3996 38.4974
211 2 18.3775 23.361 24.3688
212 2 13.147 40.6348 51.9323
213 2 33.4755 48.0185 16.8955
214 2 34.1411 13.9006 30.6549
215 2 31.2469 31.6001 39.4055
216 2 20.1864 27.4433 36.7779
217 2 26.0947 10.7586 7.43112
218 2 45.217 24.7858 36.0976
219 2 28.3871 21.0848 42.715
220 2 44.3683 23.6641 44.2286
221 2 43.3082 33.0214 44.2067
222 2 17.7158 6.75151 35.4326
223 2 52.532 6.56243 32.071
224 2 37.8364 32.7632 21.5544
225 2 43.2408 37.7413 12.0231
226 2 15.8813 49.409 34.2543
227 2 21.7806 52.3359 40.7288
228 2 51.9875 45.8231 12.9577
229 2 52.4173 12.635 53.8706
230 2 50.7088 21.1691 45.9305
231 2 18.5784 26.5754 32.6308
232 2 54.4876 35.4379 31.8566
233 2 19.234 42.8884 34.3697
234 2 37.701 47.5406 55.2305
235 2 23.3863 45.123 10.2352
236 2 54.9142 49.6941 35.6191
237 2 44.4194 35.9415 52.79
238 2 15.6711 42.9247 26.524
239 2 42.5685 28.5546 17.1038
240 2 30.0961 55.7337 54.8593
241 2 50.477 42.1324 9.39418
242 2 51.3179 51.609 32.461
243 2 44.7783 9.73124 18.8241
244 2 45.9211 34.539 27.2932
245 2 17.2344 28.0707 45.8423
246 2 40.3589 24.1581 52.4436
247 2 25.5315 17.6631 37.3457
248 2 26.7869 32.1354 9.44381
249 2 19.6099 37.5806 41.1959
250 2 26.6466 11.0485 18.2511
251 2 48.7957 18.9887 34.9544
252 2 29.9027 14.0969 54.9886
253 2 37.7067 40.8984 24.4208
254 2 36.4619 20.7124 54.114
255 2 53.6396 38.3858 33.0928
256 2 36.8015 26.2129 21.5015
257 2 40.798 11.9799 55.5848
258 2 43.3087 35.4954 55.3375
259 2 26.293 29.1093 32.0832
260 2 7.73482 42.5891 15.0927
261 2 31.367 38.6317 39.7119
262 2 22.2431 9.25638 19.6106
263 2 44.0316 39.5832 20.9736
264 2 29.18 14.9674 29.759
265 2 54.2886 35.9786 23.9734
266 2 29.6412 12.0282 8.92313
267 2 28.4495 49.2269 16.2407
268 2 32.1332 37.0832 19.6363
269 2 48.1321 12.341 33.5541
270 2 9.8051 54.2881 12.4028
271 2 38.4506 55.0692 12.7691
272 2 31.7914 21.482 46.7414
273 2 47.5147 41.5626 12.2654
274 2 9.88367 41.2673 41.1672
275 2 24.1093 8.05676 12.0723
276 2 36.9493 28.8446 48.7453
277 2 20.8971 38.2092 45.6399
278 2 38.8691 24.9136 33.0196
279 2 25.1391 46.2082 17.485
280 2 7.08783 20.5937 40.1751
281 2 54.3314 19.7639 38.0949
282 2 54.5307 22.2999 48.516
283 2 8.48087 27.5967 26.0195
284 2 38.9948 54.9943 55.2189
285 2 20.9895 49.2397 50.2985
286 2 46.9419 18.0161 39.3235
287 2 29.9408 24.8577 24.5812
288 2 28.8807 28.2267 28.4816
289 2 48.6804 13.7413 14.1139
290 2 29.7964 25.5676 21.4075
291 2 42.4292 55.5698 44.5096
292 2 32.3364 53.1875 29.4769
293 2 48.9079 13.5536 38.9379
294 2 35.5469 30.0262 39.7593
295 2 8.55113 22.8016 16.5552
296 2 44.569 54.9353 36.2329
297 2 7.67259 50.9763 37.154
298 2 29.8011 16.9341 38.8351
299 2 9.55681 46.3996 49.2184
300 2 18.7291 9.75863 15.9381
301 2 14.398 46.3728 19.8874
302 2 24.2422 8.28525 7.27861
303 2 50.071 15.4862 10.2716
304 2 7.99321 16.9009 53.2561
305 2 55.4692 54.3165 43.0871
306 2 23.0727 35.549 11.7823
307 2 52.2925 17.2612 53.9217
308 2 46.0741 48.3501 53.8496
309 2 14.7714 52.8627 50.8682
310 2 35.0956 12.6317 23.6704
311 2 40.1498 24.8987 40.3978
312 2 19.8558 12.9283 45.5953
313 2 52.5073 44.7951 38.1214
314 2 20.3776 55.3716 24.129
315 2 29.3694 39.1823 42.248
316 2 26.4911 51.4018 39.8115
317 2 20.3388 13.3186 38.9618
318 2 42.8985 55.7564 49.5148
319 2 31.9538 44.1656 55.6665
320 2 29.4885 25.6833 52.7431
321 2 23.5915 11.8285 27.1075
322 2 38.9941 27.947 18.5065
323 2 24.3703 21.8242 27.2156
324 2 21.2606 51.0195 44.1487
325 2 52.7701 43.4901 54.3301
326 2 46.6789 47.1753 46.7804
327 2 12.3883 52.6385 8.61614
328 2 46.1892 42.8602 42.2823
329 2 19.836 8.86492 49.465
330 2 12.8413 44.7611 41.532
331 2 27.9215 15.2737 42.5003
332 2 22.5753 12.0426 34.6093
333 2 40.8945 32.5935 7.22446
334 2 43.6405 18.4672 9.17765
335 2 21.543 6.82765 6.38578
336 2 55.7896 51.9881 52.99
337 2 49.9804 28.8596 17.6933
338 2 34.1668 20.9563 24.9635
339 2 12.5817 19.7739 41.9371
340 2 34.5434 35.2733 53.0568
341 2 39.838 10.2261 18.9427
342 2 21.149 51.6477 6.97178
343 2 21.7241 23.4995 35.9599
344 2 36.3068 54.04 55.7481
345 2 42.0827 10.401 29.9923
346 2 30.9741 7.27005 18.7461
347 2 35.8088 29.8568 18.1109
348 2 20.8732 39.0588 18.464
349 2 50.581 47.4272 22.9877
350 2 13.162 12.438 18.1572
351 2 28.6465 47.8998 23.9424
352 2 55.1324 52.9135 8.29806
353 2 55.709 32.3677 29.7513
354 2 22.5124 15.075 23.0834
355 2 47.4224 36.1127 46.7784
356 2 19.43 32.5926 20.71
357 2 54.3267 42.3454 16.5003
358 2 28.101 25.4165 18.6188
359 2 41.1272 24.5482 11.6648
360 2 42.8896 36.425 30.5639
361 2 22.5084 54.0374 12.2999
362 2 51.1605 52.7373 29.3911
363 2 19.096 12.7855 41.5069
364 2 47.3916 35.8126 41.6715
365 2 48.1402 11.8259 54.5173
366 2 42.1941 44.9739 10.7646
367 2 24.5845 33.1341 30.2072
368 2 46.0224 29.7042 54.3191
369 2 49.7256 36.6482 6.72763
370 2 35.025 15.4924 35.8176
371 2 41.5615 33.6709 35.5895
372 2 36.5435 50.0639 42.032
373 2 48.0299 38.4043 51.514
374 2 15.9272 34.5734 11.0082
375 2 55.5432 20.4063 28.552
376 2 6.78157 8.38896 45.1505
377 2 39.565 48.7785 30.2048
378 2 49.5498 39.1333 12.5647
379 2 46.1547 23.8661 6.80251
380 2 32.3171 39.2176 49.7312
381 2 39.2715 47.2042 38.5565
382 2 43.8082 25.3441 22.9319
383 2 34.4873 8.88094 41.9352
384 2 45.804 32.6449 7.7551
385 2 37.0158 25.3359 29.6997
386 2 20.7257 37.0089 14.6856
387 2 22.5954 32.0375 14.4811
388 2 37.9083 12.7924 40.8456
389 2 39.2885 27.7645 34.072
390 2 40.6119 36.0943 20.2632
391 2 40.8101 31.8038 39.9619
392 2 29.8808 29.2799 15.0012
393 2 15.4265 46.8225 42.0763
394 2 45.9249 33.3131 34.075
395 2 7.43993 53.8235 40.0727
396 2 15.5921 8.66976 33.5277
397 2 38.4642 7.18947 41.4658
398 2 55.818 33.6506 13.7631
399 2 11.47 26.6004 9.64825
400 2 43.9818 41.4887 41.314
401 2 38.6105 15.518 22.9927
402 2 24.8694 55.5675 14.3034
403 2 36.1477 28.8596 44.0449
404 2 50.9364 51.8438 38.2278
405 2 46.4072 47.8366 29.4091
406 2 6.40635 28.6448 30.0944
407 2 9.26383 37.9834 49.1311
408 2 11.231 49.4163 35.5964
409 2 25.244 34.4056 39.2846
410 2 30.2993 12.2635 13.721
411 2 46.3953 45.1132 54.3884
412 2 54.2376 20.4769 42.8887
413 2 34.3341 34.4278 48.6084
414 2 23.3218 25.4363 11.7133
415 2 31.7404 14.3235 12.3965
416 2 23.3378 14.3873 29.1585
417 2 41.33 8.9796 21.5034
418 2 42.7522 44.0151 32.5077
419 2 14.0046 16.9267 7.96537
420 2 46.1413 51.8891 25.4847
421 2 51.8578 36.1268 15.7865
422 2 14.085 34.3687 52.2583
423 2 20.1641 8.38845 46.3138
424 2 25.9141 36.6607 50.4343
425 2 37.5146 23.1421 36.7881
426 2 49.5178 7.08269 24.8125
427 2 55.3185 52.1688 18.3692
428 2 39.2372 53.136 17.2002
429 2 48.678 51.3364 44.3248
430 2 22.2501 26.6291 15.9805
431 2 50.6352 41.6539 39.9627
432 2 48.7558 20.1224 18.2611
433 2 48.1522 47.7015 27.2089
434 2 36.785 18.0648 32.006
435 2 53.8701 14.9647 54.0951
436 2 33.6457 40.6724 22.614
437 2 47.6179 42.4318 53.6368
438 2 16.3165 30.2198 13.8976
439 2 45.121 20.6749 28.01
440 2 33.3793 10.6232 27.7354
441 2 10.7489 14.5021 40.4785
442 2 17.4432 51.3369 42.448
443 2 29.1079 10.6029 55.5617
444 2 53.5333 26.7037 24.5173
445 2 24.5216 39.8478 15.378
446 2 32.6128 40.8774 32.7071
447 2 52.5714 8.50731 48.3536
448 2 42.2361 46.31 44.6092
449 2 55.0413 12.3725 16.7258
450 2 48.7183 32.9218 53.8981
451 2 30.936 29.3396 17.7344
452 2 20.2791 18.1003 9.28162
453 2 46.3883 10.195 53.3198
454 2 15.3174 47.5835 25.0049
455 2 23.6142 40.425 27.131
456 2 50.5211 14.7143 33.0371
457 2 48.5284 39.889 41.3495
458 2 17.937 12.5753 25.4435
459 2 26.9352 48.033 32.6471
460 2 32.084 9.74886 14.7607
461 2 6.31319 12.9425 37.4209
462 2 47.0746 27.6538 47.3912
463 2 26.3658 9.78953 23.9516
464 2 55.6064 13.6085 28.7269
465 2 28.7553 40.4558 13.6047
466 2 8.20058 32.4856 37.7307
467 2 43.7329 7.91285 45.3017
468 2 15.1643 44.4526 24.3293
469 2 27.3655 44.9012 23.8287
470 2 18.3489 39.8525 37.3524
471 2 14.4023 44.3729 33.8154
472 2 12.5976 14.3961 37.9958
473 2 25.0277 55.1201 8.8413
474 2 42.2228 15.0892 46.3461
475 2 13.8222 19.9529 23.4455
476 2 39.7407 15.4746 44.7689
477 2 9.26236 26.3345 44.3309
478 2 48.139 25.102 47.4227
479 2 12.2828 46.6902 50.8527
480 2 46.713 55.1672 7.94437
481 2 44.7278 21.9775 8.89418
482 2 54.1756 9.30621 44.2536
483 2 31.5532 15.0886 43.276
484 2 21.1915 6.58914 31.4205
485 2 42.6792 51.8371 33.1716
486 2 20.5484 28.7096 26.1441
487 2 55.3377 45.2906 21.2607
488 2 33.3801 51.9465 49.4765
489 2 29.6453 23.5441 29.2141
490 2 11.5615 30.8185 39.0978
491 2 10.6889 22.0912 31.3178
492 2 10.9075 11.3676 14.1409
493 2 16.6714 17.1387 18.424
494 2 26.3413 48.5821 28.761
495 2 37.7817 46.4879 15.6864
496 2 21.6379 49.3139 47.0293
497 2 29.1266 13.7099 25.887
498 2 43.5531 41.42 35.643
499 2 28.1828 38.1498 16.9961
500 2 33.1537 55.8366 8.65421
501 2 40.8084 17.6942 46.0961
502 2 8.05461 32.7656 53.4129
503 2 47.5799 43.4663 20.5732
504 2 51.1958 12.9258 37.4807
505 2 47.604 15.245 31.8666
506 2 41.2686 53.2797 12.2995
507 2 46.3473 53.7978 43.9531
508 2 26.8337 28.5271 22.2715
509 2 41.0406 31.2607 27.855
510 2 18.9063 7.26652 17.8802
511 2 52.8391 32.4816 53.0953
512 2 22.3363 49.3435 39.4874
513 2 10.8704 52.1565 19.5371
514 2 25.4931 12.6409 29.8324
515 2 10.7976 24.7086 51.3463
516 2 17.5373 14.9521 49.0083
517 2 6.25764 17.6376 43.295
518 2 54.6105 26.0787 43.4368
519 2 9.9851 43.3844 53.54
520 2 19.7167 13.4293 9.79215
521 2 36.8002 32.56 18.465
522 2 7.58075 41.4773 9.9314
523 2 50.9315 42.9399 35.7442
524 2 16.646 47.148 31.5506
525 2 21.7938 44.2272 38.5571
526 2 6.69852 9.08599 19.1224
527 2 23.6361 21.4151 31.3074
528 2 40.4024 20.5928 42.9443
529 2 14.6806 29.039 51.436
530 2 19.0202 35.4429 50.9572
531 2 41.5336 14.2078 30.7792
532 2 9.86931 6.68751 16.1956
533 2 50.3273 42.1985 24.0767
534 2 46.1379 26.2157 30.9815
535 2 32.9719 35.3437 35.6567
536 2 26.9743 17.2082 8.38243
537 2 37.4023 48.665 7.97302
538 2 48.0329 40.8443 8.12419
539 2 33.822 45.4136 8.45377
540 2 17.0736 25.4377 14.2169
541 2 29.6999 48.4523 50.2621
542 2 51.7453 28.3431 47.5206
543 2 11.8407 28.8539 31.8538
544 2 55.1291 48.4984 20.7669
545 2 45.1058 38.336 55.1299
546 2 52.8919 19.1849 40.4537
547 2 41.3757 23.5826 42.8778
548 2 29.193 18.4386 34.4615
549 2 27.4277 8.10702 32.2432
550 2 20.8731 46.6757 37.336
551 2 35.5928 48.2122 24.6997
552 2 17.0696 47.0075 8.99447
553 2 44.2383 31.4555 36.244
554 2 38.0175 29.0529 15.8263
555 2 11.2762 27.6427 28.0805
556 2 51.7141 21.8682 29.6278
557 2 38.1217 38.8717 30.9937
558 2 33.7779 44.613 25.7813
559 2 14.3061 27.3225 11.6314
560 2 50.736 6.35929 16.5045
561 2 33.8434 35.5649 38.4263
562 2 38.6123 35.381 29.9501
563 2 54.2202 15.1462 7.65261
564 2 6.46161 42.0535 20.5799
565 2 27.0817 19.7378 25.4329
566 2 20.3275 55.8281 13.9445
567 2 43.9049 16.2955 35.2023
568 2 13.4906 22.1539 35.8188
569 2 24.8603 47.2724 11.9612
570 2 17.7761 43.1489 31.4719
571 2 31.735 34.1468 23.1575
572 2 27.9574 21.2332 18.7048
573 2 12.8712 34.3375 12.2798
574 2 8.79873 21.9625 10.3569
575 2 54.2504 39.1277 17.3507
576 2 54.1629 22.9421 31.8721
577 2 55.1462 33.1188 46.2076
578 2 42.2996 29.3091 52.4275
579 2 48.1105 52.1426 11.0069
580 2 42.4543 27.7831 33.4944
581 2 44.2746 38.2047 23.9046
582 2 17.4893 20.5322 17.469
583 2 38.5281 33.9198 6.38375
584 2 23.9591 49.9239 36.068
585 2 19.0638 33.8173 23.6925
586 2 40.6647 9.46419 7.04845
587 2 26.6744 18.3981 15.0265
588 2 6.49897 19.1037 25.2739
589 2 11.4425 11.7558 21.0071
590 2 15.375 53.3952 31.7527
591 2 20.0019 25.5656 39.153
592 2 29.5913 48.1101 39.8397
593 2 46.7557 17.637 12.1543
594 2 8.24992 39.7549 15.0019
595 2 21.2957 39.3072 36.2266
596 2 15.6767 52.8462 47.7454
597 2 13.0851 24.8168 11.7582
598 2 9.88615 46.6892 31.7978
599 2 12.3366 40.5705 9.49537
600 2 40.2699 27.774 24.3197
601 2 15.6775 16.7881 51.4376
602 2 20.5302 44.6934 21.1335
603 2 54.9153 31.2212 48.7139
604 2 21.1978 37.8944 21.444
605 2 33.3526 12.6823 44.6881
606 2 47.3401 12.5596 43.0518
607 2 12.3209 16.9464 53.8275
608 2 31.3834 52.5958 14.5307
609 2 19.6326 42.8494 50.1741
610 2 52.3213 36.6452 47.6372
611 2 25.1275 7.36397 33.6717
612 2 45.1059 33.4487 12.5649
613 2 41.6999 20.5521 6.07205
614 2 24.5781 44.0578 24.9393
615 2 43.1561 9.10511 53.0282
616 2 34.7328 45.7853 15.3848
617 2 42.0125 51.2047 22.8803
618 2 37.5331 45.6491 21.0438
619 2 53.7499 50.0949 46.6828
620 2 9.88032 28.0586 11.5648
621 2 52.4047 38.5931 51.3344
622 2 20.0499 9.73441 55.0172
623 2 52.1208 7.97615 11.9395
624 2 6.51796 39.0679 49.2589
625 2 27.9784 18.1812 47.0304
626 2 49.1954 21.844 48.7263
627 2 29.8323 39.9977 35.1339
628 2 32.3376 44.2018 14.3394
629 2 43.2545 40.7284 25.2776
630 2 44.9351 21.3962 42.6277
631 2 27.1729 55.1846 50.7752
632 2 53.7047 10.748 40.5342
633 2 34.6225 41.0341 46.2556
634 2 25.5158 25.0423 33.7812
635 2 53.6529 40.7006 21.3337
636 2 24.8728 21.8518 18.2114
637 2 9.79306 37.9428 30.5734
638 2 12.8305 22.1842 40.3412
639 2 41.2216 21.7552 38.5017
640 2 8.4927 48.7751 29.9594
641 2 49.9665 13.4818 23.9747
642 2 10.7393 21.4216 14.4331
643 2 17.979 49.4323 39.7102
644 2 55.3217 46.6553 32.9922
645 2 13.2642 34.1948 29.9726
646 2 49.3512 6.90268 9.27335
647 2 45.6193 12.9029 25.8812
648 2 49.1408 32.8522 21.901
649 2 34.8872 53.0352 8.11346
650 2 21.7103 31.5792 38.6662
651 2 35.6357 41.0811 6.6537
652 2 37.4414 40.6213 19.2651
653 2 20.1078 24.5338 26.3663
654 2 26.619 46.8951 53.4792
655 2 33.0537 37.911 23.615
656 2 18.7177 35.3784 42.885
657 2 18.9946 37.9448 50.0501
658 2 24.9102 21.4128 49.4781
659 2 7.14134 33.3822 24.7296
660 2 35.829 25.8166 40.0217
661 2 15.0079 15.894 41.873
662 2 45.0936 36.0874 34.4698
663 2 30.2292 24.9063 41.4795
664 2 6.82391 44.0276 39.4627
665 2 37.9472 9.45559 45.2293
666 2 42.8719 48.2132 16.9453
667 2 11.8804 41.472 38.4613
668 2 29.5085 32.1219 26.5916
669 2 20.7629 18.5497 54.2393
670 2 16.8192 43.0356 51.61
671 2 43.7275 36.572 26.3085
672 2 38.1474 9.99624 37.4745
673 2 49.6456 18.0642 37.8796
674 2 31.4619 46.1297 27.8141
675 2 11.9681 9.85254 9.33825
676 2 10.3985 15.4053 10.2728
677 2 15.54 45.4659 44.7505
678 2 21.3562 17.7778 51.1206
679 2 35.0954 17.6793 45.4263
680 2 49.116 24.0818 13.2279
681 2 33.1388 15.7039 28.2759
682 2 19.1157 42.9975 7.44931
683 2 46.7555 37.6966 27.635
684 2 43.482 13.1248 9.02271
685 2 54.3368 29.0515 23.2501
686 2 26.7087 36.9964 43.4169
687 2 15.7657 33.897 48.8343
688 2 39.4955 19.9175 20.3646
689 2 22.8331 45.2141 14.5029
690 2 15.5842 9.58012 55.0938
691 2 49.7854 47.9865 8.80766
692 2 50.1969 39.9625 34.806
693 2 24.1652 21.4484 44.3772
694 2 30.7033 17.2932 29.2282
695 2 47.351 28.3687 13.4086
696 2 10.7512 46.2946 37.0908
697 2 25.1518 25.9302 45.9057
698 2 20.8768 50.1086 23.8029
699 2 22.2399 53.956 21.1558
700 2 23.9913 37.8292 7.83904
701 2 31.3323 47.1257 24.758
702 2 41.5602 18.2981 11.2716
703 2 23.4226 51.9595 38.2258
704 2 51.3901 22.1199 22.557
705 2 28.1822 40.2666 18.9337
706 2 47.9684 45.013 25.875
707 2 37.0574 21.5986 40.997
708 2 40.1675 35.5464 41.9151
709 2 50.316 9.27197 15.5451
710 2 26.4243 32.1961 22.6579
711 2 43.1072 41.483 45.7263
712 2 50.5787 23.9346 15.7548
713 2 54.7339 40.1744 29.3475
714 2 37.9091 22.3103 33.8117
715 2 33.8795 25.3529 38.3155
716 2 7.84262 46.3437 17.5035
717 2 47.0995 17.068 49.1798
718 2 35.3395 34.552 10.4528
719 2 44.3154 49.981 12.98
720 2 12.1002 32.2692 52.1455
721 2 28.4342 51.4555 46.5108
722 2 35.2791 51.7787 31.3892
723 2 38.0512 38.1994 24.5182
724 2 7.49281 12.7714 44.7816
725 2 34.6887 40.2869 36.9708
726 2 23.7843 45.0261 6.99295
727 2 42.6487 48.6648 47.0405
728 2 19.9883 12.471 19.5156
729 2 16.178 39.5358 40.2474
730 2 25.3079 24.856 17.0308
731 2 53.4083 30.3988 45.8766
732 2 13.291 43.994 20.8304
733 2 7.0949 48.327 43.9557
734 2 9.08396 30.7615 45.9372
735 2 36.0638 16.0165 17.6474
736 2 32.7369 10.1253 11.2882
737 2 46.838 35.2352 7.6988
738 2 31.7529 49.9836 29.6814
739 2 12.975 38.0131 14.2462
740 2 50.5806 45.8209 27.8239
741 2 47.0379 11.9685 17.7961
742 2 32.4061 25.8933 52.3702
743 2 51.6331 9.56153 54.1718
744 2 50.8635 39.1298 48.6383
745 2 25.6186 52.6145 33.7539
746 2 39.316 18.0883 35.8167
747 2 22.1119 11.8452 55.6901
748 2 34.4563 26.2527 7.02647
749 2 32.1794 22.9264 54.2213
750 2 55.3754 35.969 50.5746
751 2 37.1838 47.0998 52.0659
752 2 36.4691 48.6487 37.9383
753 2 22.8058 51.4886 19.9989
754 2 11.536 47.7307 41.7095
755 2 38.4315 10.2303 40.3542
756 2 25.2571 44.5997 31.2513
757 2 34.8389 47.2652 49.4965
758 2 50.619 22.4718 53.6028
759 2 29.0553 36.5671 21.035
760 2 10.2008 17.4076 50.5413
761 2 52.6038 37.9852 13.1433
762 2 45.6811 41.3484 37.5327
763 2 40.481 11.6184 41.85
764 2 32.2225 14.3786 17.4261
765 2 29.5441 32.635 22.6934
766 2 39.9061 28.4865 29.375
767 2 17.1964 39.3578 24.6362
768 2 49.5279 35.0856 40.0974
769 2 16.5265 47.0638 28.2021
770 2 37.1367 21.1124 13.355
771 2 36.8308 27.4673 38.0227
772 2 15.6125 47.4796 36.5166
773 2 43.645 11.3307 7.00296
774 2 39.4179 24.4933 55.6562
775 2 28.4037 21.3463 55.6497
776 2 44.3452 53.282 47.9134
777 2 49.6678 14.4385 20.3245
778 2 33.7977 23.4144 13.1941
779 2 28.4384 15.2683 46.3549
780 2 24.0773 41.7158 49.9631
781 2 27.973 35.2529 41.0734
782 2 52.0377 39.4225 37.6748
783 2 24.2972 32.7782 7.76148
784 2 32.2972 39.7845 28.0763
785 2 31.6676 10.1491 17.5747
786 2 50.5174 44.4339 47.1984
787 2 32.7752 13.5104 20.9692
788 2 40.9245 21.6162 27.5265
789 2 55.702 23.1999 7.60831
790 2 21.4441 51.9511 48.8795
791 2 24.5391 14.7967 37.436
792 2 26.3201 10.7412 49.2022
793 2 27.409 14.2158 8.99957
794 2 18.0057 9.21777 22.5658
795 2 32.7268 12.9874 54.2894
796 2 27.1504 46.3694 35.4499
797 2 23.5092 42.1793 38.801
798 2 42.4408 11.2191 16.9213
799 2 17.9401 6.30518 49.7164
800 2 11.049 51.5966 40.0252
801 2 31.9538 50.0488 46.6431
802 2 20.3464 50.2903 41.5951
803 2 16.7555 36.5153 27.7918
804 2 37.5758 22.9998 16.9659
805 2 42.9961 48.3487 36.317
806 2 55.4112 7.96135 40.3302
807 2 27.7811 55.1656 37.3349
808 2 31.8568 45.5504 40.2598
809 2 9.9555 20.4897 49.8568
810 2 9.15738 33.6328 49.1835
811 2 12.1394 25.4423 18.3967
812 2 35.5765 20.8994 35.9079
813 2 7.7692 39.97 35.8996
814 2 8.44287 30.6895 29.1597
815 2 10.6765 14.4095 28.0025
816 2 21.6647 9.23897 14.3337
817 2 53.2099 39.9969 8.3154
818 2 41.8371 33.0489 23.5651
819 2 34.8233 34.4311 30.2879
820 2 55.1493 9.1367 28.1347
821 2 21.8031 29.6558 21.4531
822 2 44.3861 45.3239 8.52974
823 2 10.4996 15.279 33.37
824 2 22.2805 27.0115 32.7877
825 2 34.6122 30.6077 54.6594
826 2 33.2196 53.5979 33.2136
827 2 53.0373 14.634 38.6853
828 2 19.6148 35.2595 11.8593
829 2 43.4813 30.3142 26.7584
830 2 45.8506 8.2722 20.868
831 2 39.09 35.7424 38.8099
832 2 19.5106 20.5425 6.57466
833 2 9.53482 54.8367 44.9398
834 2 35.6267 7.85304 8.8229
835 2 41.6305 13.9304 22.3168
836 2 15.7077 36.895 47.259
837 2 32.3108 28.3163 50.6943
838 2 45.3271 35.517 23.109
839 2 50.8156 17.4279 51.5928
840 2 29.5142 17.2929 44.0723
841 2 15.3348 51.5796 8.41333
842 2 43.4654 53.2922 55.1199
843 2 41.6927 43.3866 15.0885
844 2 38.6213 31.675 37.2821
845 2 54.6814 11.111 55.362
846 2 11.499 28.2685 18.5255
847 2 36.2929 18.4608 34.7929
848 2 11.4513 19.8646 9.75324
849 2 54.55 54.8784 19.742
850 2 48.5085 53.6721 38.9448
851 2 29.0489 48.5023 36.7846
852 2 53.0422 31.9991 18.7368
853 2 30.7927 19.2948 55.5338
854 2 49.4872 13.691 46.3653
855 2 21.6153 15.3886 40.6806
856 2 49.0258 51.4686 52.4182
857 2 49.9943 44.5894 19.235
858 2 13.2389 12.9953 12.1884
859 2 50.2527 9.42427 51.4561
860 2 18.0552 10.6871 51.5285
861 2 33.1355 23.0204 26.8465
862 2 52.4973 34.6601 36.0608
863 2 53.6521 36.8465 42.6578
864 2 15.9357 13.3216 16.3863
865 2 6.82734 52.9708 20.8917
866 2 50.7703 28.8769 54.6183
867 2 48.9188 55.3484 29.904
868 2 24.0852 10.5455 31.9917
869 2 21.8409 53.5574 35.4661
870 2 55.5489 41.5937 12.8392
871 2 45.0074 30.5685 51.3096
872 2 33.1314 7.3431 43.5517
873 2 9.05701 44.6172 6.3778
874 2 40.0256 48.0542 50.9591
875 2 21.9639 10.6597 23.2524
876 2 33.6783 51.2615 55.6887
877 2 16.9271 19.2767 35.0315
878 2 17.6976 32.936 13.3286
879 2 8.90998 25.1223 48.8256
880 2 7.80505 51.2711 46.5923
881 2 49.345 8.54762 12.3975
882 2 14.4746 7.70782 17.033
883 2 46.6666 22.7546 17.491
884 2 19.193 20.1592 11.2281
885 2 10.7626 21.368 52.5989
886 2 6.23453 37.8051 53.293
887 2 36.2604 22.7514 26.7548
888 2 32.6008 50.8071 20.3382
889 2 29.6965 54.9039 29.3322
890 2 33.1926 25.3639 41.3775
891 2 37.2289 30.9418 46.4482
892 2 35.7344 16.7167 52.9122
893 2 33.4752 8.85764 7.51886
894 2 37.8223 51.4307 34.6482
895 2 27.3735 12.3617 46.8883
896 2 24.0818 6.92491 40.9957
897 2 14.9506 54.2866 25.1427
898 2 52.7339 14.7139 16.429
899 2 42.6819 13.9151 53.7545
900 2 35.3276 26.2165 52.9371
901 2 43.3744 19.6437 47.3771
902 2 46.5518 32.5359 49.9677
903 2 33.2062 21.1904 17.8651
904 2 15.5895 53.3289 38.0921
905 2 41.6313 51.1648 38.1148
906 2 7.70294 32.6667 11.9561
907 2 12.0783 18.2147 46.6231
908 2 30.5471 41.8685 18.8045
909 2 43.3765 40.7482 28.5105
910 2 21.191 35.2627 55.3968
911 2 20.552 50.1487 18.682
912 2 44.2294 30.3969 40.631
913 2 15.2045 52.1392 45.0267
914 2 22.6023 55.4065 27.6297
915 2 53.2896 20.3175 18.2696
916 2 54.9799 46.5619 55.4983
917 2 25.4015 37.2382 28.4611
918 2 50.1003 35.148 10.5003
919 2 8.48608 54.9092 6.83285
920 2 36.1405 31.8667 49.7184
921 2 15.6707 14.218 44.1944
922 2 47.8991 27.347 54.0027
923 2 33.2056 28.5756 32.4646
924 2 32.1225 37.224 13.7285
925 2 44.2501 47.3129 12.1373
926 2 31.5386 20.6108 26.0252
927 2 16.6805 24.181 44.8392
928 2 19.2158 15.7437 42.2788
929 2 15.6348 36.7981 34.0237
930 2 16.4469 24.9181 28.5807
931 2 14.4772 17.1361 38.9349
932 2 6.55211 28.0048 17.865
933 2 27.2135 7.45569 7.79792
934 2 15.7464 30.8702 54.7359
935 2 15.7351 45.1844 49.1731
936 2 50.2602 10.5471 47.4919
937 2 15.3644 31.661 17.6523
938 2 52.4999 35.0159 19.8903
939 2 44.5179 25.6508 40.6452
940 2 8.84576 39.6188 6.93803
941 2 11.5473 28.1808 54.276
942 2 42.8503 9.58346 23.9067
943 2 14.2622 49.6477 12.9314
944 2 39.4379 37.6583 53.2038
945 2 19.5295 46.0519 26.0314
946 2 25.3188 41.6982 42.9185
947 2 21.7063 18.3609 44.0999
948 2 16.7523 12.0881 45.4575
949 2 9.97433 33.1781 44.3863
950 2 37.5177 51.7469 46.9044
951 2 17.1283 11.9793 30.1484
952 2 24.1755 46.8473 37.278
953 2 49.465 12.0877 26.1085
954 2 12.5963 6.07366 34.7552
955 2 46.0572 18.9196 50.8031
956 2 34.1175 32.3646 38.7493
957 2 20.6765 12.9755 49
958 2 23.1705 10.3861 46.2254
959 2 13.6637 8.76776 19.5998
960 2 22.8852 52.9939 54.5944
961 2 36.1811 48.6468 45.2215
962 2 22.9952 48.5797 54.2276
963 2 14.6075 15.8098 10.4963
964 2 19.6564 8.68979 43.5751
965 2 20.2878 44.3265 45.3576
966 2 49.5722 42.4924 45.2937
967 2 24.1545 37.6003 45.7467
968 2 26.9289 48.4746 40.2791
969 2 9.74973 51.1037 23.3947
970 2 23.1389 35.5717 22.115
971 2 42.1366 39.0095 39.0878
972 2 27.3637 45.3537 13.7707
973 2 38.2413 43.6831 12.9804
974 2 19.5967 28.998 28.9834
975 2 52.4401 54.4984 39.0945
976 2 9.40493 36.0449 45.4825
977 2 9.17362 36.9507 22.3378
978 2 15.3691 48.8529 10.4931
979 2 10.2863 50.3549 31.301
980 2 11.8394 24.799 30.841
981 2 33.4441 42.6474 9.92276
982 2 7.50069 40.8729 28.0686
983 2 40.1315 20.9572 34.3828
984 2 6.45476 30.2833 43.6962
985 2 15.8874 39.9005 6.78494
986 2 27.7337 31.5581 36.9538
987 2 51.221 31.0637 48.4857
988 2 52.6699 24.4489 7.14996
989 2 22.9513 24.3996 40.0849
990 2 9.35491 45.9849 9.47704
991 2 31.3473 30.4138 29.2169
992 2 24.2956 19.7083 7.07588
993 2 34.3098 37.9854 52.2082
994 2 29.6394 29.9105 51.579
995 2 47.8433 43.0049 36.8903
996 2 45.8751 37.6967 19.1461
997 2 18.3051 27.0283 27.1604
998 2 23.4464 38.0549 35.3843
999 2 22.8832 22.0272 7.97353
1000 2 35.8752 24.8588 32.4874
1001 2 35.4145 10.6611 44.328
1002 2 28.551 7.3985 22.7278
1003 2 18.7058 53.6792 7.33219
1004 2 49.656 16.3881 35.6122