ITEM: TIMESTEP
0
ITEM: NUMBER OF ATOMS
9088
ITEM: BOX BOUNDS xy xz yz pp pp pp
6.0982083070429045e+00 5.5832729485245551e+01 -5.7061145849315134e-15
6.0982083070429098e+00 5.5832729485245551e+01 0.0000000000000000e+00
6.0982083070429098e+00 5.5832729485245551e+01 0.0000000000000000e+00
ITEM: ATOMS id type x y z
1 2 22.5888 14.2236 46.2429
2 2 44.1104 53.7015 16.5233
3 2 31.8394 24.4541 54.0944
4 2 55.7867 10.3007 9.09962
5 2 52.4375 48.7894 12.5086
6 2 23.9585 42.7707 35.3908
7 2 55.2008 53.3828 52.8826
8 2 15.6403 24.2786 48.5677
9 2 47.1729 36.4917 11.4808
10 2 43.7373 30.9018 12.385
11 2 16.7078 24.902 7.84714
12 2 44.2426 38.9335 29.1064
13 2 52.251 12.8175 33.3571
14 2 37.7729 44.6584 13.7659
15 2 32.0829 23.6725 28.6255
16 2 26.7459 31.6244 35.6903
17 2 55.7622 51.7976 39.7168
18 2 23.1422 38.5431 13.3736
19 2 55.6943 46.6842 8.11948
20 2 7.35959 47.9549 48.4375
21 2 12.1801 34.3323 26.6415
22 2 17.4654 37.6439 44.9605
23 2 13.7495 51.5918 38.9252
24 2 45.9199 55.6193 51.5687
25 2 29.46 9.4471 33.0301
26 2 31.8644 22.7551 37.3413
27 2 20.9041 16.5038 24.0341
28 2 36.3375 9.86838 10.6156
29 2 8.8079 31.1471 40.0726
30 2 53.1376 25.2239 28.9097
31 2 28.1068 13.4458 18.4596
32 2 47.9059 8.8902 55.2555
33 2 47.709 25.6818 45.2215
34 2 26.5474 49.885 41.9975
35 2 20.7057 51.6763 20.6442
36 2 29.0752 18.1436 12.2005
37 2 26.3732 13.3069 50.242
38 2 11.9821 21.3073 28.9922
39 2 20.6609 24.564 7.86928
40 2 15.2111 53.6223 27.093
41 2 39.0741 14.8691 45.3139
42 2 9.67629 19.6719 47.8633
43 2 6.61558 10.4732 50.3985
44 2 17.5555 47.4454 29.1347
45 2 12.7969 39.1733 18.1072
46 2 33.3224 26.7235 12.2952
47 2 53.9067 17.0789 41.5238
48 2 18.7061 39.2133 31.9649
49 2 20.0346 55.732 10.3198
50 2 38.8907 35.6316 27.0509
51 2 14.5016 45.3591 13.9718
52 2 13.7118 44.6889 21.4862
53 2 55.7965 51.3583 15.4792
54 2 32.284 19.1738 28.8261
55 2 53.5917 37.7984 9.32063
56 2 37.0066 8.37633 17.2107
57 2 39.571 45.5221 51.6886
58 2 40.6013 51.0875 9.70751
59 2 54.6233 13.4616 54.5714
60 2 39.8256 42.9683 21.6139
61 2 21.221 46.3593 36.0729
62 2 13.5382 53.7749 46.6331
63 2 41.07 54.8626 16.6006
64 2 7.21294 51.3788 7.06681
65 2 30.8842 43.4034 54.1536
66 2 30.3206 27.1175 32.1219
67 2 47.8111 13.4762 23.4083
68 2 39.1662 34.4194 7.86386
69 2 16.8593 7.50406 33.5293
70 2 45.2336 54.4652 13.8582
71 2 6.7611 53.714 37.2767
72 2 22.7718 53.6755 55.1897
73 2 41.4611 53.6203 23.0904
74 2 14.8212 12.9569 26.986
75 2 41.3528 27.6743 34.9628
76 2 43.1347 6.29968 23.5339
77 2 18.05 27.6769 32.5178
78 2 30.6726 38.5756 8.81267
79 2 37.5314 24.2367 33.649
80 2 26.4381 18.7998 14.1757
81 2 23.6338 6.33901 29.1928
82 2 8.78039 23.4654 53.8489
83 2 9.13544 51.2771 30.112
84 2 31.506 51.4193 16.5096
85 2 23.6285 7.1553 46.9683
86 2 21.6391 53.4306 35.1147
87 2 13.8723 47.6472 10.3433
88 2 52.2656 34.8734 18.4132
89 2 43.8223 13.7073 44.189
90 2 15.6741 36.8822 25.547
91 2 24.1228 24.9681 45.7299
92 2 8.77572 29.6179 31.5339
93 2 44.4504 18.0364 35.5557
94 2 33.6186 10.6237 9.79284
95 2 30.1965 26.1965 51.7236
96 2 42.7919 12.7703 31.649
97 2 28.5913 53.6864 13.9388
98 2 9.12148 39.5298 53.9026
99 2 12.7672 26.666 32.5861
100 2 44.7449 35.8874 29.3942
101 2 18.4421 45.0407 12.9922
102 2 33.708 18.3992 20.9864
103 2 46.061 41.99 6.50417
104 2 9.4295 52.4188 46.6991
105 2 50.8056 42.965 25.5315
106 2 40.0703 10.6907 32.3603
107 2 29.4546 20.7894 21.9089
108 2 21.0435 15.3897 52.6648
109 2 52.5419 29.6386 7.21553
110 2 10.3915 45.8799 13.3425
111 2 53.7572 35.203 11.4296
112 2 20.4307 42.3388 13.1681
113 2 27.2421 13.1867 8.53133
114 2 20.9166 21.7431 32.5754
115 2 26.2527 19.9269 30.7035
116 2 25.3146 23.7084 54.1082
117 2 14.0076 40.771 47.7857
118 2 16.0478 7.31762 19.1534
119 2 47.8049 27.6955 8.04766
120 2 6.66633 54.8405 26.6178
121 2 47.7447 37.5244 49.4695
122 2 13.445 21.9191 13.9622
123 2 27.5918 27.1327 28.5794
124 2 13.5221 6.54681 13.2204
125 2 46.7542 41.5244 17.7509
126 2 23.3461 21.5263 54.8314
127 2 50.737 36.5938 46.1755
128 2 36.2332 9.06453 39.7732
129 2 16.7484 49.7124 19.6897
130 2 31.6628 45.6349 52.1996
131 2 42.3123 34.5703 20.8711
132 2 15.1585 24.3462 12.7484
133 2 23.5809 6.89025 17.3104
134 2 10.41 7.13296 48.2443
135 2 17.4199 21.1532 51.5768
136 2 43.0588 22.5639 23.1478
137 2 54.8049 14.4455 32.0399
138 2 31.7419 38.2562 37.8546
139 2 42.271 36.1967 41.885
140 2 50.014 55.6693 32.3383
141 2 29.9371 52.0876 34.0794
142 2 12.6668 26.1768 52.5379
143 2 33.8669 39.5103 53.5199
144 2 52.401 34.0275 40.3941
145 2 25.7771 39.2307 28.6778
146 2 10.3233 28.7586 53.3998
147 2 19.5356 12.7425 37.64
148 2 8.0347 43.3861 7.35436
149 2 16.7913 36.7855 10.8697
150 2 55.8 8.04348 45.5969
151 2 50.4703 11.6151 17.5956
152 2 53.8407 29.0013 34.1158
153 2 54.9589 15.1682 14.27
154 2 23.983 42.0002 45.134
155 2 21.4153 29.3687 24.9013
156 2 18.8616 16.5332 17.0957
157 2 17.2471 24.4419 32.0553
158 2 33.4761 9.07051 30.948
159 2 7.44165 28.2875 40.3505
160 2 13.9203 37.4072 15.3414
161 2 15.1175 6.70742 10.3231
162 2 27.6596 37.1443 24.7315
163 2 29.7813 37.5241 43.0536
164 2 19.3369 23.737 45.8495
165 2 16.5489 48.326 41.014
166 2 12.4698 53.6479 8.28381
167 2 10.1412 16.9329 10.3036
168 2 43.8865 29.3019 54.9886
169 2 21.5583 6.3394 27.1597
170 2 49.737 54.5366 27.2122
171 2 6.83176 26.7831 7.82612
172 2 52.5514 47.8992 54.9494
173 2 46.9438 44.7386 42.251
174 2 51.9673 36.3384 7.4808
175 2 53.1339 55.6422 24.1041
176 2 32.2433 42.1316 49.2519
177 2 34.7664 20.1755 8.61114
178 2 19.0586 12.5222 42.7379
179 2 55.196 16.3258 46.4306
180 2 43.6323 20.0385 33.5827
181 2 44.5678 44.6896 44.5658
182 2 25.95 54.9147 28.4527
183 2 33.4483 13.4795 29.6142
184 2 43.243 51.168 25.5815
185 2 21.6945 44.9001 51.7333
186 2 38.3442 37.4455 10.1549
187 2 18.7745 13.8826 40.0437
188 2 35.3069 12.2248 46.8633
189 2 40.2461 17.0767 33.982
190 2 18.8529 51.7718 7.70284
191 2 9.76377 23.3399 22.1409
192 2 22.9337 31.291 16.1478
193 2 40.1855 6.3382 44.0169
194 2 26.5501 29.525 30.8597
195 2 39.3607 46.4251 35.2331
196 2 16.6994 33.0629 27.839
197 2 53.3473 32.3047 11.6562
198 2 26.3013 44.3077 24.2083
199 2 26.7053 53.9993 19.2173
200 2 42.4994 15.6823 36.3072
201 2 45.6087 10.0241 16.9259
202 2 12.7074 46.6549 40.8951
203 2 10.0286 7.31218 26.801
204 2 23.2613 25.6887 27.34
205 2 9.31217 33.8181 50.2751
206 2 30.2382 41.2591 17.8492
207 2 44.0607 23.0032 46.7539
208 2 53.9556 22.5927 26.7286
209 2 41.2539 16.9497 55.3513
210 2 51.1516 40.3732 19.6741
211 2 32.5705 51.0667 55.7026
212 2 27.6942 18.8319 33.0795
213 2 47.6248 26.1601 48.1131
214 2 48.2937 41.381 11.7125
215 2 46.1175 9.60398 20.2401
216 2 34.8855 6.16065 18.2618
217 2 40.1124 38.2151 38.7044
218 2 11.1734 53.4924 16.4862
219 2 40.3667 50.7626 23.3515
220 2 8.50575 50.8393 25.8039
221 2 7.23985 8.00876 26.6324
222 2 31.8509 34.5088 16.0784
223 2 17.256 34.0213 12.955
224 2 50.8976 11.0227 52.4761
225 2 8.11338 17.2599 44.5414
226 2 30.2242 27.6253 15.7524
227 2 36.2092 30.3409 21.7878
228 2 16.2303 24.0155 43.3818
229 2 16.6652 40.604 34.8692
230 2 15.4615 48.9689 27.4745
231 2 33.0929 54.5143 13.7987
232 2 18.7654 13.4565 12.7056
233 2 33.1696 21.1794 15.1607
234 2 52.0666 25.4796 36.2902
235 2 37.7062 23.6974 40.7969
236 2 20.1176 24.4389 16.2039
237 2 8.73736 13.7399 33.5527
238 2 27.4645 22.0042 6.88288
239 2 6.7847 6.4327 48.2936
240 2 43.9882 32.7984 38.5348
241 2 15.3272 19.8061 39.8319
242 2 16.0716 29.3497 13.4855
243 2 9.18159 37.383 49.666
244 2 10.3312 12.1362 9.1618
245 2 31.0541 6.35681 27.052
246 2 53.8739 51.6133 33.237
247 2 39.7222 45.3015 18.6954
248 2 41.3183 9.93185 40.4158
249 2 33.8536 15.7422 21.8859
250 2 40.9815 38.8067 49.5678
251 2 11.4128 48.2045 12.1582
252 2 43.4722 41.7477 35.7993
253 2 51.9799 19.0801 55.2977
254 2 50.7509 48.5312 35.587
255 2 17.8448 17.3821 14.4919
256 2 50.7219 53.8305 52.4211
257 2 55.3896 39.528 36.4712
258 2 6.83681 11.0692 34.4378
259 2 42.2111 8.82682 14.5324
260 2 23.4236 21.1867 47.843
261 2 45.3623 16.4216 20.5259
262 2 36.2245 36.7532 50.1312
263 2 8.80415 17.4562 51.9967
264 2 43.312 42.2104 10.7705
265 2 19.0853 13.6033 55.0325
266 2 46.3579 39.3714 39.7571
267 2 42.9339 27.1029 47.3446
268 2 46.0876 15.0778 50.6566
269 2 12.6459 39.6607 14.9138
270 2 24.0277 32.1697 43.3325
271 2 52.1158 33.1178 43.4044
272 2 45.6855 49.0461 28.0152
273 2 12.4656 19.3087 43.4851
274 2 24.0252 19.3373 22.5897
275 2 38.6957 35.5361 42.8723
276 2 51.1331 7.40103 30.1805
277 2 34.8629 14.7199 25.5872
278 2 52.285 6.61003 13.3777
279 2 39.3517 24.2203 47.5497
280 2 21.7529 48.44 21.0532
281 2 19.3951 48.0312 19.1767
282 2 19.204 49.8831 29.6765
283 2 21.8477 55.2376 7.93485
284 2 53.54 32.9363 36.3287
285 2 35.3748 26.995 31.0209
286 2 11.6985 46.1411 20.2424
287 2 44.1855 53.0433 55.4968
288 2 43.082 55.6472 9.82143
289 2 13.0042 41.247 45.001
290 2 43.9208 53.2177 52.1664
291 2 6.70318 33.4524 25.9856
292 2 46.3629 31.2123 10.1362
293 2 13.6832 41.604 20.4593
294 2 50.4946 8.23089 20.8237
295 2 23.053 50.4462 47.9525
296 2 8.88604 32.4524 17.3422
297 2 21.8973 28.8517 17.7693
298 2 43.9512 44.8412 20.5071
299 2 23.8071 24.6087 30.5931
300 2 30.6241 35.15 45.0249
301 2 27.2144 25.4898 52.4622
302 2 37.8268 31.781 41.3997
303 2 14.6043 43.1459 41.0362
304 2 22.3288 44.7483 33.6978
305 2 19.8237 32.4554 24.5088
306 2 37.5276 13.2879 43.1435
307 2 16.6538 45.1488 35.3029
308 2 10.3725 25.9251 34.7833
309 2 29.2676 30.9881 32.3212
310 2 49.2663 40.5416 54.4814
311 2 54.2965 52.4577 21.6262
312 2 34.3158 40.6789 26.7455
313 2 16.7574 22.3218 19.3897
314 2 34.2804 33.5091 54.9203
315 2 44.0996 17.2321 23.4512
316 2 41.5675 29.6411 20.9179
317 2 34.5942 40.9475 20.0872
318 2 7.62176 33.794 30.5451
319 2 48.6604 19.5095 35.3644
320 2 43.7274 53.231 33.8143
321 2 37.8603 39.5647 8.2896
322 2 53.3122 55.5944 49.3849
323 2 38.3176 49.3966 8.49957
324 2 36.0035 29.3467 25.3084
325 2 17.2337 21.283 35.2011
326 2 11.4555 25.321 27.6674
327 2 26.4162 30.6613 39.6612
328 2 10.8685 20.6302 23.5866
329 2 33.8202 36.4752 30.6451
330 2 26.9334 23.0617 22.3643
331 2 42.0322 43.0477 23.7212
332 2 36.8964 39.6955 15.5861
333 2 8.90596 13.1224 38.3572
334 2 7.86452 46.5834 40.2342
335 2 37.6758 35.5746 36.4553
336 2 19.9243 29.6773 33.8719
337 2 14.5698 6.41726 49.0175
338 2 48.201 48.5752 55.8123
339 2 26.7512 47.804 22.9603
340 2 49.0799 13.5675 34.6799
341 2 53.9387 38.153 49.928
342 2 35.601 29.1616 37.5669
343 2 36.2473 51.626 16.2134
344 2 49.0868 31.4251 37.8979
345 2 6.57307 38.4567 11.6844
346 2 47.2109 35.415 51.4016
347 2 49.9269 7.40438 48.8451
348 2 34.9942 16.8933 49.3259
349 2 17.2613 25.1308 54.6137
350 2 27.5649 40.2978 48.4712
351 2 42.426 25.273 54.9223
352 2 19.4256 30.9133 39.2845
353 2 20.0369 10.8012 11.3751
354 2 36.409 43.0075 54.1023
355 2 12.3604 14.2721 28.0792
356 2 33.997 10.918 51.5305
357 2 18.5819 19.7889 47.2598
358 2 42.2189 52.8032 49.5364
359 2 55.6362 52.0031 42.5414
360 2 7.02336 13.8017 11.7511
361 2 34.5708 33.7643 45.0342
362 2 12.5655 30.1497 8.28637
363 2 33.3428 40.9996 22.6224
364 2 11.9639 14.0027 23.2842
365 2 12.2773 39.8431 35.7311
366 2 6.49655 23.5442 41.7139
367 2 40.0692 12.7064 9.94704
368 2 11.0127 9.48027 36.921
369 2 14.8512 12.3486 38.3804
370 2 49.018 43.6934 17.1146
371 2 51.8249 9.41906 13.7026
372 2 50.544 28.0066 23.5793
373 2 12.4061 16.4576 32.8946
374 2 29.8151 12.1825 41.9074
375 2 20.7436 47.7485 9.71466
376 2 21.1638 36.1683 26.4149
377 2 53.8339 26.8791 11.2766
378 2 14.1132 16.7518 43.6861
379 2 10.6523 51.5249 37.8461
380 2 46.126 17.1244 31.0004
381 2 53.5502 25.2913 19.5357
382 2 8.39983 52.6775 54.1208
383 2 49.5143 36.4362 21.7323
384 2 7.96017 10.5308 40.3583
385 2 51.2156 52.5149 11.1149
386 2 33.4272 12.8685 44.864
387 2 37.453 9.69259 46.312
388 2 51.9319 40.7699 22.0121
389 2 8.2227 54.7674 16.2736
390 2 55.0773 14.0923 51.0647
391 2 55.4356 9.48442 21.2569
392 2 44.1243 7.13255 45.7036
393 2 29.3853 25.0231 23.3035
394 2 12.9574 10.5504 11.6079
395 2 22.2627 31.8886 23.448
396 2 29.4788 36.7705 14.7349
397 2 52.6927 35.1432 22.4225
398 2 20.7777 9.98523 45.3034
399 2 25.9289 54.4354 41.1515
400 2 7.90327 19.0594 22.5888
401 2 52.6981 43.2372 54.5039
402 2 39.0474 33.3601 45.4932
403 2 50.3839 6.95178 25.2677
404 2 15.5904 29.7124 19.4602
405 2 11.1452 25.758 11.0036
406 2 18.9751 6.09823 13.0079
407 2 23.9696 16.1279 30.1539
408 2 27.8936 30.091 21.051
409 2 39.7588 12.7739 20.1434
410 2 44.3265 40.057 44.8937
411 2 11.0858 22.9503 35.26
412 2 18.7445 48.7121 24.0211
413 2 48.4795 13.0458 30.1576
414 2 37.3622 53.0617 42.4905
415 2 45.8523 42.0383 43.1038
416 2 37.5879 42.1552 10.1892
417 2 55.5614 36.9677 52.4964
418 2 7.02227 22.0547 13.5478
419 2 28.3561 44.6074 38.2519
420 2 8.84073 30.3366 55.6452
421 2 16.1741 13.6322 46.7923
422 2 28.1971 12.7491 32.8744
423 2 34.254 36.1193 27.3172
424 2 37.6785 14.9634 29.8594
425 2 51.9333 50.9257 18.4224
426 2 13.3718 33.4776 7.98484
427 2 20.1055 30.0087 48.7976
428 2 53.2509 31.1926 48.1312
429 2 13.2707 29.5887 25.4318
430 2 36.4796 54.4664 47.0656
431 2 15.1692 19.9103 20.9693
432 2 13.2195 47.67 49.3296
433 2 12.1687 25.1009 8.24711
434 2 50.6644 45.9522 13.3045
435 2 18.3748 42.9622 34.8926
436 2 47.8288 18.6638 53.372
437 2 12.0516 20.3727 34.7647
438 2 30.7099 8.17504 44.8795
439 2 9.71142 48.132 8.9566
440 2 47.3091 39.0141 8.8643
441 2 24.8659 42.5114 21.8261
442 2 31.9091 29.1459 23.5509
443 2 42.6429 37.7083 36.9287
444 2 21.4788 50.6265 55.6317
445 2 38.6834 17.689 46.1877
446 2 46.3931 18.6181 13.8814
447 2 16.7954 36.0903 29.6693
448 2 6.99165 24.176 25.6461
449 2 19.5779 40.0666 47.7443
450 2 13.328 11.0846 35.5368
451 2 45.0262 7.15247 48.8794
452 2 34.5611 45.7936 40.0486
453 2 10.6134 38.1342 34.5905
454 2 29.4481 25.6361 6.65841
455 2 37.1668 18.4265 7.99355
456 2 14.9886 42.4322 14.0568
457 2 12.0935 18.1014 22.1063
458 2 32.3496 39.9855 6.50259
459 2 40.9175 25.8523 13.7539
460 2 46.473 38.002 45.8805
461 2 20.4211 41.0109 18.6011
462 2 11.8543 55.3824 28.2184
463 2 40.7142 37.6662 54.9186
464 2 20.1792 41.1161 10.0391
465 2 43.3727 18.0265 44.8516
466 2 22.5079 10.9834 18.5724
467 2 7.90297 36.0232 26.5783
468 2 29.7563 22.7742 54.9558
469 2 41.1565 22.5107 54.4092
470 2 33.6558 18.8201 17.6342
471 2 28.75 22.6183 14.8157
472 2 26.8232 41.7921 19.3616
473 2 38.7706 33.4455 39.0566
474 2 7.10165 42.7288 27.4961
475 2 28.2905 47.8268 54.7786
476 2 54.169 43.4716 26.1077
477 2 23.5816 54.1168 25.2497
478 2 13.0245 52.6286 28.4646
479 2 26.6093 24.9201 31.7778
480 2 10.9946 32.9232 38.9496
481 2 9.54075 49.4482 39.8168
482 2 19.676 38.5885 25.8929
483 2 46.1318 42.9839 24.6596
484 2 35.7744 34.1711 12.7404
485 2 7.0125 29.595 14.6726
486 2 34.6852 6.72462 7.10656
487 2 19.885 23.08 51.7743
488 2 47.7069 29.8896 30.5187
489 2 43.7987 51.0938 10.4528
490 2 25.5766 9.29274 20.2568
491 2 24.8459 50.034 12.4602
492 2 25.0573 39.1284 44.5695
493 2 31.3307 44.9461 49.0082
494 2 40.4041 26.4453 10.2398
495 2 52.2209 24.7127 46.7968
496 2 35.9363 27.3296 27.9873
497 2 43.2851 41.886 7.53797
498 2 7.92982 18.8462 16.8309
499 2 42.2664 15.8933 47.9114
500 2 47.3203 33.9101 39.7945
501 2 55.1149 45.4383 27.4264
502 2 22.2829 9.00815 36.0806
503 2 12.2246 21.4322 52.0366
504 2 15.6326 40.803 18.287
505 2 12.0869 43.1495 13.2763
506 2 55.6275 31.1165 43.1443
507 2 10.6633 31.8236 25.1296
508 2 40.8136 6.95833 53.4581
509 2 54.0547 11.6687 52.157
510 2 32.229 34.5861 49.0032
511 2 17.5491 10.4593 34.0536
512 2 37.4762 27.2289 20.3228
513 2 22.3366 29.7001 52.586
514 2 39.62 40.1795 11.3157
515 2 25.5087 52.3554 32.63
516 2 31.9047 42.9902 29.4954
517 2 20.658 45.8048 24.4317
518 2 19.2887 53.735 24.7898
519 2 24.6739 21.524 34.5147
520 2 34.0532 41.0684 40.4436
521 2 50.9664 10.6584 49.3973
522 2 19.5053 18.668 41.2537
523 2 14.9256 20.8213 16.5385
524 2 30.4912 25.1081 13.0821
525 2 36.0785 21.9855 20.0844
526 2 20.6782 37.2407 49.1082
527 2 37.8125 49.1445 12.53
528 2 54.267 48.4979 24.3929
529 2 28.736 6.8424 32.3432
530 2 35.1621 11.2146 32.3548
531 2 55.7763 41.8533 12.0063
532 2 24.1475 34.5466 47.2414
533 2 14.664 19.6377 55.3552
534 2 12.6772 8.39898 9.52836
535 2 47.6923 12.6018 16.7171
536 2 41.0511 44.8709 39.4304
537 2 51.2132 26.759 38.7508
538 2 12.5432 19.0487 38.9469
539 2 48.1062 23.0272 39.1955
540 2 31.2741 53.1473 44.9522
541 2 43.952 26.1428 31.4591
542 2 16.3556 6.44658 28.8092
543 2 25.871 7.03645 12.9932
544 2 19.5678 26.2012 51.6932
545 2 9.86418 16.5577 36.6829
546 2 17.1092 47.4828 21.4983
547 2 55.7222 51.3833 24.1971
548 2 43.4145 46.2883 15.9158
549 2 41.9945 35.7358 13.0345
550 2 35.0852 24.0727 18.4933
551 2 49.4726 26.0185 55.5543
552 2 31.4962 25.0683 39.7726
553 2 8.45058 9.28999 17.2165
554 2 52.1446 7.01061 46.7301
555 2 25.4985 55.3411 9.7404
556 2 16.1848 49.2477 10.3752
557 2 52.8008 16.7119 12.0152
558 2 47.6822 22.2608 7.27281
559 2 28.5509 55.0595 42.5257
560 2 15.232 34.4279 47.3544
561 2 48.3544 13.4042 19.4932
562 2 52.6508 12.7049 10.9374
563 2 18.4965 43.2495 38.4
564 2 20.4035 19.7268 51.2547
565 2 40.9255 47.2219 6.67135
566 2 36.6338 35.1685 47.2322
567 2 8.12945 43.9501 16.697
568 2 27.4328 50.0226 16.9881
569 2 38.744 25.142 43.0208
570 2 32.1128 21.4064 12.2765
571 2 45.9462 12.2243 54.2849
572 2 42.0989 48.7647 49.8747
573 2 26.5201 12.4016 42.8614
574 2 23.244 49.8779 41.4022
575 2 18.8541 16.771 48.5885
576 2 18.2057 50.8888 12.6493
577 2 20.0685 11.5795 27.44
578 2 7.60084 7.49903 34.4503
579 2 12.4583 30.1558 42.0141
580 2 8.21617 54.1076 13.0693
581 2 8.78513 16.4563 55.332
582 2 31.6489 48.4675 48.403
583 2 52.9846 11.9213 37.4106
584 2 38.324 27.7721 16.9889
585 2 33.3745 11.7998 54.5936
586 2 53.998 37.2575 37.6554
587 2 40.2215 45.6695 46.6525
588 2 21.425 47.7123 6.70259
589 2 25.8512 39.7992 51.8313
590 2 29.3997 31.5547 13.1563
591 2 33.9728 53.25 20.3731
592 2 43.8769 26.1347 20.7107
593 2 11.3351 45.3563 42.8597
594 2 22.8151 17.4046 46.1693
595 2 35.6904 17.3698 16.705
596 2 30.026 30.9665 28.8
597 2 27.195 52.4689 42.7344
598 2 24.2277 25.1919 12.1681
599 2 27.8422 19.0351 43.5994
600 2 54.3183 55.2215 55.2262
601 2 30.2002 44.7995 31.6378
602 2 33.9017 21.332 51.5235
603 2 19.481 9.20831 29.7943
604 2 35.619 16.0659 52.596
605 2 47.7352 40.2722 25.625
606 2 11.7581 40.4076 24.1745
607 2 26.6032 44.7869 34.5654
608 2 45.621 30.0233 44.8371
609 2 33.9213 20.5068 31.1685
610 2 17.507 14.8351 28.7499
611 2 39.5033 35.5508 15.1162
612 2 9.80835 10.9974 43.3324
613 2 6.40506 48.4937 37.102
614 2 38.6031 22.2839 55.8325
615 2 7.87003 36.969 34.2472
616 2 49.2416 23.614 46.3523
617 2 6.39835 29.2275 53.5687
618 2 51.4572 23.6547 52.1072
619 2 18.1625 27.9878 27.9218
620 2 23.7587 6.46229 42.5235
621 2 16.7785 16.6971 32.5432
622 2 34.077 37.4686 36.0322
623 2 16.2562 35.7426 42.5419
624 2 20.911 16.6682 29.9495
625 2 42.11 45.8694 28.1688
626 2 13.8365 49.7761 30.1477
627 2 44.011 17.8966 16.6771
628 2 46.8225 22.0678 45.2231
629 2 7.217 18.8416 6.4741
630 2 9.64817 49.1739 23.6377
631 2 41.5519 32.8756 32.2758
632 2 18.0114 38.8658 21.909
633 2 48.4675 19.1753 27.2786
634 2 39.2772 52.3838 15.5417
635 2 17.8924 18.4093 52.495
636 2 38.8665 49.129 49.0516
637 2 24.0832 16.2183 11.7037
638 2 27.1835 49.974 21.497
639 2 55.2127 50.0189 19.5548
640 2 23.0895 27.2377 10.2128
641 2 14.9516 40.922 54.8941
642 2 24.8045 49.0101 45.463
643 2 32.4808 27.7206 20.8232
644 2 23.0179 24.3301 14.4663
645 2 26.8661 9.78661 11.7887
646 2 13.5506 34.767 39.9282
647 2 9.72132 40.3748 7.22904
648 2 13.9661 10.7592 52.9139
649 2 50.4563 30.0422 39.8264
650 2 35.8342 10.1347 20.8753
651 2 50.417 19.1041 37.7292
652 2 51.7166 18.65 50.0337
653 2 34.5917 52.2598 7.8678
654 2 40.496 23.322 34.5926
655 2 47.6149 13.7821 55.563
656 2 34.3581 11.729 24.8674
657 2 33.1697 13.9433 33.06
658 2 39.0997 49.2492 30.6215
659 2 21.332 11.1606 55.5839
660 2 50.0527 53.7391 21.6912
661 2 29.2605 43.9466 23.1267
662 2 9.37769 13.6334 15.7168
663 2 46.0989 6.16729 22.8751
664 2 20.9721 21.643 20.5252
665 2 52.3227 37.3832 26.4007
666 2 7.25518 26.2032 47.8363
667 2 25.952 19.5373 19.6399
668 2 43.9826 9.91937 8.02153
669 2 35.048 46.2701 34.9404
670 2 31.1365 21.1576 32.8098
671 2 8.59235 14.5439 8.24521
672 2 52.8311 37.8974 18.7097
673 2 14.4178 46.1689 18.6373
674 2 45.3539 23.8038 8.94184
675 2 27.4955 35.6909 41.786
676 2 25.0516 43.4676 41.239
677 2 29.7588 23.2462 26.1521
678 2 37.9831 44.9932 31.587
679 2 49.3415 45.4137 26.706
680 2 13.7115 51.3789 44.125
681 2 47.1718 44.0367 10.7287
682 2 33.7522 20.9634 38.4737
683 2 12.6229 17.2673 8.47428
684 2 7.26992 41.4729 41.9743
685 2 18.3073 54.4621 55.2159
686 2 41.3316 15.4964 23.4955
687 2 29.6423 10.7629 28.6562
688 2 53.7859 47.7046 51.209
689 2 36.2325 21.8406 44.9291
690 2 29.8623 37.0871 35.8393
691 2 14.307 25.9809 39.7183
692 2 14.2035 17.882 16.2739
693 2 38.3345 49.287 25.6262
694 2 44.2002 45.1168 10.6061
695 2 11.8961 55.675 44.4535
696 2 24.7131 23.9051 18.2847
697 2 39.7021 53.7975 27.2444
698 2 35.0499 28.2302 54.4947
699 2 35.8551 31.7343 51.9162
700 2 38.5643 15.6997 36.7379
701 2 45.4312 24.7367 55.4648
702 2 6.13145 45.9656 42.519
703 2 37.6848 29.989 19.0191
704 2 15.965 49.74 53.5304
705 2 42.454 18.3913 49.6671
706 2 12.5 22.814 6.84996
707 2 51.0737 49.5206 22.9404
708 2 54.4355 13.6047 23.3775
709 2 14.6077 37.0693 46.7404
710 2 40.5879 10.0659 53.8129
711 2 7.24691 19.1548 26.8332
712 2 15.0804 51.0871 46.9696
713 2 21.6805 18.8548 9.13668
714 2 52.2636 50.8289 15.3515
715 2 45.8359 52.0099 21.4406
716 2 21.9708 24.0088 47.7621
717 2 11.2802 44.9042 30.3911
718 2 49.9679 12.4778 41.6399
719 2 9.19029 28.3117 44.1648
720 2 26.3062 10.3162 33.5931
721 2 42.8077 29.2638 27.8528
722 2 49.2331 29.5185 12.5232
723 2 52.1248 15.9874 54.9139
724 2 21.8051 40.6469 25.8961
725 2 48.6482 18.157 18.2038
726 2 37.9765 23.4831 37.8756
727 2 7.31356 26.6644 28.3906
728 2 34.5119 39.4473 50.5704
729 2 30.2473 17.6813 21.0878
730 2 39.2382 52.7015 47.8365
731 2 17.9948 8.17776 27.0101
732 2 26.9839 21.534 51.9141
733 2 21.4671 26.091 25.2753
734 2 23.1726 8.65446 27.0544
735 2 50.0127 44.2374 48.743
736 2 46.7743 37.7682 42.4806
737 2 11.5483 13.4789 39.6898
738 2 46.4572 27.3127 11.2296
739 2 27.2494 16.3753 44.9138
740 2 14.5904 23.6567 9.08544
741 2 11.1889 39.7098 48.6559
742 2 46.4627 53.6856 33.2068
743 2 15.7922 37.3339 35.0058
744 2 15.3203 16.5954 29.8539
745 2 39.8431 31.2977 14.4915
746 2 53.6298 45.9413 16.7312
747 2 36.1118 39.5845 36.8353
748 2 48.8561 54.5679 38.008
749 2 46.7741 50.5208 35.2328
750 2 20.0399 14.2236 31.5097
751 2 51.3635 25.1275 33.0954
752 2 50.9121 26.3445 19.2521
753 2 37.0548 29.3866 50.9312
754 2 25.9202 25.8059 22.8246
755 2 52.4373 37.9434 21.613
756 2 39.2268 22.5902 12.6062
757 2 49.2446 25.0138 30.6259
758 2 15.1202 50.3543 34.8645
759 2 43.4157 14.7575 51.7459
760 2 24.3498 45.0392 31.3171
761 2 19.8231 15.3381 43.3004
762 2 9.93466 19.2913 18.785
763 2 54.5352 39.2426 23.226
764 2 46.8287 41.8408 48.5816
765 2 43.5335 10.6797 53.7298
766 2 54.9306 54.8932 13.0254
767 2 31.4804 17.725 55.1998
768 2 13.8872 13.4082 21.109
769 2 33.3289 24.8294 9.39054
770 2 51.3461 48.7436 44.9317
771 2 49.7588 53.6014 18.6625
772 2 28.9303 25.8995 18.0448
773 2 7.9171 38.9095 38.0148
774 2 53.9534 51.5659 36.702
775 2 42.4651 49.0926 36.9357
776 2 8.7642 31.3719 29.2664
777 2 14.099 41.7238 51.3229
778 2 47.8974 51.1924 44.4799
779 2 42.6282 43.0464 27.5746
780 2 37.1742 20.1187 31.498
781 2 42.0836 13.2088 21.9641
782 2 16.1024 17.3261 18.7475
783 2 38.5441 11.3206 38.9871
784 2 46.5977 17.861 10.4648
785 2 45.19 35.7064 48.2712
786 2 15.1684 22.383 28.2794
787 2 47.5521 40.9858 52.0782
788 2 54.8434 49.151 8.74494
789 2 20.2118 50.6185 38.5232
790 2 36.0065 29.5976 30.1428
791 2 38.7629 42.5754 18.7022
792 2 40.2949 38.1595 30.1574
793 2 41.4233 42.0868 40.1671
794 2 32.2301 36.8363 53.7285
795 2 46.0566 40.3899 35.2463
796 2 41.7935 24.6098 16.761
797 2 38.2818 19.6823 19.8152
798 2 6.70326 39.1101 48.0669
799 2 32.3272 34.191 30.583
800 2 23.1494 30.0843 20.7764
801 2 45.9834 27.5324 27.5523
802 2 34.4237 28.191 22.781
803 2 27.9449 15.1303 11.1578
804 2 51.8363 50.43 48.1557
805 2 7.5587 25.839 17.5231
806 2 19.8392 35.7881 21.5382
807 2 42.1285 32.8341 18.4501
808 2 46.3771 23.9363 21.0317
809 2 24.3036 48.0259 30.734
810 2 23.499 11.9091 30.1724
811 2 26.2062 53.3298 48.8742
812 2 50.127 48.8925 17.7115
813 2 21.9579 18.0949 17.0954
814 2 22.1531 8.56492 10.3473
815 2 22.0492 45.3271 7.96244
816 2 35.3295 36.2212 42.5998
817 2 17.1923 17.6893 39.0828
818 2 55.0811 10.5002 54.5605
819 2 50.224 13.2024 12.7981
820 2 19.2227 36.3824 9.07959
821 2 35.7672 7.94007 52.3329
822 2 8.81092 23.3241 39.635
823 2 24.8798 42.9846 14.3868
824 2 38.045 6.10635 12.9123
825 2 48.3707 8.56325 35.6577
826 2 47.8068 31.511 14.4786
827 2 17.5047 42.6706 19.6205
828 2 32.9368 13.5323 41.6209
829 2 6.35696 7.01091 9.3186
830 2 10.3417 36.0129 51.7889
831 2 53.4066 13.291 20.3057
832 2 33.7975 48.3474 37.3251
833 2 23.6404 33.2802 26.2395
834 2 49.7777 35.6218 39.7665
835 2 55.7969 41.9858 53.6023
836 2 32.1012 14.7968 27.115
837 2 46.6635 6.72712 31.6075
838 2 12.6843 12.9298 54.3824
839 2 15.2283 45.3766 32.7874
840 2 44.1837 45.2665 25.5341
841 2 29.7498 29.9578 39.1512
842 2 7.05625 30.7801 38.0338
843 2 55.5047 21.9391 45.9563
844 2 52.8756 9.62544 18.0223
845 2 18.8395 39.1104 36.3785
846 2 25.8214 6.42723 49.3648
847 2 50.4823 46.751 16.0288
848 2 25.6239 47.6177 40.7127
849 2 19.0203 32.8226 50.4746
850 2 12.877 31.4882 20.0705
851 2 43.3949 26.4994 17.5635
852 2 17.5208 9.91958 49.7655
853 2 44.9371 46.8223 36.569
854 2 14.1356 41.5033 27.2638
855 2 35.6987 43.2801 21.9839
856 2 13.446 29.3425 33.6295
857 2 14.7803 22.1979 50.2089
858 2 28.1449 40.9275 40.5484
859 2 14.6196 37.1157 32.4233
860 2 32.8719 38.6422 32.9035
861 2 46.9603 51.209 8.12795
862 2 16.5969 12.9059 16.7979
863 2 18.0453 14.8415 23.6808
864 2 30.4843 39.2648 46.9242
865 2 18.4588 32.3164 53.3771
866 2 15.4946 6.74125 36.1466
867 2 13.3997 32.9388 11.3784
868 2 38.2911 38.1092 13.2516
869 2 36.4905 31.5655 16.54
870 2 20.2862 18.2571 44.8688
871 2 9.95077 8.5708 33.0755
872 2 47.885 35.1035 24.5047
873 2 23.1751 22.3474 36.9585
874 2 54.2007 26.3326 31.9358
875 2 36.0673 38.1517 54.1758
876 2 47.5752 28.9463 36.9164
877 2 31.1764 47.0727 16.0806
878 2 31.3011 11.0046 43.9333
879 2 23.5926 52.6996 29.9573
880 2 22.0273 29.2508 27.7691
881 2 13.1503 36.2881 42.8096
882 2 28.8487 35.3444 47.7658
883 2 11.1225 50.3715 48.594
884 2 33.4329 47.9605 41.7641
885 2 25.1858 48.9616 33.4951
886 2 20.532 15.5728 34.2335
887 2 50.229 50.4259 8.03915
888 2 45.4562 26.979 51.8517
889 2 43.6143 32.99 10.4967
890 2 48.4909 55.7221 21.027
891 2 51.0741 9.43376 27.7685
892 2 49.9171 44.3629 34.4367
893 2 47.7126 36.7497 38.2858
894 2 51.9269 28.9712 15.6632
895 2 41.4237 40.1554 28.0756
896 2 38.5048 34.7327 22.0048
897 2 29.3569 32.2246 6.51234
898 2 17.1368 41.8773 47.6764
899 2 7.24953 42.1495 34.7872
900 2 50.7872 51.4498 34.0816
901 2 7.60147 47.4964 28.0823
902 2 11.1702 10.7698 31.6175
903 2 47.5478 48.9832 48.9924
904 2 30.0077 31.5012 19.1222
905 2 55.6942 29.1634 19.4276
906 2 21.7748 11.1091 42.7268
907 2 26.455 45.8207 27.3873
908 2 44.5938 20.0197 49.665
909 2 7.67684 18.5192 9.65968
910 2 35.7972 13.2568 37.3104
911 2 34.3614 27.845 49.7714
912 2 8.9043 8.3278 21.7675
913 2 30.3262 30.1755 26.0151
914 2 36.5572 33.4075 8.85222
915 2 17.7004 47.6552 49.2788
916 2 19.312 24.4266 36.2543
917 2 40.2173 15.9061 9.79271
918 2 14.0067 12.5661 43.6439
919 2 22.7991 33.0695 38.0495
920 2 51.0717 10.812 30.9575
921 2 30.0794 42.0729 25.2662
922 2 12.4337 55.4802 35.3514
923 2 47.524 6.39813 13.8739
924 2 46.2819 15.1951 44.7291
925 2 8.65776 25.1705 43.2407
926 2 45.8428 48.178 7.6911
927 2 31.5077 51.8033 26.2673
928 2 33.5476 43.8473 23.4498
929 2 30.1608 14.6556 15.0864
930 2 30.6982 52.9525 9.84191
931 2 28.4956 44.827 19.9512
932 2 20.7865 55.7083 48.9752
933 2 41.0676 35.3579 38.863
934 2 26.9189 12.7629 35.8842
935 2 29.9879 23.0631 30.4198
936 2 14.5514 38.2679 28.2039
937 2 29.6984 9.59644 48.9192
938 2 16.7163 12.446 50.876
939 2 9.5713 54.3326 19.0659
940 2 24.7573 17.5696 36.0046
941 2 25.5079 55.554 35.4359
942 2 7.37077 37.1214 54.7731
943 2 28.272 27.513 43.7727
944 2 53.664 15.3539 34.5669
945 2 33.8737 24.1486 6.47181
946 2 39.3616 19.4742 24.0068
947 2 35.7137 46.2519 25.1576
948 2 31.16 39.8794 27.0085
949 2 23.9831 11.4038 25.5049
950 2 51.6781 30.0471 28.1661
951 2 31.2956 39.5947 11.587
952 2 38.0727 24.6686 18.4504
953 2 13.0605 39.4799 7.51652
954 2 26.6942 34.089 16.093
955 2 10.9285 49.3776 31.7863
956 2 49.1267 10.4928 20.359
957 2 34.9451 40.9875 30.2226
958 2 37.3701 38.4635 27.473
959 2 27.9397 36.6694 50.8468
960 2 37.1136 30.8422 35.1052
961 2 50.3242 26.4399 26.3999
962 2 38.2309 27.0539 34.8679
963 2 27.3406 42.831 42.5893
964 2 33.7572 36.8151 24.5435
965 2 32.7514 22.9237 26.0441
966 2 14.0087 20.5251 26.7203
967 2 38.4684 17.5485 26.7006
968 2 40.7692 26.8765 21.1698
969 2 23.118 25.991 54.3275
970 2 37.5409 13.4123 52.3867
971 2 6.50413 16.7466 20.7306
972 2 42.2378 23.4829 44.7411
973 2 52.5285 21.6711 43.7813
974 2 33.904 7.44906 10.0988
975 2 16.8726 32.673 20.6295
976 2 23.7398 14.0426 26.406
977 2 23.5918 14.7647 53.4263
978 2 29.7251 27.0463 41.5394
979 2 24.2273 28.3167 12.6095
980 2 25.9218 52.6274 11.5307
981 2 47.407 20.7344 40.5172
982 2 19.1931 18.4121 10.4466
983 2 54.4538 48.7123 15.4278
984 2 20.7407 8.05343 24.6692
985 2 29.6813 17.8939 37.7921
986 2 42.1772 9.39116 17.9139
987 2 15.7772 9.40294 29.3428
988 2 17.0908 52.0844 38.367
989 2 36.9706 51.9831 21.2708
990 2 23.7503 23.6506 40.8087
991 2 45.7571 8.65274 10.1942
992 2 38.6674 47.3044 38.0314
993 2 46.9679 15.3753 33.1017
994 2 44.2479 8.20506 32.5564
995 2 11.9673 20.8213 17.8545
996 2 10.899 15.4105 50.3611
997 2 32.6691 54.8801 8.33617
998 2 38.4814 16.1078 16.9387
999 2 36.927 49.7239 38.8597
1000 2 50.1945 52.6057 14.3085
1001 2 49.9469 38.5989 25.5958
1002 2 42.5722 35.1663 53.6799
1003 2 32.5906 29.9725 37.535
1004 2 13.9458 44.104 16.6881
1005 2 53.5125 17.9437 19.9243