ITEM: TIMESTEP
0
ITEM: NUMBER OF ATOMS
9088
ITEM: BOX BOUNDS xy xz yz pp pp pp
6.1511271713786542e+00 5.5779810620955217e+01 -5.6939716670474169e-15
6.1511271713786595e+00 5.5779810620955217e+01 0.0000000000000000e+00
6.1511271713786595e+00 5.5779810620955217e+01 0.0000000000000000e+00
ITEM: ATOMS id type x y z
1 2 30.374 47.1654 48.9177
2 2 52.0025 37.1234 19.3186
3 2 40.0034 7.94938 7.26533
4 2 14.2604 42.9932 12.2315
5 2 10.4605 32.0121 15.3573
6 2 31.8696 26.171 38.3712
7 2 13.4336 36.6678 55.7119
8 2 23.9956 7.58705 51.3264
9 2 55.1481 20.0044 14.3485
10 2 51.5336 14.3042 15.1009
11 2 24.8267 8.32279 10.8384
12 2 52.198 22.285 31.8057
13 2 10.3489 45.8282 35.99
14 2 45.6526 28.1114 16.6289
15 2 40.5361 7.12436 31.5514
16 2 34.6753 15.0442 38.387
17 2 13.5915 34.7394 42.6347
18 2 31.2615 22.0809 16.1458
19 2 14.1272 30.1157 10.9198
20 2 15.4657 31.2369 51.3941
21 2 20.2982 17.7358 29.4737
22 2 25.5459 21.0236 47.9776
23 2 21.7832 34.8725 41.658
24 2 53.999 38.7584 54.3925
25 2 37.2845 42.5869 35.6442
26 2 39.6976 6.55295 40.2285
27 2 29.0246 49.6196 26.4005
28 2 44.3423 42.8086 13.3764
29 2 16.9714 14.5907 42.7385
30 2 11.2518 8.85134 31.7792
31 2 36.0299 46.0236 21.198
32 2 6.57511 41.7392 8.3621
33 2 6.19456 9.00635 48.1142
34 2 34.2899 33.172 44.6151
35 2 28.5026 34.9822 23.5307
36 2 36.9386 51.1018 15.3266
37 2 34.1917 46.3347 53.2844
38 2 19.9832 54.0505 31.6858
39 2 28.5717 8.16343 10.7442
40 2 23.1749 37.146 30.0915
41 2 47.0526 47.9634 48.2139
42 2 17.5038 52.589 50.8059
43 2 14.5276 43.549 53.2779
44 2 25.4463 30.5268 31.6431
45 2 20.7327 22.5302 20.8019
46 2 41.2888 10.0004 15.1268
47 2 12.0054 50.0661 44.41
48 2 26.693 22.6479 34.7678
49 2 28.2308 38.7416 12.9799
50 2 46.7131 18.9047 29.6837
51 2 22.594 28.5867 16.6952
52 2 21.8897 27.8568 24.2401
53 2 13.9244 34.5796 18.3928
54 2 40.3733 52.4052 31.7817
55 2 11.8675 20.9392 12.2067
56 2 44.6155 41.4251 20.0598
57 2 47.4515 28.7716 54.3176
58 2 48.4096 34.5668 12.2316
59 2 12.9776 46.2756 8.08701
60 2 47.8213 26.5374 24.5868
61 2 28.9844 29.5659 38.9153
62 2 21.342 37.0246 49.288
63 2 48.932 38.176 19.4637
64 2 15.3208 34.6697 10.0246
65 2 38.7886 26.7079 7.31999
66 2 38.3497 10.3504 35.1718
67 2 6.4554 46.5234 26.1591
68 2 47.1861 17.9563 10.7528
69 2 24.781 40.8048 36.1315
70 2 53.0349 37.9542 16.5892
71 2 14.616 37.0415 40.3818
72 2 30.8869 37.0118 8.15882
73 2 49.4174 36.8566 25.7891
74 2 22.6729 46.0177 29.7337
75 2 49.2487 11.3652 37.9212
76 2 51.1875 39.1259 26.0921
77 2 25.9908 11.1552 35.3082
78 2 38.703 21.9049 11.7123
79 2 45.4393 7.80087 36.467
80 2 34.8476 51.7638 17.0599
81 2 31.438 39.6813 31.7981
82 2 16.8705 6.8484 7.10212
83 2 17.2707 34.81 33.1602
84 2 39.4487 34.7765 19.1957
85 2 31.5984 40.2391 49.821
86 2 29.5804 36.8406 37.9248
87 2 21.7107 31.0591 13.0962
88 2 11.0804 18.1367 21.079
89 2 51.7278 46.5732 47.1582
90 2 23.5919 20.2593 28.1851
91 2 31.9815 8.41292 48.3525
92 2 16.5987 12.8803 34.5074
93 2 52.189 50.6289 38.1079
94 2 41.6521 43.631 12.4251
95 2 38.3486 9.51376 54.4684
96 2 50.8036 45.8136 34.6545
97 2 36.5173 36.8983 16.584
98 2 17.5488 22.9142 7.10623
99 2 20.8779 10.0988 35.7087
100 2 52.3948 19.2359 32.1726
101 2 26.4729 28.3509 15.8383
102 2 41.4161 51.3567 23.6529
103 2 53.9925 25.4509 9.56041
104 2 17.226 35.7086 49.5978
105 2 9.20794 26.5087 28.3956
106 2 47.8628 43.6616 35.1449
107 2 37.4901 53.8766 24.5738
108 2 28.8225 48.4734 55.6219
109 2 11.0231 12.7869 10.1794
110 2 18.3439 29.2315 16.333
111 2 12.1666 18.6505 14.1654
112 2 28.5871 25.8057 16.0026
113 2 35.2124 46.2426 11.4271
114 2 28.7725 55.0564 34.9183
115 2 34.3988 52.9749 33.3766
116 2 33.6243 6.98856 7.03691
117 2 22.3001 24.2434 50.8136
118 2 23.9564 40.3731 22.235
119 2 6.32886 10.8298 11.176
120 2 14.9028 38.085 29.548
121 2 55.5804 21.0056 52.171
122 2 21.5486 54.6747 16.7078
123 2 35.7713 10.4408 31.5002
124 2 21.6062 39.7352 16.0967
125 2 55.0746 24.9663 20.6875
126 2 31.4049 54.4815 7.84301
127 2 8.7666 20.0586 49.0209
128 2 43.9984 42.2005 42.5791
129 2 24.6674 33.0085 22.5375
130 2 39.573 28.7353 54.9647
131 2 49.973 17.9211 23.8525
132 2 23.3862 7.8775 15.6924
133 2 32.3768 39.3544 20.4223
134 2 18.239 40.0302 51.2343
135 2 25.4326 54.1994 54.4455
136 2 51.7807 55.6747 26.0993
137 2 12.8895 47.241 34.7675
138 2 39.5639 21.6294 40.577
139 2 50.2762 19.8048 44.5466
140 2 8.41991 38.6588 35.2543
141 2 37.8588 35.3109 36.5997
142 2 20.7674 9.59015 55.3689
143 2 41.5566 22.6762 6.69031
144 2 10.6856 17.055 43.0782
145 2 33.4574 22.8952 31.6249
146 2 18.5775 12.0259 6.4452
147 2 27.3677 46.0184 40.2026
148 2 16.261 26.6069 10.3199
149 2 24.7056 20.413 13.6761
150 2 14.443 40.952 48.3788
151 2 8.43179 44.4048 20.5056
152 2 12.2638 12.2905 37.3994
153 2 13.0349 48.2291 16.9883
154 2 31.8438 25.1019 48.2368
155 2 29.5957 12.5026 27.8062
156 2 27.0209 49.4756 20.0574
157 2 25.0895 7.94226 34.9871
158 2 41.3957 42.1412 33.4224
159 2 15.5073 11.7152 43.2826
160 2 22.0801 20.9739 18.1683
161 2 23.4825 39.6501 13.2859
162 2 35.7116 20.4571 27.8781
163 2 37.5076 21.0851 45.9234
164 2 27.2286 7.01716 48.5521
165 2 24.4915 31.6496 43.7451
166 2 20.6709 36.9952 11.535
167 2 18.16 49.9133 13.0147
168 2 51.8079 12.4583 7.51608
169 2 29.6211 39.4216 29.7843
170 2 8.11339 37.8836 30.2742
171 2 14.8789 9.71906 10.7526
172 2 10.9368 31.3243 7.96906
173 2 55.0347 28.1009 45.3137
174 2 10.36 19.6919 10.0494
175 2 11.4136 38.8437 27.0827
176 2 40.1103 25.253 51.9921
177 2 42.6832 53.0852 11.766
178 2 26.9834 45.6821 45.399
179 2 13.5542 49.3019 49.2712
180 2 51.761 52.9265 36.3694
181 2 52.5828 28.0085 47.4946
182 2 33.8122 38.248 31.3291
183 2 41.4325 46.5927 32.6107
184 2 51.0252 34.6316 28.3935
185 2 29.7052 28.2705 54.6466
186 2 46.3765 20.4936 13.228
187 2 26.7575 47.3899 42.9373
188 2 43.1696 45.3819 49.7553
189 2 48.248 49.9787 36.667
190 2 26.7477 35.4144 10.4435
191 2 17.9099 6.35451 24.7705
192 2 30.9522 14.8119 18.9423
193 2 48.4081 39.3979 46.8492
194 2 34.5554 12.8194 33.6159
195 2 47.2914 29.8053 37.654
196 2 24.8476 16.2929 30.8528
197 2 11.4658 15.6577 14.7538
198 2 34.5045 27.3546 26.6067
199 2 34.8907 37.2197 22.2292
200 2 50.3573 48.401 39.2011
201 2 53.4951 43.0057 19.7083
202 2 20.708 30.2406 43.5971
203 2 18.462 40.5046 29.5134
204 2 31.62 8.87242 30.3248
205 2 17.4311 17.2937 52.9526
206 2 38.4051 24.4244 20.5726
207 2 52.0264 6.54248 49.7319
208 2 12.1083 55.501 29.3662
209 2 49.1678 49.665 8.62526
210 2 9.47109 23.6584 22.3279
211 2 40.449 34.2631 8.62627
212 2 35.95 51.7892 36.1996
213 2 55.5954 9.577 51.0418
214 2 6.26383 24.8365 14.5692
215 2 54.0892 42.6112 22.9643
216 2 42.9742 39.0838 20.7352
217 2 47.8259 21.6107 41.3653
218 2 19.2013 36.9813 19.1827
219 2 48.3819 34.1765 26.3439
220 2 16.6315 34.1206 28.9237
221 2 15.5856 41.3698 29.3981
222 2 40.002 17.8402 19.1587
223 2 25.1387 17.4198 15.7441
224 2 9.33764 44.0065 55.2449
225 2 15.6502 50.1338 47.105
226 2 38.2668 10.9625 18.6195
227 2 44.193 13.6991 24.6118
228 2 23.9781 7.27141 46.3383
229 2 24.6866 23.7543 37.5407
230 2 23.4448 32.302 29.9631
231 2 40.9916 37.7044 16.4186
232 2 26.8271 46.2036 15.8647
233 2 41.2395 54.302 18.2327
234 2 10.3114 8.70384 39.1132
235 2 45.6213 7.05035 43.8072
236 2 28.4222 7.7817 19.0946
237 2 16.6867 46.7447 36.9605
238 2 35.4917 55.0604 9.53501
239 2 14.9725 39.6339 51.0306
240 2 51.9383 16.3852 41.3704
241 2 23.205 52.6345 42.958
242 2 24.1506 12.7215 16.4692
243 2 17.043 20.7146 52.5662
244 2 18.6666 45.1803 11.8927
245 2 39.0834 39.5076 29.9773
246 2 12.1736 34.9713 36.395
247 2 47.481 28.7586 21.5505
248 2 49.0826 42.7463 43.3078
249 2 41.9984 48.5484 25.0982
250 2 48.9221 22.477 52.046
251 2 19.329 31.6362 15.1499
252 2 51.4792 25.3258 38.6922
253 2 10.257 51.869 8.40505
254 2 8.98295 31.5441 38.3269
255 2 25.9844 50.2481 17.3873
256 2 9.32443 37.0789 55.3338
257 2 13.3877 22.8656 39.2489
258 2 14.6632 44.1231 37.3237
259 2 50.0123 41.8614 17.0284
260 2 31.0696 54.3755 50.7871
261 2 53.2973 49.4587 23.3142
262 2 43.9894 19.9843 52.8967
263 2 16.8619 50.5636 54.6007
264 2 51.2234 25.6821 13.6184
265 2 27.1262 46.6964 8.14577
266 2 54.1937 22.8578 42.2781
267 2 50.7286 10.4994 50.1897
268 2 54.1123 47.8723 53.787
269 2 20.7277 23.3428 17.4589
270 2 31.993 15.6756 46.2632
271 2 10.7872 16.3324 46.4092
272 2 53.783 32.2227 30.79
273 2 20.143 52.5668 46.1192
274 2 32.4213 52.565 25.2524
275 2 46.5433 19.1094 45.7309
276 2 9.54084 40.325 32.8502
277 2 42.6469 47.8243 28.255
278 2 10.5617 39.642 16.3698
279 2 47.1088 7.60964 50.6201
280 2 29.7148 31.8666 23.978
281 2 27.3503 31.3104 22.1182
282 2 26.965 33.1344 32.2482
283 2 29.9299 38.6464 10.6311
284 2 11.4617 16.0118 39.2186
285 2 43.5225 10.5423 34.1068
286 2 19.9817 29.5714 23.2859
287 2 52.2731 36.2269 8.53987
288 2 51.0504 38.9824 12.5782
289 2 21.1862 24.6609 47.8719
290 2 51.9659 36.6426 55.0554
291 2 14.8402 16.6372 28.6143
292 2 54.3888 14.5084 13.06
293 2 21.7072 24.8772 23.1691
294 2 8.86393 40.8975 23.7622
295 2 31.0837 33.7535 50.4611
296 2 17.2078 15.9626 19.9716
297 2 29.8077 12.2335 20.6742
298 2 51.8489 28.2743 22.7858
299 2 31.6874 7.81425 33.3131
300 2 38.7373 18.8145 47.6709
301 2 35.6399 8.87173 55.1667
302 2 45.735 14.877 43.9967
303 2 22.5963 26.6211 43.859
304 2 30.4982 28.3238 36.7969
305 2 27.6473 15.8082 27.2145
306 2 45.6111 46.1047 46.1188
307 2 24.7119 28.6314 37.9342
308 2 18.263 9.38819 37.7906
309 2 37.2644 14.1481 34.9396
310 2 7.76639 23.8054 7.59957
311 2 12.5892 35.635 24.6028
312 2 42.2625 24.0554 29.5987
313 2 24.8319 55.3896 22.2435
314 2 42.171 16.6382 7.88738
315 2 51.9576 50.329 26.3329
316 2 49.3133 12.9423 23.8346
317 2 42.6934 24.4025 22.9161
318 2 15.223 16.924 33.3598
319 2 6.71008 52.4774 38.3249
320 2 51.6184 36.519 36.5309
321 2 45.7324 22.5945 11.264
322 2 11.6049 38.9469 52.143
323 2 46.4158 32.7562 11.3076
324 2 43.8328 12.4684 28.2087
325 2 25.0901 54.2435 37.8657
326 2 19.675 8.84236 30.6945
327 2 34.4402 14.1581 42.5334
328 2 18.6509 53.6929 26.4619
329 2 41.9849 19.9785 33.255
330 2 35.0664 6.32832 25.1969
331 2 49.9411 26.4024 26.6993
332 2 44.6656 23.1329 18.4244
333 2 16.9887 46.0796 41.2948
334 2 16.0424 29.6388 42.9255
335 2 45.6691 18.7626 39.2664
336 2 28.0174 13.1245 36.9128
337 2 22.5296 39.6765 51.9413
338 2 6.58063 31.7894 8.98599
339 2 34.7959 30.7954 26.0314
340 2 7.2856 46.2619 37.5791
341 2 12.0039 21.2096 52.6915
342 2 43.5516 12.5852 40.4912
343 2 44.184 34.6835 19.2823
344 2 7.30175 15.0515 40.7291
345 2 14.3996 21.649 14.8816
346 2 54.898 18.6548 54.1071
347 2 8.34436 40.6115 51.7011
348 2 43.1308 49.6818 52.3656
349 2 25.1792 8.54323 7.66408
350 2 35.4986 23.6234 51.3335
351 2 50.4774 8.62982 7.84083
352 2 27.365 14.1603 41.9773
353 2 27.7507 43.6422 14.2831
354 2 44.6067 26.0782 6.84234
355 2 20.1518 47.232 30.9758
356 2 41.7355 43.6734 54.3398
357 2 26.6142 53.0767 50.1612
358 2 50.3199 36.353 52.3302
359 2 13.7294 35.388 45.4226
360 2 15.129 46.9106 14.6867
361 2 42.3154 17.2092 47.6843
362 2 20.5136 13.4695 11.1722
363 2 41.4277 24.0747 25.4098
364 2 19.7241 46.9503 26.0196
365 2 20.4287 23.269 38.5721
366 2 14.552 6.81649 44.5669
367 2 47.8592 45.5356 12.8294
368 2 19.0815 42.6403 39.7472
369 2 22.7369 45.5433 41.2421
370 2 7.37888 26.8095 19.6629
371 2 10.3974 42.4102 16.682
372 2 9.06058 11.329 26.2746
373 2 20.5374 49.5122 35.5442
374 2 37.6157 45.3441 44.777
375 2 28.5976 31.2714 12.2535
376 2 28.8443 19.4558 29.0266
377 2 12.319 10.0702 14.1285
378 2 21.9128 50.0444 46.353
379 2 18.6688 34.8876 40.8232
380 2 54.0837 50.416 33.7241
381 2 11.7852 8.78758 22.2666
382 2 16.3049 36.115 7.36098
383 2 7.88064 19.6192 24.4185
384 2 15.842 43.6318 43.3271
385 2 9.16343 35.8917 14.0187
386 2 41.5546 46.027 47.5952
387 2 45.0556 42.6929 48.7192
388 2 10.438 24.1051 24.9564
389 2 16.2269 38.0272 19.4507
390 2 13.1211 47.2585 53.7351
391 2 13.4571 42.5675 24.4285
392 2 52.1638 40.0908 48.5951
393 2 37.2645 8.69238 25.9099
394 2 20.9393 43.7054 14.5911
395 2 30.1924 15.2303 26.4937
396 2 37.7487 20.0698 17.512
397 2 10.8066 18.2442 25.2281
398 2 28.7449 43.0149 48.1977
399 2 33.7982 37.74 43.4739
400 2 15.812 51.9959 25.2813
401 2 11.1241 26.6048 7.59404
402 2 47.0582 16.9871 48.0188
403 2 8.61657 39.7956 28.1417
404 2 23.3191 12.9803 22.2294
405 2 19.239 9.07691 13.6023
406 2 27.1002 39.0101 15.9359
407 2 31.6881 49.3339 33.1184
408 2 36.0009 13.4906 23.759
409 2 47.6781 45.64 23.1903
410 2 52.2231 23.495 47.5341
411 2 18.8344 6.29315 38.1618
412 2 26.7452 32.04 26.7371
413 2 6.64848 45.8822 32.7938
414 2 45.3533 36.0899 45.1821
415 2 53.8308 25.3944 46.2341
416 2 45.3375 25.5264 12.8772
417 2 13.8721 20.5331 55.0628
418 2 15.0692 54.9064 16.5522
419 2 36.3885 27.9118 40.9755
420 2 17.0429 13.5948 8.98733
421 2 24.3591 46.454 49.4567
422 2 36.1646 45.6147 35.5723
423 2 42.105 19.5798 30.4828
424 2 45.5373 48.145 32.8617
425 2 10.068 34.3443 21.2671
426 2 21.4574 16.7544 11.1365
427 2 28.2403 13.411 51.6464
428 2 11.7604 14.4106 50.9308
429 2 21.4395 12.949 28.4298
430 2 44.5531 37.8321 49.7311
431 2 23.1752 52.9388 23.5878
432 2 21.1569 31.148 51.9989
433 2 20.3156 8.84336 11.0466
434 2 9.17098 29.4123 15.7271
435 2 26.0981 26.1281 37.913
436 2 6.23173 51.9062 6.56158
437 2 19.9853 53.3453 37.5103
438 2 38.3678 41.129 47.7432
439 2 17.5427 31.3778 12.2243
440 2 55.204 22.1075 11.7738
441 2 33.0041 26.0554 24.6692
442 2 39.987 12.4353 26.2462
443 2 50.5744 21.1598 39.7127
444 2 29.3792 34.1807 8.76371
445 2 46.7621 50.7512 49.0376
446 2 54.2133 51.8264 16.8772
447 2 24.878 19.2847 32.2828
448 2 14.8494 7.53472 28.5634
449 2 27.4464 23.2047 50.7888
450 2 21.4269 44.1387 38.3748
451 2 53.1593 40.1472 51.6612
452 2 42.0949 29.1283 42.8922
453 2 18.5358 21.6366 37.2971
454 2 37.5009 9.1576 9.55883
455 2 45.4279 51.516 10.995
456 2 22.9886 25.8419 17.0087
457 2 20.0906 51.1433 24.9848
458 2 40.1035 23.181 9.4635
459 2 48.7466 9.38252 16.6279
460 2 54.2118 21.3612 48.3686
461 2 28.3217 24.6436 21.5901
462 2 19.7973 38.6788 31.3147
463 2 48.5463 20.9525 8.01365
464 2 28.3397 24.6402 13.0755
465 2 51.3293 51.311 47.832
466 2 30.5945 43.6389 21.4942
467 2 15.8951 19.3382 29.6014
468 2 37.8536 55.777 8.01325
469 2 49.2011 55.4941 7.65463
470 2 41.7188 51.6892 20.2781
471 2 36.781 55.6393 17.7215
472 2 34.8355 25.1612 22.2373
473 2 46.3802 16.6193 41.8331
474 2 14.7233 25.884 30.4553
475 2 36.2025 31.1381 7.54653
476 2 12.2197 26.7 28.7646
477 2 31.566 37.4915 28.1282
478 2 20.9459 36.1062 31.2187
479 2 34.6233 8.26987 34.879
480 2 19.111 16.3387 41.7374
481 2 17.5934 32.5777 42.6251
482 2 27.5833 22.0243 28.795
483 2 54.102 26.3044 27.1995
484 2 43.6902 17.6096 15.4057
485 2 15.1572 12.8094 17.4209
486 2 42.8258 39.6305 9.62337
487 2 28.0867 6.24806 54.646
488 2 55.5655 13.1948 33.3161
489 2 51.5243 34.5856 13.1173
490 2 33.4086 42.0593 22.7585
491 2 32.8396 33.2921 15.6082
492 2 32.8586 22.1473 47.4614
493 2 39.2111 28.0526 51.9233
494 2 48.4418 9.96969 12.8819
495 2 10.388 8.09628 49.7276
496 2 43.9165 10.4988 30.9095
497 2 51.3586 25.0146 10.436
498 2 15.7914 51.9598 19.6243
499 2 50.4391 48.9065 50.658
500 2 55.059 17.0621 42.583
501 2 13.4042 28.9496 30.1708
502 2 30.294 42.0925 38.7413
503 2 20.1415 54.3981 54.7822
504 2 23.7601 23.9392 21.2561
505 2 19.9936 26.6196 15.9729
506 2 14.1457 14.5304 45.9993
507 2 18.7418 15.0054 27.952
508 2 48.7947 39.6319 6.67614
509 2 12.3217 44.7122 54.9819
510 2 39.944 18.141 51.743
511 2 25.7244 43.4943 36.7426
512 2 45.5879 10.2749 22.8368
513 2 30.303 13.1877 55.1601
514 2 47.3502 23.6632 13.8329
515 2 33.288 35.8336 35.2403
516 2 39.6116 26.2687 32.4713
517 2 28.5538 29.0255 27.2643
518 2 27.1302 37.1064 27.5824
519 2 32.1726 54.6931 37.3952
520 2 41.8918 24.3106 43.1716
521 2 9.19016 43.6241 52.2322
522 2 27.5478 51.6034 44.1417
523 2 23.1899 53.7849 19.4393
524 2 38.4454 8.56804 16.1191
525 2 44.1493 54.7983 22.8602
526 2 28.9074 20.5578 52.1651
527 2 45.7157 32.2903 15.5463
528 2 12.7128 31.7201 26.9911
529 2 36.6095 40.0002 35.048
530 2 43.0285 44.2278 35.3625
531 2 13.9598 25.2707 14.9283
532 2 32.3038 18.0361 50.0102
533 2 22.721 52.7659 8.46091
534 2 20.8311 41.3564 12.2605
535 2 55.5484 45.5414 19.5328
536 2 48.9375 28.265 41.9662
537 2 9.46154 10.0047 41.6488
538 2 20.1732 51.95 41.7604
539 2 6.34935 6.39561 42.0859
540 2 39.1311 36.497 47.7806
541 2 51.8129 9.63497 34.4187
542 2 24.3377 39.7374 31.6851
543 2 33.9836 40.1851 15.9395
544 2 27.5958 9.64813 54.0369
545 2 18.0357 49.6877 39.1513
546 2 25.3741 30.7488 24.1692
547 2 14.0526 34.944 27.0942
548 2 51.0447 29.683 18.6334
549 2 50.2018 19.178 16.0874
550 2 43.5033 7.63087 21.3958
551 2 7.95297 9.47136 8.6134
552 2 39.3099 8.36609 42.5238
553 2 16.526 42.2806 20.2921
554 2 10.5009 39.897 49.5153
555 2 33.5281 38.2262 12.5241
556 2 24.1413 32.5135 13.1925
557 2 10.841 49.7497 14.8323
558 2 55.6106 55.4451 10.2801
559 2 36.5456 38.3529 45.0715
560 2 23.0142 17.5038 50.1595
561 2 6.69287 46.4883 22.2621
562 2 11.2719 45.8249 13.9322
563 2 26.2495 26.3446 41.2771
564 2 28.5566 52.706 54.0621
565 2 49.0739 30.6758 9.30601
566 2 44.4765 18.1108 49.9136
567 2 16.4138 27.3301 19.5752
568 2 35.5725 33.2415 19.9575
569 2 46.6443 8.62652 46.1425
570 2 39.9719 54.4128 14.9706
571 2 53.9881 45.2505 7.56032
572 2 50.0826 32.2017 52.5956
573 2 34.4045 45.5919 45.5992
574 2 31.1351 32.9649 44.0821
575 2 26.8811 49.7007 51.3956
576 2 26.1576 34.2343 15.3147
577 2 28.0477 44.7592 30.0261
578 2 15.6238 40.5663 37.62
579 2 20.4957 13.606 45.0041
580 2 16.0879 37.3538 16.0509
581 2 16.7341 49.3766 8.5333
582 2 39.3262 31.7127 51.1509
583 2 11.1276 45.0248 40.4045
584 2 46.4186 11.1818 19.8787
585 2 41.3595 44.737 7.42968
586 2 12.4105 20.3679 40.5167
587 2 48.1281 28.9503 49.1648
588 2 29.5015 31.3805 9.53372
589 2 33.918 22.8746 54.4102
590 2 37.5246 14.8994 16.0899
591 2 41.9134 36.7344 23.3071
592 2 51.7634 9.41028 23.6881
593 2 19.1288 28.8237 45.6326
594 2 30.5786 50.2427 49.0567
595 2 44.1645 50.2173 19.5519
596 2 37.9604 14.0755 31.7564
597 2 35.0127 35.8149 45.1841
598 2 32.1372 8.4312 14.9922
599 2 35.8335 52.082 45.9366
600 2 12.7982 38.5883 8.3657
601 2 38.0178 28.1953 34.5961
602 2 41.8171 54.1731 54.1752
603 2 27.4373 42.5256 32.6709
604 2 43.5692 48.9644 55.1222
605 2 55.6246 23.7889 28.3804
606 2 19.9622 23.9813 27.0509
607 2 34.6064 28.1886 37.5008
608 2 53.5704 13.6151 47.7988
609 2 42.0209 53.5487 34.0189
610 2 25.2949 47.7096 31.4348
611 2 47.2762 18.8426 17.729
612 2 17.6322 44.0948 46.0348
613 2 14.3697 31.5841 39.8423
614 2 46.554 55.2871 9.01292
615 2 15.82 20.2986 37.0408
616 2 7.48108 7.14688 49.4282
617 2 14.3784 12.76 6.83822
618 2 10.0501 7.1745 54.7525
619 2 26.2197 11.3785 30.8074
620 2 31.7654 39.5212 45.1811
621 2 24.8994 49.8291 35.1639
622 2 41.8708 20.8241 38.39
623 2 24.361 19.2321 45.4804
624 2 28.9717 49.5301 32.6893
625 2 50.2704 29.1796 31.0035
626 2 21.6155 33.0031 32.6457
627 2 51.975 51.0886 19.3305
628 2 54.7675 54.9922 48.1531
629 2 15.3764 51.982 9.25318
630 2 17.7837 32.6838 26.5745
631 2 49.2559 16.4242 35.2671
632 2 26.1636 22.2242 24.6177
633 2 7.07477 52.2945 30.2198
634 2 47.2363 35.8143 18.2372
635 2 25.8391 51.3806 55.1177
636 2 47.0092 32.7247 52.0746
637 2 31.9769 49.1621 14.6682
638 2 35.2754 33.319 24.5889
639 2 13.6172 33.3517 22.3466
640 2 31.2159 10.566 13.2064
641 2 22.8365 24.2939 7.95126
642 2 33.0127 32.3158 48.0997
643 2 40.2917 10.7678 23.2664
644 2 30.8266 7.83567 17.3711
645 2 34.8666 42.9307 14.356
646 2 21.6579 17.9612 42.8118
647 2 18.0262 23.7466 10.1501
648 2 22.1138 43.7693 55.5961
649 2 8.64081 13.2232 42.6337
650 2 43.6087 43.2467 23.6191
651 2 8.51135 51.872 40.3709
652 2 10.0304 51.5297 52.8707
653 2 42.3383 35.6715 10.355
654 2 48.2605 6.34385 37.2793
655 2 55.478 47.1903 8.63243
656 2 42.5014 44.6311 27.5244
657 2 41.215 47.0768 35.8908
658 2 47.0464 32.5974 33.2684
659 2 29.2576 44.1912 8.74422
660 2 8.26 36.79 24.4795
661 2 37.2645 27.3471 26.0165
662 2 17.4573 46.5265 18.8011
663 2 54.2545 39.1094 25.4968
664 2 29.0735 54.9127 23.5068
665 2 10.4513 20.4351 28.9564
666 2 15.2193 9.44697 50.7503
667 2 34.1325 52.5206 22.4384
668 2 52.0434 43.0512 10.827
669 2 42.767 29.6401 37.8057
670 2 39.5871 54.1987 35.6996
671 2 16.8182 47.7629 11.0335
672 2 11.1381 21.1226 21.4043
673 2 22.2363 29.7633 21.5415
674 2 53.3563 7.25163 11.7729
675 2 35.3074 19.2151 44.6882
676 2 32.8733 26.6394 43.9626
677 2 38.0073 6.82739 28.9998
678 2 45.8504 28.4412 34.5073
679 2 7.57824 28.8144 29.3987
680 2 21.6731 34.6982 47.1717
681 2 55.1949 27.5881 13.312
682 2 41.6858 53.9131 41.2843
683 2 20.9143 50.5693 11.6084
684 2 15.1855 25.0846 44.9521
685 2 26.3783 37.7905 8.15315
686 2 49.3702 48.3562 26.3998
687 2 37.9953 43.8272 31.082
688 2 12.0221 31.1328 54.0275
689 2 44.0942 54.8863 47.9236
690 2 37.5611 20.1201 38.8416
691 2 22.108 9.32893 42.6808
692 2 22.4721 50.6989 19.0231
693 2 46.2873 32.8278 28.4816
694 2 52.1199 28.4714 13.4386
695 2 19.8076 38.835 47.4299
696 2 32.9572 7.27424 21.2375
697 2 47.4733 37.231 30.3251
698 2 43.0743 11.8486 7.74643
699 2 43.9685 15.1404 54.9725
700 2 46.4805 48.7012 39.6342
701 2 53.5527 8.19194 8.83957
702 2 14.1385 29.231 45.2921
703 2 45.5656 13.2997 22.1292
704 2 23.882 33.0958 6.42962
705 2 50.6147 51.4276 52.731
706 2 20.5032 6.28922 9.85159
707 2 9.40761 32.6522 25.517
708 2 12.7624 46.6342 26.1002
709 2 22.5195 20.4244 49.4774
710 2 48.6102 43.065 6.77114
711 2 15.5324 52.2733 29.6195
712 2 23.1871 34.5284 49.7546
713 2 29.947 51.4294 12.0853
714 2 10.4229 33.9448 18.2661
715 2 53.6255 35.2427 24.1096
716 2 30.0079 7.47281 50.3773
717 2 19.2013 28.0882 33.1621
718 2 8.04884 45.5321 44.6539
719 2 16.887 11.4494 47.041
720 2 34.4875 43.5749 36.3805
721 2 50.5079 12.753 30.8299
722 2 7.61841 13.0985 15.2062
723 2 10.5595 48.567 8.1993
724 2 29.7433 23.951 28.8012
725 2 6.98748 51.1716 21.0822
726 2 46.1487 6.88278 40.7528
727 2 15.3374 9.82135 31.1164
728 2 42.3142 22.7353 53.1905
729 2 38.2709 50.724 23.8013
730 2 47.2986 36.1163 50.7143
731 2 25.9309 41.337 29.9978
732 2 35.0663 54.4326 54.6076
733 2 29.5221 9.69538 28.0787
734 2 31.3015 41.8214 29.6893
735 2 8.47244 27.2438 51.517
736 2 54.5103 21.4152 45.2082
737 2 19.6089 46.6553 42.6112
738 2 54.5587 10.9524 13.9413
739 2 35.4394 49.5298 47.7891
740 2 22.8277 6.84538 12.0472
741 2 19.3806 22.7205 51.6556
742 2 54.3906 37.0182 36.1367
743 2 23.955 20.5038 37.9188
744 2 23.2172 49.6472 32.5449
745 2 47.7296 14.7253 17.3249
746 2 11.8288 29.1571 19.8199
747 2 44.034 22.8266 39.5529
748 2 7.11685 37.1026 40.9716
749 2 54.4397 33.7217 38.2843
750 2 27.9894 46.9093 34.3392
751 2 9.61793 8.26463 35.9459
752 2 9.20371 9.89335 22.297
753 2 44.8955 12.9869 53.4406
754 2 34.0369 9.12609 25.6243
755 2 10.5829 21.2281 24.3852
756 2 47.367 6.20367 15.2384
757 2 7.35048 8.4877 33.4615
758 2 22.8937 33.7308 37.429
759 2 51.2932 47.4007 54.6119
760 2 32.4846 28.3696 34.1121
761 2 27.8701 48.2508 45.9462
762 2 18.0267 52.2767 21.6834
763 2 13.0276 22.6386 25.953
764 2 54.945 25.2522 51.3646
765 2 51.6025 43.7905 6.8861
766 2 13.1343 38.1129 16.0425
767 2 39.3613 50.5871 8.3294
768 2 21.7462 46.3012 24.0754
769 2 41.1623 8.09053 12.2773
770 2 9.65779 31.657 47.4639
771 2 8.02474 36.8406 21.4508
772 2 37.2921 9.17777 20.8841
773 2 16.0617 22.3038 40.7426
774 2 12.0062 34.9942 39.8549
775 2 50.3506 32.1521 39.6891
776 2 16.9918 14.5767 32.2173
777 2 22.1839 25.2522 54.352
778 2 6.25131 34.3179 46.9712
779 2 50.7687 26.4499 30.2364
780 2 45.1757 53.1598 34.6502
781 2 50.4062 46.0756 24.6941
782 2 24.2148 50.4162 21.6194
783 2 46.6916 43.9523 41.6608
784 2 54.6131 51.1462 13.1183
785 2 53.177 19.275 50.7345
786 2 23.2226 6.17039 31.3611
787 2 55.4887 23.9846 55.0615
788 2 13.25 32.701 11.6112
789 2 28.1453 33.9734 41.3586
790 2 44.0233 13.052 32.768
791 2 46.5379 26.1329 21.768
792 2 48.1899 21.3238 32.9946
793 2 49.1748 25.3613 42.9146
794 2 40.1578 20.2338 6.75362
795 2 54.2017 23.8842 37.9491
796 2 49.3693 7.89952 19.5362
797 2 46.2315 52.8221 22.5995
798 2 14.7706 22.2971 50.9069
799 2 40.1157 17.4307 33.219
800 2 31.3808 13.3496 23.4197
801 2 54.1003 11.0561 30.5959
802 2 42.5607 11.5408 25.433
803 2 35.8317 48.1836 14.1883
804 2 10.2739 33.7666 50.752
805 2 15.7792 9.48421 20.4651
806 2 27.7733 19.0312 24.5054
807 2 49.905 16.3735 21.2214
808 2 54.2451 7.31211 23.8457
809 2 32.3398 31.6957 33.4952
810 2 31.6761 44.885 33.0306
811 2 34.2298 36.3639 51.5954
812 2 8.20291 32.2759 20.3497
813 2 29.882 50.7807 19.9096
814 2 30.2333 41.3607 13.0384
815 2 29.995 28.7046 10.7322
816 2 43.3599 19.3427 45.2073
817 2 25.1385 50.7278 41.9908
818 2 13.2798 43.3974 7.69335
819 2 8.69065 46.0518 15.5499
820 2 27.1513 19.965 12.1424
821 2 43.9917 40.8854 54.9939
822 2 16.6779 6.47719 42.3356
823 2 32.9486 26.3993 17.4497
824 2 46.0902 39.3088 15.8065
825 2 7.01682 41.6613 38.7126
826 2 55.4634 14.8889 17.3475
827 2 25.4926 26.1729 22.4451
828 2 40.8541 46.2988 44.4343
829 2 14.5145 39.836 12.4071
830 2 18.3576 19.4169 54.6567
831 2 11.5839 46.2801 23.1809
832 2 41.6981 31.7627 40.3328
833 2 31.5898 16.729 28.962
834 2 8.01115 19.1311 42.6218
835 2 14.1385 25.3798 6.48751
836 2 40.0405 47.9202 30.0848
837 2 54.6883 39.5759 34.6309
838 2 20.3847 46.1316 7.48755
839 2 23.141 28.4258 35.3765
840 2 52.1422 28.4871 28.2421
841 2 37.497 13.1909 42.0069
842 2 15.2685 13.9805 40.7582
843 2 13.6711 54.799 48.8105
844 2 10.9625 42.5514 21.0144
845 2 26.9361 22.435 39.1468
846 2 33.8142 39.443 52.1253
847 2 8.68545 29.8388 18.5678
848 2 33.6331 30.8304 43.5254
849 2 26.9807 16.0225 53.1064
850 2 20.9344 14.6772 22.9198
851 2 51.2692 9.78922 20.5479
852 2 25.3713 42.9619 52.4353
853 2 53.0009 30.0949 39.2968
854 2 21.8897 25.0026 30.3388
855 2 43.5999 26.5432 24.9487
856 2 21.3268 12.6929 36.3213
857 2 22.7761 55.3187 53.03
858 2 35.9897 24.4004 43.3099
859 2 22.3887 20.3998 35.5423
860 2 40.5622 21.89 35.6632
861 2 55.2175 34.6285 10.8365
862 2 24.7484 45.8969 19.8175
863 2 26.2057 48.0144 26.5641
864 2 38.2066 22.6394 49.7552
865 2 26.5546 15.4633 6.42104
866 2 23.3192 39.7596 38.9767
867 2 21.2218 16.2242 14.2939
868 2 46.2043 21.5651 16.3138
869 2 44.5098 14.9787 19.3655
870 2 28.2669 51.3582 47.5623
871 2 17.9981 41.5848 36.0687
872 2 55.4222 18.3352 27.6801
873 2 31.2011 55.4775 40.0253
874 2 12.517 9.52101 34.9142
875 2 44.1045 21.661 7.13811
876 2 55.4718 12.0198 39.7755
877 2 39.1898 30.4826 18.8942
878 2 39.2715 43.9827 46.8836
879 2 31.4491 36.0965 32.7257
880 2 29.8814 12.7558 30.6403
881 2 21.2948 19.6969 45.6363
882 2 36.9472 18.8132 50.4958
883 2 19.2194 33.7837 51.5177
884 2 41.3604 31.3884 44.7168
885 2 33.0192 32.5209 36.31
886 2 28.7045 48.3991 36.9116
887 2 8.52704 33.6863 10.8033
888 2 53.3134 10.1206 54.6585
889 2 51.7668 16.4015 13.2236
890 2 7.01165 38.8696 23.8208
891 2 9.12814 42.1372 30.6097
892 2 8.35101 27.5861 37.2689
893 2 55.1074 20.0835 41.275
894 2 10.2139 12.6781 18.7084
895 2 49.2685 23.6371 30.8894
896 2 46.3278 18.0254 24.9207
897 2 37.1036 15.5494 9.54248
898 2 24.9934 25.2516 50.6768
899 2 15.0332 24.8221 37.5753
900 2 8.68188 34.5596 37.1193
901 2 15.5787 31.1184 30.9427
902 2 19.0572 43.8218 34.3621
903 2 55.7351 32.0254 51.7892
904 2 38.0829 14.7719 22.147
905 2 13.9684 12.5066 22.2266
906 2 29.547 44.1724 45.4804
907 2 34.332 29.205 30.1063
908 2 52.8503 53.1187 52.3935
909 2 15.6327 51.5931 12.4635
910 2 43.9698 46.4478 39.8963
911 2 42.2341 11.3138 52.7196
912 2 16.9111 41.3269 24.58
913 2 38.2707 13.4442 28.7738
914 2 44.6492 16.5261 11.5154
915 2 25.6928 30.9575 52.0306
916 2 27.3428 7.77096 38.8947
917 2 48.0128 48.938 12.534
918 2 21.627 45.8701 46.4636
919 2 30.7002 16.4871 40.711
920 2 9.23675 43.4276 33.8491
921 2 37.8639 25.1427 28.02
922 2 20.2842 38.7152 38.3888
923 2 55.5207 39.5377 16.6941
924 2 54.2639 48.3125 47.5194
925 2 16.6592 8.66077 45.8629
926 2 53.7488 31.8068 10.5687
927 2 39.4361 35.0885 29.3416
928 2 41.3058 27.0175 26.254
929 2 38.0315 47.7312 17.9351
930 2 38.6273 36.2288 12.5062
931 2 36.7566 28.1263 22.6172
932 2 28.9013 39.1715 51.5764
933 2 49.2503 18.5867 41.5495
934 2 34.7876 45.8677 38.6829
935 2 37.9344 6.55994 33.4555
936 2 22.4779 21.5444 31.1158
937 2 37.5128 42.8331 51.5571
938 2 24.6532 45.6634 53.7709
939 2 17.6317 38.1907 21.9287
940 2 32.8456 50.3936 38.8205
941 2 33.3939 39.0848 37.9924
942 2 15.3217 20.7026 7.9316
943 2 36.4588 10.9744 46.5773
944 2 12.0457 48.2554 37.3212
945 2 41.6889 7.60203 9.48453
946 2 47.4151 52.2093 26.8665
947 2 43.6056 29.7672 28.0815
948 2 38.7686 23.2297 29.7497
949 2 32.0793 44.192 28.1681
950 2 10.0935 13.2548 30.8929
951 2 39.3906 23.2042 14.2752
952 2 46.3357 8.11329 21.0927
953 2 21.3026 22.8994 10.4273
954 2 34.599 17.6487 19.0445
955 2 19.0562 32.6192 34.5611
956 2 7.19345 43.3783 23.1706
957 2 42.7924 24.2917 32.9369
958 2 45.3467 21.4699 30.139
959 2 35.7476 19.8792 53.5333
960 2 44.9756 14.2532 38.1667
961 2 8.70062 9.72604 29.2803
962 2 46.0911 10.3144 37.8355
963 2 35.1689 25.8563 45.4765
964 2 41.8006 20.2068 27.5251
965 2 41.0142 6.54428 28.6186
966 2 22.0626 53.5531 29.5353
967 2 46.5347 50.5725 29.8513
968 2 48.6873 10.148 23.9573
969 2 30.9692 9.27667 7.25825
970 2 45.2715 46.5325 55.4246
971 2 14.4531 49.9056 23.1736
972 2 50.1823 6.86886 47.7129
973 2 10.7806 54.6938 46.4771
974 2 41.8106 40.4537 12.7794
975 2 24.7731 15.7171 23.1515
976 2 31.8071 47.0202 29.2436
977 2 31.5308 47.7355 6.61928
978 2 37.541 10.4613 44.1587
979 2 32.1424 11.7165 15.6512
980 2 33.9558 35.823 14.6547
981 2 54.9552 53.7071 43.4111
982 2 27.4505 51.511 13.2065
983 2 12.8092 31.8667 18.3973
984 2 28.9331 41.1946 27.6031
985 2 37.6044 51.132 40.9967
986 2 50.0408 42.0486 21.0417
987 2 24.0415 42.5602 32.3963
988 2 25.0593 35.4869 41.0747
989 2 44.8458 35.4499 24.0536
990 2 31.5915 7.10521 43.5591
991 2 53.6144 41.6805 13.0441
992 2 46.481 30.5682 40.6876
993 2 54.8266 48.4499 35.7222
994 2 52.3507 41.1516 35.4429
995 2 20.2047 53.8182 20.5092
996 2 18.7574 48.2992 53.2193
997 2 40.5894 38.3854 11.0875
998 2 46.9802 48.8867 19.9568
999 2 44.9354 33.0144 41.5288
1000 2 8.34849 35.8266 16.9562
1001 2 8.16757 21.7885 28.3161
1002 2 50.4169 18.5618 6.51738
1003 2 40.4817 13.322 40.5694
1004 2 22.1026 27.652 19.7874