ITEM: TIMESTEP
0
ITEM: NUMBER OF ATOMS
9088
ITEM: BOX BOUNDS xy xz yz pp pp pp
6.0576372973473616e+00 5.5873300494776174e+01 -5.7154241278842949e-15
6.0576372973473669e+00 5.5873300494776174e+01 0.0000000000000000e+00
6.0576372973473669e+00 5.5873300494776174e+01 0.0000000000000000e+00
ITEM: ATOMS id type x y z
1 2 37.5298 19.1519 31.1561
2 2 7.00587 55.3913 50.0399
3 2 48.119 19.7254 43.2201
4 2 12.1523 11.4584 47.0121
5 2 14.371 48.5311 44.5075
6 2 37.1087 45.7833 20.0482
7 2 24.9871 10.1971 34.063
8 2 30.5137 26.7031 35.3462
9 2 14.0901 39.5465 45.5345
10 2 11.4537 36.6026 49.1167
11 2 30.5279 26.087 44.5224
12 2 8.119 41.4762 14.5547
13 2 20.2659 12.2775 19.155
14 2 50.1864 44.6582 51.631
15 2 44.9131 26.2785 11.0695
16 2 40.0553 33.935 21.6275
17 2 22.4765 53.6389 23.2659
18 2 39.0694 42.1732 53.5957
19 2 20.2091 49.7429 43.2522
20 2 20.1307 6.88225 27.4166
21 2 26.6216 35.6443 9.1452
22 2 31.375 40.5423 26.3403
23 2 25.4722 48.7984 29.4087
24 2 11.4611 51.3253 42.95
25 2 36.5974 15.8677 15.1802
26 2 44.14 24.9022 22.1693
27 2 42.7785 20.1673 53.9313
28 2 6.43635 14.1396 6.56104
29 2 22.6195 35.9101 23.2956
30 2 20.3457 35.2863 19.5379
31 2 39.1942 16.8208 7.31634
32 2 17.0477 53.5186 38.0621
33 2 13.8148 25.9892 28.1697
34 2 43.3698 45.5012 32.2513
35 2 36.2058 7.76575 12.447
36 2 38.6443 21.0346 54.5904
37 2 41.8969 17.652 37.2581
38 2 25.9127 23.6348 14.1812
39 2 32.9685 28.6607 43.6192
40 2 34.2685 51.7916 17.046
41 2 50.5281 13.5462 30.9843
42 2 19.7523 19.3624 30.1464
43 2 19.3255 12.1467 30.3047
44 2 30.9917 52.3615 8.91112
45 2 28.4483 41.7421 52.5973
46 2 45.9993 25.4537 41.4565
47 2 16.7415 19.8753 21.8283
48 2 32.3684 40.3488 16.3866
49 2 31.4027 10.9596 45.9245
50 2 42.8407 39.6129 10.6662
51 2 30.5757 48.6822 47.911
52 2 26.9198 41.531 55.3749
53 2 25.2141 52.2106 51.8156
54 2 43.1843 23.3281 9.54142
55 2 15.3495 45.3561 40.1989
56 2 48.9283 9.64107 45.9487
57 2 53.1988 46.5144 40.5895
58 2 54.194 6.45137 42.751
59 2 12.6779 10.3299 37.8271
60 2 49.6443 43.2835 8.47249
61 2 35.4641 48.4704 24.7775
62 2 33.2516 54.9567 27.6501
63 2 55.1929 8.48225 10.0927
64 2 21.8651 50.8697 41.3493
65 2 41.7383 43.9331 41.9705
66 2 41.5087 29.1656 16.3582
67 2 10.5978 21.2343 9.21573
68 2 54.1916 36.638 42.7158
69 2 24.3185 11.1612 15.8146
70 2 11.8911 54.0904 42.6727
71 2 27.2482 8.52774 19.148
72 2 37.417 45.5071 44.1931
73 2 51.8681 10.8941 6.56911
74 2 30.3283 16.798 7.78761
75 2 12.1338 20.4436 21.0981
76 2 7.78881 12.982 10.5228
77 2 33.3199 29.0869 18.2195
78 2 41.0547 39.7299 43.3254
79 2 46.4125 19.9075 17.8345
80 2 38.0823 18.5653 52.5242
81 2 45.0708 49.7993 15.5943
82 2 22.7482 25.7402 38.3246
83 2 22.3367 50.595 12.5453
84 2 47.2101 49.9686 43.7532
85 2 36.0019 9.69327 31.4338
86 2 35.8172 54.2525 16.5313
87 2 25.6649 49.8012 49.6941
88 2 16.0665 35.0738 53.8451
89 2 54.1529 13.8651 27.4938
90 2 29.8783 39.1278 9.21442
91 2 40.3163 26.8653 36.9338
92 2 23.7802 26.597 18.7933
93 2 53.2298 17.9723 13.7808
94 2 52.2621 14.1028 47.7206
95 2 39.3424 28.9997 39.0238
96 2 14.8421 20.6185 19.042
97 2 41.3681 55.201 48.5861
98 2 24.9114 42.9792 40.2639
99 2 31.6311 24.9357 19.7319
100 2 14.6209 39.3216 15.8069
101 2 29.5176 50.0907 43.8264
102 2 47.5094 22.5641 55.8434
103 2 8.22579 44.6059 43.399
104 2 24.7299 15.6693 33.3271
105 2 14.6467 38.1721 55.1169
106 2 51.692 8.45353 17.9786
107 2 44.1313 26.7139 54.1475
108 2 33.9282 16.5647 40.5104
109 2 17.8146 31.9879 41.1941
110 2 27.5802 42.7683 48.4438
111 2 20.5046 37.8418 45.1896
112 2 28.4034 45.5708 49.4824
113 2 46.8183 16.0508 39.7676
114 2 32.5144 21.2713 16.6568
115 2 43.6679 19.6264 11.8833
116 2 36.0684 25.857 39.801
117 2 27.7405 40.9832 35.5496
118 2 30.302 11.1389 51.7187
119 2 9.18032 32.6028 48.1209
120 2 28.2296 52.5856 6.81063
121 2 16.518 41.939 29.4916
122 2 28.9955 24.7596 48.7227
123 2 39.1112 20.7695 10.557
124 2 28.4686 55.6703 51.0915
125 2 17.404 43.8197 50.6895
126 2 36.6928 23.4599 41.7041
127 2 12.5029 32.0838 30.1373
128 2 51.5286 13.1451 26.9219
129 2 32.8489 50.7057 10.075
130 2 42.5974 50.14 37.0464
131 2 9.7672 37.1868 19.4007
132 2 33.6797 24.9297 51.2935
133 2 32.2466 7.87932 55.282
134 2 21.4346 55.8418 25.0042
135 2 33.5267 24.3634 37.9587
136 2 7.75755 28.5885 8.17274
137 2 23.7386 10.9096 22.5881
138 2 49.7181 36.849 21.5816
139 2 7.72557 39.8637 24.4377
140 2 16.609 54.0068 12.4022
141 2 46.9644 45.7275 26.2233
142 2 25.2981 28.9955 39.0898
143 2 48.1815 42.0626 39.2178
144 2 12.8423 45.674 22.2949
145 2 37.4675 41.9017 10.8735
146 2 23.4458 30.571 39.9003
147 2 32.95 13.876 25.0709
148 2 21.8474 42.2405 43.9008
149 2 26.5112 40.2386 43.3476
150 2 22.5667 8.50203 30.4428
151 2 17.7565 14.6099 52.782
152 2 9.24256 35.3769 21.8717
153 2 19.6843 17.1426 49.3431
154 2 45.6639 41.0779 27.3284
155 2 38.2699 30.8391 12.4489
156 2 32.1165 21.258 53.5797
157 2 31.5418 26.5752 17.1618
158 2 51.1334 6.89872 20.3815
159 2 23.3449 33.9387 25.5393
160 2 30.7602 40.7932 51.0303
161 2 31.2288 52.7962 41.0054
162 2 41.9477 37.2871 8.5287
163 2 39.0355 42.3611 23.7797
164 2 38.3029 26.3301 30.2312
165 2 31.9793 6.54647 20.4903
166 2 29.5651 8.68176 44.4372
167 2 25.0956 18.5719 45.1517
168 2 10.7457 30.1059 36.6322
169 2 41.2397 55.0509 18.9049
170 2 54.6705 9.9045 14.6245
171 2 22.9067 27.8537 41.3722
172 2 17.6362 49.8172 40.6981
173 2 54.4737 50.2396 22.8155
174 2 15.2117 39.1092 42.4645
175 2 14.317 6.08735 8.34803
176 2 46.9023 39.5187 38.7087
177 2 46.0163 18.9094 45.0374
178 2 29.6818 10.3045 20.0531
179 2 17.6808 24.5283 29.7623
180 2 11.6419 28.5568 15.6197
181 2 11.6969 51.1146 27.1147
182 2 38.5918 10.1617 8.28961
183 2 49.2006 17.9465 23.3969
184 2 8.25478 6.56218 15.0835
185 2 35.0667 42.7349 36.1049
186 2 50.5377 34.6412 49.0447
187 2 29.5759 20.2396 23.101
188 2 51.1811 51.3772 30.624
189 2 55.3143 22.1811 19.7545
190 2 32.881 51.2634 45.2476
191 2 27.4634 26.0153 55.1548
192 2 33.7259 31.6081 49.6295
193 2 55.4904 54.7539 29.3053
194 2 41.0187 33.0005 17.6958
195 2 55.7501 47.9959 20.4591
196 2 31.6791 34.8587 13.4027
197 2 15.9748 33.7688 44.5999
198 2 41.5883 49.4408 52.1365
199 2 38.5981 55.8353 55.3401
200 2 8.99568 14.3946 18.3706
201 2 10.3305 7.84154 51.7215
202 2 26.9383 51.054 26.6671
203 2 26.9011 53.7572 20.3863
204 2 41.9318 23.7499 13.5424
205 2 25.0823 38.0737 39.3965
206 2 47.7596 40.21 49.3765
207 2 14.8084 20.661 28.6848
208 2 14.7786 27.275 9.59702
209 2 6.65319 14.1112 34.7908
210 2 12.5595 43.2715 51.8793
211 2 50.6266 47.021 44.5723
212 2 47.0618 21.6776 22.0255
213 2 13.3038 26.5895 33.2514
214 2 13.003 45.8798 43.6929
215 2 8.25721 10.6887 53.8862
216 2 49.3214 54.4016 52.6477
217 2 7.05901 37.1055 29.6435
218 2 23.4355 9.1956 9.05702
219 2 55.2344 50.8728 12.5505
220 2 25.7786 7.50352 52.6572
221 2 19.4909 8.13592 6.55176
222 2 46.0764 35.4456 49.5256
223 2 30.7301 34.8083 48.114
224 2 19.3938 12.4433 42.2238
225 2 27.3187 21.2419 29.244
226 2 40.0267 33.684 55.2664
227 2 49.2533 35.5443 9.48731
228 2 28.9155 26.0266 28.8787
229 2 32.5367 41.1322 20.5737
230 2 25.6749 52.5298 9.08002
231 2 52.8559 6.49189 47.6782
232 2 31.1077 6.86123 52.613
233 2 49.6213 20.337 50.2838
234 2 20.4497 25.7484 25.0937
235 2 54.0085 20.6905 29.1549
236 2 37.0279 28.1886 52.0738
237 2 24.3776 15.9361 22.8807
238 2 40.7932 15.5986 43.7531
239 2 25.3816 13.0608 34.01
240 2 8.86027 34.8471 17.5048
241 2 31.4285 20.9822 25.6388
242 2 25.6845 35.1856 49.1506
243 2 24.5132 37.8018 35.913
244 2 21.9321 12.9345 44.1119
245 2 40.9817 10.3418 15.7605
246 2 17.6489 50.4533 15.5095
247 2 9.34171 41.5383 51.6727
248 2 53.1804 9.09288 26.635
249 2 49.4545 14.7476 6.90944
250 2 53.8246 39.8793 27.5195
251 2 31.3435 45.0829 51.2741
252 2 6.4323 43.8355 20.2268
253 2 20.8026 22.5259 43.3851
254 2 14.219 54.3527 19.9863
255 2 35.3615 18.8071 51.6275
256 2 8.03441 47.0329 41.8891
257 2 15.3076 43.4216 22.5554
258 2 20.0939 15.9557 24.19
259 2 47.0282 6.62891 52.7927
260 2 36.1288 22.058 31.1894
261 2 15.9464 20.3501 42.8745
262 2 49.739 39.0883 35.5369
263 2 24.2032 18.5784 36.6759
264 2 53.7131 42.1202 45.3171
265 2 29.38 23.2823 36.504
266 2 10.9775 42.0359 22.1259
267 2 50.8019 28.3864 30.3332
268 2 13.3247 18.899 38.6673
269 2 25.8853 39.2964 46.5041
270 2 39.4486 34.8441 28.0508
271 2 12.9038 28.5236 27.8909
272 2 17.9213 53.3131 10.1114
273 2 32.9694 23.9858 29.8284
274 2 37.5879 25.7262 8.92311
275 2 53.2143 34.7225 28.5471
276 2 11.2784 9.40059 13.3668
277 2 46.9787 20.2481 10.9788
278 2 17.7456 52.7474 51.5658
279 2 53.3447 18.5329 30.7477
280 2 35.8554 49.7163 51.679
281 2 38.0016 55.8026 8.54017
282 2 28.1339 49.7147 14.3948
283 2 36.7864 6.50396 42.6037
284 2 27.6301 34.554 18.8633
285 2 46.4966 28.3353 19.6991
286 2 24.4592 49.2609 52.8482
287 2 10.1992 9.55357 44.1695
288 2 13.5654 7.2323 48.3944
289 2 28.9522 48.0306 29.1142
290 2 10.342 54.9086 39.9489
291 2 20.329 32.2789 8.47566
292 2 53.7101 39.6121 54.9852
293 2 26.7261 42.229 8.59442
294 2 6.81588 10.9178 6.8722
295 2 39.0433 49.3059 38.2748
296 2 22.0397 37.404 50.4399
297 2 37.3377 30.8183 46.5331
298 2 12.1866 47.3569 50.9327
299 2 35.8765 20.3512 23.2496
300 2 48.0959 39.7563 33.1888
301 2 42.4321 20.6615 38.7627
302 2 54.0777 34.0928 31.4199
303 2 31.1673 44.7642 28.538
304 2 37.0131 43.0382 20.4513
305 2 34.5829 31.6952 6.86089
306 2 49.3169 11.771 33.5266
307 2 28.2081 53.8258 22.6405
308 2 29.1802 26.3521 20.5679
309 2 37.0996 30.9835 15.5388
310 2 16.3126 41.9929 38.2248
311 2 17.4815 55.5515 6.75208
312 2 9.07557 38.3227 11.2032
313 2 34.9218 24.8375 46.9688
314 2 49.1239 33.4421 40.3369
315 2 7.30068 13.5233 16.2165
316 2 10.8591 26.2334 52.0063
317 2 49.6522 38.6236 55.7339
318 2 26.6399 44.0074 19.7267
319 2 52.2702 15.0787 21.6369
320 2 55.5881 54.792 19.1178
321 2 49.0452 41.1652 42.4312
322 2 16.8965 13.0332 28.9996
323 2 53.1235 51.7838 44.6891
324 2 47.9913 30.0525 10.922
325 2 37.9629 23.6548 14.1395
326 2 25.187 27.62 12.7101
327 2 42.2661 32.5075 23.544
328 2 25.082 22.6984 8.71459
329 2 47.2548 35.1042 20.3941
330 2 38.373 26.1402 6.28148
331 2 9.94813 41.3771 11.0275
332 2 45.8069 42.1179 47.3809
333 2 19.4813 14.5939 21.3944
334 2 13.3642 43.2306 18.386
335 2 52.4159 34.9336 24.3938
336 2 31.4847 32.6516 21.6853
337 2 27.3431 12.5756 37.6829
338 2 9.52122 55.8218 44.3554
339 2 41.6138 46.6532 8.97105
340 2 16.2839 13.9891 24.7985
341 2 12.5487 40.7117 29.728
342 2 53.7813 29.2709 25.262
343 2 45.5342 52.7706 54.6618
344 2 15.2981 32.2474 15.8466
345 2 24.2833 34.4277 46.8671
346 2 13.5479 40.5421 39.008
347 2 9.84737 17.1615 36.4713
348 2 51.5307 21.2972 31.7044
349 2 29.6075 27.1647 38.4049
350 2 40.6123 45.538 35.6599
351 2 8.86983 27.5093 42.996
352 2 37.0643 27.3679 26.1567
353 2 32.8363 14.6632 42.8759
354 2 46.6175 45.5542 41.7602
355 2 26.3802 13.7822 9.85954
356 2 41.6369 54.3043 35.7627
357 2 39.9611 15.8946 33.6887
358 2 6.72428 8.01094 36.035
359 2 24.0521 51.2279 34.1391
360 2 21.7634 16.1104 47.099
361 2 47.5563 37.3012 26.3471
362 2 31.4649 32.64 42.5231
363 2 46.0816 40.9611 13.26
364 2 30.7809 11.912 7.54695
365 2 26.1674 40.545 19.5355
366 2 20.9347 30.7911 24.0709
367 2 54.4685 6.11966 45.3835
368 2 24.2303 9.77933 18.8535
369 2 31.0034 14.1956 22.7468
370 2 17.2275 45.1847 53.3272
371 2 20.3007 13.3196 52.3056
372 2 14.0907 29.9906 9.314
373 2 33.0982 13.326 18.5444
374 2 36.2326 10.6672 14.1654
375 2 34.9203 48.6495 39.7105
376 2 34.8796 39.1022 7.76765
377 2 23.0231 27.0222 46.1184
378 2 32.0824 11.209 35.9166
379 2 19.7853 53.0707 23.7995
380 2 14.0947 19.8951 16.3208
381 2 17.5407 24.962 49.8556
382 2 21.9163 54.4018 44.6417
383 2 8.10811 34.1954 50.9147
384 2 17.5317 7.84736 25.2872
385 2 15.9306 6.68335 45.3955
386 2 49.7367 11.3654 36.3445
387 2 9.12106 14.9443 31.8696
388 2 14.4507 47.2041 10.3646
389 2 17.722 7.22969 50.1158
390 2 19.1444 17.0994 34.8086
391 2 17.6847 11.8259 6.79905
392 2 8.58091 7.43286 32.1683
393 2 53.827 33.3123 11.8788
394 2 24.9362 13.0895 50.5031
395 2 39.3388 30.6879 7.76527
396 2 46.0484 34.9606 46.9461
397 2 23.5805 34.4605 51.548
398 2 34.5229 22.0955 26.6936
399 2 39.8875 55.5782 25.7362
400 2 22.1277 21.5504 8.12607
401 2 14.2904 47.1331 38.5697
402 2 6.23049 34.0028 34.1608
403 2 9.11175 10.2656 11.4338
404 2 32.0998 27.1035 8.78327
405 2 25.546 28.1549 44.6172
406 2 34.6815 7.47993 46.546
407 2 39.828 21.7566 17.3643
408 2 44.9685 29.6179 46.102
409 2 54.941 14.9145 9.59093
410 2 10.3625 37.4616 33.6063
411 2 22.922 22.1153 17.5815
412 2 35.4962 48.7561 6.38256
413 2 16.8815 18.6463 11.9269
414 2 50.2462 53.3794 32.9223
415 2 11.1818 42.909 25.3813
416 2 49.2623 42.2923 45.5401
417 2 19.5974 39.8383 36.2822
418 2 25.1187 22.718 45.3467
419 2 45.8203 46.9264 20.7099
420 2 23.675 34.7227 42.2594
421 2 32.3321 20.4503 30.0253
422 2 42.7564 9.60766 22.4335
423 2 46.0712 29.3309 14.6562
424 2 51.9713 15.5456 8.23013
425 2 12.5294 49.1023 7.55576
426 2 31.1004 35.8118 41.7874
427 2 34.5078 27.8766 32.1538
428 2 17.0274 31.7395 36.4546
429 2 26.4629 31.4982 12.8823
430 2 47.2799 51.7806 32.5185
431 2 30.0252 21.5781 6.64009
432 2 31.4306 52.4118 33.8436
433 2 29.037 31.3133 40.8899
434 2 13.7905 44.9988 47.2563
435 2 27.534 47.5745 16.0822
436 2 15.7864 16.2842 40.3103
437 2 26.8351 25.1907 19.1046
438 2 46.7502 55.7796 27.3611
439 2 24.8596 49.5528 42.3237
440 2 11.2451 39.572 45.6904
441 2 34.936 45.6342 53.2071
442 2 48.2835 28.6062 13.4661
443 2 7.55767 41.6297 22.3095
444 2 33.5391 9.18437 39.1634
445 2 7.6082 17.165 38.8769
446 2 7.90349 16.7775 49.7997
447 2 28.7101 37.8361 15.8532
448 2 21.5745 25.4617 10.3849
449 2 37.8051 44.7707 34.868
450 2 18.6828 14.0435 17.8492
451 2 10.6555 9.07674 33.5073
452 2 45.5346 41.3314 24.6147
453 2 20.0725 33.4274 22.7435
454 2 45.1702 27.0841 45.0076
455 2 53.0332 19.5153 40.8223
456 2 32.3764 40.5609 55.238
457 2 26.696 20.2767 8.24382
458 2 44.9525 41.8696 44.2447
459 2 55.3309 20.6451 50.102
460 2 7.52286 33.3441 28.504
461 2 34.8472 41.2705 50.5555
462 2 20.8464 8.91327 19.5025
463 2 53.1823 36.033 40.1153
464 2 35.6817 47.9023 43.9781
465 2 14.1224 16.3848 27.4185
466 2 40.821 15.7913 49.9115
467 2 19.9321 35.9179 9.21323
468 2 43.282 17.0359 45.1704
469 2 8.25939 33.9014 37.9936
470 2 45.4555 17.754 51.5911
471 2 39.6977 23.8333 54.8783
472 2 39.4679 39.4354 51.9828
473 2 51.3618 27.6278 25.8067
474 2 21.0464 39.8588 10.7347
475 2 45.8609 55.3218 39.1982
476 2 20.4198 44.9688 10.7153
477 2 30.4278 50.9149 13.8709
478 2 21.7938 51.4335 10.0552
479 2 41.537 25.8791 18.851
480 2 25.6553 35.8238 24.9913
481 2 23.8167 50.5099 26.7064
482 2 33.6277 39.4264 11.8882
483 2 17.6443 45.919 9.80825
484 2 48.9001 38.2692 47.214
485 2 23.1627 31.0966 48.2747
486 2 50.469 8.6095 40.0715
487 2 34.3639 30.4296 34.3769
488 2 51.0162 36.1949 19.0347
489 2 13.4732 51.5427 49.7746
490 2 34.0741 12.4701 15.8406
491 2 36.4257 45.1874 49.7355
492 2 43.4498 37.8686 27.7399
493 2 47.3492 46.8375 33.0193
494 2 51.2689 26.0474 41.9764
495 2 17.3894 26.1404 34.0934
496 2 51.5505 26.2749 53.8142
497 2 11.2491 47.6196 37.5179
498 2 22.6381 21.035 51.4857
499 2 52.9147 16.7866 33.509
500 2 11.3797 27.3416 25.2412
501 2 22.5582 47.3771 12.1661
502 2 34.0728 15.9244 16.7286
503 2 25.2076 24.2073 34.363
504 2 29.5066 45.1005 7.40204
505 2 21.7848 42.0825 46.7818
506 2 15.9925 36.2369 26.5345
507 2 21.7123 36.0726 11.8901
508 2 53.8665 11.9689 40.6544
509 2 24.2802 11.8618 36.5578
510 2 48.5929 34.812 34.317
511 2 27.7195 12.5283 12.9621
512 2 48.9767 25.804 10.6605
513 2 31.5741 30.2717 35.7572
514 2 51.5624 39.7599 45.8064
515 2 39.5125 10.6615 22.4162
516 2 44.1458 43.3192 20.1806
517 2 37.8893 47.2879 7.03138
518 2 26.8678 53.991 13.8761
519 2 44.1688 27.938 17.9654
520 2 49.9947 40.8541 24.8028
521 2 19.1586 13.99 32.8137
522 2 45.1222 13.523 28.1639
523 2 27.6591 20.97 51.1167
524 2 42.904 24.9921 40.3828
525 2 51.0469 20.9949 10.5796
526 2 38.2245 38.6887 35.6146
527 2 48.5602 48.9717 47.7478
528 2 18.2855 50.1815 10.194
529 2 40.8384 8.73949 13.8062
530 2 47.8355 21.8345 19.574
531 2 24.1369 39.2175 49.2737
532 2 39.3095 35.273 32.7787
533 2 28.3987 23.2763 41.3947
534 2 26.76 6.57112 48.3122
535 2 10.9645 13.8707 50.8417
536 2 54.9612 43.1519 17.5546
537 2 23.9659 31.9037 21.5104
538 2 28.5803 24.3357 24.2334
539 2 9.30781 24.238 34.7099
540 2 47.1432 9.64789 29.9561
541 2 11.4977 27.4514 22.2868
542 2 33.0234 51.8535 12.6883
543 2 40.5499 7.44026 50.9112
544 2 32.3429 28.5346 39.6013
545 2 22.5423 20.1578 19.4382
546 2 31.1805 50.21 50.5662
547 2 21.3056 53.1945 7.42105
548 2 50.9928 48.4976 55.2023
549 2 7.86301 36.9136 45.2542
550 2 48.8897 24.6249 53.6951
551 2 18.0829 29.0082 39.8214
552 2 48.6862 25.9464 24.1289
553 2 23.3796 11.1503 52.7278
554 2 21.0185 54.6946 33.2044
555 2 39.518 6.54363 43.935
556 2 28.4136 46.0374 42.7154
557 2 11.0425 17.9811 48.5123
558 2 13.5668 22.8857 36.6635
559 2 46.1748 52.4967 27.2547
560 2 32.7359 37.282 32.8895
561 2 13.027 16.7024 50.8549
562 2 17.9112 14.6071 45.7311
563 2 31.2108 43.1088 24.5981
564 2 36.198 23.2788 37.4444
565 2 55.7436 50.8259 45.9045
566 2 50.1561 35.6367 30.0297
567 2 25.7596 45.3506 47.8659
568 2 36.0368 52.7534 53.7323
569 2 7.39054 19.6403 32.4316
570 2 50.7331 24.6577 45.837
571 2 14.4229 11.8521 32.6892
572 2 50.8482 51.171 40.4022
573 2 36.8576 12.8776 25.4322
574 2 37.1633 54.2932 25.0878
575 2 33.0718 19.0205 32.2865
576 2 29.9795 6.23914 46.5107
577 2 31.3772 10.1662 12.7965
578 2 22.9935 13.5073 18.9164
579 2 27.3384 32.5841 27.5323
580 2 21.3793 6.66074 48.6888
581 2 26.5579 17.9109 40.1406
582 2 53.5678 9.4119 33.2282
583 2 13.3697 13.4453 18.9132
584 2 10.6229 25.5011 11.8634
585 2 47.5883 7.98192 44.4095
586 2 15.8499 34.5018 20.7239
587 2 7.34474 50.155 34.2022
588 2 36.967 47.6953 32.8755
589 2 37.8849 41.9755 34.4929
590 2 48.7289 25.9771 7.31544
591 2 52.8648 54.1552 6.82067
592 2 10.219 27.4918 9.47868
593 2 25.4575 48.4264 24.8757
594 2 44.2247 22.9331 42.2385
595 2 48.8811 17.9447 48.648
596 2 48.434 31.6067 14.7097
597 2 39.7159 51.0225 28.4562
598 2 36.9561 24.7631 44.0916
599 2 45.5028 21.9134 25.3649
600 2 20.2082 8.27565 42.4501
601 2 47.6446 44.5601 31.2056
602 2 44.4903 25.9944 36.8656
603 2 31.9906 15.0126 14.6224
604 2 48.6624 15.2653 37.7971
605 2 6.0597 39.0797 9.07229
606 2 22.068 39.3202 55.7671
607 2 42.0486 49.1871 28.8911
608 2 17.9783 27.2624 25.6303
609 2 44.4006 25.1179 18.1575
610 2 34.8602 15.3472 52.0204
611 2 6.41896 33.5546 48.035
612 2 20.7926 16.0304 27.2621
613 2 17.5926 51.3206 19.4257
614 2 51.7964 27.2654 45.293
615 2 24.8613 33.5692 17.6207
616 2 11.9107 20.9415 34.9528
617 2 14.4259 30.6678 37.9793
618 2 18.666 25.6725 36.9281
619 2 34.1769 29.8565 13.9203
620 2 40.6222 8.25181 29.0109
621 2 28.0446 17.2716 21.4763
622 2 50.1687 39.3569 19.4855
623 2 30.6363 37.9464 28.2408
624 2 33.2026 18.6313 15.1433
625 2 54.2001 46.7765 8.82987
626 2 25.8272 50.9233 13.2039
627 2 10.4739 21.0261 49.8998
628 2 9.09224 23.4545 31.281
629 2 20.1297 18.9487 38.9222
630 2 26.7827 52.9307 17.3839
631 2 55.4065 34.4291 18.449
632 2 32.8895 42.9995 9.63438
633 2 10.5063 16.7593 11.0528
634 2 53.0848 7.27638 51.5971
635 2 34.3757 21.2296 38.6462
636 2 45.6797 48.0576 36.3451
637 2 38.7639 18.5258 48.2833
638 2 39.9932 54.6836 11.1105
639 2 14.4018 43.0816 11.2131
640 2 45.5766 28.4261 50.0267
641 2 24.2091 42.0825 37.7622
642 2 43.3406 52.8332 23.831
643 2 50.0042 29.2574 6.95739
644 2 32.5757 27.8731 47.5608
645 2 34.3736 10.2491 49.5145
646 2 28.5377 36.868 24.6813
647 2 24.94 47.2936 39.9614
648 2 21.7723 13.2582 37.2303
649 2 19.8242 28.6366 18.3708
650 2 48.7137 12.9447 9.55
651 2 12.628 21.117 23.7292
652 2 16.941 19.4221 35.7687
653 2 47.8111 50.8858 39.3959
654 2 54.2334 26.8538 55.801
655 2 13.0801 14.8099 44.2333
656 2 46.0306 13.6405 10.0425
657 2 8.27791 18.3497 22.1176
658 2 47.9495 53.4234 14.6932
659 2 36.5024 12.6381 41.7347
660 2 14.0166 52.6938 54.8775
661 2 42.5114 50.2181 7.64362
662 2 23.7381 15.6874 51.2594
663 2 9.33222 6.48179 54.2503
664 2 35.4694 23.2827 10.4243
665 2 19.15 42.8036 16.5879
666 2 20.2432 28.6049 30.9131
667 2 35.366 17.289 11.1462
668 2 8.06672 8.36918 40.3817
669 2 51.1895 46.2474 24.7622
670 2 49.9264 22.5622 17.3086
671 2 23.7521 15.5278 42.9655
672 2 14.9188 42.1794 6.25418
673 2 26.1636 6.13476 55.7222
674 2 53.8454 26.0586 48.9536
675 2 37.5735 40.3904 21.498
676 2 41.9881 44.6758 26.5531
677 2 52.3278 28.9214 8.78795
678 2 54.421 43.7151 14.4974
679 2 9.45656 44.1713 15.2509
680 2 37.5997 6.84861 35.0107
681 2 12.6452 42.7602 43.0564
682 2 44.942 22.216 18.3433
683 2 27.6674 16.0449 42.294
684 2 24.3438 42.2783 32.7722
685 2 37.123 51.7964 42.5083
686 2 54.6177 21.9309 12.7245
687 2 41.2253 15.2446 15.0849
688 2 15.5825 45.7433 35.678
689 2 52.1752 24.4942 32.3711
690 2 42.8197 41.2365 18.2188
691 2 28.8717 27.912 25.1318
692 2 26.7162 17.4249 51.7999
693 2 49.0528 55.039 17.0037
694 2 12.937 50.6131 45.4767
695 2 28.7945 13.4917 20.9507
696 2 35.2297 29.6908 53.4165
697 2 53.612 48.49 13.0565
698 2 52.2243 29.622 41.4055
699 2 46.3676 37.0572 41.2064
700 2 49.5931 15.3264 25.3671
701 2 12.6933 27.158 40.2522
702 2 17.5872 43.7123 34.2321
703 2 6.09487 35.8294 11.6393
704 2 24.1377 55.6014 33.1593
705 2 53.3936 14.5242 35.947
706 2 29.0932 26.1809 41.3785
707 2 12.0038 55.119 55.5292
708 2 18.6869 15.6571 8.33125
709 2 29.5881 38.4186 32.9327
710 2 53.5673 12.3592 34.0487
711 2 21.4218 21.1745 12.8031
712 2 30.1333 54.5045 31.6883
713 2 30.4798 20.2934 49.6136
714 2 15.9206 52.1582 48.4742
715 2 55.8433 50.2515 52.3881
716 2 35.2349 26.0009 30.1031
717 2 23.386 48.672 16.3441
718 2 13.4747 18.059 25.3524
719 2 23.7797 30.5373 28.1666
720 2 45.0773 15.4454 17.4687
721 2 12.6788 40.3091 54.7658
722 2 14.417 29.5457 46.0111
723 2 10.7322 17.8388 40.4026
724 2 33.9217 44.0498 12.6438
725 2 17.9364 27.0165 54.0585
726 2 6.22678 22.2546 30.677
727 2 15.6138 30.0408 13.8973
728 2 48.0117 41.9168 35.2079
729 2 35.6199 10.0321 8.5497
730 2 47.9282 54.4207 29.5593
731 2 25.1847 13.4979 14.6736
732 2 39.7082 23.4479 40.8624
733 2 33.7039 29.1765 10.7348
734 2 33.4839 6.93129 12.4895
735 2 8.64514 43.5437 29.776
736 2 6.34003 48.2983 26.4559
737 2 30.5225 17.4011 22.7721
738 2 50.3504 29.9815 49.962
739 2 42.7867 21.688 27.1124
740 2 23.735 18.9458 42.7572
741 2 20.5996 38.625 30.3717
742 2 8.59072 52.3439 16.237
743 2 29.2653 38.9909 19.5688
744 2 29.257 18.4832 15.5273
745 2 14.5878 29.2619 54.6966
746 2 22.2247 45.417 53.779
747 2 50.1384 39.2202 28.9494
748 2 12.2554 54.6403 23.8928
749 2 11.6025 51.7423 20.6241
750 2 41.1035 20.5214 12.9896
751 2 17.9074 31.6439 20.4923
752 2 17.3154 23.7562 45.82
753 2 48.2253 25.3599 37.0904
754 2 42.8895 34.8108 10.2907
755 2 19.2723 38.795 52.1249
756 2 7.87697 21.081 54.942
757 2 16.2124 26.9035 13.6446
758 2 31.1013 55.6381 25.2063
759 2 55.3781 18.4934 37.7038
760 2 36.2982 51.0495 15.0976
761 2 37.0954 15.1334 33.7151
762 2 24.0962 22.1127 54.5346
763 2 18.7531 41.102 9.48622
764 2 15.9319 47.9862 33.5736
765 2 8.9048 11.7245 40.0166
766 2 19.0064 7.67947 45.3373
767 2 53.6081 24.9036 39.8632
768 2 27.2789 17.805 6.59337
769 2 49.2297 27.7312 38.4747
770 2 23.781 52.9906 27.8346
771 2 12.7136 6.50017 51.0942
772 2 42.9641 20.986 7.37561
773 2 16.4055 43.7862 26.4867
774 2 17.917 55.5972 18.0868
775 2 55.6298 50.2246 28.6152
776 2 23.0944 37.5692 18.0172
777 2 26.9854 44.206 35.564
778 2 8.9954 51.0249 28.9291
779 2 53.632 42.4214 11.5364
780 2 6.29444 23.934 17.1856
781 2 6.63649 6.65574 12.4421
782 2 31.0474 17.7597 53.1444
783 2 8.76108 19.302 25.1711
784 2 8.5221 21.5229 45.5624
785 2 10.4285 40.658 36.2242
786 2 24.4674 25.2945 11.0374
787 2 7.00124 43.0639 33.8226
788 2 16.9605 50.3712 44.265
789 2 32.7814 50.9032 21.8972
790 2 47.331 33.9677 13.0547
791 2 7.53903 43.893 54.621
792 2 10.0307 39.3793 15.8459
793 2 8.55691 43.5661 24.6281
794 2 46.7498 39.3044 43.1837
795 2 12.7532 40.6457 19.6305
796 2 11.5004 30.8732 53.5013
797 2 6.59741 25.1222 6.27145
798 2 19.8037 43.3482 30.0053
799 2 9.26574 29.4144 55.325
800 2 39.7188 28.5289 54.3289
801 2 12.9886 38.2364 9.04905
802 2 6.58763 32.221 54.4212
803 2 46.2842 8.6065 47.2188
804 2 18.6768 54.5497 29.3024
805 2 21.5543 28.4268 6.86568
806 2 33.3268 33.3148 9.36432
807 2 55.2114 40.6292 48.8139
808 2 15.4093 31.841 52.8931
809 2 35.0567 47.0833 16.4093
810 2 42.2588 17.9941 20.9536
811 2 45.6863 55.1676 34.9888
812 2 14.9404 46.95 51.3871
813 2 35.6545 15.0616 49.114
814 2 37.0732 9.6692 45.3448
815 2 35.1217 40.1772 38.7157
816 2 47.2786 40.5716 30.3122
817 2 29.4629 12.7589 16.2109
818 2 22.7206 16.1543 37.1789
819 2 15.8158 20.3202 48.3997
820 2 23.4839 41.1454 35.5203
821 2 45.1966 11.7254 33.0049
822 2 24.9923 26.2983 25.7281
823 2 38.5178 43.4358 51.1864
824 2 49.6741 6.12726 48.5319
825 2 12.7185 8.76113 20.7821
826 2 16.3425 30.6981 48.4139
827 2 33.0704 43.1175 55.0985
828 2 48.8105 15.3161 29.8172
829 2 24.641 12.9028 44.7425
830 2 23.9946 36.3308 33.138
831 2 12.8258 12.1052 9.54605
832 2 48.7857 47.4893 23.4565
833 2 36.6387 34.1365 6.1199
834 2 8.03549 27.5999 21.4863
835 2 19.4809 42.8015 41.8989
836 2 50.6739 13.9249 15.2392
837 2 11.1094 6.93198 17.0083
838 2 25.5975 12.9459 40.0504
839 2 24.0704 44.3374 14.7094
840 2 11.1196 46.8297 12.054
841 2 42.7656 29.3121 25.5585
842 2 20.0994 30.9731 26.5923
843 2 25.2836 22.1771 31.1024
844 2 17.9725 10.9379 53.6467
845 2 33.975 42.9329 22.4775
846 2 30.6619 6.53684 36.2445
847 2 16.9787 41.3301 46.4411
848 2 37.3482 48.7803 20.9113
849 2 33.9735 33.4247 32.1576
850 2 33.5267 36.2108 8.77319
851 2 8.60841 26.3597 54.4646
852 2 31.8123 13.7456 37.9067
853 2 7.54035 54.6315 23.3723
854 2 25.0527 40.9563 10.6456
855 2 46.7754 46.4885 11.6739
856 2 24.4247 36.2137 21.4609
857 2 29.9779 23.5421 29.1527
858 2 42.6638 41.9679 31.8643
859 2 28.6704 42.0549 15.7106
860 2 44.7946 41.1283 16.0401
861 2 9.87853 54.7902 49.94
862 2 31.9551 13.6737 51.9847
863 2 33.9449 16.7772 55.5707
864 2 45.2402 45.0397 28.5843
865 2 36.9226 30.2036 38.1066
866 2 25.0331 7.65771 17.066
867 2 29.0037 35.396 45.8684
868 2 55.0194 36.281 51.2561
869 2 47.9725 30.5241 54.8142
870 2 30.2263 13.1407 29.7081
871 2 27.0041 6.90139 11.7662
872 2 10.1159 33.0715 52.2201
873 2 30.76 17.8127 19.1361
874 2 21.5595 24.8199 27.7853
875 2 50.8798 41.1504 38.2083
876 2 6.48811 27.1994 16.333
877 2 41.8652 46.8513 50.0738
878 2 37.3535 11.874 30.3741
879 2 38.7278 48.1899 17.9903
880 2 41.1188 34.3457 12.7004
881 2 27.671 38.24 28.8327
882 2 43.9412 37.9215 33.0385
883 2 25.1033 53.4579 35.6908
884 2 41.5533 50.6596 24.8386
885 2 41.737 45.2916 19.3641
886 2 45.6695 17.7212 19.8022
887 2 11.0913 52.9573 46.6645
888 2 54.823 31.3667 40.4099
889 2 8.30682 30.3655 44.1181
890 2 6.72781 44.9886 8.9031
891 2 17.2457 9.37472 7.79625
892 2 15.0226 47.8093 20.5067
893 2 10.745 37.0278 30.5146
894 2 18.1982 32.7937 46.7178
895 2 6.75777 42.1259 10.444
896 2 8.58814 39.9553 7.0854
897 2 47.5082 31.281 47.0729
898 2 33.7872 45.059 38.0854
899 2 22.4963 43.2555 17.4456
900 2 10.743 54.5456 19.1899
901 2 21.0409 46.5525 15.2025
902 2 20.6073 16.3187 14.7488
903 2 16.5173 52.5125 33.0295
904 2 48.3368 27.618 53.1247
905 2 18.3962 31.3689 53.9282
906 2 35.0672 18.3924 21.1456
907 2 39.8873 49.3111 14.3104
908 2 8.85687 14.5177 36.4323
909 2 18.763 19.5268 43.265
910 2 51.3909 10.7209 21.8429
911 2 50.3872 30.7343 39.4353
912 2 30.0893 9.87248 54.6151
913 2 40.3571 24.7531 15.9502
914 2 46.5299 23.5432 38.4747
915 2 28.8533 50.2679 33.0959
916 2 38.0884 26.4533 18.209
917 2 46.7434 13.0686 47.45
918 2 32.1563 9.0553 18.9763
919 2 36.3275 36.4846 22.0976
920 2 14.5973 9.36397 14.1236
921 2 40.5832 43.3387 17.9657
922 2 24.0837 48.4292 21.8524
923 2 14.9066 9.4685 46.4774
924 2 10.7632 18.7021 31.3459
925 2 24.2755 27.0475 28.6183
926 2 6.7923 48.8307 43.4333
927 2 53.3695 40.4898 13.6825
928 2 49.7324 43.5339 13.0599
929 2 45.0999 15.5455 47.3777
930 2 44.6717 54.7036 43.9702
931 2 42.8458 49.3949 48.9374
932 2 43.0279 6.72527 38.2163
933 2 52.4213 34.6395 21.0855
934 2 47.3708 16.5176 21.5455
935 2 45.0202 23.591 13.5904
936 2 31.01 40.9255 13.7737
937 2 46.937 12.1193 36.0033
938 2 31.1101 15.7991 31.4864
939 2 18.8965 52.8382 14.1473
940 2 39.9711 15.8166 22.0159
941 2 34.5578 8.08758 15.073
942 2 26.3436 36.8394 42.3314
943 2 42.7264 30.1352 28.7934
944 2 14.2007 18.2912 21.0147
945 2 52.007 23.0827 37.8861
946 2 9.33773 26.95 14.048
947 2 47.9625 7.53712 55.8239
948 2 48.8027 40.4354 12.6804
949 2 41.0416 6.72602 9.15808
950 2 18.2773 24.7023 12.5849
951 2 49.5276 39.7727 52.2217
952 2 53.6977 24.7968 10.1683
953 2 35.979 43.8663 47.123
954 2 40.3647 35.8791 52.517
955 2 21.0634 48.2387 23.3819
956 2 12.3434 9.43743 55.7062
957 2 48.3762 38.3779 8.43166
958 2 54.2671 40.5553 17.9903
959 2 43.087 38.8255 35.6831
960 2 7.5143 38.7719 20.7198
961 2 11.8942 28.0167 18.9082
962 2 53.4773 27.2286 19.7646
963 2 43.267 39.4551 30.5485
964 2 49.2837 38.5964 14.8145
965 2 43.816 18.4325 9.00451
966 2 30.518 24.0538 16.3133
967 2 49.7966 14.3333 12.3607
968 2 6.92734 27.7334 52.3202
969 2 39.5779 30.882 43.908
970 2 6.34149 17.0434 33.7453
971 2 20.7241 19.608 6.22679
972 2 54.5061 24.7941 34.4413
973 2 21.515 27.5551 28.5791
974 2 53.3524 9.25598 41.4943
975 2 36.4968 34.1367 52.7553
976 2 35.8212 13.0335 11.6341
977 2 39.5202 13.5285 39.8669
978 2 45.1438 31.1381 26.7984
979 2 35.4394 36.7799 46.6304
980 2 39.0052 53.1644 47.0916
981 2 16.7871 17.2683 25.4222
982 2 36.4685 20.4611 45.1343
983 2 14.679 50.0334 53.4531
984 2 32.3801 12.9073 12.8044
985 2 48.5285 8.8073 24.3694
986 2 53.7987 11.1098 54.2111
987 2 29.8236 53.8072 14.24
988 2 36.4423 9.94308 23.787
989 2 52.3604 9.1416 13.0155
990 2 40.8353 24.9664 28.8572
991 2 7.06441 14.947 47.8928
992 2 54.7399 51.8161 20.171
993 2 11.3755 14.7848 22.8194
994 2 55.0461 10.3968 18.7599
995 2 25.4546 23.1142 52.317
996 2 24.3003 17.9184 29.801
997 2 46.5907 53.5489 42.5488
998 2 54.8854 21.5181 9.63993
999 2 54.7008 46.1383 24.2639
1000 2 14.0145 54.6392 46.5048
1001 2 12.9689 33.8876 53.5429
1002 2 55.7637 43.4893 28.7636
1003 2 46.4056 31.5195 23.2444
1004 2 24.5865 44.0943 51.7858