ITEM: TIMESTEP
0
ITEM: NUMBER OF ATOMS
9088
ITEM: BOX BOUNDS xy xz yz pp pp pp
6.0751456982844640e+00 5.5855792093842176e+01 -5.7114065988244246e-15
6.0751456982844694e+00 5.5855792093842176e+01 0.0000000000000000e+00
6.0751456982844694e+00 5.5855792093842176e+01 0.0000000000000000e+00
ITEM: ATOMS id type x y z
1 2 43.0503 41.9885 53.8789
2 2 14.8765 31.8527 24.4492
3 2 52.4709 52.5836 11.8641
4 2 25.8288 36.8742 18.5703
5 2 23.0791 26.9577 19.8187
6 2 44.8489 20.8666 42.6995
7 2 26.1231 31.2728 10.7534
8 2 36.8312 52.0089 6.65401
9 2 17.541 15.1567 18.7245
10 2 11.609 11.7278 21.2158
11 2 38.8416 52.4502 15.9865
12 2 15.1046 17.2155 36.5434
13 2 22.9959 40.7928 40.663
14 2 8.6775 22.8995 21.3161
15 2 52.8276 51.6531 36.4433
16 2 47.2001 9.73045 43.1884
17 2 26.3491 29.7718 47.1396
18 2 43.8152 16.8429 21.3289
19 2 26.6075 25.159 15.3231
20 2 28.0822 25.835 6.40514
21 2 33.0378 12.6697 33.7955
22 2 38.5413 16.0414 52.7811
23 2 34.4592 29.4037 46.1571
24 2 17.0788 33.6595 9.34595
25 2 51.2789 37.697 38.2406
26 2 52.119 50.5993 45.139
27 2 41.6424 44.3503 31.1353
28 2 7.22468 37.7652 18.0697
29 2 29.6129 9.4435 47.4939
30 2 23.8752 53.1879 36.1913
31 2 48.8261 40.9388 25.7203
32 2 18.8006 37.2376 12.932
33 2 18.7949 53.9405 52.5903
34 2 47.2157 28.3555 49.1246
35 2 40.9256 29.7672 27.9594
36 2 49.5869 45.9981 19.7475
37 2 46.9605 41.4193 7.76088
38 2 32.5402 49.0806 36.0978
39 2 40.9098 54.0978 16.4689
40 2 35.5409 32.2194 34.5704
41 2 9.81973 43.0663 53.0637
42 2 30.0508 47.4052 55.1669
43 2 27.0666 38.6033 8.47767
44 2 38.1982 25.486 36.5592
45 2 33.4434 17.2282 25.4207
46 2 53.7789 54.5769 19.6095
47 2 24.6414 44.9053 48.8428
48 2 39.7427 17.465 39.4476
49 2 37.7746 35.74 16.1505
50 2 9.63777 13.605 34.3892
51 2 33.7225 23.6226 19.3321
52 2 34.2983 22.5001 28.8136
53 2 26.1776 29.3466 22.8642
54 2 53.0436 47.1485 36.3157
55 2 24.2222 16.0932 16.5549
56 2 7.57683 36.2974 24.5815
57 2 10.222 23.7482 9.26664
58 2 11.6835 29.3016 17.1952
59 2 25.1495 41.4782 12.6475
60 2 10.6495 21.3211 29.3171
61 2 41.6543 24.3658 43.5329
62 2 33.889 32.0465 54.4279
63 2 11.8859 33.1723 24.3064
64 2 28.0282 29.4748 14.7893
65 2 51.2466 21.9422 11.9833
66 2 50.9485 54.9283 39.649
67 2 18.7061 41.0788 31.3293
68 2 10.0678 12.7548 15.3939
69 2 37.6363 35.491 40.8933
70 2 17.8402 32.7924 19.4422
71 2 27.485 31.8768 44.9466
72 2 44.0066 30.927 13.586
73 2 12.0643 31.9461 30.4806
74 2 35.6162 41.0741 34.2661
75 2 12.2692 55.7085 42.8768
76 2 13.6286 34.6391 30.3961
77 2 38.7267 55.5657 39.9231
78 2 51.1806 17.0169 16.2183
79 2 8.21851 52.0044 41.6422
80 2 47.0098 46.7129 21.7816
81 2 44.377 34.0874 36.7882
82 2 29.5064 51.5811 11.5223
83 2 30.1461 29.7884 37.2728
84 2 52.1715 30.0268 23.5421
85 2 44.2242 35.0374 54.9236
86 2 42.3115 31.8885 42.738
87 2 34.7309 30.3629 20.8261
88 2 22.7787 13.2746 26.167
89 2 14.6875 41.697 51.8427
90 2 36.1939 15.0688 32.996
91 2 44.8698 53.158 53.0734
92 2 29.8688 7.49266 38.9706
93 2 14.9811 45.5471 43.4357
94 2 54.2063 38.3294 17.4129
95 2 50.882 54.34 9.32842
96 2 13.8267 40.5716 39.5452
97 2 49.2801 31.6605 21.0875
98 2 30.0994 17.763 11.6072
99 2 33.3711 54.5731 40.1608
100 2 15.6125 14.043 36.9465
101 2 38.5972 23.6037 20.842
102 2 54.2588 46.4747 28.1497
103 2 16.9471 20.0912 13.9515
104 2 29.8414 30.7637 54.0779
105 2 21.4923 21.3691 32.7166
106 2 10.816 38.8471 39.7827
107 2 50.0247 48.9127 29.5502
108 2 41.4742 43.4647 10.2553
109 2 23.3547 7.91379 14.6892
110 2 30.6219 24.1718 20.5474
111 2 24.7538 13.6196 18.5763
112 2 40.653 20.7427 21.4555
113 2 49.6651 41.1799 13.9943
114 2 41.4226 49.4815 39.6696
115 2 46.9877 47.8373 38.1385
116 2 45.6961 51.8226 11.6642
117 2 34.6907 19.2035 55.4193
118 2 36.5738 35.3395 27.071
119 2 18.8559 55.7444 15.6074
120 2 27.4744 32.1978 33.2255
121 2 18.7457 15.8939 7.24995
122 2 33.7266 50.2558 21.0834
123 2 48.2279 55.0998 36.2225
124 2 33.9012 34.936 20.7128
125 2 17.8155 19.4632 25.236
126 2 43.8472 49.7223 11.9256
127 2 21.0538 15.0332 53.6437
128 2 6.84453 36.9654 47.2831
129 2 37.1008 27.8727 27.41
130 2 52.4098 23.8333 10.0036
131 2 12.9896 12.6431 28.2846
132 2 36.0637 52.4396 19.9684
133 2 42.8097 34.472 26.6452
134 2 30.6764 35.0559 6.10752
135 2 36.6842 48.3798 8.74498
136 2 14.1676 50.4224 31.1119
137 2 25.7225 42.2973 39.3758
138 2 52.2224 16.5066 45.1453
139 2 13.0555 13.9534 48.7406
140 2 21.6144 33.709 39.9925
141 2 50.3993 30.3067 41.5016
142 2 33.3751 54.2967 10.4683
143 2 54.4966 17.8971 11.2084
144 2 23.272 11.9287 47.9345
145 2 46.481 17.4295 36.1922
146 2 30.9184 6.9577 11.1115
147 2 39.7456 40.6389 44.7951
148 2 28.9073 21.3304 14.9974
149 2 37.4973 15.5455 18.1611
150 2 26.9507 36.0644 53.0872
151 2 21.2434 39.8992 25.0882
152 2 25.0419 7.24874 41.7384
153 2 25.7948 43.4858 22.1224
154 2 44.3402 20.0865 53.0813
155 2 42.5367 7.19281 32.1952
156 2 39.7388 44.2592 24.3339
157 2 38.1886 52.5963 39.7949
158 2 54.3385 37.152 38.007
159 2 28.0214 6.54051 47.7466
160 2 34.3752 15.5026 22.5498
161 2 35.7601 31.9248 15.7114
162 2 48.5256 15.0372 32.2683
163 2 49.9907 15.8949 50.7406
164 2 39.7176 51.6708 53.2767
165 2 37.3831 26.5785 48.3861
166 2 32.922 32.0887 18.8053
167 2 30.4572 44.9927 17.6204
168 2 14.5235 7.31845 12.2956
169 2 42.3457 34.4733 34.3579
170 2 21.017 32.9971 34.8943
171 2 27.4852 54.7246 15.4355
172 2 23.4331 26.1695 12.5724
173 2 18.2248 22.9066 49.8422
174 2 22.5945 14.7717 14.5289
175 2 23.6545 34.0345 31.2142
176 2 53.0097 20.4302 7.1821
177 2 55.6944 47.9144 16.3697
178 2 39.9353 39.9243 50.272
179 2 25.9206 44.3988 54.0749
180 2 14.5514 47.838 41.531
181 2 16.3132 24.4911 53.2923
182 2 46.5895 32.8765 36.1204
183 2 53.9112 41.7436 36.7522
184 2 14.0006 29.4035 33.0813
185 2 42.0427 23.4573 9.58169
186 2 9.03605 15.5816 17.968
187 2 40.2717 41.785 47.7754
188 2 55.7552 40.1095 54.3094
189 2 11.1663 44.6015 41.0971
190 2 38.9544 29.0105 15.5747
191 2 30.5201 51.2217 29.3844
192 2 43.2371 9.87454 23.4899
193 2 11.3686 34.4606 51.6149
194 2 46.9781 7.61922 38.2867
195 2 10.2738 24.3771 42.5944
196 2 37.4566 11.165 35.4696
197 2 25.8561 11.3997 20.0304
198 2 47.0301 22.0576 31.5092
199 2 47.3791 32.2108 26.9589
200 2 13.4572 42.6041 41.7908
201 2 16.4376 38.389 24.7037
202 2 33.1562 25.2258 48.199
203 2 29.4881 36.174 34.8179
204 2 43.9527 53.5986 35.1164
205 2 28.9325 13.4028 6.36982
206 2 50.8608 19.2595 25.4259
207 2 14.9407 50.7925 54.6588
208 2 24.6099 50.4968 33.9628
209 2 11.931 45.0281 12.9286
210 2 21.7524 18.4786 26.8394
211 2 53.1258 29.3927 12.7645
212 2 48.9291 46.5446 40.2893
213 2 18.8094 54.3926 6.10228
214 2 18.6212 19.8527 19.1173
215 2 16.8474 37.7482 27.622
216 2 55.7683 33.7343 25.2835
217 2 11.0412 16.1856 45.9375
218 2 30.141 30.7991 24.5951
219 2 11.3526 28.8088 30.9372
220 2 28.8122 29.1144 33.1488
221 2 28.6771 38.4724 32.9432
222 2 52.5607 12.6111 23.6046
223 2 37.5504 12.1882 20.2939
224 2 21.5877 38.9853 10.2689
225 2 28.2092 45.2533 51.892
226 2 50.994 55.4898 23.1931
227 2 7.19279 8.49744 29.404
228 2 37.0808 51.6917 51.088
229 2 37.1647 18.7649 42.292
230 2 36.2828 27.1862 34.5882
231 2 53.5451 32.0282 21.2018
232 2 39.1852 40.5449 20.6139
233 2 54.0365 49.0673 22.6537
234 2 22.9201 53.5546 43.7677
235 2 8.26202 51.3672 48.5282
236 2 41.6245 54.4671 23.1916
237 2 29.364 41.906 41.3471
238 2 48.3106 50.6703 14.0352
239 2 27.5726 34.6456 55.7776
240 2 14.7668 10.8189 45.8724
241 2 35.7788 48.1407 47.0549
242 2 36.4811 7.30074 21.0423
243 2 29.7414 15.5486 7.37067
244 2 31.1575 40.2685 16.2318
245 2 52.2755 34.2118 34.4885
246 2 25.2389 30.1936 40.8711
247 2 10.3964 23.4818 26.1476
248 2 12.1614 37.9013 47.9183
249 2 54.6104 43.6664 29.6366
250 2 11.7435 16.9125 6.99461
251 2 32.3368 26.9223 19.657
252 2 14.2775 20.0005 43.1008
253 2 22.8952 47.0262 13.1044
254 2 22.0372 26.6623 42.7151
255 2 38.7787 44.6824 21.6742
256 2 21.6906 32.0055 10.0955
257 2 26.2236 17.4341 43.4568
258 2 27.5316 39.3624 42.0979
259 2 13.0897 37.0133 21.7348
260 2 43.8316 49.2881 55.3074
261 2 16.4704 44.2851 28.241
262 2 6.84816 14.9238 7.82747
263 2 29.2063 45.6342 9.6182
264 2 14.1223 20.5863 18.1281
265 2 39.3848 41.8771 12.4787
266 2 17.5163 17.2888 47.2303
267 2 13.5374 55.1485 55.2574
268 2 16.8165 42.7287 8.46103
269 2 32.9648 18.1043 22.2837
270 2 44.4933 10.427 50.8333
271 2 22.7758 11.0592 51.4203
272 2 16.684 26.9671 35.6231
273 2 33.0929 47.4069 50.7551
274 2 44.966 47.0665 29.9017
275 2 9.51209 13.7707 50.5754
276 2 22.8465 35.707 37.6172
277 2 55.5452 42.8716 32.6405
278 2 22.954 34.7169 21.0426
279 2 9.99994 52.3485 55.4883
280 2 42.1495 26.7987 28.603
281 2 39.5076 26.1969 26.6887
282 2 39.9137 28.1017 37.3773
283 2 43.6041 33.8977 14.5704
284 2 23.7901 11.0994 43.7315
285 2 6.28551 54.7533 38.6911
286 2 32.3084 24.0475 27.6828
287 2 14.9966 31.0771 13.17
288 2 14.252 34.236 17.4878
289 2 33.7655 19.7216 52.5314
290 2 15.0463 31.3552 9.93648
291 2 27.428 11.862 33.2885
292 2 17.0017 9.61055 17.9669
293 2 34.0421 19.5338 27.7457
294 2 20.926 36.0145 28.5582
295 2 43.7015 28.8363 55.4004
296 2 29.6015 11.0941 24.8291
297 2 42.2197 7.22477 25.1153
298 2 14.7349 23.0676 27.6794
299 2 44.4208 52.4587 37.7987
300 2 51.5313 13.7023 52.7001
301 2 47.8919 53.8564 10.1734
302 2 8.91376 9.80065 48.5513
303 2 35.2284 21.5045 48.4804
304 2 43.4702 22.9941 41.2579
305 2 40.5626 10.2205 31.8225
306 2 8.58959 41.2383 50.6979
307 2 37.5878 23.3759 42.7628
308 2 31.2252 54.42 42.4142
309 2 49.9492 9.24161 39.4761
310 2 20.2324 18.8099 11.8428
311 2 25.0692 30.6308 29.4106
312 2 54.8734 18.8111 34.2633
313 2 37.3174 50.228 26.8753
314 2 55.0171 11.5348 12.7411
315 2 15.044 45.3333 30.8092
316 2 12.0334 7.64886 28.6821
317 2 55.3356 18.9844 27.3806
318 2 27.8546 12.022 38.0694
319 2 19.2191 47.5681 43.3008
320 2 14.5089 31.4297 41.4369
321 2 8.74008 17.4465 16.1003
322 2 24.3831 33.942 7.20354
323 2 9.51577 27.3939 15.8612
324 2 6.93282 7.2611 33.1532
325 2 37.7197 49.0169 42.6344
326 2 32.3771 53.2105 35.2521
327 2 46.9318 8.69295 47.3174
328 2 31.5429 48.9997 30.9673
329 2 54.4339 14.6175 38.1347
330 2 47.71 50.9613 29.6651
331 2 12.8316 21.3682 31.6597
332 2 7.56615 18.0981 23.2732
333 2 29.7742 41.0976 46.0865
334 2 28.6598 24.2822 47.5586
335 2 8.6482 13.7464 43.7203
336 2 40.392 7.83184 41.5523
337 2 35.0625 34.4449 6.82631
338 2 19.0741 26.665 13.6744
339 2 47.8142 25.7897 30.371
340 2 19.9372 41.7245 42.0993
341 2 24.7519 16.0291 7.58676
342 2 55.7656 7.33947 45.3198
343 2 7.35418 29.7882 23.6006
344 2 19.6346 9.87968 45.4215
345 2 26.9059 16.2839 18.9816
346 2 17.6535 13.6166 9.15401
347 2 20.701 35.6512 6.65741
348 2 55.6933 44.4087 7.33008
349 2 35.6191 53.2734 11.7719
350 2 47.7774 18.0709 7.02833
351 2 13.4447 53.4193 12.9927
352 2 40.1626 8.98623 46.8184
353 2 39.9998 38.9583 18.3781
354 2 7.60381 21.1274 11.282
355 2 32.9014 42.5239 35.6107
356 2 54.6217 38.5482 9.19285
357 2 39.3952 48.2655 54.685
358 2 13.1923 31.2057 7.25432
359 2 26.4246 30.264 49.8581
360 2 27.9587 41.6348 19.2136
361 2 55.2401 11.0531 52.0775
362 2 35.6015 8.58826 18.4469
363 2 54.0664 18.9075 29.8853
364 2 32.4553 42.0271 30.6026
365 2 32.8307 18.1824 42.8722
366 2 27.323 51.3229 49.1227
367 2 10.7769 40.4505 17.7134
368 2 31.5914 37.8522 44.4004
369 2 34.5553 42.2275 45.3232
370 2 19.7748 21.6814 23.9834
371 2 22.2742 37.7318 21.2629
372 2 21.3348 55.7842 31.1975
373 2 32.8938 44.6996 40.3678
374 2 50.5566 40.6274 49.4904
375 2 40.1204 26.4963 17.1354
376 2 41.6444 14.1842 33.5968
377 2 24.635 54.7116 18.7617
378 2 34.4847 44.8775 51.485
379 2 31.2608 29.7888 45.3026
380 2 16.9786 45.4539 38.4701
381 2 24.4338 53.4449 26.9928
382 2 28.7492 30.7008 11.9302
383 2 19.897 14.7002 29.6578
384 2 28.7422 38.7087 48.0693
385 2 22.0223 31.5796 18.3532
386 2 54.1546 41.2859 52.0794
387 2 8.30781 37.7738 53.2481
388 2 23.0532 19.0278 29.3648
389 2 26.717 34.3637 22.328
390 2 25.8841 42.0127 8.777
391 2 26.1935 37.7962 28.7193
392 2 15.0214 34.8169 53.2397
393 2 49.8459 53.009 30.5783
394 2 31.9745 39.4578 20.2875
395 2 42.8198 10.2023 28.5591
396 2 50.4406 14.8638 21.9815
397 2 23.6882 13.0453 29.9936
398 2 41.0171 37.8559 52.7769
399 2 46.6982 32.772 48.2201
400 2 28.6866 47.3219 29.998
401 2 23.9893 21.5746 11.9886
402 2 9.9292 11.769 52.8231
403 2 21.5949 37.7176 32.7784
404 2 36.2389 7.81899 26.7261
405 2 31.684 53.6732 18.1343
406 2 38.7508 35.6358 21.1447
407 2 44.3506 44.4786 37.9195
408 2 48.9345 8.15007 28.5762
409 2 10.8395 40.6632 27.8838
410 2 15.0449 18.1164 52.3002
411 2 31.5465 51.1495 42.7098
412 2 39.3393 26.917 31.2911
413 2 19.5018 40.7559 37.7751
414 2 8.45135 31.0313 49.7136
415 2 16.3155 20.3265 50.5974
416 2 8.34225 20.2622 17.4155
417 2 26.4035 15.475 10.1352
418 2 27.8875 50.0095 21.0945
419 2 48.7985 22.9208 45.4163
420 2 29.3408 8.75093 13.889
421 2 36.9032 41.7189 54.4287
422 2 48.7472 40.7128 39.8716
423 2 54.607 14.3865 35.2714
424 2 8.69178 43.4195 36.9217
425 2 22.0364 28.8372 25.5155
426 2 34.5521 12.9942 13.6129
427 2 40.7438 8.13696 6.77136
428 2 24.0399 9.08025 55.6467
429 2 33.8763 7.84852 33.106
430 2 7.85376 32.3645 54.5335
431 2 35.8981 47.9906 28.0802
432 2 33.5376 25.8319 6.77898
433 2 33.2519 53.7956 15.7243
434 2 21.7686 24.1804 20.3304
435 2 38.8706 20.9413 42.5747
436 2 18.8308 46.7888 11.2088
437 2 32.7337 48.6507 42.003
438 2 51.1876 36.2911 52.4628
439 2 29.9959 26.4968 16.9736
440 2 18.0615 16.8897 16.0715
441 2 45.2609 20.5878 29.2794
442 2 52.7991 7.35483 30.8943
443 2 13.7377 16.2503 44.1178
444 2 39.9594 29.991 12.711
445 2 9.72472 45.7345 54.091
446 2 17.5722 46.9527 21.4874
447 2 37.4447 14.0887 36.8301
448 2 27.4458 52.2305 33.2892
449 2 40.0633 18.0413 55.3783
450 2 34.0795 38.9631 42.9596
451 2 15.8201 34.9497 6.59664
452 2 54.9424 23.6452 47.8734
453 2 30.8445 16.3857 41.7883
454 2 50.0574 53.5302 13.9424
455 2 8.32318 46.1921 15.625
456 2 35.6104 20.0755 21.922
457 2 33.0919 46.3658 29.4712
458 2 52.8608 18.4007 13.9875
459 2 11.6444 53.8491 21.393
460 2 17.3086 15.986 53.2217
461 2 41.0829 19.0094 26.0038
462 2 32.4313 34.0837 36.6736
463 2 11.5458 15.6677 12.7326
464 2 40.8555 19.4876 17.5271
465 2 14.3498 46.0201 52.385
466 2 43.2471 38.5985 26.3759
467 2 28.3402 14.4036 34.0091
468 2 50.5005 50.6672 12.324
469 2 12.0432 50.7059 12.2306
470 2 54.5739 46.7864 24.9808
471 2 49.3865 50.4945 22.3484
472 2 47.7129 19.9656 26.9029
473 2 9.21282 11.3671 46.1416
474 2 27.3821 21.005 34.9894
475 2 48.5979 26.0355 12.1675
476 2 24.8318 21.6306 33.4419
477 2 44.337 32.2405 32.8594
478 2 33.0283 31.3296 35.7602
479 2 47.0439 52.8945 39.2249
480 2 31.9709 11.3179 46.5096
481 2 30.1349 27.312 46.9854
482 2 40.1748 17.0081 33.1673
483 2 17.0383 21.0557 31.7608
484 2 6.55264 12.5338 19.9974
485 2 27.557 7.62391 21.6893
486 2 55.4711 34.6021 14.5758
487 2 40.707 50.69 9.63862
488 2 18.5094 8.28901 38.2746
489 2 14.7791 29.6382 17.9713
490 2 46.2314 37.0632 27.326
491 2 45.6954 28.1801 20.2532
492 2 45.4591 17.0988 52.4135
493 2 51.7549 23.2222 6.50578
494 2 11.1133 54.3275 17.5143
495 2 23.1451 52.5838 54.4295
496 2 6.8157 54.6038 35.8971
497 2 14.2358 19.6832 14.9841
498 2 28.7848 47.1287 24.3862
499 2 13.6293 43.9582 55.4735
500 2 18.0149 11.9597 47.1202
501 2 26.24 24.1828 34.5484
502 2 42.426 39.1317 43.8796
503 2 32.6221 49.5915 9.65461
504 2 36.3239 18.7793 26.0982
505 2 32.1562 21.0347 20.4806
506 2 26.6008 9.10253 50.8233
507 2 31.4082 9.9074 32.6445
508 2 11.9095 34.7358 11.4458
509 2 24.4143 39.9879 10.1575
510 2 53.0183 13.6717 6.13886
511 2 38.3083 38.2692 41.4085
512 2 8.73682 55.0118 27.1906
513 2 45.6484 8.54852 7.65119
514 2 10.2885 18.5436 18.5451
515 2 45.4318 30.4765 40.1092
516 2 52.5964 20.8962 37.3575
517 2 41.192 24.0514 31.8158
518 2 39.7816 31.8706 32.1435
519 2 44.8339 49.476 42.2102
520 2 54.272 19.4371 48.3332
521 2 21.8664 38.301 7.35176
522 2 40.6176 46.1904 48.8643
523 2 35.7084 48.749 23.7356
524 2 50.9996 53.1187 20.4172
525 2 6.98765 50.2975 27.0546
526 2 41.6379 15.1794 7.91387
527 2 8.60183 27.1746 20.0203
528 2 25.4995 26.8485 31.5893
529 2 50.9419 34.8258 40.0875
530 2 55.7745 39.0661 39.8256
531 2 26.4055 19.919 19.6012
532 2 44.7022 12.7806 54.9465
533 2 35.1574 47.854 12.8154
534 2 31.4651 34.9507 21.8934
535 2 18.5065 40.776 24.4974
536 2 11.911 22.9403 46.7925
537 2 22.0994 54.9278 46.4123
538 2 33.0265 47.4641 46.3526
539 2 18.8504 50.9316 46.9123
540 2 51.865 31.6428 52.5692
541 2 14.6973 54.1931 39.2881
542 2 36.859 34.4608 36.4566
543 2 46.1285 34.8366 20.511
544 2 40.0074 54.575 9.16487
545 2 30.5754 44.799 43.9296
546 2 37.9228 25.4375 28.9059
547 2 26.4445 29.9461 31.6515
548 2 14.1174 24.5375 23.2411
549 2 12.9078 14.1193 21.1379
550 2 55.799 52.4287 25.9193
551 2 20.7252 54.4258 13.0148
552 2 51.7435 52.8691 47.4034
553 2 28.9107 37.3104 24.4822
554 2 22.9918 34.7531 54.2387
555 2 46.0413 33.9236 17.524
556 2 36.6599 27.0621 18.5576
557 2 23.7039 44.7039 19.5763
558 2 18.5393 50.3265 14.6828
559 2 49.3439 33.3685 49.9586
560 2 36.0074 12.5455 54.7621
561 2 19.378 41.7799 27.1535
562 2 24.0276 41.3883 18.6139
563 2 38.8191 21.2848 45.9815
564 2 41.2334 47.4731 9.07128
565 2 11.668 25.6433 14.1125
566 2 6.30546 13.7911 52.6588
567 2 28.8395 22.0915 24.3668
568 2 48.1942 28.5286 24.4295
569 2 9.41516 52.9925 51.0955
570 2 52.8541 49.1063 19.8618
571 2 16.8683 40.137 12.282
572 2 12.9756 26.8116 7.4653
573 2 47.3996 40.5103 49.9616
574 2 43.5502 28.0339 48.552
575 2 39.3852 44.8907 6.27552
576 2 38.8264 28.3808 20.5163
577 2 40.9579 39.4352 34.8396
578 2 28.2548 35.303 42.0436
579 2 33.222 8.24832 49.4104
580 2 28.1193 32.3569 20.6865
581 2 30.1113 41.703 12.4291
582 2 51.7413 26.5078 6.16444
583 2 23.424 40.0873 45.1183
584 2 9.23639 55.6833 24.349
585 2 53.8632 39.8353 12.0828
586 2 25.0606 15.1135 45.2506
587 2 11.4819 24.2585 53.6189
588 2 41.6507 25.3601 14.1948
589 2 46.3429 17.6478 9.6426
590 2 50.1102 9.76128 20.4813
591 2 54.8799 31.568 27.636
592 2 14.3941 53.8084 28.4598
593 2 31.6071 23.7636 50.6244
594 2 43.0198 45.2161 53.4828
595 2 7.10377 45.1417 24.0509
596 2 50.7521 9.00539 36.3815
597 2 47.9266 30.7597 50.1126
598 2 44.6445 52.9544 19.549
599 2 46.6895 46.0545 47.7652
600 2 24.9268 33.6139 12.7686
601 2 50.7847 22.8396 39.3716
602 2 54.7094 49.3754 9.40523
603 2 40.1777 37.1686 37.3328
604 2 55.8141 43.6948 10.3544
605 2 18.4374 18.4155 32.8881
606 2 32.663 18.4645 31.6786
607 2 47.3901 23.1791 42.3377
608 2 16.2915 8.33068 52.0808
609 2 54.6467 48.4177 38.5909
610 2 38.3517 42.4928 36.3534
611 2 9.97237 13.7232 22.2107
612 2 30.4728 38.9003 51.0383
613 2 26.9899 26.399 44.3509
614 2 9.56027 50.3932 13.7431
615 2 28.3257 14.8387 41.4159
616 2 20.1137 51.9508 53.993
617 2 27.4316 7.42713 11.5792
618 2 22.5672 51.4843 9.94942
619 2 39.2636 55.6432 35.5844
620 2 44.6488 34.0858 50.0206
621 2 37.7228 44.7112 40.1651
622 2 54.6734 15.5492 43.3173
623 2 36.775 13.9566 50.2373
624 2 41.5398 44.3182 37.81
625 2 13.2797 24.0203 35.7212
626 2 34.4027 27.6311 37.1913
627 2 14.8516 46.2572 24.1243
628 2 17.8478 50.3994 52.843
629 2 27.8324 46.6229 13.8076
630 2 30.573 27.3958 31.2374
631 2 12.0823 10.8102 39.611
632 2 38.9161 16.8333 29.3329
633 2 19.5824 47.1675 34.7284
634 2 10.4103 30.6577 22.6761
635 2 38.4602 46.7233 10.5007
636 2 9.84696 27.7286 6.94638
637 2 44.9341 43.9587 19.212
638 2 48.0322 28.1811 29.4794
639 2 26.1828 28.4896 26.964
640 2 43.7369 54.9451 17.7683
641 2 35.298 19.1445 12.7215
642 2 45.4208 27.3703 52.7586
643 2 53.6352 55.5306 28.2515
644 2 42.8385 52.3337 21.3743
645 2 47.2753 38.3452 19.0806
646 2 34.2336 12.8488 47.4974
647 2 30.5588 18.6271 14.547
648 2 34.2357 38.3667 10.5251
649 2 21.12 8.10543 47.5459
650 2 6.51088 38.18 28.0967
651 2 21.2124 46.8608 45.1907
652 2 22.604 46.3696 7.86818
653 2 55.3307 30.3325 14.869
654 2 11.2907 51.2304 41.9966
655 2 18.3067 42.2454 13.3001
656 2 55.0594 39.7514 32.4435
657 2 53.1641 41.9165 40.5471
658 2 10.0675 27.7938 37.7706
659 2 42.2629 39.6798 13.5986
660 2 20.8188 31.5996 29.2448
661 2 49.8128 21.7435 30.6175
662 2 30.0023 41.8273 23.6882
663 2 16.7204 33.8637 30.6052
664 2 41.9322 49.9781 27.9221
665 2 23.1236 15.4154 33.7092
666 2 27.8889 54.1026 55.176
667 2 46.9007 47.6024 27.0582
668 2 14.5892 37.5988 15.1434
669 2 55.5258 24.6658 42.6613
670 2 51.7855 48.4718 40.1557
671 2 29.3593 42.8569 15.4611
672 2 23.4341 16.0476 26.2507
673 2 34.781 24.2587 26.2499
674 2 16.2653 51.8341 16.3875
675 2 47.8585 14.0064 49.5894
676 2 45.6049 21.5846 48.9967
677 2 50.4461 51.4463 33.6245
678 2 8.94665 23.1745 39.4654
679 2 19.9799 23.7454 33.8219
680 2 34.3241 29.8561 51.7895
681 2 18.0583 22.6243 17.1025
682 2 53.9608 48.5227 45.984
683 2 32.6511 42.9257 16.8961
684 2 27.542 19.5897 49.5004
685 2 38.6666 32.8242 12.726
686 2 12.5045 43.4025 30.9331
687 2 50.7862 38.1706 35.3532
688 2 24.6938 26.1431 8.62869
689 2 6.81307 49.7111 52.83
690 2 50.3963 14.8017 43.6893
691 2 34.8112 53.86 47.2074
692 2 35.1794 45.6236 23.3062
693 2 8.91271 27.5694 33.236
694 2 15.2131 23.3072 18.0909
695 2 32.5911 34.0123 52.1086
696 2 45.4812 52.0013 25.5093
697 2 10.4025 32.2436 34.6307
698 2 55.5825 6.66928 12.2842
699 2 6.83049 10.2714 9.86446
700 2 9.34672 43.5169 44.4279
701 2 16.4107 52.6848 13.7232
702 2 26.5645 24.227 49.8385
703 2 8.38613 8.22811 26.6218
704 2 36.4717 27.8834 11.4879
705 2 13.5224 46.328 7.54443
706 2 32.9123 51.0544 14.596
707 2 22.0072 27.7386 30.0122
708 2 25.1889 41.6942 30.673
709 2 35.2221 15.0405 54.0266
710 2 11.4875 37.8687 11.6744
711 2 27.9938 47.2768 34.6653
712 2 36.0249 29.4855 54.4877
713 2 43.6225 46.219 17.1768
714 2 23.0348 29.0021 22.661
715 2 16.2677 30.2773 29.2803
716 2 42.5684 52.1566 6.10482
717 2 32.0316 23.038 37.6424
718 2 20.9099 40.4824 49.4924
719 2 29.4981 6.18752 51.6865
720 2 47.294 37.7764 40.6086
721 2 13.4114 7.4508 35.3494
722 2 20.3965 7.74185 19.8199
723 2 23.0291 44.0755 12.7289
724 2 42.4584 18.9644 33.4039
725 2 19.4111 46.696 25.7141
726 2 8.4654 51.0954 45.4381
727 2 27.8306 54.6593 36.3053
728 2 55.1414 17.6894 7.94911
729 2 50.9993 45.9098 28.4544
730 2 10.2078 30.9721 55.4557
731 2 38.6925 36.1687 34.7276
732 2 47.8216 49.4161 9.26777
733 2 42.2596 53.7718 32.3709
734 2 44.1743 36.4879 34.7649
735 2 21.1142 22.4432 6.25729
736 2 17.8322 16.1763 50.0565
737 2 32.364 41.7321 47.2683
738 2 17.3504 55.3905 18.6848
739 2 47.6136 44.1875 52.5077
740 2 35.5542 51.4929 16.4497
741 2 32.0502 17.9366 6.48471
742 2 17.3937 31.9833 41.1526
743 2 36.7141 15.3884 42.4656
744 2 36.5278 44.5972 37.551
745 2 10.4885 9.26284 22.207
746 2 24.2027 24.326 24.5152
747 2 6.72693 17.5829 44.205
748 2 20.0795 32.4451 45.9453
749 2 17.712 28.9912 42.6575
750 2 40.5373 41.7553 39.0547
751 2 22.0724 53.0257 40.4076
752 2 21.6896 54.4888 26.7488
753 2 7.70246 7.74615 8.51022
754 2 46.6936 53.6508 30.3426
755 2 23.3048 16.1959 29.3938
756 2 10.4278 50.5962 19.9454
757 2 19.8748 53.1456 38.3905
758 2 35.6288 28.3843 42.3058
759 2 14.1578 42.1616 9.84933
760 2 45.2893 23.4936 38.7553
761 2 40.5996 43.3467 50.1312
762 2 30.898 47.5518 26.1772
763 2 25.6516 17.4319 30.4798
764 2 17.4404 20.3628 6.61464
765 2 14.6044 38.6868 11.1796
766 2 24.7619 34.2447 18.6104
767 2 51.9966 45.3298 12.7948
768 2 34.705 41.2133 28.7778
769 2 52.0167 53.0464 16.4037
770 2 22.2044 26.6339 51.7764
771 2 20.3769 31.7097 26.3192
772 2 49.6723 53.6601 25.5636
773 2 28.6297 17.0047 45.3504
774 2 24.7654 29.9467 44.2122
775 2 13.5331 26.6454 44.2734
776 2 29.2606 9.31745 36.8434
777 2 34.6879 20.4339 9.03568
778 2 18.9525 29.0288 51.8007
779 2 13.3337 21.5138 34.8761
780 2 8.12597 47.9902 39.3005
781 2 13.1967 40.6454 29.6839
782 2 36.92 45.3 25.9045
783 2 9.30525 38.6354 46.5841
784 2 17.3614 45.831 17.0716
785 2 16.181 14.0132 55.4438
786 2 35.7408 50.3422 35.8298
787 2 18.2339 19.1083 9.56277
788 2 25.7795 27.5039 16.3207
789 2 40.8316 28.7489 46.1485
790 2 6.93065 7.77346 37.6551
791 2 9.5738 20.9121 26.2579
792 2 11.0469 16.0718 37.8919
793 2 12.1431 20.1901 47.7841
794 2 52.7423 15.1093 11.2081
795 2 17.1418 18.8857 42.5542
796 2 12.2574 52.1401 24.2233
797 2 8.93306 47.7211 27.5664
798 2 27.3121 17.1286 55.6157
799 2 52.6909 12.1824 38.3759
800 2 44.1679 7.61281 29.3253
801 2 17.0674 55.7941 35.4263
802 2 7.1791 55.343 30.0128
803 2 49.5075 42.8576 16.7846
804 2 23.0801 28.7772 55.2004
805 2 27.9847 54.4356 25.3117
806 2 40.5164 14.0317 29.1463
807 2 12.8956 11.0268 26.2945
808 2 16.992 51.7461 28.8181
809 2 45.2417 26.2814 38.1359
810 2 44.332 39.4229 37.9389
811 2 46.5785 31.5224 6.77029
812 2 20.3459 26.6328 25.1933
813 2 42.5888 45.6967 24.4296
814 2 42.4092 36.8483 18.1742
815 2 45.5917 20.5837 16.7231
816 2 55.7676 14.2614 49.4663
817 2 37.6117 45.6202 46.9999
818 2 25.9806 38.7074 12.2395
819 2 20.7499 41.1215 20.205
820 2 40.271 14.9248 16.6473
821 2 6.75018 35.9655 10.2027
822 2 29.198 51.0316 47.0441
823 2 45.3647 21.203 21.9468
824 2 8.6154 34.1176 20.3166
825 2 19.7178 36.5436 43.357
826 2 18.5096 9.57261 22.0212
827 2 38.0677 20.7056 27.4362
828 2 53.6818 41.3408 49.2531
829 2 27.2506 34.7698 16.8922
830 2 30.8294 14.1543 9.32624
831 2 24.4416 41.3569 27.4223
832 2 54.6375 26.5528 44.9878
833 2 44.2839 11.2478 33.7662
834 2 20.7436 13.8152 47.3682
835 2 26.9127 20.2722 11.1795
836 2 52.8675 42.8881 34.5601
837 2 17.8225 34.603 39.1792
838 2 33.1079 40.958 12.3105
839 2 36.047 23.3031 40.0919
840 2 15.0438 23.4825 32.8814
841 2 50.4011 7.99035 46.6869
842 2 27.6659 8.90837 45.4614
843 2 26.3372 49.5722 53.5149
844 2 23.4921 37.647 25.1248
845 2 39.673 17.4256 43.831
846 2 46.3583 34.5819 7.24261
847 2 21.1163 24.752 23.2585
848 2 46.2366 25.7385 48.4198
849 2 39.619 10.6369 8.56478
850 2 33.8298 9.64071 27.5127
851 2 13.9776 54.3198 25.2066
852 2 37.9401 37.7877 7.37325
853 2 15.9896 24.8679 43.9887
854 2 34.6054 19.6586 34.8555
855 2 6.54076 21.2037 29.3319
856 2 34.1138 7.23419 41.1134
857 2 35.0462 50.5732 7.94449
858 2 48.0172 18.6824 50.2324
859 2 35.0518 15.2084 40.4878
860 2 53.2059 16.6535 40.4803
861 2 18.2723 29.274 15.6332
862 2 37.3513 41.0489 24.3509
863 2 39.0309 42.7986 31.1553
864 2 50.9907 17.664 54.4298
865 2 41.3076 7.85166 11.2935
866 2 35.9717 34.7686 43.5829
867 2 33.885 10.7716 18.6334
868 2 8.98017 16.3907 20.9342
869 2 7.29442 9.56647 23.9507
870 2 41.0407 46.785 52.0816
871 2 30.7056 36.7203 40.1729
872 2 18.4931 13.3552 31.9393
873 2 43.9746 50.4966 44.775
874 2 25.082 54.1119 39.73
875 2 7.17186 16.4543 11.8817
876 2 18.4825 6.90597 44.4916
877 2 52.369 25.665 23.3044
878 2 52.1081 39.2818 51.488
879 2 44.4206 30.6732 37.5732
880 2 42.7642 7.40763 35.2982
881 2 33.9833 14.7844 50.3294
882 2 49.5983 13.8246 55.1984
883 2 31.9753 28.5278 6.38097
884 2 53.9586 26.009 49.3007
885 2 45.7649 27.4212 41.0667
886 2 41.338 43.2904 41.703
887 2 21.0728 28.75 15.582
888 2 16.2281 54.8163 9.73302
889 2 14.7581 11.5457 17.8939
890 2 19.1212 33.7653 28.2379
891 2 22.4782 37.3994 35.3307
892 2 20.9331 22.547 41.7142
893 2 18.3413 14.939 45.811
894 2 22.6195 7.21213 23.1761
895 2 12.2223 18.3229 35.662
896 2 9.18521 12.7035 29.6787
897 2 49.7819 10.3781 14.0591
898 2 37.3031 20.371 55.4171
899 2 27.896 19.5989 42.1675
900 2 21.6005 29.4193 41.0172
901 2 28.4512 25.7394 35.4839
902 2 31.5209 38.8635 39.0012
903 2 18.5252 26.7305 6.61607
904 2 50.7697 9.19948 26.5558
905 2 26.5845 7.4429 26.9358
906 2 44.4669 38.9372 49.9546
907 2 47.2257 24.003 34.5195
908 2 15.6291 48.2876 7.48608
909 2 28.2015 46.6703 17.0839
910 2 6.45312 41.1732 44.5842
911 2 54.8656 6.10966 7.64459
912 2 29.2994 36.4868 29.2362
913 2 51.0588 7.94765 33.5892
914 2 7.81388 11.6382 16.3348
915 2 38.1889 26.1573 7.0717
916 2 40.1402 52.2606 43.657
917 2 10.2071 43.0031 17.4608
918 2 34.5265 40.7679 51.2601
919 2 43.4172 11.448 45.36
920 2 21.8961 38.6198 38.7035
921 2 51.1868 20.3914 32.503
922 2 32.9235 33.6517 42.9086
923 2 18.1112 34.6986 21.4222
924 2 17.352 43.253 52.5356
925 2 29.2811 53.2395 50.5096
926 2 16.4906 26.8082 15.0756
927 2 52.6182 30.0694 33.8324
928 2 54.4256 21.8489 30.9008
929 2 50.8213 42.9512 22.7975
930 2 51.3688 31.062 16.7926
931 2 49.2471 22.7125 27.5832
932 2 41.7644 33.8234 6.59973
933 2 12.2602 13.0929 45.94
934 2 50.2691 37.4265 43.5339
935 2 50.5114 51.0706 37.8866
936 2 35.1098 16.0979 35.8436
937 2 50.2662 37.7638 55.6834
938 2 37.2822 40.7477 8.05397
939 2 29.6555 32.4914 28.7855
940 2 45.7284 45.3012 43.7216
941 2 46.404 34.3154 42.9323
942 2 28.1267 15.4085 12.3628
943 2 48.925 55.3866 51.307
944 2 24.7076 43.2804 41.6307
945 2 54.3702 52.3675 14.1502
946 2 10.2798 47.2129 31.7385
947 2 6.79969 24.6841 32.6858
948 2 51.7091 18.2343 34.3228
949 2 45.0071 39.0659 33.0972
950 2 22.634 8.09751 35.4118
951 2 51.851 17.8921 18.6577
952 2 9.03694 52.4296 25.6908
953 2 33.9548 17.6397 14.8081
954 2 47.2529 12.3449 23.6413
955 2 31.939 27.4406 39.1152
956 2 19.6442 38.8545 27.445
957 2 55.5531 18.7136 37.7054
958 2 8.18373 16.3453 34.927
959 2 48.3596 14.8687 8.39636
960 2 7.49695 8.98043 42.8747
961 2 21.7017 54.158 34.0189
962 2 8.7048 54.7295 42.8065
963 2 48.8907 21.2291 48.6603
964 2 54.5625 14.9695 32.2261
965 2 53.1777 51.0561 33.2732
966 2 34.8591 48.402 34.2052
967 2 9.44112 45.0891 34.3876
968 2 11.7921 54.463 29.033
969 2 43.8592 7.95045 9.79773
970 2 8.30946 41.0552 10.4904
971 2 27.2599 45.4166 27.9868
972 2 13.2192 51.5313 52.2221
973 2 23.3585 49.704 50.7621
974 2 54.4059 35.104 17.4323
975 2 37.3906 10.4611 27.9731
976 2 44.3385 42.0094 34.0999
977 2 44.0376 43.0784 11.167
978 2 50.2437 54.8822 48.9905
979 2 45.0737 6.34176 20.5057
980 2 47.0764 30.4661 19.2901
981 2 17.096 47.1828 48.6911
982 2 40.5647 46.4707 17.5618
983 2 25.0192 26.8916 22.8446
984 2 41.5387 36.2576 32.4282
985 2 50.4978 45.9724 45.7671
986 2 12.9496 36.9352 25.8237
987 2 36.7644 37.6511 36.7404
988 2 37.7391 30.0801 45.6385
989 2 7.73092 30.5078 28.9781
990 2 44.5716 51.8176 48.1791
991 2 16.4035 36.3912 17.5963
992 2 9.57676 25.1955 45.6563
993 2 17.5914 43.4731 40.6981
994 2 15.1818 36.1477 40.1806
995 2 32.917 49.1669 25.0389
996 2 31.2872 43.3183 8.5045
997 2 52.9412 33.1294 15.4732
998 2 8.95685 43.4406 24.5179
999 2 7.78212 27.8259 46.3012
1000 2 21.266 30.8585 21.5865
1001 2 20.5697 16.4832 32.6693
1002 2 13.1597 13.4806 11.061
1003 2 53.3273 9.5246 45.6636