ITEM: TIMESTEP
0
ITEM: NUMBER OF ATOMS
9088
ITEM: BOX BOUNDS xy xz yz pp pp pp
6.1379132029108412e+00 5.5793024589457879e+01 -5.6970037830132848e-15
6.1379132029108465e+00 5.5793024589457879e+01 0.0000000000000000e+00
6.1379132029108465e+00 5.5793024589457879e+01 0.0000000000000000e+00
ITEM: ATOMS id type x y z
1 2 6.88606 28.3337 39.004
2 2 28.4309 18.4181 9.61923
3 2 16.4299 38.6957 47.1857
4 2 40.0883 24.4396 52.1956
5 2 36.6156 13.3032 54.9266
6 2 8.45817 7.21466 28.3358
7 2 39.7305 17.6141 45.6444
8 2 50.1883 38.3922 41.5313
9 2 31.2139 51.0232 54.1045
10 2 28.2648 45.0232 54.9845
11 2 50.9056 38.9765 50.641
12 2 28.7001 53.1471 22.0253
13 2 36.5355 27.0038 26.2141
14 2 22.138 9.34676 6.79834
15 2 16.8754 38.0724 21.6353
16 2 11.1197 45.7504 28.6563
17 2 39.8742 15.9508 32.6061
18 2 7.79044 53.0704 6.59683
19 2 40.4053 11.2287 50.7236
20 2 41.7161 12.2752 41.3878
21 2 46.3624 48.5048 19.4164
22 2 51.8078 51.9648 38.0945
23 2 47.9607 16.0907 31.7644
24 2 30.6346 20.1903 44.3754
25 2 13.891 23.8497 25.6774
26 2 16.382 37.1772 30.5099
27 2 55.055 30.6771 16.7496
28 2 20.7088 23.9588 53.1601
29 2 43.2362 45.3324 33.1502
30 2 37.4747 39.7774 22.0806
31 2 12.7368 27.7487 11.3319
32 2 32.4225 23.0593 48.3088
33 2 32.2723 39.8278 38.3781
34 2 10.8709 14.5276 34.7319
35 2 54.7336 16.1572 13.5483
36 2 13.4515 32.3987 55.0377
37 2 10.8332 27.6664 43.1968
38 2 46.1876 35.2672 21.5343
39 2 54.921 38.8721 50.6976
40 2 49.2996 18.1545 20.1626
41 2 23.3905 29.0325 38.4087
42 2 43.7669 33.5953 40.9521
43 2 40.6712 24.5955 43.5459
44 2 51.5818 11.8333 22.0859
45 2 47.0066 53.2872 11.0032
46 2 17.6349 40.6402 54.8752
47 2 38.3859 31.3489 34.7175
48 2 53.0547 53.42 25.0529
49 2 54.2278 20.2289 52.6955
50 2 23.2012 49.7153 19.9728
51 2 48.7672 9.68361 6.82968
52 2 48.0211 8.96592 14.4826
53 2 40.0772 15.9192 8.57479
54 2 16.8644 33.6529 21.816
55 2 38.147 51.816 52.1527
56 2 21.1888 22.7408 10.2538
57 2 24.1038 10.0603 44.5746
58 2 25.0105 15.6307 52.0234
59 2 38.9906 27.4139 47.7745
60 2 24.3799 7.83252 14.776
61 2 55.4529 10.8238 29.1555
62 2 47.3475 18.2831 39.3925
63 2 25.3367 19.4336 9.78815
64 2 41.4555 15.7938 49.757
65 2 15.3874 8.20253 47.1125
66 2 14.9132 41.4257 25.2963
67 2 32.4647 27.7253 16.293
68 2 23.6623 48.7434 50.7807
69 2 51.0729 21.958 26.4329
70 2 29.5148 18.9618 7.08035
71 2 41.012 18.0887 30.4246
72 2 7.28503 18.0229 48.327
73 2 25.7186 17.9864 16.3511
74 2 48.7788 27.2798 20.0168
75 2 25.7577 41.934 27.5416
76 2 27.4575 20.4145 16.3075
77 2 52.2273 41.8716 25.4776
78 2 15.4069 52.7473 51.6399
79 2 22.0926 38.7035 26.6329
80 2 11.1259 32.9825 7.3479
81 2 7.81363 20.6722 22.2004
82 2 43.0822 37.7448 46.9031
83 2 43.2288 16.0123 23.3217
84 2 16.0658 16.1024 9.57314
85 2 7.91128 21.2808 40.1081
86 2 6.21572 18.0627 28.2648
87 2 47.9723 12.1125 52.8665
88 2 36.595 49.0718 11.7555
89 2 28.1767 27.9887 37.3331
90 2 49.7925 51.0404 18.4963
91 2 8.69899 39.0474 38.7174
92 2 43.0977 43.7914 24.4598
93 2 28.847 32.3038 28.3722
94 2 17.9965 24.67 52.5486
95 2 14.7297 40.3909 44.6239
96 2 27.1308 27.0903 24.651
97 2 13.0901 18.2736 6.84631
98 2 43.6429 53.6003 46.7856
99 2 47.002 40.7784 25.7545
100 2 28.7887 50.3694 22.3368
101 2 52.4718 9.63375 6.14514
102 2 17.9628 32.5074 13.724
103 2 30.3491 6.52204 49.2329
104 2 43.2705 16.912 39.8008
105 2 35.41 7.64635 18.6181
106 2 24.0735 24.7456 25.5295
107 2 13.8086 34.9431 14.9784
108 2 54.9891 29.6269 45.6371
109 2 37.167 43.3899 50.0669
110 2 44.6814 10.5473 6.39776
111 2 38.5639 49.5528 53.9149
112 2 54.6051 7.14981 6.31866
113 2 11.7262 27.3915 51.1436
114 2 54.8971 36.0447 25.1346
115 2 10.698 34.2489 23.7324
116 2 9.87782 37.8098 47.1368
117 2 48.2952 54.9769 41.0749
118 2 49.7563 21.6772 12.4576
119 2 32.6877 41.7325 50.9806
120 2 40.9223 19.265 19.735
121 2 32.2667 51.8575 42.652
122 2 47.8423 35.8499 6.81489
123 2 12.2454 41.4453 21.6761
124 2 47.5622 20.7308 6.21388
125 2 31.4792 55.7493 10.5781
126 2 7.73445 35.722 47.8129
127 2 34.9564 50.6448 39.0989
128 2 20.4792 23.4045 32.7635
129 2 50.8061 14.2745 12.6458
130 2 16.0995 10.2154 45.0329
131 2 26.8852 48.8921 13.9146
132 2 49.4716 38.7067 55.6323
133 2 8.83937 21.0552 10.4391
134 2 44.4488 21.1214 41.4091
135 2 51.8143 35.425 44.7449
136 2 27.9445 36.8597 16.3926
137 2 39.2021 28.4681 25.0809
138 2 16.0104 52.5412 30.6571
139 2 26.7138 50.5907 34.8875
140 2 34.3604 19.8866 25.4049
141 2 14.3805 16.6614 27.05
142 2 46.8635 40.56 45.632
143 2 18.4044 53.6453 46.5461
144 2 36.8288 47.7217 33.4203
145 2 10.0782 53.5853 21.6211
146 2 44.6738 42.9591 46.4746
147 2 53.6158 27.2104 30.6964
148 2 42.33 7.84385 49.8771
149 2 50.9416 51.0295 53.6439
150 2 40.4619 22.0468 38.4464
151 2 34.7312 25.8467 10.758
152 2 38.4817 43.2253 27.4481
153 2 39.328 29.4532 7.22062
154 2 8.3898 6.27726 38.2559
155 2 55.6727 43.5658 17.9718
156 2 53.3278 30.5371 10.0737
157 2 51.3618 38.5381 25.3238
158 2 17.7548 23.2316 23.2262
159 2 41.8015 42.5066 33.1869
160 2 48.0257 51.7948 8.28897
161 2 49.4137 20.7673 53.1384
162 2 12.3288 51.3759 17.9578
163 2 13.9056 51.9736 36.2276
164 2 53.2799 37.915 38.8994
165 2 50.5824 12.7153 34.0714
166 2 46.6899 18.1426 51.3128
167 2 44.3151 30.9272 52.9095
168 2 28.193 43.3344 47.4561
169 2 55.4639 20.7245 20.012
170 2 34.1058 19.067 20.6564
171 2 41.2216 40.6704 50.6443
172 2 36.9414 12.534 47.6442
173 2 31.4172 9.1757 35.3739
174 2 36.4199 50.6381 49.9143
175 2 37.7397 20.1092 17.1451
176 2 16.5799 6.42007 42.2877
177 2 19.2299 34.277 51.5379
178 2 53.3519 26.5365 35.6688
179 2 39.4635 30.6765 39.5965
180 2 28.0814 34.1387 26.5731
181 2 29.0565 9.16384 37.516
182 2 10.1226 19.3518 21.5295
183 2 18.0217 27.8006 22.7417
184 2 27.4847 15.7743 18.6634
185 2 6.17239 9.51718 44.8879
186 2 22.8912 51.4222 53.0154
187 2 53.1928 28.5385 33.3262
188 2 19.6689 26.2705 39.9265
189 2 24.7958 31.2617 26.9019
190 2 53.068 16.5288 50.2344
191 2 44.2356 37.5883 15.0638
192 2 7.44617 45.4728 9.11706
193 2 24.6637 20.7378 37.0337
194 2 10.9665 43.7426 23.8014
195 2 23.8592 10.9962 27.9303
196 2 50.7908 47.0684 20.8667
197 2 37.5592 46.4934 54.3735
198 2 10.8823 8.69938 16.7075
199 2 11.3584 18.4594 12.5471
200 2 27.0465 29.6552 29.0922
201 2 29.8584 24.4626 9.97751
202 2 47.0361 11.606 33.72
203 2 44.2945 21.802 19.668
204 2 8.09206 39.8997 20.5519
205 2 43.5791 47.8573 43.3816
206 2 14.7351 55.2664 10.8719
207 2 28.4725 37.2105 40.0618
208 2 38.1817 36.9636 19.4427
209 2 25.5181 31.2987 48.1876
210 2 35.5385 54.6549 12.6177
211 2 16.9374 15.6768 48.6453
212 2 12.2292 33.1653 26.4126
213 2 32.1652 40.2876 41.2901
214 2 32.6553 6.20558 54.3746
215 2 30.5532 23.822 13.0339
216 2 19.2968 20.2151 10.9547
217 2 24.71 52.3949 31.6343
218 2 45.1647 18.0455 9.55217
219 2 24.9212 15.3529 16.7149
220 2 42.6355 15.251 19.0373
221 2 41.5494 22.1424 19.5253
222 2 16.3729 48.6524 9.29369
223 2 51.3422 48.2216 55.6124
224 2 35.2255 25.1276 45.7147
225 2 41.7413 31.5274 37.6187
226 2 14.7296 41.8087 8.80635
227 2 20.5849 44.7539 14.6286
228 2 50.2354 38.2015 36.3046
229 2 50.681 54.7467 28.1371
230 2 49.5589 13.3386 20.2002
231 2 17.6931 18.9739 6.42032
232 2 52.9679 27.3701 6.22694
233 2 17.55 35.6348 8.32356
234 2 36.2728 39.6537 29.2029
235 2 22.0264 37.7756 34.2469
236 2 54.4956 38.5862 9.21057
237 2 42.7882 28.2369 26.9985
238 2 12.0558 36.3856 49.3596
239 2 41.0598 20.769 41.1645
240 2 28.5074 46.9947 31.4716
241 2 49.3789 33.9532 32.9657
242 2 50.2547 43.4419 6.54645
243 2 43.0077 51.2616 42.7337
244 2 44.5872 26.4895 51.7382
245 2 15.3851 20.6848 19.9346
246 2 38.0877 16.3002 26.6364
247 2 24.0238 9.90613 11.587
248 2 25.6918 24.1683 33.3969
249 2 18.3057 29.6055 15.3197
250 2 25.3705 53.1789 42.243
251 2 45.7376 12.8497 54.766
252 2 28.0098 6.40239 28.9705
253 2 36.3925 33.0751 48.261
254 2 35.0736 12.7625 28.4456
255 2 51.9509 31.5546 7.57901
256 2 35.1145 18.4336 45.1568
257 2 39.3742 53.6512 29.423
258 2 41.0944 25.5614 27.4252
259 2 26.5404 23.1458 7.32102
260 2 7.97494 35.44 40.8746
261 2 29.6683 30.6455 13.6378
262 2 20.5986 50.8433 43.1732
263 2 42.965 31.8773 44.8418
264 2 27.8607 6.70927 53.3461
265 2 53.2629 28.0525 47.875
266 2 30.7534 53.3335 32.5294
267 2 27.27 41.3512 40.511
268 2 30.6132 29.2251 43.9964
269 2 46.5781 54.2099 7.73417
270 2 8.52587 46.3704 36.2298
271 2 36.4109 47.493 36.5526
272 2 30.1734 13.5105 21.119
273 2 46.6717 33.7539 36.5475
274 2 8.6525 33.4076 15.5925
275 2 23.1975 50.0342 35.7563
276 2 35.6605 21.4979 23.1297
277 2 19.1016 28.9368 18.4648
278 2 36.6236 20.8803 6.29468
279 2 23.5725 38.5327 40.9321
280 2 6.37745 12.9974 14.2963
281 2 53.4132 12.6259 12.2416
282 2 53.1151 14.5043 22.6066
283 2 6.4091 19.9044 50.323
284 2 37.892 46.9803 29.6124
285 2 19.9228 41.421 24.0254
286 2 45.981 10.6226 13.3487
287 2 28.6044 17.5427 48.4353
288 2 27.5717 20.3525 52.6015
289 2 47.3039 55.4138 38.0004
290 2 28.6017 17.8654 45.2999
291 2 40.9827 47.7758 18.947
292 2 31.0625 45.4206 52.9312
293 2 47.5606 55.4285 13.3413
294 2 35.0792 22.2296 14.0406
295 2 7.88132 15.0653 40.789
296 2 43.39 46.8516 10.322
297 2 6.17924 43.0989 10.8871
298 2 28.1944 9.30574 13.1669
299 2 8.29023 38.9188 23.4734
300 2 15.3057 49.8765 38.1915
301 2 11.9723 39.7204 45.5822
302 2 22.0658 45.8819 34.2243
303 2 48.7761 7.73467 34.0515
304 2 6.82184 9.1435 26.988
305 2 53.9728 46.3882 17.4287
306 2 21.9632 27.3868 36.2359
307 2 50.9872 9.69288 28.26
308 2 44.5549 40.2806 27.9
309 2 13.9489 45.0205 25.0497
310 2 33.8621 54.693 47.4626
311 2 38.7078 16.9686 14.6229
312 2 18.6966 54.8827 19.7871
313 2 50.8092 36.3566 12.4956
314 2 18.8509 47.6225 47.8608
315 2 28.6825 31.4096 16.5647
316 2 25.6624 43.9965 13.9764
317 2 19.3365 55.0791 13.0611
318 2 41.6315 47.9839 23.5769
319 2 32.9268 33.8247 28.4234
320 2 27.6611 17.5273 26.9311
321 2 22.3357 53.4965 51.045
322 2 37.885 20.0567 42.2679
323 2 22.9372 13.8272 51.0862
324 2 20.2935 43.2821 18.1752
325 2 51.1515 35.4137 28.0994
326 2 45.6719 39.5261 20.8168
327 2 10.9324 44.7503 32.8471
328 2 44.843 34.9441 16.4625
329 2 18.2472 50.8144 23.6197
330 2 11.407 36.9989 15.5145
331 2 26.3942 7.76745 16.7908
332 2 21.1636 54.0361 8.76713
333 2 43.0323 27.5049 31.487
334 2 42.1925 11.0458 33.1571
335 2 22.0405 49.6326 29.5636
336 2 54.1923 43.9648 27.1477
337 2 48.5498 20.9214 42.0003
338 2 32.8456 13.11 48.7784
339 2 11.2891 12.1873 16.0669
340 2 33.3761 27.611 27.5087
341 2 38.1632 52.0679 42.7666
342 2 20.2393 43.2604 30.7388
343 2 20.8314 15.7425 9.41635
344 2 33.2642 45.9191 30.9165
345 2 40.7042 52.5951 54.73
346 2 31.4268 49.662 44.4532
347 2 34.5469 21.7903 41.8802
348 2 19.507 30.8405 42.7043
349 2 51.3563 39.3265 47.5584
350 2 12.1889 54.5083 41.8434
351 2 26.9403 39.6175 47.8331
352 2 53.6431 45.0204 32.1469
353 2 53.9445 25.0612 54.0405
354 2 21.025 7.54394 46.7462
355 2 46.4525 28.6005 21.2677
356 2 18.2621 25.2483 44.3368
357 2 52.8399 34.3524 40.3912
358 2 26.5597 17.4151 42.38
359 2 39.9052 16.6871 35.4816
360 2 41.2872 28.2922 54.5862
361 2 18.851 47.9294 37.8432
362 2 46.8582 44.3356 51.216
363 2 17.8546 55.0299 15.6489
364 2 45.8844 28.4181 16.7112
365 2 46.3803 54.1935 28.6679
366 2 40.6846 37.5127 34.7807
367 2 24.3604 26.8694 52.818
368 2 45.1449 23.7524 29.8999
369 2 48.8735 26.7224 31.7096
370 2 33.4535 8.26833 9.89763
371 2 36.3899 23.4175 6.99887
372 2 35.0177 42.2262 16.4783
373 2 46.7432 30.7167 25.8984
374 2 14.0683 26.6508 34.93
375 2 54.6375 12.3427 52.047
376 2 55.0584 50.276 19.1611
377 2 38.501 40.9721 54.2368
378 2 48.0627 31.2809 36.5696
379 2 44.8829 16.1144 30.8379
380 2 30.821 31.5913 23.9192
381 2 38.2395 39.6383 12.5063
382 2 42.4338 17.259 47.1298
383 2 33.5485 50.7721 14.7658
384 2 42.1238 24.9408 33.5225
385 2 35.5876 17.6076 53.6061
386 2 18.1074 27.4838 37.6211
387 2 21.7532 24.0874 39.1599
388 2 36.4833 55.1209 15.1
389 2 42.2547 19.4789 9.55522
390 2 39.1865 28.3728 43.8497
391 2 39.7998 23.9297 14.5416
392 2 28.5798 21.5972 38.8044
393 2 13.8448 39.4293 16.1334
394 2 47.0687 24.9238 54.6281
395 2 6.96964 45.9461 16.5878
396 2 14.2644 51.0326 7.71852
397 2 37.0104 49.2346 15.6665
398 2 54.504 24.2712 38.4613
399 2 10.1931 19.2293 33.8233
400 2 42.0356 33.3547 15.6778
401 2 37.093 7.89211 47.3067
402 2 23.1695 47.6331 38.2267
403 2 34.8594 20.8668 18.4083
404 2 49.5659 44.0073 12.469
405 2 45.3686 39.787 53.7707
406 2 53.2785 20.5641 55.7037
407 2 8.31262 30.5412 23.4915
408 2 12.6257 44.1316 14.0122
409 2 24.3111 26.9747 13.5293
410 2 28.9465 54.0736 37.7563
411 2 45.2499 37.0844 28.4024
412 2 52.868 12.9992 16.9732
413 2 32.6625 27.0998 22.9603
414 2 21.9443 17.5062 35.3881
415 2 30.3133 6.45097 36.4263
416 2 21.7361 6.85242 52.8426
417 2 39.7386 51.0353 45.4364
418 2 41.1042 36.0508 6.77206
419 2 12.7797 9.01041 31.0472
420 2 43.15 44.3399 48.9356
421 2 50.3333 28.131 39.5699
422 2 12.7139 26.7616 25.6563
423 2 18.6513 50.3893 20.5968
424 2 21.9881 29.3805 22.9608
425 2 36.1383 15.4847 11.3541
426 2 47.6433 47.755 50.9898
427 2 54.251 44.1133 41.9324
428 2 37.53 45.1679 41.1251
429 2 47.7718 43.8819 18.7516
430 2 21.1128 18.9077 39.8733
431 2 49.2888 33.878 13.9209
432 2 47.2427 12.3333 41.8823
433 2 46.4614 39.75 51.0499
434 2 34.9556 10.7307 55.564
435 2 52.5038 7.32488 28.3531
436 2 32.3984 32.893 46.4522
437 2 46.2515 34.5105 27.7362
438 2 14.8993 22.4807 37.9143
439 2 43.6668 12.578 52.019
440 2 32.0316 52.7986 51.5396
441 2 9.5223 7.17499 14.8074
442 2 16.4223 43.1976 16.357
443 2 27.1039 51.8173 29.886
444 2 55.5673 15.2855 48.4515
445 2 23.0978 31.9976 39.4439
446 2 30.5937 32.9752 6.95104
447 2 51.036 50.2146 22.4629
448 2 40.9894 38.4643 18.8363
449 2 53.5559 54.0749 40.8807
450 2 47.6113 25.4202 28.7773
451 2 29.571 21.3774 41.7066
452 2 18.7062 10.6498 33.0344
453 2 44.5131 52.3897 27.4966
454 2 13.9738 39.9644 49.4834
455 2 21.8753 32.6977 50.7736
456 2 49.1978 7.03982 7.13229
457 2 46.2486 32.4196 15.2734
458 2 16.6853 54.2915 49.3476
459 2 25.2193 40.2894 6.75064
460 2 30.7553 52.0637 38.7319
461 2 54.5748 55.3976 11.9548
462 2 45.9346 19.9679 21.4965
463 2 25.0672 51.8147 48.0015
464 2 54.6775 55.4639 53.0875
465 2 27.7665 32.284 38.1345
466 2 7.07881 25.0364 11.6925
467 2 42.306 50.3231 19.7764
468 2 14.3695 36.8526 47.8663
469 2 25.5211 36.765 47.6087
470 2 18.0799 32.8654 10.4889
471 2 13.3339 37.0939 7.98018
472 2 11.3901 6.47419 12.366
473 2 22.9187 47.6233 31.9571
474 2 40.9642 7.17997 20.5943
475 2 12.6466 12.3504 47.7421
476 2 38.4607 7.87426 19.0767
477 2 8.00072 18.7635 18.3306
478 2 46.904 17.2918 21.3667
479 2 11.0174 39.197 24.6752
480 2 45.4116 47.0865 32.0553
481 2 43.7112 13.8883 32.6364
482 2 53.837 52.9743 18.9084
483 2 30.6501 7.52731 17.4683
484 2 20.3146 48.513 55.3052
485 2 41.279 43.7015 7.49625
486 2 19.1687 21.0506 49.504
487 2 54.3306 37.1865 44.6891
488 2 32.3359 44.1968 23.5134
489 2 28.2025 15.8558 52.8729
490 2 9.82429 23.4641 12.908
491 2 9.26845 14.3676 55.1616
492 2 9.30106 53.153 37.7191
493 2 15.7953 9.32352 42.1845
494 2 24.9261 40.9707 52.6432
495 2 36.523 38.7294 39.9228
496 2 20.2824 41.434 21.0887
497 2 27.7892 6.39094 50.2238
498 2 42.1462 33.2644 10.037
499 2 26.8448 30.1733 41.1185
500 2 31.4531 48.0221 32.7369
501 2 39.5623 10.1186 20.345
502 2 6.75509 23.3284 29.1794
503 2 46.4824 35.6397 44.8814
504 2 49.9404 54.7832 11.3551
505 2 46.0874 7.88433 55.7528
506 2 40.0277 45.2238 36.11
507 2 44.9244 45.7597 18.302
508 2 25.1616 20.9577 46.4731
509 2 38.1608 26.1373 45.3579
510 2 16.5553 49.1026 41.9267
511 2 51.7409 24.5818 27.2899
512 2 21.9905 41.427 13.0534
513 2 6.75398 43.8827 45.6702
514 2 24.0551 54.4497 53.8078
515 2 9.67743 17.0212 25.4605
516 2 16.2237 7.58391 22.6248
517 2 54.6173 10.3517 17.349
518 2 53.2436 18.1233 17.7471
519 2 8.87614 35.8373 27.5914
520 2 18.3673 55.1896 33.5803
521 2 35.3978 24.7761 42.4762
522 2 53.6803 33.0906 34.0664
523 2 49.2675 34.9373 9.83477
524 2 15.0188 39.4124 6.38848
525 2 20.4401 36.0165 12.8364
526 2 54.7921 51.4377 42.304
527 2 22.3907 13.5245 55.2698
528 2 38.7964 12.9533 17.3368
529 2 13.1126 21.1841 25.1237
530 2 19.6404 25.2073 25.3602
531 2 40.2392 6.27677 54.7439
532 2 8.47524 48.7978 40.2394
533 2 48.6809 33.9292 48.4682
534 2 46.7645 22.5479 52.1175
535 2 32.1364 26.96 9.89824
536 2 25.5697 9.44222 32.1973
537 2 35.7078 40.9452 31.8458
538 2 46.4802 33.2145 31.9679
539 2 32.3325 37.2506 32.0904
540 2 15.4684 17.9199 38.1385
541 2 28.664 40.5467 24.2989
542 2 50.3313 21.0299 21.9895
543 2 10.5277 21.3372 55.6869
544 2 53.9423 40.4296 44.6074
545 2 44.0564 31.1235 29.6654
546 2 51.4931 11.7593 14.6051
547 2 39.919 16.0264 17.2087
548 2 27.6006 10.9716 8.92488
549 2 26.3923 49.7156 6.17174
550 2 19.7225 38.3813 11.3894
551 2 34.1778 40.3742 48.531
552 2 15.9193 39.3093 32.6292
553 2 42.5919 23.5409 10.4406
554 2 36.5427 21.1908 39.7667
555 2 10.1571 19.7152 52.4636
556 2 50.4208 13.9206 52.9616
557 2 36.9817 30.938 54.7899
558 2 32.1047 36.7186 50.0303
559 2 12.9565 19.765 35.3481
560 2 49.3471 48.3224 40.448
561 2 32.8637 27.6002 12.4908
562 2 37.2118 27.0918 53.7337
563 2 52.4707 7.67142 31.5775
564 2 54.4817 34.1032 44.3901
565 2 25.625 11.7635 49.2023
566 2 20.8606 49.0765 40.1072
567 2 42.5211 8.56477 9.93119
568 2 11.9005 14.9013 10.1248
569 2 23.3397 39.5016 36.6575
570 2 16.4652 35.6183 54.8425
571 2 30.3946 26.4647 47.5042
572 2 26.6258 13.323 42.8476
573 2 11.0245 26.7984 35.8204
574 2 7.68389 14.3493 34.4112
575 2 53.0039 31.0933 41.7547
576 2 52.2685 15.3869 55.0085
577 2 54.2743 25.8314 20.4081
578 2 41.8188 21.7698 27.6467
579 2 46.7803 44.4825 35.2145
580 2 42.0305 18.762 6.27678
581 2 43.055 30.6925 48.3573
582 2 15.9891 12.8408 41.4005
583 2 37.3336 26.1195 30.5771
584 2 22.9337 42.0425 10.0804
585 2 17.8924 26.4044 47.2644
586 2 38.3964 51.2519 30.7517
587 2 24.6345 10.1498 39.474
588 2 55.5686 12.5485 49.4198
589 2 10.4853 53.6631 44.7496
590 2 14.0541 45.8326 55.5675
591 2 18.5695 17.8558 13.3819
592 2 28.2235 40.2809 13.779
593 2 45.5007 9.9539 35.9028
594 2 6.97173 31.5358 39.3922
595 2 20.5871 31.4814 9.71578
596 2 14.593 45.2608 21.716
597 2 11.5483 17.1779 35.5946
598 2 8.59709 39.4911 54.8124
599 2 12.4532 33.1063 36.2816
600 2 38.9298 19.7095 48.1158
601 2 14.3256 9.37515 24.796
602 2 18.5454 35.4153 44.6928
603 2 53.6219 23.8021 23.0105
604 2 20.2779 30.127 45.32
605 2 32.2021 54.4025 18.6859
606 2 46.1355 54.6435 17.4061
607 2 11.2859 9.36906 27.8361
608 2 29.9158 44.2935 38.0259
609 2 18.4675 34.7625 24.083
610 2 51.54 28.9332 21.6461
611 2 23.8127 49.699 8.13634
612 2 43.9287 25.3713 36.4203
613 2 40.6309 12.6814 30.1679
614 2 23.0744 36.6071 49.0635
615 2 42.042 51.1365 27.224
616 2 33.6047 37.954 39.5375
617 2 40.6719 43.4541 46.6473
618 2 36.0059 38.0032 45.1042
619 2 52.1898 42.2224 20.9683
620 2 8.0954 20.7579 35.6041
621 2 51.0402 30.6778 25.5204
622 2 18.3872 51.7339 28.766
623 2 50.6915 49.76 35.9701
624 2 55.1058 30.8627 23.0247
625 2 26.5441 10.226 21.1813
626 2 47.8612 14.2121 23.0185
627 2 28.5188 32.3914 9.55883
628 2 31.2913 36.2464 38.5029
629 2 41.4258 33.1277 49.4127
630 2 43.6684 13.6027 16.8553
631 2 25.7672 46.9528 25.2167
632 2 52.242 52.981 14.8173
633 2 33.1998 33.3613 20.3624
634 2 23.8455 16.9867 8.49581
635 2 51.7419 32.5894 45.5509
636 2 23.5289 14.1235 42.0413
637 2 8.67945 30.551 54.5133
638 2 11.7128 14.5707 14.582
639 2 39.7633 14.6114 12.5004
640 2 7.62604 41.5549 52.791
641 2 48.7981 55.1514 47.7803
642 2 9.48295 13.4975 38.3924
643 2 16.9243 41.6907 13.6328
644 2 7.48985 38.538 7.6292
645 2 11.2647 24.1582 54.2627
646 2 48.0776 48.7676 33.0929
647 2 44.153 54.5032 49.9952
648 2 48.1856 24.9665 45.771
649 2 34.7643 44.1067 32.9436
650 2 20.2917 24.4893 13.7655
651 2 34.8132 33.289 30.61
652 2 36.2239 32.7946 43.1813
653 2 18.9309 16.9044 50.3086
654 2 24.7392 37.0441 27.3771
655 2 32.0685 28.1567 48.559
656 2 18.7411 26.0259 17.8714
657 2 17.6753 28.1515 25.762
658 2 23.5641 13.9775 23.4485
659 2 55.4644 25.5102 48.5485
660 2 34.269 18.0945 14.8121
661 2 13.8044 8.61603 16.0256
662 2 43.352 27.7707 8.86322
663 2 30.7244 20.3795 16.0585
664 2 55.2064 36.0434 13.7006
665 2 36.5896 51.2949 19.3264
666 2 41.4722 40.3154 40.8397
667 2 10.5089 33.7799 12.5623
668 2 28.381 24.306 50.8254
669 2 19.1426 10.7111 27.9752
670 2 15.7436 35.4691 25.8179
671 2 42.7583 29.0638 50.916
672 2 36.9989 52.0189 11.8133
673 2 48.5088 10.9008 11.5796
674 2 29.9998 38.1239 51.7963
675 2 11.816 50.0576 34.9592
676 2 9.22793 7.92961 34.1019
677 2 14.3219 37.5619 19.028
678 2 22.3665 9.53763 24.8674
679 2 33.6685 9.99086 19.7613
680 2 47.861 15.8552 37.279
681 2 31.6773 8.68308 53.2501
682 2 18.3035 35.1911 31.4705
683 2 47.0429 31.7783 51.5013
684 2 41.4052 6.18336 35.0298
685 2 52.5233 19.0781 48.1213
686 2 25.7215 29.6367 16.7198
687 2 14.4857 24.9352 21.3259
688 2 38.1575 12.1926 44.1767
689 2 20.7117 36.1759 38.2295
690 2 14.0826 51.0793 29.0926
691 2 48.3778 40.2719 32.8112
692 2 48.4855 31.778 9.03061
693 2 22.6668 13.9701 18.7104
694 2 28.5454 9.47661 53.2544
695 2 45.9834 20.266 37.5752
696 2 9.60799 38.125 11.3873
697 2 23.8181 18.6425 20.4931
698 2 19.4245 42.6033 47.5837
699 2 20.3441 46.0338 45.1063
700 2 22.9801 30.0061 29.925
701 2 30.0892 38.9438 48.6064
702 2 40.1569 10.4745 35.197
703 2 22.1854 44.3941 12.1519
704 2 50.1738 14.0922 46.2522
705 2 26.8738 32.6696 42.9332
706 2 46.8093 36.9487 49.8254
707 2 35.1417 13.7612 15.4261
708 2 38.6754 27.8801 16.3909
709 2 48.9446 51.1745 39.4888
710 2 25.1113 24.4674 46.6765
711 2 41.4569 33.5834 19.8514
712 2 49.3493 15.7549 39.9023
713 2 6.47844 32.6547 51.9883
714 2 36.7981 15.405 8.25016
715 2 30.2345 16.4494 14.5325
716 2 6.51687 38.2347 40.548
717 2 45.7132 9.37186 23.3469
718 2 34.3914 26.5954 34.8561
719 2 43.152 42.2729 37.1333
720 2 11.0571 24.7468 26.4966
721 2 26.7792 43.3726 20.5351
722 2 33.771 43.6349 54.9998
723 2 36.9309 29.9841 48.1061
724 2 6.31945 55.0154 18.9867
725 2 33.0469 32.5298 11.2277
726 2 22.5251 37.5955 30.8542
727 2 41.5098 40.6838 21.277
728 2 18.89 53.7134 43.4753
729 2 14.6796 31.9806 14.2012
730 2 23.8306 17.2716 40.8457
731 2 51.9227 22.4705 20.0983
732 2 11.4904 35.752 44.754
733 2 55.6212 40.5187 18.2707
734 2 7.78356 23.0025 20.1984
735 2 34.408 8.40753 41.6623
736 2 31.2816 51.844 35.3079
737 2 45.9388 27.9348 32.6713
738 2 31.2359 41.6615 54.0426
739 2 11.7017 30.7235 38.1973
740 2 48.9006 37.9777 52.1409
741 2 45.4742 53.8084 41.8522
742 2 30.692 18.0044 26.3299
743 2 49.9869 51.5229 28.2495
744 2 49.3688 30.727 22.8759
745 2 24.6498 45.1024 7.37476
746 2 37.974 10.5395 10.0843
747 2 20.4502 53.708 29.8185
748 2 33.1512 18.5145 31.0868
749 2 30.8663 14.9207 28.1816
750 2 54.1997 28.1874 24.5367
751 2 35.9268 39.3103 26.2147
752 2 35.3853 40.7931 12.3223
753 2 21.2007 43.8984 43.8094
754 2 10.5458 39.8559 16.0503
755 2 36.7593 52.2632 14.804
756 2 23.8117 37.0891 55.1561
757 2 33.5125 39.4227 23.5242
758 2 49.3529 14.6164 27.7236
759 2 27.9399 28.7762 44.8963
760 2 8.89205 9.58731 24.3338
761 2 54.048 29.4344 35.977
762 2 44.2264 33.5552 11.7697
763 2 38.9749 53.4587 16.1912
764 2 31.2131 6.41508 41.5466
765 2 28.0545 24.7147 46.8802
766 2 39.2247 19.2674 6.33052
767 2 15.7307 31.6975 47.9824
768 2 47.6228 27.4161 14.4451
769 2 17.5624 39.0636 52.0772
770 2 35.741 13.0146 37.5346
771 2 33.9219 18.2486 11.9278
772 2 13.5482 39.9358 11.2237
773 2 42.2264 53.0073 31.0664
774 2 38.3182 16.1894 29.982
775 2 26.9506 13.3268 30.0531
776 2 42.956 45.5878 22.3341
777 2 48.2856 6.36967 44.3872
778 2 32.5082 15.5854 37.2219
779 2 27.1347 7.5104 20.4092
780 2 21.8359 34.3776 24.9843
781 2 26.765 27.2565 14.9998
782 2 50.3094 31.3268 11.7481
783 2 23.0201 25.4138 31.9848
784 2 31.0384 32.5058 53.0602
785 2 29.5435 49.919 41.0642
786 2 49.1103 36.798 21.4261
787 2 31.9282 55.1001 45.012
788 2 39.3916 13.6933 51.462
789 2 54.3023 15.0801 31.7058
790 2 20.533 43.8753 23.0415
791 2 23.1938 7.1909 11.8617
792 2 24.6006 52.2574 23.2608
793 2 25.813 6.5996 33.2171
794 2 16.6841 51.1365 46.6185
795 2 30.5926 54.953 28.1155
796 2 25.9357 38.6724 9.82017
797 2 22.5291 33.9634 12.8213
798 2 40.9323 53.022 40.9616
799 2 16.7858 48.2056 23.682
800 2 7.67432 44.0875 13.5992
801 2 30.8443 42.1001 20.611
802 2 18.8592 42.245 15.7919
803 2 12.2916 29.3973 54.0861
804 2 36.3738 14.9019 40.9586
805 2 41.815 40.2222 10.7368
806 2 53.8637 49.8502 14.7122
807 2 26.715 47.2325 11.5473
808 2 30.7724 37.9352 14.299
809 2 8.75198 12.6066 23.7086
810 2 8.09578 26.114 23.1689
811 2 10.7345 17.7561 41.8182
812 2 34.2439 13.4015 10.7159
813 2 6.50571 31.9981 10.0997
814 2 6.65706 22.5617 52.7604
815 2 6.63697 9.69847 50.7548
816 2 19.6888 50.2031 35.4107
817 2 51.3043 31.9103 32.1082
818 2 39.4426 24.6291 47.5489
819 2 34.5415 26.9786 55.0808
820 2 53.3712 51.1026 51.9398
821 2 20.25 22.257 45.4455
822 2 42.7876 37.4389 32.7439
823 2 9.38055 7.75641 7.64599
824 2 22.5262 20.3531 55.5111
825 2 33.0667 22.9474 28.9636
826 2 32.1677 45.9307 7.23793
827 2 51.6757 7.18689 12.5331
828 2 17.3364 27.6513 34.6699
829 2 40.3879 21.0263 52.25
830 2 44.4513 50.2057 44.9421
831 2 37.6744 27.5064 13.2299
832 2 18.3455 12.8831 30.4993
833 2 8.23881 47.3398 19.2367
834 2 34.0933 49.6334 32.6824
835 2 40.1638 6.63669 46.5178
836 2 16.6294 29.0582 20.071
837 2 31.0608 20.76 24.8643
838 2 46.7397 27.2766 47.5084
839 2 49.428 9.72502 25.7276
840 2 28.4333 9.6793 18.4852
841 2 14.2535 43.8107 32.3388
842 2 41.5809 44.9124 30.9162
843 2 39.9627 35.959 39.0923
844 2 37.0113 23.8038 11.2933
845 2 52.9799 53.1971 29.5959
846 2 10.2952 20.7744 42.3821
847 2 34.9266 11.2689 8.83388
848 2 10.2222 11.9939 33.5228
849 2 53.1864 46.8532 43.4791
850 2 47.0651 45.708 13.1698
851 2 27.7981 40.3874 10.7339
852 2 51.4315 24.3947 42.7717
853 2 29.5937 11.0539 29.7938
854 2 48.2374 55.5171 20.481
855 2 20.2099 7.69655 15.0628
856 2 47.6973 43.521 26.6224
857 2 49.0552 36.4099 43.1854
858 2 12.4193 55.0975 33.6811
859 2 48.7725 51.3291 25.6168
860 2 16.9718 52.9419 25.8808
861 2 31.7227 15.988 50.6324
862 2 50.7614 26.8296 10.0071
863 2 52.3735 28.9742 16.6538
864 2 14.9196 53.6855 40.0015
865 2 52.6085 46.6186 46.472
866 2 49.5609 21.0552 29.1064
867 2 47.5644 47.0591 54.1544
868 2 22.6288 52.1965 6.58563
869 2 20.7524 45.6459 9.7698
870 2 54.4393 32.6964 37.8549
871 2 44.3175 22.8433 26.2587
872 2 32.0798 49.025 17.7144
873 2 7.90282 36.8876 30.2607
874 2 38.6528 40.4606 25.0495
875 2 20.7479 52.4495 47.0483
876 2 31.9378 43.0997 29.8281
877 2 15.6317 11.8748 8.91856
878 2 15.6849 25.4725 37.1252
879 2 7.80213 17.2368 22.9504
880 2 6.45298 43.4208 20.754
881 2 47.8755 50.5402 36.1477
882 2 13.4068 49.7691 40.9284
883 2 45.2851 14.8249 41.5997
884 2 17.7733 12.4782 35.0429
885 2 9.39966 13.7079 26.3405
886 2 54.9339 29.6539 27.2019
887 2 34.6342 14.8509 50.7003
888 2 29.7923 40.9833 44.8885
889 2 28.3557 47.2243 52.9325
890 2 32.9876 20.1992 13.9662
891 2 35.4464 23.2688 20.7616
892 2 34.4716 8.69084 27.3919
893 2 31.998 50.8525 31.0465
894 2 36.3879 43.4775 8.92098
895 2 25.7914 54.3976 21.0675
896 2 22.8492 48.7884 15.2728
897 2 13.9165 46.4698 49.2392
898 2 51.2314 6.53037 40.9962
899 2 41.5628 6.28141 27.9578
900 2 34.827 15.6606 27.0367
901 2 41.6639 12.3167 21.234
902 2 45.3379 25.23 24.615
903 2 32.0649 13.4734 42.0295
904 2 14.5498 45.5935 12.2039
905 2 40.1827 43.4579 12.4479
906 2 55.6531 25.0931 35.7962
907 2 10.9321 10.4262 20.3542
908 2 29.3375 34.1112 42.6996
909 2 42.014 32.7959 52.7468
910 2 19.9579 27.6093 29.9281
911 2 18.6374 42.1586 42.8599
912 2 42.9993 22.574 14.7401
913 2 14.8877 44.2204 19.066
914 2 21.2812 47.4867 51.6327
915 2 51.829 12.3431 42.062
916 2 53.6228 38.4206 29.1387
917 2 24.4432 30.0895 52.479
918 2 47.9713 26.9896 36.7128
919 2 7.23325 47.3294 30.916
920 2 35.3889 24.709 23.9771
921 2 14.371 6.56969 18.0718
922 2 46.5938 20.0432 28.5959
923 2 31.8994 20.8537 6.89204
924 2 30.9215 29.7028 37.7073
925 2 42.9486 39.613 36.0664
926 2 30.3304 12.9304 50.1781
927 2 16.0035 16.2612 19.6057
928 2 17.8878 8.25673 16.3238
929 2 14.5722 28.9927 8.28167
930 2 15.045 17.5563 52.526
931 2 12.9874 9.43797 12.7155
932 2 55.076 20.2781 42.1099
933 2 25.7635 49.1521 31.5892
934 2 11.2243 27.1675 28.9065
935 2 14.603 37.3667 23.3884
936 2 48.6711 52.3929 21.3249
937 2 14.1415 24.0686 41.4761
938 2 50.8367 26.9207 44.0669
939 2 43.459 19.3834 12.0939
940 2 9.39864 31.8618 29.0693
941 2 9.97042 20.2797 28.2623
942 2 41.3129 51.3821 47.7084
943 2 12.9523 41.7153 36.7067
944 2 38.1776 29.719 27.4539
945 2 18.1334 38.4826 49.3907
946 2 23.9521 33.4052 17.1333
947 2 20.2057 10.9983 18.1606
948 2 15.4682 54.2026 19.7724
949 2 8.41418 25.4023 18.2692
950 2 36.2132 44.2222 20.9683
951 2 15.9756 53.9531 54.2106
952 2 22.7377 38.9866 11.2865
953 2 47.5309 53.676 50.2104
954 2 10.9002 48.7033 9.20394
955 2 45.2126 13.7664 24.6737
956 2 33.3959 24.6471 13.3177
957 2 19.2575 55.0002 23.1415
958 2 21.7217 52.3564 20.3046
959 2 12.3259 50.8348 43.7237
960 2 21.4404 44.9999 28.2531
961 2 34.8201 40.6566 19.2767
962 2 22.4318 41.109 27.9508
963 2 11.5954 7.25301 35.6245
964 2 18.3864 50.8684 17.611
965 2 17.3147 37.1803 18.7051
966 2 48.3834 34.6765 19.9044
967 2 22.8868 31.5273 20.1323
968 2 25.1553 41.0437 14.116
969 2 7.60591 40.0218 47.4581
970 2 22.096 27.618 45.3155
971 2 40.5257 31.0208 13.5323
972 2 26.7425 37.4389 37.9336
973 2 36.9805 35.9804 36.3869
974 2 18.328 21.7141 52.679
975 2 50.9006 46.5028 13.4318
976 2 8.23574 28.1205 19.719
977 2 8.06937 29.0343 46.5391
978 2 14.1512 41.1652 34.4234
979 2 8.68384 42.4602 55.4408
980 2 10.22 17.007 54.5719
981 2 31.5506 35.0004 33.7031
982 2 53.6667 32.4908 53.3193
983 2 38.9841 13.0774 8.59871
984 2 54.9566 22.3958 17.7947
985 2 14.1631 32.0646 31.0944
986 2 26.5766 23.2679 11.3414
987 2 50.4267 23.8489 22.7435
988 2 51.292 16.645 31.1464
989 2 21.1487 16.5059 14.4423
990 2 8.33544 38.048 33.6964
991 2 29.9338 22.8262 53.1326
992 2 23.0685 11.9086 30.949
993 2 31.2622 29.5553 26.0778
994 2 28.7334 22.3735 25.8042
995 2 46.2307 35.0479 10.8984
996 2 44.8225 29.5217 43.4512
997 2 17.1263 19.572 50.7902
998 2 23.1964 30.2405 10.098
999 2 21.4776 14.0731 31.6057
1000 2 34.6191 17.3746 7.1741
1001 2 34.4476 52.7836 18.5549
1002 2 26.8888 49.6378 46.3414
1003 2 16.9689 43.8622 30.8272
1004 2 48.3814 8.65597 9.80089