ITEM: TIMESTEP
0
ITEM: NUMBER OF ATOMS
9088
ITEM: BOX BOUNDS xy xz yz pp pp pp
6.1021323399574552e+00 5.5828805452330798e+01 -5.7052141648223622e-15
6.1021323399574605e+00 5.5828805452330798e+01 0.0000000000000000e+00
6.1021323399574605e+00 5.5828805452330798e+01 0.0000000000000000e+00
ITEM: ATOMS id type x y z
1 2 12.0068 11.9726 34.4987
2 2 33.3866 51.9441 54.2769
3 2 21.1922 22.7172 42.0006
4 2 45.2037 8.21832 47.1588
5 2 41.2494 46.7172 50.1952
6 2 13.1189 40.6495 23.7313
7 2 44.5791 51.4284 40.9333
8 2 55.0116 22.618 36.8559
9 2 36.3317 35.0622 49.3577
10 2 33.1048 28.8462 50.0241
11 2 6.21126 23.1652 45.9498
12 2 33.4862 37.1621 17.2204
13 2 41.4131 10.9824 21.6032
14 2 26.8272 43.0967 51.6016
15 2 21.509 21.882 16.786
16 2 15.8865 29.6983 23.7673
17 2 44.8621 49.6103 27.8941
18 2 12.4669 36.9222 51.1867
19 2 45.1583 44.8559 45.7817
20 2 46.4589 45.8293 37.0111
21 2 51.5233 32.4272 14.9755
22 2 6.59841 35.7859 33.4938
23 2 52.6691 49.7986 26.8228
24 2 35.3793 53.876 39.8203
25 2 18.6805 7.68547 20.6674
26 2 21.1327 21.4316 25.5095
27 2 10.1901 14.627 11.8935
28 2 25.6545 7.78413 48.3182
29 2 47.9981 29.3199 28.2905
30 2 42.1744 23.6093 16.8465
31 2 17.2391 11.3791 6.31689
32 2 37.1682 7.531 43.6589
33 2 37.0891 24.2308 33.4457
34 2 15.4931 48.0688 29.7487
35 2 9.9498 49.4375 9.00105
36 2 18.155 16.2331 50.0425
37 2 15.4645 11.6529 38.3961
38 2 51.1014 19.3306 17.0287
39 2 9.98792 22.7082 45.7751
40 2 54.2834 52.15 15.1848
41 2 28.4126 12.9566 33.2347
42 2 48.4597 17.7556 35.8276
43 2 45.368 8.68742 38.5881
44 2 6.50923 45.3439 17.1278
45 2 51.6592 37.5715 55.6966
46 2 22.6675 24.9043 49.8749
47 2 42.8911 15.194 29.8336
48 2 8.26721 37.4563 20.3015
49 2 9.40776 53.6367 48.1215
50 2 27.9514 33.8287 14.8394
51 2 53.5771 43.632 51.3842
52 2 52.5531 42.4875 9.7041
53 2 44.8275 49.438 53.3015
54 2 21.4932 17.5057 16.9804
55 2 42.8238 35.7174 47.2063
56 2 26.2535 6.87177 55.078
57 2 28.7745 43.6709 39.6411
58 2 29.5942 49.4538 47.2467
59 2 43.7605 11.6361 43.1708
60 2 29.2604 41.4537 9.90388
61 2 10.6297 44.3678 24.2411
62 2 52.3529 51.818 34.6935
63 2 30.1484 52.9678 54.602
64 2 46.081 49.4211 44.9271
65 2 20.0119 41.9321 42.2461
66 2 19.6244 25.3171 20.3075
67 2 37.3967 11.3959 11.4502
68 2 28.5347 32.8429 45.6786
69 2 55.812 55.5993 21.5225
70 2 34.5248 52.551 51.837
71 2 45.6524 51.8017 25.4152
72 2 12.1712 52.0206 43.3857
73 2 30.6811 51.634 11.3038
74 2 53.8575 11.2807 15.155
75 2 30.3064 26.0419 22.8732
76 2 32.2529 54.134 11.39
77 2 7.38476 26.129 20.6206
78 2 20.0814 36.5722 46.6448
79 2 26.7634 22.5519 22.0175
80 2 15.8462 16.9025 52.1983
81 2 12.5532 54.6356 17.2899
82 2 48.0333 21.7005 42.1932
83 2 48.1374 49.7117 18.538
84 2 20.6327 49.5682 53.811
85 2 12.8102 54.9747 35.1016
86 2 10.7927 51.8065 23.2199
87 2 52.8497 45.8218 48.3201
88 2 41.8228 32.9833 6.32853
89 2 32.8748 11.8856 32.3316
90 2 54.7651 35.1606 13.6804
91 2 13.3939 23.2517 33.9837
92 2 47.895 27.6062 19.7065
93 2 33.2398 15.7313 23.3774
94 2 22.9113 8.78653 47.3822
95 2 19.4855 24.1351 39.7882
96 2 32.0695 10.8808 19.6363
97 2 17.7921 51.8139 51.5153
98 2 48.4568 37.8745 41.8527
99 2 51.7313 24.7812 20.7723
100 2 33.6656 34.2074 17.4442
101 2 7.72426 43.1635 50.8488
102 2 22.6509 16.5051 8.94455
103 2 35.0007 40.3013 44.2087
104 2 48.237 50.5823 34.8474
105 2 40.0843 41.3061 13.5311
106 2 28.9776 8.78969 20.3387
107 2 18.8402 18.9412 10.0251
108 2 10.0433 13.665 40.6263
109 2 41.8647 27.4844 45.2441
110 2 49.8118 44.1642 51.228
111 2 43.0725 33.3129 49.1398
112 2 9.74791 40.7155 51.0815
113 2 16.4449 11.2783 46.3085
114 2 10.0699 20.1767 20.6951
115 2 15.5799 18.1601 18.6407
116 2 14.8127 21.9212 41.8888
117 2 52.9938 38.9893 36.3342
118 2 55.0111 55.338 7.62065
119 2 37.5048 25.4876 46.2244
120 2 45.7734 52.8905 14.6985
121 2 37.1411 35.8648 37.8705
122 2 52.6668 19.9421 51.616
123 2 16.8737 25.3673 16.7494
124 2 52.5827 54.6179 51.2037
125 2 36.1696 39.335 55.4737
126 2 12.5308 19.5742 42.7099
127 2 39.5421 34.9083 34.3686
128 2 25.2837 7.30711 27.8204
129 2 55.6563 47.7366 7.74059
130 2 20.9492 43.5501 40.3741
131 2 31.8202 32.9751 9.08433
132 2 54.2926 22.7147 50.5721
133 2 13.6157 54.3712 55.2572
134 2 49.3201 54.7233 36.3804
135 2 6.61658 19.565 40.0516
136 2 33.0719 21.0878 11.4391
137 2 43.9608 12.5892 20.0777
138 2 20.6545 36.4202 25.8611
139 2 31.4911 34.466 30.019
140 2 39.3216 53.5535 20.4827
141 2 19.0232 50.2058 22.0709
142 2 51.6168 24.4527 40.6223
143 2 23.3059 37.7349 41.7141
144 2 41.4786 31.8293 28.3906
145 2 14.9259 37.6256 16.7578
146 2 49.4746 27.0286 41.5096
147 2 8.73913 11.1542 25.6185
148 2 47.2217 41.8864 45.3463
149 2 55.7123 35.2556 49.0842
150 2 45.1597 55.7736 33.6053
151 2 39.2063 9.59259 55.1974
152 2 43.1255 27.1465 22.6249
153 2 43.9961 13.4494 51.9288
154 2 12.9956 40.1092 33.6289
155 2 10.6057 27.1995 12.9254
156 2 8.27488 14.4928 54.8827
157 2 6.55338 22.8165 20.4161
158 2 22.755 7.36008 18.4742
159 2 46.4427 26.6738 28.5921
160 2 52.6631 35.8918 53.073
161 2 54.3771 54.6753 48.43
162 2 17.0351 35.3318 12.8976
163 2 18.6707 35.8367 31.4286
164 2 8.46426 21.8076 34.0861
165 2 55.2761 46.3418 28.9549
166 2 51.5558 51.8274 46.3574
167 2 49.0762 14.8435 47.9201
168 2 32.96 27.0192 42.419
169 2 10.9658 54.57 14.9581
170 2 38.9713 52.6086 15.3526
171 2 45.8567 24.489 45.86
172 2 41.9474 46.0741 42.8103
173 2 36.2117 42.9141 30.5716
174 2 41.1224 34.7354 44.9235
175 2 42.2944 53.6425 12.0799
176 2 21.12 39.8747 37.5084
177 2 24.0046 18.0594 46.8608
178 2 8.30245 10.9714 30.8124
179 2 44.4012 14.2572 34.373
180 2 32.8363 17.9629 21.6584
181 2 33.8512 42.8385 33.0117
182 2 15.0042 53.2365 16.4923
183 2 22.6595 11.744 17.8045
184 2 32.3182 49.4238 13.6785
185 2 10.9259 43.2729 40.2438
186 2 27.6513 35.4531 48.1466
187 2 8.03101 12.7078 28.3605
188 2 24.4284 10.4383 35.1109
189 2 29.3338 15.0687 21.9509
190 2 7.94173 50.2376 45.61
191 2 48.7273 21.286 10.0784
192 2 11.9721 29.6811 53.8824
193 2 29.4641 54.4329 32.1365
194 2 15.9353 27.726 18.8398
195 2 28.4544 44.3729 22.8921
196 2 6.3366 30.948 15.9898
197 2 42.4781 30.766 50.044
198 2 15.5349 42.3118 11.7436
199 2 16.1619 52.0471 7.62363
200 2 31.3746 13.6176 24.2694
201 2 34.8891 8.163 54.6396
202 2 51.8332 45.3145 28.8178
203 2 48.9801 55.5461 14.798
204 2 12.485 23.7054 15.3795
205 2 48.1521 32.0517 38.2588
206 2 19.5035 39.5038 55.6654
207 2 33.1006 21.2096 34.9523
208 2 43.2321 20.4209 14.4716
209 2 30.1422 15.0444 43.3267
210 2 40.3652 38.5018 7.52198
211 2 21.5915 49.4303 43.6204
212 2 16.8938 17.3746 21.399
213 2 36.8865 24.3854 36.2797
214 2 37.2569 39.8358 49.4849
215 2 35.2213 7.68697 8.19301
216 2 24.091 54.1305 6.1215
217 2 29.0311 36.3166 26.8179
218 2 49.8754 51.738 54.2067
219 2 29.5928 48.729 11.6
220 2 47.5651 49.164 14.3467
221 2 46.3932 55.7548 14.4857
222 2 21.1148 32.5865 54.2755
223 2 6.44021 32.3017 50.9398
224 2 40.0766 9.20434 40.6967
225 2 46.5074 15.2787 32.4554
226 2 19.4177 25.5337 53.5136
227 2 25.3714 28.5097 9.99832
228 2 54.8972 22.0862 31.5223
229 2 55.7492 38.6096 22.8894
230 2 54.3014 46.9714 15.1863
231 2 22.2935 52.6269 51.1469
232 2 7.97072 11.5753 50.9309
233 2 22.2704 19.2938 52.8504
234 2 41.333 23.3707 24.5592
235 2 26.7303 21.6938 29.3866
236 2 9.38666 22.4242 54.1641
237 2 47.6268 12.1099 22.1386
238 2 16.7797 20.4098 44.4636
239 2 45.8016 54.3239 36.2836
240 2 33.1761 31.0175 26.5496
241 2 54.1481 18.0511 28.0228
242 2 55.0148 27.5948 51.5714
243 2 48.0233 35.3708 37.6219
244 2 49.5898 10.4743 46.8041
245 2 20.431 54.7207 15.1724
246 2 43.002 49.8209 21.7666
247 2 28.6272 43.4858 6.72071
248 2 30.5636 7.84036 28.4137
249 2 22.8846 13.5818 10.302
250 2 30.1945 37.2517 37.2672
251 2 50.3302 46.4726 50.0837
252 2 32.7656 39.8136 24.1862
253 2 41.1455 17.0133 43.5888
254 2 39.8139 46.5434 23.6143
255 2 6.86151 15.4495 52.2281
256 2 39.9422 51.8424 40.4992
257 2 44.5243 37.5399 24.4242
258 2 45.7401 9.25805 22.4731
259 2 31.3668 6.87655 52.0822
260 2 12.3646 19.4613 35.9608
261 2 34.6415 14.6093 8.74676
262 2 25.3442 34.8338 38.263
263 2 47.7331 15.9013 40.1001
264 2 32.3777 40.7118 48.4506
265 2 8.27256 12.3207 43.1597
266 2 35.7199 37.5299 27.9652
267 2 32.2105 25.2857 35.4167
268 2 35.3124 13.1872 38.8341
269 2 51.4858 38.2033 52.4541
270 2 13.1509 30.4524 31.5161
271 2 40.9011 31.6423 31.3794
272 2 35.091 47.2459 16.1343
273 2 51.3581 17.846 31.5413
274 2 13.6335 17.4755 10.5474
275 2 27.9509 34.0605 30.9522
276 2 40.3139 55.2195 17.9261
277 2 23.8333 12.7546 13.4941
278 2 41.2983 54.7078 51.3749
279 2 28.2814 22.1966 35.9817
280 2 11.0502 46.5596 9.27852
281 2 8.49938 46.2716 7.30337
282 2 8.34958 47.9894 17.6678
283 2 11.1668 53.7208 45.6004
284 2 42.7136 30.6801 24.5409
285 2 24.5311 25.3268 19.3415
286 2 50.6665 44.4384 8.58515
287 2 33.4998 50.8751 43.3857
288 2 32.0845 53.8192 47.6854
289 2 52.2104 39.581 33.1929
290 2 33.2436 51.3804 40.4667
291 2 45.7564 31.7675 14.1313
292 2 35.6236 29.1858 47.8261
293 2 52.4406 39.4846 8.3972
294 2 39.6989 55.7616 9.0914
295 2 12.495 48.5845 36.0408
296 2 48.2913 30.9415 55.1631
297 2 10.9618 26.8942 55.6702
298 2 33.1084 42.9841 7.91102
299 2 12.8585 22.7511 18.3846
300 2 19.9097 33.3626 33.3357
301 2 16.6824 23.7792 40.6011
302 2 26.7056 29.9081 29.5966
303 2 53.4701 41.4123 29.0228
304 2 11.5938 42.8392 22.1268
305 2 9.11635 30.4402 12.347
306 2 26.8676 11.265 31.4216
307 2 6.26308 43.6128 23.1156
308 2 49.3141 24.2757 23.0387
309 2 18.6391 28.9781 20.0965
310 2 38.4775 38.6442 42.4528
311 2 43.6271 50.3017 10.0422
312 2 23.4199 38.889 14.8096
313 2 55.557 20.6399 7.61212
314 2 23.4423 31.4999 42.902
315 2 33.3628 15.5027 11.6342
316 2 30.7707 27.9833 9.2727
317 2 23.6896 38.8961 8.03427
318 2 46.5752 31.899 18.6572
319 2 37.6405 17.5248 23.5949
320 2 32.7207 51.4717 22.1242
321 2 26.9516 37.7385 46.0131
322 2 42.5702 53.7163 37.31
323 2 27.8002 47.6572 46.3435
324 2 24.9687 27.2883 13.5024
325 2 6.12528 19.2663 23.441
326 2 50.347 23.4673 15.7727
327 2 15.9276 28.666 27.828
328 2 49.6909 18.9662 11.8174
329 2 23.3078 34.8169 18.6594
330 2 16.3033 21.052 10.6
331 2 31.2676 41.3473 12.1907
332 2 26.0224 38.1885 53.3949
333 2 47.9022 11.4116 26.7076
334 2 47.0371 44.3341 28.127
335 2 26.7717 33.5723 24.821
336 2 9.13983 28.0783 22.3158
337 2 53.4733 54.4445 37.0884
338 2 37.4408 46.9766 43.8249
339 2 15.7773 45.7445 11.1662
340 2 38.2644 11.4909 22.5891
341 2 43.3569 36.3394 37.9989
342 2 24.6865 27.4953 26.0163
343 2 25.2675 49.6423 54.1063
344 2 37.7517 29.5943 26.0356
345 2 45.4069 36.5673 49.7946
346 2 36.1816 33.4226 39.4408
347 2 39.4527 55.5561 37.0732
348 2 24.2048 14.9837 37.6503
349 2 6.50504 23.4411 42.9304
350 2 16.6361 38.3624 37.0448
351 2 31.8955 23.4627 43.0279
352 2 8.85139 28.9416 27.4944
353 2 9.05965 8.92721 49.0335
354 2 25.9638 41.1881 41.8963
355 2 51.168 12.5972 16.3546
356 2 23.1619 8.91424 39.7189
357 2 7.6624 18.3992 35.3736
358 2 31.4032 51.3159 37.828
359 2 44.663 50.0569 30.7665
360 2 46.1698 12.1689 49.8315
361 2 23.5873 31.762 32.9683
362 2 51.5579 28.4007 46.3559
363 2 22.3339 38.7977 10.5111
364 2 50.7565 12.0464 11.355
365 2 51.377 38.0931 23.677
366 2 45.5381 21.4077 29.8996
367 2 29.3256 10.8838 47.5818
368 2 49.8172 7.49512 25.1448
369 2 53.7725 10.6015 26.9732
370 2 38.0552 41.7233 54.5958
371 2 41.2774 7.70317 51.7287
372 2 39.9951 26.1937 11.6184
373 2 51.4443 14.6417 20.8716
374 2 18.8199 10.2086 30.0015
375 2 10.0348 46.0034 47.366
376 2 10.3359 34.1837 14.2946
377 2 42.9573 25.1674 49.2787
378 2 52.6142 15.118 31.7398
379 2 49.7537 49.6966 26.0383
380 2 35.3067 15.4251 18.7677
381 2 42.8855 23.8677 7.73516
382 2 47.3614 50.947 41.8672
383 2 38.808 34.4322 9.65324
384 2 47.1618 8.58277 28.706
385 2 40.321 51.125 49.0078
386 2 22.9854 11.1612 32.6709
387 2 26.452 8.04431 34.2812
388 2 41.224 38.9757 10.1023
389 2 47.1962 53.2706 54.2127
390 2 44.1467 12.3399 39.0648
391 2 44.3564 7.74616 9.59256
392 2 33.5522 55.04 34.0303
393 2 18.5466 23.4834 11.1354
394 2 52.0989 8.78806 49.3527
395 2 11.5977 29.7717 11.5062
396 2 19.1735 34.9792 52.4499
397 2 41.7 33.1047 10.405
398 2 9.80685 8.24265 33.5602
399 2 14.6786 52.6927 28.8338
400 2 46.9908 17.2812 10.6682
401 2 41.935 41.7315 42.4032
402 2 28.1726 31.823 33.3625
403 2 39.563 54.3683 13.4111
404 2 54.2496 27.8948 7.40785
405 2 50.0096 24.03 48.5078
406 2 8.54607 53.9753 50.9586
407 2 12.8856 14.5425 18.4182
408 2 17.1225 28.3381 8.94366
409 2 28.958 11.0478 8.39901
410 2 33.5481 38.0761 32.5626
411 2 50.1775 21.0565 23.5792
412 2 7.95593 46.6933 11.9856
413 2 37.3679 11.1057 17.8933
414 2 26.645 51.1776 30.7277
415 2 35.2486 40.2055 31.4405
416 2 26.6172 40.5258 48.0552
417 2 44.656 35.263 40.6066
418 2 46.1728 20.2499 51.7817
419 2 17.5736 42.8718 26.1862
420 2 48.0207 28.3289 44.0511
421 2 55.208 11.6732 34.7366
422 2 17.4708 10.8675 20.7588
423 2 23.3783 34.5897 15.471
424 2 26.8026 13.2892 18.0142
425 2 40.9477 48.9694 6.19901
426 2 52.3624 31.7165 45.97
427 2 9.42206 28.1625 37.0417
428 2 42.4942 29.3404 36.0478
429 2 52.5659 27.9487 13.9061
430 2 25.8104 52.3722 35.074
431 2 54.224 17.9455 9.06815
432 2 51.9959 45.8362 37.065
433 2 51.1827 23.8271 46.2496
434 2 39.8531 44.2322 50.7524
435 2 7.84275 40.8987 23.4843
436 2 37.2614 17.0047 41.488
437 2 51.0831 18.5141 22.6682
438 2 19.885 6.36644 32.9757
439 2 48.3766 46.3596 47.1153
440 2 36.3221 36.9814 46.5637
441 2 14.3904 40.5703 9.83979
442 2 21.1416 27.1646 11.4157
443 2 31.9579 35.6887 25.3645
444 2 10.8569 48.9915 44.035
445 2 28.0256 15.6511 34.6934
446 2 35.6864 16.8816 52.0638
447 2 55.8137 34.065 17.6325
448 2 45.8131 22.456 13.637
449 2 8.92423 38.0054 36.2545
450 2 52.0919 9.12157 23.6808
451 2 34.4088 55.2292 36.7574
452 2 23.2855 43.9822 28.1056
453 2 49.2481 36.4549 22.4988
454 2 18.7219 23.9842 44.5003
455 2 26.7943 16.5979 45.8655
456 2 54.0113 40.5979 52.0254
457 2 51.1102 16.4206 10.1189
458 2 21.3373 38.2408 44.4512
459 2 30.2339 24.1207 51.6046
460 2 35.6442 36.2316 33.792
461 2 9.50761 39.382 6.81478
462 2 50.6562 53.7181 16.5288
463 2 29.8046 35.753 43.1164
464 2 9.47916 39.5204 48.1585
465 2 32.5614 16.2583 33.2308
466 2 11.8713 8.85948 6.901
467 2 46.9907 34.2485 14.7743
468 2 19.0571 20.9156 43.0618
469 2 30.7046 20.7259 42.6719
470 2 22.9579 16.8963 55.5224
471 2 17.9236 20.6498 52.6875
472 2 16.2059 40.0327 7.30403
473 2 27.7937 31.3555 27.294
474 2 45.8745 41.1527 15.6167
475 2 17.2687 46.1722 42.7162
476 2 43.2562 41.65 14.1236
477 2 12.7987 52.3772 13.5403
478 2 51.9554 50.8358 16.3399
479 2 15.9511 22.9596 19.7995
480 2 50.0523 31.0687 27.2769
481 2 48.5263 47.5031 27.8624
482 2 8.85866 36.8573 14.093
483 2 35.4909 41.2893 12.405
484 2 25.0466 32.3625 50.179
485 2 46.1897 27.6235 52.2708
486 2 24.1442 54.653 44.6942
487 2 9.17703 21.2437 39.9087
488 2 36.9384 27.8757 18.7285
489 2 32.9062 49.5259 48.3102
490 2 14.5923 7.28355 8.04954
491 2 14.2698 47.9801 50.4836
492 2 14.0057 36.9402 32.9363
493 2 20.4861 42.9645 37.4005
494 2 29.9288 24.6968 47.9913
495 2 41.2761 22.7057 34.9211
496 2 24.9826 25.2243 16.4857
497 2 32.5871 39.9454 45.2794
498 2 47.0861 16.9205 54.5859
499 2 31.7812 14.1351 35.9059
500 2 36.3153 32.2102 28.0778
501 2 44.5027 43.8793 15.5249
502 2 11.4565 7.44399 24.0078
503 2 51.2268 19.4554 40.0847
504 2 54.6749 39.0034 6.68485
505 2 50.7945 41.3742 50.8454
506 2 44.4877 29.0273 31.2615
507 2 49.9957 29.8757 13.1838
508 2 30.062 54.7961 41.5037
509 2 43.3064 10.1058 40.5128
510 2 21.4065 33.0656 37.1731
511 2 6.6842 8.54425 22.0973
512 2 26.9043 25.3541 7.92818
513 2 11.6893 27.8902 40.8678
514 2 28.6619 38.5392 48.8048
515 2 14.6236 50.8721 20.5586
516 2 21.0107 41.228 17.7652
517 2 9.74304 43.7668 12.2859
518 2 8.50637 52.0341 13.0035
519 2 13.5594 19.7438 22.7654
520 2 22.9502 39.1872 28.5804
521 2 40.2784 8.85243 37.4887
522 2 9.26651 16.8093 29.9213
523 2 53.6939 19.0547 54.3968
524 2 19.7031 23.4857 50.9767
525 2 25.3982 19.9354 8.16928
526 2 10.1563 35.3275 37.7907
527 2 26.8905 47.2452 50.6841
528 2 43.5481 46.685 12.7521
529 2 17.9271 54.7445 20.477
530 2 24.6373 9.26727 20.7303
531 2 45.0541 40.021 50.0082
532 2 13.1168 32.6484 35.6615
533 2 53.5154 18.0766 43.4112
534 2 51.7558 6.58393 47.3195
535 2 36.875 10.8116 54.6495
536 2 30.1738 43.0536 27.6343
537 2 40.0147 24.6953 27.0408
538 2 51.3019 17.0894 27.0497
539 2 37.0744 21.1333 27.24
540 2 20.4881 51.455 33.2983
541 2 33.0656 24.3262 19.4933
542 2 55.3395 54.5274 16.9008
543 2 15.5661 55.1302 50.8668
544 2 8.88951 24.4481 39.6046
545 2 48.9195 14.8494 24.6705
546 2 6.42607 45.3999 9.59275
547 2 44.8733 49.7307 12.5096
548 2 32.3233 44.3655 53.5999
549 2 31.224 33.7368 51.2702
550 2 24.5431 22.3202 6.44216
551 2 38.9635 24.3817 43.6336
552 2 20.6227 23.2048 27.8571
553 2 47.4413 7.28208 55.3103
554 2 41.302 54.8354 34.8704
555 2 14.88 53.3254 47.5881
556 2 55.1598 47.5788 48.3659
557 2 41.9928 15.0007 49.5303
558 2 36.9934 20.584 45.0216
559 2 17.9457 53.3086 30.3743
560 2 54.0804 32.4795 35.6901
561 2 37.6594 11.6658 7.76498
562 2 42.0381 10.9111 48.6643
563 2 7.59838 41.1664 26.6553
564 2 9.6299 18.0079 39.5676
565 2 30.0428 45.5052 44.3455
566 2 25.6804 33.1676 35.2613
567 2 47.415 42.2054 54.7068
568 2 16.7903 48.2198 55.0058
569 2 27.8527 23.449 31.4483
570 2 21.2083 19.6882 49.9687
571 2 35.2426 10.454 42.7792
572 2 31.2272 47.1175 37.9297
573 2 15.8079 10.4413 31.0327
574 2 12.1613 48.0363 29.648
575 2 7.85056 15.0463 36.7842
576 2 7.62637 49.2274 50.5587
577 2 9.18726 10.0243 15.158
578 2 46.5486 55.1135 22.8768
579 2 51.7048 28.5154 30.4572
580 2 47.0087 52.3002 51.0227
581 2 47.8861 14.6379 43.5488
582 2 20.6649 46.6297 36.4958
583 2 42.0682 9.94789 25.5914
584 2 27.6027 26.0623 54.7284
585 2 22.6955 10.3755 42.5786
586 2 43.2986 35.2365 25.8597
587 2 29.012 43.6817 34.5778
588 2 10.8615 46.3748 44.4211
589 2 15.1235 37.6941 39.9473
590 2 18.5177 29.8075 51.0097
591 2 23.1766 51.8093 8.51726
592 2 33.0053 24.525 9.19246
593 2 50.0178 43.5398 30.8946
594 2 11.5584 15.4368 34.278
595 2 25.2505 15.3474 54.4382
596 2 19.2754 29.0524 16.8631
597 2 16.1993 50.6364 30.6727
598 2 13.4171 23.0191 49.9164
599 2 16.949 17.2229 30.9249
600 2 43.5988 53.4811 43.3278
601 2 19.1237 43.0195 19.9777
602 2 23.1037 19.1094 39.6669
603 2 8.60688 7.75462 17.9929
604 2 24.7998 13.9773 40.5898
605 2 36.8644 38.5844 13.9549
606 2 50.7718 38.6349 12.3056
607 2 15.8075 42.9444 22.9214
608 2 34.5799 28.2217 33.3145
609 2 23.1957 18.724 19.4116
610 2 6.47464 12.9223 16.736
611 2 28.5713 33.6208 52.9368
612 2 48.6649 9.16852 31.4917
613 2 45.3216 46.1672 25.211
614 2 27.7575 20.3359 44.1555
615 2 46.6133 34.9522 22.304
616 2 38.2347 21.9224 34.5747
617 2 45.2909 27.5368 41.9379
618 2 40.8773 22.0234 40.185
619 2 7.52879 25.9128 16.0482
620 2 13.0568 54.6034 30.7279
621 2 55.7077 14.858 20.7177
622 2 23.1977 35.4417 23.9056
623 2 55.3099 33.9115 30.8803
624 2 10.0431 15.027 18.0139
625 2 31.4784 44.1508 16.3064
626 2 52.5539 47.8427 17.9764
627 2 33.3592 16.1407 54.5184
628 2 35.7923 20.2004 33.41
629 2 46.1339 16.8658 44.519
630 2 48.7639 47.5575 11.99
631 2 30.419 31.0781 20.3766
632 2 7.20436 37.0412 10.0654
633 2 37.876 17.4008 15.3725
634 2 28.6193 50.5156 53.2903
635 2 7.09113 16.6004 40.786
636 2 28.0527 47.7668 37.4989
637 2 13.4421 14.1381 49.7032
638 2 16.4087 48.0027 9.67216
639 2 44.739 48.331 7.50221
640 2 12.4564 25.4593 48.2427
641 2 53.6995 39.1292 42.837
642 2 14.2114 47.1457 33.5559
643 2 21.5147 25.5354 8.48031
644 2 12.0947 22.6903 52.3694
645 2 16.2229 8.28943 49.425
646 2 52.5668 32.7674 27.968
647 2 49.1615 38.5949 45.2898
648 2 52.9524 8.83143 40.8343
649 2 39.4803 28.1706 27.9224
650 2 24.9819 8.4339 9.0194
651 2 39.4456 17.1775 25.7339
652 2 41.0721 16.9044 38.1216
653 2 23.7756 50.4728 45.2884
654 2 29.4571 21.1768 22.5542
655 2 36.9277 12.0962 43.9503
656 2 23.729 9.86759 12.9791
657 2 22.2298 11.9359 21.0935
658 2 28.2385 47.528 18.5996
659 2 10.574 9.21869 43.7234
660 2 39.214 51.5535 9.77536
661 2 18.3146 42.2575 11.1858
662 2 48.1577 11.6688 53.8088
663 2 35.3406 53.839 11.1042
664 2 10.2888 20.0364 8.67692
665 2 41.627 35.3061 14.3657
666 2 46.0906 24.3002 36.3111
667 2 15.2368 17.8536 7.76964
668 2 33.0121 8.21518 46.0599
669 2 23.9168 44.3868 23.142
670 2 20.7435 19.1254 21.0391
671 2 47.7537 12.756 45.9313
672 2 42.0448 36.0045 6.49946
673 2 53.3206 44.275 6.84481
674 2 34.9532 21.8978 46.8978
675 2 16.4958 33.8362 30.2446
676 2 13.9092 41.4578 29.5274
677 2 19.22 21.6503 14.1185
678 2 27.4616 43.3214 19.9218
679 2 38.6926 43.548 14.8605
680 2 52.7825 49.5653 32.4763
681 2 36.1975 42.5679 48.5476
682 2 22.7407 18.7265 26.4845
683 2 51.8355 15.5303 46.2792
684 2 45.9221 39.7821 29.8615
685 2 7.60147 52.6377 43.2192
686 2 30.6786 13.6215 11.9548
687 2 19.1241 8.91048 16.4218
688 2 43.0303 46.0513 39.0964
689 2 25.459 19.7587 33.4667
690 2 18.4107 34.7826 24.3734
691 2 52.7337 24.5417 27.9228
692 2 53.3958 15.8415 53.8178
693 2 27.5798 47.6371 13.9058
694 2 33.3686 43.3443 48.4421
695 2 51.0239 53.7467 32.5961
696 2 13.8742 21.9259 6.42423
697 2 28.5909 51.9241 15.7289
698 2 24.2709 26.3419 42.8201
699 2 24.9707 30.03 40.3114
700 2 27.7263 13.9984 24.8892
701 2 35.0373 22.8294 43.9283
702 2 45.0853 44.2197 30.7184
703 2 26.8778 28.1378 7.23569
704 2 54.8886 47.9767 41.5061
705 2 31.5131 16.5393 37.961
706 2 51.5973 21.0945 44.8654
707 2 40.4208 47.3139 10.5048
708 2 43.5208 11.7418 11.5561
709 2 53.525 35.3581 34.8383
710 2 29.8822 8.15506 42.019
711 2 46.4911 17.5909 15.0804
712 2 54.3514 49.3367 35.2895
713 2 11.4306 16.7907 47.1293
714 2 41.6252 48.6183 53.1199
715 2 34.8119 50.1277 9.41988
716 2 11.0945 22.2213 35.7726
717 2 50.5925 43.5212 18.3756
718 2 39.0756 10.7191 29.89
719 2 47.7758 26.1477 32.2761
720 2 15.5566 8.51045 21.8452
721 2 31.6445 27.5603 16.0363
722 2 38.6472 27.7788 50.2415
723 2 41.5719 13.986 43.2892
724 2 11.0281 38.7439 14.1779
725 2 37.9303 16.4539 6.43119
726 2 26.8793 21.3928 26.2197
727 2 46.2477 24.8369 16.3554
728 2 23.789 37.6757 38.6623
729 2 19.6115 16.1079 9.3623
730 2 28.3008 51.0097 36.0225
731 2 7.06296 6.56144 15.2914
732 2 16.1257 19.6868 39.7933
733 2 10.682 24.1693 13.263
734 2 12.3874 7.08477 14.9636
735 2 39.519 42.2155 36.8004
736 2 36.0874 35.9101 30.5401
737 2 50.7247 11.7125 27.905
738 2 35.933 25.5945 48.866
739 2 16.4137 14.5352 32.9226
740 2 53.6436 21.8705 47.0917
741 2 50.0701 37.6312 36.6165
742 2 35.6911 51.9931 21.6725
743 2 54.8128 35.3511 23.2939
744 2 54.3277 14.7763 18.2029
745 2 29.3605 29.2677 52.056
746 2 42.5934 44.0203 54.8069
747 2 25.2301 37.5627 24.7688
748 2 37.9114 52.3636 26.2618
749 2 35.5495 48.3507 23.7943
750 2 9.09183 12.1171 19.5226
751 2 40.6919 23.0998 21.1206
752 2 39.9675 24.6654 7.65221
753 2 25.9495 27.634 38.9793
754 2 15.4494 23.9781 10.8391
755 2 41.6826 36.2126 9.797
756 2 28.6843 20.7644 50.3707
757 2 38.3853 23.1813 18.6644
758 2 54.0027 48.4875 22.7882
759 2 32.8962 12.7299 39.9463
760 2 13.7343 43.3833 19.444
761 2 9.43685 13.8116 31.3976
762 2 49.1175 17.5451 6.94348
763 2 44.0815 37.5037 11.3324
764 2 36.0474 39.7957 36.6904
765 2 33.0643 8.84478 41.8545
766 2 44.0003 53.0221 51.1809
767 2 20.7782 15.5525 43.4904
768 2 52.8552 11.4941 9.22979
769 2 22.4853 22.8778 47.2372
770 2 40.5696 46.4058 32.6976
771 2 38.9253 51.4886 6.65598
772 2 17.8929 23.8437 55.7125
773 2 47.2092 36.8726 26.0008
774 2 43.0164 49.706 25.1055
775 2 31.5079 46.9546 25.172
776 2 47.9589 29.2459 17.4703
777 2 52.9811 39.8453 39.3824
778 2 36.8849 49.2965 32.3591
779 2 31.8817 41.258 15.6538
780 2 26.4749 18.3711 19.9686
781 2 31.5674 11.4167 10.0458
782 2 55.1686 15.655 6.92007
783 2 27.8233 9.15334 26.9953
784 2 35.8682 16.1973 48.5497
785 2 34.2679 34.0001 36.46
786 2 54.0001 20.8889 16.4593
787 2 36.7513 38.9545 40.1183
788 2 44.1773 47.3482 46.472
789 2 9.10152 48.815 26.7651
790 2 25.0552 28.0068 18.1658
791 2 27.9324 40.7513 7.01545
792 2 29.3886 36.0716 18.4314
793 2 30.5363 40.1428 28.2662
794 2 21.4182 35.0735 41.6168
795 2 35.3126 38.5794 23.3779
796 2 30.7811 22.681 54.7705
797 2 27.403 17.9391 7.69463
798 2 45.7389 37.0276 35.9278
799 2 21.525 32.3652 18.7845
800 2 12.426 27.9908 8.82216
801 2 35.3799 25.9664 15.9428
802 2 23.6481 26.0565 10.5553
803 2 16.9443 13.3852 48.929
804 2 41.1853 48.5978 36.2725
805 2 46.956 24.3798 55.5465
806 2 8.72387 33.9646 9.58811
807 2 31.1974 31.115 6.31022
808 2 35.5361 22.1994 9.56177
809 2 13.4788 46.5509 18.8918
810 2 12.7461 10.245 18.226
811 2 15.455 51.2919 36.9216
812 2 39.2382 46.8344 55.1422
813 2 11.0973 16.1038 54.8242
814 2 11.5396 6.57966 47.8127
815 2 11.2668 43.5019 46.2075
816 2 24.4445 34.2662 30.4568
817 2 6.32667 15.9191 27.263
818 2 44.0523 8.42248 42.6015
819 2 39.3718 11.2248 50.5221
820 2 8.5729 34.7638 47.2376
821 2 25.023 55.7427 40.6929
822 2 47.6967 21.2702 27.5793
823 2 14.1149 41.0894 52.211
824 2 27.1227 54.0232 50.995
825 2 38.045 6.98029 24.1791
826 2 36.6828 29.7173 52.0688
827 2 6.66468 41.0238 7.83465
828 2 22.0031 11.6357 29.9611
829 2 45.3009 54.7029 47.3366
830 2 49.1799 34.2691 39.8019
831 2 42.7469 11.48 8.42504
832 2 22.7879 46.6135 25.4706
833 2 12.8448 31.3281 14.3726
834 2 38.9197 33.5944 27.6001
835 2 44.9083 39.9403 41.5382
836 2 21.5712 13.1741 15.56
837 2 36.008 54.4528 20.0781
838 2 51.5474 11.0979 42.2884
839 2 54.401 43.6164 20.9988
840 2 33.4399 43.375 13.8034
841 2 19.0076 27.9725 27.4302
842 2 46.0174 28.9246 26.2078
843 2 44.683 20.0162 34.247
844 2 41.9961 7.68401 6.2347
845 2 8.37578 36.9484 24.7847
846 2 15.1233 54.4904 37.4181
847 2 39.5916 44.6736 53.4722
848 2 14.6514 45.6236 28.6307
849 2 8.29087 30.7677 38.529
850 2 51.8517 29.6088 8.17836
851 2 32.5449 24.5692 55.6128
852 2 6.68805 7.90418 37.9354
853 2 34.2024 44.6894 24.8233
854 2 53.0264 39.7204 15.6477
855 2 24.8038 41.2956 9.96828
856 2 52.4189 27.2791 21.8881
857 2 53.8809 20.5267 38.4952
858 2 16.9736 38.974 28.2872
859 2 53.6075 35.5382 20.7266
860 2 21.6814 36.5557 21.2983
861 2 36.333 49.7595 45.9859
862 2 55.684 10.9409 54.9111
863 2 7.45511 13.1544 11.4196
864 2 19.6245 37.4294 35.0349
865 2 7.62006 30.3808 41.5854
866 2 54.3987 54.979 24.4163
867 2 52.5179 31.0347 49.5323
868 2 27.4348 36.2623 51.1831
869 2 25.4406 29.5247 54.3499
870 2 9.2875 16.8102 33.0758
871 2 48.9321 6.63952 21.3668
872 2 36.813 33.2343 12.9965
873 2 12.3595 20.5553 25.3746
874 2 43.4594 24.3104 20.3611
875 2 25.4643 36.3873 42.2852
876 2 36.6946 26.6338 25.0982
877 2 20.3752 45.2571 53.8911
878 2 20.6212 9.28608 32.1196
879 2 12.6606 50.8261 17.9451
880 2 11.2446 27.3427 15.8229
881 2 52.2097 34.117 30.9829
882 2 18.0949 33.6954 35.7878
883 2 50.0519 48.6732 36.6498
884 2 22.6323 46.2596 30.0281
885 2 14.1347 47.3302 21.4651
886 2 9.93829 13.5353 22.0157
887 2 39.6078 48.4485 45.815
888 2 34.61 25.0224 40.0075
889 2 33.2468 31.127 48.2323
890 2 37.608 53.5452 8.68116
891 2 40.2834 7.2812 15.9028
892 2 38.951 42.4056 22.5468
893 2 36.9378 34.9721 26.1958
894 2 40.9932 27.4271 53.6214
895 2 30.4646 38.4029 16.1205
896 2 27.5756 33.1835 10.1736
897 2 18.5346 30.2792 44.366
898 2 6.19394 39.9401 36.2247
899 2 46.4713 39.9575 22.8689
900 2 39.623 49.2879 22.4409
901 2 46.3768 45.8545 16.2719
902 2 49.9023 9.14133 19.4933
903 2 37.0641 47.2503 36.9207
904 2 19.0928 29.5394 7.32673
905 2 45.2604 27.362 7.41018
906 2 10.8892 9.45635 30.9987
907 2 15.5033 43.9772 15.3442
908 2 33.9423 18.0518 37.7111
909 2 46.8861 16.9625 47.66
910 2 24.9574 11.5073 25.1746
911 2 23.3518 26.0688 38.1236
912 2 47.6585 6.39957 9.95052
913 2 19.2503 28.0424 14.2952
914 2 25.8253 31.6531 46.507
915 2 7.1479 45.6453 37.096
916 2 8.59035 22.6369 24.2578
917 2 29.3964 14.2748 47.2973
918 2 53.0327 10.7547 31.7453
919 2 11.9825 31.1942 26.1436
920 2 40.4067 8.44842 19.0149
921 2 19.0976 40.2622 13.2271
922 2 51.4568 53.623 23.6272
923 2 36.8806 54.3499 51.5766
924 2 35.4329 13.3805 32.8257
925 2 47.4594 23.3276 31.3158
926 2 35.0605 46.54 45.5181
927 2 20.6844 50.2178 14.5843
928 2 22.5426 41.8135 11.107
929 2 19.0598 13.0788 52.8613
930 2 19.798 51.1085 47.7373
931 2 17.8543 43.0525 7.87653
932 2 10.4683 53.9152 37.3767
933 2 30.4912 33.2542 27.0554
934 2 16.1577 11.0026 23.9686
935 2 19.0694 21.2781 18.4664
936 2 53.4589 36.4577 16.5308
937 2 18.8085 8.14916 36.6709
938 2 55.668 10.6758 39.377
939 2 48.1892 52.9377 7.23694
940 2 14.1969 15.5877 24.1384
941 2 14.6964 54.0545 23.286
942 2 46.2838 35.5279 42.9616
943 2 17.7903 25.5722 32.0131
944 2 43.0516 13.3766 22.4401
945 2 22.7594 22.2883 44.3057
946 2 28.8356 17.3307 12.1244
947 2 25.1794 44.4293 13.2024
948 2 20.1713 37.9539 14.8615
949 2 13.1853 9.38758 13.3034
950 2 41.0183 28.3068 15.9888
951 2 20.7316 37.9997 49.0655
952 2 27.4094 22.9404 6.36434
953 2 52.2805 37.5462 45.3363
954 2 15.8099 32.5163 53.9118
955 2 49.8157 47.5457 19.8298
956 2 38.1497 8.4781 8.12896
957 2 24.115 38.9846 18.1914
958 2 26.5991 36.2495 15.5199
959 2 16.9181 34.6133 38.8596
960 2 26.0986 29.291 23.6762
961 2 39.7412 24.3678 14.6324
962 2 27.3693 25.1129 23.0185
963 2 16.4492 40.6576 30.7115
964 2 23.2077 34.8671 12.6461
965 2 22.0347 21.2475 14.0201
966 2 52.9233 18.8214 14.7942
967 2 27.7712 15.6134 14.8812
968 2 29.9159 25.295 9.29503
969 2 12.523 24.0419 42.4436
970 2 26.6818 11.3151 40.4489
971 2 45.3246 15.0056 8.85059
972 2 31.3393 21.2901 32.8513
973 2 41.8786 19.8491 31.6795
974 2 23.0717 55.5267 47.877
975 2 55.5602 30.7181 8.56721
976 2 13.0228 12.27 14.4205
977 2 12.8825 13.0832 41.4289
978 2 18.9399 25.1728 29.5568
979 2 13.5286 26.6738 50.5182
980 2 15.1633 50.7375 49.7393
981 2 36.3912 18.7598 28.602
982 2 8.68459 16.3809 48.0985
983 2 43.8365 46.7207 53.4405
984 2 10.108 6.45257 12.7428
985 2 18.6649 16.2393 26.139
986 2 31.4566 7.39746 6.37368
987 2 54.916 7.63258 17.8514
988 2 6.28199 50.1703 26.4623
989 2 26.121 50.3201 9.54154
990 2 12.794 22.0236 28.859
991 2 34.8263 6.54246 47.9554
992 2 27.5508 45.4711 26.0001
993 2 36.3377 13.8056 20.9745
994 2 33.6379 6.3819 20.6949
995 2 51.3401 19.2003 55.4588
996 2 49.1167 13.8814 38.4347
997 2 21.8115 53.2533 46.0311
998 2 27.6575 14.0088 54.9424
999 2 26.0946 48.021 26.86
1000 2 39.7515 50.6902 51.9164
1001 2 39.1456 36.8629 13.4659
1002 2 31.6532 33.3886 41.5599
1003 2 21.9046 28.3448 25.9044
1004 2 53.024 42.5419 54.4727