ITEM: TIMESTEP
0
ITEM: NUMBER OF ATOMS
9088
ITEM: BOX BOUNDS xy xz yz pp pp pp
6.1286692753553567e+00 5.5802268516930994e+01 -5.6991249217622515e-15
6.1286692753553620e+00 5.5802268516930994e+01 0.0000000000000000e+00
6.1286692753553620e+00 5.5802268516930994e+01 0.0000000000000000e+00
ITEM: ATOMS id type x y z
1 2 32.919 24.4201 13.0872
2 2 54.3546 14.1311 33.4158
3 2 42.2533 34.6326 21.0732
4 2 16.3796 20.2174 26.0153
5 2 12.9102 9.26767 29.2387
6 2 34.4335 52.8868 52.1913
7 2 15.9471 13.8651 19.8954
8 2 26.2938 34.4481 15.7339
9 2 7.92852 46.8406 28.2717
10 2 54.2293 41.231 28.9125
11 2 27.2524 35.1109 24.4799
12 2 54.5534 49.3368 45.8977
13 2 12.9263 23.1047 49.7153
14 2 48.3976 55.0434 30.5333
15 2 42.9793 33.8932 45.282
16 2 37.1718 41.8942 52.4673
17 2 16.0902 12.0169 6.66042
18 2 33.8277 48.9748 30.1359
19 2 16.5524 7.23197 24.7129
20 2 18.1439 8.48939 15.4819
21 2 22.7846 44.4475 43.1544
22 2 28.0318 47.9118 11.8808
23 2 24.2735 11.9119 55.3188
24 2 6.87322 16.1006 18.564
25 2 39.8977 19.7144 49.4233
26 2 42.4396 32.9536 53.991
27 2 31.746 26.792 40.2388
28 2 46.7379 20.0696 27.0562
29 2 19.2147 41.4202 7.21922
30 2 13.8189 35.5906 45.6684
31 2 38.5977 23.4623 34.7411
32 2 8.85517 19.1757 22.1376
33 2 8.68771 36.0589 12.2591
34 2 36.7897 10.4067 8.70782
35 2 30.9532 12.4548 37.3274
36 2 39.1286 28.2676 28.9769
37 2 36.746 23.5541 17.1458
38 2 22.5504 31.0535 45.4514
39 2 31.0269 34.8366 24.7727
40 2 25.7472 14.275 43.5253
41 2 49.5426 24.9546 12.3805
42 2 19.9887 29.4603 14.8737
43 2 16.855 20.8909 17.3771
44 2 27.9775 7.82324 45.7006
45 2 23.2732 49.2058 34.7414
46 2 43.7134 36.628 28.8869
47 2 14.5838 27.3705 8.32347
48 2 29.5143 49.6612 48.3222
49 2 30.4341 15.9727 26.6857
50 2 49.3748 45.8148 43.1933
51 2 25.0419 55.2402 30.5257
52 2 24.3141 54.5956 38.1253
53 2 16.4481 11.8132 32.4576
54 2 43.101 29.5253 45.2743
55 2 14.4324 47.7691 25.9768
56 2 47.3289 18.7217 33.6933
57 2 49.9937 55.6054 18.5603
58 2 51.0668 11.6791 26.1014
59 2 15.1909 23.4843 21.8048
60 2 50.2458 53.3981 38.464
61 2 31.995 6.8671 52.7596
62 2 23.8381 14.2069 13.5657
63 2 51.4167 15.2149 33.404
64 2 17.8576 11.7934 23.526
65 2 41.2891 53.788 20.9912
66 2 40.6652 37.6644 48.7252
67 2 8.76103 23.8671 40.0514
68 2 49.7263 44.8733 24.9487
69 2 27.3175 17.9873 49.7459
70 2 55.2949 15.0772 30.5622
71 2 17.1653 14.2087 53.9579
72 2 33.2526 14.2332 22.0575
73 2 51.8362 14.347 39.73
74 2 25.2176 23.2583 43.5892
75 2 51.8824 38.1503 51.5019
76 2 53.6804 16.7179 39.95
77 2 28.3912 37.9836 49.1157
78 2 41.1472 48.668 25.5363
79 2 48.0823 34.7078 50.4089
80 2 37.0427 28.8542 30.7447
81 2 34.0199 16.6113 45.7301
82 2 19.2597 33.6395 21.0674
83 2 19.6817 12.0505 46.8021
84 2 41.8839 12.1216 32.931
85 2 34.0683 17.2772 13.7685
86 2 32.0433 14.3072 51.6271
87 2 24.1888 8.03237 26.8362
88 2 13.5983 44.6849 34.7652
89 2 54.4141 23.9559 11.2248
90 2 26.3655 46.9412 42.0944
91 2 34.449 35.3744 12.7214
92 2 19.4487 39.4975 48.259
93 2 54.838 28.3675 52.2633
94 2 43.9457 20.7789 26.2631
95 2 40.6898 36.2857 18.7242
96 2 53.3676 22.9302 48.4292
97 2 39.0941 14.1322 30.2748
98 2 19.921 49.6506 20.9222
99 2 23.135 37.0604 49.5168
100 2 54.85 46.2663 45.9617
101 2 29.0833 55.0894 29.7617
102 2 43.739 28.5702 37.4308
103 2 6.96938 52.3032 23.0293
104 2 19.5663 13.1082 13.6896
105 2 11.7978 53.139 42.2437
106 2 50.4031 20.8993 48.905
107 2 39.9157 30.8785 38.4588
108 2 31.3221 25.6201 19.7194
109 2 13.5662 39.3313 23.9957
110 2 21.0288 6.38035 29.9077
111 2 14.7305 45.4847 27.9791
112 2 31.0496 52.6705 29.8996
113 2 37.6645 23.284 24.9751
114 2 31.28 32.2739 49.2011
115 2 36.9502 30.2543 47.198
116 2 35.9752 33.5322 20.9711
117 2 24.8371 51.134 14.9112
118 2 26.2785 17.6897 36.1802
119 2 8.91882 37.7854 24.9751
120 2 17.438 15.5338 43.1705
121 2 8.48842 47.9774 16.3678
122 2 24.168 31.7063 30.5129
123 2 38.2274 37.4741 45.2953
124 2 23.9272 16.936 29.9948
125 2 7.70711 51.6764 34.4464
126 2 33.9183 31.5429 21.6714
127 2 11.1322 47.0071 13.2281
128 2 46.451 19.1948 6.62047
129 2 27.2209 10.2433 36.3124
130 2 42.1598 55.7341 18.9338
131 2 52.4306 44.6754 37.9056
132 2 25.7432 34.7693 29.6754
133 2 34.9998 16.7205 34.1461
134 2 20.7561 17.1789 15.1644
135 2 27.6625 31.3443 18.6767
136 2 53.7784 32.9674 39.9901
137 2 15.631 24.6231 48.5929
138 2 42.0093 48.7256 54.3024
139 2 52.673 46.8073 8.92398
140 2 11.0037 15.9041 48.7779
141 2 40.496 12.5653 50.5847
142 2 23.0543 36.3073 19.6704
143 2 44.0286 49.8277 20.5609
144 2 13.0796 43.7361 7.27347
145 2 36.1172 49.6982 45.4466
146 2 21.1549 39.1163 20.3226
147 2 29.94 23.4485 54.1746
148 2 18.5869 53.5647 24.0782
149 2 27.292 47.1324 27.5583
150 2 16.8448 18.0642 12.3897
151 2 10.9848 21.9087 34.4175
152 2 14.8108 39.145 51.0247
153 2 15.6428 25.5005 30.9081
154 2 34.3665 52.0642 12.325
155 2 32.0292 39.4226 41.5495
156 2 29.4693 26.5254 33.5848
157 2 27.8266 34.9478 48.7118
158 2 43.8639 19.0548 47.1617
159 2 17.8847 38.6094 7.4751
160 2 24.3671 47.66 31.9119
161 2 25.604 16.6862 27.1266
162 2 38.2393 47.2626 41.6609
163 2 40.1655 47.8511 10.1757
164 2 29.6804 33.9899 12.7618
165 2 27.1093 8.85523 7.87884
166 2 22.8515 14.0888 25.1855
167 2 20.6539 27.03 27.0519
168 2 54.2849 39.1086 21.2538
169 2 32.3469 16.9394 43.589
170 2 10.385 15.2978 44.2467
171 2 17.3414 36.4359 24.6775
172 2 13.5177 8.63565 21.9111
173 2 7.96991 54.9153 9.54505
174 2 12.6498 46.5885 23.7351
175 2 13.864 15.9884 40.8353
176 2 42.4102 51.8386 16.3065
177 2 45.2627 30.4932 25.3109
178 2 29.5793 22.7233 9.77234
179 2 16.0004 26.5118 13.5609
180 2 54.2509 29.9928 50.2426
181 2 54.892 55.0763 11.5867
182 2 36.2498 15.4476 44.991
183 2 44.0389 23.6349 46.2024
184 2 53.6509 11.9912 42.2448
185 2 32.2557 55.2691 18.9131
186 2 48.885 47.5288 26.8528
187 2 29.4283 24.482 7.16131
188 2 45.859 22.3994 13.9034
189 2 50.6493 27.1006 50.6801
190 2 29.1126 12.5263 24.3718
191 2 20.2347 33.2187 38.8937
192 2 33.3875 41.496 32.745
193 2 50.7156 16.6144 11.0802
194 2 36.91 39.6911 47.4304
195 2 49.9 6.83464 51.8881
196 2 27.1415 43.0939 44.5391
197 2 14.0626 42.4149 28.3
198 2 36.9409 54.2093 40.5583
199 2 37.0352 14.514 35.7956
200 2 52.7559 25.8131 52.9132
201 2 6.2012 20.2494 33.5337
202 2 23.3437 7.60798 7.68758
203 2 20.5051 17.8983 43.196
204 2 33.8314 35.6925 44.1551
205 2 19.9904 44.078 16.9785
206 2 40.9017 51.3244 34.6207
207 2 54.612 33.4804 13.9427
208 2 14.6612 32.7193 43.149
209 2 51.6875 26.9658 22.4103
210 2 12.1105 50.4031 36.166
211 2 43.0248 11.6292 22.4417
212 2 38.3666 29.3483 49.8606
213 2 8.61143 36.3247 15.3767
214 2 8.62134 51.5688 28.2558
215 2 6.91528 19.9914 36.7231
216 2 45.2929 16.2797 34.6026
217 2 50.5216 48.5218 55.2275
218 2 21.6016 14.1542 33.0801
219 2 50.9389 11.4906 40.102
220 2 18.8799 11.2154 42.5384
221 2 17.8284 18.4447 43.0247
222 2 42.542 44.7734 32.7759
223 2 27.8092 44.2331 29.6136
224 2 11.5157 21.1203 19.1971
225 2 18.2863 27.335 11.2875
226 2 40.7598 37.8676 32.372
227 2 46.6581 40.455 38.4415
228 2 26.5717 34.2573 10.389
229 2 27.3257 50.6528 51.4331
230 2 25.9696 9.43226 43.7917
231 2 43.5145 14.8626 30.1963
232 2 29.1995 23.4292 29.8093
233 2 43.4294 31.455 31.7698
234 2 12.6524 35.6453 53.0774
235 2 48.0374 34.1202 8.22888
236 2 30.7426 34.7248 33.0744
237 2 19.1631 24.0097 50.6052
238 2 37.8725 32.198 23.4172
239 2 17.4688 16.6012 15.1703
240 2 54.3706 43.1951 55.1872
241 2 25.6412 30.0192 6.93197
242 2 26.4495 39.5715 30.39
243 2 19.6728 47.4977 16.5484
244 2 21.2291 22.4551 25.6842
245 2 41.5522 16.6404 43.6269
246 2 14.603 12.0984 50.3039
247 2 49.93 55.6537 35.2639
248 2 51.7102 19.9104 7.43649
249 2 44.426 25.7134 38.8066
250 2 51.3453 49.1469 16.1825
251 2 21.9282 8.80813 28.8041
252 2 54.0225 52.0805 52.4585
253 2 12.5166 29.0048 22.1936
254 2 11.4191 8.745 52.2023
255 2 28.4626 27.5028 31.0166
256 2 11.6307 14.4771 19.4177
257 2 15.7498 49.6678 53.317
258 2 17.43 21.454 50.9332
259 2 52.5332 18.97 30.882
260 2 33.4682 31.5986 15.0013
261 2 6.18798 26.6254 37.2182
262 2 46.4126 46.8217 17.1849
263 2 19.0926 27.7251 18.9155
264 2 53.7551 52.516 27.3494
265 2 29.3642 23.7396 21.9921
266 2 6.99055 49.4492 6.48491
267 2 53.4177 37.4807 14.5378
268 2 6.70129 25.049 17.7387
269 2 23.0089 50.1042 31.4749
270 2 34.3547 42.5565 10.2494
271 2 12.9222 43.5133 10.5887
272 2 6.59623 9.36606 44.5385
273 2 22.7856 29.6853 10.5618
274 2 34.8493 29.6901 39.167
275 2 49.3726 45.8648 9.84902
276 2 11.7872 17.5206 46.4355
277 2 45.2372 25.0204 41.9659
278 2 13.0438 16.7112 29.941
279 2 49.734 34.4166 14.7188
280 2 32.2527 9.18674 37.8507
281 2 29.8105 8.70031 35.7253
282 2 29.5741 10.4442 46.1091
283 2 32.0069 15.7831 24.4167
284 2 14.1991 42.8832 52.9026
285 2 45.9704 37.2966 47.8098
286 2 22.4257 6.58576 36.9891
287 2 54.592 13.1832 22.323
288 2 53.4669 16.0176 26.2553
289 2 23.8336 51.3949 11.8945
290 2 54.5721 13.6569 19.134
291 2 17.3824 43.6621 42.6239
292 2 7.27857 41.3373 26.8913
293 2 24.0585 51.5097 36.8737
294 2 11.2523 18.2312 37.4543
295 2 33.6516 11.1587 14.7838
296 2 19.6133 42.7439 34.0731
297 2 32.3819 38.9562 34.5042
298 2 54.3889 55.0818 36.6165
299 2 34.2358 34.645 47.0985
300 2 41.1053 45.6756 12.2101
301 2 37.8317 35.6925 19.4373
302 2 47.9863 41.958 8.26408
303 2 25.2166 53.6394 8.00696
304 2 33.0423 54.9984 50.5282
305 2 30.1817 42.5032 41.0501
306 2 47.8302 23.3446 10.193
307 2 27.3842 55.4542 51.4806
308 2 20.8414 36.5006 51.5099
309 2 39.7035 41.0248 48.8934
310 2 9.88725 50.8893 21.1511
311 2 14.872 12.87 38.3747
312 2 44.6424 51.0191 43.3782
313 2 27.1699 32.3016 35.9991
314 2 44.9462 43.5882 21.5719
315 2 54.3222 27.4339 40.241
316 2 51.5558 39.8137 37.7161
317 2 45.1827 51.0383 36.7887
318 2 18.1476 44.12 47.2262
319 2 9.1539 29.6701 52.0983
320 2 54.2467 13.9292 50.4108
321 2 48.3767 49.6346 24.8721
322 2 14.4616 16.0036 16.0942
323 2 48.9719 10.0376 25.1183
324 2 46.4438 39.3759 42.0659
325 2 27.711 31.769 51.7551
326 2 21.9504 35.3543 44.5698
327 2 36.9352 40.7551 6.68001
328 2 21.2784 30.8779 40.2191
329 2 44.3895 46.947 47.0881
330 2 37.5546 33.3391 38.978
331 2 52.5939 53.3023 40.3497
332 2 47.2167 50.0074 32.27
333 2 19.4096 23.3349 54.9088
334 2 18.6559 6.87638 6.84491
335 2 47.9224 45.7897 52.9615
336 2 30.4531 40.1767 50.8052
337 2 24.8823 16.6383 15.6816
338 2 9.11917 9.03718 22.7703
339 2 37.402 8.20625 39.6218
340 2 9.93208 23.8048 51.0503
341 2 14.7913 48.2948 16.9405
342 2 45.9221 39.5178 54.355
343 2 46.6172 11.9217 33.0224
344 2 9.85944 42.016 54.4128
345 2 17.1282 48.5603 28.4819
346 2 7.73845 45.6177 18.0837
347 2 10.7981 17.7104 15.7278
348 2 45.6644 27.0418 16.4878
349 2 27.5203 35.1613 21.3861
350 2 38.0978 50.3067 15.6163
351 2 52.7557 35.3822 21.8855
352 2 29.934 40.823 6.23022
353 2 30.1372 20.8339 27.9065
354 2 47.0429 53.0254 20.6938
355 2 22.5486 24.4812 44.6711
356 2 43.9432 21.0814 18.189
357 2 28.9035 30.3594 14.2389
358 2 52.7288 13.5278 16.4975
359 2 16.0879 12.5566 9.34028
360 2 17.7656 24.103 28.5063
361 2 45.0437 43.7855 11.7875
362 2 23.0649 40.1449 25.1777
363 2 43.6882 50.7973 39.1555
364 2 22.1532 24.1553 39.8703
365 2 23.0391 49.936 52.1655
366 2 17.0066 33.3385 8.64817
367 2 50.2297 22.7992 26.7347
368 2 21.4156 19.8608 53.315
369 2 25.3048 22.6463 54.9678
370 2 9.67637 53.7119 33.5255
371 2 12.6365 19.3212 30.447
372 2 11.768 38.3387 39.9965
373 2 23.0615 26.8193 49.5338
374 2 40.0763 22.5108 8.66493
375 2 31.1473 8.41966 26.0022
376 2 31.6055 46.2055 42.8552
377 2 14.6628 37.0582 27.9373
378 2 24.344 27.0653 10.2773
379 2 21.1841 12.1342 54.3043
380 2 7.01992 27.5544 47.5056
381 2 14.4015 35.5702 36.233
382 2 18.6277 13.2872 21.0709
383 2 10.4659 46.3181 38.2593
384 2 18.3954 20.9127 7.49847
385 2 11.4736 13.2147 27.8671
386 2 44.0059 22.9877 11.7792
387 2 47.8034 19.8702 12.7799
388 2 12.9124 50.9267 38.8195
389 2 18.6157 15.486 33.0954
390 2 15.8237 24.2421 18.1131
391 2 15.9425 19.874 38.072
392 2 54.7111 17.3737 12.8902
393 2 39.6619 35.5408 39.8386
394 2 23.4921 20.8018 28.3679
395 2 32.7535 41.9874 39.9073
396 2 40.3769 46.8724 31.3822
397 2 13.224 45.1377 38.9054
398 2 31.0976 20.2925 12.2467
399 2 36.2304 14.8485 7.79076
400 2 18.5152 29.4212 39.1978
401 2 13.5217 53.5792 21.3206
402 2 49.4637 43.754 12.3174
403 2 11.1743 17.2773 41.8719
404 2 25.9505 39.6332 36.0478
405 2 21.7232 35.8102 27.5811
406 2 29.2547 16.0785 29.6824
407 2 34.3591 26.5086 46.9461
408 2 38.4607 40.3129 37.5237
409 2 50.2104 23.0324 36.8983
410 2 54.7761 50.2624 11.804
411 2 21.5019 33.0816 52.1266
412 2 29.2723 9.05237 40.6918
413 2 9.06243 23.3393 46.566
414 2 48.0684 13.4697 9.30091
415 2 6.59219 52.2452 10.508
416 2 47.96 52.4153 26.8076
417 2 16.1315 47.4192 19.3084
418 2 17.5065 32.2173 30.526
419 2 38.8435 54.7855 54.726
420 2 19.5388 40.5285 22.6776
421 2 26.4731 24.0122 13.6438
422 2 38.8477 22.922 49.1947
423 2 44.4597 46.2743 44.1149
424 2 48.0029 25.4053 46.4791
425 2 12.5075 11.3851 35.0341
426 2 24.1024 43.5532 24.851
427 2 30.6325 40.0884 15.9683
428 2 14.0158 41.3168 14.9407
429 2 24.008 39.6506 42.1811
430 2 47.1486 14.6095 13.7365
431 2 25.4025 30.0239 37.3865
432 2 23.6605 8.2424 16.0475
433 2 22.7516 35.4402 24.897
434 2 11.4388 6.44122 29.6215
435 2 29.0043 53.0999 51.6706
436 2 8.62801 28.9866 20.3191
437 2 22.6561 30.6228 51.4033
438 2 41.0786 18.4092 11.721
439 2 19.9773 8.5664 25.882
440 2 8.06099 49.1267 25.6497
441 2 35.3916 52.8067 38.4653
442 2 42.4461 39.0862 40.2134
443 2 53.1355 48.0787 53.5337
444 2 31.7122 11.2322 22.3896
445 2 48.8641 27.6821 13.1077
446 2 7.00832 29.1657 30.6415
447 2 27.4652 46.2634 45.9832
448 2 17.4023 34.2905 42.311
449 2 29.9947 50.32 14.8623
450 2 23.8912 21.3406 52.1159
451 2 55.7273 17.3872 15.5711
452 2 44.6969 6.232 7.08049
453 2 20.9189 48.3152 50.9579
454 2 39.9127 35.9617 23.421
455 2 47.5512 28.7499 24.8866
456 2 25.4141 52.5223 30.8446
457 2 22.713 28.3663 38.8889
458 2 42.579 50.2546 23.2627
459 2 51.5653 36.2229 30.2578
460 2 7.08498 48.0003 12.7089
461 2 30.8232 51.3917 35.5491
462 2 22.2091 15.9004 44.7407
463 2 51.2547 47.8027 21.6783
464 2 30.6642 51.352 26.9062
465 2 53.6122 28.164 12.0699
466 2 33.1514 20.8997 35.2613
467 2 18.6361 46.1439 43.2579
468 2 40.2532 32.7793 21.996
469 2 51.5985 32.6374 21.3759
470 2 44.008 29.1388 34.1056
471 2 39.1535 32.8265 31.5228
472 2 37.3664 52.1088 36.1811
473 2 49.1129 43.7198 55.6587
474 2 17.3066 53.0603 44.5761
475 2 38.4576 8.33035 21.2823
476 2 14.7183 53.6395 42.6616
477 2 34.2254 14.6923 41.9787
478 2 23.2755 13.2598 45.0001
479 2 37.1133 34.808 48.3483
480 2 21.4176 43.3125 55.7465
481 2 19.9922 9.89759 6.50009
482 2 30.3034 48.9609 42.5615
483 2 7.06929 53.0522 41.016
484 2 46.0689 44.7003 29.0222
485 2 17.7235 39.7267 30.877
486 2 45.2148 16.9499 23.4133
487 2 30.2702 32.8524 18.6561
488 2 8.41571 40.2456 47.3429
489 2 54.3572 11.7332 26.9156
490 2 35.8623 19.3331 36.3083
491 2 35.38 10.4753 29.0505
492 2 35.5362 49.1855 11.5684
493 2 42.0128 54.8302 15.9603
494 2 51.0143 36.8205 26.5872
495 2 12.9141 34.6372 13.7165
496 2 46.3111 37.5304 44.752
497 2 54.0936 51.8987 24.0882
498 2 18.3638 29.2018 33.521
499 2 52.9047 26.1405 14.8931
500 2 7.69451 44.3019 6.72678
501 2 16.0146 6.2342 43.9484
502 2 32.7101 19.3614 52.5804
503 2 22.6345 31.6703 19.1686
504 2 26.2938 50.7738 35.1289
505 2 22.5582 53.3649 29.7637
506 2 16.4207 41.2564 10.2864
507 2 21.3113 41.5763 41.85
508 2 51.1512 16.9375 20.2991
509 2 14.2282 22.2046 19.1954
510 2 42.6587 44.9724 16.0893
511 2 28.061 20.7064 50.4064
512 2 48.0731 37.2982 36.6415
513 2 32.9126 39.6976 19.5316
514 2 50.1184 50.4932 27.8508
515 2 35.7566 13.041 48.9369
516 2 42.2134 53.1752 46.2563
517 2 30.9711 6.17295 41.1534
518 2 29.6917 14.3976 41.4853
519 2 34.8302 32.0103 51.2963
520 2 44.479 51.2336 7.47861
521 2 11.7049 20.7 16.323
522 2 29.777 29.1243 8.3073
523 2 25.7824 30.8549 33.4534
524 2 40.775 35.4283 29.8117
525 2 46.4584 32.1272 36.6182
526 2 31.1187 47.478 16.4759
527 2 48.2756 9.61334 28.9307
528 2 14.9315 8.90676 40.739
529 2 39.1223 17.2012 48.8734
530 2 45.5806 21.3404 49.0639
531 2 16.5296 51.9187 28.956
532 2 34.437 44.8769 14.2034
533 2 25.193 29.5941 22.3423
534 2 23.1205 18.5896 26.1083
535 2 8.38024 22.8808 33.3887
536 2 51.5266 54.9958 6.24092
537 2 11.9032 36.9133 55.6355
538 2 22.8174 29.2035 55.6852
539 2 8.68606 33.3516 6.18873
540 2 41.6691 13.7501 12.051
541 2 54.3968 36.7276 48.217
542 2 26.7193 16.9278 45.5049
543 2 36.2792 17.189 29.4744
544 2 29.904 36.1691 18.3429
545 2 20.4905 26.9249 52.8722
546 2 27.803 7.81082 37.9949
547 2 16.4707 12.0278 40.7455
548 2 53.7597 6.82022 32.4989
549 2 52.1974 45.7203 30.0909
550 2 45.646 34.48 35.0598
551 2 10.5914 36.1281 22.4716
552 2 41.9418 35.1684 6.86512
553 2 18.7914 19.432 34.0156
554 2 12.964 16.9807 13.8139
555 2 35.9981 15.7308 26.2982
556 2 26.6518 9.71674 27.0092
557 2 13.4502 26.9939 28.6619
558 2 8.58193 32.4222 23.9684
559 2 39.2255 15.478 9.26338
560 2 25.7948 44.4385 14.3808
561 2 9.17233 23.5774 36.3846
562 2 13.7014 23.0838 27.7155
563 2 28.9571 53.2982 54.9004
564 2 30.8022 29.8511 18.2212
565 2 51.3569 7.68564 23.0579
566 2 47.0953 45.1949 13.9032
567 2 18.8703 54.1236 33.3657
568 2 37.814 10.5826 33.6745
569 2 49.231 35.3743 10.3355
570 2 42.4927 31.5834 28.7546
571 2 6.71883 22.3687 21.3597
572 2 52.582 9.27617 16.6091
573 2 36.9369 22.6812 9.63525
574 2 33.5726 10.5189 7.99587
575 2 29.0456 27.0173 15.5192
576 2 28.7461 11.5593 29.3024
577 2 30.4553 22.4843 44.0708
578 2 18.2597 17.6534 51.0872
579 2 23.0619 40.5021 9.12802
580 2 18.4418 14.5287 29.7021
581 2 19.3122 26.4512 22.2484
582 2 42.007 9.05982 15.1221
583 2 13.7473 22.0965 54.0103
584 2 48.8063 38.0198 33.6088
585 2 43.708 22.1091 21.2462
586 2 14.9659 47.2023 54.3122
587 2 50.4525 55.3692 13.3495
588 2 31.9063 8.48972 23.1306
589 2 36.5466 49.7972 18.5111
590 2 39.9369 41.765 29.5499
591 2 44.5431 13.9803 36.8907
592 2 54.4531 36.4231 37.547
593 2 21.6673 55.6277 9.9076
594 2 33.0849 27.6832 13.3371
595 2 46.4778 27.381 33.2372
596 2 40.714 41.1475 45.358
597 2 37.5651 12.987 9.58544
598 2 34.5574 35.3303 28.8513
599 2 38.4137 29.1896 10.2829
600 2 15.1064 15.9233 22.2123
601 2 40.6062 55.2476 48.47
602 2 44.0195 31.1918 18.35
603 2 30.0483 19.8705 46.3153
604 2 46.1975 26.2226 19.4173
605 2 8.40073 50.4573 42.2828
606 2 22.4312 50.3734 40.7961
607 2 37.2043 54.9858 51.2344
608 2 6.30922 40.2892 11.886
609 2 44.3866 30.6507 47.7911
610 2 27.8708 24.8788 45.4417
611 2 49.6643 45.6473 31.5779
612 2 20.1764 21.2182 10.3546
613 2 17.0478 8.67797 53.6813
614 2 49.3407 32.3942 22.8094
615 2 18.1938 47.1025 50.7684
616 2 9.92556 33.9603 13.516
617 2 16.8108 39.5428 20.6082
618 2 12.3703 34.1758 18.9037
619 2 28.7271 38.1503 44.628
620 2 34.3287 16.8737 9.43653
621 2 27.5719 27.1325 49.093
622 2 44.5562 47.7859 52.3733
623 2 26.7465 45.7399 9.76124
624 2 31.4888 26.9736 46.6672
625 2 52.6993 6.60503 44.8258
626 2 24.1469 10.2015 46.4443
627 2 54.4881 28.4656 33.0194
628 2 7.64154 32.4302 12.2516
629 2 17.8268 28.9065 23.2856
630 2 20.2158 9.60731 40.3396
631 2 51.7961 43.2 48.8627
632 2 28.6966 48.9695 38.6147
633 2 9.30652 29.5477 43.9637
634 2 49.8854 12.7787 31.8636
635 2 28.1767 28.5006 19.4661
636 2 49.3606 9.95172 16.0081
637 2 34.4435 26.1799 28.2582
638 2 37.7116 10.5955 37.9694
639 2 16.2377 10.516 36.1472
640 2 33.7129 37.4571 26.9499
641 2 25.2652 51.1694 21.8135
642 2 35.3792 9.79237 12.4437
643 2 42.9123 37.6189 37.2228
644 2 33.2411 34.6291 31.2339
645 2 37.0445 19.968 27.9953
646 2 24.0489 44.9065 6.94209
647 2 20.3911 50.8614 24.0912
648 2 24.6034 20.7206 19.7515
649 2 11.0677 40.086 6.921
650 2 46.3303 20.477 37.4037
651 2 10.8508 29.5677 54.2109
652 2 12.5328 28.8188 17.088
653 2 44.898 12.9024 24.2341
654 2 50.9016 33.1527 51.0541
655 2 8.18489 24.1977 22.505
656 2 44.7852 21.9522 41.4007
657 2 43.4771 24.0459 49.5221
658 2 49.8439 10.0515 46.9981
659 2 31.8225 21.2271 22.5471
660 2 10.7697 14.0365 38.4807
661 2 39.8398 54.0545 39.6356
662 2 19.6378 23.7776 32.5129
663 2 6.9098 16.496 39.4826
664 2 31.5494 31.9515 37.34
665 2 13.0231 47.502 42.8043
666 2 17.715 36.4921 14.7457
667 2 36.2877 29.6788 36.3349
668 2 54.4285 20.0124 24.6355
669 2 45.4776 6.77074 51.5433
670 2 41.9944 31.2463 49.4618
671 2 19.3046 24.7964 24.9772
672 2 13.6336 47.8371 34.9861
673 2 24.7184 6.61792 35.4923
674 2 6.24957 34.0841 25.5824
675 2 38.0287 46.1929 8.73619
676 2 35.5939 53.7934 8.04897
677 2 40.3722 33.6563 42.5898
678 2 48.5163 55.3437 48.3243
679 2 10.2012 55.6917 43.4243
680 2 24.1787 12.1698 10.894
681 2 8.09878 54.4646 27.0572
682 2 44.256 30.9642 55.2329
683 2 23.3713 27.6718 25.4879
684 2 17.8009 51.8979 9.13278
685 2 28.7108 14.8109 22.123
686 2 51.5423 25.7206 40.063
687 2 40.3752 20.8691 44.9079
688 2 14.4467 8.21302 17.8771
689 2 46.5982 32.4187 12.0232
690 2 39.8933 47.1172 52.7505
691 2 24.4628 36.2714 6.70047
692 2 25.0128 27.8863 32.8699
693 2 48.6645 9.87507 42.3731
694 2 54.66 55.09 27.0431
695 2 22.2083 15.8418 11.2674
696 2 35.3018 34.1346 35.1046
697 2 49.9136 14.4297 43.9822
698 2 45.4296 38.4999 21.4618
699 2 46.1659 42.0444 19.0081
700 2 49.0978 25.875 53.4941
701 2 6.33996 34.7976 22.6943
702 2 16.6589 6.75601 9.3128
703 2 48.3055 40.2263 35.797
704 2 26.3147 10.3381 20.3392
705 2 52.9276 28.6038 16.8834
706 2 23.0342 32.8243 23.7269
707 2 11.9048 9.91845 39.6166
708 2 15.0725 23.8508 39.9912
709 2 25.1765 47.2787 13.5152
710 2 50.9718 20.2406 20.7181
711 2 17.7529 29.4277 43.3798
712 2 25.7339 11.4484 13.8849
713 2 32.3317 28.7393 25.9274
714 2 12.9381 11.0894 31.9949
715 2 6.59841 12.5053 38.2751
716 2 32.3787 34.3387 14.4733
717 2 21.7499 55.0349 47.0684
718 2 10.512 22.7298 8.57185
719 2 19.5867 38.2813 11.1066
720 2 37.1594 20.6821 49.7585
721 2 53.0293 39.7001 44.6471
722 2 10.4464 39.6496 29.0259
723 2 12.9688 26.0896 22.0645
724 2 32.4363 51.1262 42.5682
725 2 9.28876 28.5137 34.9144
726 2 48.3051 33.6944 54.592
727 2 17.7939 36.6309 44.9385
728 2 44.6756 49.4818 17.3282
729 2 40.7203 27.7772 37.617
730 2 49.6908 13.1145 14.9733
731 2 28.3758 18.6224 43.7334
732 2 37.3522 31.4712 18.7408
733 2 32.1046 36.3616 41.9238
734 2 33.9741 19.0358 43.2843
735 2 11.0228 54.2125 15.7106
736 2 7.8069 48.0281 9.28713
737 2 22.2201 23.9642 6.54372
738 2 7.48673 37.526 27.7492
739 2 37.6406 26.5407 11.7175
740 2 25.0993 33.7796 25.8882
741 2 21.951 49.8864 15.5753
742 2 7.45916 14.2353 49.7868
743 2 26.7366 47.5819 51.8511
744 2 25.7966 26.5524 46.4206
745 2 50.518 41.1721 31.1451
746 2 14.272 6.37288 33.7386
747 2 46.5575 49.8156 53.12
748 2 9.78233 14.5841 54.6728
749 2 7.23101 10.9106 52.0471
750 2 30.5179 24.3303 48.1487
751 2 12.2388 35.3028 49.9245
752 2 11.6389 36.5648 36.0301
753 2 47.2594 39.6873 17.5682
754 2 36.6775 36.0075 39.5271
755 2 13.263 47.9581 38.2425
756 2 49.8908 33.0898 29.0726
757 2 9.96765 35.4539 47.0678
758 2 25.5232 10.8253 51.4576
759 2 53.5888 24.5023 18.7879
760 2 35.2224 55.3495 47.9213
761 2 30.2689 25.5463 10.0056
762 2 20.3304 29.6418 35.4675
763 2 15.5381 49.2092 39.6122
764 2 7.62449 52.192 15.5615
765 2 53.9332 21.0461 20.5558
766 2 15.5232 15.2342 29.8663
767 2 41.9468 27.5377 22.1736
768 2 24.45 23.3346 38.0232
769 2 43.6573 34.944 26.1152
770 2 12.1717 9.15778 11.5966
771 2 10.4826 14.1333 35.3127
772 2 39.611 36.1182 34.6269
773 2 18.4898 49.165 54.58
774 2 14.4222 12.3005 53.5219
775 2 52.7652 9.49337 53.5879
776 2 19.3918 41.2918 45.868
777 2 24.681 52.104 18.3897
778 2 8.8328 11.6446 11.1306
779 2 53.206 53.356 44.1323
780 2 47.4472 30.3655 48.4619
781 2 52.6871 23.56 38.4541
782 2 26.5797 27.3879 35.3157
783 2 49.1098 20.9605 55.5969
784 2 7.24695 28.3825 27.2586
785 2 55.5217 46.0018 15.0982
786 2 25.6174 32.8789 45.1514
787 2 8.30331 51.233 18.7945
788 2 15.5567 9.82534 25.4231
789 2 30.8502 11.0734 55.3184
790 2 46.5388 39.8447 46.7372
791 2 49.1565 52.8938 35.6754
792 2 50.6377 48.2216 46.5912
793 2 51.7659 52.1735 6.85197
794 2 42.5178 47.0927 20.8237
795 2 6.93606 50.8381 51.7843
796 2 52.0212 34.7333 33.3693
797 2 48.6072 29.9473 36.1841
798 2 17.4011 49.1647 14.9531
799 2 42.7772 44.3474 47.3974
800 2 33.8898 40.0933 37.278
801 2 7.13759 38.2606 44.6372
802 2 44.8832 38.3287 39.7768
803 2 38.3132 25.0529 27.6732
804 2 12.7258 11.0682 14.9159
805 2 18.2655 36.3274 34.4208
806 2 30.2113 45.8138 38.1429
807 2 52.726 43.2303 35.0617
808 2 7.07314 34.1613 37.8328
809 2 35.0071 8.87878 47.1753
810 2 34.0623 22.0275 46.7237
811 2 36.8153 13.9106 15.936
812 2 10.493 9.23172 34.7269
813 2 32.1703 28.0315 33.6999
814 2 32.5062 18.5132 26.6797
815 2 32.5202 55.5005 24.6737
816 2 45.7259 46.3662 9.35068
817 2 27.4195 27.7916 55.6105
818 2 15.5875 20.6822 21.6119
819 2 10.8966 23.1873 29.2963
820 2 29.6035 46.8701 26.1376
821 2 46.2227 18.0935 19.1747
822 2 19.2125 33.3154 6.44183
823 2 35.4112 53.3291 31.2675
824 2 48.5629 16.2736 29.6495
825 2 9.42213 18.9658 52.5348
826 2 8.41733 41.7567 30.9353
827 2 28.0594 52.9279 36.3178
828 2 43.3002 23.5527 8.6545
829 2 16.608 16.961 26.2726
830 2 20.9649 46.2272 18.6897
831 2 14.0443 23.5963 36.9423
832 2 44.4794 8.92184 53.9578
833 2 34.1105 43.5509 42.9773
834 2 10.4295 45.8452 6.7958
835 2 16.5499 52.1777 20.5923
836 2 42.7391 25.1271 43.7443
837 2 7.78532 17.066 48.2953
838 2 22.8887 23.0047 21.3158
839 2 25.7616 55.4616 49.1784
840 2 54.6807 55.5479 41.9665
841 2 40.1659 40.0016 6.22255
842 2 17.684 40.9882 54.7522
843 2 16.0843 31.9649 13.1421
844 2 13.4561 20.0171 34.627
845 2 29.5715 49.0309 52.7778
846 2 36.2525 16.8129 16.2506
847 2 11.0091 7.04499 32.4891
848 2 35.8046 8.16117 7.47961
849 2 29.7491 42.7162 17.2835
850 2 23.5677 41.3934 36.5858
851 2 53.695 36.6595 34.5059
852 2 27.8095 20.3196 16.4508
853 2 55.5348 7.14336 53.2893
854 2 24.6488 51.5377 44.076
855 2 46.19 53.4076 38.6297
856 2 24.0114 39.5386 50.2424
857 2 25.1151 32.4166 17.1996
858 2 38.2763 51.1089 7.66343
859 2 25.2339 47.4222 49.1311
860 2 43.103 48.8778 49.611
861 2 7.9967 11.7357 24.6941
862 2 27.198 22.9836 33.5379
863 2 28.6152 25.0982 40.2866
864 2 40.8518 49.2578 13.9829
865 2 29.0386 42.5426 20.3375
866 2 25.7057 17.2291 52.6078
867 2 24.1662 42.926 28.0586
868 2 48.663 48.3516 30.0198
869 2 46.9664 41.6557 33.2709
870 2 30.5509 28.6658 11.6461
871 2 20.7881 18.7519 49.5687
872 2 8.54179 45.1265 41.3192
873 2 33.9025 32.7706 53.915
874 2 14.932 36.3612 48.8282
875 2 46.6711 48.692 21.0593
876 2 8.4235 39.0688 53.7936
877 2 41.8275 7.84111 32.7573
878 2 41.7186 21.4904 10.7595
879 2 33.8335 13.1585 46.4294
880 2 32.5384 39.5021 44.5359
881 2 23.7657 46.3624 9.74738
882 2 39.2917 45.5909 14.6999
883 2 21.734 10.9425 15.5484
884 2 43.8261 8.4209 8.87266
885 2 35.4656 9.73703 49.994
886 2 31.2902 25.6417 50.5897
887 2 10.8798 10.7713 24.6911
888 2 55.561 36.9744 18.8619
889 2 54.2521 43.3135 26.9141
890 2 9.33271 16.1294 37.3399
891 2 11.8427 19.4407 44.3206
892 2 10.7163 54.4147 51.0389
893 2 8.6051 47.1425 54.8729
894 2 12.859 39.4549 32.3531
895 2 51.803 50.5691 44.5374
896 2 49.1453 44.8346 38.8221
897 2 39.6716 42.5807 23.3441
898 2 27.7355 52.3146 14.647
899 2 17.7127 51.822 51.6306
900 2 11.1359 11.7982 50.8011
901 2 18.1348 8.22687 44.7638
902 2 21.6818 21.16 47.9675
903 2 8.69682 9.35922 15.8173
904 2 40.5238 41.5526 35.7585
905 2 16.6192 39.3019 35.8877
906 2 32.0071 21.2337 9.52992
907 2 37.2548 6.49621 43.5642
908 2 55.2942 30.1043 16.6493
909 2 18.2396 28.7906 26.3628
910 2 46.4873 23.4976 53.7354
911 2 44.605 37.9548 16.8883
912 2 19.391 18.6495 38.2641
913 2 40.7765 40.4208 42.6982
914 2 47.1394 43.665 25.3724
915 2 28.3208 8.21506 16.0686
916 2 29.9717 34.391 52.5938
917 2 50.3632 25.8842 26.4305
918 2 24.2345 23.1016 10.4473
919 2 33.2217 43.3452 54.2124
920 2 11.6591 20.7962 47.5298
921 2 40.4986 52.3972 41.9166
922 2 22.8441 16.0051 52.2262
923 2 8.1144 16.6412 30.4296
924 2 7.21304 25.3678 11.7816
925 2 19.1046 35.4182 10.1055
926 2 6.27132 8.84496 24.3277
927 2 42.1255 12.3605 42.8931
928 2 43.8897 53.961 39.8496
929 2 40.0783 24.9479 31.7333
930 2 41.197 13.3044 26.3642
931 2 38.7802 54.7297 36.6202
932 2 31.4656 16.3531 15.8732
933 2 51.649 45.4124 55.3316
934 2 37.4752 22.9605 52.4385
935 2 40.6896 33.3065 47.0228
936 2 25.2028 48.1942 44.807
937 2 40.0414 20.045 15.2249
938 2 27.0692 22.7275 17.9834
939 2 19.8995 15.2234 35.714
940 2 35.3319 27.7087 52.6981
941 2 35.9855 16.5101 51.7708
942 2 17.6618 47.4589 21.766
943 2 38.9016 37.648 10.7027
944 2 14.6064 25.8101 51.1822
945 2 44.1084 34.3124 23.185
946 2 49.9701 29.6527 40.6797
947 2 46.3388 6.69484 41.8569
948 2 41.3931 50.2067 43.4554
949 2 34.4911 21.3087 41.6671
950 2 12.5714 40.232 44.6771
951 2 41.8819 50.033 28.1186
952 2 48.6641 34.8752 34.7813
953 2 23.8429 49.5936 24.2768
954 2 37.0085 44.4718 32.8527
955 2 21.5396 9.94562 48.3116
956 2 9.61147 20.456 37.0079
957 2 45.3615 51.3092 46.7875
958 2 48.0124 48.5051 43.8158
959 2 38.4027 46.6867 17.6003
960 2 47.3869 41.2006 52.0086
961 2 10.98 36.8949 42.8713
962 2 48.7536 37.3151 51.7138
963 2 37.6794 52.9441 9.73477
964 2 44.332 46.8588 41.3573
965 2 43.3748 33.2589 42.3055
966 2 24.4722 30.7958 43.5314
967 2 49.0187 27.5831 43.499
968 2 51.4517 37.0001 37.8182
969 2 33.4644 35.9335 21.2539
970 2 47.7302 23.4735 19.3462
971 2 16.7615 27.317 37.1599
972 2 52.7408 33.4317 11.7512
973 2 13.33 31.9024 10.4541
974 2 44.394 17.8621 26.4354
975 2 27.2504 42.6219 36.8747
976 2 34.2946 24.1801 43.2117
977 2 34.0174 25.0853 20.4834
978 2 40.0507 37.2361 8.35815
979 2 34.726 38.4156 29.4063
980 2 36.292 12.9327 28.123
981 2 7.94548 30.8693 7.44157
982 2 29.7631 28.7216 27.0126
983 2 15.0426 9.0991 32.1205
984 2 31.3294 18.6418 41.5438
985 2 40.0124 28.3105 54.5563
986 2 52.6859 19.4418 34.7634
987 2 26.5875 20.0395 46.2192
988 2 27.6482 12.8574 54.7889
989 2 47.3901 12.4335 37.9115
990 2 34.1398 33.8292 7.58236
991 2 6.40144 18.7465 26.743
992 2 49.0457 7.91643 54.5007
993 2 7.81725 25.8392 49.7608
994 2 55.0006 18.3475 49.255
995 2 22.5914 31.0182 34.5149
996 2 21.2153 25.2376 17.4876
997 2 43.1823 15.5567 24.9612
998 2 49.1147 26.0052 33.7651
999 2 47.3513 10.2527 55.6318
1000 2 10.925 13.033 30.862
1001 2 10.626 48.6873 42.144
1002 2 52.958 45.4011 20.4918
1003 2 42.8537 40.1891 54.4846
1004 2 24.6387 54.3653 33.3414
1005 2 14.3916 28.5724 36.5218