ITEM: TIMESTEP
0
ITEM: NUMBER OF ATOMS
9088
ITEM: BOX BOUNDS xy xz yz pp pp pp
6.0746456284580734e+00 5.5856292163727645e+01 -5.7115213463093181e-15
6.0746456284580788e+00 5.5856292163727645e+01 0.0000000000000000e+00
6.0746456284580788e+00 5.5856292163727645e+01 0.0000000000000000e+00
ITEM: ATOMS id type x y z
1 2 39.4973 49.6952 54.3441
2 2 10.758 39.8637 24.8031
3 2 48.343 10.5273 12.3154
4 2 22.4111 45.6907 17.2688
5 2 18.6621 34.6981 20.1755
6 2 40.1397 28.4544 43.5559
7 2 21.8982 39.1473 11.0493
8 2 32.3765 10.1907 7.0522
9 2 13.7092 22.6676 19.7342
10 2 7.67609 19.5214 21.4712
11 2 33.4397 10.9059 15.8469
12 2 10.9238 25.1118 37.2887
13 2 18.8861 48.4729 41.2683
14 2 54.1001 30.6587 21.7396
15 2 49.0002 9.8631 36.6436
16 2 43.0319 17.4094 43.7841
17 2 21.978 37.4429 47.7498
18 2 39.9047 24.8578 21.4774
19 2 22.8144 32.6576 15.8382
20 2 24.0616 33.5981 7.04189
21 2 28.7113 20.2006 34.6203
22 2 33.6558 23.5197 53.1226
23 2 30.3339 37.4636 46.8053
24 2 12.7616 41.5 9.96105
25 2 45.4074 45.5377 40.8793
26 2 48.1021 8.90621 45.6795
27 2 37.3141 51.9735 31.53
28 2 52.9102 45.2538 18.1895
29 2 25.3705 17.03 48.121
30 2 19.8912 11.4356 37.1395
31 2 44.7119 48.773 26.3583
32 2 14.8089 44.5591 13.5164
33 2 14.5719 11.5033 53.3993
34 2 42.8485 35.6823 49.4604
35 2 37.1383 37.5571 28.5794
36 2 45.2496 53.9603 20.619
37 2 42.9884 48.785 9.00285
38 2 28.6152 6.86492 36.8088
39 2 37.1365 10.5748 16.0205
40 2 31.6433 40.0358 35.2735
41 2 55.5793 50.5897 53.3043
42 2 26.0122 55.3198 6.35266
43 2 23.0062 46.2201 8.69908
44 2 33.9418 33.3661 36.9617
45 2 29.1126 25.1386 25.9728
46 2 49.8605 12.5888 20.2483
47 2 20.5404 52.8513 49.5617
48 2 35.0749 25.1145 39.9914
49 2 36.8199 41.6112 19.2084
50 2 55.2046 21.3595 34.9175
51 2 31.0151 31.2878 22.0861
52 2 30.2244 30.5427 29.4307
53 2 22.5461 37.2221 23.484
54 2 49.2056 54.8474 36.8958
55 2 20.4421 23.5823 17.3434
56 2 53.6315 44.1609 24.8832
57 2 55.8364 31.543 9.49348
58 2 7.41158 37.0844 17.5601
59 2 21.3361 49.2871 13.1003
60 2 6.55753 29.1566 29.7016
61 2 37.487 32.2023 43.8312
62 2 30.041 39.8056 54.6165
63 2 7.78322 40.7325 24.4631
64 2 23.9648 37.1549 14.7213
65 2 47.1807 29.1305 12.5257
66 2 46.9965 13.4413 39.8645
67 2 14.5882 49.1807 31.3946
68 2 55.7592 20.5955 15.8597
69 2 33.4705 43.2423 41.5482
70 2 12.0595 40.493 22.0335
71 2 23.4485 39.8895 45.2869
72 2 38.9817 39.4818 13.4506
73 2 7.8114 39.9163 31.0033
74 2 31.3436 48.4393 35.1265
75 2 8.0164 13.8545 42.9084
76 2 9.90844 42.2097 31.2769
77 2 34.3628 13.5519 40.3963
78 2 47.1971 24.5803 16.798
79 2 53.9508 10.4945 41.5729
80 2 42.9645 54.3012 22.3802
81 2 40.1277 42.5583 37.0645
82 2 25.4167 9.4345 12.1997
83 2 25.4337 37.3836 38.1253
84 2 47.6677 37.3116 24.2215
85 2 40.2926 42.7358 54.9693
86 2 38.1292 39.3331 42.793
87 2 30.3734 33.5092 17.9695
88 2 18.6902 20.8978 26.6859
89 2 10.7289 49.2885 52.2171
90 2 32.1253 22.8449 33.4561
91 2 40.3272 10.8543 54.0212
92 2 25.1529 15.1653 39.4396
93 2 10.7868 53.6787 43.839
94 2 49.8194 46.4633 17.5868
95 2 47.0513 11.971 9.94952
96 2 9.72816 48.3886 39.7592
97 2 45.5782 39.5388 21.6716
98 2 26.0405 25.1698 12.3205
99 2 29.4704 12.7052 40.9545
100 2 11.1082 21.9616 37.4055
101 2 34.9602 31.0845 21.0478
102 2 49.8257 54.203 28.7141
103 2 12.7231 27.9372 14.2637
104 2 25.8135 38.5243 54.9308
105 2 17.5154 28.7468 33.55
106 2 6.59284 46.3139 40.3769
107 2 46.0514 6.94869 29.863
108 2 37.403 51.0446 11.037
109 2 19.5287 15.4241 15.1961
110 2 26.8326 32.1529 21.2497
111 2 20.5393 21.2562 19.0331
112 2 37.0767 28.5488 21.1883
113 2 43.4607 48.4537 16.4967
114 2 37.4384 7.76256 40.2077
115 2 43.0875 55.5002 38.6505
116 2 41.7934 9.77495 12.0357
117 2 30.5789 26.6377 6.48643
118 2 32.2209 43.0331 27.6384
119 2 14.9423 13.2793 16.3929
120 2 23.0286 40.771 34.4754
121 2 14.5546 23.5948 7.76454
122 2 30.2342 7.60956 21.9307
123 2 44.0561 12.8795 36.8717
124 2 30.0869 42.2954 21.1914
125 2 13.3785 27.403 25.6793
126 2 39.8764 7.33621 12.8479
127 2 16.9573 22.6545 54.3574
128 2 52.6144 44.8379 47.5664
129 2 32.9995 35.686 27.7956
130 2 48.0834 31.2819 10.4652
131 2 8.96325 20.581 28.9746
132 2 31.7806 10.4353 20.8628
133 2 38.8904 42.5203 27.5854
134 2 26.798 42.5508 6.84433
135 2 34.2713 7.06553 10.089
136 2 10.0974 8.5383 31.5066
137 2 21.4315 50.3404 39.6433
138 2 47.8307 24.3668 45.6797
139 2 8.87924 22.1499 50.0132
140 2 16.6732 41.4138 40.1715
141 2 46.3537 38.3054 41.945
142 2 29.173 11.8498 10.9994
143 2 50.1704 25.4272 11.7589
144 2 18.864 19.6465 48.3454
145 2 42.0918 25.4196 36.6993
146 2 26.9064 14.5312 12.0334
147 2 35.938 48.6356 45.5567
148 2 24.6353 29.4552 15.0432
149 2 33.4013 23.1855 18.8629
150 2 22.801 43.5149 53.5404
151 2 16.7352 47.003 26.0502
152 2 20.692 15.0485 42.581
153 2 21.6824 50.9553 22.1309
154 2 40.4742 27.7073 53.5033
155 2 38.2775 15.0612 32.7935
156 2 35.3469 51.9817 24.9088
157 2 33.714 10.3724 40.2208
158 2 49.9961 45.0748 38.3557
159 2 24.1686 14.2142 48.2182
160 2 30.234 23.5144 23.1158
161 2 31.8522 42.307 18.0788
162 2 44.649 23.0408 33.1192
163 2 45.8645 23.4581 51.1997
164 2 35.3819 9.58565 53.9212
165 2 33.2824 34.0921 48.9303
166 2 29.2607 39.552 16.788
167 2 26.6568 52.5183 18.5031
168 2 10.635 14.6109 12.5038
169 2 37.9737 42.1901 35.1157
170 2 16.5407 40.2855 35.556
171 2 23.6876 12.7955 16.095
172 2 19.1412 33.776 12.9045
173 2 13.8719 30.5977 50.5571
174 2 18.6508 22.4745 15.2005
175 2 19.5697 41.6502 32.3067
176 2 48.7796 27.9682 7.53258
177 2 51.0389 55.4922 16.8157
178 2 35.6834 48.1471 50.9319
179 2 21.9569 51.6611 54.2989
180 2 10.4195 55.622 41.7057
181 2 11.139 30.4183 52.5436
182 2 42.4396 40.8958 36.8537
183 2 49.825 49.4292 37.6426
184 2 9.76006 37.2255 33.8291
185 2 38.1788 30.8227 10.1782
186 2 54.9268 23.2628 18.4451
187 2 35.3975 50.1967 48.0951
188 2 51.7806 47.9778 54.9694
189 2 6.97983 52.9121 41.7867
190 2 35.4005 37.6652 15.618
191 2 26.354 8.96032 30.1036
192 2 39.4775 17.5556 24.0348
193 2 7.12294 42.3914 51.9819
194 2 43.0722 15.4241 38.8812
195 2 6.37475 32.061 42.8294
196 2 33.2402 19.1307 35.696
197 2 21.754 19.2753 20.4441
198 2 42.9845 29.8498 32.0199
199 2 43.7616 40.2343 27.6649
200 2 9.19331 51.2455 44.2019
201 2 12.214 45.8652 25.0192
202 2 29.3463 33.2277 48.5146
203 2 26.5167 43.3569 34.7989
204 2 39.883 11.663 35.3108
205 2 25.8391 19.5932 8.34584
206 2 46.7937 27.1789 25.8166
207 2 10.924 9.04481 55.0279
208 2 20.6107 8.49882 34.3668
209 2 7.85897 52.6981 13.4433
210 2 17.667 25.9887 27.1957
211 2 49.0538 37.3002 13.5156
212 2 44.5087 54.7156 41.1117
213 2 14.7105 12.3591 6.30039
214 2 14.5325 27.5486 19.5709
215 2 12.5858 45.3118 28.3856
216 2 51.4693 41.9084 25.798
217 2 6.79675 24.2379 46.7559
218 2 27.386 39.6076 24.6277
219 2 7.30271 36.7544 31.4907
220 2 24.908 36.8684 33.877
221 2 23.7958 43.832 34.4674
222 2 48.1394 20.3158 24.1406
223 2 33.8482 20.3654 20.9329
224 2 17.5752 46.5473 10.7044
225 2 24.1873 52.7752 52.5856
226 2 46.7823 13.7533 23.8095
227 2 52.8796 16.3335 29.7878
228 2 32.5605 9.7856 51.4959
229 2 33.1385 26.4212 43.1692
230 2 31.8447 34.8476 34.9862
231 2 49.479 40.2381 21.3525
232 2 35.4015 49.0871 20.8852
233 2 49.5995 7.11157 23.234
234 2 18.7515 11.27 44.3024
235 2 53.9938 9.59358 48.8207
236 2 36.8063 10.5024 24.1978
237 2 25.3277 49.4578 41.8703
238 2 43.952 7.89733 14.6219
239 2 23.4049 42.0215 6.45948
240 2 10.4574 18.9245 46.6223
241 2 31.676 55.5387 48.0027
242 2 32.6821 15.2904 21.6384
243 2 25.6354 23.1587 7.9293
244 2 27.1057 47.926 16.9932
245 2 47.886 42.2022 35.2482
246 2 20.7413 37.3944 41.5195
247 2 6.31373 31.4041 26.3629
248 2 7.80747 45.6352 48.3154
249 2 50.6391 51.7185 30.0452
250 2 7.52664 24.8606 7.51761
251 2 28.0456 34.1902 19.8629
252 2 10.4007 27.752 44.2267
253 2 18.4907 55.071 13.4714
254 2 17.3064 33.9446 43.4258
255 2 34.2902 53.114 22.5773
256 2 17.6583 39.8933 10.7229
257 2 21.8703 25.2763 44.3717
258 2 23.0817 47.0228 41.9274
259 2 8.97791 44.1572 22.1712
260 2 39.564 7.20064 6.48633
261 2 12.1509 52.3172 28.5536
262 2 52.4768 22.7613 8.52193
263 2 25.2109 53.319 10.1605
264 2 9.85184 28.2277 18.6097
265 2 35.6606 49.369 13.1423
266 2 12.7279 25.319 47.5221
267 2 9.60939 13.099 55.578
268 2 12.827 50.6445 9.3371
269 2 29.032 26.0055 22.3633
270 2 40.5161 18.2343 51.2417
271 2 18.5577 19.4422 51.5083
272 2 12.6599 34.7749 35.8592
273 2 28.6981 55.1551 51.2812
274 2 41.0258 54.9009 30.5285
275 2 55.0011 21.5268 51.1077
276 2 17.9144 42.6262 38.0045
277 2 51.5068 50.5423 33.365
278 2 19.0937 42.3003 21.3333
279 2 55.7852 10.1601 6.22457
280 2 38.3815 34.3249 28.9866
281 2 35.9213 33.9462 27.2385
282 2 35.392 35.8559 37.5963
283 2 38.6144 41.3003 15.4663
284 2 19.7335 18.7365 44.5833
285 2 52.1493 13.0964 39.0228
286 2 28.2983 32.0903 28.3556
287 2 11.086 39.0593 13.7056
288 2 9.9463 41.6709 17.9262
289 2 29.6791 27.3125 53.1802
290 2 10.9794 38.9756 10.4732
291 2 23.4983 19.3553 33.768
292 2 13.1996 16.8052 18.1148
293 2 30.1409 27.5401 27.9954
294 2 17.0757 43.6075 28.929
295 2 39.5878 36.6135 6.12087
296 2 25.7199 18.5412 24.8796
297 2 38.5864 14.6872 25.8689
298 2 10.4364 30.6683 28.1177
299 2 40.1787 10.3685 38.2581
300 2 47.2743 21.4952 53.0542
301 2 43.922 11.4888 10.8222
302 2 54.1448 17.4035 48.8539
303 2 31.0413 29.2378 48.7375
304 2 38.699 30.588 42.1264
305 2 36.2377 18.1487 32.5149
306 2 53.9868 49.0776 51.091
307 2 33.1352 31.1874 42.9907
308 2 27.0355 12.0831 42.9573
309 2 45.8054 16.5315 39.9669
310 2 16.0454 26.5398 12.5318
311 2 20.8968 38.4009 29.6833
312 2 50.9498 26.8362 34.7796
313 2 33.5328 8.0385 27.2218
314 2 50.7807 19.4633 12.9656
315 2 10.6759 52.8498 31.5049
316 2 8.20837 15.6016 29.2831
317 2 51.1577 27.1868 27.9553
318 2 23.768 19.7082 38.6451
319 2 15.059 55.0419 43.4847
320 2 10.2048 38.9385 41.9471
321 2 54.2655 25.3659 16.4599
322 2 20.1821 41.6817 7.52578
323 2 55.3228 35.1608 16.1616
324 2 52.4124 15.25 33.4232
325 2 33.332 7.19789 43.1561
326 2 28.0739 11.1209 35.8857
327 2 42.8993 16.5644 47.9206
328 2 27.4268 6.70994 31.6954
329 2 50.3015 22.5301 38.6773
330 2 43.5078 9.19511 30.1526
331 2 8.7866 29.1146 31.938
332 2 53.2123 25.8904 23.5698
333 2 25.3741 48.8649 46.5661
334 2 24.5163 32.231 48.2202
335 2 54.1337 21.3601 44.4447
336 2 36.5137 15.3707 42.1401
337 2 31.0667 42.4702 7.47195
338 2 15.1167 34.4866 14.0597
339 2 43.2146 33.3111 31.242
340 2 15.7392 49.2045 42.5396
341 2 20.5884 23.9653 8.03972
342 2 52.0844 15.0208 45.8438
343 2 52.8501 37.6177 24.1608
344 2 15.3782 17.6372 45.4723
345 2 23.0025 24.204 19.7579
346 2 14.0021 21.2837 9.48178
347 2 16.7554 43.3254 7.05613
348 2 51.123 52.5935 7.90333
349 2 33.6073 10.948 13.0847
350 2 44.0322 26.1471 6.74966
351 2 9.1342 11.2807 13.0508
352 2 36.0267 16.7047 47.1085
353 2 36.3661 46.3281 19.6141
354 2 53.3608 28.9764 11.8037
355 2 28.7502 49.994 36.2896
356 2 50.2527 46.2478 9.84272
357 2 35.0852 55.8189 55.6057
358 2 9.05111 38.9666 7.6839
359 2 22.5081 37.8051 50.707
360 2 23.608 49.6668 19.9836
361 2 50.8274 19.7913 53.0463
362 2 29.6623 15.8667 16.4919
363 2 49.832 26.8169 30.7125
364 2 28.5184 49.6258 31.2128
365 2 28.8712 25.7275 43.5355
366 2 23.1598 9.24013 49.687
367 2 6.38479 48.1308 17.8938
368 2 27.5553 45.1423 45.334
369 2 31.3709 48.2603 46.615
370 2 15.8327 29.5261 25.0587
371 2 18.7159 44.9129 21.5444
372 2 17.5156 13.7432 31.4465
373 2 28.9774 52.2711 40.9921
374 2 46.0456 47.9755 49.8232
375 2 37.2388 33.6725 17.6017
376 2 37.512 21.883 34.2802
377 2 20.907 12.9626 19.415
378 2 30.4477 52.703 51.7638
379 2 27.1771 37.488 45.8298
380 2 12.8586 52.9789 38.9902
381 2 20.4264 11.2962 27.7693
382 2 24.7577 38.6553 12.4854
383 2 15.7022 22.4081 30.4093
384 2 24.4271 46.264 48.7115
385 2 17.8866 38.9464 19.0322
386 2 50.1485 48.8523 52.6679
387 2 53.9075 45.7539 53.9216
388 2 18.8088 26.2773 30.038
389 2 24.8586 41.1723 24.38
390 2 21.4674 49.9033 9.34915
391 2 21.887 45.3489 29.2972
392 2 10.9894 42.7649 54.0123
393 2 45.7889 11.1198 31.2398
394 2 29.4553 46.1553 19.8607
395 2 38.8607 17.5092 31.7273
396 2 46.3834 22.955 22.5961
397 2 19.5393 20.6506 30.7453
398 2 37.336 45.5692 53.5029
399 2 42.0528 40.4076 48.7575
400 2 24.5615 54.9119 30.6467
401 2 19.536 29.2151 12.4987
402 2 55.3929 19.1486 53.1227
403 2 16.9461 42.6703 33.3772
404 2 31.8968 15.4935 27.2021
405 2 27.6731 11.534 18.9431
406 2 34.2381 43.2917 22.6403
407 2 39.9051 51.979 38.2293
408 2 44.8218 16.163 29.228
409 2 6.88708 48.5092 28.4055
410 2 10.9019 26.0364 52.9812
411 2 27.4874 8.77023 43.585
412 2 35.3266 34.5044 31.9282
413 2 15.308 48.5172 38.1855
414 2 53.7684 38.8818 50.4356
415 2 12.6135 27.8209 51.3788
416 2 53.904 28.1214 17.894
417 2 22.0425 22.8413 10.6784
418 2 23.4254 8.04076 22.0016
419 2 44.5327 30.7825 46.0746
420 2 25.3576 16.0572 14.4487
421 2 32.5257 49.3929 54.8864
422 2 44.5075 48.4444 40.652
423 2 50.273 21.7293 35.6456
424 2 54.0505 50.819 38.1162
425 2 18.7087 36.9277 26.3627
426 2 30.2113 19.3613 16.0408
427 2 36.4294 15.9303 6.96084
428 2 20.2131 16.9692 6.44322
429 2 30.2559 15.5443 33.7078
430 2 53.0567 40.775 55.0513
431 2 31.647 55.3495 29.1717
432 2 29.7728 33.5083 6.89375
433 2 29.0696 11.3747 16.4332
434 2 17.6608 31.9066 20.8105
435 2 34.8679 28.7968 43.0265
436 2 14.5674 54.5489 11.5192
437 2 28.5036 6.22423 42.9117
438 2 47.1764 44.2968 52.8413
439 2 26.077 34.0094 17.1019
440 2 13.8838 24.7618 16.9766
441 2 41.7415 28.6003 29.881
442 2 48.7148 14.8647 31.6517
443 2 9.28179 23.6607 44.8439
444 2 37.9644 36.6543 13.6171
445 2 55.1805 53.5579 54.1885
446 2 13.1883 54.7204 22.2975
447 2 33.406 21.9889 37.3332
448 2 23.242 10.1622 33.709
449 2 36.1379 26.1403 55.6619
450 2 29.8106 46.9651 43.7624
451 2 12.0702 42.9636 7.12068
452 2 50.4823 31.6472 47.8316
453 2 26.9444 23.9028 42.4924
454 2 45.8958 11.6596 14.6925
455 2 53.8032 54.144 15.74
456 2 31.4434 28.3584 22.1796
457 2 28.8476 53.9479 30.4609
458 2 48.718 25.9686 14.4815
459 2 7.77429 12.1759 21.9131
460 2 13.0371 23.843 53.7065
461 2 36.6096 27.2572 26.6961
462 2 28.0409 41.4004 36.5577
463 2 7.48044 23.8046 13.248
464 2 36.9092 27.322 18.3577
465 2 9.99055 53.682 52.9004
466 2 38.7698 46.3642 26.6969
467 2 24.4474 21.9183 34.6415
468 2 46.3079 8.69994 13.1287
469 2 8.05254 8.51855 12.7782
470 2 50.2064 54.5977 25.8398
471 2 45.1356 8.38861 22.7902
472 2 43.5003 27.8588 27.4232
473 2 54.8081 19.6619 47.2108
474 2 23.154 28.6602 35.5604
475 2 44.5674 33.587 12.5856
476 2 20.6424 29.1361 33.8828
477 2 39.8656 40.3482 33.4169
478 2 29.2239 38.9984 36.336
479 2 43.0608 10.6727 40.0122
480 2 27.5227 19.052 47.1194
481 2 26.0875 35.1501 47.7117
482 2 36.0973 24.6618 33.7514
483 2 12.8827 28.5143 32.418
484 2 52.1988 20.2281 20.5273
485 2 23.445 15.6493 22.4829
486 2 51.2892 42.4492 14.8965
487 2 36.5343 8.83542 10.2553
488 2 14.5583 15.8554 38.6618
489 2 10.6496 37.4156 18.1492
490 2 42.3482 45.0417 27.8946
491 2 41.6364 35.8997 20.7075
492 2 41.0695 24.7097 52.6522
493 2 47.78 30.7449 7.15791
494 2 7.52854 12.4035 18.1688
495 2 18.9851 10.5002 54.6942
496 2 52.5051 13.2197 36.0585
497 2 10.0688 27.5698 15.3561
498 2 24.3175 54.642 24.7348
499 2 9.1519 51.6228 55.7261
500 2 13.9256 19.8818 47.6609
501 2 21.8841 31.1604 35.1882
502 2 38.7377 44.9028 44.0028
503 2 28.5081 7.6632 10.2594
504 2 32.2437 26.5131 26.356
505 2 28.387 29.1609 21.067
506 2 22.4619 17.3771 51.1532
507 2 27.2226 17.3921 33.2397
508 2 7.6166 42.5146 11.7005
509 2 20.5003 47.2601 10.6742
510 2 48.8032 20.7466 7.35493
511 2 34.2211 46.067 41.9771
512 2 54.4888 12.9102 28.3969
513 2 38.8542 15.9373 10.7506
514 2 55.7112 26.4164 18.74
515 2 41.9618 38.4449 40.5175
516 2 48.2838 29.1398 37.8082
517 2 37.0341 31.8813 32.3292
518 2 35.7313 39.4683 32.4316
519 2 40.8181 7.35441 42.8519
520 2 50.2625 27.0083 48.4767
521 2 17.6837 46.2919 7.69384
522 2 35.7692 54.2983 49.527
523 2 31.5106 6.79675 24.7007
524 2 46.9542 11.066 21.1617
525 2 52.4265 7.91242 27.7547
526 2 36.9119 23.0755 7.24369
527 2 54.6318 34.929 20.4222
528 2 20.6357 34.3844 32.2029
529 2 45.143 42.5174 40.5295
530 2 51.3981 47.0172 40.5169
531 2 22.3587 27.7208 20.1177
532 2 40.8008 19.9957 55.7395
533 2 31.282 55.0522 14.0021
534 2 28.8945 44.1053 17.5362
535 2 14.4356 48.3096 24.8455
536 2 7.78824 30.5199 47.2829
537 2 17.8423 12.6261 46.9183
538 2 28.9888 54.7438 47.0672
539 2 14.5213 8.77604 47.1869
540 2 47.3634 39.6452 52.7281
541 2 10.7234 12.0772 39.7482
542 2 32.993 42.3613 36.7521
543 2 42.1822 41.8115 21.0302
544 2 36.0579 11.9678 9.48518
545 2 26.4057 52.2828 44.5059
546 2 33.8709 33.0276 29.5572
547 2 22.2767 37.4563 32.3755
548 2 9.87183 32.253 23.6975
549 2 8.6202 22.1646 21.3686
550 2 51.6347 10.2629 26.4027
551 2 16.4596 12.2626 13.5689
552 2 47.7554 10.8812 47.7721
553 2 25.0298 44.945 25.0695
554 2 18.9219 42.4893 54.6664
555 2 42.0632 41.2314 17.7729
556 2 33.0474 35.3603 18.2912
557 2 19.636 52.5412 20.0296
558 2 14.6352 8.52782 15.299
559 2 45.3059 41.1349 50.5407
560 2 31.5718 20.1634 55.1266
561 2 15.0957 49.2535 27.4805
562 2 19.6683 48.4695 19.053
563 2 35.2845 29.0515 46.3835
564 2 36.9925 55.3809 9.90193
565 2 7.64006 33.2257 14.279
566 2 53.1817 20.6331 54.9848
567 2 24.6936 29.6795 24.4322
568 2 44.2325 35.8591 25.0756
569 2 55.4018 11.0571 51.3853
570 2 48.4407 7.33953 20.2727
571 2 12.9254 48.0412 12.7775
572 2 8.87053 34.9345 7.92282
573 2 43.007 48.2781 50.8947
574 2 39.7149 35.709 49.1683
575 2 35.166 52.4533 6.85167
576 2 34.8685 36.9155 20.3681
577 2 36.3857 47.3523 35.3496
578 2 24.1378 43.2545 42.4514
579 2 28.933 16.1418 50.3547
580 2 24.5836 39.7754 21.1541
581 2 25.4709 52.0067 13.8178
582 2 48.0572 34.5162 6.61471
583 2 19.6989 47.3958 45.5834
584 2 55.0206 13.652 24.9389
585 2 49.8471 47.8328 12.8587
586 2 20.7905 22.9321 46.1113
587 2 6.77119 31.6197 54.093
588 2 38.0679 33.5647 14.7203
589 2 42.1595 25.2312 9.85493
590 2 46.1855 17.5272 20.9947
591 2 50.5631 39.3869 28.3567
592 2 10.7037 11.8665 29.1033
593 2 27.7612 31.2867 50.5345
594 2 39.2826 52.9497 54.0972
595 2 52.6101 52.7081 24.6672
596 2 46.4905 16.9981 36.7847
597 2 43.5604 38.1645 50.5274
598 2 40.8483 10.9004 20.3355
599 2 43.3632 55.4898 50.544
600 2 20.9635 41.1356 13.5188
601 2 46.4445 31.1028 40.0432
602 2 50.2796 7.36932 10.0006
603 2 36.2795 45.028 37.8197
604 2 52.1774 51.8249 10.6381
605 2 14.2331 26.083 33.7892
606 2 28.5388 26.2464 32.1181
607 2 43.2084 31.0876 42.589
608 2 12.2826 16.1375 53.0365
609 2 50.5968 6.55075 39.3992
610 2 33.6438 50.4465 36.7986
611 2 6.1092 21.592 23.1093
612 2 26.1404 46.6872 51.4846
613 2 22.7295 34.0053 45.0371
614 2 55.295 8.10703 13.9881
615 2 24.2408 22.7135 42.3297
616 2 16.1874 9.40711 54.3747
617 2 23.5972 15.0273 12.1096
618 2 18.4417 9.68137 10.0267
619 2 34.7092 13.7654 36.0303
620 2 40.3459 42.2138 50.5972
621 2 33.4697 52.3484 40.4441
622 2 50.3198 23.2946 43.7056
623 2 32.4898 21.7309 50.7167
624 2 37.2683 52.6425 38.2622
625 2 8.98153 31.704 36.0674
626 2 30.0001 35.5867 37.8141
627 2 10.803 53.8145 24.5959
628 2 13.4677 7.99041 53.5624
629 2 23.5241 54.5556 14.735
630 2 26.2057 35.3441 31.7543
631 2 8.03411 18.9905 40.4932
632 2 34.6089 24.7415 29.7113
633 2 15.6511 54.7859 35.4514
634 2 6.09987 38.5495 23.4087
635 2 34.3504 53.9125 11.0775
636 2 55.36 35.6965 7.55504
637 2 40.4801 51.7852 19.8397
638 2 43.7258 36.1969 29.9937
639 2 21.9857 35.9475 27.4061
640 2 39.4826 13.3672 18.9077
641 2 31.2392 26.8512 13.1545
642 2 41.3948 34.8547 53.2792
643 2 48.9566 13.5472 28.762
644 2 39.093 10.2489 22.8133
645 2 43.2666 45.4736 19.7123
646 2 29.8665 20.7617 47.9036
647 2 26.4137 26.4209 15.2457
648 2 30.1068 46.3328 11.3905
649 2 16.9455 15.8899 47.6899
650 2 52.245 45.974 28.854
651 2 17.0418 54.5979 45.5808
652 2 18.2926 54.3188 8.12979
653 2 51.2865 38.2161 15.4469
654 2 7.02226 9.22027 42.6565
655 2 14.6138 49.7152 14.2658
656 2 50.7509 47.4675 32.7985
657 2 49.5635 49.5703 41.013
658 2 6.08987 35.5187 38.7643
659 2 37.644 46.7227 13.7837
660 2 16.4956 39.5063 29.5644
661 2 45.7182 29.9559 31.0855
662 2 25.7264 49.3502 23.9097
663 2 12.8914 41.8584 31.0274
664 2 37.6396 7.77911 28.7558
665 2 19.0609 23.1528 34.3687
666 2 23.6696 12.0393 6.10636
667 2 42.5738 55.1552 27.4362
668 2 10.6171 45.8288 15.9983
669 2 51.5367 32.3911 43.4513
670 2 47.8257 7.06453 40.9555
671 2 25.5087 50.1136 16.1049
672 2 19.5059 23.6852 26.8649
673 2 30.6533 32.4483 26.8905
674 2 12.3117 9.77948 16.9171
675 2 43.5893 21.846 49.9772
676 2 41.5401 29.2316 49.2147
677 2 46.5191 9.2869 34.3041
678 2 54.8792 31.1947 39.9756
679 2 15.9909 31.2462 34.7235
680 2 30.232 37.1857 52.186
681 2 14.099 30.0668 18.1793
682 2 49.9982 7.0505 46.6617
683 2 29.239 53.4748 17.0104
684 2 23.7537 27.703 49.934
685 2 34.7622 40.5512 13.4704
686 2 8.10092 51.4527 31.3894
687 2 46.3649 46.5927 36.4288
688 2 20.1443 33.708 9.52454
689 2 52.6612 7.51711 53.1727
690 2 45.6627 22.9942 44.2032
691 2 30.9435 12.0831 47.8288
692 2 30.9643 53.3659 24.2329
693 2 54.8383 35.2618 33.6395
694 2 11.1012 30.956 18.6047
695 2 28.6591 42.105 52.7098
696 2 41.5637 9.86664 26.0724
697 2 6.29818 39.9619 34.9499
698 2 51.4821 14.4288 12.9617
699 2 52.5988 18.0946 10.3666
700 2 54.8172 51.276 44.8824
701 2 12.416 10.7496 13.9899
702 2 22.5642 31.9719 50.508
703 2 54.2806 16.0081 27.1018
704 2 32.7443 35.6189 11.6102
705 2 9.2786 53.997 7.60234
706 2 29.4004 8.58486 15.0316
707 2 17.7681 35.407 30.6312
708 2 21.1166 49.2752 31.1111
709 2 31.0949 22.9755 54.4457
710 2 7.56229 45.769 11.9234
711 2 23.7412 54.931 34.9926
712 2 31.7021 36.9737 54.8562
713 2 38.7478 54.235 17.414
714 2 19.2271 36.6539 23.2628
715 2 12.1621 37.9542 29.5454
716 2 38.4732 10.2098 55.7336
717 2 27.9534 30.8288 38.3811
718 2 16.4083 48.1724 49.6613
719 2 25.4599 14.0866 52.1042
720 2 42.7578 46.4957 41.9017
721 2 9.413 15.3262 35.9725
722 2 16.2748 15.3885 20.4336
723 2 19.1954 51.84 13.1757
724 2 38.4989 26.7878 33.8939
725 2 15.4166 53.6789 25.9189
726 2 54.4154 9.28514 46.0195
727 2 23.7302 12.3523 36.1256
728 2 50.7621 25.5483 8.63813
729 2 46.7297 53.2818 29.0248
730 2 6.2326 38.772 55.8251
731 2 34.5245 43.9077 35.0827
732 2 43.9872 7.37152 10.0622
733 2 38.1258 12.0413 33.3226
734 2 39.9621 44.3241 34.9647
735 2 16.8153 29.7215 6.7475
736 2 13.4141 23.6212 50.3425
737 2 28.2148 49.4042 47.8115
738 2 13.1214 13.4523 19.0298
739 2 43.8328 51.6923 53.1341
740 2 31.0914 9.39122 17.6596
741 2 27.8474 25.5661 7.02794
742 2 13.0598 39.5916 41.6774
743 2 32.4729 22.9895 43.3411
744 2 31.6177 52.4026 37.9219
745 2 6.6841 17.3067 22.6483
746 2 20.4446 31.7406 25.0349
747 2 52.4086 25.4606 44.508
748 2 15.7943 39.8155 45.984
749 2 13.3744 36.3561 43.3938
750 2 36.124 49.7581 39.5563
751 2 18.2929 10.9464 41.1757
752 2 17.7129 12.5003 27.5174
753 2 53.2641 15.5558 9.0648
754 2 42.5297 11.6216 30.8326
755 2 19.3737 23.6216 29.8753
756 2 6.2692 8.83767 20.4
757 2 16.154 11.1093 38.7213
758 2 31.4537 36.2194 42.5574
759 2 10.2262 50.2853 10.1381
760 2 40.9365 31.1314 39.2958
761 2 36.497 50.9761 50.9986
762 2 26.6386 55.0461 27.0481
763 2 21.6002 25.2801 31.3979
764 2 13.7289 27.7931 6.85084
765 2 10.4051 46.6429 11.7663
766 2 21.8299 40.7552 20.9405
767 2 47.7382 53.1574 13.6271
768 2 30.2696 48.7499 29.371
769 2 49.846 10.6734 17.5043
770 2 18.2657 34.245 52.3909
771 2 16.3986 39.4206 26.6717
772 2 45.5254 11.7832 26.0627
773 2 24.4984 24.7268 46.1192
774 2 20.3876 37.6798 44.6311
775 2 8.95951 34.7211 45.2447
776 2 25.4638 17.2116 37.5468
777 2 30.875 27.8504 9.24067
778 2 14.6036 37.106 51.9776
779 2 9.26051 28.7441 35.5909
780 2 53.5088 6.18209 39.9273
781 2 9.13472 48.8929 30.1471
782 2 32.6369 52.9127 26.6492
783 2 54.9457 46.6995 46.8662
784 2 13.135 53.9997 18.2456
785 2 11.3763 21.6746 6.38439
786 2 31.6072 8.39742 36.4056
787 2 14.4695 27.1546 10.2951
788 2 21.6416 35.0763 16.6873
789 2 36.6644 36.6363 46.5265
790 2 52.4758 15.6045 38.332
791 2 55.1237 28.9025 26.9391
792 2 6.80378 23.7993 38.4965
793 2 7.96365 27.5547 47.8496
794 2 48.7203 22.9905 11.8067
795 2 12.7615 26.3853 43.2418
796 2 7.73501 10.2284 24.9339
797 2 54.6496 55.8466 27.8503
798 2 23.3605 24.8271 6.2756
799 2 48.5879 20.087 38.7728
800 2 39.8886 15.8409 28.4636
801 2 13.1482 13.4597 35.8636
802 2 51.2732 14.1463 30.5534
803 2 45.0694 50.4803 17.1158
804 2 18.6234 36.3966 6.42923
805 2 24.49 11.9984 25.7603
806 2 36.5733 21.357 29.4602
807 2 9.10575 19.069 26.4502
808 2 13.1562 9.85857 28.9619
809 2 40.9803 34.262 38.5869
810 2 39.8635 47.7784 38.1079
811 2 42.7534 39.2042 7.05797
812 2 16.5779 34.7911 25.699
813 2 38.4962 53.4524 25.1181
814 2 38.6085 43.9505 19.1111
815 2 40.0417 29.8988 18.02
816 2 51.8431 22.0772 50.5834
817 2 33.5465 53.133 47.3131
818 2 21.7436 46.1011 12.8256
819 2 16.9272 49.0509 20.6799
820 2 35.8994 22.7073 17.3994
821 2 52.2796 43.6706 10.5234
822 2 25.2011 9.09505 47.7852
823 2 41.6127 28.9777 22.6907
824 2 54.5013 42.0019 20.9864
825 2 15.6597 44.1624 43.9546
826 2 14.4008 17.2596 22.4134
827 2 33.8955 28.6601 27.807
828 2 49.3641 49.3007 49.5531
829 2 22.8053 42.5455 17.4171
830 2 27.0714 21.8184 9.87724
831 2 20.0504 49.1019 28.1247
832 2 50.2101 34.4676 45.5034
833 2 40.2028 19.1113 34.2953
834 2 16.2331 21.3317 47.7106
835 2 22.6289 27.7751 11.5195
836 2 48.5774 50.7568 34.9748
837 2 13.6133 42.3615 39.8724
838 2 29.197 48.6199 12.6229
839 2 31.6353 31.0614 40.4399
840 2 10.7501 31.124 33.4966
841 2 46.2004 15.671 47.347
842 2 23.5724 16.6947 45.9098
843 2 22.2292 7.61466 53.9105
844 2 19.4225 44.9932 26.1264
845 2 35.4708 24.763 44.1073
846 2 42.5199 42.3347 7.46622
847 2 16.9984 32.3617 23.8236
848 2 41.8477 33.2472 48.6716
849 2 35.4623 18.6847 8.85783
850 2 29.5364 17.1639 27.7758
851 2 9.85947 12.053 25.9454
852 2 33.8755 45.75 7.86852
853 2 11.7516 32.7053 44.857
854 2 30.5779 27.2277 35.2008
855 2 52.2881 29.0795 30.1649
856 2 29.7469 15.164 41.3653
857 2 30.9333 8.32738 8.38028
858 2 44.0686 26.2689 50.9658
859 2 30.7493 22.9323 40.7591
860 2 49.1223 24.551 40.9124
861 2 13.9986 37.5929 16.2563
862 2 32.9277 48.2569 25.184
863 2 34.8054 50.38 32.0403
864 2 46.7623 25.0475 54.9241
865 2 34.6525 18.0951 11.5587
866 2 32.0586 42.7112 44.4468
867 2 30.1833 18.9215 19.2781
868 2 54.4848 24.3998 21.4012
869 2 52.8636 17.6072 24.8022
870 2 36.5443 54.5807 52.8858
871 2 26.2578 44.2112 41.0997
872 2 14.5434 21.2011 32.6133
873 2 39.5469 8.48376 45.2194
874 2 21.0436 12.0342 40.2367
875 2 52.7931 24.3318 12.2352
876 2 14.3023 14.6625 45.1191
877 2 47.8051 33.2867 23.7636
878 2 47.9793 46.8908 52.2907
879 2 40.0017 38.5897 37.7986
880 2 38.5962 15.1166 35.7772
881 2 29.7367 22.4869 50.7436
882 2 45.4068 21.3492 55.8445
883 2 28.0709 36.3683 6.62897
884 2 49.5329 34.1082 50.0045
885 2 41.7091 35.3931 41.3402
886 2 37.3143 51.1415 42.122
887 2 17.0963 36.3093 15.897
888 2 12.0567 12.9031 9.94143
889 2 10.7011 18.8545 18.4087
890 2 15.0875 41.4572 28.6846
891 2 17.9648 44.7759 35.8901
892 2 16.6586 30.1052 42.1784
893 2 14.4624 22.8248 46.0427
894 2 18.1159 14.7992 23.8301
895 2 8.04275 26.0697 36.2177
896 2 55.1936 20.7763 30.1318
897 2 45.6315 18.1193 14.3802
898 2 33.4959 27.7892 55.5429
899 2 23.876 27.4086 42.9777
900 2 17.2997 37.0581 41.9619
901 2 24.0421 33.5447 36.229
902 2 27.7969 46.8606 39.7659
903 2 14.1458 34.8531 7.0019
904 2 46.8743 17.3621 27.1229
905 2 22.4461 15.0551 27.6424
906 2 38.3563 46.914 51.0754
907 2 42.7959 32.0316 35.2674
908 2 11.7576 55.4991 7.76799
909 2 24.4252 54.2537 17.8802
910 2 52.4099 49.365 45.0186
911 2 50.7462 13.8186 8.25488
912 2 25.2649 43.9663 29.4683
913 2 46.8965 16.0068 34.173
914 2 53.2327 19.3829 16.7007
915 2 34.185 33.807 7.49127
916 2 35.65 10.1841 44.1005
917 2 6.70196 51.8806 17.5297
918 2 30.3309 48.5886 51.7697
919 2 39.2031 19.1178 45.8483
920 2 17.7762 46.2617 39.0537
921 2 46.3503 27.7447 33.2093
922 2 28.8786 41.4172 43.709
923 2 14.2143 42.4657 21.9622
924 2 13.2412 50.9428 52.6807
925 2 25.0717 11.3022 51.0997
926 2 12.9198 34.414 15.6851
927 2 48.3534 37.8693 34.1811
928 2 49.8276 29.5749 31.3456
929 2 46.5285 50.2877 23.5155
930 2 47.229 38.6802 17.2457
931 2 45.1825 30.7832 27.6672
932 2 37.491 41.991 7.33841
933 2 7.81268 21.0397 46.6462
934 2 43.0364 48.9441 43.9518
935 2 46.6016 9.1148 38.3771
936 2 31.2735 23.8242 36.0524
937 2 45.9972 45.4929 6.90762
938 2 33.0224 48.2748 9.16697
939 2 26.4145 41.3563 26.8063
940 2 41.4208 53.3468 44.1022
941 2 41.6452 42.1114 43.341
942 2 23.7235 23.1962 12.9255
943 2 44.7934 13.2814 52.1213
944 2 20.7535 51.0379 42.3969
945 2 50.3268 10.0113 14.5788
946 2 6.50519 55.42 32.3979
947 2 52.3302 32.2188 33.2883
948 2 47.5711 25.9022 34.9808
949 2 40.5114 46.7604 33.3158
950 2 18.7022 15.8125 36.2093
951 2 47.8895 25.7584 19.358
952 2 54.7372 10.5217 26.2792
953 2 30.0126 25.342 15.8098
954 2 42.9634 20.3658 24.2994
955 2 27.5342 35.3564 39.8291
956 2 15.4952 45.9761 28.4123
957 2 51.4752 26.8296 38.2473
958 2 54.0508 24.0137 35.4751
959 2 44.0347 22.3507 8.94191
960 2 53.3271 17.1274 43.7786
961 2 17.1285 12.2332 34.4819
962 2 54.546 12.8653 43.0838
963 2 44.945 29.2707 49.4943
964 2 50.3783 22.7511 32.827
965 2 49.087 9.03057 33.7073
966 2 30.6404 6.53222 34.682
967 2 55.271 53.3683 34.9747
968 2 7.62998 12.7053 29.5559
969 2 39.2668 11.9975 12.4012
970 2 53.7571 49.1331 10.5979
971 2 22.8268 52.7124 28.5715
972 2 9.15533 9.30916 52.8076
973 2 18.927 7.66292 51.4929
974 2 50.1403 43.0313 17.7743
975 2 33.3006 18.1953 28.2093
976 2 40.1451 49.5808 34.5886
977 2 40.0387 50.0587 11.8773
978 2 46.1136 12.4506 49.2764
979 2 41.0908 14.4558 20.8098
980 2 42.4519 38.0687 19.1797
981 2 13.7773 6.51156 48.6805
982 2 36.1997 54.0123 18.4437
983 2 21.5379 34.3635 23.3325
984 2 37.266 43.9065 32.9135
985 2 45.9928 53.6863 45.9865
986 2 8.91376 44.7996 26.3539
987 2 32.3986 45.1878 37.7177
988 2 33.6416 38.0217 46.3214
989 2 53.3931 37.9937 29.3049
990 2 40.095 9.6302 48.6115
991 2 12.2213 44.4156 18.1163
992 2 55.1413 33.1103 45.9197
993 2 13.5457 51.091 41.2215
994 2 11.212 43.6782 40.5128
995 2 28.4147 6.71304 25.6297
996 2 27.2748 51.0344 8.99441
997 2 49.0655 40.9393 16.1252
998 2 55.1683 51.4937 25.1474
999 2 53.1892 35.5197 46.9198
1000 2 16.8993 38.6925 22.0812
1001 2 16.6413 24.3594 33.5248
1002 2 9.10469 21.2769 11.7707
1003 2 48.901 15.9002 45.9337
1004 2 30.4984 30.2168 24.7625