ITEM: TIMESTEP
0
ITEM: NUMBER OF ATOMS
9088
ITEM: BOX BOUNDS xy xz yz pp pp pp
6.1478395446858922e+00 5.5783098247639330e+01 -5.6947260555069891e-15
6.1478395446858976e+00 5.5783098247639330e+01 0.0000000000000000e+00
6.1478395446858976e+00 5.5783098247639330e+01 0.0000000000000000e+00
ITEM: ATOMS id type x y z
1 2 20.9121 30.7262 54.5461
2 2 42.3935 20.7449 25.0476
3 2 30.3182 41.0797 12.9028
4 2 54.2472 26.6615 17.9929
5 2 50.6386 15.6765 20.8712
6 2 22.4406 9.56282 44.0854
7 2 53.6621 20.2931 11.5615
8 2 14.5176 41.0047 7.4258
9 2 45.5597 53.1084 19.7538
10 2 41.8398 47.3937 20.7212
11 2 15.2308 41.3132 16.4042
12 2 42.5107 55.433 37.4948
13 2 50.4241 29.304 41.7697
14 2 36.2431 11.667 22.319
15 2 30.8196 40.433 37.1559
16 2 24.9525 48.0292 44.1251
17 2 53.9021 18.5352 48.0979
18 2 21.9707 55.4911 22.0644
19 2 54.2748 13.6981 16.4431
20 2 55.5911 14.7289 7.24321
21 2 10.6624 50.7814 34.9593
22 2 16.033 54.3003 53.5377
23 2 12.1779 18.3082 47.228
24 2 44.6264 22.3409 10.3071
25 2 27.7527 26.216 41.2082
26 2 30.2243 39.4903 45.9968
27 2 19.5176 32.9713 32.06
28 2 34.9064 26.4226 18.7168
29 2 7.48592 47.9255 48.3521
30 2 51.5792 42.0203 37.4696
31 2 26.5846 29.8781 26.6994
32 2 46.6204 25.2359 13.9407
33 2 46.0715 42.0966 53.7208
34 2 24.9592 16.8153 50.1304
35 2 19.039 18.4697 29.0015
36 2 27.3635 34.8086 20.7786
37 2 24.8138 30.0174 9.02852
38 2 10.787 37.5618 37.0755
39 2 19.103 40.9852 16.3344
40 2 13.6775 20.5705 35.4771
41 2 37.3657 31.5288 53.9108
42 2 8.17133 36.0181 6.51552
43 2 54.7267 27.2867 9.23238
44 2 15.8768 14.2749 37.4597
45 2 11.1917 6.1619 26.2843
46 2 31.6956 43.2264 20.5547
47 2 52.1984 33.6875 50.2725
48 2 17.1678 6.18788 40.2309
49 2 18.4774 22.4251 18.7336
50 2 37.2211 52.1435 35.1501
51 2 12.9072 12.1183 22.1022
52 2 12.3176 11.4596 29.9898
53 2 53.9223 18.3335 24.1897
54 2 30.9657 35.9023 37.0856
55 2 51.8666 54.2728 17.6816
56 2 35.1469 24.9853 25.5818
57 2 37.9925 12.1574 10.5282
58 2 39.0157 18.055 18.0054
59 2 53.02 29.9968 13.4675
60 2 38.2629 10.096 30.0657
61 2 19.6283 13.1471 44.5893
62 2 11.7772 20.5503 55.0998
63 2 39.399 21.7246 25.0724
64 2 55.3767 18.2565 15.6316
65 2 29.0203 10.469 12.9618
66 2 28.751 43.8776 40.7293
67 2 46.4927 30.0472 31.8224
68 2 37.6473 51.1688 16.4153
69 2 15.4232 24.3029 41.6513
70 2 43.3772 21.4773 22.4706
71 2 54.9527 20.6064 45.6033
72 2 21.3355 20.6483 13.857
73 2 39.6348 20.5147 31.5854
74 2 13.2478 29.5814 35.4331
75 2 39.7123 44.562 43.3074
76 2 41.365 23.1097 31.7382
77 2 16.5488 44.2987 41.0073
78 2 29.3551 55.1778 17.3073
79 2 36.1674 41.0158 42.1511
80 2 25.0486 35.3407 22.532
81 2 21.8639 23.096 37.6642
82 2 7.42105 40.1682 12.7804
83 2 7.61773 18.4309 38.5506
84 2 29.9695 18.3292 24.9523
85 2 22.2623 23.7561 55.4155
86 2 20.1281 20.7194 43.5227
87 2 12.2744 14.5151 18.659
88 2 51.0068 51.3558 26.683
89 2 42.3715 30.1139 52.4557
90 2 13.9885 53.377 34.0558
91 2 22.5147 41.7258 54.0776
92 2 7.41279 46.0679 40.0276
93 2 42.6417 34.3499 43.9811
94 2 31.9852 27.1042 18.1036
95 2 28.5812 42.4749 10.4871
96 2 41.4295 29.4602 40.0639
97 2 26.97 20.7321 22.3364
98 2 7.91418 6.59626 12.6732
99 2 11.2865 43.3381 41.1659
100 2 42.9325 52.5604 37.8302
101 2 16.9371 11.9064 21.5354
102 2 31.8934 34.8015 29.1895
103 2 44.4692 9.07037 14.7597
104 2 7.5762 19.522 55.1718
105 2 49.2947 9.92275 34.0259
106 2 38.3788 27.1751 40.7343
107 2 27.7945 37.388 30.3352
108 2 19.2678 31.9883 11.4661
109 2 51.0971 45.9608 15.5965
110 2 8.79396 12.8895 21.6605
111 2 52.2155 51.6767 19.6747
112 2 19.0151 9.25864 21.6091
113 2 25.5805 29.8159 16.881
114 2 19.1963 38.5015 40.6122
115 2 24.767 36.7104 39.1095
116 2 23.8916 40.3379 12.7877
117 2 12.5535 7.88293 6.92175
118 2 14.5475 24.0981 27.8611
119 2 46.5029 44.1597 16.7322
120 2 55.0019 21.891 34.9966
121 2 46.1425 54.2951 8.15933
122 2 12.0776 38.3569 22.313
123 2 26.1901 43.6368 37.1404
124 2 11.9338 23.2529 21.688
125 2 45.113 8.24664 26.0493
126 2 21.8536 38.1026 13.4239
127 2 48.955 53.2006 54.4742
128 2 34.5265 25.6835 48.1222
129 2 15.0397 16.4531 28.1556
130 2 30.2405 12.3791 10.9965
131 2 40.6918 51.242 29.1938
132 2 13.8143 41.1896 21.2343
133 2 22.0101 23.2028 25.3795
134 2 8.78315 23.5317 7.25247
135 2 16.1011 37.6943 10.5581
136 2 41.9673 39.2756 31.7429
137 2 53.0214 30.7702 40.4799
138 2 29.9148 55.002 46.1268
139 2 40.5041 52.7635 50.2662
140 2 48.5204 22.2788 40.7674
141 2 28.3538 19.0378 42.4329
142 2 11.1163 42.7539 11.4507
143 2 32.3157 6.49014 12.2029
144 2 50.8772 50.2344 48.7585
145 2 24.2158 6.55856 37.0096
146 2 8.96261 45.2602 12.2735
147 2 17.7732 29.57 46.0701
148 2 6.62721 10.1919 15.9396
149 2 15.3373 53.3727 19.3606
150 2 54.5125 24.713 53.9999
151 2 48.5525 27.9755 25.9097
152 2 52.3106 45.5615 42.8849
153 2 53.2472 31.8321 22.7475
154 2 22.4647 8.69469 53.7262
155 2 19.9533 45.7349 33.2254
156 2 17.483 33.0903 25.5657
157 2 15.6219 41.1216 40.7228
158 2 31.878 25.7403 38.9657
159 2 55.6421 45.0156 48.815
160 2 12.5975 54.1563 23.7051
161 2 13.7463 23.2236 18.9537
162 2 26.125 53.6223 33.3229
163 2 27.9948 54.1601 51.6022
164 2 17.6277 40.4533 54.177
165 2 14.9322 15.0294 49.4759
166 2 11.1967 20.5673 16.9844
167 2 8.62244 33.4253 18.9251
168 2 42.1422 45.403 13.0881
169 2 20.0029 23.1144 35.4117
170 2 48.1608 21.6224 35.7692
171 2 54.9964 42.9881 16.4411
172 2 51.0849 14.851 13.3311
173 2 45.4769 11.8324 50.7965
174 2 50.3162 52.92 15.4382
175 2 51.427 22.4928 32.5137
176 2 30.5251 8.91848 8.12784
177 2 32.9245 36.6295 17.2665
178 2 17.6159 29.0469 51.1254
179 2 53.386 32.983 55.0347
180 2 42.163 36.3979 42.0292
181 2 42.9985 11.674 52.9231
182 2 24.2926 21.9735 36.7313
183 2 31.7504 30.1235 38.132
184 2 41.4901 18.2869 33.9639
185 2 20.2088 11.7689 10.5999
186 2 36.8273 54.091 18.6232
187 2 17.2489 30.9036 48.6633
188 2 33.7011 28.8155 55.3125
189 2 38.6688 33.6073 42.3326
190 2 17.3361 18.7563 16.1679
191 2 8.43728 39.6018 30.4054
192 2 21.6115 48.0518 24.5224
193 2 38.6356 22.9744 52.6381
194 2 24.9773 45.9313 39.3767
195 2 37.9022 13.2699 43.315
196 2 15.2185 49.5396 36.2788
197 2 51.6053 48.8547 20.0611
198 2 24.74 11.0203 32.2913
199 2 25.1252 20.9516 27.8063
200 2 40.7527 32.1996 44.6647
201 2 44.0158 26.802 25.465
202 2 11.3153 13.9629 49.1928
203 2 8.3177 24.1949 35.1518
204 2 21.7963 42.2493 35.9732
205 2 7.90378 50.1446 8.6713
206 2 28.7213 8.06057 26.2998
207 2 42.4009 39.5096 55.343
208 2 52.3924 39.2562 34.9339
209 2 39.4496 33.4244 14.0428
210 2 49.4847 7.09723 27.9838
211 2 30.7987 18.0347 14.2481
212 2 26.2094 35.4569 41.8015
213 2 45.991 42.7217 7.06816
214 2 46.2232 8.44428 19.745
215 2 44.3573 26.0626 28.5898
216 2 33.1207 22.7176 26.2804
217 2 38.3884 54.8209 47.0049
218 2 9.57148 20.4319 24.6808
219 2 38.7981 17.8962 32.0121
220 2 7.12128 17.6387 34.4676
221 2 55.3812 25.0045 35.0244
222 2 30.3543 51.0867 24.6935
223 2 15.8229 50.6716 21.402
224 2 49.3854 27.4995 11.2513
225 2 55.763 33.7508 52.808
226 2 28.6857 44.2553 24.3236
227 2 34.556 46.7217 30.2324
228 2 14.5522 40.4823 51.9158
229 2 15.1807 7.23618 43.3518
230 2 13.8607 15.8211 35.5039
231 2 31.5752 21.3154 21.9072
232 2 17.1632 30.13 21.4015
233 2 31.5523 37.852 23.6536
234 2 50.3291 41.8738 44.9123
235 2 35.8894 39.996 49.4238
236 2 18.7591 41.0591 24.6187
237 2 7.21269 30.4258 42.3867
238 2 25.8222 38.6284 15.0921
239 2 55.1103 23.1294 6.9606
240 2 42.3894 49.6273 46.9781
241 2 13.5655 36.4153 48.2687
242 2 14.4742 45.9274 22.1213
243 2 7.5779 53.7924 8.34883
244 2 9.04665 28.8905 17.6096
245 2 29.5233 23.1646 35.6842
246 2 52.4648 18.5092 41.8368
247 2 37.9967 12.2363 27.0963
248 2 39.7375 26.313 48.9913
249 2 32.3278 32.0095 30.6281
250 2 39.3371 55.4459 8.0599
251 2 10.1371 15.2631 20.737
252 2 41.8576 8.9281 44.3411
253 2 50.3329 35.4591 14.0826
254 2 49.1187 15.2049 43.9422
255 2 16.4361 34.0763 22.935
256 2 49.432 20.8281 11.1434
257 2 53.4793 6.28319 44.7657
258 2 54.9288 27.762 42.9631
259 2 40.4364 25.5862 22.6803
260 2 21.5905 38.1196 6.49559
261 2 43.828 32.9198 28.9558
262 2 34.5535 53.3977 9.03007
263 2 7.41138 34.2345 10.6302
264 2 41.8019 9.31253 19.2288
265 2 17.7132 30.2614 13.8662
266 2 44.8573 6.23084 48.0042
267 2 41.2376 43.6224 6.25604
268 2 44.3226 31.3221 9.72773
269 2 11.0539 6.85769 23.1326
270 2 22.5076 49.0897 51.7237
271 2 50.1508 49.8573 51.7605
272 2 44.218 15.7071 36.4123
273 2 10.746 36.1649 52.0409
274 2 22.7783 35.9215 30.9906
275 2 37.175 52.3792 51.2786
276 2 49.4384 23.7959 38.2826
277 2 33.2491 31.2307 33.7282
278 2 51.0148 23.0526 22.061
279 2 37.5343 40.7961 6.52543
280 2 20.167 15.4276 29.6441
281 2 17.622 14.9588 27.6973
282 2 17.5584 16.8014 37.8057
283 2 20.3731 22.15 16.4876
284 2 51.7679 49.0279 44.6528
285 2 33.8779 43.72 39.6685
286 2 10.338 13.0397 28.8849
287 2 42.3711 19.6899 14.2812
288 2 41.5258 22.4802 18.2949
289 2 11.6687 8.22815 53.5576
290 2 42.6652 20.3544 11.0623
291 2 54.8644 49.9526 34.1461
292 2 44.7263 47.6349 18.7271
293 2 11.9322 8.33224 28.792
294 2 48.8537 24.6245 29.2461
295 2 21.5932 17.2785 6.55223
296 2 7.61276 49.2382 25.582
297 2 20.1849 45.2427 26.4521
298 2 42.3149 11.7879 28.5587
299 2 22.1288 41.1611 38.9613
300 2 29.0227 52.0398 53.4161
301 2 25.8124 42.2021 11.2624
302 2 36.2845 48.2849 49.7415
303 2 12.9907 10.0502 49.4888
304 2 21.0172 11.6836 42.3893
305 2 18.1303 48.8861 32.7999
306 2 36.0633 29.8688 51.5365
307 2 15.4093 12.0716 43.6745
308 2 8.86652 42.7718 43.2707
309 2 27.5139 47.3963 40.5701
310 2 47.749 7.2552 13.0155
311 2 52.7079 19.2514 30.4414
312 2 32.6129 7.47428 35.1338
313 2 15.3007 38.8302 27.7955
314 2 32.8517 49.9002 13.4997
315 2 42.383 34.0189 31.9437
316 2 39.9222 46.2389 29.61
317 2 33.0965 7.80239 28.4389
318 2 6.16528 50.3144 39.0265
319 2 46.9493 36.0734 43.9254
320 2 41.9549 20.0672 42.2258
321 2 36.2066 6.55651 16.6777
322 2 52.0373 22.4207 8.169
323 2 36.9642 16.314 16.8649
324 2 34.479 45.9078 33.6218
325 2 15.5087 37.8228 43.3959
326 2 9.89968 41.8035 36.2352
327 2 25.0441 47.1074 48.2689
328 2 9.16089 37.3303 32.044
329 2 32.2895 53.1463 39.0357
330 2 25.7499 39.5602 30.8499
331 2 40.3769 9.92209 32.259
332 2 35.0866 6.86342 24.1137
333 2 7.36922 29.8211 46.965
334 2 6.25909 13.4016 48.5774
335 2 35.9651 51.9217 44.8756
336 2 18.2677 46.5224 42.3967
337 2 13.0915 23.256 7.76655
338 2 46.6018 15.4188 14.5449
339 2 25.2216 14.5544 31.2389
340 2 47.3177 29.9849 43.0869
341 2 52.275 54.6145 8.73064
342 2 33.947 45.5214 46.0799
343 2 34.6003 18.2124 24.7143
344 2 47.0662 48.2742 46.0156
345 2 54.6443 54.9311 20.133
346 2 45.2841 51.9545 9.88563
347 2 48.473 24.2522 7.78671
348 2 33.5797 33.4264 8.24438
349 2 15.5893 41.6764 13.3123
350 2 25.8832 7.14113 7.56564
351 2 40.8688 41.7939 13.5005
352 2 17.9003 47.3488 47.4761
353 2 18.114 27.3304 19.9645
354 2 34.9655 9.89571 12.5492
355 2 10.4731 30.8518 36.5182
356 2 32.269 27.5052 10.363
357 2 17.1067 36.9015 6.21513
358 2 40.8058 19.8238 8.27844
359 2 53.8552 18.9112 51.1354
360 2 55.2572 30.5941 20.2674
361 2 32.8995 50.1471 53.3528
362 2 10.8584 46.6597 16.8813
363 2 31.7871 7.71929 30.8926
364 2 10.221 30.778 31.6783
365 2 10.9716 6.81865 44.1
366 2 54.514 40.0925 50.1284
367 2 38.3767 29.1795 18.5344
368 2 9.53319 26.1357 45.4567
369 2 13.2552 29.115 47.0717
370 2 47.3357 10.2656 25.3222
371 2 50.406 25.8174 22.2779
372 2 49.2563 44.4917 31.9331
373 2 10.761 33.3291 41.2454
374 2 28.0541 28.8357 50.2794
375 2 19.2841 14.6344 17.9641
376 2 19.451 52.5137 34.8094
377 2 52.2726 43.3165 19.8308
378 2 12.283 33.4196 52.2971
379 2 9.24434 18.2643 46.2838
380 2 44.5662 33.9734 39.2548
381 2 51.998 42.0718 27.8793
382 2 6.71307 19.6354 12.8997
383 2 47.765 52.7877 29.9659
384 2 6.29523 27.2638 48.963
385 2 49.3152 19.4618 19.4456
386 2 32.0927 29.7208 53.062
387 2 35.6761 26.4123 54.3307
388 2 50.3864 7.40806 30.5398
389 2 6.78285 21.6821 25.0424
390 2 53.1817 30.6657 9.59084
391 2 53.8065 26.309 29.8823
392 2 42.5655 23.7346 54.1162
393 2 27.8073 41.8713 31.774
394 2 11.5332 27.3106 20.4515
395 2 20.7403 48.3086 32.0118
396 2 28.2207 53.5099 23.2692
397 2 50.8159 51.3516 30.7089
398 2 19.0359 26.6582 53.906
399 2 24.2514 21.5565 49.2714
400 2 6.24474 35.8474 30.8912
401 2 51.43 10.0922 13.0944
402 2 37.3259 50.0072 53.6594
403 2 48.8463 23.4867 33.6294
404 2 13.7839 46.2474 27.8404
405 2 9.4361 42.1932 19.0921
406 2 17.4175 22.6523 21.5159
407 2 22.0597 32.85 38.7728
408 2 26.509 46.6259 29.5168
409 2 38.2501 29.4252 28.7465
410 2 42.7826 6.86457 53.0353
411 2 9.25641 39.4393 43.727
412 2 17.3504 15.3391 32.4488
413 2 46.7235 29.4669 38.5237
414 2 35.943 19.8028 50.9058
415 2 44.2601 8.95425 51.7538
416 2 35.7259 9.13511 18.6752
417 2 53.9088 53.4896 11.1927
418 2 55.2638 38.4535 22.1114
419 2 26.9599 11.4837 46.6762
420 2 7.37226 46.8074 14.5204
421 2 14.7257 30.2703 54.9562
422 2 26.7979 29.49 41.2069
423 2 32.3583 52.6511 36.2111
424 2 35.8266 31.6666 38.4774
425 2 50.0625 17.85 26.7283
426 2 11.8997 49.8042 16.655
427 2 18.6263 46.6947 7.62433
428 2 51.7376 47.5128 6.87259
429 2 11.8728 46.1024 33.9145
430 2 35.288 21.3553 55.3312
431 2 13.6179 36.5594 29.4275
432 2 11.3923 14.7283 7.84764
433 2 10.906 42.1759 16.6781
434 2 49.2066 12.7348 21.3651
435 2 16.532 9.71376 43.6247
436 2 46.4793 35.1235 12.1012
437 2 10.4546 37.0572 43.0428
438 2 29.1454 24.8171 53.2964
439 2 7.93415 15.0513 17.743
440 2 45.6802 55.4176 17.2794
441 2 23.2667 9.59971 30.3599
442 2 30.5981 45.6012 32.0419
443 2 41.0897 54.2083 45.404
444 2 19.9151 17.5902 14.305
445 2 37.065 34.4526 54.8667
446 2 44.6344 35.4454 22.3239
447 2 15.3883 52.575 37.7941
448 2 55.0244 40.6615 34.284
449 2 17.9315 7.03176 6.54958
450 2 11.9907 27.6796 43.6975
451 2 43.667 23.6741 7.43936
452 2 32.8363 12.8411 48.3034
453 2 8.84345 54.9369 42.8365
454 2 27.889 42.3711 15.3704
455 2 35.7059 35.0672 16.7305
456 2 13.4639 9.25409 22.6533
457 2 10.5587 34.8615 30.728
458 2 30.7128 7.12879 14.848
459 2 39.2952 42.4511 22.2338
460 2 44.7849 54.3831 54.077
461 2 18.7994 8.19655 27.4963
462 2 10.3179 22.3317 36.7946
463 2 39.1381 54.2286 13.7247
464 2 18.7485 8.24253 18.7463
465 2 41.5223 34.5534 53.5545
466 2 21.163 27.4049 27.0677
467 2 6.55003 52.5308 34.9612
468 2 28.1255 39.3147 13.8194
469 2 39.7042 39.0621 13.5035
470 2 31.8336 35.2991 26.0808
471 2 27.2566 39.2744 23.4105
472 2 25.2445 8.82612 27.9174
473 2 36.9265 49.8002 47.1159
474 2 54.919 9.63604 36.0531
475 2 26.4589 14.8487 12.9734
476 2 52.2822 10.079 34.4085
477 2 21.9311 21.005 33.7694
478 2 11.3608 19.7118 36.8909
479 2 24.8335 41.4901 40.4072
480 2 9.52041 49.7726 47.5003
481 2 8.00364 16.126 47.9922
482 2 17.9371 55.3564 34.3614
483 2 44.7501 9.76883 32.7506
484 2 34.0966 50.7502 21.042
485 2 55.2718 46.1893 22.7468
486 2 33.3377 23.3172 15.3822
487 2 18.6058 39.7833 10.3198
488 2 46.0672 46.3248 38.7995
489 2 42.1097 18.0921 18.7765
490 2 24.3526 25.7468 28.3509
491 2 23.3858 16.9769 21.264
492 2 23.218 55.3878 52.8102
493 2 29.8015 11.6969 7.84135
494 2 38.898 42.9825 18.5438
495 2 50.4601 41.2585 55.1885
496 2 34.2912 43.7524 36.4676
497 2 41.6894 8.88324 15.8367
498 2 6.33127 35.5429 25.2648
499 2 40.9725 32.5002 6.42034
500 2 45.539 50.6263 48.2209
501 2 53.4416 12.4478 35.7654
502 2 20.568 25.584 44.4689
503 2 10.8904 38.214 10.6673
504 2 14.0568 7.48543 26.8615
505 2 10.418 10.2896 21.5578
506 2 53.8992 47.6929 51.5849
507 2 9.30962 48.1467 33.428
508 2 39.2528 23.4084 12.2561
509 2 52.4754 28.2437 11.0522
510 2 30.5759 51.407 7.81866
511 2 16.1337 27.0752 42.3324
512 2 36.0976 43.6185 28.5575
513 2 20.8505 46.4095 11.1741
514 2 37.9265 7.24853 19.4908
515 2 23.8469 19.3173 40.9567
516 2 30.2713 9.79323 38.1504
517 2 19.0286 12.6197 32.893
518 2 17.7137 20.5997 33.0435
519 2 22.5965 38.148 42.9023
520 2 32.2194 7.97839 48.752
521 2 49.4503 27.1909 8.48888
522 2 17.7497 35.2011 49.4667
523 2 13.6174 37.2724 25.3335
524 2 28.993 41.9206 21.6956
525 2 34.633 38.5869 28.6578
526 2 19.3027 53.8027 8.09187
527 2 36.3513 15.9334 20.9078
528 2 52.6861 15.2918 32.7603
529 2 27.241 23.3504 41.0271
530 2 33.6321 27.5732 41.0462
531 2 54.1311 8.66474 20.5051
532 2 22.5471 51.1625 55.7403
533 2 13.2555 36.2882 14.2493
534 2 11.1117 25.071 17.8617
535 2 46.0855 29.2537 25.1355
536 2 39.3381 11.7446 47.6872
537 2 49.4416 43.238 47.2625
538 2 10.7371 35.5832 47.4071
539 2 46.2892 39.4852 47.6259
540 2 29.6142 20.1458 53.447
541 2 42.37 42.684 39.9826
542 2 14.7146 23.1979 37.2104
543 2 24.4621 23.7082 21.4606
544 2 18.279 42.9177 9.99451
545 2 8.31708 33.3203 44.7171
546 2 15.861 14.1646 29.935
547 2 54.0986 18.2742 32.8183
548 2 41.635 13.1714 24.3757
549 2 40.2769 52.1607 21.4683
550 2 33.8098 40.7406 26.9065
551 2 48.158 42.6727 14.3344
552 2 29.916 41.6258 48.1699
553 2 6.85049 25.8962 25.8526
554 2 50.6282 23.3935 55.2884
555 2 23.9726 22.0146 18.1868
556 2 14.6439 16.2577 18.9352
557 2 51.0624 33.4777 20.5374
558 2 46.023 39.0036 15.9222
559 2 27.3121 21.7676 50.9127
560 2 13.7021 50.8158 55.7504
561 2 46.8255 30.0427 27.7926
562 2 51.4523 29.628 19.4707
563 2 16.8706 9.90982 46.8684
564 2 18.901 36.4798 10.0803
565 2 39.4473 14.2362 14.8162
566 2 34.7515 51.5046 55.7259
567 2 6.77273 10.884 25.1145
568 2 25.9325 17.1336 25.6564
569 2 37.0493 41.8111 51.7729
570 2 30.3861 38.1151 20.6323
571 2 44.4865 28.8341 13.1704
572 2 40.4234 15.626 8.29532
573 2 24.8968 28.9156 51.3471
574 2 21.4434 16.9696 49.5905
575 2 17.2002 33.3244 7.41866
576 2 16.6117 18.0935 21.1026
577 2 18.6604 28.4402 35.7262
578 2 6.31622 24.0797 43.189
579 2 11.0958 46.9038 50.4765
580 2 6.51557 20.7301 21.3507
581 2 7.33447 33.0436 14.0864
582 2 29.8944 15.3129 7.11704
583 2 51.2331 28.4327 45.8776
584 2 36.8977 44.3616 25.5316
585 2 31.8724 28.5119 13.1817
586 2 52.5617 53.6263 46.1785
587 2 38.494 12.2882 54.8009
588 2 19.8779 14.8039 14.9811
589 2 24.4019 6.49033 10.4943
590 2 27.9624 48.2022 21.3831
591 2 32.5413 20.3246 28.8148
592 2 42.3025 42.8583 29.2842
593 2 9.39174 12.1911 51.3185
594 2 21.0205 34.0357 54.9832
595 2 34.4204 33.7187 25.0775
596 2 28.4271 47.5462 37.2218
597 2 25.4584 19.4883 51.0217
598 2 22.7033 41.6475 20.7388
599 2 26.4596 35.6243 51.6547
600 2 53.0618 22.1955 14.0506
601 2 28.413 11.7104 40.2566
602 2 32.5519 37.7829 10.4399
603 2 17.9851 25.9336 38.3252
604 2 34.0956 32.5945 11.2079
605 2 46.0847 7.32099 34.0212
606 2 10.3629 7.30655 32.8236
607 2 25.0272 11.8355 42.9987
608 2 43.9246 46.777 53.4832
609 2 32.3819 37.2377 39.6458
610 2 15.9247 31.2245 37.1684
611 2 37.568 52.1149 23.2575
612 2 8.29827 27.6522 51.8406
613 2 54.4921 15.1245 45.4046
614 2 36.9842 39.0087 14.6526
615 2 55.7211 53.5117 42.6114
616 2 47.5907 40.252 54.9962
617 2 54.5305 45.8366 12.3229
618 2 50.0207 40.3627 10.6194
619 2 16.6461 44.4586 36.2416
620 2 22.1979 23.2815 50.9474
621 2 15.123 33.2426 40.7296
622 2 32.3254 53.9187 44.12
623 2 14.9047 52.1391 51.1532
624 2 19.3589 33.12 38.2983
625 2 40.6635 12.8034 36.4609
626 2 12.153 16.5501 38.2052
627 2 42.5119 34.5496 24.9674
628 2 45.1691 38.7533 53.8465
629 2 55.3316 35.5273 15.003
630 2 8.10838 16.0637 32.2532
631 2 39.8089 49.655 40.8682
632 2 16.5481 55.363 30.2863
633 2 46.7945 35.7483 35.5306
634 2 37.7968 19.3232 24.029
635 2 16.1478 35.0701 11.2184
636 2 37.3164 16.1927 7.88858
637 2 22.4837 32.7618 20.2486
638 2 25.8172 16.9577 29.9773
639 2 53.8891 16.8614 28.0718
640 2 21.5963 43.7373 18.6294
641 2 13.2649 7.84422 13.5747
642 2 23.392 15.8148 53.6705
643 2 30.9234 44.0611 29.117
644 2 21.2086 41.0898 23.0349
645 2 25.368 26.3634 19.975
646 2 12.1517 51.3623 48.5604
647 2 8.39269 7.38183 15.8149
648 2 12.6387 27.3411 11.5386
649 2 48.7476 46.4311 48.0922
650 2 34.3939 26.8645 29.3936
651 2 48.835 35.8058 46.1137
652 2 50.092 35.1949 8.70393
653 2 32.9488 19.3331 16.0403
654 2 38.8926 39.5863 42.7113
655 2 46.0808 30.5024 14.3451
656 2 32.7944 28.2558 33.189
657 2 31.5865 30.6222 41.3652
658 2 37.4848 16.4406 38.7024
659 2 19.9031 27.5703 14.3257
660 2 48.3769 20.2752 29.9364
661 2 27.5384 10.9154 31.4217
662 2 7.96039 30.2222 24.3348
663 2 44.4443 22.7656 31.2209
664 2 19.6312 38.528 29.0205
665 2 50.6408 53.6887 34.6818
666 2 55.2454 42.6729 6.61357
667 2 24.4698 36.2474 28.1597
668 2 42.6205 26.6006 16.5567
669 2 33.3252 13.329 43.1745
670 2 29.6897 37.7783 41.3349
671 2 7.39698 31.5456 16.6901
672 2 51.1922 54.437 26.8308
673 2 12.6809 13.1185 27.1069
674 2 43.9793 40.4607 17.6099
675 2 25.858 52.6049 50.0109
676 2 23.0637 10.2347 49.6561
677 2 28.3245 40.1789 34.9226
678 2 36.1388 12.0088 39.9127
679 2 47.6284 12.3753 35.0551
680 2 12.1682 18.1798 52.8375
681 2 45.7962 11.2498 18.1688
682 2 32.165 37.3563 46.7888
683 2 11.2808 34.2084 17.3197
684 2 55.3033 8.42159 50.5147
685 2 16.8627 21.2518 14.0037
686 2 39.6096 32.1304 32.0997
687 2 28.2455 27.3459 36.916
688 2 52.1434 14.5746 10.0394
689 2 34.7763 38.5279 53.5207
690 2 27.8592 53.5201 44.3529
691 2 12.621 42.7082 48.2165
692 2 12.6901 34.2997 24.657
693 2 36.7758 16.234 34.0531
694 2 42.7356 12.3409 18.9485
695 2 10.4327 22.6418 52.7806
696 2 23.4317 40.3728 26.7319
697 2 37.9743 20.9689 35.9406
698 2 33.4671 44.8576 13.4732
699 2 34.3284 48.5298 10.9016
700 2 36.8848 32.1363 45.2198
701 2 44.1024 41.0906 14.3953
702 2 54.0142 12.8266 51.0271
703 2 36.0961 46.5966 27.8061
704 2 14.5857 16.8638 12.0367
705 2 40.9328 34.967 8.66843
706 2 10.9328 39.4822 15.7808
707 2 49.4066 16.281 31.0981
708 2 52.7986 30.375 31.6649
709 2 13.1523 53.5257 55.0141
710 2 39.1326 26.7022 12.6476
711 2 55.3544 35.9431 35.3806
712 2 13.6621 17.8458 55.369
713 2 20.1609 35.3602 17.5447
714 2 50.6534 17.5116 23.7986
715 2 44.1823 18.8001 30.1415
716 2 20.4746 40.8192 6.24542
717 2 9.65314 11.9324 39.0508
718 2 48.2392 29.0324 50.205
719 2 7.45698 44.7582 52.5456
720 2 25.1042 27.1799 41.9745
721 2 41.2591 46.0717 36.249
722 2 47.8143 46.0252 20.7298
723 2 50.6853 32.3656 13.8712
724 2 20.4281 7.67092 34.4063
725 2 47.2922 34.7381 26.5296
726 2 36.283 40.0734 46.2026
727 2 55.5594 43.0241 36.8651
728 2 32.7911 6.35924 9.17651
729 2 28.7821 34.3747 29.5649
730 2 37.7632 19.5483 6.70676
731 2 16.5402 24.8371 35.5406
732 2 25.4618 38.0853 10.5708
733 2 19.9829 42.6556 33.6437
734 2 21.745 25.4043 35.3523
735 2 48.4436 10.9845 7.40695
736 2 45.0771 54.3242 50.6513
737 2 10.2 30.3361 48.2571
738 2 44.9899 44.1555 19.5371
739 2 25.949 33.0731 53.3265
740 2 13.1146 40.1985 17.7576
741 2 9.85908 6.58739 7.62204
742 2 44.941 20.5078 41.7383
743 2 14.4848 53.5711 43.5337
744 2 13.6488 33.0772 38.0178
745 2 38.3379 47.6602 22.9899
746 2 51.7252 12.6419 25.4397
747 2 34.5779 6.35909 45.1353
748 2 47.0865 21.0397 46.4448
749 2 45.0418 17.3651 43.6731
750 2 18.262 30.3828 39.7385
751 2 49.7615 41.5665 41.546
752 2 49.3089 43.2257 27.6591
753 2 35.3396 46.0765 9.59428
754 2 24.5017 42.1891 31.4048
755 2 50.6541 54.2227 30.0216
756 2 37.8172 39.2914 21.0545
757 2 47.7944 41.6391 38.9804
758 2 13.6279 17.1254 43.238
759 2 41.573 31.0618 10.5959
760 2 22.9746 12.1262 39.8541
761 2 18.3981 31.938 51.4847
762 2 8.41241 35.9185 27.0865
763 2 52.9982 55.7559 31.534
764 2 45.2859 8.82747 7.29201
765 2 42.2381 27.2621 12.4071
766 2 53.3817 21.5097 21.7731
767 2 29.8089 34.1122 13.9757
768 2 12.1046 29.808 29.7173
769 2 31.5854 41.3973 17.8161
770 2 49.8337 15.3808 52.8998
771 2 47.962 20.2079 27.1156
772 2 27.6322 42.4749 26.6251
773 2 6.55579 55.3877 46.3819
774 2 52.2776 18.5978 45.2274
775 2 40.8797 15.7437 45.2745
776 2 7.42907 47.6938 37.6443
777 2 12.6756 8.94931 10.2429
778 2 46.2864 17.9357 52.779
779 2 41.2713 9.91598 35.8315
780 2 35.5454 36.8799 40.1854
781 2 40.7888 29.7995 30.1718
782 2 14.6507 33.7817 27.2333
783 2 37.0991 27.5497 47.5574
784 2 45.0338 34.6704 18.9398
785 2 43.663 52.4814 6.8814
786 2 13.5839 39.352 36.6994
787 2 46.072 7.91934 10.5924
788 2 53.3205 16.3543 17.2094
789 2 18.6888 17.6465 47.0074
790 2 34.3232 46.2663 38.4677
791 2 37.0725 9.58301 27.2375
792 2 38.4432 54.3797 38.793
793 2 39.7466 8.79464 48.4786
794 2 30.6464 53.4903 12.4875
795 2 44.3107 7.7921 43.6086
796 2 40.0163 40.9309 25.2087
797 2 36.5693 36.4671 28.3412
798 2 54.9092 55.4116 6.78464
799 2 30.6007 50.7321 38.9757
800 2 21.7103 46.5384 29.0365
801 2 44.7071 44.319 36.3514
802 2 33.0577 44.7726 31.1885
803 2 26.1801 31.6652 19.5221
804 2 50.2509 17.226 6.81369
805 2 55.7353 42.4956 26.029
806 2 18.1107 52.2707 30.0006
807 2 40.4343 49.528 26.8632
808 2 44.6187 40.379 29.3741
809 2 22.9115 15.2199 39.0683
810 2 22.1797 28.441 38.633
811 2 24.7015 20.1942 7.67387
812 2 48.1599 15.5849 26.0862
813 2 20.2361 34.3503 25.4503
814 2 20.6339 24.6855 18.5381
815 2 20.3861 12.1746 16.3742
816 2 33.5641 52.6873 50.8193
817 2 15.4204 34.319 47.5009
818 2 53.5288 26.984 13.4889
819 2 48.6995 29.7826 21.1912
820 2 17.8467 53.1581 17.813
821 2 34.3521 24.5648 10.9184
822 2 7.11842 39.8128 47.9036
823 2 23.3457 9.83709 23.1028
824 2 36.51 22.7703 21.3883
825 2 47.0449 25.1593 44.2323
826 2 46.1693 48.1605 22.7855
827 2 15.7386 9.62642 28.0628
828 2 31.2682 30.0549 49.9841
829 2 54.4299 23.4283 18.0781
830 2 8.76866 52.5313 10.4635
831 2 51.8313 30.0818 28.7546
832 2 32.0399 15.3826 45.8839
833 2 22.1337 49.7549 34.7566
834 2 48.0188 52.125 48.2141
835 2 54.2069 8.92474 12.207
836 2 30.6442 31.5127 35.6528
837 2 45.0437 23.1572 40.3104
838 2 11.0094 29.7374 13.0797
839 2 13.7574 12.3284 41.1046
840 2 42.605 12.088 33.8873
841 2 28.1384 46.2313 47.7454
842 2 55.4236 47.3575 46.3759
843 2 53.8749 38.3735 54.3965
844 2 51.2297 26.2037 26.4414
845 2 17.361 55.3466 44.8737
846 2 24.5086 23.1768 8.1148
847 2 48.6017 13.2947 24.1717
848 2 24.1709 14.3273 48.8729
849 2 17.4434 49.3057 9.22661
850 2 11.3629 47.953 28.4793
851 2 41.7463 42.9966 26.0456
852 2 15.8977 26.5863 8.4733
853 2 43.3469 13.609 44.9799
854 2 12.6767 8.25145 35.9195
855 2 33.9637 10.036 30.41
856 2 11.8037 45.7874 41.8728
857 2 13.508 39.0385 9.12682
858 2 26.3994 7.98248 48.955
859 2 12.964 53.5313 41.0013
860 2 30.975 55.0379 41.4045
861 2 45.576 18.0113 16.5194
862 2 14.9877 29.4864 25.4293
863 2 16.7113 31.4611 32.2032
864 2 28.6607 6.2594 55.3344
865 2 16.9058 48.992 12.2144
866 2 13.8404 23.6341 44.4352
867 2 11.8344 49.3669 19.9326
868 2 36.6752 54.7352 21.7815
869 2 34.8229 48.009 25.124
870 2 18.5855 35.0307 53.2167
871 2 8.45587 25.1228 41.5539
872 2 45.956 51.3653 33.3818
873 2 21.636 39.1187 45.5816
874 2 52.8115 42.632 40.6951
875 2 34.6717 54.9753 12.8839
876 2 45.8932 45.2189 45.2939
877 2 29.4615 14.2063 24.4558
878 2 29.7914 27.8075 52.4306
879 2 21.8319 19.5556 38.3659
880 2 20.2323 45.6906 36.2476
881 2 11.7044 52.8118 51.2603
882 2 27.4349 52.0575 6.53628
883 2 9.59812 17.3892 7.35052
884 2 31.9215 15.0046 50.2605
885 2 23.3302 16.0934 41.9962
886 2 18.8721 31.9065 42.4106
887 2 48.5688 17.2145 16.3996
888 2 43.7399 43.2796 10.7648
889 2 42.233 49.4094 18.8545
890 2 46.9541 22.5507 29.3577
891 2 49.4011 25.8657 36.0976
892 2 48.2126 11.2835 42.6752
893 2 46.1049 53.435 46.407
894 2 50.2253 45.9414 24.3944
895 2 39.7807 7.05424 36.6061
896 2 36.8348 51.1923 30.6622
897 2 27.7308 48.8142 14.9891
898 2 15.5757 8.945 6.61098
899 2 55.3063 8.3483 43.2162
900 2 49.0817 18.1916 42.4223
901 2 55.6752 14.6837 36.4917
902 2 9.49965 27.5578 39.8916
903 2 46.1869 15.6902 7.83538
904 2 28.663 47.836 27.5612
905 2 54.4038 45.7025 27.595
906 2 20.1056 27.7672 51.3044
907 2 24.677 12.9666 35.812
908 2 43.2943 36.4411 8.46005
909 2 55.727 35.2536 18.3906
910 2 34.2596 30.0901 45.4788
911 2 32.7936 44.6028 8.79123
912 2 7.27205 24.8706 30.2927
913 2 28.6882 46.6747 34.3304
914 2 35.2523 50.0273 17.2972
915 2 16.0892 14.7798 8.02382
916 2 17.7225 40.9846 44.5964
917 2 38.6065 32.55 18.4874
918 2 12.2235 29.5372 52.112
919 2 21.2116 49.5634 46.1134
920 2 49.3089 27.1668 39.381
921 2 28.3497 8.97362 33.6388
922 2 10.9412 22.3035 44.0131
923 2 45.8425 23.0946 22.2759
924 2 44.9542 31.9142 52.9303
925 2 7.18293 41.923 51.5234
926 2 43.9393 15.3508 15.9008
927 2 30.0068 18.7538 35.0301
928 2 31.6298 10.5567 31.6681
929 2 28.3091 31.0897 23.7422
930 2 29.1093 19.9303 18.1439
931 2 27.0542 11.5907 28.1788
932 2 19.3978 22.7602 7.7587
933 2 39.7014 51.771 47.2506
934 2 25.2326 29.3444 44.4755
935 2 28.4703 39.836 38.9945
936 2 12.9997 54.6472 36.7742
937 2 28.1156 26.4097 7.31353
938 2 15.2202 29.2895 9.81683
939 2 8.11651 21.393 27.4699
940 2 23.2061 34.0132 44.5161
941 2 23.8616 22.5088 43.9082
942 2 55.4355 53.8751 13.5635
943 2 26.9219 44.1133 52.3684
944 2 51.9583 32.095 42.9974
945 2 31.9717 40.8878 15.0957
946 2 37.7427 35.8833 32.4622
947 2 34.3812 13.2277 33.6153
948 2 29.2553 6.86852 35.2591
949 2 22.5807 27.8415 33.8102
950 2 50.1373 46.5124 36.4483
951 2 29.8845 6.75083 19.7177
952 2 36.6391 41.381 26.6831
953 2 11.7142 6.21654 16.0339
954 2 25.0578 50.8288 24.5995
955 2 9.58353 16.1495 39.9648
956 2 47.3578 26.9457 28.6487
957 2 33.2463 7.63938 38.5069
958 2 35.8329 54.7213 35.5952
959 2 26.3036 53.2125 9.41702
960 2 35.2689 47.4206 44.0294
961 2 48.8416 42.9378 34.7496
962 2 36.5391 43.583 43.3302
963 2 25.3991 9.8403 50.9708
964 2 32.1587 53.2088 33.1096
965 2 31.5709 39.5196 34.2549
966 2 12.6889 37.0918 35.1608
967 2 36.8279 34.0624 35.2444
968 2 39.2909 43.5936 29.5679
969 2 21.4478 42.6323 13.0101
970 2 35.7692 29.8048 11.1052
971 2 54.5211 33.6638 28.8166
972 2 40.5915 40.0225 53.1841
973 2 50.7529 38.3914 51.9397
974 2 32.395 24.2429 18.4067
975 2 15.3498 48.9245 28.9465
976 2 22.3644 30.6548 34.9524
977 2 22.1674 31.4609 12.2909
978 2 28.192 43.4389 49.9227
979 2 22.8972 44.6808 21.2261
980 2 24.3276 19.4298 20.2507
981 2 45.547 37.171 49.0348
982 2 17.7256 34.835 18.9137
983 2 52.7924 15.6639 24.2026
984 2 19.2493 24.8704 33.241
985 2 27.8387 34.5597 46.5024
986 2 40.4145 25.5092 26.829
987 2 14.5905 26.1949 37.963
988 2 15.4769 19.1255 46.7111
989 2 35.2908 19.0158 29.8483
990 2 22.0821 40.4138 49.1463
991 2 44.0445 25.2162 18.701
992 2 36.8273 14.0477 46.2804
993 2 45.2942 32.1471 41.3882
994 2 42.6645 24.6597 41.1422
995 2 10.6515 37.5165 26.2785
996 2 9.11065 31.9275 9.31377
997 2 31.1844 22.0971 16.6181
998 2 37.2936 32.488 25.4902
999 2 35.5695 16.543 47.0932
1000 2 48.5046 19.368 22.5918
1001 2 48.2465 54.9246 33.9004
1002 2 40.8398 51.7906 12.2717
1003 2 30.8284 46.6456 46.3211
1004 2 12.5847 11.0646 25.1429