ITEM: TIMESTEP
0
ITEM: NUMBER OF ATOMS
9088
ITEM: BOX BOUNDS xy xz yz pp pp pp
6.0745000978218497e+00 5.5856437694269829e+01 -5.7115547402015092e-15
6.0745000978218551e+00 5.5856437694269829e+01 0.0000000000000000e+00
6.0745000978218551e+00 5.5856437694269829e+01 0.0000000000000000e+00
ITEM: ATOMS id type x y z
1 2 28.5027 39.4603 37.7893
2 2 49.8066 28.4185 54.8897
3 2 38.0693 50.3558 45.5839
4 2 11.3427 34.2321 52.5382
5 2 8.34001 24.5275 53.4122
6 2 30.0898 18.6052 27.0071
7 2 11.5796 28.9477 44.4423
8 2 22.1336 49.6988 40.1617
9 2 53.2029 12.4784 52.5764
10 2 46.73 9.16771 54.5998
11 2 24.115 50.1702 49.9111
12 2 50.059 14.7647 20.4964
13 2 8.2877 38.1119 24.5828
14 2 43.8722 20.5376 54.9634
15 2 38.465 49.4809 20.2162
16 2 32.4768 7.45233 27.0037
17 2 11.7095 27.4183 30.972
18 2 29.1594 14.2953 54.9356
19 2 12.1958 22.3651 49.364
20 2 13.6684 23.8437 39.952
21 2 18.3942 10.0443 17.9601
22 2 23.5507 13.4266 36.6029
23 2 19.7255 27.0982 30.2402
24 2 52.1979 31.0636 42.4959
25 2 36.0941 34.6364 22.1904
26 2 37.6711 48.3079 29.2387
27 2 26.8449 41.6375 15.0684
28 2 42.4247 35.0976 51.7442
29 2 14.4785 6.5875 31.2542
30 2 9.62479 51.1136 20.3866
31 2 34.4464 38.668 9.6282
32 2 53.9647 34.0856 46.8696
33 2 53.5167 51.5373 37.0033
34 2 32.482 25.757 33.3339
35 2 26.2033 27.0975 11.9532
36 2 34.9381 43.3636 53.5004
37 2 32.5871 39.0252 41.8168
38 2 18.0888 46.4143 20.024
39 2 26.5767 51.8131 50.432
40 2 20.8905 29.4173 18.7816
41 2 45.5327 38.4377 35.6943
42 2 15.6836 44.8787 39.4478
43 2 12.8905 35.9387 41.9385
44 2 23.4506 22.8413 20.4753
45 2 18.5141 14.6634 9.39769
46 2 39.1845 52.3534 53.2746
47 2 9.86105 42.2659 32.8976
48 2 25.0137 14.8167 23.5055
49 2 23.0455 33.6054 50.1275
50 2 44.772 11.3112 18.453
51 2 19.4772 21.259 53.1281
52 2 19.5742 20.3455 13.282
53 2 11.5073 26.8556 6.89572
54 2 38.6313 44.4455 20.0786
55 2 9.84741 13.4309 50.4626
56 2 43.0894 34.2813 8.64757
57 2 45.567 21.4348 42.9383
58 2 46.57 27.1224 50.403
59 2 10.5878 38.637 46.7669
60 2 45.9212 19.1151 12.9593
61 2 26.966 21.8937 27.5339
62 2 19.4764 29.4908 37.9635
63 2 48.0858 30.2459 9.84241
64 2 13.5311 26.8571 48.1354
65 2 36.863 19.3417 45.67
66 2 36.1613 52.676 23.6652
67 2 53.756 38.2664 15.2811
68 2 45.4436 10.3769 49.0921
69 2 22.9507 33.3211 24.6861
70 2 52.4705 29.5524 53.2915
71 2 12.983 29.3693 28.8153
72 2 29.4908 28.3375 47.4147
73 2 47.2582 29.2793 14.1482
74 2 20.6116 38.7558 18.4236
75 2 47.2226 53.2473 26.4419
76 2 48.7921 31.804 14.3044
77 2 23.8354 53.1673 23.6427
78 2 36.967 14.4241 49.9681
79 2 43.5589 49.7428 25.216
80 2 32.803 44.0189 55.6326
81 2 29.4961 31.9379 20.4891
82 2 14.5834 49.0604 45.3095
83 2 15.0053 27.2332 21.8981
84 2 37.4426 27.1095 7.54736
85 2 29.8379 32.6047 38.9705
86 2 27.4142 29.5268 26.5769
87 2 20.3775 28.2211 54.2509
88 2 8.15008 10.5145 10.172
89 2 49.8605 39.2754 35.6856
90 2 21.6135 12.4699 16.8083
91 2 30.1932 50.8158 37.1068
92 2 14.4308 55.1125 23.2372
93 2 50.0575 43.414 27.1705
94 2 39.5922 35.9795 50.8686
95 2 36.3727 52.0046 43.1631
96 2 48.6058 38.2784 23.1314
97 2 34.9074 29.2445 54.6548
98 2 15.5535 15.4701 45.1006
99 2 18.5712 52.245 24.0269
100 2 50.6075 11.7784 21.1042
101 2 24.0606 20.9947 54.9309
102 2 39.5681 43.8633 12.1339
103 2 52.0153 18.1961 47.5596
104 2 15.1259 28.2862 38.1403
105 2 7.02984 18.6427 16.7884
106 2 46.2167 36.064 23.6104
107 2 35.2626 46.18 13.2022
108 2 26.8702 40.8867 44.1268
109 2 8.98205 54.8333 48.3029
110 2 16.1905 21.5756 54.3843
111 2 9.91223 11.0293 52.0907
112 2 25.8292 18.2248 55.4499
113 2 33.2117 39.1859 49.7708
114 2 26.8072 47.3042 23.8335
115 2 32.0075 45.2499 22.0214
116 2 31.4312 49.1663 45.2326
117 2 20.312 16.7857 39.6367
118 2 21.4381 32.6108 10.7808
119 2 54.2799 52.9609 49.3077
120 2 12.8429 29.6257 17.5355
121 2 53.8821 13.7626 41.4714
122 2 19.5808 47.4373 55.1903
123 2 33.4893 52.5707 19.9681
124 2 20.7807 31.0624 53.52
125 2 53.0476 16.9903 9.37062
126 2 28.9949 47.014 45.8005
127 2 6.89317 12.611 37.6294
128 2 42.3052 34.4344 31.1744
129 2 22.0718 25.0218 11.4574
130 2 37.79 21.4271 43.6709
131 2 48.4192 10.4337 12.5123
132 2 21.2468 49.8131 53.5694
133 2 28.3243 31.6655 10.8027
134 2 16.4122 32.4447 39.7015
135 2 22.2654 45.558 42.2576
136 2 49.1026 48.0759 14.8238
137 2 10.566 39.958 23.056
138 2 37.8639 14.0292 29.1681
139 2 46.9991 10.9881 33.9687
140 2 55.7963 31.768 23.2012
141 2 35.7526 27.818 25.0392
142 2 18.7521 51.7716 44.3063
143 2 40.0896 15.5693 44.86
144 2 8.72489 9.42374 31.4173
145 2 31.3627 14.9454 19.9671
146 2 16.6139 54.3197 44.7277
147 2 25.2313 38.527 28.8391
148 2 14.2213 19.0855 48.6312
149 2 22.7002 12.6037 51.959
150 2 12.4462 33.6134 37.0183
151 2 7.31869 37.5675 9.04389
152 2 10.0161 54.3573 25.6443
153 2 11.2096 40.8037 55.3543
154 2 29.8258 17.3903 36.9281
155 2 27.5473 54.6913 15.9863
156 2 24.9558 41.9092 8.36552
157 2 23.0324 49.6463 23.6432
158 2 39.4841 34.649 22.4727
159 2 13.4591 53.9746 31.7282
160 2 19.6637 12.9965 6.39454
161 2 21.0986 29.1098 48.5567
162 2 33.5913 12.6842 16.4833
163 2 35.2321 13.4181 34.3429
164 2 25.2561 49.6705 37.2779
165 2 22.543 24.0046 32.4279
166 2 18.3327 29.3609 52.2769
167 2 16.1488 42.3559 51.021
168 2 50.0481 54.2569 45.8445
169 2 27.6615 31.9523 18.2063
170 2 55.6995 30.2057 18.9845
171 2 12.9378 52.0394 49.1573
172 2 9.02051 23.816 45.9752
173 2 53.1043 20.3494 33.8191
174 2 8.08991 12.0639 48.1282
175 2 8.94195 31.4946 15.3121
176 2 39.2424 17.608 39.4174
177 2 40.927 45.5903 50.1884
178 2 25.3465 38.2214 33.862
179 2 11.3519 41.816 37.7546
180 2 49.3568 45.3805 25.0179
181 2 50.7192 20.1558 36.1195
182 2 32.2118 30.9072 19.6621
183 2 38.7968 39.0601 20.9542
184 2 49.1371 27.4522 17.2036
185 2 27.7075 20.9649 43.4545
186 2 44.3464 12.7777 51.3835
187 2 27.333 39.8263 32.3085
188 2 41.3955 37.9056 37.9976
189 2 45.9603 42.499 25.114
190 2 25.1891 26.4843 49.0775
191 2 16.1134 48.5904 13.4518
192 2 29.148 7.06104 7.66256
193 2 46.3257 31.859 35.2475
194 2 32.3588 54.8918 22.1244
195 2 45.8742 22.4635 26.3475
196 2 22.979 8.2829 18.8007
197 2 11.3409 9.00445 53.5339
198 2 32.2929 19.8129 15.4254
199 2 32.6612 29.7665 10.6623
200 2 48.8179 40.0102 25.8662
201 2 51.5978 36.4993 8.12815
202 2 18.8067 22.8087 32.2902
203 2 14.8618 33.2357 18.5688
204 2 29.2008 50.882 18.7308
205 2 13.7327 10.8226 40.0134
206 2 35.9603 16.6764 9.22294
207 2 49.7577 48.31 38.3122
208 2 10.024 48.3059 17.6484
209 2 46.7497 42.4587 46.6777
210 2 7.15034 15.7478 10.9419
211 2 38.4606 26.7728 46.9867
212 2 33.4357 43.9666 24.656
213 2 53.5905 51.8375 39.5998
214 2 54.0755 17.4182 52.7399
215 2 52.5984 35.1485 11.4668
216 2 40.9519 31.2634 9.1819
217 2 45.8438 13.803 30.1551
218 2 15.4863 28.3209 8.64734
219 2 48.5048 25.0163 15.4595
220 2 14.4901 26.6566 17.5034
221 2 13.9556 36.0936 17.0386
222 2 37.8038 10.2108 7.79111
223 2 22.7311 9.40383 53.8745
224 2 7.08788 36.3479 43.8399
225 2 13.6424 42.5873 35.7015
226 2 35.9252 53.1151 7.0313
227 2 42.0969 6.1018 13.2762
228 2 22.0646 49.5572 35.1277
229 2 22.7497 16.2698 26.3075
230 2 21.418 24.6098 18.3886
231 2 39.4814 29.8355 54.4901
232 2 25.2542 38.7922 54.892
233 2 39.0626 46.7358 6.55798
234 2 8.2693 50.7843 27.7591
235 2 43.4626 48.7609 32.5414
236 2 26.9355 52.1234 7.05153
237 2 14.5839 39.4714 25.2829
238 2 33.6172 47.9872 48.2171
239 2 13.0171 32.0234 39.7064
240 2 50.1639 9.57009 27.4227
241 2 20.9971 45.6034 31.5547
242 2 21.8405 54.6625 54.3194
243 2 15.3449 13.1862 41.1315
244 2 16.3778 37.4892 49.8647
245 2 37.3438 31.544 18.1435
246 2 10.517 27.6602 24.7663
247 2 45.7096 21.0494 9.69032
248 2 47.3821 35.2621 31.5814
249 2 39.935 41.0958 13.5637
250 2 46.799 14.7375 40.8
251 2 17.7257 24.1875 53.5175
252 2 49.5363 17.6357 27.4526
253 2 8.16602 44.2711 46.7363
254 2 7.08145 24.3608 26.7118
255 2 24.0524 42.595 55.6218
256 2 7.35681 29.3211 44.1006
257 2 11.7538 15.1609 27.813
258 2 12.3731 36.5829 25.79
259 2 47.9746 33.6664 55.2644
260 2 29.3235 46.9147 39.1653
261 2 51.5147 41.7649 12.0025
262 2 42.3014 12.7608 41.4069
263 2 14.4855 42.8872 43.4501
264 2 49.1709 18.1568 51.9686
265 2 25.0288 39.2655 46.3358
266 2 52.4488 15.2392 30.9579
267 2 48.474 52.729 38.619
268 2 52.0152 40.6613 42.2359
269 2 18.5627 15.4681 6.08609
270 2 29.8554 8.10493 34.6867
271 2 8.43387 8.96788 34.9549
272 2 52.3111 24.6793 19.0294
273 2 18.4456 44.9316 34.8257
274 2 30.4087 44.5027 13.7065
275 2 44.2985 11.4139 34.4911
276 2 7.47659 32.9307 21.3467
277 2 40.791 40.0667 16.7517
278 2 9.92798 31.3981 6.59273
279 2 45.2087 49.5519 39.6154
280 2 27.5949 24.2216 12.5577
281 2 25.0399 23.5827 10.5595
282 2 24.8251 25.7157 20.8147
283 2 28.8319 31.1308 48.2676
284 2 9.47807 8.58583 27.4803
285 2 41.2512 52.6936 22.9131
286 2 17.2127 21.4792 11.8602
287 2 50.155 28.6097 46.6423
288 2 49.3164 31.5943 51.0035
289 2 19.2129 17.1255 36.4832
290 2 50.0146 28.9882 43.1973
291 2 12.7242 8.86431 17.3879
292 2 52.6346 6.82342 51.2543
293 2 19.1658 16.9002 11.6827
294 2 6.54702 33.5462 12.2706
295 2 28.9911 26.0189 39.9089
296 2 14.9176 8.31897 8.24885
297 2 27.7139 54.24 9.05627
298 2 49.9924 20.5999 11.5071
299 2 29.6322 50.0017 21.9823
300 2 36.6533 11.1294 35.9333
301 2 34.4075 49.6946 41.9137
302 2 43.8784 11.7505 29.2358
303 2 20.5451 18.8707 32.494
304 2 28.3295 20.5127 25.2658
305 2 26.0797 7.91063 15.3755
306 2 43.1636 38.8601 34.1432
307 2 23.0207 21.0196 26.6574
308 2 16.2602 51.5081 26.2653
309 2 34.6626 6.43132 23.3804
310 2 55.227 16.2874 45.5776
311 2 10.3007 28.2921 13.1224
312 2 40.1503 16.813 18.1659
313 2 22.5535 47.8757 10.8517
314 2 40.3823 9.19148 46.2045
315 2 49.6723 42.7994 14.9283
316 2 46.9712 55.0353 12.5874
317 2 40.5841 16.7064 11.5177
318 2 13.6289 9.39233 21.9293
319 2 54.2932 45.1027 26.6974
320 2 49.741 28.6792 25.2033
321 2 44.1441 15.1378 49.5841
322 2 9.39872 31.3888 40.8177
323 2 44.5897 25.0007 49.86
324 2 41.7449 54.5743 16.992
325 2 22.9887 46.3738 26.4694
326 2 17.3666 50.6043 18.9536
327 2 32.346 6.24255 31.1631
328 2 16.739 46.2426 14.992
329 2 39.7861 12.374 22.067
330 2 33.0885 48.4571 13.5081
331 2 48.0029 18.5565 15.2139
332 2 42.8474 15.5523 7.16755
333 2 14.8965 38.5723 29.8547
334 2 14.2276 22.1995 31.7226
335 2 41.0754 10.8752 28.4295
336 2 25.851 55.2406 25.7182
337 2 20.6193 31.906 40.2674
338 2 54.509 24.2353 46.8976
339 2 32.7724 23.3313 14.3646
340 2 54.9595 39.0314 26.1833
341 2 10.0618 13.4217 41.1328
342 2 41.3678 55.3183 29.0825
343 2 42.2555 27.204 8.08128
344 2 55.2745 7.14104 29.3253
345 2 12.3738 13.8175 52.8931
346 2 51.0563 9.17112 41.5164
347 2 6.42455 33.1142 40.1402
348 2 41.4597 42.1854 41.0577
349 2 21.5757 50.7527 45.2205
350 2 33.3063 16.0778 40.2716
351 2 48.8696 50.6025 46.1065
352 2 25.4331 6.53697 30.6086
353 2 25.7683 36.2233 51.7484
354 2 42.6004 18.5048 45.1777
355 2 17.9123 39.7648 19.4879
356 2 40.0118 36.0055 42.7711
357 2 24.4307 45.8223 38.8257
358 2 48.0512 28.7101 40.7829
359 2 11.8659 27.8708 33.8477
360 2 13.4378 39.0669 52.7527
361 2 42.8882 8.16668 34.8189
362 2 20.6201 55.4534 51.7566
363 2 39.0978 16.4159 13.9493
364 2 17.7756 39.4348 14.6379
365 2 18.4065 15.3704 26.8669
366 2 12.3589 48.8792 33.2545
367 2 46.1219 37.8307 51.1051
368 2 17.248 34.9514 28.2519
369 2 19.8189 39.9829 28.8636
370 2 55.1579 18.9743 8.29514
371 2 7.83289 35.0894 55.0752
372 2 6.83951 53.2649 15.0429
373 2 17.8791 42.1667 23.9714
374 2 36.0495 37.9403 33.3436
375 2 25.8317 23.965 51.1994
376 2 26.9407 11.6265 17.7104
377 2 10.1001 52.1076 52.5433
378 2 20.2708 42.4422 34.8569
379 2 16.7133 27.2854 29.1957
380 2 52.0865 42.8038 22.5862
381 2 9.96747 50.9072 10.8832
382 2 14.4213 28.6462 45.4964
383 2 54.6445 12.0744 13.6657
384 2 13.9832 36.0432 31.8214
385 2 7.27107 28.3682 52.0428
386 2 41.0637 40.0577 36.6501
387 2 43.003 35.0312 37.2351
388 2 8.4045 16.1065 13.3811
389 2 12.5707 31.4864 6.33529
390 2 11.1632 39.5761 42.4201
391 2 11.5673 35.1346 12.479
392 2 50.3209 32.6623 37.0449
393 2 35.2327 50.5693 14.43
394 2 17.3706 37.1428 54.055
395 2 28.0705 7.64719 12.6298
396 2 36.3299 12.3404 55.4698
397 2 8.92345 10.4647 13.8169
398 2 26.8092 35.0343 36.7083
399 2 31.8538 30.2911 32.2449
400 2 14.0208 44.5625 13.8209
401 2 8.9606 19.2425 45.8184
402 2 45.0984 9.42734 36.5804
403 2 6.82379 34.9375 16.4497
404 2 21.0766 55.2736 10.8382
405 2 17.0392 50.9197 51.8113
406 2 24.3218 31.4861 55.5814
407 2 29.7824 41.6814 21.5175
408 2 30.3526 6.21182 10.058
409 2 45.6764 38.375 11.4132
410 2 50.1631 15.5859 36.0157
411 2 16.7691 48.4453 26.6427
412 2 24.8026 24.05 15.0093
413 2 54.0783 38.3227 21.1701
414 2 43.528 28.5708 33.6432
415 2 51.836 18.052 34.7943
416 2 43.6693 17.9971 51.257
417 2 12.1176 12.9795 43.6877
418 2 13.1718 47.2599 54.8959
419 2 34.4676 20.2343 29.7107
420 2 15.0254 6.41074 47.724
421 2 22.2369 39.3314 38.3329
422 2 33.9869 38.7532 23.7716
423 2 39.8799 11.8748 19.1193
424 2 43.5857 41.1138 20.8288
425 2 7.80072 26.3871 9.86584
426 2 19.7899 10.5057 47.2828
427 2 26.0544 55.318 40.5492
428 2 9.44844 6.96726 39.6317
429 2 19.7207 54.9474 16.7159
430 2 42.6161 30.0856 38.0271
431 2 21.305 45.3576 12.1981
432 2 19.2289 23.6103 40.5061
433 2 18.3058 51.0017 49.3639
434 2 6.88554 21.32 53.8438
435 2 24.4789 18.2661 26.4969
436 2 54.0854 44.6033 44.8687
437 2 17.9729 45.8336 26.0583
438 2 36.6942 33.5515 36.5023
439 2 15.6075 23.7089 50.4943
440 2 53.3824 14.6549 49.7834
441 2 30.7515 18.3057 13.0697
442 2 37.952 54.26 15.0176
443 2 49.0844 13.6108 28.1946
444 2 25.4761 27.564 46.2152
445 2 44.9958 43.1447 37.9822
446 2 52.6073 44.5445 55.0043
447 2 22.7881 11.4114 20.517
448 2 12.8127 49.7099 16.857
449 2 25.2988 15.8287 39.3777
450 2 19.2111 36.5105 26.4261
451 2 51.2914 32.6289 39.8237
452 2 40.5993 21.5065 31.674
453 2 16.304 13.8788 25.9006
454 2 35.6711 51.2252 47.822
455 2 43.4997 43.6958 49.3346
456 2 20.8462 17.6958 55.3747
457 2 18.2219 43.6923 13.5301
458 2 38.2925 15.6904 47.5418
459 2 46.7148 51.3149 54.8118
460 2 52.6226 13.871 37.2499
461 2 26.242 16.2035 9.81325
462 2 17.3309 31.3795 20.2238
463 2 46.7241 13.3178 46.0543
464 2 26.398 17.0536 51.5026
465 2 49.0514 43.9664 35.7855
466 2 28.4114 35.702 9.93789
467 2 13.7884 11.4791 18.0052
468 2 35.8241 48.3906 46.1337
469 2 47.4319 48.1323 45.9758
470 2 39.63 44.3424 8.89977
471 2 34.8775 48.0919 55.8325
472 2 32.7205 17.5327 10.689
473 2 44.7585 8.74337 30.7524
474 2 13.0276 18.3591 18.8351
475 2 34.2268 23.5535 46.1043
476 2 10.2167 19.0559 17.4482
477 2 29.4405 29.8597 16.5385
478 2 18.5045 28.4977 20.1216
479 2 32.4918 49.9904 23.3847
480 2 16.8678 8.45944 30.5602
481 2 15.4323 24.893 31.0261
482 2 25.2909 14.3155 17.4084
483 2 52.2635 18.4564 15.753
484 2 41.4768 9.93812 53.6832
485 2 13.1109 55.0671 55.281
486 2 40.8729 32.4102 48.2521
487 2 25.8553 48.4484 43.3729
488 2 53.7356 55.5347 21.9155
489 2 49.8076 27.1721 51.5653
490 2 31.7338 34.5496 11.203
491 2 31.0323 25.5074 53.7285
492 2 30.9772 14.5482 36.1767
493 2 37.549 20.3069 40.9274
494 2 46.3257 51.96 51.1302
495 2 8.10927 50.1597 38.2778
496 2 41.6813 52.8044 19.7795
497 2 49.5068 17.564 48.6613
498 2 13.9554 44.3989 8.08716
499 2 48.7115 41.0511 39.0253
500 2 53.4343 9.60367 31.0234
501 2 11.3061 21.0361 18.5841
502 2 27.3198 36.464 27.8342
503 2 18.1077 46.9636 43.2689
504 2 21.2822 16.2263 10.0128
505 2 17.9913 18.9119 54.3696
506 2 11.7169 6.55884 34.4631
507 2 16.6156 7.40821 16.4907
508 2 46.9388 32.2586 44.8305
509 2 10.3854 37.3855 43.8491
510 2 38.617 10.7561 40.2082
511 2 23.4785 36.0985 25.0677
512 2 43.7796 52.4323 11.2515
513 2 31.1032 55.5076 41.5913
514 2 45.6459 16.4175 52.2344
515 2 30.9968 28.3256 23.8111
516 2 37.8866 18.6768 21.337
517 2 26.594 21.2614 15.8338
518 2 25.0444 29.15 15.9411
519 2 30.0021 47.1413 26.5415
520 2 39.9049 16.8168 31.9845
521 2 7.38311 35.937 40.9287
522 2 28.0676 44.4678 33.1246
523 2 20.8812 46.3961 8.19261
524 2 36.6583 50.6217 54.0278
525 2 41.8789 47.4129 10.8113
526 2 27.1024 12.2439 41.9105
527 2 44.0491 24.4292 53.3803
528 2 10.3528 24.2957 15.6255
529 2 34.4413 32.4725 23.6951
530 2 41.0362 36.8648 23.7248
531 2 11.7963 17.5015 53.2076
532 2 30.1208 10.1764 38.9014
533 2 20.1674 44.4499 46.1517
534 2 16.8913 32.2179 55.3659
535 2 53.1466 38.8946 7.91657
536 2 46.9836 20.5974 30.5606
537 2 7.39714 52.3255 30.2591
538 2 18.2783 44.199 30.1755
539 2 53.9819 48.4103 30.8544
540 2 37.1702 28.8583 36.4283
541 2 50.0281 51.787 23.0325
542 2 22.0784 32.0526 20.042
543 2 31.7269 31.8344 54.1202
544 2 25.4989 51.9845 43.0924
545 2 15.8572 42.3492 27.7748
546 2 23.1535 22.8844 13.0317
547 2 11.9618 27.4314 16.0391
548 2 49.2215 22.0955 7.2159
549 2 48.3993 11.7961 54.7405
550 2 40.8563 49.6981 9.61761
551 2 55.8237 51.8211 46.915
552 2 37.2376 50.6859 31.1914
553 2 14.17 35.141 8.5935
554 2 8.76926 32.4861 38.114
555 2 31.9884 31.4326 51.028
556 2 21.9019 24.6356 51.9521
557 2 8.89518 42.3063 52.7274
558 2 53.9717 48.0183 48.2656
559 2 34.7048 30.9065 34.0676
560 2 21.2125 9.93743 38.928
561 2 54.6105 39.1038 10.6128
562 2 9.36106 38.6427 52.174
563 2 24.3253 18.826 30.0246
564 2 26.6373 45.1034 42.6136
565 2 46.9664 23.2249 47.8013
566 2 40.1823 9.41537 36.1749
567 2 14.3587 19.5753 8.13568
568 2 33.5963 25.8597 8.25454
569 2 44.6506 50.8146 34.6833
570 2 37.949 46.6848 53.2157
571 2 52.0629 37.7025 45.8696
572 2 48.5567 24.7597 40.6666
573 2 33.1201 37.7481 34.3803
574 2 29.2265 25.6198 32.6021
575 2 24.6179 42.3711 40.0385
576 2 23.8819 25.8305 54.031
577 2 25.9424 37.0778 18.5587
578 2 13.9941 32.7523 25.9968
579 2 18.3612 55.641 33.6032
580 2 13.6483 29.6664 54.1907
581 2 15.4442 39.1229 45.9347
582 2 37.5921 24.4196 39.8369
583 2 9.10037 37.2301 28.8896
584 2 43.9979 53.1958 8.24161
585 2 39.2971 37.391 45.8479
586 2 10.462 12.7881 28.9935
587 2 47.4789 22.0997 37.3828
588 2 26.9697 22.4818 47.6288
589 2 31.7475 15.5475 43.2403
590 2 35.5277 7.35358 54.041
591 2 40.1548 28.9621 11.4652
592 2 49.7237 51.4132 12.2469
593 2 17.1593 20.7615 34.0949
594 2 28.4559 43.8796 38.9037
595 2 41.7804 42.8608 8.2252
596 2 35.8504 6.47169 20.2654
597 2 32.9537 28.3201 33.9892
598 2 30.0441 50.435 53.2151
599 2 32.0092 43.7374 31.7874
600 2 10.5833 30.8099 46.5844
601 2 35.8722 20.5444 23.2983
602 2 40.3071 46.8562 43.7161
603 2 25.6185 34.9241 21.3354
604 2 41.3807 41.3779 43.8126
605 2 53.55 15.8438 16.7401
606 2 17.725 16.1366 15.6983
607 2 32.4943 20.762 26.095
608 2 51.7253 6.26208 36.6674
609 2 39.7637 46.0045 22.603
610 2 24.5821 40.8469 20.3195
611 2 45.5125 11.1581 6.22401
612 2 15.7485 36.5839 34.8583
613 2 12.6139 23.9302 28.3229
614 2 44.8868 47.8374 47.3757
615 2 13.3372 13.1603 25.6556
616 2 55.1401 49.493 37.891
617 2 12.078 55.0141 45.1084
618 2 8.09564 49.3976 42.8387
619 2 24.2708 53.0461 19.2829
620 2 30.0292 31.9142 34.1472
621 2 22.4494 42.112 23.4901
622 2 40.0685 13.6595 27.189
623 2 22.3265 11.5965 34.2334
624 2 26.8817 42.0839 21.7228
625 2 48.3323 21.6737 19.6269
626 2 19.76 25.2435 21.3086
627 2 49.9295 43.802 7.45803
628 2 52.3841 47.7649 36.7996
629 2 13.0916 44.3378 47.7142
630 2 15.1863 24.847 15.3035
631 2 47.112 8.71663 23.8005
632 2 23.8971 14.2495 13.1036
633 2 54.5746 44.3709 18.6679
634 2 45.7882 28.3587 6.64597
635 2 24.1358 44.1933 44.2708
636 2 44.6229 25.3087 40.4654
637 2 29.9243 41.5887 52.9942
638 2 33.003 25.7478 12.5459
639 2 11.5476 25.6998 10.6476
640 2 29.1589 52.9476 51.0104
641 2 20.6395 16.6203 45.9986
642 2 30.9015 24.5756 36.6126
643 2 38.5667 52.9235 12.2808
644 2 27.4366 49.4154 55.0222
645 2 32.6082 35.6802 53.1108
646 2 19.6803 10.3797 31.4432
647 2 16.064 16.2001 48.4252
648 2 19.7494 35.8511 44.1942
649 2 6.75104 55.2452 31.3664
650 2 41.7242 35.3563 11.8822
651 2 6.75566 44.9742 28.8369
652 2 8.09164 43.9664 41.4634
653 2 40.7544 27.9222 48.7945
654 2 46.5553 48.7457 25.8351
655 2 53.559 39.7062 46.9982
656 2 40.1898 37.0658 16.292
657 2 38.4854 39.3382 24.3493
658 2 44.9429 25.067 21.759
659 2 27.6975 36.5386 47.0531
660 2 55.7442 29.043 13.0986
661 2 35.0659 19.671 14.6645
662 2 15.6682 39.5346 7.38589
663 2 51.7387 30.9967 14.3034
664 2 26.9594 47.2475 11.9161
665 2 8.08076 12.6944 17.4924
666 2 13.2257 51.8312 39.4847
667 2 32.1794 44.8928 10.9871
668 2 49.8277 35.8763 49.0716
669 2 40.9223 22.2597 26.2894
670 2 36.9252 46.5004 23.9276
671 2 14.7466 40.2236 48.6497
672 2 9.10398 13.4233 10.0674
673 2 19.6815 21.7459 10.4322
674 2 51.6573 49.382 49.77
675 2 31.4198 11.5045 31.9313
676 2 31.0395 18.9239 32.6992
677 2 35.6915 48.8827 17.6818
678 2 44.202 20.9663 22.9985
679 2 55.4102 21.2004 17.8147
680 2 19.7125 27.4152 35.4563
681 2 53.1587 19.8987 50.6688
682 2 39.6036 46.5573 30.153
683 2 20.1102 38.9491 50.9671
684 2 13.7141 16.603 31.6391
685 2 24.0887 30.2976 46.6536
686 2 47.3309 40.9244 15.0342
687 2 38.1933 33.7113 20.2288
688 2 10.1241 23.8978 42.7207
689 2 42.2558 47.2108 36.895
690 2 35.7261 12.6283 27.4668
691 2 19.7043 51.1081 31.2788
692 2 20.2869 43.2504 7.34607
693 2 44.3875 25.1637 16.8245
694 2 50.5562 20.9345 52.0543
695 2 18.3454 31.5167 35.889
696 2 30.343 49.6615 9.14921
697 2 45.4438 29.5619 18.3261
698 2 41.2556 53.6857 46.0014
699 2 42.1401 8.02111 43.4264
700 2 44.3088 41.0282 28.1024
701 2 51.6925 50.1987 47.1273
702 2 11.9422 21.6606 33.5587
703 2 43.6799 55.5459 10.6789
704 2 22.0763 25.4038 44.7682
705 2 48.7909 44.1382 41.2168
706 2 18.2873 48.6131 47.8292
707 2 7.42495 24.8547 13.9869
708 2 10.4035 38.8412 14.7857
709 2 20.4103 12.8862 37.8424
710 2 46.8939 35.4406 45.1413
711 2 13.3169 44.8915 18.1289
712 2 21.3733 27.1116 38.2606
713 2 25.1867 43.6792 51.3198
714 2 8.09047 25.7994 6.73068
715 2 51.4328 27.7279 12.9461
716 2 28.0418 49.8271 39.43
717 2 17.4516 20.3565 21.5409
718 2 55.7858 38.0324 32.9205
719 2 14.881 53.7639 35.6128
720 2 32.501 36.0771 24.7401
721 2 48.5864 54.9573 19.4445
722 2 55.5765 54.9106 53.3359
723 2 8.33599 41.2106 46.5233
724 2 27.5423 15.9682 17.1402
725 2 54.5647 43.6134 9.65747
726 2 43.5349 48.9512 29.2922
727 2 13.4455 51.8455 20.0703
728 2 40.2692 15.0506 41.6091
729 2 36.1378 43.09 12.6263
730 2 45.3979 28.4327 39.1621
731 2 23.6797 33.4197 18.0678
732 2 32.8073 47.0336 43.088
733 2 27.3893 51.1842 16.2882
734 2 29.3861 34.4056 18.3288
735 2 6.70262 19.8761 39.9541
736 2 53.1327 13.7436 33.8902
737 2 17.5399 39.1155 30.9492
738 2 52.4102 52.7499 52.3958
739 2 33.5325 41.8321 36.4477
740 2 21.1379 49.3065 50.2873
741 2 17.3583 15.5241 40.0926
742 2 52.464 29.4819 24.9265
743 2 22.0076 13.0651 26.5336
744 2 21.4155 41.7898 20.9777
745 2 45.6986 6.8339 6.23435
746 2 9.78474 21.4098 8.23252
747 2 42.1376 15.3768 27.852
748 2 54.9811 30.0117 29.3401
749 2 52.7106 26.4836 26.7114
750 2 25.918 39.5349 22.8021
751 2 7.39246 50.4686 24.5761
752 2 6.94236 51.8902 10.7419
753 2 42.9597 55.3747 42.2882
754 2 31.8871 51.1489 14.0455
755 2 8.46816 13.306 13.1105
756 2 45.6725 48.2483 53.5993
757 2 55.0274 50.5733 21.8504
758 2 21.1729 25.9089 26.2271
759 2 49.2611 39.7667 43.0374
760 2 30.4521 20.7589 22.723
761 2 25.8542 41.8779 36.6767
762 2 15.9074 44.6967 10.3194
763 2 10.7099 14.5181 14.3988
764 2 52.6736 17.8149 39.9471
765 2 49.9605 35.9407 45.2921
766 2 9.97549 31.4676 52.6469
767 2 37.3571 42.2911 46.3895
768 2 20.0053 38.9314 12.4363
769 2 37.4497 50.6776 50.2406
770 2 7.61371 24.1302 35.9271
771 2 55.854 29.0294 10.2048
772 2 34.7213 51.4135 9.20245
773 2 14.3074 14.3163 29.5888
774 2 10.4484 27.403 28.0113
775 2 48.9147 24.8392 28.2301
776 2 15.1298 6.64291 20.7269
777 2 19.9475 17.9234 42.8674
778 2 54.2405 26.9012 35.6317
779 2 48.8005 18.8693 18.6723
780 2 43.1278 45.8884 23.1059
781 2 48.4695 38.5293 13.3379
782 2 22.2764 42.995 10.0908
783 2 44.5448 36.501 30.2238
784 2 52.648 43.2957 50.4918
785 2 51.7576 13.6529 39.7612
786 2 20.8642 47.998 19.5699
787 2 53.4524 17.6801 43.2675
788 2 11.2309 24.9078 50.0201
789 2 26.3479 26.4948 30.0574
790 2 41.8126 55.3578 21.4758
791 2 44.6353 18.4011 10.2409
792 2 46.2163 13.6652 21.6268
793 2 47.3911 17.6711 32.0154
794 2 38.3058 12.7206 45.0235
795 2 52.31 16.6434 26.6202
796 2 47.3284 49.8791 8.10776
797 2 44.1012 45.1878 11.1078
798 2 13.1947 14.2788 39.0177
799 2 38.1381 9.73075 22.2553
800 2 31.458 55.0281 12.5635
801 2 52.2417 53.2981 19.0125
802 2 42.3063 53.0223 13.8638
803 2 33.9483 40.774 52.3562
804 2 8.57191 25.9389 39.51
805 2 13.4179 51.524 8.88001
806 2 25.5926 11.606 13.0026
807 2 48.4031 8.71193 10.1756
808 2 52.1962 49.0558 12.4088
809 2 30.3501 23.8084 22.1506
810 2 29.475 37.2911 21.6698
811 2 32.2231 28.6514 40.6218
812 2 55.7978 24.3737 8.91542
813 2 28.0065 42.9308 8.3477
814 2 28.2575 34.1168 51.6097
815 2 31.1214 18.1061 50.5256
816 2 41.4918 12.8706 36.6081
817 2 23.4848 44.1001 30.556
818 2 11.1092 35.8892 45.8667
819 2 7.02675 38.7434 53.5669
820 2 25.6959 12.5888 50.2815
821 2 41.7732 33.9657 43.6524
822 2 14.8127 48.6774 30.8222
823 2 31.0224 18.688 6.29163
824 2 44.1939 31.8509 54.1358
825 2 54.5996 34.2484 27.1351
826 2 53.5403 7.18654 55.4812
827 2 23.2967 18.0828 11.0679
828 2 39.0727 38.6495 33.3594
829 2 12.4333 32.2628 50.5013
830 2 16.3699 11.4943 43.1974
831 2 9.63134 38.8711 11.4374
832 2 38.3291 22.4142 29.7573
833 2 29.7321 8.7626 17.4819
834 2 6.14257 11.3406 30.9874
835 2 11.9518 17.9516 45.0386
836 2 37.9801 40.1437 18.3484
837 2 52.7735 32.234 23.0418
838 2 18.5918 38.1421 45.6574
839 2 21.8553 21.0062 24.0138
840 2 50.0819 20.8888 16.916
841 2 35.605 54.933 30.7933
842 2 13.0331 6.55985 29.0928
843 2 11.9184 47.2364 37.4739
844 2 8.8539 35.0429 9.12699
845 2 24.8931 15.0442 27.8856
846 2 31.6768 31.9382 40.9899
847 2 6.61701 21.841 7.2702
848 2 31.7775 23.4066 31.8855
849 2 24.9967 8.15564 42.025
850 2 18.8252 7.21914 11.1549
851 2 49.0988 51.7329 9.23901
852 2 23.4291 35.3329 41.1
853 2 51.0624 22.7233 28.192
854 2 19.9475 16.9355 18.6955
855 2 41.8099 18.6859 13.4232
856 2 19.3531 54.7645 25.1366
857 2 20.414 47.7716 41.5643
858 2 33.552 15.7322 34.4495
859 2 20.703 12.846 23.9029
860 2 38.6959 14.6348 24.4202
861 2 53.1382 26.6857 49.1438
862 2 22.5531 38.6853 8.31741
863 2 23.9697 40.164 15.2212
864 2 36.0193 16.8677 38.8136
865 2 26.8524 55.5447 45.1356
866 2 21.2245 32.9403 27.6308
867 2 19.959 8.43215 52.207
868 2 44.3365 13.7358 54.5745
869 2 42.2397 7.28564 8.01504
870 2 25.5981 43.6438 34.2869
871 2 15.6095 33.6781 23.9126
872 2 53.2449 10.7301 15.9839
873 2 29.2653 48.2521 28.8486
874 2 10.2655 51.6247 23.3877
875 2 42.537 13.9248 45.5631
876 2 53.678 54.0888 28.5298
877 2 37.5971 22.6305 7.36876
878 2 37.3462 36.4408 35.8243
879 2 29.434 28.4788 21.1178
880 2 27.6542 54.6869 18.8749
881 2 19.3891 11.7074 34.1258
882 2 35.0694 11.4249 39.2764
883 2 17.2878 26.2058 39.6605
884 2 39.3196 23.8197 33.3888
885 2 31.0725 24.9081 24.6708
886 2 26.5772 41.1268 25.7368
887 2 6.27165 25.8754 49.298
888 2 53.7264 53.3361 42.4548
889 2 49.9541 8.7412 51.5001
890 2 54.4056 31.2502 12.2249
891 2 7.75255 34.5549 19.0374
892 2 6.47913 20.3729 25.7556
893 2 53.5371 12.3432 29.5955
894 2 7.94447 54.376 7.1848
895 2 47.1513 15.8957 19.3837
896 2 44.2335 10.3603 13.4237
897 2 35.4319 8.00563 47.9408
898 2 23.0881 17.7704 39.3418
899 2 13.1594 17.1294 26.1348
900 2 6.75004 27.249 25.3531
901 2 13.4166 23.3428 19.5944
902 2 16.9234 36.3878 22.6736
903 2 53.5926 24.4151 40.0749
904 2 35.9825 6.80277 10.6331
905 2 11.7731 54.6542 10.8431
906 2 30.255 37.1087 33.7312
907 2 32.2579 21.1017 18.7502
908 2 50.8907 45.7891 40.7383
909 2 13.6141 43.8477 50.6109
910 2 41.3902 38.703 28.412
911 2 40.3514 53.6382 41.1932
912 2 14.9286 33.9542 13.2272
913 2 36.2078 55.7348 17.5651
914 2 43.0207 8.94295 49.8501
915 2 23.7976 23.6227 40.5193
916 2 25.158 49.8742 27.3249
917 2 46.1013 40.8265 50.3265
918 2 19.9955 38.5766 34.8617
919 2 28.5014 8.58555 29.2241
920 2 6.82484 35.8342 22.4373
921 2 35.7997 17.5917 16.7283
922 2 18.2941 31.2744 27.1326
923 2 53.5063 31.843 55.0571
924 2 52.3862 41.1256 35.7508
925 2 14.2893 50.9032 34.993
926 2 51.6354 24.492 48.4094
927 2 37.0306 27.1707 17.6409
928 2 39.3709 19.1282 14.7426
929 2 36.0177 40.1732 6.53205
930 2 36.9652 28.4787 50.9086
931 2 35.3349 20.8147 11.5645
932 2 27.1388 31.5557 40.362
933 2 47.0053 10.9413 30.1677
934 2 35.729 34.753 27.3133
935 2 35.9691 48.5819 21.7566
936 2 20.5468 13.683 19.7457
937 2 35.9947 34.7253 39.8741
938 2 22.7663 38.1929 41.8815
939 2 14.967 29.4727 13.0254
940 2 28.7662 43.3632 28.7056
941 2 31.6737 31.9843 26.7229
942 2 13.5481 13.248 46.0307
943 2 34.5594 53.1964 35.6167
944 2 10.0361 40.6847 25.7141
945 2 39.7135 49.7183 48.1343
946 2 45.553 45.0195 15.4659
947 2 41.7749 22.1564 16.3787
948 2 37.0344 15.7046 18.6293
949 2 30.1159 36.6527 16.5769
950 2 7.96858 55.6031 19.3694
951 2 37.7104 15.5823 52.3758
952 2 43.992 49.7886 9.77507
953 2 19.2322 14.9792 48.3565
954 2 32.8446 9.80484 7.56888
955 2 17.1597 24.4363 22.9671
956 2 55.0735 36.4329 11.3098
957 2 41.1909 16.7646 21.4834
958 2 43.2708 13.8478 18.7727
959 2 33.8318 12.3448 42.0812
960 2 43.0381 7.03854 26.5149
961 2 6.13227 52.1113 17.5671
962 2 43.8924 52.3399 26.5531
963 2 34.6521 19.318 32.4802
964 2 39.8995 12.4593 16.2425
965 2 38.5505 48.6553 17.6004
966 2 20.2176 46.0476 17.8957
967 2 44.6058 42.9181 18.1368
968 2 46.5867 52.4202 12.6631
969 2 29.1818 54.4444 43.5271
970 2 43.45 39.0352 43.8647
971 2 12.4339 42.437 12.1673
972 2 47.7476 48.7311 35.9244
973 2 8.69472 47.3872 35.3343
974 2 40.0656 32.9992 51.279
975 2 22.9856 8.24247 11.5487
976 2 29.9329 39.4143 17.9767
977 2 29.4617 40.5372 44.8056
978 2 35.6809 52.565 32.9206
979 2 30.4111 53.6507 53.7676
980 2 32.2659 27.7216 53.0744
981 2 53.3631 45.4976 32.0257
982 2 28.0901 44.0988 51.0097
983 2 10.4789 24.0937 6.9317
984 2 26.7821 33.6042 16.1127
985 2 35.9477 43.5681 29.9311
986 2 48.2219 34.6708 9.6093
987 2 22.0101 34.8185 20.9223
988 2 22.935 28.076 29.8102
989 2 42.967 27.7952 12.6637
990 2 29.8745 49.114 32.154
991 2 51.6487 34.0009 51.8514
992 2 44.7844 23.2406 29.1342
993 2 52.7482 40.8932 24.5304
994 2 50.1979 33.8138 23.7615
995 2 17.9118 46.6574 9.03574
996 2 16.3697 40.6849 41.7445
997 2 38.9158 30.9042 49.4949
998 2 44.243 41.0482 8.12587
999 2 43.0554 25.5588 30.1361
1000 2 6.66535 28.402 55.2666
1001 2 55.653 14.0461 16.7538
1002 2 48.5351 11.0539 44.7947
1003 2 38.7978 7.23715 29.3785