units           metal
boundary        p p p
atom_style      atomic
read_data    ../../data/data.T${T}
read_data    ../../data/data.T420
Reading data file ...
  triclinic box = (6.1379132 6.1379132 6.1379132) to (55.793025 55.793025 55.793025) with tilt (-5.6970038e-15 0.0000000 0.0000000)
  3 by 4 by 4 MPI processor grid
  reading atoms ...
  9088 atoms
  reading velocities ...
  9088 velocities
  read_data CPU = 0.313 seconds
mass            1   58.693  #Ni
mass            2   92.906  #Nb
pair_style      eam/fs
pair_coeff      * * v1_18_NiNb_B2.eam.fs  Ni Nb
change_box all triclinic
Changing box ...
  triclinic box = (6.1379132 6.1379132 6.1379132) to (55.793025 55.793025 55.793025) with tilt (-5.6970038e-15 0.0000000 0.0000000)
timestep 0.01
thermo ${iStep}
thermo 100000
reset_timestep 0
thermo_style custom step temp pe etotal press vol lx ly lz
fix             1 all nvt/sllod temp ${T} ${T}  0.1
fix             1 all nvt/sllod temp 420 ${T}  0.1
fix             1 all nvt/sllod temp 420 420  0.1
thermo_modify flush yes
fix nodrift all momentum 1  linear 1 1 1
fix com_seed all recenter INIT INIT INIT shift all
fix dsf all deform 1 xy  wiggle 1.0  ${f}   units box  remap v
fix dsf all deform 1 xy  wiggle 1.0  100000   units box  remap v
fix ps1 all ave/time 1 ${aveStep}  ${iStep} c_thermo_press[1] c_thermo_press[2]  c_thermo_press[3] c_thermo_press[4]  c_thermo_press[5] c_thermo_press[6]  file  stress.${T}
fix ps1 all ave/time 1 1000  ${iStep} c_thermo_press[1] c_thermo_press[2]  c_thermo_press[3] c_thermo_press[4]  c_thermo_press[5] c_thermo_press[6]  file  stress.${T}
fix ps1 all ave/time 1 1000  100000 c_thermo_press[1] c_thermo_press[2]  c_thermo_press[3] c_thermo_press[4]  c_thermo_press[5] c_thermo_press[6]  file  stress.${T}
fix ps1 all ave/time 1 1000  100000 c_thermo_press[1] c_thermo_press[2]  c_thermo_press[3] c_thermo_press[4]  c_thermo_press[5] c_thermo_press[6]  file  stress.420
dump            1 all custom ${dumpStep} dump.${T} id type x y z
dump            1 all custom 10000000 dump.${T} id type x y z
dump            1 all custom 10000000 dump.420 id type x y z
dump_modify 1 sort id
run ${runStep}
run 50000000
Neighbor list info ...
  update every 1 steps, delay 10 steps, check yes
  max neighbors/atom: 2000, page size: 100000
  master list distance cutoff = 8.9
  ghost atom cutoff = 8.9
  binsize = 4.45, bins = 12 12 12
  1 neighbor lists, perpetual/occasional/extra = 1 0 0
  (1) pair eam/fs/intel, perpetual
      attributes: half, newton on, intel
      pair build: half/bin/newton/tri/intel
      stencil: half/bin/3d/newton/tri
      bin: intel
Per MPI rank memory allocation (min/avg/max) = 6.348 | 6.416 | 6.487 Mbytes
Step Temp PotEng TotEng Press Volume Lx Ly Lz 
       0    415.88799   -56499.559   -56011.062    404.81086    122431.14    49.655111    49.655111    49.655111 
  100000    418.35009   -56473.633   -55982.244    884.26538    122431.14    49.655111    49.655111    49.655111 
  200000    417.43266    -56473.99   -55983.679    705.42239    122431.14    49.655111    49.655111    49.655111 
  300000    424.60043   -56471.509   -55972.779    1107.4844    122431.14    49.655111    49.655111    49.655111 
  400000    421.45428   -56476.275   -55981.241    1130.2335    122431.14    49.655111    49.655111    49.655111 
  500000    424.22136   -56471.676   -55973.391    1181.4326    122431.14    49.655111    49.655111    49.655111 
  600000    413.95459   -56474.204   -55987.978    793.27838    122431.14    49.655111    49.655111    49.655111 
  700000    414.87129   -56467.545   -55980.243    1014.2937    122431.14    49.655111    49.655111    49.655111 
  800000    414.93731   -56482.157   -55994.777    690.17883    122431.14    49.655111    49.655111    49.655111 
  900000    412.70254   -56475.122   -55990.367    727.87772    122431.14    49.655111    49.655111    49.655111 
 1000000    415.13099   -56478.155   -55990.547    658.03921    122431.14    49.655111    49.655111    49.655111 
 1100000    420.96327   -56484.523   -55990.065    620.07831    122431.14    49.655111    49.655111    49.655111 
 1200000    425.46109   -56469.662   -55969.921    976.95093    122431.14    49.655111    49.655111    49.655111 
 1300000    419.64137   -56473.216   -55980.311    572.59465    122431.14    49.655111    49.655111    49.655111 
 1400000    423.01565   -56471.535   -55974.666    835.56383    122431.14    49.655111    49.655111    49.655111 
 1500000    425.99443   -56473.177   -55972.809    1194.8542    122431.14    49.655111    49.655111    49.655111 
 1600000    422.55933   -56471.057   -55974.724    657.50236    122431.14    49.655111    49.655111    49.655111 
 1700000    427.56823   -56473.611   -55971.394    1131.8236    122431.14    49.655111    49.655111    49.655111 
 1800000    424.32003    -56466.29   -55967.889    1244.7063    122431.14    49.655111    49.655111    49.655111 
 1900000    425.98755   -56477.119    -55976.76    1564.5565    122431.14    49.655111    49.655111    49.655111 
 2000000    421.66321   -56477.133   -55981.853    1110.0998    122431.14    49.655111    49.655111    49.655111 
 2100000    420.98309   -56472.679   -55978.197    761.84286    122431.14    49.655111    49.655111    49.655111 
 2200000    425.27075   -56459.476   -55959.958    999.11054    122431.14    49.655111    49.655111    49.655111 
 2300000     420.9335   -56471.813    -55977.39    1310.3328    122431.14    49.655111    49.655111    49.655111 
 2400000    420.24643   -56462.899   -55969.283    1376.9491    122431.14    49.655111    49.655111    49.655111 
 2500000    422.17241   -56461.516   -55965.638    721.12779    122431.14    49.655111    49.655111    49.655111 
 2600000    423.80269    -56477.92   -55980.127    1025.9466    122431.14    49.655111    49.655111    49.655111 
 2700000    423.45364   -56461.968   -55964.585    1366.1711    122431.14    49.655111    49.655111    49.655111 
 2800000    421.30049   -56479.538   -55984.684    1117.7736    122431.14    49.655111    49.655111    49.655111 
 2900000    421.45768   -56464.573   -55969.534    1400.2918    122431.14    49.655111    49.655111    49.655111 
 3000000    422.90678   -56469.825   -55973.084    973.57493    122431.14    49.655111    49.655111    49.655111 
 3100000    419.13227   -56473.486   -55981.179    584.14793    122431.14    49.655111    49.655111    49.655111 
 3200000    423.43791   -56466.076   -55968.712    1103.9836    122431.14    49.655111    49.655111    49.655111 
 3300000    420.71512   -56469.696    -55975.53    939.82408    122431.14    49.655111    49.655111    49.655111 
 3400000    420.45016   -56469.837   -55975.982     1561.511    122431.14    49.655111    49.655111    49.655111 
 3500000    422.51363   -56472.603   -55976.324      1270.01    122431.14    49.655111    49.655111    49.655111 
 3600000     418.5226   -56471.869   -55980.277    841.81831    122431.14    49.655111    49.655111    49.655111 
 3700000    421.66581   -56471.714    -55976.43    1335.4488    122431.14    49.655111    49.655111    49.655111 
 3800000    415.82021   -56470.715   -55982.298    1069.4214    122431.14    49.655111    49.655111    49.655111 
 3900000    421.75254   -56466.122   -55970.737    996.54171    122431.14    49.655111    49.655111    49.655111 
 4000000    419.54608   -56476.534    -55983.74    1025.9025    122431.14    49.655111    49.655111    49.655111 
 4100000    422.35829   -56475.231   -55979.134    924.51294    122431.14    49.655111    49.655111    49.655111 
 4200000    418.51307   -56471.226   -55979.646    940.80074    122431.14    49.655111    49.655111    49.655111 
 4300000    420.63963   -56470.976   -55976.898    1408.2304    122431.14    49.655111    49.655111    49.655111 
 4400000    422.16057   -56475.777   -55979.912    961.56251    122431.14    49.655111    49.655111    49.655111 
 4500000    424.93485   -56474.658   -55975.535    1012.5963    122431.14    49.655111    49.655111    49.655111 
 4600000    428.38205   -56472.989   -55969.817    1042.0664    122431.14    49.655111    49.655111    49.655111 
 4700000    417.52074   -56468.408   -55977.994    1076.9172    122431.14    49.655111    49.655111    49.655111 
 4800000    422.19625   -56472.454   -55976.548    1375.5574    122431.14    49.655111    49.655111    49.655111 
 4900000    418.81177   -56480.374   -55988.443    1021.7093    122431.14    49.655111    49.655111    49.655111 
 5000000    423.37091   -56480.108   -55982.822    1166.6408    122431.14    49.655111    49.655111    49.655111 
 5100000    418.40467   -56471.884   -55980.431    1271.9852    122431.14    49.655111    49.655111    49.655111 
 5200000    425.03908    -56474.17   -55974.925    1552.4185    122431.14    49.655111    49.655111    49.655111 
 5300000    426.79989   -56473.725   -55972.411    1568.4077    122431.14    49.655111    49.655111    49.655111 
 5400000    407.68486   -56468.641   -55989.779    952.88384    122431.14    49.655111    49.655111    49.655111 
 5500000     426.9538    -56479.09   -55977.596    982.63123    122431.14    49.655111    49.655111    49.655111 
 5600000    417.68868   -56475.561   -55984.949    1032.3683    122431.14    49.655111    49.655111    49.655111 
 5700000    417.92666   -56471.053   -55980.162     692.2304    122431.14    49.655111    49.655111    49.655111 
 5800000    417.82639   -56476.022   -55985.249    1290.5003    122431.14    49.655111    49.655111    49.655111 
 5900000    421.43132    -56468.16   -55973.152    906.14446    122431.14    49.655111    49.655111    49.655111 
 6000000    419.23211   -56478.507   -55986.082    966.60042    122431.14    49.655111    49.655111    49.655111 
 6100000    420.84714   -56474.122     -55979.8    1009.4264    122431.14    49.655111    49.655111    49.655111 
 6200000     421.6925   -56472.854    -55977.54    1311.1888    122431.14    49.655111    49.655111    49.655111 
 6300000    425.28406   -56471.019   -55971.486    961.11434    122431.14    49.655111    49.655111    49.655111 
 6400000    418.65886   -56477.496   -55985.745    956.21926    122431.14    49.655111    49.655111    49.655111 
 6500000    417.16395   -56477.192   -55987.197    1082.2049    122431.14    49.655111    49.655111    49.655111 
 6600000    417.64116   -56468.157   -55977.601    1186.7995    122431.14    49.655111    49.655111    49.655111 
 6700000    417.32978   -56469.863   -55979.673    1238.0393    122431.14    49.655111    49.655111    49.655111 
 6800000    418.74245   -56470.509    -55978.66    1136.6905    122431.14    49.655111    49.655111    49.655111 
 6900000    415.90008   -56472.968   -55984.457    559.94624    122431.14    49.655111    49.655111    49.655111 
 7000000    415.65169   -56476.789    -55988.57    888.81517    122431.14    49.655111    49.655111    49.655111 
 7100000    423.19235   -56470.712   -55973.636    1016.1501    122431.14    49.655111    49.655111    49.655111 
 7200000    413.96858   -56473.935   -55987.692    946.00712    122431.14    49.655111    49.655111    49.655111 
 7300000    413.30996   -56476.427   -55990.959    465.25151    122431.14    49.655111    49.655111    49.655111 
 7400000    420.90922   -56466.981   -55972.587    1455.8286    122431.14    49.655111    49.655111    49.655111 
 7500000    415.95081   -56470.441   -55981.871    1328.0357    122431.14    49.655111    49.655111    49.655111 
 7600000    427.50863   -56472.201   -55970.055    1001.9194    122431.14    49.655111    49.655111    49.655111 
 7700000    417.66129   -56473.212   -55982.633    1226.6229    122431.14    49.655111    49.655111    49.655111 
 7800000    422.35745   -56471.193   -55975.098     1082.865    122431.14    49.655111    49.655111    49.655111 
 7900000    416.68685   -56474.835     -55985.4    1417.9819    122431.14    49.655111    49.655111    49.655111 
 8000000    417.33595   -56470.883   -55980.686    1301.8368    122431.14    49.655111    49.655111    49.655111 
 8100000    427.93871   -56465.835   -55963.184    1474.2134    122431.14    49.655111    49.655111    49.655111 
 8200000     426.6472   -56471.446   -55970.311    927.21127    122431.14    49.655111    49.655111    49.655111 
 8300000    421.44306   -56463.838   -55968.817    1275.7141    122431.14    49.655111    49.655111    49.655111 
 8400000    419.41856   -56474.003   -55981.359    840.73583    122431.14    49.655111    49.655111    49.655111 
 8500000    417.44238   -56473.195   -55982.873    855.50068    122431.14    49.655111    49.655111    49.655111 
 8600000    427.67126   -56470.083   -55967.746    1019.5913    122431.14    49.655111    49.655111    49.655111 
 8700000    417.03564   -56468.908   -55979.063    1256.0556    122431.14    49.655111    49.655111    49.655111 
 8800000    416.04049   -56472.322   -55983.646    1463.6586    122431.14    49.655111    49.655111    49.655111 
 8900000    427.52982   -56481.175   -55979.004    998.44163    122431.14    49.655111    49.655111    49.655111 
 9000000    415.91974   -56464.826   -55976.292    1355.6177    122431.14    49.655111    49.655111    49.655111 
 9100000      422.047   -56477.044   -55981.313    830.50812    122431.14    49.655111    49.655111    49.655111 
 9200000    421.51352   -56473.753   -55978.649    1066.2326    122431.14    49.655111    49.655111    49.655111 
 9300000    422.24966   -56479.539    -55983.57    730.63664    122431.14    49.655111    49.655111    49.655111 
 9400000    418.88482   -56471.075   -55979.058    858.20882    122431.14    49.655111    49.655111    49.655111 
 9500000    413.30353   -56464.778   -55979.317     1784.501    122431.14    49.655111    49.655111    49.655111 
 9600000    420.93165   -56476.598   -55982.177    411.72317    122431.14    49.655111    49.655111    49.655111 
 9700000    418.72396   -56482.255   -55990.427    1066.9156    122431.14    49.655111    49.655111    49.655111 
 9800000    419.77481   -56479.164   -55986.102    920.77754    122431.14    49.655111    49.655111    49.655111 
 9900000    427.03098   -56471.533   -55969.948    1228.3731    122431.14    49.655111    49.655111    49.655111 
10000000    420.27781    -56470.26   -55976.608     886.8669    122431.14    49.655111    49.655111    49.655111 
10100000    414.90884   -56479.335   -55991.989    795.17989    122431.14    49.655111    49.655111    49.655111 
10200000    418.58007   -56472.862   -55981.203    878.96843    122431.14    49.655111    49.655111    49.655111 
10300000    417.64541   -56472.441    -55981.88     1033.641    122431.14    49.655111    49.655111    49.655111 
10400000    420.74753   -56475.886   -55981.681    975.98732    122431.14    49.655111    49.655111    49.655111 
10500000    421.09761   -56478.308   -55983.692    480.76867    122431.14    49.655111    49.655111    49.655111 
10600000    417.48756   -56475.223   -55984.847    966.99083    122431.14    49.655111    49.655111    49.655111 
10700000    417.66289   -56477.392    -55986.81    875.25262    122431.14    49.655111    49.655111    49.655111 
10800000    418.17225   -56477.873   -55986.694    1021.0496    122431.14    49.655111    49.655111    49.655111 
10900000    421.18846   -56476.708   -55981.985    1057.5329    122431.14    49.655111    49.655111    49.655111 
11000000    420.90258   -56468.086     -55973.7    847.79415    122431.14    49.655111    49.655111    49.655111 
11100000    417.43759   -56473.705   -55983.389    865.14422    122431.14    49.655111    49.655111    49.655111 
11200000    420.22094   -56472.078   -55978.492    919.70443    122431.14    49.655111    49.655111    49.655111 
11300000    418.86822   -56466.788   -55974.791    1210.7359    122431.14    49.655111    49.655111    49.655111 
11400000    421.80582   -56476.561   -55981.114    937.03776    122431.14    49.655111    49.655111    49.655111 
11500000    413.95617   -56474.362   -55988.134     1169.363    122431.14    49.655111    49.655111    49.655111 
11600000    415.31684   -56466.627   -55978.802    774.72789    122431.14    49.655111    49.655111    49.655111 
11700000    418.89909   -56477.989   -55985.956    1304.2797    122431.14    49.655111    49.655111    49.655111 
11800000    419.71162   -56467.041   -55974.054    873.70595    122431.14    49.655111    49.655111    49.655111 
11900000    425.76882   -56466.385   -55966.282    1250.5183    122431.14    49.655111    49.655111    49.655111 
12000000    418.49981   -56475.535    -55983.97    777.61845    122431.14    49.655111    49.655111    49.655111 
12100000    419.30013   -56469.086   -55976.582    1667.3817    122431.14    49.655111    49.655111    49.655111 
12200000    415.79544   -56464.957   -55976.569    967.31809    122431.14    49.655111    49.655111    49.655111 
12300000     421.6628    -56464.63   -55969.351     977.6948    122431.14    49.655111    49.655111    49.655111 
12400000    419.07526   -56466.963   -55974.722    983.08528    122431.14    49.655111    49.655111    49.655111 
12500000    419.52705   -56476.388   -55983.617    405.05032    122431.14    49.655111    49.655111    49.655111 
12600000    418.97602   -56474.562   -55982.438    600.32436    122431.14    49.655111    49.655111    49.655111 
12700000    425.11424   -56477.157   -55977.824    1058.7467    122431.14    49.655111    49.655111    49.655111 
12800000    422.98491   -56466.307   -55969.474    1166.3271    122431.14    49.655111    49.655111    49.655111 
12900000    418.17814   -56476.648   -55985.461    779.77309    122431.14    49.655111    49.655111    49.655111 
13000000    418.18666   -56472.093   -55980.897    935.24486    122431.14    49.655111    49.655111    49.655111 
13100000    418.94506   -56466.506   -55974.418    1520.5475    122431.14    49.655111    49.655111    49.655111 
13200000     427.0429   -56474.728   -55973.129    623.61194    122431.14    49.655111    49.655111    49.655111 
13300000    414.19522   -56470.577   -55984.069    674.92056    122431.14    49.655111    49.655111    49.655111 
13400000    417.82738   -56471.363   -55980.589    645.35192    122431.14    49.655111    49.655111    49.655111 
13500000    417.36333   -56463.076   -55972.846    781.69484    122431.14    49.655111    49.655111    49.655111 
13600000    415.87397   -56470.881   -55982.401    1231.6279    122431.14    49.655111    49.655111    49.655111 
13700000    419.67207   -56478.435   -55985.494    1078.0108    122431.14    49.655111    49.655111    49.655111 
13800000    424.90305   -56470.533   -55971.448    611.75639    122431.14    49.655111    49.655111    49.655111 
13900000    418.96986   -56475.258   -55983.141    992.63638    122431.14    49.655111    49.655111    49.655111 
14000000    421.44034   -56470.109    -55975.09    945.18116    122431.14    49.655111    49.655111    49.655111 
14100000    417.78002   -56475.025   -55984.306    851.22628    122431.14    49.655111    49.655111    49.655111 
14200000    417.50216   -56473.173    -55982.78    1406.0149    122431.14    49.655111    49.655111    49.655111 
14300000    418.86384   -56474.502    -55982.51    757.31904    122431.14    49.655111    49.655111    49.655111 
14400000    419.40931   -56470.114   -55977.482    968.23803    122431.14    49.655111    49.655111    49.655111 
14500000    416.28987   -56481.987   -55993.018    1114.3138    122431.14    49.655111    49.655111    49.655111 
14600000    416.71386    -56483.61   -55994.143    552.02979    122431.14    49.655111    49.655111    49.655111 
14700000     422.3603   -56467.944   -55971.845    1652.9026    122431.14    49.655111    49.655111    49.655111 
14800000    420.55189   -56480.857   -55986.882    575.85938    122431.14    49.655111    49.655111    49.655111 
14900000    421.93961    -56480.26   -55984.655    465.00721    122431.14    49.655111    49.655111    49.655111 
15000000    421.47765   -56474.291   -55979.229    1295.7042    122431.14    49.655111    49.655111    49.655111 
15100000    419.81078   -56483.941   -55990.836    800.63499    122431.14    49.655111    49.655111    49.655111 
15200000    419.75189   -56472.734   -55979.698    556.75706    122431.14    49.655111    49.655111    49.655111 
15300000    423.87203    -56471.66   -55973.785    686.51665    122431.14    49.655111    49.655111    49.655111 
15400000    410.63156   -56476.778   -55994.456    994.94668    122431.14    49.655111    49.655111    49.655111 
15500000    422.04014   -56475.052    -55979.33    929.49367    122431.14    49.655111    49.655111    49.655111 
15600000    417.89535   -56476.362   -55985.508    1041.6626    122431.14    49.655111    49.655111    49.655111 
15700000    419.42875   -56477.224   -55984.568    1155.0426    122431.14    49.655111    49.655111    49.655111 
15800000    413.61376   -56471.927   -55986.102    1032.6514    122431.14    49.655111    49.655111    49.655111 
15900000    421.46788   -56477.313   -55982.263    509.61401    122431.14    49.655111    49.655111    49.655111 
16000000     420.2315   -56468.631   -55975.032    1572.5993    122431.14    49.655111    49.655111    49.655111 
16100000    418.39464    -56469.92   -55978.479    1036.9065    122431.14    49.655111    49.655111    49.655111 
16200000    419.19466    -56467.55    -55975.17    1046.1833    122431.14    49.655111    49.655111    49.655111 
16300000    422.05325   -56476.097   -55980.359    1515.6771    122431.14    49.655111    49.655111    49.655111 
16400000    419.18026    -56477.76   -55985.397    1145.7245    122431.14    49.655111    49.655111    49.655111 
16500000     417.6029   -56469.133   -55978.622    1404.0888    122431.14    49.655111    49.655111    49.655111 
16600000    419.80238   -56474.091   -55980.996    1236.0553    122431.14    49.655111    49.655111    49.655111 
16700000    420.03779   -56468.282   -55974.911    1259.6751    122431.14    49.655111    49.655111    49.655111 
16800000    423.56977    -56469.02     -55971.5    1088.1347    122431.14    49.655111    49.655111    49.655111 
16900000    418.78964    -56477.67   -55985.765    1013.3528    122431.14    49.655111    49.655111    49.655111 
17000000    424.47233    -56481.24    -55982.66    816.58533    122431.14    49.655111    49.655111    49.655111 
17100000     418.6094   -56468.074   -55976.381    836.62146    122431.14    49.655111    49.655111    49.655111 
17200000    415.10415   -56471.296    -55983.72    1194.5856    122431.14    49.655111    49.655111    49.655111 
17300000    420.44631   -56473.606   -55979.755    1330.2905    122431.14    49.655111    49.655111    49.655111 
17400000    420.98926   -56484.551   -55990.063    494.95776    122431.14    49.655111    49.655111    49.655111 
17500000    421.54912   -56473.051   -55977.905    1175.3848    122431.14    49.655111    49.655111    49.655111 
17600000    418.92059   -56472.418    -55980.36    978.76183    122431.14    49.655111    49.655111    49.655111 
17700000    423.81105   -56470.819   -55973.016    999.38316    122431.14    49.655111    49.655111    49.655111 
17800000    416.95616   -56469.911   -55980.159    622.67088    122431.14    49.655111    49.655111    49.655111 
17900000    416.18061   -56474.448   -55985.608    1552.3541    122431.14    49.655111    49.655111    49.655111 
18000000    423.19675   -56479.761   -55982.679    527.21604    122431.14    49.655111    49.655111    49.655111 
18100000    429.13871   -56466.833   -55962.772    968.17071    122431.14    49.655111    49.655111    49.655111 
18200000    426.59537   -56462.924   -55961.851    1502.6903    122431.14    49.655111    49.655111    49.655111 
18300000    416.77484   -56483.157   -55993.618    746.36041    122431.14    49.655111    49.655111    49.655111 
18400000    420.62502   -56468.184   -55974.123    930.26277    122431.14    49.655111    49.655111    49.655111 
18500000    423.52575   -56475.206   -55977.739    944.50707    122431.14    49.655111    49.655111    49.655111 
18600000    419.54137   -56480.958    -55988.17    907.61933    122431.14    49.655111    49.655111    49.655111 
18700000    418.06524   -56472.245   -55981.191    692.67969    122431.14    49.655111    49.655111    49.655111 
18800000    417.99621   -56474.473   -55983.501    1230.2971    122431.14    49.655111    49.655111    49.655111 
18900000    420.88982   -56475.809   -55981.437    883.52822    122431.14    49.655111    49.655111    49.655111 
19000000    415.76641   -56471.909   -55983.555    1052.2473    122431.14    49.655111    49.655111    49.655111 
19100000    420.85267   -56471.161   -55976.833    737.94771    122431.14    49.655111    49.655111    49.655111 
19200000    415.01616    -56473.41   -55985.937    714.83454    122431.14    49.655111    49.655111    49.655111 
19300000    420.44129   -56471.427   -55977.582    1012.2684    122431.14    49.655111    49.655111    49.655111 
19400000    423.15475   -56471.975   -55974.943    991.78084    122431.14    49.655111    49.655111    49.655111 
19500000    419.66821   -56478.112   -55985.175    931.64433    122431.14    49.655111    49.655111    49.655111 
19600000    421.81839    -56475.04   -55979.578    954.20702    122431.14    49.655111    49.655111    49.655111 
19700000    420.73355   -56477.286   -55983.098    750.41931    122431.14    49.655111    49.655111    49.655111 
19800000    423.48235   -56484.346   -55986.929    484.47424    122431.14    49.655111    49.655111    49.655111 
19900000    416.55902   -56473.493   -55984.209     1095.586    122431.14    49.655111    49.655111    49.655111 
20000000    413.44087   -56474.556   -55988.934     775.4012    122431.14    49.655111    49.655111    49.655111 
20100000    418.62118   -56477.012   -55985.305    1525.1417    122431.14    49.655111    49.655111    49.655111 
20200000    420.77613   -56476.181   -55981.943    1246.4109    122431.14    49.655111    49.655111    49.655111 
20300000    413.42831   -56468.995   -55983.388    976.32308    122431.14    49.655111    49.655111    49.655111 
20400000    424.40068   -56480.297   -55981.801    422.74404    122431.14    49.655111    49.655111    49.655111 
20500000    421.24077   -56473.853   -55979.069    1160.2079    122431.14    49.655111    49.655111    49.655111 
20600000    418.64326   -56468.621   -55976.888    1108.3064    122431.14    49.655111    49.655111    49.655111 
20700000     416.0511   -56477.606   -55988.917    775.70878    122431.14    49.655111    49.655111    49.655111 
20800000    421.10343   -56475.708   -55981.085    990.17351    122431.14    49.655111    49.655111    49.655111 
20900000    422.02692   -56474.985   -55979.277     1230.429    122431.14    49.655111    49.655111    49.655111 
21000000    423.53259   -56479.965   -55982.489    873.56919    122431.14    49.655111    49.655111    49.655111 
21100000    425.19481   -56469.721   -55970.293    1446.0855    122431.14    49.655111    49.655111    49.655111 
21200000    415.45376   -56480.707   -55992.721    893.35802    122431.14    49.655111    49.655111    49.655111 
21300000     418.9823   -56469.608   -55977.477    675.31249    122431.14    49.655111    49.655111    49.655111 
21400000    420.29439   -56464.626   -55970.954    1253.9131    122431.14    49.655111    49.655111    49.655111 
21500000    421.56981   -56477.814   -55982.644    833.79761    122431.14    49.655111    49.655111    49.655111 
21600000    418.77808   -56471.282   -55979.391     1057.165    122431.14    49.655111    49.655111    49.655111 
21700000    414.42638   -56475.694   -55988.914    1152.3865    122431.14    49.655111    49.655111    49.655111 
21800000    426.08672   -56468.647   -55968.171    996.78285    122431.14    49.655111    49.655111    49.655111 
21900000    418.52522   -56470.543   -55978.949    1307.3678    122431.14    49.655111    49.655111    49.655111 
22000000    420.49331   -56468.367   -55974.461    1572.8155    122431.14    49.655111    49.655111    49.655111 
22100000    422.28979   -56473.933   -55977.917    848.58607    122431.14    49.655111    49.655111    49.655111 
22200000    420.04076   -56482.006   -55988.632    752.61115    122431.14    49.655111    49.655111    49.655111 
22300000    424.58864   -56479.411   -55980.695    1088.9275    122431.14    49.655111    49.655111    49.655111 
22400000    418.50875   -56468.341   -55976.767    1238.5626    122431.14    49.655111    49.655111    49.655111 
22500000     418.2442    -56475.23   -55983.966    650.70888    122431.14    49.655111    49.655111    49.655111 
22600000    421.07971   -56470.014    -55975.42     1119.352    122431.14    49.655111    49.655111    49.655111 
22700000    416.35113   -56474.059   -55985.018    966.58895    122431.14    49.655111    49.655111    49.655111 
22800000    411.95256   -56472.615   -55988.741    1139.2534    122431.14    49.655111    49.655111    49.655111 
22900000    416.03188    -56476.67   -55988.005    1307.4434    122431.14    49.655111    49.655111    49.655111 
23000000    419.62145   -56472.142    -55979.26     683.0932    122431.14    49.655111    49.655111    49.655111 
23100000    423.73496   -56469.619   -55971.906    1302.5701    122431.14    49.655111    49.655111    49.655111 
23200000    418.57806   -56467.302   -55975.645    947.79393    122431.14    49.655111    49.655111    49.655111 
23300000    415.81234   -56470.214   -55981.807     591.1095    122431.14    49.655111    49.655111    49.655111 
23400000    423.81442   -56469.285   -55971.478    1273.7837    122431.14    49.655111    49.655111    49.655111 
23500000    420.34199   -56480.177   -55986.449    1115.0372    122431.14    49.655111    49.655111    49.655111 
23600000    416.01283   -56471.505   -55982.862    1275.9617    122431.14    49.655111    49.655111    49.655111 
23700000    422.58273   -56478.056   -55981.696    1033.5985    122431.14    49.655111    49.655111    49.655111 
23800000     425.8832   -56470.575   -55970.338     941.8223    122431.14    49.655111    49.655111    49.655111 
23900000    420.91098   -56480.689   -55986.292    773.66009    122431.14    49.655111    49.655111    49.655111 
24000000    418.85284   -56475.705   -55983.726    489.68373    122431.14    49.655111    49.655111    49.655111 
24100000     413.6371   -56468.018   -55982.165    845.80533    122431.14    49.655111    49.655111    49.655111 
24200000    418.65031   -56476.883   -55985.142    1005.9598    122431.14    49.655111    49.655111    49.655111 
24300000    422.07629   -56470.808   -55975.042    1159.0496    122431.14    49.655111    49.655111    49.655111 
24400000    421.31993   -56485.024   -55990.147    1108.5641    122431.14    49.655111    49.655111    49.655111 
24500000    417.14194   -56475.391   -55985.422     996.2156    122431.14    49.655111    49.655111    49.655111 
24600000    425.19952   -56475.249   -55975.816     1347.328    122431.14    49.655111    49.655111    49.655111 
24700000    418.56312   -56472.007   -55980.368    854.09308    122431.14    49.655111    49.655111    49.655111 
24800000     418.7162   -56480.345   -55988.527    1128.1638    122431.14    49.655111    49.655111    49.655111 
24900000    420.73515   -56475.151   -55980.961    1124.8924    122431.14    49.655111    49.655111    49.655111 
25000000     420.7649   -56477.374   -55983.149    1265.5108    122431.14    49.655111    49.655111    49.655111 
25100000    417.66634   -56477.627   -55987.041    809.32345    122431.14    49.655111    49.655111    49.655111 
25200000    420.35108   -56481.238   -55987.499    1386.6484    122431.14    49.655111    49.655111    49.655111 
25300000     414.6881   -56470.478    -55983.39    1182.9403    122431.14    49.655111    49.655111    49.655111 
25400000    416.17781   -56474.437     -55985.6    812.55114    122431.14    49.655111    49.655111    49.655111 
25500000    424.57247   -56473.681   -55974.984    619.86336    122431.14    49.655111    49.655111    49.655111 
25600000    417.76525   -56477.761   -55987.059    830.83818    122431.14    49.655111    49.655111    49.655111 
25700000     411.1557   -56469.898    -55986.96    805.88894    122431.14    49.655111    49.655111    49.655111 
25800000    422.21593    -56472.67   -55976.741    1374.8644    122431.14    49.655111    49.655111    49.655111 
25900000    416.15632   -56482.422    -55993.61    730.91301    122431.14    49.655111    49.655111    49.655111 
26000000    419.27722   -56478.888    -55986.41     635.2961    122431.14    49.655111    49.655111    49.655111 
26100000    421.12696   -56480.041   -55985.391    1149.5032    122431.14    49.655111    49.655111    49.655111 
26200000    420.49543   -56476.562   -55982.654    790.77928    122431.14    49.655111    49.655111    49.655111 
26300000    414.46349   -56482.781   -55995.957    645.80759    122431.14    49.655111    49.655111    49.655111 
26400000    415.16021   -56473.411   -55985.769    970.36925    122431.14    49.655111    49.655111    49.655111 
26500000    419.64733    -56473.64   -55980.728    1170.2982    122431.14    49.655111    49.655111    49.655111 
26600000    418.31667   -56472.727   -55981.378    1319.2311    122431.14    49.655111    49.655111    49.655111 
26700000    420.14886   -56474.805   -55981.304     1011.838    122431.14    49.655111    49.655111    49.655111 
26800000    412.96079   -56464.291   -55979.233    1407.6748    122431.14    49.655111    49.655111    49.655111 
26900000    416.08556    -56466.51   -55977.781     1746.867    122431.14    49.655111    49.655111    49.655111 
27000000    418.07516   -56475.058   -55983.992    825.10929    122431.14    49.655111    49.655111    49.655111 
27100000    419.45611   -56474.132   -55981.444    943.87126    122431.14    49.655111    49.655111    49.655111 
27200000    418.90407   -56474.878   -55982.838    1103.4992    122431.14    49.655111    49.655111    49.655111 
27300000    418.44005   -56475.628   -55984.133    1134.1983    122431.14    49.655111    49.655111    49.655111 
27400000    419.93753   -56462.964   -55969.711    1239.4519    122431.14    49.655111    49.655111    49.655111 
27500000    423.14014   -56467.111   -55970.096    984.45916    122431.14    49.655111    49.655111    49.655111 
27600000    420.01568   -56473.316   -55979.971    736.82819    122431.14    49.655111    49.655111    49.655111 
27700000    420.99045   -56469.974   -55975.484    1039.8337    122431.14    49.655111    49.655111    49.655111 
27800000    420.41366   -56473.569   -55979.757    962.04799    122431.14    49.655111    49.655111    49.655111 
27900000    418.47544   -56478.126    -55986.59    960.72648    122431.14    49.655111    49.655111    49.655111 
28000000    417.45567   -56470.183   -55979.845    1273.8509    122431.14    49.655111    49.655111    49.655111 
28100000    423.65669   -56474.329   -55976.708    1034.0384    122431.14    49.655111    49.655111    49.655111 
28200000    410.94724   -56469.121   -55986.427    1403.2489    122431.14    49.655111    49.655111    49.655111 
28300000    423.71938   -56482.622   -55984.927    1190.2061    122431.14    49.655111    49.655111    49.655111 
28400000    418.87382   -56467.253   -55975.249    1347.9388    122431.14    49.655111    49.655111    49.655111 
28500000    422.58536   -56476.743    -55980.38    981.22183    122431.14    49.655111    49.655111    49.655111 
28600000     424.1925   -56467.916   -55969.665    1728.5706    122431.14    49.655111    49.655111    49.655111 
28700000    419.23692   -56479.611    -55987.18    1589.1338    122431.14    49.655111    49.655111    49.655111 
28800000    426.44498   -56467.998   -55967.102    1380.1981    122431.14    49.655111    49.655111    49.655111 
28900000    424.69223   -56485.867   -55987.029    871.20414    122431.14    49.655111    49.655111    49.655111 
29000000    418.38519    -56470.34   -55978.911    1170.5245    122431.14    49.655111    49.655111    49.655111 
29100000    426.35608   -56475.824   -55975.032    1332.9398    122431.14    49.655111    49.655111    49.655111 
29200000      419.395   -56470.288   -55977.672    608.92496    122431.14    49.655111    49.655111    49.655111 
29300000    420.39847   -56477.786   -55983.991    1078.4352    122431.14    49.655111    49.655111    49.655111 
29400000    419.78836   -56470.643   -55977.565    1215.4827    122431.14    49.655111    49.655111    49.655111 
29500000    414.44466   -56472.991    -55986.19    925.62091    122431.14    49.655111    49.655111    49.655111 
29600000    422.69482   -56475.785   -55979.293    764.72525    122431.14    49.655111    49.655111    49.655111 
29700000    418.34651   -56476.393   -55985.009    689.26401    122431.14    49.655111    49.655111    49.655111 
29800000    418.65543   -56485.659   -55993.911    177.52514    122431.14    49.655111    49.655111    49.655111 
29900000    420.33878   -56470.166   -55976.442    1137.5657    122431.14    49.655111    49.655111    49.655111 
30000000    421.42196    -56483.16   -55988.163     778.9751    122431.14    49.655111    49.655111    49.655111 
30100000    420.36791   -56482.955   -55989.197    721.95474    122431.14    49.655111    49.655111    49.655111 
30200000    419.06288   -56473.112   -55980.886    772.31182    122431.14    49.655111    49.655111    49.655111 
30300000    414.04615   -56475.654   -55989.321     756.0584    122431.14    49.655111    49.655111    49.655111 
30400000     420.0299   -56478.038   -55984.676    1264.4029    122431.14    49.655111    49.655111    49.655111 
30500000    422.13105   -56473.149   -55977.319    1290.8426    122431.14    49.655111    49.655111    49.655111 
30600000    420.93643   -56477.151   -55982.724    831.15545    122431.14    49.655111    49.655111    49.655111 
30700000    418.43136    -56479.98   -55988.496    751.03652    122431.14    49.655111    49.655111    49.655111 
30800000    421.08332   -56470.384   -55975.785    1036.5253    122431.14    49.655111    49.655111    49.655111 
30900000     424.5893   -56475.704   -55976.987    1040.2812    122431.14    49.655111    49.655111    49.655111 
31000000    424.13972   -56473.885   -55975.696    679.67421    122431.14    49.655111    49.655111    49.655111 
31100000     414.4026    -56478.93   -55992.178    805.09374    122431.14    49.655111    49.655111    49.655111 
31200000    420.69379   -56472.417   -55978.276    1101.5677    122431.14    49.655111    49.655111    49.655111 
31300000    417.47319   -56472.586   -55982.228    1040.6883    122431.14    49.655111    49.655111    49.655111 
31400000    422.61228   -56469.635   -55973.241    1213.2675    122431.14    49.655111    49.655111    49.655111 
31500000    425.51173   -56468.152   -55968.352    921.66436    122431.14    49.655111    49.655111    49.655111 
31600000    421.43452    -56472.71   -55977.699    702.92453    122431.14    49.655111    49.655111    49.655111 
31700000    419.30371   -56473.978    -55981.47    863.91851    122431.14    49.655111    49.655111    49.655111 
31800000    423.53977   -56477.046   -55979.562    1435.3211    122431.14    49.655111    49.655111    49.655111 
31900000    424.41126   -56473.476   -55974.969    847.81879    122431.14    49.655111    49.655111    49.655111 
32000000    418.35412   -56467.891   -55976.498    1224.5525    122431.14    49.655111    49.655111    49.655111 
32100000    411.84536   -56463.494   -55979.746    1259.9662    122431.14    49.655111    49.655111    49.655111 
32200000    411.83665   -56468.516   -55984.778    1154.8242    122431.14    49.655111    49.655111    49.655111 
32300000     421.8748   -56479.256   -55983.728    648.82853    122431.14    49.655111    49.655111    49.655111 
32400000    416.69714   -56468.555   -55979.108    1228.1138    122431.14    49.655111    49.655111    49.655111 
32500000    415.53619   -56479.736   -55991.653    1035.0978    122431.14    49.655111    49.655111    49.655111 
32600000    421.84164   -56472.948   -55977.459    808.24562    122431.14    49.655111    49.655111    49.655111 
32700000    420.91107   -56475.692   -55981.296    1133.2276    122431.14    49.655111    49.655111    49.655111 
32800000    424.92939   -56477.788   -55978.672    956.29186    122431.14    49.655111    49.655111    49.655111 
32900000    418.32279   -56469.302   -55977.945    1168.5291    122431.14    49.655111    49.655111    49.655111 
33000000    420.40373   -56468.067   -55974.267    826.91424    122431.14    49.655111    49.655111    49.655111 
33100000    424.55346   -56478.615    -55979.94    835.45581    122431.14    49.655111    49.655111    49.655111 
33200000     420.0644   -56472.152    -55978.75    778.09696    122431.14    49.655111    49.655111    49.655111 
33300000    416.59886   -56476.381   -55987.049    901.67243    122431.14    49.655111    49.655111    49.655111 
33400000      421.652   -56472.607    -55977.34    1022.0418    122431.14    49.655111    49.655111    49.655111 
33500000    420.42254   -56466.185   -55972.362    888.97673    122431.14    49.655111    49.655111    49.655111 
33600000    425.42561    -56472.93    -55973.23    1141.0978    122431.14    49.655111    49.655111    49.655111 
33700000    415.00453   -56463.964   -55976.506    1039.9868    122431.14    49.655111    49.655111    49.655111 
33800000    415.41739   -56475.187   -55987.243    1058.5273    122431.14    49.655111    49.655111    49.655111 
33900000    419.07253   -56471.674   -55979.437    1205.6494    122431.14    49.655111    49.655111    49.655111 
34000000    418.04081   -56468.875    -55977.85    1253.2789    122431.14    49.655111    49.655111    49.655111 
34100000    418.96102   -56472.592   -55980.486    1171.2989    122431.14    49.655111    49.655111    49.655111 
34200000    420.59683   -56483.241   -55989.213    476.83698    122431.14    49.655111    49.655111    49.655111 
34300000    416.07595   -56468.959   -55980.241    1260.3604    122431.14    49.655111    49.655111    49.655111 
34400000    422.55217   -56471.836   -55975.512       815.17    122431.14    49.655111    49.655111    49.655111 
34500000    419.15026   -56477.887   -55985.559    1082.1697    122431.14    49.655111    49.655111    49.655111 
34600000    422.54987   -56472.494   -55976.172    1081.4648    122431.14    49.655111    49.655111    49.655111 
34700000    424.52918   -56482.163   -55983.517    382.67681    122431.14    49.655111    49.655111    49.655111 
34800000    417.43588   -56470.628   -55980.313    1121.3688    122431.14    49.655111    49.655111    49.655111 
34900000    417.60993   -56480.353   -55989.834    923.40072    122431.14    49.655111    49.655111    49.655111 
35000000    414.12463   -56477.411   -55990.985     924.7138    122431.14    49.655111    49.655111    49.655111 
35100000    418.95769   -56473.355   -55981.253    789.93657    122431.14    49.655111    49.655111    49.655111 
35200000    422.07855    -56475.56   -55979.792    897.74174    122431.14    49.655111    49.655111    49.655111 
35300000    421.50711   -56473.009   -55977.912     722.2674    122431.14    49.655111    49.655111    49.655111 
35400000    417.50758   -56469.065   -55978.667    1139.0758    122431.14    49.655111    49.655111    49.655111 
35500000    420.81599   -56475.568   -55981.283    974.16075    122431.14    49.655111    49.655111    49.655111 
35600000    414.22936   -56475.248   -55988.699    1311.4076    122431.14    49.655111    49.655111    49.655111 
35700000     420.5935   -56471.825   -55977.802     867.9827    122431.14    49.655111    49.655111    49.655111 
35800000     416.2521   -56472.969   -55984.044    1040.9697    122431.14    49.655111    49.655111    49.655111 
35900000    415.06198    -56477.29   -55989.763    888.05708    122431.14    49.655111    49.655111    49.655111 
36000000    416.97347   -56479.098   -55989.327    572.57725    122431.14    49.655111    49.655111    49.655111 
36100000    414.12694   -56473.703   -55987.275    758.77259    122431.14    49.655111    49.655111    49.655111 
36200000    422.62103   -56474.572   -55978.167    1180.0129    122431.14    49.655111    49.655111    49.655111 
36300000    412.79423    -56471.28   -55986.417    1169.2205    122431.14    49.655111    49.655111    49.655111 
36400000    426.33434   -56471.035   -55970.268    1369.9758    122431.14    49.655111    49.655111    49.655111 
36500000    425.70832   -56477.449   -55977.418    1153.2178    122431.14    49.655111    49.655111    49.655111 
36600000    413.62453   -56460.587   -55974.749    1358.2255    122431.14    49.655111    49.655111    49.655111 
36700000    410.01574   -56480.294   -55998.695    860.41741    122431.14    49.655111    49.655111    49.655111 
36800000    416.86223   -56475.979   -55986.338    642.95757    122431.14    49.655111    49.655111    49.655111 
36900000    421.49511   -56474.081   -55978.998    1206.4328    122431.14    49.655111    49.655111    49.655111 
37000000    421.79443   -56462.924    -55967.49    1006.7453    122431.14    49.655111    49.655111    49.655111 
37100000    423.25409   -56478.464   -55981.315      1395.51    122431.14    49.655111    49.655111    49.655111 
37200000    422.10987   -56461.813   -55966.008    1466.5605    122431.14    49.655111    49.655111    49.655111 
37300000     421.9878   -56482.067   -55986.406    625.69035    122431.14    49.655111    49.655111    49.655111 
37400000    419.60523    -56471.81   -55978.947    1453.9747    122431.14    49.655111    49.655111    49.655111 
37500000    417.89109   -56465.896   -55975.046    1307.8073    122431.14    49.655111    49.655111    49.655111 
37600000    427.20599   -56474.489   -55972.699    686.48876    122431.14    49.655111    49.655111    49.655111 
37700000    417.06202   -56469.106   -55979.231    1129.6351    122431.14    49.655111    49.655111    49.655111 
37800000    417.57698   -56472.612   -55982.131    855.73836    122431.14    49.655111    49.655111    49.655111 
37900000    426.65324   -56465.066   -55963.924    1464.8735    122431.14    49.655111    49.655111    49.655111 
38000000    414.03958   -56469.561   -55983.235    882.18892    122431.14    49.655111    49.655111    49.655111 
38100000    416.89398   -56468.701   -55979.023    884.47892    122431.14    49.655111    49.655111    49.655111 
38200000    417.89868   -56479.589    -55988.73    1293.5175    122431.14    49.655111    49.655111    49.655111 
38300000    418.64247   -56465.932     -55974.2    1384.3821    122431.14    49.655111    49.655111    49.655111 
38400000    418.44417   -56477.779    -55986.28    695.49142    122431.14    49.655111    49.655111    49.655111 
38500000    425.64517   -56472.545   -55972.588    1185.5642    122431.14    49.655111    49.655111    49.655111 
38600000    422.90083   -56474.722   -55977.988     1162.474    122431.14    49.655111    49.655111    49.655111 
38700000    424.62711    -56471.57   -55972.809    949.32956    122431.14    49.655111    49.655111    49.655111 
38800000    418.05148   -56477.389   -55986.352    1189.4112    122431.14    49.655111    49.655111    49.655111 
38900000    424.24978   -56475.121   -55976.803    729.60538    122431.14    49.655111    49.655111    49.655111 
39000000    419.77387   -56477.099   -55984.038    671.56132    122431.14    49.655111    49.655111    49.655111 
39100000    427.37089   -56481.484     -55979.5    571.02631    122431.14    49.655111    49.655111    49.655111 
39200000    417.91008   -56473.121    -55982.25    692.72064    122431.14    49.655111    49.655111    49.655111 
39300000    429.24414   -56475.494    -55971.31    1365.4367    122431.14    49.655111    49.655111    49.655111 
39400000    418.71881   -56482.117   -55990.296    934.46213    122431.14    49.655111    49.655111    49.655111 
39500000    419.58565    -56482.98    -55990.14    506.43969    122431.14    49.655111    49.655111    49.655111 
39600000    423.03345   -56480.404   -55983.514    696.67366    122431.14    49.655111    49.655111    49.655111 
39700000    419.80345   -56469.955    -55976.86    1456.1259    122431.14    49.655111    49.655111    49.655111 
39800000    422.34407   -56471.805   -55975.726    845.71232    122431.14    49.655111    49.655111    49.655111 
39900000    420.76314   -56471.867   -55977.644    1033.6183    122431.14    49.655111    49.655111    49.655111 
40000000    420.92252   -56470.054   -55975.644    1173.9521    122431.14    49.655111    49.655111    49.655111 
40100000    416.38624   -56477.353   -55988.271     987.7307    122431.14    49.655111    49.655111    49.655111 
40200000    419.77622    -56475.46   -55982.396    1302.0266    122431.14    49.655111    49.655111    49.655111 
40300000    425.60065   -56473.449   -55973.544    1209.1499    122431.14    49.655111    49.655111    49.655111 
40400000    415.75026   -56473.896   -55985.561    1211.9524    122431.14    49.655111    49.655111    49.655111 
40500000    425.02289   -56473.512   -55974.286    763.26584    122431.14    49.655111    49.655111    49.655111 
40600000    419.75259   -56473.005   -55979.969    1121.8723    122431.14    49.655111    49.655111    49.655111 
40700000    420.96854   -56474.064     -55979.6    830.43746    122431.14    49.655111    49.655111    49.655111 
40800000    412.21074   -56477.236   -55993.058    722.14988    122431.14    49.655111    49.655111    49.655111 
40900000    420.67633   -56473.127   -55979.006    857.41194    122431.14    49.655111    49.655111    49.655111 
41000000    423.04942   -56465.092   -55968.184    1651.9775    122431.14    49.655111    49.655111    49.655111 
41100000    415.72727   -56474.859   -55986.551    759.02738    122431.14    49.655111    49.655111    49.655111 
41200000    414.39143   -56472.025   -55985.286    879.58509    122431.14    49.655111    49.655111    49.655111 
41300000    416.44212   -56479.074   -55989.927    785.78021    122431.14    49.655111    49.655111    49.655111 
41400000    423.10133   -56472.485   -55975.516    612.91741    122431.14    49.655111    49.655111    49.655111 
41500000    429.40716   -56475.855   -55971.479    1016.5885    122431.14    49.655111    49.655111    49.655111 
41600000    416.22435   -56467.768   -55978.877    1145.1177    122431.14    49.655111    49.655111    49.655111 
41700000    421.75806   -56474.168   -55978.777    1061.5506    122431.14    49.655111    49.655111    49.655111 
41800000    409.96234   -56476.683   -55995.146    1178.2676    122431.14    49.655111    49.655111    49.655111 
41900000    425.13497   -56466.513   -55967.155    1294.9327    122431.14    49.655111    49.655111    49.655111 
42000000    422.51638   -56470.104   -55973.822    903.56989    122431.14    49.655111    49.655111    49.655111 
42100000     425.1118    -56465.49   -55966.159    1147.3762    122431.14    49.655111    49.655111    49.655111 
42200000    415.44513     -56463.6   -55975.623    1254.9566    122431.14    49.655111    49.655111    49.655111 
42300000     414.6127   -56470.424   -55983.425    935.19852    122431.14    49.655111    49.655111    49.655111 
42400000    420.20731   -56469.973   -55976.403    1372.9911    122431.14    49.655111    49.655111    49.655111 
42500000     415.8811   -56469.741   -55981.253    1478.0263    122431.14    49.655111    49.655111    49.655111 
42600000    415.81934   -56466.118   -55977.702    1247.1115    122431.14    49.655111    49.655111    49.655111 
42700000    422.69047   -56464.156   -55967.669    1671.5936    122431.14    49.655111    49.655111    49.655111 
42800000    422.07104   -56473.066   -55977.307    677.91088    122431.14    49.655111    49.655111    49.655111 
42900000    414.67456   -56468.594   -55981.522    1261.1566    122431.14    49.655111    49.655111    49.655111 
43000000    419.67676   -56468.787    -55975.84    1032.1717    122431.14    49.655111    49.655111    49.655111 
43100000    417.66795   -56481.037   -55990.449    1088.3747    122431.14    49.655111    49.655111    49.655111 
43200000    420.09022   -56472.055   -55978.622    1055.1863    122431.14    49.655111    49.655111    49.655111 
43300000    416.96476   -56472.135   -55982.373    1356.8086    122431.14    49.655111    49.655111    49.655111 
43400000    414.93167    -56462.48   -55975.107     1266.574    122431.14    49.655111    49.655111    49.655111 
43500000    417.16369   -56473.254   -55983.259    673.02991    122431.14    49.655111    49.655111    49.655111 
43600000    419.85017   -56476.314   -55983.163    1076.0485    122431.14    49.655111    49.655111    49.655111 
43700000    417.51174    -56475.23   -55984.826    1319.3321    122431.14    49.655111    49.655111    49.655111 
43800000    421.46251   -56475.234    -55980.19    942.41554    122431.14    49.655111    49.655111    49.655111 
43900000    420.03353   -56471.407   -55978.042    723.38028    122431.14    49.655111    49.655111    49.655111 
44000000    417.33615   -56471.662   -55981.464     1107.944    122431.14    49.655111    49.655111    49.655111 
44100000    421.75102    -56476.19   -55980.807    867.74301    122431.14    49.655111    49.655111    49.655111 
44200000     417.7683   -56473.392   -55982.687    1048.9864    122431.14    49.655111    49.655111    49.655111 
44300000     414.8567   -56471.748   -55984.463    916.98683    122431.14    49.655111    49.655111    49.655111 
44400000    418.99979   -56471.892   -55979.741     947.7422    122431.14    49.655111    49.655111    49.655111 
44500000    423.18625   -56480.168   -55983.099    806.75475    122431.14    49.655111    49.655111    49.655111 
44600000      411.309   -56479.573   -55996.455    1158.8137    122431.14    49.655111    49.655111    49.655111 
44700000    426.60058   -56473.499    -55972.42    1160.3213    122431.14    49.655111    49.655111    49.655111 
44800000    421.86821   -56469.624   -55974.103    1138.7144    122431.14    49.655111    49.655111    49.655111 
44900000    422.39278   -56481.872   -55985.735    1153.5416    122431.14    49.655111    49.655111    49.655111 
45000000    425.89423    -56478.84   -55978.591    1445.6518    122431.14    49.655111    49.655111    49.655111 
45100000    414.50493    -56477.14   -55990.268    917.77828    122431.14    49.655111    49.655111    49.655111 
45200000    423.15152   -56477.516   -55980.488    818.41977    122431.14    49.655111    49.655111    49.655111 
45300000    421.55049    -56479.24   -55984.092    494.67126    122431.14    49.655111    49.655111    49.655111 
45400000    419.31189   -56473.333   -55980.814    1379.7168    122431.14    49.655111    49.655111    49.655111 
45500000    420.69748   -56479.453   -55985.307    688.56308    122431.14    49.655111    49.655111    49.655111 
45600000    423.31866   -56476.759   -55979.534    819.50441    122431.14    49.655111    49.655111    49.655111 
45700000    420.45128   -56474.402   -55980.545    651.48187    122431.14    49.655111    49.655111    49.655111 
45800000    418.65953   -56472.024   -55980.272     886.7996    122431.14    49.655111    49.655111    49.655111 
45900000    426.04939   -56480.381   -55979.949    1304.3957    122431.14    49.655111    49.655111    49.655111 
46000000    417.50522   -56470.987   -55980.591    1156.7161    122431.14    49.655111    49.655111    49.655111 
46100000    416.76106   -56474.553   -55985.031    867.46661    122431.14    49.655111    49.655111    49.655111 
46200000    417.91131   -56476.345   -55985.472    364.94767    122431.14    49.655111    49.655111    49.655111 
46300000    414.86653   -56474.638   -55987.341    1021.6037    122431.14    49.655111    49.655111    49.655111 
46400000    414.75257   -56473.869   -55986.706    917.86323    122431.14    49.655111    49.655111    49.655111 
46500000    416.58118   -56482.713   -55993.402    1012.8409    122431.14    49.655111    49.655111    49.655111 
46600000    420.55068   -56469.897   -55975.923    1054.2088    122431.14    49.655111    49.655111    49.655111 
46700000    421.03549   -56472.998   -55978.455    701.64819    122431.14    49.655111    49.655111    49.655111 
46800000     424.1778   -56472.238   -55974.005     1004.603    122431.14    49.655111    49.655111    49.655111 
46900000    425.99312   -56466.942   -55966.576    1399.0307    122431.14    49.655111    49.655111    49.655111 
47000000    420.06896   -56470.035   -55976.627    1408.7155    122431.14    49.655111    49.655111    49.655111 
47100000    421.37789    -56472.36   -55977.415    832.83634    122431.14    49.655111    49.655111    49.655111 
47200000    415.83316   -56477.446   -55989.013    579.45727    122431.14    49.655111    49.655111    49.655111 
47300000     417.9863   -56477.531    -55986.57    468.89143    122431.14    49.655111    49.655111    49.655111 
47400000    424.21025   -56484.083   -55985.811    787.75095    122431.14    49.655111    49.655111    49.655111 
47500000    414.88722   -56470.937   -55983.616    742.28065    122431.14    49.655111    49.655111    49.655111 
47600000    427.34606   -56468.866   -55966.911    1599.2031    122431.14    49.655111    49.655111    49.655111 
47700000    420.29595   -56469.868   -55976.194    1159.8076    122431.14    49.655111    49.655111    49.655111 
47800000    423.52764   -56474.648   -55977.178    997.97485    122431.14    49.655111    49.655111    49.655111 
47900000    417.44046       -56473    -55982.68    1267.3387    122431.14    49.655111    49.655111    49.655111 
48000000    416.43086   -56471.365    -55982.23    1294.5568    122431.14    49.655111    49.655111    49.655111 
48100000    423.05621   -56471.305   -55974.389     1248.983    122431.14    49.655111    49.655111    49.655111 
48200000    421.93346   -56472.169   -55976.571    1193.8726    122431.14    49.655111    49.655111    49.655111 
48300000    421.69045   -56478.761   -55983.449    970.44918    122431.14    49.655111    49.655111    49.655111 
48400000    423.91183   -56468.766   -55970.845    1157.8932    122431.14    49.655111    49.655111    49.655111 
48500000    425.84565   -56473.866   -55973.673    1328.2169    122431.14    49.655111    49.655111    49.655111 
48600000    421.08955   -56468.323   -55973.717    1123.8493    122431.14    49.655111    49.655111    49.655111 
48700000    420.08869   -56476.464   -55983.033     1189.865    122431.14    49.655111    49.655111    49.655111 
48800000    420.31332   -56474.465    -55980.77    1051.7328    122431.14    49.655111    49.655111    49.655111 
48900000    416.29815   -56473.833   -55984.855    1452.4983    122431.14    49.655111    49.655111    49.655111 
49000000    419.92485   -56481.391   -55988.153    938.96852    122431.14    49.655111    49.655111    49.655111 
49100000    424.88353   -56476.193    -55977.13    1036.2204    122431.14    49.655111    49.655111    49.655111 
49200000      421.628   -56477.546   -55982.307    611.05997    122431.14    49.655111    49.655111    49.655111 
49300000    420.28605   -56476.506   -55982.843    1043.1517    122431.14    49.655111    49.655111    49.655111 
49400000    422.86022   -56472.575   -55975.889    512.18386    122431.14    49.655111    49.655111    49.655111 
49500000     421.3845   -56474.296   -55979.344    1828.4905    122431.14    49.655111    49.655111    49.655111 
49600000    419.60032   -56469.257     -55976.4    1029.3357    122431.14    49.655111    49.655111    49.655111 
49700000    422.67772   -56470.769   -55974.297    1031.1253    122431.14    49.655111    49.655111    49.655111 
49800000     420.6262   -56471.459   -55977.397    1129.9234    122431.14    49.655111    49.655111    49.655111 
49900000    416.45432   -56477.591    -55988.43    793.06431    122431.14    49.655111    49.655111    49.655111 
50000000    426.01681   -56473.933   -55973.539    950.09482    122431.14    49.655111    49.655111    49.655111 
Loop time of 24797.5 on 48 procs for 50000000 steps with 9088 atoms

Performance: 1742.110 ns/day, 0.014 hours/ns, 2016.331 timesteps/s
99.2% CPU use with 48 MPI tasks x 1 OpenMP threads

MPI task timing breakdown:
Section |  min time  |  avg time  |  max time  |%varavg| %total
---------------------------------------------------------------
Pair    | 17817      | 18242      | 18881      | 159.5 | 73.56
Neigh   | 435.2      | 451        | 468.71     |  36.8 |  1.82
Comm    | 3059.7     | 3617       | 4077.1     | 370.9 | 14.59
Output  | 0.34863    | 0.35059    | 0.39279    |   1.0 |  0.00
Modify  | 2104.6     | 2240.7     | 2428.7     | 202.6 |  9.04
Other   |            | 246.2      |            |       |  0.99

Nlocal:        189.333 ave         197 max         180 min
Histogram: 1 0 4 6 8 11 5 6 6 1
Nghost:        2139.90 ave        2163 max        2116 min
Histogram: 1 4 10 3 4 7 7 3 7 2
Neighs:        20547.8 ave       21353 max       19546 min
Histogram: 1 2 4 6 7 8 5 7 6 2

Total # of neighbors = 986295
Ave neighs/atom = 108.52718
Neighbor list builds = 1264981
Dangerous builds = 309
write_restart T${T}.rst
write_restart T420.rst
System init for write_restart ...
clear
OMP_NUM_THREADS environment is not set. Defaulting to 1 thread. (../comm.cpp:94)
  using 1 OpenMP thread(s) per MPI task
package intel 1
#jump dms400.lmp
Total wall time: 6:53:20
