units           metal
boundary        p p p
atom_style      atomic
read_data    ../../data/data.T${T}
read_data    ../../data/data.T440
Reading data file ...
  triclinic box = (6.1302043 6.1302043 6.1302043) to (55.800733 55.800733 55.800733) with tilt (-5.6987727e-15 0.0000000 0.0000000)
  3 by 4 by 4 MPI processor grid
  reading atoms ...
  9088 atoms
  reading velocities ...
  9088 velocities
  read_data CPU = 0.195 seconds
mass            1   58.693  #Ni
mass            2   92.906  #Nb
pair_style      eam/fs
pair_coeff      * * v1_18_NiNb_B2.eam.fs  Ni Nb
change_box all triclinic
Changing box ...
  triclinic box = (6.1302043 6.1302043 6.1302043) to (55.800733 55.800733 55.800733) with tilt (-5.6987727e-15 0.0000000 0.0000000)
timestep 0.01
thermo ${iStep}
thermo 100000
reset_timestep 0
thermo_style custom step temp pe etotal press vol lx ly lz
fix             1 all nvt/sllod temp ${T} ${T}  0.1
fix             1 all nvt/sllod temp 440 ${T}  0.1
fix             1 all nvt/sllod temp 440 440  0.1
thermo_modify flush yes
fix nodrift all momentum 1  linear 1 1 1
fix com_seed all recenter INIT INIT INIT shift all
fix dsf all deform 1 xy  wiggle 1.0  ${f}   units box  remap v
fix dsf all deform 1 xy  wiggle 1.0  100000   units box  remap v
fix ps1 all ave/time 1 ${aveStep}  ${iStep} c_thermo_press[1] c_thermo_press[2]  c_thermo_press[3] c_thermo_press[4]  c_thermo_press[5] c_thermo_press[6]  file  stress.${T}
fix ps1 all ave/time 1 1000  ${iStep} c_thermo_press[1] c_thermo_press[2]  c_thermo_press[3] c_thermo_press[4]  c_thermo_press[5] c_thermo_press[6]  file  stress.${T}
fix ps1 all ave/time 1 1000  100000 c_thermo_press[1] c_thermo_press[2]  c_thermo_press[3] c_thermo_press[4]  c_thermo_press[5] c_thermo_press[6]  file  stress.${T}
fix ps1 all ave/time 1 1000  100000 c_thermo_press[1] c_thermo_press[2]  c_thermo_press[3] c_thermo_press[4]  c_thermo_press[5] c_thermo_press[6]  file  stress.440
dump            1 all custom ${dumpStep} dump.${T} id type x y z
dump            1 all custom 10000000 dump.${T} id type x y z
dump            1 all custom 10000000 dump.440 id type x y z
dump_modify 1 sort id
run ${runStep}
run 50000000
Neighbor list info ...
  update every 1 steps, delay 10 steps, check yes
  max neighbors/atom: 2000, page size: 100000
  master list distance cutoff = 8.9
  ghost atom cutoff = 8.9
  binsize = 4.45, bins = 12 12 12
  1 neighbor lists, perpetual/occasional/extra = 1 0 0
  (1) pair eam/fs/intel, perpetual
      attributes: half, newton on, intel
      pair build: half/bin/newton/tri/intel
      stencil: half/bin/3d/newton/tri
      bin: intel
Per MPI rank memory allocation (min/avg/max) = 6.357 | 6.415 | 6.464 Mbytes
Step Temp PotEng TotEng Press Volume Lx Ly Lz 
       0    441.11609    -56476.69   -55958.561   -599.35994    122545.22    49.670529    49.670529    49.670529 
  100000    430.02365   -56451.681    -55946.58   -523.71542    122545.22    49.670529    49.670529    49.670529 
  200000    435.61655   -56449.553   -55937.883   -191.91463    122545.22    49.670529    49.670529    49.670529 
  300000    442.51853   -56437.762   -55917.985     20.78351    122545.22    49.670529    49.670529    49.670529 
  400000    439.66875   -56453.542   -55937.112    -165.7515    122545.22    49.670529    49.670529    49.670529 
  500000    437.21329   -56446.419   -55932.874   -188.42031    122545.22    49.670529    49.670529    49.670529 
  600000    435.50799   -56449.128   -55937.586     492.9304    122545.22    49.670529    49.670529    49.670529 
  700000     441.3169   -56446.705    -55928.34    373.42028    122545.22    49.670529    49.670529    49.670529 
  800000    438.02593   -56447.929   -55933.429     18.36371    122545.22    49.670529    49.670529    49.670529 
  900000    435.75782   -56449.361   -55937.526    18.064779    122545.22    49.670529    49.670529    49.670529 
 1000000    435.96414    -56451.47   -55939.392   -401.80198    122545.22    49.670529    49.670529    49.670529 
 1100000     450.0949    -56446.15   -55917.474   -122.39019    122545.22    49.670529    49.670529    49.670529 
 1200000    439.89893   -56445.554   -55928.855    -572.0587    122545.22    49.670529    49.670529    49.670529 
 1300000    438.50255   -56443.615   -55928.556   -122.43631    122545.22    49.670529    49.670529    49.670529 
 1400000    439.35558   -56444.099   -55928.037   -95.089388    122545.22    49.670529    49.670529    49.670529 
 1500000    442.87285   -56445.056   -55924.864   -415.08617    122545.22    49.670529    49.670529    49.670529 
 1600000    442.37841   -56442.098   -55922.486    56.710999    122545.22    49.670529    49.670529    49.670529 
 1700000    439.10737   -56445.948   -55930.178    239.28835    122545.22    49.670529    49.670529    49.670529 
 1800000    444.82466   -56448.814   -55926.329   -27.511686    122545.22    49.670529    49.670529    49.670529 
 1900000    440.80575   -56442.802   -55925.038   -49.098672    122545.22    49.670529    49.670529    49.670529 
 2000000    444.87833   -56441.996   -55919.448   -66.666785    122545.22    49.670529    49.670529    49.670529 
 2100000    438.87466   -56452.173   -55936.677   -114.03926    122545.22    49.670529    49.670529    49.670529 
 2200000    447.63531   -56451.841   -55926.055     224.1625    122545.22    49.670529    49.670529    49.670529 
 2300000    441.00495   -56441.949    -55923.95    177.38389    122545.22    49.670529    49.670529    49.670529 
 2400000    438.71558   -56448.448   -55933.139      349.594    122545.22    49.670529    49.670529    49.670529 
 2500000    439.47643   -56443.427   -55927.223    -159.2942    122545.22    49.670529    49.670529    49.670529 
 2600000    437.36669   -56448.464   -55934.738   -71.509072    122545.22    49.670529    49.670529    49.670529 
 2700000    437.50518   -56436.955   -55923.067    598.17549    122545.22    49.670529    49.670529    49.670529 
 2800000    441.20892   -56447.217   -55928.979   -557.60774    122545.22    49.670529    49.670529    49.670529 
 2900000    448.78145   -56441.877   -55914.744    610.12454    122545.22    49.670529    49.670529    49.670529 
 3000000     439.4857   -56442.221   -55926.007    -45.72552    122545.22    49.670529    49.670529    49.670529 
 3100000    442.24308   -56443.578   -55924.125   -134.05728    122545.22    49.670529    49.670529    49.670529 
 3200000    445.01139   -56444.227   -55921.523    150.43132    122545.22    49.670529    49.670529    49.670529 
 3300000    442.03831    -56451.68   -55932.468    -616.8466    122545.22    49.670529    49.670529    49.670529 
 3400000     442.2032   -56443.028   -55923.622    165.62581    122545.22    49.670529    49.670529    49.670529 
 3500000    433.06038   -56435.174   -55926.507    810.91859    122545.22    49.670529    49.670529    49.670529 
 3600000    438.83807   -56443.677   -55928.224   -421.49044    122545.22    49.670529    49.670529    49.670529 
 3700000    441.56988   -56442.343   -55923.681   -275.85289    122545.22    49.670529    49.670529    49.670529 
 3800000    440.28004    -56460.59   -55943.442    -325.5058    122545.22    49.670529    49.670529    49.670529 
 3900000    436.77561   -56451.071    -55938.04   -151.72147    122545.22    49.670529    49.670529    49.670529 
 4000000     441.2704   -56458.225   -55939.914   -302.65257    122545.22    49.670529    49.670529    49.670529 
 4100000    440.99517   -56443.327    -55925.34    313.58734    122545.22    49.670529    49.670529    49.670529 
 4200000    439.86535   -56451.194   -55934.534     319.3588    122545.22    49.670529    49.670529    49.670529 
 4300000    441.02539   -56442.676   -55924.654   -379.59471    122545.22    49.670529    49.670529    49.670529 
 4400000    440.18404   -56450.442   -55933.407    144.22919    122545.22    49.670529    49.670529    49.670529 
 4500000    443.79082    -56450.85   -55929.579   -264.01133    122545.22    49.670529    49.670529    49.670529 
 4600000    443.38525   -56444.831   -55924.036   -61.867406    122545.22    49.670529    49.670529    49.670529 
 4700000    439.34189   -56440.831   -55924.786   -313.68978    122545.22    49.670529    49.670529    49.670529 
 4800000     436.8363   -56444.403     -55931.3   -246.36226    122545.22    49.670529    49.670529    49.670529 
 4900000    438.81058   -56451.258   -55935.836   -125.66014    122545.22    49.670529    49.670529    49.670529 
 5000000    436.59985   -56445.128   -55932.303    268.40838    122545.22    49.670529    49.670529    49.670529 
 5100000    440.22046   -56439.981   -55922.904    223.89046    122545.22    49.670529    49.670529    49.670529 
 5200000    437.13003   -56443.756   -55930.308    94.506006    122545.22    49.670529    49.670529    49.670529 
 5300000    441.89198   -56451.838   -55932.798    594.11871    122545.22    49.670529    49.670529    49.670529 
 5400000    441.36363   -56451.897   -55933.477    83.038608    122545.22    49.670529    49.670529    49.670529 
 5500000    440.97087   -56447.313   -55929.354   -374.76894    122545.22    49.670529    49.670529    49.670529 
 5600000    438.16238   -56448.895   -55934.235    298.00573    122545.22    49.670529    49.670529    49.670529 
 5700000    430.59923   -56448.962   -55943.186   -173.63374    122545.22    49.670529    49.670529    49.670529 
 5800000    439.22094    -56448.21   -55932.307   -160.47999    122545.22    49.670529    49.670529    49.670529 
 5900000    428.18633   -56444.245   -55941.303    192.91297    122545.22    49.670529    49.670529    49.670529 
 6000000    444.82582   -56450.244   -55927.757   -182.39942    122545.22    49.670529    49.670529    49.670529 
 6100000    443.54689   -56448.569   -55927.585   -44.220768    122545.22    49.670529    49.670529    49.670529 
 6200000    441.96006   -56446.605   -55927.484    279.92285    122545.22    49.670529    49.670529    49.670529 
 6300000    433.48537   -56440.156   -55930.989    94.855534    122545.22    49.670529    49.670529    49.670529 
 6400000    442.14928   -56455.388   -55936.045    219.49276    122545.22    49.670529    49.670529    49.670529 
 6500000     439.8288   -56442.073   -55925.456   -8.2176426    122545.22    49.670529    49.670529    49.670529 
 6600000    440.30104   -56447.619   -55930.448    216.25815    122545.22    49.670529    49.670529    49.670529 
 6700000    446.74171   -56445.861   -55921.124    673.02252    122545.22    49.670529    49.670529    49.670529 
 6800000    442.02437   -56449.745   -55930.549    282.76677    122545.22    49.670529    49.670529    49.670529 
 6900000    438.05003   -56440.003   -55925.475    -140.9547    122545.22    49.670529    49.670529    49.670529 
 7000000     443.3179   -56442.876   -55922.161    555.62244    122545.22    49.670529    49.670529    49.670529 
 7100000    444.46189   -56448.211   -55926.152     329.1577    122545.22    49.670529    49.670529    49.670529 
 7200000    432.22413   -56442.693   -55935.008    399.40347    122545.22    49.670529    49.670529    49.670529 
 7300000    443.79527    -56453.94   -55932.664    -254.2844    122545.22    49.670529    49.670529    49.670529 
 7400000    435.48187   -56439.761   -55928.249    448.70714    122545.22    49.670529    49.670529    49.670529 
 7500000    447.29313   -56455.164   -55929.779   -51.342254    122545.22    49.670529    49.670529    49.670529 
 7600000    440.36136   -56450.805   -55933.563   -200.90796    122545.22    49.670529    49.670529    49.670529 
 7700000    441.18702   -56442.392   -55924.179   -285.16823    122545.22    49.670529    49.670529    49.670529 
 7800000    438.53659    -56447.12   -55932.021    86.395121    122545.22    49.670529    49.670529    49.670529 
 7900000    447.17567   -56445.806   -55920.559    315.67967    122545.22    49.670529    49.670529    49.670529 
 8000000    438.18926   -56448.961   -55934.269   -431.72662    122545.22    49.670529    49.670529    49.670529 
 8100000    445.21255   -56444.434   -55921.493    -116.6287    122545.22    49.670529    49.670529    49.670529 
 8200000    437.81236   -56436.947   -55922.699    265.32036    122545.22    49.670529    49.670529    49.670529 
 8300000    436.04155   -56443.876   -55931.707    321.69634    122545.22    49.670529    49.670529    49.670529 
 8400000     444.1831   -56444.514   -55922.783    221.27449    122545.22    49.670529    49.670529    49.670529 
 8500000    444.79994    -56441.14   -55918.684    2.5451966    122545.22    49.670529    49.670529    49.670529 
 8600000    444.43013     -56450.5   -55928.478    35.284187    122545.22    49.670529    49.670529    49.670529 
 8700000    437.26404   -56445.023   -55931.418    408.23641    122545.22    49.670529    49.670529    49.670529 
 8800000    444.73757   -56446.343    -55923.96   -14.337579    122545.22    49.670529    49.670529    49.670529 
 8900000     440.6893   -56447.849   -55930.221   -67.497394    122545.22    49.670529    49.670529    49.670529 
 9000000    437.81674   -56445.403   -55931.149   -294.50361    122545.22    49.670529    49.670529    49.670529 
 9100000    437.03613   -56443.896   -55930.559    47.827632    122545.22    49.670529    49.670529    49.670529 
 9200000    444.21276   -56442.551   -55920.784    254.60211    122545.22    49.670529    49.670529    49.670529 
 9300000    439.25395   -56453.191   -55937.249    85.428491    122545.22    49.670529    49.670529    49.670529 
 9400000    438.83339   -56452.281   -55936.833   -377.12998    122545.22    49.670529    49.670529    49.670529 
 9500000    440.61378   -56452.675   -55935.136   -85.216442    122545.22    49.670529    49.670529    49.670529 
 9600000     431.7847   -56452.231   -55945.063   -732.19713    122545.22    49.670529    49.670529    49.670529 
 9700000    439.39799   -56446.602   -55930.491   -289.93215    122545.22    49.670529    49.670529    49.670529 
 9800000    436.27765   -56463.565   -55951.119   -577.58799    122545.22    49.670529    49.670529    49.670529 
 9900000    446.27637   -56452.882   -55928.691   -17.853431    122545.22    49.670529    49.670529    49.670529 
10000000    440.07313   -56453.822   -55936.918   -99.238869    122545.22    49.670529    49.670529    49.670529 
10100000     446.8145   -56444.366   -55919.543    251.91664    122545.22    49.670529    49.670529    49.670529 
10200000    443.92532   -56442.221   -55920.792     10.55292    122545.22    49.670529    49.670529    49.670529 
10300000    433.60968   -56447.347   -55938.035   -59.986512    122545.22    49.670529    49.670529    49.670529 
10400000    439.46325   -56444.273   -55928.085   -39.616586    122545.22    49.670529    49.670529    49.670529 
10500000    437.89271   -56446.853    -55932.51    117.11676    122545.22    49.670529    49.670529    49.670529 
10600000    437.67795   -56451.022   -55936.931   -360.79661    122545.22    49.670529    49.670529    49.670529 
10700000    441.50122   -56450.206   -55931.624   -98.518264    122545.22    49.670529    49.670529    49.670529 
10800000    442.34825   -56452.109   -55932.532    139.43624    122545.22    49.670529    49.670529    49.670529 
10900000    434.79107   -56457.543   -55946.843   -659.63675    122545.22    49.670529    49.670529    49.670529 
11000000    442.32108   -56451.272   -55931.728    24.566761    122545.22    49.670529    49.670529    49.670529 
11100000    442.82529   -56451.238   -55931.101   -131.89441    122545.22    49.670529    49.670529    49.670529 
11200000    438.41734    -56441.19    -55926.23   -22.065227    122545.22    49.670529    49.670529    49.670529 
11300000    439.57614   -56445.339   -55929.018    34.771865    122545.22    49.670529    49.670529    49.670529 
11400000     438.5806    -56445.69   -55930.539    131.71999    122545.22    49.670529    49.670529    49.670529 
11500000    439.21339   -56448.917   -55933.022    9.4235163    122545.22    49.670529    49.670529    49.670529 
11600000    438.58383   -56450.232   -55935.077    210.56323    122545.22    49.670529    49.670529    49.670529 
11700000    442.40436   -56443.797   -55924.155   -13.550531    122545.22    49.670529    49.670529    49.670529 
11800000    440.34881   -56441.891   -55924.663    234.87295    122545.22    49.670529    49.670529    49.670529 
11900000     440.2037   -56448.726   -55931.668    354.28452    122545.22    49.670529    49.670529    49.670529 
12000000    436.70755   -56445.585   -55932.634    162.61856    122545.22    49.670529    49.670529    49.670529 
12100000    440.58811   -56438.907   -55921.398    613.29579    122545.22    49.670529    49.670529    49.670529 
12200000    440.88492   -56439.841   -55921.983    63.347633    122545.22    49.670529    49.670529    49.670529 
12300000    446.56685   -56442.924   -55918.392    34.319801    122545.22    49.670529    49.670529    49.670529 
12400000    439.37681   -56443.767    -55927.68    146.28045    122545.22    49.670529    49.670529    49.670529 
12500000    440.62774   -56447.187   -55929.631   -154.49057    122545.22    49.670529    49.670529    49.670529 
12600000    446.80536   -56439.099   -55914.287    500.12021    122545.22    49.670529    49.670529    49.670529 
12700000      441.429   -56447.762   -55929.265   -515.42563    122545.22    49.670529    49.670529    49.670529 
12800000    436.49189   -56433.732   -55921.034    250.85539    122545.22    49.670529    49.670529    49.670529 
12900000    439.54888   -56445.279    -55928.99   -191.84656    122545.22    49.670529    49.670529    49.670529 
13000000     435.8902    -56447.66   -55935.669   -158.46626    122545.22    49.670529    49.670529    49.670529 
13100000    440.54755   -56443.105   -55925.644   -150.03137    122545.22    49.670529    49.670529    49.670529 
13200000    433.86946   -56448.949   -55939.332   -421.35229    122545.22    49.670529    49.670529    49.670529 
13300000    444.98946   -56442.964   -55920.285    67.888341    122545.22    49.670529    49.670529    49.670529 
13400000     441.0982   -56441.474   -55923.366    179.17773    122545.22    49.670529    49.670529    49.670529 
13500000    438.71621   -56450.118   -55934.808     357.8896    122545.22    49.670529    49.670529    49.670529 
13600000    436.30501   -56450.317   -55937.839   -308.23185    122545.22    49.670529    49.670529    49.670529 
13700000    440.28073   -56443.483   -55926.335   -185.48854    122545.22    49.670529    49.670529    49.670529 
13800000    439.54657   -56458.234   -55941.949   -81.171039    122545.22    49.670529    49.670529    49.670529 
13900000     435.9222   -56450.716   -55938.687   -471.21876    122545.22    49.670529    49.670529    49.670529 
14000000    437.46053    -56447.74   -55933.905   -547.52237    122545.22    49.670529    49.670529    49.670529 
14100000     436.7052    -56450.64   -55937.692   -511.64697    122545.22    49.670529    49.670529    49.670529 
14200000    439.39783   -56453.884   -55937.773   -10.343775    122545.22    49.670529    49.670529    49.670529 
14300000    442.59727   -56450.512   -55930.643   -91.649276    122545.22    49.670529    49.670529    49.670529 
14400000    433.82521   -56450.758   -55941.193   -212.74187    122545.22    49.670529    49.670529    49.670529 
14500000    434.64777   -56451.784   -55941.252   -385.88513    122545.22    49.670529    49.670529    49.670529 
14600000    439.10333   -56442.852   -55927.087   -155.26476    122545.22    49.670529    49.670529    49.670529 
14700000    437.06411   -56449.412   -55936.042   -31.523399    122545.22    49.670529    49.670529    49.670529 
14800000    443.83811   -56446.579   -55925.253   -411.03199    122545.22    49.670529    49.670529    49.670529 
14900000    436.73003   -56445.672   -55932.695   -85.744176    122545.22    49.670529    49.670529    49.670529 
15000000    442.86806   -56453.185   -55932.998   -267.05647    122545.22    49.670529    49.670529    49.670529 
15100000    432.67203   -56455.502   -55947.291    112.11257    122545.22    49.670529    49.670529    49.670529 
15200000    436.16192   -56448.048   -55935.738   -144.53719    122545.22    49.670529    49.670529    49.670529 
15300000    432.66447   -56448.005   -55939.803    307.23413    122545.22    49.670529    49.670529    49.670529 
15400000    440.60507   -56447.505   -55929.976   -294.53719    122545.22    49.670529    49.670529    49.670529 
15500000    436.98888   -56443.891   -55930.609    174.59733    122545.22    49.670529    49.670529    49.670529 
15600000    442.70248   -56435.293   -55915.301    153.50996    122545.22    49.670529    49.670529    49.670529 
15700000    447.84675   -56458.334   -55932.299   -30.241866    122545.22    49.670529    49.670529    49.670529 
15800000    438.57086   -56451.971   -55936.831    123.48063    122545.22    49.670529    49.670529    49.670529 
15900000    446.87804   -56451.251   -55926.354   -403.59104    122545.22    49.670529    49.670529    49.670529 
16000000    435.41164   -56451.788   -55940.359   -146.44941    122545.22    49.670529    49.670529    49.670529 
16100000    444.47889   -56449.266   -55927.187   -73.926796    122545.22    49.670529    49.670529    49.670529 
16200000    442.21735   -56449.533    -55930.11    386.27617    122545.22    49.670529    49.670529    49.670529 
16300000    435.08123   -56450.333   -55939.292    69.484104    122545.22    49.670529    49.670529    49.670529 
16400000    439.89127   -56440.905   -55924.215    790.15228    122545.22    49.670529    49.670529    49.670529 
16500000    440.89882   -56446.528   -55928.654    156.95667    122545.22    49.670529    49.670529    49.670529 
16600000    439.14077   -56442.633   -55926.824    260.69793    122545.22    49.670529    49.670529    49.670529 
16700000    440.10982   -56436.714   -55919.766    436.57324    122545.22    49.670529    49.670529    49.670529 
16800000      435.159    -56438.79   -55927.657    219.52786    122545.22    49.670529    49.670529    49.670529 
16900000    444.12077   -56442.187   -55920.529    580.76971    122545.22    49.670529    49.670529    49.670529 
17000000    441.21017    -56437.77    -55919.53    595.41988    122545.22    49.670529    49.670529    49.670529 
17100000    440.80517   -56451.678   -55933.914   -72.019485    122545.22    49.670529    49.670529    49.670529 
17200000    438.64637   -56440.612   -55925.384   -421.32786    122545.22    49.670529    49.670529    49.670529 
17300000    441.54822   -56443.379   -55924.742    31.093887    122545.22    49.670529    49.670529    49.670529 
17400000    435.61099   -56450.195   -55938.532   -223.37593    122545.22    49.670529    49.670529    49.670529 
17500000    436.64325    -56437.97   -55925.094    341.83676    122545.22    49.670529    49.670529    49.670529 
17600000    444.34573    -56447.48   -55925.558   -284.07003    122545.22    49.670529    49.670529    49.670529 
17700000    445.28562   -56450.296    -55927.27    -109.2295    122545.22    49.670529    49.670529    49.670529 
17800000    443.14201   -56443.712   -55923.204     265.0352    122545.22    49.670529    49.670529    49.670529 
17900000     443.3212   -56448.425   -55927.706   -492.46612    122545.22    49.670529    49.670529    49.670529 
18000000    440.79063   -56441.783   -55924.036    18.579457    122545.22    49.670529    49.670529    49.670529 
18100000    437.79499   -56441.852   -55927.624    345.72621    122545.22    49.670529    49.670529    49.670529 
18200000    442.02901   -56450.817   -55931.615    455.70301    122545.22    49.670529    49.670529    49.670529 
18300000    436.05547   -56439.968   -55927.783    301.92786    122545.22    49.670529    49.670529    49.670529 
18400000    437.46614   -56432.832    -55918.99    653.01415    122545.22    49.670529    49.670529    49.670529 
18500000    439.63758   -56437.392   -55920.999    316.75479    122545.22    49.670529    49.670529    49.670529 
18600000    442.22353   -56450.981   -55931.551   -281.47329    122545.22    49.670529    49.670529    49.670529 
18700000    440.34932   -56451.922   -55934.694   -2.8172773    122545.22    49.670529    49.670529    49.670529 
18800000    441.95444   -56447.808   -55928.694    162.98533    122545.22    49.670529    49.670529    49.670529 
18900000    441.50475   -56443.199   -55924.614    469.98215    122545.22    49.670529    49.670529    49.670529 
19000000    439.34016   -56448.389   -55932.346    128.27747    122545.22    49.670529    49.670529    49.670529 
19100000    439.79787   -56447.018   -55930.438    357.69866    122545.22    49.670529    49.670529    49.670529 
19200000    437.61881   -56451.868   -55937.846    123.95687    122545.22    49.670529    49.670529    49.670529 
19300000    437.84222    -56444.17   -55929.886    459.41894    122545.22    49.670529    49.670529    49.670529 
19400000     441.6004   -56443.718    -55925.02    76.940206    122545.22    49.670529    49.670529    49.670529 
19500000    442.01535   -56446.337   -55927.152    125.06066    122545.22    49.670529    49.670529    49.670529 
19600000    442.70794   -56457.515   -55937.516   -449.62275    122545.22    49.670529    49.670529    49.670529 
19700000    440.48784   -56442.603   -55925.212      42.4261    122545.22    49.670529    49.670529    49.670529 
19800000    439.86388   -56445.622   -55928.964    185.54823    122545.22    49.670529    49.670529    49.670529 
19900000    441.03289   -56449.412   -55931.381    39.753505    122545.22    49.670529    49.670529    49.670529 
20000000    433.16396   -56449.329    -55940.54   -197.82652    122545.22    49.670529    49.670529    49.670529 
20100000    443.35502    -56449.09   -55928.331   -76.414699    122545.22    49.670529    49.670529    49.670529 
20200000    439.75297   -56457.761   -55941.233   -677.48796    122545.22    49.670529    49.670529    49.670529 
20300000    440.98939   -56448.647   -55930.666   -30.217677    122545.22    49.670529    49.670529    49.670529 
20400000    443.97674   -56451.172   -55929.683    154.47788    122545.22    49.670529    49.670529    49.670529 
20500000    440.72264   -56453.356   -55935.689  -0.35985813    122545.22    49.670529    49.670529    49.670529 
20600000    435.24562   -56448.367   -55937.133   -187.97848    122545.22    49.670529    49.670529    49.670529 
20700000     444.9015   -56448.419   -55925.843   -239.88735    122545.22    49.670529    49.670529    49.670529 
20800000     434.2611   -56445.202   -55935.124    284.20296    122545.22    49.670529    49.670529    49.670529 
20900000    436.17167   -56447.588   -55935.266   -87.512613    122545.22    49.670529    49.670529    49.670529 
21000000    439.91713   -56439.097   -55922.377    300.76173    122545.22    49.670529    49.670529    49.670529 
21100000    441.90125   -56446.698   -55927.646   -15.175486    122545.22    49.670529    49.670529    49.670529 
21200000    437.69069    -56448.82   -55934.714    -90.79781    122545.22    49.670529    49.670529    49.670529 
21300000    440.81212   -56448.711   -55930.939   -20.780904    122545.22    49.670529    49.670529    49.670529 
21400000    432.16058   -56441.659   -55934.048    504.85635    122545.22    49.670529    49.670529    49.670529 
21500000    440.35641   -56443.324   -55926.087    109.67504    122545.22    49.670529    49.670529    49.670529 
21600000     443.9633    -56438.58   -55917.106    435.19001    122545.22    49.670529    49.670529    49.670529 
21700000     440.7611   -56452.965   -55935.253   -123.06956    122545.22    49.670529    49.670529    49.670529 
21800000    440.13035   -56449.408   -55932.437   -530.28821    122545.22    49.670529    49.670529    49.670529 
21900000    447.76728   -56439.832   -55913.891    530.91396    122545.22    49.670529    49.670529    49.670529 
22000000    442.73459   -56446.044   -55926.013    274.35221    122545.22    49.670529    49.670529    49.670529 
22100000    437.74749   -56443.508   -55929.335    -96.58802    122545.22    49.670529    49.670529    49.670529 
22200000    433.70228    -56440.11   -55930.689    192.06778    122545.22    49.670529    49.670529    49.670529 
22300000    441.24592   -56443.852    -55925.57    193.38937    122545.22    49.670529    49.670529    49.670529 
22400000    438.53013   -56445.449   -55930.357   -115.11295    122545.22    49.670529    49.670529    49.670529 
22500000    440.75573   -56445.504   -55927.798   -368.89532    122545.22    49.670529    49.670529    49.670529 
22600000     437.1964   -56440.138   -55926.613    309.20919    122545.22    49.670529    49.670529    49.670529 
22700000    446.87835   -56442.635   -55917.738    73.829315    122545.22    49.670529    49.670529    49.670529 
22800000    433.43886   -56437.805   -55928.693     437.1649    122545.22    49.670529    49.670529    49.670529 
22900000    437.62125   -56444.286   -55930.262   -160.10907    122545.22    49.670529    49.670529    49.670529 
23000000    441.63966    -56445.45   -55926.706    301.74772    122545.22    49.670529    49.670529    49.670529 
23100000     440.7506   -56445.131   -55927.431   -270.87897    122545.22    49.670529    49.670529    49.670529 
23200000    441.57077   -56447.497   -55928.833    365.49596    122545.22    49.670529    49.670529    49.670529 
23300000    436.36204   -56445.807   -55933.261    -83.00326    122545.22    49.670529    49.670529    49.670529 
23400000    438.82128   -56453.275   -55937.841    488.70154    122545.22    49.670529    49.670529    49.670529 
23500000    438.77249   -56445.557    -55930.18   -258.65102    122545.22    49.670529    49.670529    49.670529 
23600000    432.49601   -56444.228   -55936.223   -177.54889    122545.22    49.670529    49.670529    49.670529 
23700000    438.72629   -56446.038   -55930.715   -203.02998    122545.22    49.670529    49.670529    49.670529 
23800000    437.48899   -56459.582   -55945.714    46.076493    122545.22    49.670529    49.670529    49.670529 
23900000    434.46769   -56455.057   -55944.737    -302.9919    122545.22    49.670529    49.670529    49.670529 
24000000     440.1866   -56441.212   -55924.174    194.42058    122545.22    49.670529    49.670529    49.670529 
24100000    437.88308   -56451.688   -55937.357   -49.163456    122545.22    49.670529    49.670529    49.670529 
24200000    446.00113   -56456.249   -55932.382   -269.82061    122545.22    49.670529    49.670529    49.670529 
24300000    434.32089   -56447.214   -55937.066   -146.29158    122545.22    49.670529    49.670529    49.670529 
24400000    447.31214   -56442.403   -55916.996   -171.64063    122545.22    49.670529    49.670529    49.670529 
24500000    438.57544   -56456.225    -55941.08    -110.5542    122545.22    49.670529    49.670529    49.670529 
24600000    443.49461   -56444.643    -55923.72    2.3347656    122545.22    49.670529    49.670529    49.670529 
24700000    441.61558   -56448.414   -55929.698    200.02536    122545.22    49.670529    49.670529    49.670529 
24800000    439.52714   -56446.982    -55930.72   -123.91833    122545.22    49.670529    49.670529    49.670529 
24900000    437.90156   -56455.756   -55941.402   -257.04131    122545.22    49.670529    49.670529    49.670529 
25000000    443.45082   -56451.698   -55930.826    76.105081    122545.22    49.670529    49.670529    49.670529 
25100000    435.93863   -56454.361   -55942.313   -218.78933    122545.22    49.670529    49.670529    49.670529 
25200000    436.47654   -56448.494   -55935.815   -298.04544    122545.22    49.670529    49.670529    49.670529 
25300000    437.96235   -56456.203   -55941.778    -984.6154    122545.22    49.670529    49.670529    49.670529 
25400000     442.0235   -56445.892   -55926.697    323.67123    122545.22    49.670529    49.670529    49.670529 
25500000    440.85229   -56441.383   -55923.563   -137.91636    122545.22    49.670529    49.670529    49.670529 
25600000    433.34191   -56444.352   -55935.354    118.28187    122545.22    49.670529    49.670529    49.670529 
25700000    446.08109   -56446.465   -55922.503    291.92189    122545.22    49.670529    49.670529    49.670529 
25800000    434.42419   -56449.038   -55938.769    21.286973    122545.22    49.670529    49.670529    49.670529 
25900000    442.53643   -56445.074   -55925.276    60.912726    122545.22    49.670529    49.670529    49.670529 
26000000    440.84549   -56441.281    -55923.47    373.35791    122545.22    49.670529    49.670529    49.670529 
26100000    434.95476   -56442.724   -55931.832     440.2088    122545.22    49.670529    49.670529    49.670529 
26200000    449.98849   -56446.479   -55917.928    224.55088    122545.22    49.670529    49.670529    49.670529 
26300000    440.35959    -56442.62    -55925.38    287.92061    122545.22    49.670529    49.670529    49.670529 
26400000    441.89939   -56447.723   -55928.673    20.916696    122545.22    49.670529    49.670529    49.670529 
26500000    440.39379     -56446.8    -55929.52   -121.43227    122545.22    49.670529    49.670529    49.670529 
26600000    438.21956   -56453.333   -55938.606    34.138271    122545.22    49.670529    49.670529    49.670529 
26700000    443.59978   -56448.578   -55927.531    122.03936    122545.22    49.670529    49.670529    49.670529 
26800000    437.70946    -56447.18   -55933.052    187.25536    122545.22    49.670529    49.670529    49.670529 
26900000    446.43921   -56438.976   -55914.594    408.80977    122545.22    49.670529    49.670529    49.670529 
27000000    440.46091   -56441.802   -55924.442    144.45157    122545.22    49.670529    49.670529    49.670529 
27100000    442.26471    -56444.01   -55924.531    9.2017018    122545.22    49.670529    49.670529    49.670529 
27200000    447.04083    -56439.39   -55914.302    626.52304    122545.22    49.670529    49.670529    49.670529 
27300000    441.92302   -56438.405   -55919.328    64.863334    122545.22    49.670529    49.670529    49.670529 
27400000    436.23894   -56432.611    -55920.21   -272.47599    122545.22    49.670529    49.670529    49.670529 
27500000    438.88125   -56443.968   -55928.464    86.667292    122545.22    49.670529    49.670529    49.670529 
27600000    436.83992   -56438.223   -55925.117    176.74992    122545.22    49.670529    49.670529    49.670529 
27700000    439.57229   -56445.251   -55928.935    281.57121    122545.22    49.670529    49.670529    49.670529 
27800000    440.61488    -56445.54   -55927.999    399.08664    122545.22    49.670529    49.670529    49.670529 
27900000    443.48806   -56438.277   -55917.362    392.35802    122545.22    49.670529    49.670529    49.670529 
28000000     436.0444   -56446.161   -55933.988   -485.86381    122545.22    49.670529    49.670529    49.670529 
28100000    442.15665    -56444.99   -55925.639    54.461716    122545.22    49.670529    49.670529    49.670529 
28200000    434.19394   -56442.328   -55932.329   -241.17335    122545.22    49.670529    49.670529    49.670529 
28300000    441.46388   -56440.522   -55921.985    1.9971745    122545.22    49.670529    49.670529    49.670529 
28400000    440.12989   -56444.964   -55927.994    304.86211    122545.22    49.670529    49.670529    49.670529 
28500000    444.59152   -56453.493   -55931.281    177.97726    122545.22    49.670529    49.670529    49.670529 
28600000    441.89511   -56441.238   -55922.193    733.92033    122545.22    49.670529    49.670529    49.670529 
28700000    434.26401   -56458.319   -55948.238   -33.807076    122545.22    49.670529    49.670529    49.670529 
28800000    441.72078   -56446.262   -55927.422    602.18509    122545.22    49.670529    49.670529    49.670529 
28900000    438.54488   -56452.891   -55937.782    92.094952    122545.22    49.670529    49.670529    49.670529 
29000000    446.54118   -56446.845   -55922.344   -101.90701    122545.22    49.670529    49.670529    49.670529 
29100000    444.82038    -56453.72    -55931.24    185.68189    122545.22    49.670529    49.670529    49.670529 
29200000    446.76931   -56450.924   -55926.155   -78.391437    122545.22    49.670529    49.670529    49.670529 
29300000    436.99213   -56444.734   -55931.448    254.83694    122545.22    49.670529    49.670529    49.670529 
29400000    439.10085   -56440.518   -55924.756    386.73212    122545.22    49.670529    49.670529    49.670529 
29500000    438.59616   -56450.175   -55935.006   -182.84701    122545.22    49.670529    49.670529    49.670529 
29600000    435.37208   -56444.951   -55933.568   -5.7074739    122545.22    49.670529    49.670529    49.670529 
29700000    442.93942   -56453.999   -55933.728    169.49002    122545.22    49.670529    49.670529    49.670529 
29800000    438.46254   -56448.029   -55933.017    73.963678    122545.22    49.670529    49.670529    49.670529 
29900000     438.6785   -56448.277   -55933.011    287.74758    122545.22    49.670529    49.670529    49.670529 
30000000    440.21293   -56446.476   -55929.408   -122.10365    122545.22    49.670529    49.670529    49.670529 
30100000    437.34492   -56452.862   -55939.163    265.61186    122545.22    49.670529    49.670529    49.670529 
30200000    444.31254   -56448.146   -55926.262    -223.4058    122545.22    49.670529    49.670529    49.670529 
30300000    436.33717   -56444.324   -55931.808   -114.71434    122545.22    49.670529    49.670529    49.670529 
30400000    443.65779   -56450.755   -55929.641   -9.0185081    122545.22    49.670529    49.670529    49.670529 
30500000    434.20778   -56450.962   -55940.948    -561.2342    122545.22    49.670529    49.670529    49.670529 
30600000    442.54794   -56455.615   -55935.804   -103.75325    122545.22    49.670529    49.670529    49.670529 
30700000    440.18935   -56453.222   -55936.182   -494.45273    122545.22    49.670529    49.670529    49.670529 
30800000    433.47288   -56452.074   -55942.922    139.08339    122545.22    49.670529    49.670529    49.670529 
30900000    436.29393   -56444.352   -55931.886    303.71846    122545.22    49.670529    49.670529    49.670529 
31000000    434.92479   -56442.256   -55931.399    554.75329    122545.22    49.670529    49.670529    49.670529 
31100000    440.73113   -56448.185   -55930.508    303.21088    122545.22    49.670529    49.670529    49.670529 
31200000    438.89239   -56444.476   -55928.959   -15.072985    122545.22    49.670529    49.670529    49.670529 
31300000    435.12692   -56442.935   -55931.841    276.82583    122545.22    49.670529    49.670529    49.670529 
31400000    436.53088   -56450.174   -55937.431    237.43749    122545.22    49.670529    49.670529    49.670529 
31500000    436.98595   -56448.537   -55935.259    65.523369    122545.22    49.670529    49.670529    49.670529 
31600000     432.4714   -56439.035    -55931.06    10.716881    122545.22    49.670529    49.670529    49.670529 
31700000    441.49645    -56438.61   -55920.034   -32.630515    122545.22    49.670529    49.670529    49.670529 
31800000    439.57858   -56441.053    -55924.73    126.94202    122545.22    49.670529    49.670529    49.670529 
31900000    435.83973   -56439.969   -55928.037   -39.719879    122545.22    49.670529    49.670529    49.670529 
32000000    434.01286   -56450.635   -55940.849   -326.80397    122545.22    49.670529    49.670529    49.670529 
32100000    437.17364    -56445.31   -55931.811     1.403349    122545.22    49.670529    49.670529    49.670529 
32200000       435.22   -56440.899   -55929.695    170.59573    122545.22    49.670529    49.670529    49.670529 
32300000    440.95423   -56445.228   -55927.289    115.95422    122545.22    49.670529    49.670529    49.670529 
32400000    439.04642    -56445.04   -55929.342   -225.89775    122545.22    49.670529    49.670529    49.670529 
32500000    439.53719   -56443.218   -55926.943    6.3677896    122545.22    49.670529    49.670529    49.670529 
32600000    440.73235   -56441.358    -55923.68    24.414009    122545.22    49.670529    49.670529    49.670529 
32700000    441.48935   -56436.606   -55918.039    252.84802    122545.22    49.670529    49.670529    49.670529 
32800000    441.84253   -56443.241   -55924.258    40.215474    122545.22    49.670529    49.670529    49.670529 
32900000    439.44883   -56441.146   -55924.975    391.97478    122545.22    49.670529    49.670529    49.670529 
33000000    437.99544   -56432.283   -55917.819    267.66443    122545.22    49.670529    49.670529    49.670529 
33100000    438.86104   -56443.557   -55928.077    251.25916    122545.22    49.670529    49.670529    49.670529 
33200000    442.52038   -56437.557   -55917.779    329.99603    122545.22    49.670529    49.670529    49.670529 
33300000    432.61258   -56432.659   -55924.518   -16.017945    122545.22    49.670529    49.670529    49.670529 
33400000    439.26103   -56441.355   -55925.404    439.21804    122545.22    49.670529    49.670529    49.670529 
33500000    447.97708   -56441.543   -55915.355    155.32228    122545.22    49.670529    49.670529    49.670529 
33600000    439.52362   -56443.722   -55927.463    218.69454    122545.22    49.670529    49.670529    49.670529 
33700000    435.32996   -56437.092   -55925.759    260.24897    122545.22    49.670529    49.670529    49.670529 
33800000    440.32274   -56447.505   -55930.308    65.082116    122545.22    49.670529    49.670529    49.670529 
33900000    445.69804   -56450.498   -55926.987   -147.86475    122545.22    49.670529    49.670529    49.670529 
34000000    443.28564   -56451.606   -55930.928   -138.14499    122545.22    49.670529    49.670529    49.670529 
34100000    436.34795   -56444.494   -55931.965    422.34235    122545.22    49.670529    49.670529    49.670529 
34200000    436.53962   -56444.949   -55932.195   -162.60583    122545.22    49.670529    49.670529    49.670529 
34300000    440.46283   -56450.161   -55932.799   -145.11632    122545.22    49.670529    49.670529    49.670529 
34400000    438.44646   -56453.424   -55938.431   -214.15255    122545.22    49.670529    49.670529    49.670529 
34500000    445.88046    -56451.59   -55927.865    19.593352    122545.22    49.670529    49.670529    49.670529 
34600000    431.75589   -56443.719   -55936.584   -145.28135    122545.22    49.670529    49.670529    49.670529 
34700000    436.47637   -56451.836   -55939.156   -106.88216    122545.22    49.670529    49.670529    49.670529 
34800000    441.42861   -56453.288   -55934.792   -6.8224063    122545.22    49.670529    49.670529    49.670529 
34900000    437.77768   -56454.384   -55940.176   -529.79912    122545.22    49.670529    49.670529    49.670529 
35000000    435.47339   -56447.101     -55935.6   -33.988999    122545.22    49.670529    49.670529    49.670529 
35100000    438.20886    -56455.36   -55940.645   -572.06708    122545.22    49.670529    49.670529    49.670529 
35200000    440.48461   -56449.809   -55932.421    312.70222    122545.22    49.670529    49.670529    49.670529 
35300000    446.81374    -56445.82   -55920.998   -73.790672    122545.22    49.670529    49.670529    49.670529 
35400000    441.32057   -56460.095   -55941.725   -325.52141    122545.22    49.670529    49.670529    49.670529 
35500000    437.18223   -56447.165   -55933.656    157.93469    122545.22    49.670529    49.670529    49.670529 
35600000    446.69824   -56452.102   -55927.416   -359.16558    122545.22    49.670529    49.670529    49.670529 
35700000    438.56748   -56450.505    -55935.37   -197.40508    122545.22    49.670529    49.670529    49.670529 
35800000    434.91828   -56448.991   -55938.142   -145.68598    122545.22    49.670529    49.670529    49.670529 
35900000    440.73426   -56446.877   -55929.197    70.995507    122545.22    49.670529    49.670529    49.670529 
36000000    438.14546   -56447.963   -55933.323   -81.409449    122545.22    49.670529    49.670529    49.670529 
36100000    440.62301   -56442.338   -55924.788   -183.03193    122545.22    49.670529    49.670529    49.670529 
36200000     434.6169   -56446.088   -55935.593   -327.14141    122545.22    49.670529    49.670529    49.670529 
36300000    435.98084   -56445.489   -55933.391    -304.6028    122545.22    49.670529    49.670529    49.670529 
36400000    440.04574   -56446.306   -55929.434   -298.86553    122545.22    49.670529    49.670529    49.670529 
36500000    438.50515   -56448.916   -55933.854   -199.23877    122545.22    49.670529    49.670529    49.670529 
36600000     447.2419   -56437.009   -55911.685    535.18106    122545.22    49.670529    49.670529    49.670529 
36700000    439.24393   -56442.606   -55926.676   -220.49443    122545.22    49.670529    49.670529    49.670529 
36800000    435.50306   -56445.227    -55933.69    219.91671    122545.22    49.670529    49.670529    49.670529 
36900000    443.89726   -56445.919   -55924.524    85.487097    122545.22    49.670529    49.670529    49.670529 
37000000    446.79411   -56449.924   -55925.125     -190.889    122545.22    49.670529    49.670529    49.670529 
37100000    438.87734   -56445.797   -55930.297    30.525668    122545.22    49.670529    49.670529    49.670529 
37200000    433.51283   -56444.435   -55935.236    346.56931    122545.22    49.670529    49.670529    49.670529 
37300000    434.97475   -56446.294   -55935.378    181.38302    122545.22    49.670529    49.670529    49.670529 
37400000    436.89288   -56439.737   -55926.568    390.87144    122545.22    49.670529    49.670529    49.670529 
37500000    441.40899   -56442.042   -55923.569    418.76061    122545.22    49.670529    49.670529    49.670529 
37600000    441.07832   -56443.829   -55925.744    145.03032    122545.22    49.670529    49.670529    49.670529 
37700000    434.26574   -56445.655   -55935.572     218.7663    122545.22    49.670529    49.670529    49.670529 
37800000    440.25564    -56440.28   -55923.161    115.89808    122545.22    49.670529    49.670529    49.670529 
37900000    446.23299   -56440.636   -55916.496     331.5171    122545.22    49.670529    49.670529    49.670529 
38000000    443.08144   -56448.086   -55927.649   -44.719529    122545.22    49.670529    49.670529    49.670529 
38100000    438.15045   -56446.058   -55931.412   -235.81448    122545.22    49.670529    49.670529    49.670529 
38200000     443.7335   -56447.866   -55926.663    79.874975    122545.22    49.670529    49.670529    49.670529 
38300000    433.90958   -56444.922   -55935.258   -32.265708    122545.22    49.670529    49.670529    49.670529 
38400000    441.50343    -56449.25   -55930.666   -330.64283    122545.22    49.670529    49.670529    49.670529 
38500000    439.61472   -56448.968   -55932.602   -388.03742    122545.22    49.670529    49.670529    49.670529 
38600000    428.66371    -56444.86   -55941.357     220.0305    122545.22    49.670529    49.670529    49.670529 
38700000    445.86989   -56439.667   -55915.954     317.1983    122545.22    49.670529    49.670529    49.670529 
38800000    442.03788   -56445.769   -55926.557    277.53727    122545.22    49.670529    49.670529    49.670529 
38900000    437.35292   -56445.902   -55932.193   -34.419543    122545.22    49.670529    49.670529    49.670529 
39000000    440.63052   -56448.177   -55930.618   -53.434984    122545.22    49.670529    49.670529    49.670529 
39100000    442.39794   -56446.539   -55926.904   -52.619764    122545.22    49.670529    49.670529    49.670529 
39200000    437.08035   -56453.988   -55940.599   -396.77863    122545.22    49.670529    49.670529    49.670529 
39300000    439.24027   -56451.225   -55935.299    266.76293    122545.22    49.670529    49.670529    49.670529 
39400000    444.74081   -56444.135   -55921.748    14.072745    122545.22    49.670529    49.670529    49.670529 
39500000    444.88819   -56448.293   -55925.733   -213.44226    122545.22    49.670529    49.670529    49.670529 
39600000    445.02231   -56451.969   -55929.252   -210.62441    122545.22    49.670529    49.670529    49.670529 
39700000    437.58169   -56449.635   -55935.657   -337.54107    122545.22    49.670529    49.670529    49.670529 
39800000    437.37739   -56448.083   -55934.345     85.30787    122545.22    49.670529    49.670529    49.670529 
39900000    439.08524   -56452.552   -55936.808   -23.884828    122545.22    49.670529    49.670529    49.670529 
40000000    437.62849   -56457.057   -55943.024   -280.01458    122545.22    49.670529    49.670529    49.670529 
40100000    437.85183   -56453.307   -55939.012   -387.40239    122545.22    49.670529    49.670529    49.670529 
40200000    440.06786   -56444.324   -55927.426    111.77024    122545.22    49.670529    49.670529    49.670529 
40300000    446.81703   -56452.198   -55927.373   -89.052218    122545.22    49.670529    49.670529    49.670529 
40400000    438.41813   -56446.794   -55931.834    310.01393    122545.22    49.670529    49.670529    49.670529 
40500000    443.91663   -56449.606   -55928.188   -74.950714    122545.22    49.670529    49.670529    49.670529 
40600000    443.49886   -56446.369   -55925.441    701.11873    122545.22    49.670529    49.670529    49.670529 
40700000     435.6841   -56443.854   -55932.105   -393.23892    122545.22    49.670529    49.670529    49.670529 
40800000    434.51932    -56447.88   -55937.499   -262.31074    122545.22    49.670529    49.670529    49.670529 
40900000    434.55598   -56450.678   -55940.255   -322.39314    122545.22    49.670529    49.670529    49.670529 
41000000    443.61858   -56445.444   -55924.375    163.58439    122545.22    49.670529    49.670529    49.670529 
41100000    441.56413   -56446.391   -55927.735    62.220088    122545.22    49.670529    49.670529    49.670529 
41200000    437.64372   -56447.597   -55933.547    289.47775    122545.22    49.670529    49.670529    49.670529 
41300000     442.1259   -56449.866    -55930.55   -148.66981    122545.22    49.670529    49.670529    49.670529 
41400000    439.10048   -56442.921    -55927.16    404.85038    122545.22    49.670529    49.670529    49.670529 
41500000     437.4505   -56446.855   -55933.032     65.24834    122545.22    49.670529    49.670529    49.670529 
41600000    439.56852   -56443.838   -55927.527   -255.01156    122545.22    49.670529    49.670529    49.670529 
41700000     444.0981   -56439.349   -55917.717   -38.675302    122545.22    49.670529    49.670529    49.670529 
41800000    443.90828   -56443.683   -55922.274    162.67476    122545.22    49.670529    49.670529    49.670529 
41900000    434.64266   -56450.374   -55939.849   -214.58592    122545.22    49.670529    49.670529    49.670529 
42000000    439.23083   -56447.698   -55931.783    76.939966    122545.22    49.670529    49.670529    49.670529 
42100000    433.99891   -56444.885   -55935.115   -194.58122    122545.22    49.670529    49.670529    49.670529 
42200000    434.30437   -56442.748   -55932.619    778.03871    122545.22    49.670529    49.670529    49.670529 
42300000    437.18482   -56447.624   -55934.112   -89.028712    122545.22    49.670529    49.670529    49.670529 
42400000    437.12373   -56438.599    -55925.16    217.66102    122545.22    49.670529    49.670529    49.670529 
42500000    442.22356   -56437.001   -55917.571    294.03418    122545.22    49.670529    49.670529    49.670529 
42600000    438.10461   -56452.727   -55938.136   -604.46721    122545.22    49.670529    49.670529    49.670529 
42700000     436.3181   -56446.795   -55934.301   -348.34738    122545.22    49.670529    49.670529    49.670529 
42800000    438.30737   -56438.288   -55923.458    507.80843    122545.22    49.670529    49.670529    49.670529 
42900000    433.51124   -56448.185   -55938.988   -240.77848    122545.22    49.670529    49.670529    49.670529 
43000000    438.16339   -56441.199   -55926.538    227.81829    122545.22    49.670529    49.670529    49.670529 
43100000    440.04439   -56447.249   -55930.379    175.85515    122545.22    49.670529    49.670529    49.670529 
43200000    440.14272   -56452.118   -55935.132   -472.19569    122545.22    49.670529    49.670529    49.670529 
43300000    435.14937   -56445.351    -55934.23   -457.62082    122545.22    49.670529    49.670529    49.670529 
43400000    439.77204   -56445.889   -55929.338    273.54899    122545.22    49.670529    49.670529    49.670529 
43500000     438.9086   -56448.489   -55932.952    -139.6883    122545.22    49.670529    49.670529    49.670529 
43600000    437.31596   -56439.205   -55925.539     512.9083    122545.22    49.670529    49.670529    49.670529 
43700000    447.01593   -56448.885   -55923.826   -30.263768    122545.22    49.670529    49.670529    49.670529 
43800000    437.77283   -56458.386   -55944.184   -161.90957    122545.22    49.670529    49.670529    49.670529 
43900000    445.46143   -56441.104   -55917.871    265.64426    122545.22    49.670529    49.670529    49.670529 
44000000    443.44808   -56453.107   -55932.239   -438.14981    122545.22    49.670529    49.670529    49.670529 
44100000    430.41048    -56441.62   -55936.066    158.71982    122545.22    49.670529    49.670529    49.670529 
44200000    438.18922    -56448.67   -55933.978   -361.36653    122545.22    49.670529    49.670529    49.670529 
44300000    436.23128   -56437.072    -55924.68    470.73211    122545.22    49.670529    49.670529    49.670529 
44400000    439.66123   -56451.503   -55935.082   -206.15506    122545.22    49.670529    49.670529    49.670529 
44500000     438.4796   -56448.538   -55933.506   -31.885369    122545.22    49.670529    49.670529    49.670529 
44600000     441.3417   -56448.728   -55930.334   -156.10765    122545.22    49.670529    49.670529    49.670529 
44700000    433.59195   -56442.655   -55933.363    200.57432    122545.22    49.670529    49.670529    49.670529 
44800000     443.1389    -56450.85   -55930.345   -80.741385    122545.22    49.670529    49.670529    49.670529 
44900000    437.55248    -56455.17   -55941.226   -54.813571    122545.22    49.670529    49.670529    49.670529 
45000000    444.24892   -56447.212   -55925.403   -198.33222    122545.22    49.670529    49.670529    49.670529 
45100000    428.74759   -56458.124   -55954.523   -176.02037    122545.22    49.670529    49.670529    49.670529 
45200000    438.28668   -56446.451   -55931.645    235.33806    122545.22    49.670529    49.670529    49.670529 
45300000    440.69155   -56448.423   -55930.793    468.78238    122545.22    49.670529    49.670529    49.670529 
45400000    440.40281   -56451.735   -55934.443   -36.882631    122545.22    49.670529    49.670529    49.670529 
45500000    444.62016   -56439.292   -55917.047    620.44343    122545.22    49.670529    49.670529    49.670529 
45600000    446.41349   -56452.158   -55927.806   -328.57773    122545.22    49.670529    49.670529    49.670529 
45700000    438.58765   -56442.915   -55927.756    9.7539913    122545.22    49.670529    49.670529    49.670529 
45800000     436.7235   -56444.218   -55931.248     109.8694    122545.22    49.670529    49.670529    49.670529 
45900000    441.92089   -56444.047   -55924.972     249.8744    122545.22    49.670529    49.670529    49.670529 
46000000     439.3092   -56445.917    -55929.91    238.93819    122545.22    49.670529    49.670529    49.670529 
46100000    438.30861   -56442.499   -55927.668    119.05865    122545.22    49.670529    49.670529    49.670529 
46200000    445.37049   -56448.201   -55925.074    233.54776    122545.22    49.670529    49.670529    49.670529 
46300000    445.58284   -56447.044   -55923.668    199.97703    122545.22    49.670529    49.670529    49.670529 
46400000    441.89238   -56439.877   -55920.836    161.83213    122545.22    49.670529    49.670529    49.670529 
46500000    440.41117   -56443.234   -55925.932    161.84198    122545.22    49.670529    49.670529    49.670529 
46600000    437.25567   -56447.449   -55933.854    -359.1664    122545.22    49.670529    49.670529    49.670529 
46700000    435.70907   -56447.524   -55935.746    133.00298    122545.22    49.670529    49.670529    49.670529 
46800000    440.56739    -56444.93   -55927.445    -204.5708    122545.22    49.670529    49.670529    49.670529 
46900000    442.80979   -56443.247   -55923.128   -78.241597    122545.22    49.670529    49.670529    49.670529 
47000000    434.62406   -56453.531   -55943.027   -57.135696    122545.22    49.670529    49.670529    49.670529 
47100000    441.73457   -56445.752   -55926.896    52.883182    122545.22    49.670529    49.670529    49.670529 
47200000    439.60662   -56448.127   -55931.771   -102.77117    122545.22    49.670529    49.670529    49.670529 
47300000    434.97175   -56444.478   -55933.566    245.37518    122545.22    49.670529    49.670529    49.670529 
47400000    437.38541   -56436.035   -55922.287    183.81951    122545.22    49.670529    49.670529    49.670529 
47500000    438.48318   -56445.614   -55930.577     552.1225    122545.22    49.670529    49.670529    49.670529 
47600000    434.39381   -56447.698   -55937.465    19.091262    122545.22    49.670529    49.670529    49.670529 
47700000    444.92815   -56455.512   -55932.906    60.045734    122545.22    49.670529    49.670529    49.670529 
47800000    443.48458   -56445.395   -55924.484  0.061993057    122545.22    49.670529    49.670529    49.670529 
47900000    437.71396   -56440.523    -55926.39     135.2763    122545.22    49.670529    49.670529    49.670529 
48000000    438.34247   -56450.905   -55936.034    13.302856    122545.22    49.670529    49.670529    49.670529 
48100000    437.36935   -56439.713   -55925.984    425.36822    122545.22    49.670529    49.670529    49.670529 
48200000    438.19363   -56441.369   -55926.673    516.57277    122545.22    49.670529    49.670529    49.670529 
48300000    440.37061   -56448.485   -55931.231   -151.50903    122545.22    49.670529    49.670529    49.670529 
48400000    440.21124   -56449.831   -55932.764      335.426    122545.22    49.670529    49.670529    49.670529 
48500000    440.98473   -56443.449   -55925.474    448.55064    122545.22    49.670529    49.670529    49.670529 
48600000    444.17465   -56435.048   -55913.326   -248.09665    122545.22    49.670529    49.670529    49.670529 
48700000    443.45853   -56449.626   -55928.745    67.082264    122545.22    49.670529    49.670529    49.670529 
48800000    435.32009   -56443.418   -55932.097    240.29137    122545.22    49.670529    49.670529    49.670529 
48900000    439.34988   -56453.953   -55937.898   -45.351047    122545.22    49.670529    49.670529    49.670529 
49000000    442.67795   -56440.641   -55920.678    471.12924    122545.22    49.670529    49.670529    49.670529 
49100000    436.12516   -56456.966     -55944.7   -482.42595    122545.22    49.670529    49.670529    49.670529 
49200000    444.42982   -56455.845   -55933.824   -166.70204    122545.22    49.670529    49.670529    49.670529 
49300000    442.47415   -56447.297   -55927.573   -151.07039    122545.22    49.670529    49.670529    49.670529 
49400000    440.98101   -56446.043   -55928.073     612.3832    122545.22    49.670529    49.670529    49.670529 
49500000    436.93797   -56455.642    -55942.42   -412.55812    122545.22    49.670529    49.670529    49.670529 
49600000     441.1496   -56453.689    -55935.52   -528.12989    122545.22    49.670529    49.670529    49.670529 
49700000    437.88322   -56450.545   -55936.213    -173.1207    122545.22    49.670529    49.670529    49.670529 
49800000     440.2529   -56440.785   -55923.669    239.16852    122545.22    49.670529    49.670529    49.670529 
49900000    435.52658   -56453.469   -55941.905    -423.4888    122545.22    49.670529    49.670529    49.670529 
50000000    442.99593    -56438.57   -55918.233    268.30923    122545.22    49.670529    49.670529    49.670529 
Loop time of 24818.1 on 48 procs for 50000000 steps with 9088 atoms

Performance: 1740.664 ns/day, 0.014 hours/ns, 2014.658 timesteps/s
99.2% CPU use with 48 MPI tasks x 1 OpenMP threads

MPI task timing breakdown:
Section |  min time  |  avg time  |  max time  |%varavg| %total
---------------------------------------------------------------
Pair    | 18059      | 18298      | 18573      |  99.0 | 73.73
Neigh   | 500.01     | 512.75     | 526.75     |  31.5 |  2.07
Comm    | 3198       | 3515.7     | 3838.7     | 244.9 | 14.17
Output  | 0.6213     | 0.62357    | 0.67771    |   1.0 |  0.00
Modify  | 2166.7     | 2247.2     | 2349.2     |  78.7 |  9.05
Other   |            | 244        |            |       |  0.98

Nlocal:        189.333 ave         196 max         181 min
Histogram: 3 1 4 3 10 3 8 5 7 4
Nghost:        2131.25 ave        2153 max        2112 min
Histogram: 2 6 3 4 12 7 5 6 2 1
Neighs:        20534.0 ave       21280 max       19444 min
Histogram: 1 4 0 4 7 8 6 6 9 3

Total # of neighbors = 985634
Ave neighs/atom = 108.45445
Neighbor list builds = 1442073
Dangerous builds = 707
write_restart T${T}.rst
write_restart T440.rst
System init for write_restart ...
clear
OMP_NUM_THREADS environment is not set. Defaulting to 1 thread. (../comm.cpp:94)
  using 1 OpenMP thread(s) per MPI task
package intel 1
#jump dms420.lmp
Total wall time: 6:53:40
