ITEM: TIMESTEP
0
ITEM: NUMBER OF ATOMS
9088
ITEM: BOX BOUNDS pp pp pp
-1.6884022236973664e-01 5.6053332848266173e+01
-1.6884022236973664e-01 5.6053332848266173e+01
-1.6884022236973664e-01 5.6053332848266173e+01
ITEM: ATOMS id type x y z
1 1 28.4142 41.1953 49.3464
2 1 44.6842 4.51786 36.4384
3 1 41.6787 12.739 50.3333
4 1 37.1169 49.1662 43.8022
5 1 11.4021 34.3488 8.33766
6 1 35.7663 25.5903 21.8003
7 1 19.8003 33.0039 1.23772
8 1 48.2426 1.65701 9.44796
9 1 55.9167 50.0612 40.0865
10 1 37.021 13.4914 53.5058
11 1 48.3881 35.6982 32.5315
12 1 35.4925 19.5005 36.7037
13 1 21.6384 48.5238 36.8674
14 1 19.9492 49.4528 50.0605
15 1 2.95934 36.7118 30.0617
16 1 26.772 0.668625 39.0126
17 1 50.26 10.1484 27.9928
18 1 4.04486 47.8174 35.9404
19 1 30.163 24.0272 52.0419
20 1 31.0365 2.65752 44.7017
21 1 25.4727 49.0135 50.2703
22 1 9.53602 41.5907 1.92528
23 1 21.7094 17.722 37.8403
24 1 3.29362 7.94014 55.4957
25 1 26.0586 27.4551 38.9324
26 1 19.911 28.1449 43.3221
27 1 34.8417 29.244 54.6128
28 1 13.5439 32.7012 15.0788
29 1 10.9385 50.2907 40.0024
30 1 49.2983 7.39537 44.2733
31 1 30.8981 4.94544 0.199758
32 1 33.8871 5.44104 23.2806
33 1 24.2768 41.7439 2.98364
34 1 14.4278 24.6364 1.88854
35 1 20.0223 51.0917 40.5849
36 1 16.6828 32.217 18.76
37 1 23.7282 55.9197 47.0239
38 1 23.2878 21.1549 6.09378
39 1 13.313 26.235 0.1452
40 1 8.72977 11.4613 47.9594
41 1 46.7674 40.7659 1.25593
42 1 5.44117 38.9749 14.8361
43 1 21.8244 16.8084 9.54964
44 1 50.6923 52.0665 23.6413
45 1 12.9669 43.6498 55.9071
46 1 55.9649 17.8281 11.0831
47 1 42.5657 6.4391 31.9606
48 1 18.503 30.6465 19.7087
49 1 7.4778 20.0596 32.3721
50 1 18.2213 19.6186 20.7511
51 1 50.1319 32.1468 30.5897
52 1 22.437 10.3045 37.6249
53 1 52.7185 20.3904 1.15178
54 1 52.1795 17.9557 42.9208
55 1 39.9069 44.9756 29.3642
56 1 11.7634 25.4714 44.8511
57 1 6.88294 33.2192 34.5003
58 1 37.3516 11.6183 21.98
59 1 5.4 30.5599 28.5471
60 1 36.43 32.8667 54.6161
61 1 12.0061 27.2644 54.0631
62 1 52.773 22.2519 24.5083
63 1 49.3642 43.2129 28.7038
64 1 22.5984 4.24562 16.1933
65 1 11.23 42.5602 47.7695
66 1 8.14411 44.7602 9.83568
67 1 12.1267 43.4749 53.2527
68 1 11.3911 33.7454 52.3194
69 1 37.3024 38.3698 46.0669
70 1 2.07102 28.0822 4.96283
71 1 51.8733 47.1535 27.936
72 1 55.4654 29.4163 1.63693
73 1 25.5622 46.3467 4.69386
74 1 4.19318 33.2094 46.8364
75 1 37.7942 19.5947 5.13587
76 1 38.5073 23.859 6.11168
77 1 47.4873 40.259 32.0985
78 1 34.0023 40.5749 10.5035
79 1 31.6056 23.4484 42.7224
80 1 39.4423 -0.0392861 30.6894
81 1 17.4995 27.7816 54.4879
82 1 50.573 1.32177 23.7688
83 1 8.08607 15.0253 27.9621
84 1 36.4908 2.10212 3.9338
85 1 39.5819 10.7294 38.4943
86 1 34.5832 34.1243 34.9261
87 1 25.9245 8.20349 31.8874
88 1 16.0801 11.6498 13.0123
89 1 7.03217 47.9499 39.3592
90 1 1.26287 39.5635 51.4539
91 1 17.9336 8.00813 21.8322
92 1 10.1499 11.9032 19.2848
93 1 38.2392 9.72211 11.0911
94 1 35.7385 34.0136 28.904
95 1 40.6138 24.4906 18.7496
96 1 7.20986 0.174941 13.8671
97 1 3.5584 8.69351 32.813
98 1 17.9723 13.2037 30.4539
99 1 42.1751 36.5911 5.57904
100 1 3.59602 6.23098 26.9871
101 1 0.572178 33.4939 47.2687
102 1 5.15892 1.22323 12.3808
103 1 41.7629 43.1332 55.6209
104 1 14.8586 54.7179 39.5625
105 1 31.44 14.0865 10.9192
106 1 18.9716 48.3126 47.3539
107 1 32.466 0.333128 44.8247
108 1 46.7601 17.3739 47.2573
109 1 10.3711 45.6444 16.7433
110 1 31.4331 9.09818 10.6816
111 1 37.5437 54.2684 15.0873
112 1 5.4329 5.46496 10.1488
113 1 28.8134 33.0759 11.3937
114 1 24.378 16.8833 40.1235
115 1 42.7866 34.7741 31.1711
116 1 32.1598 5.93127 38.0959
117 1 0.0661961 12.4249 40.4337
118 1 1.81944 43.8535 31.6387
119 1 36.2024 36.0552 33.9086
120 1 15.0965 1.57694 40.0575
121 2 12.0622 38.7699 35.2233
122 2 51.3304 18.3607 12.9689
123 2 55.1295 46.7972 20.8871
124 2 52.4294 29.8295 19.9211
125 2 53.7788 35.6602 38.5565
126 2 25.3645 7.43895 17.6456
127 2 12.3621 51.3559 15.6809
128 2 7.58014 30.0709 35.293
129 2 55.1913 17.9084 7.73103
130 2 1.4318 21.1804 45.8624
131 2 52.1747 12.0306 47.2497
132 2 39.176 46.5086 17.6862
133 2 34.6676 42.7747 16.1174
134 2 15.1415 5.28601 9.07689
135 2 42.7074 33.7443 3.70069
136 2 10.0919 0.740424 32.0211
137 2 40.6243 24.2284 46.209
138 2 5.29013 4.77098 49.211
139 2 31.1546 14.9086 13.8701
140 2 45.3396 27.3158 38.9221
141 2 7.97655 38.2214 22.8642
142 2 29.6085 23.7264 40.4295
143 1 47.0986 19.8983 45.9199
144 1 29.1548 17.6052 13.4148
145 1 54.0105 12.4931 6.63701
146 1 52.2115 26.6113 15.3253
147 1 29.4887 28.3132 32.7376
148 1 27.0844 10.1291 38.5773
149 1 46.6562 6.38756 44.5613
150 1 24.9569 25.5968 9.62889
151 1 50.1003 24.4558 53.8038
152 1 10.2204 33.634 45.3689
153 1 50.056 48.6203 29.5235
154 1 43.3004 41.5977 30.7729
155 1 32.4085 18.6542 10.6057
156 1 8.07019 33.1204 9.30647
157 1 51.3765 34.1022 22.057
158 1 37.5287 5.43871 0.344269
159 1 54.8904 48.2132 13.8891
160 1 49.1147 2.5093 2.1586
161 1 10.5038 25.2555 21.231
162 1 13.193 12.7506 44.1712
163 1 20.0499 21.3237 26.4413
164 1 55.8206 38.4292 11.821
165 1 51.1727 35.6444 6.74075
166 1 45.4051 41.6428 14.6553
167 1 31.2962 39.8807 46.2673
168 1 36.8563 7.82194 43.2716
169 1 28.2505 50.5658 39.3469
170 1 39.5916 33.9243 47.0292
171 1 28.5464 32.9211 23.7385
172 1 21.362 43.6948 28.4386
173 1 14.2739 39.8471 10.1349
174 1 35.4567 1.78783 32.5288
175 1 18.9071 27.9167 16.4653
176 1 39.4884 37.1307 6.62491
177 1 10.027 4.78714 24.94
178 1 18.2668 5.59024 9.28981
179 1 27.1293 45.0429 47.9552
180 1 55.2694 27.0804 8.67419
181 1 48.8306 42.678 31.7182
182 1 49.6532 30.0306 52.3057
183 1 13.523 20.4981 4.13769
184 1 25.9849 52.9123 11.8676
185 1 33.4052 10.0226 34.2848
186 1 43.7605 26.2895 26.6479
187 1 1.61724 6.95865 53.2869
188 1 28.4081 39.2977 3.41597
189 1 13.4881 41.3739 33.8626
190 1 35.3781 48.6382 22.013
191 1 20.6805 19.0676 45.9963
192 1 50.3444 -0.134655 7.78441
193 1 37.2249 8.71681 13.5113
194 1 36.0169 3.99259 30.8693
195 1 24.6362 27.379 1.36404
196 1 34.9199 5.14134 26.493
197 1 7.22466 9.42626 49.4657
198 1 12.8586 19.237 28.5729
199 1 31.66 18.992 3.20288
200 1 39.7263 20.409 41.1391
201 1 26.6288 13.0021 16.0617
202 1 39.0701 2.04293 2.65184
203 1 31.1875 27.7423 37.0504
204 1 41.0293 27.0962 19.348
205 1 7.88224 12.3284 3.08321
206 1 39.3293 25.4926 24.577
207 1 0.0870378 45.0461 45.9832
208 1 31.9496 4.97486 10.9541
209 1 47.5079 6.69541 47.1616
210 1 27.1971 21.797 41.8308
211 1 8.75114 5.90394 21.7128
212 1 43.1363 27.3344 43.3616
213 1 22.4649 12.4727 51.1505
214 1 0.975193 37.7005 2.60274
215 1 11.5665 27.776 22.99
216 1 56.0296 24.7375 50.751
217 1 21.9943 9.05138 35.2496
218 1 1.57981 9.7291 54.3438
219 1 43.8976 51.6066 5.95988
220 1 44.7776 8.39354 43.9192
221 1 30.8139 0.642613 17.1722
222 1 2.37546 7.77456 21.4758
223 1 26.0214 44.0942 2.94623
224 1 42.729 8.93311 25.627
225 1 44.044 48.9384 38.2471
226 1 12.7387 42.1148 25.387
227 1 20.1893 45.7282 33.1761
228 1 -0.11867 20.2387 52.8813
229 1 11.1647 27.1713 42.8538
230 1 30.9371 30.1144 41.3287
231 1 31.7285 35.2247 25.5334
232 1 40.7739 17.0691 18.1205
233 1 51.0144 50.3067 38.3043
234 1 10.8285 14.2461 51.1296
235 1 41.5327 18.2849 42.1246
236 1 6.86588 47.7539 29.4517
237 1 52.6115 29.6659 23.4349
238 1 38.559 1.17454 0.0126853
239 1 34.0052 28.6487 6.01187
240 1 9.07448 32.8322 50.9941
241 1 20.3747 49.0743 10.6732
242 1 32.8596 11.3285 2.85148
243 1 7.34959 24.4161 33.303
244 1 55.5264 42.6827 7.67723
245 1 1.49773 27.9519 19.9261
246 1 54.0266 5.57433 5.65691
247 1 54.3616 49.0776 11.0489
248 1 44.1379 0.502266 45.6918
249 1 10.572 44.8263 49.0554
250 1 23.6068 24.4079 18.1294
251 1 17.7589 39.2772 4.0837
252 1 47.8838 16.9832 39.0436
253 1 2.92784 26.9394 48.0615
254 1 9.38408 8.77941 32.8396
255 1 55.0379 9.10858 18.0623
256 1 30.8575 47.4759 24.6174
257 1 1.72587 12.2963 35.0738
258 1 33.2269 18.4593 27.9321
259 1 45.696 45.805 54.9301
260 1 25.1268 41.4694 34.0412
261 1 32.2809 10.6156 39.6381
262 1 23.8422 44.214 8.31472
263 2 43.9133 24.737 29.2167
264 2 25.8042 47.1542 1.62679
265 2 49.8392 7.23485 49.0832
266 2 6.94461 24.559 38.4629
267 2 14.6081 21.3437 1.40186
268 2 4.57085 3.71917 24.5802
269 2 15.2514 2.5757 16.6301
270 2 44.3851 43.3663 53.5218
271 2 53.8588 44.7839 26.0562
272 2 33.1744 40.3601 13.9309
273 2 33.4445 6.07081 34.7267
274 2 52.9019 27.0237 30.4823
275 2 27.3511 7.1517 53.0309
276 2 55.9676 13.9131 4.495
277 2 1.26221 42.9475 39.2426
278 2 11.8606 34.4338 18.741
279 2 43.9451 51.4388 46.4603
280 2 19.6682 55.1736 22.1654
281 2 41.341 16.9553 14.8679
282 2 15.1982 28.8392 8.19008
283 2 46.954 47.7714 28.8461
284 2 16.9274 27.1348 34.972
285 1 4.8344 35.3063 5.79182
286 1 49.0451 34.6999 20.0573
287 1 44.4119 1.78576 36.1106
288 1 20.3273 16.8917 29.6529
289 1 22.9691 31.593 4.34986
290 1 50.7587 12.9253 24.3638
291 1 18.1546 43.9594 34.2372
292 1 40.9476 5.46597 43.971
293 1 54.577 19.7587 55.3587
294 1 30.8395 32.7815 41.801
295 1 47.0318 25.256 29.8307
296 1 12.5563 32.1518 35.2226
297 1 48.462 14.3455 33.9724
298 1 30.9721 22.3804 13.3802
299 1 31.6825 18.6995 18.0295
300 1 24.6608 31.8119 9.57296
301 1 24.8834 49.7934 23.28
302 1 46.3802 33.4933 25.7801
303 1 53.8694 3.21573 1.8097
304 1 13.608 34.3677 53.3833
305 1 25.5591 38.2881 23.1252
306 1 28.7348 52.4286 32.9625
307 1 5.27627 40.0031 32.1451
308 1 39.8993 53.9322 45.2646
309 1 49.5579 30.673 28.3126
310 1 10.4652 52.9694 38.5829
311 1 38.1637 35.2129 5.47017
312 1 10.4341 8.02307 25.9199
313 1 5.07786 55.6859 18.1676
314 1 29.0121 47.5171 53.0012
315 1 4.47466 6.49828 14.821
316 1 43.9432 10.3727 10.6233
317 1 30.5028 32.1546 38.9401
318 1 5.94627 23.097 11.3136
319 1 3.28973 2.59106 18.2998
320 1 19.0685 33.6981 25.286
321 1 26.2411 38.6046 34.138
322 1 55.3744 21.8677 23.098
323 1 11.5912 10.5922 33.0069
324 1 18.504 8.69731 32.2613
325 1 21.699 45.8452 42.9321
326 1 16.8356 32.003 41.0484
327 1 12.7255 9.21115 35.2969
328 1 0.644955 8.16762 36.7711
329 1 4.52175 25.4698 44.8124
330 1 7.92711 30.7357 29.9139
331 1 15.9269 39.261 52.3371
332 1 0.759213 44.2503 12.1228
333 1 16.3127 13.5685 10.7518
334 1 33.5892 34.9262 22.9754
335 1 35.4429 13.2904 51.1043
336 1 50.1311 21.2821 13.2065
337 1 0.790881 34.4022 7.69456
338 1 9.49546 22.9539 22.2369
339 1 15.2612 24.3361 44.6218
340 1 25.0282 23.2992 26.0821
341 1 26.4839 51.2584 25.0798
342 1 56.0206 26.4408 17.6227
343 1 35.8312 14.2614 27.6673
344 1 33.1292 16.0139 11.5445
345 1 48.7604 16.7366 4.04766
346 1 0.174326 6.86058 23.5444
347 1 19.905 18.6038 11.0796
348 1 12.9872 10.2231 22.7335
349 1 4.2075 37.0177 10.4669
350 1 1.97418 53.8953 51.0621
351 1 44.8715 35.5769 5.50684
352 1 18.7315 8.43435 52.0514
353 1 24.3692 34.5651 53.7754
354 1 46.269 37.1428 39.4274
355 1 48.4608 28.4733 38.8755
356 1 9.54397 40.0664 42.5248
357 1 20.1765 50.2991 52.743
358 1 21.5822 24.3861 36.7986
359 1 28.995 44.7658 46.098
360 1 16.5172 38.1019 45.1202
361 1 39.7533 22.1184 43.5593
362 1 0.422524 53.7819 4.49192
363 1 44.2403 18.2067 14.9334
364 1 41.2915 0.639911 32.8985
365 1 39.633 46.6313 6.74969
366 1 15.5587 34.6954 14.7764
367 1 50.6116 46.8581 37.8889
368 1 40.5953 44.7894 26.5347
369 1 33.2219 14.4795 16.0324
370 1 3.57291 40.7335 50.6842
371 1 19.3712 27.9756 48.9444
372 1 13.9116 22.2906 33.6734
373 1 21.7497 0.0109734 38.3043
374 1 47.1483 50.4548 2.58864
375 1 4.38582 52.6475 35.1942
376 1 42.9231 48.8409 25.1424
377 1 6.16635 21.5843 0.14707
378 1 29.1175 52.669 21.4097
379 1 51.4217 39.3972 20.4712
380 1 11.1519 13.0605 26.8611
381 1 26.0608 50.2472 29.1674
382 1 55.0937 22.6638 8.62195
383 1 12.6099 23.2787 22.8649
384 1 49.3775 16.61 32.7948
385 1 29.6659 9.27847 19.4174
386 1 36.1224 38.8345 23.2609
387 1 21.0261 33.9821 39.2258
388 1 24.4856 6.964 40.4495
389 1 26.641 11.0455 14.2627
390 1 45.2934 48.9425 31.7816
391 1 7.05015 9.12863 6.94088
392 1 48.5288 49.0233 37.342
393 1 3.45455 27.8669 1.02424
394 1 2.96241 37.7867 46.617
395 1 55.1146 7.62337 48.0541
396 1 14.6542 5.1865 23.7648
397 1 49.8158 26.0572 22.3892
398 1 21.684 29.008 4.12061
399 1 7.04832 54.1621 41.637
400 1 35.7562 42.9125 27.6686
401 1 18.5875 30.5474 24.7927
402 1 31.6727 48.139 43.659
403 1 13.2445 42.593 28.2871
404 1 26.6319 34.8325 45.8662
405 2 19.7197 8.11652 14.2229
406 2 36.0048 31.0224 7.80173
407 2 34.4601 13.2135 12.8917
408 2 24.9169 49.8032 12.8994
409 2 46.8346 0.305394 16.6306
410 2 36.6093 49.1869 16.2739
411 2 5.81462 41.5176 16.9512
412 2 53.8206 8.81316 35.811
413 2 30.9895 21.8425 45.2148
414 2 12.4108 35.1376 47.4872
415 2 55.6864 51.653 9.07193
416 2 52.0193 42.8224 55.005
417 2 44.2217 4.99739 10.3397
418 2 7.29643 35.9508 11.0497
419 2 15.6348 54.4217 22.6341
420 2 23.9415 23.1105 23.1485
421 2 41.2824 49.3506 9.79632
422 2 32.0569 16.2115 8.1586
423 2 8.17799 0.599107 43.0732
424 2 52.1337 10.4548 4.91694
425 2 48.1068 52.0217 38.8044
426 2 37.4344 8.54075 38.2261
427 1 29.5875 29.9193 0.0441108
428 1 3.95908 53.4969 52.7258
429 1 55.7389 27.5183 51.1224
430 1 51.9631 54.7806 9.84183
431 1 20.1928 47.4586 26.2276
432 1 42.5657 8.11115 6.48516
433 1 39.7309 24.6908 13.9013
434 1 13.1261 22.7527 43.8994
435 1 23.119 52.2899 8.4815
436 1 32.2673 31.9157 48.5087
437 1 26.2631 24.4341 33.4405
438 1 46.8265 3.12291 35.3365
439 1 1.42993 38.2816 54.0038
440 1 9.07459 25.4706 29.5642
441 1 22.2544 14.308 10.8346
442 1 42.7555 18.6343 17.1289
443 1 41.9376 10.768 27.5824
444 1 51.4849 42.2683 47.8882
445 1 5.23101 14.931 17.8947
446 1 38.3923 31.5505 39.8915
447 1 20.9663 51.9211 10.4223
448 1 44.357 3.26617 -0.0655136
449 1 54.3043 7.07796 29.0504
450 1 51.2914 33.2959 0.372086
451 1 27.7941 49.2823 14.3727
452 1 47.9784 12.1086 22.626
453 1 9.4049 21.1304 33.7285
454 1 5.38924 35.339 52.1231
455 1 7.00764 22.0578 23.6522
456 1 46.4136 3.67208 51.3437
457 1 53.3064 38.9181 18.3528
458 1 27.2723 20.1316 36.6443
459 1 2.74192 34.6757 9.77258
460 1 29.1371 0.377556 34.1566
461 1 8.04406 16.696 17.5616
462 1 48.6158 27.6487 9.35665
463 1 15.5108 2.4684 7.44955
464 1 31.5925 52.4882 22.8725
465 1 7.88537 46.8449 17.6
466 1 4.81125 47.7941 5.47276
467 1 47.1666 11.5045 38.2323
468 1 44.855 54.2774 6.97993
469 1 14.9258 43.3744 24.447
470 1 28.6818 0.542954 15.3996
471 1 26.7353 9.83079 3.53691
472 1 15.3942 38.1054 28.0821
473 1 48.5877 38.8295 46.3887
474 1 39.7634 12.3436 16.8212
475 1 22.9528 25.103 20.9296
476 1 12.1403 21.7897 40.1911
477 1 49.0659 3.37651 37.1364
478 1 41.5612 7.25032 13.9881
479 1 55.4015 25.755 35.2551
480 1 40.8175 8.23663 3.83322
481 1 25.5431 1.54727 50.9568
482 1 30.0373 37.2827 22.8337
483 1 46.23 19.3888 34.0254
484 1 5.73829 37.3001 7.25898
485 1 18.4266 45.3403 25.2319
486 1 47.2583 8.1042 42.6344
487 1 21.0946 12.5386 21.8855
488 1 5.858 47.5267 25.4674
489 1 2.96231 44.3742 13.7082
490 1 24.4311 49.6055 26.166
491 1 13.183 29.838 47.1973
492 1 26.9079 24.7292 41.7576
493 1 44.1839 30.4266 34.0146
494 1 4.787 54.4852 13.5263
495 1 11.9966 34.1084 13.1069
496 1 39.0693 17.7755 37.1007
497 1 7.48349 17.4406 31.8464
498 1 19.5025 20.4003 8.70492
499 1 33.6594 29.8663 20.2244
500 1 51.7768 3.10532 35.8493
501 1 16.2187 50.8731 43.3921
502 1 50.7172 42.8409 6.91312
503 1 42.1977 21.1153 42.7367
504 1 40.2329 47.2037 32.0015
505 1 38.2808 27.4587 3.72977
506 1 22.3573 27.4219 42.1491
507 1 53.7239 54.3598 32.1537
508 1 10.5932 42.9482 17.5147
509 1 53.3211 29.3664 8.26292
510 1 30.6619 0.773543 3.6069
511 1 49.8975 5.78925 5.99017
512 1 14.2778 50.701 12.9156
513 1 33.3167 30.213 29.3255
514 1 28.2383 27.8547 20.9846
515 1 28.9833 12.7351 27.5876
516 1 5.24003 40.5269 37.3183
517 1 15.3626 3.27551 0.119839
518 1 24.3134 12.0187 13.517
519 1 8.19059 12.1544 45.1
520 1 35.9703 17.7475 4.81781
521 1 45.7675 24.871 32.3134
522 1 7.5258 17.3297 0.888262
523 1 38.7217 1.80824 25.7521
524 1 40.034 51.7499 32.2426
525 1 25.6522 41.5533 22.406
526 1 26.3747 15.7529 30.7661
527 1 29.1509 54.556 23.5083
528 1 2.38881 6.83035 6.27187
529 1 40.294 8.38956 33.5954
530 1 38.1126 16.7182 18.4989
531 1 40.5653 10.2332 49.0915
532 1 35.1926 9.79626 11.8149
533 1 42.9984 6.17483 20.6552
534 1 19.7898 35.9659 20.4345
535 1 43.36 3.03177 38.3209
536 1 39.2783 22.3843 15.7306
537 1 19.0741 22.2303 20.9841
538 1 6.39694 27.1859 2.43777
539 1 28.7934 37.7326 33.1653
540 1 48.2495 12.1276 16.2642
541 1 42.5437 5.89951 7.73566
542 1 33.0516 47.9125 35.9436
543 1 37.9586 44.859 34.8958
544 1 31.6675 34.9061 15.1829
545 1 51.9584 24.7025 5.8129
546 1 23.8211 50.78 41.0979
547 2 15.1887 40.7957 26.4566
548 2 12.9258 46.5959 1.28352
549 2 34.8951 47.7884 25.7364
550 2 55.5266 51.5532 12.8769
551 2 52.457 7.11372 16.8692
552 2 9.91602 7.25853 35.5974
553 2 37.5154 10.1312 16.7959
554 2 23.2976 5.96379 53.0111
555 2 14.7118 12.8972 21.6046
556 2 12.6584 41.5908 42.7658
557 2 13.8727 5.82915 34.0417
558 2 17.3225 33.138 3.34849
559 2 40.0102 17.0362 21.1753
560 2 5.33538 16.2877 29.4627
561 2 38.5727 12.7845 50.9228
562 2 3.98919 19.666 28.4155
563 2 30.0649 47.049 34.8827
564 2 16.8321 5.15656 40.04
565 2 20.2499 22.3228 34.7472
566 2 31.2802 13.6058 39.1094
567 2 44.5814 38.2462 0.668612
568 2 43.4089 18.1427 20.3444
569 1 15.0597 1.39565 19.6115
570 1 52.3254 36.7641 49.2368
571 1 20.309 14.1189 5.84118
572 1 46.3586 15.0355 53.4587
573 1 15.7272 15.3378 25.9736
574 1 30.0316 46.0875 17.2193
575 1 30.111 49.8946 42.229
576 1 13.971 -0.0450955 11.3653
577 1 1.83106 6.40373 15.4828
578 1 55.0953 39.7205 44.595
579 1 33.9804 44.866 48.2608
580 1 21.09 31.7675 6.64285
581 1 37.594 10.1972 28.9912
582 1 12.3808 41.5155 37.7298
583 1 45.6301 25.4672 18.2537
584 1 28.9109 40.798 29.0179
585 1 33.2872 8.20099 23.3236
586 1 55.475 0.223133 31.0029
587 1 10.7084 1.66458 7.2563
588 1 9.23666 44.0907 46.4863
589 1 34.459 47.489 49.5275
590 1 55.9594 7.55218 6.65856
591 1 12.9722 9.39072 30.9719
592 1 52.6732 33.1814 6.69444
593 1 18.6642 25.0276 33.7828
594 1 2.9608 42.5161 41.853
595 1 34.3438 12.2067 43.9937
596 1 3.73999 4.76792 38.9652
597 1 29.214 51.5152 7.43403
598 1 48.6362 47.3851 25.3681
599 1 5.15605 3.76432 13.512
600 1 11.5132 32.2007 4.30092
601 1 22.001 42.0362 54.0801
602 1 3.07916 42.6433 15.7791
603 1 26.6552 35.3494 52.159
604 1 5.5359 21.8564 30.1759
605 1 28.3159 43.1553 27.6152
606 1 27.6378 46.6587 30.3921
607 1 38.922 14.213 33.7741
608 1 37.161 4.63879 49.365
609 1 33.9526 30.4971 12.927
610 1 43.3977 5.60537 44.7654
611 1 20.8252 44.7955 30.6758
612 1 17.7228 46.7477 45.3807
613 1 3.41402 51.4384 1.13572
614 1 53.5399 33.3655 10.9722
615 1 5.97855 42.9213 41.5452
616 1 38.2247 3.60855 54.7857
617 1 16.2374 11.8518 52.0452
618 1 5.56753 55.4866 53.5246
619 1 36.4383 11.6242 27.0264
620 1 28.2615 26.9907 25.4772
621 1 53.2368 8.61531 27.1616
622 1 3.61315 29.7093 43.7846
623 1 14.9294 44.2629 11.9585
624 1 27.8998 9.34015 55.0025
625 1 10.3575 14.9546 25.2903
626 1 39.323 27.3136 22.559
627 1 33.0329 37.8097 1.63136
628 1 31.5686 10.2212 17.3538
629 1 41.8004 46.6118 11.4851
630 1 39.4003 55.4963 22.5517
631 1 43.5573 29.0977 13.9354
632 1 4.7395 32.4357 26.8168
633 1 15.7889 6.38213 49.2709
634 1 47.8999 45.9118 17.9847
635 1 29.4927 44.9311 23.6034
636 1 6.00873 7.12196 17.2217
637 1 0.649454 14.9955 39.7767
638 1 32.7374 47.4795 55.6092
639 1 28.7129 5.30749 4.54411
640 1 22.1361 53.5066 6.04423
641 1 55.863 47.6972 35.5999
642 1 53.4947 18.6163 10.5681
643 1 41.2461 27.7041 24.7353
644 1 20.3336 42.5816 45.7177
645 1 0.743151 19.5107 41.0141
646 1 13.0819 31.2401 12.5319
647 1 3.20426 29.5134 8.82758
648 1 19.5536 16.9043 5.17584
649 1 20.6604 20.2148 19.6181
650 1 15.1292 4.02658 3.20372
651 1 30.4147 33.2548 33.0212
652 1 50.9041 13.4259 39.7466
653 1 52.1091 30.5757 51.2511
654 1 29.4073 33.8626 55.8881
655 1 41.1565 4.59748 30.3356
656 1 36.7911 52.0655 40.015
657 1 55.9151 34.6779 20.7505
658 1 24.8556 8.48701 54.7803
659 1 38.8565 40.0416 50.3568
660 1 1.5234 44.0893 6.68822
661 1 45.7466 36.4614 12.9406
662 1 15.7277 41.3871 44.0702
663 1 20.1616 36.0036 37.4949
664 1 53.2266 16.8772 28.0998
665 1 34.0639 43.0059 22.7674
666 1 15.267 9.24001 26.4108
667 1 35.3445 16.9773 28.3695
668 1 47.7481 12.5067 44.2956
669 1 51.1384 22.7752 15.5058
670 1 46.7051 3.2193 11.2477
671 1 32.24 4.28453 25.1875
672 1 1.65817 18.6561 9.05511
673 1 11.2406 4.30318 35.7509
674 1 45.9852 51.3306 7.6879
675 1 23.2433 8.05038 32.8817
676 1 53.7976 16.9085 24.0749
677 1 55.9812 36.0684 54.1073
678 1 15.8572 55.8265 17.6071
679 1 52.7056 12.4412 22.2611
680 1 28.4513 32.4092 45.966
681 1 0.343336 26.161 48.7549
682 1 7.32481 3.07553 44.9188
683 1 43.1583 12.789 21.0459
684 1 38.2191 32.3599 37.0458
685 1 22.5758 54.9553 15.0944
686 1 44.6936 14.9671 11.3039
687 1 47.1979 55.0864 28.317
688 1 20.496 7.39277 33.5796
689 2 21.7459 49.329 24.1424
690 2 30.0922 50.2443 10.0142
691 2 34.4139 27.0116 38.8885
692 2 8.20387 42.4746 49.1992
693 2 44.8639 48.2078 22.5102
694 2 3.08034 51.0717 54.3774
695 2 17.7965 15.1185 45.1193
696 2 16.4713 40.768 8.28059
697 2 1.6116 18.2879 36.1719
698 2 17.016 18.6561 7.03234
699 2 44.7391 11.7695 40.1149
700 2 38.2885 4.95346 3.79251
701 2 53.4042 27.4842 5.63619
702 2 35.921 28.6956 27.0383
703 2 48.9625 45.8016 44.3004
704 2 54.2904 12.7892 17.6012
705 2 2.50727 36.9651 7.622
706 2 1.93192 40.4501 44.3308
707 2 47.7028 17.126 18.9957
708 2 43.3356 54.4226 0.656958
709 2 44.0854 30.307 42.504
710 2 52.905 48.4688 30.8199
711 1 36.9905 2.17739 46.1942
712 1 17.6968 25.4634 49.142
713 1 1.3231 49.2753 43.9982
714 1 37.4833 30.577 24.902
715 1 0.94567 10.9552 44.6505
716 1 2.9479 15.7344 51.1013
717 1 47.1663 1.05838 3.42463
718 1 4.80405 41.778 55.9256
719 1 41.999 16.943 52.4801
720 1 19.12 16.1605 13.3802
721 1 31.0954 6.6482 5.18479
722 1 31.8845 37.6642 55.2583
723 1 19.2384 14.8921 15.8228
724 1 48.4788 37.2487 53.5879
725 1 13.1498 45.7006 34.903
726 1 29.9442 41.4295 41.7255
727 1 32.4067 55.3828 18.9055
728 1 28.2907 0.71618 55.1985
729 1 41.1482 1.72586 51.8438
730 1 5.53546 6.83656 37.9533
731 1 53.8865 11.0344 20.2245
732 1 12.9125 1.21523 14.8851
733 1 36.0783 52.806 55.4403
734 1 37.011 43.7555 17.8334
735 1 39.6525 9.6928 1.2653
736 1 51.6905 19.0549 50.7495
737 1 30.9518 41.9772 27.5599
738 1 0.524241 11.5565 6.83688
739 1 21.779 16.7445 3.0868
740 1 40.4869 35.3007 49.3334
741 1 54.0399 9.17687 32.7505
742 1 19.0983 40.3998 6.26744
743 1 44.7655 29.1712 27.0889
744 1 33.6937 55.6118 40.4317
745 1 44.8599 12.3345 12.9069
746 1 20.3429 17.692 20.6874
747 1 1.06771 3.07669 36.2721
748 1 46.224 54.804 2.57809
749 1 17.1401 13.0158 42.5308
750 1 23.595 18.5827 2.09897
751 1 19.2711 32.6827 34.0432
752 1 15.189 48.1112 38.6937
753 1 20.2743 9.86523 43.576
754 1 36.4732 53.9596 27.2884
755 1 29.1271 17.9566 17.9639
756 1 31.7791 49.2259 53.614
757 1 7.07777 19.569 29.7412
758 1 54.6198 27.0714 20.5212
759 1 44.6729 6.98006 18.7036
760 1 19.2986 32.5926 54.6295
761 1 48.5469 15.3633 46.5167
762 1 30.6464 52.4068 12.1461
763 1 24.277 17.7926 8.9079
764 1 18.3599 13.0809 21.4414
765 1 42.3684 20.1141 40.2073
766 1 19.4294 35.5642 2.80206
767 1 4.49759 51.676 28.7043
768 1 25.8344 22.1705 35.4791
769 1 18.4996 48.4841 54.5496
770 1 18.7924 3.70229 4.60782
771 1 11.5986 38.7548 44.0691
772 1 29.6967 13.1179 52.6225
773 1 10.4508 16.4003 45.6965
774 1 33.3302 2.51989 26.9809
775 1 46.5446 41.7415 29.9999
776 1 25.0504 55.7686 22.4021
777 1 45.7778 47.5603 25.5807
778 1 21.9397 33.3333 47.7204
779 1 40.6938 26.9352 44.5544
780 1 31.2316 47.3657 40.7316
781 1 20.0988 38.3154 25.1791
782 1 4.55338 18.8502 15.5286
783 1 50.246 0.90579 36.8676
784 1 44.1675 27.8312 24.2608
785 1 27.4801 26.0909 48.582
786 1 15.6023 7.84181 42.1145
787 1 5.51173 31.0114 53.8898
788 1 2.48876 10.3139 37.0652
789 1 15.4665 46.1768 28.326
790 1 51.4382 29.8791 43.511
791 1 36.1927 18.8096 24.4621
792 1 25.9806 55.0433 19.7258
793 1 2.67393 50.5422 22.3111
794 1 29.8191 25.5212 28.1729
795 1 55.9128 21.405 36.9163
796 1 44.3864 12.503 4.20219
797 1 18.9433 11.1233 13.8816
798 1 42.4749 28.9388 54.3331
799 1 16.2793 35.7083 12.1988
800 1 17.1084 30.6566 55.1532
801 1 48.883 48.3286 11.0298
802 1 20.9557 15.3662 36.8049
803 1 40.0057 45.2819 39.91
804 1 51.4184 36.7712 9.25449
805 1 38.7207 44.7102 32.0656
806 1 13.462 15.4274 37.2108
807 1 55.5518 16.0479 34.8421
808 1 49.1897 8.45963 38.6171
809 1 10.2695 12.4363 1.508
810 1 8.17471 40.7976 31.9213
811 1 33.4249 22.1273 48.2212
812 1 53.4652 16.1709 44.6051
813 1 0.904177 11.4142 2.67495
814 1 45.5186 4.68183 20.3309
815 1 4.87351 8.99979 41.6716
816 1 50.1665 5.3227 35.3602
817 1 44.5784 43.5857 29.1757
818 1 54.6874 48.4893 55.3325
819 1 18.2481 37.2234 43.1112
820 1 53.1761 28.1707 38.3041
821 1 32.0758 29.6567 38.9444
822 1 1.25162 4.28327 28.9536
823 1 53.8427 46.4507 37.6937
824 1 54.6184 0.22941 28.2935
825 1 17.2795 54.4298 29.993
826 1 16.9292 50.3955 3.79784
827 1 19.9327 33.7715 22.508
828 1 35.0431 23.3988 25.8244
829 1 49.5286 55.8792 29.5606
830 1 51.2831 43.3545 4.29226
831 2 6.97399 40.1136 40.1009
832 2 24.0019 14.3311 3.31002
833 2 20.2593 43.207 23.5505
834 2 43.2346 26.8947 46.835
835 2 25.052 0.00995519 27.69
836 2 23.7395 14.5667 32.505
837 2 15.7049 27.0571 17.6884
838 2 23.1098 42.4136 47.5068
839 2 28.6472 35.3218 31.2982
840 2 19.6579 16.1682 53.52
841 2 15.7468 27.2546 26.5719
842 2 47.3115 9.50075 45.7471
843 2 42.2193 1.50335 29.7645
844 2 31.1984 15.3191 18.4097
845 2 8.29261 51.8849 16.1404
846 2 41.3176 41.1922 48.6612
847 2 48.5351 54.868 10.3455
848 2 47.8941 44.4715 25.949
849 2 23.1129 17.4013 34.9216
850 2 22.7008 32.1293 44.5527
851 2 47.9833 -0.0870403 53.8745
852 2 46.282 38.7992 20.2668
853 1 36.0443 46.2713 9.22547
854 1 30.1597 42.2314 46.7823
855 1 47.6895 26.7083 15.0423
856 1 10.2461 23.5935 34.6725
857 1 55.0628 17.1008 40.2806
858 1 14.3594 50.2173 48.8782
859 1 35.0575 24.767 40.9981
860 1 9.34003 37.6715 4.01223
861 1 51.9492 36.5143 29.1457
862 1 54.2392 30.786 5.6854
863 1 33.3218 11.2766 10.4296
864 1 47.4745 26.4424 49.4133
865 1 14.646 26.3788 14.7133
866 1 12.5287 34.205 56.052
867 1 50.6287 21.9584 37.1757
868 1 49.2621 2.18959 34.3653
869 1 53.6101 26.4256 52.6286
870 1 33.4388 24.6406 20.9057
871 1 10.1715 27.9762 15.0395
872 1 53.2957 37.8309 40.7525
873 1 12.7142 39.2627 32.2447
874 1 53.8846 46.1655 1.38269
875 1 41.3218 29.4127 48.2178
876 1 0.419237 16.7696 31.1414
877 1 0.14949 27.4513 22.4695
878 1 4.44945 35.8393 20.0206
879 1 10.6254 14.1928 31.05
880 1 51.5284 11.4447 2.16156
881 1 32.0837 13.6042 47.8855
882 1 45.0366 22.5364 52.4394
883 1 26.4537 14.0718 13.6036
884 1 51.4506 54.4405 36.3749
885 1 30.0453 23.0318 1.52795
886 1 39.1753 47.6544 1.90286
887 1 7.25844 15.5889 19.7733
888 1 2.89304 29.9184 46.9305
889 1 46.4526 7.87628 34.2089
890 1 54.6779 2.97385 6.54891
891 1 53.1334 20.5718 37.875
892 1 37.6242 54.5738 20.941
893 1 14.3411 51.3664 33.8817
894 1 9.174 41.1487 9.90603
895 1 3.46185 49.9216 40.2738
896 1 2.62622 40.8448 17.7529
897 1 28.3362 53.1951 10.3211
898 1 41.0837 35.4574 42.6651
899 1 16.9025 19.3475 32.1037
900 1 9.06029 27.8377 2.0795
901 1 34.2544 37.4567 41.9278
902 1 25.6218 45.7816 26.092
903 1 3.60824 26.5776 9.13961
904 1 35.8213 35.687 11.3656
905 1 27.9632 30.2982 22.3009
906 1 17.4165 35.9588 7.34688
907 1 34.7631 50.5619 13.8921
908 1 1.65934 6.1883 34.7898
909 1 40.4544 3.15966 42.4831
910 1 52.3606 38.2551 7.30303
911 1 12.9109 8.62402 25.1537
912 1 16.9445 18.5926 37.0102
913 1 4.06213 45.101 5.85824
914 1 53.1885 51.78 30.9038
915 1 18.507 21.0469 39.258
916 1 28.0818 26.709 40.4502
917 1 35.3631 55.9662 4.5182
918 1 50.1817 34.776 14.9614
919 1 48.3851 41.0045 38.4097
920 1 12.1299 38.5685 38.4843
921 1 31.594 55.1139 11.4188
922 1 17.6618 41.7637 31.9135
923 1 50.2106 5.58953 38.5296
924 1 0.74947 11.5546 16.7913
925 1 45.0733 55.7433 4.66557
926 1 27.9224 49.7713 51.6444
927 1 52.7296 49.3853 43.3064
928 1 42.1236 12.0129 12.7507
929 1 49.8984 33.122 7.23503
930 1 38.3923 0.781435 19.9717
931 1 17.0191 25.4772 31.7765
932 1 12.5856 48.4129 52.3736
933 1 30.5983 7.20636 44.3049
934 1 24.7768 51.0889 54.8323
935 1 5.31583 39.118 55.0762
936 1 7.52956 32.7674 12.0871
937 1 34.1183 0.33495 42.7864
938 1 36.5819 6.02612 40.4377
939 1 5.64758 29.3831 15.8412
940 1 7.27972 38.9684 53.0714
941 1 36.3995 6.38925 35.457
942 1 15.0917 46.4581 45.3473
943 1 33.5478 36.5962 34.3901
944 1 9.02171 41.4009 15.9496
945 1 44.4624 20.9476 44.6949
946 1 9.73364 42.3109 44.1417
947 1 41.1199 31.177 41.0557
948 1 15.4954 55.4147 43.8842
949 1 49.6554 50.121 15.6586
950 1 39.3066 27.5074 50.5216
951 1 14.9477 43.0602 53.7443
952 1 44.0164 0.876298 48.5442
953 1 26.0265 22.2466 50.9412
954 1 11.0982 45.8032 40.5683
955 1 12.9348 21.8634 15.2646
956 1 11.8161 20.4521 8.50332
957 1 47.1514 43.8007 51.0599
958 1 8.51884 25.2816 35.9936
959 1 31.4325 50.1429 35.8019
960 1 53.6619 14.0542 12.6069
961 1 37.0235 41.3869 42.5445
962 1 54.7784 6.42799 19.0037
963 1 7.73726 30.1303 47.1646
964 1 25.3931 14.599 44.3792
965 1 15.325 30.5171 35.6564
966 1 24.8704 42.5221 31.5868
967 1 10.7148 9.47322 11.293
968 1 42.6807 9.62066 53.687
969 1 32.1611 37.3441 50.3888
970 1 31.0549 17.262 15.7755
971 1 45.0107 6.20507 42.4461
972 1 52.4097 8.48852 51.6118
973 2 45.2383 4.34998 25.7595
974 2 45.9867 39.3058 35.1424
975 2 53.494 39.2716 27.7053
976 2 17.4555 30.6611 49.9606
977 2 52.8065 36.4533 16.0865
978 2 52.1559 36.3315 19.7998
979 2 33.2288 42.3385 40.5725
980 2 55.1018 6.22151 44.7703
981 2 36.347 11.8158 9.83516
982 2 54.4221 29.5936 49.0189
983 2 12.2258 31.1922 1.25362
984 2 46.2776 22.6485 34.1851
985 2 51.9779 2.3666 13.3075
986 2 7.51965 18.5377 37.7171
987 2 20.4561 6.37611 5.13712
988 2 2.34584 26.6036 51.6285
989 2 39.8101 27.8414 32.3189
990 2 53.963 9.94284 15.1229
991 2 22.8788 21.2579 17.7231
992 2 16.0158 15.5914 54.8695
993 2 1.60247 15.6215 55.7587
994 2 53.4896 22.8554 35.4114
995 1 54.3014 3.17182 43.7683
996 1 51.218 25.1946 47.0253
997 1 24.6426 2.3157 48.0318
998 1 3.52991 49.5155 27.2196
999 1 25.2556 50.9411 52.0274
1000 1 19.6621 8.68878 47.7067
1001 1 30.7239 30.5651 36.6241
1002 1 52.6252 26.6996 8.54222
1003 1 14.0197 28.9573 30.6287
1004 1 6.3815 40.0715 6.94201
1005 1 38.8811 28.8582 18.4409