ITEM: TIMESTEP
0
ITEM: NUMBER OF ATOMS
9088
ITEM: BOX BOUNDS pp pp pp
-4.6593515456045659e-01 5.6350427780549339e+01
-4.6593515456045659e-01 5.6350427780549339e+01
-4.6593515456045659e-01 5.6350427780549339e+01
ITEM: ATOMS id type x y z
1 1 7.40131 39.9242 1.41274
2 1 4.69973 52.8504 40.8088
3 1 37.3166 6.44924 0.655951
4 1 41.5976 36.0123 32.7066
5 1 9.81971 8.5612 4.76446
6 1 18.2828 20.2898 29.5814
7 1 8.34591 0.699273 35.0208
8 1 20.3336 23.4369 22.823
9 1 -0.211339 36.6002 8.10746
10 1 3.93519 47.5365 7.53039
11 1 24.2225 41.7375 12.0931
12 1 28.9745 28.2435 21.1495
13 1 29.9043 48.6499 29.0545
14 1 34.1827 36.6716 34.9878
15 1 36.3043 37.8703 12.1253
16 1 19.9692 34.9977 53.4655
17 1 7.12737 44.6123 34.4514
18 1 50.5989 52.7206 53.2633
19 1 49.2729 0.362424 24.7554
20 1 22.549 26.1567 7.87195
21 1 42.0087 22.2962 41.6009
22 1 6.28718 42.6182 43.6808
23 1 55.7524 26.141 3.01708
24 1 32.8072 38.2671 36.7149
25 1 49.7706 33.7307 15.6607
26 1 24.8491 38.3209 40.5796
27 1 40.5303 22.7149 28.8419
28 1 36.6734 44.8489 43.099
29 1 54.2965 18.6332 10.1548
30 1 41.5929 46.5931 23.0096
31 1 -0.421889 11.1156 1.70354
32 1 3.84901 40.3526 48.2654
33 1 24.0072 14.2735 47.0177
34 1 24.2494 29.7231 15.1285
35 1 40.7414 21.3084 52.5068
36 1 38.3893 43.4342 49.3641
37 1 7.62305 16.1273 39.1231
38 1 52.4118 15.1403 29.7716
39 1 26.8872 0.0298366 40.4973
40 1 55.1317 46.1954 42.3917
41 1 7.59581 16.9184 18.5496
42 1 50.5918 46.8687 52.5913
43 1 41.9903 34.7597 17.1122
44 1 51.7227 8.726 2.32438
45 1 25.0333 52.3369 5.8119
46 1 12.2268 35.8771 26.0129
47 1 30.7253 55.1971 18.8488
48 1 26.24 8.53773 21.9632
49 1 52.4785 0.733037 52.9771
50 1 12.2059 54.7886 22.1574
51 1 5.44551 52.87 30.2352
52 1 32.5323 36.4702 56.1559
53 1 15.6847 40.4574 30.8335
54 1 26.0115 35.0466 0.782184
55 1 45.5125 10.8937 43.4903
56 1 10.2208 52.3496 43.387
57 1 49.9956 40.6533 29.6226
58 1 39.8253 36.5514 2.07944
59 1 16.8886 9.09215 45.272
60 1 13.6761 16.3894 44.3385
61 1 30.0314 55.9468 51.4321
62 1 21.3271 29.4659 35.0494
63 1 6.24072 7.71308 26.1619
64 1 45.5483 28.6179 24.8808
65 1 18.2549 8.29615 15.3853
66 1 33.2349 27.2555 35.5255
67 1 11.088 8.94491 7.0009
68 1 38.0272 49.4488 6.28986
69 1 47.673 4.94206 26.3915
70 1 26.0944 32.0277 45.5261
71 1 9.66172 6.40675 34.8685
72 1 1.27492 29.0849 40.7395
73 1 54.9867 38.4635 11.5243
74 1 23.1678 36.7383 34.9829
75 1 17.4022 12.0222 46.3533
76 1 15.5253 21.6737 2.06831
77 1 38.0159 0.423623 31.1852
78 1 26.9042 25.954 28.2368
79 1 36.6671 19.5431 53.6682
80 1 7.3087 30.4796 5.66118
81 1 35.1172 23.2603 25.2216
82 1 38.0677 11.4087 52.2604
83 1 39.5061 5.94288 8.10822
84 1 12.17 10.2352 30.3384
85 1 5.49696 10.8176 18.1053
86 1 53.9199 11.5488 6.68285
87 1 11.4055 37.4098 39.0359
88 1 6.4906 18.6533 8.26696
89 1 20.1855 39.4517 48.6518
90 1 30.3241 55.3476 29.0335
91 1 17.4658 26.951 55.6642
92 1 29.0419 45.4575 41.5244
93 1 40.698 8.68529 15.1062
94 1 38.8562 40.6 30.7664
95 1 10.4498 54.9699 43.8879
96 1 45.4391 44.9677 55.1932
97 1 3.69111 40.9829 26.4207
98 1 25.526 40.6718 33.4497
99 1 49.8543 36.8802 21.1121
100 1 29.5135 0.810086 20.3905
101 1 35.3118 2.79223 43.4296
102 1 29.5685 5.93016 6.3514
103 1 34.9882 43.3172 55.1826
104 1 37.7363 53.2132 24.617
105 1 34.8331 12.9716 22.8876
106 1 12.297 11.4116 9.81426
107 1 12.5076 44.6932 -0.357788
108 1 53.5223 37.0271 4.54757
109 1 40.5335 39.2939 18.8183
110 1 43.2387 39.5059 30.5063
111 1 25.6199 39.0548 52.5468
112 1 55.9803 23.1583 3.07642
113 1 41.5597 40.0563 43.5615
114 1 51.8965 39.1966 47.9118
115 1 0.0141862 38.9709 35.6314
116 1 25.4293 36.1758 45.2889
117 1 27.9547 33.5908 47.1842
118 1 13.4685 36.2128 0.427515
119 1 10.6204 16.7947 50.847
120 1 7.29049 14.8292 21.3195
121 2 48.6208 48.7538 7.99535
122 2 32.0994 17.3886 20.5498
123 2 17.6823 47.1137 38.5413
124 2 18.0556 2.84257 46.5925
125 2 18.6779 34.5529 5.83387
126 2 22.112 15.6246 22.078
127 2 51.334 19.6325 31.7767
128 2 45.0055 53.4438 34.0777
129 2 25.293 8.74866 5.82526
130 2 44.9912 44.9312 38.9512
131 2 53.9296 45.5408 3.18993
132 2 46.6862 16.0942 36.0912
133 2 11.6413 44.552 14.254
134 2 18.3042 40.5289 14.7339
135 2 55.8441 39.398 3.86942
136 2 17.5927 46.3466 43.4598
137 2 33.3807 28.6116 41.6891
138 2 12.8047 28.0246 24.4148
139 2 34.5905 4.56097 24.127
140 2 26.6754 49.1621 52.5625
141 2 6.87535 48.2835 1.08492
142 2 52.5625 -0.103903 8.24003
143 1 16.5976 54.7432 52.8483
144 1 30.3367 8.59531 5.04251
145 1 33.3727 15.6919 50.2113
146 1 19.0022 24.7246 56.0526
147 1 29.2125 52.4142 13.8061
148 1 9.88408 8.74953 1.77736
149 1 48.019 27.7079 32.5957
150 1 0.781914 9.4042 25.6401
151 1 9.32797 31.2758 25.9394
152 1 35.4539 34.3584 4.12226
153 1 25.0594 21.3024 1.81373
154 1 16.305 33.6177 7.57778
155 1 43.1737 24.2939 33.5321
156 1 21.7139 24.0324 29.8312
157 1 23.1744 35.952 4.61192
158 1 24.6303 18.2671 9.61945
159 1 12.3117 34.2456 55.452
160 1 39.6605 29.5167 9.50898
161 1 55.026 22.4521 49.9685
162 1 50.3835 53.9333 50.253
163 1 26.1483 23.1149 10.1005
164 1 30.8582 46.2387 23.9323
165 1 15.6033 55.5423 7.91241
166 1 26.7548 41.3174 45.9511
167 1 48.9163 22.7923 25.4687
168 1 39.9568 38.8451 3.89439
169 1 36.7963 21.2682 7.90405
170 1 45.5089 7.13838 17.9793
171 1 48.1335 9.55359 52.5178
172 1 22.4542 30.5553 20.6524
173 1 6.06859 11.5258 8.02711
174 1 40.0259 1.15039 16.3015
175 1 56.1251 33.3592 26.6626
176 1 36.5471 25.6266 29.1645
177 1 22.7071 39.7024 48.029
178 1 51.9569 18.1087 34.507
179 1 40.6414 53.633 26.2514
180 1 9.06422 0.858839 8.87006
181 1 4.45485 37.7633 42.7704
182 1 39.7543 14.7827 38.5074
183 1 17.1534 5.96154 41.7423
184 1 25.9513 18.0034 34.8624
185 1 9.78544 17.1952 23.1333
186 1 12.9622 20.8226 1.57479
187 1 42.2696 11.1538 46.7987
188 1 47.4276 19.1061 13.1911
189 1 31.5979 42.3099 31.2777
190 1 6.78029 25.3117 47.6122
191 1 26.3975 12.3719 24.0054
192 1 32.9555 40.8599 16.564
193 1 20.061 15.8926 33.6484
194 1 52.9215 0.397784 41.5898
195 1 50.9374 50.184 42.9158
196 1 53.7436 8.25088 28.8697
197 1 34.4115 33.1018 40.0536
198 1 25.6435 21.0659 35.8356
199 1 40.3553 45.5606 45.8171
200 1 47.8859 54.0688 42.8845
201 1 51.6347 27.9109 -0.334897
202 1 12.858 54.9989 7.77344
203 1 32.4696 17.57 24.7729
204 1 30.1579 18.343 54.0933
205 1 39.4643 52.1456 37.5359
206 1 17.4419 55.3732 28.8446
207 1 53.4657 53.5037 25.0162
208 1 37.8541 18.7706 22.7005
209 1 45.0199 17.941 9.32622
210 1 47.0935 30.6921 43.088
211 1 54.4154 40.3705 1.16527
212 1 9.32958 39.1301 53.8075
213 1 46.9029 33.8225 21.8745
214 1 47.398 14.5333 7.22427
215 1 29.7918 4.41934 35.2046
216 1 26.8261 9.99687 0.153866
217 1 2.17303 14.0576 33.1841
218 1 49.0005 6.36559 49.9425
219 1 46.2 38.4892 35.3413
220 1 51.7327 45.7157 29.2564
221 1 29.8165 11.2533 32.803
222 1 5.53191 43.342 38.5066
223 1 15.8673 34.3373 43.226
224 1 42.0727 17.1267 2.71344
225 1 36.3272 45.9752 0.129417
226 1 22.9515 22.08 34.4587
227 1 27.037 2.31889 12.3302
228 1 31.9114 27.9656 25.579
229 1 26.272 0.86771 35.4071
230 1 27.8468 35.0828 37.4695
231 1 20.5664 27.3764 39.0183
232 1 11.5088 2.11159 21.0107
233 1 19.6628 9.47988 37.4002
234 1 42.7426 0.938453 39.3387
235 1 20.6397 48.0091 39.5649
236 1 29.2753 41.1232 30.3944
237 1 14.0562 26.3579 40.9566
238 1 24.008 22.6501 49.032
239 1 52.9274 22.9712 9.86217
240 1 40.1671 10.3916 35.5415
241 1 49.6626 25.1547 8.04168
242 1 13.6441 12.2236 43.861
243 1 10.3604 42.0499 13.1578
244 1 40.5799 43.6086 47.6843
245 1 53.4154 3.4835 40.6708
246 1 17.0549 9.75657 52.9165
247 1 1.7198 40.4881 13.7721
248 1 13.0496 23.6992 51.5305
249 1 27.0006 15.6517 8.72765
250 1 21.0675 42.4499 51.0148
251 1 44.5664 22.8783 35.1587
252 1 22.4968 21.6061 22.1578
253 1 24.9819 41.8908 9.66997
254 1 31.3386 35.3815 29.6358
255 1 46.1003 47.3825 37.466
256 1 13.348 42.0155 34.3449
257 1 34.2204 44.3688 13.2682
258 1 9.45482 50.3297 38.5002
259 1 49.0954 44.5108 0.630235
260 1 23.7409 25.4143 17.5984
261 1 3.27698 28.2822 44.4924
262 1 46.8893 4.01509 23.9712
263 2 55.0226 53.6101 3.10245
264 2 15.2342 3.52953 41.9596
265 2 39.1892 26.5228 27.5887
266 2 50.3302 13.0239 6.9277
267 2 17.6297 15.4556 7.47204
268 2 55.7998 1.38667 40.0887
269 2 48.5948 21.8053 2.65923
270 2 24.4264 8.84717 19.4318
271 2 12.2168 39.2483 4.14297
272 2 29.7349 24.1472 28.2311
273 2 15.383 31.5317 12.2997
274 2 9.92869 10.2137 20.4552
275 2 3.96339 10.0105 20.566
276 2 29.3833 46.4874 5.36458
277 2 9.80254 6.08577 43.8685
278 2 52.7191 29.9191 54.5189
279 2 37.1403 10.0458 34.7377
280 2 7.38826 18.6172 15.3636
281 2 6.17322 50.6128 28.1153
282 2 5.43294 34.9356 14.751
283 2 34.7911 50.3553 6.05846
284 2 47.64 53.3513 24.7962
285 1 0.669628 39.5329 20.29
286 1 36.2529 39.8153 50.8779
287 1 55.6439 23.0056 26.7216
288 1 46.9976 22.1967 34.0792
289 1 54.5376 48.624 35.3199
290 1 21.2849 31.9003 48.0964
291 1 52.3858 41.4554 52.9807
292 1 53.2834 13.0475 8.95456
293 1 23.487 50.0361 2.19111
294 1 21.8618 29.3364 17.9034
295 1 33.8369 16.0776 37.0113
296 1 45.3463 -0.326827 32.8687
297 1 47.7566 47.0804 48.2627
298 1 30.6003 27.4683 43.4257
299 1 36.4101 53.4885 48.4237
300 1 7.4711 50.9252 -0.46535
301 1 34.346 13.901 11.3445
302 1 20.4283 54.5249 37.9791
303 1 33.8272 49.4085 56.1847
304 1 28.8283 6.50568 25.0637
305 1 2.74626 23.2924 5.59943
306 1 9.23438 13.1626 4.94257
307 1 -0.0577669 13.3853 21.761
308 1 35.1739 20.6347 2.9306
309 1 51.7496 8.80271 6.12365
310 1 17.0541 1.35406 4.66463
311 1 1.14373 52.8343 16.3468
312 1 18.054 38.4757 46.8504
313 1 37.7969 34.2183 55.7554
314 1 9.91079 1.91469 22.9349
315 1 18.3987 37.4005 33.0894
316 1 11.0502 48.5262 25.5619
317 1 51.9478 53.7434 1.39595
318 1 55.1888 34.31 0.791612
319 1 31.8364 18.7282 51.8166
320 1 8.76534 49.4264 43.2591
321 1 52.4949 55.2578 46.0599
322 1 32.9339 19.6535 23.3237
323 1 3.59049 24.0256 54.0026
324 1 24.0767 24.6022 5.53416
325 1 18.0271 39.5851 52.2116
326 1 27.8225 14.3298 40.8516
327 1 47.3057 9.13258 55.915
328 1 21.5988 14.1735 52.1842
329 1 48.8869 18.9811 7.33625
330 1 41.8397 27.4836 9.57531
331 1 26.1275 12.8235 46.244
332 1 53.8706 29.3141 31.6433
333 1 53.1736 51.3225 1.20821
334 1 1.38926 5.09408 29.5061
335 1 52.7483 2.93279 7.56809
336 1 53.0175 39.6308 8.64597
337 1 25.8157 52.705 36.0883
338 1 32.9813 30.6835 9.30989
339 1 41.4489 3.54669 23.5534
340 1 12.8729 55.4846 56.0844
341 1 39.6583 12.6347 45.8406
342 1 26.9159 10.2949 33.558
343 1 11.37 8.14123 19.2769
344 1 1.9167 5.19862 19.0214
345 1 5.23656 5.96356 35.8855
346 1 22.3391 40.9183 53.4331
347 1 47.8833 24.3616 54.6015
348 1 45.544 52.8265 42.1424
349 1 46.9511 35.9332 20.1819
350 1 6 17.59 5.19391
351 1 1.01679 24.1183 53.1722
352 1 17.7596 46.3932 27.9618
353 1 48.1769 51.3587 9.42756
354 1 38.2379 26.0378 6.79461
355 1 44.7388 14.9678 53.8391
356 1 32.9846 18.7329 27.8804
357 1 46.5145 54.1078 31.1349
358 1 42.213 34.1111 6.60617
359 1 29.6483 5.10878 55.1217
360 1 49.3802 8.13291 44.4293
361 1 13.4628 5.71552 37.0502
362 1 0.920505 21.3498 13.2501
363 1 50.3184 24.3822 29.8378
364 1 46.4661 16.3934 51.9073
365 1 0.0260815 1.43034 32.8449
366 1 10.4154 44.9517 54.6104
367 1 46.395 38.2434 42.6382
368 1 10.1498 44.0195 45.8668
369 1 42.1211 51.7608 19.8573
370 1 13.2664 34.9928 11.838
371 1 39.1224 22.0422 43.1047
372 1 51.0593 45.6525 36.6997
373 1 25.4431 24.6553 47.9522
374 1 12.9414 39.578 35.4244
375 1 26.8876 44.9012 16.6222
376 1 27.9313 18.2568 27.9648
377 1 39.0352 20.9726 54.863
378 1 15.9042 16.6142 9.70891
379 1 34.35 41.3575 0.725198
380 1 31.1357 47.6411 54.6469
381 1 4.97864 3.4184 47.5854
382 1 41.2926 14.5832 49.8499
383 1 4.23095 27.7594 11.1605
384 1 53.4497 8.07834 13.3795
385 1 31.6739 40.4635 50.9258
386 1 32.3152 54.8648 48.0493
387 1 44.2759 29.1643 9.55743
388 1 27.4151 40.8817 28.0986
389 1 4.82248 23.1242 34.8724
390 1 38.3052 45.2141 21.7763
391 1 48.8365 14.6328 9.48654
392 1 13.393 45.9628 50.742
393 1 50.1169 40.7008 39.4604
394 1 30.8891 31.6217 34.9276
395 1 20.1684 48.6804 44.4593
396 1 38.6967 37.7018 20.2646
397 1 17.1799 19.4084 0.799935
398 1 1.02935 1.08752 8.20993
399 1 19.8721 37.8077 16.2908
400 1 22.5668 44.636 46.5685
401 1 45.9137 4.91545 53.9826
402 1 49.4772 7.44174 47.8166
403 1 3.68021 5.52022 46.1245
404 1 1.23826 29.9003 7.0916
405 2 47.8819 34.5969 7.16508
406 2 1.60726 32.4847 53.7745
407 2 56.2184 20.8406 52.2256
408 2 7.61927 20.9843 1.91093
409 2 43.1516 32.5113 19.8198
410 2 41.1497 24.463 8.38431
411 2 27.1075 12.0137 20.4542
412 2 26.7257 36.6176 42.4413
413 2 11.6157 33.7016 14.248
414 2 14.1419 2.14535 3.87688
415 2 45.0914 15.8772 17.8101
416 2 9.49957 20.0345 35.4386
417 2 36.3624 48.0326 42.9133
418 2 44.9838 2.97519 -0.236111
419 2 49.5897 37.7765 27.7749
420 2 49.8708 4.23897 11.5967
421 2 19.8706 43.5543 9.32235
422 2 25.1814 51.8079 38.7644
423 2 44.8932 9.49847 48.354
424 2 17.7562 21.7357 55.6804
425 2 22.6216 48.1355 37.0896
426 2 35.49 39.9039 34.3878
427 1 10.8773 6.74511 8.84232
428 1 46.7326 13.3689 45.3072
429 1 30.5493 38.1315 54.4323
430 1 31.0429 46.7523 30.8204
431 1 38.8361 46.276 36.4808
432 1 21.2594 9.53048 30.7139
433 1 8.29845 16.5075 52.1565
434 1 22.5495 45.8249 41.1132
435 1 16.3861 0.702425 2.31338
436 1 38.9034 26.0956 54.0578
437 1 26.9671 26.2617 46.1839
438 1 3.17707 2.36641 54.0756
439 1 43.9904 24.267 47.0977
440 1 24.0455 37.3455 47.6517
441 1 23.9658 47.0301 18.6124
442 1 53.0284 39.7338 13.0753
443 1 40.1114 35.9154 55.9574
444 1 1.74721 26.8345 2.53631
445 1 32.4537 54.8864 26.6706
446 1 54.2307 27.153 50.7041
447 1 55.8573 40.1056 13.863
448 1 31.5547 26.6517 6.03962
449 1 4.04169 10.8362 36.401
450 1 30.6291 25.8247 8.63266
451 1 44.666 29.2059 22.5143
452 1 51.7973 53.6282 7.54526
453 1 32.6161 4.0862 5.56275
454 1 34.8376 7.7204 31.2973
455 1 51.1613 37.1796 18.711
456 1 36.5193 50.7976 29.3103
457 1 21.5012 52.4645 9.98411
458 1 33.9657 13.096 50.5274
459 1 33.6186 25.903 47.4743
460 1 54.7266 50.6278 11.774
461 1 0.398503 18.6266 23.2922
462 1 19.8384 44.8751 50.6995
463 1 48.7805 12.7643 11.7188
464 1 0.731283 3.84257 39.2299
465 1 29.987 6.91049 44.3076
466 1 15.3426 4.15902 11.2078
467 1 12.4711 49.3303 10.1649
468 1 21.7352 9.38534 7.46365
469 1 54.6752 17.1618 30.4311
470 1 15.6469 46.1086 19.745
471 1 3.16037 50.3005 23.4137
472 1 2.7637 12.0875 47.8024
473 1 53.8012 52.4702 5.7539
474 1 7.5145 32.6366 34.6977
475 1 1.24844 2.70485 20.8291
476 1 15.435 32.3073 21.0685
477 1 46.2934 35.2884 32.2365
478 1 41.0125 29.0566 17.3927
479 1 10.6036 23.9305 52.4051
480 1 48.3945 44.7333 16.1042
481 1 56.1236 46.3275 22.8892
482 1 27.5988 54.5335 13.2405
483 1 46.2991 16.2627 1.72802
484 1 33.824 29.6155 51.5295
485 1 35.0946 38.6147 3.71517
486 1 47.0544 8.4475 23.6635
487 1 44.171 52.0604 46.7386
488 1 5.96651 13.8099 0.684551
489 1 36.8052 30.1153 18.7442
490 1 0.287235 6.37973 7.26608
491 1 -0.275024 32.561 46.9358
492 1 46.1787 40.5026 49.8172
493 1 2.60099 39.6076 30.9256
494 1 44.4973 49.3824 50.7199
495 1 14.9435 24.8323 52.6079
496 1 24.9236 16.645 47.9296
497 1 42.8828 3.44016 20.5479
498 1 20.4228 24.3884 9.09343
499 1 15.6554 39.9881 0.471282
500 1 55.6919 2.96266 22.3835
501 1 21.7303 20.6562 39.8883
502 1 33.1091 23.2927 19.567
503 1 17.813 13.1453 41.5479
504 1 2.8097 14.7591 38.001
505 1 9.90822 41.9035 54.0519
506 1 32.8979 36.4691 15.4922
507 1 36.875 54.9434 45.4032
508 1 19.5918 43.9389 6.16679
509 1 50.3134 55.3225 11.5362
510 1 35.4541 26.0862 41.9499
511 1 25.9889 43.9755 45.9475
512 1 48.654 30.8032 10.7461
513 1 13.8583 13.9412 33.4641
514 1 22.6918 20.7135 2.68191
515 1 17.317 47.7375 51.1027
516 1 1.26781 44.3134 48.7113
517 1 4.46152 15.6886 21.38
518 1 15.0755 54.1282 55.2245
519 1 31.5104 36.4962 35.1065
520 1 42.0294 27.9017 22.2682
521 1 9.47269 16.6839 33.4776
522 1 10.9225 47.067 6.30827
523 1 44.8217 22.4281 13.9071
524 1 6.9734 23.1078 41.0759
525 1 17.56 53.1891 33.6706
526 1 39.6551 52.4301 3.20419
527 1 50.998 15.224 44.3211
528 1 6.39311 37.1196 12.6736
529 1 28.1255 1.62162 6.3649
530 1 52.7091 32.0826 19.0062
531 1 5.36137 29.7878 24.7533
532 1 43.4874 22.0401 7.68576
533 1 43.7969 37.8293 0.697425
534 1 7.24292 18.7741 52.0984
535 1 9.93162 6.81986 48.9503
536 1 37.5043 51.3561 43.126
537 1 36.7355 19.6604 36.2066
538 1 32.504 13.5451 36.357
539 1 1.85234 43.706 18.0034
540 1 7.17379 13.7182 14.4535
541 1 4.08336 15.9823 45.8499
542 1 51.6434 36.3147 25.7759
543 1 14.6725 44.8699 42.3556
544 1 4.55728 15.5655 33.673
545 1 38.4157 19.3971 41.347
546 1 5.43742 10.19 47.7301
547 2 39.473 9.34623 54.6162
548 2 0.722868 29.6586 45.9948
549 2 0.976802 10.0012 36.1495
550 2 13.1456 32.6851 50.6115
551 2 21.467 46.0294 3.97157
552 2 1.34831 42.9346 41.6263
553 2 3.1629 9.28312 49.5483
554 2 20.2888 19.1891 49.0449
555 2 49.3227 20.2736 41.313
556 2 37.596 3.63449 45.4155
557 2 55.518 28.8727 12.8917
558 2 17.2942 38.9599 10.4103
559 2 26.4384 49.7656 4.29989
560 2 51.8905 51.5088 23.3102
561 2 13.2013 41.7025 30.5744
562 2 51.6496 28.5276 51.5152
563 2 22.9744 55.1544 25.6386
564 2 7.38141 6.03708 40.4207
565 2 18.8538 30.1998 55.5093
566 2 42.0732 45.0065 43.0383
567 2 4.73088 33.0312 6.00299
568 2 27.9575 43.7833 54.0169
569 1 41.571 19.9372 48.1772
570 1 33.4185 8.25218 9.03718
571 1 15.4979 25.1504 16.0679
572 1 1.68514 50.401 16.6016
573 1 4.47839 3.09586 36.2665
574 1 46.6342 44.6524 21.9765
575 1 35.1432 28.0812 3.67501
576 1 47.7693 43.1211 9.5943
577 1 54.9115 1.01059 27.7449
578 1 45.3549 20.7485 3.11966
579 1 22.2072 34.424 31.5458
580 1 11.5565 36.6693 7.89315
581 1 29.2358 35.2835 49.6278
582 1 34.8911 0.981894 18.9654
583 1 41.3687 43.2088 12.1583
584 1 36.9788 33.8826 1.61935
585 1 19.4287 19.3273 2.79197
586 1 36.2033 51.6803 26.5586
587 1 16.9951 43.1494 56.0884
588 1 28.4844 36.017 35.1813
589 1 18.0136 44.9413 3.64587
590 1 51.6323 1.05298 36.9464
591 1 8.96245 53.3775 38.6998
592 1 11.7502 29.5018 37.7618
593 1 30.1567 16.5403 15.4155
594 1 37.7585 0.897397 15.0398
595 1 5.62958 4.70614 51.0356
596 1 42.8182 46.7086 45.9423
597 1 19.7507 21.4179 24.8431
598 1 2.77055 53.1633 11.6008
599 1 31.6225 37.5488 12.7743
600 1 10.0612 27.1127 16.527
601 1 22.3166 17.9088 44.0349
602 1 14.0135 0.581332 42.3951
603 1 6.30559 0.280677 56.0415
604 1 35.8094 53.5196 5.13505
605 1 52.1075 35.9951 42.5211
606 1 46.0932 50.7593 32.9972
607 1 6.86763 0.46119 50.6213
608 1 40.8653 50.2338 36.4301
609 1 45.3403 6.31813 27.6485
610 1 10.942 11.559 43.669
611 1 11.8311 50.9041 14.1592
612 1 44.2726 53.9556 51.0459
613 1 30.4451 42.1988 55.1025
614 1 27.8301 55.9141 8.71719
615 1 13.912 46.6585 30.1513
616 1 33.4085 19.7025 15.8487
617 1 36.052 21.9498 37.8267
618 1 33.3715 52.0807 33.4717
619 1 23.3042 51.3679 36.4731
620 1 46.2957 5.41856 30.8457
621 1 54.7873 4.00128 14.5974
622 1 52.8189 36.7908 34.7852
623 1 43.087 13.4989 7.98865
624 1 19.7599 10.5192 23.167
625 1 36.6822 2.4062 48.1358
626 1 52.1203 22.7937 41.2725
627 1 39.488 33.1733 51.7772
628 1 28.9239 29.4985 35.7174
629 1 29.2857 29.7717 30.1639
630 1 20.7132 49.8186 47.2445
631 1 2.98538 7.88345 25.5846
632 1 2.87022 12.2405 17.6342
633 1 23.9746 41.9904 47.0281
634 1 41.2908 5.05718 18.8476
635 1 51.8217 3.36772 29.8626
636 1 25.6247 1.80503 -0.294295
637 1 29.1908 37.1819 32.9929
638 1 50.9571 43.0637 15.205
639 1 31.3484 36.9746 10.0753
640 1 7.11306 12.3649 30.1058
641 1 14.7142 8.64531 2.88614
642 1 1.1417 21.1786 16.3245
643 1 23.3488 20.8632 53.9734
644 1 22.0372 15.2033 11.4013
645 1 7.58628 40.4625 32.5123
646 1 26.5189 21.9625 40.9287
647 1 5.03963 15.4 40.3469
648 1 36.6468 37.839 29.8216
649 1 21.6483 9.20516 44.6695
650 1 36.9841 6.9899 54.6859
651 1 17.9607 16.9841 53.7137
652 1 54.281 39.6335 51.768
653 1 18.7233 30.0476 11.4299
654 1 22.3732 50.4049 14.8256
655 1 41.4473 55.2145 16.2982
656 1 19.5832 31.5217 36.8976
657 1 54.364 42.5815 51.3963
658 1 33.67 36.2486 48.3623
659 1 11.1541 47.3336 55.5803
660 1 36.4409 38.2602 19.0818
661 1 28.423 1.81399 39.0051
662 1 3.79707 32.5877 49.3648
663 1 27.2011 0.798618 54.4869
664 1 18.6646 54.8171 25.1333
665 1 47.8772 42.2005 -0.0372528
666 1 23.3732 52.2139 24.3685
667 1 22.0821 41.4021 18.1754
668 1 40.9145 12.6398 13.3147
669 1 0.643904 38.0913 49.1301
670 1 28.5319 11.3058 35.6362
671 1 28.1336 13.0729 5.31517
672 1 33.4941 13.8373 47.9033
673 1 32.4755 0.0188234 13.3612
674 1 24.6292 25.8992 21.0685
675 1 16.1751 15.4521 19.9036
676 1 2.5874 21.3978 53.9699
677 1 7.00313 32.2474 41.3567
678 1 22.651 34.6071 15.2044
679 1 1.0485 23.5055 15.0717
680 1 18.7906 43.9622 45.4642
681 1 46.1565 55.515 40.5453
682 1 6.4265 39.5085 44.1589
683 1 22.895 23.6608 36.8075
684 1 28.5508 27.9985 47.9535
685 1 1.14952 23.5825 18.0438
686 1 55.2448 8.31184 35.3371
687 1 13.0978 54.079 10.114
688 1 28.819 6.69901 9.60212
689 2 50.8993 46.7939 2.78271
690 2 20.8424 49.5851 8.762
691 2 16.7136 37.9403 43.1945
692 2 39.5565 7.32098 4.05266
693 2 38.0324 17.8919 27.9614
694 2 49.4244 41.6317 51.8009
695 2 19.1835 8.77873 47.0921
696 2 39.5199 21.795 49.661
697 2 52.5693 53.2131 10.6888
698 2 2.31673 45.9193 12.2996
699 2 44.2352 22.882 53.3025
700 2 14.6493 6.16506 34.129
701 2 52.3566 3.93322 36.0353
702 2 29.606 39.1278 35.224
703 2 49.4963 45.3616 49.973
704 2 55.2207 53.9289 18.0876
705 2 8.74033 37.3868 46.1836
706 2 27.4377 29.8831 23.8259
707 2 8.63449 22.2541 31.6331
708 2 56.1198 50.2651 1.50698
709 2 0.911388 51.3434 25.5897
710 2 42.3903 55.3635 28.6198
711 1 22.9792 38.264 52.5694
712 1 35.4344 18.5469 1.63626
713 1 42.9875 39.0516 19.1921
714 1 47.9221 22.9415 17.5239
715 1 16.327 52.2702 21.8186
716 1 8.93425 22.808 36.9193
717 1 25.5195 16.6611 0.719815
718 1 0.584125 30.7915 24.3221
719 1 30.1097 13.2798 34.5364
720 1 27.8092 26.9777 37.8557
721 1 42.3344 29.7291 11.1475
722 1 22.0776 27.307 36.8069
723 1 50.6257 29.2716 10.7396
724 1 51.4987 23.0513 55.1385
725 1 20.6561 14.7085 13.685
726 1 38.3948 36.6518 28.2637
727 1 30.7356 33.1392 48.6444
728 1 15.2674 52.2853 42.1959
729 1 10.5871 16.8255 25.8825
730 1 4.73739 46.1374 2.30353
731 1 15.0663 8.61408 53.7339
732 1 48.4343 15.2327 0.38222
733 1 13.5249 -0.334586 19.8782
734 1 50.2242 25.0927 26.6503
735 1 42.7311 13.3125 18.6328
736 1 18.4923 32.6394 16.1602
737 1 27.3299 41.2824 52.0581
738 1 9.39157 35.9999 9.60396
739 1 14.6224 31.5352 42.9701
740 1 43.0185 43.9262 49.6681
741 1 10.2136 8.91544 55.7767
742 1 15.2763 22.9236 42.5156
743 1 6.40741 48.2186 42.221
744 1 28.2087 34.2052 40.3457
745 1 32.7666 0.885569 39.3781
746 1 19.4779 13.3835 3.50672
747 1 29.3419 45.5167 2.52636
748 1 28.4474 12.7574 25.7719
749 1 8.37322 50.0039 20.1539
750 1 14.408 10.3305 39.2294
751 1 20.9285 38.3865 34.1838
752 1 54.8862 45.646 45.4736
753 1 47.6292 -0.229384 31.428
754 1 22.1354 17.3717 9.94385
755 1 46.523 25.4877 -0.227755
756 1 41.3296 10.5917 30.6057
757 1 31.1193 2.51728 2.91312
758 1 54.8767 30.8937 25.6573
759 1 40.7833 18.0895 26.8101
760 1 40.523 53.3689 39.7633
761 1 49.3294 21.0584 23.1521
762 1 11.5723 0.0884673 40.6582
763 1 11.2972 6.00333 14.9085
764 1 10.1077 35.8904 16.2363
765 1 51.7081 25.2075 0.666792
766 1 26.4615 48.5919 47.4244
767 1 18.37 46.9301 20.107
768 1 14.6283 41.3915 39.7101
769 1 56.2139 24.9191 37.1829
770 1 12.5793 45.9856 37.4518
771 1 6.65393 18.0449 34.878
772 1 48.921 54.9573 40.5047
773 1 6.63108 45.9826 22.9629
774 1 22.3621 21.6184 31.5832
775 1 6.93647 31.1954 0.310434
776 1 4.76774 54.0055 13.8429
777 1 36.0732 40.5229 31.5001
778 1 21.4252 19.2289 52.4221
779 1 20.0469 22.2414 10.8417
780 1 54.2779 18.911 4.39444
781 1 53.7074 49.575 55.6932
782 1 53.8833 12.5669 29.6917
783 1 21.5198 30.9812 2.91535
784 1 16.4273 14.0868 10.3738
785 1 38.4933 52.2028 18.8217
786 1 1.33524 10.9889 40.7498
787 1 14.7626 24.0518 18.5805
788 1 36.5235 47.0563 6.66092
789 1 56.159 13.6541 0.707193
790 1 20.019 7.77607 -0.011781
791 1 51.1901 13.4216 46.6767
792 1 30.5714 48.6833 35.5852
793 1 54.5402 9.83152 25.1304
794 1 44.1328 24.8206 3.55306
795 1 10.4924 50.6408 31.2928
796 1 40.3686 14.0587 29.3444
797 1 27.9218 34.5195 15.4415
798 1 26.8802 20.0027 42.8695
799 1 26.8677 5.41324 48.9715
800 1 38.6963 12.8719 33.8793
801 1 51.5181 22.9844 7.2324
802 1 23.0871 53.6706 43.3597
803 1 9.71134 2.68717 6.88916
804 1 52.8601 48.6499 11.4257
805 1 43.1668 47.6293 12.9257
806 1 50.5616 50.8934 39.7254
807 1 24.6205 36.2342 52.5321
808 1 1.88882 18.3961 27.5463
809 1 5.0937 42.0305 50.0819
810 1 56.2193 20.3928 3.48286
811 1 7.84611 18.3263 3.39541
812 1 47.3691 1.87747 13.2713
813 1 19.7714 0.484541 28.8337
814 1 26.9074 6.92139 19.7799
815 1 39.1584 44.2071 17.1469
816 1 3.15181 16.4451 54.4806
817 1 32.2863 38.5198 33.6589
818 1 7.75897 37.8208 26.1612
819 1 44.402 16.086 49.4006
820 1 27.5731 29.7438 49.4935
821 1 32.6486 39.2371 2.35337
822 1 16.9292 14.0358 53.2774
823 1 49.1663 30.7212 51.002
824 1 44.8147 46.7154 2.08016
825 1 53.169 2.10519 10.1132
826 1 44.3073 6.51482 48.2368
827 1 8.61057 11.8541 27.5391
828 1 24.5233 34.8961 24.6444
829 1 53.0983 32.1517 30.4134
830 1 -0.154129 14.9882 34.5503
831 2 14.5797 28.0017 15.0547
832 2 13.9288 10.4939 18.3175
833 2 40.5834 32.4565 8.86318
834 2 1.29476 21.4741 28.3442
835 2 16.3216 6.36943 13.4025
836 2 19.009 18.4373 26.2416
837 2 31.2036 4.09394 30.2295
838 2 4.25059 42.7542 13.7097
839 2 24.5111 43.8928 18.5452
840 2 7.83077 14.0581 54.4626
841 2 3.18318 37.5755 12.5075
842 2 30.0268 26.1421 40.4434
843 2 36.6441 7.85858 28.4626
844 2 38.3133 27.1623 23.7681
845 2 27.0405 16.5759 42.8938
846 2 9.53873 35.7215 34.2724
847 2 33.431 45.3132 43.7676
848 2 48.6015 -0.0353459 8.55241
849 2 1.67225 27.4154 27.9506
850 2 1.66447 10.4986 4.54732
851 2 56.1208 36.2399 34.0601
852 2 28.3966 27.8688 32.889
853 1 52.4963 26.7271 25.657
854 1 3.76304 32.7024 2.21361
855 1 28.2499 19.9142 30.6804
856 1 26.7192 46.0625 18.9523
857 1 37.6255 45.5491 40.5926
858 1 11.2222 12.6245 33.4615
859 1 31.0349 44.9266 54.3926
860 1 24.7573 9.25046 24.4998
861 1 35.4734 19.7312 28.1517
862 1 3.19333 55.9264 12.2855
863 1 50.995 37.8175 4.52076
864 1 39.7245 9.60118 21.5691
865 1 18.3953 36.2827 21.1004
866 1 46.2317 32.324 0.345422
867 1 25.7363 17.1217 54.3421
868 1 7.80539 34.7572 36.4652
869 1 9.02572 27.5775 19.3717
870 1 7.74688 48.7816 39.9232
871 1 26.7954 11.0381 7.55614
872 1 6.19669 6.93422 13.5725
873 1 34.692 2.09369 5.49948
874 1 22.5909 10.2303 16.6066
875 1 55.7293 1.73998 45.3793
876 1 56.2573 30.0248 42.5309
877 1 48.9617 23.9522 12.8197
878 1 32.2256 22.6891 43.5518
879 1 49.4821 25.5663 32.3266
880 1 9.07765 47.4419 27.2215
881 1 54.3539 2.60722 43.3954
882 1 36.6565 19.7953 30.4926
883 1 55.6463 18.5946 45.0751
884 1 18.8096 50.652 4.00989
885 1 38.3118 9.07731 43.1124
886 1 36.346 19.5364 15.9007
887 1 28.8462 51.3988 11.4646
888 1 23.2559 4.8312 42.3779
889 1 49.5497 50.4169 35.0946
890 1 24.029 19.288 26.787
891 1 12.0578 2.20391 25.0056
892 1 -0.0123777 41.4785 34.5741
893 1 10.8583 38.4552 36.0569
894 1 22.5707 44.7005 23.1459
895 1 16.963 4.0356 5.59716
896 1 34.0408 53.0849 7.46635
897 1 7.66828 51.6809 22.7755
898 1 42.47 29.0483 5.21806
899 1 5.48328 42.5484 25.5298
900 1 23.9123 8.43219 54.3844
901 1 52.4207 13.6024 27.1457
902 1 16.1888 17.6252 24.5462
903 1 0.797265 6.11077 26.6311
904 1 16.8257 48.261 25.8695
905 1 40.4456 33.7019 19.1786
906 1 1.96838 29.0398 4.46063
907 1 28.0937 6.60229 22.1926
908 1 20.8281 12.2274 41.0195
909 1 28.6128 21.9547 9.71356
910 1 29.1748 54.608 15.4827
911 1 16.8255 19.5449 39.035
912 1 22.5562 3.3429 1.73234
913 1 45.8638 3.54673 29.3498
914 1 20.6687 12.9232 34.0523
915 1 34.6487 47.9742 49.4425
916 1 2.20946 49.0893 5.69003
917 1 41.9805 21.1593 9.75879
918 1 56.1042 35.2821 14.8842
919 1 27.1235 54.6857 42.6184
920 1 51.5351 52.8923 30.9654
921 1 24.9993 39.2254 8.09995
922 1 52.8588 16.8845 -0.127394
923 1 12.218 19.6235 9.57989
924 1 35.6797 11.0682 7.0126
925 1 16.2045 14.8501 32.371
926 1 6.5977 30.8591 29.1341
927 1 7.189 10.5983 5.5403
928 1 1.01462 29.8071 11.0778
929 1 28.3295 39.5344 19.7054
930 1 47.5889 8.3629 9.80244
931 1 1.58572 18.1163 43.9684
932 1 34.0311 3.41586 19.2041
933 1 7.89132 49.6321 31.5769
934 1 40.5925 40.6191 23.4782
935 1 37.0126 36.4891 22.1978
936 1 51.9412 5.40718 28.0397
937 1 30.0185 21.8739 30.2478
938 1 -0.0955599 12.0069 33.9267
939 1 7.18736 3.5566 23.8439
940 1 32.2818 6.74679 6.25285
941 1 31.8597 9.79623 -0.1662
942 1 51.4151 27.3284 2.8999
943 1 2.3311 13.3113 15.2473
944 1 20.3072 28.966 20.4266
945 1 4.10622 1.25512 11.1466
946 1 16.3988 47.3595 30.1984
947 1 -0.135951 26.1276 17.1231
948 1 42.7554 54.0189 21.1703
949 1 47.1239 11.9624 33.1801
950 1 12.6372 25.0013 25.6816
951 1 48.3311 13.4523 21.4571
952 1 2.74131 2.36452 40.7848
953 1 28.2012 24.137 4.08729
954 1 26.5512 17.9545 7.50331
955 1 0.333078 40.6188 23.4187
956 1 41.0498 51.5364 9.89
957 1 8.52985 42.7928 10.8875
958 1 18.754 47.6754 3.47708
959 1 8.81513 47.2615 24.3967
960 1 28.285 13.0589 47.3967
961 1 21.4106 31.5775 45.2988
962 1 14.9973 27.1505 18.6103
963 1 31.6066 31.757 4.63099
964 1 47.7096 15.5056 49.7079
965 1 6.35244 9.69484 42.0171
966 1 50.3744 9.3574 10.064
967 1 33.1714 52.7858 4.78728
968 1 41.9462 33.1239 37.0397
969 1 43.1292 43.8661 46.2297
970 1 35.4027 26.0529 34.2115
971 1 26.3489 8.47342 42.1977
972 1 13.7071 15.9318 47.1965
973 2 23.1259 40.8789 39.3945
974 2 43.6065 5.23844 3.88589
975 2 7.01198 25.1049 36.1046
976 2 12.8221 17.9511 0.572124
977 2 19.5098 46.5817 23.3245
978 2 2.84748 22.7872 -0.00327521
979 2 48.7842 2.42084 30.1392
980 2 30.4288 26.5325 36.1644
981 2 28.1799 21.8702 20.3494
982 2 7.98956 55.9141 53.4752
983 2 8.172 50.2625 47.5783
984 2 40.558 18.025 13.2544
985 2 28.4963 50.9641 35.9869
986 2 34.1718 32.5783 14.5262
987 2 34.5363 35.7935 28.4544
988 2 31.2453 9.89864 44.5312
989 2 5.21539 54.8144 10.3582
990 2 19.3276 12.0639 52.1213
991 2 56.0275 54.592 49.131
992 2 22.6183 14.0908 32.1115
993 2 3.69271 0.525469 21.3223
994 2 24.5015 49.4204 22.4697
995 1 31.3784 37.9444 25.3619
996 1 42.6513 48.1407 29.2173
997 1 36.8971 19.3338 48.519
998 1 9.33047 51.9741 13.1095
999 1 20.7076 15.2269 5.99834
1000 1 18.065 21.3522 34.8128
1001 1 14.2073 42.3308 27.8951
1002 1 26.6117 56.2517 52.0895