ITEM: TIMESTEP
0
ITEM: NUMBER OF ATOMS
9088
ITEM: BOX BOUNDS pp pp pp
-1.5722097132148929e-01 5.6041713597229233e+01
-1.5722097132148929e-01 5.6041713597229233e+01
-1.5722097132148929e-01 5.6041713597229233e+01
ITEM: ATOMS id type x y z
1 1 28.4494 41.1724 49.2555
2 1 44.3591 4.45819 36.4942
3 1 41.6411 12.7781 50.0183
4 1 37.0694 49.3417 43.7691
5 1 11.5928 34.6305 8.29874
6 1 36.0088 25.5164 21.8317
7 1 20.0799 33.0002 1.40134
8 1 48.4749 1.80949 9.34751
9 1 55.8991 50.1073 40.1102
10 1 36.7569 13.5454 53.4775
11 1 48.4854 35.8067 32.6007
12 1 35.6283 19.179 36.7685
13 1 21.6724 48.5543 36.8203
14 1 19.8025 49.6124 50.1591
15 1 3.19581 36.8132 30.2788
16 1 26.5574 0.649671 38.9075
17 1 50.2968 9.95145 27.9324
18 1 4.14219 47.7658 36.0333
19 1 30.2007 23.7843 51.7914
20 1 31.1007 2.54738 44.7817
21 1 25.4307 49.0731 50.178
22 1 9.55101 41.7125 1.91166
23 1 21.9627 17.5513 37.9264
24 1 3.38436 7.87005 55.4796
25 1 26.0495 27.302 38.8968
26 1 19.9542 28.0733 43.2999
27 1 34.6894 29.2464 54.3731
28 1 13.5714 32.5725 15.0243
29 1 11.0135 50.052 40.1954
30 1 49.1054 7.37191 44.6761
31 1 30.8219 4.82241 0.289269
32 1 33.8774 5.47659 23.2136
33 1 24.3404 41.7535 2.74065
34 1 14.4983 24.8503 1.84908
35 1 20.1974 51.3283 40.5514
36 1 16.3808 32.1854 18.8109
37 1 23.4131 55.6499 47.2302
38 1 23.608 21.2095 6.01198
39 1 13.2955 26.2307 0.0876474
40 1 8.81531 11.4486 47.8077
41 1 46.8398 41.0578 1.19758
42 1 5.58923 39.0941 14.7139
43 1 21.8369 16.9303 9.59523
44 1 50.7134 52.002 23.677
45 1 13.0741 43.416 55.7957
46 1 -0.140397 17.7053 11.0841
47 1 42.8006 6.36499 32.0242
48 1 18.4522 30.7579 19.8535
49 1 7.44535 20.0117 32.7189
50 1 18.1168 19.7077 20.6093
51 1 50.0612 32.2184 30.3948
52 1 22.2878 10.5277 37.7241
53 1 52.5339 20.3754 1.17135
54 1 52.0502 17.5091 42.6675
55 1 39.5697 45.0305 29.4284
56 1 11.6608 25.4719 44.5463
57 1 6.94045 33.1308 34.6379
58 1 37.3495 11.6588 21.757
59 1 5.55617 30.497 28.5685
60 1 36.1601 32.8441 54.5964
61 1 11.9888 27.145 53.8773
62 1 52.6992 22.2849 24.3275
63 1 49.2816 43.3822 28.8489
64 1 22.3701 4.11876 16.2341
65 1 11.1126 42.466 47.8469
66 1 8.17048 44.7625 10.1304
67 1 12.2787 42.9533 53.0285
68 1 11.5194 33.6815 52.3753
69 1 37.3294 38.2583 45.9119
70 1 2.27314 28.0797 5.16695
71 1 51.9927 46.8713 28.048
72 1 55.4388 29.5282 1.59362
73 1 25.7695 46.3498 4.66356
74 1 4.8926 33.2221 47.1838
75 1 37.7432 19.3224 5.21787
76 1 38.3547 23.7813 6.06449
77 1 47.4695 40.303 32.2071
78 1 33.9592 40.5182 10.5538
79 1 31.8409 23.2896 42.5203
80 1 39.4458 0.161734 30.7233
81 1 17.584 27.6488 54.3449
82 1 50.7738 1.35685 23.9579
83 1 7.99556 14.8866 27.8978
84 1 36.1404 2.28399 4.14338
85 1 39.622 10.8472 38.4539
86 1 34.8917 34.1155 34.9369
87 1 26.0892 8.11286 32.0123
88 1 15.9851 11.4629 12.9987
89 1 7.14387 47.782 39.4324
90 1 1.21631 39.7586 51.4664
91 1 17.8711 7.9295 21.8683
92 1 10.1363 12.0656 19.372
93 1 38.2807 9.65888 11.4731
94 1 35.6658 33.925 28.8004
95 1 40.6593 24.5023 18.9282
96 1 7.14292 0.0214243 14.1832
97 1 3.5023 8.6873 32.7239
98 1 17.8982 12.601 29.8125
99 1 42.3297 36.6053 5.5759
100 1 3.39185 6.06751 26.9489
101 1 0.489173 33.7928 47.3812
102 1 5.27995 1.22915 12.505
103 1 41.7001 43.1795 55.8846
104 1 14.6287 54.6866 39.4391
105 1 31.2535 13.977 10.8228
106 1 19.1102 48.2325 47.6461
107 1 32.5647 0.191431 44.9453
108 1 46.8113 17.441 47.2623
109 1 10.2536 45.703 16.558
110 1 31.4518 9.18959 10.8124
111 1 37.5728 54.395 15.0738
112 1 5.4427 5.45083 10.3935
113 1 28.8362 33.1653 11.4042
114 1 24.1595 16.9178 40.1142
115 1 42.7227 34.609 31.3386
116 1 32.1571 5.97021 38.0451
117 1 -0.0631757 12.56 40.5949
118 1 1.74325 43.8636 31.7428
119 1 36.1976 36.2157 33.8788
120 1 15.1744 1.77864 40.0988
121 2 12.1194 38.6851 35.4002
122 2 51.4594 18.5995 12.7671
123 2 55.0928 46.668 20.9591
124 2 52.5492 29.6961 19.8331
125 2 53.7255 35.55 38.5597
126 2 25.2214 7.6605 17.7811
127 2 12.5053 51.3309 15.555
128 2 7.63219 30.1234 35.2441
129 2 55.2919 17.9479 7.63671
130 2 1.38943 21.1302 45.8942
131 2 52.1273 11.8765 47.3584
132 2 39.1604 46.5178 17.835
133 2 34.7772 42.8335 16.0769
134 2 15.2688 5.10709 9.02531
135 2 42.8237 34.0519 3.7923
136 2 9.99959 0.53263 31.9076
137 2 40.6686 24.2389 46.2886
138 2 5.41121 4.56382 49.2027
139 2 31.1964 14.9391 13.8485
140 2 45.2725 27.2806 38.8573
141 2 7.90072 38.3642 22.7075
142 2 29.7049 23.5878 40.1757
143 1 47.1498 19.7744 45.8362
144 1 29.1081 17.6458 13.5904
145 1 54.051 12.6144 6.5148
146 1 52.0955 26.6348 15.394
147 1 29.3284 28.0253 32.4853
148 1 26.7407 10.2044 38.4134
149 1 46.4582 6.38443 44.7435
150 1 25.1829 25.7967 9.64185
151 1 50.0871 24.3611 53.969
152 1 10.5273 33.6343 45.4184
153 1 49.9587 48.2777 29.3625
154 1 43.0605 41.7541 30.7865
155 1 32.4602 18.479 10.4669
156 1 7.83909 33.2511 9.37124
157 1 51.6197 34.0135 22.2689
158 1 37.3317 5.46356 0.0683169
159 1 54.7808 48.0738 13.6728
160 1 49.184 2.52646 2.40874
161 1 10.5998 25.6104 21.2511
162 1 13.1104 12.9446 44.1839
163 1 19.9408 21.2465 26.4719
164 1 55.7464 38.3916 12.0545
165 1 51.2997 35.6428 6.73161
166 1 45.2024 41.6878 14.5599
167 1 31.1921 39.7932 46.3391
168 1 36.9401 7.69964 42.9383
169 1 27.8727 50.5882 39.1257
170 1 39.5583 33.9629 46.9768
171 1 28.481 32.9183 23.5953
172 1 21.4249 43.8786 28.3833
173 1 14.097 39.7987 10.0955
174 1 35.274 1.73857 32.4913
175 1 18.5636 27.9086 16.4495
176 1 39.4434 37.0818 6.61633
177 1 10.1184 5.05133 25.0224
178 1 18.473 5.73206 8.79692
179 1 27.0394 44.968 48.0257
180 1 55.3054 26.9574 8.57569
181 1 48.4542 43.0017 31.5927
182 1 49.5882 30.153 52.54
183 1 13.3696 20.4312 4.05458
184 1 26.0399 52.9237 12.0698
185 1 33.385 10.1377 34.5214
186 1 43.7209 26.6364 26.5172
187 1 1.65321 7.01262 53.4106
188 1 28.5296 39.3262 3.37197
189 1 13.5453 41.1972 33.9336
190 1 35.5359 48.7249 21.8448
191 1 20.3972 19.027 45.8243
192 1 50.3764 0.235383 7.76863
193 1 37.0408 8.7522 13.9566
194 1 36.0744 3.89608 30.9814
195 1 24.7579 27.5927 1.20652
196 1 35.0747 5.4732 26.5307
197 1 7.02916 9.37755 49.3742
198 1 12.7401 19.0912 28.6583
199 1 31.4987 19.026 2.92181
200 1 39.8197 20.486 41.1547
201 1 26.6302 13.0339 16.2067
202 1 38.9293 2.01204 2.55957
203 1 31.2203 27.7265 36.9959
204 1 41.067 27.2934 19.2047
205 1 7.95553 12.6043 2.91129
206 1 39.2984 25.4262 24.461
207 1 0.222495 45.1831 45.868
208 1 31.9492 4.96236 10.721
209 1 47.6994 6.71915 47.0847
210 1 27.3494 21.7466 41.7535
211 1 8.7044 5.82335 21.9767
212 1 43.214 27.3968 43.483
213 1 22.1765 12.3332 51.2099
214 1 0.969492 37.5895 2.37739
215 1 11.6328 27.7492 22.8826
216 1 0.130283 24.6814 50.9451
217 1 21.881 8.90397 35.5593
218 1 1.55229 9.94038 54.3814
219 1 43.9594 51.5583 5.86522
220 1 44.8331 8.24613 43.7461
221 1 30.1947 0.694151 17.0636
222 1 2.62889 7.69004 21.7049
223 1 26.102 43.9129 2.88327
224 1 42.4729 9.64872 24.6507
225 1 43.8301 48.8725 38.2039
226 1 12.8441 42.0231 25.3564
227 1 20.3694 45.6077 33.3321
228 1 0.108376 20.0529 52.6952
229 1 11.0077 27.1531 42.5953
230 1 30.9896 29.8563 41.2403
231 1 31.7331 35.2706 25.2532
232 1 40.7244 16.9403 17.8832
233 1 50.9047 49.9008 37.9341
234 1 10.8254 14.2309 50.9872
235 1 41.4131 18.5093 42.1015
236 1 6.65884 47.6226 29.3563
237 1 52.7961 29.8956 23.6936
238 1 38.9914 1.40921 55.8922
239 1 34.0609 28.5633 5.86967
240 1 9.42775 32.9388 50.8592
241 1 20.1905 49.0437 10.8421
242 1 32.9598 10.825 2.81755
243 1 7.67731 23.8927 33.368
244 1 55.9207 42.2954 7.73151
245 1 1.42767 27.8799 20.041
246 1 54.0131 5.78569 5.60512
247 1 54.5463 48.9749 11.0929
248 1 44.0742 0.627361 45.5686
249 1 10.7039 44.8844 48.9919
250 1 23.3459 24.4438 17.9934
251 1 17.7875 39.1542 3.91236
252 1 47.8443 16.8755 38.9573
253 1 2.91889 27.0347 48.2764
254 1 9.34694 8.4082 32.7692
255 1 55.0146 9.24048 18.1001
256 1 31.0267 47.6316 24.717
257 1 1.49039 12.4123 35.0288
258 1 33.356 18.3932 27.7209
259 1 45.5344 45.8406 54.9457
260 1 25.1315 41.3932 34.067
261 1 32.2105 10.6697 39.5908
262 1 23.7016 44.2865 8.2491
263 2 43.9749 24.765 29.2323
264 2 25.6085 47.1124 1.68192
265 2 50.0058 7.20515 49.2471
266 2 7.04198 24.52 38.4441
267 2 14.5353 21.2864 1.30606
268 2 4.73346 3.41631 24.9007
269 2 15.2576 2.4181 16.585
270 2 44.3477 43.5094 53.5231
271 2 53.6985 44.8544 26.2537
272 2 33.2164 40.2374 13.7423
273 2 33.3085 6.12655 34.835
274 2 53.0387 27.1274 30.5703
275 2 27.2588 7.26428 53.1873
276 2 55.9623 14.0641 4.3662
277 2 1.2651 42.8795 39.3512
278 2 11.7926 34.3772 18.5517
279 2 43.7931 51.4507 46.5484
280 2 19.6018 55.2695 22.083
281 2 41.3721 16.9841 14.6885
282 2 15.1555 28.7794 8.12602
283 2 46.6267 47.7923 28.8173
284 2 17.0479 27.2153 34.8277
285 1 4.81164 35.3359 5.76029
286 1 49.5186 34.5258 20.2361
287 1 44.8066 1.74676 36.1693
288 1 20.5156 16.8909 29.7246
289 1 22.8239 31.3782 4.26201
290 1 50.9411 13.2476 24.0163
291 1 17.859 43.8657 34.0966
292 1 40.9834 5.57768 43.9391
293 1 54.5996 19.794 55.406
294 1 30.8333 32.563 41.8053
295 1 47.1802 25.2718 29.744
296 1 12.476 32.4692 35.1947
297 1 48.4507 14.162 33.9948
298 1 30.8638 22.3132 13.0032
299 1 31.7055 18.7513 17.9814
300 1 24.7584 31.7871 9.49206
301 1 24.7785 49.9378 23.2458
302 1 46.6369 33.4745 25.7997
303 1 53.7775 3.459 1.81532
304 1 13.7007 34.5611 53.7693
305 1 25.4761 38.5534 23.1131
306 1 28.8957 52.2087 32.7924
307 1 5.20285 39.9827 32.1311
308 1 40.0093 54.1313 45.171
309 1 49.4776 30.7285 28.2711
310 1 10.4985 52.7429 38.4564
311 1 38.1374 35.0933 5.49493
312 1 10.4648 7.78438 26.1604
313 1 5.03323 55.289 18.3091
314 1 29.0599 47.6091 53.1827
315 1 4.54893 6.22706 14.8709
316 1 43.8671 10.4286 10.7538
317 1 30.5024 31.7272 39.1827
318 1 5.93896 23.2359 11.4457
319 1 3.191 2.79725 18.2284
320 1 19.0071 33.7525 25.4053
321 1 26.0546 38.6188 34.0663
322 1 55.0962 21.6884 22.885
323 1 11.3864 10.9369 33.0744
324 1 18.5523 8.79541 32.3435
325 1 21.6164 45.9192 43.2001
326 1 16.735 32.228 40.8727
327 1 12.6557 9.05936 35.0659
328 1 0.648955 8.31716 36.7951
329 1 4.44723 25.501 44.8387
330 1 8.15413 30.9197 30.0846
331 1 15.7947 39.179 52.4514
332 1 0.58987 44.3227 12.1508
333 1 16.2071 13.4899 10.7643
334 1 33.7467 35.0534 22.8471
335 1 35.1369 13.2849 51.1384
336 1 49.9549 21.3353 12.9484
337 1 1.04114 34.007 7.64051
338 1 9.62989 22.9626 22.2908
339 1 15.2895 24.1775 44.3139
340 1 25.183 23.364 26.1321
341 1 26.5776 51.2219 24.9966
342 1 0.0544192 26.8881 17.8226
343 1 35.8316 14.0901 27.624
344 1 33.0703 15.8689 11.432
345 1 48.7096 16.6565 3.9577
346 1 0.406472 6.8026 23.7363
347 1 19.8213 18.2039 11.1262
348 1 12.9495 10.3057 22.7328
349 1 4.15555 37.0656 10.5279
350 1 1.9276 53.6051 50.9409
351 1 45.0248 35.5443 5.40774
352 1 18.7175 8.36012 52.2856
353 1 24.4033 34.5795 53.65
354 1 46.5249 37.1287 39.3589
355 1 48.8131 28.4986 38.8062
356 1 9.55767 40.0964 42.8535
357 1 20.2279 50.5536 52.7457
358 1 21.7706 24.1623 36.682
359 1 28.9569 44.7816 46.2148
360 1 16.62 38.1385 45.4774
361 1 39.8434 22.0539 43.6707
362 1 0.477684 54.2417 4.44428
363 1 44.1186 18.2178 14.7398
364 1 41.1632 0.48092 32.799
365 1 40.1286 44.9077 6.9108
366 1 15.5385 34.5105 15.0824
367 1 50.683 46.8724 38.0426
368 1 40.3251 44.9212 26.6015
369 1 33.3405 14.4319 16.0514
370 1 3.60404 40.8708 50.727
371 1 19.5307 28.0086 48.9679
372 1 13.9088 22.4484 33.6587
373 1 21.6355 55.7523 38.4171
374 1 47.3585 50.4729 2.75888
375 1 4.33167 52.6374 35.1791
376 1 42.7195 48.9377 25.0495
377 1 5.84967 24.1751 55.1442
378 1 29.1659 52.4405 21.3462
379 1 51.2019 39.4545 20.3562
380 1 10.9994 13.093 26.8935
381 1 26.0265 50.1821 29.1364
382 1 55.0183 22.6734 8.60703
383 1 12.6778 23.3689 22.7375
384 1 49.367 16.6234 32.8605
385 1 29.9321 9.19464 19.6358
386 1 36.1395 38.8349 23.3506
387 1 21.1314 33.8537 39.1938
388 1 24.4319 7.02563 40.3849
389 1 26.6565 10.9962 14.3664
390 1 45.2404 48.8693 31.7543
391 1 7.01212 9.2896 7.01067
392 1 48.4389 48.8909 37.1466
393 1 3.21293 27.9087 1.07652
394 1 2.95753 37.8091 46.8345
395 1 54.9896 7.6069 48.2725
396 1 14.7811 5.07414 24.0376
397 1 49.6874 25.9761 22.3562
398 1 21.5908 28.9069 4.20958
399 1 7.01988 54.1458 41.7692
400 1 35.5888 42.793 27.6561
401 1 18.5271 30.6352 24.6542
402 1 31.8212 48.0481 43.4818
403 1 13.1945 42.5893 28.2591
404 1 26.6459 34.9025 45.776
405 2 19.8647 8.21454 14.2429
406 2 35.9913 30.9608 7.76698
407 2 34.3114 13.1821 12.9114
408 2 24.8625 49.6667 12.933
409 2 46.8019 0.312245 16.6592
410 2 36.7197 49.1577 16.4532
411 2 5.70647 41.4809 16.9451
412 2 53.4921 8.91872 35.8977
413 2 31.1477 21.6706 45.1402
414 2 12.6026 35.1352 47.596
415 2 55.4717 51.5889 9.00892
416 2 51.8687 42.9739 55.02
417 2 44.209 5.00762 10.3051
418 2 7.35135 36.132 11.225
419 2 15.6408 54.4551 22.5398
420 2 23.8665 23.2697 23.2681
421 2 41.2673 49.4122 9.62676
422 2 31.9675 16.3212 8.11805
423 2 8.05834 0.595488 43.2107
424 2 52.0835 10.7326 5.00425
425 2 48.011 51.7359 38.6947
426 2 37.4715 8.40993 38.0947
427 1 29.6925 29.9429 55.9901
428 1 3.94995 53.6173 52.4093
429 1 55.8625 27.4654 50.8774
430 1 51.7187 54.8635 9.56247
431 1 20.1053 47.4819 26.2404
432 1 42.6245 8.33079 6.40693
433 1 39.9008 24.5539 13.7814
434 1 12.9143 22.5842 43.8858
435 1 22.9372 52.1263 8.49945
436 1 32.4284 31.9903 48.4031
437 1 26.245 24.1193 33.569
438 1 46.9392 3.19199 35.3222
439 1 1.41227 38.1119 54.0808
440 1 9.10648 25.4639 29.4509
441 1 22.4921 14.3077 10.8294
442 1 42.7376 18.6864 17.048
443 1 42.0492 10.0979 27.1745
444 1 51.6199 42.0681 47.5537
445 1 5.35769 14.9849 17.7824
446 1 38.5261 31.5967 39.8896
447 1 20.7655 51.9549 10.2837
448 1 44.1728 2.75354 -0.115916
449 1 54.0518 6.92084 29.0182
450 1 51.5104 33.4093 0.276342
451 1 27.8075 49.3225 14.3821
452 1 48.3176 12.5608 22.9309
453 1 9.4839 21.1488 33.7518
454 1 5.70365 35.4511 51.9727
455 1 6.94143 21.9312 23.8023
456 1 46.3643 3.71585 51.5499
457 1 53.2688 38.9605 18.5584
458 1 27.2946 20.1044 36.4907
459 1 2.85547 34.3856 9.70355
460 1 29.6076 0.378821 34.4183
461 1 7.97706 16.7315 17.3411
462 1 48.633 27.5845 9.31847
463 1 15.4952 2.36076 7.56589
464 1 31.5257 52.5839 22.8324
465 1 7.70567 46.7259 17.4975
466 1 5.05624 47.9662 5.47585
467 1 47.2067 11.3172 37.9702
468 1 44.8869 53.9745 7.12025
469 1 14.8727 43.4505 24.5895
470 1 28.1184 0.14294 14.6432
471 1 26.7226 10.1889 3.63514
472 1 15.2148 38.1643 28.0132
473 1 48.4514 38.8213 46.5762
474 1 39.7411 12.4474 16.8092
475 1 22.8398 25.1534 20.7215
476 1 12.0821 21.9124 40.1762
477 1 49.0271 3.33043 37.3053
478 1 41.6261 7.49323 13.7281
479 1 55.5617 25.9925 35.2372
480 1 41.0283 8.37076 3.80564
481 1 25.4612 1.63781 51.3707
482 1 29.7973 37.2248 22.7812
483 1 46.2925 19.3631 34.1668
484 1 5.85034 37.3647 7.12012
485 1 18.4763 45.4433 25.3435
486 1 47.3766 7.99451 42.5602
487 1 21.1373 12.7849 22.0905
488 1 5.94531 47.4401 25.1959
489 1 2.71202 44.4781 13.6931
490 1 24.3341 49.7338 26.396
491 1 13.3222 29.7132 47.2079
492 1 26.9405 24.4668 41.6822
493 1 44.1759 30.4014 34.1259
494 1 4.70659 54.4527 13.6578
495 1 11.6703 33.7851 13.0089
496 1 39.1313 17.6425 37.1737
497 1 7.34537 17.1942 31.9852
498 1 19.527 20.525 8.81594
499 1 33.984 30.0154 20.1251
500 1 51.6345 3.21747 35.9488
501 1 16.2128 51.0614 43.5037
502 1 50.8272 42.6484 6.85631
503 1 42.3306 21.1111 42.8052
504 1 40.0606 46.9419 32.103
505 1 38.4902 27.6433 4.09918
506 1 22.5271 27.2874 42.1014
507 1 53.4051 54.4993 32.1735
508 1 10.5953 42.9409 17.385
509 1 53.2916 29.1413 8.23409
510 1 30.6699 0.783904 3.78132
511 1 49.937 5.72225 6.00982
512 1 14.4947 50.4928 12.8162
513 1 33.4043 30.0499 29.2926
514 1 28.4068 27.9539 21.0142
515 1 29.2992 12.503 27.2378
516 1 5.24028 40.4537 37.231
517 1 15.5489 3.28088 0.178831
518 1 24.3388 12.1622 13.5692
519 1 8.05029 12.1868 45.0118
520 1 35.8411 17.6344 4.60373
521 1 46.0021 24.8826 32.4046
522 1 7.47377 17.0954 0.826553
523 1 38.7806 1.75865 25.8504
524 1 39.5578 51.772 32.1407
525 1 25.8846 41.744 22.3986
526 1 26.5138 16.077 30.5817
527 1 29.3477 54.6101 23.4114
528 1 2.23277 6.71358 6.36903
529 1 40.3171 8.101 33.6071
530 1 37.8477 16.5412 18.6903
531 1 39.2302 7.92869 48.4962
532 1 35.4068 9.98362 11.9251
533 1 43.0559 6.28648 20.4398
534 1 19.6824 35.7951 20.3603
535 1 43.0603 2.5902 38.0723
536 1 39.1429 22.2953 15.6376
537 1 19.1032 22.2486 20.9188
538 1 6.77707 27.298 2.68553
539 1 28.7809 37.7209 33.2469
540 1 48.2414 12.0118 16.4923
541 1 42.5484 6.12896 7.90608
542 1 32.6786 47.8351 35.9294
543 1 38.0438 44.8536 34.9591
544 1 31.8293 34.7948 15.1222
545 1 52.2024 24.6996 5.7894
546 1 23.9674 50.3799 40.6147
547 2 15.5284 40.8146 26.6729
548 2 12.7537 46.7499 1.46599
549 2 34.8241 47.7188 25.6015
550 2 55.569 51.5839 12.8843
551 2 52.5189 7.05287 16.8991
552 2 10.1228 6.99283 35.5946
553 2 37.5162 10.1223 16.9942
554 2 23.4115 5.73639 53.1021
555 2 14.7964 13.0128 21.5642
556 2 12.5544 41.5918 42.9566
557 2 13.9154 5.72114 34.1099
558 2 17.3559 33.0712 3.45203
559 2 40.0045 16.922 21.1641
560 2 5.41027 16.3832 29.4106
561 2 38.3626 12.6069 50.8876
562 2 4.0026 19.8217 28.5965
563 2 30.0228 46.9718 34.8632
564 2 16.8469 5.08913 40.0773
565 2 20.2946 22.086 34.9227
566 2 31.2133 13.6067 38.986
567 2 44.5891 38.4247 0.633634
568 2 43.5644 18.2768 20.1908
569 1 14.9329 1.35706 19.5005
570 1 52.3144 36.5767 49.3641
571 1 20.2596 14.3503 5.98428
572 1 46.4305 14.9381 53.3965
573 1 15.4729 15.6445 25.8955
574 1 30.3003 46.2504 17.057
575 1 30.1458 49.655 42.111
576 1 13.7282 -0.134893 11.3244
577 1 2.0229 6.53259 15.5457
578 1 55.3652 39.9615 44.517
579 1 34.2098 44.9523 48.1159
580 1 21.0912 31.9296 6.36465
581 1 37.8302 10.322 29.3215
582 1 12.1198 41.4009 37.8651
583 1 45.5724 25.4621 18.0918
584 1 29.1391 40.6371 29.2942
585 1 33.2769 8.32339 23.1519
586 1 55.5364 0.273433 31.2565
587 1 10.8626 1.70631 7.32328
588 1 9.10441 44.045 46.6871
589 1 34.483 47.3926 49.6038
590 1 55.84 7.33479 6.85811
591 1 13.1596 9.52711 31.2738
592 1 52.7531 33.0509 6.56135
593 1 18.8214 25.0187 33.6366
594 1 2.97706 42.282 41.8141
595 1 34.1926 12.0936 43.7528
596 1 3.6009 4.96685 39.0867
597 1 28.8332 51.5985 7.60744
598 1 48.5066 47.2974 25.2885
599 1 5.17891 3.66934 13.6224
600 1 11.5755 32.3915 4.44377
601 1 22.098 42.1461 54.2292
602 1 2.916 42.505 15.6529
603 1 26.7372 35.3245 52.0151
604 1 5.62108 21.9798 29.9613
605 1 28.1369 43.439 27.5853
606 1 27.5843 46.7496 30.4417
607 1 38.8988 14.0267 33.8213
608 1 37.3182 4.94686 49.3367
609 1 34.2134 30.4441 12.7523
610 1 43.5943 5.52606 44.6961
611 1 20.8338 44.7839 30.8722
612 1 17.9605 46.6845 45.5867
613 1 3.25821 51.5102 1.17351
614 1 53.79 33.3466 10.8072
615 1 5.8276 42.8055 41.6094
616 1 38.616 3.73943 54.3416
617 1 16.2012 11.8062 51.8661
618 1 5.38885 55.5154 53.7181
619 1 36.8928 11.3281 26.9863
620 1 28.3106 27.0064 25.4234
621 1 53.0512 8.7358 27.2973
622 1 3.7987 29.6653 43.9352
623 1 15.1427 44.3271 11.9885
624 1 27.7241 9.45137 55.2573
625 1 10.0433 14.922 25.3575
626 1 39.2447 27.5021 22.6153
627 1 33.2302 38.0114 1.47842
628 1 31.6751 10.2781 17.3612
629 1 41.6179 46.6386 11.2284
630 1 39.4534 55.5887 22.5946
631 1 43.7618 28.782 13.8688
632 1 4.73002 32.3593 26.8812
633 1 16.0418 6.40112 49.4562
634 1 47.9074 45.762 17.7981
635 1 29.659 45.0563 23.4178
636 1 6.06774 6.91903 17.2442
637 1 0.813548 15.0724 39.8916
638 1 32.8339 47.3234 55.6037
639 1 28.6746 5.41719 4.80477
640 1 22.0226 53.4583 6.30187
641 1 55.6667 47.6018 35.7486
642 1 53.5158 18.4618 10.3498
643 1 41.3257 27.8067 24.7265
644 1 20.0818 42.5615 46.0305
645 1 0.625348 19.6619 40.8358
646 1 13.0959 31.1585 12.5011
647 1 3.28243 29.5169 8.73838
648 1 19.2757 17.0343 5.37506
649 1 20.6811 20.3442 19.7158
650 1 15.0943 3.9585 3.06789
651 1 30.4869 33.1923 33.3473
652 1 50.8731 13.4125 39.9154
653 1 51.8923 30.712 51.2857
654 1 29.3595 34.0844 -0.0902758
655 1 41.1076 4.25116 30.1426
656 1 36.5243 52.1571 40.2365
657 1 -0.148846 34.514 20.9433
658 1 24.8852 8.33135 54.884
659 1 38.6625 40.1954 50.3596
660 1 1.6167 43.8933 6.77514
661 1 45.9984 36.4432 12.7613
662 1 15.6101 41.5462 44.2421
663 1 20.1684 35.8369 37.4383
664 1 53.0629 16.9599 27.8674
665 1 34.0988 43.0039 22.8798
666 1 15.4074 9.31932 26.2925
667 1 35.5276 16.7878 28.039
668 1 47.5398 12.3157 44.2467
669 1 51.0056 22.8795 15.7086
670 1 47.0204 3.18139 11.3091
671 1 32.4433 4.7027 25.261
672 1 1.68818 18.5428 9.19832
673 1 11.5205 4.27711 35.844
674 1 46.005 51.4183 7.79359
675 1 23.6586 7.72488 32.9556
676 1 53.8042 16.967 24.1828
677 1 55.5606 36.0534 54.1466
678 1 15.7933 55.5486 17.5806
679 1 52.8081 12.4637 22.1716
680 1 28.5909 32.4477 45.8699
681 1 0.337206 25.9962 48.7844
682 1 7.19677 3.35704 44.8234
683 1 43.2266 13.0075 21.074
684 1 38.3156 32.3674 37.3347
685 1 22.7937 54.9554 15.0003
686 1 44.505 14.9044 11.3101
687 1 47.1317 55.1469 28.2641
688 1 20.438 7.16564 33.5429
689 2 21.8013 49.5711 24.1572
690 2 29.9565 50.2535 10.1537
691 2 34.4655 27.0309 38.8873
692 2 8.33959 42.3879 49.2984
693 2 44.7591 48.1179 22.6397
694 2 3.00033 51.3905 54.3018
695 2 17.579 15.1207 45.2662
696 2 16.261 40.7969 8.2528
697 2 1.61582 18.3004 36.246
698 2 17.0848 18.7596 7.02236
699 2 44.8021 11.5547 40.0638
700 2 38.3082 5.00905 3.67949
701 2 53.5024 27.6437 5.5387
702 2 36.087 28.6619 27.0926
703 2 48.7238 45.8132 44.2821
704 2 54.288 12.838 17.7868
705 2 2.58134 36.7626 7.52929
706 2 2.13656 40.4916 44.4703
707 2 47.6546 17.0696 18.9108
708 2 43.3189 54.2807 0.798655
709 2 44.268 30.2637 42.3058
710 2 52.8587 48.384 30.8883
711 1 37.0035 2.14778 46.3716
712 1 17.6689 25.3509 48.9628
713 1 1.27115 49.2083 44.217
714 1 37.4955 30.3939 24.9412
715 1 0.938443 11.0389 44.7266
716 1 2.8612 15.9619 51.0759
717 1 47.2008 0.937325 3.54531
718 1 4.61554 41.7673 55.9199
719 1 41.6615 16.856 52.3456
720 1 19.0732 16.2421 13.4082
721 1 31.1267 6.67329 5.23716
722 1 31.811 37.7218 55.2829
723 1 19.2264 14.9061 15.7974
724 1 48.205 37.347 53.6025
725 1 13.0948 45.7003 34.8379
726 1 29.8122 41.3848 41.9363
727 1 32.3491 55.2215 18.5563
728 1 27.9947 0.692 55.5388
729 1 41.2857 1.85428 52.3059
730 1 5.22225 7.0851 37.5517
731 1 53.9552 10.824 20.1926
732 1 12.757 1.19746 14.9647
733 1 36.0484 52.8601 55.2791
734 1 37.096 43.7141 18.0511
735 1 39.9355 9.59491 1.45249
736 1 51.6868 18.9252 50.5624
737 1 31.1746 41.7211 27.5352
738 1 0.463253 11.8172 6.903
739 1 21.6473 17.0542 3.11945
740 1 40.2741 35.4004 49.3919
741 1 53.9963 9.41672 32.7899
742 1 18.6638 40.6403 6.25456
743 1 44.6218 29.3178 26.8039
744 1 33.364 55.4522 40.4336
745 1 45.04 12.5546 12.9897
746 1 20.3626 17.8629 21.112
747 1 0.743804 2.89887 36.3493
748 1 46.2712 54.9599 2.50475
749 1 17.0977 12.9874 42.7771
750 1 23.4999 18.8133 2.17413
751 1 19.1177 32.7828 33.7845
752 1 15.1513 48.2505 38.8843
753 1 20.1521 9.80695 43.6603
754 1 36.4412 53.8627 27.0307
755 1 29.0768 18.1648 18.0603
756 1 31.7017 49.1877 53.7985
757 1 7.23531 19.6487 29.8743
758 1 54.7684 27.2446 20.2414
759 1 45.0828 7.21363 18.5018
760 1 19.1222 32.34 54.6266
761 1 48.4432 15.3249 46.7417
762 1 30.7096 52.5616 12.282
763 1 24.4862 17.9606 8.95717
764 1 18.3917 13.2029 21.3277
765 1 42.3774 19.9668 40.1266
766 1 19.5615 35.3296 2.88145
767 1 4.63329 51.699 28.5665
768 1 25.9093 22.1548 35.4328
769 1 18.1161 48.5246 54.5522
770 1 18.9524 3.55248 4.62943
771 1 11.8279 38.7436 43.8811
772 1 29.5224 13.1649 52.7405
773 1 10.4928 16.5648 45.6523
774 1 33.5753 2.61615 27.0352
775 1 46.31 41.6834 30.1342
776 1 25.0779 55.7595 22.4598
777 1 45.7902 47.6412 25.6039
778 1 21.9003 33.6256 47.7516
779 1 41.036 26.9553 44.5451
780 1 31.242 47.2826 40.8543
781 1 20.3922 38.2109 25.0423
782 1 4.61743 19.1468 15.6252
783 1 50.2564 0.844657 37.0886
784 1 44.3675 27.9282 24.1896
785 1 27.3732 25.9617 48.3317
786 1 15.4484 7.53161 42.0687
787 1 5.2047 31.2091 54.1336
788 1 2.50593 10.5197 36.9891
789 1 15.4146 46.3742 28.3934
790 1 51.4419 29.5674 43.6581
791 1 36.3423 18.4511 24.7416
792 1 26.074 55.3106 19.6728
793 1 2.7405 50.4109 22.3447
794 1 30.154 25.5643 27.7557
795 1 55.7503 21.3647 36.8097
796 1 44.4535 12.4349 4.03817
797 1 18.9405 11.2642 13.9192
798 1 42.6544 29.1468 54.1899
799 1 16.3098 35.7787 12.5887
800 1 17.0713 30.5355 54.9376
801 1 48.8021 48.4173 10.8867
802 1 20.8191 15.1221 36.9727
803 1 40.0763 45.0781 39.9452
804 1 51.8575 36.7687 9.53985
805 1 38.7963 44.6854 32.0332
806 1 13.3412 15.3477 37.2345
807 1 55.6095 16.1559 34.7047
808 1 49.0635 8.15402 38.3501
809 1 10.376 12.3817 1.50452
810 1 8.11549 40.7941 32.0903
811 1 33.5063 21.8778 48.0718
812 1 53.316 16.0886 44.7606
813 1 0.791628 11.3713 2.61944
814 1 45.7847 4.95364 20.0421
815 1 4.76371 9.10104 41.7111
816 1 49.6852 4.8978 35.1076
817 1 44.4167 43.5127 29.3257
818 1 54.7705 48.5831 55.2368
819 1 18.1408 37.0708 43.1495
820 1 53.243 28.3021 38.3344
821 1 32.1859 29.6039 38.8021
822 1 1.07417 3.94876 28.9393
823 1 53.7892 46.4876 37.8981
824 1 54.5145 0.179219 28.3441
825 1 17.5868 54.1387 29.7631
826 1 16.7118 50.2307 4.09065
827 1 19.84 33.8714 22.502
828 1 35.3832 23.2235 26.07
829 1 49.5639 55.8392 29.5516
830 1 51.2348 43.3565 4.13435
831 2 7.28359 40.265 39.9887
832 2 23.9349 14.4548 3.23749
833 2 20.0902 43.241 23.4978
834 2 43.2383 27.0447 46.9377
835 2 25.1335 -0.061338 27.7072
836 2 23.7552 14.4266 32.3664
837 2 15.5958 27.0457 17.4783
838 2 23.0139 42.3301 47.5073
839 2 28.7354 35.2963 31.4847
840 2 19.7005 16.2234 53.4033
841 2 15.8863 27.4004 26.4484
842 2 47.1608 9.47951 45.8548
843 2 42.3735 1.41619 29.7851
844 2 31.2732 15.4231 18.6162
845 2 8.68252 51.829 16.2092
846 2 41.4037 41.1572 48.6891
847 2 48.534 54.9302 10.38
848 2 47.6567 44.2147 25.9091
849 2 23.3786 17.2771 35.06
850 2 22.7025 32.3071 44.2602
851 2 48.0223 -0.0616081 53.9405
852 2 46.4587 38.6084 20.4023
853 1 36.0069 46.5138 9.38663
854 1 30.1884 42.1739 46.989
855 1 47.6575 26.726 15.0555
856 1 10.4545 23.8435 34.5466
857 1 55.0674 17.3004 40.4842
858 1 14.0639 50.1788 48.8874
859 1 35.1222 24.9026 40.8159
860 1 9.39174 37.7593 4.10903
861 1 51.8923 36.5589 29.1117
862 1 54.3698 30.7937 5.59504
863 1 33.3842 11.414 10.3962
864 1 47.4791 26.4833 49.7219
865 1 14.734 26.3646 14.3985
866 1 12.0105 33.9242 0.208363
867 1 50.6884 22.0364 37.0038
868 1 49.2623 1.73456 34.6399
869 1 53.714 26.417 52.5243
870 1 33.4791 24.7641 20.871
871 1 10.2658 27.9334 15.0784
872 1 53.2761 38.0043 40.4727
873 1 12.8119 39.4046 31.9173
874 1 54.0917 46.0508 1.32835
875 1 41.3981 29.5092 48.1593
876 1 0.137419 16.824 31.1846
877 1 0.0747656 27.5946 22.7196
878 1 4.35822 35.7576 20.1595
879 1 10.8208 14.3809 30.9036
880 1 51.6246 11.4912 1.97144
881 1 31.9084 13.4612 47.8689
882 1 44.9295 22.5187 52.4486
883 1 26.2999 14.0463 13.8292
884 1 51.4536 54.4186 36.4587
885 1 29.9431 23.1122 1.27057
886 1 39.2086 47.9122 2.0688
887 1 7.12732 15.6816 19.7213
888 1 3.0457 30.1342 46.7815
889 1 46.4059 7.69812 33.9596
890 1 54.9072 3.01576 6.42657
891 1 53.0601 20.706 37.7289
892 1 37.5855 54.5732 20.639
893 1 14.4252 51.214 34.0544
894 1 9.07026 41.1698 9.81031
895 1 3.75663 49.256 40.4698
896 1 2.52706 40.6667 17.6635
897 1 28.1738 53.2905 10.3973
898 1 41.2003 35.2011 42.6628
899 1 16.8117 19.1494 32.3311
900 1 9.2557 27.8656 1.98118
901 1 34.1258 37.2337 41.9878
902 1 25.4974 45.9539 26.0058
903 1 3.70309 26.5332 8.9488
904 1 35.7412 35.7379 11.5781
905 1 28.2467 30.3687 22.0199
906 1 17.5502 36.0777 7.35725
907 1 34.851 50.436 14.0784
908 1 1.57301 6.42792 34.8006
909 1 40.3671 3.16686 42.6523
910 1 52.498 38.0534 7.14033
911 1 12.8784 8.62793 25.2116
912 1 16.8085 18.5872 36.9114
913 1 3.94124 45.1733 6.15438
914 1 53.028 51.7286 30.9402
915 1 18.6791 21.1903 39.1515
916 1 28.4399 26.2868 40.3313
917 1 35.0682 55.8505 4.41924
918 1 50.266 34.8789 14.3743
919 1 48.6128 40.805 38.6887
920 1 12.0317 38.4584 38.5713
921 1 31.8607 54.9596 11.1309
922 1 17.644 41.7443 31.802
923 1 50.143 5.60347 38.3131
924 1 0.611647 11.5958 16.6896
925 1 45.0131 55.7061 4.8649
926 1 27.7461 49.7812 51.6793
927 1 52.7427 49.3132 43.4844
928 1 42.2208 12.1543 12.7652
929 1 50.0614 33.2093 7.06568
930 1 38.6512 0.800603 19.8156
931 1 17.1188 25.2808 31.4512
932 1 12.6915 48.4496 52.5137
933 1 30.672 7.29634 43.9027
934 1 24.577 51.1939 54.7969
935 1 5.33404 39.0125 55.1398
936 1 7.39763 32.7556 11.9664
937 1 33.8805 0.854009 42.7904
938 1 36.3228 5.99615 40.4199
939 1 5.43063 29.4923 15.9622
940 1 7.29144 38.9972 53.0214
941 1 36.5186 6.59035 35.4453
942 1 15.0905 46.4715 45.4551
943 1 33.5715 36.6452 34.2887
944 1 9.0577 41.3354 15.9647
945 1 44.8441 21.0025 44.6039
946 1 9.57419 42.4642 44.287
947 1 41.3811 30.8437 40.9205
948 1 15.5148 55.6421 43.9288
949 1 49.5957 49.9133 15.695
950 1 39.3035 27.5003 50.559
951 1 14.9394 43.0227 53.8009
952 1 44.1528 0.917388 48.4336
953 1 25.8982 22.5079 51.3533
954 1 11.0958 45.6328 40.523
955 1 13.099 21.9251 15.4149
956 1 12.0766 20.3399 8.40321
957 1 47.0939 43.818 51.0265
958 1 8.56253 25.2621 35.979
959 1 31.3107 49.9649 35.3176
960 1 53.7761 14.0785 12.5881
961 1 36.8708 41.198 42.4539
962 1 55.0776 6.4124 18.9726
963 1 7.68067 29.9573 47.2171
964 1 25.4358 14.7872 44.302
965 1 15.3545 30.5842 35.7434
966 1 24.9676 42.5066 31.3604
967 1 10.8349 9.19932 11.3543
968 1 42.5859 9.68636 53.636
969 1 32.0047 37.0199 50.278
970 1 30.9724 17.2574 15.8653
971 1 45.1424 6.04104 42.2199
972 1 52.4665 8.4219 51.6302
973 2 45.3716 4.23084 25.4779
974 2 46.0867 39.4671 35.0108
975 2 53.3759 39.0218 27.5638
976 2 17.45 30.3199 49.8076
977 2 52.8064 36.1148 16.041
978 2 52.2963 36.0285 19.7568
979 2 33.0516 42.1573 40.7404
980 2 55.0333 6.40658 44.8743
981 2 36.4587 11.8277 9.77656
982 2 54.4251 29.6376 49.1451
983 2 12.2378 31.1295 1.35427
984 2 46.0788 22.7058 34.3118
985 2 52.0058 2.31455 13.3305
986 2 7.44397 18.5377 38.0369
987 2 20.4038 6.46955 5.29296
988 2 2.64355 26.7322 51.7508
989 2 39.9158 28.0091 32.3639
990 2 54.3561 9.89004 15.0755
991 2 23.0429 21.2128 17.8559
992 2 16.1002 15.7402 54.874
993 2 1.61927 15.5986 55.9532
994 2 53.4645 22.938 35.2965
995 1 54.3392 3.31558 43.5953
996 1 51.3149 25.3478 47.0493
997 1 24.6123 2.0915 48.1889
998 1 3.48742 49.3345 27.1339
999 1 25.1124 51.1041 52.2614
1000 1 19.546 8.85083 47.9079
1001 1 30.6454 30.5068 36.618
1002 1 52.5629 26.3959 8.30368
1003 1 14.0518 28.971 30.632