ITEM: TIMESTEP
0
ITEM: NUMBER OF ATOMS
9088
ITEM: BOX BOUNDS pp pp pp
-5.1155376275837194e-01 5.6396046388746242e+01
-5.1155376275837194e-01 5.6396046388746242e+01
-5.1155376275837194e-01 5.6396046388746242e+01
ITEM: ATOMS id type x y z
1 1 45.6233 33.9082 0.523344
2 1 54.3306 23.1201 44.7876
3 1 11.7473 11.0103 18.0689
4 1 17.3646 46.7431 30.6542
5 1 36.787 15.3422 48.0833
6 1 14.8859 4.19696 38.0956
7 1 54.4802 1.73196 27.9585
8 1 27.0619 50.9241 28.4298
9 1 14.1735 42.6655 14.5998
10 1 46.6365 32.1813 28.4504
11 1 5.41693 52.9126 15.8757
12 1 29.0552 6.45841 56.2244
13 1 26.5518 28.5798 49.3174
14 1 23.6217 51.6141 41.4029
15 1 52.6267 29.5272 47.4941
16 1 13.0051 47.8263 5.25398
17 1 14.5422 1.69909 7.46572
18 1 6.26454 29.5216 14.2504
19 1 42.3815 20.9627 10.3161
20 1 21.1395 48.4622 24.6567
21 1 39.5418 53.4934 54.6308
22 1 15.572 22.2889 28.1653
23 1 37.658 31.633 19.3145
24 1 38.7224 17.6237 48.9905
25 1 22.6961 39.7303 17.6572
26 1 14.0709 23.5568 41.4554
27 1 51.2589 17.6776 26.0388
28 1 46.6157 1.36332 43.6652
29 1 32.1385 5.31665 43.9574
30 1 29.7164 40.1518 6.09736
31 1 54.9246 26.1049 34.1081
32 1 49.1804 12.9971 9.67919
33 1 53.879 13.6979 34.5766
34 1 39.692 15.8243 50.884
35 1 28.2558 50.8432 44.3644
36 1 51.0637 26.9953 4.93653
37 1 25.2814 55.8737 55.7715
38 1 0.655292 -0.0496248 12.6227
39 1 20.1549 30.5199 46.9755
40 1 44.3682 6.40197 5.90814
41 1 39.0539 2.85547 29.4477
42 1 50.0809 46.1091 27.9039
43 1 44.5725 4.39654 48.3167
44 1 37.8425 46.6593 29.961
45 1 36.1244 16.4812 39.1454
46 1 44.2013 -0.483994 25.9433
47 1 8.29283 45.1732 47.6735
48 1 47.0684 55.6195 16.3552
49 1 7.76904 3.91152 56.3529
50 1 54.6715 1.46483 12.8029
51 1 12.725 28.7669 8.6438
52 1 35.5176 24.8193 51.6121
53 1 12.8745 48.6203 30.6255
54 1 53.7485 1.59705 51.5864
55 1 26.3366 41.9198 16.0458
56 1 16.0481 24.736 52.4075
57 1 37.5103 18.0692 21.5261
58 1 23.3667 35.9087 33.9196
59 1 50.1442 7.91637 49.6743
60 1 53.8992 20.3823 32.2928
61 1 29.7797 37.7088 7.32671
62 1 0.189076 4.33289 52.6262
63 1 46.2929 23.3234 12.3793
64 1 28.2321 45.3832 43.7333
65 1 24.7464 27.7553 15.054
66 1 23.6944 50.2309 35.5793
67 1 31.8435 18.3369 28.7366
68 1 48.0202 19.8742 39.8571
69 1 25.1059 40.4699 2.98776
70 1 17.6608 54.2144 51.9278
71 1 4.22603 9.0524 25.215
72 1 11.1781 30.7591 16.1695
73 1 8.6004 39.0654 1.63545
74 1 25.8609 45.5051 21.703
75 1 29.5335 50.8759 9.83042
76 1 21.4999 9.82555 15.2664
77 1 42.3875 15.6623 40.1017
78 1 30.3689 41.0011 36.2016
79 1 10.9089 17.2966 20.482
80 1 10.4063 1.64909 30.6137
81 1 0.0442455 30.0271 15.5203
82 1 48.523 16.9527 31.0331
83 1 44.5031 46.3635 9.02569
84 1 15.4951 26.405 47.1751
85 1 32.3445 9.44863 2.98995
86 1 51.1559 50.9887 24.8634
87 1 54.4211 25.8384 43.7594
88 1 46.9685 45.5397 8.89789
89 1 5.62933 10.6461 6.98629
90 1 13.243 5.19521 47.224
91 1 31.1044 35.0493 1.87508
92 1 35.0262 41.1737 32.8992
93 1 46.2228 23.739 7.94286
94 1 34.4112 25.0358 7.75655
95 1 28.2826 1.79138 31.3268
96 1 51.8768 22.4002 45.4703
97 1 1.21242 51.1896 16.0564
98 1 44.0461 5.59372 10.4586
99 1 28.8777 31.2368 27.2635
100 1 2.87715 30.5328 41.9429
101 1 6.10874 32.4563 18.5947
102 1 28.6937 47.7289 6.47182
103 1 24.0887 26.2197 31.8104
104 1 37.0735 41.3489 24.5729
105 1 6.92625 6.21005 34.332
106 1 47.0229 49.6775 35.3847
107 1 0.17355 28.4797 0.899246
108 1 55.2005 16.6671 22.9166
109 1 42.8759 45.6142 22.852
110 1 12.8859 13.9973 22.2005
111 1 0.448324 10.9599 32.235
112 1 0.151719 11.7865 46.906
113 1 9.42602 56.3004 15.9184
114 1 36.4424 -0.0587079 40.1333
115 1 54.9665 31.1004 48.7397
116 1 33.8741 19.976 25.3381
117 1 4.66854 11.7154 51.9036
118 1 30.3234 41.1453 19.3769
119 1 19.8788 55.5099 20.0686
120 1 41.2724 31.409 35.8243
121 2 23.828 39.18 25.146
122 2 34.3687 31.2173 11.6668
123 2 18.617 1.70565 54.796
124 2 51.2649 -0.453089 6.55461
125 2 9.61299 10.0642 29.7649
126 2 10.71 52.5745 24.6862
127 2 6.15634 48.4935 3.61468
128 2 15.2249 40.061 21.2419
129 2 19.1211 55.6352 23.2754
130 2 41.4632 37.0311 12.5062
131 2 37.1127 4.65005 50.6016
132 2 0.60325 6.46031 43.7735
133 2 5.96568 19.3345 16.4517
134 2 44.8344 30.4445 46.9002
135 2 42.8366 28.0824 6.82432
136 2 46.8465 6.28638 8.14948
137 2 27.3419 28.6136 54.6381
138 2 40.0733 12.0607 51.136
139 2 12.3632 19.1549 26.1293
140 2 3.89781 54.5356 41.3794
141 2 4.18334 34.7374 44.4111
142 2 18.0873 47.9056 25.827
143 1 42.76 2.27704 0.92076
144 1 18.7734 23.9733 53.6895
145 1 6.42796 29.4595 38.6451
146 1 41.3099 34.4719 17.0003
147 1 42.1924 42.6818 13.8852
148 1 26.8583 52.337 25.9696
149 1 12.3015 28.9709 11.6174
150 1 55.7992 36.8208 12.6826
151 1 41.7078 14.6907 13.6356
152 1 7.71859 38.1199 45.4241
153 1 51.4765 9.35621 0.510327
154 1 51.8696 7.2978 35.9458
155 1 29.8764 22.1073 45.6455
156 1 32.6566 43.0285 36.1278
157 1 40.0785 11.5213 47.561
158 1 0.673842 33.782 6.6611
159 1 13.3231 45.1579 5.40597
160 1 28.5201 16.3894 45.5928
161 1 36.585 47.8859 3.01359
162 1 50.891 26.6432 27.0672
163 1 51.1659 -0.0746079 25.6952
164 1 10.4161 52.3852 17.8202
165 1 2.47233 19.3195 45.2843
166 1 55.6145 8.10804 8.20069
167 1 51.7716 53.409 7.10379
168 1 55.929 10.0432 29.8698
169 1 52.668 25.943 9.08159
170 1 27.2736 15.1242 53.3229
171 1 46.5276 43.7277 20.7012
172 1 53.591 22.5025 27.236
173 1 28.2419 20.041 11.3849
174 1 47.4038 17.5867 36.0617
175 1 30.0821 29.761 41.34
176 1 39.7552 44.3345 30.5158
177 1 39.2914 51.8292 20.2126
178 1 47.0594 35.2033 46.2214
179 1 5.42249 7.61521 32.4732
180 1 23.7896 2.71524 41.7064
181 1 53.3269 11.0708 34.2994
182 1 32.8605 33.0303 34.9286
183 1 0.568694 32.9193 31.3805
184 1 34.5189 50.3653 56.1965
185 1 30.7833 51.3996 5.20435
186 1 13.0813 19.2228 20.3791
187 1 16.4873 49.7434 23.5564
188 1 52.1483 16.0415 36.1105
189 1 9.27942 15.7949 36.3749
190 1 49.9667 24.1497 18.3972
191 1 49.9457 24.8801 47.9135
192 1 17.12 28.0608 23.6745
193 1 35.5004 43.4769 13.4385
194 1 27.3188 14.3509 15.5983
195 1 30.7131 10.8234 11.0531
196 1 51.9982 15.83 51.3228
197 1 38.3844 44.0648 5.32752
198 1 46.5179 13.1056 32.4592
199 1 35.5739 30.4514 32.1631
200 1 6.9806 30.43 43.4971
201 1 54.0653 31.8823 10.4056
202 1 11.0946 30.3134 46.525
203 1 43.7262 56.103 44.5284
204 1 10.5208 43.9293 32.4306
205 1 23.9171 5.29415 17.2002
206 1 55.6454 39.2858 22.4485
207 1 47.013 35.6146 2.50582
208 1 47.4059 54.0093 34.6892
209 1 46.8245 20.5869 7.18467
210 1 28.3775 12.1333 17.504
211 1 9.14328 55.8767 30.1443
212 1 6.54121 22.3158 17.4449
213 1 44.3876 13.0736 27.7378
214 1 47.2301 42.4056 11.1241
215 1 16.4762 36.791 27.8894
216 1 8.63246 54.2662 52.1734
217 1 30.6375 47.4655 4.43376
218 1 17.3471 18.9446 9.84732
219 1 54.3693 29.0375 11.5534
220 1 44.3157 49.3323 9.02084
221 1 3.19243 5.73689 31.0446
222 1 2.86751 39.8787 5.16623
223 1 40.2903 42.6547 26.1424
224 1 39.6359 21.5363 35.6865
225 1 25.6792 41.2201 42.3023
226 1 51.1173 8.08386 40.6072
227 1 39.6024 13.8981 23.2642
228 1 23.1792 39.8342 12.6454
229 1 6.98643 4.43018 6.93836
230 1 23.4224 20.504 3.91601
231 1 37.2006 36.9028 53.309
232 1 5.28723 18.319 5.17054
233 1 22.0707 55.3694 32.2695
234 1 18.3395 13.1407 33.7047
235 1 33.1226 24.6677 14.2252
236 1 45.9257 6.49253 30.7377
237 1 37.763 33.2413 1.14209
238 1 27.9118 44.6583 19.7656
239 1 10.2797 14.0705 15.5247
240 1 52.4624 20.1204 13.9717
241 1 17.9244 20.3255 28.6199
242 1 8.64673 51.8355 22.4299
243 1 39.7477 3.23071 4.6904
244 1 10.0887 45.7892 19.504
245 1 22.6143 43.0197 56.1889
246 1 22.2386 12.8839 49.9134
247 1 41.4596 11.1018 1.12797
248 1 27.421 35.5778 39.0682
249 1 32.3147 38.5467 51.2964
250 1 2.40239 23.4013 35.2667
251 1 4.27578 45.3473 56.0181
252 1 55.2738 30.7624 53.74
253 1 18.0423 33.7781 35.7035
254 1 6.33092 45.5935 8.53268
255 1 11.0564 8.33371 18.1882
256 1 3.2238 0.923824 8.47717
257 1 31.6881 2.61928 43.9999
258 1 53.2513 39.6199 43.7712
259 1 48.8548 12.268 17.4621
260 1 13.5836 6.57662 18.2055
261 1 11.4547 21.5584 35.6126
262 1 10.3268 22.0649 4.10529
263 2 22.4031 50.5595 12.198
264 2 15.1326 23.3525 46.7309
265 2 37.7141 6.87625 41.7343
266 2 7.77948 39.0375 51.7832
267 2 47.6066 38.4748 16.973
268 2 51.3151 15.6289 47.9694
269 2 51.9104 16.7779 21.6147
270 2 20.552 12.41 13.5152
271 2 52.432 22.7649 16.5994
272 2 47.2427 46.2783 19.1224
273 2 42.8034 31.1801 10.6522
274 2 32.1664 50.7663 14.415
275 2 5.55606 39.2653 3.054
276 2 32.2028 7.89586 51.7107
277 2 29.1758 55.6809 41.2016
278 2 24.6433 48.2558 54.8694
279 2 35.0737 12.9849 46.2608
280 2 50.6842 37.1035 42.1247
281 2 53.0895 47.5807 52.1079
282 2 6.61018 3.6325 26.2742
283 2 19.5234 7.90839 13.6305
284 2 41.0837 35.5217 26.4791
285 1 41.995 4.14492 52.2439
286 1 16.7156 48.4784 37.6786
287 1 30.2655 49.248 26.3942
288 1 41.8951 55.2902 18.7078
289 1 12.6973 15.3202 15.1281
290 1 41.7451 27.3536 40.2505
291 1 27.7385 11.3067 34.5529
292 1 48.7381 7.37229 51.9663
293 1 24.1594 54.6603 21.2564
294 1 39.6974 29.7066 19.1522
295 1 24.6102 45.5293 12.2608
296 1 47.9514 51.3345 31.21
297 1 6.25995 42.863 43.8235
298 1 47.0167 24.3254 53.1241
299 1 28.0119 31.9549 24.4993
300 1 20.857 52.0337 0.971582
301 1 23.9074 30.3999 19.3006
302 1 12.0475 31.9284 25.3235
303 1 50.2588 2.29494 7.60889
304 1 38.3123 42.6451 28.7816
305 1 16.0226 10.4676 42.2052
306 1 12.2331 11.4487 11.5997
307 1 10.6531 4.66716 30.1858
308 1 34.8139 33.3081 46.3993
309 1 17.9531 54.0156 3.91003
310 1 11.7887 52.2965 15.4562
311 1 22.8088 30.9351 45.8217
312 1 1.01669 45.5082 42.4266
313 1 0.733493 35.3812 53.6881
314 1 31.9399 19.9077 5.73095
315 1 18.3598 21.5837 1.55119
316 1 23.7754 53.1725 46.5963
317 1 17.4535 18.7741 34.7467
318 1 42.7424 30.4581 29.3756
319 1 45.1535 31.3591 1.77824
320 1 23.2407 37.867 1.35497
321 1 24.4525 33.4693 49.3444
322 1 29.1064 23.9236 7.09781
323 1 27.5782 7.97503 39.2292
324 1 17.2693 23.1213 18.1831
325 1 8.78093 33.1286 6.77798
326 1 1.06052 46.4658 22.5906
327 1 10.9971 27.7341 38.6312
328 1 33.3797 17.7191 21.0748
329 1 32.3759 20.315 9.32916
330 1 37.4953 24.5316 49.8392
331 1 24.0759 1.4027 54.9453
332 1 18.5365 55.811 54.0293
333 1 32.0795 19.7318 35.8141
334 1 31.7628 1.5834 21.1605
335 1 21.5038 48.265 17.2366
336 1 32.5731 44.6554 28.1051
337 1 22.1827 29.2316 53.5548
338 1 52.3591 27.1391 -0.380509
339 1 26.592 39.8167 55.1365
340 1 43.1434 47.0655 25.4205
341 1 9.56031 40.0029 46.5295
342 1 6.31419 27.5894 42.969
343 1 50.7616 10.7445 34.178
344 1 28.3225 27.1783 10.8589
345 1 14.4899 32.4509 13.8004
346 1 6.64781 50.3513 51.1988
347 1 42.3302 43.8417 20.605
348 1 7.31663 32.1475 23.1402
349 1 30.422 40.5822 1.78828
350 1 13.1218 52.5339 0.221855
351 1 31.7753 6.88685 41.7472
352 1 11.8299 28.5236 29.5707
353 1 33.427 40.3955 30.7027
354 1 50.6447 38.0536 48.5123
355 1 40.2364 8.0982 30.3242
356 1 21.4017 49.0359 36.259
357 1 38.7985 35.6316 5.6707
358 1 0.528282 41.1783 3.81002
359 1 12.6603 26.5747 24.3976
360 1 37.6391 15.5743 4.31265
361 1 39.0523 48.1469 27.5993
362 1 44.4745 13.8645 25.0578
363 1 13.3736 14.2113 44.6471
364 1 33.8309 0.822522 56.3687
365 1 -0.421655 17.7037 40.0695
366 1 37.1211 47.9121 51.9148
367 1 20.3605 43.2076 5.20376
368 1 1.86162 35.1724 56.1623
369 1 6.82373 24.8345 38.6359
370 1 28.377 39.9874 13.6826
371 1 21.1672 4.9101 13.1963
372 1 3.15591 31.6288 45.9854
373 1 44.2905 54.8746 17.2393
374 1 29.9083 41.9176 52.3886
375 1 13.6099 23.6958 10.7943
376 1 19.9201 21.3626 23.232
377 1 40.2592 11.7504 44.784
378 1 9.93338 5.67975 43.5704
379 1 43.9952 54.6339 1.16942
380 1 20.5283 10.7849 0.961718
381 1 32.2971 0.889355 15.0388
382 1 0.900485 33.4483 35.9072
383 1 8.10831 20.5288 19.0034
384 1 -0.155505 11.7745 19.5759
385 1 21.3783 6.9811 50.1404
386 1 10.3056 7.53673 13.7842
387 1 49.5492 14.5151 4.62807
388 1 -0.463427 54.2726 21.364
389 1 39.4938 11.172 35.6438
390 1 21.8198 12.4309 -0.484277
391 1 46.5738 20.7894 21.319
392 1 9.67195 9.43804 2.32617
393 1 54.2571 41.4703 33.9727
394 1 54.938 34.161 11.7528
395 1 7.77161 34.0733 50.3479
396 1 36.8491 35.2918 41.3255
397 1 45.8814 28.2698 8.17297
398 1 41.1865 7.01721 7.30406
399 1 12.5329 24.3764 47.2128
400 1 19.1037 25.7318 40.1232
401 1 38.6097 28.6276 50.3992
402 1 15.9842 51.4972 32.3605
403 1 12.4136 33.7124 43.671
404 1 53.9213 38.3405 49.0658
405 2 23.029 46.3965 45.1001
406 2 12.0386 38.1601 31.9843
407 2 15.625 47.0837 6.33933
408 2 49.9364 26.0522 10.8524
409 2 12.2912 50.7042 44.4949
410 2 12.9704 22.9867 20.9031
411 2 1.31126 29.3523 27.514
412 2 25.1002 33.4741 28.068
413 2 47.0236 50.3359 3.45974
414 2 23.2392 29.9275 13.3299
415 2 35.0016 47.7125 54.9952
416 2 49.6064 54.0196 43.2885
417 2 35.9919 30.1165 37.4398
418 2 6.62321 9.49781 40.9528
419 2 34.0923 24.064 42.4176
420 2 11.8267 55.2621 1.31077
421 2 17.3488 30.1569 28.7473
422 2 22.6191 41.8917 41.5669
423 2 32.22 14.1269 54.0389
424 2 26.1614 9.29726 41.8681
425 2 28.5944 52.6903 47.2992
426 2 23.6718 47.4651 4.5861
427 1 55.5753 47.942 46.5011
428 1 51.1279 21.3459 27.6051
429 1 28.8778 14.2236 30.236
430 1 43.9622 7.59766 48.0663
431 1 2.72517 32.6406 22.7228
432 1 29.6619 21.6243 24.7418
433 1 13.2665 20.6043 0.250485
434 1 47.7702 1.91456 20.2766
435 1 22.2336 31.8454 48.1452
436 1 51.0061 32.2754 26.2523
437 1 10.0974 47.9335 16.3327
438 1 38.1953 29.2671 4.1548
439 1 37.0408 1.15383 20.6893
440 1 13.0327 44.8901 42.3099
441 1 25.3115 9.04762 37.6372
442 1 7.64769 46.4685 30.0126
443 1 49.9348 22.0112 4.38372
444 1 34.7477 17.2654 0.625569
445 1 6.6286 23.5521 44.8177
446 1 40.2867 44.0166 47.7272
447 1 49.5642 46.1778 48.3492
448 1 31.0049 36.0501 52.5168
449 1 8.92281 31.9481 38.9797
450 1 53.8852 13.8857 48.4998
451 1 7.92881 8.90334 37.6789
452 1 18.1362 56.383 9.62019
453 1 44.6616 34.4813 50.8493
454 1 6.20101 14.6955 24.6032
455 1 5.03361 55.3142 0.0929528
456 1 0.308725 48.6782 20.7648
457 1 48.8487 38.2613 40.1679
458 1 19.304 1.96174 45.1026
459 1 52.4925 3.7896 8.06269
460 1 48.5817 12.0371 20.2854
461 1 25.467 47.8469 31.6762
462 1 43.113 33.0527 1.07271
463 1 10.9434 23.2198 32.2123
464 1 2.97068 0.273884 0.563914
465 1 8.4721 15.7789 38.9259
466 1 18.3351 27.2217 28.4781
467 1 47.9895 34.0269 18.5654
468 1 51.2804 50.3522 51.3026
469 1 36.8831 22.3273 19.5609
470 1 18.8816 1.05651 37.829
471 1 48.225 14.8108 2.25778
472 1 1.83064 28.0224 30.6664
473 1 54.5142 34.1243 23.2148
474 1 11.883 40.6324 21.1689
475 1 32.3511 18.3701 52.8391
476 1 53.1139 38.7721 27.104
477 1 28.8511 15.366 27.1192
478 1 33.0586 50.1913 45.7553
479 1 51.3677 18.516 51.4552
480 1 2.16711 6.5362 28.4541
481 1 37.729 36.6196 49.0131
482 1 22.7779 22.1455 23.9898
483 1 44.0884 14.456 0.136763
484 1 17.6282 1.98922 51.6585
485 1 45.5178 13.1979 2.59331
486 1 39.3818 26.3873 49.7585
487 1 29.9406 45.0594 3.24114
488 1 53.8136 -0.25489 32.4526
489 1 37.0462 54.7738 6.81836
490 1 16.6596 18.1199 2.43817
491 1 24.722 1.49166 29.1497
492 1 18.2313 4.455 53.1298
493 1 55.2864 26.0795 19.5898
494 1 0.656555 49.9435 54.7903
495 1 39.0367 36.544 37.436
496 1 50.495 31.9981 36.1548
497 1 30.7228 34.0562 30.6097
498 1 43.8173 22.7922 13.454
499 1 49.842 46.4969 42.1867
500 1 2.69967 52.923 6.00472
501 1 18.5994 10.5652 34.3423
502 1 3.18925 42.2912 50.5621
503 1 39.1521 52.5125 0.494764
504 1 47.3979 51.8567 13.917
505 1 49.9798 54.2452 9.39799
506 1 14.8037 1.89282 33.5303
507 1 43.0061 8.13354 16.3498
508 1 10.4841 25.7665 26.1653
509 1 30.8628 31.9088 15.7336
510 1 4.0289 42.1117 34.9655
511 1 21.1394 50.428 22.7148
512 1 31.4234 50.0472 35.5116
513 1 36.4585 14.0859 15.0848
514 1 14.5366 0.0228904 21.4033
515 1 15.8115 33.1758 32.5853
516 1 37.0963 37.261 39.3082
517 1 39.4003 56.034 51.4572
518 1 27.009 9.75201 24.7448
519 1 3.37584 9.41952 36.2862
520 1 29.6362 23.5785 47.9897
521 1 53.588 1.83938 6.38853
522 1 33.5355 -0.0873808 1.86821
523 1 48.3809 55.2412 37.7961
524 1 19.443 42.4158 13.9767
525 1 8.22661 36.5295 3.43313
526 1 18.9959 52.1331 5.823
527 1 27.206 41.585 5.0956
528 1 17.492 42.0723 28.2191
529 1 30.6186 46.0732 51.2426
530 1 17.9589 4.54975 40.9114
531 1 9.28014 11.3392 37.1257
532 1 35.8008 28.7373 23.4358
533 1 36.8245 45.9497 25.7351
534 1 12.1586 7.84044 22.5113
535 1 4.00104 30.8645 14.1249
536 1 19.3272 53.1845 29.0222
537 1 1.35397 38.2227 0.0015934
538 1 17.6504 24.4248 42.453
539 1 3.84032 28.0061 25.9163
540 1 53.1054 37.5309 7.98488
541 1 25.6342 18.2996 44.8015
542 1 21.4146 27.1839 41.4813
543 1 23.0318 2.26295 36.2673
544 1 28.7045 38.1669 32.8579
545 1 10.1151 5.69001 17.7833
546 1 31.8703 27.7463 35.4472
547 2 15.9623 37.7928 4.01513
548 2 20.8946 39.6515 20.8677
549 2 10.9766 40.3761 5.46316
550 2 21.6055 53.0574 4.35227
551 2 38.3504 18.492 5.27604
552 2 33.3892 7.72668 8.41498
553 2 1.23186 23.3878 23.4782
554 2 39.276 55.6663 8.93137
555 2 17.1074 49.6364 55.2901
556 2 24.3235 25.1833 41.842
557 2 13.8537 27.2748 19.4469
558 2 14.7651 6.6336 36.2707
559 2 12.2797 35.0524 18.0409
560 2 50.7343 32.0328 41.6861
561 2 47.3736 47.8979 40.9582
562 2 15.131 47.3359 20.2772
563 2 11.7075 48.4857 53.5786
564 2 27.9425 55.5475 12.9185
565 2 20.1808 45.6305 23.5715
566 2 44.1272 50.8974 21.5241
567 2 53.6863 49.359 31.25
568 2 31.2152 30.9243 51.0247
569 1 56.1103 22.8871 56.0434
570 1 51.6476 8.49399 21.187
571 1 11.6501 55.2599 45.2617
572 1 55.4319 28.6911 36.0788
573 1 14.9144 32.6238 24.8661
574 1 39.0816 23.5112 7.14541
575 1 28.8556 9.49114 17.7936
576 1 53.711 43.7179 25.6757
577 1 49.6309 37.8743 23.0853
578 1 46.1194 19.6172 9.7422
579 1 17.3626 35.9513 7.23132
580 1 46.8508 12.3375 48.7687
581 1 7.35772 14.5843 41.0695
582 1 19.7674 26.1423 46.5939
583 1 43.2356 31.1207 49.5508
584 1 41.8191 7.16122 10.2168
585 1 42.6426 49.1546 52.831
586 1 38.6802 9.31263 28.4879
587 1 4.08807 29.2515 32.1825
588 1 0.239243 40.2436 25.9214
589 1 14.8043 47.2603 23.1276
590 1 22.8731 56.3476 36.7829
591 1 4.37646 52.4627 56.3702
592 1 47.9944 24.9586 21.0897
593 1 52.5434 27.271 36.048
594 1 5.31231 15.8641 1.45853
595 1 2.3162 27.2006 11.5238
596 1 9.6755 42.1931 8.08739
597 1 22.1479 6.79926 15.5091
598 1 15.4833 11.9033 26.7666
599 1 3.88724 49.5173 31.5111
600 1 30.3594 4.80855 3.47942
601 1 38.8286 3.7397 27.0696
602 1 4.29458 15.9443 53.8233
603 1 52.9807 14.1475 56.0039
604 1 2.80879 26.821 32.56
605 1 5.0151 26.1994 11.7981
606 1 42.4184 51.0047 16.8359
607 1 23.4416 31.9412 16.1455
608 1 16.0334 20.3661 53.0813
609 1 32.4304 6.83503 0.726719
610 1 42.3389 25.6574 9.65091
611 1 -0.0743023 28.4427 54.3659
612 1 40.8192 23.633 55.0673
613 1 49.7708 45.8017 4.53986
614 1 26.0158 14.756 47.5591
615 1 21.1078 2.28761 11.3924
616 1 19.1709 29.7951 5.93835
617 1 30.3567 47.2768 44.2963
618 1 33.5376 44.1396 8.39898
619 1 34.6818 4.98604 9.27521
620 1 20.6394 11.9324 29.7418
621 1 16.2311 18.5971 12.2668
622 1 5.02459 23.7858 47.3888
623 1 18.3176 25.7256 25.8159
624 1 54.8149 1.37537 48.4472
625 1 4.56613 14.2802 50.7152
626 1 45.3838 52.3745 4.91058
627 1 4.79589 19.435 43.9691
628 1 7.93152 19.8492 32.593
629 1 12.7068 -0.0843168 23.543
630 1 36.852 48.8433 12.3146
631 1 -0.503406 3.44497 44.3921
632 1 22.1178 36.3298 8.0394
633 1 33.4463 8.07558 45.4696
634 1 55.321 31.149 21.3896
635 1 25.4049 22.0414 35.6831
636 1 37.3417 30.6363 12.527
637 1 3.58318 28.1033 40.9596
638 1 40.2309 52.9779 18.0291
639 1 25.5407 47.8171 26.1461
640 1 5.34607 29.8488 41.2354
641 1 47.2806 34.6729 27.0735
642 1 13.3174 7.19167 50.9577
643 1 51.5997 45.6047 32.3074
644 1 17.796 13.5948 11.979
645 1 52.1919 16.7298 28.4459
646 1 26.4737 4.86547 35.4295
647 1 25.3844 45.3806 32.4616
648 1 5.83046 41.9001 1.34366
649 1 36.6859 4.33636 22.4126
650 1 26.8712 43.0883 43.8513
651 1 0.438655 38.6865 32.5307
652 1 0.0772544 32.9562 22.159
653 1 37.349 26.997 15.7727
654 1 31.7898 24.9329 40.7515
655 1 51.5478 2.32782 44.5249
656 1 51.0349 54.7469 54.3598
657 1 22.4513 -0.326292 11.8845
658 1 44.2717 41.3336 33.2858
659 1 0.563455 49.9185 40.4029
660 1 34.2041 49.9614 36.0111
661 1 28.7422 17.3637 23.372
662 1 35.042 18.0178 17.4826
663 1 21.4181 0.0949933 14.6292
664 1 1.75157 3.74196 25.939
665 1 29.7284 26.4158 55.3986
666 1 44.2486 28.4076 50.0538
667 1 37.3234 25.5439 8.37724
668 1 37.671 34.786 55.9644
669 1 6.93066 27.4931 12.5728
670 1 24.1565 15.0166 26.3074
671 1 19.2577 19.7968 44.9723
672 1 54.0039 37.6022 5.47657
673 1 7.00863 29.0538 10.0389
674 1 7.14045 25.5599 47.0029
675 1 7.69711 0.908414 12.4185
676 1 4.58126 31.1889 16.624
677 1 3.27121 36.2855 25.54
678 1 7.81167 13.1794 38.242
679 1 41.2044 36.3186 45.2569
680 1 40.5754 4.19801 32.1808
681 1 50.8815 25.2578 50.157
682 1 52.9651 1.39293 53.9823
683 1 3.43354 30.3097 38.7468
684 1 3.71085 47.0861 11.9012
685 1 50.5517 35.3592 2.14432
686 1 35.717 48.526 7.34849
687 1 29.911 53.1534 39.2497
688 1 26.7408 5.5273 27.5178
689 2 52.7273 0.186429 14.8044
690 2 25.4509 53.7096 5.21565
691 2 36.2983 52.2352 35.0492
692 2 45.1174 30.0018 32.9063
693 2 0.91818 16.7869 2.39102
694 2 39.6106 22.4183 17.6123
695 2 27.2632 15.2605 24.4944
696 2 34.5316 44.83 16.2436
697 2 40.1393 38.2474 6.64274
698 2 17.1586 54.1511 33.7804
699 2 38.3688 17.1535 53.6051
700 2 55.558 17.8715 10.6332
701 2 16.229 30.7034 1.06145
702 2 50.5456 56.307 33.6788
703 2 18.7077 54.631 14.9751
704 2 45.6381 3.42963 29.5931
705 2 54.7454 54.4085 33.9927
706 2 23.6763 45.4952 24.5955
707 2 53.0945 50.0352 45.9597
708 2 7.31378 11.9562 9.50071
709 2 16.5327 8.65145 17.3131
710 2 32.4601 52.8768 55.4594
711 1 22.8422 9.22058 39.7813
712 1 0.00397035 20.7158 9.69807
713 1 10.1376 2.01732 20.4041
714 1 33.6464 19.6473 42.7255
715 1 12.6859 10.9737 22.7927
716 1 13.4751 51.52 33.4527
717 1 11.9419 14.1621 33.067
718 1 -0.502287 21.5316 33.038
719 1 38.1443 6.32562 28.715
720 1 48.7435 8.5283 7.51616
721 1 52.5396 27.0139 51.1562
722 1 36.9668 42.2852 39.5503
723 1 53.1503 31.3337 37.6334
724 1 52.5296 28.3428 28.8295
725 1 30.4116 37.5985 47.1128
726 1 14.7156 16.7026 16.5646
727 1 30.721 30.2486 21.5364
728 1 35.2837 24.4724 10.1786
729 1 34.4198 49.8646 2.89576
730 1 23.3716 35.3123 1.69623
731 1 16.8142 6.15611 12.4099
732 1 10.6506 2.82028 35.6072
733 1 8.36995 40.6206 35.2491
734 1 15.1797 48.5785 44.8248
735 1 10.2463 18.566 30.9009
736 1 30.9159 21.836 7.85273
737 1 26.6873 30.5891 34.7233
738 1 20.1188 27.0274 1.4961
739 1 40.3014 8.24081 0.983117
740 1 50.8454 11.2433 3.25823
741 1 23.8869 52.9605 49.3286
742 1 36.7482 9.20022 40.3217
743 1 21.0032 22.3007 50.6977
744 1 4.00362 43.1772 37.4774
745 1 50.521 45.2277 18.4231
746 1 39.7855 16.3639 18.1379
747 1 30.6035 11.956 8.74776
748 1 6.88063 36.6041 32.4903
749 1 31.5501 30.5568 35.1635
750 1 55.0826 49.0812 1.96262
751 1 32.9941 23.537 16.8464
752 1 46.6799 12.0332 4.97758
753 1 49.6424 19.871 35.2035
754 1 39.5544 19.6293 30.012
755 1 49.3837 47.1697 55.8359
756 1 7.86151 5.83049 23.577
757 1 41.6697 50.5106 19.2948
758 1 47.0356 27.4223 11.0138
759 1 56.05 39.3025 -0.194847
760 1 25.9029 2.48562 24.2859
761 1 49.5995 22.4037 36.4132
762 1 37.6267 35.914 21.4119
763 1 42.183 26.8017 17.0756
764 1 1.73382 36.5374 31.6203
765 1 25.7737 31.4904 8.29012
766 1 48.7619 51.5663 26.6946
767 1 17.1309 -0.333221 49.597
768 1 27.5505 26.001 8.73177
769 1 50.8116 3.15084 41.4556
770 1 25.6008 3.51796 56.2328
771 1 31.7181 42.3899 7.25514
772 1 8.12806 37.7547 18.9874
773 1 40.2774 50.9961 49.3489
774 1 -0.360335 15.036 10.6478
775 1 32.4381 42.3004 0.206287
776 1 41.105 13.2326 35.0252
777 1 0.605601 17.6978 56.163
778 1 52.0357 28.208 22.4042
779 1 8.9027 53.7357 1.88181
780 1 20.8769 4.75367 29.0551
781 1 41.3835 15.5321 44.8971
782 1 3.94185 9.91235 49.7121
783 1 40.4797 32.4087 25.8404
784 1 14.6926 49.8951 6.18865
785 1 11.6225 11.5199 41.1469
786 1 27.5638 49.4286 30.7331
787 1 21.6273 33.4553 50.0959
788 1 51.509 44.7404 35.4651
789 1 17.6868 48.8209 32.2682
790 1 7.44991 13.0266 46.1657
791 1 39.5632 33.5718 52.0525
792 1 50.9266 1.75537 20.0981
793 1 17.2791 27.5348 43.7943
794 1 37.3205 10.1709 11.9497
795 1 55.2697 36.8077 22.5575
796 1 50.0716 13.6148 7.36365
797 1 21.3198 16.5028 27.6965
798 1 42.7854 50.6804 13.6446
799 1 33.0308 48.764 26.16
800 1 47.2168 47.3443 4.20912
801 1 33.0511 23.2964 51.5402
802 1 8.20794 6.1281 26.2897
803 1 19.434 47.5864 56.2691
804 1 33.1615 55.8066 54.1978
805 1 8.07909 45.1851 32.1126
806 1 52.9069 0.79486 8.73435
807 1 29.5832 10.6649 20.0981
808 1 13.2395 10.9633 45.9584
809 1 17.4238 8.61193 23.2036
810 1 6.71329 53.5929 40.1027
811 1 22.4044 3.77087 6.11355
812 1 48.9857 22.5638 7.47139
813 1 52.8676 17.7921 37.5439
814 1 46.3672 4.38474 32.7231
815 1 31.8443 5.53375 37.1919
816 1 19.2428 11.8829 55.2163
817 1 10.7757 39.8447 53.0176
818 1 27.8876 55.2809 54.7361
819 1 11.5935 43.4032 6.68114
820 1 49.6067 7.65318 13.1172
821 1 33.034 16.8957 55.013
822 1 49.0722 4.26767 48.1292
823 1 35.1319 40.1954 7.85767
824 1 7.73187 52.9723 50.3186
825 1 16.3549 29.8 44.988
826 1 33.6844 14.3574 14.1291
827 1 40.5579 2.07549 54.9991
828 1 37.4421 50.5973 50.0699
829 1 48.3683 7.58986 10.2584
830 1 2.94453 33.7225 49.892
831 2 20.4803 24.5043 7.21991
832 2 31.0113 27.2893 13.3776
833 2 20.9517 54.4969 55.9178
834 2 48.2436 22.0461 28.9413
835 2 27.4553 46.7146 3.42388
836 2 -0.36822 9.58481 5.62044
837 2 51.9619 32.6944 48.6728
838 2 6.01872 15.4408 29.5987
839 2 36.5783 52.4222 22.6663
840 2 15.3228 16.79 35.8386
841 2 10.1785 45.7553 42.0565
842 2 33.4677 34.3726 29.279
843 2 27.0408 7.52836 9.91407
844 2 5.45109 3.52575 4.47096
845 2 25.5607 17.3536 50.2261
846 2 53.8014 10.1276 27.6339
847 2 50.5995 27.1319 45.6682
848 2 0.0527708 41.0421 7.28859
849 2 9.97656 36.3146 6.22367
850 2 51.6404 5.11969 16.3372
851 2 37.1465 7.90369 3.57151
852 2 22.6087 35.3672 54.8499
853 1 48.0364 26.7315 1.12202
854 1 43.8615 5.87648 50.4635
855 1 28.5825 28.857 25.7615
856 1 25.9962 2.74108 26.9244
857 1 27.5836 33.5243 37.4702
858 1 10.7524 3.60109 47.9241
859 1 16.0488 33.336 49.053
860 1 14.9644 24.274 33.5799
861 1 15.303 2.09407 29.8367
862 1 50.1269 22.5282 43.2296
863 1 14.2058 35.9042 55.3177
864 1 21.3699 54.2602 12.8682
865 1 17.2626 19.5508 50.4979
866 1 49.7379 48.3724 3.54832
867 1 53.0849 48.8709 14.8908
868 1 23.5175 52.0383 2.00264
869 1 43.9584 30.1914 52.529
870 1 45.6386 44.178 55.6244
871 1 6.62349 22.7397 14.6502
872 1 27.5607 21.3605 29.9629
873 1 20.2102 39.0922 26.5168
874 1 36.5349 33.1869 12.0677
875 1 27.6161 52.4576 12.6306
876 1 27.6668 18.5586 18.3986
877 1 1.95242 18.8333 40.5663
878 1 50.8451 50.5345 44.0671
879 1 16.1726 22.905 54.2683
880 1 14.7645 2.97003 51.955
881 1 36.6352 41.7515 43.0004
882 1 52.8993 54.4775 12.3038
883 1 8.32212 14.8293 23.0733
884 1 52.0621 49.2108 39.3712
885 1 54.0271 45.895 31.6254
886 1 16.881 13.9209 36.1436
887 1 52.8278 12.2229 16.6559
888 1 21.542 35.8435 52.1652
889 1 30.3151 17.8902 5.51836
890 1 36.7114 37.1805 33.281
891 1 36.7191 48.2811 48.7714
892 1 20.3626 26.2836 16.239
893 1 36.1042 28.8558 11.4304
894 1 52.5696 17.5141 15.4004
895 1 28.4797 34.9706 22.303
896 1 2.42874 45.8213 5.9144
897 1 31.9698 4.57833 28.0807
898 1 33.4164 46.8619 29.0519
899 1 32.4796 16.4578 8.92502
900 1 48.5841 55.5877 50.3111
901 1 34.0938 23.9911 53.862
902 1 26.3763 31.1792 26.3825
903 1 -0.353417 20.0949 12.5326
904 1 28.2908 48.3001 45.704
905 1 50.3664 50.7504 1.51941
906 1 39.5792 39.6413 29.442
907 1 13.1194 21.6427 33.3336
908 1 10.5823 42.0187 25.4505
909 1 32.4968 2.09227 7.40366
910 1 12.5383 49.7609 35.4383
911 1 9.27578 36.1861 50.5128
912 1 -0.128514 22.94 13.3871
913 1 14.6801 17.539 30.602
914 1 2.89038 47.0672 40.0499
915 1 32.6398 45.8964 42.2602
916 1 29.7804 7.11987 32.4746
917 1 41.8601 6.77162 32.2546
918 1 2.34648 53.2746 44.041
919 1 48.7887 9.88335 11.6853
920 1 30.2762 6.99117 48.9919
921 1 3.48687 14.0956 0.582237
922 1 35.2136 8.53259 52.7239
923 1 3.27789 29.3895 18.7484
924 1 27.872 43.0799 22.1228
925 1 14.9687 38.8125 9.20966
926 1 41.8932 31.1275 23.3633
927 1 32.7449 49.0703 52.884
928 1 16.1082 1.78944 36.6174
929 1 49.1019 27.6916 13.8541
930 1 51.4393 26.789 53.797
931 1 50.4847 3.5306 1.52433
932 1 47.1208 19.8888 27.1917
933 1 36.2768 39.2039 0.258086
934 1 22.7683 38.4612 37.3453
935 1 51.5478 16.6659 18.2012
936 1 36.4282 18.2662 47.5397
937 1 23.597 54.3126 51.72
938 1 9.2465 41.6574 53.8648
939 1 39.2578 52.2905 24.9693
940 1 41.2727 15.1655 20.5004
941 1 0.958009 38.9559 37.2454
942 1 33.2855 34.9399 21.847
943 1 7.52503 30.5905 50.3502
944 1 50.5881 49.54 16.3662
945 1 37.6957 -0.0358065 31.3585
946 1 22.4023 49.9946 3.46535
947 1 12.8005 37.7029 16.933
948 1 11.8018 47.0175 14.2653
949 1 8.90743 16.9207 -0.46795
950 1 48.1318 44.8983 43.5166
951 1 29.9133 1.27158 39.4992
952 1 40.6062 40.713 8.12241
953 1 22.5902 53.3729 9.64237
954 1 33.9904 53.8763 33.6073
955 1 16.9484 44.1272 40.283
956 1 0.289936 35.5171 49.3087
957 1 11.3895 16.8458 48.4002
958 1 1.64882 45.8648 27.9709
959 1 22.5895 9.2121 2.98559
960 1 8.97481 15.2685 53.9429
961 1 55.0459 39.2949 36.1998
962 1 36.2818 29.8974 51.5417
963 1 14.8638 11.6833 29.651
964 1 31.6898 46.1097 18.1025
965 1 10.173 20.7974 51.0989
966 1 50.4298 47.1105 39.1629
967 1 37.8665 23.4379 22.4854
968 1 30.9599 55.9656 13.9238
969 1 51.8104 20.1349 53.2016
970 1 2.90508 47.0242 49.073
971 1 30.5281 34.4642 17.6951
972 1 27.4919 31.6636 16.4107
973 2 45.6819 9.36148 6.78784
974 2 52.9963 41.8494 36.8472
975 2 31.4291 21.5956 54.3945
976 2 11.4617 15.9508 1.4447
977 2 25.7312 28.3856 25.8053
978 2 15.0268 34.1581 29.4404
979 2 16.9285 28.6489 34.9552
980 2 49.5554 24.9485 15.534
981 2 42.3211 12.2593 8.85537
982 2 29.2828 16.9889 15.9575
983 2 6.79873 24.5248 41.8712
984 2 6.26566 14.5356 55.8647
985 2 5.08576 51.79 23.4721
986 2 46.3429 0.716152 51.7385
987 2 3.4392 39.4009 26.286
988 2 0.00823937 0.928945 19.9836
989 2 6.96253 12.0547 43.1794
990 2 10.5337 10.0853 20.6911
991 2 -0.49713 47.6259 56.2887
992 2 28.1912 31.9545 21.3526
993 2 16.0629 43.021 19.6518
994 2 14.8186 21.8983 13.4624
995 1 35.449 24.6939 48.0623
996 1 8.83458 53.1876 15.7515
997 1 28.8397 2.2206 42.7913
998 1 42.104 36.7358 9.28482
999 1 32.3396 21.6232 46.5807
1000 1 49.8724 41.0832 18.4327
1001 1 51.7015 50.8512 7.90291
1002 1 18.7501 32.9162 2.72172