ITEM: TIMESTEP
0
ITEM: NUMBER OF ATOMS
9088
ITEM: BOX BOUNDS pp pp pp
-2.7773453289371369e-01 5.6162227158774201e+01
-2.7773453289371369e-01 5.6162227158774201e+01
-2.7773453289371369e-01 5.6162227158774201e+01
ITEM: ATOMS id type x y z
1 1 28.606 41.3214 49.2525
2 1 44.4998 4.28192 36.4645
3 1 41.6775 8.20253 51.073
4 1 37.0137 49.2021 43.7525
5 1 11.215 34.4909 8.48502
6 1 38.7041 27.4003 25.3518
7 1 19.679 33.1138 1.10198
8 1 48.9561 1.93777 9.42155
9 1 55.5972 50.2703 39.8784
10 1 36.8358 13.2364 53.6155
11 1 48.4449 35.756 32.6799
12 1 35.4225 19.3488 36.6883
13 1 21.7521 48.5886 36.7485
14 1 19.6143 49.7667 50.3306
15 1 3.04524 36.7684 30.3816
16 1 29.171 0.253752 40.0607
17 1 50.0602 9.93712 28.2619
18 1 3.97687 50.0341 40.2026
19 1 30.1179 23.8433 51.9261
20 1 31.2521 2.77058 44.728
21 1 25.2613 49.1925 50.3309
22 1 9.57628 41.7073 1.829
23 1 21.9916 17.6366 37.856
24 1 3.14918 8.00084 55.3027
25 1 26.2533 27.1502 39.1235
26 1 19.9108 28.1749 43.5087
27 1 34.7748 29.2701 54.9208
28 1 13.2187 32.8293 14.8738
29 1 13.0655 52.7866 38.0525
30 1 47.7672 12.2295 44.4475
31 1 30.7042 5.00964 0.124286
32 1 34.2206 5.19809 23.2885
33 1 24.3721 41.6887 2.45023
34 1 14.4346 24.6897 1.73434
35 1 19.2049 51.3509 43.2109
36 1 20.5917 35.5865 15.7342
37 1 23.558 55.9511 47.1608
38 1 23.3804 18.5671 1.77509
39 1 12.9441 26.3642 -0.0802183
40 1 8.42844 11.3884 47.8529
41 1 46.9546 41.0644 1.14577
42 1 5.42531 38.9651 14.6779
43 1 21.8024 16.9701 9.57087
44 1 50.6353 51.8938 23.5905
45 1 12.9931 43.8649 55.9964
46 1 -0.184094 17.6538 10.7996
47 1 42.6627 6.19957 32.1811
48 1 18.5444 30.5332 19.9826
49 1 7.0324 19.781 29.9035
50 1 18.0904 19.7082 20.5363
51 1 50.1179 32.1703 30.5315
52 1 22.4518 10.5602 37.2755
53 1 52.6045 20.4833 0.987064
54 1 52.6774 18.2859 45.6528
55 1 39.5807 45.2244 29.4496
56 1 11.1911 25.5642 44.8773
57 1 6.94443 32.9811 34.8437
58 1 37.3447 11.231 21.7075
59 1 5.32295 30.3939 28.6276
60 1 36.2476 32.639 54.7955
61 1 11.6997 27.1455 54.2319
62 1 52.8907 22.2826 24.2086
63 1 49.5046 43.4463 29.255
64 1 22.5725 4.15726 16.0871
65 1 11.1978 42.436 47.815
66 1 7.86643 45.0327 9.97664
67 1 12.1969 43.2895 53.1073
68 1 11.236 33.8047 52.4678
69 1 37.2617 38.3199 46.0893
70 1 2.2915 28.2512 4.88476
71 1 52.0168 46.9848 27.7306
72 1 55.7221 29.3606 1.48196
73 1 31.7147 47.754 11.6897
74 1 5.80566 34.2196 44.8561
75 1 37.3927 19.5071 5.33453
76 1 38.606 23.6696 6.13464
77 1 47.3507 40.3642 32.3546
78 1 33.8408 40.5828 10.3014
79 1 31.8178 23.1454 43.0158
80 1 39.2525 0.170609 31.0338
81 1 17.257 28.0143 54.1192
82 1 50.3849 1.13532 24.0163
83 1 7.84315 14.896 27.9347
84 1 36.6234 1.75502 3.68869
85 1 39.5005 10.9802 38.411
86 1 34.5165 34.2352 34.6877
87 1 27.129 10.1582 33.6991
88 1 15.8621 11.6499 12.7713
89 1 7.35929 47.7572 39.258
90 1 0.996376 39.8843 51.2075
91 1 18.0558 7.78369 22.1465
92 1 10.046 11.8303 19.5506
93 1 38.4598 9.59985 11.4873
94 1 35.741 34.0413 28.9613
95 1 40.7452 24.4836 18.6822
96 1 7.33986 -0.151982 13.8471
97 1 3.06789 8.45184 32.8791
98 1 20.7194 12.4412 30.0877
99 1 42.3733 36.3727 5.48428
100 1 3.24488 5.86799 26.8837
101 1 0.18979 33.6492 47.2955
102 1 4.93162 1.29524 12.4118
103 1 41.7179 43.3411 56.0146
104 1 14.449 55.1538 39.272
105 1 30.7805 13.9303 10.7385
106 1 18.6151 48.3779 47.7458
107 1 32.2643 0.358958 45.1653
108 1 46.8015 17.1917 47.3644
109 1 10.0888 45.537 16.5243
110 1 31.4456 8.94765 10.6968
111 1 37.6933 0.242544 13.4179
112 1 5.88705 6.09455 12.7252
113 1 28.661 33.3263 11.3804
114 1 24.2443 16.939 39.5855
115 1 42.8805 34.6097 31.7561
116 1 31.973 6.0019 38.1917
117 1 -0.149633 12.5339 40.5631
118 1 4.69452 44.6687 34.578
119 1 36.3229 36.2071 33.8799
120 1 14.9139 1.8337 40.0926
121 2 11.9523 38.7528 35.5118
122 2 51.3423 18.5718 12.7527
123 2 55.4434 46.6223 20.9871
124 2 52.6413 29.7376 19.7785
125 2 53.9417 35.4589 38.5308
126 2 25.5115 7.39874 17.786
127 2 12.2218 51.5321 15.6187
128 2 7.70118 30.0201 35.3686
129 2 55.3163 17.8611 7.5964
130 2 1.30691 21.1061 45.7719
131 2 52.183 11.94 47.3254
132 2 39.3602 46.755 17.5955
133 2 35.0847 42.7313 15.5952
134 2 15.172 5.21197 9.04217
135 2 42.9104 33.9373 3.75553
136 2 9.86983 0.369323 31.9092
137 2 40.7652 23.9859 46.2707
138 2 5.32686 4.90375 49.1767
139 2 31.301 14.7116 14.1093
140 2 45.636 27.1215 39.0455
141 2 7.75625 38.2374 23.0268
142 2 29.8938 23.3574 40.3767
143 1 50.3977 19.3368 44.9725
144 1 29.2311 17.2498 13.6299
145 1 54.3724 12.2786 6.64102
146 1 52.4775 26.7225 15.4409
147 1 29.5776 28.064 32.8954
148 1 26.5455 8.68031 40.7911
149 1 46.6002 6.25123 44.8309
150 1 24.7436 25.343 9.45237
151 1 50.2291 24.4038 54.0565
152 1 10.0955 33.7841 45.3448
153 1 50.0116 48.5084 29.0554
154 1 43.0251 41.5584 30.8414
155 1 32.2178 18.4548 10.3032
156 1 7.74369 33.1728 9.43053
157 1 51.8056 34.054 21.94
158 1 37.6142 5.11189 0.00770395
159 1 54.9032 47.9008 13.8966
160 1 49.1796 2.45538 2.13703
161 1 10.5198 25.3117 21.3893
162 1 13.119 12.729 44.1982
163 1 19.9061 21.712 26.4838
164 1 55.9197 38.4361 11.7463
165 1 51.4784 35.4082 6.52581
166 1 45.4963 41.8059 14.6488
167 1 31.5682 39.7344 46.3991
168 1 41.5307 6.37211 49.2973
169 1 28.7279 48.4313 40.5214
170 1 39.5383 33.6849 47.1478
171 1 28.885 35.3252 24.9725
172 1 21.2858 43.9507 28.3861
173 1 14.0974 40.1334 10.3067
174 1 35.2331 1.68699 32.4818
175 1 18.7601 28.0545 16.5462
176 1 39.5815 36.9661 6.60075
177 1 9.84959 4.72144 24.6368
178 1 11.0577 8.06617 13.4787
179 1 26.8708 45.0223 48.1137
180 1 55.4522 27.1064 8.15666
181 1 48.4136 42.8718 31.8279
182 1 49.5622 30.4327 52.7328
183 1 13.5321 20.3245 3.87233
184 1 25.962 53.1105 12.0038
185 1 33.1915 10.0358 34.346
186 1 43.6033 26.3037 26.6489
187 1 1.58701 6.93612 53.4097
188 1 28.5483 39.5273 3.26255
189 1 13.2585 41.058 34.1304
190 1 35.5185 48.5584 21.7493
191 1 17.3472 20.9046 47.8135
192 1 52.6587 55.2571 7.04386
193 1 37.0922 8.42223 13.6619
194 1 36.1217 3.67738 30.9566
195 1 17.9172 25.5627 49.1182
196 1 34.704 5.31644 26.4086
197 1 7.3152 9.34918 49.3683
198 1 12.2405 17.5387 31.0039
199 1 31.5365 18.7111 3.28307
200 1 40.0478 20.4659 41.6212
201 1 26.4019 12.9591 16.1135
202 1 39.298 2.11238 2.5956
203 1 31.3816 27.8323 37.3263
204 1 41.0405 27.3733 19.3143
205 1 7.50078 12.5812 2.73339
206 1 39.4269 24.93 23.9468
207 1 0.172085 45.0582 45.7415
208 1 32.1027 5.20665 10.7429
209 1 47.6332 6.31134 47.2911
210 1 27.2517 21.7024 41.9367
211 1 8.44432 5.5353 21.9159
212 1 43.297 27.3037 43.4505
213 1 22.0515 12.2329 51.1274
214 1 0.977453 38.1643 2.3038
215 1 12.0109 30.3346 23.908
216 1 -0.25374 24.6248 51.0661
217 1 21.8793 9.0013 34.9535
218 1 1.28625 9.91874 54.2787
219 1 45.0665 54.3396 6.74419
220 1 45.0064 5.72861 42.2952
221 1 30.658 0.672272 17.2591
222 1 2.18749 7.29171 21.794
223 1 26.0801 44.2864 2.71444
224 1 38.614 51.199 11.7455
225 1 43.941 48.8407 38.4845
226 1 12.6219 42.0588 25.4818
227 1 20.3594 45.7584 33.2476
228 1 -0.271151 20.2664 53.0619
229 1 10.4885 27.1856 42.842
230 1 31.0492 29.9933 41.3093
231 1 31.8497 35.3414 25.2948
232 1 40.8782 17.1527 18.0266
233 1 51.0068 50.1603 38.1498
234 1 10.685 14.0695 51.0513
235 1 41.6616 18.375 42.3258
236 1 6.96553 47.5785 29.3739
237 1 52.8511 29.887 23.5872
238 1 36.1497 0.412902 1.38075
239 1 33.9764 28.7682 6.29151
240 1 9.17886 33.2225 51.0552
241 1 20.1742 49.131 10.7856
242 1 32.977 10.8933 2.56924
243 1 7.46911 23.9051 33.4283
244 1 55.9836 42.7895 7.59936
245 1 1.24288 27.4779 19.7897
246 1 55.5563 4.26628 3.95846
247 1 54.3839 49.0564 10.9741
248 1 44.3621 0.337601 45.6235
249 1 10.7005 45.0342 48.8239
250 1 23.5931 24.3626 18.2353
251 1 19.5355 35.4986 2.86526
252 1 47.8275 16.5159 38.7769
253 1 2.62601 27.1869 48.3409
254 1 11.6007 7.55133 32.938
255 1 54.9698 9.28819 18.2917
256 1 31.1484 47.6046 24.5565
257 1 1.43446 12.3388 34.9151
258 1 33.3179 18.581 27.5627
259 1 45.7453 46.0289 54.8652
260 1 25.1043 41.5664 33.9704
261 1 32.1824 10.7569 39.7925
262 1 41.4043 54.5037 15.91
263 2 44.0805 24.6078 29.308
264 2 25.5846 47.3509 1.58916
265 2 49.8426 7.01436 49.3704
266 2 7.03047 24.5171 38.6877
267 2 14.7531 21.3164 1.10668
268 2 4.54461 3.08926 24.7814
269 2 15.1711 2.3956 16.5724
270 2 44.2982 43.3855 53.6239
271 2 54.1751 44.7609 26.3301
272 2 33.1531 40.3931 13.7071
273 2 33.1467 6.16183 34.995
274 2 52.9419 26.9773 30.656
275 2 27.2188 7.05253 53.2012
276 2 56.0347 13.7446 4.16951
277 2 1.13261 43.2389 39.1614
278 2 11.8531 34.5542 18.5066
279 2 43.9818 51.5906 46.5141
280 2 19.7187 55.3531 21.9678
281 2 41.3187 16.9879 14.8295
282 2 14.5643 28.8065 8.37802
283 2 46.9224 47.8094 28.7882
284 2 16.6695 27.0608 35.0581
285 1 4.56906 35.4975 5.29679
286 1 49.8666 34.8532 20.3138
287 1 44.5661 1.73001 35.87
288 1 24.2034 15.2875 27.2987
289 1 21.0867 31.5089 6.03681
290 1 50.4216 12.9141 24.1897
291 1 17.9587 43.9523 34.4352
292 1 40.8846 5.49587 44.0709
293 1 54.6103 19.8441 55.4467
294 1 30.8058 32.809 41.775
295 1 47.0404 25.3292 29.7649
296 1 12.5948 32.2161 35.4564
297 1 48.2067 13.9958 33.9232
298 1 30.7681 22.117 12.8333
299 1 31.852 18.5972 17.9005
300 1 24.5998 31.8172 9.27173
301 1 24.8131 50.0968 23.1104
302 1 46.3163 33.7609 26.1454
303 1 53.9735 3.33547 1.51875
304 1 13.6835 34.7795 53.7678
305 1 25.2655 38.5446 23.1174
306 1 28.8584 52.2221 32.9688
307 1 5.05302 39.936 32.0476
308 1 39.8611 54.0409 44.9089
309 1 49.559 30.8474 28.2577
310 1 10.4756 53.3944 38.1598
311 1 37.8819 35.1985 5.37165
312 1 10.2661 7.67698 25.8411
313 1 4.95257 55.5069 17.984
314 1 28.9948 47.5791 53.1968
315 1 4.38794 6.29692 14.9163
316 1 43.8845 10.27 10.8443
317 1 30.4726 32.1041 38.8763
318 1 5.91375 23.1834 11.4125
319 1 2.8902 2.40856 18.3426
320 1 19.0008 33.6192 25.4801
321 1 26.1579 38.808 34.1068
322 1 55.3217 21.5975 22.9734
323 1 11.5282 10.4773 33.0881
324 1 18.3432 8.79957 32.3524
325 1 21.6683 45.9618 43.0033
326 1 16.9046 32.0835 41.0926
327 1 12.4294 8.71167 35.2285
328 1 0.368023 8.15252 36.8452
329 1 3.92597 25.9162 44.7453
330 1 7.82116 30.8332 29.9279
331 1 15.9966 39.2931 52.4855
332 1 0.601549 44.124 11.8203
333 1 16.1087 10.3209 10.1426
334 1 33.7607 34.9512 22.9459
335 1 35.7393 13.2796 51.059
336 1 49.8945 21.4586 13.2765
337 1 0.654135 34.6888 7.44139
338 1 9.62026 22.8828 22.5791
339 1 18.7991 20.836 45.3972
340 1 25.2178 23.341 26.1845
341 1 26.7339 51.1028 24.8904
342 1 56.0692 26.6706 17.5673
343 1 36.0758 13.9736 27.6078
344 1 33.2238 15.5893 11.692
345 1 49.2585 16.5725 3.94348
346 1 0.144349 6.62438 24.0396
347 1 19.8499 18.5077 11.2055
348 1 13.097 10.0704 22.5669
349 1 3.85779 37.0366 10.697
350 1 5.47044 55.8132 53.8702
351 1 45.0885 35.6452 5.58122
352 1 18.7275 8.40285 52.3499
353 1 24.5237 34.4849 54.0696
354 1 47.0085 37.4591 39.4916
355 1 48.7533 28.1411 38.888
356 1 9.88589 40.4317 43.2013
357 1 20.1202 50.5423 53.0953
358 1 21.6806 24.2071 37.0235
359 1 29.1706 45.0675 46.2399
360 1 16.6736 38.1238 45.4269
361 1 40.2005 22.1211 43.8403
362 1 -0.0762863 54.467 1.89018
363 1 44.424 18.2764 14.815
364 1 41.0783 0.566401 33.3079
365 1 38.7652 44.9418 12.5409
366 1 15.2271 34.8729 14.8193
367 1 52.2379 45.2734 39.7059
368 1 40.6056 44.8621 26.5557
369 1 33.4444 14.2896 16.3933
370 1 3.56593 41.0681 50.6655
371 1 19.4153 28.2372 48.9231
372 1 13.8962 22.2963 33.931
373 1 19.7043 55.9456 40.2352
374 1 47.1775 50.4314 2.54656
375 1 4.1971 52.7667 35.1591
376 1 42.9437 48.7541 24.8924
377 1 7.0804 26.1324 54.5654
378 1 28.8537 52.7716 21.252
379 1 51.5135 39.2893 20.6721
380 1 11.1082 13.1166 27.0551
381 1 26.237 50.3508 29.2
382 1 55.1901 22.5202 8.37833
383 1 13.0017 23.4062 22.9588
384 1 49.4888 16.3998 32.7019
385 1 29.8756 9.10314 19.7626
386 1 36.1107 38.7741 23.1783
387 1 20.4335 35.722 37.532
388 1 24.5633 6.74213 40.2797
389 1 26.6403 10.9431 14.3414
390 1 45.5397 48.92 31.8596
391 1 7.0558 8.96461 6.9513
392 1 48.5868 48.6862 37.3029
393 1 3.40043 27.9756 1.21615
394 1 3.1615 38.0451 46.626
395 1 55.0811 7.4578 47.942
396 1 14.6348 5.0167 23.5441
397 1 49.8164 26.2006 22.5728
398 1 20.4757 25.9236 3.22413
399 1 6.99457 54.6329 41.7911
400 1 35.7141 42.7304 27.3905
401 1 18.7301 30.8113 24.9049
402 1 31.8548 48.1848 43.5902
403 1 13.1672 42.6061 28.1899
404 1 26.7863 35.0529 45.8626
405 2 19.7441 8.18587 14.0507
406 2 35.8888 31.0955 7.76018
407 2 34.4259 12.9027 12.9734
408 2 24.7829 49.924 13.0528
409 2 46.9425 -0.0127079 16.6329
410 2 36.6012 49.0242 16.5868
411 2 5.63387 41.3245 16.7475
412 2 53.6806 9.05828 36.138
413 2 31.2729 21.5166 45.5983
414 2 12.5205 35.1373 47.7686
415 2 55.7863 51.8381 8.82492
416 2 52.2226 42.7154 55.1659
417 2 44.5655 4.90584 10.2245
418 2 7.12306 35.8624 11.2453
419 2 15.4892 54.2318 22.2822
420 2 23.9656 22.9351 23.138
421 2 41.2707 49.5895 9.75033
422 2 31.7752 15.9713 8.02514
423 2 8.14109 0.529879 43.2935
424 2 52.3037 10.3243 4.88471
425 2 48.1568 51.8531 38.7805
426 2 37.373 8.44477 38.3388
427 1 29.5933 29.9667 -0.250613
428 1 53.4089 50.9512 55.2453
429 1 55.726 27.6313 51.0685
430 1 51.9724 54.867 10.0748
431 1 20.1101 47.5446 26.1038
432 1 42.7985 8.24785 6.62835
433 1 40.0922 21.6765 14.5666
434 1 14.9511 19.567 51.932
435 1 23.3009 52.3051 8.49507
436 1 32.5909 31.8327 48.624
437 1 26.0312 24.684 33.6511
438 1 46.9133 2.93866 35.4461
439 1 1.36601 38.4519 53.8712
440 1 8.60396 22.77 25.812
441 1 22.5192 14.3571 10.9754
442 1 42.8166 18.7894 16.9281
443 1 42.0479 10.34 27.1169
444 1 51.8049 42.224 47.4048
445 1 5.11662 14.7561 17.8407
446 1 38.714 31.4949 40.1067
447 1 20.8824 52.0933 10.1674
448 1 36.1447 5.02482 43.2921
449 1 54.2731 6.80667 29.2141
450 1 49.0078 32.0407 3.41333
451 1 27.7541 49.3637 14.1633
452 1 52.6351 14.6153 20.1871
453 1 7.2451 19.9494 32.5834
454 1 5.24014 35.5429 52.1272
455 1 5.73908 23.1144 25.6602
456 1 46.3615 3.81792 51.4527
457 1 53.3958 39.5216 18.1951
458 1 27.4434 20.5324 36.6279
459 1 2.66606 34.6119 9.65598
460 1 26.9048 0.759642 36.0143
461 1 7.98182 16.6643 17.5668
462 1 48.5809 27.5645 9.17022
463 1 14.9895 2.81656 7.21747
464 1 31.5446 52.7131 22.8627
465 1 7.12803 46.7948 17.4563
466 1 5.03754 47.7399 5.39908
467 1 47.2885 11.2991 38.3008
468 1 45.2482 -0.123854 4.90812
469 1 12.9865 39.2806 23.3771
470 1 28.2937 -0.0521567 14.7625
471 1 26.6384 9.69187 3.35587
472 1 15.7047 34.0139 29.0413
473 1 48.5883 38.7351 46.9381
474 1 40.1116 12.5386 16.7145
475 1 22.895 25.0664 20.7482
476 1 12.3166 21.9489 40.3429
477 1 49.095 3.01971 37.4347
478 1 41.5863 7.14222 13.7894
479 1 55.5944 25.7391 35.2633
480 1 41.0786 8.12785 3.85432
481 1 25.3055 1.19254 51.0547
482 1 29.9561 37.3325 22.4653
483 1 46.3321 19.358 34.2612
484 1 5.88444 37.3733 7.17834
485 1 18.2275 45.2303 25.1659
486 1 47.1909 7.92626 42.7636
487 1 21.235 12.8806 22.1372
488 1 4.69917 48.5464 21.3515
489 1 2.66033 44.3301 13.573
490 1 24.4138 49.5475 25.9703
491 1 13.0716 29.8355 47.5512
492 1 26.9655 24.5743 41.8852
493 1 44.2387 30.4248 34.2912
494 1 4.3746 54.7156 13.6888
495 1 11.5613 33.9066 13.1482
496 1 39.0281 17.9382 37.4023
497 1 7.07506 17.206 32.348
498 1 19.049 20.6759 8.73963
499 1 33.7297 29.7474 19.8338
500 1 51.5692 3.22427 36.0996
501 1 16.2755 50.8312 43.3806
502 1 50.9512 43.0633 6.60645
503 1 42.4439 21.1724 42.912
504 1 40.27 47.0616 31.6225
505 1 38.5057 27.6426 3.88511
506 1 22.3405 27.3405 42.2465
507 1 53.5144 54.7061 32.4197
508 1 10.6694 42.9014 17.6123
509 1 53.4402 29.2979 7.94599
510 1 30.5198 0.467221 3.61277
511 1 49.6724 5.71376 6.0386
512 1 14.3698 50.5382 12.7476
513 1 28.5963 30.425 28.5831
514 1 28.5639 27.78 21.1792
515 1 29.2261 12.4821 27.6743
516 1 5.27244 40.6332 37.2188
517 1 15.4633 3.09308 0.0190959
518 1 24.2012 12.2982 13.7043
519 1 7.95606 11.7821 45.2257
520 1 35.8221 17.8552 4.62072
521 1 45.9665 24.8684 32.4196
522 1 7.38623 17.123 0.649227
523 1 38.45 1.38648 26.0053
524 1 39.9647 51.6238 32.3635
525 1 25.6265 41.5941 22.6221
526 1 26.4131 15.8563 30.2008
527 1 28.9774 54.5691 23.6543
528 1 2.40014 6.62269 6.42108
529 1 40.5231 7.91379 33.5483
530 1 36.4355 16.4196 16.3158
531 1 44.1711 10.0676 45.5367
532 1 35.2486 9.62979 11.7331
533 1 42.7674 6.21546 20.8384
534 1 19.5973 35.9322 20.6238
535 1 44.7684 55.5401 36.5801
536 1 38.399 23.7596 17.4309
537 1 19.2769 22.1577 21.1267
538 1 6.40732 27.544 2.66005
539 1 28.668 37.9444 33.0168
540 1 48.0007 12.4268 16.6904
541 1 42.6429 6.01451 7.67887
542 1 32.9359 47.9115 35.8915
543 1 37.7576 44.8514 35.1413
544 1 31.6489 34.8699 14.9779
545 1 51.978 24.9234 5.90155
546 1 23.8312 50.6259 40.7584
547 2 15.2243 40.5308 26.5285
548 2 12.874 46.9851 1.11961
549 2 34.8907 47.8913 25.7003
550 2 55.8109 51.5421 12.9707
551 2 52.378 7.37914 16.8942
552 2 9.63586 6.95243 35.4312
553 2 37.5506 10.0512 16.7422
554 2 23.222 5.66705 53.2521
555 2 14.6285 12.8125 21.7005
556 2 13.0004 41.5349 43.0377
557 2 13.6693 5.75429 34.204
558 2 17.2717 33.0971 3.44581
559 2 40.0421 17.0746 21.0031
560 2 5.10649 16.2095 29.6347
561 2 38.6906 12.7842 51.0566
562 2 3.89624 19.5347 28.6832
563 2 29.9471 46.9066 34.8078
564 2 16.9157 5.15391 40.0048
565 2 20.1549 22.3609 35.028
566 2 31.1621 13.6115 38.9794
567 2 44.7291 38.467 0.377019
568 2 43.425 18.2691 20.263
569 1 15.0536 1.14799 19.4209
570 1 52.2747 36.7352 49.3708
571 1 21.0912 14.2411 3.6798
572 1 46.5187 14.6642 53.4925
573 1 16.697 13.4956 28.0208
574 1 30.4479 46.1007 17.119
575 1 30.364 49.8853 42.2021
576 1 13.9412 0.0145157 11.4877
577 1 1.64086 6.45649 15.5059
578 1 55.4122 39.9136 44.4022
579 1 34.4122 45.2073 48.1212
580 1 17.1958 29.2623 7.00105
581 1 37.6946 10.2369 29.3056
582 1 11.9977 41.4274 37.9254
583 1 45.3236 25.5747 18.1728
584 1 28.9667 40.5782 28.8694
585 1 33.4446 7.94258 23.1299
586 1 55.5231 56.0004 31.0225
587 1 10.7026 1.64045 7.09987
588 1 9.04996 44.0898 46.6674
589 1 34.8334 47.3608 49.6314
590 1 1.72299 9.12852 7.74905
591 1 13.2136 9.35104 30.9621
592 1 52.9466 33.1381 6.25691
593 1 18.6282 24.9692 34.0431
594 1 2.75292 42.5295 41.8577
595 1 32.0679 13.3962 45.3487
596 1 3.63799 5.13081 39.3022
597 1 28.9688 51.471 7.65175
598 1 48.6194 47.2653 25.8766
599 1 4.98584 3.82153 13.6397
600 1 11.7116 32.4593 4.35636
601 1 21.8307 42.4672 54.2494
602 1 2.74646 42.3022 15.4907
603 1 26.5771 35.5492 52.2754
604 1 5.48719 21.8645 30.0801
605 1 26.1455 44.4074 33.6048
606 1 27.2915 47.1271 29.8262
607 1 39.0405 14.0462 33.8208
608 1 46.6418 17.8765 50.0216
609 1 33.9734 30.3494 12.8179
610 1 43.6172 5.43293 45.0463
611 1 20.9601 44.8841 30.8627
612 1 17.9129 46.8479 45.8248
613 1 3.29865 51.446 0.919476
614 1 53.6867 33.3064 10.7538
615 1 5.53249 42.8078 41.2062
616 1 34.9845 6.21012 45.5302
617 1 16.1789 12.1004 51.9139
618 1 55.4862 55.8024 53.9185
619 1 36.9155 11.1349 26.7693
620 1 30.2567 28.2326 26.8142
621 1 53.1652 8.55499 27.4354
622 1 3.75435 30.0257 43.8172
623 1 15.0027 44.4554 12.0908
624 1 27.9033 9.27455 55.1987
625 1 9.92391 14.9865 25.4328
626 1 35.7153 25.6377 21.6257
627 1 34.1082 36.5016 55.9181
628 1 31.588 10.0076 17.2191
629 1 41.8805 46.6307 10.8155
630 1 36.2687 1.36514 17.5795
631 1 43.5485 28.8202 13.7408
632 1 5.06563 32.4311 26.8338
633 1 15.6669 6.45883 49.4743
634 1 48.1708 46.1884 17.8613
635 1 31.7605 43.7836 21.7985
636 1 5.79917 6.77667 17.191
637 1 1.74098 17.67 39.3883
638 1 32.6868 47.5289 55.8285
639 1 28.702 4.93719 4.54587
640 1 22.0518 53.7722 6.10067
641 1 55.9938 47.6192 35.5563
642 1 53.6339 18.6238 10.4205
643 1 41.3029 28.0365 24.6757
644 1 20.4796 42.6341 46.0276
645 1 0.466646 19.3563 41.0435
646 1 12.9963 31.1577 12.5741
647 1 3.297 29.7313 9.11657
648 1 18.1475 15.5748 7.22522
649 1 20.684 20.2491 19.8705
650 1 14.9274 3.94222 3.11955
651 1 30.4155 33.1622 33.2691
652 1 49.0873 14.8308 40.8178
653 1 51.9247 30.6546 51.1061
654 1 29.5173 34.0387 56.1075
655 1 41.0359 4.49164 30.5442
656 1 36.7818 52.34 40.0353
657 1 56.1461 34.2907 20.627
658 1 24.7032 8.23322 54.8086
659 1 38.5217 39.8894 50.4411
660 1 1.62611 44.2672 6.31417
661 1 46.2097 36.4211 12.953
662 1 15.598 41.8329 44.465
663 1 19.148 37.539 35.4066
664 1 53.8704 16.7049 24.0661
665 1 34.2073 43.0253 22.9852
666 1 15.0213 9.31874 26.3898
667 1 35.4112 17.0262 28.1374
668 1 39.9474 16.1137 46.6075
669 1 51.1585 22.7547 15.6936
670 1 50.8343 0.0597511 8.32756
671 1 32.4898 4.42932 25.2204
672 1 1.71628 18.3212 9.14943
673 1 11.3152 4.0048 35.8651
674 1 46.1058 51.5006 7.50609
675 1 23.3291 7.74292 33.0494
676 1 -0.20911 15.3365 23.2969
677 1 55.8467 36.1912 54.2781
678 1 15.6689 55.7537 17.543
679 1 52.8685 12.4459 22.3124
680 1 28.5817 32.599 46.0513
681 1 0.0560524 26.1815 48.8825
682 1 7.41365 3.2115 44.662
683 1 43.1776 13.074 21.0029
684 1 38.5842 32.4288 37.3412
685 1 22.8473 55.0574 15.2154
686 1 44.7357 15.1265 11.2448
687 1 47.0343 55.2913 28.355
688 1 20.516 7.22337 33.4589
689 2 21.7305 49.4495 23.8881
690 2 30.1619 49.9137 10.1553
691 2 34.6423 26.8455 38.9916
692 2 8.06813 42.569 49.1446
693 2 44.9898 48.0661 22.4855
694 2 2.8521 51.5639 54.2527
695 2 17.5486 15.3336 45.4253
696 2 16.0935 40.9863 8.04499
697 2 1.39245 18.4548 36.3701
698 2 17.1742 18.582 6.90041
699 2 44.801 11.3593 39.9562
700 2 38.316 4.84047 3.67912
701 2 53.7417 27.281 5.38404
702 2 35.9421 28.6422 27.1384
703 2 49.1062 45.8774 44.2067
704 2 54.3214 12.7896 17.6386
705 2 2.47322 36.9784 7.39326
706 2 1.97246 40.4422 44.4807
707 2 47.6167 17.1823 18.9923
708 2 43.3026 54.8574 0.623025
709 2 43.9927 30.3636 42.4268
710 2 52.8754 48.45 30.6298
711 1 37.0099 2.0307 46.3193
712 1 18.6937 30.0912 52.7902
713 1 1.04042 49.3004 44.0918
714 1 37.8956 30.1176 25.1636
715 1 0.958491 11.2617 44.6724
716 1 2.95333 15.6872 51.3857
717 1 47.3775 1.0188 3.47087
718 1 4.69538 42.0823 56.0715
719 1 41.924 16.8191 52.7503
720 1 19.2306 16.2944 13.5099
721 1 31.3119 6.06348 4.7674
722 1 31.8865 37.8284 55.6349
723 1 19.3335 14.8537 16.0897
724 1 48.0886 37.315 53.638
725 1 12.9974 46.1626 34.8269
726 1 31.6301 39.1507 42.7184
727 1 37.5705 54.3973 15.1068
728 1 28.2613 0.578427 55.1639
729 1 44.202 8.13209 52.1422
730 1 9.953 5.00979 32.8929
731 1 53.9944 11.0198 20.2064
732 1 12.792 1.0386 14.8365
733 1 35.8109 53.3313 54.9524
734 1 36.7572 43.5893 17.8606
735 1 40.0804 9.42386 1.50132
736 1 51.6997 18.7641 50.4998
737 1 31.0491 41.904 27.6505
738 1 0.754323 11.4585 6.90282
739 1 22.9996 21.1834 3.13982
740 1 40.295 35.235 49.5749
741 1 53.7442 9.47794 32.9848
742 1 19.1759 40.324 6.50499
743 1 44.7906 29.0443 27.0821
744 1 33.4654 55.5886 40.4309
745 1 44.9922 12.6277 13.0502
746 1 20.3612 17.7373 21.0355
747 1 0.557432 2.90297 36.5099
748 1 44.6066 51.128 3.53902
749 1 17.2096 13.1568 42.7186
750 1 21.9149 16.5853 2.80106
751 1 19.1222 33.0427 33.9252
752 1 14.9889 47.9793 38.5644
753 1 20.0286 9.78905 43.6652
754 1 36.3299 53.8115 27.0374
755 1 29.195 18.9901 15.7749
756 1 31.5883 48.8644 53.8364
757 1 7.09209 22.0562 23.7228
758 1 54.7549 26.8548 20.2682
759 1 44.8272 6.9148 18.9034
760 1 18.9986 32.4342 54.5901
761 1 50.9134 15.1357 47.6501
762 1 30.5278 52.6199 12.1271
763 1 24.1978 18.0012 8.87096
764 1 18.4718 13.0671 21.5947
765 1 42.635 19.8178 40.128
766 1 21.6248 27.8804 8.0834
767 1 3.96326 49.1563 23.9486
768 1 25.5022 22.2557 35.5317
769 1 18.3624 48.1912 54.8947
770 1 19.0314 3.61515 4.39618
771 1 11.8321 38.5242 44.2406
772 1 29.9267 13.0855 52.6871
773 1 10.4137 16.3343 45.7144
774 1 33.8737 1.68796 26.8688
775 1 45.9557 41.4984 30.3769
776 1 25.0495 55.875 22.4333
777 1 45.9686 47.7398 25.4547
778 1 22.2009 33.7348 47.7334
779 1 41.0503 27.0063 44.747
780 1 31.1371 47.3919 41.005
781 1 20.2432 37.9027 24.9256
782 1 4.50531 18.8177 15.4603
783 1 50.2298 0.740611 37.0203
784 1 44.1033 27.9241 24.0332
785 1 27.3777 26.0362 48.7569
786 1 15.8712 7.60146 42.044
787 1 5.72595 31.2373 53.7112
788 1 2.03995 10.6418 37.2227
789 1 15.5325 46.2965 28.2269
790 1 51.6741 29.7058 43.8202
791 1 32.4426 19.3516 24.8951
792 1 25.7652 55.2397 19.8468
793 1 2.54166 50.5495 22.079
794 1 29.9321 25.6298 28.2283
795 1 55.995 21.5799 37.0623
796 1 44.5875 12.5694 4.06833
797 1 18.5719 11.4427 13.8239
798 1 42.7716 29.0869 54.4143
799 1 16.2096 35.7857 12.3058
800 1 16.9146 30.7684 54.9722
801 1 48.8951 48.2866 10.8087
802 1 20.6199 14.9834 36.9815
803 1 40.0868 45.3862 40.2956
804 1 51.8223 36.8066 9.23595
805 1 38.5538 44.8087 32.0232
806 1 13.5038 14.9764 37.5592
807 1 55.5635 16.1915 34.6816
808 1 49.0397 8.12919 38.5869
809 1 9.95214 12.3221 1.1745
810 1 8.05488 40.4695 32.07
811 1 33.5331 22.2665 47.9048
812 1 50.4976 8.5244 46.4235
813 1 0.582133 10.9909 2.38661
814 1 45.9268 4.75146 19.868
815 1 4.29665 9.08762 41.8043
816 1 49.9031 5.15876 35.2904
817 1 44.4842 43.7147 29.267
818 1 54.9515 48.6177 55.1964
819 1 18.3891 37.2613 43.273
820 1 53.2417 28.193 38.4951
821 1 32.129 29.9985 38.9528
822 1 1.1406 4.06447 29.3454
823 1 53.943 46.582 37.6682
824 1 54.3898 -0.0551238 28.3064
825 1 17.5839 54.3125 29.832
826 1 16.5808 50.4121 4.14203
827 1 19.9172 33.8289 22.6326
828 1 31.1948 19.4006 22.6546
829 1 49.3032 -0.17424 29.6387
830 1 51.3872 43.452 4.00252
831 2 7.04493 40.3243 39.9343
832 2 24.1863 14.1857 3.14951
833 2 20.2766 43.1673 23.5334
834 2 43.2975 26.7993 46.9238
835 2 24.9572 0.0158971 27.4975
836 2 23.859 14.359 32.2532
837 2 15.6092 27.0879 17.5375
838 2 23.0097 42.5471 47.8384
839 2 28.612 35.2932 31.3747
840 2 19.735 16.27 53.5675
841 2 15.8284 27.237 26.5573
842 2 47.6479 9.31822 45.7415
843 2 42.1554 1.31255 30.0199
844 2 31.3006 15.3526 18.5097
845 2 8.37157 52.001 15.8235
846 2 41.2639 41.4028 48.5242
847 2 48.7853 55.3435 10.5672
848 2 47.958 44.1905 25.999
849 2 23.3908 17.4347 34.8651
850 2 22.8007 32.3132 44.7857
851 2 48.2161 -0.0485549 54.022
852 2 46.4219 38.7956 20.4006
853 1 40.6857 41.6146 12.1514
854 1 30.4167 42.3458 46.9438
855 1 47.7285 26.8327 15.0478
856 1 7.31825 23.6477 28.1792
857 1 55.1933 17.2729 40.1793
858 1 14.1712 50.3439 48.7646
859 1 35.3387 24.7154 41.1557
860 1 9.29563 37.8222 3.85329
861 1 51.7119 36.6594 29.3984
862 1 54.575 30.6929 5.58038
863 1 33.123 11.4116 10.362
864 1 47.636 26.5508 49.7172
865 1 14.5397 26.4151 14.673
866 1 10.5774 33.7206 0.359131
867 1 50.5719 21.9263 37.303
868 1 49.1785 1.65147 34.649
869 1 53.7605 26.6617 52.4129
870 1 33.6208 24.411 20.8827
871 1 10.1812 27.872 14.9504
872 1 53.3447 37.6694 40.6184
873 1 12.6475 39.6444 31.9078
874 1 54.2192 46.3938 1.21163
875 1 41.673 29.2271 48.2797
876 1 55.7492 16.8871 31.8032
877 1 -0.0476654 27.2952 22.5391
878 1 4.0713 35.7279 20.1539
879 1 10.7501 14.1575 31.1214
880 1 51.7489 11.4143 2.11738
881 1 31.7763 13.0175 48.1654
882 1 45.0123 22.6296 52.5239
883 1 27.423 20.8558 10.0796
884 1 51.458 54.5915 36.5571
885 1 30.1312 22.9764 1.31146
886 1 39.361 47.7962 2.15322
887 1 7.30009 15.4663 19.9508
888 1 2.62154 30.1825 47.0793
889 1 46.376 7.90178 34.1559
890 1 54.9419 3.14439 6.36014
891 1 53.3159 20.7638 38.016
892 1 38.9602 52.9361 17.0651
893 1 14.3933 51.2404 33.5264
894 1 9.01273 41.3305 9.85863
895 1 4.20677 51.4774 31.2695
896 1 2.24189 40.8216 17.8592
897 1 28.1189 53.2578 10.5243
898 1 41.1866 35.308 42.706
899 1 16.5506 19.0722 32.1528
900 1 9.12463 27.8606 2.17119
901 1 34.3947 37.2488 42.0459
902 1 25.681 46.0183 25.7033
903 1 3.78206 26.4421 8.74246
904 1 35.6534 35.6912 11.3427
905 1 28.2666 30.2711 22.181
906 1 17.301 36.0577 7.34896
907 1 38.668 51.6369 9.08235
908 1 1.30057 6.44568 34.767
909 1 43.0024 2.97924 38.199
910 1 52.6256 38.4556 7.12337
911 1 12.9222 8.44125 24.8354
912 1 16.846 18.7892 36.6668
913 1 3.98733 45.2346 5.7355
914 1 53.1547 51.7329 30.9858
915 1 16.0135 25.1688 42.3607
916 1 28.276 26.4421 40.6652
917 1 35.1286 55.8248 4.33355
918 1 50.6102 35.0353 14.3937
919 1 48.6974 40.7442 38.696
920 1 11.9621 38.4308 38.636
921 1 32.0017 54.6604 10.973
922 1 17.6783 41.8456 31.913
923 1 50.0061 5.65807 38.7375
924 1 0.466528 11.5179 16.8935
925 1 46.1354 55.2478 2.48037
926 1 27.7745 49.8093 51.3876
927 1 52.712 49.4409 43.8575
928 1 42.3996 12.0249 12.6139
929 1 50.1026 33.022 7.15064
930 1 42.9652 54.5528 13.8021
931 1 16.9662 25.3499 31.9974
932 1 12.0861 48.1143 52.0393
933 1 30.7462 7.16522 44.1913
934 1 24.5972 51.2349 54.7099
935 1 5.1818 39.2983 55.0133
936 1 7.5185 32.7784 11.9813
937 1 40.4751 2.93468 42.5069
938 1 36.3138 6.08608 40.5617
939 1 5.25221 29.2575 15.7362
940 1 7.82169 39.1783 52.9369
941 1 36.1872 6.59627 35.2714
942 1 15.1963 46.7866 45.5574
943 1 33.3999 36.6815 34.3314
944 1 9.09658 41.2309 16.0304
945 1 45.0573 20.6768 44.6741
946 1 10.4664 42.9261 44.5911
947 1 41.5905 31.1324 40.8013
948 1 15.5228 55.5498 44.0273
949 1 49.8293 49.9426 15.5256
950 1 39.4183 27.2186 50.4264
951 1 15.0803 43.2867 53.9314
952 1 43.9765 0.960007 48.2303
953 1 26.1443 22.3254 51.3412
954 1 11.2693 45.9313 40.4434
955 1 13.3281 21.9987 15.7923
956 1 11.8685 19.9297 8.36196
957 1 46.8452 43.8094 50.9593
958 1 9.984 23.5007 34.6698
959 1 31.5577 50.0027 35.4215
960 1 53.6031 14.3764 12.6351
961 1 37.0611 41.3634 42.7998
962 1 54.9296 6.65502 18.8813
963 1 7.53987 30.074 47.2001
964 1 25.2825 14.7969 44.3196
965 1 15.6475 30.2307 35.7246
966 1 24.9479 42.8592 31.1478
967 1 8.42803 6.90755 7.62147
968 1 42.6396 9.7098 53.8284
969 1 32.1916 37.1932 50.7675
970 1 31.1733 17.1824 15.5847
971 1 47.715 5.32373 42.4859
972 1 52.1986 8.09393 51.6762
973 2 45.1221 4.14661 25.7808
974 2 45.9986 39.1242 34.8248
975 2 53.5249 38.9605 27.9163
976 2 17.5792 30.5153 49.749
977 2 53.1516 36.2559 16.002
978 2 52.5523 36.3852 19.7572
979 2 33.1058 42.2546 40.8008
980 2 54.8762 6.40155 44.6
981 2 36.2687 11.5025 9.6545
982 2 54.2877 29.6413 49.3643
983 2 12.2341 31.5149 1.31097
984 2 46.259 22.6442 34.188
985 2 52.3237 2.10234 13.6755
986 2 7.50052 18.4412 37.9804
987 2 20.0933 6.53394 5.03968
988 2 2.32059 26.9004 51.77
989 2 40.0684 27.6222 32.3961
990 2 54.1407 9.9003 15.025
991 2 23.0677 21.1184 17.7814
992 2 16.3698 15.618 55.0529
993 2 1.3714 15.544 55.9737
994 2 53.4293 22.9667 35.3951
995 1 54.3593 3.01357 43.483
996 1 51.2425 25.1579 47.0746
997 1 24.7806 1.99596 48.3465
998 1 6.92857 51.6562 35.5933
999 1 25.2165 51.2172 52.1141
1000 1 19.41 8.92217 47.9941
1001 1 30.9435 30.7156 36.6064
1002 1 52.6173 26.3814 8.29736
1003 1 13.8427 28.7316 30.5749