ITEM: TIMESTEP
0
ITEM: NUMBER OF ATOMS
9088
ITEM: BOX BOUNDS pp pp pp
-4.9189932397422176e-01 5.6376391949978199e+01
-4.9189932397422176e-01 5.6376391949978199e+01
-4.9189932397422176e-01 5.6376391949978199e+01
ITEM: ATOMS id type x y z
1 1 6.97387 34.3362 26.7384
2 1 21.3735 5.9814 48.8261
3 1 31.7522 45.193 25.6744
4 1 7.59246 10.0439 21.9126
5 1 8.48429 22.857 43.564
6 1 14.7547 30.1453 6.3128
7 1 26.5882 19.2494 47.6586
8 1 48.9332 27.0115 41.4683
9 1 25.4473 30.6201 44.7542
10 1 10.4802 44.0894 42.4033
11 1 14.5012 39.7135 18.9885
12 1 37.1735 31.0098 40.4393
13 1 24.8114 17.9466 53.4131
14 1 33.1333 35.4731 25.7483
15 1 55.4735 39.9197 37.6726
16 1 21.6786 30.5534 24.6831
17 1 41.1961 51.9261 42.1508
18 1 37.5634 32.604 0.0275855
19 1 0.851211 5.57674 21.7074
20 1 38.4598 16.2356 40.1163
21 1 22.6329 4.37259 21.0668
22 1 49.538 47.7528 33.7253
23 1 6.08452 20.0447 21.3168
24 1 49.3351 4.15147 20.3419
25 1 43.8802 42.2317 48.5377
26 1 13.7451 15.2029 43.8531
27 1 34.0107 41.5862 5.99296
28 1 42.1047 6.83339 44.6957
29 1 30.8295 9.02567 52.6301
30 1 40.3993 15.0329 54.6788
31 1 45.8856 42.3413 19.0675
32 1 26.9283 44.0442 48.055
33 1 8.27151 47.6857 5.34891
34 1 7.80236 0.744546 19.0689
35 1 17.3386 17.0703 23.6274
36 1 13.6939 44.3026 27.5568
37 1 46.7533 38.0113 7.93219
38 1 28.334 53.0354 41.0943
39 1 23.669 6.75456 15.8187
40 1 5.0255 8.8258 52.0415
41 1 25.3602 31.0741 14.9158
42 1 56.2321 53.8391 15.5268
43 1 9.33514 55.3531 55.9951
44 1 42.3527 32.7135 46.1373
45 1 22.7197 2.1787 16.0328
46 1 2.05694 40.9554 0.585298
47 1 42.2371 33.19 43.0735
48 1 18.0185 5.29164 39.7339
49 1 52.4892 56.0996 15.111
50 1 10.6927 4.13697 26.5425
51 1 43.1644 13.8701 41.3732
52 1 18.4472 1.5128 8.51758
53 1 30.2265 14.772 43.678
54 1 37.6445 49.9376 21.6708
55 1 14.973 34.9942 16.6765
56 1 1.75 32.3451 10.3052
57 1 53.7208 41.1581 32.1184
58 1 52.7225 51.6376 1.18406
59 1 0.549985 5.79694 14.6334
60 1 24.4283 52.4153 3.23294
61 1 51.5986 43.8827 15.8513
62 1 8.65902 16.4459 47.4096
63 1 9.71649 30.7194 19.8211
64 1 17.1478 46.2441 34.7771
65 1 44.5466 23.675 20.3053
66 1 1.65608 35.9805 37.1856
67 1 38.7547 48.3345 55.426
68 1 -0.0662715 1.43497 15.4984
69 1 20.1179 37.2427 22.4636
70 1 41.0387 30.194 52.5247
71 1 44.5562 52.3331 36.6451
72 1 9.29572 5.64236 51.4557
73 1 43.741 17.3834 46.9793
74 1 53.4632 38.367 14.3539
75 1 44.9974 33.6187 44.8571
76 1 1.79714 50.1053 40.8677
77 1 29.9826 31.3226 3.59877
78 1 5.92693 35.0425 10.9764
79 1 47.0307 17.9837 53.5645
80 1 23.3035 50.6333 46.3087
81 1 12.5366 49.9081 29.7984
82 1 12.8877 26.0663 52.09
83 1 43.6043 43.1003 10.0366
84 1 50.0189 39.5534 2.39549
85 1 36.2764 -0.114477 46.4136
86 1 -0.110009 12.0855 44.6998
87 1 44.3254 32.8261 24.11
88 1 25.9195 34.8373 21.6314
89 1 47.0087 9.24754 2.12681
90 1 8.81231 23.8516 40.9846
91 1 56.2239 22.0212 17.0956
92 1 15.3774 10.619 50.2888
93 1 17.4696 43.6929 39.2651
94 1 14.1049 13.4852 9.97411
95 1 0.0819785 2.95365 28.5603
96 1 21.2475 50.4467 39.864
97 1 39.1966 55.0355 25.1738
98 1 22.5764 47.6626 54.4555
99 1 21.591 13.5022 22.3545
100 1 53.6502 36.1235 39.6887
101 1 31.8222 23.3943 33.6588
102 1 15.232 42.7035 29.6516
103 1 6.40196 11.5181 19.8992
104 1 14.1717 6.51223 53.0145
105 1 20.6089 35.6095 15.336
106 1 42.5917 39.2407 25.2207
107 1 14.6501 30.6665 31.1126
108 1 5.21474 47.331 21.4315
109 1 17.5486 15.2045 27.824
110 1 8.90709 0.173963 8.42024
111 1 7.47396 3.67823 19.2032
112 1 43.4244 51.4761 51.5032
113 1 10.5928 40.0698 12.7031
114 1 2.14063 46.6479 55.4345
115 1 46.0713 47.7461 18.027
116 1 39.5125 34.6731 7.98396
117 1 4.93432 8.20832 16.7299
118 1 43.0276 30.4175 29.4273
119 1 31.9966 48.092 49.758
120 1 49.6522 49.0276 22.8055
121 2 5.57034 6.32809 14.0974
122 2 44.8651 16.9103 35.0364
123 2 14.2694 46.2407 47.0732
124 2 18.2541 2.39546 -0.00216547
125 2 5.1139 36.2622 8.04315
126 2 23.8342 12.4943 23.7207
127 2 49.0339 45.3241 31.3078
128 2 13.149 -0.0233488 27.8251
129 2 32.2409 2.90669 2.89683
130 2 39.1641 50.3442 32.1175
131 2 52.8775 28.27 46.9448
132 2 51.1013 19.9666 4.63974
133 2 27.7364 38.4125 6.74716
134 2 16.8285 37.1566 11.0455
135 2 31.815 42.1434 53.9655
136 2 31.0903 38.4522 2.46672
137 2 31.783 30.5369 37.4339
138 2 4.57366 26.1 40.7716
139 2 29.1011 9.22725 28.0972
140 2 21.8671 4.22292 51.6124
141 2 2.63794 0.759973 14.3346
142 2 19.6536 29.2426 11.9158
143 1 29.3358 37.487 48.2402
144 1 3.10083 0.981814 19.2938
145 1 35.7046 7.54083 29.8287
146 1 26.4312 53.638 19.6644
147 1 40.7688 27.3579 45.6271
148 1 6.9252 13.6214 26.6579
149 1 15.6924 55.7754 20.5394
150 1 37.556 24.9271 3.36065
151 1 6.42497 1.17201 26.974
152 1 28.5596 2.06055 39.6464
153 1 17.0146 23.1666 43.0351
154 1 53.5383 10.2117 8.53599
155 1 4.24476 5.18749 49.5304
156 1 50.5154 28.3308 7.71561
157 1 3.19442 47.9636 24.9826
158 1 35.8406 32.4335 29.3393
159 1 55.8836 28.5642 30.8645
160 1 42.4334 49.5502 33.5671
161 1 40.6763 8.401 21.4185
162 1 16.1019 0.119096 39.2491
163 1 24.6483 21.6306 41.4461
164 1 13.6244 0.242528 54.2407
165 1 15.127 28.061 13.9435
166 1 49.0106 11.288 3.17241
167 1 12.264 29.2221 30.5077
168 1 9.39664 49.6592 9.10991
169 1 0.855506 31.996 32.8985
170 1 31.8132 32.419 9.37855
171 1 44.3127 27.6253 35.7742
172 1 20.8895 7.51546 46.5302
173 1 13.6577 38.2452 28.3232
174 1 48.2829 31.9879 37.8073
175 1 16.0675 7.21643 2.82551
176 1 20.2247 3.158 54.4606
177 1 24.6939 52.1549 54.4538
178 1 26.165 37.481 22.2982
179 1 44.2455 47.1016 54.1799
180 1 33.3542 36.2684 7.61716
181 1 37.7447 51.3127 -0.321223
182 1 25.1922 44.4284 37.5524
183 1 50.1646 23.7644 46.7163
184 1 37.2396 15.7139 33.6724
185 1 25.4141 46.4638 33.7557
186 1 52.5155 22.7468 14.4274
187 1 1.16047 5.84049 52.7182
188 1 41.9956 20.5804 30.49
189 1 2.48577 22.5891 37.8128
190 1 55.9447 52.7708 30.3732
191 1 49.5481 39.1091 26.2367
192 1 41.2251 39.8688 36.8814
193 1 27.3059 5.58254 19.2012
194 1 28.6539 47.0545 39.7898
195 1 3.99214 9.15735 1.20963
196 1 6.76887 47.5998 25.6035
197 1 55.0989 6.02737 53.6206
198 1 51.9701 10.0144 33.776
199 1 54.522 13.5847 52.1657
200 1 16.0129 48.1984 33.3443
201 1 50.1461 35.8438 19.0802
202 1 32.4124 38.0855 49.6999
203 1 7.32367 27.398 24.0734
204 1 51.3793 42.5346 38.8076
205 1 34.2101 1.92414 11.3489
206 1 11.5402 33.265 49.095
207 1 25.1463 6.8283 48.1692
208 1 33.0929 0.359198 56.1488
209 1 44.1038 16.376 52.1412
210 1 41.0665 1.09569 32.0201
211 1 2.51988 6.05225 0.633246
212 1 35.7244 29.8171 7.24382
213 1 53.8594 41.6456 11.6434
214 1 46.8522 39.4864 19.7473
215 1 36.1034 54.2437 15.5506
216 1 53.2928 51.5932 22.0233
217 1 2.73378 37.0759 24.7685
218 1 41.3934 5.31514 51.2723
219 1 34.2955 11.0602 41.4627
220 1 50.7247 15.1531 3.58207
221 1 47.529 54.2684 51.6719
222 1 54.2924 19.0362 42.834
223 1 33.5163 54.4544 38.4353
224 1 33.2819 48.9622 32.464
225 1 27.5315 6.81379 46.7579
226 1 30.9505 51.8602 25.256
227 1 30.7249 35.2781 49.4416
228 1 52.5806 0.610902 22.5614
229 1 8.86499 38.1361 35.7933
230 1 42.7174 35.1395 45.3088
231 1 11.9821 19.7817 5.79827
232 1 33.0064 11.199 19.8704
233 1 31.7516 19.5638 46.583
234 1 51.7989 29.5221 12.455
235 1 23.8164 2.4763 28.343
236 1 20.3059 27.517 52.4891
237 1 3.69108 43.2704 1.00535
238 1 44.5364 12.3937 31.8511
239 1 3.83781 38.6165 22.372
240 1 42.046 15.7775 9.92128
241 1 46.0612 35.8183 31.2772
242 1 27.4549 31.874 5.74145
243 1 40.8363 4.65973 45.2744
244 1 46.0279 3.96207 2.27752
245 1 0.182101 24.7474 37.0765
246 1 45.5101 13.3575 1.40841
247 1 31.0488 25.5555 39.4378
248 1 49.3272 47.6268 7.56222
249 1 37.6016 14.9554 15.2302
250 1 46.9945 22.9641 13.7954
251 1 14.5745 51.1931 14.5642
252 1 50.1764 38.9311 10.9455
253 1 24.0419 23.8999 14.7566
254 1 18.9798 6.08515 16.3693
255 1 19.9757 27.7041 30.1071
256 1 44.9924 33.1043 29.9006
257 1 33.1752 31.2761 12.5381
258 1 0.895323 45.5313 53.3234
259 1 41.392 30.521 55.112
260 1 37.7308 41.3652 50.7091
261 1 3.23485 46.5109 46.6444
262 1 34.1079 47.3537 51.7947
263 2 50.9504 10.0893 5.97073
264 2 10.3364 4.8266 45.4
265 2 20.6796 19.7655 38.3512
266 2 9.11348 5.92268 5.37795
267 2 29.2054 6.98435 14.2901
268 2 45.4615 49.8887 44.7558
269 2 51.4327 23.1655 7.10421
270 2 10.8954 37.1361 12.588
271 2 10.9596 51.8911 10.6716
272 2 5.6641 12.0412 29.2489
273 2 49.8426 41.5499 15.2012
274 2 38.6204 21.0435 37.4654
275 2 7.81707 23.1708 31.048
276 2 26.8047 46.8274 23.8825
277 2 7.68461 17.7135 19.596
278 2 51.8761 27.1095 10.7344
279 2 44.0306 8.46879 46.7477
280 2 42.1784 15.7687 2.37587
281 2 17.8566 2.35284 29.5193
282 2 11.5698 47.0435 8.72343
283 2 28.6122 49.7944 41.5841
284 2 47.729 17.3471 19.0401
285 1 4.55112 46.2285 26.4365
286 1 53.7072 49.8182 40.1873
287 1 18.448 16.5325 46.5662
288 1 48.682 49.4231 5.6306
289 1 28.5652 51.3502 54.0856
290 1 52.2012 25.7006 50.7892
291 1 19.3819 44.0865 52.0674
292 1 12.9188 25.9497 9.076
293 1 26.491 9.85654 40.0505
294 1 39.5918 19.0704 48.8141
295 1 12.1317 15.951 52.5432
296 1 11.8465 20.3143 46.5908
297 1 1.77689 36.7896 46.4967
298 1 37.0634 24.0281 56.2435
299 1 13.3739 19.2455 32.7858
300 1 26.8088 44.318 56.0057
301 1 29.5295 12.781 45.923
302 1 15.1348 9.68975 0.936502
303 1 31.3869 43.335 21.2093
304 1 28.1921 6.21445 11.3512
305 1 52.4578 31.0394 48.5998
306 1 24.9532 28.0391 2.07524
307 1 11.3576 45.3934 36.803
308 1 40.8641 2.26757 15.6536
309 1 37.9129 2.14859 52.8014
310 1 25.9917 42.6932 16.3059
311 1 0.839924 2.88247 34.4359
312 1 16.3765 23.5471 10.5965
313 1 50.852 46.7287 16.6499
314 1 14.1302 26.7939 34.9035
315 1 47.6 53.9752 1.30814
316 1 3.81737 5.50258 30.9306
317 1 19.1167 18.5359 19.7626
318 1 15.0871 17.5196 12.6412
319 1 1.94007 24.9968 31.3799
320 1 44.5753 28.5829 22.6912
321 1 28.3297 1.76536 -0.469132
322 1 45.762 40.573 49.5688
323 1 22.2386 38.6714 32.5756
324 1 49.6048 23.2203 28.4948
325 1 53.7415 45.2604 16.7345
326 1 32.253 33.1179 26.6129
327 1 35.9078 28.6944 42.0094
328 1 13.8243 54.1113 5.08306
329 1 32.3262 3.77351 30.5503
330 1 47.6843 19.499 46.8607
331 1 38.1141 18.344 38.4071
332 1 34.755 48.9281 13.9944
333 1 51.0517 42.9855 24.5102
334 1 45.7216 -0.387782 47.8564
335 1 25.3375 42.1007 10.2297
336 1 49.1038 14.7289 48.7502
337 1 17.1516 54.6844 16.2825
338 1 30.702 45.932 38.8182
339 1 0.168963 14.7819 45.822
340 1 3.38144 1.48028 5.81983
341 1 55.0316 4.41469 22.2473
342 1 33.7051 45.3391 1.33567
343 1 31.6315 22.6035 50.2989
344 1 5.14523 9.20022 7.50299
345 1 37.7983 25.5992 16.4155
346 1 2.53442 27.4481 24.9312
347 1 10.6816 16.4852 26.831
348 1 50.9268 35.6633 4.8934
349 1 17.9469 54.8601 39.6453
350 1 30.6515 27.0631 10.046
351 1 11.6419 42.8889 23.6026
352 1 52.1858 43.3668 22.0897
353 1 35.9612 49.5129 6.34
354 1 9.02239 37.2874 7.38693
355 1 29.0111 4.04056 0.992246
356 1 0.324027 30.9458 17.8498
357 1 0.965094 3.60291 23.7334
358 1 13.5095 12.7829 28.3926
359 1 36.7765 14.9449 21.2715
360 1 53.3499 46.5042 9.32629
361 1 43.0996 49.495 53.5465
362 1 35.0438 0.148786 38.4854
363 1 39.3428 4.051 29.1458
364 1 21.333 22.8401 48.0629
365 1 36.2379 11.4979 5.04396
366 1 7.38098 30.366 24.7019
367 1 50.1577 53.1592 1.36
368 1 23.3623 56.2445 0.495092
369 1 27.5089 41.3833 44.3759
370 1 54.2589 10.6595 0.762984
371 1 1.48173 36.7222 51.7009
372 1 36.398 38.1162 45.2755
373 1 10.4772 7.18023 19.7505
374 1 54.1378 27.0865 49.5706
375 1 1.68835 23.4071 17.1753
376 1 14.3905 29.4996 40.531
377 1 31.3789 43.8388 0.835078
378 1 41.0424 28.8507 9.33397
379 1 40.8296 55.176 29.9808
380 1 40.7719 36.3115 51.0522
381 1 31.3674 24.4236 8.37558
382 1 23.0464 42.9421 55.4839
383 1 52.1493 23.9689 36.8878
384 1 5.12608 11.3402 5.01919
385 1 24.9503 36.8838 19.8715
386 1 48.5039 4.30955 34.0254
387 1 19.19 17.9027 48.8332
388 1 47.7571 37.5343 30.7461
389 1 1.75306 41.2521 36.2122
390 1 50.176 47.0013 49.4806
391 1 51.0907 5.73949 13.5693
392 1 33.4823 11.0611 44.312
393 1 52.9006 14.7564 6.46268
394 1 22.3824 27.6249 32.9
395 1 5.21716 19.0467 6.24665
396 1 17.5713 46.2423 21.6611
397 1 47.7852 19.9191 14.3937
398 1 16.0482 34.1366 11.8171
399 1 46.4697 4.79866 12.3103
400 1 19.2743 3.80013 2.25863
401 1 49.7267 19.3041 27.4806
402 1 42.7412 18.1304 36.8696
403 1 24.3169 38.2064 15.3482
404 1 4.42155 55.1312 13.0109
405 2 45.5209 42.0049 55.6599
406 2 11.9538 39.0148 30.7022
407 2 54.7373 20.33 2.56987
408 2 0.432765 26.0885 5.28774
409 2 0.438073 30.2805 55.4441
410 2 46.6437 11.9391 50.4769
411 2 41.2324 13.6479 7.7149
412 2 33.9711 1.85208 47.1485
413 2 51.761 26.344 2.60385
414 2 48.124 6.88539 48.6709
415 2 47.5876 27.5533 34.385
416 2 30.0422 27.4901 42.2588
417 2 24.3436 5.76605 28.6001
418 2 32.6815 53.2198 4.54387
419 2 43.0712 53.6223 29.401
420 2 48.4814 2.70523 13.7204
421 2 7.13132 32.2408 10.2505
422 2 17.2592 20.3918 49.8375
423 2 39.9998 -0.139326 53.729
424 2 19.7836 40.9414 46.0053
425 2 20.4114 4.05284 45.9451
426 2 47.89 45.024 27.7088
427 1 34.1476 43.4598 47.339
428 1 49.6787 43.4223 8.49971
429 1 8.08823 40.069 4.05913
430 1 39.9037 41.2411 55.3006
431 1 36.6797 18.8332 10.8345
432 1 10.3369 13.5283 50.3461
433 1 10.0413 51.7648 54.3837
434 1 48.4491 18.3075 6.52067
435 1 39.0396 49.663 28.1223
436 1 47.0254 18.8042 34.6558
437 1 21.6331 12.3231 44.3062
438 1 12.0873 6.858 26.6592
439 1 14.661 5.13061 13.8335
440 1 23.6937 29.9889 4.08513
441 1 42.6869 24.8706 25.3186
442 1 56.3357 1.63922 12.6894
443 1 37.5149 52.8386 48.8157
444 1 54.6564 34.3242 25.3866
445 1 35.0754 17.0487 48.0733
446 1 32.9524 25.2794 4.83977
447 1 42.8619 14.2317 30.6218
448 1 33.3258 37.7013 12.7626
449 1 20.6233 6.16598 6.06527
450 1 38.5091 41.0634 7.29727
451 1 31.1745 29.192 11.7437
452 1 22.8068 23.3268 31.0973
453 1 9.08643 24.7693 23.2583
454 1 26.9758 44.7753 35.6351
455 1 37.7623 17.8344 27.2212
456 1 26.4383 33.9049 26.6682
457 1 4.0455 51.4593 37.4006
458 1 20.6331 30.8652 17.3382
459 1 44.6323 47.6823 8.88659
460 1 50.7672 5.26767 35.1256
461 1 20.7279 11.794 30.7583
462 1 42.5169 10.3176 33.626
463 1 29.1151 31.1995 35.7486
464 1 9.34325 42.0065 2.98581
465 1 32.781 19.1869 19.1049
466 1 2.26388 27.2311 21.8818
467 1 37.1347 38.3059 26.1218
468 1 25.3353 49.0808 12.8508
469 1 42.1148 23.4712 34.3313
470 1 20.1032 14.4699 45.3856
471 1 14.7799 52.1003 1.7297
472 1 43.9716 19.3528 12.8875
473 1 17.6812 12.7064 28.263
474 1 3.42437 52.4282 14.2578
475 1 -0.00942871 7.60746 35.5258
476 1 53.8841 23.0525 25.7015
477 1 17.0575 18.2459 44.6645
478 1 54.8963 12.8103 46.4219
479 1 33.5043 31.0401 25.1687
480 1 52.8726 29.2434 0.521464
481 1 18.7615 3.82616 26.949
482 1 25.6669 1.72354 40.9821
483 1 12.556 53.8631 2.31545
484 1 5.02922 53.4002 48.9887
485 1 19.9648 32.8571 19.33
486 1 3.59342 8.14341 32.6259
487 1 54.8398 9.47452 21.3439
488 1 31.5304 46.0383 28.6792
489 1 47.9768 44.5957 55.6347
490 1 27.4852 44.3737 43.772
491 1 56.2687 5.69264 50.2894
492 1 44.4478 1.10535 7.96558
493 1 47.4261 29.367 45.4994
494 1 18.0249 45.1492 50.0458
495 1 9.15448 32.0538 12.5344
496 1 41.6416 28.6016 42.8669
497 1 -0.0099806 7.05816 47.7231
498 1 19.8187 32.8286 27.8873
499 1 11.1572 33.9071 28.505
500 1 7.23883 35.3105 15.5071
501 1 25.3442 11.5915 53.5029
502 1 21.8626 4.48032 33.4855
503 1 39.5985 23.739 24.4632
504 1 41.4463 40.3994 47.874
505 1 20.1483 38.0172 39.5988
506 1 32.7559 34.0343 53.5581
507 1 1.11129 10.4414 2.25821
508 1 21.7296 25.1876 53.7305
509 1 35.1486 7.82097 18.9879
510 1 3.93951 28.7652 20.5477
511 1 37.9746 2.44079 36.0224
512 1 46.7138 50.6495 48.3705
513 1 45.4508 16.7956 27.1111
514 1 49.0162 26.0383 21.0696
515 1 47.843 40.6444 42.4153
516 1 2.76816 22.6725 19.5463
517 1 43.3357 18.8511 28.8249
518 1 17.5427 54.5967 46.9666
519 1 31.6532 31.9691 17.6496
520 1 12.0116 55.14 30.6739
521 1 50.0901 2.87485 44.3909
522 1 46.7172 39.9129 31.0706
523 1 2.84947 53.6355 38.1375
524 1 5.9671 47.2437 7.06393
525 1 11.3584 2.89389 28.7952
526 1 20.8138 48.9013 37.3917
527 1 40.2468 13.9455 28.6237
528 1 19.0355 44.2679 47.7399
529 1 38.2479 41.7094 2.3315
530 1 11.1866 22.5086 41.7116
531 1 37.1931 30.8782 22.0643
532 1 2.13143 2.00769 16.9611
533 1 34.2274 23.1563 6.93076
534 1 34.1323 23.1503 44.3167
535 1 44.4283 4.57991 36.2004
536 1 12.0064 -0.460908 33.9741
537 1 43.3444 25.9303 22.9748
538 1 4.71298 17.2984 4.46159
539 1 19.3742 -0.413571 45.9716
540 1 49.5011 31.6096 16.8648
541 1 12.5459 34.5295 8.16886
542 1 8.86505 31.6498 43.6868
543 1 22.9256 49.2514 35.6219
544 1 16.7913 31.9484 56.1361
545 1 12.1592 22.3774 6.76352
546 1 24.1434 52.1607 27.6719
547 2 41.9901 20.0471 46.1652
548 2 5.17579 20.7335 38.1514
549 2 7.20678 11.4185 7.00522
550 2 26.5485 -0.251542 1.26708
551 2 46.3883 44.6636 14.0312
552 2 10.8042 45.9379 55.9953
553 2 2.37932 26.8774 43.7684
554 2 42.056 25.9296 1.30814
555 2 42.1098 19.3579 33.6952
556 2 35.1004 9.97805 33.9926
557 2 2.02777 23.0167 24.772
558 2 44.0512 29.2479 53.6397
559 2 19.0326 35.3846 44.2983
560 2 39.8059 13.8426 21.0877
561 2 11.6913 42.44 44.5659
562 2 52.6776 35.1321 32.1217
563 2 42.4168 48.7882 14.486
564 2 21.6682 4.70668 0.582246
565 2 17.511 30.775 40.8688
566 2 32.6254 36.604 34.4331
567 2 6.38929 42.9447 3.40464
568 2 23.8892 49.8564 9.19474
569 1 10.994 1.90625 53.8333
570 1 29.7902 24.4023 31.9581
571 1 11.9664 38.0311 19.7935
572 1 42.4233 2.17922 55.0561
573 1 16.3842 18.311 33.1214
574 1 52.7398 9.18077 41.2882
575 1 21.6775 48.3397 51.8476
576 1 8.0819 15.2798 16.9959
577 1 5.87838 0.157695 14.4015
578 1 43.5059 55.3834 6.45568
579 1 47.1737 42.5172 15.8996
580 1 23.1466 35.7859 -0.0990155
581 1 45.016 11.1413 13.7516
582 1 35.79 17.1844 16.0645
583 1 33.7138 17.9415 29.0381
584 1 10.2346 6.49903 56.0597
585 1 34.0175 15.0561 1.8741
586 1 16.1042 6.84567 8.05155
587 1 26.072 35.7733 -0.115669
588 1 16.9198 30.5646 24.6601
589 1 42.7654 51.9794 21.7211
590 1 40.3037 33.7427 4.13056
591 1 3.13695 52.5172 54.9856
592 1 20.2545 45.7494 31.1881
593 1 46.276 1.65573 29.816
594 1 50.4051 15.737 37.853
595 1 23.1456 40.0832 46.8086
596 1 48.0918 6.07306 3.13637
597 1 13.7889 16.3772 9.9589
598 1 2.11012 35.1222 1.39938
599 1 16.0485 32.8108 16.7671
600 1 46.8907 28.66 13.6877
601 1 49.9378 52.7072 31.6298
602 1 25.82 43.5165 6.56847
603 1 47.3093 31.8405 5.90648
604 1 42.4448 50.8296 25.5748
605 1 21.4667 53.1673 50.3894
606 1 18.9226 3.1325 51.9722
607 1 26.153 50.0059 55.6326
608 1 18.9727 11.2781 11.9991
609 1 24.7971 21.3289 0.351827
610 1 39.7558 31.0388 0.872343
611 1 22.2822 38.3673 41.9087
612 1 32.2019 17.8126 51.575
613 1 14.6735 4.00958 4.54937
614 1 21.6601 12.635 16.6549
615 1 41.8235 37.1388 26.6503
616 1 42.5169 44.69 47.8755
617 1 1.31718 49.0583 50.4247
618 1 46.3687 40.0097 22.576
619 1 21.4951 20.3261 19.6852
620 1 17.9787 39.04 53.5611
621 1 39.2761 35.1427 49.4166
622 1 12.2844 45.9425 23.284
623 1 24.242 15.4733 32.0469
624 1 51.0732 33.7212 6.7559
625 1 48.3789 14.0781 35.8838
626 1 1.84605 40.8937 18.3238
627 1 22.2064 55.1453 46.1249
628 1 7.84517 45.3762 55.6639
629 1 13.9296 27.2492 31.1112
630 1 39.9526 52.0772 44.8628
631 1 31.3365 5.68137 4.70237
632 1 21.4249 22.4279 52.9206
633 1 37.9898 52.5934 34.2521
634 1 10.6126 35.9484 9.19041
635 1 6.02915 50.2647 12.6173
636 1 53.003 6.11642 40.4858
637 1 18.3804 6.11045 18.807
638 1 26.388 13.8012 22.106
639 1 13.6839 6.18027 2.67044
640 1 29.8282 22.4143 29.2787
641 1 39.5239 18.4772 45.1788
642 1 48.2794 52.6747 25.8864
643 1 3.72604 44.4033 44.439
644 1 40.0972 53.7267 8.74459
645 1 10.3207 29.9383 -0.445725
646 1 35.088 0.761182 7.46938
647 1 11.6086 56.0608 24.2047
648 1 29.4388 2.99155 29.3047
649 1 54.0128 12.7506 55.7628
650 1 45.8314 19.4647 27.8617
651 1 47.902 32.3876 40.6533
652 1 5.08836 48.9098 5.14453
653 1 39.202 10.5073 55.0347
654 1 43.0656 54.8562 14.9823
655 1 42.4952 25.3505 46.5359
656 1 42.4464 26.3869 5.02517
657 1 53.1829 1.63849 7.75125
658 1 29.7924 20.058 4.14899
659 1 7.77661 32.9713 19.4514
660 1 33.215 17.9236 26.1796
661 1 35.0882 25.2276 54.1005
662 1 12.1315 22.6457 37.0227
663 1 18.6282 40.9341 6.08334
664 1 46.0771 2.5757 24.6039
665 1 4.45073 53.0483 16.9204
666 1 31.568 53.934 8.07465
667 1 11.8276 47.2298 48.3922
668 1 45.3306 33.1017 18.3782
669 1 34.7739 2.64591 29.2134
670 1 34.9787 41.819 10.4391
671 1 17.441 27.7685 19.7301
672 1 37.7451 32.5436 30.6905
673 1 56.0846 28.1441 47.9036
674 1 39.886 50.9727 3.98228
675 1 13.1671 47.9556 37.2396
676 1 6.09599 33.2641 7.52487
677 1 27.2558 37.0014 51.2872
678 1 26.4154 17.1094 56.0213
679 1 1.78871 46.1385 27.4281
680 1 21.0012 48.2557 25.3139
681 1 8.75304 9.41137 19.7425
682 1 53.972 33.7596 14.939
683 1 53.5411 26.2448 34.6881
684 1 29.5214 1.5224 2.33563
685 1 31.0713 45.038 9.8734
686 1 52.0845 21.2454 34.6865
687 1 44.8669 48.9416 31.8976
688 1 34.8195 39.1999 20.3812
689 2 42.5233 33.2195 35.7307
690 2 17.9227 35.8655 0.760795
691 2 29.3507 41.2174 25.2939
692 2 50.3402 8.36037 11.9619
693 2 26.4867 13.1794 31.4997
694 2 24.7202 2.16154 48.1366
695 2 26.9157 21.6544 4.53659
696 2 34.1708 18.5058 8.34669
697 2 55.3548 0.152027 51.1112
698 2 47.9691 9.8418 29.6392
699 2 0.310726 19.2172 15.694
700 2 6.02753 2.84439 35.3915
701 2 2.13892 4.48322 26.8504
702 2 27.391 44.0447 32.6539
703 2 1.58206 43.3556 55.8867
704 2 54.7077 51.0107 32.8425
705 2 4.6325 34.5892 33.6267
706 2 29.175 26.8889 13.6751
707 2 35.3766 32.8842 44.78
708 2 43.1527 33.3906 8.17396
709 2 10.2468 36.9995 17.1725
710 2 42.3497 23.1483 18.0814
711 1 2.1111 54.0384 8.49811
712 1 38.7907 13.1816 53.4358
713 1 52.3252 11.3861 17.6571
714 1 30.6362 27.6362 26.7081
715 1 52.8641 24.4888 -0.343282
716 1 51.0734 12.6386 39.0447
717 1 30.2985 54.6046 42.5452
718 1 44.7775 48.2481 29.2417
719 1 43.0921 53.7008 17.6685
720 1 28.6553 8.33683 53.9699
721 1 1.09464 5.4067 29.7206
722 1 49.1406 20.8401 6.9941
723 1 43.3049 49.9925 36.1347
724 1 26.4159 7.66957 21.5614
725 1 48.8541 22.5588 39.2848
726 1 45.0769 41.7613 52.0325
727 1 4.07233 39.4726 7.02861
728 1 34.6624 54.2194 11.573
729 1 10.1685 21.6295 52.2447
730 1 9.82543 17.1645 33.9155
731 1 2.66537 42.358 7.65129
732 1 3.73768 19.1549 31.1915
733 1 49.9948 31.2503 46.2468
734 1 43.0382 38.9629 41.4034
735 1 34.7484 33.8952 6.38373
736 1 26.7736 22.7919 1.65587
737 1 13.9724 2.61852 38.6703
738 1 16.0444 41.071 0.82223
739 1 36.6512 53.0796 18.1352
740 1 51.0158 23.9622 9.95555
741 1 12.8824 51.0165 55.8733
742 1 35.6501 16.6518 9.85911
743 1 9.41364 51.903 46.4073
744 1 39.2853 9.18038 23.4296
745 1 2.15797 54.42 20.9298
746 1 20.9786 14.3105 50.5044
747 1 53.7358 54.7344 10.2578
748 1 47.0358 6.54577 5.90774
749 1 7.59875 54.1808 1.71822
750 1 54.2177 41.8896 42.7774
751 1 43.5692 44.7258 40.3125
752 1 37.6154 27.5502 21.4073
753 1 40.2563 49.7013 24.8628
754 1 15.3282 3.65522 35.5148
755 1 0.571645 34.7327 10.4139
756 1 36.3312 7.56674 32.4895
757 1 11.9535 2.02696 40.585
758 1 9.865 28.716 28.6677
759 1 37.4218 5.30032 2.33182
760 1 33.0986 2.05729 23.0646
761 1 25.1911 13.5516 8.51945
762 1 11.7712 25.0502 36.1878
763 1 -0.134104 12.1743 25.2783
764 1 34.5116 15.0168 8.20015
765 1 45.7813 17.554 48.8859
766 1 52.2083 43.9007 36.6113
767 1 3.78172 12.0753 1.75869
768 1 14.4903 11.7477 5.41356
769 1 0.653687 21.4963 2.3701
770 1 11.908 11.9027 48.4843
771 1 44.8986 54.3254 46.8765
772 1 13.4032 28.1853 16.0725
773 1 22.56 46.1097 44.313
774 1 5.42944 49.4444 47.3446
775 1 22.3136 33.0032 25.6574
776 1 37.76 1.18566 55.6032
777 1 40.5511 11.6942 43.086
778 1 5.26516 26.8664 13.5132
779 1 41.5216 39.7266 45.1687
780 1 40.4357 0.882639 40.8391
781 1 -0.435552 49.5217 39.301
782 1 46.0333 32.4229 54.7367
783 1 22.6974 41.4174 33.2927
784 1 27.9758 3.12497 31.7798
785 1 46.7203 23.9912 28.7355
786 1 32.3582 7.98935 0.633808
787 1 37.0912 42.5044 45.9838
788 1 27.4137 15.6744 50.077
789 1 50.5033 17.522 32.4086
790 1 27.9621 1.67632 42.2631
791 1 8.45123 22.188 33.984
792 1 7.24415 50.6796 28.3933
793 1 52.3389 15.7747 33.2299
794 1 10.0379 25.6881 14.4541
795 1 12.8066 20.3274 43.5747
796 1 38.2043 21.945 3.87114
797 1 52.6088 52.2303 40.7524
798 1 22.9081 0.721603 36.9051
799 1 11.3079 6.85816 47.6727
800 1 -0.143858 51.5213 17.081
801 1 13.1878 32.7855 16.4112
802 1 35.1857 28.5017 1.33427
803 1 50.6039 49.3197 25.1558
804 1 49.5608 7.04506 46.0007
805 1 24.3887 23.5634 25.4219
806 1 4.30276 30.0794 37.0513
807 1 34.6469 12.1665 54.2828
808 1 18.1838 1.96131 38.3297
809 1 39.4947 26.2818 42.9104
810 1 42.2148 44.5505 22.9895
811 1 5.21735 51.3011 3.6536
812 1 17.4477 0.450814 19.0394
813 1 26.5407 26.1092 48.218
814 1 11.0595 43.7765 28.0156
815 1 11.0365 24.8195 43.0457
816 1 21.2051 1.81718 38.4074
817 1 24.5955 42.8201 47.9417
818 1 8.91766 28.1585 15.7573
819 1 10.7884 32.946 46.6481
820 1 21.5341 42.4779 48.0356
821 1 42.3755 47.3416 34.9534
822 1 45.9271 0.0498839 5.70193
823 1 15.6044 28.2539 42.7163
824 1 24.9702 33.3096 24.017
825 1 18.1419 54.5022 19.4936
826 1 22.5997 5.81545 31.2749
827 1 18.5036 14.6647 38.8795
828 1 23.1887 35.9835 14.2437
829 1 53.5789 20.4053 45.039
830 1 12.9779 23.0806 24.8133
831 2 11.5732 8.79635 10.2756
832 2 20.2826 10.412 27.8414
833 2 42.364 26.3979 15.7985
834 2 4.6819 18.4303 34.2886
835 2 10.5239 2.2688 9.63992
836 2 18.5419 21.6938 15.4689
837 2 33.1022 6.68859 31.9819
838 2 27.4269 45.096 14.6083
839 2 37.573 46.1811 32.2794
840 2 5.52874 19.8442 50.6176
841 2 54.7165 43.4928 14.3327
842 2 36.4765 19.4803 49.4953
843 2 32.7973 13.7459 37.1655
844 2 32.5754 28.4506 29.3502
845 2 15.0373 5.1822 30.6821
846 2 24.9074 21.2813 30.9201
847 2 35.959 48.42 47.8884
848 2 54.093 2.07238 19.9369
849 2 6.398 31.062 32.8363
850 2 13.948 9.0662 7.11639
851 2 32.8015 49.789 42.7398
852 2 40.9617 36.9776 35.1241
853 1 34.7543 55.9275 26.7777
854 1 22.7981 23.4991 55.6542
855 1 14.3019 32.8313 49.7907
856 1 41.9148 49.5849 20.0066
857 1 39.617 44.7712 22.596
858 1 47.5039 13.4432 23.3376
859 1 20.6199 39.6158 53.3372
860 1 14.7045 32.9171 7.11353
861 1 19.1117 53.4698 37.7025
862 1 39.506 16.4421 28.7318
863 1 25.1812 44.0166 52.35
864 1 17.0024 32.3988 44.1073
865 1 53.4891 44.9893 49.1977
866 1 49.227 17.5204 3.8381
867 1 16.0169 3.94298 37.9035
868 1 43.6186 45.6967 15.3523
869 1 23.8326 45.2103 31.7013
870 1 21.955 44.789 4.87279
871 1 40.873 51.7118 52.8984
872 1 47.027 43.8084 32.7249
873 1 6.87749 8.61236 39.4996
874 1 49.944 11.9991 34.5255
875 1 47.0096 21.2362 33.1735
876 1 9.16351 43.4321 16.4222
877 1 53.4678 15.0301 15.0146
878 1 15.3957 21.0726 9.25762
879 1 54.8413 8.36569 39.9173
880 1 54.4389 3.34302 50.6552
881 1 46.2148 1.47127 56.3565
882 1 45.9368 7.32104 30.8362
883 1 55.5738 51.3344 41.3069
884 1 54.4665 14.8471 44.8
885 1 43.4746 35.3509 31.0927
886 1 27.537 23.7246 30.1002
887 1 10.6665 43.5529 21.2022
888 1 46.3884 15.7965 11.4218
889 1 0.98461 25.0942 15.0677
890 1 22.8747 14.907 9.98985
891 1 19.9057 21.3673 12.0513
892 1 1.51698 50.6655 28.7008
893 1 16.7045 43.6283 34.6155
894 1 37.435 13.6687 28.8955
895 1 15.0035 47.0328 0.490009
896 1 28.6248 30.0238 12.5722
897 1 29.1698 22.5358 52.3224
898 1 35.8565 46.3384 2.97819
899 1 38.2722 31.1538 51.9359
900 1 47.2451 2.72213 40.2276
901 1 38.7695 46.5625 49.6986
902 1 18.7297 52.2947 48.0569
903 1 12.2864 17.6421 42.5083
904 1 27.2118 47.0062 56.2126
905 1 33.6241 24.4709 38.6365
906 1 37.1732 50.5987 19.1788
907 1 47.5803 46.0208 8.85713
908 1 47.3055 38.5809 2.65247
909 1 10.7268 46.5383 4.88638
910 1 43.3736 36.7952 55.2321
911 1 21.5306 16.1399 31.5299
912 1 15.067 3.05684 15.579
913 1 39.6938 35.5893 39.4066
914 1 10.4391 14.1942 47.712
915 1 20.7114 41.8936 42.9408
916 1 12.0366 39.3226 43.3356
917 1 43.8396 1.88126 22.571
918 1 1.56209 37.3428 43.831
919 1 34.5754 38.5986 33.266
920 1 0.488906 1.3132 53.0359
921 1 21.1786 26.2339 5.62847
922 1 55.5559 2.66633 7.4574
923 1 22.1744 36.4504 20.7364
924 1 23.9247 0.283147 45.6793
925 1 22.1821 8.03746 39.6384
926 1 34.4365 23.5564 0.589101
927 1 29.0629 53.3419 36.3108
928 1 21.6135 6.6458 21.2153
929 1 36.3114 10.5106 31.2845
930 1 0.0880569 30.5581 15.1724
931 1 23.3687 42.6177 50.4089
932 1 24.2182 53.3455 35.4775
933 1 48.6113 45.0026 52.2947
934 1 31.4592 15.9825 25.3164
935 1 5.7627 23.1719 40.1588
936 1 15.5106 55.9142 17.7907
937 1 24.8663 20.3589 49.5765
938 1 40.1163 52.6476 29.6981
939 1 11.5726 10.1201 18.9355
940 1 19.2028 5.46932 56.2637
941 1 39.96 13.4031 2.20677
942 1 48.4494 18.683 50.4341
943 1 16.0617 52.6835 39.4644
944 1 39.081 49.3215 49.2199
945 1 12.0499 12.6273 38.1546
946 1 26.047 35.7998 2.60408
947 1 7.26793 49.2523 20.6417
948 1 48.4056 17.6705 22.9147
949 1 25.2549 56.1441 48.6091
950 1 6.18318 37.348 43.8664
951 1 7.41892 52.8364 3.96261
952 1 13.79 11.2439 42.012
953 1 48.8869 21.4634 26.3397
954 1 48.3839 4.75596 41.6539
955 1 18.5905 52.9573 5.09117
956 1 18.3274 33.6557 46.5579
957 1 38.9183 7.83448 5.69958
958 1 11.9427 11.6963 9.54931
959 1 53.9081 42.7627 6.51684
960 1 21.6419 10.4467 41.6821
961 1 39.5967 21.3965 6.29027
962 1 34.5749 38.3196 38.3133
963 1 24.4132 56.2162 35.2127
964 1 40.3615 32.8814 51.6013
965 1 24.5084 4.1691 16.7387
966 1 9.30751 52.5081 27.022
967 1 36.017 24.2283 8.87657
968 1 24.6116 38.31 43.165
969 1 24.518 53.6637 24.1099
970 1 18.23 8.45882 35.1077
971 1 33.88 48.9487 11.2492
972 1 26.6361 42.2245 35.4961
973 2 34.3623 52.3862 48.903
974 2 49.5724 8.34134 54.2644
975 2 6.23206 39.4968 36.0383
976 2 14.155 18.5841 52.414
977 2 23.5647 55.2846 10.4572
978 2 3.5049 32.7175 3.06586
979 2 38.6591 9.93423 47.3484
980 2 27.8081 26.6947 32.9631
981 2 9.80299 1.2032 26.5194
982 2 12.6926 2.11413 6.37255
983 2 4.43636 34.8131 56.3063
984 2 30.1379 17.2155 17.8898
985 2 27.1753 -0.349598 18.7927
986 2 25.3682 26.0188 16.5703
987 2 44.8906 37.3074 11.1091
988 2 48.8953 5.62368 31.1864
989 2 22.5731 0.367599 26.2466
990 2 25.5027 7.86798 4.12011
991 2 44.5941 36.6955 40.3139
992 2 16.9357 28.0327 30.0877
993 2 6.89897 52.0571 9.44927
994 2 9.41536 3.70826 23.2763
995 1 44.8332 9.45949 51.9243
996 1 15.7573 52.7818 56.1813
997 1 52.9602 35.5378 42.557
998 1 5.55607 53.4603 38.1077
999 1 49.4904 45.6033 14.0973
1000 1 16.5868 11.7 46.7646
1001 1 51.1919 44.0543 6.09164
1002 1 14.0373 28.0367 44.9843
1003 1 43.8871 21.5432 55.0849
1004 1 13.4261 33.3232 47.2141