ITEM: TIMESTEP
0
ITEM: NUMBER OF ATOMS
9088
ITEM: BOX BOUNDS pp pp pp
-1.4334036321797142e-01 5.6027832989106471e+01
-1.4334036321797142e-01 5.6027832989106471e+01
-1.4334036321797142e-01 5.6027832989106471e+01
ITEM: ATOMS id type x y z
1 1 28.4443 41.2109 49.0547
2 1 44.2389 4.47328 36.5105
3 1 41.74 12.7226 50.1793
4 1 37.0914 49.131 43.6547
5 1 11.2336 34.3986 8.46759
6 1 35.9911 25.6825 21.7949
7 1 19.7768 33.0416 1.21341
8 1 48.2936 1.82873 9.33843
9 1 55.5897 50.1993 40.1479
10 1 36.7698 13.4865 53.2619
11 1 48.6622 35.7398 32.635
12 1 35.6021 19.4358 36.6799
13 1 21.7527 48.6473 36.9016
14 1 19.8451 49.4905 50.0117
15 1 3.19588 36.7187 30.4726
16 1 26.7892 0.751777 38.8044
17 1 50.2939 9.98124 27.9872
18 1 4.00399 47.7691 36.0775
19 1 30.0039 23.8731 51.8322
20 1 31.0911 2.37668 44.8263
21 1 25.2709 49.1761 50.275
22 1 9.77986 41.5519 1.93892
23 1 21.9332 17.7845 37.8881
24 1 3.46141 7.83541 55.3302
25 1 26.3341 27.313 38.8557
26 1 19.8139 28.0936 43.3844
27 1 34.7909 29.1627 54.4106
28 1 13.4253 32.7643 14.8607
29 1 10.9728 50.2582 40.0631
30 1 49.0801 7.38295 44.4492
31 1 30.7108 4.93122 0.177499
32 1 34.0388 5.36393 23.4227
33 1 24.4186 41.9657 2.73102
34 1 14.4616 24.6552 1.93448
35 1 20.2672 51.1998 40.4756
36 1 16.5379 32.3111 19.0173
37 1 23.8203 55.9567 46.8856
38 1 23.4867 21.1596 5.66338
39 1 13.2523 26.1891 0.181861
40 1 8.81895 11.3543 47.8497
41 1 46.6261 40.9398 1.12109
42 1 5.51317 38.8675 15.0342
43 1 21.8645 17.19 9.65692
44 1 50.7393 51.8838 23.6928
45 1 12.9606 43.7358 55.9428
46 1 0.14222 17.7422 11.1586
47 1 42.726 6.3417 32.0331
48 1 18.4202 30.6412 19.9145
49 1 7.24046 19.9599 32.6094
50 1 18.3112 19.386 20.6403
51 1 50.1235 32.2812 30.367
52 1 22.3649 10.4206 37.5175
53 1 52.5984 20.4577 1.27928
54 1 52.1248 17.9794 42.8756
55 1 39.8177 44.9263 29.3528
56 1 11.5734 25.4782 44.7994
57 1 7.04519 33.2678 34.802
58 1 37.3764 11.4552 21.7479
59 1 5.51942 30.5225 28.5217
60 1 36.0997 32.6751 54.7681
61 1 11.8926 27.2392 54.1316
62 1 52.7448 22.3629 24.4338
63 1 49.4427 43.3054 28.7371
64 1 22.3208 4.25376 16.1718
65 1 11.0589 42.3717 47.8846
66 1 8.14902 45.1095 10.3179
67 1 12.3303 43.1988 52.9905
68 1 11.2933 33.6116 52.3846
69 1 37.2868 38.3266 45.8621
70 1 1.95954 28.0667 5.02379
71 1 52.0839 46.9159 28.1716
72 1 55.3288 29.5791 1.43322
73 1 25.5211 46.3488 4.9636
74 1 4.85125 33.2256 47.0659
75 1 37.6465 19.5424 5.33481
76 1 38.576 23.8554 5.87109
77 1 47.4267 40.2608 32.0287
78 1 33.899 40.7751 10.4362
79 1 31.7225 23.5911 42.7854
80 1 39.3925 0.317059 30.7741
81 1 17.5366 27.7097 54.2635
82 1 50.5003 1.23159 23.8596
83 1 8.00882 14.9972 27.795
84 1 36.4231 2.13997 3.82347
85 1 39.4637 10.8297 38.5016
86 1 34.599 34.0316 34.7987
87 1 26.0232 8.01395 31.7538
88 1 15.9477 11.804 13.0813
89 1 7.19949 47.925 39.4629
90 1 1.30778 39.6019 51.2355
91 1 17.8771 7.75047 21.5132
92 1 10.1587 12.0459 19.2214
93 1 38.3371 9.67359 11.4173
94 1 35.6706 34.1215 28.7496
95 1 40.764 24.4657 18.9042
96 1 7.06481 -0.0690316 13.7576
97 1 3.48845 8.85523 32.7758
98 1 18.1002 12.8528 30.4169
99 1 42.4651 36.4843 5.65365
100 1 3.73512 6.08794 26.8808
101 1 0.438223 33.647 47.3584
102 1 5.06059 1.03982 12.2512
103 1 41.6938 43.2013 55.8595
104 1 14.7083 54.8092 39.353
105 1 31.4719 13.8618 11.0864
106 1 19.0349 48.4091 47.6094
107 1 32.7634 0.0906639 44.9179
108 1 46.5609 17.1145 47.3847
109 1 10.2283 45.9159 16.5838
110 1 31.3008 9.16871 10.746
111 1 37.5148 54.2337 15.1894
112 1 5.59965 5.45423 10.1849
113 1 28.9097 33.2695 11.3736
114 1 24.223 16.8328 39.9815
115 1 42.8676 34.6249 31.276
116 1 32.067 6.17775 37.7927
117 1 0.133201 12.337 40.423
118 1 1.564 43.881 31.9415
119 1 36.2866 36.0072 33.8449
120 1 14.9572 1.62846 39.768
121 2 11.8785 38.9133 35.231
122 2 51.5297 18.6225 12.8865
123 2 55.1825 46.4971 20.7834
124 2 52.5465 29.7765 19.7656
125 2 53.8099 35.3819 38.5903
126 2 25.1791 7.4848 17.9186
127 2 12.36 51.3684 15.6447
128 2 7.78696 30.0746 35.2922
129 2 55.1557 17.7431 7.73545
130 2 1.40201 21.0354 45.8251
131 2 52.0907 12.0785 47.1406
132 2 39.036 46.4818 17.827
133 2 34.8113 42.7291 16.1166
134 2 15.18 5.19431 9.10664
135 2 42.9446 33.9332 3.74568
136 2 10.0747 0.702497 31.9984
137 2 40.8181 24.1963 46.1615
138 2 5.42961 4.87722 49.1482
139 2 31.0798 14.9601 13.9009
140 2 45.5503 27.4974 38.9215
141 2 7.98656 38.3654 22.8626
142 2 29.6723 23.5002 40.1431
143 1 46.9571 19.7597 45.7673
144 1 29.265 17.703 13.5792
145 1 54.2211 12.5134 6.45823
146 1 52.1897 26.7622 15.4485
147 1 29.5481 28.2959 32.363
148 1 27.0331 10.3003 38.352
149 1 46.2995 6.4884 44.846
150 1 25.1012 25.5529 9.50953
151 1 49.9674 24.3116 53.9792
152 1 10.4039 33.7236 45.3572
153 1 49.9259 48.4153 29.4219
154 1 43.0868 41.8863 30.8989
155 1 32.4896 18.6012 10.376
156 1 8.19366 33.2555 9.27896
157 1 51.3984 34.0456 22.2181
158 1 37.6156 5.4062 0.427101
159 1 54.7846 47.8697 13.8076
160 1 49.2835 2.49409 2.24141
161 1 10.7723 25.4854 21.3096
162 1 13.0669 12.9378 44.0102
163 1 20.0147 21.3174 26.6753
164 1 55.7778 38.2564 11.9492
165 1 51.2176 35.4757 6.67863
166 1 45.1549 41.6524 14.7815
167 1 31.3204 39.586 46.2316
168 1 36.7528 7.89832 43.2481
169 1 28.3375 50.6817 39.3813
170 1 39.5204 33.9079 47.0217
171 1 28.5219 32.9348 23.6929
172 1 21.3691 43.6314 28.452
173 1 14.0688 39.8121 10.0546
174 1 35.2908 1.91959 32.4616
175 1 18.7717 28.0161 16.344
176 1 39.6405 36.9583 6.64482
177 1 9.96954 4.87959 24.8864
178 1 18.4721 5.70581 8.95781
179 1 26.9349 45.0205 48.0376
180 1 55.1183 26.9771 8.42989
181 1 48.4936 42.7906 31.5299
182 1 49.3785 30.4039 52.4688
183 1 13.4973 20.3968 4.08601
184 1 25.8386 52.8184 12.1005
185 1 33.2521 10.1782 34.3386
186 1 43.7459 26.5585 26.5999
187 1 1.53652 6.96754 53.2508
188 1 28.5247 39.3771 3.47885
189 1 13.4306 41.4237 34.0958
190 1 35.6504 48.597 21.956
191 1 20.6355 19.0138 45.8435
192 1 50.3046 0.0691578 8.13082
193 1 37.1502 8.55913 13.8873
194 1 36.0505 4.12701 30.8099
195 1 24.7191 27.7086 1.07678
196 1 34.7333 5.31296 26.4883
197 1 7.14821 9.32241 49.2883
198 1 12.7839 18.9044 28.562
199 1 31.4972 18.8574 3.24564
200 1 39.9319 20.5727 41.2599
201 1 26.7355 12.9073 16.0716
202 1 39.0183 2.03991 2.88179
203 1 31.38 27.6864 37.037
204 1 40.907 27.2874 19.2987
205 1 8.00022 12.5991 2.71391
206 1 39.3493 25.3256 24.4223
207 1 0.100449 45.0052 45.9739
208 1 31.9843 5.20382 10.7935
209 1 47.7864 6.76269 47.093
210 1 27.4817 21.7644 41.7343
211 1 8.70898 5.72602 21.7617
212 1 43.2866 27.3032 43.1316
213 1 22.2838 12.4211 51.1607
214 1 1.02474 37.4701 2.59607
215 1 11.5885 27.8954 22.9123
216 1 0.0935597 24.4919 50.8592
217 1 22.0947 8.81358 35.2335
218 1 1.39371 9.6169 54.1664
219 1 44.0068 51.5131 5.85707
220 1 44.5147 8.2153 43.8055
221 1 30.6 0.669827 17.1416
222 1 2.69758 7.64943 21.7343
223 1 26.2102 44.2259 3.0804
224 1 42.464 8.96683 25.4029
225 1 43.7339 48.7795 38.2978
226 1 12.7895 42.0989 25.3802
227 1 20.1784 45.6782 33.4315
228 1 55.8246 20.0275 52.7972
229 1 11.2152 27.3614 42.7826
230 1 31.0465 30.0114 41.212
231 1 31.7929 35.2365 25.2369
232 1 40.9766 16.8719 17.8181
233 1 50.884 50.134 38.2345
234 1 10.7938 14.1893 51.2399
235 1 41.5977 18.5416 42.0745
236 1 6.98014 47.7407 29.5071
237 1 52.812 29.8235 23.7114
238 1 38.857 1.51816 0.0662934
239 1 34.0009 28.792 6.13242
240 1 9.18639 32.9115 51.0635
241 1 20.2558 49.1834 10.7463
242 1 33.1349 11.0057 2.92879
243 1 7.48607 24.2482 33.4592
244 1 55.7654 42.1991 7.6362
245 1 1.68999 27.8616 20.0387
246 1 53.9353 5.58234 5.83235
247 1 54.303 48.9925 11.1966
248 1 44.1437 0.497863 45.5911
249 1 10.673 44.8652 48.7713
250 1 23.491 24.4876 18.077
251 1 17.721 39.3217 3.98557
252 1 47.7457 16.5422 38.605
253 1 2.93426 26.9193 48.2684
254 1 9.32978 8.41316 32.4919
255 1 55.0082 9.1292 18.0641
256 1 31.0518 47.278 24.6227
257 1 1.50963 12.3742 35.1542
258 1 33.2468 18.644 27.9547
259 1 45.5782 45.8485 55.0416
260 1 24.8956 41.3402 33.9625
261 1 32.157 10.763 39.5233
262 1 23.7564 44.338 8.24863
263 2 43.8696 24.7516 29.3278
264 2 25.6442 47.0615 1.74812
265 2 49.9197 7.25872 49.097
266 2 7.0533 24.5817 38.6097
267 2 14.5336 21.3568 1.37575
268 2 4.68682 3.33112 24.5151
269 2 15.1348 2.54028 16.6109
270 2 44.3997 43.3446 53.5476
271 2 53.8189 44.6365 26.2051
272 2 33.3439 40.414 13.7399
273 2 33.2121 6.22749 34.6719
274 2 52.9634 26.9539 30.5616
275 2 27.301 7.18576 53.1112
276 2 -0.116821 13.9464 4.37777
277 2 1.22142 43.0085 39.5295
278 2 11.8811 34.5605 18.6427
279 2 43.8439 51.5527 46.5734
280 2 19.9469 55.2354 22.3077
281 2 41.3989 16.9125 14.6611
282 2 15.1989 28.7614 8.18364
283 2 46.7188 47.7809 28.7227
284 2 16.9428 27.1296 34.8705
285 1 4.88037 35.4245 5.79826
286 1 49.5014 34.7655 20.3935
287 1 44.3234 1.75958 36.2271
288 1 20.2802 16.9017 29.5193
289 1 22.9735 31.662 4.19778
290 1 50.5287 13.0038 24.1007
291 1 18.0593 44.0806 34.4286
292 1 40.8142 5.253 43.9166
293 1 54.5748 19.354 55.4597
294 1 30.9141 32.7824 41.7624
295 1 46.9886 25.3772 29.8308
296 1 12.4387 32.294 35.0868
297 1 48.2833 14.184 34.0138
298 1 31.096 22.1305 12.9708
299 1 31.8834 18.8423 17.7603
300 1 24.5836 31.9584 9.52782
301 1 24.7473 49.7478 23.2154
302 1 46.7529 33.5104 25.96
303 1 53.7815 3.42692 1.57512
304 1 13.3679 34.605 53.9083
305 1 25.41 38.4872 23.0617
306 1 28.9682 52.1739 32.7937
307 1 5.22235 40.13 32.3269
308 1 39.9255 54.1403 45.383
309 1 49.5198 30.8711 28.3555
310 1 10.5096 53.0225 38.5679
311 1 38.2076 35.114 5.40551
312 1 10.4411 7.94412 25.8006
313 1 5.1324 55.2726 18.1123
314 1 29.1271 47.6414 53.1235
315 1 4.53388 6.15978 14.8784
316 1 43.8231 10.3489 10.7005
317 1 30.4192 32.0308 38.9307
318 1 5.99705 23.2285 11.4542
319 1 3.28327 2.61186 18.304
320 1 18.9656 33.7012 25.5711
321 1 26.1706 38.6013 34.0011
322 1 55.1344 21.6911 23.1396
323 1 11.3568 10.7716 32.6791
324 1 18.465 8.79844 32.1338
325 1 21.5565 45.966 43.1819
326 1 16.635 32.0236 41.0544
327 1 12.3639 9.29242 34.9615
328 1 0.661176 8.14573 36.7354
329 1 4.50901 25.4385 45.0218
330 1 7.95039 30.6724 30.1256
331 1 15.8132 39.2237 52.4732
332 1 0.777378 44.0612 11.6603
333 1 16.1073 14.0251 10.7703
334 1 33.6668 35.0997 22.7579
335 1 35.1219 13.2687 50.9711
336 1 49.9139 21.3267 12.9812
337 1 1.12322 34.2221 7.60007
338 1 9.62582 23.1489 22.4659
339 1 15.2921 24.4945 44.6094
340 1 25.0656 23.2385 26.1442
341 1 26.5666 50.8743 25.0872
342 1 0.141289 26.7819 17.8302
343 1 35.6746 14.2647 27.7118
344 1 33.1134 15.8995 11.4721
345 1 48.817 16.5548 4.20765
346 1 0.40933 6.80885 23.7313
347 1 19.8394 18.6298 11.038
348 1 12.8905 10.5396 22.6523
349 1 4.61649 37.037 10.4106
350 1 1.88337 53.6035 51.2232
351 1 45.1153 35.6501 5.29982
352 1 18.9491 8.29242 52.2258
353 1 24.3603 34.7565 53.612
354 1 46.4877 37.2299 39.6127
355 1 48.7444 28.5564 38.772
356 1 9.88868 40.083 42.9839
357 1 20.2966 50.3471 52.9407
358 1 21.7916 24.0549 36.5961
359 1 28.9997 44.8706 46.2763
360 1 16.5595 38.2275 45.326
361 1 39.9812 22.2921 43.4915
362 1 0.323778 53.7472 4.64383
363 1 44.2994 18.1265 14.9736
364 1 41.1162 0.560759 32.9124
365 1 40.3909 45.0787 6.76643
366 1 15.7022 34.4071 14.7444
367 1 50.5803 46.9965 38.2364
368 1 40.4085 44.8175 26.5802
369 1 33.257 14.247 15.8809
370 1 3.61123 40.78 50.5832
371 1 19.4047 28.0138 48.9751
372 1 13.7918 22.2999 33.8006
373 1 21.7507 0.0635586 38.473
374 1 47.0772 50.2816 2.55299
375 1 4.06467 52.8671 35.0081
376 1 42.9025 49.0194 25.0486
377 1 5.87245 24.1145 55.3055
378 1 29.2596 52.5655 21.3748
379 1 51.4388 39.253 20.2246
380 1 10.9888 13.1729 26.7259
381 1 26.3411 50.2893 29.0894
382 1 55.1326 22.6604 8.49615
383 1 12.7031 23.5587 22.5363
384 1 49.3256 16.5654 32.9329
385 1 29.7497 9.05562 19.6314
386 1 36.0281 38.6584 23.2744
387 1 21.1097 33.7229 39.4629
388 1 24.375 6.98108 40.3393
389 1 26.3766 10.9577 14.3862
390 1 45.2867 48.7781 31.8121
391 1 7.16194 9.20273 6.77043
392 1 48.4121 48.9162 37.293
393 1 3.37103 27.6813 0.900951
394 1 3.26577 37.7833 46.6628
395 1 55.0104 7.69076 48.1496
396 1 14.7922 5.0368 23.9893
397 1 49.6294 26.0196 22.3686
398 1 21.8022 29.3524 4.08847
399 1 7.03261 54.2146 41.7983
400 1 35.838 42.8172 27.5786
401 1 18.6942 30.7982 24.9366
402 1 31.843 48.2554 43.5979
403 1 12.9603 42.3338 28.3717
404 1 26.7811 34.8352 45.8774
405 2 19.7957 8.22481 14.1288
406 2 36.1582 30.8858 7.91876
407 2 34.2931 13.0521 12.9506
408 2 24.8239 49.7699 12.9457
409 2 46.9776 0.163572 16.5678
410 2 36.5763 49.1428 16.3602
411 2 5.80965 41.5083 17.0313
412 2 53.547 8.86384 35.9227
413 2 31.0792 21.6778 45.1973
414 2 12.6829 35.058 47.6307
415 2 55.7834 51.5811 9.31959
416 2 51.8837 42.8056 55.0721
417 2 44.3295 5.00914 10.3822
418 2 7.41496 36.0777 11.221
419 2 15.5261 54.321 22.4321
420 2 23.8125 22.9376 23.2401
421 2 41.3481 49.3263 9.77181
422 2 32.0827 16.1914 8.29062
423 2 8.15967 0.59854 43.3039
424 2 52.1855 10.7006 5.12551
425 2 48.0023 51.7602 38.9397
426 2 37.2834 8.42735 38.1071
427 1 29.6799 29.9261 -0.0182194
428 1 4.27075 53.6264 52.4379
429 1 55.6163 27.5117 50.9664
430 1 51.8856 54.776 9.80715
431 1 20.0717 47.5293 26.287
432 1 42.5405 8.11135 6.51046
433 1 39.9113 24.6859 13.6888
434 1 13.2212 22.7971 44.0244
435 1 23.0628 52.4301 8.61128
436 1 32.4165 31.7989 48.3667
437 1 26.2867 24.3781 33.4027
438 1 47.1923 3.28346 35.2937
439 1 1.50681 38.1786 54.2019
440 1 9.13887 25.5229 29.5003
441 1 22.4382 14.6063 10.8058
442 1 42.6661 18.6383 17.0787
443 1 41.7552 10.6611 27.3567
444 1 51.5245 42.2262 47.7702
445 1 5.27915 14.7332 17.9268
446 1 38.4438 31.568 39.9834
447 1 20.7575 52.1019 10.2835
448 1 44.2573 2.70901 55.8273
449 1 54.0566 6.95704 28.9334
450 1 51.2493 33.3377 0.196491
451 1 27.7747 49.0492 13.9613
452 1 48.0058 12.3152 22.7639
453 1 9.24882 21.3315 33.7757
454 1 5.46873 35.3376 51.9663
455 1 7.01506 22.037 23.6021
456 1 46.4984 3.82777 51.4706
457 1 53.3823 38.8866 18.484
458 1 27.1864 20.0981 36.6651
459 1 3.11898 34.707 9.87833
460 1 29.44 0.210506 34.2645
461 1 8.24193 16.7385 17.3654
462 1 48.4495 27.6218 9.4879
463 1 15.6168 2.31852 7.49621
464 1 31.5401 52.4896 22.9317
465 1 7.61427 46.569 17.456
466 1 4.94902 47.7341 5.53383
467 1 47.2663 11.2017 38.0227
468 1 44.9765 53.8648 6.81953
469 1 14.9599 43.5215 24.535
470 1 28.5006 0.366772 14.9479
471 1 26.5535 10.0497 3.5836
472 1 15.1575 38.2475 27.9536
473 1 48.6977 38.7504 46.6214
474 1 39.8963 12.2116 16.9155
475 1 23.0247 25.015 20.6415
476 1 12.237 21.8919 40.3033
477 1 48.911 3.27798 37.375
478 1 41.4 7.27977 14.0284
479 1 55.4177 25.8145 35.4412
480 1 40.7879 8.52896 3.89283
481 1 25.4992 1.55181 51.0502
482 1 29.894 37.1679 22.6985
483 1 46.3543 19.4532 34.0493
484 1 5.85873 37.1187 7.57187
485 1 18.3578 45.2913 25.1809
486 1 47.0337 8.03444 42.7086
487 1 21.0219 12.7896 22.121
488 1 6.05056 47.3104 25.4722
489 1 2.92834 44.4427 13.4609
490 1 24.3699 49.6129 26.2064
491 1 13.4684 29.8454 47.3729
492 1 27.1613 24.6595 41.7305
493 1 44.0559 30.268 33.9654
494 1 4.79007 54.6058 13.4269
495 1 11.8773 33.936 13.0822
496 1 39.1265 17.8275 37.0724
497 1 7.33457 17.2709 32.0623
498 1 19.4635 20.6223 8.85085
499 1 34.0302 29.9653 20.1335
500 1 51.7818 3.26489 36.2016
501 1 16.3832 50.8868 43.5668
502 1 50.7864 42.7513 6.99717
503 1 42.3543 21.2676 42.6623
504 1 40.2048 46.9528 32.2271
505 1 38.4215 27.5878 3.86952
506 1 22.2039 27.4671 41.8679
507 1 53.5161 54.4115 32.324
508 1 10.7365 42.9633 17.6031
509 1 53.5332 29.4324 8.02107
510 1 30.6592 0.618591 3.8127
511 1 49.8172 5.53198 6.12033
512 1 14.2521 50.3995 13.0246
513 1 33.3898 30.3422 29.1401
514 1 28.4062 27.8895 20.9849
515 1 29.0751 12.65 27.3758
516 1 5.27264 40.6847 37.3083
517 1 15.518 3.22851 0.175811
518 1 24.006 12.2804 13.3039
519 1 8.07966 12.0314 45.0075
520 1 35.7817 17.7694 4.70757
521 1 45.8867 25.0277 32.4201
522 1 7.26083 17.1219 0.719681
523 1 38.7026 1.91124 25.9609
524 1 39.9121 51.7353 32.2488
525 1 25.7039 41.5754 22.5804
526 1 26.5815 15.8088 30.3883
527 1 29.1793 54.4977 23.5071
528 1 2.38847 6.66501 6.00997
529 1 40.089 8.79176 33.4732
530 1 38.1733 16.7656 18.5717
531 1 39.2542 8.1225 48.4824
532 1 35.1259 9.84614 11.8584
533 1 43.0344 6.11986 20.6926
534 1 19.6017 35.6922 20.4281
535 1 43.0756 2.9497 38.3712
536 1 38.8423 22.2897 15.3978
537 1 19.0473 22.1717 20.8516
538 1 6.75037 27.3664 2.78597
539 1 28.7262 37.646 33.261
540 1 48.126 12.0533 16.5027
541 1 42.7789 5.83259 7.8459
542 1 32.8749 47.77 36.0493
543 1 37.9303 44.8874 35.1232
544 1 31.7252 34.8843 15.2015
545 1 51.77 24.4787 5.70239
546 1 23.5672 50.7603 40.9754
547 2 15.2437 40.8949 26.5849
548 2 12.9182 46.6471 1.47303
549 2 34.9237 47.6041 25.6938
550 2 55.5659 51.3956 12.9986
551 2 52.4196 7.17496 17.0733
552 2 9.84678 7.02811 35.2395
553 2 37.4564 10.016 16.9568
554 2 23.4774 5.82628 53.0667
555 2 14.7699 12.8985 21.5014
556 2 12.8007 41.5734 43.0291
557 2 13.9483 5.6143 33.8819
558 2 17.3524 33.1381 3.4446
559 2 40.0067 17.11 21.1074
560 2 5.26897 16.4154 29.4572
561 2 38.5397 12.6874 50.8386
562 2 4.01224 19.7511 28.437
563 2 29.9755 46.9005 34.815
564 2 16.7218 5.18878 39.9775
565 2 20.129 22.4179 34.792
566 2 31.0757 13.6292 38.9817
567 2 44.6572 38.4587 0.609232
568 2 43.4957 18.1733 20.3165
569 1 14.8022 1.43889 19.4429
570 1 52.3732 36.766 49.4268
571 1 20.5064 14.3891 5.75033
572 1 46.3422 14.9668 53.3099
573 1 15.6847 15.3219 25.938
574 1 30.309 46.0934 17.3075
575 1 30.0465 49.7666 42.2558
576 1 13.9745 56.0042 11.3552
577 1 1.7757 6.28819 15.4076
578 1 55.3381 39.898 44.4137
579 1 34.1409 44.6754 48.2646
580 1 21.1367 31.9164 6.28838
581 1 37.6479 10.5161 29.2851
582 1 12.0364 41.5537 38.0257
583 1 45.3783 25.4184 18.1291
584 1 28.8318 40.7411 29.1668
585 1 33.3457 8.24152 23.2625
586 1 55.4255 0.0197474 31.1515
587 1 10.7539 1.72347 7.32981
588 1 9.09432 44.0276 46.6463
589 1 34.4434 47.0546 49.6946
590 1 55.9821 7.40146 6.77924
591 1 13.0908 9.48772 31.0026
592 1 52.6524 33.2135 6.57186
593 1 18.9543 25.0895 33.6516
594 1 2.87913 42.3257 41.9855
595 1 34.2171 12.0999 43.6145
596 1 3.62589 4.87426 39.0463
597 1 28.946 51.5345 7.80929
598 1 48.8259 47.4238 25.1226
599 1 5.15081 3.6016 13.3937
600 1 11.8265 32.197 4.54513
601 1 21.9855 42.1267 54.0742
602 1 3.11995 42.4127 15.5422
603 1 26.6985 35.554 52.0145
604 1 5.51498 21.7928 30.0025
605 1 28.3282 43.2612 27.5656
606 1 27.7635 46.5726 30.611
607 1 38.93 14.179 33.6655
608 1 37.3019 4.88179 49.3033
609 1 33.9556 30.445 12.965
610 1 43.3725 5.60536 44.8626
611 1 20.7601 44.8468 30.9323
612 1 17.9084 46.8336 45.3888
613 1 3.47358 51.2478 1.04105
614 1 53.7177 33.3646 10.7442
615 1 5.74848 42.7842 41.2774
616 1 38.5334 3.64507 54.6888
617 1 16.4068 11.68 51.6304
618 1 5.40903 55.5506 53.8168
619 1 36.473 11.5431 27.1673
620 1 28.2187 26.91 25.6034
621 1 53.0793 8.83464 27.2137
622 1 4.10255 29.6732 43.9144
623 1 15.0757 44.2303 12.1036
624 1 27.7746 9.50949 55.0974
625 1 10.1604 15.2102 25.2742
626 1 39.0125 27.4686 22.6758
627 1 33.3796 37.9964 1.83133
628 1 31.4445 10.1901 17.2925
629 1 42.1926 46.5436 11.2017
630 1 39.4093 55.5195 22.4899
631 1 43.5717 28.83 13.7527
632 1 4.60976 32.448 26.6864
633 1 15.809 6.57953 49.2597
634 1 47.739 45.4695 17.8514
635 1 29.506 44.7083 23.315
636 1 5.9813 6.8591 17.1908
637 1 1.02697 14.9037 39.7986
638 1 32.5776 47.279 55.4294
639 1 28.7383 5.43856 4.4815
640 1 22.1317 53.485 6.07389
641 1 55.8198 47.6741 35.8092
642 1 53.5949 18.4731 10.4035
643 1 41.4662 27.7987 24.7338
644 1 20.2287 42.6192 45.9372
645 1 0.535568 19.345 41.0944
646 1 13.105 31.1256 12.5455
647 1 3.32648 29.5011 8.97756
648 1 19.5071 17.1237 5.15415
649 1 20.6203 20.1874 19.5609
650 1 14.9991 3.92233 3.16768
651 1 30.446 33.3681 33.1077
652 1 50.8431 13.2699 39.9743
653 1 51.8194 30.7612 51.1343
654 1 29.3527 34.2218 -0.123962
655 1 40.8703 4.55979 30.4198
656 1 36.6255 52.1541 40.0092
657 1 55.6661 34.774 20.8089
658 1 24.8002 8.48781 54.6023
659 1 38.8577 39.8613 50.3986
660 1 1.48881 44.0009 6.64726
661 1 46.0293 36.3311 12.8563
662 1 15.6889 41.5114 44.3741
663 1 20.3851 35.7664 37.5568
664 1 52.9297 16.8895 28.1187
665 1 34.146 42.8574 22.993
666 1 15.3582 9.25549 26.1802
667 1 35.3707 17.0994 28.1647
668 1 47.5298 12.3789 44.362
669 1 51.1526 22.9432 15.8548
670 1 47.044 3.22767 11.2941
671 1 32.2718 4.46001 25.2221
672 1 1.87623 18.5205 9.15094
673 1 11.6311 4.34555 35.5326
674 1 46.059 51.2578 7.61741
675 1 23.5679 7.62756 32.9245
676 1 53.9621 16.6556 24.0377
677 1 55.7593 35.977 54.2344
678 1 15.7053 55.7505 17.5863
679 1 52.6595 12.2028 22.3095
680 1 28.2825 32.3856 45.9601
681 1 0.333864 26.0273 48.7172
682 1 7.17977 3.19128 44.8058
683 1 43.0885 13.0718 21.1612
684 1 38.1806 32.4861 37.252
685 1 22.8326 54.9935 15.2054
686 1 44.6934 15.1018 11.2969
687 1 47.1614 55.2424 28.4167
688 1 20.5297 7.18613 33.3193
689 2 21.6542 49.4061 24.0753
690 2 30.0134 50.2734 10.262
691 2 34.3724 27.0127 38.919
692 2 8.24623 42.5175 49.0918
693 2 44.8544 48.2569 22.5798
694 2 3.0128 51.2841 54.078
695 2 17.57 15.3005 45.1962
696 2 16.372 40.8091 8.215
697 2 1.62036 18.2415 36.2251
698 2 17.1049 18.7092 6.87192
699 2 44.7544 11.5356 39.9483
700 2 38.2877 4.95915 3.86683
701 2 53.327 27.4438 5.49039
702 2 36.2124 28.8085 27.2264
703 2 48.8853 45.8126 44.2871
704 2 54.3865 12.7697 17.7777
705 2 2.77001 36.8756 7.64756
706 2 2.33216 40.3667 44.392
707 2 47.5991 17.1287 18.9043
708 2 43.2747 54.3593 0.689514
709 2 44.0763 30.576 42.1885
710 2 52.9148 48.3459 31.0004
711 1 36.8626 2.20714 46.1365
712 1 17.6342 25.6992 49.0725
713 1 1.24144 49.4167 43.9097
714 1 37.7447 30.3951 24.7932
715 1 1.16171 11.2711 44.5743
716 1 2.75054 15.8804 50.961
717 1 47.3491 0.924911 3.46719
718 1 4.80382 41.7347 55.9723
719 1 41.7809 16.8035 52.3363
720 1 19.2355 16.3468 13.5386
721 1 31.1007 6.74724 5.15267
722 1 31.9856 37.8451 55.5027
723 1 19.2369 15.0989 15.9749
724 1 48.3271 37.211 53.5796
725 1 13.0596 45.7883 34.9766
726 1 29.8686 41.3583 41.865
727 1 32.3189 55.0311 18.8214
728 1 27.9073 0.740832 55.5299
729 1 40.9646 1.55396 51.893
730 1 5.06949 6.94923 37.7329
731 1 54.0246 10.857 20.3685
732 1 12.767 1.15383 14.8911
733 1 35.8604 52.9234 55.0247
734 1 37.0851 43.6204 18.0928
735 1 39.9518 9.83433 1.46382
736 1 51.6413 19.0789 50.5255
737 1 30.9603 41.6568 27.7022
738 1 0.66961 11.636 6.8084
739 1 21.9036 16.8969 3.09989
740 1 40.3813 35.1368 49.4108
741 1 53.985 9.28912 32.7251
742 1 18.7751 40.7041 6.4417
743 1 44.8445 29.2447 27.1095
744 1 33.4763 55.7503 40.3784
745 1 44.9502 12.7835 13.0922
746 1 20.3785 17.6877 20.9786
747 1 0.853699 3.46899 36.0597
748 1 46.244 54.7785 2.60712
749 1 17.2972 13.3543 42.6986
750 1 23.5045 18.8923 2.04225
751 1 18.9057 32.8473 33.8877
752 1 15.1623 48.4475 38.9499
753 1 20.0335 9.95006 43.6099
754 1 36.2549 53.9512 27.1791
755 1 29.3115 17.9872 18.1496
756 1 31.497 49.1317 53.8426
757 1 7.22019 19.6826 29.8316
758 1 54.7932 27.4072 20.1278
759 1 44.8237 7.04447 18.789
760 1 18.9327 32.61 54.5287
761 1 48.319 15.3299 46.3876
762 1 30.6066 52.6204 12.2508
763 1 24.4664 18.0599 8.98866
764 1 18.2571 13.1052 21.3073
765 1 42.407 19.9384 39.9883
766 1 19.4842 35.5664 2.78076
767 1 4.67656 51.7596 28.6392
768 1 25.9392 22.2557 35.4406
769 1 18.3181 48.6318 54.5642
770 1 19.0068 3.56936 4.7355
771 1 11.9252 38.7289 44.2094
772 1 29.6394 13.1075 52.747
773 1 10.3128 16.4384 45.8262
774 1 33.509 2.469 27.0642
775 1 46.3086 41.7086 30.1024
776 1 25.1967 55.6746 22.3762
777 1 45.56 47.7657 25.5794
778 1 22.1183 33.5634 47.7561
779 1 40.9774 26.9093 44.545
780 1 31.3681 47.2551 40.8235
781 1 20.3683 37.9474 25.1173
782 1 4.51557 19.0138 15.6793
783 1 50.2098 0.988092 36.734
784 1 44.4157 27.8652 24.239
785 1 27.5367 25.9175 48.428
786 1 15.6511 7.61793 41.7527
787 1 5.36708 30.9359 54.0166
788 1 2.56309 10.5986 37.1268
789 1 15.3504 46.2596 28.4572
790 1 51.5654 29.7051 43.7298
791 1 36.2294 18.5556 24.5992
792 1 26.0547 55.13 19.583
793 1 2.76323 50.2675 22.2813
794 1 29.9966 25.6802 27.8798
795 1 55.6489 21.4627 37.02
796 1 44.262 12.5808 4.24328
797 1 18.791 11.417 13.7842
798 1 42.5203 29.0785 54.3248
799 1 16.212 35.7156 12.2119
800 1 17.0369 30.6063 54.9835
801 1 48.9901 48.2136 11.1303
802 1 20.915 15.4218 36.8484
803 1 39.9459 45.1162 40.1209
804 1 51.9685 36.6908 9.6143
805 1 38.6098 44.6221 32.2921
806 1 13.2557 15.1019 37.3519
807 1 55.5391 16.0399 34.776
808 1 48.9418 8.37252 38.4632
809 1 10.3003 12.4804 1.33171
810 1 8.07826 40.7985 32.1774
811 1 33.6455 22.0697 47.9669
812 1 53.3261 16.1855 44.5081
813 1 0.793847 11.3941 2.57391
814 1 45.5873 4.83658 19.9639
815 1 4.66317 8.85932 41.6723
816 1 49.7894 5.0514 35.1765
817 1 44.523 43.6979 29.263
818 1 54.7862 48.3541 55.2844
819 1 18.2162 37.1352 43.1611
820 1 53.3401 28.2962 38.2343
821 1 32.1904 29.6732 38.7746
822 1 1.32643 4.09632 28.8833
823 1 53.7273 46.5205 37.788
824 1 54.5427 0.0849926 28.3491
825 1 17.4623 54.2437 29.8107
826 1 16.8339 50.596 3.92218
827 1 19.8919 33.7234 22.7785
828 1 35.4569 23.3048 26.1526
829 1 49.3965 55.8305 29.6934
830 1 51.3083 43.309 4.21792
831 2 7.22673 40.2753 39.928
832 2 23.8755 14.4627 3.28739
833 2 20.1946 43.2985 23.4419
834 2 43.3467 26.968 46.7437
835 2 25.2807 55.9497 27.8929
836 2 23.726 14.2377 32.4436
837 2 15.7415 27.1589 17.594
838 2 23.2246 42.3789 47.4335
839 2 28.6537 35.2128 31.2979
840 2 19.7147 16.0525 53.4463
841 2 15.8764 27.3168 26.6657
842 2 47.1551 9.60694 45.8104
843 2 42.1748 1.49943 30.0009
844 2 31.406 15.1613 18.4316
845 2 8.36244 51.6483 16.1584
846 2 41.4197 41.1456 48.6526
847 2 48.4506 54.9487 10.421
848 2 47.7549 44.5584 25.9656
849 2 23.1209 17.4462 34.8011
850 2 22.6513 32.1476 44.4896
851 2 48.0145 0.11708 53.8628
852 2 46.4947 38.7717 20.4831
853 1 36.2715 46.4757 9.44
854 1 30.2546 42.2729 46.7971
855 1 47.5251 26.7485 15.1462
856 1 10.2757 23.7333 34.5331
857 1 55.0456 17.0602 40.1908
858 1 14.2567 50.3681 48.9019
859 1 35.1806 24.672 40.8894
860 1 9.27836 37.7854 4.0655
861 1 52.0499 36.4371 29.284
862 1 54.3318 30.6539 5.7191
863 1 33.3052 11.3409 10.4006
864 1 47.5934 26.6615 49.5114
865 1 14.7239 26.3655 14.4163
866 1 12.0052 33.9174 0.153714
867 1 50.5029 21.896 37.2755
868 1 49.2119 1.66155 34.3454
869 1 53.6082 26.5375 52.5646
870 1 33.654 24.5661 21.054
871 1 10.2281 27.7527 15.1199
872 1 53.4174 37.933 40.578
873 1 12.5495 39.3547 32.0756
874 1 54.0279 45.9013 1.30241
875 1 41.5087 29.4106 48.0829
876 1 0.246441 16.7951 31.2794
877 1 0.117185 27.5157 22.5549
878 1 4.4793 35.7646 20.3525
879 1 10.7466 14.3545 31.0694
880 1 51.4981 11.4034 2.01487
881 1 31.8657 13.4579 47.7685
882 1 44.6898 22.3877 52.6242
883 1 26.2093 14.0222 13.7041
884 1 51.3858 54.4964 36.4693
885 1 29.8896 23.198 1.35754
886 1 39.3154 47.5474 2.05648
887 1 7.24328 15.6813 19.7494
888 1 3.06933 30.008 46.7725
889 1 46.3601 7.83305 34.0242
890 1 54.5867 2.99876 6.50351
891 1 53.0048 20.5953 37.7919
892 1 37.6185 54.0682 20.7639
893 1 14.4024 51.3913 33.8762
894 1 9.07159 40.8574 9.69073
895 1 3.68429 49.725 40.301
896 1 2.62205 40.6874 17.9038
897 1 27.9826 53.1507 10.4877
898 1 41.1113 35.4006 42.6051
899 1 16.6132 19.4034 32.1564
900 1 9.32861 27.8546 1.96409
901 1 34.1064 37.4234 41.7794
902 1 25.5552 46.2802 25.9944
903 1 3.80708 26.3931 8.93263
904 1 35.8245 35.6901 11.5605
905 1 28.0908 30.3285 22.1454
906 1 17.2183 35.9563 7.35279
907 1 34.7689 50.4387 13.8927
908 1 1.55884 6.29854 34.6622
909 1 40.1993 2.86265 42.2695
910 1 52.4447 38.0743 7.35678
911 1 12.8934 8.84151 24.9129
912 1 16.8911 18.64 36.947
913 1 4.03098 45.178 6.10473
914 1 52.9847 51.872 31.1653
915 1 18.3176 21.0845 39.3224
916 1 28.4655 26.4389 40.1776
917 1 35.1786 56.0054 4.41889
918 1 50.4565 34.6851 14.5223
919 1 48.5374 40.8069 38.6442
920 1 12.0733 38.5653 38.4844
921 1 31.8612 54.8631 11.1662
922 1 17.5538 41.605 31.9137
923 1 50.0706 5.7385 38.3764
924 1 0.761251 11.4587 16.6223
925 1 45.2899 55.7442 4.85557
926 1 27.7826 49.7885 51.5555
927 1 52.6973 49.2426 43.4827
928 1 42.2647 12.0373 12.8835
929 1 49.9377 33.0614 7.27811
930 1 38.2191 0.483821 19.9
931 1 17.0226 25.5867 31.965
932 1 12.7065 48.5155 52.3049
933 1 30.5089 7.10068 43.8469
934 1 24.7819 51.172 54.721
935 1 5.50313 39.1893 55.0671
936 1 7.58288 32.5141 11.8999
937 1 33.9544 0.747768 42.7128
938 1 36.2614 6.0499 40.4562
939 1 5.47197 29.3473 15.9749
940 1 7.52152 39.1561 53.1829
941 1 36.385 6.61422 35.4188
942 1 15.2983 46.5799 45.3633
943 1 33.7159 36.4906 34.3545
944 1 9.0851 41.3275 16.0681
945 1 44.8192 20.9181 44.5145
946 1 9.74442 42.465 44.2666
947 1 41.3145 30.9321 40.741
948 1 15.6705 55.516 43.6306
949 1 49.5945 50.1083 15.6786
950 1 39.2858 27.4665 50.3749
951 1 15.1578 43.3544 53.8601
952 1 43.9548 0.944921 48.4535
953 1 25.9587 22.5146 51.1348
954 1 11.1099 45.7194 40.6188
955 1 13.234 21.9819 15.4345
956 1 12.0899 20.2683 8.45235
957 1 46.86 43.62 51.1853
958 1 8.69464 25.1806 36.2294
959 1 31.4425 50.0565 35.4678
960 1 53.5872 13.9766 12.5563
961 1 36.8896 41.3908 42.7681
962 1 54.7817 6.36704 18.9396
963 1 7.87406 30.1116 47.2572
964 1 25.2832 14.6833 44.3514
965 1 15.3193 30.5891 35.7055
966 1 24.7506 42.6245 31.6866
967 1 10.7727 9.23918 11.3512
968 1 42.5455 9.75458 53.6318
969 1 32.0329 37.6819 50.388
970 1 31.2975 17.2725 15.8108
971 1 45.0305 5.95087 42.2787
972 1 52.3672 8.56259 51.6689
973 2 45.2771 4.1944 25.5921
974 2 46.1104 39.2332 35.2425
975 2 53.4993 39.0526 27.7559
976 2 17.431 30.5816 49.7837
977 2 52.8137 36.1143 16.245
978 2 52.4292 36.1995 19.91
979 2 32.9832 42.2468 40.6297
980 2 54.8381 6.47978 44.674
981 2 36.4586 11.9327 9.99025
982 2 54.3257 29.5668 49.1532
983 2 12.2383 31.1866 1.30789
984 2 46.3787 22.7529 34.3725
985 2 51.8759 2.5349 13.2239
986 2 7.53698 18.5249 37.9462
987 2 20.1991 6.50603 5.30319
988 2 2.4901 26.6146 51.7385
989 2 39.8979 27.8312 32.3377
990 2 54.2773 9.94663 15.1312
991 2 22.9669 21.2937 17.6122
992 2 16.0559 15.6076 54.7988
993 2 1.63352 15.4888 55.6159
994 2 53.4362 22.8714 35.2303
995 1 54.0747 3.37057 43.788
996 1 51.2825 25.2098 47.1083
997 1 24.6309 2.29601 47.9638
998 1 3.57473 49.3194 27.1149
999 1 25.2249 51.0982 52.1305
1000 1 19.5954 8.82128 47.8064
1001 1 30.7978 30.412 36.4651
1002 1 52.4134 26.2738 8.43313
1003 1 13.8919 29.0111 30.7689
1004 1 6.53658 40.2134 6.96007