ITEM: TIMESTEP
0
ITEM: NUMBER OF ATOMS
9088
ITEM: BOX BOUNDS pp pp pp
-1.6908867764653893e-01 5.6053581303573736e+01
-1.6908867764653893e-01 5.6053581303573736e+01
-1.6908867764653893e-01 5.6053581303573736e+01
ITEM: ATOMS id type x y z
1 1 28.2269 41.0839 49.119
2 1 44.4478 4.5949 36.5091
3 1 41.7089 12.8302 49.9977
4 1 37.3321 49.1783 43.7163
5 1 11.6534 34.4579 8.2617
6 1 35.9226 25.6567 21.8351
7 1 19.8895 33.0636 1.344
8 1 48.1362 1.44324 9.4815
9 1 55.5507 50.2295 40.0492
10 1 36.8317 13.5365 53.6392
11 1 48.5099 35.8461 32.6048
12 1 35.7229 19.3041 36.7388
13 1 21.6322 48.7228 36.8693
14 1 19.8854 49.4735 49.9351
15 1 3.10528 36.6576 30.2207
16 1 26.5606 0.936365 38.8364
17 1 50.0542 10.089 27.9087
18 1 3.8688 47.9148 36.2413
19 1 30.1596 23.8338 51.8725
20 1 31.1382 2.58531 44.5331
21 1 25.2902 48.9895 50.3018
22 1 9.29945 41.5831 1.98847
23 1 21.8701 17.7933 37.9586
24 1 3.54857 7.72303 55.7787
25 1 26.3955 27.5054 39.1961
26 1 20.0306 28.0447 43.39
27 1 34.9213 29.4669 54.4731
28 1 13.5242 32.6677 15.0183
29 1 10.8095 50.1466 40.0866
30 1 49.2073 7.62786 44.3962
31 1 30.6706 4.8994 0.167254
32 1 33.9286 5.53505 23.3475
33 1 24.3806 41.7857 2.81878
34 1 14.4493 24.6071 1.92308
35 1 20.0519 51.2574 40.598
36 1 16.5702 32.1349 18.8809
37 1 23.6027 55.8137 47.1333
38 1 23.3596 21.2114 5.93405
39 1 13.2778 26.089 0.0056556
40 1 8.66192 11.4003 47.8606
41 1 46.8274 40.8095 1.26126
42 1 5.67578 39.0067 15.0182
43 1 21.9781 16.9895 9.7287
44 1 50.5807 51.8833 23.8157
45 1 13.159 43.543 55.9261
46 1 0.079521 17.8843 11.1418
47 1 42.6412 6.23011 32.1055
48 1 18.5822 30.4753 19.8298
49 1 7.38304 19.9155 32.5639
50 1 18.0764 19.7434 20.6634
51 1 50.2664 32.2236 30.4033
52 1 22.2603 10.5794 37.6674
53 1 52.5255 20.491 1.27372
54 1 52.0849 17.8998 43.0881
55 1 39.6913 44.8646 29.5237
56 1 11.634 25.5749 44.6764
57 1 6.92967 33.067 34.5619
58 1 37.4172 11.6258 21.914
59 1 5.30396 30.2421 28.4505
60 1 36.2539 32.7937 54.6473
61 1 12.0524 27.0736 53.9385
62 1 52.7152 22.0176 24.4968
63 1 49.2269 43.1552 29.0172
64 1 22.3515 4.36173 16.3301
65 1 11.2931 42.3163 48.0262
66 1 8.03422 44.9529 9.93014
67 1 12.3005 43.0763 53.2887
68 1 11.3569 33.5607 52.2993
69 1 37.5041 38.4584 45.9815
70 1 2.1755 28.1522 5.10364
71 1 51.629 47.0478 28.1947
72 1 55.6617 29.5726 1.71535
73 1 25.708 46.4704 4.70178
74 1 4.44056 33.2387 46.9809
75 1 37.7193 19.4943 5.15153
76 1 38.3181 23.9732 6.0201
77 1 47.5717 40.0819 32.2104
78 1 34.0601 40.7393 10.4871
79 1 31.7394 23.3047 42.7568
80 1 39.3657 0.00587715 30.8235
81 1 17.5795 27.6778 54.2732
82 1 50.4753 1.41576 23.7494
83 1 8.15272 14.9316 27.6589
84 1 36.6747 2.06582 3.79836
85 1 39.5958 10.9512 38.5453
86 1 34.6276 34.1835 34.8794
87 1 25.9801 8.16386 31.9744
88 1 16.0045 11.6904 13.0492
89 1 7.04561 47.7846 39.3581
90 1 1.40246 39.6721 51.3926
91 1 18.0138 7.73246 21.6931
92 1 10.138 11.9543 19.3009
93 1 38.3921 9.63454 11.4098
94 1 35.6234 34.1567 28.8249
95 1 40.7059 24.6262 18.8644
96 1 7.10404 0.0509526 14.1275
97 1 3.51011 8.77959 32.7185
98 1 17.9178 12.561 29.8557
99 1 42.5083 36.5009 5.70027
100 1 3.37773 6.20231 26.7915
101 1 0.342545 33.5758 47.2864
102 1 5.0977 1.21374 12.2877
103 1 41.8401 43.2581 55.8202
104 1 14.6266 54.7787 39.4137
105 1 31.3818 14.1063 10.9593
106 1 19.2156 48.1933 47.6618
107 1 32.587 0.326138 45.1124
108 1 46.7212 17.1768 47.3716
109 1 10.2344 45.8564 16.7148
110 1 31.3962 9.0843 10.6873
111 1 37.7273 54.3661 14.886
112 1 5.57173 5.45711 10.2354
113 1 28.9103 33.1073 11.5146
114 1 24.4245 16.9521 40.0138
115 1 43.0417 34.6027 31.2969
116 1 32.0724 6.09179 37.997
117 1 -0.0367402 12.249 40.4642
118 1 1.58277 43.891 31.6027
119 1 36.2351 36.2683 33.7294
120 1 15.3085 1.608 39.9945
121 2 11.8671 38.8552 35.4265
122 2 51.4898 18.5542 12.9393
123 2 55.1762 46.6038 20.8321
124 2 52.5739 29.7363 19.7903
125 2 54.0104 35.5669 38.5332
126 2 25.346 7.58666 17.9436
127 2 12.4221 51.3664 15.8123
128 2 7.62455 29.9118 35.1633
129 2 55.1855 17.7453 7.65181
130 2 1.31553 21.037 45.859
131 2 52.0601 11.9696 47.3587
132 2 39.3098 46.5589 17.8889
133 2 34.9313 42.8836 15.9745
134 2 15.1308 5.17989 8.76635
135 2 42.7494 33.8266 3.7787
136 2 10.0122 0.759578 31.9074
137 2 40.7553 24.2173 46.1169
138 2 5.31658 4.70838 49.3565
139 2 31.1983 14.9323 14.0201
140 2 45.4246 27.2584 38.6187
141 2 8.0976 38.4817 22.7458
142 2 29.8759 23.546 40.1843
143 1 47.0477 19.6654 46.0192
144 1 28.6765 17.5681 13.3083
145 1 54.0775 12.4703 6.50294
146 1 52.0684 26.5683 15.4154
147 1 29.3204 28.0233 32.8785
148 1 27.0441 10.3896 38.3142
149 1 46.5076 6.59258 44.5999
150 1 25.1591 25.5725 9.58479
151 1 50.1645 24.2643 53.9907
152 1 10.3268 33.5713 45.2714
153 1 49.8879 48.32 29.5753
154 1 43.2159 41.6942 30.9512
155 1 32.5525 18.8032 10.6803
156 1 7.78604 33.1343 9.36119
157 1 51.5793 34.0207 22.3295
158 1 37.835 5.56614 0.390127
159 1 54.8414 47.8396 13.6992
160 1 49.0417 2.43791 2.22338
161 1 10.6227 25.2799 21.6021
162 1 13.1157 12.8905 44.1866
163 1 20.143 21.3688 26.5656
164 1 55.6508 38.5068 11.8692
165 1 51.5776 35.6642 6.60058
166 1 45.1678 41.5656 14.5809
167 1 31.391 39.8793 46.4704
168 1 36.625 7.80586 43.0491
169 1 28.1304 50.6179 39.3769
170 1 39.6683 33.9018 47.202
171 1 28.5572 32.7903 23.6628
172 1 21.3733 43.8847 28.4405
173 1 14.3746 39.76 10.1589
174 1 35.3963 1.89576 32.2773
175 1 18.8174 28.0058 16.3326
176 1 39.6879 37.0425 6.7535
177 1 10.0313 4.7803 25.0756
178 1 18.4811 5.37313 9.20068
179 1 26.9373 45.3375 47.8846
180 1 55.282 26.8652 8.54766
181 1 48.4817 42.8318 31.6421
182 1 49.7314 30.1541 52.4762
183 1 13.6226 20.6517 4.08792
184 1 25.9399 52.8596 12.0608
185 1 33.4133 10.088 34.2937
186 1 43.8652 26.6855 26.7354
187 1 1.34144 6.95862 53.3909
188 1 28.5693 39.4467 3.58478
189 1 13.2122 41.4338 33.9171
190 1 35.3984 48.6051 21.5794
191 1 20.4455 18.9448 46.1202
192 1 50.2685 -0.146209 8.02841
193 1 37.1926 8.7096 13.8637
194 1 36.2041 3.89193 30.7668
195 1 24.7762 27.6072 1.23231
196 1 34.9463 5.54744 26.4954
197 1 7.21413 9.3583 49.4012
198 1 12.7336 18.7681 28.4143
199 1 31.5628 18.8475 3.09003
200 1 39.8759 20.5465 41.0882
201 1 26.6394 13.0321 16.2344
202 1 39.2666 2.08188 2.72705
203 1 31.3329 27.6917 37.2483
204 1 41.0374 27.2863 19.2493
205 1 7.54976 12.585 2.6889
206 1 39.252 25.1912 24.2705
207 1 0.346007 45.0595 45.8163
208 1 31.8867 5.24181 10.912
209 1 47.6351 6.73207 47.0963
210 1 27.3874 21.8442 41.7766
211 1 8.71756 5.69164 21.8235
212 1 43.1174 27.5472 43.2081
213 1 22.2008 12.272 51.1744
214 1 0.885799 37.583 2.31973
215 1 11.6238 27.8032 22.758
216 1 0.0466447 24.8212 51.2361
217 1 21.9944 8.92799 35.6787
218 1 1.35388 9.84423 54.3759
219 1 43.8613 51.8306 5.99789
220 1 44.7003 8.41613 43.7981
221 1 30.4032 0.470666 17.04
222 1 2.44228 7.65138 21.4651
223 1 26.1608 44.0789 2.93561
224 1 42.7225 9.10893 25.5056
225 1 43.8628 48.8266 38.3118
226 1 12.6488 42.0025 25.413
227 1 20.277 45.6891 33.3915
228 1 55.7949 20.3771 52.8578
229 1 11.1052 27.1632 42.6165
230 1 31.1794 29.9457 41.4002
231 1 31.7147 35.3517 25.5851
232 1 40.7451 17.0956 17.6773
233 1 50.9441 50.3322 38.2121
234 1 10.7954 14.183 50.9443
235 1 41.3816 18.3599 42.17
236 1 6.81216 47.734 29.4382
237 1 52.8145 29.7022 23.5462
238 1 38.7279 1.13329 -0.0972481
239 1 33.9197 28.4995 5.90428
240 1 9.21034 32.7962 50.9513
241 1 20.338 49.1531 10.7422
242 1 32.9468 11.2275 3.07509
243 1 7.48258 23.9684 33.4165
244 1 55.7508 42.4308 7.67463
245 1 1.35848 27.8501 19.8892
246 1 54.228 5.57871 5.82437
247 1 54.1206 49.1072 11.2829
248 1 44.2 0.654802 45.5572
249 1 10.6985 44.8439 48.8835
250 1 23.5807 24.5638 18.0788
251 1 17.838 39.2686 3.85799
252 1 47.7772 16.6752 38.6456
253 1 2.84185 27.165 48.0043
254 1 9.27163 8.30561 32.455
255 1 55.0595 9.28965 17.9738
256 1 30.9453 47.4503 24.7139
257 1 1.56418 12.2312 35.0482
258 1 33.3074 18.4186 27.8548
259 1 45.6546 45.8889 54.9754
260 1 24.9314 41.5113 34.1896
261 1 32.4063 10.6556 39.4439
262 1 23.6235 44.1592 8.14798
263 2 44.0089 24.897 29.3152
264 2 25.5923 47.0933 1.62477
265 2 49.895 7.20584 49.1136
266 2 7.17483 24.5919 38.5096
267 2 14.567 21.4158 1.24304
268 2 4.67452 3.13781 24.7624
269 2 15.24 2.61323 16.7154
270 2 44.5358 43.4095 53.5268
271 2 53.7107 44.6718 26.3037
272 2 33.3032 40.334 13.73
273 2 33.5132 6.13318 34.6088
274 2 52.919 26.9819 30.6044
275 2 27.1316 7.06252 53.1337
276 2 55.9049 13.8946 4.41389
277 2 1.01018 42.9775 39.3313
278 2 12.0653 34.3896 18.702
279 2 43.9115 51.3148 46.4451
280 2 19.5034 55.5172 22.0551
281 2 41.4055 16.8384 14.706
282 2 15.1554 28.7253 8.23162
283 2 46.7583 47.8151 28.7386
284 2 16.8208 27.1516 34.7533
285 1 4.83852 35.3497 5.73351
286 1 49.6785 34.792 20.4838
287 1 44.6141 1.78531 35.9252
288 1 20.2009 16.8664 29.759
289 1 23.1748 31.3628 4.30468
290 1 50.6804 13.1621 23.9964
291 1 18.0507 43.9154 34.3778
292 1 40.8598 5.49882 44.2065
293 1 54.433 19.696 55.5485
294 1 30.927 32.8616 41.6889
295 1 47.2336 25.3906 29.7763
296 1 12.4071 32.0621 35.3084
297 1 48.3791 14.1347 33.837
298 1 30.9094 22.3303 12.9694
299 1 31.7436 18.8072 17.9743
300 1 24.5941 31.9035 9.44726
301 1 24.8209 50.0171 23.178
302 1 46.7065 33.5148 25.9485
303 1 53.6739 3.3883 1.70576
304 1 13.7796 34.2791 53.4697
305 1 25.5795 38.5594 22.964
306 1 28.8301 52.1589 32.7878
307 1 5.31974 39.9662 32.2439
308 1 39.8749 53.7773 45.0377
309 1 49.5848 30.7493 28.4351
310 1 10.496 52.8018 38.3979
311 1 38.1488 35.0902 5.44436
312 1 10.2854 7.85925 25.8399
313 1 5.12383 55.2545 18.1113
314 1 29.2799 47.5389 53.1866
315 1 4.53802 6.26662 14.8654
316 1 43.9097 10.5024 10.8587
317 1 30.6638 32.0519 38.9756
318 1 5.93192 23.17 11.3837
319 1 3.11068 2.73674 18.0943
320 1 18.9471 33.7724 25.3823
321 1 26.0267 38.6296 34.0554
322 1 55.3266 21.7395 23.1446
323 1 11.2988 10.9205 32.905
324 1 18.5331 8.57514 32.3692
325 1 21.8284 45.922 42.9912
326 1 16.5806 31.898 41.0451
327 1 12.4355 9.32601 35.1209
328 1 0.481275 8.10745 36.6946
329 1 4.6072 25.3263 44.7681
330 1 8.11872 30.6279 29.8117
331 1 15.6366 39.273 52.3656
332 1 0.549061 44.2151 11.9875
333 1 16.3049 13.726 10.6679
334 1 33.5499 35.025 22.8068
335 1 35.2903 13.174 51.1327
336 1 49.9449 21.2693 13.1565
337 1 1.01407 34.1537 7.61262
338 1 9.67132 22.956 22.3073
339 1 15.0704 24.3743 44.3346
340 1 25.1299 23.3734 26.1132
341 1 26.5013 51.2023 25.0776
342 1 -0.161178 26.3534 17.7974
343 1 35.9068 14.0829 27.5399
344 1 32.9768 16.0381 11.5375
345 1 48.8464 16.6407 4.10419
346 1 0.201519 7.00091 23.4264
347 1 19.9699 18.5846 11.1232
348 1 13.0039 10.3491 22.9081
349 1 4.36588 36.9207 10.3181
350 1 1.80331 53.6269 51.302
351 1 45.0041 35.4911 5.32686
352 1 18.9486 8.4326 52.2284
353 1 24.5255 34.5949 53.7215
354 1 46.6357 37.0745 39.8718
355 1 48.8974 28.3735 38.6835
356 1 9.58197 40.1556 42.7015
357 1 20.0676 50.495 52.7884
358 1 21.7063 24.2223 36.8034
359 1 28.9215 44.9937 46.1311
360 1 16.5841 38.0674 45.4417
361 1 40.0308 22.2269 43.4451
362 1 0.423923 53.9903 4.57542
363 1 44.1375 18.3817 14.7666
364 1 41.227 0.453323 32.8055
365 1 40.4455 44.9306 6.7363
366 1 15.5077 34.6338 14.6994
367 1 50.7939 46.9401 38.1981
368 1 40.2809 44.7523 26.758
369 1 33.3253 14.4907 16.1865
370 1 3.72226 40.6952 50.9277
371 1 19.7108 28.0549 48.7712
372 1 13.6797 22.3514 33.6172
373 1 21.6134 55.9797 38.3697
374 1 47.1944 50.2818 2.47933
375 1 4.2449 52.5992 34.9786
376 1 42.8935 48.8362 25.1607
377 1 5.98614 24.0991 55.2675
378 1 29.1081 52.6948 21.265
379 1 51.4004 39.4943 20.2843
380 1 11.0261 12.928 26.8087
381 1 26.1569 50.1122 29.1536
382 1 55.0398 22.5321 8.59162
383 1 12.755 23.1708 22.7061
384 1 49.3597 16.4608 32.8893
385 1 29.6902 9.22841 19.8843
386 1 35.9865 38.8336 23.2118
387 1 21.0953 33.6121 39.2915
388 1 24.3581 7.05278 40.389
389 1 26.68 10.9145 14.4319
390 1 45.3397 48.7421 31.8426
391 1 6.98155 9.271 6.90423
392 1 48.6608 49.0535 37.2571
393 1 3.30304 27.7912 1.05952
394 1 3.22542 37.8708 46.7174
395 1 54.8592 7.61129 48.354
396 1 14.5659 5.63962 23.799
397 1 49.7501 25.7316 22.6053
398 1 21.7856 29.034 4.0639
399 1 7.153 54.1695 41.6996
400 1 35.5981 42.6151 27.6958
401 1 18.783 30.7744 24.8747
402 1 31.9804 47.9884 43.9337
403 1 13.2626 42.5732 28.316
404 1 26.7497 34.8609 45.7073
405 2 19.7456 8.30164 14.3954
406 2 36.0654 30.9282 7.8361
407 2 34.4536 13.203 12.9358
408 2 24.9388 49.8572 12.8753
409 2 46.8778 0.198203 16.6779
410 2 36.8549 49.1919 16.4596
411 2 5.90937 41.6168 16.9435
412 2 53.5585 8.82403 35.6796
413 2 31.0942 21.6559 45.2406
414 2 12.5434 34.9809 47.7101
415 2 55.6438 51.7123 9.10521
416 2 52.0182 42.885 54.9536
417 2 44.3908 4.93341 10.5412
418 2 7.34935 35.9377 11.1998
419 2 15.4949 54.389 22.6355
420 2 23.9038 23.2993 23.2316
421 2 41.2983 49.3166 9.74035
422 2 31.8487 16.2909 8.20383
423 2 8.29082 0.569764 43.1565
424 2 52.2594 10.3888 4.93021
425 2 48.1918 51.8486 39.0361
426 2 37.4567 8.56907 38.1577
427 1 29.7754 29.8514 -0.104395
428 1 4.02128 53.4243 52.4948
429 1 55.7509 27.5737 51.047
430 1 51.8188 54.9002 9.88418
431 1 20.1717 47.7099 26.2524
432 1 42.5872 8.10992 6.71697
433 1 39.7906 24.8422 13.7828
434 1 13.0646 22.6462 44.0375
435 1 22.964 52.3594 8.53481
436 1 32.2354 31.9872 48.4014
437 1 25.8664 24.5471 33.7266
438 1 46.978 3.31559 35.3056
439 1 1.29411 38.1454 54.0309
440 1 8.94271 25.3368 29.5352
441 1 22.4146 14.4148 10.9305
442 1 42.8055 18.691 17.0421
443 1 41.8874 10.8996 27.2664
444 1 51.7518 42.0437 47.6988
445 1 5.24314 15.0178 17.6825
446 1 38.3725 31.4966 39.8123
447 1 20.9491 52.2058 10.2933
448 1 44.6352 3.43453 0.177132
449 1 54.0175 6.93879 28.9505
450 1 51.5627 33.221 0.0812724
451 1 27.8982 49.4092 14.3407
452 1 48.2127 12.2076 22.6188
453 1 9.16514 21.171 33.888
454 1 5.5099 35.3255 52.0663
455 1 7.03073 21.9967 23.663
456 1 46.3703 3.77631 51.421
457 1 53.3765 39.0259 18.092
458 1 27.0969 20.4272 36.6759
459 1 2.90542 34.5303 9.72721
460 1 29.3865 0.485172 34.2756
461 1 7.9336 16.5435 17.3067
462 1 48.5655 27.5664 9.37043
463 1 15.624 2.25984 7.36536
464 1 31.8074 52.3513 22.8992
465 1 7.54256 46.9067 17.4917
466 1 5.15327 47.8857 5.46232
467 1 46.8864 11.5678 37.9328
468 1 45.1439 54.11 7.02087
469 1 14.7972 43.3726 24.4915
470 1 28.2152 0.197498 14.8618
471 1 26.7983 9.96481 3.4827
472 1 15.1094 38.1162 28.1432
473 1 48.6961 38.8373 46.6019
474 1 39.7496 12.4528 16.7444
475 1 23.0441 25.1855 20.6462
476 1 12.1397 21.7395 40.3418
477 1 49.114 3.45047 37.2284
478 1 41.4833 7.34499 13.8641
479 1 55.5916 25.8492 35.1761
480 1 41.058 8.4203 3.99668
481 1 25.577 1.43915 51.1565
482 1 29.892 37.2485 22.5247
483 1 46.1605 19.5068 34.2115
484 1 5.91672 37.2615 7.24094
485 1 18.391 45.3758 25.3529
486 1 47.1567 8.22632 42.6251
487 1 21.2379 12.8686 22.3846
488 1 6.00846 47.5262 25.6277
489 1 2.93462 44.3227 13.6997
490 1 24.5167 49.7228 25.9968
491 1 13.2879 29.6906 47.1296
492 1 27.1098 24.7761 41.603
493 1 44.2902 30.2941 33.9133
494 1 4.69716 54.3051 13.5283
495 1 11.8674 33.8934 13.1298
496 1 39.1727 17.8775 37.178
497 1 7.14364 17.2464 31.9332
498 1 19.5432 20.5808 8.71677
499 1 33.9786 30.1313 20.1679
500 1 51.7565 3.01969 35.8857
501 1 16.3397 51.0451 43.4733
502 1 50.7779 42.8424 6.87361
503 1 42.4141 21.1295 42.7368
504 1 40.1148 47.0584 32.1539
505 1 38.5008 27.5844 3.89529
506 1 22.3107 27.3891 42.0323
507 1 53.4298 54.4642 32.2563
508 1 10.6123 43.077 17.692
509 1 53.3385 29.18 8.02817
510 1 30.7417 0.736253 3.63028
511 1 49.8769 5.58738 6.06164
512 1 14.4704 50.7732 12.954
513 1 33.4649 30.4369 29.1386
514 1 28.5415 27.9805 21.0648
515 1 29.2262 12.6849 27.4698
516 1 5.2244 40.6316 37.461
517 1 15.9613 3.23865 0.142888
518 1 24.2793 12.2024 13.8303
519 1 7.95112 12.0305 45.027
520 1 35.8618 17.6517 4.69962
521 1 45.8146 25.028 32.2203
522 1 7.36865 17.0606 1.00422
523 1 38.5197 1.72522 25.9419
524 1 39.8423 51.5944 32.1147
525 1 25.9523 41.6148 22.7689
526 1 26.4129 15.9439 30.5933
527 1 29.1354 54.715 23.455
528 1 2.4528 6.61689 6.39281
529 1 40.3963 8.35225 33.6305
530 1 37.8577 16.674 18.5259
531 1 39.1215 8.03905 48.4975
532 1 34.9711 10.0102 11.8321
533 1 42.977 6.39587 20.7557
534 1 19.5559 35.6292 20.3366
535 1 43.3071 2.854 38.3937
536 1 39.2493 22.479 15.4414
537 1 19.0224 22.3913 20.6822
538 1 6.81851 27.4862 2.66029
539 1 28.5976 37.9258 33.2143
540 1 48.0453 12.1273 16.3597
541 1 42.642 5.84775 7.97235
542 1 33.0628 47.8375 35.826
543 1 38.0301 44.8703 35.148
544 1 31.8202 34.6613 15.2088
545 1 51.7476 24.5523 5.76961
546 1 23.8168 50.6784 40.9163
547 2 15.3056 40.8577 26.6505
548 2 12.9493 46.7654 1.49317
549 2 34.6282 47.7167 25.6807
550 2 55.4657 51.4578 13.0422
551 2 52.3361 7.09059 16.9009
552 2 9.7278 7.03993 35.4061
553 2 37.4971 10.1574 16.8967
554 2 23.4091 5.70925 53.0311
555 2 14.751 12.9167 21.5545
556 2 12.7218 41.5546 42.9871
557 2 13.9128 5.72987 33.9189
558 2 17.4173 33.1053 3.398
559 2 39.9487 17.1004 20.8806
560 2 5.1697 16.3172 29.3873
561 2 38.4717 12.7809 50.9193
562 2 3.69418 19.6012 28.4385
563 2 30.1318 46.8548 34.9345
564 2 16.5924 5.07308 40.0397
565 2 20.2156 22.2398 34.8905
566 2 31.2843 13.6188 38.9162
567 2 44.7546 38.2299 0.54908
568 2 43.4421 18.2512 20.248
569 1 14.9017 1.54481 19.3949
570 1 52.3166 36.6615 49.0364
571 1 20.4087 14.2026 5.46686
572 1 46.5621 15.0003 53.4427
573 1 15.551 15.4505 25.7793
574 1 30.2 46.3024 17.2609
575 1 30.3453 49.6124 42.3477
576 1 13.836 0.0913067 11.4059
577 1 1.80189 6.31844 15.2412
578 1 55.3449 40.0032 44.377
579 1 34.2137 45.0674 48.2615
580 1 21.1955 31.839 6.26571
581 1 37.5709 10.4681 29.2159
582 1 12.3054 41.3324 37.9681
583 1 45.4975 25.4921 18.0576
584 1 28.871 40.7069 28.9454
585 1 33.2581 8.13305 23.3403
586 1 55.4063 0.191493 31.1091
587 1 10.8426 1.71242 7.26271
588 1 9.34298 44.0202 46.6381
589 1 34.4987 47.4269 49.5141
590 1 56.0337 7.32754 6.9443
591 1 12.9555 9.57286 31.2069
592 1 52.8337 33.1941 6.52234
593 1 18.6585 25.0586 33.5723
594 1 2.89647 42.2793 41.9105
595 1 34.2672 11.9034 43.6045
596 1 3.57136 4.77806 39.258
597 1 29.097 51.6613 7.49178
598 1 48.392 47.3894 25.7196
599 1 5.17413 3.74554 13.615
600 1 11.8114 32.0531 4.3836
601 1 21.9844 42.1567 54.1486
602 1 3.07592 42.4328 15.571
603 1 26.8881 35.413 52.2009
604 1 5.3025 21.7933 29.9939
605 1 28.3792 43.19 27.5641
606 1 27.332 46.8125 30.3305
607 1 38.9056 14.1171 33.7481
608 1 37.0274 4.68973 49.3189
609 1 34.1899 30.421 12.6664
610 1 43.6102 5.70486 44.8073
611 1 20.8437 44.7028 30.9384
612 1 17.9066 46.688 45.5153
613 1 3.13948 51.1009 1.18673
614 1 53.4734 33.3411 10.6731
615 1 5.84132 42.8435 41.4716
616 1 38.2723 3.68564 54.7807
617 1 16.1627 11.7985 51.6871
618 1 5.63786 55.4348 53.5881
619 1 36.6793 11.6581 26.9635
620 1 28.139 27.1106 25.5468
621 1 53.0333 8.7943 27.0795
622 1 3.99689 29.6073 43.7318
623 1 15.0276 44.4107 11.9908
624 1 27.6071 9.34419 55.0497
625 1 10.0536 15.0471 25.2672
626 1 39.0489 27.4164 22.87
627 1 33.4299 37.8211 1.51198
628 1 31.4437 10.2128 17.462
629 1 41.9836 46.4783 10.8723
630 1 39.3076 55.4993 22.3269
631 1 43.5931 29.0095 13.8909
632 1 4.70708 32.3042 26.7194
633 1 15.8939 6.53574 49.499
634 1 47.9094 45.9476 17.696
635 1 29.6236 44.998 23.5439
636 1 5.94452 6.69388 17.2784
637 1 0.757762 14.7874 39.9427
638 1 32.505 47.3034 55.5567
639 1 28.4891 5.23004 4.76868
640 1 22.1968 53.873 6.16122
641 1 55.811 47.4175 35.7612
642 1 53.6288 18.455 10.5935
643 1 41.2477 27.6919 24.6281
644 1 20.1628 42.5777 45.8208
645 1 0.412711 19.6041 40.8017
646 1 13.0763 31.3993 12.7319
647 1 3.47588 29.5265 8.46323
648 1 19.5636 16.8581 4.86876
649 1 20.6298 20.1635 19.8061
650 1 15.3201 4.15199 3.22507
651 1 30.3502 33.3567 33.2942
652 1 50.8267 13.4647 39.5841
653 1 51.9899 30.7228 51.1908
654 1 29.5767 34.0595 -0.0451208
655 1 40.943 4.15241 30.2134
656 1 36.8255 52.1793 40.1547
657 1 55.7221 34.5896 20.8927
658 1 24.7731 8.33675 54.6219
659 1 38.7719 40.0814 50.3612
660 1 1.77033 43.9355 6.85754
661 1 46.0268 36.2274 12.8588
662 1 15.6255 41.4602 44.4431
663 1 20.2397 35.687 37.4852
664 1 53.264 16.9533 28.0749
665 1 34.0703 42.9258 22.8435
666 1 15.315 9.38388 26.2966
667 1 35.565 16.822 28.2872
668 1 47.8459 12.4707 44.2907
669 1 50.9715 22.9043 15.8357
670 1 46.9612 3.10929 11.4255
671 1 32.3625 4.53822 25.2152
672 1 1.82115 18.5971 9.06907
673 1 11.4131 4.20287 35.5838
674 1 45.9835 51.1932 7.50571
675 1 23.5271 7.90098 33.2678
676 1 53.7394 16.8515 24.0607
677 1 55.6737 35.8947 53.9683
678 1 15.7806 55.7269 17.6802
679 1 52.7306 12.3485 22.0901
680 1 28.2775 32.3443 45.9628
681 1 0.247665 26.1053 48.8369
682 1 7.16308 3.30441 44.9039
683 1 43.3236 13.1202 21.1683
684 1 38.289 32.2535 37.1678
685 1 22.8737 54.7501 15.205
686 1 44.6926 14.945 11.3192
687 1 47.0523 55.2229 28.295
688 1 20.5205 7.1213 33.5893
689 2 21.6704 49.4398 24.1247
690 2 30.0331 50.4372 10.0339
691 2 34.4681 27.1635 38.9295
692 2 8.31652 42.5295 49.1977
693 2 44.974 48.2153 22.6357
694 2 3.22267 51.1784 54.3817
695 2 17.7042 15.2701 45.1354
696 2 16.3767 40.7254 8.28991
697 2 1.41874 18.0222 36.117
698 2 17.2843 18.8567 6.79642
699 2 44.8662 11.8028 40.1089
700 2 38.2346 4.93631 3.61909
701 2 53.4901 27.4044 5.40011
702 2 36.0794 28.7705 27.0835
703 2 49.0491 45.8021 44.2715
704 2 54.2872 12.732 17.4874
705 2 2.56212 36.7474 7.63134
706 2 2.22241 40.5481 44.3804
707 2 47.5562 17.075 18.9657
708 2 43.3689 54.2856 0.520938
709 2 44.1522 30.4443 42.3197
710 2 52.9177 48.5158 30.8715
711 1 36.9255 2.06846 46.0341
712 1 17.9061 25.3883 49.264
713 1 1.20506 49.1828 44.3828
714 1 37.7033 30.4042 24.9605
715 1 0.886113 10.9263 44.6226
716 1 2.77139 15.8526 51.2711
717 1 47.0646 0.888975 3.5857
718 1 4.78866 41.499 55.8683
719 1 42.1559 16.8953 52.2739
720 1 19.0994 16.3659 13.6155
721 1 30.9991 6.79805 5.21614
722 1 31.9452 37.669 55.407
723 1 19.4052 14.9328 15.9186
724 1 48.1267 37.0828 53.6063
725 1 13.0287 45.7456 34.8917
726 1 29.9553 41.525 41.9399
727 1 32.3725 54.972 18.5431
728 1 28.0658 0.728334 55.6817
729 1 40.9946 1.23953 52.0888
730 1 5.11557 7.17357 37.865
731 1 54.0503 10.9447 20.1741
732 1 12.9724 1.28436 14.88
733 1 35.9768 52.6867 55.1149
734 1 37.1622 43.8069 18.0587
735 1 39.9685 9.62105 1.46584
736 1 51.6743 18.8484 50.4919
737 1 30.9288 41.8756 27.3757
738 1 0.52976 11.605 6.84585
739 1 21.964 16.8891 2.82768
740 1 40.2894 35.3578 49.4868
741 1 54.0474 9.46478 32.4753
742 1 19.0064 40.4767 6.3651
743 1 44.7557 29.5075 27.298
744 1 33.4544 55.6266 40.403
745 1 45.053 12.5221 12.8858
746 1 20.1784 17.936 20.9841
747 1 0.674853 2.85924 36.44
748 1 46.2043 54.8257 2.53376
749 1 17.1692 13.372 42.4154
750 1 23.5284 18.7589 1.98885
751 1 19.0345 32.7517 33.8048
752 1 14.8717 48.2119 38.824
753 1 20.1799 9.84977 43.5093
754 1 36.3404 53.9039 27.1395
755 1 29.1422 18.2489 18.2563
756 1 31.6254 49.2782 53.8461
757 1 6.95291 19.6259 29.6677
758 1 54.6992 27.1192 20.2546
759 1 44.7197 7.21308 18.7692
760 1 19.3521 32.3684 54.7544
761 1 48.6456 15.2743 46.7238
762 1 30.7323 52.6563 12.2574
763 1 24.6341 18.042 8.97044
764 1 18.5799 13.2342 21.337
765 1 42.5832 19.8946 40.3104
766 1 19.6582 35.4236 2.8343
767 1 4.58005 51.8955 28.62
768 1 25.7288 22.3241 35.3425
769 1 18.2776 48.6513 54.5607
770 1 19.3343 3.37016 4.63739
771 1 11.6824 38.6601 44.2034
772 1 29.553 13.0804 52.8333
773 1 10.3681 16.524 45.6911
774 1 33.3305 2.65975 27.051
775 1 46.3926 41.3955 30.0957
776 1 24.9866 55.8245 22.5367
777 1 45.5643 47.7075 25.7114
778 1 21.9474 33.4279 47.6995
779 1 40.9144 27.0602 44.6087
780 1 31.2443 47.4463 40.8869
781 1 20.2639 38.1376 25.2191
782 1 4.74152 19.0076 15.5762
783 1 50.1687 0.870586 36.8536
784 1 44.1371 27.9596 24.1684
785 1 27.4673 25.9377 48.3303
786 1 15.3778 7.62166 41.9175
787 1 5.35256 30.9878 54.2065
788 1 2.41298 10.38 37.199
789 1 15.4912 46.3153 28.3769
790 1 51.7305 29.5868 43.6599
791 1 36.3929 18.6484 24.7218
792 1 25.9543 55.2518 19.6453
793 1 2.77114 50.1549 22.1167
794 1 30.03 25.6174 28.1123
795 1 55.4076 21.1996 36.9783
796 1 44.3522 12.2312 4.13492
797 1 18.9106 11.2462 14.0232
798 1 42.6063 29.012 54.4392
799 1 16.3616 35.6337 12.2184
800 1 17.2364 30.5169 55.0546
801 1 48.7657 48.3451 11.0128
802 1 20.8276 15.4848 36.7115
803 1 40.053 45.1845 40.1479
804 1 51.7923 36.8929 9.25173
805 1 38.6409 44.5523 32.2791
806 1 13.3101 15.3742 37.1124
807 1 55.5109 15.9423 34.6788
808 1 48.8742 8.30443 38.4014
809 1 10.1932 12.5182 1.33307
810 1 8.06371 40.7657 32.093
811 1 33.4766 22.0502 47.9839
812 1 53.3878 16.0162 44.5001
813 1 0.909189 11.4134 2.5081
814 1 45.6299 4.94948 19.9939
815 1 4.72138 8.83886 41.6795
816 1 49.6956 4.8231 35.1513
817 1 44.3708 43.5087 29.2964
818 1 54.8196 48.4035 55.4741
819 1 18.2522 37.0257 43.1483
820 1 53.2 28.1416 38.3874
821 1 32.1324 29.6632 38.8537
822 1 0.912936 4.06588 29.0497
823 1 53.9077 46.5697 37.9762
824 1 54.3995 0.353408 28.5611
825 1 17.447 54.1799 29.8236
826 1 16.6907 50.2376 3.90615
827 1 19.8754 33.7505 22.6352
828 1 35.4459 23.2277 26.2562
829 1 49.349 55.9149 29.6947
830 1 51.3517 43.3463 4.15872
831 2 7.12814 40.2039 39.9505
832 2 23.8755 14.3119 3.27706
833 2 20.422 43.2384 23.5138
834 2 43.4523 26.9017 46.8443
835 2 25.2245 0.109354 27.7177
836 2 23.6992 14.558 32.3419
837 2 15.6884 27.0375 17.6525
838 2 22.9957 42.3353 47.5622
839 2 28.5436 35.4986 31.4521
840 2 19.7994 16.1761 53.5066
841 2 15.8 27.3782 26.6852
842 2 47.2101 9.72055 45.7634
843 2 42.1536 1.41696 29.9495
844 2 31.3557 15.4697 18.5731
845 2 8.48492 51.8044 16.1896
846 2 41.4496 41.301 48.6331
847 2 48.6621 54.9066 10.446
848 2 47.8091 44.2117 25.917
849 2 23.054 17.4017 34.8012
850 2 22.6139 32.1182 44.3338
851 2 48.1885 55.9488 53.7695
852 2 46.4573 38.8154 20.3889
853 1 36.0277 46.2658 9.6378
854 1 30.0569 42.248 46.8498
855 1 47.5196 26.8736 15.0774
856 1 10.3183 23.5265 34.4232
857 1 54.707 17.3922 40.3972
858 1 14.312 50.2389 48.8819
859 1 35.2491 24.7423 41.0211
860 1 9.34607 37.5606 4.03828
861 1 51.6684 36.6827 29.0896
862 1 54.3952 30.7968 5.6931
863 1 33.1551 11.6243 10.6642
864 1 47.6158 26.6815 49.4026
865 1 14.6552 26.3069 14.7848
866 1 12.5429 34.1115 0.0735509
867 1 50.5162 22.0067 36.982
868 1 49.1782 1.91884 34.5058
869 1 53.7436 26.6378 52.6664
870 1 33.5023 24.6802 20.8334
871 1 10.3114 27.8477 14.9757
872 1 53.2831 37.9796 40.5727
873 1 12.4676 39.4005 32.1815
874 1 54.0559 46.1255 1.41988
875 1 41.5819 29.4607 48.0825
876 1 56.0073 16.5729 31.3773
877 1 -0.142085 27.6267 22.711
878 1 4.50741 35.8877 20.2077
879 1 10.4802 14.2681 31.0157
880 1 51.4599 11.2451 1.89809
881 1 31.8534 13.4474 47.6217
882 1 44.966 22.6385 52.409
883 1 26.4401 13.8173 13.7958
884 1 51.404 54.6006 36.3089
885 1 29.9232 22.9994 1.07342
886 1 39.1133 47.7044 1.9849
887 1 7.09622 15.7006 19.8559
888 1 3.09915 29.9594 46.5507
889 1 46.2373 7.80316 34.0544
890 1 54.6828 3.04428 6.24297
891 1 52.695 20.3824 37.741
892 1 37.6847 54.5089 20.3651
893 1 14.2827 51.4584 33.9168
894 1 9.21375 41.0981 9.69125
895 1 3.80812 49.4895 40.4024
896 1 2.77276 40.6472 17.7475
897 1 28.1384 53.13 10.3139
898 1 40.7247 35.2491 42.5061
899 1 16.6226 19.2609 32.3029
900 1 9.32464 27.8362 2.03873
901 1 34.1023 37.5341 42.1927
902 1 25.6168 46.096 25.9893
903 1 3.73052 26.5118 8.79238
904 1 35.8104 35.6166 11.5663
905 1 28.2915 30.4839 22.3541
906 1 17.2428 35.9946 7.2658
907 1 34.8936 50.5272 14.0268
908 1 1.63138 6.40586 34.7055
909 1 40.4118 3.10655 42.5065
910 1 52.6704 38.2206 7.03439
911 1 12.9303 8.69992 25.0356
912 1 16.807 18.5705 37.0206
913 1 4.24235 45.0425 6.01154
914 1 53.008 51.916 31.0177
915 1 18.3484 21.0782 39.201
916 1 28.6286 26.4644 40.4396
917 1 35.2177 56.009 4.24656
918 1 50.5879 35.1853 14.2165
919 1 48.8042 40.8132 38.2907
920 1 12.04 38.5015 38.6353
921 1 31.7851 54.9473 11.0299
922 1 17.6016 41.9188 32.0033
923 1 49.9776 5.64447 38.4534
924 1 0.690889 11.3604 16.1908
925 1 45.0497 55.6516 4.77812
926 1 27.914 49.7161 51.7487
927 1 52.8796 49.1546 43.4768
928 1 42.2956 12.0099 12.8433
929 1 49.9767 33.0337 7.32886
930 1 38.269 1.00531 19.996
931 1 16.7862 25.2346 31.4774
932 1 12.6843 48.6037 52.4301
933 1 30.2809 7.11376 44.0128
934 1 24.635 51.1449 54.7306
935 1 5.22884 39.0494 55.0011
936 1 7.78767 32.7132 11.9967
937 1 33.983 0.7025 42.7637
938 1 36.297 6.39059 40.291
939 1 5.50518 29.2758 15.9742
940 1 7.21082 38.8163 52.9787
941 1 36.717 6.41919 35.3673
942 1 15.2665 46.3965 45.293
943 1 33.5936 36.6177 34.224
944 1 9.14327 41.3668 15.8918
945 1 44.8508 20.9155 44.6925
946 1 9.74419 42.5335 44.3437
947 1 41.3115 31.0685 40.6544
948 1 15.5535 55.6676 43.929
949 1 49.6393 50.0383 15.6175
950 1 39.2514 27.6348 50.5735
951 1 15.104 43.2336 53.9611
952 1 44.0752 1.016 48.6049
953 1 25.9644 22.3165 51.1395
954 1 10.9364 45.5906 40.5983
955 1 13.2426 21.8491 15.2894
956 1 12.327 20.1769 8.40024
957 1 47.07 43.7499 51.2481
958 1 8.61619 25.1422 35.9232
959 1 31.3747 50.1722 35.3426
960 1 53.6448 14.1843 12.4888
961 1 36.9088 41.4077 42.4972
962 1 54.9592 6.41658 18.854
963 1 7.78362 30.0683 47.363
964 1 25.3934 14.7713 44.2413
965 1 15.3317 30.0997 35.5763
966 1 24.7469 42.4276 31.6794
967 1 10.6672 9.18509 11.349
968 1 42.7023 9.83623 53.5611
969 1 32.2685 37.0277 50.4538
970 1 31.1335 17.3042 15.963
971 1 44.8263 6.17648 42.3844
972 1 52.6412 8.38156 51.6714
973 2 45.2465 4.42444 25.4818
974 2 46.1751 39.2613 35.2651
975 2 53.5183 39.0767 27.8418
976 2 17.4692 30.2932 49.7774
977 2 52.725 36.1051 16.1713
978 2 52.3427 36.312 19.6503
979 2 32.9432 42.2995 40.7019
980 2 54.8899 6.34949 44.9299
981 2 36.3203 11.8472 9.82948
982 2 54.3446 29.5661 49.1025
983 2 12.3525 31.2089 1.39081
984 2 46.3153 22.6047 34.3332
985 2 52.0729 2.21834 13.2375
986 2 7.2569 18.5672 37.9001
987 2 20.4447 6.42223 5.14373
988 2 2.48857 26.6739 51.8167
989 2 39.7519 27.971 32.2548
990 2 54.0889 9.86657 15.0091
991 2 22.7936 21.4104 17.8923
992 2 16.019 15.5872 54.7672
993 2 1.79171 15.6421 56.0035
994 2 53.4015 22.8295 35.2951
995 1 54.1969 3.34192 43.7934
996 1 51.2591 25.3995 47.1907
997 1 24.578 2.16481 48.0941
998 1 3.41386 49.6742 27.3844
999 1 25.3883 51.0214 52.0019
1000 1 19.468 8.79202 47.7479
1001 1 30.7611 30.4858 36.6091
1002 1 52.6644 26.3743 8.47114
1003 1 14.0313 28.9585 30.5825
1004 1 6.4552 40.0735 6.68479