ITEM: TIMESTEP
0
ITEM: NUMBER OF ATOMS
9088
ITEM: BOX BOUNDS pp pp pp
-5.0364042654065422e-01 5.6388133052531700e+01
-5.0364042654065422e-01 5.6388133052531700e+01
-5.0364042654065422e-01 5.6388133052531700e+01
ITEM: ATOMS id type x y z
1 1 10.7238 39.152 33.0261
2 1 8.09583 33.3945 30.9803
3 1 20.2155 20.8878 34.4056
4 1 23.417 56.3876 21.2079
5 1 35.6621 28.7798 14.6419
6 1 47.4675 10.9997 37.7523
7 1 32.719 38.042 32.0741
8 1 31.2736 49.471 7.0058
9 1 44.6669 46.6073 6.02292
10 1 40.2827 54.8937 6.45094
11 1 1.37962 37.1394 22.5551
12 1 33.7375 33.4149 2.46325
13 1 42.362 19.3443 22.23
14 1 44.9137 38.9441 13.2609
15 1 21.361 11.8547 41.7116
16 1 28.4404 34.2397 44.5499
17 1 16.2785 54.9259 4.43182
18 1 48.6045 28.1424 27.9466
19 1 55.5257 54.7104 55.2864
20 1 37.3331 51.0851 3.98348
21 1 35.8423 41.5397 37.8208
22 1 29.1586 7.82949 23.3377
23 1 7.79451 22.5277 39.5757
24 1 6.40595 17.9043 35.269
25 1 9.46002 47.9317 6.86343
26 1 51.3808 18.4966 0.102474
27 1 29.0197 12.3133 8.21705
28 1 49.5205 22.2716 39.7475
29 1 23.6539 3.66662 24.5905
30 1 35.7466 53.7445 16.2181
31 1 38.826 24.6265 56.1441
32 1 26.835 49.0471 22.489
33 1 31.431 54.4889 49.5148
34 1 47.6635 18.2831 40.4337
35 1 48.9268 44.2704 36.3174
36 1 50.4296 36.9694 24.2579
37 1 21.59 43.1056 31.3531
38 1 10.6083 34.5546 24.1027
39 1 9.23412 30.7048 17.3899
40 1 28.8929 25.2284 3.43734
41 1 51.1471 40.968 -0.278334
42 1 14.9034 28.2745 48.2334
43 1 7.75651 32.526 38.6531
44 1 18.4802 19.8058 46.9987
45 1 39.0231 11.0442 6.19123
46 1 19.633 37.6765 47.8087
47 1 23.2393 38.1011 33.6247
48 1 32.558 26.8706 14.6951
49 1 40.2017 3.28638 54.8909
50 1 36.6715 23.1527 11.0501
51 1 53.1909 -0.013186 38.8509
52 1 7.83744 54.7209 36.9097
53 1 37.7893 3.95538 46.85
54 1 19.7348 9.88575 13.1213
55 1 16.3379 18.5991 53.5685
56 1 45.7352 14.6185 20.6943
57 1 12.281 19.8183 46.4023
58 1 -0.168628 54.2458 33.2426
59 1 6.24389 27.9033 11.5773
60 1 18.3213 32.0798 12.1775
61 1 48.928 33.0844 5.2998
62 1 53.7498 24.1665 31.5186
63 1 51.5854 47.5789 15.107
64 1 35.3567 7.24752 41.1754
65 1 39.2101 40.9335 26.8886
66 1 21.8614 32.2885 39.264
67 1 21.6064 13.8942 25.6903
68 1 18.2585 24.348 39.9704
69 1 39.6895 45.7063 45.0546
70 1 56.2047 30.9714 10.9507
71 1 55.0286 39.1871 35.3437
72 1 35.377 0.376893 33.0042
73 1 42.1764 51.4553 43.4596
74 1 32.0589 35.626 26.9096
75 1 45.1361 27.936 51.1154
76 1 1.5257 26.0655 23.6098
77 1 43.8376 21.4547 1.52748
78 1 45.6133 33.3683 2.7206
79 1 30.2375 38.8002 31.1381
80 1 34.1028 1.55973 30.0005
81 1 42.9767 12.5637 14.9439
82 1 6.59521 51.2966 5.12467
83 1 33.5877 39.6482 41.3775
84 1 42.0829 26.8054 43.9481
85 1 37.8982 13.0321 11.1563
86 1 6.54813 35.2229 41.7755
87 1 6.96499 26.1248 35.8239
88 1 33.1889 25.5134 8.0123
89 1 14.1441 46.2868 40.4282
90 1 46.6918 40.0862 7.29744
91 1 52.5135 18.0089 36.9084
92 1 24.5475 38.7996 5.15147
93 1 44.748 43.6529 15.4292
94 1 29.5206 51.4219 17.8029
95 1 47.815 42.6248 6.92651
96 1 24.8858 37.0265 35.6105
97 1 0.274414 10.633 21.9932
98 1 3.30288 50.799 33.9517
99 1 8.69861 6.01983 41.3362
100 1 34.7802 54.4788 50.5663
101 1 16.9586 11.8686 16.7931
102 1 31.8171 5.84069 47.2493
103 1 42.4078 6.6235 20.5986
104 1 -0.384527 55.3165 44.2253
105 1 18.2563 47.4489 19.127
106 1 55.0692 36.998 6.06931
107 1 18.0219 30.7001 4.6
108 1 50.4902 39.7468 28.2679
109 1 25.9789 15.5374 17.6324
110 1 12.4083 3.21867 7.4569
111 1 21.446 12.395 38.5852
112 1 27.8602 10.6409 33.5581
113 1 48.2738 23.6812 2.4473
114 1 34.5178 38.5608 2.41876
115 1 24.9938 3.11457 27.5434
116 1 6.86179 17.9483 5.91082
117 1 34.565 31.3991 40.4615
118 1 38.9643 15.3831 3.25647
119 1 24.6959 16.6149 29.6776
120 1 17.6692 3.07124 39.1961
121 2 50.2148 19.3338 21.2729
122 2 44.4231 8.73477 32.9168
123 2 6.32745 47.3313 51.2934
124 2 32.3683 2.92561 49.0611
125 2 50.9252 21.4195 15.2243
126 2 15.3646 14.0994 22.7128
127 2 49.5198 53.1259 22.9619
128 2 21.6903 1.5597 23.3141
129 2 36.7499 49.1061 19.2346
130 2 40.1294 -0.486817 35.3298
131 2 4.98669 24.9033 47.153
132 2 2.86926 19.7049 53.1972
133 2 25.2056 31.4069 8.73505
134 2 29.8904 35.3039 7.01602
135 2 34.9624 31.433 0.219848
136 2 27.3751 27.816 4.77388
137 2 34.4447 36.7758 48.4197
138 2 20.2961 19.653 0.517914
139 2 47.5913 10.1379 20.7117
140 2 9.54223 2.1854 45.0263
141 2 48.9044 52.0495 30.3759
142 2 25.5773 26.4389 11.6861
143 1 -0.260492 20.1649 13.5561
144 1 5.26305 35.8927 52.7323
145 1 12.3355 36.8551 45.8381
146 1 5.43783 53.6551 10.5247
147 1 34.3523 52.9987 0.0826432
148 1 36.5938 11.5603 25.8032
149 1 0.766778 7.07998 45.8835
150 1 48.3955 20.3048 16.8108
151 1 0.150079 20.0573 33.5643
152 1 6.54975 54.0316 32.7281
153 1 16.8109 13.6892 32.9184
154 1 21.789 49.4547 22.2667
155 1 12.1067 45.1208 41.7291
156 1 4.83814 20.7045 35.4914
157 1 44.8244 32.033 48.4148
158 1 28.6101 50.571 7.97934
159 1 0.394574 8.47191 23.9388
160 1 35.0636 53.6027 39.2623
161 1 13.0938 16.3189 8.43638
162 1 51.279 46.5846 1.21575
163 1 30.0481 12.441 25.071
164 1 31.3109 35.8342 49.216
165 1 31.1656 17.3048 40.0799
166 1 5.11647 17.697 1.15871
167 1 1.91009 44.8642 53.8384
168 1 11.2757 41.3954 45.7657
169 1 38.4634 14.9158 42.9073
170 1 1.83324 11.8524 23.7826
171 1 26.4582 25.5831 50.4054
172 1 37.3461 7.37189 8.49954
173 1 50.8851 50.1842 7.23693
174 1 46.4741 41.2658 4.94373
175 1 35.1425 17.7766 5.76368
176 1 28.8457 9.92694 44.4439
177 1 35.5042 48.4079 28.5286
178 1 31.0645 53.3611 11.7779
179 1 26.729 20.1648 6.67292
180 1 26.1084 12.5113 37.5591
181 1 53.0441 35.1526 46.5102
182 1 46.1151 31.4915 55.0725
183 1 53.0161 55.2547 20.8111
184 1 46.5832 37.8161 43.9705
185 1 30.012 19.4648 37.587
186 1 7.11559 34.2302 52.4153
187 1 39.4682 36.6628 21.5253
188 1 18.4919 46.4309 33.6536
189 1 53.8407 31.8377 38.3921
190 1 27.4349 16.488 29.0662
191 1 5.88768 16.2979 55.6726
192 1 48.1136 27.5664 40.8819
193 1 24.5221 18.158 14.0694
194 1 10.2544 45.7923 28.3794
195 1 35.1943 5.01531 14.9323
196 1 3.78007 7.14765 13.7223
197 1 2.99397 0.442883 11.8219
198 1 33.9517 29.186 39.3085
199 1 0.854544 17.4401 52.3007
200 1 7.32011 18.3252 24.6173
201 1 22.3421 9.21471 11.7763
202 1 41.8363 15.3371 20.3611
203 1 13.1659 27.9145 54.4259
204 1 41.9006 29.5679 53.2546
205 1 25.9327 43.6139 5.33948
206 1 48.096 33.246 54.0595
207 1 38.0184 4.86434 54.7567
208 1 21.7213 40.8229 22.0208
209 1 10.6487 41.4643 48.3473
210 1 6.15779 26.6004 7.06757
211 1 37.2203 55.664 45.7921
212 1 9.48012 21.3443 11.7483
213 1 55.4497 26.8883 22.0983
214 1 26.6341 11.7601 21.0539
215 1 0.837723 42.5124 25.1337
216 1 21.9734 50.8884 50.4487
217 1 50.6825 34.1044 22.8026
218 1 27.2895 46.1567 52.3069
219 1 48.4417 35.011 1.81525
220 1 54.7426 26.9041 48.0949
221 1 51.3775 19.9099 46.3668
222 1 4.34035 49.475 22.2216
223 1 36.4687 1.67621 50.7941
224 1 7.97869 10.9779 41.2041
225 1 34.3277 14.218 45.5386
226 1 9.98573 48.3221 41.8288
227 1 14.7215 49.6693 -0.311251
228 1 33.9707 54.7413 48.1888
229 1 16.2148 18.21 6.88236
230 1 36.8509 27.336 20.6483
231 1 50.3388 36.7827 28.7088
232 1 15.6369 32.0217 2.656
233 1 48.4261 27.7612 21.9321
234 1 7.80129 3.52725 40.3781
235 1 32.926 34.0742 12.0559
236 1 38.2655 1.57885 37.3134
237 1 28.4439 37.6243 35.6167
238 1 52.6616 14.4066 40.8908
239 1 31.5698 50.1892 36.2599
240 1 49.0831 10.6283 53.7516
241 1 42.9784 3.45174 3.8391
242 1 17.5231 48.7019 21.2757
243 1 4.63432 50.0178 52.5413
244 1 2.33556 25.1919 45.0388
245 1 0.403537 22.4927 12.267
246 1 13.2218 33.7806 12.2937
247 1 32.8328 35.0947 17.4921
248 1 2.68731 53.254 9.96005
249 1 25.3922 6.87824 5.45366
250 1 -0.0638426 53.1592 9.09629
251 1 29.7969 6.54541 6.53403
252 1 30.6019 2.39605 52.8088
253 1 28.6138 54.0275 12.677
254 1 37.7669 15.3522 54.2796
255 1 54.7164 39.2696 50.0774
256 1 39.9158 38.2434 18.3595
257 1 9.75798 21.8188 14.5496
258 1 27.6906 47.7085 32.6798
259 1 19.455 4.3494 49.6108
260 1 22.4055 23.8128 19.1575
261 1 11.7845 28.461 31.643
262 1 50.0158 48.0552 3.16214
263 2 51.9239 2.1821 45.7152
264 2 31.9201 15.5863 47.3796
265 2 32.251 17.1246 37.1303
266 2 20.2407 3.7186 10.7175
267 2 35.0512 6.56834 20.1257
268 2 43.8835 53.9812 0.320947
269 2 52.186 20.286 51.6272
270 2 1.18983 20.7804 19.4852
271 2 6.3823 0.210851 11.9362
272 2 15.2932 25.4379 38.9751
273 2 37.9974 36.1652 0.0928026
274 2 38.224 32.7089 52.1873
275 2 12.3642 17.5845 25.608
276 2 20.8432 49.355 40.8199
277 2 17.9699 0.776728 44.9601
278 2 39.8174 13.7045 14.9516
279 2 41.6287 9.80952 41.7676
280 2 25.9434 8.08664 2.35408
281 2 8.68485 41.2235 32.2331
282 2 7.61071 50.5229 52.9869
283 2 16.0239 48.9093 40.6655
284 2 32.9271 15.7867 19.3486
285 1 15.1884 6.09858 23.426
286 1 30.1964 49.881 53.3087
287 1 1.86445 38.9972 0.160633
288 1 30.5525 11.0143 34.2602
289 1 44.147 41.1682 50.295
290 1 10.9441 1.63587 29.1002
291 1 5.57801 46.0229 31.5333
292 1 14.6596 20.9544 10.3768
293 1 5.17277 34.1633 30.2244
294 1 2.11437 41.5426 42.5498
295 1 16.3661 35.3784 7.17758
296 1 3.76126 27.5306 45.7716
297 1 30.9321 42.1247 52.1066
298 1 43.475 37.7988 47.3539
299 1 37.5218 16.5707 44.7117
300 1 16.5352 14.0029 27.7141
301 1 4.29312 11.5582 41.5325
302 1 45.4643 50.9746 52.6094
303 1 21.6897 45.2171 5.3001
304 1 44.9 49.4457 36.6407
305 1 24.8549 45.5584 9.41035
306 1 54.4826 23.1229 44.4674
307 1 5.98099 3.15451 38.5485
308 1 44.6857 26.8345 44.911
309 1 18.2588 8.02713 4.47779
310 1 37.9392 14.5196 25.6697
311 1 53.3367 55.8257 16.3616
312 1 13.7009 7.86538 1.51408
313 1 47.7058 30.596 53.1976
314 1 38.9087 46.6761 23.5958
315 1 17.705 28.1293 9.60441
316 1 22.8632 37.568 54.525
317 1 4.72425 11.5584 6.70007
318 1 7.76239 39.9576 8.36669
319 1 56.1701 7.52344 26.3933
320 1 10.7996 29.0116 21.6507
321 1 14.6998 23.0663 43.7658
322 1 9.23766 14.4954 32.0781
323 1 7.48027 32.7342 23.865
324 1 51.8001 55.7004 45.8424
325 1 29.6449 55.4204 41.6828
326 1 15.3016 16.2194 31.7867
327 1 51.957 46.7002 20.5337
328 1 14.3415 53.5549 43.1016
329 1 28.9262 44.1311 21.2815
330 1 48.5347 33.9553 51.0213
331 1 42.2692 23.1298 36.1405
332 1 51.9985 52.0682 40.5088
333 1 35.7664 41.9062 0.902496
334 1 2.99755 23.5087 23.3983
335 1 52.1262 36.6623 36.1749
336 1 11.7556 17.1228 47.635
337 1 53.028 19.3515 17.0124
338 1 21.1957 6.08915 8.80998
339 1 55.3049 35.308 27.2927
340 1 18.409 28.946 40.0804
341 1 25.3728 56.0406 35.3193
342 1 31.5489 18.3947 46.1567
343 1 54.0268 24.0338 47.2271
344 1 17.675 55.8041 6.48777
345 1 2.3168 32.2633 47.6603
346 1 31.8017 31.6859 11.4893
347 1 44.3245 53.3093 7.71762
348 1 23.9794 56.1714 2.4831
349 1 36.9044 13.519 49.7076
350 1 32.8311 24.3952 16.7361
351 1 17.9067 23.1774 28.4381
352 1 6.05026 16.5651 26.2228
353 1 18.8952 19.1415 42.8886
354 1 31.5266 11.595 0.425978
355 1 39.837 34.59 54.6964
356 1 45.7054 21.7913 32.6106
357 1 17.3204 2.42625 11.4361
358 1 0.642979 15.1218 13.1981
359 1 47.0511 52.1587 4.39779
360 1 21.724 26.2873 22.873
361 1 40.6262 9.93952 36.6944
362 1 43.4215 45.2994 32.1928
363 1 35.4912 49.4518 49.495
364 1 45.0247 51.9026 37.3963
365 1 12.0852 13.387 2.89474
366 1 47.2059 6.76277 51.7633
367 1 8.90431 54.0333 39.6444
368 1 52.3773 50.3201 26.6548
369 1 35.0557 42.3288 32.0473
370 1 45.1608 43.4662 51.423
371 1 5.81216 49.0441 7.02705
372 1 13.3618 0.200803 27.8006
373 1 54.6287 11.1026 20.3318
374 1 29.107 36.9099 4.13366
375 1 26.4398 23.4111 4.79797
376 1 50.3305 43.5432 13.755
377 1 29.3452 9.64158 5.86602
378 1 29.5878 38.5035 39.2336
379 1 9.04354 42.2651 44.5891
380 1 20.6958 15.8901 50.0985
381 1 26.6819 54.982 2.20736
382 1 52.8961 19.9186 19.785
383 1 -0.0104033 20.5943 42.2847
384 1 14.8027 54.9798 6.84207
385 1 43.4728 55.7811 17.7125
386 1 48.5714 25.0351 20.7647
387 1 16.5475 3.75091 19.8472
388 1 3.47223 24.9619 9.62426
389 1 20.0975 52.0656 6.43936
390 1 28.7964 41.5811 56.0844
391 1 40.1432 12.0633 45.0176
392 1 19.71 8.54141 44.1477
393 1 1.75635 18.3925 31.6509
394 1 8.01063 37.2047 28.7305
395 1 3.57533 23.4492 4.26819
396 1 34.1237 27.7541 9.77781
397 1 53.1271 26.2452 24.0337
398 1 23.2947 44.1649 45.8021
399 1 48.5174 0.932418 40.0286
400 1 25.0381 9.38813 29.3315
401 1 41.6432 25.5514 26.0903
402 1 39.177 13.649 55.8319
403 1 38.7275 39.3282 29.0598
404 1 52.8132 13.9173 46.9082
405 2 42.1925 55.741 8.9682
406 2 24.8254 44.2511 35.3763
407 2 10.9577 30.4173 54.8627
408 2 49.2876 24.2298 9.84864
409 2 21.4481 32.7287 1.70623
410 2 55.1478 16.0217 36.9097
411 2 43.3188 14.0623 10.6226
412 2 1.51377 1.45052 6.59391
413 2 56.0753 44.7036 7.02148
414 2 51.5829 27.5149 51.8481
415 2 37.9924 36.2914 46.9567
416 2 22.1937 20.5196 3.42055
417 2 26.9274 19.0589 27.3141
418 2 16.2283 52.3982 56.2964
419 2 44.2901 30.0294 30.5417
420 2 52.424 9.33753 8.77491
421 2 -0.144825 33.8572 18.1737
422 2 12.8618 34.2427 47.4897
423 2 42.5513 -0.385818 43.6453
424 2 18.7322 44.5731 48.7128
425 2 18.8601 3.92259 53.1588
426 2 53.4299 48.1828 17.7442
427 1 13.1049 11.7883 30.9568
428 1 43.0924 6.78723 13.1579
429 1 23.1122 21.5787 26.2431
430 1 15.9578 0.83998 4.77718
431 1 35.9923 29.7669 28.4636
432 1 10.1922 43.0774 3.65548
433 1 11.8733 9.19209 35.5147
434 1 2.37282 44.5143 6.50132
435 1 41.924 34.0921 42.5429
436 1 23.7645 38.89 20.7268
437 1 32.6278 22.7105 51.3559
438 1 45.7565 54.978 52.2519
439 1 30.2675 1.45395 1.70361
440 1 41.1617 10.4186 14.8907
441 1 5.63201 26.7196 0.883401
442 1 53.7047 -0.400334 5.94258
443 1 17.0043 21.6147 22.2523
444 1 35.8968 44.1842 41.3551
445 1 26.0047 34.3387 10.3817
446 1 23.1437 32.1777 10.6511
447 1 36.1642 50.1235 43.2928
448 1 16.9828 32.419 18.9899
449 1 36.4946 6.11631 52.095
450 1 11.9454 54.2207 1.74383
451 1 1.11651 51.5903 6.50518
452 1 50.2303 2.46826 34.6776
453 1 22.6424 11.1987 9.88815
454 1 5.5339 41.996 33.0864
455 1 42.1359 28.1109 31.4505
456 1 20.0575 11.0967 36.4544
457 1 10.7209 17.3933 33.8718
458 1 28.415 26.2515 11.8459
459 1 4.87134 45.6727 54.1215
460 1 20.6547 8.03472 2.70305
461 1 18.4911 17.1501 49.0569
462 1 39.198 35.798 51.7102
463 1 12.6163 13.1632 21.1532
464 1 8.35733 48.6988 39.7288
465 1 37.5183 40.778 15.4165
466 1 20.4018 38.1361 19.7487
467 1 1.57402 27.5976 2.53485
468 1 23.8274 50.043 7.48231
469 1 52.6039 53.451 11.2442
470 1 11.4707 45.1803 23.5446
471 1 6.74761 7.55811 7.95683
472 1 53.2912 20.0514 10.2924
473 1 23.5344 51.8206 44.5523
474 1 5.10083 33.6904 37.5729
475 1 7.41464 11.8075 46.2027
476 1 47.3364 51.8006 21.5035
477 1 33.3343 26.7175 45.7509
478 1 1.19549 32.9955 35.1123
479 1 24.2536 55.6643 50.8989
480 1 0.461599 23.3441 36.439
481 1 34.9074 21.332 10.6485
482 1 25.9573 43.8577 38.9068
483 1 7.49791 26.8991 13.8716
484 1 34.4704 17.2859 8.26778
485 1 43.4337 36.0189 14.3602
486 1 34.6739 23.4614 18.4342
487 1 14.7099 49.8493 3.43268
488 1 27.7075 11.6444 11.2667
489 1 7.18659 39.7088 11.4303
490 1 19.9785 33.2872 23.0823
491 1 51.1788 12.9431 0.37111
492 1 37.8267 6.84429 29.539
493 1 14.622 20.5835 50.1159
494 1 11.617 44.4356 36.8499
495 1 15.4986 23.5978 26.8395
496 1 54.6105 33.936 6.84561
497 1 21.7081 15.0418 19.3789
498 1 17.1537 41.81 47.2201
499 1 32.1741 50.0727 22.3467
500 1 26.3363 4.64535 23.5111
501 1 43.2178 36.7113 9.22695
502 1 29.052 56.0103 26.0065
503 1 38.2841 51.4819 53.2683
504 1 41.6301 52.7745 23.1784
505 1 44.5082 34.6705 41.685
506 1 30.2427 34.5035 10.636
507 1 37.7067 25.181 22.0506
508 1 27.6313 30.1915 6.67935
509 1 33.5597 32.1589 5.18567
510 1 47.9767 38.2388 5.54415
511 1 30.3069 51.5724 38.4351
512 1 15.3911 29.6883 3.95907
513 1 39.3801 0.00141273 4.82204
514 1 13.6817 14.3611 36.0185
515 1 11.4104 27.9391 -0.102442
516 1 48.8866 20.7531 50.956
517 1 27.0025 52.197 3.02322
518 1 18.9372 20.075 3.06817
519 1 36.2022 5.13525 35.3424
520 1 33.091 2.22681 37.1165
521 1 24.6615 9.60329 4.59248
522 1 12.7283 50.9711 36.739
523 1 54.8698 54.1023 25.0576
524 1 23.7187 40.8655 26.8898
525 1 11.0701 7.436 0.291814
526 1 13.9469 14.0099 28.0794
527 1 52.978 8.78246 43.5718
528 1 27.2262 47.8275 0.775676
529 1 31.2934 10.8854 7.66859
530 1 6.44687 3.36341 10.4892
531 1 12.3329 6.69345 26.7788
532 1 3.04529 24.5953 20.9098
533 1 53.2632 6.85137 41.5388
534 1 50.2375 21.6092 2.25667
535 1 12.8942 39.5692 6.64923
536 1 0.195072 55.1036 2.36244
537 1 5.27149 14.2067 27.6958
538 1 22.766 13.5869 23.2601
539 1 24.2054 51.1676 18.8451
540 1 51.7464 30.5481 37.3686
541 1 52.6552 19.3947 5.22912
542 1 0.500429 51.7051 3.81832
543 1 25.7815 29.9893 42.4047
544 1 17.4888 26.4449 12.192
545 1 26.1136 54.8392 30.3699
546 1 43.2229 14.1688 38.0995
547 2 47.716 5.36407 46.5176
548 2 14.5498 22.9412 23.5438
549 2 3.93479 17.2117 6.39555
550 2 28.3905 3.51399 8.95145
551 2 43.4548 43.4839 10.5862
552 2 8.83192 13.4987 3.469
553 2 53.6204 28.2322 42.7194
554 2 48.4247 17.517 55.594
555 2 6.6792 19.8838 38.2338
556 2 33.5274 14.5932 28.7093
557 2 51.3429 23.8057 22.5335
558 2 54.3946 46.2809 46.6402
559 2 13.862 40.7759 48.5504
560 2 24.8072 13.4274 25.1788
561 2 13.0983 32.9185 0.951242
562 2 49.7136 37.7303 19.2091
563 2 37.3655 49.9164 10.9991
564 2 25.9314 9.27431 10.1291
565 2 28.8616 41.6713 31.6814
566 2 36.6226 44.6615 33.5354
567 2 54.0169 44.2543 1.92932
568 2 18.6957 45.7018 11.2058
569 1 19.1698 34.1221 6.52576
570 1 44.3623 25.3707 42.967
571 1 40.9609 53.1659 34.8565
572 1 41.8065 55.6866 12.5247
573 1 47.2212 49.2316 28.9458
574 1 8.94683 53.5427 42.437
575 1 14.1766 46.7741 10.5088
576 1 24.173 32.2251 49.6639
577 1 29.7464 1.48641 31.1005
578 1 39.7963 8.78099 8.91058
579 1 37.1439 41.459 29.7648
580 1 20.8247 47.3389 6.41321
581 1 2.11644 11.8974 5.65581
582 1 46.4182 32.6104 9.8794
583 1 46.9135 39.5424 35.0423
584 1 6.81352 15.828 2.05541
585 1 4.62477 38.4203 11.4286
586 1 14.759 38.576 25.447
587 1 52.1087 36.4307 38.7743
588 1 54.691 31.9683 19.9607
589 1 9.45164 47.8383 44.5844
590 1 38.9243 -0.290161 26.8592
591 1 47.9995 18.4828 49.855
592 1 53.909 27.2619 38.2727
593 1 15.1314 38.3832 13.3317
594 1 32.9653 45.881 35.2474
595 1 23.1994 49.3885 13.6827
596 1 6.94612 13.2232 42.3015
597 1 26.8149 52.2011 17.9363
598 1 8.04013 32.3161 33.428
599 1 50.7684 46.1074 12.9023
600 1 8.50826 32.459 50.9482
601 1 36.298 11.9315 31.3109
602 1 41.4659 19.6233 24.9747
603 1 -0.319241 30.9881 25.6639
604 1 1.27144 26.0301 42.0512
605 1 12.9717 9.76124 43.0699
606 1 32.1792 47.4932 47.5755
607 1 49.0549 37.9968 53.6184
608 1 50.8894 9.01781 39.2919
609 1 28.9632 -0.465443 14.2574
610 1 41.1099 11.4579 4.28477
611 1 33.0714 35.8466 33.3777
612 1 49.7961 5.31085 34.2386
613 1 48.9725 41.983 29.1677
614 1 22.4277 34.6774 39.8028
615 1 43.5051 14.3376 30.6174
616 1 18.2437 14.0405 21.5558
617 1 28.7091 45.7165 38.5945
618 1 1.81548 32.4983 50.3448
619 1 52.5375 45.765 33.549
620 1 20.6587 10.5044 29.5158
621 1 25.8426 50.1852 16.7954
622 1 45.1472 28.5178 21.1874
623 1 44.2077 26.9627 39.5131
624 1 3.06232 22.7692 29.5153
625 1 53.4744 23.4703 -0.473492
626 1 11.3341 19.6808 41.8474
627 1 22.2235 52.7259 18.0422
628 1 45.442 3.35049 47.455
629 1 19.4943 20.9806 29.5499
630 1 41.0929 7.28355 4.25726
631 1 47.2501 41.6716 52.0234
632 1 46.6585 41.994 43.2317
633 1 5.79244 25.6488 50.3875
634 1 3.24994 36.3185 24.9658
635 1 48.6231 51.5131 -0.273027
636 1 45.8742 5.67584 15.4449
637 1 27.7078 25.8399 16.4446
638 1 4.9686 35.6446 55.6699
639 1 9.02394 23.4848 55.7446
640 1 7.20938 36.3122 0.164152
641 1 27.6287 11.902 23.6531
642 1 41.65 32.383 4.58811
643 1 10.0682 50.3475 16.0301
644 1 0.250919 54.1322 23.8583
645 1 19.9999 5.7035 42.5781
646 1 22.347 35.1263 17.5682
647 1 26.3076 26.2502 34.9358
648 1 31.3309 28.454 22.992
649 1 35.6337 20.5202 3.74512
650 1 22.8872 7.48329 3.82216
651 1 23.6083 22.6838 28.5521
652 1 1.40906 -0.294296 33.6779
653 1 27.1567 15.1259 39.394
654 1 13.3758 7.50254 11.444
655 1 55.7258 31.071 13.6539
656 1 7.98593 38.7155 33.6885
657 1 35.3272 39.9214 8.87499
658 1 40.6232 6.754 42.4969
659 1 36.7467 38.8228 1.03338
660 1 24.0055 50.3655 39.723
661 1 37.7827 55.1614 6.77772
662 1 49.4746 34.2294 34.4809
663 1 46.7614 48.9367 9.88639
664 1 39.0521 51.8237 47.6783
665 1 50.3985 1.54596 25.7517
666 1 55.3743 9.79824 39.2724
667 1 3.19963 27.7443 38.4071
668 1 47.3055 29.7987 10.6773
669 1 2.04629 50.8519 9.12623
670 1 9.43377 5.5301 31.1857
671 1 31.1371 39.5016 33.9236
672 1 5.43873 34.6609 24.7164
673 1 24.0134 15.3365 15.7602
674 1 50.8473 52.3845 54.434
675 1 10.7828 42.588 0.32082
676 1 50.6862 20.214 18.4897
677 1 26.7255 7.59937 36.7711
678 1 26.6156 21.5303 46.1755
679 1 13.3114 40.1662 14.8109
680 1 54.9128 51.8157 44.2321
681 1 29.5893 33.6233 24.0588
682 1 14.1053 21.9674 8.04157
683 1 50.8139 13.3686 45.3526
684 1 7.11018 -0.381632 50.9517
685 1 15.8011 22.7418 15.2964
686 1 40.0653 2.40794 51.8502
687 1 23.0419 42.4046 37.1193
688 1 3.48885 42.2691 7.94241
689 2 51.3037 47.3943 49.0793
690 2 18.5588 34.058 55.343
691 2 47.545 48.6277 32.1011
692 2 33.1362 21.4873 20.8017
693 2 24.0979 4.93267 2.41148
694 2 17.0666 18.0362 1.53753
695 2 8.04283 9.2265 47.7153
696 2 23.7243 12.7675 20.0754
697 2 47.5851 52.6573 54.232
698 2 52.3457 55.8473 26.3532
699 2 7.90775 23.9057 13.2367
700 2 13.6724 50.7547 27.6842
701 2 6.06864 3.2255 28.9496
702 2 22.0026 49.8162 36.8777
703 2 50.707 43.9254 0.280048
704 2 51.1448 49.0577 41.4519
705 2 10.7142 30.9756 49.1941
706 2 25.3107 52.1353 5.33346
707 2 30.8047 41.6351 5.31248
708 2 36.1278 40.6268 3.79529
709 2 4.42379 29.1062 31.5552
710 2 47.2978 26.7576 14.6423
711 1 22.8141 24.0755 24.7663
712 1 10.5142 49.9061 13.5439
713 1 -0.0323222 42.7381 30.4958
714 1 28.289 36.7885 44.1169
715 1 48.4475 15.2196 35.8078
716 1 30.6216 21.8068 49.3271
717 1 17.9069 36.861 50.3198
718 1 6.66568 38.6205 21.3026
719 1 16.7584 56.3789 21.8359
720 1 54.6811 14.2872 10.0546
721 1 51.9267 34.0377 15.5479
722 1 44.2943 32.2442 33.349
723 1 3.97564 15.8975 3.23137
724 1 30.0431 4.21159 19.7668
725 1 55.7856 4.65889 21.1929
726 1 55.1683 47.1759 31.9983
727 1 24.8715 16.3796 52.8325
728 1 7.03918 43.1332 34.8122
729 1 51.4988 21.8459 20.3449
730 1 53.9306 29.1095 49.9976
731 1 6.33131 3.23867 32.4601
732 1 9.85944 45.1769 8.09813
733 1 21.3998 35.2584 53.5027
734 1 -0.0645434 18.0037 0.114666
735 1 41.7775 37.2694 16.6423
736 1 2.28836 49.5415 12.142
737 1 19.0418 7.68359 37.3075
738 1 41.8779 46.375 34.9657
739 1 9.74331 27.9478 49.4847
740 1 1.3788 24.5041 0.630936
741 1 45.6813 5.86794 31.9312
742 1 23.0936 18.0924 27.5721
743 1 13.2602 54.1861 56.1775
744 1 42.2961 30.3393 25.0538
745 1 49.7001 10.1635 1.817
746 1 40.0341 23.6912 53.9874
747 1 38.9395 54.2752 50.7737
748 1 33.7377 19.7205 16.0495
749 1 50.6372 6.45951 51.3441
750 1 30.8741 3.19276 32.6792
751 1 11.6473 11.2744 11.9628
752 1 41.3303 43.786 46.0103
753 1 16.1181 8.55793 3.04806
754 1 20.6849 2.33228 13.7794
755 1 -0.220915 49.2286 33.176
756 1 33.4472 23.4179 22.9977
757 1 18.0582 34.897 23.3615
758 1 22.3483 24.62 27.2287
759 1 21.2754 52.9258 1.87145
760 1 33.5187 18.821 10.4128
761 1 54.7259 36.3577 34.9363
762 1 6.03328 20.3179 1.16708
763 1 3.74352 15.7537 48.6404
764 1 36.53 31.9356 9.28016
765 1 22.8942 42.8693 19.5456
766 1 54.232 31.8832 24.3432
767 1 19.2038 19.7265 31.8781
768 1 30.2257 27.6188 32.8195
769 1 23.7276 35.7774 37.5519
770 1 12.4516 3.00498 37.8261
771 1 36.091 44.2821 47.395
772 1 35.7831 26.4867 29.7995
773 1 36.7362 17.8694 22.4767
774 1 7.77053 32.0669 10.5664
775 1 3.76458 10.6197 55.0885
776 1 42.3339 15.3953 43.6677
777 1 7.16015 45.6055 21.3832
778 1 38.5102 38.569 7.60666
779 1 52.8845 11.4351 24.2094
780 1 3.34612 38.0786 50.919
781 1 39.1968 30.2567 9.41343
782 1 48.5424 13.8029 38.0544
783 1 22.2415 25.4789 11.4849
784 1 7.89282 47.8524 20.1636
785 1 49.3431 -0.336389 27.2529
786 1 12.7423 40.9011 0.455227
787 1 36.0353 13.7175 36.5762
788 1 55.1152 53.5633 49.9495
789 1 28.4594 2.86508 23.7744
790 1 17.2136 18.8465 25.526
791 1 55.9256 48.7966 12.4026
792 1 5.02527 22.6596 43.1088
793 1 19.3066 53.828 23.0691
794 1 27.1156 51.5721 12.0377
795 1 26.7225 10.8953 6.70482
796 1 24.1978 42.1007 52.8276
797 1 34.7902 37.9914 53.37
798 1 34.6945 46.6263 19.9571
799 1 19.4438 14.3077 23.8233
800 1 1.38414 54.1278 4.99348
801 1 12.4416 22.8599 45.3956
802 1 25.1 17.02 44.378
803 1 26.9737 26.0835 24.0672
804 1 54.3439 51.1406 16.2602
805 1 31.3257 45.1957 52.4368
806 1 28.3273 46.5671 43.5957
807 1 42.4226 44.1961 29.6696
808 1 35.8634 5.01855 2.67094
809 1 5.39477 6.84486 54.8407
810 1 44.0058 14.3466 35.6356
811 1 12.9651 32.1 14.5989
812 1 22.8738 30.2194 30.8986
813 1 54.1611 52.6348 26.9875
814 1 44.4827 40.1993 27.1618
815 1 42.0674 1.05599 4.36456
816 1 46.6399 34.3832 12.1876
817 1 8.69748 37.8348 44.1357
818 1 33.8525 28.2354 24.7199
819 1 23.5149 20.5751 12.49
820 1 54.2236 28.2942 0.188926
821 1 12.3349 26.0381 52.847
822 1 40.462 0.56517 29.4589
823 1 37.398 11.8285 51.8171
824 1 34.3934 6.18506 8.96376
825 1 46.1536 45.965 40.4852
826 1 21.4136 53.2697 12.1775
827 1 12.9341 11.7772 48.0162
828 1 45.6562 -0.209837 44.277
829 1 30.2768 31.9036 52.7644
830 1 3.69386 2.07115 39.7663
831 2 2.63572 11.9736 8.95925
832 2 23.5591 28.5653 21.4591
833 2 35.9555 32.2801 31.1565
834 2 3.63371 14.7366 24.978
835 2 16.9922 1.19476 24.5815
836 2 10.9238 13.4985 10.1089
837 2 21.0386 8.30093 24.8342
838 2 10.8999 41.9156 12.195
839 2 47.536 38.157 29.1914
840 2 5.46833 32.4424 54.7618
841 2 12.6782 48.5303 1.77057
842 2 28.1501 19.8013 50.2975
843 2 44.5519 28.6869 47.6925
844 2 44.8873 9.92356 43.7517
845 2 12.6926 54.6603 35.9248
846 2 17.2066 19.702 16.6569
847 2 36.9586 55.8415 38.0136
848 2 27.3104 54.4597 16.0923
849 2 4.4387 20.4333 24.3943
850 2 23.4533 55.1819 -0.0332573
851 2 34.3914 52.5878 42.0741
852 2 39.2381 37.4319 34.0539
853 1 36.5654 46.4077 30.8671
854 1 55.8175 16.6245 20.8008
855 1 38.8176 21.5476 39.0291
856 1 42.2106 7.56889 9.63602
857 1 54.7184 41.3411 31.56
858 1 3.25568 27.1256 7.04162
859 1 18.9917 41.9689 39.1464
860 1 21.6749 33.9397 37.24
861 1 52.6614 50.2081 53.7201
862 1 31.7391 45.1401 4.35829
863 1 2.23709 15.7638 36.0898
864 1 8.78098 50.6437 6.72646
865 1 12.1138 7.48733 44.6817
866 1 6.31397 43.4571 9.17965
867 1 55.7607 43.1213 4.60675
868 1 38.5699 0.459049 40.5802
869 1 41.655 53.39 44.9214
870 1 27.034 18.233 53.1417
871 1 15.6805 6.86529 56.2652
872 1 10.5567 42.6354 42.5858
873 1 8.60803 41.2593 18.0752
874 1 50.1163 33.7728 55.6718
875 1 54.4888 32.9327 10.0309
876 1 10.8319 9.61388 55.3353
877 1 44.0378 4.40905 45.2955
878 1 46.4938 13.6825 5.94179
879 1 24.9005 47.0037 11.8432
880 1 11.3066 27.0021 7.23012
881 1 8.17901 5.40226 46.1543
882 1 42.0684 4.73139 39.5704
883 1 39.5379 51.1364 23.5304
884 1 32.5869 5.5725 55.777
885 1 6.16925 42.7178 22.9252
886 1 48.9725 22.2666 20.8396
887 1 10.8323 36.4746 49.0109
888 1 12.165 21.4202 51.8183
889 1 14.2622 40.4829 3.98112
890 1 7.91469 -0.253001 21.9382
891 1 24.5749 16.75 47.2323
892 1 19.8511 24.4771 42.7067
893 1 33.4169 11.1612 55.4972
894 1 10.2755 10.7632 3.10288
895 1 21.9699 45.3206 48.5914
896 1 40.2783 53.4317 20.6491
897 1 47.1646 49.445 44.8123
898 1 23.8806 5.71685 14.2609
899 1 53.5062 17.6495 21.2045
900 1 25.5203 5.62697 26.3113
901 1 45.902 12.9776 42.6076
902 1 26.7906 31.9478 44.4133
903 1 29.1594 21.907 45.4328
904 1 32.2142 55.3812 19.7166
905 1 51.0623 42.0298 2.54429
906 1 24.7248 39.4511 43.453
907 1 4.994 50.4646 47.0644
908 1 1.165 8.05498 2.3024
909 1 29.79 28.4852 28.0092
910 1 36.7202 19.4246 10.609
911 1 23.0397 26.3843 18.0189
912 1 13.8086 13.2927 50.2144
913 1 42.5578 7.66424 43.765
914 1 38.3106 7.84016 42.1775
915 1 10.2543 43.9053 46.4219
916 1 8.75359 5.14467 19.9246
917 1 49.4529 20.0252 28.8244
918 1 41.2358 25.8083 35.4998
919 1 17.4758 9.87414 14.6426
920 1 2.07124 22.5277 16.7238
921 1 2.8079 30.7707 25.8797
922 1 54.5546 21.0802 15.3413
923 1 8.10824 33.3658 46.0948
924 1 17.1025 49.7592 4.57362
925 1 37.7364 37.1615 37.6613
926 1 29.9062 39.703 18.7296
927 1 49.2103 14.5436 23.2549
928 1 5.56076 8.6196 5.72183
929 1 13.9655 27.5291 -0.101016
930 1 46.7531 29.7928 4.57654
931 1 23.1228 50.2992 47.85
932 1 52.5988 14.8265 37.5814
933 1 9.2055 51.5892 47.1875
934 1 3.49775 22.8599 45.3889
935 1 40.0089 3.5835 7.46078
936 1 27.347 19.4827 32.6927
937 1 55.0804 12.8651 27.5414
938 1 40.0254 44.0402 37.2725
939 1 34.4413 25.7549 1.41772
940 1 8.40986 14.2096 47.1954
941 1 0.280188 28.7045 14.8426
942 1 27.0429 35.0377 23.1946
943 1 47.7495 39.4239 21.127
944 1 48.899 49.7379 49.5995
945 1 2.63061 10.2816 52.7583
946 1 22.4901 21.3465 50.3708
947 1 8.9721 43.6145 24.2325
948 1 9.90932 6.66482 47.9239
949 1 12.315 9.49258 32.6881
950 1 20.7057 20.441 52.014
951 1 4.17579 43.1093 45.4946
952 1 8.32425 11.8585 52.2509
953 1 38.3379 13.4252 18.101
954 1 18.4345 53.9763 39.8532
955 1 17.6841 29.9026 30.6435
956 1 33.6055 15.0814 35.3174
957 1 52.0318 51.2502 56.3377
958 1 19.7097 31.8153 20.2189
959 1 0.692743 50.5386 22.7987
960 1 9.70028 52.914 2.00186
961 1 26.9271 41.6663 17.6894
962 1 24.1947 24.1777 9.87226
963 1 50.6083 44.1131 19.6395
964 1 7.28683 44.9749 53.4739
965 1 41.4835 7.92666 14.7077
966 1 56.162 23.2972 -0.118054
967 1 54.4437 0.709141 47.6335
968 1 4.34221 11.7728 4.10587
969 1 19.5162 45.396 3.33391
970 1 21.3709 3.39063 7.55122
971 1 49.5975 18.1685 42.3155
972 1 52.5385 29.2214 39.9479
973 2 36.2255 48.2408 38.6357
974 2 5.98695 16.5319 46.8253
975 2 8.85845 36.3185 46.7964
976 2 10.4212 12.587 0.176009
977 2 26.6769 46.2195 6.69474
978 2 6.80401 42.8643 12.3821
979 2 34.4502 23.8877 37.0624
980 2 39.0191 23.3314 36.542
981 2 51.3701 1.85192 17.1056
982 2 25.7288 51.6282 9.24001
983 2 1.48151 42.3355 47.0957
984 2 39.5757 15.2814 9.20591
985 2 24.3567 52.388 13.2604
986 2 10.4649 33.2223 10.0838
987 2 55.032 38.7489 0.486404
988 2 47.5833 7.05962 34.0537
989 2 37.5468 2.1231 24.599
990 2 27.7654 1.42096 54.7407
991 2 45.5167 48.8208 50.1141
992 2 21.0354 36.3822 32.2942
993 2 5.63967 2.58741 15.7933
994 2 0.760981 10.4301 30.8192
995 1 6.11712 9.86457 56.0249
996 1 18.3367 1.84981 21.4538
997 1 41.5702 39.8324 1.35531
998 1 2.07584 38.8136 17.6584
999 1 29.4162 17.1583 27.1325
1000 1 20.1448 37.6833 6.4222
1001 1 33.0091 10.3556 5.46459
1002 1 1.89656 8.77464 54.9811
1003 1 22.2051 5.7012 56.3335