ITEM: TIMESTEP
0
ITEM: NUMBER OF ATOMS
9088
ITEM: BOX BOUNDS pp pp pp
-2.5122135215738772e-01 5.6135713978049374e+01
-2.5122135215738772e-01 5.6135713978049374e+01
-2.5122135215738772e-01 5.6135713978049374e+01
ITEM: ATOMS id type x y z
1 1 28.4889 41.4325 49.3787
2 1 44.3082 4.39467 36.6146
3 1 43.2476 15.2253 50.8164
4 1 37.0059 49.2204 43.9053
5 1 11.6503 34.4389 8.32079
6 1 35.6834 25.5612 21.768
7 1 19.9846 33.264 1.23502
8 1 48.1516 1.59038 9.48645
9 1 55.9548 50.3793 40.0406
10 1 36.9814 13.3776 53.7365
11 1 48.566 35.6761 32.5031
12 1 35.397 19.6454 36.6252
13 1 21.4066 48.8123 37.0165
14 1 20.2115 49.8571 50.3653
15 1 3.33471 36.6648 29.925
16 1 26.3334 0.703967 38.7639
17 1 50.8196 10.0303 28.0885
18 1 2.11672 49.5266 34.9052
19 1 30.2604 23.8171 52.0169
20 1 30.9269 2.44817 44.8546
21 1 25.3739 49.3006 50.3306
22 1 9.4903 41.5722 1.6212
23 1 21.9135 17.8205 38.0284
24 1 3.43282 7.89728 55.6815
25 1 26.3891 27.2336 39.0198
26 1 20.0666 28.0331 43.4098
27 1 34.9833 29.3495 54.6524
28 1 13.422 32.5869 14.9149
29 1 10.8682 50.3355 40.2806
30 1 48.9314 10.0072 42.9641
31 1 31.0063 5.16589 0.0547538
32 1 34.0731 5.24748 23.294
33 1 24.3459 41.9917 2.54515
34 1 14.5609 24.6537 1.64158
35 1 19.1492 54.0797 41.6875
36 1 20.2754 35.9392 15.556
37 1 23.2872 56.0145 47.0222
38 1 23.8501 21.1314 5.91916
39 1 13.3031 26.3805 -0.0149583
40 1 8.82299 11.3368 48.0686
41 1 46.8884 40.966 1.01606
42 1 5.50787 39.1277 14.9293
43 1 21.9663 16.8786 9.4979
44 1 50.9149 52.2843 23.705
45 1 13.0313 43.7791 -0.189019
46 1 56.0869 17.7585 11.0922
47 1 42.7638 6.08659 32.1705
48 1 18.5606 30.7531 19.8838
49 1 5.02296 18.8786 33.0813
50 1 18.4515 19.437 20.5765
51 1 50.1306 32.1814 30.4454
52 1 22.1423 10.5454 37.5274
53 1 52.4387 20.5507 1.27004
54 1 55.8104 20.8346 42.8176
55 1 39.5822 45.1823 29.4244
56 1 11.0103 27.1591 42.8843
57 1 7.0949 33.295 34.5309
58 1 37.5607 11.5671 21.9199
59 1 5.4107 30.3681 28.4446
60 1 36.2645 32.5437 54.8068
61 1 11.8571 27.0427 54.2948
62 1 52.6959 22.0852 24.6247
63 1 49.5093 43.3441 29.0526
64 1 22.5793 4.19471 16.111
65 1 10.9516 42.3958 48.1239
66 1 8.12396 44.8365 10.014
67 1 12.3544 43.4963 53.1938
68 1 11.2418 33.9472 52.6037
69 1 37.1956 38.1289 45.8571
70 1 2.05392 28.131 4.79057
71 1 51.9544 46.8511 28.4519
72 1 55.5609 29.4765 1.37297
73 1 21.0097 44.7202 6.37463
74 1 5.63436 33.9261 44.774
75 1 37.6934 19.5614 5.27564
76 1 38.6444 23.813 6.00234
77 1 47.5353 40.2073 31.9832
78 1 34.0831 40.34 10.5678
79 1 31.8756 23.1993 43.0064
80 1 39.3847 0.0679279 30.7734
81 1 17.4064 27.8582 54.1137
82 1 50.4639 1.24377 23.6508
83 1 8.04549 15.0748 27.9736
84 1 36.3135 2.26005 3.68216
85 1 39.644 10.8703 38.6346
86 1 34.6729 34.0296 34.5521
87 1 25.9962 8.34378 31.7658
88 1 16.1206 11.4865 12.8241
89 1 6.91364 47.9556 39.6992
90 1 1.15265 39.3592 51.6714
91 1 17.978 7.86364 21.7917
92 1 10.0652 11.9482 19.1545
93 1 38.5308 9.34438 11.0312
94 1 35.6974 34.2553 28.8632
95 1 40.3864 24.4476 18.9526
96 1 7.10093 -0.120508 13.9632
97 1 3.30135 8.92445 32.6154
98 1 18.4086 12.7249 30.3452
99 1 42.4442 36.5424 5.50709
100 1 2.93792 6.08137 27.204
101 1 0.528069 33.6272 47.4281
102 1 5.17268 1.35438 12.3087
103 1 41.6524 43.3267 56.0922
104 1 14.5193 55.0591 39.2652
105 1 31.6595 13.8839 10.6741
106 1 19.2263 48.4533 47.6595
107 1 34.0923 0.631394 42.7533
108 1 46.6483 17.3643 47.1712
109 1 10.3585 45.6471 16.3866
110 1 31.5674 8.96612 10.4639
111 1 37.5952 54.3801 15.2117
112 1 5.43442 5.55957 10.03
113 1 28.7648 33.5884 11.6416
114 1 24.619 17.0005 40.1664
115 1 42.6152 34.6788 31.2527
116 1 31.9736 6.00023 38.2007
117 1 0.301612 12.4714 40.6153
118 1 1.82342 44.0655 31.6795
119 1 36.3101 36.2886 34.0632
120 1 15.0297 1.34286 39.9562
121 2 11.9245 38.9233 35.3696
122 2 51.0956 18.2458 12.6888
123 2 55.1441 46.5758 20.7399
124 2 52.5648 29.6614 19.9044
125 2 54.1639 35.5061 38.4462
126 2 25.3712 7.56592 17.7829
127 2 12.4794 51.4151 15.578
128 2 7.71304 29.9052 35.0409
129 2 55.2547 17.8573 7.67683
130 2 1.30024 21.0347 45.9663
131 2 52.1465 12.1259 47.3922
132 2 39.1108 46.3663 17.8046
133 2 34.9652 42.5784 15.8041
134 2 15.2814 5.29315 9.00045
135 2 42.9677 33.7033 3.9136
136 2 9.7557 0.679798 32.1047
137 2 40.6432 24.3222 46.3175
138 2 5.04311 4.68656 49.3373
139 2 31.5004 14.7687 13.7295
140 2 45.5224 27.27 38.946
141 2 7.83532 38.5989 22.807
142 2 29.6846 23.3603 40.4831
143 1 47.1278 19.904 45.7739
144 1 29.1337 17.7117 13.4483
145 1 53.9706 12.5267 6.57286
146 1 51.9722 26.8521 15.4989
147 1 29.1105 28.1583 33.1131
148 1 26.89 10.4049 38.5932
149 1 45.9949 6.37201 44.8296
150 1 25.0636 25.7106 9.34988
151 1 49.7383 24.2384 54.021
152 1 10.1441 33.6584 45.3229
153 1 49.9727 48.3486 29.263
154 1 43.2107 41.7861 30.8991
155 1 32.5996 18.5442 10.4758
156 1 8.15918 32.849 9.33299
157 1 51.3996 34.125 22.32
158 1 37.6921 5.46417 0.134403
159 1 54.8971 48.0769 13.356
160 1 49.1094 2.39407 2.34455
161 1 10.5861 25.3456 21.3819
162 1 13.1536 12.8562 44.005
163 1 19.9856 21.0541 26.577
164 1 55.7855 38.558 11.8205
165 1 51.4536 35.6621 6.45703
166 1 45.2441 41.6517 14.4628
167 1 31.1387 39.7218 46.6022
168 1 44.6648 3.09729 0.118605
169 1 28.2513 50.6636 39.1897
170 1 39.6239 34.0452 47.2989
171 1 29.0441 35.1675 24.7815
172 1 21.3061 43.8659 28.4553
173 1 14.1351 39.8778 10.0012
174 1 35.4297 1.62742 32.5122
175 1 18.7736 27.8266 16.5766
176 1 39.603 37.0655 6.65407
177 1 9.89458 4.89692 24.6871
178 1 12.8908 7.2662 10.854
179 1 26.9239 45.5252 47.7457
180 1 55.5131 26.9399 8.73013
181 1 48.4725 42.8782 31.6569
182 1 49.4979 30.2105 52.7547
183 1 13.6251 20.7342 4.07796
184 1 25.916 53.0336 12.0079
185 1 33.4319 10.1048 34.659
186 1 43.6871 26.4499 26.588
187 1 1.52122 7.06539 53.6082
188 1 28.4819 39.3893 3.60749
189 1 13.2025 41.4194 33.9506
190 1 35.5074 48.7778 21.2428
191 1 20.4882 18.8393 46.1827
192 1 50.0993 -0.0652627 7.95993
193 1 37.1157 8.61886 13.6443
194 1 36.0016 3.7457 31.0119
195 1 17.8671 25.5083 49.0821
196 1 34.8161 5.16638 26.3415
197 1 7.16491 9.47662 49.683
198 1 13.2386 17.7554 30.8361
199 1 31.4652 18.808 2.84303
200 1 39.9286 20.3511 41.4811
201 1 26.5981 12.6812 15.8359
202 1 39.3213 2.09169 2.66151
203 1 31.0533 27.7615 37.3804
204 1 40.8813 27.1303 19.5418
205 1 7.9469 12.4838 3.12436
206 1 39.2586 25.2373 24.7354
207 1 0.0306834 44.7954 45.692
208 1 32.0977 4.83963 10.9585
209 1 47.888 6.57548 47.3244
210 1 27.2028 21.7504 42.0311
211 1 8.67318 5.77219 21.5542
212 1 43.3892 27.5514 43.3977
213 1 22.3659 12.278 51.1395
214 1 0.897193 37.7819 2.22973
215 1 11.7942 27.6988 22.9263
216 1 55.8223 24.518 51.1379
217 1 21.9561 8.8618 35.6435
218 1 1.45229 9.90114 54.6911
219 1 43.8322 51.1959 5.89244
220 1 47.6335 5.29827 42.4972
221 1 30.62 0.460352 17.1715
222 1 2.64026 7.66862 21.4034
223 1 26.1186 44.3204 2.85441
224 1 42.7326 8.85726 25.7052
225 1 43.5601 49.1052 38.3352
226 1 12.5459 42.2592 25.4196
227 1 20.1156 45.817 33.3271
228 1 56.0837 20.2538 53.021
229 1 9.88637 28.7779 40.4073
230 1 30.928 29.9697 41.5323
231 1 31.7913 35.3247 25.2625
232 1 40.8301 17.0813 17.8086
233 1 51.1559 50.1042 38.2718
234 1 11.0096 14.414 51.488
235 1 41.6599 18.4763 42.286
236 1 6.70687 47.7608 29.3737
237 1 52.5141 29.6278 23.7661
238 1 36.023 0.574705 1.66254
239 1 34.0658 28.6807 6.20031
240 1 9.29948 32.8791 50.8918
241 1 20.259 49.0895 10.8614
242 1 33.001 11.1548 2.59011
243 1 7.39265 24.0703 33.4866
244 1 55.8878 42.5517 7.4186
245 1 0.998978 27.7996 19.8846
246 1 54.5814 5.79438 5.9272
247 1 54.3828 49.2615 10.8185
248 1 44.1256 0.520361 45.724
249 1 10.6076 45.0633 48.9312
250 1 23.496 24.4696 18.0062
251 1 19.7421 35.7951 2.92889
252 1 47.7172 16.535 38.7766
253 1 2.89405 27.0722 48.2409
254 1 10.118 5.45804 32.63
255 1 55.1867 9.45381 18.0239
256 1 30.8356 47.3993 24.351
257 1 1.28434 12.2174 34.924
258 1 33.1734 18.3464 27.9938
259 1 45.6051 45.8243 54.8908
260 1 24.653 41.5327 33.9588
261 1 32.2347 10.7157 39.6072
262 1 29.4195 47.5179 12.2404
263 2 44.073 24.5086 29.3828
264 2 25.5772 47.3145 1.47696
265 2 50.2685 7.25216 49.582
266 2 6.85521 24.8155 38.5563
267 2 14.6277 21.5115 1.22857
268 2 4.61497 3.0958 24.5892
269 2 15.2442 2.50922 16.6826
270 2 44.275 43.3202 53.6098
271 2 53.7121 44.8049 25.9815
272 2 33.1599 40.1643 13.4708
273 2 33.2239 6.08839 35.1762
274 2 53.0275 27.0727 30.6416
275 2 27.1389 6.92844 53.0754
276 2 56.0295 13.9459 4.45814
277 2 1.45251 42.9467 39.1244
278 2 11.8072 34.376 18.6073
279 2 43.9459 51.2094 46.5442
280 2 19.7155 55.4968 22.1209
281 2 41.6433 16.9526 14.7395
282 2 15.0984 28.9833 8.25108
283 2 46.7271 47.8886 28.6869
284 2 16.716 27.1474 34.7041
285 1 4.5152 35.3948 5.90826
286 1 49.6743 34.4992 20.2109
287 1 44.5256 1.69069 36.2398
288 1 24.672 16.4666 30.0281
289 1 22.6417 30.7863 8.11316
290 1 50.7744 12.7396 24.1533
291 1 17.9202 43.438 34.3768
292 1 40.5288 5.09816 44.1687
293 1 54.5501 19.84 55.802
294 1 30.7079 32.983 41.6124
295 1 47.1726 25.3262 29.9855
296 1 12.4467 32.2055 35.1887
297 1 48.4417 13.9823 33.7696
298 1 30.8212 22.3138 13.0591
299 1 31.5679 18.5804 17.896
300 1 24.9267 31.9076 9.41769
301 1 24.3815 49.6724 23.1299
302 1 46.5995 33.3854 26.1097
303 1 54.1326 3.27722 1.72414
304 1 11.5654 37.4231 49.5823
305 1 25.4497 38.719 22.9027
306 1 28.888 52.5 32.8578
307 1 5.14257 40.3105 32.1185
308 1 39.9032 54.0285 45.4602
309 1 49.7803 30.5963 28.1548
310 1 10.2528 53.0084 38.5761
311 1 38.2841 35.0901 5.65028
312 1 10.0492 8.10081 26.0943
313 1 5.01768 55.516 17.9439
314 1 28.9933 47.4914 53.0951
315 1 4.44581 6.23215 14.9358
316 1 43.9439 10.2685 10.3967
317 1 30.3044 31.87 39.1748
318 1 5.94166 23.0905 11.2737
319 1 3.12392 2.89604 17.976
320 1 19.1045 33.8981 25.4378
321 1 26.0186 38.8821 34.0052
322 1 54.8994 21.676 23.0859
323 1 11.2273 10.741 33.07
324 1 18.7648 8.70407 32.1384
325 1 21.4998 46.106 42.9968
326 1 16.7878 31.9187 40.7569
327 1 12.6556 9.00587 35.0567
328 1 0.504296 8.18796 36.6576
329 1 4.68943 25.4736 44.9889
330 1 8.36885 30.612 29.7841
331 1 15.79 39.0916 52.6251
332 1 0.710945 44.1811 11.4699
333 1 16.1722 13.7844 10.9645
334 1 33.7351 34.887 22.5172
335 1 35.4043 13.1438 51.4845
336 1 50.0324 21.1907 12.849
337 1 0.68947 34.1502 7.57421
338 1 9.50336 22.7375 22.4038
339 1 14.7353 23.2588 41.7194
340 1 25.2447 23.3616 26.3112
341 1 26.3756 51.0508 25.3968
342 1 55.9952 26.6908 17.8448
343 1 35.9115 13.9325 27.6221
344 1 33.1095 15.9761 11.3399
345 1 48.6156 16.7506 4.16584
346 1 0.308456 7.02514 23.6333
347 1 19.9884 18.4154 10.7713
348 1 12.8043 10.4032 22.9493
349 1 4.15002 37.2905 10.3255
350 1 1.86736 53.57 51.0265
351 1 45.2631 35.4781 5.48451
352 1 18.7361 8.46346 52.278
353 1 24.5679 34.702 54.0892
354 1 46.4996 37.0082 39.707
355 1 48.8239 28.5857 38.793
356 1 9.68742 40.323 42.9905
357 1 20.0397 50.6517 53.079
358 1 21.8583 24.101 36.9254
359 1 28.8843 45.0208 45.9878
360 1 16.3403 38.2852 45.5482
361 1 40.0197 22.0595 44.003
362 1 0.25221 53.9751 4.72576
363 1 44.4504 18.3631 14.636
364 1 41.1081 0.635397 32.9099
365 1 39.0287 48.9442 7.91042
366 1 15.6275 34.5711 14.6517
367 1 51.0486 46.9125 38.2964
368 1 40.571 44.9237 26.5022
369 1 33.3426 14.563 16.3157
370 1 3.34722 40.4305 50.331
371 1 19.2665 28.4092 48.7028
372 1 13.7391 22.3288 33.8205
373 1 19.7337 55.9909 36.5686
374 1 47.2675 50.3436 2.23114
375 1 4.03564 52.8041 35.0679
376 1 42.9165 49.3319 25.1071
377 1 7.3236 24.0685 52.5935
378 1 28.8864 52.5849 21.5209
379 1 51.4735 39.3609 20.4254
380 1 11.1745 13.0435 27.0411
381 1 26.0342 50.0694 29.0745
382 1 55.1164 22.7842 8.52008
383 1 12.5967 23.3579 22.6734
384 1 49.2415 16.5317 32.9455
385 1 30.1676 8.86005 19.6322
386 1 36.1265 38.9151 23.2296
387 1 21.185 33.9907 39.5588
388 1 24.2091 7.22981 40.3383
389 1 26.8946 10.7831 14.2201
390 1 45.4153 48.7239 31.5301
391 1 6.85867 9.39761 6.68849
392 1 48.713 49.1345 37.281
393 1 3.25501 27.721 0.893396
394 1 2.99916 37.7645 46.6594
395 1 55.0945 7.6024 48.0236
396 1 14.5449 5.3903 23.955
397 1 49.6971 25.9658 22.354
398 1 20.5158 26.1864 53.9836
399 1 7.0126 54.34 41.9402
400 1 35.6381 42.817 27.4748
401 1 18.5241 30.705 24.8875
402 1 31.7091 47.8432 43.6896
403 1 13.0076 42.6326 28.1901
404 1 26.7525 35.0022 46.0497
405 2 19.9791 8.09941 14.2154
406 2 36.1397 31.0894 7.91359
407 2 34.5145 12.9337 12.7244
408 2 24.7922 49.5664 12.6895
409 2 46.7926 0.135208 16.6404
410 2 36.6375 49.1034 16.1846
411 2 5.79632 41.5144 16.7987
412 2 53.6454 8.84425 35.8113
413 2 31.2758 21.4114 45.796
414 2 12.5021 35.0322 47.5937
415 2 55.6909 51.7203 9.09871
416 2 51.9939 43.1029 55.1699
417 2 44.5833 4.70247 10.1012
418 2 7.29901 35.8748 11.0598
419 2 15.4287 54.6751 22.3768
420 2 23.8861 23.0729 23.3274
421 2 41.4156 49.5025 9.64037
422 2 31.9693 16.1493 8.15716
423 2 7.99066 0.525667 43.3608
424 2 52.1987 10.5375 4.8467
425 2 48.1431 51.9558 39.0139
426 2 37.3905 8.42895 38.3081
427 1 29.721 30.0808 0.10167
428 1 1.2157 54.0111 53.6426
429 1 55.7901 27.4643 51.1368
430 1 51.7362 55.0237 9.83866
431 1 20.0821 47.4886 26.1404
432 1 42.7365 8.03212 6.44507
433 1 40.7863 21.9962 13.286
434 1 14.3657 22.8937 46.5125
435 1 22.94 52.3636 8.51263
436 1 32.3534 31.9273 48.3799
437 1 26.3192 24.3954 33.6397
438 1 46.9482 3.06821 35.5382
439 1 1.19013 38.0238 54.1093
440 1 8.19629 22.5924 30.8812
441 1 22.461 14.2085 10.7104
442 1 42.7395 18.783 17.0248
443 1 41.7715 10.7092 27.6304
444 1 51.7846 41.9588 47.629
445 1 5.4218 14.702 17.578
446 1 38.6817 31.6312 40.0254
447 1 20.7509 51.9874 10.4644
448 1 33.3845 6.12668 48.8816
449 1 54.1404 6.69822 28.9749
450 1 48.801 32.9964 0.0853742
451 1 27.7586 49.0674 14.2153
452 1 51.3266 17.1536 19.3171
453 1 7.20535 20.3997 32.0166
454 1 5.13913 35.4568 52.2711
455 1 6.7361 21.8369 23.3022
456 1 46.3047 3.60409 51.4604
457 1 53.7313 39.0036 18.9109
458 1 27.3287 20.2182 36.8956
459 1 2.70138 34.7084 9.62409
460 1 29.5015 0.358397 34.5202
461 1 8.087 16.6261 17.4958
462 1 48.546 27.5241 9.46628
463 1 15.2111 2.52042 7.23813
464 1 31.5023 52.3534 23.0556
465 1 7.61349 46.5186 17.2365
466 1 4.88531 47.8563 5.26615
467 1 46.9535 11.5805 37.8637
468 1 44.8837 53.8019 6.81557
469 1 14.8443 43.2746 24.4572
470 1 28.6101 0.247558 14.9989
471 1 26.7398 9.94516 3.48081
472 1 15.5514 37.7232 27.8539
473 1 48.6912 38.7631 46.4928
474 1 39.9665 12.4638 16.7396
475 1 22.9065 24.8682 20.6573
476 1 12.2277 21.6696 40.2324
477 1 49.1359 3.33853 37.2434
478 1 41.565 7.30001 13.6416
479 1 55.5865 25.642 35.0144
480 1 40.9026 8.32118 3.73793
481 1 25.3783 1.52942 51.1542
482 1 29.8568 36.9915 22.5243
483 1 46.1237 19.344 34.3252
484 1 5.81955 37.2732 7.46699
485 1 18.4518 45.4999 25.1558
486 1 47.1211 8.01877 42.6673
487 1 21.1628 12.6626 22.0204
488 1 6.01571 47.3385 25.4065
489 1 2.72857 44.4209 13.4354
490 1 24.4723 49.7906 26.2945
491 1 13.1496 29.9235 47.578
492 1 27.1076 24.4517 41.707
493 1 43.9891 30.5099 34.0272
494 1 4.70864 54.5265 13.4339
495 1 11.7346 33.8492 12.991
496 1 39.0893 17.7484 37.3849
497 1 7.61417 17.5459 32.2313
498 1 19.5661 20.6271 8.81922
499 1 33.7523 29.9769 20.1385
500 1 51.9924 3.28119 36.4896
501 1 16.1475 50.9574 43.7482
502 1 50.8171 42.9869 6.62693
503 1 42.4507 21.2367 43.0905
504 1 40.1979 47.3194 31.9888
505 1 38.501 27.5381 3.86045
506 1 22.7521 27.3642 42.1139
507 1 53.7078 54.2584 32.1383
508 1 10.8922 43.0104 17.2637
509 1 53.6145 29.2078 8.37782
510 1 30.7794 0.561743 3.54334
511 1 49.8701 5.2953 5.93881
512 1 14.2158 50.6962 12.796
513 1 33.1069 30.0948 29.1838
514 1 28.0873 27.9212 21.1027
515 1 29.2639 12.5029 27.2756
516 1 5.36797 40.4914 37.2059
517 1 16.133 3.07932 0.0517068
518 1 24.4883 12.2692 13.7808
519 1 8.01394 11.9904 45.3284
520 1 35.9214 17.5567 4.56481
521 1 45.8606 24.8926 32.2347
522 1 7.3688 17.5897 1.01683
523 1 38.4824 1.67028 25.8558
524 1 40.081 52.0989 32.2869
525 1 25.6866 41.6326 22.4862
526 1 27.1221 14.9907 30.4754
527 1 28.7746 54.7299 23.6595
528 1 2.40568 6.66314 6.26338
529 1 39.9912 8.49148 33.2629
530 1 38.6926 17.9525 15.7921
531 1 44.4222 8.02959 43.749
532 1 35.0524 9.76149 11.7213
533 1 43.3176 6.55088 20.367
534 1 19.6394 35.7088 20.5093
535 1 43.5143 2.62675 38.5189
536 1 38.1266 23.7328 17.9575
537 1 19.1251 22.0288 20.7459
538 1 6.43423 27.0318 2.56087
539 1 28.5171 37.845 33.1374
540 1 48.5606 11.8063 16.5762
541 1 42.4379 5.69358 7.79968
542 1 33.0042 48.0039 35.5966
543 1 37.84 45.0347 35.0292
544 1 31.8106 34.7059 15.1694
545 1 51.694 24.8999 5.96234
546 1 23.5979 51.213 40.9964
547 2 15.165 40.6293 26.3791
548 2 12.8152 46.5835 1.33185
549 2 34.7982 48.3273 25.936
550 2 55.7105 51.47 12.8404
551 2 52.4896 6.99912 16.9124
552 2 9.88245 6.99865 35.4583
553 2 37.6527 10.228 16.7247
554 2 23.3414 5.7318 53.115
555 2 14.6632 12.8751 21.4432
556 2 12.478 41.9789 42.9217
557 2 13.8036 5.91708 34.0962
558 2 17.4473 33.1925 3.31647
559 2 40.0489 16.831 21.1519
560 2 5.01943 16.0778 29.0555
561 2 38.6855 12.7408 51.2152
562 2 3.8469 19.6189 28.1306
563 2 30.1505 46.9276 34.7692
564 2 16.6503 5.37566 40.0256
565 2 20.229 22.4028 34.8713
566 2 31.0323 13.7768 39.2172
567 2 44.6214 38.4002 0.576978
568 2 43.3113 18.1381 20.2904
569 1 15.1034 1.57173 19.6194
570 1 52.4159 36.5539 49.3002
571 1 20.2565 14.0944 6.01138
572 1 46.5284 14.8111 53.7565
573 1 17.4165 16.4666 24.4364
574 1 30.2322 46.1006 17.0325
575 1 30.0779 49.5025 41.9062
576 1 14.0592 0.175446 11.3067
577 1 1.74719 6.37864 15.1684
578 1 55.2723 39.94 44.6219
579 1 33.9578 44.8745 48.183
580 1 22.9275 31.5558 4.44002
581 1 37.5499 10.1917 29.4924
582 1 12.3606 41.3871 37.9512
583 1 45.3588 25.4049 18.2389
584 1 29.3435 40.5942 29.7073
585 1 33.5281 8.37626 23.0631
586 1 55.7673 0.526443 31.3859
587 1 10.9611 1.85868 7.32271
588 1 8.99021 44.0706 46.8736
589 1 34.8266 47.1395 49.5286
590 1 -0.0859561 7.47617 7.01343
591 1 13.0782 9.5234 31.0438
592 1 52.9191 33.0602 6.56914
593 1 19.3188 25.381 33.9632
594 1 3.15331 42.382 41.6986
595 1 34.6995 11.8895 43.964
596 1 3.4269 4.93345 39.4578
597 1 29.0107 51.8176 7.56187
598 1 48.384 47.2236 25.6313
599 1 5.10079 3.72843 13.6341
600 1 11.5411 32.4388 4.14852
601 1 22.0329 42.3122 54.2641
602 1 2.90941 42.7967 15.6514
603 1 26.7495 35.5114 52.2294
604 1 5.68452 21.7177 30.014
605 1 28.009 45.7685 27.7428
606 1 27.1807 44.4452 30.9154
607 1 39.0227 13.9541 33.6766
608 1 39.8741 5.34799 48.6471
609 1 34.3201 30.1455 12.6356
610 1 43.2144 5.36747 44.9745
611 1 20.7309 44.6107 30.8854
612 1 17.9083 46.8882 45.6025
613 1 3.3765 51.5265 0.901221
614 1 53.7029 33.4449 10.6631
615 1 5.96187 42.6901 41.3676
616 1 42.0784 6.34738 53.1288
617 1 16.3007 11.604 51.8701
618 1 6.57466 53.8026 51.1493
619 1 36.8823 11.2156 26.6803
620 1 28.9749 27.1383 25.8418
621 1 53.1342 8.40672 27.3492
622 1 3.87056 29.9755 43.8265
623 1 15.295 44.3694 11.6722
624 1 27.6196 9.2296 55.0642
625 1 10.3489 14.9467 25.4818
626 1 38.6958 27.3644 22.9288
627 1 34.289 36.5739 55.73
628 1 31.995 10.1028 17.3956
629 1 42.3488 46.5524 10.7758
630 1 40.8628 54.1002 20.3521
631 1 43.7352 28.9764 14.0215
632 1 4.5153 32.3773 26.679
633 1 15.7268 6.5855 49.4512
634 1 47.6881 45.5161 17.8187
635 1 31.9801 44.389 23.4761
636 1 5.99022 6.87993 17.3017
637 1 0.715752 15.0012 39.5906
638 1 32.6207 47.3093 55.608
639 1 28.6226 5.11657 4.43597
640 1 22.0195 53.5915 6.36918
641 1 56.0217 47.8116 35.3568
642 1 53.5758 18.4578 10.4668
643 1 41.3154 27.4463 24.7319
644 1 20.1213 42.5683 46.0183
645 1 0.545341 19.3956 41.0261
646 1 12.9768 31.2948 12.5494
647 1 3.35358 29.584 8.84735
648 1 19.4898 16.9403 5.199
649 1 20.9365 20.2463 19.4853
650 1 15.0338 4.17581 3.12965
651 1 30.2957 33.1887 33.1272
652 1 52.3101 17.47 42.5947
653 1 52.2622 30.3897 51.4143
654 1 29.7045 33.9813 56.0656
655 1 41.169 4.36093 30.134
656 1 36.5997 52.3402 40.1208
657 1 55.6076 34.578 20.7769
658 1 24.8129 8.18161 54.9034
659 1 38.819 40.0097 50.3057
660 1 1.73755 43.6616 6.51447
661 1 46.3082 36.4389 12.8813
662 1 15.5924 41.3263 44.5391
663 1 20.4247 35.718 37.5154
664 1 53.2572 16.8798 28.084
665 1 34.132 42.7499 22.7592
666 1 15.3812 9.4017 26.0604
667 1 35.3812 16.7532 28.1177
668 1 45.6154 12.2885 46.5
669 1 51.2541 22.8173 15.718
670 1 51.346 1.28084 10.3572
671 1 32.4937 4.24653 25.3322
672 1 1.58019 18.6314 9.10274
673 1 11.2294 4.30789 35.4867
674 1 46.2362 51.1495 7.49348
675 1 23.2799 8.00809 32.7715
676 1 53.8205 16.7979 24.0312
677 1 55.716 35.7323 54.1069
678 1 15.6777 55.9319 17.5709
679 1 52.7143 12.0522 22.5421
680 1 28.4988 32.4562 46.1039
681 1 0.37055 25.7955 48.9707
682 1 7.12993 3.34688 45.0745
683 1 43.0536 13.06 21.1754
684 1 38.1517 32.4423 37.5885
685 1 22.742 54.668 15.2858
686 1 44.7853 14.8236 11.1141
687 1 47.1633 55.2139 28.4094
688 1 20.6972 7.03011 33.2887
689 2 21.487 49.4881 24.1074
690 2 30.175 50.2016 9.87184
691 2 34.549 27.0792 39.0473
692 2 7.9811 42.6506 49.3615
693 2 44.8012 48.2928 22.4387
694 2 2.92418 51.3626 54.3789
695 2 17.5324 15.3041 45.2308
696 2 16.0885 40.8662 8.1088
697 2 1.46107 18.0726 36.1586
698 2 17.0899 18.7793 6.90831
699 2 44.8839 11.4544 40.0467
700 2 38.4713 4.88981 3.54259
701 2 53.4689 27.5379 5.62556
702 2 35.7965 28.8219 27.2756
703 2 49.0954 45.9231 44.1616
704 2 54.3823 12.7637 17.618
705 2 2.36448 37.0365 7.38572
706 2 2.22091 40.4414 44.2442
707 2 47.6322 17.1725 19.1059
708 2 43.3593 54.402 0.585078
709 2 44.1784 30.5729 42.6451
710 2 52.8721 48.4131 30.841
711 1 37.1905 2.11623 46.0851
712 1 18.6106 30.4083 52.742
713 1 1.11899 49.4453 43.9093
714 1 37.5859 30.0364 25.0214
715 1 1.02714 11.123 44.8608
716 1 2.91874 15.445 51.6222
717 1 47.0442 0.753547 3.6386
718 1 4.77632 41.7818 55.8467
719 1 42.0962 16.8205 52.5532
720 1 19.5411 16.2762 13.628
721 1 31.2152 6.37238 5.0732
722 1 32.0425 37.8062 55.5663
723 1 19.3952 15.184 16.024
724 1 48.7167 37.2524 53.4155
725 1 12.8477 45.7789 34.7572
726 1 29.9557 41.33 41.7781
727 1 33.6401 50.4047 16.3442
728 1 28.0509 0.548105 55.704
729 1 38.2185 3.64602 54.4614
730 1 5.28801 6.92096 37.9117
731 1 53.9957 11.2611 20.3155
732 1 12.6909 1.16348 14.901
733 1 35.8984 52.9488 55.132
734 1 37.2292 43.5281 17.9017
735 1 39.8141 9.56263 1.24484
736 1 51.713 19.12 50.5713
737 1 31.0739 41.6717 27.4444
738 1 0.679989 11.8584 6.96792
739 1 22.0215 16.8146 2.68515
740 1 40.4679 35.1582 49.5874
741 1 53.6951 9.42328 32.6079
742 1 18.8886 40.6793 6.60717
743 1 44.6228 29.3235 27.028
744 1 33.4106 55.6367 40.5566
745 1 45.4174 12.7992 13.0274
746 1 20.3572 17.8515 21.0629
747 1 0.752097 3.14844 36.3654
748 1 45.6068 52.3235 1.71014
749 1 17.2754 13.1271 42.6531
750 1 23.3005 21.4155 3.3346
751 1 19.1379 32.7024 34.0641
752 1 15.0779 48.0637 38.7494
753 1 20.3021 9.8491 43.567
754 1 36.463 53.9057 27.0648
755 1 29.0098 17.9454 17.6267
756 1 31.4336 49.0946 53.8852
757 1 8.99512 25.4191 29.1072
758 1 54.4911 27.2833 20.2573
759 1 44.8963 7.16274 18.3458
760 1 19.1702 32.2526 54.9903
761 1 48.6523 15.7051 46.4429
762 1 30.8109 52.6129 12.1475
763 1 24.453 17.9795 8.69275
764 1 18.6774 13.2381 21.2225
765 1 42.3081 19.9903 40.377
766 1 20.7825 31.9739 6.24309
767 1 4.54488 51.5248 25.6292
768 1 26.1187 22.3097 35.8754
769 1 18.2271 48.5499 54.6602
770 1 18.9889 3.47402 4.76721
771 1 11.6878 38.7127 44.1262
772 1 29.5018 13.1803 52.6324
773 1 10.1608 16.4828 45.8596
774 1 33.3971 2.20876 27.1834
775 1 46.5111 41.8247 29.864
776 1 25.004 55.9032 22.5929
777 1 45.783 47.7798 25.3623
778 1 22.0073 33.6585 47.7721
779 1 40.7988 27.1102 44.6861
780 1 31.0116 47.257 40.5231
781 1 20.2753 38.1876 25.2063
782 1 4.3883 18.9958 15.6491
783 1 50.3142 0.964527 37.0139
784 1 44.126 27.6668 24.1847
785 1 27.1079 26.108 48.5075
786 1 15.7337 7.65563 42.1294
787 1 5.56142 31.0228 54.0704
788 1 2.14749 10.3112 37.2032
789 1 15.6763 46.3891 28.0362
790 1 51.5503 29.5618 43.7779
791 1 36.8751 18.6237 24.6246
792 1 26.2279 54.9142 19.6961
793 1 2.66667 50.1323 22.3372
794 1 29.8969 25.682 28.3009
795 1 55.6114 21.3914 37.0576
796 1 44.5205 11.7967 4.15866
797 1 18.973 11.2404 13.9565
798 1 42.4486 29.3203 54.2459
799 1 16.2016 35.801 12.0647
800 1 17.2152 30.7003 55.3003
801 1 48.9591 48.2432 11.1639
802 1 20.7501 15.249 36.7456
803 1 40.0227 45.0682 40.0397
804 1 52.063 36.6126 9.47635
805 1 38.5586 44.7144 32.1613
806 1 13.3538 15.3171 37.2033
807 1 55.5634 15.724 34.5755
808 1 49.1008 8.62089 38.8804
809 1 10.3236 12.5869 1.1334
810 1 8.04572 40.8843 31.8104
811 1 33.5143 22.3708 48.3432
812 1 53.4382 16.1212 44.9168
813 1 0.685962 11.2507 2.61854
814 1 45.812 4.88394 19.9351
815 1 4.51493 8.97987 41.6138
816 1 50.2393 5.39832 35.4575
817 1 44.5527 43.4445 28.9487
818 1 54.9315 48.667 55.1674
819 1 18.216 37.2664 43.1831
820 1 53.1726 28.4323 38.4728
821 1 32.0243 29.5864 39.1385
822 1 1.21731 4.3291 29.0678
823 1 54.3056 46.5214 37.7643
824 1 54.8144 0.0736595 28.3912
825 1 17.5997 54.4496 29.8988
826 1 16.6673 50.3526 3.88047
827 1 20.0044 33.6977 22.876
828 1 33.6782 21.3444 27.2214
829 1 49.5596 55.868 29.6774
830 1 51.3148 43.5065 3.94744
831 2 7.33537 40.1406 40.0384
832 2 24.1202 14.3873 2.99282
833 2 20.2319 43.3128 23.3959
834 2 43.3616 26.9514 46.7611
835 2 24.9489 -0.242977 27.8018
836 2 23.8578 14.1244 32.3336
837 2 15.57 27.0035 17.4932
838 2 23.1493 42.5679 47.5944
839 2 28.682 35.3121 31.4307
840 2 19.4712 16.3117 53.6159
841 2 15.8572 27.4337 26.3324
842 2 47.1029 9.52845 45.9615
843 2 42.1287 1.38293 30.0386
844 2 31.3334 15.1888 18.3438
845 2 8.36567 51.7253 16.0227
846 2 41.419 41.3299 48.573
847 2 48.4248 54.9821 10.2182
848 2 47.5729 44.2531 25.8462
849 2 23.2307 17.305 34.8439
850 2 22.5918 32.1367 44.4261
851 2 48.3025 56.0785 54.0384
852 2 46.734 38.9057 20.2506
853 1 37.1041 43.2939 8.29464
854 1 29.9908 42.3348 46.7895
855 1 47.8718 26.9713 15.3153
856 1 9.30974 21.524 27.7419
857 1 55.1269 17.2062 40.2161
858 1 14.0985 50.2282 49.0485
859 1 35.1466 24.7645 40.8718
860 1 9.41749 37.7424 4.17656
861 1 51.9849 36.4407 29.1327
862 1 54.2629 30.7822 5.76403
863 1 33.0804 11.6548 10.3995
864 1 47.6076 26.5063 49.5833
865 1 14.8323 26.1308 14.5739
866 1 10.9739 33.6355 0.271586
867 1 50.4418 22.0493 37.0164
868 1 49.2925 1.7951 34.6163
869 1 53.5771 26.1765 52.5988
870 1 33.5037 24.3517 20.9118
871 1 10.2821 27.992 14.8744
872 1 53.3891 37.6934 40.5555
873 1 12.5311 39.4121 31.737
874 1 54.0571 45.9154 1.45459
875 1 41.764 29.375 48.0433
876 1 0.750445 16.7048 31.0221
877 1 0.028167 27.4158 22.7014
878 1 4.25583 35.7817 20.1739
879 1 10.7755 14.4716 31.1622
880 1 51.7686 11.3696 1.80726
881 1 32.1046 13.3205 47.9769
882 1 44.9601 22.3218 52.5101
883 1 26.5116 14.1244 13.7096
884 1 51.6493 54.203 36.4675
885 1 30.1385 22.9706 1.28637
886 1 39.0825 47.7725 2.07186
887 1 7.24855 15.5395 19.947
888 1 2.89592 30.1721 46.9319
889 1 46.429 7.6039 34.3575
890 1 54.9886 2.90165 6.34261
891 1 52.7755 20.5957 37.7011
892 1 39.0259 52.1858 16.0208
893 1 14.2422 51.4379 33.86
894 1 9.52358 41.4788 9.75673
895 1 4.3115 51.2231 31.4457
896 1 2.43756 40.8605 17.7715
897 1 28.3383 53.2753 10.2398
898 1 41.0065 35.2683 42.5333
899 1 16.8799 18.9924 32.2135
900 1 9.17257 27.8593 1.85688
901 1 34.1752 37.3728 41.8594
902 1 25.7362 45.883 25.8863
903 1 3.86322 26.6603 8.86641
904 1 35.8915 35.5437 11.5257
905 1 27.8868 30.3056 22.1955
906 1 17.417 35.837 7.28267
907 1 37.4555 52.14 13.8153
908 1 1.71994 6.3061 34.6405
909 1 40.5649 2.65201 42.4389
910 1 52.3837 38.199 7.21258
911 1 12.7214 8.59727 25.0498
912 1 17.1758 18.1748 36.8948
913 1 4.14861 45.2677 5.54145
914 1 52.9528 51.4018 30.919
915 1 16.4485 23.1042 38.3539
916 1 28.3411 26.4428 40.639
917 1 35.0298 -0.126152 4.18503
918 1 50.645 34.9372 14.3936
919 1 48.547 40.6818 38.384
920 1 12.0223 38.5287 38.3779
921 1 31.8508 55.0091 10.9544
922 1 17.4237 41.8021 31.8732
923 1 50.1217 5.85035 38.4109
924 1 0.752014 11.5808 16.4713
925 1 45.0813 55.4666 4.9865
926 1 27.8413 49.7965 51.6718
927 1 53.032 49.4652 43.4546
928 1 42.2436 12.0326 12.748
929 1 50.1231 33.1155 6.97328
930 1 38.6071 0.448639 19.644
931 1 17.2124 25.2618 31.7542
932 1 12.4021 48.6088 52.2241
933 1 30.7969 6.99407 43.9622
934 1 24.6057 51.3711 54.8194
935 1 5.15459 39.1381 55.1181
936 1 7.41147 32.7279 11.8531
937 1 38.1201 3.2796 43.452
938 1 36.3694 6.02892 40.4814
939 1 5.33195 29.5281 15.798
940 1 7.03354 38.8883 53.1833
941 1 36.4473 6.34825 35.6412
942 1 15.1949 46.698 45.474
943 1 33.7552 36.5762 34.5476
944 1 9.0705 41.3834 15.7219
945 1 44.6212 21.0835 44.972
946 1 9.61895 42.6518 44.5799
947 1 41.518 30.8738 41.0183
948 1 15.702 55.5894 43.9107
949 1 49.7034 50.1182 15.7546
950 1 39.2438 27.6434 50.7572
951 1 14.921 43.3539 53.7441
952 1 44.1413 0.580551 48.6635
953 1 25.7998 22.5998 51.5622
954 1 10.9623 45.8643 40.4335
955 1 13.3006 21.8345 15.1269
956 1 12.1069 20.3613 8.54862
957 1 47.006 43.6668 51.1079
958 1 11.5446 22.9273 32.3375
959 1 31.3997 50.119 35.7979
960 1 53.7793 14.0721 12.6372
961 1 37.0103 41.5048 42.5236
962 1 55.1401 6.7265 18.6176
963 1 7.52884 30.0899 47.3226
964 1 25.3177 14.6465 44.426
965 1 15.4672 30.1385 35.7494
966 1 24.9365 42.6817 31.3929
967 1 8.98796 6.67598 13.6912
968 1 42.9859 9.77109 53.7973
969 1 31.8671 37.131 50.3932
970 1 31.2704 17.1388 15.6671
971 1 49.9646 4.91277 43.7195
972 1 50.9275 6.66964 52.4582
973 2 45.2447 4.42009 25.7954
974 2 46.0915 39.1924 35.1046
975 2 53.4356 39.1927 27.8407
976 2 17.3609 30.6806 49.8761
977 2 53.074 36.2318 16.2906
978 2 52.5226 36.1793 19.8105
979 2 33.1181 42.2814 40.8715
980 2 55.1549 6.36074 44.9016
981 2 36.5291 11.5992 9.54453
982 2 54.3651 29.4824 49.1075
983 2 12.5382 31.4276 1.30592
984 2 46.2917 22.7475 34.3731
985 2 51.9332 2.25597 13.2011
986 2 7.51336 18.4698 37.889
987 2 20.1247 6.70366 5.08869
988 2 2.32959 26.7483 51.7298
989 2 39.8218 28.1535 32.3275
990 2 54.1535 9.93342 15.1267
991 2 23.08 21.3177 17.6279
992 2 15.8233 15.8048 54.893
993 2 1.49781 15.7555 56.0164
994 2 53.6462 22.9563 35.3791
995 1 54.3775 3.41821 43.5806
996 1 51.1906 25.3833 47.2994
997 1 24.7366 2.04582 48.4057
998 1 6.35894 49.0209 35.9356
999 1 25.4306 51.4538 52.3545
1000 1 19.6769 8.84556 47.9752
1001 1 30.7305 30.6713 36.8928
1002 1 52.8661 26.4118 8.63641
1003 1 14.1204 28.9597 30.7809
1004 1 6.43916 40.0105 6.93911