ITEM: TIMESTEP
0
ITEM: NUMBER OF ATOMS
9088
ITEM: BOX BOUNDS pp pp pp
-1.5714253963568467e-01 5.6041635165573410e+01
-1.5714253963568467e-01 5.6041635165573410e+01
-1.5714253963568467e-01 5.6041635165573410e+01
ITEM: ATOMS id type x y z
1 1 28.3868 41.0987 49.0067
2 1 44.5282 4.63459 36.5799
3 1 41.6404 12.8428 50.2071
4 1 37.154 49.1925 43.4476
5 1 11.4833 34.4654 8.35494
6 1 36.0098 25.7609 21.9391
7 1 19.9051 33.0668 1.27896
8 1 48.2022 1.50656 9.24146
9 1 55.8419 50.2465 40.011
10 1 36.813 13.434 53.4036
11 1 48.5635 35.8291 32.4953
12 1 35.7107 19.3956 36.7029
13 1 21.6234 48.5519 36.9217
14 1 19.6383 49.3671 50.0878
15 1 3.12511 36.7241 30.283
16 1 26.4228 0.877718 38.7481
17 1 50.4402 9.974 28.0116
18 1 4.1783 47.6004 35.6445
19 1 30.0524 23.8833 51.7626
20 1 31.0077 2.24971 44.8723
21 1 25.3917 49.1687 50.326
22 1 9.40905 41.5234 2.05357
23 1 21.7281 17.7314 38.131
24 1 3.42784 7.75345 55.2266
25 1 26.2138 27.5015 38.9215
26 1 19.7759 28.0958 43.4484
27 1 34.65 29.1935 54.3723
28 1 13.4969 32.8166 14.9372
29 1 10.6406 50.1627 40.0824
30 1 49.0793 7.44676 44.6888
31 1 30.5338 5.05797 0.152221
32 1 33.9076 5.22965 23.2485
33 1 24.4563 41.7589 2.78528
34 1 14.3802 24.6726 2
35 1 20.2599 51.2749 40.4509
36 1 16.3292 32.3195 19.059
37 1 23.4331 55.7524 46.929
38 1 23.5733 21.2915 5.94351
39 1 13.3113 26.4007 0.175421
40 1 8.80014 11.444 47.8651
41 1 46.6644 40.7946 1.14193
42 1 5.58735 38.8984 14.9283
43 1 21.8639 16.8995 9.50183
44 1 50.7959 52.0675 23.8209
45 1 12.9461 43.4877 55.9634
46 1 0.00296123 17.8138 10.9982
47 1 42.5508 6.24672 31.8459
48 1 18.5304 30.9015 19.8337
49 1 7.6057 19.851 32.3579
50 1 18.0073 19.7566 20.5034
51 1 50.1266 32.2098 30.6522
52 1 22.2948 10.5439 37.5993
53 1 52.4344 20.5613 1.3775
54 1 52.2105 17.8837 43.0011
55 1 39.677 45.0932 29.5067
56 1 11.7133 25.6806 44.7986
57 1 7.01694 33.1516 34.6164
58 1 37.3511 11.5783 21.8943
59 1 5.35474 30.4619 28.4173
60 1 36.2038 32.61 54.7394
61 1 12.0037 27.3075 54.1711
62 1 52.8821 22.2436 24.4378
63 1 49.4251 43.2873 28.9099
64 1 22.4413 4.32331 16.2061
65 1 11.2365 42.4937 48.0366
66 1 8.15451 45.0389 9.95351
67 1 12.1157 43.1427 53.2642
68 1 11.3827 33.6737 52.2114
69 1 37.1925 38.5073 45.9882
70 1 1.96955 28.0629 4.92926
71 1 52.0958 46.8543 28.0974
72 1 55.3964 29.5976 1.54905
73 1 25.6501 46.2822 4.71366
74 1 4.58485 33.4095 46.9734
75 1 37.7116 19.5112 5.17353
76 1 38.5933 23.897 5.92376
77 1 47.2268 40.3451 32.0575
78 1 34.1581 40.7767 10.5944
79 1 31.7639 23.4769 42.6725
80 1 39.3922 0.180831 30.7074
81 1 17.7745 27.5286 54.2752
82 1 50.505 1.40556 23.9292
83 1 8.01914 15.0276 27.8992
84 1 36.5544 2.19947 3.79902
85 1 39.6331 10.8249 38.4323
86 1 34.5689 33.9299 34.8178
87 1 25.8215 7.90066 31.9169
88 1 15.911 11.5758 12.704
89 1 6.97694 48.2141 39.3893
90 1 1.17174 39.6514 51.4525
91 1 17.9992 7.80317 21.7333
92 1 10.355 12.0681 19.232
93 1 38.4577 9.89336 11.3591
94 1 35.8351 34.4284 29.0245
95 1 40.6836 24.534 18.9006
96 1 7.19436 56.0381 13.9504
97 1 3.54148 8.87611 32.8364
98 1 18.0149 12.8641 30.3905
99 1 42.6491 36.5528 5.73556
100 1 3.59137 6.29836 26.8453
101 1 0.554406 33.7416 47.2336
102 1 5.4889 1.1774 12.3684
103 1 41.7801 43.4066 56.0373
104 1 14.5321 54.8323 39.2298
105 1 31.4788 14.0223 10.85
106 1 19.0715 48.1465 47.5456
107 1 32.6268 0.152837 44.8537
108 1 46.6411 17.4267 47.4216
109 1 10.4749 45.7459 16.6569
110 1 31.3761 9.0952 10.6937
111 1 37.6478 54.2851 15.038
112 1 5.40522 5.36679 10.2993
113 1 28.8859 33.2341 11.5289
114 1 24.2849 17.0589 40.1006
115 1 42.8034 34.7566 31.2251
116 1 32.0828 5.99088 37.8653
117 1 -0.0454274 12.2674 40.4115
118 1 1.65213 43.9723 31.876
119 1 36.3177 36.1784 33.8722
120 1 14.9873 1.47381 39.9362
121 2 11.9272 38.8356 35.5281
122 2 51.2903 18.6421 12.9704
123 2 55.2228 46.426 20.8221
124 2 52.3898 29.5051 19.7898
125 2 53.8402 35.4237 38.6764
126 2 25.3605 7.55513 17.7677
127 2 12.5396 51.2679 15.7421
128 2 7.62727 30.1251 35.2685
129 2 55.0708 18.0017 7.70388
130 2 1.58436 21.1579 45.836
131 2 52.1822 12.0662 47.2388
132 2 39.2587 46.6068 17.8028
133 2 34.8692 42.8827 16.1507
134 2 15.1632 5.39626 8.81765
135 2 43.013 33.9447 3.92684
136 2 9.98327 0.62619 31.8715
137 2 40.7219 24.3136 46.2417
138 2 5.38775 4.70811 49.3039
139 2 31.0746 14.9767 13.8884
140 2 45.337 27.2203 38.9254
141 2 7.99146 38.2559 22.9181
142 2 29.6392 23.7383 40.2094
143 1 46.9867 19.8591 45.9619
144 1 29.0287 17.6488 13.3991
145 1 54.0275 12.7078 6.46822
146 1 52.1107 26.5796 15.4172
147 1 29.3732 28.1162 32.8062
148 1 27.0838 10.142 38.3544
149 1 46.2337 6.46067 44.6609
150 1 24.8964 25.4232 9.58597
151 1 49.8393 24.4099 53.963
152 1 9.99486 33.5893 45.2985
153 1 50.0235 48.6132 29.1808
154 1 43.1048 41.7821 30.7883
155 1 32.4136 18.6068 10.4299
156 1 7.6986 33.1891 9.24116
157 1 51.5016 33.8876 22.2343
158 1 37.7518 5.64276 0.463082
159 1 54.8975 47.6327 13.8524
160 1 49.1889 2.46337 2.2792
161 1 10.588 25.6073 21.4538
162 1 13.2611 12.8868 44.1095
163 1 19.9173 21.5422 26.5537
164 1 55.7332 38.5147 11.8873
165 1 51.4833 35.871 6.70917
166 1 45.0013 41.4037 14.7377
167 1 31.271 39.638 46.185
168 1 36.8885 7.8381 42.9998
169 1 28.4877 50.411 39.5029
170 1 39.4624 33.9343 47.1199
171 1 28.4626 32.9144 23.6642
172 1 21.4874 43.6402 28.4247
173 1 14.3044 39.892 10.057
174 1 35.2445 1.94725 32.4121
175 1 18.8951 28.0007 16.4923
176 1 39.4689 37.059 6.74243
177 1 10.0301 5.0627 25.052
178 1 18.5846 5.56721 9.05185
179 1 27.0594 44.9862 48.1161
180 1 55.3167 26.891 8.57963
181 1 48.7961 42.8038 31.8998
182 1 49.5484 30.2349 52.445
183 1 13.4123 20.3927 4.29047
184 1 26.0508 52.9647 12.0715
185 1 33.4745 10.2828 34.3242
186 1 43.7482 26.4175 26.5984
187 1 1.48939 7.04119 53.2853
188 1 28.5078 39.0833 3.32266
189 1 13.3796 41.201 34.1746
190 1 35.5141 48.9408 21.8683
191 1 20.723 19.2232 45.8321
192 1 50.0475 -0.09905 7.81353
193 1 37.1835 8.80365 13.7247
194 1 35.8757 4.1659 30.8932
195 1 24.4796 27.7547 1.38154
196 1 35.055 5.50793 26.2598
197 1 7.47986 9.39698 49.3813
198 1 12.665 18.9464 28.5455
199 1 31.5721 18.7818 3.01777
200 1 39.8643 20.595 41.4556
201 1 26.6549 13.0273 16.1775
202 1 39.0967 2.19568 2.6338
203 1 31.3402 27.7556 37.3239
204 1 40.9639 27.2085 19.4423
205 1 7.95584 12.3797 2.95485
206 1 39.5016 25.3348 24.3618
207 1 0.278675 44.9902 45.7999
208 1 32.0464 5.17396 10.7796
209 1 47.5463 6.8214 47.0679
210 1 27.1908 21.8535 41.6984
211 1 8.75314 5.83572 21.817
212 1 43.178 27.5203 43.3588
213 1 22.3176 12.3473 51.0132
214 1 0.890946 37.6181 2.47538
215 1 11.3856 27.694 22.8464
216 1 -0.119475 24.6656 51.1042
217 1 21.839 8.78038 35.5567
218 1 1.52758 9.87612 54.3548
219 1 43.9236 51.2705 5.93683
220 1 44.6333 8.47599 43.7875
221 1 30.597 0.819026 17.0962
222 1 2.56919 7.8248 21.5216
223 1 26.3584 43.9513 2.95989
224 1 42.7961 8.92264 25.6825
225 1 43.8105 48.7277 38.1661
226 1 12.7693 42.0487 25.4664
227 1 20.2984 45.7138 33.2611
228 1 0.114713 20.2424 52.8542
229 1 11.0849 27.1536 42.7918
230 1 31.0948 29.8642 41.381
231 1 31.8482 35.4216 25.307
232 1 40.8557 17.0264 17.8848
233 1 50.905 50.0405 37.9586
234 1 10.9316 14.2733 51.1663
235 1 41.4116 18.3992 42.1372
236 1 6.87743 47.6129 29.4374
237 1 52.9583 29.7952 23.9559
238 1 38.5687 1.32259 56.0325
239 1 33.8943 28.6308 6.11602
240 1 9.34308 32.7779 50.9056
241 1 20.3947 49.1699 10.6224
242 1 32.8591 10.9776 2.95368
243 1 7.45227 24.2622 33.2428
244 1 55.7404 42.4031 7.59483
245 1 1.40528 27.9227 19.7229
246 1 54.029 5.68951 5.75154
247 1 54.5544 48.9888 11.256
248 1 44.1632 0.506108 45.7329
249 1 10.6725 45.0555 48.9259
250 1 23.5133 24.5761 18.0846
251 1 17.811 39.305 3.93226
252 1 47.778 16.7268 39.0834
253 1 2.93003 27.0217 48.2217
254 1 9.3398 8.40709 32.6017
255 1 55.1068 9.35689 17.9143
256 1 31.1433 47.7404 24.6591
257 1 1.53399 12.4424 34.9552
258 1 33.153 18.4753 27.7795
259 1 45.5809 45.873 54.9307
260 1 25.1004 41.5205 34.2264
261 1 31.9154 10.6012 39.3502
262 1 23.5807 44.2024 8.17742
263 2 43.9844 24.7109 29.3351
264 2 25.7494 47.1595 1.79128
265 2 49.8859 7.46485 49.2653
266 2 7.02922 24.4739 38.5433
267 2 14.6936 21.5302 1.42863
268 2 4.65972 3.3218 24.45
269 2 15.3524 2.43859 16.6884
270 2 44.302 43.3899 53.5205
271 2 53.8191 44.7441 26.2079
272 2 33.2952 40.3386 13.8553
273 2 33.3596 6.32658 34.6401
274 2 52.9246 26.8809 30.5016
275 2 27.1695 7.19594 53.0205
276 2 55.9754 13.9666 4.18917
277 2 1.34439 43.029 39.3978
278 2 12.0043 34.4743 18.5862
279 2 43.7828 51.3121 46.4921
280 2 19.6289 55.3173 22.108
281 2 41.3539 16.9084 14.6882
282 2 15.0515 28.8852 8.46071
283 2 46.907 47.668 28.859
284 2 16.9783 27.1601 34.7252
285 1 4.74771 35.3329 5.89157
286 1 49.6222 34.5844 20.2384
287 1 44.3444 1.85878 36.1003
288 1 20.3887 16.7343 29.5292
289 1 22.8998 31.3195 4.29383
290 1 50.899 13.0917 24.1816
291 1 18.1066 43.8762 34.5292
292 1 40.9354 5.49068 43.8861
293 1 54.4268 19.8337 55.442
294 1 30.8079 32.8066 41.7532
295 1 47.2089 25.3874 29.7726
296 1 12.2825 32.296 35.2989
297 1 48.4663 14.2565 33.9263
298 1 30.6498 22.3665 13.4513
299 1 31.7635 18.7628 17.8586
300 1 24.5671 31.8118 9.31777
301 1 24.7391 49.6444 23.0651
302 1 46.6166 33.5139 25.8666
303 1 53.9164 3.32662 1.79634
304 1 13.7022 34.5883 53.6182
305 1 25.4471 38.6843 22.9704
306 1 28.758 52.217 32.6633
307 1 5.21438 40.0852 32.2731
308 1 39.7609 53.9782 45.1638
309 1 49.5906 30.6496 28.5305
310 1 10.3856 52.9121 38.3763
311 1 38.1535 35.017 5.55649
312 1 10.4878 8.07322 25.849
313 1 5.139 55.5071 18.3821
314 1 29.0878 47.6106 52.9151
315 1 4.64169 6.44461 14.7532
316 1 43.954 10.3837 10.8067
317 1 30.5529 31.9627 39.0832
318 1 5.91332 23.21 11.4831
319 1 3.16398 2.71487 18.1161
320 1 19.2184 33.8637 25.4457
321 1 26.3296 38.7216 34.1898
322 1 55.43 21.6516 22.903
323 1 11.4161 10.5795 32.9439
324 1 18.4596 8.80196 32.1936
325 1 21.8463 46.0999 43.0624
326 1 16.8158 31.976 40.9129
327 1 12.5431 9.07253 35.1635
328 1 0.678411 8.17383 36.6199
329 1 4.58536 25.4036 44.8241
330 1 7.7955 30.781 29.9583
331 1 15.7726 39.288 52.2852
332 1 0.686243 44.152 12.0376
333 1 16.3903 13.7262 10.7687
334 1 33.6977 35.107 22.7529
335 1 35.5154 13.4055 50.9449
336 1 49.8213 21.5368 13.1351
337 1 0.998183 34.2224 7.49965
338 1 9.84054 23.0563 22.1176
339 1 15.039 24.525 44.54
340 1 25.2189 23.3779 26.0906
341 1 26.6737 51.0266 25.1476
342 1 -0.0941395 26.7291 17.7219
343 1 35.9652 14.2713 27.3726
344 1 33.1036 15.9903 11.3585
345 1 48.9184 16.7659 3.98684
346 1 0.179852 7.0157 23.5043
347 1 19.7742 18.2692 11.1395
348 1 12.9683 10.6395 22.7819
349 1 4.33676 37.0433 10.49
350 1 1.80575 53.8791 50.9817
351 1 45.1878 35.6174 5.84324
352 1 18.8621 8.45845 52.1601
353 1 24.2633 34.5589 53.694
354 1 46.3384 36.9393 39.525
355 1 48.7309 28.4424 38.8079
356 1 9.78476 40.0809 42.8739
357 1 20.1154 50.355 52.6636
358 1 21.7073 24.5154 36.657
359 1 28.8588 44.7515 46.1585
360 1 16.5967 38.1161 45.4707
361 1 40.1289 22.1651 43.6825
362 1 0.535899 53.8052 4.66013
363 1 44.2694 18.2563 14.8832
364 1 41.0381 0.649947 32.6798
365 1 40.1371 45.1796 6.69277
366 1 15.7631 34.6897 14.7284
367 1 50.803 47.1212 38.0607
368 1 40.5569 44.6261 26.5672
369 1 33.408 14.6811 16.2682
370 1 3.50608 40.6608 50.5961
371 1 19.1882 27.8935 49.0082
372 1 13.7914 22.3762 33.7297
373 1 21.9124 0.140514 38.2874
374 1 47.2315 50.1568 2.57284
375 1 4.1998 52.7139 35.0168
376 1 42.9792 49.0226 25.1837
377 1 5.81768 24.1784 55.3069
378 1 29.257 52.8077 21.1727
379 1 51.6505 39.2456 20.3944
380 1 11.0932 13.1405 26.9531
381 1 26.2264 50.2514 29.0331
382 1 55.0947 22.9867 8.64976
383 1 12.7645 23.5098 22.988
384 1 49.3011 16.7171 32.9485
385 1 29.6446 9.25632 19.8236
386 1 36.2075 38.7353 23.426
387 1 21.1716 33.8899 39.1196
388 1 24.2573 7.01801 40.2847
389 1 26.6779 11.0932 14.4372
390 1 45.3472 48.6969 31.6602
391 1 6.95334 9.36097 6.84039
392 1 48.4761 48.7898 37.1827
393 1 3.40456 28.02 0.960851
394 1 3.02797 37.849 46.5503
395 1 55.055 7.73083 48.0764
396 1 14.8597 5.34376 24.0815
397 1 49.6369 25.9541 22.5136
398 1 21.5546 28.8467 4.21369
399 1 6.96916 54.2655 41.6946
400 1 35.6242 42.9812 27.4901
401 1 18.6082 30.6184 24.8794
402 1 31.7855 48.1278 43.686
403 1 13.2631 42.5758 28.3633
404 1 26.5391 34.9629 45.7762
405 2 19.6246 8.10034 14.0361
406 2 36.1333 30.807 7.74871
407 2 34.232 13.2953 12.7852
408 2 24.8162 49.6325 13.025
409 2 46.9678 0.104055 16.6197
410 2 36.7199 49.1022 16.3832
411 2 5.97305 41.4745 16.9861
412 2 53.5047 8.97088 35.9298
413 2 30.9917 21.7853 45.1016
414 2 12.6082 35.2841 47.6458
415 2 55.572 51.5348 8.9754
416 2 51.7971 42.9591 55.0786
417 2 44.2104 4.93683 10.3839
418 2 7.40839 35.9442 11.1015
419 2 15.5574 54.3564 22.4915
420 2 23.8102 23.1828 23.2074
421 2 41.0763 49.2739 9.65425
422 2 32.0607 16.2311 8.05456
423 2 8.00363 0.473231 43.3901
424 2 52.0737 10.6287 4.99625
425 2 47.9458 51.8599 38.8868
426 2 37.4806 8.50695 38.0549
427 1 29.59 30.1246 0.0693497
428 1 3.85588 53.5617 52.5607
429 1 55.8357 27.656 51.0326
430 1 51.7556 54.9817 9.64569
431 1 20.0627 47.502 26.1217
432 1 42.4878 8.28973 6.67343
433 1 39.8692 24.4408 13.7038
434 1 13.2575 22.5707 44.1731
435 1 23.0872 52.0868 8.5236
436 1 32.224 31.831 48.3819
437 1 26.0659 24.4108 33.6659
438 1 47.1374 3.24862 35.3317
439 1 1.51659 38.2293 54.1858
440 1 9.02252 25.2108 29.7101
441 1 22.4497 14.1372 10.8683
442 1 42.742 18.8354 16.9864
443 1 41.8695 10.8882 27.2863
444 1 51.4343 42.15 47.6574
445 1 5.39942 14.6933 17.8697
446 1 38.5367 31.7405 39.7898
447 1 21.0778 51.8604 10.3112
448 1 44.7219 2.96624 0.0333565
449 1 54.1659 6.98448 28.9586
450 1 51.0711 33.2665 0.27911
451 1 27.9172 49.2257 14.3656
452 1 48.1561 12.5276 22.7744
453 1 9.23362 21.2583 33.9788
454 1 5.54216 35.4123 52.1456
455 1 7.4466 22.3343 23.3539
456 1 46.1574 3.82234 51.5087
457 1 53.5705 39.1293 18.2312
458 1 27.3287 20.1978 36.5222
459 1 3.05838 34.7191 9.74251
460 1 29.2762 0.233 34.1835
461 1 8.17716 16.6498 17.4272
462 1 48.4627 27.6638 9.46528
463 1 15.5087 2.33957 7.38682
464 1 31.5355 52.6436 22.7411
465 1 7.5389 46.736 17.5186
466 1 4.93553 47.9326 5.6503
467 1 47.1787 11.2376 37.972
468 1 44.7173 53.907 6.95097
469 1 14.7664 43.3925 24.7761
470 1 28.571 0.369974 15.2845
471 1 26.7452 9.89035 3.50111
472 1 15.425 38.2711 28.1785
473 1 48.747 38.7854 46.5816
474 1 39.9725 12.5765 16.9052
475 1 23.0766 25.2369 20.7241
476 1 12.2455 21.9278 40.3672
477 1 49.1364 3.08938 37.3783
478 1 41.5509 7.53246 13.8802
479 1 55.3371 25.8247 35.2192
480 1 41.0381 8.23694 4.04624
481 1 25.4808 1.53486 50.8275
482 1 29.9562 37.2294 22.8165
483 1 46.2838 19.5276 34.2888
484 1 5.99491 37.4867 7.23323
485 1 18.5316 45.2918 25.1892
486 1 47.2474 7.97281 42.6361
487 1 21.0377 12.7212 22.1081
488 1 5.95137 47.4407 25.3627
489 1 2.88453 44.0393 13.5132
490 1 24.4553 49.6467 26.2539
491 1 13.3871 29.8882 47.2957
492 1 26.9347 24.7691 41.5828
493 1 44.2246 30.3779 34.2278
494 1 4.94497 54.4437 13.471
495 1 11.705 33.9684 13.0516
496 1 39.114 17.9613 37.3066
497 1 7.25179 17.1824 32.0261
498 1 19.6444 20.4368 8.95479
499 1 34.02 29.9128 20.2647
500 1 51.8036 3.26087 36.2612
501 1 16.3975 50.8038 43.4437
502 1 50.8396 42.9223 7.0154
503 1 42.5271 21.1557 42.8063
504 1 40.1223 47.1108 31.9067
505 1 38.2037 27.6055 3.89425
506 1 22.25 27.5001 42.0792
507 1 53.5736 54.3764 32.078
508 1 10.6142 42.9293 17.5476
509 1 53.386 29.3827 8.17152
510 1 30.6291 0.900849 3.56783
511 1 49.9705 5.69339 6.0507
512 1 14.4405 50.5389 12.8208
513 1 33.4947 30.325 29.1724
514 1 28.4012 27.7962 21.038
515 1 29.277 12.7261 27.4325
516 1 5.44206 40.6642 37.2863
517 1 15.9188 2.97737 0.378484
518 1 24.0655 12.1803 13.4064
519 1 8.16103 11.9818 45.1223
520 1 35.7509 17.6973 4.73687
521 1 45.8772 24.8338 32.4362
522 1 7.34885 17.0039 0.952154
523 1 38.5744 1.9203 25.7511
524 1 40.1061 51.7047 32.3313
525 1 25.7843 41.3873 22.3158
526 1 26.6097 15.5246 30.6236
527 1 29.2991 54.575 23.4811
528 1 2.39539 6.64372 6.36767
529 1 40.3133 8.36481 33.5211
530 1 37.785 16.5702 18.5401
531 1 39.4964 8.24327 48.622
532 1 35.136 9.9372 11.9865
533 1 43.1616 6.14804 20.6078
534 1 19.7356 35.6388 20.6558
535 1 43.0797 3.05235 38.2441
536 1 39.1127 22.2248 15.6325
537 1 19.0797 22.2517 20.9316
538 1 6.75595 27.4227 2.7522
539 1 28.8331 37.8046 33.3419
540 1 48.1476 12.4683 16.6989
541 1 42.6403 5.97635 7.90382
542 1 33.1158 47.9902 35.7695
543 1 37.993 44.8079 35.0157
544 1 31.7851 34.7064 15.3188
545 1 51.7835 24.8783 5.83555
546 1 23.6535 51.011 41.0078
547 2 15.2837 40.8687 26.5383
548 2 13.0293 46.6532 1.36709
549 2 34.8373 47.8245 25.5212
550 2 55.6547 51.4585 12.7668
551 2 52.4685 6.87646 16.9028
552 2 9.83823 6.83963 35.3067
553 2 37.4647 10.2578 16.8615
554 2 23.3009 5.76138 52.9999
555 2 14.9582 12.8488 21.6192
556 2 12.7992 41.6394 43.0981
557 2 13.8017 5.58207 33.8862
558 2 17.4942 33.0939 3.4545
559 2 40.0414 16.983 21.0733
560 2 5.24554 16.2358 29.3061
561 2 38.5194 12.7748 50.9862
562 2 3.90076 19.5513 28.5218
563 2 30.0468 47.0586 34.9432
564 2 16.5675 5.19543 39.9713
565 2 20.3308 22.2671 34.9588
566 2 31.135 13.5741 38.8287
567 2 44.566 38.3952 0.691444
568 2 43.3703 18.2395 20.2488
569 1 15.0586 1.21753 19.4861
570 1 52.3955 36.575 49.3999
571 1 20.4643 14.2245 5.5923
572 1 46.4037 15.0914 53.3618
573 1 15.6347 15.4667 25.8214
574 1 30.2598 46.2019 17.3831
575 1 30.1032 49.6889 42.0943
576 1 14.0127 0.014478 11.2803
577 1 2.05443 6.45689 15.2065
578 1 55.28 39.9862 44.4763
579 1 33.938 44.9333 48.11
580 1 21.0586 31.919 6.42192
581 1 37.3019 10.3196 29.1506
582 1 12.1604 41.534 37.902
583 1 45.3029 25.4372 18.0971
584 1 28.8794 40.8725 29.1727
585 1 33.1601 8.18149 23.0207
586 1 55.5189 0.271672 31.159
587 1 10.8583 1.83871 7.39248
588 1 9.09169 44.011 46.8838
589 1 34.5985 47.184 49.4521
590 1 55.812 7.34691 6.84821
591 1 12.9816 9.51141 31.0326
592 1 52.7525 33.2247 6.70732
593 1 18.6583 24.7034 33.411
594 1 2.93831 42.4556 41.9383
595 1 34.1374 12.0745 43.649
596 1 3.49931 4.97473 39.2905
597 1 28.8219 51.7148 7.59591
598 1 48.663 47.0675 25.5035
599 1 5.42015 3.84869 13.685
600 1 11.7457 32.18 4.38502
601 1 21.9193 42.1873 54.1785
602 1 3.06201 42.3798 15.6168
603 1 26.6084 35.3119 52.1768
604 1 5.4435 21.7647 30.1603
605 1 27.9957 43.1166 27.762
606 1 27.7472 46.4514 30.4497
607 1 39.0282 14.0845 33.6349
608 1 36.9432 4.83015 49.5217
609 1 33.9629 30.2967 12.7464
610 1 43.3758 5.80488 44.862
611 1 20.7999 44.8095 30.7796
612 1 17.8404 46.5436 45.5021
613 1 3.52924 52.108 1.01417
614 1 53.6898 33.3014 10.8145
615 1 5.93815 42.9414 41.3384
616 1 38.05 3.74296 54.8512
617 1 16.3365 11.6528 51.6883
618 1 5.54911 55.4369 53.733
619 1 36.6408 11.6511 26.9086
620 1 28.2389 26.9862 25.6739
621 1 52.9098 8.70196 27.1895
622 1 3.8553 29.6053 43.8498
623 1 15.1374 44.3093 12.0083
624 1 27.7828 9.67131 55.1366
625 1 10.2418 15.1028 25.3223
626 1 39.2251 27.5441 22.5816
627 1 33.473 37.7174 1.5677
628 1 31.6056 10.3363 17.1614
629 1 41.8124 46.4004 11.2934
630 1 39.4965 55.5626 22.4862
631 1 43.6065 28.8884 13.8554
632 1 4.50699 32.5809 26.7318
633 1 15.9211 6.27529 49.5882
634 1 47.8582 45.5861 17.8676
635 1 29.7489 44.8855 23.4021
636 1 6.064 6.8813 17.161
637 1 0.856241 14.8806 39.8813
638 1 32.6204 47.2709 55.4898
639 1 28.7438 5.22442 4.44388
640 1 22.0345 53.4595 5.98905
641 1 55.6142 47.6223 35.665
642 1 53.5607 18.8223 10.6119
643 1 41.4088 27.7328 24.7997
644 1 19.981 42.5544 46.0075
645 1 0.778501 19.4545 40.8641
646 1 12.992 31.3171 12.6461
647 1 3.38843 29.448 8.618
648 1 19.5855 17.1106 5.08333
649 1 20.612 20.2921 19.841
650 1 15.0244 4.03029 3.1852
651 1 30.3119 33.36 33.128
652 1 51.0489 13.4985 39.683
653 1 51.9902 30.4891 51.2592
654 1 29.4173 34.0943 -0.138432
655 1 40.8554 4.40775 30.2345
656 1 36.7044 52.0578 40.0532
657 1 55.6623 34.3063 20.9696
658 1 24.701 8.45481 54.6924
659 1 38.7395 39.7788 50.5012
660 1 1.73884 43.814 6.77141
661 1 46.0288 36.3995 12.9506
662 1 15.599 41.2256 44.3541
663 1 20.0623 35.87 37.5235
664 1 53.2481 17.0715 28.0406
665 1 34.0117 43.0646 22.6255
666 1 15.2809 9.30935 26.1818
667 1 35.3774 16.9142 28.2571
668 1 47.6096 12.4931 44.3305
669 1 50.8967 22.8937 15.5993
670 1 46.7679 3.29848 10.9956
671 1 32.3968 4.63467 25.5627
672 1 1.73914 18.655 9.11274
673 1 11.6072 4.1501 35.5721
674 1 45.9936 51.4424 7.65199
675 1 23.3637 7.77897 32.8702
676 1 53.7274 16.8428 23.9697
677 1 55.9154 36.1422 54.0784
678 1 15.869 55.5649 17.5632
679 1 52.8124 12.579 22.1127
680 1 28.4098 32.3797 46.0396
681 1 0.337955 26.1996 48.7995
682 1 7.20151 3.20603 44.6538
683 1 43.0963 12.9652 21.1523
684 1 38.3632 32.1536 36.9975
685 1 22.6991 55.0524 14.9479
686 1 44.4322 14.9179 11.4281
687 1 47.1597 55.06 28.6273
688 1 20.4405 7.24814 33.1642
689 2 21.807 49.3027 24.1123
690 2 29.8961 50.2298 10.2546
691 2 34.4392 26.9946 38.8891
692 2 8.42202 42.5047 49.276
693 2 44.6913 48.1387 22.4873
694 2 3.11338 51.112 54.359
695 2 17.6575 15.3941 45.1295
696 2 16.4124 40.8642 8.1037
697 2 1.46411 18.234 36.3653
698 2 17.1602 18.5809 6.85444
699 2 44.7958 11.6232 39.815
700 2 38.4802 5.08953 3.73107
701 2 53.4028 27.5277 5.64344
702 2 35.9902 28.8484 27.2944
703 2 48.9071 45.7907 44.1994
704 2 54.2387 12.7541 17.4585
705 2 2.5964 36.9266 7.73878
706 2 2.11039 40.5499 44.3526
707 2 47.6653 17.2507 19.0052
708 2 43.2693 54.4257 0.57459
709 2 44.264 30.3286 42.3726
710 2 52.8604 48.542 30.7871
711 1 36.8226 2.1263 46.0443
712 1 17.6944 25.1543 48.8594
713 1 1.11161 49.366 44.086
714 1 37.6039 30.2103 24.9654
715 1 1.12371 11.0291 44.5745
716 1 2.97191 15.8166 51.2221
717 1 47.2188 0.895015 3.31071
718 1 4.74058 41.9648 55.9664
719 1 41.9525 16.9172 52.3487
720 1 19.0372 16.2792 13.4478
721 1 31.2196 6.69083 5.02156
722 1 31.7559 37.4865 55.5177
723 1 19.3523 14.9541 15.7535
724 1 48.3678 37.1177 53.3324
725 1 13.0389 45.7602 35.0805
726 1 29.952 41.2382 41.8552
727 1 32.6214 55.3042 18.7082
728 1 28.0868 0.700494 55.3128
729 1 41.0071 1.34378 51.7905
730 1 5.21685 7.13256 37.7426
731 1 53.952 11.2437 20.055
732 1 12.8619 0.98185 14.8744
733 1 35.8557 52.7375 55.2587
734 1 37.2021 43.74 18.0504
735 1 39.9539 9.86381 1.44666
736 1 51.6982 19.0071 50.6197
737 1 30.9466 41.8877 27.7109
738 1 0.394684 11.7401 6.66014
739 1 22.0102 17.0201 3.12671
740 1 40.2055 35.0679 49.4256
741 1 53.6357 9.44187 32.7707
742 1 18.8123 40.608 6.15975
743 1 44.7251 29.137 27.1509
744 1 33.3377 55.5341 40.1948
745 1 45.0648 12.5184 12.9458
746 1 20.1895 17.7389 21.1332
747 1 0.567706 2.98884 36.2431
748 1 46.117 54.5549 2.62511
749 1 17.2437 13.2982 42.637
750 1 23.6673 18.9997 2.05077
751 1 19.1366 32.8992 33.7162
752 1 14.836 48.2698 38.8718
753 1 20.0287 9.82933 43.3595
754 1 36.2913 54.0099 27.0915
755 1 29.1301 18.1652 18.146
756 1 31.7272 48.9987 53.6943
757 1 7.11465 19.8601 29.6667
758 1 55.0099 27.0967 20.2623
759 1 44.8024 6.94838 18.6774
760 1 19.2035 32.7339 54.546
761 1 48.6288 15.5814 46.8413
762 1 30.4015 52.5869 12.1855
763 1 24.4394 17.8468 8.97584
764 1 18.301 13.2142 21.3358
765 1 42.4247 20.1144 40.2544
766 1 19.602 35.5565 3.03631
767 1 4.62493 51.8186 28.5801
768 1 25.6877 22.3149 35.4311
769 1 18.3561 48.4928 54.4772
770 1 19.0496 3.51892 4.64806
771 1 11.8449 38.7501 44.0963
772 1 29.6668 13.0891 52.6774
773 1 10.5708 16.4933 45.772
774 1 33.4346 2.40107 27.1933
775 1 46.6227 41.7085 29.7127
776 1 25.309 55.6474 22.2946
777 1 45.981 47.6854 25.7327
778 1 21.9945 33.3923 47.9129
779 1 40.9866 27.1362 44.8165
780 1 31.0972 47.4107 40.7431
781 1 20.2885 38.0616 25.2343
782 1 4.67451 18.8849 15.6544
783 1 50.379 0.87934 37.0298
784 1 44.0877 27.9255 24.1697
785 1 27.4807 25.9014 48.4149
786 1 15.5269 7.70825 42.1978
787 1 5.55228 31.1225 54.0543
788 1 2.20322 10.5235 37.052
789 1 15.5561 46.1964 28.2697
790 1 51.6382 29.655 43.8076
791 1 36.2304 18.7838 24.48
792 1 26.2804 55.0545 19.6537
793 1 2.8027 50.3749 22.2198
794 1 29.9441 25.5404 28.2728
795 1 55.6269 21.4917 37.0124
796 1 44.3937 12.4253 4.38707
797 1 18.7886 11.4927 13.8511
798 1 42.5475 29.2482 54.1405
799 1 16.4308 35.5985 12.3465
800 1 17.167 30.5508 54.9638
801 1 48.8014 48.2199 11.0956
802 1 20.9479 15.4468 36.8585
803 1 39.9409 44.9615 40.1321
804 1 51.5992 36.7306 9.41597
805 1 38.752 44.6722 32.0609
806 1 13.0602 15.2909 37.265
807 1 55.3429 16.0039 34.8167
808 1 48.8917 8.25986 38.3657
809 1 10.2265 12.3889 1.28433
810 1 7.96092 40.79 32.1282
811 1 33.2605 22.2337 47.9964
812 1 53.3317 15.9313 44.6127
813 1 0.745703 11.4509 2.48372
814 1 45.7072 4.72406 20.2322
815 1 4.73027 8.97555 41.5471
816 1 49.863 4.82161 35.4838
817 1 44.2999 43.5863 29.2269
818 1 54.942 48.4133 55.2957
819 1 18.287 37.2121 43.1586
820 1 53.2956 28.3185 38.4138
821 1 32.3167 29.7401 39.0204
822 1 0.932721 3.99008 28.7212
823 1 53.9469 46.634 37.8086
824 1 54.6819 0.169084 28.3752
825 1 17.3249 54.1902 29.9599
826 1 16.7702 50.3383 3.80738
827 1 19.938 33.7271 22.6137
828 1 35.2955 23.322 26.0925
829 1 49.5106 55.9643 29.6016
830 1 51.4141 43.3957 4.26107
831 2 7.39147 40.3237 40.0803
832 2 23.9235 14.4134 3.22133
833 2 20.2412 43.177 23.3208
834 2 43.3895 27.2237 46.8169
835 2 25.2005 -0.0383914 27.6905
836 2 23.602 14.0657 32.5461
837 2 15.6009 27.1399 17.7446
838 2 23.1365 42.4244 47.6642
839 2 28.5123 35.3853 31.3665
840 2 19.714 16.1836 53.5128
841 2 15.8362 27.2541 26.4716
842 2 47.1457 9.68953 45.6399
843 2 42.137 1.31197 29.7657
844 2 31.1188 15.5534 18.4314
845 2 8.82161 51.6848 16.0082
846 2 41.3288 41.0199 48.7381
847 2 48.6331 54.8214 10.2442
848 2 47.7978 44.2987 25.9805
849 2 23.1621 17.3564 34.9217
850 2 22.5298 32.2579 44.6069
851 2 48.0009 -0.00531756 53.8531
852 2 46.6223 38.6999 20.2716
853 1 36.0221 46.311 9.65869
854 1 30.2662 42.0948 47.1248
855 1 47.3499 26.7261 15.3195
856 1 10.3936 23.6621 34.6974
857 1 55.0989 17.0137 40.1116
858 1 14.2779 50.2313 48.7997
859 1 35.2809 24.7281 41.1128
860 1 9.44067 37.6073 4.06178
861 1 52.0769 36.3688 29.2549
862 1 54.3866 30.8599 5.7671
863 1 33.3223 11.5224 10.4089
864 1 47.608 26.7152 49.4544
865 1 14.551 26.2619 14.4807
866 1 12.0587 33.9759 0.18265
867 1 50.4578 21.8728 37.3097
868 1 49.3891 1.98811 34.5914
869 1 53.7531 26.2891 52.5998
870 1 33.375 24.7159 20.9274
871 1 10.2182 27.9832 15.1326
872 1 53.2586 37.7131 40.591
873 1 12.6259 39.5305 32.0001
874 1 53.996 46.101 1.37711
875 1 41.6258 29.6213 48.1576
876 1 0.162311 16.7037 31.4123
877 1 0.0631786 27.5111 22.896
878 1 4.5076 35.7556 20.1465
879 1 10.9903 14.431 31.0803
880 1 51.594 11.6386 2.12014
881 1 32.156 13.483 47.8019
882 1 44.8814 22.5643 52.493
883 1 26.2239 14.1128 13.8037
884 1 51.4965 54.5013 36.4908
885 1 29.7957 23.1379 1.51235
886 1 39.374 47.791 2.06753
887 1 7.3805 15.681 19.8701
888 1 2.96519 29.7579 46.9608
889 1 46.1734 7.50712 34.0661
890 1 54.5749 2.85776 6.43379
891 1 52.8423 20.5314 37.8452
892 1 37.959 54.4944 20.5855
893 1 14.3167 51.4705 33.7453
894 1 9.03151 40.9531 9.92927
895 1 3.82687 49.7864 40.1387
896 1 2.62438 40.607 17.8516
897 1 28.2795 53.1149 10.353
898 1 40.9458 35.2699 42.5042
899 1 16.7315 19.1901 32.1332
900 1 9.30111 27.7353 2.16294
901 1 34.2903 37.4082 41.8705
902 1 25.9045 45.8868 25.9854
903 1 3.61097 26.5509 9.10452
904 1 35.9425 35.6805 11.6315
905 1 28.199 30.1797 22.3902
906 1 17.457 36.0521 7.41112
907 1 34.8741 50.5365 14.0472
908 1 1.48966 6.32377 34.5705
909 1 40.3919 3.17741 42.4065
910 1 52.5142 38.4455 7.1329
911 1 12.8656 8.98836 24.8321
912 1 16.9203 18.4295 36.8512
913 1 4.05546 45.2027 6.1842
914 1 53.0489 51.7322 30.8698
915 1 18.4829 21.2432 39.1826
916 1 28.3313 26.625 40.3838
917 1 35.3375 55.8773 4.12309
918 1 50.3289 34.8513 14.6315
919 1 48.402 40.8581 38.4862
920 1 12.0071 38.5545 38.6871
921 1 31.6683 54.9707 11.3279
922 1 17.7257 41.918 32.0716
923 1 50.2073 5.67124 38.4071
924 1 0.762644 11.3758 16.1827
925 1 45.1261 55.5132 4.82827
926 1 27.8895 49.8336 51.456
927 1 52.6208 49.1065 43.2394
928 1 42.403 12.1215 12.654
929 1 49.8714 33.2447 7.31547
930 1 38.5945 0.685788 19.637
931 1 16.6758 25.2475 31.7153
932 1 13.0577 48.5219 52.2865
933 1 30.5353 7.34986 43.9043
934 1 24.7832 51.138 54.69
935 1 5.49187 39.1666 55.2409
936 1 7.58282 32.7468 12.0139
937 1 33.9477 0.727779 42.6423
938 1 36.4151 6.32667 40.4873
939 1 5.47346 29.5386 15.8692
940 1 7.24978 38.9756 53.122
941 1 36.3715 6.54974 35.4457
942 1 14.9841 46.7015 45.2444
943 1 33.6407 36.5583 34.5124
944 1 9.09054 41.2758 15.9794
945 1 44.665 20.863 44.6374
946 1 9.7594 42.5618 44.316
947 1 41.3253 31.1997 40.9039
948 1 15.5956 55.4411 43.7356
949 1 49.682 49.998 15.558
950 1 39.2635 27.6 50.6109
951 1 14.8787 43.0943 53.8741
952 1 43.8742 0.998604 48.4911
953 1 25.886 22.2456 51.0796
954 1 11.0704 45.6046 40.6342
955 1 13.1002 21.8523 15.4457
956 1 12.124 20.3952 8.47263
957 1 47.107 43.7057 51.0864
958 1 8.50882 25.3352 36.193
959 1 31.411 50.0054 35.3977
960 1 53.6992 14.1006 12.432
961 1 37.1758 41.3358 42.8518
962 1 54.8551 6.54567 18.9267
963 1 7.67988 30.2373 47.1785
964 1 25.411 14.7213 44.4353
965 1 15.3253 30.4583 35.5964
966 1 24.7184 42.7039 31.6462
967 1 10.6405 9.5711 11.3641
968 1 42.7796 9.91471 53.7768
969 1 32.1003 37.4656 50.2745
970 1 31.0783 17.4479 15.7029
971 1 44.8722 6.05737 42.4707
972 1 52.3749 8.63709 51.7921
973 2 45.0811 4.28213 25.554
974 2 46.0503 39.5073 35.193
975 2 53.5137 39.2069 27.9317
976 2 17.2664 30.5385 49.9175
977 2 52.8097 36.3226 16.2628
978 2 52.5281 36.0792 19.9084
979 2 33.0319 42.4256 40.647
980 2 54.9076 6.35683 44.8281
981 2 36.4141 11.982 9.91441
982 2 54.3346 29.6254 49.1551
983 2 12.3331 31.1789 1.38899
984 2 46.3014 22.6131 34.3671
985 2 52.0565 2.21386 13.3623
986 2 7.46087 18.4372 37.7722
987 2 20.3659 6.45909 5.19079
988 2 2.56558 26.6846 51.8392
989 2 39.9298 27.7986 32.2297
990 2 54.0965 9.89599 15.0588
991 2 22.8783 21.2747 17.6984
992 2 15.9707 15.6548 54.7278
993 2 1.57144 15.6771 55.8843
994 2 53.3429 23.0618 35.3513
995 1 54.2265 3.20592 43.7099
996 1 51.1288 25.2187 47.1814
997 1 24.6369 2.14036 48.0974
998 1 3.41452 49.535 27.2539
999 1 25.3647 51.1628 52.0629
1000 1 19.6454 8.81958 47.84
1001 1 30.9223 30.4824 36.6744
1002 1 52.575 26.5879 8.51161
1003 1 13.9795 28.9363 30.6541
1004 1 6.53503 40.0813 7.10497
1005 1 39.0649 28.8062 18.3534