ITEM: TIMESTEP
0
ITEM: NUMBER OF ATOMS
9088
ITEM: BOX BOUNDS pp pp pp
-4.7321273137114872e-01 5.6357705357408065e+01
-4.7321273137114872e-01 5.6357705357408065e+01
-4.7321273137114872e-01 5.6357705357408065e+01
ITEM: ATOMS id type x y z
1 1 46.4916 2.2196 -0.152989
2 1 22.668 15.2629 17.4323
3 1 10.974 9.6126 5.63832
4 1 11.6558 5.48596 2.4516
5 1 47.6274 16.5005 54.6839
6 1 7.36013 19.4759 33.7537
7 1 35.7713 14.1378 15.3042
8 1 31.3727 49.8799 8.16823
9 1 19.6467 29.0958 41.0774
10 1 9.58991 19.0603 14.0045
11 1 45.7149 39.1438 55.1101
12 1 9.86202 53.0593 43.008
13 1 30.2063 41.4557 16.3772
14 1 48.5764 45.3747 30.7097
15 1 55.0458 47.6254 20.7919
16 1 25.3627 9.51142 15.3992
17 1 26.7852 4.5379 15.7684
18 1 21.2499 29.5859 34.861
19 1 3.09781 48.8125 24.6234
20 1 42.5924 22.1141 38.7053
21 1 3.40775 28.372 52.7241
22 1 52.033 10.9727 23.5206
23 1 22.0377 15.5828 20.3808
24 1 38.5209 3.38287 45.3241
25 1 19.2691 26.0376 44.0408
26 1 16.8055 51.0653 21.7081
27 1 53.4097 45.5072 0.682217
28 1 36.8365 8.60212 8.42833
29 1 41.0654 -0.321857 38.6246
30 1 50.3485 11.5152 44.2236
31 1 36.5736 40.793 50.6376
32 1 5.72237 2.10953 9.23862
33 1 36.2518 44.3617 2.01676
34 1 42.7816 45.178 4.12274
35 1 15.1889 15.9683 28.2024
36 1 13.8503 44.8718 0.633064
37 1 47.5885 47.9455 27.4672
38 1 53.5114 19.4806 13.8414
39 1 25.5873 12.6567 13.9907
40 1 36.3026 50.7241 32.7485
41 1 55.217 45.856 13.9809
42 1 28.074 43.4721 38.9456
43 1 32.2533 23.7704 39.8758
44 1 18.4746 39.9326 41.8608
45 1 50.1989 26.7446 27.6609
46 1 37.136 1.66472 12.1073
47 1 17.494 4.81432 48.2544
48 1 37.2854 55.3715 19.0867
49 1 38.2941 2.81948 15.9692
50 1 8.41493 13.1111 23.4421
51 1 53.9018 35.3326 53.7249
52 1 16.9439 55.9572 27.9818
53 1 21.4288 5.07127 41.9897
54 1 44.3373 4.36683 44.8349
55 1 46.9653 47.6089 49.7524
56 1 34.4102 30.0877 32.5555
57 1 49.113 32.4672 36.5869
58 1 23.0757 40.7574 6.58371
59 1 9.31268 49.3223 36.9392
60 1 45.9919 33.3071 27.8698
61 1 44.1076 14.5723 30.2377
62 1 27.3135 52.3731 49.9769
63 1 4.17856 40.2602 50.6656
64 1 47.1332 53.4835 28.1184
65 1 6.80495 48.109 31.887
66 1 11.2005 30.5818 34.8977
67 1 23.2023 1.92729 14.8465
68 1 43.1439 53.1344 23.9844
69 1 30.3053 9.33957 25.4007
70 1 4.88368 17.2821 26.6453
71 1 0.327065 49.8991 25.0459
72 1 49.5725 40.9095 25.6904
73 1 20.2009 44.0276 8.20874
74 1 20.7692 46.6847 8.29811
75 1 30.5525 54.0773 55.7448
76 1 47.2181 32.327 47.6956
77 1 28.6993 33.3335 2.94849
78 1 51.2642 4.09944 15.1139
79 1 2.62112 39.1325 10.4366
80 1 29.018 22.8766 41.336
81 1 40.2216 7.11097 26.6651
82 1 16.7308 24.0866 49.988
83 1 56.296 42.9278 44.0539
84 1 13.9922 28.0931 49.8195
85 1 33.7192 21.4638 53.9362
86 1 53.88 14.0987 15.3679
87 1 38.5406 23.624 34.0304
88 1 20.0268 37.6702 42.8752
89 1 1.72388 55.0426 36.881
90 1 30.6898 14.8981 45.4907
91 1 27.3671 22.95 10.3812
92 1 7.14619 46.5526 0.741432
93 1 37.8576 18.3202 16.647
94 1 11.1262 33.6945 35.9931
95 1 19.8137 54.422 10.6087
96 1 0.23446 22.2009 32.6166
97 1 39.2116 51.858 54.3945
98 1 16.6061 34.1981 12.2213
99 1 40.622 1.02894 11.1873
100 1 26.1347 9.98965 40.6294
101 1 20.2648 19.615 19.7418
102 1 40.2061 20.9242 39.6014
103 1 11.5172 27.1922 53.9539
104 1 39.1615 30.3954 45.088
105 1 22.1284 47.288 42.0847
106 1 22.7592 5.44183 47.824
107 1 8.31505 54.3248 49.4752
108 1 13.0049 8.8423 18.2341
109 1 30.5531 37.7862 42.999
110 1 37.1033 38.6615 5.67255
111 1 29.8762 10.6325 4.39192
112 1 17.0213 38.2663 46.7214
113 1 18.9366 51.3437 51.5016
114 1 35.522 44.9786 17.5466
115 1 18.727 16.2149 48.5309
116 1 16.5298 55.1704 30.9702
117 1 55.5565 3.19709 53.538
118 1 39.6193 31.781 13.3865
119 1 22.2731 54.5175 12.3942
120 1 -0.114278 0.729714 30.0337
121 2 33.4192 49.0222 39.8047
122 2 35.9888 35.4834 5.13847
123 2 16.351 54.2824 14.5394
124 2 41.0978 37.1257 14.9245
125 2 55.4143 40.5091 25.1284
126 2 31.0457 25.0498 17.4479
127 2 14.8142 15.9509 14.8737
128 2 16.0137 28.2578 37.3606
129 2 7.83399 9.74577 9.79735
130 2 54.4641 22.8622 44.2351
131 2 18.644 22.2642 1.21296
132 2 42.7155 44.1938 20.333
133 2 36.8284 39.7776 8.68373
134 2 14.1558 48.9172 23.1832
135 2 40.8645 46.2754 23.3343
136 2 5.97641 6.50042 24.998
137 2 37.9006 38.7773 42.788
138 2 4.84003 2.85076 39.8437
139 2 31.1617 16.6941 54.5337
140 2 43.8396 21.0114 35.6231
141 2 53.1128 42.5621 17.5305
142 2 25.3653 33.6864 53.1196
143 1 28.1239 26.0022 28.9755
144 1 25.6234 20.0556 52.2361
145 1 17.5682 56.1403 22.4555
146 1 12.1339 14.0991 27.8932
147 1 55.1898 41.5912 31.1235
148 1 21.3919 55.1823 47.8952
149 1 32.9274 29.0118 45.625
150 1 1.33827 47.7815 23.2074
151 1 6.78371 17.7797 13.0833
152 1 36.8098 15.9911 38.9697
153 1 29.7898 21.4981 8.73068
154 1 6.71939 21.7519 17.1671
155 1 28.7488 6.67103 -0.293311
156 1 28.6527 49.5034 -0.290674
157 1 0.302342 41.2526 54.7294
158 1 19.0185 30.241 43.9778
159 1 6.33495 6.59309 8.04708
160 1 25.031 28.1106 37.5233
161 1 2.57108 40.2853 55.8381
162 1 40.9089 36.5573 18.0717
163 1 12.1471 52.7409 3.54129
164 1 21.9181 32.9864 29.9891
165 1 26.505 26.9518 14.0513
166 1 47.0993 36.625 34.0312
167 1 19.6827 39.7161 11.0396
168 1 13.8992 43.1174 52.7435
169 1 34.3377 10.283 11.6965
170 1 49.3731 6.65265 6.94896
171 1 20.0044 47.0063 52.7026
172 1 30.5463 31.0125 3.10048
173 1 12.5782 16.1641 26.1642
174 1 47.0556 25.0672 45.4666
175 1 23.8449 36.3175 51.781
176 1 1.09179 11.3796 21.897
177 1 51.0252 30.7744 38.1311
178 1 5.78175 47.8828 46.8308
179 1 18.3485 30.8919 48.1543
180 1 21.6494 36.0338 38.7151
181 1 24.9019 53.0042 53.4241
182 1 32.0586 28.4938 4.04554
183 1 17.4567 28.3439 42.5365
184 1 21.119 37.3044 8.68774
185 1 8.75037 35.5744 5.93763
186 1 53.7256 53.6723 36.8304
187 1 21.6743 43.9583 47.1298
188 1 27.9335 53.7998 52.361
189 1 39.0903 13.2067 48.514
190 1 14.1298 16.2823 18.3665
191 1 48.1031 20.8633 44.7513
192 1 42.7929 38.9457 35.8859
193 1 27.9476 44.2809 11.3543
194 1 54.7281 34.0411 1.37511
195 1 18.2292 38.2403 55.7021
196 1 12.1944 37.2496 17.0063
197 1 21.3585 0.594897 19.8885
198 1 20.3948 12.752 40.3827
199 1 38.9788 45.9568 49.0897
200 1 27.4522 30.4733 46.4177
201 1 42.203 6.38849 45.6818
202 1 39.8642 1.42704 28.3313
203 1 32.2655 54.707 53.6679
204 1 42.3114 11.6291 52.0454
205 1 31.7485 23.2165 8.33472
206 1 8.11038 1.34103 2.81395
207 1 27.9725 37.3806 17.1672
208 1 22.9169 43.3121 17.3734
209 1 8.92199 31.2943 8.36944
210 1 53.8903 26.1264 34.4909
211 1 30.4859 35.1473 23.7
212 1 25.7566 49.4366 32.8885
213 1 24.9486 15.4842 19.77
214 1 25.0246 13.6107 49.6332
215 1 29.1845 38.7887 50.6061
216 1 8.24242 43.1994 33.5508
217 1 38.4983 40.821 6.48676
218 1 40.068 0.576001 49.0888
219 1 28.5889 20.442 11.1438
220 1 17.6447 20.7631 3.89709
221 1 25.9781 47.4461 6.95798
222 1 23.7914 27.8921 54.7183
223 1 55.7284 41.7444 28.2071
224 1 7.43467 20.8656 30.9542
225 1 30.4587 0.884338 30.3396
226 1 8.42166 16.2372 40.2005
227 1 37.5345 44.3899 56.047
228 1 3.48689 36.1566 8.83489
229 1 28.7812 26.0966 13.0366
230 1 40.4942 49.4885 6.2458
231 1 56.0345 41.4932 49.9239
232 1 16.2348 36.8159 15.6451
233 1 30.768 51.0423 38.8578
234 1 29.5294 11.3091 54.5417
235 1 26.2966 33.4533 36.16
236 1 25.5252 36.089 30.8671
237 1 55.1077 53.3498 6.68458
238 1 1.51988 41.5816 47.8397
239 1 24.1706 23.1719 49.1014
240 1 17.6804 35.4602 17.1858
241 1 30.2356 56.093 48.4171
242 1 8.40359 23.7074 2.45818
243 1 12.8772 10.1368 3.41585
244 1 9.13641 32.5281 45.634
245 1 26.5163 21.55 41.4741
246 1 -0.120502 24.9072 9.78552
247 1 52.7736 0.513893 43.2766
248 1 6.10364 32.3183 3.21227
249 1 23.321 46.5555 6.85478
250 1 46.3754 9.70692 53.8107
251 1 40.7004 18.1833 31.6332
252 1 12.5192 52.1975 0.784713
253 1 23.4143 9.77426 17.5239
254 1 2.41948 48.2732 34.94
255 1 50.5897 51.7488 42.2591
256 1 6.25642 11.696 25.151
257 1 11.4469 12.5281 0.671912
258 1 19.7713 11.7239 51.188
259 1 30.0963 29.7276 5.70118
260 1 3.98218 7.13322 0.306058
261 1 20.1685 14.8571 15.8266
262 1 22.4013 25.7491 31.5669
263 2 47.3966 27.7537 26.061
264 2 26.1932 53.3274 2.16869
265 2 36.2818 8.38441 31.7619
266 2 9.78971 25.134 48.4803
267 2 11.8815 6.86832 50.3684
268 2 6.48041 17.4819 20.6709
269 2 15.76 10.7773 8.60216
270 2 33.9585 41.6169 45.7216
271 2 56.3304 3.6591 34.1374
272 2 32.3631 49.023 16.8164
273 2 36.9224 1.18226 26.8719
274 2 5.39298 44.1276 34.7973
275 2 18.0276 39.2558 8.4356
276 2 3.88593 19.2323 13.1177
277 2 3.63522 46.0605 45.2552
278 2 2.74617 31.7705 25.8074
279 2 20.5365 36.8412 50.7603
280 2 15.4727 36.0935 25.4973
281 2 32.242 16.7226 22.126
282 2 52.9504 16.1404 56.2205
283 2 38.326 1.46362 38.2831
284 2 2.80373 19.7713 31.6419
285 1 42.5498 9.55774 49.7623
286 1 1.0586 41.1714 6.81667
287 1 23.9432 20.5214 36.451
288 1 23.1176 27.0527 39.712
289 1 36.2998 41.1505 15.3999
290 1 10.497 15.6291 11.0577
291 1 29.0539 24.3108 8.60705
292 1 47.7988 55.1955 15.4427
293 1 31.0809 50.2491 29.5619
294 1 30.6828 51.2597 0.272237
295 1 9.83195 26.3976 6.04176
296 1 37.9364 24.7719 45.6924
297 1 50.9986 3.63377 56.1802
298 1 22.4616 35.705 16.6662
299 1 8.80779 21.343 52.1635
300 1 38.6037 43.4685 39.612
301 1 30.4097 38.5511 35.2684
302 1 48.1996 35.9915 41.1273
303 1 10.6805 34.364 53.8812
304 1 35.9433 -0.262696 45.1836
305 1 19.1565 50.1643 16.6891
306 1 23.053 41.7833 48.0479
307 1 27.267 54.4773 26.0564
308 1 31.7815 17.5928 17.0786
309 1 18.4161 54.0761 52.1903
310 1 0.0106035 24.0082 12.4106
311 1 35.3942 39.7118 28.6046
312 1 55.812 4.92222 29.202
313 1 11.1504 9.68281 0.992455
314 1 31.899 41.6231 30.5175
315 1 38.7577 39.6758 4.02884
316 1 7.99925 45.8907 34.0073
317 1 15.0105 29.5729 29.1984
318 1 7.23692 21.4845 3.67408
319 1 18.7834 33.5229 6.73925
320 1 5.2346 38.4045 42.4918
321 1 2.26711 40.12 52.7581
322 1 35.3179 9.01109 28.7737
323 1 14.3729 42.6449 19.0053
324 1 13.8163 16.9771 7.12862
325 1 4.62459 18.2579 18.1307
326 1 22.9815 37.6482 6.95549
327 1 8.39758 44.9579 5.12104
328 1 22.6738 10.7722 37.6472
329 1 51.282 -0.449896 51.1706
330 1 1.14637 6.95615 56.302
331 1 34.1436 2.96697 3.97711
332 1 31.57 31.2832 25.5058
333 1 23.3678 49.5974 19.9611
334 1 35.7967 14.2817 25.6973
335 1 44.1947 16.6866 25.9153
336 1 31.9273 43.5838 28.1055
337 1 30.2475 32.1244 18.217
338 1 3.43109 0.252728 18.6507
339 1 38.3241 9.84794 6.70916
340 1 54.8227 38.0128 40.0667
341 1 51.091 8.05519 28.0239
342 1 34.8126 30.4396 22.564
343 1 29.855 23.2796 20.0362
344 1 42.2018 23.7437 36.5546
345 1 51.1753 51.0572 8.77217
346 1 37.6285 41.5807 11.0712
347 1 29.0657 29.9957 48.7642
348 1 19.3714 27.6958 3.91452
349 1 54.6095 19.0283 32.0415
350 1 54.8389 38.2908 10.5938
351 1 31.4789 -0.363899 20.8234
352 1 55.7542 48.3596 47.7219
353 1 1.51203 17.9422 29.3428
354 1 40.0016 38.9005 17.692
355 1 44.4346 45.6463 1.86033
356 1 48.1907 11.4053 29.1992
357 1 23.8987 40.3381 42.0547
358 1 33.3528 15.4166 44.5787
359 1 41.4612 0.402552 23.4426
360 1 18.0414 0.504294 30.2315
361 1 32.54 51.9857 16.2004
362 1 34.7845 4.04615 0.942495
363 1 56.1382 52.2172 9.3669
364 1 34.8819 20.5317 11.0329
365 1 14.4947 21.0444 8.78648
366 1 24.1212 30.6271 17.8116
367 1 46.7641 7.30698 39.2384
368 1 38.7434 0.251055 35.0492
369 1 38.3455 54.1784 49.7287
370 1 35.5941 10.3354 17.8942
371 1 40.8779 17.8685 16.8927
372 1 42.6757 11.9818 39.5366
373 1 15.8095 45.7074 32.7786
374 1 47.0197 23.4881 43.2379
375 1 29.2533 41.855 27.2287
376 1 25.554 54.6069 18.0276
377 1 28.8842 24.2482 51.4861
378 1 53.0203 35.3546 47.62
379 1 5.81287 33.4358 33.2233
380 1 -0.373487 13.8798 21.3929
381 1 19.9588 31.6397 26.4734
382 1 32.7509 21.0533 9.39748
383 1 48.1139 31.3307 -0.125034
384 1 46.4408 40.75 28.8996
385 1 29.954 6.23854 54.2369
386 1 37.38 15.0053 20.6154
387 1 10.6126 6.67387 5.37533
388 1 11.9975 20.2444 42.8509
389 1 44.5165 16.3661 38.558
390 1 1.20211 33.5015 27.9158
391 1 34.1397 32.0306 40.5109
392 1 24.728 31.3219 25.9092
393 1 29.6283 23.1626 1.77099
394 1 0.644952 37.2526 9.88704
395 1 33.745 21.6689 49.1564
396 1 20.0862 2.00026 1.04105
397 1 29.6477 18.5328 5.28777
398 1 46.8188 46.3192 39.8067
399 1 28.992 27.1008 32.8514
400 1 1.29916 54.1298 51.093
401 1 54.6027 54.8203 13.5704
402 1 33.2681 53.1965 21.8581
403 1 5.34363 44.7919 21.8112
404 1 32.6013 22.8857 33.0474
405 2 9.37043 27.0802 15.3624
406 2 15.9706 18.0017 30.9009
407 2 26.6336 18.0625 11.6197
408 2 27.9676 38.6177 45.6721
409 2 37.9732 43.7912 15.7739
410 2 38.4839 47.5767 10.6449
411 2 2.77702 47.7177 18.3154
412 2 8.26673 0.418112 36.5885
413 2 49.8589 20.4504 52.2025
414 2 2.8901 43.4947 7.18722
415 2 56.1604 44.7658 2.1374
416 2 5.90617 40.0709 3.65025
417 2 43.589 46.9695 6.65126
418 2 55.8908 20.222 6.54174
419 2 12.3929 16.3542 29.8636
420 2 12.6542 12.0412 40.1518
421 2 23.3194 50.8587 2.06053
422 2 22.5647 5.18355 11.8014
423 2 7.50559 48.022 41.8236
424 2 55.6795 5.81931 9.88408
425 2 53.7358 42.7036 37.3613
426 2 51.9672 18.9927 36.7433
427 1 23.006 2.47161 2.47517
428 1 16.6804 50.8148 1.93886
429 1 42.136 0.808511 50.4448
430 1 1.10068 3.44543 11.3737
431 1 40.9534 28.4898 52.6404
432 1 14.4666 5.05861 30.3687
433 1 23.3154 18.9374 23.8793
434 1 31.7208 9.34504 6.81948
435 1 16.3506 3.12615 1.21406
436 1 52.3586 27.0456 13.8616
437 1 29.7769 47.7385 30.1028
438 1 50.5735 30.3698 23.8378
439 1 10.0063 42.6555 15.5823
440 1 12.6839 5.22691 5.79627
441 1 29.4218 29.9668 17.1678
442 1 34.6387 23.6995 38.4735
443 1 15.9053 31.0024 54.3295
444 1 15.6364 51.1129 24.4993
445 1 26.5159 49.7903 6.14402
446 1 6.32757 4.96451 53.2009
447 1 39.7681 44.2666 33.6032
448 1 8.5652 13.3439 29.2213
449 1 5.07554 24.1908 33.816
450 1 43.1566 15.0358 0.484518
451 1 27.1362 35.1702 6.04592
452 1 0.692112 12.2108 1.10846
453 1 32.6786 35.7755 42.9781
454 1 52.7077 43.9408 2.8507
455 1 45.7843 44.1858 38.1756
456 1 32.2025 5.0216 52.4856
457 1 48.6996 51.3856 3.75429
458 1 7.54567 40.6302 8.07456
459 1 51.1866 30.1667 6.71016
460 1 -0.453317 30.1573 5.34548
461 1 29.9057 6.62608 51.8482
462 1 31.039 35.4235 32.0698
463 1 45.0447 37.9791 1.21329
464 1 11.7553 7.29743 44.912
465 1 21.8385 48.6078 0.694271
466 1 49.9054 17.9242 53.787
467 1 38.4395 6.65551 10.2649
468 1 8.93511 50.3928 40.1398
469 1 11.4293 1.09987 2.31311
470 1 17.4993 54.2107 8.83213
471 1 4.88515 1.67217 25.151
472 1 52.4859 22.26 37.8331
473 1 30.0768 52.1784 50.5593
474 1 14.3542 13.3338 10.2798
475 1 14.0335 9.63231 25.7548
476 1 11.2617 31.7949 38.329
477 1 33.6267 43.6221 12.383
478 1 29.9432 28.2756 25.5649
479 1 42.1325 0.507861 53.0954
480 1 15.353 0.824023 37.9579
481 1 14.0342 19.021 14.9257
482 1 15.879 13.8514 17.7493
483 1 39.4793 20.3102 33.1086
484 1 48.7684 3.78517 7.37701
485 1 54.0872 18.1138 46.136
486 1 19.3187 10.1585 15.4291
487 1 36.3137 16.4416 44.7386
488 1 29.6359 54.2887 24.702
489 1 50.1762 42.2655 45.4267
490 1 43.3495 43.5016 33.511
491 1 20.5775 41.022 4.38991
492 1 4.82662 26.9389 3.10177
493 1 13.2408 31.8535 36.3779
494 1 18.1031 33.9438 9.58631
495 1 2.82076 9.33813 26.5786
496 1 47.8996 2.62064 9.74806
497 1 50.8173 46.3243 0.0158024
498 1 16.267 49.699 16.515
499 1 26.1766 20.4219 19.6662
500 1 47.1581 46.1639 18.3234
501 1 40.1249 22.1334 2.14353
502 1 22.3548 48.1596 51.876
503 1 47.2658 8.51419 32.317
504 1 34.5466 8.75743 50.3683
505 1 36.5568 5.02914 32.2774
506 1 13.6346 34.704 32.9648
507 1 34.7535 44.0801 33.3053
508 1 5.05018 52.2132 40.0858
509 1 28.6502 5.31329 41.2168
510 1 54.3494 23.6696 13.5511
511 1 20.5542 34.0435 54.9746
512 1 53.3846 16.3912 28.0424
513 1 14.8358 49.8776 31.109
514 1 40.7728 16.4254 36.1482
515 1 12.0622 35.045 41.6751
516 1 48.9159 51.6836 35.2256
517 1 16.8123 27.8443 15.915
518 1 42.309 48.3133 44.6349
519 1 38.9662 3.22415 10.5264
520 1 50.4061 52.4426 6.0035
521 1 15.551 33.8055 43.7209
522 1 46.9244 30.4294 17.2702
523 1 1.04294 29.241 26.1529
524 1 19.4252 22.1096 50.5637
525 1 33.3461 5.39924 24.1175
526 1 37.5394 39.8308 1.24964
527 1 38.3225 5.94376 22.3538
528 1 51.072 2.70156 25.7762
529 1 6.19516 13.9068 44.4254
530 1 34.7319 46.3743 6.94854
531 1 34.6354 48.8757 49.0306
532 1 20.7251 43.5641 16.1092
533 1 20.2979 49.1598 37.716
534 1 36.1233 18.4456 26.9788
535 1 56.1714 29.7269 42.7557
536 1 44.8428 17.441 8.28159
537 1 30.8097 6.82102 43.8912
538 1 38.3508 0.172955 3.80578
539 1 31.828 23.4741 14.1251
540 1 9.48991 31.1336 27.6501
541 1 18.7969 12.2786 42.5409
542 1 53.092 47.1525 40.5879
543 1 24.468 29.5537 7.42453
544 1 31.0131 9.23674 30.2972
545 1 55.0728 30.2139 49.2789
546 1 30.7163 46.7392 40.8435
547 2 5.00892 2.92697 30.0391
548 2 17.7077 1.46855 3.76828
549 2 53.0264 22.0848 15.9622
550 2 6.3087 46.8925 52.9164
551 2 52.3802 0.610273 31.4353
552 2 52.6097 4.86696 35.832
553 2 50.7739 3.50754 21.1524
554 2 21.3888 51.4147 55.9192
555 2 17.9066 18.6404 21.9452
556 2 27.8714 52.3934 55.5091
557 2 6.24863 1.32164 18.0463
558 2 44.0868 30.1921 19.0186
559 2 33.4486 7.51108 21.9405
560 2 22.6913 12.8595 1.9797
561 2 35.404 23.6651 47.0784
562 2 14.5999 6.6685 27.1372
563 2 40.9008 41.8075 35.1204
564 2 6.53707 19.1411 28.5655
565 2 23.0295 32.8583 35.076
566 2 29.8232 25.3285 25.4467
567 2 51.9733 31.4003 18.909
568 2 27.6599 50.1068 11.8752
569 1 43.2436 24.4242 53.588
570 1 33.5304 19.446 1.50135
571 1 5.05685 2.55682 3.15194
572 1 47.8648 14.377 -0.323298
573 1 42.7527 50.216 0.155059
574 1 44.729 33.8305 4.04568
575 1 18.0206 19.1827 17.7323
576 1 30.6989 39.3046 40.5941
577 1 27.7754 27.8901 26.8345
578 1 37.4343 9.85527 0.343181
579 1 45.2471 27.8687 55.4078
580 1 46.2361 51.863 17.1937
581 1 40.2424 15.2637 -0.261177
582 1 11.2828 44.0919 25.9677
583 1 27.0731 22.6309 7.84261
584 1 7.47638 23.8784 52.9772
585 1 16.9496 39.7196 11.489
586 1 5.33495 50.1541 30.472
587 1 21.4436 39.5655 18.3251
588 1 43.5196 34.8888 48.7052
589 1 55.9177 46.0936 9.3868
590 1 36.7485 49.6493 39.5845
591 1 4.09852 51.9978 8.60975
592 1 50.2783 28.8793 26.1815
593 1 19.2399 19.9287 27.4156
594 1 49.2384 12.1736 34.9775
595 1 18.5697 8.57156 24.3363
596 1 48.4421 39.0054 6.11689
597 1 3.95265 18.3769 46.5965
598 1 36.4844 10.352 20.967
599 1 13.281 1.73926 14.4823
600 1 35.4516 36.709 27.463
601 1 54.9592 46.3233 35.6363
602 1 28.4649 20.4091 48.76
603 1 4.67119 15.7581 39.483
604 1 16.661 43.8698 5.2779
605 1 1.15313 34.9291 25.9438
606 1 36.6177 28.9725 21.2068
607 1 10.3749 5.96765 38.5609
608 1 38.0703 6.01919 19.6383
609 1 51.7123 27.9087 10.7117
610 1 38.0284 43.1815 44.582
611 1 29.0674 52.7735 34.9738
612 1 11.4466 52.3245 50.035
613 1 12.3876 48.6289 45.7172
614 1 20.6577 45.9745 24.4747
615 1 10.4737 25.789 21.3181
616 1 17.8068 1.96988 37.9407
617 1 54.1532 21.3671 4.08141
618 1 4.71345 25.4463 12.7262
619 1 0.844331 25.0295 55.998
620 1 17.991 4.38952 19.5006
621 1 16.2508 22.1083 45.7637
622 1 45.6212 45.1495 4.80784
623 1 38.9536 18.6293 35.5221
624 1 1.1873 1.53697 40.3086
625 1 20.5065 36.3198 25.2406
626 1 22.8879 26.9326 22.3718
627 1 21.6095 35.637 0.145147
628 1 31.188 7.12488 47.4136
629 1 38.3972 45.8108 18.1394
630 1 55.8319 42.5413 18.3682
631 1 34.414 51.5755 13.7492
632 1 43.2375 39.4515 48.2996
633 1 24.2078 54.3483 36.7828
634 1 21.3996 56.2181 53.9772
635 1 28.1469 22.8602 35.3047
636 1 24.6115 52.8555 50.7692
637 1 36.9221 44.8935 37.6479
638 1 12.5777 7.68433 7.20638
639 1 41.9815 52.287 54.6779
640 1 42.9894 25.1533 25.3486
641 1 2.25203 38.6644 7.63786
642 1 16.5736 4.09442 26.1679
643 1 4.96277 11.6453 13.9261
644 1 31.4203 13.802 50.6001
645 1 12.672 25.3408 14.1232
646 1 38.1969 5.66809 30.2661
647 1 16.5339 11.1229 33.9225
648 1 44.0371 28.9719 5.0581
649 1 9.20901 5.35359 25.5527
650 1 30.8893 27.6921 9.71268
651 1 54.9495 10.9586 1.47396
652 1 33.0019 40.7298 40.4211
653 1 8.63297 23.8162 43.5218
654 1 0.867581 40.6602 14.1859
655 1 34.8501 41.4092 48.7468
656 1 43.021 23.7008 31.2578
657 1 1.93863 50.5073 55.6686
658 1 30.8852 7.15013 23.5576
659 1 49.4751 52.8606 39.7576
660 1 18.0605 5.66679 30.9178
661 1 13.7183 9.69183 22.6018
662 1 25.2842 22.9065 18.6115
663 1 3.03078 32.4256 22.2989
664 1 14.0668 46.6139 25.5184
665 1 20.6407 48.3614 44.7089
666 1 39.4901 11.8466 24.4297
667 1 8.02946 31.5998 55.5638
668 1 33.4063 18.1527 8.19209
669 1 15.6044 3.12108 36.5145
670 1 34.3789 1.35036 53.185
671 1 51.7393 13.7423 36.146
672 1 34.8059 48.4381 15.0001
673 1 21.6283 9.93407 50.3045
674 1 55.9076 28.9052 40.2653
675 1 0.739124 17.7381 23.1365
676 1 5.88145 39.7506 48.8535
677 1 0.795777 14.4879 12.9886
678 1 0.696785 2.35516 46.6401
679 1 1.92219 52.8923 10.1853
680 1 33.558 33.9727 6.72737
681 1 39.7414 4.82679 17.6895
682 1 15.1438 2.21933 5.60527
683 1 49.5547 20.9205 49.0539
684 1 25.6914 26.4144 39.7768
685 1 44.4831 22.6846 25.616
686 1 32.5324 39.9264 15.5688
687 1 20.3344 25.3161 0.260112
688 1 26.4108 2.23585 18.0674
689 2 22.585 33.3804 24.4403
690 2 30.9874 0.287147 45.3854
691 2 15.0941 48.2647 50.6295
692 2 9.29637 28.7964 52.8781
693 2 2.81057 54.1877 27.8504
694 2 2.56838 42.6553 50.9668
695 2 19.5098 17.2719 45.6561
696 2 17.0982 28.5573 5.95371
697 2 8.86558 25.1703 34.5143
698 2 21.5215 25.9239 53.3383
699 2 10.4184 6.70281 41.8437
700 2 53.9493 53.3765 21.7352
701 2 5.78482 14.1886 6.17468
702 2 30.8016 11.685 15.6299
703 2 44.0323 48.9046 34.511
704 2 41.1214 31.3183 10.5414
705 2 50.3546 41.3189 55.373
706 2 3.13011 3.46513 48.6615
707 2 1.92628 7.65532 24.0141
708 2 40.3858 10.8728 47.2703
709 2 33.0419 56.2328 50.5149
710 2 12.0953 51.5537 24.7176
711 1 46.7223 29.6712 4.49898
712 1 24.0709 36.6635 12.291
713 1 4.31576 2.03078 51.0736
714 1 10.7499 34.7812 51.3727
715 1 31.4357 28.4679 16.1562
716 1 24.4095 52.531 16.4139
717 1 6.06434 18.7525 36.0476
718 1 56.2772 5.35569 12.6183
719 1 33.4542 26.2278 5.86176
720 1 23.7736 22.2505 -0.238843
721 1 18.1949 41.3511 55.5841
722 1 28.2897 30.9142 25.2229
723 1 53.6209 40.9295 48.9737
724 1 25.5301 30.0377 50.9929
725 1 30.0096 3.76635 30.2822
726 1 44.8168 26.3647 12.317
727 1 53.4486 52.2189 46.5754
728 1 47.3288 6.25279 9.11778
729 1 28.191 45.7639 8.21076
730 1 53.6894 2.26434 26.2981
731 1 49.8994 10.5982 40.6462
732 1 1.49335 11.5865 55.5388
733 1 34.4837 3.57904 31.0671
734 1 14.0656 6.06367 54.3195
735 1 50.0984 35.8665 2.99976
736 1 14.3305 27.2145 52.4319
737 1 2.29094 45.8754 50.4419
738 1 32.9122 37.8458 27.5239
739 1 33.6547 38.1235 52.777
740 1 1.43831 10.0257 19.6165
741 1 27.3837 35.5822 28.5877
742 1 19.7904 16.2632 33.9389
743 1 36.542 37.3861 29.75
744 1 56.1401 13.1498 10.6379
745 1 52.9082 21.1123 53.0268
746 1 32.8799 24.4292 24.5464
747 1 6.22189 -0.338173 8.59
748 1 30.0413 51.1378 24.7799
749 1 2.73246 55.2829 22.2364
750 1 -0.196049 9.18054 22.5129
751 1 48.5553 51.3634 32.3893
752 1 30.9246 20.0008 53.1549
753 1 36.763 10.4795 12.3862
754 1 34.853 43.9058 47.8551
755 1 53.2314 3.38953 54.8152
756 1 18.9537 43.8633 48.2043
757 1 30.599 2.12876 0.720765
758 1 0.374246 1.19009 49.424
759 1 52.1735 2.54394 6.36273
760 1 36.8533 31.5092 17.6579
761 1 22.8534 4.94066 4.13056
762 1 9.37971 49.4735 7.09566
763 1 41.7416 16.6534 23.1882
764 1 10.5122 10.2811 19.1589
765 1 53.0694 30.7803 16.1078
766 1 40.068 52.5283 23.1664
767 1 11.5815 14.3901 47.7157
768 1 27.1706 11.2929 28.6685
769 1 15.706 41.5565 9.61282
770 1 45.5919 26.0707 53.0883
771 1 29.4751 54.1393 14.2686
772 1 29.1246 51.7946 30.2441
773 1 29.408 25.5421 40.2654
774 1 22.1005 41.3224 11.3204
775 1 33.3626 8.09584 42.9918
776 1 1.5153 34.0596 42.213
777 1 50.2752 10.0873 13.7637
778 1 9.51689 25.3159 53.5587
779 1 4.61583 9.29858 24.1501
780 1 37.7527 24.694 5.75352
781 1 8.99073 29.7056 16.9371
782 1 27.6884 5.60128 51.377
783 1 25.4207 51.6699 48.2061
784 1 37.9895 7.61515 12.6962
785 1 42.9472 40.561 42.6696
786 1 52.9583 40.2759 32.2887
787 1 33.8695 36.1587 29.7699
788 1 56.1282 30.4898 37.8522
789 1 49.1916 31.9752 54.0141
790 1 47.3548 43.3712 55.6853
791 1 34.1738 26.0168 39.8485
792 1 21.0026 10.456 9.45429
793 1 54.4228 8.37319 40.0943
794 1 31.9462 27.3452 40.3539
795 1 47.6028 1.04246 7.44801
796 1 33.4831 15.6709 16.8147
797 1 54.2448 33.1462 16.9738
798 1 31.2787 34.427 19.398
799 1 34.4871 37.8335 32.0954
800 1 0.344186 38.5634 55.3837
801 1 20.9562 40.1229 1.94995
802 1 34.0004 5.82111 14.3196
803 1 20.4584 33.9281 36.9089
804 1 45.9829 35.3868 0.997175
805 1 1.35223 55.6421 39.59
806 1 47.8194 43.4942 3.4677
807 1 26.7897 18.0937 27.6426
808 1 18.3188 31.1638 21.9031
809 1 8.12658 36.2551 50.709
810 1 39.4431 37.7942 1.3255
811 1 12.1164 17.7883 13.2184
812 1 2.76145 48.6449 47.0991
813 1 23.5762 10.8969 -0.0589006
814 1 10.015 9.81589 40.8172
815 1 5.92013 7.72917 11.1631
816 1 2.78336 7.68913 45.3891
817 1 21.0139 39.9007 42.1535
818 1 6.1136 35.953 46.5913
819 1 29.4774 38.6083 55.6546
820 1 39.2693 3.10136 47.9272
821 1 49.5193 48.4521 36.2647
822 1 36.9959 27.3889 35.9839
823 1 28.7953 37.8134 13.7683
824 1 2.44011 5.98307 43.219
825 1 12.9979 3.21803 1.48171
826 1 36.4092 39.2945 20.3135
827 1 37.8407 33.678 24.8102
828 1 -0.0233225 50.3535 40.8383
829 1 24.205 48.6949 42.39
830 1 27.7777 16.4702 5.94875
831 2 18.1702 35.7295 44.583
832 2 13.2281 35.0934 9.79173
833 2 14.5249 24.442 8.38674
834 2 45.6605 36.4196 20.0328
835 2 29.3207 2.31187 15.0384
836 2 28.6719 15.698 20.7472
837 2 0.387761 23.7816 15.2083
838 2 33.0281 51.2959 31.8239
839 2 37.4067 30.2768 24.3188
840 2 44.813 32.3116 50.0106
841 2 12.3272 44.6391 16.6149
842 2 44.915 14.3166 54.5925
843 2 32.1346 2.93897 37.9265
844 2 31.0818 10.3753 22.2486
845 2 6.41497 55.4826 26.2794
846 2 43.0539 23.7753 18.0877
847 2 49.5938 4.43315 4.50536
848 2 48.1826 38.2629 27.564
849 2 23.515 22.8138 52.8974
850 2 3.48799 38.2072 36.278
851 2 46.7669 6.22094 17.8138
852 2 52.3898 39.7816 27.3529
853 1 41.147 20.4645 46.6244
854 1 13.1617 39.0228 49.9748
855 1 28.5984 45.1802 41.2372
856 1 46.4646 18.0408 6.55381
857 1 16.2865 54.9881 51.472
858 1 12.3533 45.1133 54.0602
859 1 16.7675 38.6275 43.4672
860 1 1.10498 42.6268 16.1145
861 1 41.0165 24.7094 49.0899
862 1 10.898 2.07193 35.1523
863 1 30.5678 37.9586 7.96565
864 1 14.5516 21.8328 43.0598
865 1 39.9233 5.16373 24.5682
866 1 51.0759 30.4249 35.2918
867 1 21.6215 21.9063 11.0441
868 1 53.4806 15.0239 2.91423
869 1 54.8438 0.232167 27.1444
870 1 28.9313 34.6298 46.0207
871 1 14.2323 18.6498 20.3159
872 1 39.5586 44.0502 36.6782
873 1 8.83366 11.694 0.286544
874 1 34.2849 14.6697 39.7847
875 1 33.254 55.7619 47.3623
876 1 48.4555 14.9948 9.14937
877 1 15.2043 34.7494 1.33915
878 1 3.04712 7.36137 38.1127
879 1 36.2823 31.7545 51.1343
880 1 27.319 39.6053 25.4972
881 1 29.4734 9.15512 13.7087
882 1 0.398981 49.063 21.3456
883 1 33.0283 30.6395 43.54
884 1 4.30171 7.10406 22.1171
885 1 18.8451 44.3746 21.8981
886 1 45.906 29.7642 24.4214
887 1 32.287 23.8238 46.5825
888 1 0.886158 2.86182 18.7754
889 1 41.9629 36.3174 37.8306
890 1 21.9313 6.8572 54.3218
891 1 4.00865 40.5561 38.563
892 1 30.1174 49.7401 51.6503
893 1 14.3136 10.6861 31.6138
894 1 23.9228 56.2925 19.4885
895 1 19.7231 22.4864 42.2997
896 1 45.4338 4.53322 42.0424
897 1 20.3433 30.946 23.7824
898 1 31.0089 13.6742 20.7561
899 1 41.5772 22.1689 15.4939
900 1 25.2466 33.0616 39.7482
901 1 22.7538 6.43211 39.9687
902 1 31.4155 52.6879 43.4663
903 1 31.0574 24.8415 49.9078
904 1 49.4931 8.90305 23.4017
905 1 24.8325 24.1077 13.7996
906 1 2.04108 36.3739 38.9953
907 1 35.4779 33.904 25.8723
908 1 36.9407 7.93117 18.3727
909 1 18.9275 36.2993 48.2355
910 1 22.1525 29.6688 25.8292
911 1 20.3123 2.95682 19.5953
912 1 35.4776 2.51168 41.7832
913 1 47.6722 27.1555 39.2561
914 1 4.16284 37.8722 22.3898
915 1 48.837 26.181 31.7611
916 1 22.9053 35.5439 30.2663
917 1 33.7901 13.3558 9.69612
918 1 45.6225 3.82513 49.3318
919 1 10.835 27.6818 23.6966
920 1 12.1467 51.3841 43.8972
921 1 26.9861 3.17512 46.8537
922 1 17.0817 48.5848 0.174176
923 1 10.9734 43.9193 40.332
924 1 6.41401 12.5587 56.0109
925 1 27.8656 3.74335 49.3078
926 1 24.4892 52.0104 27.2067
927 1 21.6178 51.372 26.4897
928 1 9.18006 18.9824 53.7711
929 1 11.5706 17.797 52.0061
930 1 3.3737 46.0012 33.5967
931 1 41.9182 6.3724 36.0242
932 1 19.1495 32.6288 31.0343
933 1 6.86698 41.7658 27.7357
934 1 54.802 26.3279 4.74148
935 1 47.5652 33.6229 20.757
936 1 47.8258 13.9609 40.5152
937 1 43.9644 34.0986 41.82
938 1 26.1331 44.7592 9.73585
939 1 25.027 29.3179 46.531
940 1 14.501 43.3882 21.684
941 1 28.8596 6.28634 8.37812
942 1 49.4379 22.0664 29.7676
943 1 7.46716 6.61281 43.673
944 1 24.218 41.909 34.3359
945 1 52.2375 3.26125 38.7881
946 1 54.2777 25.8769 24.8211
947 1 43.2958 7.22676 51.7644
948 1 10.818 30.8501 19.6086
949 1 51.1646 45.444 17.3902
950 1 54.2468 26.8627 39.5852
951 1 20.5696 6.67994 23.054
952 1 29.3022 14.1633 40.8647
953 1 49.0901 14.1478 49.5386
954 1 14.7574 4.79111 -0.124518
955 1 54.7471 17.7843 23.1993
956 1 21.5304 49.8907 34.4931
957 1 37.6229 25.9715 18.6688
958 1 53.3526 4.4686 30.1857
959 1 33.183 24.3751 54.3469
960 1 14.3842 21.1278 19.7809
961 1 54.2088 1.98663 47.9149
962 1 17.8627 45.3959 39.1361
963 1 22.0346 38.0751 11.2232
964 1 28.2033 34.3188 24.6177
965 1 46.06 4.37309 31.152
966 1 33.5006 48.0146 26.0173
967 1 44.2058 13.5202 27.5516
968 1 50.1113 47.5956 25.6003
969 1 21.101 30.9878 18.0671
970 1 12.6931 48.8508 42.8242
971 1 -0.245366 55.0027 28.9934
972 1 1.00951 37.2137 34.815
973 2 24.0565 38.7956 20.7188
974 2 55.0689 17.7883 34.8467
975 2 32.3599 6.04869 29.2523
976 2 56.3129 39.0871 47.4425
977 2 38.251 28.8117 18.5279
978 2 28.3988 27.1704 16.4795
979 2 33.8607 44.0407 36.6136
980 2 19.7663 3.26642 30.0373
981 2 3.08375 19.809 4.74918
982 2 47.2376 45.3709 13.221
983 2 18.0409 50.284 39.3992
984 2 43.1649 26.7553 36.2902
985 2 40.1561 3.29706 50.9836
986 2 50.6657 30.645 31.7319
987 2 4.57327 51.4586 0.575408
988 2 8.87567 35.0406 41.0961
989 2 35.8085 17.6271 21.7149
990 2 48.8226 53.1541 8.90696
991 2 15.0364 18.377 11.9068
992 2 25.9823 18.1483 46.8721
993 2 7.2046 25.3478 45.6421
994 2 39.2843 17.234 28.8762
995 1 51.2165 22.1929 13.8808
996 1 10.5631 0.566072 54.8622
997 1 47.5741 29.6379 54.4159
998 1 45.5687 39.0355 7.0966
999 1 9.76113 41.6928 25.2557
1000 1 3.85236 51.019 3.54699
1001 1 14.9953 5.73972 49.2409
1002 1 7.40392 1.6831 15.3678
1003 1 46.881 26.0222 0.54193