ITEM: TIMESTEP
0
ITEM: NUMBER OF ATOMS
9088
ITEM: BOX BOUNDS pp pp pp
-2.8341892117492362e-01 5.6167911547095237e+01
-2.8341892117492362e-01 5.6167911547095237e+01
-2.8341892117492362e-01 5.6167911547095237e+01
ITEM: ATOMS id type x y z
1 1 29.595 42.2631 51.5269
2 1 44.4153 4.04935 36.616
3 1 37.1338 4.79387 49.2099
4 1 36.9403 49.28 44.0705
5 1 11.3649 34.5937 8.36776
6 1 36.3145 31.3333 29.4971
7 1 18.4965 31.2874 1.24281
8 1 0.702561 4.50306 6.95469
9 1 56.0114 50.4313 40.0516
10 1 37.1008 13.5198 53.6876
11 1 48.465 35.8158 32.8187
12 1 35.6211 19.2325 36.6385
13 1 21.4421 48.7924 37.2588
14 1 22.5518 46.2484 47.5618
15 1 2.73434 36.7062 30.3503
16 1 32.5047 55.7279 35.5586
17 1 50.4694 9.86491 27.8556
18 1 8.57155 50.4149 21.8481
19 1 19.1459 22.88 52.7516
20 1 44.9864 0.692854 1.74063
21 1 25.7433 49.4615 50.3442
22 1 6.40384 46.4563 1.98432
23 1 23.8532 15.7595 37.572
24 1 3.30719 7.94375 55.5541
25 1 23.9302 28.4759 40.1218
26 1 19.9358 27.9535 43.561
27 1 34.5679 29.299 54.8193
28 1 14.75 33.6194 17.5183
29 1 14.9422 53.0947 42.4466
30 1 36.5908 0.567415 43.0783
31 1 31.5896 7.42025 0.160871
32 1 34.1248 5.49399 23.4074
33 1 24.5271 41.9036 2.36373
34 1 14.5315 24.5785 1.86178
35 1 19.4765 55.8716 40.3543
36 1 20.5509 45.4445 13.3655
37 1 23.7805 56.1621 46.9132
38 1 20.9458 31.981 6.17043
39 1 13.1616 26.0737 0.11973
40 1 8.79673 11.1105 48.2096
41 1 47.0324 41.1599 1.16819
42 1 5.58027 38.9321 14.6844
43 1 21.8615 16.9523 9.65277
44 1 50.8009 52.1513 23.8488
45 1 13.0723 43.9405 55.8483
46 1 -0.245452 17.8852 10.9436
47 1 42.4222 5.86692 32.153
48 1 16.382 36.2362 20.4404
49 1 10.7983 23.0264 29.9793
50 1 15.6792 15.4426 26.0145
51 1 50.267 32.2861 30.217
52 1 22.097 10.5029 37.6334
53 1 52.8278 20.5284 1.32598
54 1 55.6027 27.5553 42.036
55 1 39.4499 45.1468 29.8478
56 1 6.42332 23.6621 1.75041
57 1 7.08965 33.2236 34.6801
58 1 37.4784 11.5003 21.6569
59 1 5.27899 30.5604 28.681
60 1 36.2331 33.1388 54.604
61 1 12.486 32.08 54.5834
62 1 52.9108 22.2431 24.6199
63 1 49.583 43.1481 29.4872
64 1 22.4985 4.28395 16.2512
65 1 10.947 42.4788 47.9628
66 1 7.51487 45.4678 10.3575
67 1 12.4414 43.3783 53.0475
68 1 11.5535 33.5285 52.2966
69 1 36.8905 38.327 49.6797
70 1 1.75512 28.116 5.15499
71 1 52.1244 46.9999 28.1514
72 1 55.47 29.7398 1.47558
73 1 29.4586 -0.264846 12.3922
74 1 3.27532 35.2761 45.5773
75 1 37.7433 19.5907 4.93748
76 1 38.27 24.2523 6.08229
77 1 47.5862 40.4163 32.4359
78 1 41.6856 55.0658 11.5926
79 1 31.9311 23.0115 43.1156
80 1 39.5612 -0.036289 31.0339
81 1 17.276 27.8697 54.46
82 1 50.8556 0.974313 23.9048
83 1 8.64451 17.0736 26.146
84 1 39.4697 1.82853 2.6846
85 1 39.7419 10.7319 38.596
86 1 34.6178 33.8378 34.932
87 1 24.4199 10.2909 32.5944
88 1 15.9109 11.419 12.715
89 1 4.05863 44.6293 32.2948
90 1 1.10436 39.7697 51.7222
91 1 18.0201 7.85108 21.7702
92 1 10.0388 11.8109 19.4251
93 1 38.4086 9.7292 10.9582
94 1 35.9188 34.0745 29.0002
95 1 40.6976 24.6167 18.8956
96 1 7.0889 -0.189799 13.8885
97 1 3.62321 8.7917 32.9421
98 1 15.0524 13.5808 30.0218
99 1 42.6646 36.3207 5.92303
100 1 3.22211 5.90532 26.9242
101 1 0.674036 34.0063 47.4956
102 1 4.92844 0.968577 12.2647
103 1 41.8308 43.4581 56.1484
104 1 14.6662 54.8562 39.4357
105 1 31.5244 14.0285 10.8672
106 1 18.9353 48.3699 47.712
107 1 41.378 19.6968 47.3843
108 1 46.8925 17.4681 46.9632
109 1 9.84962 46.1717 16.694
110 1 31.3984 8.99991 10.5599
111 1 35.0736 51.4775 7.69389
112 1 8.55598 12.1673 11.9899
113 1 28.913 33.1723 11.0855
114 1 24.2577 16.7624 40.174
115 1 43.065 34.735 31.2941
116 1 32.4861 5.85058 38.0828
117 1 0.149133 12.1799 40.3523
118 1 4.15743 47.9503 36.0473
119 1 36.267 36.2339 33.6896
120 1 15.2069 1.53772 40.288
121 2 12.1564 39.0463 35.6534
122 2 51.2909 18.3048 12.6851
123 2 55.0741 46.4692 20.8257
124 2 52.7048 29.8015 19.8169
125 2 53.9166 35.4462 38.5966
126 2 25.2648 7.3574 17.884
127 2 12.1711 51.3047 15.7451
128 2 7.51824 30.1155 35.3211
129 2 55.0873 18.0105 7.81541
130 2 1.55988 21.3445 45.914
131 2 52.3573 12.0224 47.2729
132 2 39.2494 46.5243 17.7158
133 2 34.8313 43.0618 15.8963
134 2 15.198 5.56744 9.04787
135 2 43.1519 33.9869 3.73046
136 2 9.69672 0.48366 32.221
137 2 40.8664 24.3007 46.2649
138 2 5.07807 4.63687 49.465
139 2 31.0776 14.8157 13.8873
140 2 45.4489 27.1586 39.0099
141 2 8.01856 38.2151 23.0061
142 2 29.9247 23.3443 40.3884
143 1 49.1122 22.137 41.7568
144 1 29.0429 19.1515 15.8343
145 1 54.1947 12.5068 6.34632
146 1 52.0994 26.5893 15.551
147 1 29.0543 27.5404 33.1683
148 1 27.0424 5.70646 36.3531
149 1 47.7347 6.87491 47.1097
150 1 24.9384 25.6616 9.37856
151 1 51.398 25.5594 51.7413
152 1 10.172 33.5607 45.4298
153 1 50.0851 48.2881 29.2224
154 1 42.9827 41.7186 31.1915
155 1 32.6101 18.6021 10.5058
156 1 9.98205 34.2758 11.0854
157 1 51.6044 34.0424 22.1012
158 1 47.2848 11.5002 48.7081
159 1 2.95065 49.5983 4.71082
160 1 48.4303 4.13146 0.0578315
161 1 10.7108 25.5674 21.2672
162 1 12.8491 12.7074 43.8504
163 1 20.0458 21.2648 26.3182
164 1 55.6202 38.4634 11.8818
165 1 51.5974 35.9008 6.53583
166 1 45.2029 41.6656 14.9008
167 1 31.5893 40.0776 46.4714
168 1 41.2923 4.32486 46.7432
169 1 28.2617 50.4177 39.4213
170 1 39.616 34.0471 47.0524
171 1 29.0628 35.0193 24.8777
172 1 21.1506 43.8709 28.4366
173 1 14.1233 39.8875 9.97133
174 1 35.2173 1.91966 32.6114
175 1 18.5837 27.8386 16.3369
176 1 39.7016 37.1459 6.62701
177 1 9.68181 4.77764 25.1381
178 1 16.8636 7.07354 14.3927
179 1 24.6985 43.6376 41.0976
180 1 55.624 26.7411 8.46341
181 1 48.9546 42.7384 31.9031
182 1 49.5666 30.4099 52.5894
183 1 13.3663 20.5191 4.20549
184 1 25.8116 52.8787 11.7423
185 1 33.4472 9.98319 34.4418
186 1 43.8229 26.7379 26.62
187 1 1.62356 7.11812 53.5483
188 1 28.4851 39.3782 3.43678
189 1 13.426 41.6144 34.1202
190 1 35.8657 48.7707 21.6872
191 1 12.3843 21.0727 46.0203
192 1 49.7603 54.5441 6.12539
193 1 37.0303 8.68554 13.381
194 1 35.9361 4.02113 30.782
195 1 11.5607 21.9199 50.8397
196 1 44.421 4.55549 22.5748
197 1 7.31008 9.48894 49.7347
198 1 6.78653 21.7661 23.6244
199 1 31.3061 18.9603 2.46863
200 1 40.123 20.5235 41.1226
201 1 26.6221 12.5515 16.1408
202 1 39.219 2.48737 5.39456
203 1 31.6055 27.6155 37.0896
204 1 41.0348 27.2584 19.3325
205 1 8.14204 12.6167 2.74954
206 1 39.1355 27.8868 25.8288
207 1 52.1311 46.0361 42.5144
208 1 31.9617 5.01736 11.0628
209 1 47.0983 8.8001 48.9217
210 1 27.1883 21.6997 41.6391
211 1 8.71671 5.59829 21.967
212 1 44.5678 30.5897 47.4089
213 1 22.2873 12.0057 51.1285
214 1 0.891049 37.9094 2.37093
215 1 11.8715 34.837 21.7627
216 1 0.160059 24.8745 51.242
217 1 21.8967 9.11486 35.3178
218 1 1.45039 10.0029 54.4048
219 1 44.0005 49.4119 7.88392
220 1 41.7484 18.3785 42.0835
221 1 29.404 51.041 18.9128
222 1 2.9884 5.75635 19.753
223 1 26.2591 44.1304 2.8862
224 1 41.4524 50.558 12.783
225 1 43.7609 48.9179 38.4358
226 1 12.8796 41.992 25.6819
227 1 20.4913 45.9044 33.2226
228 1 -0.0407211 20.4978 52.8554
229 1 17.9334 23.4482 42.2242
230 1 30.761 29.8199 41.26
231 1 31.7764 35.2162 25.7137
232 1 40.715 17.11 17.9514
233 1 50.8375 50.1264 38.335
234 1 11.058 14.198 51.2204
235 1 40.1919 16.933 44.8844
236 1 4.7175 47.0907 31.2199
237 1 52.8431 29.5902 23.2368
238 1 36.1338 0.56998 1.25877
239 1 34.1134 28.6138 5.68109
240 1 9.29828 32.8833 51.2304
241 1 20.2517 48.917 10.6424
242 1 34.4262 9.12436 2.82872
243 1 5.41464 21.8576 29.9642
244 1 0.225783 45.162 9.42773
245 1 1.14451 28.0447 19.533
246 1 4.18584 0.182864 56.1592
247 1 55.5574 48.1519 13.7777
248 1 44.4711 0.444031 45.6983
249 1 10.264 43.3688 51.7496
250 1 23.4869 24.6791 17.9687
251 1 16.4426 38.5462 6.31882
252 1 47.9677 16.2914 38.8337
253 1 2.71142 27.1307 47.9725
254 1 7.30952 5.73633 33.2128
255 1 55.0436 9.10955 17.8797
256 1 30.8171 47.8606 24.3709
257 1 1.55663 12.1789 34.8335
258 1 33.092 18.586 27.5994
259 1 45.7069 46.006 55.1489
260 1 25.1985 41.5812 34.1782
261 1 32.2883 10.4326 39.5104
262 1 21.1288 43.851 9.66401
263 2 44.1727 24.3611 29.0812
264 2 25.6705 47.581 1.34772
265 2 49.9391 7.34076 49.1689
266 2 6.93214 24.5778 38.7357
267 2 14.6286 21.0865 1.31006
268 2 4.6297 3.33988 24.6245
269 2 15.0859 2.43293 16.3446
270 2 44.5223 43.5266 53.5773
271 2 54.1728 44.7426 26.3687
272 2 33.1362 40.0053 13.9805
273 2 33.5375 6.16272 34.6226
274 2 53.0562 26.9656 30.726
275 2 27.3413 7.15704 53.2364
276 2 -0.262712 13.9555 4.21129
277 2 1.2783 43.0243 39.3403
278 2 11.9575 34.4239 18.7751
279 2 43.9861 51.5269 46.4554
280 2 19.5342 55.2534 22.1294
281 2 41.5063 17.1349 14.4973
282 2 15.0665 28.9181 8.07804
283 2 46.9098 47.5896 28.5458
284 2 16.8444 27.0015 34.3677
285 1 4.65108 35.3977 5.61368
286 1 49.5168 34.7592 20.319
287 1 44.7621 1.59038 36.2137
288 1 20.9643 13.3199 24.8839
289 1 24.4284 35.2233 5.50611
290 1 50.8252 13.1905 24.0721
291 1 15.2571 35.873 38.3441
292 1 41.2255 5.07307 44.1898
293 1 54.5764 19.9129 55.5755
294 1 31.062 32.7759 41.9459
295 1 47.0742 25.5883 29.7982
296 1 12.4393 32.0573 35.2122
297 1 48.3739 14.0708 34.1126
298 1 30.9311 22.218 13.1114
299 1 33.6154 16.8101 17.3367
300 1 24.7612 31.7566 9.50581
301 1 24.6906 50.024 23.0889
302 1 46.4803 33.3194 25.9508
303 1 53.7803 3.18635 1.39284
304 1 6.0499 40.6079 50.8755
305 1 25.5129 38.3212 23.2576
306 1 28.9739 52.435 32.8154
307 1 5.08551 39.9395 32.2655
308 1 40.1673 53.9965 45.1642
309 1 49.278 30.7883 28.2817
310 1 11.4218 48.7816 37.5177
311 1 37.9537 35.3517 5.26333
312 1 10.4961 7.42133 26.0465
313 1 4.7511 55.5073 17.9892
314 1 29.1918 47.8746 53.2589
315 1 4.52264 6.16491 14.7695
316 1 43.8117 10.4641 10.9283
317 1 30.3826 31.9861 39.1991
318 1 5.81555 23.2859 11.4144
319 1 3.33777 2.1263 17.9141
320 1 18.8267 33.7789 25.1249
321 1 25.999 38.965 34.286
322 1 55.2961 21.6814 22.9951
323 1 9.228 3.75618 32.6838
324 1 18.3887 8.52415 32.2904
325 1 21.7475 46.2748 43.163
326 1 16.7198 32.468 41.1167
327 1 14.7557 11.2682 35.4196
328 1 0.448014 7.89442 36.6494
329 1 4.47883 25.5824 44.7211
330 1 7.59171 30.9412 30.251
331 1 10.9089 37.9468 54.4709
332 1 0.378974 45.962 14.68
333 1 14.2501 9.38702 13.5541
334 1 34.0004 34.9245 22.4995
335 1 40.5639 4.06228 52.762
336 1 49.9948 21.2775 12.7075
337 1 0.752596 34.2877 7.76265
338 1 14.3063 13.4226 24.4595
339 1 20.2834 19.0611 46.1464
340 1 25.1333 23.0561 26.1155
341 1 26.6322 51.5718 25.1835
342 1 55.816 26.2706 17.7221
343 1 35.6167 17.2903 28.0264
344 1 33.242 15.9728 11.1168
345 1 48.8141 16.4391 3.82637
346 1 0.560989 6.55017 23.5446
347 1 19.7701 18.6127 10.94
348 1 13.1287 10.0762 22.4348
349 1 4.32385 37.0424 10.3267
350 1 52.5207 46.4816 50.2047
351 1 45.2812 35.7603 5.61073
352 1 19.0109 8.22641 52.1611
353 1 24.398 34.8031 53.727
354 1 46.2469 39.804 38.6772
355 1 48.9728 28.6746 38.8774
356 1 9.73152 40.284 43.1441
357 1 19.7647 49.5504 50.2561
358 1 12.9298 26.1291 42.4014
359 1 29.2006 44.9967 46.4814
360 1 16.5439 38.15 45.5655
361 1 38.2993 22.4204 50.4758
362 1 0.363814 46.6509 11.8164
363 1 44.4413 18.2903 14.6163
364 1 41.2752 0.566351 33.0281
365 1 38.407 0.779111 19.9424
366 1 15.1645 34.3046 14.8485
367 1 52.8432 46.7544 34.0954
368 1 40.4678 44.8192 26.7669
369 1 33.3834 14.4238 16.0425
370 1 3.42263 40.7954 50.5467
371 1 16.2808 21.6448 48.7736
372 1 13.771 22.109 33.7657
373 1 19.1026 51.5225 43.4383
374 1 47.2939 50.5364 2.29886
375 1 2.04696 52.3423 36.4268
376 1 43.1151 48.749 25.145
377 1 6.93667 27.6472 2.7023
378 1 29.1694 52.8346 21.0512
379 1 51.9262 39.4984 20.4241
380 1 11.0747 13.043 27.0875
381 1 30.0697 50.6512 30.9898
382 1 55.0681 23.0531 8.4169
383 1 11.1496 19.14 23.4043
384 1 49.283 16.5064 33.0756
385 1 30.0069 9.35614 19.7185
386 1 36.2075 38.986 23.3577
387 1 20.2513 35.7274 37.3603
388 1 24.4195 6.84078 40.228
389 1 26.7491 10.6059 14.49
390 1 45.294 48.8921 32.003
391 1 6.78402 9.30126 7.33576
392 1 48.2939 48.9033 37.4132
393 1 3.13236 27.7656 0.715596
394 1 3.06639 37.822 46.4392
395 1 55.3603 7.55972 48.4011
396 1 14.9581 6.71703 26.2132
397 1 49.9636 25.8033 22.2777
398 1 18.5961 27.8181 51.8389
399 1 6.99578 54.2416 41.8944
400 1 35.4681 42.9425 27.93
401 1 18.7628 30.872 24.7505
402 1 31.8771 48.3503 43.6676
403 1 13.0602 42.7753 28.6136
404 1 26.9867 35.0514 45.9748
405 2 19.8719 8.1487 14.2682
406 2 35.9822 31.1523 7.62834
407 2 34.384 13.0134 12.6744
408 2 24.7622 49.6781 12.3649
409 2 47.2034 0.307017 16.4694
410 2 36.736 49.0088 16.1798
411 2 5.73898 41.4278 16.6378
412 2 53.7036 8.79185 35.8438
413 2 31.2109 21.3042 45.9711
414 2 12.5715 34.7197 47.5814
415 2 55.8856 51.8017 9.37401
416 2 51.947 43.0252 55.1433
417 2 44.4485 4.85816 10.3765
418 2 7.22109 35.8024 11.1725
419 2 15.6233 54.6165 22.4978
420 2 23.9219 23.1507 23.1698
421 2 41.3588 49.6679 9.78908
422 2 32.2564 16.4162 7.88931
423 2 7.96585 0.447451 43.4989
424 2 51.8963 10.5556 4.64957
425 2 48.1692 51.7958 38.7812
426 2 37.5594 8.34934 38.2548
427 1 14.784 21.3398 51.0682
428 1 49.8599 50.4154 1.75278
429 1 55.7889 27.8815 51.0239
430 1 35.0359 2.93132 24.6799
431 1 20.0452 47.7712 26.1101
432 1 42.7465 6.07896 7.78383
433 1 40.9475 19.6756 18.7832
434 1 15.5708 25.2899 42.5974
435 1 23.122 52.5426 8.46312
436 1 32.4006 31.8606 48.4055
437 1 26.0562 24.4901 33.7885
438 1 47.1889 3.12292 35.5524
439 1 1.42707 38.2921 54.3407
440 1 8.02432 15.0033 27.8412
441 1 22.4245 14.1888 10.8619
442 1 42.7458 18.7342 16.9893
443 1 46.5204 9.13604 19.3066
444 1 53.1463 42.0876 45.2536
445 1 5.10892 14.2618 17.5668
446 1 38.5496 31.4935 40.1096
447 1 20.6638 52.3379 10.1558
448 1 31.0053 10.2801 0.925331
449 1 54.2227 6.77533 28.9482
450 1 45.0539 35.4972 1.23686
451 1 27.9594 50.9766 16.7133
452 1 43.9124 13.3427 31.3877
453 1 8.27345 29.0188 31.9171
454 1 5.97506 34.0496 54.9975
455 1 15.9316 18.4008 22.4524
456 1 45.8985 1.85061 53.4478
457 1 53.7056 39.0756 18.4854
458 1 26.913 20.0559 36.7188
459 1 2.45186 34.8874 9.66904
460 1 26.5996 0.467582 39.1015
461 1 7.91592 16.6512 17.2749
462 1 48.4308 27.5973 9.15415
463 1 5.87035 6.28576 7.92388
464 1 31.6403 52.6467 22.8129
465 1 7.39485 51.7858 19.492
466 1 1.75228 47.194 5.33546
467 1 47.3483 11.524 38.014
468 1 44.0352 51.6362 5.8243
469 1 13.0878 39.7298 24.1161
470 1 29.0688 3.13337 16.3425
471 1 26.6399 10.1626 3.31404
472 1 12.6144 38.0316 29.4174
473 1 48.364 38.6618 46.7977
474 1 40.4996 13.5472 14.1332
475 1 22.8927 25.261 20.5596
476 1 8.39443 23.057 25.7932
477 1 49.0877 3.2293 37.3084
478 1 43.6176 6.46235 12.9058
479 1 55.6659 26.0081 35.1855
480 1 42.668 8.23474 6.32264
481 1 25.8897 1.51377 51.3492
482 1 29.9527 37.0184 22.8898
483 1 46.1662 19.4726 34.0358
484 1 5.6795 37.4841 7.04985
485 1 18.1943 45.4719 25.4143
486 1 47.5744 7.80917 42.7096
487 1 20.6808 12.7025 22.111
488 1 11.1945 44.277 21.441
489 1 2.32199 44.3786 13.6433
490 1 24.2658 50.2405 26.1524
491 1 13.2868 29.6586 47.1279
492 1 26.8975 24.6673 41.7231
493 1 44.1843 30.1797 34.0231
494 1 4.494 54.697 13.361
495 1 11.6602 33.9727 13.068
496 1 39.3823 17.8779 37.2326
497 1 7.0081 16.9384 32.0559
498 1 19.4168 20.5535 8.67606
499 1 33.9112 30.0037 20.1083
500 1 51.4724 2.1193 38.995
501 1 15.8565 46.0377 35.1796
502 1 51.0016 43.0148 6.99895
503 1 37.8703 10.4306 48.257
504 1 39.9819 47.0426 32.1267
505 1 40.028 25.8345 5.02234
506 1 22.6233 27.35 42.2467
507 1 53.2493 54.4361 32.2338
508 1 10.4696 43.3746 17.3515
509 1 53.5606 29.2813 8.24148
510 1 30.8605 0.659149 3.75765
511 1 50.0911 5.59885 5.92607
512 1 14.4062 50.9514 12.7234
513 1 29.1205 33.1548 29.998
514 1 28.587 27.5756 21.4409
515 1 29.2999 12.5159 27.3079
516 1 5.25888 40.3264 37.5929
517 1 15.7812 3.17763 0.184967
518 1 24.4096 12.1159 13.791
519 1 8.0366 11.8056 45.3322
520 1 35.9118 17.967 4.10454
521 1 46.0004 24.7908 32.2722
522 1 7.46668 17.1066 0.979838
523 1 38.9047 1.30981 26.354
524 1 40.1115 52.1574 32.1098
525 1 25.9138 41.9031 22.6075
526 1 29.4636 14.7283 30.6141
527 1 29.1096 54.6397 23.4492
528 1 2.21756 6.66768 6.42108
529 1 40.3368 8.27912 33.5206
530 1 36.0279 15.8011 11.6272
531 1 44.8555 12.4868 43.7003
532 1 35.1174 9.86287 11.8618
533 1 40.6794 10.1142 17.7058
534 1 19.741 35.7528 20.3725
535 1 43.722 1.44028 33.4624
536 1 37.4893 20.3767 14.7495
537 1 19.2428 22.1268 20.7649
538 1 8.51856 21.5384 49.4918
539 1 28.4941 38.1472 33.1969
540 1 47.987 12.2348 16.3805
541 1 40.7589 6.33187 5.49013
542 1 32.8103 48.2725 35.8334
543 1 37.9805 44.9925 35.0645
544 1 31.5409 34.4858 15.1717
545 1 51.6597 24.7507 5.5698
546 1 15.5873 49.2293 40.7308
547 2 15.4365 40.6125 26.6738
548 2 12.8634 46.7557 1.12351
549 2 34.8016 48.1895 25.6185
550 2 55.6193 51.8698 13.0446
551 2 52.5398 6.93893 16.9241
552 2 10.0396 6.87508 35.2089
553 2 37.5551 10.2936 16.7774
554 2 23.5954 5.75517 53.23
555 2 14.8401 12.955 21.5516
556 2 12.6705 41.5809 43.3319
557 2 13.8578 5.56297 34.2138
558 2 17.2736 33.2338 3.47547
559 2 39.9003 17.1096 21.0234
560 2 5.0385 16.219 29.4416
561 2 38.8647 12.9349 50.7227
562 2 3.8761 19.4799 28.606
563 2 29.9164 47.0356 34.9948
564 2 16.6744 4.90925 40.0231
565 2 20.2935 22.4175 35.0315
566 2 31.2432 13.4707 39.0346
567 2 44.8006 38.6147 0.811229
568 2 43.2676 18.4151 20.2434
569 1 14.8872 1.59385 19.2208
570 1 50.9333 35.0027 50.5672
571 1 21.0904 9.35428 6.00278
572 1 46.1873 15.1132 53.6333
573 1 13.9999 13.5811 27.5321
574 1 30.0517 46.0852 17.3192
575 1 27.8441 48.0329 41.1636
576 1 13.6137 54.6751 9.26217
577 1 1.85702 6.52076 15.261
578 1 55.6651 40.189 44.3233
579 1 39.2553 42.3898 46.7748
580 1 16.591 27.2381 49.9589
581 1 35.9454 12.324 29.7191
582 1 12.1678 41.165 38.1571
583 1 45.3228 25.6779 18.1181
584 1 28.7859 41.0107 29.2572
585 1 33.6908 8.33652 23.3646
586 1 55.4041 56.0796 30.9944
587 1 10.9191 1.76828 7.24884
588 1 8.92749 44.1521 47.0884
589 1 32.3658 45.9554 50.1561
590 1 1.55702 9.02657 7.66502
591 1 13.1909 9.2427 30.9076
592 1 52.695 33.3883 6.33875
593 1 19.112 28.1905 32.4091
594 1 2.84521 42.4547 41.858
595 1 36.1662 13.7314 43.3808
596 1 3.53802 4.88972 39.4064
597 1 28.7986 51.8523 7.72304
598 1 48.646 47.2828 25.5937
599 1 5.04843 3.84672 13.1472
600 1 11.4391 32.4224 4.28925
601 1 20.6219 41.408 52.2934
602 1 2.98779 42.5706 15.6922
603 1 26.6291 35.5743 52.0189
604 1 1.79479 22.0645 32.9563
605 1 29.0756 40.7348 25.9969
606 1 25.8637 44.8101 28.4089
607 1 38.8314 14.3296 34.0121
608 1 44.2286 14.4942 41.4959
609 1 34.0242 30.5467 12.8293
610 1 43.8179 5.47626 44.8324
611 1 20.8626 44.9311 30.6157
612 1 17.8985 46.5927 45.5859
613 1 2.97969 51.7159 1.21701
614 1 53.8137 33.5923 11.0567
615 1 5.87618 42.6165 41.4601
616 1 39.5904 5.02725 48.6737
617 1 16.3663 11.5505 52.1044
618 1 53.5777 50.9628 55.3028
619 1 33.5951 7.65517 26.009
620 1 28.4016 30.7066 28.5121
621 1 53.2719 8.91732 27.1965
622 1 5.13891 31.2632 45.4791
623 1 15.1482 44.4349 12.1584
624 1 27.8247 9.61337 55.5719
625 1 11.8858 21.2347 28.3027
626 1 36.0233 25.5759 22.1315
627 1 34.7529 40.3766 1.88016
628 1 31.7916 10.2084 17.405
629 1 34.1793 43.3238 6.63985
630 1 36.0446 0.015883 15.6825
631 1 43.8376 29.2685 13.947
632 1 4.60843 32.5607 27.0337
633 1 15.7131 6.33272 49.6642
634 1 48.1836 46.0804 17.9431
635 1 32.8028 45.7231 24.3395
636 1 6.00008 6.70487 16.8796
637 1 51.9094 13.3335 38.4443
638 1 33.047 47.4043 55.7173
639 1 28.5926 5.3214 4.65881
640 1 21.957 53.7395 6.07046
641 1 55.8183 47.7996 35.704
642 1 53.6398 18.7568 10.6738
643 1 43.7314 27.8777 28.9392
644 1 20.3958 42.5506 45.9888
645 1 0.713199 19.5209 40.6889
646 1 13.027 31.1124 12.4071
647 1 3.15212 29.5962 8.69857
648 1 24.0076 16.202 0.884546
649 1 18.0913 19.6509 20.7938
650 1 15.3085 3.79204 3.01382
651 1 30.3104 33.501 33.2926
652 1 55.7273 21.058 42.7027
653 1 52.082 30.5416 51.1426
654 1 29.2056 34.0885 -0.242555
655 1 40.884 4.10227 30.0253
656 1 36.7206 52.1999 40.1758
657 1 53.0025 33.1904 20.1298
658 1 24.7892 8.52945 55.1464
659 1 36.6521 41.2135 54.3719
660 1 1.3844 44.398 6.80119
661 1 46.0322 36.4236 13.0949
662 1 15.5983 41.3523 44.3812
663 1 19.2245 37.5305 35.3217
664 1 53.9437 16.8047 23.9289
665 1 34.477 42.8602 23.0315
666 1 15.5091 10.9233 24.0072
667 1 29.2448 17.9726 18.026
668 1 42.2877 20.1016 49.7912
669 1 51.3038 22.7405 15.0976
670 1 47.3922 1.89919 13.8727
671 1 43.6939 0.969834 18.6905
672 1 1.61248 18.7385 9.18259
673 1 11.312 4.18941 35.4073
674 1 46.1805 51.2883 7.51754
675 1 23.3718 8.02256 33.2308
676 1 1.60148 16.5855 24.763
677 1 55.7528 36.0945 54.3818
678 1 15.6915 55.7999 17.6198
679 1 52.7353 12.2762 22.0055
680 1 28.6785 32.3503 46.2892
681 1 0.183999 26.3655 48.8293
682 1 7.20166 3.24593 44.8892
683 1 43.0859 12.8699 20.7763
684 1 38.1758 32.1676 37.0458
685 1 23.0273 54.9962 14.9786
686 1 44.7192 15.0399 11.1541
687 1 47.2556 55.4159 28.1536
688 1 20.4019 7.29738 33.3543
689 2 21.696 49.3323 23.9946
690 2 30.1076 50.511 10.0103
691 2 34.6026 27.0778 39.1848
692 2 8.1254 42.3649 49.4422
693 2 44.8345 48.122 22.4665
694 2 3.1959 51.1161 54.8244
695 2 17.4496 15.0142 45.3848
696 2 16.1611 40.9825 8.12245
697 2 1.4341 18.2816 35.86
698 2 16.9511 18.531 6.98822
699 2 44.9074 11.572 39.8199
700 2 38.6691 4.75642 3.66994
701 2 53.6891 27.6152 5.48452
702 2 36.0116 28.7442 27.4209
703 2 48.998 45.9537 44.4079
704 2 54.1218 12.5141 17.5835
705 2 2.44983 36.9166 7.54329
706 2 2.14796 40.4248 44.6378
707 2 47.5149 17.1518 18.7254
708 2 43.5845 54.2916 0.625573
709 2 44.2891 30.5917 42.2521
710 2 52.913 48.706 30.7812
711 1 34.6285 1.46443 47.5348
712 1 18.4526 30.0518 52.8125
713 1 0.897381 49.1675 44.1294
714 1 41.0542 29.1908 30.0221
715 1 1.16612 10.8393 44.7179
716 1 2.87511 15.8742 51.2426
717 1 49.438 2.65345 2.11445
718 1 4.57804 42.0376 56.1214
719 1 42.3656 17.064 52.3128
720 1 19.4278 16.4723 13.228
721 1 31.2895 6.67737 4.86874
722 1 32.0748 37.6651 55.5728
723 1 19.3648 15.1794 15.7697
724 1 48.4769 37.1422 53.8503
725 1 12.9156 45.7141 35.0021
726 1 32.0533 38.9317 42.7811
727 1 36.2957 44.6655 13.7608
728 1 28.2235 0.840304 56.054
729 1 42.8639 21.0623 42.7142
730 1 7.87101 4.192 35.3458
731 1 53.9511 10.6758 20.0843
732 1 13.1417 1.09077 14.773
733 1 34.9977 55.6429 55.667
734 1 37.4081 43.7972 17.7102
735 1 37.0556 6.03992 53.9037
736 1 51.7392 19.2745 50.7387
737 1 30.9853 43.1091 24.3612
738 1 0.434152 11.8517 6.27213
739 1 23.5451 18.9962 1.55487
740 1 40.435 35.276 49.4661
741 1 53.2799 9.44986 30.0803
742 1 20.2698 36.8313 10.5788
743 1 44.5252 29.4854 27.1898
744 1 33.3755 55.8899 40.1298
745 1 45.1666 12.6248 12.9345
746 1 20.3312 18.0173 20.6704
747 1 0.479333 2.41615 36.1702
748 1 45.6282 52.2005 1.48751
749 1 17.0885 13.0395 42.6824
750 1 30.0509 16.1504 53.4601
751 1 19.1629 32.6556 33.8979
752 1 18.0084 44.2593 34.1261
753 1 20.0764 9.80219 43.6649
754 1 36.3059 53.8319 27.4121
755 1 26.6023 18.3169 15.1677
756 1 31.774 49.1164 54.0325
757 1 4.04406 18.3837 37.8968
758 1 54.7332 27.3394 20.4023
759 1 39.5851 7.69935 17.3709
760 1 19.2979 32.5313 54.5657
761 1 49.25 14.7241 40.8079
762 1 30.6135 52.5743 12.0788
763 1 24.3267 17.8685 8.66413
764 1 18.0147 13.3645 21.4936
765 1 42.6357 20.0958 40.0406
766 1 27.6692 31.7184 54.9186
767 1 6.38767 49.259 20.3481
768 1 25.623 22.4068 35.5225
769 1 18.1469 48.5923 54.5591
770 1 19.1285 3.57349 4.5627
771 1 11.8872 38.6094 44.0117
772 1 28.6815 15.2595 51.0567
773 1 10.4144 16.3652 45.7702
774 1 32.5915 4.3149 25.4944
775 1 46.2409 41.4507 30.1066
776 1 25.0112 55.7618 22.7424
777 1 45.8969 47.5698 25.6893
778 1 21.85 33.657 47.6205
779 1 40.8374 26.9575 44.7765
780 1 31.0393 47.4777 40.7882
781 1 20.3442 38.0976 24.9984
782 1 4.52021 19.0691 15.9362
783 1 50.3536 0.730092 36.8254
784 1 44.5338 27.8941 24.0356
785 1 27.4716 26.0737 48.5061
786 1 15.4351 7.39287 41.9574
787 1 4.9801 31.2004 54.4938
788 1 2.49569 10.2379 37.2057
789 1 16.1868 44.271 26.936
790 1 51.7185 29.3959 43.8985
791 1 35.7299 19.9837 26.9174
792 1 26.1835 55.5658 19.4696
793 1 2.42845 49.9541 22.1725
794 1 30.1499 25.3944 27.7012
795 1 -0.19333 20.849 34.3132
796 1 44.6953 12.1295 4.20012
797 1 19.0158 11.3161 13.9946
798 1 42.3415 26.7113 55.8358
799 1 14.6729 45.1857 6.34584
800 1 17.023 30.5468 55.1525
801 1 49.0306 48.4905 10.9404
802 1 21.9595 17.6292 37.8243
803 1 40.1102 45.0692 40.1262
804 1 51.6628 36.9632 9.31787
805 1 38.5825 44.7863 32.3566
806 1 13.3887 15.2661 37.3778
807 1 55.8188 15.8492 34.7172
808 1 47.1157 6.87068 40.315
809 1 6.71642 14.2321 0.877064
810 1 8.0119 40.7767 32.3912
811 1 33.548 22.0224 48.1099
812 1 44.1142 8.43616 52.1722
813 1 0.536079 11.0573 2.61734
814 1 45.9133 4.55422 20.1681
815 1 4.48555 8.55425 41.5908
816 1 49.4735 4.45605 34.9384
817 1 44.392 43.5589 29.4136
818 1 54.911 48.3814 55.3832
819 1 18.102 37.6764 43.2976
820 1 53.6098 28.1524 38.5954
821 1 32.458 29.7658 39.0587
822 1 0.6535 3.74948 28.7596
823 1 53.994 46.6432 38.1882
824 1 53.8346 54.2042 29.6693
825 1 17.3516 54.3951 29.7559
826 1 16.6524 50.5325 3.86958
827 1 19.8591 33.5933 22.5143
828 1 30.1056 18.164 20.7166
829 1 49.3309 55.8986 29.5981
830 1 51.4579 43.7523 4.35766
831 2 7.21433 40.258 40.0932
832 2 23.7751 14.4526 3.38467
833 2 20.0314 43.1495 23.3278
834 2 43.2541 26.9763 46.7881
835 2 25.131 -0.0254366 27.921
836 2 23.8925 14.2061 32.3987
837 2 15.677 27.1646 17.72
838 2 23.4832 42.5453 47.5635
839 2 28.5181 35.5883 31.6226
840 2 19.8535 15.9657 53.5762
841 2 15.8229 27.5375 26.659
842 2 47.1984 9.53506 45.6784
843 2 42.2976 1.26323 30.0423
844 2 31.2092 15.4068 18.3774
845 2 8.3276 51.9225 16.3983
846 2 41.3321 41.3343 48.8716
847 2 48.9214 55.2734 10.0618
848 2 47.8968 44.3227 26.1567
849 2 23.0378 17.5157 34.6631
850 2 22.8262 32.0376 44.4084
851 2 48.2848 -0.178258 53.9558
852 2 46.4303 38.7209 20.5276
853 1 33.5316 53.7245 7.95596
854 1 30.3009 42.4597 46.9626
855 1 47.7389 26.5378 15.0585
856 1 9.22129 27.8564 29.6865
857 1 54.9203 16.7245 40.417
858 1 14.0122 50.3427 48.7325
859 1 36.8434 24.3925 38.8321
860 1 9.3247 37.8659 3.87176
861 1 51.8772 36.5668 29.3022
862 1 54.4467 31.0519 5.60275
863 1 33.3082 11.5152 10.2098
864 1 47.4956 26.3668 49.182
865 1 14.6508 26.2283 14.0795
866 1 10.486 33.8164 0.354237
867 1 50.5164 21.7202 37.2348
868 1 49.4219 1.48189 34.5334
869 1 53.8639 26.679 52.5174
870 1 33.5866 24.6786 21.1444
871 1 10.0727 27.8112 15.0069
872 1 53.4117 37.8725 40.8782
873 1 13.5389 34.0809 26.8442
874 1 53.9844 46.199 1.10397
875 1 41.6828 29.5475 48.0121
876 1 55.8846 17.4297 28.7944
877 1 -0.0271808 27.38 22.452
878 1 5.87608 35.9364 22.4306
879 1 10.7074 14.3367 30.8498
880 1 51.709 11.5266 1.59302
881 1 31.4234 13.2062 47.9273
882 1 45.0357 22.5177 52.5555
883 1 29.4515 21.6017 8.09284
884 1 51.4643 54.5649 36.4311
885 1 29.7471 23.4946 0.814879
886 1 39.1119 47.7874 2.25474
887 1 7.16349 15.3174 19.5818
888 1 3.07506 30.1558 46.9073
889 1 46.1617 7.66228 34.0644
890 1 55.8776 7.56506 6.53325
891 1 53.0524 20.4913 37.7364
892 1 37.532 3.99853 25.1171
893 1 14.3609 51.3421 34.0083
894 1 9.04724 41.0213 10.0066
895 1 3.14861 48.7474 32.7928
896 1 2.65428 40.5267 17.7627
897 1 28.3206 53.5105 10.2832
898 1 43.7058 34.6803 43.8469
899 1 16.6771 19.1694 32.16
900 1 5.09097 26.1722 1.51049
901 1 34.3091 37.8409 41.9527
902 1 25.5574 46.3756 26.0659
903 1 3.87649 26.9394 8.80927
904 1 35.7263 35.5769 11.2518
905 1 28.0954 30.2422 22.3518
906 1 17.5827 36.1144 9.95162
907 1 25.5068 48.0695 15.3043
908 1 1.37271 6.11527 34.6838
909 1 46.0598 2.81728 40.9296
910 1 52.3527 38.5444 7.38201
911 1 12.5379 8.62265 25.1003
912 1 16.9645 18.1598 36.7043
913 1 55.8916 49.4006 7.11935
914 1 53.1885 51.7965 31.0482
915 1 20.1239 18.7318 48.8186
916 1 26.231 27.3907 39.1287
917 1 35.5609 55.9908 4.42916
918 1 50.5806 34.6591 14.6094
919 1 51.4093 41.0895 36.9269
920 1 12.4073 38.5057 38.627
921 1 38.1715 46.8073 14.1517
922 1 17.5011 41.9568 32.0569
923 1 51.8782 3.08892 36.1521
924 1 0.182915 11.9022 16.5816
925 1 45.1593 54.2228 6.90993
926 1 27.909 50.1638 51.7209
927 1 50.5825 48.1026 48.9871
928 1 42.9489 9.15048 13.2718
929 1 50.1092 33.1599 7.22852
930 1 37.0581 45.4866 6.27579
931 1 17.063 25.6387 31.5793
932 1 7.94548 51.6093 53.1081
933 1 30.6849 7.10792 44.0341
934 1 24.5123 51.2661 54.6978
935 1 5.18121 39.2983 55.1295
936 1 7.85649 32.9311 12.6022
937 1 33.9535 0.179263 43.0768
938 1 34.8128 9.15027 44.6586
939 1 5.09482 28.4643 13.5672
940 1 8.54736 37.2671 49.0876
941 1 36.6406 6.60651 35.5747
942 1 15.2458 46.6389 45.4836
943 1 33.5673 36.8025 34.4878
944 1 8.82717 41.4793 16.029
945 1 44.8089 21.0685 44.9777
946 1 9.76117 42.6689 44.4174
947 1 41.1714 31.2209 40.8631
948 1 15.3935 55.51 44.076
949 1 49.4549 51.9099 17.8575
950 1 39.3521 20.1801 49.3667
951 1 15.05 43.3029 53.6084
952 1 44.1241 0.900457 48.57
953 1 31.9588 24.4173 54.221
954 1 11.2112 45.6072 40.8024
955 1 13.2452 21.9293 15.3562
956 1 11.8697 20.2067 8.44806
957 1 47.0952 43.7608 50.8547
958 1 8.26713 25.6158 26.5986
959 1 31.3226 50.252 35.5978
960 1 53.6324 14.1797 12.4004
961 1 37.0508 41.4377 42.6371
962 1 47.2461 9.31073 16.5548
963 1 7.70673 30.3903 47.4245
964 1 25.5844 14.4634 44.2081
965 1 15.5128 30.3543 35.7868
966 1 24.8654 42.8576 31.4243
967 1 3.86064 10.5823 12.6965
968 1 36.9269 12.6993 47.969
969 1 32.0536 37.0864 50.434
970 1 31.4368 17.2594 15.657
971 1 52.9466 20.3497 44.0892
972 1 50.6076 6.96369 52.0901
973 2 45.3351 4.33099 25.6433
974 2 46.1821 39.4838 35.4654
975 2 53.4042 38.9904 27.6554
976 2 17.473 30.14 49.7469
977 2 52.8621 36.5211 16.1946
978 2 52.4483 36.2663 19.7472
979 2 33.3683 42.45 40.7776
980 2 55.2152 6.23007 44.9852
981 2 36.5464 11.8183 9.63284
982 2 54.4969 29.9297 49.0956
983 2 12.2165 31.4117 1.28704
984 2 46.4179 22.5977 34.2857
985 2 52.4105 2.23378 13.3645
986 2 7.38149 18.6412 38.0835
987 2 20.244 6.37534 5.17418
988 2 2.41123 26.5921 51.6818
989 2 39.654 27.7877 32.312
990 2 54.1008 9.90733 15.0076
991 2 23.1518 21.429 17.673
992 2 16.2442 15.6853 54.674
993 2 1.67302 15.6417 56.0293
994 2 53.088 23.051 35.286
995 1 54.1713 3.23091 43.672
996 1 51.443 25.3852 46.9675
997 1 25.094 1.81336 48.5251
998 1 4.41328 44.8067 34.9394
999 1 25.4034 51.3246 52.1734
1000 1 19.4378 8.69224 47.8991
1001 1 30.9728 30.3644 36.6432
1002 1 52.9745 26.3206 8.16792
1003 1 14.0819 29.0154 30.4803
1004 1 9.59895 43.599 7.67064