ITEM: TIMESTEP
0
ITEM: NUMBER OF ATOMS
9088
ITEM: BOX BOUNDS pp pp pp
-2.7902517686652861e-01 5.6163517802842954e+01
-2.7902517686652861e-01 5.6163517802842954e+01
-2.7902517686652861e-01 5.6163517802842954e+01
ITEM: ATOMS id type x y z
1 1 28.6988 41.5826 49.2786
2 1 44.1122 4.23067 36.7884
3 1 33.4325 6.65708 49.1149
4 1 37.1368 49.2432 44.1388
5 1 11.3267 34.5716 8.19613
6 1 41.4519 29.8285 30.2422
7 1 18.4992 30.8985 1.09171
8 1 52.1731 4.21262 7.0573
9 1 55.7523 50.0972 40.2585
10 1 37.0044 13.5203 53.6415
11 1 48.3932 35.7843 32.3529
12 1 35.5741 19.3989 36.639
13 1 21.4929 48.4728 36.9754
14 1 20.1357 49.7667 50.2189
15 1 3.03479 36.3636 30.2182
16 1 31.3777 0.823719 39.0759
17 1 50.6729 9.58163 28.3834
18 1 3.81527 47.7364 36.1112
19 1 30.2547 23.8796 52.0038
20 1 31.1252 2.38619 44.8201
21 1 25.5149 49.1549 50.3526
22 1 9.527 41.6821 1.87319
23 1 22.0393 17.5945 38.0196
24 1 3.28374 7.63317 55.5886
25 1 24.1914 28.5902 40.2076
26 1 19.7066 28.1038 43.3659
27 1 34.8558 29.4808 54.6257
28 1 13.3575 32.6778 15.022
29 1 13.5891 51.0001 41.6804
30 1 48.8158 9.52179 43.3753
31 1 31.9735 7.26622 0.76309
32 1 34.1805 5.12446 23.3458
33 1 24.2512 41.8701 2.6735
34 1 14.7535 24.786 1.66627
35 1 19.1535 51.4688 43.2945
36 1 16.6994 37.41 14.3197
37 1 23.8027 55.7654 47.0289
38 1 23.4261 18.8148 1.70809
39 1 13.2831 25.9561 -0.159617
40 1 8.63506 11.2265 48.1109
41 1 47.153 41.2247 1.33401
42 1 5.64361 38.7931 14.7407
43 1 21.4766 16.8442 9.51667
44 1 50.7153 52.1898 23.7471
45 1 12.7457 43.7699 56.09
46 1 0.0289304 17.7709 10.9206
47 1 42.3962 6.29479 32.2442
48 1 18.3796 30.9961 19.884
49 1 7.47553 23.4342 28.1376
50 1 18.222 19.6038 20.4075
51 1 50.2419 32.3221 30.3365
52 1 22.3438 10.0865 37.436
53 1 52.634 20.5425 1.24234
54 1 55.2634 23.8196 41.4121
55 1 39.8585 44.8159 29.4995
56 1 12.2419 24.9864 44.5853
57 1 7.03706 33.1034 34.444
58 1 37.511 11.4863 21.5117
59 1 5.28334 30.2187 28.4197
60 1 36.2145 33.098 55.1688
61 1 11.6998 26.9574 53.9556
62 1 53.1519 22.1272 24.4895
63 1 49.7636 43.511 29.0589
64 1 22.1326 4.27836 16.1316
65 1 11.4415 42.7311 48.2011
66 1 8.00516 45.1175 10.0143
67 1 11.9488 43.2723 53.3977
68 1 11.3752 33.6299 52.121
69 1 35.6216 39.497 47.5043
70 1 2.08848 27.8203 4.85652
71 1 52.0606 47.0077 28.0702
72 1 55.5543 29.7193 1.3275
73 1 33.4036 48.8722 14.5261
74 1 8.01878 32.5469 43.0689
75 1 37.6746 19.4835 5.02635
76 1 38.6979 23.9869 6.03464
77 1 47.3386 40.4438 31.817
78 1 34.9452 41.086 7.91772
79 1 31.6639 23.0595 42.7832
80 1 39.5262 -0.00724153 31.1254
81 1 17.4023 27.6483 54.0974
82 1 50.4078 1.23018 24.0412
83 1 8.15406 14.7462 27.6326
84 1 36.5442 1.84289 3.51757
85 1 39.7031 10.8262 38.6037
86 1 35.0787 34.0159 34.513
87 1 27.3865 9.95713 33.331
88 1 15.6451 11.375 12.8307
89 1 3.74776 50.5307 36.9037
90 1 1.05931 39.748 51.5424
91 1 17.9468 7.74136 21.8659
92 1 10.11 11.8575 19.2537
93 1 38.3484 9.5282 10.9807
94 1 35.7566 34.2261 29.057
95 1 40.8744 24.1438 18.6768
96 1 7.10303 -0.091171 13.9197
97 1 3.37667 8.819 32.5732
98 1 17.1136 13.6414 28.0046
99 1 42.9336 36.7592 5.5161
100 1 3.01297 6.40434 27.0258
101 1 0.457542 33.9024 47.2948
102 1 5.26196 1.81014 12.35
103 1 41.4348 43.6779 56.1613
104 1 14.6685 55.1607 39.2737
105 1 31.7573 13.926 10.8766
106 1 19.0964 48.354 48.0108
107 1 34.1415 0.182726 42.5773
108 1 46.8709 17.061 47.6118
109 1 9.97308 46.0036 16.7439
110 1 31.1907 9.22105 10.4795
111 1 31.4554 46.1726 7.02378
112 1 8.05431 5.70342 10.8294
113 1 28.8279 33.3314 11.5354
114 1 24.4966 16.7999 40.0395
115 1 42.9372 34.7835 31.2064
116 1 32.2069 6.10124 37.8257
117 1 0.0568587 12.1943 40.3279
118 1 6.08943 42.9534 35.9431
119 1 36.3154 36.3895 34.1266
120 1 15.0828 2.16843 40.0421
121 2 11.9029 38.7801 35.1413
122 2 51.5196 18.5818 12.7216
123 2 55.2425 46.5016 20.9946
124 2 52.4271 29.8948 19.8226
125 2 53.7952 35.5586 38.4324
126 2 24.9838 7.63293 17.5216
127 2 12.2707 51.4056 15.6847
128 2 7.73021 29.9693 35.131
129 2 55.3151 17.9486 7.58114
130 2 1.25002 21.138 45.7745
131 2 51.9856 11.8907 47.4628
132 2 39.2146 46.8802 17.6564
133 2 34.8796 43.1513 16.0132
134 2 14.8029 5.1193 8.96487
135 2 42.95 34.0769 3.80263
136 2 9.89831 0.694746 32.3695
137 2 40.6863 24.2231 46.2103
138 2 5.32591 4.59433 49.3433
139 2 31.1705 15.225 13.5929
140 2 45.6737 27.3944 38.9483
141 2 7.70646 38.4985 22.87
142 2 29.6088 23.5447 40.4065
143 1 50.0879 19.3682 44.8336
144 1 28.9564 17.6591 13.1629
145 1 54.1287 12.4267 6.81745
146 1 52.3626 26.7284 15.3033
147 1 29.5771 28.3215 32.6524
148 1 26.1812 6.74878 38.2272
149 1 46.2647 6.13221 45.1071
150 1 24.809 25.4523 9.65533
151 1 50.1546 24.8221 54.0524
152 1 10.2827 33.8937 45.1731
153 1 49.8139 48.2592 29.1583
154 1 43.0424 41.8979 30.7519
155 1 32.0642 18.7252 10.0124
156 1 8.10605 33.4557 9.04391
157 1 51.6031 34.1743 22.0668
158 1 37.6315 5.64634 0.38108
159 1 0.465345 44.7776 9.33998
160 1 49.3705 2.41283 2.31824
161 1 10.6396 25.3556 21.4389
162 1 12.9792 12.9555 44.1377
163 1 19.9841 21.4364 26.5686
164 1 -0.275133 38.4604 11.7748
165 1 51.6005 35.6144 6.78243
166 1 45.1175 41.9868 14.853
167 1 31.5184 39.7473 46.3704
168 1 40.1872 14.7026 45.7307
169 1 28.5069 48.1365 40.9203
170 1 39.6032 33.5431 47.3191
171 1 29.1267 35.4029 24.6065
172 1 21.3259 43.8146 28.6998
173 1 14.1202 39.8002 9.81652
174 1 35.2516 1.58086 32.4968
175 1 18.7788 28.1027 16.283
176 1 39.8684 37.1568 6.95605
177 1 9.999 4.89148 25.0162
178 1 6.89822 10.6228 11.3771
179 1 29.0506 44.1557 49.4804
180 1 55.4895 27.1186 8.60958
181 1 48.6803 43.0618 31.6688
182 1 49.6068 30.6455 52.4946
183 1 13.369 20.3779 3.7269
184 1 25.8925 52.9734 12.0303
185 1 33.3838 9.84354 34.5006
186 1 43.8746 26.3293 26.3673
187 1 1.50439 6.86299 53.6808
188 1 28.6249 39.1904 3.48036
189 1 13.3336 41.4504 34.3686
190 1 35.8026 49.146 21.7438
191 1 12.9179 20.7624 46.6513
192 1 50.5791 0.675131 8.31329
193 1 37.3966 8.77378 13.5575
194 1 36.1509 3.88078 30.81
195 1 12.9941 19.2714 50.1494
196 1 34.8743 2.85511 24.8326
197 1 6.91681 9.14476 49.2359
198 1 10.872 24.1496 27.3461
199 1 31.4686 18.5331 3.30841
200 1 39.5629 20.4846 41.3158
201 1 26.8289 13.067 16.2081
202 1 39.2351 1.91745 2.92596
203 1 31.4235 27.4159 37.5914
204 1 41.2408 27.0652 19.2639
205 1 7.97061 12.3571 2.84786
206 1 38.5427 25.7652 22.8527
207 1 -0.00704794 44.8174 46.0195
208 1 31.9431 5.08214 10.7955
209 1 47.8544 6.6285 47.4849
210 1 27.1685 21.5979 42.0835
211 1 8.47043 5.74587 21.8148
212 1 43.401 27.3479 43.2276
213 1 22.437 12.1739 51.1992
214 1 0.773061 38.0012 2.25246
215 1 11.5042 27.8003 22.6311
216 1 0.125291 24.5121 51.0812
217 1 22.2215 8.8316 34.9916
218 1 1.32263 9.73258 54.5172
219 1 44.2125 49.5492 7.71922
220 1 48.3711 12.7279 47.0438
221 1 28.8832 0.120564 15.8609
222 1 2.91272 5.44056 20.0288
223 1 26.0645 44.2051 2.95851
224 1 37.5871 49.2656 10.5638
225 1 43.8235 48.7522 38.603
226 1 12.5937 42.0221 25.4627
227 1 20.079 45.6923 33.545
228 1 -0.106344 20.1379 52.6175
229 1 10.8405 26.9772 42.9715
230 1 31.1595 29.8895 41.3972
231 1 31.8463 35.3932 25.4626
232 1 40.6736 17.1329 17.5122
233 1 51.0425 50.1244 38.145
234 1 11.0715 14.1343 51.4192
235 1 41.557 18.3907 42.357
236 1 6.98621 47.9949 29.8106
237 1 51.0714 31.4971 21.9989
238 1 36.0169 0.506432 1.25035
239 1 34.1592 28.7465 5.95554
240 1 9.08702 32.7627 50.978
241 1 20.2473 49.1181 10.6992
242 1 32.5672 11.2742 2.59745
243 1 12.1686 18.9739 32.8866
244 1 56.0545 42.7274 7.41626
245 1 1.43524 27.8651 19.6822
246 1 55.5196 4.2598 3.98245
247 1 55.0073 47.8187 13.8442
248 1 44.2021 0.457569 45.8385
249 1 10.3593 45.0462 49.14
250 1 23.394 24.4864 17.8008
251 1 19.4663 35.7618 2.83467
252 1 47.9454 16.0965 38.8501
253 1 2.51519 27.0745 48.2998
254 1 12.5435 8.85416 35.1262
255 1 54.9716 9.44845 18.0707
256 1 30.8628 47.43 24.4409
257 1 1.45165 12.4251 34.8084
258 1 33.2996 18.5254 27.7978
259 1 45.8093 46.0119 55.256
260 1 24.8289 41.6272 34.0385
261 1 31.8475 10.5638 39.5366
262 1 22.4651 39.3261 9.7793
263 2 43.9946 24.9071 29.2178
264 2 25.6678 47.3186 1.59242
265 2 50.0198 7.27848 49.6442
266 2 7.00815 24.6334 38.7336
267 2 14.6268 21.2314 1.22807
268 2 4.52051 3.4122 24.7908
269 2 15.285 2.3098 16.5963
270 2 44.3601 43.6283 53.7427
271 2 54.1597 44.9434 26.3729
272 2 33.0236 40.4094 13.7288
273 2 33.2544 6.0996 34.7765
274 2 53.1132 26.7413 30.5286
275 2 27.1462 6.96195 53.0114
276 2 56.0867 14.0816 4.33314
277 2 1.30723 42.8731 39.44
278 2 11.8846 34.3476 18.454
279 2 43.7965 51.4646 46.673
280 2 19.3795 55.4611 22.2232
281 2 41.5506 16.7579 14.6374
282 2 15.23 28.8395 8.08031
283 2 46.9185 47.7427 28.6802
284 2 16.7732 27.1453 34.7354
285 1 4.7561 35.4442 5.88779
286 1 49.6608 34.7728 20.5954
287 1 44.4032 1.62882 36.3618
288 1 24.3049 15.6066 27.3622
289 1 18.2993 32.3207 5.93487
290 1 50.9341 12.9248 24.2076
291 1 18.0389 43.9439 34.2052
292 1 40.8261 4.95362 44.1406
293 1 54.5263 19.7821 55.696
294 1 31.1729 32.7676 41.6283
295 1 47.0882 25.4814 29.6108
296 1 12.2775 32.3251 35.184
297 1 48.3314 14.1805 34.1898
298 1 30.9034 22.4454 12.9347
299 1 31.7348 18.5325 18.3544
300 1 24.501 31.9026 9.61041
301 1 24.9107 50.0111 23.1691
302 1 46.5519 33.6114 25.7876
303 1 53.8874 3.53041 1.64364
304 1 15.227 35.55 55.613
305 1 25.3507 38.4883 23.148
306 1 28.6959 52.1208 32.8726
307 1 5.23137 39.8655 32.2292
308 1 39.7662 54.069 45.1939
309 1 49.6155 30.7853 28.45
310 1 11.0388 50.2836 40.438
311 1 38.2986 35.3522 5.47719
312 1 10.301 7.72479 25.8358
313 1 5.14604 55.7164 18.2769
314 1 29.0335 47.3873 53.1415
315 1 4.74227 6.31252 15.161
316 1 44.0433 10.5172 10.6289
317 1 30.5301 32.0093 38.8642
318 1 6.11832 23.3262 11.0252
319 1 3.31572 2.96542 18.4248
320 1 18.9145 33.6764 25.3265
321 1 26.1793 38.7333 34.4654
322 1 55.2273 21.4533 22.7774
323 1 9.3507 8.38252 32.475
324 1 18.8923 8.9313 32.3157
325 1 21.5404 46.0614 43.5811
326 1 16.5603 32.0228 40.98
327 1 14.7133 10.9017 35.1903
328 1 0.267956 8.11448 36.8461
329 1 4.26128 25.6282 44.7067
330 1 7.92119 30.5192 29.9867
331 1 15.938 39.2473 52.7605
332 1 0.896077 44.2615 12.0005
333 1 13.8013 12.3819 10.8891
334 1 33.682 35.1135 22.7076
335 1 35.7496 13.2913 51.1148
336 1 49.825 21.3051 12.9144
337 1 0.734119 34.2404 7.50068
338 1 9.24075 22.9455 22.7424
339 1 17.5751 22.635 43.5531
340 1 25.0603 23.2563 25.9742
341 1 26.7311 50.9821 25.2643
342 1 56.0965 26.271 17.6209
343 1 36.1581 14.2639 27.6709
344 1 32.9597 16.1457 10.9837
345 1 49.0031 16.5446 3.67002
346 1 0.255129 6.66951 23.3306
347 1 19.7849 18.5274 11.0434
348 1 13.4606 10.4941 22.7483
349 1 4.30116 37.1004 10.4954
350 1 3.37464 55.8028 50.5495
351 1 45.3746 35.6912 5.21266
352 1 18.8513 8.32873 52.301
353 1 24.3894 34.5924 54.0029
354 1 46.6221 39.3548 38.3823
355 1 49.1338 28.4016 38.7003
356 1 9.70436 40.2629 42.9462
357 1 19.949 50.563 52.9713
358 1 19.4133 23.486 37.8155
359 1 28.992 45.0253 46.3713
360 1 16.536 38.2878 45.3749
361 1 43.9259 23.6125 45.6953
362 1 0.065528 54.3361 4.56537
363 1 44.3729 18.2107 14.6146
364 1 41.1306 0.386351 33.2425
365 1 33.1297 53.573 17.143
366 1 15.3957 34.5496 14.534
367 1 52.482 45.2746 40.2883
368 1 40.3221 45.0335 26.6424
369 1 33.4597 14.7002 15.8632
370 1 3.43274 40.7933 50.5578
371 1 16.9596 27.7168 47.1199
372 1 13.6932 22.2501 33.6819
373 1 19.3691 56.0957 40.2787
374 1 47.056 50.5436 2.51086
375 1 1.87598 52.0401 36.5252
376 1 43.3161 48.9096 25.0268
377 1 8.12159 22.4392 51.9975
378 1 29.2962 53.0226 21.2892
379 1 51.8629 39.3984 20.3026
380 1 10.9754 12.9673 26.8118
381 1 26.3204 50.0595 28.8407
382 1 55.2481 22.3298 8.41398
383 1 11.4028 21.1623 21.8744
384 1 49.5555 16.5161 32.7227
385 1 29.6874 9.15693 19.5503
386 1 36.1682 38.8184 23.1034
387 1 20.0598 35.9465 37.828
388 1 24.4953 6.8505 40.499
389 1 26.4343 11.2359 14.2234
390 1 45.5892 48.9216 31.9184
391 1 6.91235 9.26457 6.86926
392 1 48.6869 48.7796 37.5557
393 1 3.39827 27.8321 0.668846
394 1 2.88402 37.9284 46.7845
395 1 55.0044 7.59266 48.2486
396 1 14.9789 5.1234 23.8959
397 1 49.9279 26.0261 22.5272
398 1 18.3895 27.6511 51.5056
399 1 6.97231 54.5507 42.0103
400 1 35.9933 42.975 27.4252
401 1 18.8176 30.8214 24.8332
402 1 31.6843 47.8728 43.7323
403 1 13.093 42.4305 28.3797
404 1 26.8508 35.0214 45.9308
405 2 19.6311 8.12524 14.1857
406 2 36.1402 30.9525 7.75273
407 2 34.2636 12.9763 12.634
408 2 24.877 49.8562 12.7855
409 2 46.2065 -0.122735 16.4783
410 2 36.4577 49.0644 16.346
411 2 5.5954 41.6884 16.7901
412 2 53.3872 8.68454 35.9538
413 2 31.1757 21.424 45.5294
414 2 12.3995 34.9828 47.8535
415 2 55.4614 51.9152 8.91404
416 2 51.8526 43.1956 55.406
417 2 44.0089 5.19545 10.3031
418 2 7.41918 35.8023 11.1723
419 2 15.5105 54.5281 22.6752
420 2 24.0537 23.2218 23.2569
421 2 41.354 49.9177 9.91045
422 2 32.1439 16.266 7.90932
423 2 8.13989 0.489845 43.6127
424 2 52.2206 10.6154 4.67247
425 2 48.2588 51.7719 39.1546
426 2 37.5274 8.12112 38.3058
427 1 29.4779 30.086 -0.12673
428 1 53.0607 54.8721 53.5347
429 1 55.552 27.8626 51.1804
430 1 47.801 55.9809 13.8285
431 1 20.1389 47.4962 26.3214
432 1 42.5817 8.27119 6.3323
433 1 40.3676 19.5394 15.5774
434 1 17.8552 25.6925 48.9612
435 1 22.9428 52.278 8.47809
436 1 32.4392 32.1589 48.2441
437 1 26.329 24.4836 33.5886
438 1 46.8792 2.94659 35.4916
439 1 1.7063 38.1876 54.2312
440 1 7.60682 20.2044 28.8907
441 1 22.2906 14.2652 10.8508
442 1 42.7917 18.5888 17.0301
443 1 44.8085 14.8598 28.9069
444 1 53.2998 41.6372 45.1453
445 1 5.43905 14.6032 17.6683
446 1 38.5436 31.7066 39.9606
447 1 20.7823 51.8777 10.2506
448 1 36.7405 8.04103 49.644
449 1 54.1424 7.05179 29.3766
450 1 49.3592 32.5929 3.49765
451 1 27.8194 49.3795 20.0951
452 1 49.6968 18.8455 25.3345
453 1 4.9601 18.9263 33.4007
454 1 6.31771 36.7249 54.0936
455 1 8.13407 25.6744 26.3876
456 1 46.4075 3.61862 51.8926
457 1 53.5046 39.2643 18.0933
458 1 27.3522 20.0169 36.7616
459 1 2.81377 34.7401 9.7347
460 1 26.2479 0.414023 39.265
461 1 8.07999 16.4342 17.4279
462 1 48.4184 27.6756 9.31123
463 1 14.6315 4.21466 5.77677
464 1 31.6608 52.368 22.835
465 1 7.40158 46.8556 17.508
466 1 5.06021 48.039 5.51826
467 1 47.124 10.8122 38.1926
468 1 43.9861 52.0511 6.0708
469 1 12.962 39.6315 24.2652
470 1 27.2433 0.284383 14.0638
471 1 26.6506 10.2138 3.40266
472 1 13.7084 35.7471 28.9476
473 1 48.5091 38.8432 46.7098
474 1 37.7266 12.509 14.8396
475 1 22.9964 25.2195 20.6015
476 1 11.8574 21.8196 40.1908
477 1 49.0044 3.12367 37.3304
478 1 41.6501 7.29362 13.583
479 1 55.619 25.6744 35.3439
480 1 41.1579 8.42831 3.9567
481 1 25.4229 1.48438 51.0868
482 1 30.1057 37.3473 22.7514
483 1 46.4744 19.5002 34.1879
484 1 5.86947 37.5877 7.35098
485 1 18.265 45.5062 25.0113
486 1 47.0727 7.69588 42.8836
487 1 21.0005 12.6647 22.0142
488 1 7.26768 45.1716 24.9634
489 1 2.93708 44.6444 13.6615
490 1 24.4856 49.8554 26.3961
491 1 13.0734 29.5941 46.9644
492 1 27.0543 25.2972 41.9658
493 1 44.3094 30.5172 33.9991
494 1 4.27042 54.5496 13.515
495 1 11.6352 33.9895 13.3504
496 1 39.4035 17.8923 37.3469
497 1 7.22408 16.8237 32.3297
498 1 19.5741 20.5571 8.64008
499 1 33.8884 29.7792 20.017
500 1 51.6237 3.17243 36.0105
501 1 16.0286 51.0263 43.4386
502 1 50.8159 43.2169 7.02813
503 1 42.4121 20.9614 42.9928
504 1 40.4328 47.3287 32.1877
505 1 40.135 26.1952 4.88319
506 1 22.5198 27.2518 41.8711
507 1 53.8035 54.4527 32.1794
508 1 10.5226 43.1576 17.3439
509 1 53.7434 29.3137 8.32638
510 1 30.3377 0.541505 3.56267
511 1 49.6902 5.77741 5.83072
512 1 14.1631 50.4861 12.8999
513 1 28.1974 30.7935 28.4189
514 1 28.5487 28.0267 20.7866
515 1 29.1207 12.5613 26.9745
516 1 5.28931 40.4481 37.0965
517 1 15.8458 3.29977 0.343949
518 1 24.1054 12.1356 13.5845
519 1 8.09776 11.7797 44.964
520 1 36.0207 17.5099 4.44091
521 1 45.9027 24.7782 32.5362
522 1 7.37665 17.1568 0.569786
523 1 38.9081 1.74882 25.6235
524 1 40.0515 51.7234 32.4083
525 1 25.9632 41.6133 22.391
526 1 26.7368 15.5521 30.3968
527 1 29.3328 54.7966 23.4254
528 1 2.49766 6.96041 6.45302
529 1 39.9008 8.29224 33.5888
530 1 35.8065 16.365 15.8874
531 1 42.4345 11.5541 47.7747
532 1 35.3584 9.74215 11.5352
533 1 43.0194 6.38585 20.8045
534 1 19.8765 35.8017 20.3089
535 1 42.2655 -0.224289 35.5551
536 1 41.3432 19.3656 19.4798
537 1 18.913 22.1795 20.9567
538 1 5.74692 26.7767 1.7924
539 1 28.492 37.9686 33.4171
540 1 48.0033 11.7064 16.346
541 1 42.7915 6.0607 7.65734
542 1 33.1507 48.078 36.1486
543 1 38.0537 44.9483 35.0665
544 1 31.7281 34.8872 15.1956
545 1 51.9247 24.8103 5.65487
546 1 23.896 50.64 40.923
547 2 15.4047 40.8177 26.7247
548 2 12.7923 46.8244 1.28957
549 2 35.155 48.2538 25.7519
550 2 55.818 51.2557 12.9339
551 2 52.4359 7.31208 17.2055
552 2 10.0203 6.58886 35.3255
553 2 37.3547 10.1012 16.9679
554 2 23.3352 5.70679 53.1025
555 2 14.7434 13.073 21.4623
556 2 12.5592 41.5564 43.2578
557 2 13.9467 5.7938 34.0625
558 2 17.391 33.0943 3.16551
559 2 40.2751 16.9928 20.8814
560 2 5.1871 15.7266 29.3388
561 2 38.7598 12.759 50.8522
562 2 4.05663 19.534 28.067
563 2 30.2895 47.0099 35.0361
564 2 16.8013 5.25819 40.1128
565 2 20.3253 22.4409 34.4732
566 2 31.0271 13.5672 38.8714
567 2 44.6766 38.7834 0.751762
568 2 43.8201 17.8699 20.1986
569 1 14.7258 1.17803 19.4693
570 1 52.4115 36.7535 49.13
571 1 19.4307 12.7194 1.23802
572 1 46.6422 15.0286 53.4647
573 1 14.9358 13.0131 24.7562
574 1 30.1126 46.325 17.1502
575 1 30.4021 49.55 42.1159
576 1 13.751 0.0874692 11.2789
577 1 1.87544 6.52977 15.313
578 1 55.6066 39.7898 44.2406
579 1 34.2725 45.0887 48.2962
580 1 21.0263 31.8507 6.24471
581 1 37.7509 10.4434 29.2406
582 1 12.2346 41.4734 38.0412
583 1 45.6584 25.3671 18.0291
584 1 29.2031 40.9552 29.29
585 1 33.4142 8.18062 23.0384
586 1 55.447 0.277472 31.5266
587 1 10.9482 1.56271 7.36247
588 1 9.14822 44.0911 46.8734
589 1 34.7572 47.5008 49.5968
590 1 1.71465 9.23773 7.93425
591 1 13.4875 9.41583 30.7803
592 1 53.0559 33.2306 6.52801
593 1 18.7457 25.1512 33.6197
594 1 3.00196 42.1799 41.9457
595 1 32.211 13.4669 44.8394
596 1 3.49639 4.86623 39.1651
597 1 28.8983 52.0207 7.71914
598 1 48.8942 47.3493 24.9721
599 1 5.18345 3.92848 13.9215
600 1 11.4978 32.3562 3.93077
601 1 20.5079 41.592 52.2933
602 1 2.70248 42.5699 15.3803
603 1 26.8201 35.4362 52.3248
604 1 5.70984 21.6536 30.0364
605 1 27.4158 43.8429 31.3081
606 1 28.4324 48.7972 29.4092
607 1 39.1068 14.179 33.7076
608 1 44.4749 16.1863 48.4145
609 1 34.0354 30.5187 12.7892
610 1 43.2659 5.21582 45.0736
611 1 20.8318 45.0469 31.1473
612 1 17.8223 46.8143 45.6985
613 1 3.14597 51.4806 0.863814
614 1 53.7459 33.4233 10.7146
615 1 5.70551 42.7258 41.3659
616 1 35.9719 5.17777 43.057
617 1 16.1367 11.7455 52.0687
618 1 1.01982 52.9347 0.123429
619 1 34.9141 10.0316 25.5706
620 1 30.2282 29.0371 29.5245
621 1 52.9386 8.66501 27.4628
622 1 3.56256 29.5891 43.9578
623 1 14.8872 44.3612 12.0328
624 1 27.703 9.48342 55.1276
625 1 10.2848 14.7654 25.0616
626 1 36.0216 25.6313 21.9382
627 1 34.885 40.3839 2.0312
628 1 31.6628 10.2148 17.2984
629 1 40.7994 41.2059 12.064
630 1 36.6203 1.34095 17.3877
631 1 43.8775 28.9112 13.997
632 1 4.64019 32.3212 26.576
633 1 16.1224 6.18712 49.7174
634 1 48.0047 46.3428 17.9269
635 1 29.3168 44.7682 23.2105
636 1 5.987 6.80598 17.3485
637 1 1.49222 17.3 39.141
638 1 32.4823 47.6071 55.6601
639 1 28.643 5.29763 4.43176
640 1 21.9016 53.4721 6.4225
641 1 -0.117591 47.7227 35.8469
642 1 53.6775 18.5491 10.6632
643 1 41.3116 26.8847 29.9779
644 1 20.1898 42.4957 46.0002
645 1 0.455507 19.2915 40.9475
646 1 12.9929 31.4849 12.3259
647 1 3.19818 29.2567 8.72237
648 1 20.7824 14.668 2.39102
649 1 20.6653 20.5164 19.4682
650 1 15.1691 3.97052 3.03375
651 1 30.4447 33.4392 33.1667
652 1 49.0819 14.7468 41.0166
653 1 52.0033 30.7635 51.335
654 1 29.4543 34.3225 56.0734
655 1 40.6983 4.505 30.2015
656 1 36.5384 51.9836 40.2904
657 1 56.117 34.9724 20.3864
658 1 24.8834 8.52118 54.8696
659 1 37.8831 35.4363 54.2065
660 1 1.74771 44.1437 6.30784
661 1 46.1848 36.3793 12.9652
662 1 15.6048 41.0988 44.5312
663 1 18.9692 37.6547 35.4125
664 1 53.8906 16.7246 23.8694
665 1 34.1152 43.1334 22.3074
666 1 15.2471 9.00794 26.597
667 1 35.6458 17.0348 28.0599
668 1 40.3356 15.8434 50.6603
669 1 51.1864 22.8727 15.5828
670 1 54.6245 1.69795 12.6213
671 1 32.2909 4.43041 25.455
672 1 1.63856 18.7194 9.05953
673 1 11.5718 3.90696 35.7783
674 1 46.2262 51.5251 7.73137
675 1 23.4743 7.74581 32.8381
676 1 55.7938 15.1753 23.1974
677 1 55.9273 36.3173 54.4461
678 1 15.6873 55.792 17.9556
679 1 52.7485 12.3263 22.3206
680 1 28.5842 32.4296 45.9611
681 1 -0.108165 26.4081 48.9997
682 1 7.5371 3.14617 45.2033
683 1 43.1115 12.8856 20.8386
684 1 38.223 32.2875 37.211
685 1 22.7564 55.0397 15.0407
686 1 44.8544 14.9908 11.0608
687 1 47.107 55.2762 28.5147
688 1 20.4523 7.40639 33.4435
689 2 21.7934 49.5658 24.2227
690 2 29.9579 50.0871 9.85185
691 2 35.0232 27.0995 38.9107
692 2 8.12588 42.425 49.3608
693 2 44.8696 48.3223 22.4542
694 2 2.94781 51.6783 54.1093
695 2 17.5245 15.0905 45.1038
696 2 16.4747 40.8514 8.22054
697 2 1.43705 17.8821 36.1184
698 2 17.1604 18.7569 7.00393
699 2 44.6848 11.3211 40.1192
700 2 38.3458 5.23427 3.65958
701 2 53.6673 27.6364 5.27128
702 2 36.2698 28.8092 27.1167
703 2 49.1124 45.7497 44.5158
704 2 54.1951 12.2618 17.5183
705 2 2.63497 36.9806 7.43287
706 2 2.08517 40.5105 44.3614
707 2 47.9586 16.9552 18.7817
708 2 43.3523 54.7612 0.68188
709 2 44.2338 30.3851 42.2677
710 2 52.8656 48.295 30.8024
711 1 36.9366 2.1098 46.3277
712 1 18.3252 30.2575 52.7809
713 1 1.32971 49.5616 44.0109
714 1 37.5293 30.3775 24.8462
715 1 0.999113 11.0441 44.5236
716 1 2.77604 15.7959 51.1887
717 1 47.5013 0.984029 3.08357
718 1 4.84485 41.772 56.0558
719 1 42.1438 16.8508 52.5445
720 1 19.0386 16.296 13.4572
721 1 30.9598 6.69376 5.09163
722 1 32.1359 37.7929 55.394
723 1 19.2587 15.0901 16.033
724 1 48.4251 37.3479 53.6354
725 1 12.8303 46.0329 35.325
726 1 31.6826 39.245 42.8315
727 1 36.8276 40.8871 9.96025
728 1 27.9568 0.69709 55.5264
729 1 42.5357 14.341 44.3382
730 1 12.0179 7.79089 32.3819
731 1 53.8366 10.7253 20.434
732 1 12.8769 0.977377 14.8411
733 1 36.0875 52.93 55.3501
734 1 37.3493 44.1073 17.845
735 1 39.6712 9.91162 1.50129
736 1 51.762 19.1906 50.4782
737 1 31.2497 42.0767 27.5918
738 1 0.29333 11.8867 6.83224
739 1 24.6755 20.7916 8.35651
740 1 40.4223 35.287 49.8342
741 1 53.8072 9.32984 32.7735
742 1 18.9351 40.2501 6.13026
743 1 44.8408 29.1847 26.9666
744 1 33.2438 55.447 40.4158
745 1 45.0893 12.0586 12.7273
746 1 20.3983 18.0684 20.9923
747 1 0.603611 3.21403 36.4823
748 1 45.2918 52.4146 1.64711
749 1 17.1976 13.2202 42.658
750 1 23.2933 21.226 5.65746
751 1 19.1077 32.8014 34.14
752 1 14.612 48.2482 38.8769
753 1 19.8654 9.74814 43.5568
754 1 36.3936 54.1931 27.112
755 1 29.1623 18.1763 18.1176
756 1 31.7345 49.2619 53.8646
757 1 11.6548 21.6803 35.2274
758 1 54.7337 27.3563 20.0979
759 1 44.7897 6.97319 18.9272
760 1 18.9503 32.384 54.6077
761 1 51.0448 15.21 47.6685
762 1 30.5514 52.731 12.1646
763 1 24.2405 17.913 8.83231
764 1 18.5021 12.9631 21.3501
765 1 42.4733 19.7333 40.2419
766 1 20.8228 33.2752 3.88346
767 1 4.42378 49.0467 24.2617
768 1 26.0345 21.9957 35.1471
769 1 18.2224 48.7468 54.6074
770 1 18.962 3.47213 4.70271
771 1 11.5797 38.6146 44.1254
772 1 29.7552 12.9994 52.6395
773 1 10.0498 16.2708 45.8862
774 1 33.4412 2.17274 26.976
775 1 46.6877 42.0364 29.9998
776 1 25.1508 56.0822 22.2582
777 1 46.2956 47.5191 25.6525
778 1 21.9778 33.5772 47.6826
779 1 40.885 26.9511 44.3593
780 1 31.1796 47.2161 41.0522
781 1 20.3468 37.9907 25.041
782 1 4.22601 18.9955 15.5109
783 1 50.35 0.7711 36.8708
784 1 44.1516 27.8174 24.1667
785 1 27.41 25.8803 48.7156
786 1 15.5255 7.67634 42.0467
787 1 5.60796 31.0915 53.8589
788 1 2.34249 10.3629 36.9147
789 1 15.4049 46.0618 28.3789
790 1 51.5349 29.848 43.3777
791 1 32.3138 19.259 25.1261
792 1 26.062 55.3551 19.7424
793 1 2.76052 50.443 22.3279
794 1 30.0475 25.8742 27.8235
795 1 55.7196 21.6077 37.0727
796 1 44.5999 12.6876 4.15435
797 1 18.9397 11.2065 13.8697
798 1 42.8483 29.102 54.5946
799 1 15.9599 35.6173 11.9551
800 1 16.7978 30.532 54.747
801 1 48.9345 48.6308 10.9492
802 1 21.089 15.0434 36.9849
803 1 40.1956 45.0775 39.9552
804 1 52.1703 36.7305 9.64648
805 1 38.8799 44.8813 32.2274
806 1 13.5867 15.2948 37.3858
807 1 55.8483 15.9481 34.6727
808 1 48.8098 7.86803 38.7414
809 1 6.56507 14.0609 1.21412
810 1 8.1145 40.6612 31.9852
811 1 33.4765 22.1443 48.123
812 1 45.1205 12.2627 46.7385
813 1 0.823477 11.53 2.57201
814 1 45.658 4.66934 20.0868
815 1 4.54177 8.63328 41.3821
816 1 49.8841 5.08766 35.4477
817 1 44.5262 43.6524 28.99
818 1 54.9949 48.8868 55.7261
819 1 18.2221 37.2468 43.2742
820 1 53.2226 28.1611 38.2712
821 1 32.6056 29.8369 39.1122
822 1 0.770455 3.88489 29.0582
823 1 53.7659 46.3894 38.1007
824 1 54.714 -0.0851338 28.3429
825 1 17.3256 54.3237 29.8512
826 1 16.7384 50.4519 3.91502
827 1 20.098 33.727 22.658
828 1 29.2248 20.5834 20.0206
829 1 49.2626 55.8835 30.0897
830 1 51.2657 43.6086 4.27412
831 2 7.06709 40.2001 39.8382
832 2 23.9981 14.3562 3.35238
833 2 20.2507 43.4567 23.5454
834 2 43.3412 26.8307 46.6149
835 2 25.222 -0.177668 27.7211
836 2 23.7394 14.0394 32.2387
837 2 15.8935 27.1962 17.6051
838 2 23.039 42.5882 47.9087
839 2 28.776 35.4905 31.4131
840 2 19.5147 16.0977 53.5204
841 2 15.9084 27.7365 26.2831
842 2 46.5009 9.33813 45.8007
843 2 42.1885 1.42172 30.2407
844 2 31.2741 15.4082 18.4924
845 2 8.60316 51.9712 16.1147
846 2 41.2321 41.1372 48.8247
847 2 48.6262 55.626 10.654
848 2 47.9853 44.3647 25.6657
849 2 23.4163 17.4185 34.6637
850 2 22.5325 32.1671 44.4512
851 2 48.1607 0.251049 54.0054
852 2 46.6709 38.7989 20.3962
853 1 38.3832 46.8183 14.1228
854 1 30.3364 42.2821 46.9441
855 1 47.6772 26.805 14.8915
856 1 8.9311 21.3098 33.6681
857 1 55.2896 16.8236 40.2843
858 1 14.2568 50.4221 48.851
859 1 34.571 24.6676 41.0722
860 1 9.57007 37.5824 4.0108
861 1 52.2614 36.2705 29.3915
862 1 54.5365 30.8635 5.6102
863 1 33.2773 11.7113 10.081
864 1 47.8186 26.6283 49.5577
865 1 14.6785 26.4362 14.4895
866 1 12.1271 32.0582 54.515
867 1 50.4986 21.9041 37.4027
868 1 49.203 1.54124 34.5921
869 1 -0.19492 26.084 53.0872
870 1 33.8089 24.5077 20.8884
871 1 10.1646 27.8423 15.011
872 1 53.4769 38.1043 40.339
873 1 12.6336 39.2754 31.9777
874 1 54.1479 46.0743 1.49877
875 1 41.6412 29.1626 47.8435
876 1 0.75752 16.6783 31.0255
877 1 0.0615349 27.4481 22.2886
878 1 4.42497 35.7871 20.2617
879 1 10.5592 14.4897 30.983
880 1 51.734 11.5098 1.64199
881 1 31.3301 13.3259 47.9933
882 1 45.0573 22.6068 52.9689
883 1 28.9846 22.069 8.04624
884 1 51.7514 54.3392 36.4165
885 1 30.0982 23.0464 1.34395
886 1 39.1322 47.7135 2.06557
887 1 7.10597 15.5301 19.7746
888 1 2.57412 29.8712 46.856
889 1 46.4138 7.74053 34.163
890 1 54.6506 2.98894 6.4592
891 1 52.8974 20.4633 37.6244
892 1 41.2231 2.22055 18.9335
893 1 14.2961 51.5082 34.0354
894 1 9.29378 41.1045 9.79493
895 1 5.06227 52.1793 38.4454
896 1 2.73207 40.9147 17.7797
897 1 27.9463 53.271 10.3145
898 1 41.4983 35.4764 42.6672
899 1 16.6979 19.0014 32.2336
900 1 9.01231 27.9588 1.69634
901 1 33.9342 37.5921 42.1657
902 1 25.7804 46.1246 26.233
903 1 3.78964 26.3994 9.22333
904 1 36.0888 35.7017 11.7588
905 1 28.4741 30.0608 22.4026
906 1 19.086 34.7328 5.1991
907 1 38.9255 46.207 4.60038
908 1 1.30348 6.23812 35.085
909 1 43.3416 2.67261 38.7437
910 1 52.7044 38.3113 7.44936
911 1 12.9191 8.65802 24.9741
912 1 17.3002 18.4593 36.7639
913 1 4.01702 45.4156 5.87816
914 1 53.182 51.7256 31.0968
915 1 16.3273 25.1781 41.8354
916 1 26.6471 27.7445 39.423
917 1 35.2042 55.7102 4.02998
918 1 50.5138 34.7224 14.3533
919 1 51.0155 41.7456 37.3963
920 1 12.1449 38.5284 38.4596
921 1 31.5209 55.2044 11.2603
922 1 17.5333 41.7375 32.044
923 1 50.1611 5.40935 38.3603
924 1 0.59839 11.6522 16.5474
925 1 44.9719 54.5736 6.73243
926 1 27.7995 49.7763 51.6767
927 1 52.853 49.3375 43.5196
928 1 42.5363 12.0416 12.297
929 1 50.2211 33.2442 7.30426
930 1 38.9616 51.2398 11.6723
931 1 17.0186 25.104 31.6402
932 1 10.2825 50.3296 53.4439
933 1 30.8697 7.26191 44.3833
934 1 24.8644 51.3214 54.6056
935 1 5.38132 39.1936 55.2235
936 1 7.63391 32.7779 11.7492
937 1 40.0249 2.50438 42.6403
938 1 36.5493 6.0335 40.3299
939 1 5.21791 29.2681 15.9921
940 1 9.19958 38.6349 51.2459
941 1 36.3814 6.39219 35.715
942 1 15.0659 46.5033 45.6329
943 1 33.6588 36.7508 34.7488
944 1 9.11789 41.5842 15.7006
945 1 45.1003 20.5206 44.6173
946 1 9.53371 42.4805 44.5882
947 1 41.2049 31.1502 40.9379
948 1 15.4413 55.8379 43.9087
949 1 49.8303 50.2467 15.5856
950 1 39.3515 27.6685 50.3963
951 1 14.7254 43.3092 54.0765
952 1 44.2986 0.662296 48.9096
953 1 25.8936 22.5038 51.3558
954 1 10.9752 45.6562 40.668
955 1 12.7243 21.8729 15.4339
956 1 12.0412 20.2819 8.25781
957 1 47.111 43.9135 51.1814
958 1 9.3761 27.9893 29.4174
959 1 31.3197 50.0476 35.8106
960 1 53.5811 13.9886 12.5018
961 1 36.9996 41.1986 42.5197
962 1 51.1458 9.86285 21.2557
963 1 7.47575 30.0848 47.2506
964 1 25.5654 14.75 44.3975
965 1 15.2489 30.7614 35.5026
966 1 24.9798 42.8041 31.5295
967 1 16.4438 8.11291 9.83027
968 1 42.6859 9.85649 53.8213
969 1 32.2207 37.1388 50.4049
970 1 30.9267 17.7142 15.8906
971 1 50.0145 4.92197 43.9053
972 1 52.3404 8.34629 51.8592
973 2 44.9552 4.30756 25.6656
974 2 46.1013 39.3652 35.1634
975 2 53.4577 38.9457 27.693
976 2 17.376 30.4842 49.7215
977 2 52.8855 36.173 16.2524
978 2 52.5441 36.2881 19.6932
979 2 32.91 42.2361 40.8107
980 2 55.0003 6.23444 44.9821
981 2 36.4193 11.6819 9.60838
982 2 54.5054 29.741 49.0402
983 2 12.1999 31.2981 1.04421
984 2 46.444 22.5966 34.4858
985 2 51.1862 2.06437 11.7747
986 2 7.47916 18.3145 37.9847
987 2 19.5932 6.40886 5.389
988 2 2.21395 27.0624 51.6256
989 2 39.9367 28.1277 32.502
990 2 54.173 10.1247 14.9545
991 2 22.7815 21.3231 17.4156
992 2 15.9004 15.7449 54.9503
993 2 1.57374 15.5892 55.9102
994 2 53.2997 22.8752 35.3097
995 1 54.6619 3.27436 43.8518
996 1 51.4555 25.0859 47.2499
997 1 24.6053 1.7879 47.936
998 1 2.07367 49.3035 35.0239
999 1 25.4234 51.2959 51.9299
1000 1 19.5723 8.75596 47.7129
1001 1 31.2286 30.1471 36.7283
1002 1 52.892 26.4453 8.44821
1003 1 13.8558 28.7782 30.6927
1004 1 9.14455 40.8495 6.68798