ITEM: TIMESTEP
0
ITEM: NUMBER OF ATOMS
9088
ITEM: BOX BOUNDS pp pp pp
-3.6090134402455343e-01 5.6245393969931065e+01
-3.6090134402455343e-01 5.6245393969931065e+01
-3.6090134402455343e-01 5.6245393969931065e+01
ITEM: ATOMS id type x y z
1 1 24.4669 45.3444 52.4059
2 1 44.8234 4.41214 36.5905
3 1 25.5207 8.88617 20.5082
4 1 39.29 52.8729 47.8309
5 1 24.4433 10.4204 32.5593
6 1 49.2142 15.5608 45.7063
7 1 8.42977 9.74269 19.2488
8 1 52.9189 5.03846 52.1208
9 1 42.6767 5.87226 7.1875
10 1 37.2683 12.9508 53.2514
11 1 48.3637 35.8866 32.6794
12 1 35.6372 19.7074 36.6324
13 1 54.512 49.4496 33.8269
14 1 5.05589 1.48091 53.3836
15 1 5.91463 36.1722 22.3244
16 1 18.8208 46.612 37.8946
17 1 50.6047 9.88903 27.5767
18 1 26.2541 52.7194 28.0374
19 1 31.0256 39.6824 28.2479
20 1 47.374 2.73061 32.6841
21 1 22.6727 54.4306 48.8557
22 1 53.8918 32.8004 47.6446
23 1 14.8154 37.9944 47.6232
24 1 12.4826 20.3622 52.7692
25 1 18.8993 48.4352 47.4132
26 1 13.8311 37.6229 50.1706
27 1 34.3553 30.9941 0.289636
28 1 36.319 32.8859 54.6022
29 1 10.1909 42.8412 26.7933
30 1 31.8564 55.1161 54.9116
31 1 32.3552 13.6356 3.32619
32 1 28.3741 43.7778 43.4618
33 1 21.2299 49.5574 46.6065
34 1 14.3703 24.3009 1.76443
35 1 7.86221 9.19342 44.9691
36 1 46.3846 44.2655 44.3545
37 1 21.6383 3.52794 23.9523
38 1 53.5046 2.90031 25.3726
39 1 13.4484 26.1707 0.0538986
40 1 8.9215 11.2909 48.1775
41 1 45.1164 41.7444 7.36811
42 1 9.1407 41.5477 15.3942
43 1 22.2158 22.5105 12.3925
44 1 50.3825 52.3058 23.3216
45 1 12.9404 44.3042 55.9343
46 1 -0.242725 17.8053 10.7432
47 1 43.1833 6.11458 20.0685
48 1 26.5287 47.441 39.4338
49 1 42.2772 12.7431 42.0269
50 1 8.12569 36.8585 31.6402
51 1 50.2592 32.2718 30.5196
52 1 24.473 12.5617 42.1878
53 1 52.9927 20.683 1.15723
54 1 -0.167551 15.7359 37.4458
55 1 39.7912 45.1555 29.2905
56 1 11.0177 28.8391 17.4479
57 1 6.7929 33.2362 34.3731
58 1 35.6241 9.99687 22.664
59 1 3.6247 35.1471 23.1076
60 1 37.4748 38.1082 43.217
61 1 17.1867 30.0217 55.1557
62 1 33.7403 50.4062 54.8191
63 1 52.0734 52.8448 27.8794
64 1 22.7608 7.22269 16.304
65 1 0.585457 15.174 19.141
66 1 3.21011 35.711 45.4853
67 1 15.5977 35.2884 46.603
68 1 5.91589 35.3158 1.09102
69 1 18.2002 37.3218 37.5705
70 1 3.7233 8.21484 10.6812
71 1 5.37323 45.1017 28.3201
72 1 55.5589 29.7398 1.34477
73 1 32.0899 43.1573 4.04411
74 1 37.1527 41.475 31.5203
75 1 37.8261 19.7589 4.83795
76 1 51.4158 21.5424 5.60954
77 1 46.4756 47.8787 37.2065
78 1 38.0302 46.7533 14.4571
79 1 31.7816 23.2126 42.9303
80 1 34.5674 48.5979 0.340649
81 1 9.20161 23.767 2.53523
82 1 0.894736 -0.294878 23.413
83 1 43.3607 37.9796 42.1627
84 1 39.5898 7.34266 0.834705
85 1 37.2782 11.3248 39.9497
86 1 14.3914 37.272 25.0896
87 1 16.0236 35.652 -0.242879
88 1 2.97032 0.829011 9.58595
89 1 5.06945 3.10591 39.6049
90 1 23.3307 47.0848 35.9105
91 1 32.5573 46.0704 36.5507
92 1 10.2281 12.067 19.363
93 1 40.4495 7.74259 19.8132
94 1 31.2173 54.7589 40.026
95 1 40.781 24.5971 18.7288
96 1 11.1391 34.0318 52.6811
97 1 5.02277 9.74315 36.7709
98 1 21.6534 23.4381 34.121
99 1 42.6689 36.5143 5.36396
100 1 3.6986 48.4921 6.57727
101 1 12.5379 46.3973 44.8098
102 1 9.16444 7.48967 8.53438
103 1 41.7472 43.4266 55.7974
104 1 9.04864 50.225 47.4619
105 1 31.7145 13.944 10.6047
106 1 14.0205 46.6006 42.4232
107 1 33.382 12.0179 55.8169
108 1 35.5956 23.653 49.98
109 1 11.2057 46.5414 20.7322
110 1 31.6833 9.11304 10.6695
111 1 38.0479 9.18119 34.8368
112 1 9.97071 46.6366 3.45347
113 1 30.4917 34.7036 10.0054
114 1 10.7472 21.8953 24.4921
115 1 46.9611 33.8863 33.9442
116 1 32.9219 3.46104 38.1324
117 1 9.18446 1.19663 50.7888
118 1 44.5207 0.732997 1.34994
119 1 31.0742 19.6166 22.3285
120 1 23.9581 48.6345 38.3422
121 2 11.6862 39.1189 35.2568
122 2 51.5691 18.622 12.8891
123 2 55.3077 47.022 20.5992
124 2 52.7777 30.0098 19.9188
125 2 53.962 35.799 38.8164
126 2 25.5018 7.76767 17.6644
127 2 12.0471 51.8501 15.5401
128 2 7.71396 30.5065 35.4334
129 2 55.3761 18.1623 7.49981
130 2 1.53735 21.211 45.9873
131 2 54.0362 15.2448 46.5376
132 2 39.2717 46.5129 17.3749
133 2 34.8658 43.0887 15.8594
134 2 17.0718 1.51543 6.95934
135 2 42.8415 34.2517 3.52294
136 2 9.87995 1.17766 32.2208
137 2 40.5994 24.4506 46.3504
138 2 5.13528 4.94336 49.2477
139 2 31.1835 15.2414 13.5944
140 2 45.5487 27.546 39.0068
141 2 7.788 38.8284 22.6998
142 2 29.8494 23.2437 40.1424
143 1 23.2134 29.3798 28.2733
144 1 31.6551 26.1086 17.2513
145 1 16.8703 6.73421 13.184
146 1 51.2824 16.3487 4.87873
147 1 1.89952 44.4409 32.4528
148 1 18.066 12.8501 30.3675
149 1 35.9454 18.2011 53.5945
150 1 24.9485 26.0084 9.37034
151 1 17.2411 43.601 55.0193
152 1 5.69549 27.5508 43.8015
153 1 50.1983 48.567 29.5668
154 1 41.8517 40.4699 29.3211
155 1 28.6306 12.6832 11.4373
156 1 7.68898 40.0918 13.7583
157 1 41.0986 26.2021 28.8882
158 1 25.3123 5.90219 55.6212
159 1 36.2995 49.0429 22.5792
160 1 41.4473 16.6253 49.9935
161 1 49.9625 16.0773 20.875
162 1 13.1752 12.6905 44.0165
163 1 14.0068 36.3627 34.3382
164 1 56.1342 38.3874 11.4391
165 1 51.9972 37.3139 4.12072
166 1 45.3515 42.0396 14.309
167 1 43.3025 31.9726 50.8929
168 1 31.0273 5.0515 0.230794
169 1 34.0742 44.5022 44.923
170 1 21.4597 27.4946 37.0274
171 1 16.3327 34.4944 29.7313
172 1 13.8097 49.0651 32.5621
173 1 5.28259 35.1927 8.4352
174 1 23.6494 53.5623 55.4983
175 1 20.8816 28.5891 14.8237
176 1 39.7595 37.2492 6.64559
177 1 10.0948 4.63874 24.8207
178 1 15.9071 8.78611 39.68
179 1 13.0296 6.33872 36.6238
180 1 47.7331 19.6141 5.80684
181 1 33.1336 54.6439 38.1102
182 1 51.0918 24.0983 49.8558
183 1 53.1209 0.892359 55.4933
184 1 29.157 48.1049 31.9277
185 1 33.5245 9.75497 34.3405
186 1 40.4068 17.8145 17.7917
187 1 1.84107 6.93267 53.2921
188 1 28.6732 39.4692 2.42686
189 1 25.6224 52.5802 36.5583
190 1 30.174 45.4074 11.0374
191 1 24.7822 46.7054 11.712
192 1 45.2901 8.02799 5.5493
193 1 37.2375 11.141 17.052
194 1 36.5213 3.8895 31.0738
195 1 50.3643 15.6182 41.6587
196 1 36.1394 34.062 24.1512
197 1 7.08987 9.57472 49.4563
198 1 10.334 48.0549 55.0083
199 1 10.6552 40.0759 -0.109285
200 1 39.9126 20.8568 41.2183
201 1 40.8263 22.2494 17.7496
202 1 43.6686 3.44334 6.8742
203 1 13.8148 23.3817 38.1082
204 1 44.5839 20.8059 44.2922
205 1 12.0194 13.8946 46.2076
206 1 22.2408 55.1285 43.1507
207 1 4.37625 47.4096 39.3708
208 1 31.8065 5.14357 10.6823
209 1 36.8923 1.78787 34.8857
210 1 27.3533 22.0554 42.0188
211 1 10.1642 3.13369 22.3974
212 1 10.6445 52.4644 56.2303
213 1 22.3459 12.5592 51.1392
214 1 0.587349 37.9925 1.66418
215 1 51.099 31.4678 21.8394
216 1 54.7904 24.2267 48.9489
217 1 23.0098 18.0494 27.9965
218 1 1.34827 9.85554 54.2207
219 1 40.5702 3.30172 15.8139
220 1 19.4002 9.32857 34.625
221 1 38.1579 1.33705 25.761
222 1 32.8107 1.72726 23.9717
223 1 21.2823 31.17 53.1048
224 1 19.9095 29.3815 5.96068
225 1 36.4379 45.4231 40.8681
226 1 12.8462 19.3463 55.3474
227 1 23.9773 45.8753 38.3811
228 1 55.8905 23.2199 53.365
229 1 51.7954 3.19857 39.2329
230 1 40.0568 20.7265 38.2304
231 1 1.60423 9.86553 18.2609
232 1 34.5415 10.2796 17.5789
233 1 19.2472 48.9895 29.0673
234 1 9.6026 37.9893 4.05302
235 1 53.0671 8.30438 51.8924
236 1 11.5923 -0.27369 56.1854
237 1 1.95844 33.0967 26.6454
238 1 29.8877 55.3349 47.1028
239 1 34.0022 28.8184 5.99152
240 1 28.1655 38.8454 55.8402
241 1 20.324 49.5478 10.3992
242 1 51.0175 7.30239 36.1644
243 1 9.07285 30.3512 19.1769
244 1 24.4148 4.98788 28.3574
245 1 1.53791 29.5867 21.9228
246 1 6.06785 5.31466 3.29031
247 1 37.9176 15.8825 23.6239
248 1 44.4657 0.593134 45.722
249 1 10.3676 44.9549 48.6647
250 1 23.1429 24.8559 17.5557
251 1 29.1412 56.1976 9.39456
252 1 33.0394 27.3241 54.6158
253 1 3.09341 27.0019 47.9742
254 1 12.0966 32.201 46.7053
255 1 22.8567 11.7812 25.1738
256 1 29.3934 50.3272 24.6323
257 1 1.41329 12.0953 34.9142
258 1 27.0864 18.5763 19.9373
259 1 46.1609 43.3443 2.39419
260 1 21.0054 25.5653 3.1772
261 1 32.229 10.8965 39.1947
262 1 44.8987 1.2555 13.4824
263 2 44.1103 24.861 29.0763
264 2 21.0776 49.036 55.019
265 2 46.6038 9.87736 52.4016
266 2 6.87346 24.7447 38.5399
267 2 14.5562 21.084 1.33301
268 2 4.42667 2.97072 24.4194
269 2 15.078 2.67878 16.9902
270 2 44.5631 43.2473 53.5925
271 2 53.9687 45.0204 26.4212
272 2 33.5073 40.6284 13.8955
273 2 33.6431 6.05704 34.5041
274 2 53.2783 27.047 30.5171
275 2 27.3339 7.15803 53.0227
276 2 56.1572 14.1486 4.28618
277 2 0.773711 43.5298 39.5082
278 2 10.146 35.7749 18.375
279 2 44.3732 51.3663 46.71
280 2 19.687 55.5499 22.048
281 2 41.3208 17.3764 14.3722
282 2 14.9617 29.0051 7.88515
283 2 47.1043 48.119 28.5786
284 2 17.2629 27.6082 34.4667
285 1 11.7424 27.3352 10.3443
286 1 47.6622 24.8375 22.4191
287 1 28.8853 52.104 30.3372
288 1 24.6494 36.7813 35.9107
289 1 26.7177 22.6597 0.784062
290 1 53.1371 12.5003 22.1313
291 1 35.1836 48.3298 33.9162
292 1 25.3628 1.0241 51.2741
293 1 53.8917 25.1364 0.550035
294 1 16.5084 15.6689 33.4021
295 1 47.4626 25.3299 29.5231
296 1 35.8272 27.6416 42.307
297 1 41.2362 2.08173 3.06184
298 1 32.9172 23.7404 12.7647
299 1 49.9847 20.2036 7.6054
300 1 15.63 39.9234 49.9306
301 1 40.1785 11.4042 24.6053
302 1 43.8705 43.8488 23.159
303 1 55.1287 48.0675 55.0678
304 1 5.74214 -0.107454 51.2066
305 1 49.1233 35.0813 54.7233
306 1 28.2051 0.56094 55.4224
307 1 4.5617 40.0508 31.9784
308 1 39.989 54.4557 49.99
309 1 50.3753 30.9312 28.3042
310 1 0.0911982 49.0451 4.15989
311 1 38.2663 35.4186 5.09782
312 1 10.2389 7.89514 25.9066
313 1 48.8355 5.46456 16.0546
314 1 30.0253 46.92 0.53147
315 1 7.97726 51.3438 6.23185
316 1 33.0572 18.2576 42.7588
317 1 35.9104 44.2198 24.7864
318 1 5.87723 23.3908 11.2405
319 1 38.0697 44.2141 12.1574
320 1 25.8498 31.9149 34.9411
321 1 29.5806 27.8027 18.5245
322 1 55.3045 20.7926 25.6159
323 1 27.9839 10.5219 27.7841
324 1 18.7067 8.59429 32.0668
325 1 21.4496 46.3621 43.1679
326 1 32.9633 45.9152 29.0633
327 1 49.0321 7.8488 14.4974
328 1 0.27055 8.33801 36.5224
329 1 6.81248 25.1435 45.4821
330 1 17.5381 21.5823 36.1793
331 1 26.0869 38.985 1.04194
332 1 13.597 21.991 12.1929
333 1 15.8035 50.2656 10.3313
334 1 33.8169 35.432 22.4839
335 1 37.5048 18.5746 50.9665
336 1 47.5766 21.2411 12.4457
337 1 0.765912 33.9916 7.29888
338 1 45.7979 11.9156 20.122
339 1 17.5011 29.491 39.8405
340 1 25.0378 23.3199 25.7168
341 1 31.5648 47.5644 40.9029
342 1 55.4701 21.6519 22.8213
343 1 19.5491 51.6733 14.9004
344 1 33.3242 16.1849 11.5604
345 1 48.9593 16.9976 3.84653
346 1 48.3437 50.0013 13.2059
347 1 19.9963 18.4807 10.8631
348 1 31.9986 39.6686 43.1454
349 1 4.12865 37.3759 9.85851
350 1 9.20957 8.41617 32.3745
351 1 45.1504 35.5291 5.0552
352 1 2.41599 39.4049 26.3746
353 1 48.5146 39.1538 46.3572
354 1 27.0504 24.4025 32.5393
355 1 48.2563 25.7247 38.6387
356 1 9.52765 40.3861 42.3481
357 1 1.39818 43.7391 54.5807
358 1 19.9978 16.5764 41.4203
359 1 32.326 45.2646 0.121414
360 1 43.823 19.2095 30.0744
361 1 25.05 50.4988 27.1215
362 1 52.0882 38.1267 37.6883
363 1 44.4433 18.0627 14.706
364 1 16.6366 20.3873 42.5832
365 1 36.5174 55.8855 25.0382
366 1 14.4411 49.4974 22.5039
367 1 6.23259 52.5828 37.2104
368 1 14.6019 34.4499 25.2799
369 1 39.3888 21.8626 20.2709
370 1 7.50599 51.3424 49.9251
371 1 18.666 3.27668 4.82865
372 1 10.1538 34.5589 10.6844
373 1 7.83541 45.7242 51.6417
374 1 45.6917 28.5027 45.0228
375 1 36.1189 40.8774 49.1698
376 1 37.2429 46.4126 30.5024
377 1 32.2968 30.0752 55.6849
378 1 26.8609 43.0007 30.3568
379 1 44.7934 40.4499 25.8649
380 1 20.0432 33.6796 18.624
381 1 17.6819 31.5089 29.4321
382 1 47.6258 23.3547 53.5763
383 1 23.6288 19.3776 31.6091
384 1 1.00381 12.9791 37.6406
385 1 29.9325 9.08947 19.7212
386 1 32.2599 40.6865 25.6009
387 1 44.1897 54.2979 26.8883
388 1 24.5762 7.36414 45.5393
389 1 26.3943 8.35264 12.3964
390 1 45.6299 48.9378 31.7918
391 1 0.963147 4.45746 52.5489
392 1 47.6649 51.1994 35.3815
393 1 3.06908 28.0012 0.619195
394 1 9.3903 28.5066 7.45325
395 1 54.3677 5.18334 47.9097
396 1 13.3804 46.2253 26.4145
397 1 32.3041 45.0907 16.8742
398 1 3.13959 29.5065 8.62109
399 1 6.81243 54.5482 41.5682
400 1 36.0899 43.5615 27.4989
401 1 16.7634 45.0836 4
402 1 32.0541 48.334 43.5977
403 1 27.9346 51.9648 37.9659
404 1 33.2794 40.6733 53.9818
405 2 19.8672 8.12798 13.9061
406 2 35.691 31.1844 7.54407
407 2 34.6147 13.1746 12.7237
408 2 24.7456 49.796 12.615
409 2 45.7187 -0.0622849 16.2303
410 2 37.7981 49.54 12.4888
411 2 5.82847 42.0146 16.4288
412 2 53.8282 9.03461 35.6636
413 2 31.2085 21.7857 45.6479
414 2 12.6842 35.4071 47.7777
415 2 55.4273 51.3204 8.48452
416 2 52.1478 43.3485 55.2368
417 2 44.0535 5.19141 10.0617
418 2 7.4268 36.2587 10.6496
419 2 15.3491 54.5641 22.558
420 2 23.8598 23.5293 22.6481
421 2 42.1565 49.7914 9.39589
422 2 32.3472 16.2586 7.85501
423 2 7.84898 0.50002 43.1428
424 2 52.3939 10.3404 4.62436
425 2 48.2913 52.3715 39.0268
426 2 37.4618 8.50786 38.1672
427 1 29.6787 43.3718 38.7647
428 1 9.41149 50.7611 13.848
429 1 30.6061 2.57378 0.542449
430 1 20.8228 2.1172 6.18094
431 1 19.6533 3.57086 39.9953
432 1 25.1098 21.9562 54.2325
433 1 20.8077 19.8215 19.1915
434 1 29.128 28.3532 29.9364
435 1 23.2836 52.2941 8.21751
436 1 33.4843 32.779 45.7476
437 1 20.8046 10.8092 23.7473
438 1 23.4343 34.1047 39.8937
439 1 1.95681 38.6471 54.2231
440 1 21.6694 9.97239 28.8111
441 1 22.2818 14.5073 10.3755
442 1 40.9292 34.8197 6.09454
443 1 29.183 3.17713 26.1728
444 1 8.17578 50.8337 35.3393
445 1 4.53461 14.1243 15.5774
446 1 42.6555 21.8828 38.2631
447 1 20.9588 52.2097 10.2184
448 1 35.1241 18.9453 56.1059
449 1 54.4838 6.96588 28.6761
450 1 1.42503 25.8536 43.2136
451 1 32.4352 51.1783 7.83032
452 1 44.8053 6.64129 12.7092
453 1 16.8124 36.6008 54.1092
454 1 12.6133 43.2038 50.0898
455 1 15.2017 12.7596 37.1282
456 1 33.9714 44.4399 38.3398
457 1 53.5982 39.2956 18.3876
458 1 27.4617 20.0738 36.3805
459 1 2.67697 34.5669 9.29939
460 1 3.5481 29.5954 30.1326
461 1 4.40599 10.3326 12.9465
462 1 48.3873 27.8413 9.28436
463 1 5.96624 3.60748 7.822
464 1 29.4505 55.2215 23.2461
465 1 9.21392 0.576089 35.2728
466 1 6.31168 54.4589 15.8009
467 1 44.414 51.932 54.9021
468 1 54.6939 7.78081 48.1446
469 1 32.5523 44.2085 31.2621
470 1 21.8425 27.9239 1.45384
471 1 27.0385 10.576 2.9765
472 1 0.313461 11.7279 16.2858
473 1 50.0625 41.4372 45.4299
474 1 55.0656 24.8172 18.7405
475 1 23.0001 25.1402 20.277
476 1 10.9598 50.1027 29.0197
477 1 49.3577 3.73771 38.013
478 1 35.8078 14.0245 43.8305
479 1 55.5937 25.6841 35.3299
480 1 42.6906 11.0265 2.15474
481 1 20.9908 56.0862 27.6185
482 1 27.2467 49.2846 26.7311
483 1 46.311 19.8945 34.0561
484 1 22.5828 39.4543 10.2175
485 1 17.1681 40.1113 29.1469
486 1 2.88273 1.66764 3.33423
487 1 25.5838 20.5498 21.1983
488 1 13.1782 41.513 23.2465
489 1 2.75236 44.8182 13.199
490 1 29.9138 0.462522 34.4364
491 1 28.5423 28.1565 20.9309
492 1 18.9027 14.1761 40.0484
493 1 9.5653 42.6849 38.5685
494 1 38.3116 27.7195 3.6812
495 1 14.9255 20.7866 54.4838
496 1 39.0377 18.0702 37.0652
497 1 29.6173 0.271737 40.1779
498 1 14.5078 13.1946 10.5645
499 1 42.1888 26.8466 12.0271
500 1 49.4262 7.69728 33.8604
501 1 45.5318 11.8879 49.5438
502 1 5.43782 44.4441 4.38297
503 1 55.8006 17.6562 28.5244
504 1 41.5431 5.82401 11.324
505 1 38.4924 33.4211 56.0906
506 1 11.9459 16.5865 50.3167
507 1 5.21374 50.8639 34.9387
508 1 12.7677 2.82546 11.9397
509 1 53.5402 29.4095 7.84771
510 1 26.4508 52.0635 6.09534
511 1 45.9752 9.92709 3.72391
512 1 13.2969 53.458 13.2877
513 1 27.5942 12.759 29.3577
514 1 33.5495 24.2815 17.3557
515 1 29.2392 13.0474 27.2056
516 1 5.06296 40.7015 37.04
517 1 4.15941 9.3317 22.3195
518 1 24.6082 11.9975 13.3027
519 1 9.44087 6.42435 42.612
520 1 36.0215 17.9066 4.39307
521 1 51.1668 24.5409 34.7651
522 1 18.1232 21.0435 52.4413
523 1 53.4324 17.288 20.9989
524 1 40.521 52.1925 32.3888
525 1 12.5389 39.4491 30.7805
526 1 12.5048 9.13094 34.971
527 1 53.1178 27.3866 22.1379
528 1 7.77426 3.76499 12.8367
529 1 31.1866 50.5515 29.0111
530 1 46.3175 37.6509 31.9393
531 1 40.339 3.92196 37.6087
532 1 31.664 52.7336 22.6967
533 1 34.4669 51.5447 5.88687
534 1 8.71283 32.7095 17.9378
535 1 34.712 47.4996 49.4563
536 1 48.2039 22.9888 20.0515
537 1 15.1582 13.1106 29.6605
538 1 24.1568 17.2449 49.9541
539 1 31.3331 22.5388 28.8333
540 1 39.3738 17.5692 30.1632
541 1 41.0183 45.0152 8.4114
542 1 42.383 44.4162 10.7549
543 1 38.1297 45.2189 35.115
544 1 31.6176 34.9684 14.975
545 1 50.6853 27.2446 5.00984
546 1 15.8118 34.9159 20.9186
547 2 12.994 43.0775 26.4264
548 2 12.4223 47.1601 1.03248
549 2 34.4775 51.5501 21.8845
550 2 0.818289 50.6399 13.9038
551 2 48.3358 5.73554 19.502
552 2 10.169 6.68393 35.1772
553 2 36.6358 8.17963 16.47
554 2 23.4802 5.88995 52.9061
555 2 15.0471 13.2239 21.5339
556 2 12.457 41.5914 42.8729
557 2 13.9734 5.75609 34.0426
558 2 17.6288 33.1389 2.9824
559 2 40.0529 17.1443 21.0222
560 2 4.95952 15.7146 29.2723
561 2 39.1358 12.815 50.5142
562 2 4.1092 19.4743 28.2362
563 2 30.7066 47.6023 34.5523
564 2 16.975 5.0415 39.9234
565 2 20.234 23.4266 37.1427
566 2 31.2959 13.8517 38.9616
567 2 44.909 38.4913 0.44754
568 2 43.7937 18.2196 19.9368
569 1 15.0928 1.34464 19.5531
570 1 -0.242853 45.9153 37.9718
571 1 10.7861 53.7362 53.7039
572 1 17.5523 9.28488 11.6281
573 1 9.00615 25.4624 29.9249
574 1 36.3839 0.974464 10.7691
575 1 22.1498 18.0526 23.191
576 1 25.8692 2.13634 29.5835
577 1 50.7006 7.50773 9.52202
578 1 55.173 39.8274 44.6341
579 1 36.327 40.8212 53.9654
580 1 12.521 12.3703 55.6904
581 1 35.2919 54.4392 1.76465
582 1 27.9804 19.4848 25.7303
583 1 36.2427 51.5847 29.1381
584 1 31.6112 13.5005 48.2414
585 1 33.5382 8.38158 23.1246
586 1 55.3986 -0.0557851 31.0405
587 1 16.1015 11.7277 12.8777
588 1 37.1585 0.962819 30.475
589 1 46.0315 26.5231 9.944
590 1 0.833313 9.18626 15.7357
591 1 26.7341 9.07313 40.6581
592 1 53.0783 33.1789 6.34131
593 1 28.9228 32.9441 27.9923
594 1 2.96079 42.5675 41.7067
595 1 47.7068 21.4721 39.2202
596 1 5.39922 5.21332 38.0617
597 1 16.4195 32.1079 8.15019
598 1 0.35698 55.2403 19.2338
599 1 3.58881 5.73191 17.1923
600 1 7.15921 46.3338 45.7319
601 1 17.6744 47.9012 4.7307
602 1 3.00175 42.7995 15.2648
603 1 22.1566 35.9201 55.275
604 1 20.5285 14.4545 31.232
605 1 26.232 49.5935 6.35912
606 1 28.3867 41.2657 48.8744
607 1 39.065 14.4368 33.3356
608 1 46.5067 39.2298 2.99141
609 1 34.1827 30.5573 12.552
610 1 43.7717 5.43774 44.8664
611 1 27.7738 28.4642 15.766
612 1 17.839 46.9934 45.3649
613 1 52.6571 51.1728 10.2873
614 1 54.1506 33.232 10.4477
615 1 5.91752 43.1074 41.2624
616 1 50.9887 21.6028 30.1569
617 1 16.5396 12.0188 51.6685
618 1 41.1112 52.4425 29.5459
619 1 25.8972 10.6414 23.4255
620 1 33.1525 30.5647 22.9
621 1 53.4987 8.86842 26.7244
622 1 13.8874 32.8138 52.7433
623 1 49.6685 45.9502 47.3527
624 1 47.6006 44.7228 53.4092
625 1 28.0691 40.4072 35.1082
626 1 41.0939 28.861 13.7194
627 1 33.09 52.6432 10.2235
628 1 26.0346 55.202 14.4706
629 1 48.2688 53.0992 1.29655
630 1 35.6561 2.58313 12.8873
631 1 44.9126 31.3139 12.1633
632 1 25.2659 18.4618 46.552
633 1 23.2006 26.7962 54.9429
634 1 48.0465 45.7474 17.2658
635 1 25.7185 26.6034 31.715
636 1 46.4363 10.5431 15.0527
637 1 46.8519 17.1844 34.0306
638 1 51.8889 10.8903 7.31643
639 1 26.4122 3.37966 2.26323
640 1 48.9215 10.2761 13.6336
641 1 38.2323 32.8499 36.8902
642 1 53.3727 18.4127 10.0002
643 1 22.217 10.3462 37.4926
644 1 21.5432 47.3701 38.1886
645 1 34.1421 12.1505 49.088
646 1 13.046 31.4821 12.1456
647 1 17.735 43.6139 6.43281
648 1 14.3566 13.4279 53.4692
649 1 38.5065 41.8899 41.0586
650 1 25.7949 3.1372 11.9965
651 1 40.7972 27.8602 7.41774
652 1 19.643 40.9178 6.4599
653 1 47.1872 31.7854 41.9488
654 1 24.3731 27.9644 46.9347
655 1 50.5205 0.807121 20.7207
656 1 37.019 52.2148 40.4752
657 1 50.5244 19.0016 4.71407
658 1 24.8276 8.63335 54.9913
659 1 40.5616 47.25 31.8813
660 1 2.14886 -0.302377 17.3517
661 1 46.2942 36.4569 12.9592
662 1 36.3361 46.8439 18.6969
663 1 10.5767 36.9197 9.15336
664 1 54.1881 41.8992 0.640761
665 1 28.5805 5.29269 4.17786
666 1 15.076 48.5793 27.0281
667 1 2.50268 30.1891 32.4473
668 1 -0.224297 18.3202 26.0922
669 1 52.2772 26.8292 15.4289
670 1 39.4072 31.8807 14.3497
671 1 38.1483 6.07813 27.0091
672 1 1.71675 18.9312 8.9681
673 1 11.4798 6.67411 38.8828
674 1 1.52424 42.6958 8.83664
675 1 52.2392 39.0529 51.4812
676 1 55.8149 20.5638 43.2396
677 1 50.8232 36.7677 52.5935
678 1 17.2525 55.2213 19.6375
679 1 50.6282 9.41055 50.7878
680 1 28.7333 32.4906 45.6013
681 1 4.06915 22.7495 54.4729
682 1 8.57546 3.9375 42.5153
683 1 37.2421 20.8761 42.322
684 1 36.4039 21.1311 54.8741
685 1 38.8926 52.4441 27.8724
686 1 38.8259 51.2925 14.8069
687 1 45.5375 53.9002 29.5356
688 1 20.1109 55.8305 36.8755
689 2 21.6889 49.7282 23.9056
690 2 30.1388 50.7236 10.1631
691 2 35.4955 27.2014 39.0368
692 2 13.2488 34.7886 55.0196
693 2 45.1651 48.4958 22.3868
694 2 3.74125 53.4901 54.6053
695 2 17.9362 14.8929 45.1437
696 2 16.7498 40.959 7.5727
697 2 1.67057 17.8216 36.0318
698 2 17.0742 18.2554 6.40235
699 2 44.5809 11.1268 39.9351
700 2 38.3051 4.88921 3.60452
701 2 53.7295 27.5987 5.41971
702 2 36.4724 28.607 26.662
703 2 49.0445 45.9517 44.0802
704 2 54.3421 13.0619 17.6024
705 2 2.62595 36.8184 7.27211
706 2 2.2143 40.6506 44.2807
707 2 47.8778 17.1045 18.7129
708 2 42.9615 54.8848 0.316352
709 2 44.3825 30.548 41.9643
710 2 53.0944 48.9031 30.7932
711 1 44.1321 1.8551 51.7236
712 1 6.35877 12.2675 14.2137
713 1 5.2965 47.9091 44.3828
714 1 40.8231 35.6344 25.0795
715 1 34.4305 11.8206 43.985
716 1 2.65407 15.7788 51.3536
717 1 43.9151 15.0592 53.8062
718 1 2.92858 45.2702 49.4287
719 1 52.2501 35.3954 43.9536
720 1 18.8107 16.0535 13.1216
721 1 31.6298 6.6774 4.95664
722 1 29.3885 36.3597 55.2269
723 1 19.1414 15.0041 15.3937
724 1 40.7759 39.3592 51.5258
725 1 15.6942 1.16484 35.5658
726 1 28.3544 16.8576 25.3661
727 1 27.5247 36.8492 30.1183
728 1 28.3953 1.42304 1.82812
729 1 49.0285 22.3195 46.5668
730 1 54.5524 48.5982 27.8859
731 1 40.4234 1.63843 21.1962
732 1 5.23676 0.584612 2.15552
733 1 29.1158 31.5298 40.4201
734 1 45.5185 2.07418 22.3012
735 1 51.2091 41.0374 43.0636
736 1 31.161 55.0112 20.7789
737 1 21.4048 40.5228 23.7438
738 1 13.9572 6.72356 2.71531
739 1 25.0949 24.0512 7.28142
740 1 51.8527 7.9904 33.5689
741 1 1.43694 14.7623 35.47
742 1 11.1148 9.18187 42.8369
743 1 30.0681 40.6021 23.52
744 1 16.153 30.6035 46.7552
745 1 45.0564 55.9046 11.4183
746 1 1.00859 34.5851 23.1492
747 1 0.965681 5.55947 37.4799
748 1 50.8188 10.8417 21.465
749 1 17.3692 12.5544 42.3313
750 1 4.17715 10.2719 18.8639
751 1 28.4509 49.2972 29.7358
752 1 50.8088 13.5566 46.9506
753 1 18.7343 9.4959 45.216
754 1 13.5926 0.862875 26.1105
755 1 22.4408 31.129 30.3528
756 1 41.5433 3.96235 5.10118
757 1 22.0147 32.4883 50.4434
758 1 55.0415 27.4135 20.1187
759 1 38.2494 19.1807 19.6094
760 1 17.6351 40.2165 4.84711
761 1 4.78109 55.7077 17.983
762 1 36.0889 39.8144 15.6101
763 1 21.957 17.2379 9.51706
764 1 37.2304 34.4989 39.7361
765 1 38.7528 33.7145 41.8497
766 1 51.1524 20.7204 45.1816
767 1 54.8372 17.9348 36.7271
768 1 23.2975 21.1813 34.0013
769 1 18.0068 49.0134 54.604
770 1 6.11626 51.7273 8.56695
771 1 0.241599 45.0237 9.16556
772 1 29.0393 15.0109 50.4635
773 1 10.5736 16.2518 45.5992
774 1 40.7771 0.471297 43.9235
775 1 44.1337 23.0615 42.7338
776 1 20.4724 -0.176135 30.2953
777 1 15.6306 2.16977 30.6742
778 1 22.5089 33.6761 47.7806
779 1 42.3281 24.8997 43.4845
780 1 11.5294 38.3785 46.7931
781 1 10.753 31.755 13.9203
782 1 15.6349 22.6601 40.4979
783 1 52.2624 3.26139 36.7317
784 1 41.7379 29.3766 30.0204
785 1 35.3753 25.4841 45.8155
786 1 9.50679 10.2445 34.7194
787 1 7.91306 31.091 41.0215
788 1 2.21619 10.2938 37.1114
789 1 43.0816 31.3017 27.921
790 1 49.5589 30.7242 52.6442
791 1 45.2111 26.4157 21.8744
792 1 24.5717 0.116802 16.6838
793 1 21.8487 0.269048 17.4565
794 1 25.8717 18.7666 11.9394
795 1 36.6768 43.9883 7.06519
796 1 7.09925 1.70443 48.9164
797 1 18.857 11.0928 13.2608
798 1 20.2084 31.4171 3.71966
799 1 15.9296 26.0794 9.33712
800 1 17.855 29.5713 37.033
801 1 49.1103 48.6361 10.6534
802 1 19.8974 40.9169 20.8354
803 1 27.4848 39.043 44.5164
804 1 54.7022 38.4845 4.54662
805 1 26.0629 27.971 29.5015
806 1 14.1145 20.8949 42.6754
807 1 50.5556 11.1108 48.615
808 1 28.0431 8.21797 36.3727
809 1 44.5844 44.0072 29.2653
810 1 7.68746 40.8204 31.9426
811 1 33.3563 22.1631 48.2084
812 1 37.7105 55.0524 0.0987671
813 1 36.3551 20.5809 12.4538
814 1 28.671 19.7288 15.3349
815 1 4.76097 8.8171 41.4978
816 1 52.1668 12.5299 38.1534
817 1 47.6723 49.7517 26.2373
818 1 48.2967 47.2629 38.8825
819 1 19.3838 41.4513 28.5006
820 1 50.7461 10.2409 36.4035
821 1 41.7473 47.8856 26.9572
822 1 0.567111 4.20915 28.8279
823 1 48.7288 42.6179 31.4841
824 1 4.09762 44.4014 39.5081
825 1 29.7807 49.8482 37.0892
826 1 16.203 52.0809 1.66538
827 1 16.5641 38.218 45.3929
828 1 38.8551 40.0252 53.547
829 1 49.5781 56.0579 29.3385
830 1 51.3736 43.5418 3.57143
831 2 6.92153 40.6232 39.6488
832 2 21.767 15.8995 2.57971
833 2 20.308 43.9182 23.9987
834 2 42.9254 29.7109 45.6693
835 2 26.0641 55.8809 27.9103
836 2 19.0373 17.3222 32.4957
837 2 15.7893 26.8765 17.4694
838 2 22.818 42.811 47.9225
839 2 28.1443 39.221 27.7797
840 2 20.0743 16.2633 53.5606
841 2 15.7391 27.2296 26.3036
842 2 44.5553 7.92425 46.8924
843 2 42.3079 1.47585 29.6161
844 2 31.0494 15.7823 18.4397
845 2 7.99975 52.1133 16.6136
846 2 41.3678 41.2599 48.3971
847 2 48.773 55.6184 10.2683
848 2 48.0936 44.7118 25.7353
849 2 22.9722 17.7932 34.7246
850 2 23.3122 32.9974 44.8325
851 2 48.0271 -0.269785 53.9433
852 2 46.4772 39.178 20.2136
853 1 27.2238 43.1809 15.0033
854 1 43.3281 47.4324 43.4588
855 1 50.908 22.9052 15.304
856 1 50.5722 12.5992 26.5054
857 1 54.4263 10.7679 38.549
858 1 14.4721 51.1856 39.0901
859 1 9.25951 36.9812 25.1358
860 1 10.4631 36.7669 15.149
861 1 52.3286 36.5455 29.0641
862 1 54.4034 31.0063 5.38263
863 1 33.3517 11.6243 10.4309
864 1 19.0835 32.0069 39.2322
865 1 14.6325 26.6162 14.2466
866 1 8.18892 37.4591 49.3751
867 1 9.49246 17.8619 40.8616
868 1 51.9913 8.4394 38.2805
869 1 9.84253 16.1123 52.8047
870 1 55.6754 28.5328 29.4278
871 1 10.3258 28.1279 14.5497
872 1 53.6139 39.8295 42.241
873 1 18.6311 36.6416 11.5853
874 1 52.6002 50.013 49.4012
875 1 55.0512 25.123 44.0833
876 1 33.916 8.59232 26.0825
877 1 38.7107 30.7029 11.9057
878 1 48.3361 11.9836 16.1862
879 1 12.6709 28.3908 27.9235
880 1 51.964 11.6599 1.93226
881 1 43.4897 10.1826 42.8204
882 1 45.3206 22.6575 52.4213
883 1 21.746 4.19754 26.8419
884 1 51.623 54.8319 36.1139
885 1 15.8844 15.3035 26.9423
886 1 37.5048 40.6673 2.97256
887 1 7.23276 15.5207 19.1824
888 1 56.0367 27.7713 51.3026
889 1 39.2324 6.35115 54.7658
890 1 55.604 48.7064 1.27126
891 1 36.2068 1.6819 49.3061
892 1 19.1521 45.523 5.07637
893 1 44.9042 34.2502 49.5877
894 1 10.0906 27.8656 32.1577
895 1 0.625586 49.2248 33.3754
896 1 2.49382 40.8077 17.3104
897 1 28.587 53.234 4.5
898 1 0.25279 16.3155 44.5566
899 1 16.1816 19.175 32.2895
900 1 8.84664 38.0805 55.4659
901 1 38.7305 46.9878 42.0674
902 1 26.5579 1.94057 26.7431
903 1 8.66012 55.4129 55.9905
904 1 35.6079 35.9154 11.5847
905 1 31.251 33.4285 32.2424
906 1 25.5922 11.5242 20.9287
907 1 24.6769 43.3198 20.6606
908 1 1.31331 6.08994 34.523
909 1 52.4105 10.0742 40.1298
910 1 49.343 35.9021 8.03943
911 1 12.631 8.98828 24.9121
912 1 21.1265 13.8172 45.134
913 1 13.0922 2.93912 49.658
914 1 53.3433 52.0069 30.983
915 1 24.1273 24.3871 2.13484
916 1 22.1578 50.7882 27.0518
917 1 37.9236 48.4718 24.6748
918 1 -0.177168 32.667 25.2017
919 1 50.5287 47.2474 34.8863
920 1 25.9937 15.5104 25.0257
921 1 54.7818 7.8504 4.27206
922 1 18.0189 29.873 27.2956
923 1 53.8369 3.03009 32.2874
924 1 54.9853 51.7204 11.6154
925 1 40.3927 18.577 51.6953
926 1 27.6333 50.066 51.4561
927 1 53.6055 2.79575 41.3278
928 1 39.9154 30.455 7.02995
929 1 50.2173 33.2828 6.92537
930 1 44.0483 55.3171 13.9969
931 1 25.832 19.8059 33.7948
932 1 24.2405 42.0423 30.9457
933 1 34.5704 54.9326 47.3947
934 1 24.3139 51.959 1.08189
935 1 5.76672 4.5926 26.7515
936 1 32.5018 25.1827 40.2814
937 1 37.4484 41.7523 38.5227
938 1 34.7563 13.7715 46.8456
939 1 50.9032 0.282123 53.0305
940 1 52.428 1.38725 7.15308
941 1 33.7798 55.8465 40.4825
942 1 15.3473 46.0916 45.3014
943 1 50.44 43.7594 41.8506
944 1 10.6472 43.086 17.2455
945 1 51.0808 19.5061 50.0505
946 1 14.1235 43.8776 44.3087
947 1 44.7817 29.3948 27.0862
948 1 12.0629 0.464027 49.3074
949 1 51.0959 9.44866 46.0578
950 1 46.9731 1.73144 0.103063
951 1 14.7081 43.6546 53.6464
952 1 44.0907 0.790688 48.7956
953 1 5.07688 14.6652 17.9253
954 1 10.5088 51.1442 18.5237
955 1 18.3245 15.1518 6.52156
956 1 0.661574 18.355 54.4652
957 1 53.7003 40.7144 53.8864
958 1 54.445 24.3698 30.0788
959 1 18.962 52.2244 2.57823
960 1 54.0969 14.1348 12.2816
961 1 30.1585 38.2651 0.850329
962 1 30.6448 7.78463 15.6788
963 1 7.91928 30.57 47.4708
964 1 25.5357 14.6744 44.1367
965 1 15.3801 30.3777 27.7263
966 1 26.1423 48.3466 31.816
967 1 15.0335 4.23079 48.1343
968 1 36.6976 46.5318 11.7675
969 1 13.4749 41.6869 35.5387
970 1 40.6624 20.1695 15.9928
971 1 37.6357 15.8593 50.2598
972 1 30.2583 8.29853 38.7851
973 2 45.5667 4.26452 25.2073
974 2 46.2371 39.4279 35.3274
975 2 53.6183 39.1238 27.783
976 2 16.6024 31.399 52.443
977 2 53.2083 36.4642 15.891
978 2 52.5635 36.5637 19.7919
979 2 35.6625 40.3209 41.5284
980 2 54.9077 6.46132 44.8079
981 2 36.8221 12.0032 9.67662
982 2 54.6039 29.6897 49.336
983 2 12.1407 31.3455 1.05449
984 2 46.3614 22.7608 34.0241
985 2 51.5062 2.0676 10.1188
986 2 7.47096 18.4098 38.1252
987 2 15.6204 10.5906 4.21174
988 2 2.30124 26.7857 51.9151
989 2 40.0919 27.8072 32.1214
990 2 54.8252 10.1326 14.446
991 2 22.9244 21.293 17.2887
992 2 16.5563 15.9083 54.7257
993 2 1.39205 15.6832 56.0948
994 2 53.8971 23.0416 35.5478
995 1 54.5887 3.61735 44.1103
996 1 51.3361 25.6199 47.9038
997 1 23.7756 51.7119 49.4746
998 1 10.2894 54.6786 23.8455
999 1 21.2292 41.5944 52.7022
1000 1 19.7717 8.69739 47.4609
1001 1 32.5311 26.6437 45.9901
1002 1 52.6526 26.4402 8.02766
1003 1 12.0049 54.8115 21.5391