ITEM: TIMESTEP
0
ITEM: NUMBER OF ATOMS
9088
ITEM: BOX BOUNDS pp pp pp
-4.6171579852776701e-01 5.6346208424515872e+01
-4.6171579852776701e-01 5.6346208424515872e+01
-4.6171579852776701e-01 5.6346208424515872e+01
ITEM: ATOMS id type x y z
1 1 5.32899 54.8559 11.8034
2 1 1.36364 51.8069 17.8253
3 1 -0.149311 13.1042 21.6724
4 1 46.4388 23.444 34.5681
5 1 49.2395 49.0919 19.4371
6 1 36.4638 17.8128 12.9615
7 1 10.7423 50.4891 38.3769
8 1 5.12977 9.18796 18.0054
9 1 49.9065 42.2547 43.0085
10 1 9.45185 33.3123 34.0966
11 1 11.4584 36.5766 6.45617
12 1 15.5623 22.3305 27.899
13 1 53.6279 44.5547 34.2135
14 1 39.4946 22.5643 34.8898
15 1 24.2038 32.105 0.795148
16 1 27.3031 28.3163 41.81
17 1 53.1485 29.6545 25.0819
18 1 10.2666 17.6185 8.63551
19 1 20.9363 54.4774 45.8638
20 1 49.1603 36.1332 54.5923
21 1 38.2655 31.1872 30.8398
22 1 0.319334 10.0244 44.9605
23 1 53.6386 48.707 17.1238
24 1 37.8151 30.0429 7.71311
25 1 30.0368 29.1583 37.2651
26 1 48.5415 40.4359 44.0915
27 1 29.5687 53.6032 44.6896
28 1 39.7964 48.5384 48.0651
29 1 50.2117 9.41105 10.2319
30 1 52.8567 5.17241 31.5964
31 1 16.0937 55.7566 55.3329
32 1 53.3192 -0.0202038 4.7725
33 1 21.0617 18.0198 47.9902
34 1 52.7012 14.1068 45.4237
35 1 54.2119 14.4259 51.1378
36 1 31.3978 34.3025 27.2923
37 1 20.3854 2.75711 55.294
38 1 14.0332 14.5491 19.6502
39 1 25.782 53.5852 37.8137
40 1 0.188939 16.002 35.5108
41 1 9.91212 26.88 23.4807
42 1 51.6182 35.3202 45.6954
43 1 52.478 -0.322747 21.6568
44 1 5.7171 39.6997 4.45688
45 1 14.0076 2.76042 25.8136
46 1 19.9444 28.963 12.2128
47 1 12.2755 0.586757 16.7554
48 1 32.5782 25.4064 13.4513
49 1 34.2191 32.7804 13.6917
50 1 9.30838 4.21312 20.5207
51 1 0.766984 54.7763 36.6656
52 1 36.1989 31.5252 18.2165
53 1 33.4601 30.6751 18.7098
54 1 20.0023 16.0682 38.2647
55 1 0.146432 49.5784 26.4931
56 1 54.7802 41.9087 -0.0879298
57 1 44.2799 33.9611 25.4255
58 1 40.624 39.2737 30.9638
59 1 5.22671 0.904733 7.81628
60 1 53.804 37.6688 19.0584
61 1 36.2431 39.5217 54.6522
62 1 16.8655 46.7971 -0.0662551
63 1 28.1444 1.42226 55.2022
64 1 16.1273 40.7538 28.3394
65 1 30.3014 0.596846 36.8027
66 1 39.9097 0.809692 30.6248
67 1 21.4715 17.3477 26.3964
68 1 45.4544 9.49377 50.6636
69 1 32.4731 55.942 38.2572
70 1 40.4788 41.6049 34.1518
71 1 15.5932 8.01889 44.8488
72 1 11.0572 25.2749 40.928
73 1 52.4867 46.2535 16.0348
74 1 43.82 26.5777 41.2812
75 1 51.915 31.0066 27.0434
76 1 6.52025 12.935 29.9901
77 1 29.01 5.73782 21.9519
78 1 27.6518 13.2327 42.5385
79 1 48.4839 34.8144 8.5388
80 1 11.6768 17.085 54.3706
81 1 14.9944 4.97657 35.1254
82 1 54.6334 21.1155 9.32155
83 1 32.3919 18.2036 28.4686
84 1 36.7638 1.26604 37.9691
85 1 3.54352 7.34548 25.3846
86 1 0.940518 50.553 53.2944
87 1 7.98434 26.2419 4.0325
88 1 51.1211 11.1724 21.7613
89 1 2.63665 5.74873 2.50728
90 1 29.6688 13.5596 32.4907
91 1 16.9676 21.3749 30.0142
92 1 21.3853 30.0004 23.8883
93 1 38.9218 12.7165 53.3463
94 1 50.083 54.9364 14.6487
95 1 46.8112 31.1026 53.0666
96 1 17.8252 1.52815 55.2932
97 1 8.50439 45.3112 22.8862
98 1 5.55609 52.6253 31.5549
99 1 54.0288 22.7626 38.124
100 1 22.3448 44.1531 29.6372
101 1 25.5004 11.1339 20.4838
102 1 39.7548 34.6717 22.0261
103 1 44.5798 11.7274 10.6238
104 1 31.4306 48.5337 30.9762
105 1 40.7703 47.1525 30.1447
106 1 42.7804 37.0693 39.1057
107 1 12.372 43.2175 50.1792
108 1 46.8132 3.82019 49.5759
109 1 44.1176 37.5738 15.1966
110 1 12.1771 22.1526 45.0945
111 1 51.0844 34.8895 52.8355
112 1 1.61151 1.58583 25.4434
113 1 38.3726 52.1386 43.9098
114 1 33.775 50.7052 26.9725
115 1 35.6478 29.829 46.479
116 1 0.251719 13.2768 35.6888
117 1 39.1373 39.892 45.5418
118 1 14.3154 35.7091 5.7387
119 1 32.2528 53.4792 7.5116
120 1 -0.211297 9.15976 27.5125
121 2 51.5638 0.236513 8.18038
122 2 35.423 18.1817 30.1586
123 2 15.8431 52.6092 35.6078
124 2 14.3747 5.29112 46.5216
125 2 12.6184 34.4175 8.02939
126 2 24.1306 8.06395 21.0785
127 2 52.9538 26.1899 29.4391
128 2 45.3463 54.2598 22.6599
129 2 17.1549 6.7071 1.18684
130 2 44.4929 44.4027 37.2689
131 2 54.1036 46.5628 51.0499
132 2 44.643 17.3169 35.8261
133 2 15.4308 45.1396 12.3717
134 2 13.9671 42.2404 16.4931
135 2 56.1458 39.1259 1.989
136 2 26.3217 42.8384 49.5701
137 2 27.3327 34.3662 37.9664
138 2 17.822 32.8477 27.4805
139 2 40.471 4.66965 25.1684
140 2 20.9966 55.336 51.1927
141 2 8.33697 45.9093 1.33332
142 2 54.8131 54.2639 6.15726
143 1 6.55279 49.1787 18.6282
144 1 17.7641 19.852 23.4754
145 1 39.8322 4.01313 10.0162
146 1 25.1536 19.7633 3.06975
147 1 35.2483 53.1292 55.6908
148 1 51.6538 16.1383 19.2206
149 1 9.69627 22.8567 40.9523
150 1 45.6721 0.752438 23.0519
151 1 23.256 47.7919 18.8196
152 1 51.0618 28.5487 35.2115
153 1 25.4346 38.2618 42.6017
154 1 26.6694 53.3633 50.1457
155 1 1.16871 6.63656 16.4978
156 1 10.6387 31.4443 14.6262
157 1 38.3885 20.9283 2.2195
158 1 24.1646 37.2188 7.118
159 1 36.3258 13.7986 43.061
160 1 32.6252 38.1802 5.17014
161 1 26.2616 27.1783 39.286
162 1 53.9065 34.3877 30.7865
163 1 18.6825 27.304 53.5199
164 1 46.4452 38.5726 45.8382
165 1 20.0125 36.3323 9.5374
166 1 0.592258 26.0948 37.8705
167 1 5.35187 33.0087 53.4212
168 1 47.5847 26.6993 12.7538
169 1 40.4535 23.1399 13.1753
170 1 30.0891 7.3026 13.1408
171 1 38.506 29.4683 23.7444
172 1 45.5449 52.6204 13.3722
173 1 52.0046 28.5453 19.8345
174 1 15.1307 3.93846 20.7827
175 1 41.0275 4.39808 15.541
176 1 49.9802 44.7114 28.4594
177 1 20.3929 39.0608 3.44012
178 1 53.1846 -0.425354 39.7855
179 1 7.28667 23.184 53.5388
180 1 2.80131 7.67582 22.6674
181 1 52.3673 3.23586 10.1703
182 1 43.8428 2.84677 29.8562
183 1 47.9194 44.5513 25.9026
184 1 10.4023 27.6548 41.7456
185 1 23.2059 34.2668 6.42165
186 1 43.9813 4.59905 5.22399
187 1 40.3604 4.77885 51.2073
188 1 40.1232 6.40852 35.0432
189 1 30.6039 52.9432 16.5425
190 1 21.1986 22.2739 53.8081
191 1 19.3317 46.3955 38.6457
192 1 4.61141 47.4587 30.607
193 1 18.8077 21.5009 54.593
194 1 12.7268 28.845 33.3075
195 1 10.1546 3.42739 45.4251
196 1 1.51124 45.1285 35.0274
197 1 55.3478 40.7036 5.01439
198 1 43.7107 13.8328 23.9666
199 1 2.79757 48.5052 41.6019
200 1 0.352553 0.424104 37.4571
201 1 34.5271 27.7184 6.84095
202 1 16.5068 49.5987 8.75125
203 1 6.35203 54.6976 22.4567
204 1 34.5333 25.6638 11.7992
205 1 31.5479 37.0889 22.1144
206 1 31.4055 2.70107 29.1428
207 1 49.237 55.8188 1.39851
208 1 26.4957 16.5991 24.8761
209 1 18.8462 6.78964 38.4042
210 1 11.6527 26.1741 32.6219
211 1 40.1515 15.322 30.4575
212 1 8.62643 44.3579 55.1079
213 1 39.3829 4.06186 45.8181
214 1 5.06617 28.5104 51.9184
215 1 51.5059 16.2458 2.28461
216 1 33.6888 9.95567 18.6156
217 1 51.2848 22.0358 22.2313
218 1 1.51048 55.0064 55.9119
219 1 53.2732 50.9211 1.88006
220 1 54.0332 43.5607 25.2001
221 1 12.333 14.6298 32.0314
222 1 12.9759 51.4989 30.9937
223 1 4.66134 34.3715 47.8508
224 1 9.01945 33.0348 28.0924
225 1 41.9766 28.3244 50.3306
226 1 14.4715 46.9154 50.7737
227 1 16.1232 37.3401 21.458
228 1 33.6428 4.44498 25.314
229 1 28.5586 11.0449 31.5646
230 1 30.9261 0.921562 16.5664
231 1 14.7064 45.7312 7.2508
232 1 35.8528 6.6068 52.5794
233 1 55.3427 38.1851 43.1595
234 1 34.2779 20.251 32.1191
235 1 35.5798 43.6381 45.7493
236 1 51.9598 41.0796 31.3956
237 1 44.7301 1.53658 55.1883
238 1 32.0017 31.3384 28.1244
239 1 45.1926 24.7813 11.5964
240 1 19.1625 2.33224 27.7967
241 1 49.4275 23.6055 21.168
242 1 28.7177 28.7397 55.9555
243 1 30.3046 32.8061 5.15285
244 1 31.1196 35.4582 14.6137
245 1 7.32676 21.4352 46.634
246 1 27.8475 23.1272 20.9506
247 1 2.84995 51.8782 32.7874
248 1 25.7548 31.9721 54.5887
249 1 32.0498 3.9839 45.873
250 1 42.0555 36.5955 10.4786
251 1 30.4845 34.828 51.1171
252 1 25.2561 39.8513 31.5255
253 1 17.3012 9.14767 27.8076
254 1 28.2004 1.4133 24.53
255 1 16.5609 52.9954 4.47691
256 1 17.0376 35.4014 18.6598
257 1 33.9932 19.1085 14.1368
258 1 9.49244 6.12025 43.6259
259 1 40.7973 52.6529 39.5884
260 1 11.6873 27.9318 20.4869
261 1 8.38786 0.163461 52.0367
262 1 24.2055 46.5747 28.4273
263 2 -0.172111 54.1884 53.546
264 2 20.7776 5.9596 47.9366
265 2 39.6698 23.4478 25.692
266 2 49.5143 4.00024 4.654
267 2 21.0329 11.2466 2.71735
268 2 51.4767 54.5492 41.7039
269 2 52.1336 18.6296 0.269137
270 2 26.3623 6.90139 17.1626
271 2 13.8541 48.906 6.97348
272 2 22.7169 19.9236 24.5589
273 2 11.2328 43.3426 19.0474
274 2 56.0502 17.1564 24.9392
275 2 3.26612 19.9506 27.074
276 2 27.3195 49.7042 3.95559
277 2 16.9098 7.46244 35.5387
278 2 49.7571 32.7884 3.03972
279 2 41.2488 11.9945 41.4767
280 2 6.44423 4.30029 4.79025
281 2 10.9914 50.7801 23.1141
282 2 1.36826 36.0348 13.5056
283 2 35.0211 47.5608 52.7231
284 2 50.426 4.30588 23.3301
285 1 33.8994 1.35702 17.7085
286 1 54.9211 25.4638 0.907729
287 1 41.0468 15.4097 2.56004
288 1 42.5776 42.6801 42.2166
289 1 8.15781 -0.164317 34.2701
290 1 51.0579 10.9003 34.2144
291 1 36.518 29.3906 35.9352
292 1 12.9377 26.7107 29.8776
293 1 38.3665 39.2855 -0.0110957
294 1 22.6582 30.4896 32.8508
295 1 50.925 6.47429 55.4933
296 1 48.0194 43.0248 28.7038
297 1 33.9623 15.3025 52.6944
298 1 16.3965 27.6717 37.4598
299 1 18.9987 28.0585 38.6263
300 1 24.0643 44.4092 19.3723
301 1 5.37007 15.9951 12.7625
302 1 19.5796 40.9307 14.1195
303 1 7.0421 45.2558 53.0759
304 1 14.37 37.6665 4.21908
305 1 -0.415184 0.806007 4.60234
306 1 6.46724 39.1042 6.98015
307 1 21.2339 29.7834 48.7561
308 1 45.243 21.929 7.97746
309 1 2.68196 21.9419 8.96502
310 1 2.88124 43.2277 6.14346
311 1 55.6117 37.724 13.9848
312 1 13.9574 47.62 34.7033
313 1 11.6222 32.3546 3.02387
314 1 4.39662 55.0692 7.10541
315 1 16.7784 13.4994 29.1856
316 1 23.0865 29.9354 18.7818
317 1 50.6819 -0.0373722 11.8486
318 1 48.3474 3.41002 51.8728
319 1 5.77489 0.866097 5.2647
320 1 3.29015 42.5586 2.18491
321 1 48.9736 48.9713 13.9318
322 1 38.0791 37.3804 14.0119
323 1 0.730536 17.0621 56.0137
324 1 14.2497 8.94382 14.4326
325 1 50.3454 5.68039 31.1587
326 1 33.6624 9.03994 48.716
327 1 35.3968 9.26975 10.9152
328 1 35.2301 18.0104 0.649473
329 1 8.32513 47.5651 13.303
330 1 39.8386 27.4758 22.4737
331 1 16.4973 13.8831 38.0727
332 1 26.8732 54.1943 44.3463
333 1 51.6595 25.0349 10.3915
334 1 44.2356 43.2 53.2254
335 1 18.5717 51.6051 8.74273
336 1 29.489 29.4053 11.9272
337 1 2.91778 48.8941 -0.0419548
338 1 18.2941 32.9403 19.6491
339 1 46.5751 51.2289 29.9733
340 1 15.0669 40.292 51.2786
341 1 36.437 3.62498 33.4225
342 1 32.6319 11.4793 1.79642
343 1 37.1641 50.1925 6.10325
344 1 55.8738 16.7422 16.0218
345 1 53.8829 13.9123 42.1104
346 1 20.8772 29.8083 20.7034
347 1 9.96071 29.6003 45.4564
348 1 37.2677 11.9357 48.9049
349 1 16.5432 35.7764 39.6398
350 1 34.8237 55.7782 0.479817
351 1 3.65221 13.3618 6.45407
352 1 7.99288 38.3024 20.2063
353 1 12.4298 26.2943 43.0195
354 1 8.35964 35.1195 10.8353
355 1 19.8272 26.1137 4.26478
356 1 42.7145 22.9576 24.1474
357 1 39.5577 44.259 8.98612
358 1 16.4503 2.97092 32.5521
359 1 29.7653 2.42022 31.4168
360 1 40.8559 28.4714 0.907683
361 1 5.25496 5.46459 49.2686
362 1 14.031 29.6831 6.94122
363 1 36.2611 1.23478 42.7888
364 1 1.32447 48.9889 47.4713
365 1 6.94631 34.0036 5.39303
366 1 52.104 46.5745 27.7908
367 1 44.8433 33.4212 5.91348
368 1 56.1835 10.8883 7.28321
369 1 20.005 17.7234 55.0169
370 1 9.34921 21.8305 25.0215
371 1 43.6283 24.6846 47.5001
372 1 5.68868 37.3935 28.8007
373 1 1.29729 38.3211 27.5686
374 1 17.8699 27.0945 9.43435
375 1 6.37245 14.0514 22.5926
376 1 35.1092 -0.203061 14.5655
377 1 32.2362 15.9104 37.5751
378 1 12.2803 4.25269 20.5167
379 1 10.5804 5.54629 10.0027
380 1 10.8233 4.45271 23.2899
381 1 6.01189 21.9881 0.606603
382 1 36.3841 47.571 13.3511
383 1 12.0686 27.5027 17.2387
384 1 52.2135 55.5588 28.1522
385 1 28.693 29.2066 21.5396
386 1 47.7059 20.2803 2.53835
387 1 44.6908 32.3059 46.396
388 1 32.8005 46.5262 45.7867
389 1 50.1534 18.0789 54.2544
390 1 41.032 49.3939 19.4011
391 1 0.284344 43.2821 21.8135
392 1 11.9678 55.6685 22.1105
393 1 44.0889 49.1133 9.40312
394 1 23.5697 39.2657 22.6657
395 1 27.9022 34.5738 16.8355
396 1 0.273726 13.5736 2.55742
397 1 11.9959 34.9671 45.6737
398 1 48.0839 51.5779 19.6442
399 1 31.9824 10.1897 20.6981
400 1 52.4524 20.3599 3.06559
401 1 51.854 12.757 29.3814
402 1 34.8935 11.3586 8.32485
403 1 17.244 20.254 51.8055
404 1 49.8192 31.9084 21.8136
405 2 46.0453 27.6162 2.17617
406 2 3.89369 41.3685 45.5839
407 2 7.42933 26.212 53.4936
408 2 13.5563 27.3877 4.66064
409 2 44.3037 31.9011 9.38066
410 2 40.5346 24.3125 10.3937
411 2 29.0042 8.76801 20.9745
412 2 32.2823 44.1334 41.4456
413 2 6.57032 37.2883 15.0183
414 2 15.8943 54.533 1.54353
415 2 49.0834 14.6499 17.1785
416 2 14.5623 20.9497 38.4231
417 2 32.6728 55.6459 46.1085
418 2 42.295 51.7804 5.28775
419 2 49.1203 42.7348 31.4597
420 2 46.7401 6.74954 14.0953
421 2 12.6085 50.2538 14.6926
422 2 25.5262 55.2623 34.8236
423 2 50.7627 21.0619 44.7178
424 2 23.4482 30.0771 55.1267
425 2 17.6595 55.3362 33.1923
426 2 32.9559 36.1016 32.2502
427 1 8.20673 19.2296 8.87676
428 1 3.38347 26.0292 6.69138
429 1 49.2713 28.2406 1.18763
430 1 31.583 2.90827 18.6356
431 1 29.8279 40.0556 19.0549
432 1 21.7944 54.442 21.6435
433 1 53.3979 17.3133 34.1075
434 1 26.3082 33.2964 30.6925
435 1 10.8157 22.6892 49.4593
436 1 40.9753 12.5305 48.9772
437 1 27.7141 14.3177 23.1676
438 1 15.3452 10.8809 -0.18242
439 1 -0.0231049 29.7985 12.7534
440 1 34.1481 39.539 43.276
441 1 36.3903 5.45745 4.92708
442 1 41.9887 38.273 7.96295
443 1 49.0334 39.7033 7.23476
444 1 46.9679 3.81551 6.5926
445 1 23.6137 2.10239 36.1582
446 1 2.10606 50.9421 7.29413
447 1 35.4797 49.4632 37.4461
448 1 43.5657 54.3226 10.0079
449 1 16.1085 3.72848 51.2748
450 1 40.8554 31.225 15.4311
451 1 52.0792 51.9907 37.0734
452 1 42.7082 16.4001 19.3341
453 1 39.9813 8.9093 4.0798
454 1 30.7453 27.8357 46.7825
455 1 52.1493 0.963244 41.9102
456 1 38.716 55.0758 37.6896
457 1 38.9823 8.54709 28.1741
458 1 42.6097 12.6603 34.2953
459 1 50.4822 35.2621 6.88672
460 1 15.2219 13.1313 26.1826
461 1 4.88877 54.3283 38.7091
462 1 13.1437 51.1289 52.9056
463 1 16.5242 38.8614 55.0203
464 1 52.0138 32.5862 45.4791
465 1 38.4843 13.5112 2.42943
466 1 18.9228 49.1873 39.1232
467 1 47.493 15.5154 44.9665
468 1 4.44498 13.5955 20.7514
469 1 20.0101 50.8952 32.8786
470 1 25.7509 27.608 10.2663
471 1 54.8277 50.2441 29.8881
472 1 52.9541 26.2254 49.7894
473 1 7.73361 5.57095 1.70847
474 1 50.2406 11.8064 54.4398
475 1 6.69872 7.39675 37.6121
476 1 10.8905 18.5311 21.1135
477 1 11.0071 2.71274 53.5356
478 1 52.0616 23.9802 20.3891
479 1 2.98242 16.4902 13.1398
480 1 55.7342 43.4436 27.2827
481 1 49.1 51.6199 48.2051
482 1 16.2915 26.6657 19.4296
483 1 34.1631 46.0199 -0.397951
484 1 36.125 27.7232 -0.27882
485 1 31.994 38.6394 36.6115
486 1 38.1663 12.96 30.5498
487 1 50.9785 35.1766 4.19982
488 1 54.6495 54.4074 51.1065
489 1 41.4306 41.2612 24.0531
490 1 51.016 42.1821 28.949
491 1 20.5342 55.1244 34.2616
492 1 43.4652 37.8837 41.9113
493 1 56.2101 54.0579 0.231073
494 1 48.0817 19.3597 11.7683
495 1 34.7619 8.69524 38.2474
496 1 30.0239 43.107 54.5407
497 1 41.297 7.54403 52.2393
498 1 13.9394 29.5578 52.0545
499 1 23.0199 44.8537 34.7525
500 1 51.4952 38.7873 8.06715
501 1 4.68021 11.9194 18.2546
502 1 5.52634 27.9443 21.9657
503 1 -0.382808 6.75168 34.105
504 1 43.2284 13.8151 47.825
505 1 15.6757 27.182 53.4944
506 1 15.1677 33.4658 55.272
507 1 1.21237 42.9796 52.4566
508 1 4.98255 32.3974 14.847
509 1 47.6597 46.4233 12.7289
510 1 9.46656 23.3177 47.1601
511 1 12.4747 12.0776 52.0182
512 1 19.7899 34.9777 26.9362
513 1 22.9889 34.7459 51.2093
514 1 0.265056 12.2384 10.8767
515 1 16.1513 31.4752 7.48418
516 1 10.1034 35.1175 29.4666
517 1 34.1035 7.73583 5.42581
518 1 19.0911 20.8548 42.2857
519 1 50.4942 27.2748 11.2094
520 1 38.0002 6.30688 26.7181
521 1 53.5003 22.153 44.1546
522 1 10.389 27.0951 54.8508
523 1 19.6209 21.3673 13.5754
524 1 51.4885 55.2687 35.2957
525 1 20.1038 2.54012 43.0441
526 1 40.2194 8.11961 21.4696
527 1 39.5112 16.8121 40.6076
528 1 4.49404 27.4937 24.594
529 1 43.698 2.4183 23.8958
530 1 28.346 50.5899 15.8188
531 1 9.56381 30.0662 50.2427
532 1 24.3972 4.02909 1.0813
533 1 38.011 27.7464 14.2048
534 1 47.1538 42.6458 2.56465
535 1 15.7926 40.4314 48.7751
536 1 36.1255 32.4756 41.6367
537 1 51.542 13.2588 52.2499
538 1 55.5229 30.7577 39.5661
539 1 55.3467 48.0989 37.0091
540 1 3.008 9.13172 0.909905
541 1 5.61056 23.3742 13.7792
542 1 21.3538 1.34218 33.8064
543 1 44.2975 29.9941 37.3474
544 1 33.4943 52.6881 11.8865
545 1 42.3732 18.7002 41.762
546 1 39.4307 1.97923 6.06115
547 2 45.663 10.3434 0.987343
548 2 53.8847 36.2876 35.2457
549 2 9.50163 5.30122 26.1806
550 2 15.5586 35.8839 53.0317
551 2 24.5404 46.5478 4.54435
552 2 56.1033 43.9932 47.9879
553 2 5.71429 12.9774 45.4519
554 2 26.4867 26.9044 0.632645
555 2 44.2226 23.0627 37.318
556 2 34.5267 5.82451 44.7402
557 2 0.300784 21.5325 14.5021
558 2 15.8096 37.3132 16.2318
559 2 32.4043 48.2316 1.25965
560 2 51.0057 47.333 21.5388
561 2 13.3997 41.6963 29.7816
562 2 51.0408 29.7482 46.5923
563 2 23.5716 51.145 25.4845
564 2 7.1495 10.279 47.6615
565 2 21.8646 34.9919 48.1247
566 2 36.3276 47.8304 42.7199
567 2 6.92215 33.7681 2.25715
568 2 25.9746 48.7306 50.2771
569 1 27.7616 38.4839 0.826599
570 1 51.662 7.47969 42.9961
571 1 18.7262 27.3322 33.3236
572 1 3.35083 31.6293 46.0719
573 1 1.03458 44.4402 32.4221
574 1 52.0677 33.2225 17.2075
575 1 38.6638 28.248 31.9921
576 1 47.8339 38.7128 56.0653
577 1 49.0114 46.9063 0.488186
578 1 54.9391 12.3435 18.266
579 1 10.9062 29.7178 18.6379
580 1 17.6863 0.856261 17.5332
581 1 34.2563 5.69476 7.5599
582 1 53.947 55.9871 26.0319
583 1 29.8678 16.0033 55.6844
584 1 38.17 28.6816 20.8316
585 1 39.3844 21.9334 22.4729
586 1 51.8908 50.3757 4.22742
587 1 1.34198 55.3464 9.53691
588 1 31.0639 23.7464 11.8468
589 1 9.98803 34.5438 43.4342
590 1 33.7504 5.47255 22.7239
591 1 25.8748 45.4102 45.5158
592 1 10.138 45.4538 41.0407
593 1 35.9843 7.5944 56.1131
594 1 51.6366 55.5642 -0.035347
595 1 41.5601 5.59913 37.1712
596 1 45.1983 49.2028 17.1118
597 1 13.0742 33.2358 22.5878
598 1 11.7967 16.2152 49.7475
599 1 21.0225 27.4859 25.5963
600 1 17.6831 8.83445 14.5601
601 1 18.3388 29.9367 40.391
602 1 14.4135 14.4947 50.7427
603 1 37.0665 7.93981 12.8923
604 1 52.8016 51.8054 6.49682
605 1 2.92832 43.9511 47.3396
606 1 50.4651 49.0751 16.2641
607 1 1.83156 52.8059 38.1346
608 1 16.6248 38.6014 18.9872
609 1 42.9108 25.4906 38.5298
610 1 23.2088 22.6403 9.99544
611 1 40.1633 16.1152 7.25331
612 1 52.2833 55.7876 51.6852
613 1 11.9477 34.6113 4.90715
614 1 19.6254 11.7945 0.14071
615 1 52.3236 50.906 16.4604
616 1 51.5626 33.2947 12.9234
617 1 38.6621 20.7145 53.1119
618 1 5.40541 37.6777 37.9603
619 1 36.1916 0.799856 29.3774
620 1 46.1932 19.0948 54.7219
621 1 46.9626 40.2396 22.8084
622 1 3.33156 14.1495 23.4897
623 1 54.5598 0.649663 7.01779
624 1 21.0085 35.1382 16.8606
625 1 55.5705 43.4704 41.3737
626 1 3.57325 24.4221 50.5414
627 1 31.9985 29.7418 48.848
628 1 19.6365 18.2204 42.5621
629 1 45.2999 56.0874 29.9296
630 1 9.75709 30.0149 37.7826
631 1 8.3553 49.576 28.4519
632 1 19.7031 55.9949 16.5483
633 1 7.6929 24.1445 1.4591
634 1 13.6712 3.53834 18.491
635 1 51.2507 37.3377 28.5292
636 1 42.5753 0.463897 30.0227
637 1 29.0302 39.5762 8.41741
638 1 -0.264266 33.2075 13.0743
639 1 26.2065 37.2881 37.2326
640 1 13.5641 5.76339 29.2781
641 1 29.9386 28.1199 27.934
642 1 37.5923 34.6967 9.86359
643 1 34.8521 15.4526 34.5168
644 1 14.1259 27.7533 21.7199
645 1 53.5 39.4186 42
646 1 12.0868 1.79385 32.5785
647 1 49.9451 6.36665 41.2834
648 1 30.9353 50.9972 35.7053
649 1 31.5464 8.45455 53.3107
650 1 34.3616 30.5388 27.322
651 1 40.7348 20.5196 43.6949
652 1 39.5883 42.6532 47.3751
653 1 10.1896 47.3405 6.2815
654 1 14.2791 47.3515 9.66961
655 1 51.478 53.1628 8.48922
656 1 55.8945 52.5116 13.8212
657 1 39.1553 32.8409 3.61605
658 1 33.1702 35.957 35.9217
659 1 16.887 4.0489 55.8581
660 1 7.51575 40.1036 -0.0439796
661 1 46.6609 9.20637 25.7495
662 1 0.178654 34.5891 45.9643
663 1 22.629 18.2532 55.5676
664 1 22.2687 15.324 22.3924
665 1 16.3206 49.5062 36.53
666 1 43.627 52.2721 38.9416
667 1 11.2758 13.3875 54.3626
668 1 16.7597 41.0518 17.8463
669 1 24.4879 16.0353 32.5825
670 1 10.7256 43.442 16.0632
671 1 34.2759 28.154 11.9246
672 1 36.2988 5.54673 35.1838
673 1 39.7049 50.6367 21.6376
674 1 25.7086 50.7415 23.3536
675 1 25.9257 19.3998 25.3196
676 1 52.7147 6.36369 19.4194
677 1 23.9018 19.0329 13.8545
678 1 12.7699 30.6103 35.7368
679 1 49.5996 28.9498 24.7403
680 1 28.5355 5.34038 48.9467
681 1 14.365 16.7055 48.9653
682 1 7.2167 43.2502 45.2886
683 1 25.7749 23.3812 53.5327
684 1 27.1799 12.9437 50.5114
685 1 34.8323 30.604 37.8069
686 1 51.5898 41.9743 50.2839
687 1 17.6521 42.891 13.0515
688 1 25.3575 51.1295 16.4309
689 2 45.3347 52.9612 52.4288
690 2 17.1326 46.0893 8.95908
691 2 22.1335 33.0485 41.1745
692 2 35.9113 10.327 5.61835
693 2 34.4149 20.4407 35.3376
694 2 45.7144 45.9671 52.0044
695 2 23.1505 12.9337 53.7301
696 2 45.4374 17.9644 45.9883
697 2 53.0896 47.8646 2.77118
698 2 55.215 38.3245 7.85383
699 2 47.0375 21.7325 -0.258272
700 2 19.4558 10.8443 41.0699
701 2 55.3981 6.55202 26.233
702 2 29.3267 34.3552 30.7396
703 2 44.9271 53.0832 -0.181582
704 2 3.58029 47.5684 22.9822
705 2 10.598 39.5099 40.4615
706 2 30.1382 33.6621 18.6946
707 2 5.28756 28.3 36.1735
708 2 53.251 53.7269 53.9783
709 2 51.5979 1.68183 26.1812
710 2 51.078 17.2495 22.1407
711 1 48.525 32.8078 24.1399
712 1 44.3432 6.44797 7.26666
713 1 35.0193 48.7892 16.2567
714 1 49.467 11.1165 12.4948
715 1 27.6173 50.4112 21.1737
716 1 12.0155 49.1071 54.6245
717 1 27.1637 13.4703 20.5269
718 1 9.59348 39.5277 43.6927
719 1 29.123 45.448 21.152
720 1 33.8278 6.49771 39.4762
721 1 36.913 50.319 13.7065
722 1 37.3421 28.92 49.9497
723 1 37.1616 8.21579 3.94633
724 1 2.71428 29.7987 47.9053
725 1 43.9072 50.0133 3.36326
726 1 39.9592 33.3783 35.5976
727 1 29.0137 32.5352 43.2897
728 1 14.4415 34.5784 3.26068
729 1 44.8918 55.777 25.4134
730 1 24.6597 51.4486 49.7018
731 1 23.1721 4.42087 55.1453
732 1 23.5793 18.178 48.5482
733 1 14.368 25.5788 7.20272
734 1 7.7751 23.7023 31.8013
735 1 39.7127 27.1738 46.3614
736 1 36.472 54.7028 3.97627
737 1 9.45447 50.0134 1.90917
738 1 42.6993 36.6242 47.3322
739 1 32.8904 36.4682 53.2502
740 1 9.68945 25.2781 38.186
741 1 45.7478 21.8037 2.72264
742 1 36.87 30.2398 43.0859
743 1 25.4059 44.3361 55.4305
744 1 30.3664 43.4384 44.0403
745 1 14.8549 9.43498 36.5684
746 1 51.0323 53.8425 17.0462
747 1 9.25014 42.2678 24.7264
748 1 32.8646 19.662 38.2228
749 1 11.6385 16.9532 13.7223
750 1 6.20619 26.3005 6.42431
751 1 20.2384 38.9207 45.4629
752 1 13.2496 24.5103 44.647
753 1 48.8211 43.2515 39.2883
754 1 18.752 36.7381 17.2358
755 1 43.9216 28.982 4.49579
756 1 18.6635 50.7196 48.0648
757 1 44.3952 46.9202 7.87748
758 1 0.51711 29.1668 34.9961
759 1 43.0466 47.513 37.2056
760 1 54.1737 41.2555 50.1703
761 1 10.8685 10.4649 23.3458
762 1 51.0524 0.129287 49.095
763 1 7.9765 44.6806 12.6548
764 1 22.5275 11.1385 56.2356
765 1 41.9926 27.9983 39.7636
766 1 18.5227 50.7193 4.54969
767 1 8.05347 28.7642 55.5861
768 1 14.618 50.2239 47.6408
769 1 39.7116 32.0938 23.6233
770 1 7.71482 54.3554 38.2048
771 1 18.9747 23.7322 27.5333
772 1 44.2679 11.0298 19.0949
773 1 55.1603 8.48984 6.30713
774 1 20.4632 22.1689 33.4604
775 1 17.6692 29.192 42.8561
776 1 34.2098 47.8839 11.0211
777 1 46.4695 34.2573 23.2181
778 1 32.4696 4.10994 2.62329
779 1 28.8086 27.1213 32.551
780 1 48.9584 17.9432 9.78299
781 1 46.5556 17.5056 38.1136
782 1 22.7354 46.829 42.526
783 1 6.05677 45.6087 18.7421
784 1 12.6572 16.2811 34.3452
785 1 20.8596 1.37601 25.6302
786 1 10.7822 13.7453 9.47059
787 1 -0.436055 16.8115 32.7545
788 1 39.6243 53.8867 12.5415
789 1 51.405 14.0462 9.25906
790 1 16.7622 21.2691 16.616
791 1 43.8788 17.6982 38.539
792 1 6.05203 47.931 28.4384
793 1 51.2093 8.83868 16.9279
794 1 5.17888 18.122 41.5751
795 1 46.9765 8.50144 34.883
796 1 22.5106 10.1161 41.7845
797 1 25.5798 40.0426 20.3892
798 1 35.0662 25.6838 40.0254
799 1 50.4168 2.05492 43.9093
800 1 42.0177 15.7974 37.6733
801 1 16.5101 32.1711 35.7488
802 1 9.49103 4.8688 40.491
803 1 11.1861 50.4175 40.9911
804 1 54.5942 4.1904 0.470795
805 1 26.8757 5.1169 8.28438
806 1 52.2702 54.5218 11.0657
807 1 15.3627 1.83341 23.3261
808 1 48.3822 1.33007 45.5727
809 1 4.22586 10.69 14.3655
810 1 23.4141 8.09842 23.9885
811 1 0.415409 33.8645 10.7326
812 1 54.7205 23.8343 13.662
813 1 15.5143 39.5644 42.6593
814 1 56.1639 12.342 4.87453
815 1 48.4047 30.768 19.6939
816 1 43.2199 10.3795 39.0144
817 1 55.6449 29.217 47.7218
818 1 39.2421 30.1284 36.2645
819 1 21.895 53.368 40.0716
820 1 22.1172 35.3073 45.0257
821 1 19.3246 0.800624 8.27958
822 1 32.8513 41.8422 43.8733
823 1 6.60316 28.7589 26.5069
824 1 39.0833 39.0715 51.3696
825 1 27.5014 47.8361 19.3878
826 1 2.70441 6.2245 54.941
827 1 6.37372 38.655 48.9753
828 1 39.397 1.47691 25.7923
829 1 13.1186 54.8626 24.5129
830 1 33.2436 0.90679 1.95778
831 2 13.9902 21.0222 17.7121
832 2 19.0788 6.95912 18.3289
833 2 40.8933 27.9839 11.6562
834 2 5.46949 17.5305 38.2542
835 2 3.28478 6.05551 8.07253
836 2 14.2279 24.2536 25.4658
837 2 33.8081 7.60193 28.2701
838 2 9.63017 44.0836 6.69563
839 2 31.7618 45.021 19.5
840 2 56.0384 10.1455 50.084
841 2 53.6797 35.1024 14.6006
842 2 27.4027 26.3037 54.1596
843 2 33.06 12.6149 32.8524
844 2 33.7144 22.9922 25.3762
845 2 21.6087 8.94802 34.1307
846 2 9.45697 33.0253 46.1888
847 2 39.5131 43.0304 44.2669
848 2 45.7555 49.688 6.96374
849 2 1.05753 31.987 33.3256
850 2 4.94194 6.56747 0.366014
851 2 1.975 38.4882 33.0706
852 2 26.1011 31.3935 42.1964
853 1 45.4156 46.2255 26.3873
854 1 11.5455 29.0004 53.1603
855 1 51.377 9.83476 44.2518
856 1 7.30604 30.9697 0.660448
857 1 41.2825 30.9143 27.5653
858 1 7.07194 10.5012 37.7388
859 1 44.8008 49.5459 21.8358
860 1 25.2146 17.6717 19.9275
861 1 36.5633 27.364 38.9885
862 1 28.6104 47.622 31.6497
863 1 36.8326 44.9513 43.7999
864 1 11.5099 42.5104 40.4774
865 1 13.7519 38.6365 20.7934
866 1 50.4935 29.9712 9.5627
867 1 17.5806 5.97744 47.4299
868 1 23.5708 28.7029 28.5914
869 1 30.4061 13.3302 35.0961
870 1 21.6887 47.5091 56.1223
871 1 36.2603 50.1071 47.3182
872 1 12.6069 54.2312 50.2247
873 1 28.505 53.7411 38.8177
874 1 28.1443 6.89794 56.0401
875 1 32.6581 5.64256 9.73989
876 1 12.5175 17.6215 3.74649
877 1 52.271 30.0597 43.8119
878 1 2.15848 47.164 32.951
879 1 53.0288 16.7028 26.8957
880 1 10.3376 10.9692 10.3169
881 1 50.366 21.19 6.81263
882 1 36.9385 14.5217 15.7477
883 1 21.8171 27.1515 36.9999
884 1 6.86966 54.4233 52.6497
885 1 55.7553 8.50661 36.5892
886 1 16.5743 47.4712 13.9432
887 1 24.9683 1.20857 2.48935
888 1 12.1693 33.2008 43.4123
889 1 13.7768 49.6713 22.4162
890 1 23.2436 53.8144 37.2699
891 1 2.37772 39.806 1.76672
892 1 7.18374 48.7787 9.43226
893 1 9.36405 31.0966 32.2537
894 1 49.4742 51.3679 25.4955
895 1 15.0867 51.8135 8.4999
896 1 34.0039 47.1465 3.63557
897 1 20.8223 48.3134 18.0316
898 1 34.4437 25.5569 0.331029
899 1 7.54711 31.291 26.5285
900 1 14.3639 50.3871 55.136
901 1 30.0683 52.2697 33.0253
902 1 14.1315 14.1512 28.3727
903 1 13.0238 16.8285 27.8635
904 1 17.8836 6.10901 28.1245
905 1 18.5241 51.5575 25.2291
906 1 1.42323 23.1823 54.1295
907 1 14.2896 6.24543 3.09884
908 1 33.3765 24.7124 32.8029
909 1 56.0736 53.4382 22.6589
910 1 52.8299 47.8472 24.8733
911 1 12.1886 11.6208 46.2465
912 1 41.3063 15.2478 11.8556
913 1 48.6305 35.751 36.3042
914 1 16.0989 36.0781 13.4085
915 1 51.9068 30.6268 7.67357
916 1 22.0582 40.502 39.4852
917 1 43.402 55.8462 51.8325
918 1 50.5737 40.148 41.8878
919 1 20.345 43.4669 6.57884
920 1 54.0909 29.2584 30.8051
921 1 14.0092 10.8301 23.4914
922 1 42.8268 9.18859 17.4441
923 1 0.658567 48.6416 23.881
924 1 7.01101 12.0812 20.716
925 1 28.2378 20.3616 47.1311
926 1 35.9136 16.3284 23.1428
927 1 26.7975 12.6271 12.404
928 1 52.8055 49.245 11.1375
929 1 10.4279 -0.201877 32.9454
930 1 13.0582 23.3279 -0.0404952
931 1 28.8492 8.45778 53.865
932 1 45.188 11.5804 24.7925
933 1 26.9081 3.5891 33.703
934 1 46.9507 54.3087 9.02395
935 1 27.8232 33.4968 21.121
936 1 49.1501 5.8764 12.2393
937 1 26.9671 23.694 13.9175
938 1 48.4753 48.6829 30.18
939 1 40.5194 56.0128 35.1962
940 1 44.9195 7.26352 27.1057
941 1 18.7292 55.3028 56.0425
942 1 11.944 13.3993 5.48962
943 1 43.3534 18.9069 50.6354
944 1 42.2524 49.8057 23.2842
945 1 1.53903 19.1569 24.527
946 1 17.1251 34.696 45.4217
947 1 38.1702 56.109 26.4598
948 1 22.8346 3.44674 24.5595
949 1 7.9509 28.7386 40.7697
950 1 28.7981 33.7451 55.7324
951 1 44.2194 13.0728 15.3253
952 1 15.4935 54.6391 40.691
953 1 34.5216 29.3824 54.718
954 1 8.70069 25.8431 -0.448822
955 1 8.98847 6.47799 15.6532
956 1 44.9766 10.0254 4.22872
957 1 51.3195 53.0199 31.5909
958 1 27.0505 -0.259951 47.603
959 1 9.43946 38.6078 17.5524
960 1 26.8329 6.44347 20.4063
961 1 37.7523 27.7302 44.3929
962 1 14.4616 35.2346 0.557052
963 1 37.8984 21.9273 17.8855
964 1 14.6664 15.5612 36.3191
965 1 55.5497 31.6471 20.3104
966 1 0.395392 20.6914 1.96901
967 1 20.276 53.5991 32.0346
968 1 45.3408 18.0681 30.5415
969 1 1.32964 35.0857 29.0376
970 1 12.8374 28.1045 40.8666
971 1 8.19014 15.4745 45.7051
972 1 11.3934 6.03311 45.8899
973 2 26.0588 39.724 39.3907
974 2 48.5297 6.3965 53.2768
975 2 7.45305 30.5014 47.7173
976 2 12.4565 19.2813 50.1966
977 2 23.1424 47.9797 15.7287
978 2 5.01441 23.7562 8.25997
979 2 44.5362 1.41578 32.7367
980 2 27.9471 29.91 33.6632
981 2 21.6347 21.9201 18.4907
982 2 9.54211 55.0604 0.130234
983 2 11.9477 51.2846 49.6665
984 2 43.2761 17.4349 11.2535
985 2 32.6112 53.5433 28.1363
986 2 35.2128 36.7402 18.1506
987 2 37.8533 38.2267 26.2914
988 2 33.4249 6.82083 35.8037
989 2 15.1422 51.3717 20.316
990 2 20.1058 8.75366 56.2952
991 2 55.4131 51.553 37.3548
992 2 24.6512 18.2662 30.2599
993 2 8.57666 3.24736 14.518
994 2 26.9501 55.5508 19.6543
995 1 26.0304 8.31779 55.0519
996 1 52.0989 30.845 51.786
997 1 52.873 6.4978 24.0988
998 1 53.2885 27.6473 47.8649
999 1 16.8707 26.9328 15.1526
1000 1 -0.0101937 45.8676 13.5744
1001 1 28.8921 42.0927 10.1635
1002 1 6.07937 53.2814 5.09238