ITEM: TIMESTEP
0
ITEM: NUMBER OF ATOMS
9088
ITEM: BOX BOUNDS pp pp pp
-1.4086049411316046e-01 5.6025353120010536e+01
-1.4086049411316046e-01 5.6025353120010536e+01
-1.4086049411316046e-01 5.6025353120010536e+01
ITEM: ATOMS id type x y z
1 1 28.5505 40.8516 49.2349
2 1 44.268 4.49962 36.4671
3 1 41.6433 12.9679 49.9919
4 1 36.9434 49.1518 43.7474
5 1 11.6232 34.2593 8.3098
6 1 35.9189 25.5584 22.0424
7 1 19.8479 33.1418 1.13469
8 1 48.2348 1.57054 9.39385
9 1 55.519 50.1291 39.9226
10 1 36.9891 13.6249 53.6393
11 1 48.4944 35.8485 32.5954
12 1 35.7382 19.4444 36.7824
13 1 21.734 48.6981 36.9787
14 1 19.8624 49.3381 49.8795
15 1 3.21995 36.7631 30.2606
16 1 26.728 0.709125 38.799
17 1 50.3116 9.96943 28.1112
18 1 3.9768 47.8919 36.2086
19 1 30.2393 23.9927 51.8266
20 1 31.178 2.45021 44.8308
21 1 25.379 48.968 50.4152
22 1 9.59233 41.5213 1.89947
23 1 21.7801 17.6988 38.0521
24 1 3.51991 7.86741 55.2791
25 1 26.0538 27.2499 38.8021
26 1 19.866 28.0467 43.2782
27 1 34.7688 29.2596 54.3478
28 1 13.6278 32.6896 15.2855
29 1 10.8736 50.1839 40.1499
30 1 49.0243 7.38407 44.3819
31 1 30.6817 4.86558 0.233671
32 1 33.9377 5.5027 23.1628
33 1 24.3723 41.6816 2.70415
34 1 14.6996 24.6607 1.84405
35 1 19.9919 51.1213 40.6006
36 1 16.5636 32.2646 19.1461
37 1 23.5627 55.6131 47.0333
38 1 23.7559 21.1292 5.90516
39 1 13.3942 26.155 0.134772
40 1 8.73872 11.4453 47.8444
41 1 46.8763 41.0867 1.2603
42 1 5.75778 39.1763 14.9696
43 1 22.0239 16.8917 9.66265
44 1 50.6552 51.9335 23.8428
45 1 13.1019 43.521 55.8232
46 1 -0.0490747 17.8317 10.9229
47 1 42.4178 6.2897 32.0481
48 1 18.5185 30.6656 19.9084
49 1 7.33777 19.9351 32.7124
50 1 18.3767 19.4691 20.5661
51 1 50.0584 32.3433 30.5652
52 1 22.3307 10.5994 37.5451
53 1 52.5075 20.4274 1.3602
54 1 52.0974 17.7435 42.7254
55 1 39.6161 44.9332 29.5166
56 1 11.5686 25.5866 44.7256
57 1 6.97936 33.1388 34.5415
58 1 37.4048 11.7091 21.6892
59 1 5.46532 30.4251 28.5718
60 1 36.2202 32.577 54.7983
61 1 11.9738 27.1773 54.0521
62 1 52.8347 22.2879 24.3809
63 1 49.088 43.2443 28.7547
64 1 22.3187 4.33565 16.1473
65 1 11.2567 42.4682 47.8739
66 1 8.11321 44.8795 10.1588
67 1 12.258 43.1805 53.0939
68 1 11.5372 33.7126 52.4108
69 1 37.6277 38.145 45.8943
70 1 2.19188 28.0645 5.04087
71 1 51.7533 46.9666 28.1277
72 1 55.3906 29.5404 1.62318
73 1 25.6811 46.2998 4.8019
74 1 4.68558 33.6594 47.128
75 1 37.8062 19.4887 5.3546
76 1 38.4869 23.8427 6.09286
77 1 47.3414 40.2605 32.0673
78 1 33.8851 40.7199 10.44
79 1 31.7671 23.5747 42.7551
80 1 39.4987 0.314588 30.6241
81 1 17.5098 27.7808 54.314
82 1 50.6116 1.44594 24.0012
83 1 8.3157 14.7551 27.7489
84 1 36.4528 2.13457 4.08313
85 1 39.4526 10.7889 38.5234
86 1 34.5434 34.0111 34.8642
87 1 25.858 8.22662 32.0897
88 1 15.9939 11.5452 13.0406
89 1 7.02627 47.9852 39.3206
90 1 1.26925 39.6547 51.3599
91 1 17.8517 8.01562 21.8111
92 1 10.0929 11.9611 19.3696
93 1 38.3933 9.78136 11.2198
94 1 35.7165 34.1693 28.9213
95 1 40.5743 24.4626 18.8379
96 1 7.21313 -0.108304 13.9044
97 1 3.52528 8.74699 32.7882
98 1 18.1675 12.8396 30.2188
99 1 42.184 36.6166 5.59504
100 1 3.40887 6.15038 26.9858
101 1 0.501261 33.7179 47.2219
102 1 5.40659 1.41244 12.4933
103 1 41.7056 43.2337 55.9157
104 1 14.7015 54.8728 39.3643
105 1 31.4038 14.0838 10.933
106 1 19.3036 48.1545 47.5645
107 1 32.6019 0.289186 45.3149
108 1 46.5347 17.251 47.2492
109 1 10.3127 45.5263 16.8571
110 1 31.3413 9.05665 10.8297
111 1 37.5334 54.2851 15.2172
112 1 5.40909 5.58134 10.1612
113 1 28.7533 33.179 11.3891
114 1 24.2995 16.9048 40.0921
115 1 42.9373 34.5172 31.1195
116 1 32.1369 6.02721 37.9948
117 1 0.00503208 12.4632 40.3621
118 1 1.58942 43.8635 31.5892
119 1 36.1077 35.9722 33.9137
120 1 15.0386 1.65171 39.8856
121 2 11.9444 38.7015 35.3453
122 2 51.246 18.5614 12.6944
123 2 55.0761 46.5775 20.9013
124 2 52.5899 29.6699 19.8515
125 2 53.8123 35.4941 38.6532
126 2 25.0938 7.67585 17.6043
127 2 12.3976 51.3158 15.7716
128 2 7.67629 30.1092 35.2424
129 2 55.1377 18.0178 7.83363
130 2 1.53873 21.1163 45.9433
131 2 51.9989 11.9486 47.2211
132 2 39.1374 46.5189 17.7359
133 2 34.7123 42.7509 16.3261
134 2 15.2643 5.35539 8.93428
135 2 42.6956 33.9393 3.74042
136 2 9.9807 0.715481 31.84
137 2 40.7747 24.2918 46.3588
138 2 5.29787 4.61421 49.2111
139 2 31.2277 14.9175 13.9353
140 2 45.3629 27.2838 38.9898
141 2 8.01648 38.4172 22.7957
142 2 29.7216 23.5728 40.1921
143 1 47.0041 19.7426 46.031
144 1 29.4053 17.5956 13.4318
145 1 54.0657 12.5698 6.71732
146 1 52.2404 26.7183 15.3781
147 1 29.2645 28.0897 32.6217
148 1 27.1223 10.178 38.6349
149 1 46.3514 6.42213 44.6301
150 1 24.9816 25.5906 9.47984
151 1 50.0353 24.3052 53.9942
152 1 10.1564 33.6456 45.4096
153 1 49.7493 48.4088 29.3099
154 1 43.0446 41.8062 30.6686
155 1 32.43 18.5193 10.5553
156 1 8.18888 33.1241 9.43076
157 1 51.5311 33.8868 22.287
158 1 37.4761 5.42184 0.323971
159 1 54.82 47.8466 13.7511
160 1 49.2382 2.54571 2.33078
161 1 10.6543 25.5309 21.5512
162 1 13.1931 12.8284 43.9795
163 1 20.0553 21.4965 26.4867
164 1 55.7906 38.3695 12.0807
165 1 51.4311 35.6137 6.76432
166 1 45.1602 41.488 14.788
167 1 31.3973 39.7121 46.2537
168 1 36.8792 7.90028 43.256
169 1 28.1541 50.5654 39.1499
170 1 39.5231 33.8932 47.1702
171 1 28.6243 32.9225 23.6065
172 1 21.3323 43.6975 28.4651
173 1 14.1866 39.752 10.0572
174 1 35.4315 1.79596 32.3268
175 1 18.7466 28.0275 16.3922
176 1 39.6864 37.0347 6.66114
177 1 9.96348 5.01209 24.9511
178 1 18.6529 5.53883 8.79131
179 1 27.1643 45.0595 47.7805
180 1 55.3024 26.9319 8.52484
181 1 48.5718 42.765 31.534
182 1 49.7348 30.2873 52.6603
183 1 13.5319 20.6556 4.14156
184 1 25.8247 52.8084 12.196
185 1 33.4853 10.2236 34.3808
186 1 43.8746 26.4183 26.4744
187 1 1.6218 6.9849 53.3447
188 1 28.6383 39.1317 3.40082
189 1 13.3406 41.1966 34.1209
190 1 35.5271 48.7487 21.7272
191 1 20.5608 18.9309 45.9319
192 1 50.1257 -0.124188 7.98643
193 1 37.1639 8.85596 13.6709
194 1 35.9951 3.97212 30.9594
195 1 24.7713 27.5587 1.41839
196 1 35.0132 5.35967 26.2746
197 1 7.18263 9.21642 49.3356
198 1 12.6003 18.9684 28.7204
199 1 31.6418 18.8646 3.18375
200 1 39.6734 20.5652 41.2216
201 1 26.6481 13.1725 16.1184
202 1 39.1429 2.1094 2.86105
203 1 31.2308 27.7259 37.1111
204 1 40.9847 27.2627 19.4191
205 1 8.1337 12.533 2.84675
206 1 39.3612 25.4404 24.4798
207 1 0.172925 44.8167 45.6489
208 1 32.0443 5.12378 10.8182
209 1 47.5357 6.7935 46.9702
210 1 27.4277 21.5282 41.7698
211 1 8.66029 5.72493 21.7913
212 1 43.2925 27.467 43.3981
213 1 22.4065 12.4803 51.1951
214 1 1.12341 37.6682 2.59027
215 1 11.5412 27.6764 22.8485
216 1 0.209566 24.6262 50.8607
217 1 21.9981 9.00266 35.4103
218 1 1.54029 9.76768 54.1701
219 1 43.9834 51.5841 6.01196
220 1 44.5103 8.30487 43.8894
221 1 30.5835 0.645161 17.1726
222 1 2.47304 7.77354 21.3613
223 1 26.1096 44.1207 2.93794
224 1 42.4174 8.92616 25.4201
225 1 43.9383 48.9427 38.1764
226 1 12.8469 42.0143 25.4538
227 1 20.38 45.8994 33.273
228 1 -0.105432 20.2127 52.7983
229 1 10.9183 27.273 42.8081
230 1 30.9246 29.8741 41.2197
231 1 31.8331 35.3197 25.2844
232 1 40.8156 17.2021 17.9276
233 1 50.7839 50.1043 38.2042
234 1 10.7975 14.1357 51.0028
235 1 41.502 18.5583 42.1521
236 1 6.83987 47.5288 29.4151
237 1 52.9941 29.4946 23.2276
238 1 39.2014 1.55024 -0.0782997
239 1 33.9575 28.6701 6.20759
240 1 9.38596 33.0748 51.0259
241 1 20.3272 48.9992 10.804
242 1 32.9321 10.9602 3.06306
243 1 7.53783 24.3889 33.399
244 1 55.7196 42.4432 7.67417
245 1 1.60592 27.8311 20.0454
246 1 54.0565 5.66416 5.77047
247 1 54.2162 49.0494 10.9315
248 1 43.8009 0.546114 45.6769
249 1 10.7 44.9145 48.8094
250 1 23.421 24.5384 18.1145
251 1 17.8456 39.4221 3.99105
252 1 47.6208 16.6982 38.8102
253 1 2.95445 27.1087 47.993
254 1 9.39748 8.69765 32.4765
255 1 55.0051 9.16871 18.1134
256 1 30.8823 47.4343 24.531
257 1 1.46079 12.3487 35.1109
258 1 33.4135 18.5459 27.7838
259 1 45.5723 45.884 54.8571
260 1 24.8652 41.3598 34.0169
261 1 32.0414 10.5266 39.7285
262 1 23.7389 44.052 8.32787
263 2 43.8607 24.8499 29.3367
264 2 25.5159 47.2487 1.62224
265 2 49.8757 7.22326 48.9721
266 2 7.11285 24.5495 38.5214
267 2 14.6769 21.4116 1.30853
268 2 4.64974 3.31858 24.7642
269 2 15.0826 2.51143 16.5279
270 2 44.3596 43.4402 53.4321
271 2 53.9425 44.5769 26.2031
272 2 33.3045 40.5055 13.859
273 2 33.1627 6.13856 34.7968
274 2 52.7612 27.1879 30.6017
275 2 27.2057 7.09234 52.9951
276 2 -0.14035 13.9706 4.42714
277 2 1.24881 43.0086 39.3429
278 2 11.8204 34.5407 18.6447
279 2 43.8362 51.3129 46.566
280 2 19.6171 55.4147 22.0374
281 2 41.4065 17.0058 14.7574
282 2 15.1302 28.8742 8.22169
283 2 46.6278 47.67 28.7745
284 2 16.9511 27.1283 34.7665
285 1 4.8743 35.1821 5.6836
286 1 49.7091 34.7131 20.5024
287 1 44.5766 1.80053 36.0551
288 1 20.0755 16.8411 29.9031
289 1 22.7483 31.4625 4.43392
290 1 50.7123 12.8163 24.1805
291 1 17.9652 43.489 34.2581
292 1 40.7288 5.61046 44.149
293 1 54.4216 19.6322 55.3496
294 1 30.8567 32.6026 41.7625
295 1 47.1174 25.3032 29.7114
296 1 12.4487 32.1962 35.357
297 1 48.3718 14.2111 34.1283
298 1 30.9223 22.2009 13.1775
299 1 31.7788 18.6578 17.9782
300 1 24.5684 31.7867 9.56514
301 1 24.7991 49.8521 23.2334
302 1 46.5307 33.5837 25.8965
303 1 53.91 3.36573 1.61519
304 1 13.7187 34.4963 53.6688
305 1 25.4964 38.4371 23.2105
306 1 28.8362 52.0881 32.7318
307 1 5.10733 40.0667 32.1735
308 1 39.7044 53.7988 45.224
309 1 49.4764 30.8802 28.5151
310 1 10.4145 53.0214 38.4642
311 1 38.1417 35.1162 5.66032
312 1 10.3601 8.04479 26.0112
313 1 5.16464 55.3665 18.0885
314 1 29.0641 47.5288 53.0003
315 1 4.59305 6.44449 14.8139
316 1 43.9391 10.6235 10.903
317 1 30.5147 31.8334 39.045
318 1 5.99288 23.1888 11.4935
319 1 3.21349 2.44684 18.3418
320 1 19.066 33.7755 25.3947
321 1 25.9702 38.6189 34.0628
322 1 55.2113 21.7822 22.8639
323 1 11.3825 10.8208 33.0087
324 1 18.589 8.77673 32.3285
325 1 21.7546 46.0309 43.0964
326 1 16.7725 32.0824 40.9344
327 1 12.6778 8.98371 34.977
328 1 0.555947 8.18 36.7689
329 1 4.3331 25.5134 44.9031
330 1 7.86284 30.7745 30.233
331 1 15.7046 39.3294 52.4003
332 1 0.681981 44.1989 11.8573
333 1 16.2629 13.5456 10.7007
334 1 33.5632 35.1202 22.8591
335 1 35.4599 13.2576 51.1809
336 1 49.9861 21.3874 12.937
337 1 0.997883 34.2547 7.66062
338 1 9.63932 22.9895 22.1792
339 1 14.9915 24.3384 44.6077
340 1 25.0489 23.3866 26.1765
341 1 26.6542 51.0764 25.2563
342 1 0.265516 27.0986 17.8242
343 1 35.9223 14.1335 27.6091
344 1 33.0876 15.864 11.5783
345 1 48.7449 16.7748 3.99253
346 1 0.179361 6.73847 23.5469
347 1 19.9804 18.5351 11.1296
348 1 12.8933 10.6656 22.8412
349 1 4.53467 36.9385 10.3431
350 1 1.90115 53.5612 51.2052
351 1 44.9242 35.7018 5.33206
352 1 18.7561 8.58687 52.126
353 1 24.4138 34.621 53.7014
354 1 46.5544 37.0944 39.5059
355 1 48.7986 28.4494 38.7017
356 1 9.7273 40.043 42.8123
357 1 20.1335 49.9743 52.7873
358 1 21.8189 24.1051 36.4854
359 1 29.0413 44.7481 45.9664
360 1 16.5167 38.017 45.4089
361 1 40.3499 22.3848 43.6949
362 1 0.304044 53.9396 4.71022
363 1 44.3471 18.3417 14.6613
364 1 40.8826 0.554628 32.9525
365 1 40.1951 45.2689 6.88324
366 1 15.6197 34.6037 14.5489
367 1 50.6073 46.8655 38.2179
368 1 40.3629 44.9723 26.6343
369 1 33.2751 14.4636 16.2847
370 1 3.48922 40.8711 50.501
371 1 19.4853 28.0082 48.9149
372 1 13.53 22.4956 33.7322
373 1 21.6117 0.0571951 38.3655
374 1 47.1054 50.2387 2.65146
375 1 4.37432 52.8507 35.0438
376 1 42.64 48.7228 24.9102
377 1 6.00065 23.9548 55.1202
378 1 29.1241 52.6811 21.3354
379 1 51.4911 39.2828 20.3839
380 1 10.9264 13.3002 26.9232
381 1 26.1852 50.2272 29.1903
382 1 55.1476 22.7412 8.34215
383 1 12.686 23.2605 23.1385
384 1 49.3515 16.6064 32.9116
385 1 29.7641 9.11424 19.6869
386 1 36.2177 38.9945 23.3343
387 1 21.2241 33.8104 39.1406
388 1 24.3697 7.06549 40.2046
389 1 26.8444 11.1053 14.3652
390 1 45.3196 48.682 31.8231
391 1 7.00069 9.22403 7.03353
392 1 48.349 48.9729 37.3013
393 1 3.48038 27.9687 1.04705
394 1 3.02013 37.8452 46.7237
395 1 54.902 7.77649 48.0516
396 1 14.7318 5.19125 23.9529
397 1 49.7349 25.9492 22.3373
398 1 21.7562 28.8764 4.01373
399 1 6.99204 54.0499 41.8494
400 1 35.6505 42.9802 27.427
401 1 18.6664 30.7791 24.8988
402 1 31.7104 48.0922 43.5697
403 1 13.3011 42.5358 28.4249
404 1 26.6571 34.8524 45.8916
405 2 19.8444 8.14476 14.2794
406 2 36.1 30.8871 7.87357
407 2 34.391 13.1359 12.9935
408 2 24.8568 49.6465 12.9551
409 2 46.8414 0.282665 16.6076
410 2 36.6629 49.1098 16.3544
411 2 5.76469 41.5402 17.0429
412 2 53.5426 8.92714 35.7479
413 2 31.0104 21.7312 45.2099
414 2 12.7153 35.0345 47.585
415 2 55.3643 51.602 8.96347
416 2 51.8156 42.9714 55.0393
417 2 44.2479 4.97386 10.304
418 2 7.5862 35.8772 11.273
419 2 15.6254 54.4678 22.3745
420 2 23.8735 23.1318 23.2147
421 2 41.3637 49.3105 9.82185
422 2 32.1831 16.1907 8.28041
423 2 7.97618 0.441159 43.2649
424 2 52.1088 10.6413 4.94263
425 2 48.0403 51.8869 38.9651
426 2 37.3234 8.42127 38.21
427 1 29.6726 30.2781 -0.105887
428 1 4.05656 53.5116 52.5132
429 1 55.833 27.6413 51.0084
430 1 51.8451 54.9058 9.94867
431 1 19.9936 47.6748 26.2171
432 1 42.7673 8.25212 6.65834
433 1 39.7701 24.653 13.6107
434 1 13.1955 22.409 43.9986
435 1 23.0118 52.1769 8.53799
436 1 32.4657 31.8141 48.3958
437 1 26.3181 24.3828 33.4531
438 1 46.885 3.23161 35.3172
439 1 1.55099 38.1739 53.9932
440 1 9.02034 25.3771 29.3943
441 1 22.5801 14.3139 11.0026
442 1 42.8984 18.6176 17.1031
443 1 41.9688 10.5733 27.4374
444 1 51.5275 42.1376 47.6147
445 1 5.46654 14.8555 17.706
446 1 38.5146 31.5984 39.9351
447 1 20.8681 51.9961 10.3511
448 1 44.1664 2.72707 55.8367
449 1 53.9711 7.07937 29.2177
450 1 51.2962 33.2657 0.413757
451 1 27.7873 49.3984 14.4113
452 1 48.1897 12.2517 22.6251
453 1 9.30118 21.2752 34.0027
454 1 5.62993 35.4724 51.9143
455 1 7.2433 22.1448 23.5654
456 1 46.4282 3.74245 51.3115
457 1 53.3094 39.0138 18.3826
458 1 27.3375 20.2798 36.5305
459 1 2.9141 34.7809 9.80971
460 1 29.4913 0.445749 34.1925
461 1 8.08387 16.7007 17.4683
462 1 48.5265 27.6726 9.33528
463 1 15.4094 2.28768 7.37283
464 1 31.6678 52.4653 22.7551
465 1 7.82028 46.7119 17.7325
466 1 5.13015 47.6792 5.31737
467 1 47.2371 11.1933 38.0726
468 1 44.9271 54.059 7.02945
469 1 14.9197 43.2888 24.489
470 1 28.482 0.377315 14.9352
471 1 26.9771 9.86911 3.42212
472 1 15.1836 38.1765 28.0775
473 1 48.4694 38.7391 46.7139
474 1 39.8863 12.6942 16.9296
475 1 23.0431 25.3259 20.739
476 1 12.2288 21.7842 40.1131
477 1 48.8465 3.27596 37.1792
478 1 41.7254 7.57514 13.8829
479 1 55.4347 25.9423 35.2614
480 1 40.8037 8.27544 3.91951
481 1 25.5196 1.43728 51.0277
482 1 30.0275 37.1271 22.7437
483 1 46.1498 19.4764 34.1527
484 1 5.93797 37.2012 7.28111
485 1 18.5063 45.4327 25.2334
486 1 46.9563 7.99511 42.5455
487 1 21.1884 12.8056 22.1096
488 1 5.94948 47.3237 25.3352
489 1 2.86182 44.4372 13.6804
490 1 24.3384 49.7679 26.0979
491 1 13.423 29.8665 47.1634
492 1 26.9415 24.3837 41.4755
493 1 44.1516 30.4048 33.9367
494 1 4.88477 54.5392 13.543
495 1 11.9541 33.8468 13.1678
496 1 39.0119 17.9546 37.2129
497 1 7.38539 17.2688 32.0914
498 1 19.4887 20.593 8.67345
499 1 33.9831 29.825 20.2653
500 1 51.7594 3.31677 36.2898
501 1 16.4347 50.8444 43.4667
502 1 50.704 42.8814 7.04937
503 1 42.4529 21.2014 42.5504
504 1 40.0705 47.0402 32.1326
505 1 38.5724 27.6016 4.09128
506 1 22.2536 27.493 41.7954
507 1 53.3609 54.4124 32.4044
508 1 10.6467 43.0114 17.5033
509 1 53.263 29.1424 8.33595
510 1 30.54 0.743621 3.71637
511 1 49.9951 5.70953 6.24225
512 1 14.294 50.5469 12.6541
513 1 33.4768 30.3025 29.3103
514 1 28.5922 27.847 21.152
515 1 29.4335 12.5553 27.4787
516 1 5.31108 40.5564 37.2726
517 1 16.01 3.09189 -0.0449729
518 1 24.4559 12.1891 13.6402
519 1 8.04237 11.9647 45.0856
520 1 36.0848 17.6189 4.66279
521 1 45.973 24.8917 32.1338
522 1 7.5198 17.2033 0.854206
523 1 38.5379 1.9043 25.7928
524 1 40.1036 51.9181 32.2261
525 1 25.6486 41.4482 22.3329
526 1 26.6955 15.7928 30.4658
527 1 29.1872 54.4723 23.5796
528 1 2.41162 6.75762 6.40532
529 1 40.1982 8.60781 33.6092
530 1 38.031 16.8667 18.468
531 1 39.2487 8.12971 48.6321
532 1 35.1756 9.92429 11.8743
533 1 43.1174 6.22788 20.5654
534 1 19.6538 35.8412 20.4744
535 1 43.1616 2.81769 38.2137
536 1 39.0051 22.5902 15.655
537 1 19.0414 22.4116 20.9344
538 1 6.77517 27.3667 2.68022
539 1 28.5979 37.8641 33.2733
540 1 48.3165 12.2848 16.2803
541 1 42.668 5.93164 7.82302
542 1 32.9754 47.7859 35.742
543 1 38.0084 44.843 34.9017
544 1 31.545 34.8265 15.2509
545 1 51.632 24.6588 5.7398
546 1 23.6579 50.9264 41.0056
547 2 15.5375 40.8985 26.6794
548 2 13.0096 46.651 1.45899
549 2 34.7695 47.7981 25.5929
550 2 55.4958 51.4267 12.8745
551 2 52.5727 7.11859 16.9724
552 2 10.0819 6.95745 35.3663
553 2 37.4905 10.1691 16.8515
554 2 23.3875 5.73916 53.078
555 2 14.868 13.0161 21.5027
556 2 12.7774 41.5807 42.9783
557 2 13.9673 5.73438 33.9513
558 2 17.372 33.0123 3.33699
559 2 40.0415 17.0614 21.1289
560 2 5.12047 16.314 29.4762
561 2 38.5567 12.7115 50.9325
562 2 4.03788 19.6407 28.6045
563 2 30.0185 46.7954 34.8124
564 2 16.8064 5.00148 39.8671
565 2 20.1576 22.241 34.771
566 2 31.1953 13.6825 38.9375
567 2 44.5706 38.4466 0.685775
568 2 43.5539 18.166 20.3092
569 1 14.7291 1.36786 19.4409
570 1 52.177 36.9463 49.5487
571 1 20.4199 14.2778 5.89601
572 1 46.3644 15.0169 53.2426
573 1 15.625 15.6165 25.9139
574 1 30.3159 46.0434 17.2602
575 1 30.4019 49.7677 41.9601
576 1 14.1718 -0.100954 11.015
577 1 1.91227 6.48601 15.447
578 1 55.1409 39.8441 44.5017
579 1 33.9519 44.7639 48.1848
580 1 20.8873 31.9458 6.50932
581 1 37.6608 10.5021 29.2108
582 1 12.119 41.5974 37.9381
583 1 45.3395 25.6338 18.061
584 1 29.0894 40.8582 29.5796
585 1 33.2723 8.11851 23.2908
586 1 55.4055 0.120792 31.1522
587 1 10.9199 1.73762 7.2841
588 1 9.15049 44.0196 46.7853
589 1 34.3935 47.2531 49.5479
590 1 55.9685 7.38111 6.87368
591 1 12.9382 9.58051 31.0659
592 1 52.8021 33.1808 6.50385
593 1 18.8987 25.0302 33.6343
594 1 2.83304 42.246 41.9374
595 1 34.3178 12.1797 43.8526
596 1 3.46693 5.00849 39.1047
597 1 28.9449 51.6314 7.68393
598 1 48.8608 47.1798 25.2804
599 1 5.20968 3.83296 13.7307
600 1 11.6499 32.2738 4.42257
601 1 21.9244 42.3812 54.0351
602 1 3.02909 42.3608 15.6019
603 1 26.7441 35.3314 51.9815
604 1 5.49387 21.7644 30.28
605 1 28.3187 43.1522 27.587
606 1 27.6343 46.7638 30.2914
607 1 38.9631 14.2425 33.6224
608 1 37.2696 4.72086 49.2661
609 1 33.9995 30.4881 12.853
610 1 43.4279 5.63924 44.982
611 1 20.937 44.8802 30.8539
612 1 18.0619 46.7405 45.5101
613 1 3.32343 51.3059 1.19966
614 1 53.7508 33.4032 10.769
615 1 5.89518 42.5232 41.389
616 1 38.6069 3.59105 54.3782
617 1 16.2166 11.8034 51.9449
618 1 5.5719 55.3703 53.7152
619 1 36.6573 11.4658 26.8688
620 1 28.5439 26.8353 25.5957
621 1 52.8505 8.70653 27.3916
622 1 3.8507 29.8304 44.106
623 1 14.9797 44.2835 12.0817
624 1 27.7694 9.32846 55.0856
625 1 10.0515 15.2034 25.2041
626 1 39.5933 27.484 22.5136
627 1 33.1382 37.9669 1.64384
628 1 31.6744 10.2175 17.5072
629 1 41.9183 46.2449 10.9665
630 1 39.4696 55.6219 22.3366
631 1 43.6017 29.0957 13.884
632 1 4.74996 32.3266 26.8624
633 1 15.9571 6.38179 49.519
634 1 48.0011 45.6214 17.8491
635 1 29.6341 44.8914 23.4945
636 1 5.96637 6.93015 17.2617
637 1 0.555281 14.9854 39.7926
638 1 32.7233 47.4231 55.5362
639 1 28.6216 5.17502 4.70357
640 1 22.0663 53.5837 6.3472
641 1 55.8051 47.714 35.5745
642 1 53.5556 18.5146 10.4691
643 1 41.3817 27.8735 24.734
644 1 20.2799 42.4861 45.9255
645 1 0.621712 19.571 40.945
646 1 13.171 31.2561 12.6361
647 1 3.27127 29.6479 8.66218
648 1 19.4737 17.0366 5.15161
649 1 20.6331 20.3121 19.5264
650 1 15.1223 4.10087 3.10527
651 1 30.2246 33.3969 33.2397
652 1 50.7607 13.4666 39.8312
653 1 52.0609 30.6218 51.1902
654 1 29.6317 33.9658 55.9871
655 1 40.9107 4.65481 30.3063
656 1 36.586 52.0602 39.9288
657 1 55.6364 34.7403 20.7466
658 1 24.668 8.46421 54.6954
659 1 38.7306 39.9066 50.2061
660 1 1.63457 43.8548 6.69819
661 1 46.0054 36.3405 12.9384
662 1 15.7911 41.7341 44.258
663 1 20.0072 35.8571 37.3847
664 1 52.8894 16.8026 28.0626
665 1 34.0557 42.8432 22.7157
666 1 15.2565 9.13227 26.1887
667 1 35.6671 16.939 28.233
668 1 47.4933 12.3999 44.2928
669 1 51.0501 22.8294 15.5984
670 1 47.0218 3.32922 11.1957
671 1 32.4837 4.52386 25.1767
672 1 1.92447 18.6372 8.96487
673 1 11.572 4.1701 35.6765
674 1 46.0346 51.3681 7.66549
675 1 23.3218 7.94601 33.0764
676 1 53.9207 16.7566 23.9434
677 1 55.6974 35.9623 54.1978
678 1 15.8586 55.7282 17.6057
679 1 52.6777 12.2354 22.3191
680 1 28.5054 32.3348 45.8869
681 1 0.421177 26.1381 48.7843
682 1 7.21718 3.22517 44.7474
683 1 43.0817 12.983 21.0552
684 1 38.4421 32.4131 37.2968
685 1 22.7259 54.9964 15.0823
686 1 44.4506 14.9286 11.4411
687 1 46.8827 55.0394 28.2587
688 1 20.5285 7.26854 33.5132
689 2 21.724 49.4588 24.0654
690 2 30.0554 50.2121 10.1906
691 2 34.3835 26.9929 38.9705
692 2 8.31105 42.3977 49.2954
693 2 44.8024 48.179 22.4677
694 2 2.93217 51.1763 54.2201
695 2 17.7449 15.2349 45.1179
696 2 16.2768 40.8568 8.28315
697 2 1.52411 18.2828 35.9722
698 2 17.0905 18.7552 6.99673
699 2 44.7279 11.6585 39.9726
700 2 38.3627 4.9737 3.80951
701 2 53.5132 27.5766 5.56195
702 2 36.037 28.9171 27.2307
703 2 48.8641 45.7283 44.1503
704 2 54.315 12.8837 17.58
705 2 2.73877 36.8294 7.55092
706 2 2.15875 40.5042 44.4358
707 2 47.7232 17.2004 19.0452
708 2 43.3539 54.2824 0.827574
709 2 44.1787 30.406 42.362
710 2 52.8945 48.4326 30.9014
711 1 36.928 2.18739 46.1708
712 1 17.9627 25.407 48.9108
713 1 1.0788 49.2346 44.0365
714 1 37.7659 30.2869 25.0843
715 1 0.885328 11.2066 44.4039
716 1 3.02113 15.9142 51.0667
717 1 47.2921 0.971557 3.58039
718 1 4.68543 41.838 55.6055
719 1 42.1356 16.9031 52.4036
720 1 19.3112 16.5172 13.3034
721 1 31.233 6.41404 5.17952
722 1 31.9818 37.7016 55.4001
723 1 19.2699 15.1526 15.8201
724 1 48.3142 37.3535 53.6843
725 1 13.0335 45.8152 34.9603
726 1 29.8744 41.2266 41.5416
727 1 32.4353 55.3386 18.7547
728 1 28.0869 0.609803 55.388
729 1 41.0066 1.62163 51.9887
730 1 5.24114 7.1361 37.682
731 1 53.9997 11.12 20.2256
732 1 12.8511 1.15848 14.7941
733 1 35.8532 53.0306 54.9493
734 1 37.2008 43.6644 17.9431
735 1 39.9295 9.70062 1.50431
736 1 51.7578 19.1379 50.5082
737 1 30.9869 41.8422 27.6129
738 1 0.609171 11.6954 6.80022
739 1 21.8525 16.9473 3.31994
740 1 40.5 35.2874 49.3938
741 1 53.7967 9.51176 32.7123
742 1 18.8278 40.5426 6.36307
743 1 44.6739 29.4489 26.995
744 1 33.4041 55.4147 40.1363
745 1 45.0561 12.5685 13.0613
746 1 20.4908 17.7825 20.9163
747 1 0.670629 3.26545 36.3373
748 1 46.2739 54.7881 2.57802
749 1 17.1943 13.0459 42.6724
750 1 23.5036 18.7191 2.06565
751 1 18.9426 32.6316 33.8741
752 1 14.9268 47.9006 38.9148
753 1 20.2356 9.87705 43.5282
754 1 36.3646 53.9888 27.1215
755 1 29.3056 18.0647 18.2636
756 1 31.345 49.124 53.6503
757 1 6.96032 19.5603 29.9497
758 1 54.8621 27.1668 20.0555
759 1 44.821 6.97267 18.5634
760 1 19.2276 32.393 54.4276
761 1 48.5003 15.3183 46.412
762 1 30.5853 52.5155 12.1379
763 1 24.4955 17.9771 8.96737
764 1 18.3816 13.2291 21.4493
765 1 42.3547 19.97 40.128
766 1 19.5269 35.6239 2.85803
767 1 4.65566 51.7872 28.6901
768 1 25.9426 22.2783 35.4685
769 1 18.3856 48.3489 54.5414
770 1 18.8613 3.52256 4.68977
771 1 11.7944 38.5097 44.1641
772 1 29.6475 13.2039 52.8197
773 1 10.4232 16.4793 45.7085
774 1 33.5319 2.6846 26.9282
775 1 46.3413 41.4932 29.8926
776 1 25.1293 55.7682 22.2771
777 1 46.0288 47.6585 25.4353
778 1 21.9412 33.4062 47.8326
779 1 40.8709 27.0622 44.6572
780 1 31.1413 47.3973 40.7542
781 1 20.198 38.231 25.263
782 1 4.65884 19.1441 15.5498
783 1 50.1892 1.01889 36.6693
784 1 44.1096 28.0324 24.3311
785 1 27.4026 26.0171 48.4023
786 1 15.5817 7.54324 42.1004
787 1 5.27565 31.1638 54.2552
788 1 2.2813 10.5605 37.037
789 1 15.4104 46.1947 28.4479
790 1 51.4605 29.5525 43.5541
791 1 36.3233 18.736 24.7137
792 1 26.1312 55.2232 19.5376
793 1 2.7145 50.1546 22.3915
794 1 30.131 25.3209 27.8178
795 1 55.7498 21.4132 36.7106
796 1 44.3373 12.4302 4.09727
797 1 18.9753 11.3005 14.0142
798 1 42.6419 29.2907 54.2439
799 1 16.3196 35.7414 12.0361
800 1 17.0247 30.471 54.9208
801 1 48.8912 48.1828 10.9907
802 1 21.0843 15.3826 36.9169
803 1 40.2166 45.2041 40.0018
804 1 51.7924 36.736 9.47302
805 1 38.6364 44.5536 32.0794
806 1 13.4078 15.2994 37.1449
807 1 55.5218 16.1101 34.6451
808 1 48.8707 8.47149 38.5419
809 1 10.4935 12.4312 1.38157
810 1 8.12151 40.6974 31.9911
811 1 33.3966 22.2856 48.0841
812 1 53.6067 16.2271 44.6071
813 1 0.821141 11.5537 2.69656
814 1 45.7435 4.76047 20.2618
815 1 4.67477 8.95722 41.5883
816 1 50.0142 5.14983 35.2379
817 1 44.4026 43.4351 29.1978
818 1 54.7526 48.398 55.3804
819 1 18.3749 36.8382 43.2283
820 1 53.2101 28.0657 38.1851
821 1 32.2021 29.4228 38.9577
822 1 1.30597 4.01437 28.9683
823 1 53.8019 46.5776 37.7696
824 1 54.5371 0.0330842 28.3177
825 1 17.3563 54.1059 29.8733
826 1 16.6522 50.4516 3.92153
827 1 20.1176 33.7208 22.686
828 1 35.5678 23.4564 26.1933
829 1 49.291 55.8296 29.6293
830 1 51.3082 43.2633 4.32774
831 2 7.14003 40.1143 39.9394
832 2 23.912 14.3915 3.37792
833 2 20.3742 43.3165 23.3924
834 2 43.3635 27.0528 46.8175
835 2 25.1085 0.20259 27.7051
836 2 23.7795 14.2437 32.4366
837 2 15.7691 27.1309 17.7808
838 2 23.1736 42.1548 47.4577
839 2 28.4966 35.5538 31.4036
840 2 19.6831 16.2444 53.4763
841 2 15.8759 27.2833 26.4206
842 2 47.1696 9.59829 45.7185
843 2 42.2537 1.57279 29.7829
844 2 31.219 15.4208 18.5905
845 2 8.44782 51.7012 16.2033
846 2 41.3451 41.1363 48.5465
847 2 48.5273 54.9398 10.4924
848 2 47.6908 44.5358 25.9954
849 2 23.2581 17.3565 34.9527
850 2 22.5771 32.1341 44.4634
851 2 47.9456 -0.0874661 53.7962
852 2 46.4587 38.8863 20.36
853 1 36.105 46.3118 9.40855
854 1 30.1704 42.1549 46.9493
855 1 47.5451 26.8774 14.9988
856 1 10.3171 23.7111 34.52
857 1 55.0589 17.2422 40.2213
858 1 14.026 50.108 48.8352
859 1 35.1852 24.6783 41.026
860 1 9.50804 37.6413 4.17269
861 1 51.8603 36.458 29.379
862 1 54.3021 30.7489 5.67628
863 1 33.286 11.5317 10.5119
864 1 47.5392 26.3314 49.4034
865 1 14.8425 26.2992 14.5881
866 1 12.3659 34.0852 0.00955457
867 1 50.4764 21.9609 37.108
868 1 49.0454 1.6536 34.2489
869 1 53.6035 26.4728 52.5513
870 1 33.4684 24.5061 21.0069
871 1 10.3736 28.1389 15.147
872 1 53.3251 37.7306 40.7062
873 1 12.6323 39.2958 31.9825
874 1 53.9782 46.0074 1.39092
875 1 41.5687 29.4509 48.1411
876 1 0.423843 16.5854 31.1999
877 1 0.112466 27.474 22.5583
878 1 4.48704 35.7724 20.0901
879 1 10.6508 14.3362 31.0847
880 1 51.6155 11.4449 2.04512
881 1 32.1562 13.5101 47.8876
882 1 44.9285 22.4408 52.4428
883 1 26.595 14.1253 13.5879
884 1 51.3691 54.4062 36.2807
885 1 29.8619 23.1461 1.32271
886 1 39.2022 47.6385 2.02028
887 1 7.23361 15.561 19.6998
888 1 2.84725 29.9558 46.7849
889 1 46.2094 7.89484 34.0599
890 1 54.8048 3.09747 6.53451
891 1 52.9159 20.6826 37.5974
892 1 37.8448 54.5402 20.4
893 1 14.3072 51.3802 34.0515
894 1 9.31687 41.2014 9.70795
895 1 3.92077 49.3394 40.4423
896 1 2.61015 40.7602 17.7127
897 1 28.1881 52.9505 10.5193
898 1 41.0959 35.4947 42.3983
899 1 16.4698 19.2631 32.4042
900 1 9.34577 27.8778 2.12542
901 1 34.1696 37.3561 41.6965
902 1 25.5549 46.0767 26.1519
903 1 3.83389 26.65 8.99645
904 1 35.69 35.8623 11.7694
905 1 28.3303 30.2922 22.3311
906 1 17.5296 36.119 7.31323
907 1 34.8591 50.5987 13.8246
908 1 1.49146 6.36402 34.6457
909 1 40.3936 3.59193 42.5065
910 1 52.4398 38.272 7.3375
911 1 12.8388 8.75553 24.9171
912 1 16.8862 18.5056 36.7697
913 1 4.0421 45.2133 5.98922
914 1 52.8666 51.6427 30.9567
915 1 18.3099 21.1182 39.2381
916 1 28.2128 26.3272 40.3522
917 1 35.1378 55.8745 4.38233
918 1 50.3084 34.6668 14.5565
919 1 48.4481 40.5724 38.8095
920 1 11.9583 38.4597 38.6522
921 1 31.8287 54.8761 11.2239
922 1 17.5836 41.8143 32.0487
923 1 49.9661 5.60617 38.348
924 1 0.6255 11.5161 16.3851
925 1 45.2379 55.5853 4.7563
926 1 27.9437 49.6841 51.4312
927 1 52.6584 49.1895 43.4805
928 1 42.3537 12.2139 12.7609
929 1 49.9237 33.0011 7.27063
930 1 38.353 0.981965 19.8815
931 1 16.9556 25.383 31.877
932 1 12.569 48.4921 52.2781
933 1 30.5342 7.12416 43.947
934 1 24.7308 51.2299 54.8318
935 1 5.26837 39.1797 54.7902
936 1 7.60222 32.8781 12.07
937 1 34.0305 0.672914 42.8193
938 1 36.3937 6.01388 40.5301
939 1 5.57241 29.3033 16.0058
940 1 7.3792 39.0867 53.0068
941 1 36.376 6.53575 35.422
942 1 15.2049 46.5581 45.3163
943 1 33.5606 36.448 34.439
944 1 9.20026 41.3621 16.0871
945 1 44.7731 21.1845 44.6247
946 1 9.72224 42.4527 44.3056
947 1 41.3429 30.9824 40.9077
948 1 15.5216 55.4784 43.8175
949 1 49.6315 49.9528 15.5656
950 1 39.1901 27.4259 50.647
951 1 14.9944 43.1981 53.7145
952 1 44.0064 0.70054 48.3652
953 1 26.0292 22.4767 51.2218
954 1 11.0826 45.5067 40.7357
955 1 13.3335 22.1818 15.6754
956 1 12.1958 20.4896 8.44488
957 1 46.9508 43.9296 50.8644
958 1 8.65727 25.1964 36.2004
959 1 31.3076 49.9916 35.3086
960 1 53.5735 14.1216 12.5337
961 1 36.9102 41.4511 42.4766
962 1 54.769 6.37903 18.8906
963 1 7.69295 30.3163 47.227
964 1 25.5392 14.4328 44.3137
965 1 15.3579 30.4771 35.6891
966 1 24.9067 42.5993 31.5079
967 1 10.998 9.26328 11.3072
968 1 42.6347 9.70539 53.6392
969 1 32.0674 37.3366 50.2036
970 1 31.2083 17.1649 15.8799
971 1 44.8774 6.13677 42.4368
972 1 52.4732 8.47175 51.7647
973 2 45.2507 4.25036 25.4663
974 2 46.0476 39.4696 34.9404
975 2 53.4875 39.0734 27.8851
976 2 17.6 30.4519 49.6975
977 2 52.7969 36.3173 16.1958
978 2 52.3856 36.1905 19.7702
979 2 33.0039 42.2957 40.5351
980 2 54.7799 6.47153 44.7745
981 2 36.4017 11.8651 9.94097
982 2 54.3899 29.7465 49.0661
983 2 12.3306 31.1977 1.34582
984 2 46.2464 22.7046 34.224
985 2 51.9898 2.28185 13.3707
986 2 7.35327 18.4569 37.9626
987 2 20.3434 6.55497 5.20544
988 2 2.58922 26.6899 51.7295
989 2 39.956 27.9499 32.401
990 2 54.1117 10.048 15.0892
991 2 23.0222 21.3045 17.7116
992 2 16.1471 15.641 54.6756
993 2 1.60719 15.6623 55.8939
994 2 53.4386 23.1237 35.1917
995 1 54.1085 3.24066 43.67
996 1 51.2597 25.2383 47.0416
997 1 24.738 2.04937 48.1859
998 1 3.40389 49.6214 27.3673
999 1 25.3636 51.07 52.1418
1000 1 19.7621 9.00971 47.7493
1001 1 30.6434 30.4968 36.495
1002 1 52.5515 26.5819 8.3834
1003 1 13.9346 28.7774 30.7139