ITEM: TIMESTEP
0
ITEM: NUMBER OF ATOMS
9088
ITEM: BOX BOUNDS pp pp pp
-1.7163511264161785e-01 5.6056127738566921e+01
-1.7163511264161785e-01 5.6056127738566921e+01
-1.7163511264161785e-01 5.6056127738566921e+01
ITEM: ATOMS id type x y z
1 1 28.3238 41.2989 49.5195
2 1 44.4873 4.50093 36.6929
3 1 41.7963 12.557 50.1864
4 1 37.2177 49.3614 43.7754
5 1 11.224 34.3354 8.37443
6 1 36.0731 25.3394 21.9938
7 1 19.882 32.9566 1.31246
8 1 48.4465 1.62475 9.43559
9 1 55.8036 50.212 39.9169
10 1 36.7352 13.3559 53.5105
11 1 48.3604 35.7338 32.6209
12 1 35.6023 19.4141 36.6107
13 1 21.7582 48.856 36.9743
14 1 19.9098 49.477 49.9216
15 1 3.06137 36.8139 30.2979
16 1 26.7943 0.650797 38.8831
17 1 50.3635 10.0628 28.0734
18 1 4.11262 47.895 36.164
19 1 30.0255 23.9278 51.9396
20 1 31.1137 2.56759 44.5183
21 1 25.2445 49.164 50.3686
22 1 9.42893 41.6226 1.97209
23 1 21.5391 17.756 37.7982
24 1 3.34899 7.76801 55.4213
25 1 26.315 27.431 39.0371
26 1 19.9579 28.095 43.3352
27 1 34.7438 29.3724 54.4902
28 1 13.521 32.6257 14.7941
29 1 10.9182 50.2251 40.1117
30 1 49.1805 7.764 44.5998
31 1 30.7813 4.62582 0.288824
32 1 33.8197 5.08974 23.326
33 1 24.2943 41.7606 2.63124
34 1 14.5617 24.7108 1.71531
35 1 20.1156 51.3281 40.4822
36 1 16.4215 32.2554 18.8941
37 1 23.6862 55.9427 47.1129
38 1 23.3167 21.0924 5.86431
39 1 13.3669 26.2903 -0.126548
40 1 8.88236 11.3858 47.936
41 1 46.7057 40.9238 1.03669
42 1 5.6321 38.8692 14.7723
43 1 21.8231 16.9412 9.61107
44 1 50.8294 52.1117 23.6228
45 1 13.0114 43.525 55.8534
46 1 0.0828668 17.971 10.7681
47 1 42.4879 6.51568 32.1018
48 1 18.3767 30.7748 20.0177
49 1 7.44779 19.9268 32.6925
50 1 18.2326 19.9724 20.3678
51 1 50.3385 32.247 30.5695
52 1 22.3752 10.467 37.4784
53 1 52.447 20.3429 1.08177
54 1 52.2137 17.4885 42.7236
55 1 39.6973 45.0572 29.744
56 1 11.7959 25.3736 44.7351
57 1 6.97156 33.1592 34.6003
58 1 37.1849 11.3359 21.7616
59 1 5.48967 30.3955 28.5641
60 1 36.2504 32.4763 54.5912
61 1 11.8315 27.1898 53.8966
62 1 52.6449 22.0888 24.4137
63 1 49.2904 43.2474 28.7786
64 1 22.2742 4.3635 16.1016
65 1 11.0551 42.4699 47.9811
66 1 8.04626 44.8527 9.95091
67 1 12.0998 43.053 53.0385
68 1 11.3486 33.6675 52.3459
69 1 37.2839 38.3271 45.8557
70 1 2.13046 27.9389 4.79992
71 1 51.6852 46.9286 28.1114
72 1 55.5773 29.5731 1.63828
73 1 25.6763 46.5674 4.87761
74 1 4.61542 33.5448 47.0551
75 1 37.7346 19.5327 5.14353
76 1 38.212 24.0194 6.0542
77 1 47.2269 40.2688 31.8884
78 1 33.8664 40.6614 10.5837
79 1 31.6228 23.2733 42.6585
80 1 39.619 0.307743 30.4561
81 1 17.6436 27.7895 54.1719
82 1 50.5422 1.44249 23.834
83 1 8.06122 14.9026 27.847
84 1 36.5776 2.0039 4.04993
85 1 39.5176 10.8405 38.548
86 1 34.7405 33.7623 34.7198
87 1 25.9465 8.08349 31.7622
88 1 15.8636 11.5778 13.0256
89 1 7.05113 47.775 39.402
90 1 1.04644 39.5813 51.5227
91 1 18.0107 7.76928 21.682
92 1 10.3245 11.9536 19.2826
93 1 38.4807 9.48841 11.3019
94 1 35.7552 33.9042 28.9114
95 1 40.5878 24.3474 19.0784
96 1 7.14439 -0.0149699 13.8245
97 1 3.38606 8.71196 32.6647
98 1 18.1786 12.792 30.3549
99 1 42.3372 36.5394 5.60354
100 1 3.54989 6.28079 26.8591
101 1 0.169308 33.7614 47.1573
102 1 5.01128 1.09267 12.3236
103 1 41.762 43.2288 55.8431
104 1 14.5984 54.9207 39.258
105 1 31.2916 14.101 10.6512
106 1 19.0503 48.1075 47.6816
107 1 32.6553 0.226143 44.9571
108 1 46.7321 17.2589 47.559
109 1 10.299 45.7588 16.6426
110 1 31.3917 9.08751 10.6836
111 1 37.5852 54.2749 15.4277
112 1 5.57896 5.4223 10.2424
113 1 28.8409 33.5169 11.6364
114 1 24.4109 16.8567 39.9268
115 1 42.7408 34.6487 31.3722
116 1 31.9701 5.9746 38.1657
117 1 -0.131719 12.2218 40.4612
118 1 1.60995 43.9726 31.5872
119 1 36.0591 36.078 33.7831
120 1 15.1654 1.89838 39.8504
121 2 12.1226 38.6517 35.1868
122 2 51.4126 18.6919 12.7095
123 2 55.2109 46.722 20.863
124 2 52.5224 29.7996 19.9371
125 2 53.9152 35.5393 38.4905
126 2 25.3657 7.50183 17.8105
127 2 12.353 51.1017 15.6559
128 2 7.68113 30.0477 35.145
129 2 55.3048 18.011 7.51674
130 2 1.30814 21.1969 45.7772
131 2 52.0443 11.8949 47.2799
132 2 39.0258 46.6598 17.9836
133 2 34.6573 42.9955 16.0804
134 2 14.9526 5.23689 8.84295
135 2 42.7581 33.8727 3.74387
136 2 9.92157 0.611432 31.8897
137 2 40.5282 24.0673 46.2597
138 2 5.25522 4.719 49.2742
139 2 31.2679 14.7376 13.8563
140 2 45.3461 27.3724 38.8453
141 2 7.93027 38.2342 22.7789
142 2 29.6526 23.4315 40.2267
143 1 46.969 19.6874 46.1053
144 1 29.0544 17.615 13.5222
145 1 53.9974 12.7627 6.52875
146 1 52.1098 26.641 15.4005
147 1 29.2104 27.9524 32.9973
148 1 26.897 10.2057 38.4401
149 1 46.7642 6.28426 44.6945
150 1 25.033 25.5351 9.57902
151 1 49.9747 24.3584 54.1307
152 1 10.3677 33.6316 45.4392
153 1 49.8306 48.3366 29.3818
154 1 43.0391 41.8486 30.6249
155 1 32.3308 18.4476 10.2631
156 1 7.79578 33.1596 9.16743
157 1 51.437 33.9212 22.2913
158 1 37.604 5.57347 0.464062
159 1 54.9637 47.9005 13.7955
160 1 49.3277 2.27871 2.40669
161 1 10.6388 25.4048 21.4085
162 1 12.9367 12.7445 44.0443
163 1 19.8878 21.5963 26.4141
164 1 55.7629 38.4081 12.0777
165 1 51.4041 35.7614 6.80907
166 1 45.0211 41.6263 14.8621
167 1 31.5426 39.8267 46.3353
168 1 36.6969 7.80435 43.0981
169 1 28.2979 50.6343 39.1667
170 1 39.5756 33.9077 47.026
171 1 28.2586 32.7518 23.7058
172 1 21.3078 43.626 28.5075
173 1 14.1477 39.7155 9.9209
174 1 35.2641 1.95348 32.3131
175 1 18.5805 27.9577 16.3577
176 1 39.5695 36.9998 6.7161
177 1 10.1445 4.82461 24.8547
178 1 18.5339 5.49518 9.13505
179 1 27.0161 45.0807 48.027
180 1 55.3589 27.1323 8.62317
181 1 48.4889 43.0059 31.5521
182 1 49.5028 30.3366 52.5129
183 1 13.6127 20.6473 4.19204
184 1 25.9229 52.9433 12.0054
185 1 33.612 10.1908 34.6352
186 1 43.7827 26.542 26.6781
187 1 1.67502 7.03108 53.3192
188 1 28.5362 39.0507 3.55797
189 1 13.4731 41.3664 34.1504
190 1 35.5236 48.967 21.7563
191 1 20.2487 18.9549 45.6954
192 1 50.3684 0.174822 7.8388
193 1 37.2877 9.00016 13.7797
194 1 36.1687 3.99727 30.8617
195 1 24.65 27.6527 1.36205
196 1 34.7661 5.27523 26.6184
197 1 7.27044 9.1801 49.5167
198 1 12.8531 18.9842 28.5664
199 1 31.3271 18.895 3.13617
200 1 39.8634 20.5293 41.3273
201 1 26.7029 12.9098 16.0664
202 1 39.2306 1.93095 2.77383
203 1 31.2562 27.6746 37.1824
204 1 41.0741 27.2608 19.2351
205 1 8.10073 12.4369 2.86834
206 1 39.2575 25.0975 24.4998
207 1 0.19118 45.2008 45.6295
208 1 31.9352 5.16741 10.8882
209 1 47.5068 6.66488 47.2314
210 1 27.2386 21.7606 41.8924
211 1 8.54514 5.55848 21.3321
212 1 43.1185 27.3174 43.3357
213 1 22.2651 12.2002 51.1218
214 1 0.846483 37.5956 2.55576
215 1 11.5191 27.7858 22.8725
216 1 0.21364 24.7664 51.0865
217 1 21.9018 8.79877 35.4898
218 1 1.50883 9.81414 54.3347
219 1 44.0118 51.7482 6.06114
220 1 44.8185 8.23831 43.9789
221 1 30.562 0.518936 17.1475
222 1 2.52918 7.68191 21.4002
223 1 26.1076 44.0478 2.98291
224 1 42.4494 8.759 25.5253
225 1 44.0015 48.7584 38.0764
226 1 12.7517 42.0887 25.2547
227 1 20.1845 45.6227 33.5693
228 1 -0.121669 20.1181 52.856
229 1 10.9294 27.01 42.5861
230 1 31.0409 29.9418 41.3008
231 1 31.5422 35.1462 25.7499
232 1 40.449 17.1382 17.9175
233 1 51.0373 50.2848 38.0553
234 1 10.9586 13.9685 51.1311
235 1 41.5861 18.3003 42.0852
236 1 6.95868 47.8439 29.4844
237 1 52.9567 29.7131 23.7303
238 1 38.3859 0.981628 0.0134787
239 1 33.7342 28.4331 6.14949
240 1 9.30125 32.7855 50.7606
241 1 20.0933 49.066 10.7983
242 1 33.0072 10.9008 3.11775
243 1 7.56298 24.1404 33.5343
244 1 55.7708 42.6778 7.71318
245 1 1.41385 27.8347 19.898
246 1 54.2114 5.64312 5.69692
247 1 54.1196 48.9764 11.2996
248 1 44.2575 0.594124 45.5101
249 1 10.7488 44.8456 48.8236
250 1 23.3896 24.7032 17.8292
251 1 17.8665 39.1684 3.94101
252 1 47.7287 16.7987 38.9733
253 1 2.88267 27.0653 48.1847
254 1 9.3043 8.47048 32.6214
255 1 54.9712 9.50101 18.0013
256 1 31.0275 47.3178 24.6711
257 1 1.46043 12.4131 34.9459
258 1 33.4272 18.384 27.7474
259 1 45.6894 45.7451 55.085
260 1 25.1698 41.4285 34.1365
261 1 32.0444 10.5741 39.5227
262 1 23.6665 44.2156 8.21662
263 2 44.0101 24.7193 29.34
264 2 25.6688 46.8848 1.72552
265 2 49.8165 7.195 49.2222
266 2 6.88477 24.5919 38.6851
267 2 14.5586 21.2247 1.19982
268 2 4.64616 3.33183 24.5951
269 2 15.2057 2.40446 16.6253
270 2 44.3449 43.4804 53.6206
271 2 53.8823 44.7298 26.2711
272 2 33.1808 40.2389 13.9118
273 2 33.3679 6.18112 34.8056
274 2 52.9989 27.1108 30.6472
275 2 27.254 6.97296 52.9908
276 2 56.0516 14.0177 4.32248
277 2 1.44682 42.8262 39.2827
278 2 11.9583 34.4737 18.6834
279 2 43.9134 51.6284 46.5608
280 2 19.7616 55.1962 22.121
281 2 41.4542 16.9986 14.873
282 2 15.154 28.8465 8.24331
283 2 46.7788 47.8087 28.7116
284 2 17.0148 27.1581 34.7199
285 1 4.60162 35.418 5.6696
286 1 49.6373 34.8123 20.4002
287 1 44.5492 1.83935 35.9758
288 1 20.1857 16.8993 29.9512
289 1 22.9643 31.1357 4.38418
290 1 50.597 12.9235 24.1401
291 1 18.0255 43.6451 34.3728
292 1 40.9068 5.41778 44.1026
293 1 54.4539 19.5912 55.4706
294 1 30.8087 32.8293 41.7668
295 1 47.0079 25.3885 29.8028
296 1 12.2756 32.2347 35.205
297 1 48.335 14.0331 33.819
298 1 30.7574 22.1577 12.9156
299 1 31.8435 18.7154 17.6848
300 1 24.6248 31.7272 9.43549
301 1 24.5666 49.5089 23.006
302 1 46.7021 33.5051 25.8136
303 1 53.7884 3.54291 1.65813
304 1 13.5491 34.4569 53.6546
305 1 25.4537 38.5261 23.0086
306 1 28.7549 52.1689 32.9293
307 1 5.35208 39.8887 32.2155
308 1 39.81 54.0371 45.3852
309 1 49.6657 30.917 28.3107
310 1 10.5278 52.571 38.5032
311 1 38.1745 35.1952 5.40125
312 1 10.3133 8.03336 25.7571
313 1 5.06516 55.3864 18.2369
314 1 29.0269 47.5322 52.9073
315 1 4.42627 6.5547 14.7694
316 1 43.7477 10.3918 10.7333
317 1 30.4301 31.9271 38.8696
318 1 5.93517 23.119 11.4627
319 1 3.25011 2.7174 18.0176
320 1 19.0102 33.6594 25.3816
321 1 26.2424 38.7706 34.1753
322 1 55.1677 21.7183 22.9869
323 1 11.3915 10.6996 32.8397
324 1 18.628 8.66781 32.1199
325 1 21.6497 45.8858 43.1159
326 1 16.7824 31.8801 41.0606
327 1 12.4186 9.03342 35.0216
328 1 0.482074 8.13457 36.6599
329 1 4.50711 25.5365 44.8082
330 1 7.7584 30.7113 30.0982
331 1 15.5151 39.2557 52.4736
332 1 0.704218 44.236 11.9445
333 1 16.3887 13.762 10.6841
334 1 33.5232 34.9473 22.8719
335 1 35.4162 13.2614 51.2668
336 1 49.9491 21.3237 13.0173
337 1 0.936311 34.1241 7.54665
338 1 9.63088 22.8938 22.439
339 1 15.0219 24.4038 44.5643
340 1 24.9763 23.4496 26.1889
341 1 26.2553 51.0576 24.9296
342 1 -0.0963009 26.6935 18.0334
343 1 35.8758 14.1271 27.5416
344 1 32.9941 15.813 11.4332
345 1 48.7928 16.6875 3.76983
346 1 0.449003 6.89722 23.5927
347 1 19.8208 18.3832 11.017
348 1 13.055 10.2489 22.4523
349 1 4.43339 37.0229 10.4273
350 1 1.75215 53.8298 50.7868
351 1 45.1287 35.6143 5.51094
352 1 18.9159 8.22412 52.1445
353 1 24.3957 34.5545 53.8484
354 1 46.6198 37.3833 39.5545
355 1 48.8064 28.4759 38.8155
356 1 9.77518 40.1563 42.7791
357 1 20.099 50.3776 52.8748
358 1 21.7163 24.0306 36.8468
359 1 29.0017 44.8609 46.3419
360 1 16.5437 37.938 45.506
361 1 40.134 21.9789 43.7622
362 1 0.399303 54.0744 4.54379
363 1 44.2815 18.2913 14.8566
364 1 41.1003 0.688121 32.7984
365 1 39.5508 46.5926 6.89692
366 1 15.4419 34.482 14.6125
367 1 50.6276 47.016 37.9163
368 1 40.222 45.0626 26.6875
369 1 33.6339 14.5077 15.8959
370 1 3.53531 40.5671 50.5291
371 1 19.3413 28.1921 48.773
372 1 13.6874 22.2512 33.6934
373 1 21.4725 55.5726 38.376
374 1 47.293 50.2044 2.41441
375 1 4.30951 52.7123 35.0877
376 1 42.8074 48.9794 24.9017
377 1 6.12379 24.3272 55.23
378 1 29.0798 52.6752 21.3393
379 1 51.6275 39.3226 20.3387
380 1 10.8699 13.1248 26.9235
381 1 26.2293 50.2422 29.4227
382 1 55.0157 22.7368 8.17522
383 1 12.5047 23.4866 22.8578
384 1 49.264 16.6183 33.021
385 1 29.7767 9.0901 19.7335
386 1 36.2587 38.8632 23.3184
387 1 21.1931 33.6716 39.2993
388 1 24.2122 7.05107 40.3665
389 1 26.8161 10.8054 14.3674
390 1 45.329 48.6047 31.5966
391 1 7.14033 9.3441 6.69297
392 1 48.4197 48.9199 37.1925
393 1 3.5046 27.908 0.819922
394 1 2.84898 37.8943 46.4327
395 1 55.0918 7.54883 48.0059
396 1 14.8228 5.3541 23.978
397 1 49.5566 26.0432 22.41
398 1 21.4985 28.9092 4.17467
399 1 6.99505 54.0585 41.6112
400 1 35.6505 42.8042 27.7399
401 1 18.5456 30.7857 24.9716
402 1 31.8904 48.171 43.7537
403 1 13.1151 42.561 28.598
404 1 26.7232 34.911 45.9739
405 2 19.8424 8.36385 14.4073
406 2 36.0955 30.951 7.90431
407 2 34.3913 13.0177 12.6705
408 2 24.869 49.6285 12.8497
409 2 47.0303 0.350468 16.5068
410 2 36.5499 49.1465 16.435
411 2 5.85711 41.6012 17.0753
412 2 53.5098 8.89101 35.8018
413 2 30.8917 21.8095 45.5311
414 2 12.7354 34.9593 47.7972
415 2 55.8285 51.8305 8.98032
416 2 51.9211 42.9161 55.1643
417 2 44.4002 4.97932 10.3189
418 2 7.40781 36.0872 11.1655
419 2 15.8371 54.5128 22.5119
420 2 23.7715 23.1846 23.2354
421 2 41.3705 49.5555 9.87717
422 2 32.012 16.239 8.04435
423 2 8.21411 0.698712 43.2352
424 2 52.0675 10.6897 4.91222
425 2 48.1552 51.7743 38.6892
426 2 37.3818 8.39517 38.0681
427 1 29.7062 30.1215 -0.0371559
428 1 3.80674 53.536 52.4076
429 1 55.558 27.4262 50.8881
430 1 51.9538 54.9884 9.62925
431 1 20.0604 47.5593 26.3023
432 1 42.7003 8.16984 6.63822
433 1 39.8704 24.8018 13.8445
434 1 13.1538 22.5997 44.1048
435 1 23.1615 52.2158 8.69129
436 1 32.2525 31.9942 48.3325
437 1 26.3506 24.0422 33.6291
438 1 47.1694 3.28975 35.2858
439 1 1.3348 38.2377 54.0245
440 1 9.04471 25.5718 29.2452
441 1 22.4385 14.3739 10.9778
442 1 42.59 18.8333 17.1162
443 1 41.9396 10.5125 27.3843
444 1 51.52 42.2043 47.4027
445 1 5.24442 14.8991 17.9629
446 1 38.4353 31.4811 39.9573
447 1 20.8291 51.7936 10.4
448 1 44.7047 3.41013 0.0387448
449 1 53.9538 6.94921 28.9749
450 1 51.3598 33.4328 -0.0529097
451 1 27.7852 49.1157 14.028
452 1 48.1026 12.3565 22.8222
453 1 9.18473 21.3285 33.9438
454 1 5.40399 35.3464 51.9597
455 1 6.96227 21.8693 23.5704
456 1 46.0269 3.93541 51.5308
457 1 53.5619 38.9573 18.4559
458 1 27.2114 20.2446 36.5062
459 1 2.93046 34.6389 9.73084
460 1 29.7497 0.642212 34.6202
461 1 7.87814 16.5291 17.3734
462 1 48.3626 27.4945 9.48181
463 1 15.6595 2.13989 7.4059
464 1 31.4733 52.2531 22.8336
465 1 7.88036 46.7039 17.4553
466 1 4.97442 47.7629 5.30715
467 1 47.0232 11.5966 37.97
468 1 44.8744 54.0097 7.06326
469 1 14.9772 43.3929 24.6015
470 1 28.4489 0.22871 14.9396
471 1 26.9345 9.85416 3.40637
472 1 15.3742 38.0442 27.9465
473 1 48.4342 38.8347 46.741
474 1 39.7748 12.5218 16.8148
475 1 23.1665 25.0258 20.5523
476 1 12.2318 21.8292 40.0859
477 1 49.1825 3.36691 37.2085
478 1 41.4926 7.28222 13.7594
479 1 55.5817 25.9661 35.2734
480 1 40.892 8.22324 4.01327
481 1 25.4496 1.64072 51.1807
482 1 29.9158 37.2349 22.671
483 1 46.2939 19.3601 34.3419
484 1 5.65544 37.1571 7.41006
485 1 18.395 45.4527 25.2565
486 1 47.2167 7.83792 42.68
487 1 21.1737 12.9613 21.9858
488 1 6.00724 47.2864 25.5664
489 1 2.83308 44.365 13.6039
490 1 24.2677 49.4706 26.2248
491 1 13.3012 29.7462 47.1501
492 1 27.0086 24.6859 41.6644
493 1 44.3549 30.5307 33.9996
494 1 4.38462 54.4846 13.5651
495 1 11.7228 33.7903 13.1156
496 1 39.0685 17.7321 37.0533
497 1 7.42428 17.339 31.8541
498 1 19.672 20.2493 8.78569
499 1 33.7745 29.606 20.2348
500 1 51.9831 3.18004 36.2054
501 1 16.4319 50.9961 43.4843
502 1 50.7996 43.0108 7.13242
503 1 42.3505 21.1596 42.926
504 1 40.0292 46.8893 31.9831
505 1 38.31 27.6666 3.9762
506 1 22.3402 27.431 42.0401
507 1 53.4949 54.3952 31.9149
508 1 10.5487 42.9134 17.5573
509 1 53.2565 29.2747 8.28005
510 1 30.8386 0.757177 4.00585
511 1 49.9886 5.63192 6.08892
512 1 14.2787 50.3156 12.7472
513 1 33.3645 30.1082 29.4434
514 1 28.645 27.6849 21.234
515 1 29.1116 12.7407 27.3166
516 1 5.39264 40.4769 37.0675
517 1 15.7941 3.00941 0.138128
518 1 24.4271 12.0767 13.7719
519 1 8.31383 12.0825 44.9285
520 1 35.8803 17.7965 4.83854
521 1 45.794 25.0302 32.3761
522 1 7.44094 17.2854 0.696098
523 1 38.5668 1.80226 25.8186
524 1 39.9378 51.8253 32.1533
525 1 25.7207 41.4642 22.5021
526 1 26.4855 15.43 30.5137
527 1 29.0302 54.467 23.6506
528 1 2.69749 6.61708 6.30614
529 1 40.3567 8.26593 33.6045
530 1 37.8117 16.4746 18.3142
531 1 40.3233 10.1953 49.1248
532 1 35.2951 9.85824 11.8009
533 1 43.2284 6.19658 20.6985
534 1 19.7062 35.7718 20.5824
535 1 43.32 2.72509 38.2992
536 1 39.1333 22.372 15.5663
537 1 19.2913 22.4149 20.989
538 1 6.81756 27.286 2.75684
539 1 28.7112 37.889 33.3347
540 1 48.1502 12.4482 16.6427
541 1 42.6309 6.03798 8.10659
542 1 33.0529 47.8491 35.892
543 1 37.7871 44.7166 34.972
544 1 31.6729 34.4659 15.4511
545 1 51.592 24.6562 5.70255
546 1 23.9957 50.3566 40.6977
547 2 15.417 40.8918 26.5935
548 2 12.9021 46.6616 1.45384
549 2 34.7519 47.8569 25.629
550 2 55.4961 51.485 12.8075
551 2 52.4474 7.13255 16.9247
552 2 9.69815 7.18599 35.356
553 2 37.4626 10.1403 16.9219
554 2 23.4373 5.78504 53.1924
555 2 14.7288 13.1041 21.5591
556 2 12.7655 41.4922 42.9945
557 2 13.753 5.67593 33.8727
558 2 17.4007 33.1371 3.44342
559 2 40.056 17.0764 21.095
560 2 5.242 16.3796 29.4638
561 2 38.7218 12.9553 50.946
562 2 4.00842 19.5827 28.5486
563 2 30.1068 47.0372 34.9877
564 2 16.7859 5.15772 39.8827
565 2 20.3862 22.1311 34.8314
566 2 31.0516 13.5487 38.8343
567 2 44.6883 38.329 0.706227
568 2 43.518 18.3957 20.1476
569 1 14.7485 1.44241 19.3566
570 1 52.3266 36.7153 49.2269
571 1 20.0887 14.1949 6.14794
572 1 46.1609 14.843 53.5323
573 1 15.7748 15.5858 25.9156
574 1 30.177 46.0869 17.1676
575 1 30.2904 49.6812 42.3304
576 1 14.0406 0.372303 11.4186
577 1 1.72856 6.55527 15.5708
578 1 55.3116 39.8361 44.4815
579 1 34.0408 44.9721 48.0689
580 1 21.3017 31.9361 6.42098
581 1 37.5709 10.3151 29.1157
582 1 12.4286 41.5717 37.9135
583 1 45.4973 25.6186 18.1306
584 1 28.8564 40.6256 28.8792
585 1 33.2997 8.05472 23.4295
586 1 55.5653 0.25682 31.0577
587 1 11.0841 1.99292 7.36967
588 1 9.01067 44.0753 46.8704
589 1 34.6548 47.2451 49.5731
590 1 -0.13488 7.43052 6.77676
591 1 13.1104 9.44424 30.8277
592 1 52.7071 33.221 6.61084
593 1 19.1701 25.2132 33.6473
594 1 3.00539 42.1928 41.8391
595 1 34.4254 11.9224 43.8694
596 1 3.63246 5.10325 39.2294
597 1 29.1631 51.6154 7.69459
598 1 48.7611 47.2612 25.2285
599 1 5.21941 3.74864 13.6751
600 1 11.7495 32.4728 4.47092
601 1 22.0967 42.1423 54.0557
602 1 2.9811 42.5118 15.5012
603 1 26.8058 35.2338 52.3271
604 1 5.46255 21.7604 30.1351
605 1 28.1248 43.1527 27.627
606 1 27.7541 46.6803 30.5669
607 1 38.8574 14.2771 33.6329
608 1 37.1688 4.66847 49.296
609 1 33.9344 30.4576 12.9743
610 1 43.4357 5.77939 44.9261
611 1 20.8069 44.806 30.9183
612 1 17.9769 46.6338 45.6528
613 1 3.13546 51.4838 1.21931
614 1 53.9016 33.2483 10.9877
615 1 5.98299 42.8882 41.3243
616 1 38.1101 3.48607 55.1414
617 1 16.2911 11.5406 51.6414
618 1 5.50918 55.3299 53.6646
619 1 36.6772 11.6042 27.0085
620 1 27.8678 26.9092 25.6934
621 1 52.9033 8.84716 27.235
622 1 3.98681 29.723 44.0805
623 1 14.9205 44.2055 12.0164
624 1 27.7687 9.3853 54.9823
625 1 10.3586 15.0473 25.2002
626 1 39.4521 27.4574 22.9004
627 1 33.228 38.007 1.61521
628 1 31.9045 10.2752 17.3304
629 1 41.7584 46.5538 11.0465
630 1 39.5785 55.7256 22.4766
631 1 43.7191 28.8276 13.691
632 1 4.66481 32.363 26.7354
633 1 15.6475 6.42398 49.4523
634 1 47.7839 45.5939 17.9131
635 1 29.7177 45.1098 23.5921
636 1 5.99384 6.77266 17.2677
637 1 0.615774 14.7996 39.8798
638 1 32.5203 47.1301 55.5946
639 1 28.6492 5.13529 4.8641
640 1 21.9009 53.3553 6.17495
641 1 -0.0634491 47.5759 35.5588
642 1 53.5851 18.8192 10.2915
643 1 41.5336 27.9327 24.7188
644 1 20.2151 42.5319 46.0277
645 1 0.542644 19.5015 41.0192
646 1 12.9792 31.2455 12.4393
647 1 3.14437 29.4013 8.63112
648 1 19.387 16.9273 5.18376
649 1 20.8191 20.4282 19.6577
650 1 14.9913 4.13815 3.19367
651 1 30.2645 33.2931 33.1746
652 1 50.7412 13.5382 39.9164
653 1 51.9966 30.5569 51.2605
654 1 29.5515 34.0176 -0.13409
655 1 41.3306 4.62685 30.3502
656 1 36.5723 52.2691 40.1151
657 1 55.7584 34.6229 20.7451
658 1 24.9638 8.37549 54.7288
659 1 38.7994 39.944 50.3391
660 1 1.61834 43.9744 6.72315
661 1 46.0346 36.1562 12.9792
662 1 15.4834 41.4382 44.4384
663 1 20.3075 35.8327 37.4425
664 1 52.9494 16.8942 28.2259
665 1 34.1648 42.9989 22.8625
666 1 15.4632 9.13499 26.1161
667 1 35.3729 16.7145 28.3862
668 1 47.4632 12.2285 44.3128
669 1 51.0801 22.7674 15.5676
670 1 47.0386 3.06285 11.1642
671 1 32.257 4.47977 25.4715
672 1 1.94996 18.642 8.86415
673 1 11.4425 4.4527 35.4241
674 1 46.1466 51.2539 7.5461
675 1 23.4906 7.73809 32.9755
676 1 53.6828 16.7378 24.2591
677 1 55.5154 36.0619 54.1343
678 1 15.7363 55.72 17.6606
679 1 52.6327 12.3376 22.1861
680 1 28.431 32.4391 46.0325
681 1 0.391078 26.0329 48.8227
682 1 7.36013 3.39946 44.7946
683 1 43.1706 12.8722 21.0655
684 1 38.3989 32.3957 37.3536
685 1 23.035 54.8253 15.0508
686 1 44.612 15.0512 11.3885
687 1 47.1579 55.3101 28.2418
688 1 20.5729 7.25541 33.4257
689 2 21.6151 49.4306 24.2208
690 2 30.1376 50.127 10.1404
691 2 34.4341 26.8473 38.9364
692 2 8.14935 42.3686 49.2975
693 2 44.7558 48.2752 22.5522
694 2 3.19943 51.2247 54.4975
695 2 17.6019 15.1497 45.1622
696 2 16.3856 40.816 8.35228
697 2 1.57639 18.2433 36.173
698 2 17.1451 18.5415 7.05192
699 2 44.909 11.4502 40.1144
700 2 38.5358 5.07807 3.84978
701 2 53.3107 27.3978 5.53493
702 2 36.1958 28.77 27.0637
703 2 48.9589 45.8353 43.9242
704 2 54.1542 12.9035 17.5178
705 2 2.35575 36.9055 7.65709
706 2 2.13664 40.4647 44.5235
707 2 47.5207 17.288 19.0361
708 2 43.4278 54.4787 0.865924
709 2 44.1233 30.4752 42.3766
710 2 52.8634 48.4616 30.8374
711 1 36.9874 2.1916 46.2286
712 1 17.7707 25.6003 49.0722
713 1 1.24607 49.4282 43.9155
714 1 37.8568 30.1738 24.9236
715 1 1.09844 10.9768 44.7422
716 1 2.91326 15.6129 51.2502
717 1 47.0614 1.02457 3.64438
718 1 4.73812 41.7591 55.9449
719 1 41.7892 16.9518 52.653
720 1 19.1603 16.2915 13.3452
721 1 31.2678 6.50714 5.18065
722 1 31.858 37.7359 55.4662
723 1 19.2392 15.0985 15.8052
724 1 48.1344 37.2473 53.6182
725 1 13.2108 45.7507 34.9379
726 1 29.9735 41.4447 42.1276
727 1 32.4066 55.0134 18.9082
728 1 28.1415 0.494021 55.5514
729 1 40.9909 1.72804 52.2797
730 1 5.21054 7.08366 37.8926
731 1 53.9392 11.232 20.1092
732 1 12.8312 1.07557 15.0219
733 1 35.967 52.8811 55.021
734 1 37.353 43.7674 18.1097
735 1 40.0228 9.74192 1.45037
736 1 51.6235 19.1133 50.3728
737 1 30.9714 41.9715 27.5522
738 1 0.713757 11.4977 6.7251
739 1 21.6884 16.669 2.93113
740 1 40.343 35.3087 49.3643
741 1 53.8046 9.4462 32.7345
742 1 18.8914 40.539 6.3491
743 1 44.7167 29.3419 27.0375
744 1 33.4808 55.6825 40.3885
745 1 44.7339 12.7521 13.0209
746 1 20.4175 17.9019 20.9405
747 1 0.658153 3.05617 36.2306
748 1 46.1696 54.868 2.35004
749 1 17.1644 13.1486 42.788
750 1 23.5463 18.7359 2.01364
751 1 19.0302 32.8385 33.8415
752 1 15.1187 48.4159 38.9999
753 1 20.1914 9.73714 43.6997
754 1 36.481 53.9528 26.9548
755 1 29.3109 18.1988 18.37
756 1 31.6879 49.2072 53.5063
757 1 7.23068 19.653 29.7772
758 1 54.5985 27.1621 20.2948
759 1 44.7117 7.17397 18.6197
760 1 19.2055 32.5942 54.5423
761 1 48.6094 15.3838 46.9196
762 1 30.5917 52.2531 12.0951
763 1 24.3294 17.748 8.68722
764 1 18.3942 13.2373 21.4406
765 1 42.453 19.9423 40.0736
766 1 19.4713 35.4677 2.8264
767 1 4.72586 51.5436 28.5902
768 1 25.845 22.2199 35.4747
769 1 18.3533 48.5 54.7425
770 1 19.0321 3.6209 4.62708
771 1 11.9628 38.5095 44.1612
772 1 29.6526 13.0327 52.6307
773 1 10.3088 16.4641 45.6485
774 1 33.3794 2.46448 27.0969
775 1 46.523 41.8599 29.725
776 1 25.2134 55.8128 22.2932
777 1 46.1206 47.5635 25.3595
778 1 21.9848 33.3208 48.0098
779 1 40.8533 27.1808 44.8781
780 1 31.4079 47.4698 40.8456
781 1 20.3218 37.936 25.0694
782 1 4.64912 19.077 15.5755
783 1 50.4579 1.05685 36.6823
784 1 44.2317 28.028 24.2815
785 1 27.2669 25.9256 48.4738
786 1 15.766 7.51533 42.03
787 1 5.81693 31.2361 53.6538
788 1 2.28768 10.4838 37.0575
789 1 15.5684 46.2051 28.3145
790 1 51.6937 29.6996 43.5257
791 1 36.5881 18.8061 24.6559
792 1 25.9686 55.0212 19.5417
793 1 2.59576 50.4565 22.5216
794 1 30.0812 25.7642 28.3884
795 1 55.8042 21.3433 37.0672
796 1 44.3641 12.2148 4.10917
797 1 18.8989 11.349 13.8768
798 1 42.4408 29.131 54.1752
799 1 16.3731 35.5736 12.1099
800 1 17.2042 30.7821 55.1931
801 1 48.7512 48.1799 10.9031
802 1 20.8773 15.413 36.9349
803 1 40.0642 45.2192 40.0775
804 1 51.8216 37.1531 9.38647
805 1 38.4447 44.7106 32.2944
806 1 13.2412 15.2157 37.088
807 1 55.5541 16.042 34.8041
808 1 49.2047 8.30702 38.3953
809 1 10.3768 12.4046 1.16226
810 1 8.06014 40.7023 32.119
811 1 33.5384 22.179 48.257
812 1 53.9197 16.014 44.6113
813 1 0.781229 11.5925 2.31148
814 1 45.6911 4.93026 19.966
815 1 4.63102 8.93553 41.7977
816 1 49.8268 4.86865 35.2075
817 1 44.5808 43.4459 29.0673
818 1 54.7651 48.3088 55.1917
819 1 18.1515 37.2152 43.1527
820 1 53.2756 28.2449 38.4012
821 1 32.2233 29.6542 38.8305
822 1 0.985732 4.08027 28.8699
823 1 54.0114 46.5419 37.7303
824 1 54.5453 0.144683 28.2116
825 1 17.4517 54.3398 29.799
826 1 16.6839 50.58 3.98487
827 1 19.933 33.6497 22.7074
828 1 35.3803 23.2581 26.2322
829 1 49.5533 55.9642 29.428
830 1 51.3199 43.5447 4.25997
831 2 7.39485 40.3226 40.0759
832 2 24.0249 14.201 3.24875
833 2 20.2527 43.2809 23.5109
834 2 43.2634 27.0127 46.8551
835 2 25.0292 -0.0217705 27.8217
836 2 23.5982 14.293 32.44
837 2 15.5917 27.2912 17.5808
838 2 23.2096 42.3829 47.4539
839 2 28.5672 35.5456 31.5705
840 2 19.6796 16.1092 53.4613
841 2 15.8185 27.3854 26.4499
842 2 47.0309 9.63863 45.997
843 2 42.3824 1.7421 29.8559
844 2 31.2983 15.423 18.1656
845 2 8.49838 51.7519 16.2214
846 2 41.2682 41.2879 48.6117
847 2 48.6042 54.9614 10.3227
848 2 47.7352 44.5009 25.8975
849 2 23.2829 17.4578 34.8378
850 2 22.5187 32.0447 44.5478
851 2 47.973 -0.111317 53.7853
852 2 46.5616 38.6601 20.4267
853 1 35.8883 46.1423 9.52959
854 1 30.3627 42.1681 46.776
855 1 47.5512 26.6307 15.2726
856 1 10.1669 23.7342 34.5848
857 1 55.0507 17.0555 40.2282
858 1 14.2787 50.2712 48.8359
859 1 34.9216 24.8315 41.0401
860 1 9.33612 37.6912 4.21565
861 1 51.8626 36.5302 29.239
862 1 54.2447 30.7002 5.81152
863 1 33.3433 11.5293 10.3969
864 1 47.6388 26.5674 49.4331
865 1 14.7683 26.4784 14.331
866 1 12.1916 33.9049 0.044818
867 1 50.7034 21.9585 37.0697
868 1 49.2546 1.78774 34.2558
869 1 53.5569 26.3317 52.6064
870 1 33.4141 24.4273 20.962
871 1 10.1566 28.0306 14.9885
872 1 53.1273 37.7658 40.6574
873 1 12.6767 39.4305 32.0363
874 1 53.9151 46.0218 1.52575
875 1 41.4505 29.2985 48.3056
876 1 0.434067 16.6914 31.1555
877 1 0.206109 27.2567 22.7629
878 1 4.50294 35.7691 20.1314
879 1 10.9125 14.5323 30.8781
880 1 51.563 11.5792 2.01312
881 1 31.7597 13.5281 47.7288
882 1 44.7083 22.5599 52.5838
883 1 26.5814 14.086 13.7713
884 1 51.4485 54.5078 36.3279
885 1 29.9728 22.9386 1.51206
886 1 39.177 47.7662 1.93118
887 1 7.11667 15.6987 19.8628
888 1 2.82218 29.6425 46.9792
889 1 46.1808 7.79408 34.1607
890 1 54.7729 2.95547 6.25699
891 1 52.8405 20.5596 37.6358
892 1 37.71 54.5641 20.7188
893 1 14.4739 51.3654 33.959
894 1 8.97758 41.0148 9.56015
895 1 3.9346 49.2344 40.5751
896 1 2.64049 40.8515 17.7337
897 1 28.0966 53.0744 10.2394
898 1 41.1024 35.4023 42.5163
899 1 16.5911 19.266 32.2634
900 1 9.3018 27.884 2.11956
901 1 34.0426 37.4078 42.0103
902 1 25.5866 45.8697 26.2516
903 1 3.79365 26.4213 9.00292
904 1 35.8029 35.6447 11.6089
905 1 28.2181 30.2498 22.3702
906 1 17.4075 35.8125 7.39385
907 1 34.8815 50.4032 13.955
908 1 1.62581 6.1246 34.7701
909 1 40.6218 3.05637 42.5148
910 1 52.5832 38.3088 7.03367
911 1 13.0075 8.60865 24.923
912 1 16.7424 18.5794 37.0717
913 1 4.25189 45.1731 5.88871
914 1 53.1542 51.7822 31.0939
915 1 18.314 21.301 39.1776
916 1 28.4524 26.45 40.3292
917 1 35.1771 55.7845 4.34021
918 1 50.3326 34.9012 14.3724
919 1 48.5411 40.8922 38.5456
920 1 12.1335 38.4595 38.5393
921 1 31.735 54.9373 11.4337
922 1 17.8034 41.6939 32.0958
923 1 50.1252 5.79223 38.5603
924 1 0.612962 11.773 16.4214
925 1 45.0915 55.636 4.76927
926 1 27.8117 49.716 51.4816
927 1 52.5799 49.3731 43.2185
928 1 42.1264 12.0939 12.6541
929 1 49.9566 33.295 7.23123
930 1 38.5182 0.87098 19.7808
931 1 17.12 25.4993 31.6419
932 1 12.4922 48.4309 52.3573
933 1 30.6751 7.05898 43.8407
934 1 24.7546 51.1701 54.7492
935 1 5.25972 39.2096 54.9055
936 1 7.63284 32.7245 11.8715
937 1 33.9415 0.622583 42.6539
938 1 36.4799 6.28831 40.4513
939 1 5.45311 29.3577 16.0177
940 1 7.32723 38.9522 53.0504
941 1 36.5505 6.4617 35.4574
942 1 15.2406 46.4586 45.4565
943 1 33.5839 36.5458 34.5224
944 1 8.95358 41.294 16.1857
945 1 44.7109 20.9038 44.4985
946 1 9.76138 42.5265 44.3311
947 1 41.2562 31.1605 40.8172
948 1 15.7529 55.629 43.7817
949 1 49.682 50.0479 15.4523
950 1 39.3912 27.3842 50.4771
951 1 14.9139 43.1918 53.8468
952 1 44.0231 1.11448 48.8182
953 1 25.7161 22.3327 51.2864
954 1 11.0609 45.5994 40.5512
955 1 13.3303 22.122 15.488
956 1 12.1538 20.3276 8.43335
957 1 47.0292 43.7948 50.9749
958 1 8.31317 25.4319 36.1622
959 1 31.5146 49.9301 35.544
960 1 53.2481 14.1026 12.4327
961 1 37.0589 41.6043 42.567
962 1 54.9056 6.92173 18.8538
963 1 7.69533 30.1103 47.2123
964 1 25.3914 14.7671 44.4144
965 1 15.3538 30.4652 35.6412
966 1 24.9958 42.6485 31.6344
967 1 10.6891 9.22666 11.2991
968 1 42.4827 9.80189 53.8454
969 1 32.2128 36.9897 50.3368
970 1 31.146 17.3006 15.6434
971 1 44.9384 6.01905 42.6233
972 1 52.6855 8.42708 51.8378
973 2 45.3427 4.36055 25.599
974 2 46.007 39.2515 35.0161
975 2 53.3102 39.0629 27.7629
976 2 17.5154 30.5993 49.8082
977 2 52.7345 36.2181 16.0409
978 2 52.4972 36.196 19.7681
979 2 33.0347 42.3486 40.6636
980 2 54.9834 6.49528 44.8467
981 2 36.4867 11.8418 9.76752
982 2 54.2873 29.644 49.1204
983 2 12.1918 31.199 1.41545
984 2 46.351 22.6582 34.2735
985 2 52.148 2.39427 13.1522
986 2 7.45192 18.5355 38.149
987 2 20.2712 6.58158 5.20899
988 2 2.44287 26.857 51.7605
989 2 39.9595 27.8693 32.2751
990 2 54.0668 9.98329 15.0786
991 2 22.997 21.2965 17.715
992 2 16.1369 15.6283 54.7978
993 2 1.75011 15.6052 55.7664
994 2 53.521 22.9189 35.3096
995 1 54.2809 3.26774 43.7733
996 1 51.0812 25.4742 47.078
997 1 24.7697 2.26203 48.334
998 1 3.62214 49.1358 26.9883
999 1 25.2337 51.1997 52.1308
1000 1 19.5704 8.84801 47.9058
1001 1 30.7058 30.322 36.5959
1002 1 52.727 26.392 8.21578
1003 1 13.8905 28.7252 30.6794
1004 1 6.48394 40.0969 7.09061