ITEM: TIMESTEP
0
ITEM: NUMBER OF ATOMS
9088
ITEM: BOX BOUNDS pp pp pp
-5.2327490415654843e-01 5.6407767530144802e+01
-5.2327490415654843e-01 5.6407767530144802e+01
-5.2327490415654843e-01 5.6407767530144802e+01
ITEM: ATOMS id type x y z
1 1 49.6859 48.3153 13.008
2 1 4.60566 25.3731 33.228
3 1 31.2466 17.5643 52.1621
4 1 44.5376 22.3879 1.17297
5 1 43.7343 53.9361 55.1561
6 1 1.23444 11.9012 10.2447
7 1 4.87833 40.2546 19.3102
8 1 21.3201 19.3689 27.4169
9 1 10.4346 36.3742 37.0242
10 1 9.42185 16.9213 0.457732
11 1 41.8608 12.2527 48.5038
12 1 10.4698 13.1735 51.7515
13 1 9.95047 38.5083 10.7197
14 1 48.2304 17.8278 24.2998
15 1 21.3167 51.1311 49.3076
16 1 16.6737 25.5055 33.6851
17 1 22.2872 42.795 46.1871
18 1 5.26479 22.8308 28.9038
19 1 54.3698 28.3208 19.9829
20 1 48.7295 12.5999 52.7059
21 1 19.8153 54.084 29.9395
22 1 21.9495 35.8964 52.6883
23 1 51.4709 19.1846 52.7026
24 1 21.5064 54.0726 49.3011
25 1 0.453185 24.0624 32.8109
26 1 31.6664 31.0552 5.28206
27 1 52.6862 52.3317 47.8946
28 1 39.785 43.5703 40.4114
29 1 34.119 29.1753 18.6971
30 1 17.7863 10.0652 41.6231
31 1 14.6556 54.4611 50.9877
32 1 26.4877 30.938 38.7847
33 1 28.1581 1.03998 17.9187
34 1 39.8926 24.2253 10.3695
35 1 18.5629 38.7826 29.2069
36 1 4.21635 7.19773 23.8515
37 1 30.8107 39.1672 37.1501
38 1 19.0745 50.7911 29.6605
39 1 40.0027 15.4779 24.7579
40 1 36.8558 26.2125 28.4635
41 1 22.71 38.7306 52.9927
42 1 52.6005 26.5499 11.1536
43 1 36.9284 33.0043 30.7343
44 1 42.5549 41.0234 6.82617
45 1 18.9686 51.1354 33.9364
46 1 50.7673 45.3173 26.8688
47 1 15.8263 28.1894 15.457
48 1 28.2139 2.69376 8.53343
49 1 3.54636 8.19302 26.2193
50 1 16.1994 13.8134 38.6535
51 1 8.99017 32.2981 43.9513
52 1 5.2889 51.9856 2.5663
53 1 3.18673 55.0652 29.269
54 1 39.9477 17.8048 5.98028
55 1 9.22541 26.6275 49.769
56 1 32.9087 2.34225 6.06073
57 1 34.1352 9.56015 36.6826
58 1 11.9907 16.442 0.288014
59 1 12.8243 43.3646 46.5207
60 1 31.2432 32.2141 24.1128
61 1 54.6987 26.6756 49.5618
62 1 13.9142 8.14269 36.1982
63 1 0.726996 56.1507 29.7634
64 1 50.9596 28.2793 40.991
65 1 37.4053 38.4005 46.9826
66 1 23.7193 51.3325 9.66762
67 1 22.5316 48.0735 27.8797
68 1 9.51539 15.9192 46.2443
69 1 7.51319 42.807 54.2503
70 1 0.0708381 50.8731 16.2342
71 1 27.6503 17.3726 37.8488
72 1 24.2938 47.0825 25.6869
73 1 8.62318 46.0135 3.91391
74 1 12.3999 31.3437 46.8916
75 1 37.9026 41.4292 20.2481
76 1 53.1429 44.9926 45.2594
77 1 22.6714 4.56245 25.6949
78 1 49.4879 45.0961 7.62774
79 1 15.8891 45.7891 4.3276
80 1 30.8212 32.9049 14.8379
81 1 52.9398 53.323 30.2411
82 1 32.9895 3.59561 0.997258
83 1 47.3968 23.6893 42.3306
84 1 27.2964 33.2688 41.1386
85 1 31.8216 14.9631 2.50023
86 1 2.3579 43.7271 7.19148
87 1 46.6409 14.7354 6.22806
88 1 48.0964 50.1419 32.2588
89 1 2.14115 30.1017 23.9318
90 1 0.429972 8.63538 10.7916
91 1 22.1989 6.25624 30.7237
92 1 44.9591 33.3325 30.5643
93 1 3.24323 38.2063 28.5092
94 1 47.1788 43.0392 8.28831
95 1 24.3082 6.94813 35.3534
96 1 40.414 49.6097 23.9619
97 1 24.612 -0.337042 37.3175
98 1 26.9527 12.1874 38.1432
99 1 12.1727 6.77561 29.9539
100 1 48.4302 27.18 47.2973
101 1 44.3128 37.574 0.483877
102 1 1.3403 44.4977 41.8571
103 1 16.3514 52.2769 52.2855
104 1 7.80322 13.5244 54.9563
105 1 8.87309 45.8757 51.6277
106 1 0.570723 50.0696 35.8075
107 1 52.3161 44.8417 34.5101
108 1 38.0425 49.1409 49.928
109 1 9.33789 32.0975 34.8839
110 1 40.7392 18.3368 45.7021
111 1 39.9913 24.5303 15.036
112 1 50.5999 34.7018 6.00589
113 1 22.7385 6.75585 53.3452
114 1 9.08178 51.2784 22.5131
115 1 -0.459249 16.4623 32.347
116 1 11.5632 9.71305 3.16051
117 1 28.8341 3.68728 3.32632
118 1 41.9924 1.96183 49.9308
119 1 17.0553 0.498535 21.1825
120 1 52.5131 3.92379 7.96189
121 2 7.8678 24.8947 38.6797
122 2 56.2806 29.7503 25.7909
123 2 9.32675 1.5388 51.4877
124 2 43.5234 2.26533 -0.0332692
125 2 10.85 4.48405 19.2167
126 2 17.3996 22.9321 8.58781
127 2 8.66572 54.4086 21.276
128 2 10.521 32.8473 27.4595
129 2 41.2671 5.2725 23.8395
130 2 40.0096 49.599 36.414
131 2 52.3928 14.0286 39.8777
132 2 8.20763 56.3592 36.0867
133 2 50.344 22.2756 5.98697
134 2 33.6852 24.5649 47.5419
135 2 30.626 35.7196 3.024
136 2 32.2958 24.2168 56.1301
137 2 23.9869 40.6738 48.1719
138 2 35.2154 56.3596 46.0244
139 2 50.9487 5.28535 20.8644
140 2 6.02939 4.34989 45.3337
141 2 54.941 39.9412 29.5501
142 2 24.0621 33.5432 17.634
143 1 14.2371 13.3094 23.2532
144 1 8.29983 40.6495 10.3979
145 1 21.1906 3.89854 29.4406
146 1 4.70872 30.2061 35.1755
147 1 26.6493 55.124 34.3272
148 1 20.506 10.4279 10.1374
149 1 35.8176 1.24219 43.5471
150 1 20.5922 12.152 4.72447
151 1 45.6728 17.1122 23.7724
152 1 4.36347 25.7344 19.4944
153 1 42.9474 0.54386 44.8803
154 1 55.2017 22.2412 50.3456
155 1 50.0678 52.0592 40.432
156 1 40.0122 8.38961 55.2504
157 1 -0.490083 24.5959 16.7039
158 1 32.9678 31.4906 33.6401
159 1 21.2525 47.3292 52.0607
160 1 0.47289 48.2284 29.349
161 1 21.2085 24.1475 20.4297
162 1 30.492 52.1899 36.2805
163 1 26.4412 27.6449 53.2342
164 1 20.1513 24.2385 7.44393
165 1 44.3815 13.6454 5.05382
166 1 0.0865066 31.1505 41.6818
167 1 47.8856 34.1957 23.5038
168 1 8.09937 0.681079 20.9805
169 1 40.5321 46.4759 15.5592
170 1 23.7708 46.4187 53.4058
171 1 45.1973 1.12166 49.1065
172 1 33.3119 7.55558 42.2698
173 1 20.514 34.0473 25.1789
174 1 56.0856 46.928 50.1744
175 1 31.3076 25.0637 6.57389
176 1 47.7197 18.1636 21.6256
177 1 54.5641 32.4811 8.19347
178 1 55.4519 41.469 12.4015
179 1 19.6306 16.0775 19.3231
180 1 16.575 18.6234 39.6971
181 1 22.2345 42.0847 4.78845
182 1 33.44 56.3912 53.0084
183 1 43.9615 11.1251 18.9678
184 1 0.0836592 49.4001 50.8706
185 1 11.1732 15.7898 6.13217
186 1 43.2291 -0.383515 42.2766
187 1 14.1951 8.07998 31.3735
188 1 35.1965 31.9084 16.7442
189 1 7.22836 36.842 43.4586
190 1 2.69124 13.5881 24.5235
191 1 26.7203 28.8054 11.848
192 1 51.6257 21.2781 0.0882545
193 1 8.50657 43.5762 33.422
194 1 35.9355 15.3315 46.7375
195 1 29.3918 18.5616 -0.268373
196 1 48.9315 45.709 12.2468
197 1 53.2334 6.07824 1.29511
198 1 46.532 6.04245 17.5256
199 1 13.7947 30.2722 14.2994
200 1 52.1233 39.8358 24.6046
201 1 24.9074 26.2286 45.2132
202 1 38.2172 39.5735 37.4001
203 1 48.1984 17.8916 2.97284
204 1 40.984 24.3235 3.828
205 1 4.04052 47.5927 34.0451
206 1 21.9575 8.81389 29.1809
207 1 35.3815 11.4387 44.6736
208 1 27.1075 46.8264 12.2356
209 1 8.622 43.4926 10.9144
210 1 10.1266 42.8263 39.5315
211 1 6.9998 39.7469 24.8589
212 1 9.34392 13.3931 12.9467
213 1 24.9493 32.8968 39.2593
214 1 39.689 41.1177 27.5325
215 1 12.5468 48.6927 23.4357
216 1 9.71222 31.3514 5.02139
217 1 22.1394 39.246 1.27861
218 1 51.9409 12.2571 45.284
219 1 19.8979 28.4057 4.65314
220 1 40.1853 38.3733 39.4465
221 1 24.6581 4.38553 -0.465695
222 1 55.6406 14.7331 38.763
223 1 4.34526 50.8561 20.7185
224 1 41.5944 16.3104 47.4976
225 1 22.4201 3.90647 31.9502
226 1 53.9882 37.7841 5.66709
227 1 5.80233 22.9012 37.4456
228 1 40.5592 55.5202 20.0031
229 1 22.5266 41.5385 19.2701
230 1 21.5458 38.2213 32.9894
231 1 2.67211 49.4085 23.9845
232 1 12.4188 3.53075 21.5104
233 1 21.3699 8.80804 8.13011
234 1 45.2127 44.105 34.5986
235 1 23.0861 14.7239 51.5893
236 1 49.3215 0.62336 51.8502
237 1 29.5064 53.9067 8.5556
238 1 9.45049 10.6678 17.7172
239 1 41.3541 37.2788 17.8751
240 1 5.13264 14.0153 6.7594
241 1 12.6751 34.615 2.57589
242 1 12.7399 44.2662 29.2497
243 1 23.9723 4.91103 4.21307
244 1 42.4294 23.1256 22.9437
245 1 27.7215 34.8992 27.4041
246 1 46.8629 49.3946 2.22837
247 1 17.5275 26.6093 20.3842
248 1 3.19023 8.74013 39.4185
249 1 45.9282 17.9092 47.1209
250 1 12.2179 4.03029 30.0475
251 1 51.3863 0.740844 26.9218
252 1 23.4959 36.6493 13.0327
253 1 23.8774 20.9862 7.35291
254 1 54.4975 24.6111 2.86352
255 1 49.6097 48.7184 2.42982
256 1 46.878 8.77575 37.6562
257 1 29.847 40.3233 5.33992
258 1 40.7714 48.4282 49.2957
259 1 9.12051 6.83483 51.6369
260 1 20.8689 9.62542 12.7791
261 1 54.4812 28.9351 28.1528
262 1 -0.300013 14.6408 50.7927
263 2 48.3562 21.8064 0.119587
264 2 27.8672 25.5004 46.6938
265 2 32.6622 14.4062 51.319
266 2 4.38043 54.6843 51.7502
267 2 34.8909 52.6973 26.9209
268 2 51.3701 24.528 0.459584
269 2 45.5989 12.087 7.87173
270 2 16.9183 52.8056 18.4487
271 2 7.46694 17.5773 13.8724
272 2 25.3896 41.7736 23.8184
273 2 30.6013 37.9906 50.9911
274 2 32.5495 32.6833 1.2427
275 2 6.96139 30.4068 4.00154
276 2 20.6995 8.81073 42.3034
277 2 32.3251 8.91644 33.5187
278 2 39.9355 34.6253 23.9687
279 2 34.2988 20.6654 49.3771
280 2 41.6102 20.5945 24.8698
281 2 3.87247 47.9049 38.4698
282 2 11.4868 55.8265 41.9175
283 2 16.2466 51.2266 29.1794
284 2 51.224 10.8619 23.1463
285 1 55.2431 54.0995 35.4614
286 1 9.22059 34.4702 29.949
287 1 23.1826 54.6187 52.1388
288 1 38.3243 49.0154 22.2515
289 1 16.2497 10.228 32.8253
290 1 36.5197 5.02336 29.9398
291 1 16.4118 44.9751 1.31794
292 1 29.006 47.0517 34.3284
293 1 17.7263 34.3181 31.2541
294 1 29.0199 8.63857 7.73483
295 1 6.50476 12.8643 4.07475
296 1 13.8729 16.514 26.2644
297 1 16.8824 52.0303 49.1888
298 1 39.2697 28.2701 1.08689
299 1 25.244 17.8898 32.9159
300 1 25.5529 2.54326 4.37952
301 1 56.3773 24.7608 43.2262
302 1 13.4311 46.5587 4.73047
303 1 50.2942 9.66049 26.6366
304 1 54.3706 35.0519 27.6217
305 1 15.0571 49.0215 47.6183
306 1 11.8478 0.80836 15.4818
307 1 47.7391 51.3134 45.9286
308 1 54.556 19.4649 22.8293
309 1 29.0307 24.2774 55.8251
310 1 54.3058 9.56962 25.9492
311 1 2.41455 21.003 20.6963
312 1 36.0375 52.3442 29.9117
313 1 30.706 40.5348 24.4851
314 1 22.8693 37.0742 2.09417
315 1 54.306 49.9969 11.9189
316 1 32.0527 20.4288 8.89785
317 1 12.2741 39.9297 46.3873
318 1 6.57049 12.4177 1.46111
319 1 14.4111 37.935 44.9053
320 1 20.3401 7.77425 45.4257
321 1 40.4257 28.0699 6.95259
322 1 43.9675 54.882 40.4084
323 1 0.404541 10.0525 49.9277
324 1 19.4839 22.575 15.5084
325 1 26.1701 7.62986 10.6542
326 1 -0.111468 38.8006 24.9775
327 1 6.36787 14.5078 9.33459
328 1 8.99066 27.4818 3.3891
329 1 41.1409 32.9481 37.0126
330 1 19.0739 54.6018 39.2636
331 1 47.9714 44.4155 32.1112
332 1 28.7015 19.1076 13.408
333 1 0.00674833 45.4632 52.4457
334 1 19.8015 5.06731 10.2187
335 1 12.9392 30.1951 27.0367
336 1 0.309411 5.58924 21.0321
337 1 28.825 44.3084 34.1085
338 1 34.655 0.0620215 5.49571
339 1 51.6967 5.83267 17.826
340 1 43.2597 35.8824 33.8099
341 1 13.1999 3.99658 2.49785
342 1 48.3854 0.241194 3.48484
343 1 48.3834 35.3163 47.4229
344 1 42.1962 51.2338 28.6075
345 1 5.88634 12.1027 41.3723
346 1 7.40504 34.7546 32.3361
347 1 21.4691 36.4452 37.2663
348 1 2.16673 25.906 17.5765
349 1 44.9927 22.1746 52.7338
350 1 29.0011 53.3149 38.3085
351 1 20.1052 51.6695 4.93752
352 1 17.8854 11.3194 39.0897
353 1 52.3991 6.36643 4.38029
354 1 25.576 40.9323 9.72276
355 1 36.5646 51.3118 7.43148
356 1 12.7161 5.89328 0.354169
357 1 4.42903 3.61035 48.0508
358 1 47.1903 8.46753 41.0917
359 1 6.55211 30.4935 22.8686
360 1 37.7648 0.781113 16.2996
361 1 12.2584 49.2731 45.401
362 1 39.1687 41.6819 35.7502
363 1 37.3703 22.9135 16.0271
364 1 9.01574 32.2478 39.6427
365 1 48.794 5.00937 47.0132
366 1 28.4939 2.21028 48.2514
367 1 52.5836 9.61814 45.9971
368 1 34.3212 53.1522 21.2341
369 1 18.8742 19.6585 30.4192
370 1 41.4364 54.6332 11.3763
371 1 54.9204 15.6229 40.9966
372 1 16.4023 22.6671 11.3755
373 1 39.9527 55.2292 30.791
374 1 23.298 49.0893 2.02337
375 1 13.6692 31.8938 52.6555
376 1 30.8784 15.9916 14.8572
377 1 35.8889 20.6917 0.00936482
378 1 8.6514 21.7766 9.95606
379 1 22.6493 11.7584 48.5652
380 1 13.6348 32.0281 31.293
381 1 55.5697 0.99959 2.04051
382 1 42.6369 44.5122 -0.288296
383 1 51.0227 6.75073 -0.173148
384 1 45.6748 40.9321 2.51875
385 1 39.7292 42.7795 44.9548
386 1 35.6131 35.434 26.3777
387 1 28.1578 20.6512 47.4428
388 1 32.3163 19.905 43.8398
389 1 50.0619 54.8427 30.5438
390 1 35.0395 17.7133 47.9005
391 1 24.3463 20.0186 35.1185
392 1 50.9414 18.5132 9.00347
393 1 52.714 26.6419 40.2549
394 1 36.6122 45.6248 36.5082
395 1 2.78682 56.1448 54.152
396 1 13.7479 36.7221 4.02177
397 1 26.9917 49.6971 3.80851
398 1 14.4989 1.77959 3.92249
399 1 22.1933 6.421 9.58586
400 1 28.8993 14.7563 41.9884
401 1 24.1365 29.921 38.9322
402 1 55.1531 38.6845 34.8444
403 1 1.25759 4.18209 35.3175
404 1 2.81208 1.62002 1.93873
405 2 26.6854 3.38304 45.9814
406 2 24.5403 55.7898 32.0177
407 2 0.511578 25.1777 46.2761
408 2 42.4926 29.5233 15.4151
409 2 2.20035 7.2671 33.7976
410 2 17.0721 12.4885 36.355
411 2 46.546 20.4945 20.4163
412 2 14.7865 42.0384 2.07627
413 2 4.20138 53.0526 10.2328
414 2 48.1776 31.6493 0.349632
415 2 42.8887 39.8852 1.99542
416 2 1.40258 22.206 35.3219
417 2 25.9324 16.0749 30.4549
418 2 17.3867 51.1015 46.2269
419 2 49.7674 33.6012 26.412
420 2 53.4525 18.7089 11.0097
421 2 20.9811 28.1831 31.7896
422 2 17.0141 41.0898 36.1494
423 2 28.9521 55.5982 3.37764
424 2 33.424 2.86163 45.4011
425 2 21.5211 0.532506 54.1957
426 2 26.9003 44.3909 21.6065
427 1 45.4478 45.8337 46.4388
428 1 -0.262074 10.5535 8.38638
429 1 15.2655 13.1561 44.8109
430 1 12.8375 2.70495 6.0189
431 1 53.9952 -0.202974 49.8539
432 1 0.352386 46.7139 44.2688
433 1 35.428 9.20187 34.3048
434 1 15.9877 30.3049 44.5457
435 1 52.6272 8.68498 43.3541
436 1 2.45081 1.16622 47.6473
437 1 1.1596 10.5103 17.0604
438 1 52.6332 40.0557 43.7928
439 1 10.3435 16.9468 54.4758
440 1 56.0365 12.7699 29.5354
441 1 37.2648 21.7678 48.5183
442 1 18.6357 19.7431 21.9759
443 1 32.4786 44.2608 55.7015
444 1 13.363 54.3846 8.40198
445 1 21.6434 46.556 2.70977
446 1 49.1908 0.924381 0.697038
447 1 30.3768 49.2611 49.8028
448 1 24.3522 0.171818 13.1601
449 1 14.8251 19.0133 19.3917
450 1 26.6603 10.1612 22.1906
451 1 21.765 51.4062 20.052
452 1 0.0854929 11.1753 25.7477
453 1 53.9871 30.9206 5.86322
454 1 10.4775 50.2869 17.9427
455 1 17.1505 34.9357 8.21677
456 1 52.4999 23.7823 40.8082
457 1 4.03234 28.9198 10.6356
458 1 49.975 35.0055 30.3828
459 1 50.4705 38.8968 10.2675
460 1 37.2652 2.54215 31.0125
461 1 52.7203 46.7516 3.24772
462 1 12.3785 33.2364 21.7641
463 1 18.7012 53.6621 50.6245
464 1 52.4883 51.0733 40.9114
465 1 13.7784 37.7516 29.1017
466 1 51.7995 27.8469 0.757422
467 1 22.6461 34.1697 43.6592
468 1 8.68601 31.9863 24.2996
469 1 4.75113 31.511 42.5134
470 1 6.45643 27.323 2.412
471 1 14.6954 34.717 51.4796
472 1 52.0047 16.4741 6.34143
473 1 16.969 29.0817 29.8269
474 1 20.2134 50.1588 52.8494
475 1 30.756 15.3808 25.1025
476 1 37.467 50.8891 51.8137
477 1 27.4109 3.50066 37.7961
478 1 23.8347 39.5434 34.1605
479 1 36.5962 8.18629 36.6681
480 1 56.4009 17.2454 11.4237
481 1 10.2048 18.1934 24.1739
482 1 8.51028 37.3554 46.6964
483 1 49.7601 40.9726 42.7379
484 1 16.6554 32.7555 35.3543
485 1 -0.494147 11.6202 34.2558
486 1 30.4666 41.1786 52.3481
487 1 42.8917 49.8642 23.0372
488 1 10.8813 10.353 5.84393
489 1 43.6812 52.128 24.6673
490 1 52.5994 18.7652 16.4007
491 1 32.3619 53.5492 18.865
492 1 15.4258 49.2074 7.96933
493 1 30.348 49.5308 13.6359
494 1 2.53813 44.0874 -0.192194
495 1 8.25802 50.4044 49.4223
496 1 55.1227 55.0027 42.8975
497 1 21.7407 38.8542 35.726
498 1 52.346 35.1879 32.1528
499 1 7.29892 43.2375 44.811
500 1 52.1662 47.6122 27.2784
501 1 38.5566 25.8048 35.4127
502 1 51.8181 55.1917 25.9727
503 1 13.2027 10.8875 10.1259
504 1 43.5982 23.6641 9.29114
505 1 34.702 39.4227 4.3185
506 1 54.2609 20.0741 28.3709
507 1 34.9699 21.9219 46.6671
508 1 16.3337 27.0365 13.2011
509 1 24.088 21.4646 56.327
510 1 17.454 17.66 23.4088
511 1 12.957 10.8935 22.9754
512 1 7.83717 24.9177 7.16847
513 1 25.9725 49.9517 10.6329
514 1 24.9269 8.13975 55.0651
515 1 46.2692 29.7162 2.36028
516 1 52.1601 23.6751 14.715
517 1 56.2495 37.3919 1.51559
518 1 28.0306 16.8972 15.6159
519 1 14.82 11.1687 40.1592
520 1 7.28515 55.6151 28.4797
521 1 53.8744 36.9328 40.6873
522 1 9.52248 34.0631 50.0225
523 1 54.8951 37.1544 37.7541
524 1 23.3094 32.4653 0.913409
525 1 0.439591 3.93282 55.2538
526 1 41.4383 16.8395 33.8606
527 1 40.5618 36.8406 50.9563
528 1 31.7934 52.9332 7.11354
529 1 17.7417 44.6565 17.0227
530 1 54.3165 27.939 7.09428
531 1 31.0946 36.6221 47.847
532 1 14.7912 10.1159 7.84322
533 1 27.0189 14.9175 54.2286
534 1 12.1551 30.6085 10.8118
535 1 17.6351 27.8144 38.5792
536 1 25.8027 26.6665 28.3138
537 1 10.7191 3.44038 4.1057
538 1 54.5226 39.2373 26.4483
539 1 31.3744 37.2713 39.2645
540 1 21.6727 19.8272 47.1924
541 1 9.61058 33.9042 41.7985
542 1 24.7283 2.37918 31.6848
543 1 10.6581 15.0533 32.0678
544 1 43.794 38.7143 26.3938
545 1 42.5823 46.556 50.6171
546 1 6.87382 37.4674 6.76074
547 2 51.1084 3.60079 0.413232
548 2 20.7221 34.7943 32.2827
549 2 8.37591 19.9216 7.51446
550 2 27.975 48.3441 6.53612
551 2 46.6709 32.552 18.6088
552 2 35.785 6.51384 5.65564
553 2 52.9327 21.4032 30.8191
554 2 34.0422 54.0841 8.84147
555 2 18.526 9.9589 47.2608
556 2 31.3446 20.8576 46.6239
557 2 14.1777 25.1742 12.3907
558 2 20.3476 3.21994 34.7131
559 2 18.3836 34.2867 1.11949
560 2 15.6324 20.5974 34.3015
561 2 5.19492 46.6467 4.13459
562 2 52.123 28.3441 35.1729
563 2 10.7913 41.2856 12.1171
564 2 11.298 50.9011 25.1957
565 2 28.8083 50.7408 26.0993
566 2 54.5447 49.3202 17.7822
567 2 2.2421 51.2415 38.5193
568 2 32.2085 44.6865 5.1223
569 1 19.9236 1.44783 29.5001
570 1 45.9708 10.3217 46.1227
571 1 32.5963 33.0465 42.6558
572 1 10.0234 2.37968 21.8575
573 1 11.2152 23.2808 29.4721
574 1 3.07218 12.5378 12.5354
575 1 39.7801 3.53398 11.2587
576 1 28.1326 47.8512 18.7713
577 1 1.39001 2.8911 24.7629
578 1 7.76162 15.8743 50.2344
579 1 55.4487 30.9339 55.7939
580 1 8.80491 56.133 25.8625
581 1 41.5528 49.1243 9.61523
582 1 29.4254 50.4034 20.4202
583 1 12.9933 1.39425 13.2287
584 1 25.8995 55.4644 51.3239
585 1 0.188255 37.5364 36.25
586 1 37.025 11.5739 12.5019
587 1 47.7551 -0.202149 39.9067
588 1 37.2797 -0.120465 22.5828
589 1 36.4553 38.4007 38.942
590 1 24.8916 25.1055 48.2266
591 1 29.0016 23.5873 9.63181
592 1 0.203393 32.3252 23.8244
593 1 20.3534 5.33914 26.9872
594 1 22.6304 36.5961 26.1
595 1 28.0255 5.03729 23.3185
596 1 5.48901 34.6683 16.2342
597 1 47.4499 1.75467 11.9021
598 1 45.3798 42.6771 11.8756
599 1 21.5168 2.19088 48.013
600 1 8.62461 7.26778 25.5563
601 1 14.278 21.0224 31.6783
602 1 35.5274 44.288 43.429
603 1 29.0553 31.0515 6.05581
604 1 7.51175 33.6304 28.0915
605 1 52.2767 0.902775 37.8888
606 1 44.9954 55.6469 38.0599
607 1 15.2592 13.2567 28.9875
608 1 25.3148 36.5207 18.102
609 1 19.4772 47.0929 30.1361
610 1 55.716 28.7261 30.6284
611 1 9.01592 34.916 44.608
612 1 4.02653 28.3102 3.36964
613 1 37.269 32.9777 47.0503
614 1 14.028 37.6373 33.0577
615 1 55.2507 6.08472 7.74626
616 1 50.0361 15.1275 42.499
617 1 34.0162 25.7828 0.998107
618 1 34.0808 32.1095 36.4213
619 1 46.2167 16.9068 27.9404
620 1 6.77894 14.5913 39.8866
621 1 47.484 29.823 5.80972
622 1 -0.505992 27.1192 28.1429
623 1 52.2079 31.4267 12.0294
624 1 24.4128 52.2484 16.5261
625 1 30.7049 25.0963 10.8633
626 1 35.9445 47.0958 1.91808
627 1 8.8233 10.9494 13.0103
628 1 15.356 53.3622 45.8344
629 1 1.73047 14.2605 52.9163
630 1 3.99205 20.4132 29.0548
631 1 31.3944 10.6822 47.3667
632 1 52.418 31.9813 17.6504
633 1 5.30165 50.4788 39.7592
634 1 21.3698 12.4928 39.0018
635 1 -0.400419 14.5833 20.5565
636 1 12.6742 42.9775 9.48362
637 1 3.18952 46.7797 55.9801
638 1 1.98415 24.0072 54.0676
639 1 41.6457 45.6279 20.5048
640 1 22.9073 14.7257 44.2053
641 1 38.5319 9.49818 9.00587
642 1 1.23713 2.53582 21.8084
643 1 31.2675 13.3644 15.9748
644 1 51.6756 13.5552 7.19199
645 1 36.8441 5.98979 3.00175
646 1 45.988 4.55857 22.4915
647 1 53.139 12.9433 33.4515
648 1 15.9495 13.1042 21.1699
649 1 18.6681 28.4144 15.1092
650 1 1.47822 38.0294 48.9886
651 1 28.5444 47.489 3.58832
652 1 12.834 20.2108 5.16291
653 1 32.5606 21.3091 25.8097
654 1 23.4169 50.0703 56.2703
655 1 1.83762 36.1228 30.563
656 1 22.1348 20.9981 24.6927
657 1 17.4204 35.7803 50.9767
658 1 -0.0726498 6.64697 35.8456
659 1 8.13962 50.7283 52.1915
660 1 0.920006 10.0397 2.87076
661 1 4.0744 26.8755 0.885484
662 1 33.2976 29.0759 16.0896
663 1 45.087 19.309 35.2305
664 1 9.68349 15.1926 24.4198
665 1 23.8242 18.8702 54.898
666 1 19.9626 33.0101 29.7504
667 1 18.869 16.2529 55.7622
668 1 50.712 6.68919 50.5038
669 1 11.8601 23.4884 42.0638
670 1 22.0848 8.57136 15.7609
671 1 21.8414 3.62001 22.7666
672 1 41.7174 29.5477 41.8164
673 1 1.46233 54.8093 56.1963
674 1 30.0292 39.2373 53.9019
675 1 36.5573 46.1878 45.2932
676 1 19.4648 29.8421 12.3711
677 1 40.1739 43.1266 19.4787
678 1 15.1607 45.4742 24.0551
679 1 12.2063 44.6687 52.2351
680 1 19.0909 39.4751 34.2828
681 1 2.59426 51.253 15.7653
682 1 3.5201 51.8607 52.6428
683 1 47.3484 24.6362 27.3374
684 1 48.7678 50.3229 8.498
685 1 21.2297 26.6326 6.57031
686 1 47.2192 43.3228 1.05585
687 1 9.52027 54.4762 47.9248
688 1 52.2844 0.814615 51.7726
689 2 44.7157 53.6431 17.9624
690 2 3.41096 47.0486 43.1734
691 2 26.1928 50.6729 31.2429
692 2 32.2695 28.6636 33.6624
693 2 21.1946 51.1248 11.73
694 2 19.1448 36.5257 5.85309
695 2 45.3245 9.05049 14.1996
696 2 26.7276 29.5416 20.996
697 2 4.26598 52.4657 46.1932
698 2 5.43152 5.29871 22.0864
699 2 21.1253 12.2638 53.5377
700 2 14.6953 2.30975 23.8248
701 2 6.841 42.0488 13.017
702 2 45.8818 41.3722 33.2029
703 2 21.4188 44.1817 7.34545
704 2 47.4969 46.7068 39.7128
705 2 3.47911 38.6388 42.6339
706 2 17.5954 39.4263 17.785
707 2 5.83763 37.6995 3.45447
708 2 37.3606 46.0394 56.0293
709 2 14.5636 27.2472 27.6327
710 2 42.0283 10.836 13.1552
711 1 55.0439 8.77079 41.8895
712 1 41.7891 29.6603 51.6621
713 1 17.9732 50.67 12.1179
714 1 6.63224 8.29271 5.28226
715 1 36.8662 20.4216 21.3912
716 1 0.406155 40.2951 35.033
717 1 33.1 35.9065 52.7097
718 1 2.36555 24.2933 9.50007
719 1 28.8918 3.31037 19.5112
720 1 43.1763 21.3378 14.6158
721 1 10.2651 5.86472 28.1477
722 1 14.9798 53.0833 11.2701
723 1 37.9542 27.417 6.1092
724 1 4.31586 10.1566 34.4909
725 1 24.0822 50.5134 12.7649
726 1 42.1917 18.9874 56.0957
727 1 25.1343 37.0205 38.7593
728 1 41.5742 18.2855 43.106
729 1 12.0877 38.0226 55.8783
730 1 49.1433 41.3814 40.169
731 1 41.2862 46.4743 35.823
732 1 6.45729 20.8885 14.2311
733 1 42.4481 35.6646 55.8699
734 1 3.7297 34.1598 25.5956
735 1 55.4271 42.667 22.8593
736 1 55.1618 2.90228 7.99957
737 1 16.4469 5.58079 9.96649
738 1 42.169 13.5174 11.857
739 1 8.9351 38.7148 41.8319
740 1 0.887058 35.3865 12.4262
741 1 34.5543 27.6412 47.9249
742 1 35.3441 10.2012 56.1896
743 1 4.75151 35.8214 41.9815
744 1 36.7171 52.2243 32.4078
745 1 0.199521 10.3588 47.3548
746 1 30.0749 50.5193 4.00341
747 1 7.08765 17.6574 52.7257
748 1 4.42502 12.6152 36.0811
749 1 2.63223 39.6834 55.6402
750 1 38.0653 20.1893 36.0534
751 1 20.9768 9.50212 19.8195
752 1 24.5641 1.95836 54.6756
753 1 44.4192 51.1727 6.73444
754 1 23.8106 48.9358 41.498
755 1 43.8422 18.9606 32.4314
756 1 19.8552 37.0193 51.0666
757 1 8.36699 6.57344 54.3646
758 1 36.9092 48.4607 36.7229
759 1 38.2564 3.83402 2.68104
760 1 7.03794 5.72628 42.6988
761 1 9.33386 2.47424 34.6891
762 1 32.8947 5.15814 5.95259
763 1 2.2662 12.3841 47.2689
764 1 25.2104 46.4434 23.1128
765 1 55.3637 52.8979 47.9592
766 1 5.89943 11.4945 25.4655
767 1 27.8532 55.8152 19.8617
768 1 19.1462 17.1743 40.0701
769 1 12.3007 51.4975 55.2159
770 1 44.0228 42.4073 1.42238
771 1 1.32436 31.8557 56.3375
772 1 41.3327 45.5148 45.9101
773 1 28.9712 10.0973 12.6219
774 1 38.3197 53.4269 52.6948
775 1 4.22864 1.76985 43.7758
776 1 25.4135 15.5612 48.0014
777 1 46.3358 44.1719 18.6428
778 1 5.88995 31.6038 28.4677
779 1 33.3649 39.7491 36.8958
780 1 39.4893 2.01633 26.8146
781 1 33.5136 14.6591 15.0132
782 1 23.6955 16.1818 13.8359
783 1 55.6548 22.007 33.4476
784 1 6.48509 46.005 20.2739
785 1 51.0562 50.8381 20.7353
786 1 48.463 10.3162 16.1312
787 1 14.7041 39.5095 16.5942
788 1 30.5871 56.1067 52.9691
789 1 29.2293 2.7467 22.4162
790 1 6.44615 24.9931 23.9246
791 1 28.7747 52.0002 28.8958
792 1 14.2949 16.5172 18.6511
793 1 29.4475 52.6277 31.6571
794 1 23.579 19.2836 14.7813
795 1 48.3958 27.4977 19.2819
796 1 24.3886 29.842 10.8254
797 1 46.3489 6.13121 1.98741
798 1 28.4103 40.1035 18.5932
799 1 1.08411 38.9932 51.6712
800 1 17.0994 28.0082 44.5639
801 1 17.9331 29.8339 51.9278
802 1 5.03277 4.1145 9.78681
803 1 10.5238 2.78123 46.0883
804 1 11.7444 30.9879 29.9259
805 1 4.85291 19.1291 26.5111
806 1 51.8553 31.3784 34.8576
807 1 38.1078 6.2972 54.7185
808 1 23.8588 49.0268 16.6088
809 1 19.5308 26.3665 46.129
810 1 54.9408 22.6258 26.1664
811 1 29.8283 10.312 44.5965
812 1 7.5574 -0.096219 7.78497
813 1 29.9706 49.9394 30.6648
814 1 41.2452 53.3028 18.3665
815 1 10.6922 8.84239 10.0787
816 1 30.7557 37.6442 23.8713
817 1 12.306 40.0416 15.0228
818 1 50.3756 22.2918 24.5241
819 1 34.9086 16.1302 12.4377
820 1 51.6752 49.6053 29.5024
821 1 9.17519 20.1843 40.7438
822 1 0.68552 5.60427 0.950661
823 1 7.71743 12.1333 43.3392
824 1 24.3852 34.5025 5.74933
825 1 0.444794 47.6988 22.2584
826 1 9.16391 35.0972 34.7176
827 1 46.3016 26.7165 6.74735
828 1 34.6198 38.2777 43.191
829 1 43.858 14.478 9.74941
830 1 47.9857 2.50825 45.1663
831 2 12.763 24.1196 5.15204
832 2 19.5883 22.2942 23.132
833 2 36.8926 41.4915 3.36126
834 2 40.0607 24.8474 22.0814
835 2 38.5359 48.2343 16.8035
836 2 9.96928 4.44445 6.93378
837 2 51.9239 51.7828 13.2475
838 2 16.7134 30.1565 20.3887
839 2 36.6847 47.4528 20.098
840 2 53.4784 25.1686 6.03578
841 2 -0.0307521 51.844 44.8814
842 2 28.94 13.9684 2.06441
843 2 33.356 32.6967 51.0253
844 2 49.3814 10.1484 46.1168
845 2 16.663 6.90694 37.0599
846 2 6.02577 12.1056 11.7183
847 2 13.6465 36.7486 42.0779
848 2 8.01615 36.1953 14.2086
849 2 52.0357 28.1279 27.0125
850 2 29.1646 55.4645 55.4952
851 2 32.8434 9.31173 44.9171
852 2 32.2197 34.4377 34.4911
853 1 10.2119 19.8603 29.4999
854 1 13.7098 6.35556 54.9781
855 1 23.9435 41.4669 11.5575
856 1 48.7477 12.924 7.51993
857 1 51.5946 12.5957 52.6394
858 1 4.87323 35.4046 18.5923
859 1 42.1357 11.343 42.6118
860 1 32.9399 21.3194 0.16617
861 1 33.1055 3.85664 48.5719
862 1 34.74 14.5304 25.31
863 1 13.7398 -0.42365 37.357
864 1 38.7758 8.72715 38.0304
865 1 42.2803 39.1874 12.8441
866 1 13.4572 46.0867 9.14896
867 1 54.8438 42.2442 31.8155
868 1 47.7055 43.1855 34.8324
869 1 43.8729 5.67287 35.5626
870 1 45.8059 5.93646 14.9201
871 1 48.2172 6.81581 28.7989
872 1 21.9459 11.022 27.1483
873 1 8.25865 20.1012 12.0084
874 1 30.5121 5.89551 4.44228
875 1 7.51309 45.6957 54.1417
876 1 29.7641 19.8349 27.1276
877 1 50.3373 -0.443816 47.1518
878 1 17.3453 52.1008 4.21088
879 1 37.1551 29.6805 40.3454
880 1 28.4392 37.162 53.3695
881 1 34.1482 19.183 24.7775
882 1 41.0888 11.2619 5.05871
883 1 4.6229 27.2676 28.5585
884 1 24.5335 4.94119 51.7309
885 1 15.6878 -0.368964 4.66194
886 1 29.1507 35.1601 7.9746
887 1 16.142 47.0206 15.9574
888 1 23.6054 31.3618 13.5831
889 1 7.27971 40.4242 36.8871
890 1 5.67839 39.5093 53.0204
891 1 29.4184 22.9831 41.4538
892 1 55.4391 47.5484 20.1282
893 1 9.14198 10.8815 10.4294
894 1 50.723 40.9603 50.2893
895 1 35.3948 9.5691 19.5345
896 1 11.223 28.3418 25.9914
897 1 49.2179 13.3722 2.80504
898 1 19.4413 40.1557 40.8216
899 1 19.2783 38.4405 37.0075
900 1 34.6912 49.525 10.9533
901 1 29.5108 50.9027 52.9482
902 1 21.445 34.4165 41.1544
903 1 51.2211 38.6292 12.9616
904 1 29.9211 39.5417 47.7325
905 1 0.898905 9.60825 40.8409
906 1 41.2996 34.831 13.9274
907 1 6.2115 26.3186 42.9043
908 1 7.04947 44.8047 1.4668
909 1 17.7213 15.3246 21.7054
910 1 21.4274 26.6817 25.8979
911 1 22.94 28.8354 27.4227
912 1 46.2284 54.1629 24.2726
913 1 5.92086 24.7037 1.24188
914 1 28.3962 34.7231 0.965381
915 1 7.66627 52.7649 13.6716
916 1 21.4266 38.2899 14.7503
917 1 17.4629 5.02673 27.4297
918 1 -0.158622 20.3493 25.7566
919 1 2.72002 41.4061 47.1232
920 1 48.5755 23.8564 34.2156
921 1 1.52434 15.5407 26.3646
922 1 35.1274 41.054 16.4029
923 1 12.3028 25.6642 10.0214
924 1 38.4072 12.1532 10.1238
925 1 24.7662 27.4944 16.5317
926 1 36.7554 0.643323 50.0779
927 1 44.9692 31.4723 25.1754
928 1 49.1319 25.66 32.3163
929 1 53.1995 24.1719 17.2049
930 1 10.1074 8.45136 30.7762
931 1 10.2258 21.6041 49.5645
932 1 40.3316 47.4539 43.557
933 1 4.52172 12.9838 18.9529
934 1 11.117 49.7168 12.0869
935 1 51.0262 48.1858 -0.367381
936 1 55.7399 1.4194 54.9329
937 1 47.2491 45.8123 36.3354
938 1 15.1166 17.7483 8.76902
939 1 52.5236 8.08376 22
940 1 26.7254 23.193 11.0096
941 1 19.5451 54.0816 32.9405
942 1 10.4061 24.4966 51.0441
943 1 17.3195 2.14808 36.6346
944 1 44.5028 33.1323 50.9782
945 1 21.2534 21.5095 6.49558
946 1 25.6059 40.1905 53.2024
947 1 39.7683 26.5473 24.7206
948 1 -0.0770553 48.7337 24.6866
949 1 33.0277 35.6601 31.3516
950 1 53.351 34.5925 42.0072
951 1 31.354 8.19346 5.87418
952 1 26.4677 10.4877 17.9665
953 1 34.4527 7.28325 35.5984
954 1 25.9878 39.3525 19.7028
955 1 39.4514 17.5412 37.7112
956 1 56.1147 55.1731 49.682
957 1 41.2633 24.3499 40.8515
958 1 11.9118 10.7697 52.34
959 1 6.76135 24.0797 17.9966
960 1 47.2443 38.7 37.0447
961 1 14.0537 13.713 55.9139
962 1 41.0872 36.0343 48.1605
963 1 -0.236499 -0.243839 44.2824
964 1 31.897 50.2568 10.6647
965 1 32.8035 7.85607 48.1493
966 1 40.8782 34.6475 1.40442
967 1 0.66451 15.1243 5.53274
968 1 32.5296 53.0625 31.9512
969 1 0.313904 15.7453 29.9699
970 1 9.27628 7.89268 42.3122
971 1 55.9322 55.6325 22.6921
972 1 39.1299 48.4447 55.2307
973 2 43.9583 54.1646 33.1855
974 2 44.5335 24.3043 40.8469
975 2 19.2219 35.0392 39.0772
976 2 30.4025 5.68963 7.83527
977 2 47.486 45.9054 26.1074
978 2 -0.391166 31.1354 32.6399
979 2 17.817 24.8728 36.8973
980 2 54.5068 34.5852 22.6787
981 2 4.00001 10.8454 2.4017
982 2 24.246 55.5834 16.3717
983 2 53.1501 36.8613 43.7499
984 2 23.6483 12.9118 13.9359
985 2 30.4928 7.36661 24.5652
986 2 0.849272 50.4176 3.09706
987 2 54.6671 43.4543 52.8266
988 2 3.41982 41.347 24.0408
989 2 21.925 1.91347 27.1784
990 2 22.6886 13.7004 6.46652
991 2 13.0407 37.6038 10.6687
992 2 28.4755 37.082 19.0503
993 2 7.38716 17.2906 25.5834
994 2 17.6945 3.52886 30.3068
995 1 50.6657 13.7977 24.2972
996 1 6.64548 54.8769 18.6289
997 1 52.6001 18.0008 4.62423
998 1 44.6535 5.21076 27.3747
999 1 14.8178 51.4966 55.8479
1000 1 20.7822 49.0755 3.25572
1001 1 18.0447 19.4152 35.8497