ITEM: TIMESTEP
0
ITEM: NUMBER OF ATOMS
9088
ITEM: BOX BOUNDS pp pp pp
-4.9553881530696892e-01 5.6380031441306592e+01
-4.9553881530696892e-01 5.6380031441306592e+01
-4.9553881530696892e-01 5.6380031441306592e+01
ITEM: ATOMS id type x y z
1 1 36.6471 50.6783 12.1949
2 1 36.3292 13.1626 53.5202
3 1 23.3679 51.9198 23.0851
4 1 6.06784 13.7959 14.1665
5 1 26.1833 18.4078 13.2689
6 1 18.3534 10.2306 19.0928
7 1 10.9798 20.6265 30.7427
8 1 29.3065 39.7914 1.40615
9 1 36.0396 47.6339 18.3575
10 1 13.6134 24.5616 49.7654
11 1 16.1239 40.0786 12.9749
12 1 6.30451 23.6508 25.9513
13 1 37.0777 15.2437 1.23933
14 1 38.9822 33.6804 22.3815
15 1 17.9064 40.0091 40.8616
16 1 15.2748 23.7087 47.6036
17 1 38.0378 31.4901 45.1259
18 1 3.49609 55.0519 52.9558
19 1 1.56882 55.1358 30.1356
20 1 11.7318 27.5728 17.1343
21 1 36.6354 39.7358 7.57013
22 1 0.47571 30.0582 19.2154
23 1 24.9877 4.01817 4.55309
24 1 25.5775 21.972 21.5912
25 1 42.3206 42.6991 44.2844
26 1 48.7519 51.1423 46.6192
27 1 20.1794 1.82835 7.28283
28 1 34.2396 52.4294 18.8923
29 1 54.9903 55.5771 8.34735
30 1 24.9577 19.9338 23.294
31 1 55.5108 48.1209 35.4909
32 1 29.1633 56.2255 16.5234
33 1 33.1089 46.4745 3.58369
34 1 9.455 6.40876 33.9043
35 1 33.6006 42.3181 23.464
36 1 33.8207 25.7417 46.8903
37 1 7.84775 23.2857 9.49318
38 1 31.717 32.7818 17.7154
39 1 0.477222 42.5345 4.39387
40 1 26.4727 29.8689 15.8876
41 1 34.3002 49.102 2.17078
42 1 23.7015 32.0287 39.0982
43 1 42.7197 53.3314 10.1453
44 1 56.1382 34.226 53.4165
45 1 10.2531 46.5901 12.0253
46 1 38.0951 45.3291 16.7949
47 1 0.0731213 15.1644 48.1615
48 1 3.14753 43.1587 39.6516
49 1 18.1351 28.7751 48.071
50 1 42.9081 50.0686 19.1073
51 1 35.5891 48.691 40.8754
52 1 30.2883 17.2646 11.242
53 1 33.6507 55.8459 13.7645
54 1 27.9496 33.3583 23.0228
55 1 39.5152 52.0788 12.6906
56 1 55.5232 45.2262 33.0311
57 1 5.17241 26.9788 22.1729
58 1 29.7843 3.90603 20.7121
59 1 44.2576 0.0618087 15.4397
60 1 10.7756 42.2791 43.4587
61 1 18.2099 42.4079 15.6703
62 1 37.9014 19.448 45.849
63 1 22.6444 13.4221 48.9757
64 1 21.8121 12.6247 45.348
65 1 16.5232 44.7413 8.00338
66 1 17.3062 10.6627 33.059
67 1 44.876 51.2139 39.455
68 1 55.318 41.3198 5.35059
69 1 16.3126 39.059 45.9469
70 1 38.8937 38.9831 40.2106
71 1 18.3812 14.4922 20.0796
72 1 56.1319 3.14241 15.7292
73 1 12.4056 48.7363 32.0256
74 1 49.4903 39.5034 20.9304
75 1 11.8086 24.2367 55.4978
76 1 33.9014 55.8247 8.20465
77 1 37.1111 27.8941 24.6039
78 1 48.164 53.1444 48.682
79 1 8.08618 41.5025 48.6419
80 1 11.4218 26.7075 24.0678
81 1 7.1564 55.4513 53.5368
82 1 47.9442 14.4372 49.9962
83 1 6.13697 9.46459 5.39696
84 1 21.4935 19.4884 39.7006
85 1 19.8614 41.9074 10.6199
86 1 45.4483 14.7889 39.8753
87 1 3.42119 50.3127 52.2689
88 1 27.3899 42.813 24.0949
89 1 8.42192 8.99874 34.5986
90 1 0.196008 26.6893 37.9178
91 1 12.7927 38.0291 1.30991
92 1 16.3256 41.8331 23.1152
93 1 43.3139 14.6357 32.8003
94 1 45.3194 1.40808 1.51081
95 1 37.7829 29.083 36.6817
96 1 19.4312 47.4699 7.86722
97 1 1.83171 15.7082 22.6236
98 1 53.534 0.331257 0.567897
99 1 48.4154 42.1427 38.8076
100 1 26.5073 47.3925 19.6219
101 1 48.8852 7.87093 48.946
102 1 2.89784 49.1406 25.4215
103 1 56.0032 1.34455 7.77292
104 1 40.4005 0.15814 11.5783
105 1 37.0012 12.5519 7.6238
106 1 9.36241 55.7259 49.6904
107 1 2.50627 41.4118 44.5195
108 1 55.1531 11.4793 37.578
109 1 55.2214 27.2856 54.7641
110 1 6.56226 28.5257 45.0349
111 1 14.493 40.61 1.05074
112 1 40.5444 43.9965 56.3713
113 1 41.3153 33.1592 51.7527
114 1 46.3713 52.9513 53.0295
115 1 16.6078 10.9922 45.5884
116 1 -0.330969 5.27361 52.1791
117 1 3.7528 21.4743 3.53368
118 1 15.5126 19.4933 25.2578
119 1 33.957 47.2929 9.26761
120 1 37.1881 15.0405 5.5522
121 2 52.3576 53.9115 20.5585
122 2 35.7323 12.9915 37.3422
123 2 18.0455 54.5437 37.0809
124 2 19.8228 5.57191 51.6994
125 2 18.8447 37.2114 7.9733
126 2 19.325 6.73476 19.0815
127 2 52.4238 36.7206 27.3703
128 2 52.6429 1.5272 23.8584
129 2 22.804 2.0796 11.8445
130 2 41.4227 47.7509 33.7372
131 2 53.6803 33.4048 50.8902
132 2 52.33 22.6977 51.8158
133 2 29.2492 36.8197 7.93603
134 2 7.29686 42.465 12.4096
135 2 45.3976 38.0244 3.26722
136 2 33.6983 43.6236 2.16613
137 2 18.4394 36.6957 41.1576
138 2 9.10143 28.4694 35.6511
139 2 38.0041 6.58139 27.6302
140 2 14.9397 3.54531 2.32537
141 2 6.48465 54.9273 7.79132
142 2 5.50755 42.9507 20.0166
143 1 38.7031 0.177013 31.6916
144 1 49.3731 50.3728 22.6628
145 1 48.9472 25.1545 44.5377
146 1 40.6992 50.2015 42.3054
147 1 32.3397 5.48463 33.2672
148 1 46.2826 4.81848 33.6544
149 1 21.2871 10.63 50.5546
150 1 48.4886 10.8602 45.3328
151 1 10.0558 44.0577 41.6294
152 1 56.0645 52.2776 39.5712
153 1 13.1349 51.2171 50.1467
154 1 43.8555 4.14465 35.5057
155 1 44.6519 4.81828 20.6003
156 1 9.53041 6.88442 16.0092
157 1 8.31171 4.39071 35.9816
158 1 4.81075 0.230839 12.7528
159 1 -0.159709 17.4204 33.9538
160 1 33.592 44.4645 27.7205
161 1 23.4495 15.8319 52.5654
162 1 0.10414 32.6456 20.3216
163 1 19.4471 33.7391 39.7961
164 1 49.2016 21.6157 40.3711
165 1 16.6379 16.2778 3.95318
166 1 37.6033 22.1749 50.6414
167 1 48.1878 27.0176 20.3306
168 1 44.8666 16.9253 47.3465
169 1 30.9931 43.1918 15.5445
170 1 26.9429 10.7085 18.4943
171 1 29.0044 42.0053 21.5589
172 1 1.99247 7.52677 27.3894
173 1 5.71793 34.9414 19.5612
174 1 52.9812 28.1916 24.6009
175 1 25.7996 9.7776 39.6848
176 1 22.0175 45.1072 32.5678
177 1 14.4942 34.0806 5.69065
178 1 4.91798 6.45779 21.1019
179 1 33.9252 22.0318 41.0572
180 1 24.7182 2.27321 28.462
181 1 5.71633 41.7297 40.0151
182 1 13.2057 10.9061 3.88098
183 1 43.6112 8.47164 36.9739
184 1 38.3726 28.5243 1.10267
185 1 0.61696 30.7249 14.6151
186 1 52.4061 35.4411 48.6974
187 1 38.9692 10.4159 51.1185
188 1 52.4755 36.8759 30.3424
189 1 31.3686 26.8287 34.1833
190 1 1.2547 34.8553 46.5578
191 1 29.5905 36.8733 47.2413
192 1 3.08882 44.151 21.6606
193 1 33.6852 35.7832 4.34893
194 1 27.6996 12.8345 30.7417
195 1 40.1919 25.6571 0.58638
196 1 12.4025 52.405 15.9133
197 1 0.659592 23.4799 45.3601
198 1 21.6497 1.13251 14.5984
199 1 7.84289 40.6253 19.7063
200 1 16.8531 7.51459 43.101
201 1 51.3756 34.1412 53.1114
202 1 11.3298 49.2888 5.07574
203 1 16.1389 7.76636 14.0403
204 1 49.7533 21.0757 23.9974
205 1 32.187 48.8208 12.7555
206 1 37.1117 10.8833 -0.132474
207 1 29.5354 49.8131 0.0521658
208 1 19.4962 19.4057 18.8268
209 1 -0.446706 8.42831 44.0645
210 1 21.7115 35.5902 31.2597
211 1 29.0202 37.1427 4.19948
212 1 54.104 46.3937 -0.459428
213 1 48.0078 55.9753 10.0053
214 1 22.4482 30.7945 15.513
215 1 47.1153 10.0902 47.4706
216 1 7.63426 56.1547 25.1579
217 1 30.8769 29.5481 25.3662
218 1 9.08398 14.8305 43.695
219 1 0.451847 5.13948 20.2047
220 1 12.6361 9.6579 37.0191
221 1 53.9643 8.45162 11.2474
222 1 28.0723 43.3906 19.0803
223 1 54.0432 41.7495 44.3747
224 1 24.3131 9.79484 29.4831
225 1 28.1753 11.5444 4.49603
226 1 8.52258 37.7994 42.7734
227 1 28.8042 12.864 28.2298
228 1 14.9304 25.6078 26.8559
229 1 8.47929 50.0278 34.8729
230 1 19.7813 23.3514 11.5729
231 1 32.4545 53.6939 33.4081
232 1 55.8014 9.92175 30.4955
233 1 -0.0151206 38.8099 37.4724
234 1 29.6778 28.4219 10.4711
235 1 7.57139 6.41992 25.3596
236 1 27.2845 9.62263 8.07907
237 1 40.9746 45.0295 53.446
238 1 35.1351 12.4449 11.1519
239 1 38.9978 46.2145 32.8713
240 1 5.26653 6.69779 9.13703
241 1 1.44768 10.6184 21.8607
242 1 38.7067 50.9969 44.3643
243 1 30.0119 25.3248 1.78814
244 1 42.6369 2.52243 53.5494
245 1 47.5107 36.2607 1.77534
246 1 41.2404 45.187 31.4734
247 1 54.2256 2.63842 37.1101
248 1 20.0416 7.95656 31.9549
249 1 14.4833 39.4708 6.03656
250 1 13.172 39.2572 8.60602
251 1 17.1986 41.3866 18.2954
252 1 37.0013 38.289 14.5207
253 1 8.12269 45.1251 21.8199
254 1 10.9154 43.8688 21.3207
255 1 7.64973 0.362873 9.55556
256 1 48.4735 31.9728 14.9979
257 1 28.8742 6.35795 47.7632
258 1 41.8073 44.4725 23.1202
259 1 38.5918 36.5795 54.4484
260 1 10.8898 31.7509 50.5468
261 1 26.7905 41.8879 28.7665
262 1 19.3639 39.4216 42.9003
263 2 51.3645 3.45662 50.4982
264 2 16.2827 53.3442 45.5021
265 2 35.3165 25.0063 32.535
266 2 51.3936 2.86556 6.82278
267 2 25.0064 9.49037 13.6991
268 2 46.5945 49.7874 52.8534
269 2 -0.0396746 24.4813 3.48168
270 2 19.754 47.1616 32.4484
271 2 14.2818 53.4231 13.8173
272 2 21.3428 16.5711 18.2858
273 2 5.20688 46.6486 21.6329
274 2 50.3125 11.0741 30.0841
275 2 2.10924 15.8008 32.1018
276 2 22.4397 46.1249 13.8841
277 2 16.5497 12.6148 27.799
278 2 49.0944 23.8964 53.6241
279 2 34.5002 8.34384 47.8841
280 2 0.587519 11.2563 7.31297
281 2 8.29963 0.835013 27.8696
282 2 3.4576 45.1951 15.7054
283 2 27.3381 -0.308666 52.1377
284 2 42.1742 13.5654 21.4746
285 1 44.305 4.65406 29.2424
286 1 0.496655 51.6511 9.48954
287 1 44.7919 21.189 21.8076
288 1 41.1516 41.7255 7.19936
289 1 52.695 17.7653 53.3323
290 1 29.5378 26.5042 55.7451
291 1 41.9032 33.0789 25.7671
292 1 54.9711 3.77685 23.7854
293 1 22.6046 48.1291 54.8442
294 1 52.3861 27.4769 40.1637
295 1 38.4319 47.5859 26.4857
296 1 10.5908 37.7519 3.87677
297 1 50.0655 51.3259 9.43661
298 1 46.9036 32.0439 23.0092
299 1 29.7367 -0.13397 41.0097
300 1 22.917 2.29397 3.42325
301 1 0.146889 24.2445 11.9814
302 1 4.31838 16.8635 23.4496
303 1 53.1408 3.03239 1.40669
304 1 12.1782 44.745 23.7613
305 1 0.43546 37.9277 2.90538
306 1 51.471 36.4245 15.8627
307 1 23.4447 7.18229 4.98909
308 1 15.6833 34.8191 55.451
309 1 56.1886 14.491 53.9844
310 1 27.7332 47.0411 46.5531
311 1 21.4662 46.0045 11.4521
312 1 26.2135 46.989 5.51314
313 1 18.9462 28.0787 11.948
314 1 5.67952 33.2767 2.84257
315 1 35.9714 38.3761 9.99451
316 1 28.6901 33.8949 35.0663
317 1 48.4738 3.06698 13.9403
318 1 55.8273 5.60453 37.0357
319 1 49.3365 26.9838 52.7296
320 1 34.5291 -0.366785 33.1979
321 1 18.8744 53.1839 47.7677
322 1 25.0545 43.1491 52.9227
323 1 5.51452 20.0164 5.52748
324 1 56.0759 11.6449 10.3841
325 1 8.47544 53.8116 24.1442
326 1 12.3679 49.6844 37.291
327 1 8.66232 12.3121 7.4261
328 1 55.3276 19.4398 4.22071
329 1 34.9925 3.90788 32.0471
330 1 18.4681 7.50274 15.5702
331 1 22.9597 10.0304 5.19236
332 1 5.54804 35.3649 6.12369
333 1 53.0924 29.5606 17.4898
334 1 7.92212 -0.324872 43.6307
335 1 19.6964 35.7678 11.0145
336 1 11.4538 47.2871 36.4789
337 1 7.02681 52.624 12.5329
338 1 19.6296 29.5281 21.2295
339 1 23.7168 44.3177 55.324
340 1 9.43669 3.89001 27.0194
341 1 39.9423 5.50204 37.6596
342 1 47.2324 20.4804 49.3835
343 1 46.3022 39.46 48.1036
344 1 47.4366 21.3661 12.6235
345 1 33.5154 25.4923 52.4079
346 1 45.4485 5.29148 14.6877
347 1 56.1429 2.96584 35.1795
348 1 34.9374 14.7885 32.3083
349 1 45.6812 12.1647 46.7135
350 1 28.8416 10.0689 44.4485
351 1 32.3558 47.38 47.0253
352 1 13.1408 8.95447 22.7222
353 1 2.68735 42.5685 31.6049
354 1 0.325769 29.5958 29.4075
355 1 27.5987 46.7742 3.0045
356 1 44.3769 22.6705 24.6128
357 1 2.0721 17.0402 4.50931
358 1 18.3978 50.3197 25.1426
359 1 6.84097 7.74694 45.8067
360 1 2.5425 30.2081 51.7451
361 1 7.65291 11.6493 4.99793
362 1 27.0483 38.2095 43.6875
363 1 43.2369 48.4088 35.9809
364 1 23.5976 13.9948 0.686198
365 1 46.0611 23.3089 26.7526
366 1 -0.0618565 35.1876 29.796
367 1 11.7162 33.2406 33.5874
368 1 21.7512 54.6224 1.47259
369 1 29.1085 43.1378 11.7931
370 1 19.1324 4.02992 23.4393
371 1 49.7476 12.3626 33.0865
372 1 47.5628 45.8824 24.7258
373 1 2.83373 10.0357 40.0622
374 1 39.2605 12.7276 9.20661
375 1 41.593 19.3278 15.3262
376 1 47.3474 24.5348 29.7843
377 1 32.3699 27.3352 27.5097
378 1 30.0239 27.9904 37.4782
379 1 35.8331 10.5833 52.1675
380 1 48.1247 49.1858 27.3729
381 1 8.47178 14.6471 54.1369
382 1 2.42418 39.2745 35.6835
383 1 21.2248 17.2542 14.9887
384 1 8.97106 15.976 25.2238
385 1 33.4033 0.745112 25.9898
386 1 53.1871 5.22069 37.8636
387 1 27.5882 29.263 7.24435
388 1 43.4591 15.6942 35.4046
389 1 5.62601 3.41788 4.72136
390 1 23.4677 16.8559 0.950855
391 1 1.8201 2.88589 21.0303
392 1 46.9012 52.9007 13.969
393 1 44.0614 50.27 49.0648
394 1 51.7529 21.6023 13.87
395 1 53.0802 33.7953 36.283
396 1 8.10107 47.7107 46.9646
397 1 15.3456 38.3497 2.03674
398 1 26.3268 44.8491 4.40543
399 1 36.8806 29.848 19.7782
400 1 27.6061 23.4303 33.2474
401 1 39.703 11.0854 29.7894
402 1 13.1096 16.8241 -0.390652
403 1 53.0198 3.79561 4.21777
404 1 44.2833 10.7366 26.7951
405 2 46.3625 34.5088 50.4738
406 2 7.50093 31.4186 36.1045
407 2 6.26219 23.0246 4.48433
408 2 17.4427 30.8719 12.0358
409 2 2.46404 25.759 1.09848
410 2 45.7894 24.5996 4.77525
411 2 32.0176 8.93051 14.7054
412 2 30.0218 47.8382 39.7054
413 2 11.7122 32.8697 11.1741
414 2 24.7065 53.2128 53.9628
415 2 49.559 30.2462 6.59294
416 2 24.0345 20.0898 38.0722
417 2 36.9179 55.7698 34.7972
418 2 44.1485 2.66176 56.1513
419 2 47.4743 49.5841 33.4232
420 2 48.1143 4.38293 10.925
421 2 13.2583 50.0358 17.946
422 2 18.1854 10.347 40.9283
423 2 37.8091 23.4804 0.314123
424 2 20.5838 30.7517 49.381
425 2 16.0999 4.63897 44.4322
426 2 27.8362 43.9532 31.4431
427 1 26.6708 8.50213 27.5379
428 1 18.1622 23.9604 18.6945
429 1 52.8325 50.8332 5.98332
430 1 44.9144 48.6591 38.709
431 1 37.5295 6.46562 9.22852
432 1 12.804 39.8897 36.3888
433 1 9.7736 0.48164 11.1237
434 1 13.7319 25.7856 17.9908
435 1 47.7583 14.2085 30.7495
436 1 49.6701 42.1818 21.8223
437 1 30.0638 42.8236 36.3265
438 1 35.381 15.6575 29.1509
439 1 15.9401 38.2835 8.3717
440 1 43.1281 36.1062 3.74981
441 1 42.12 8.89644 1.56668
442 1 53.1345 5.10574 48.0419
443 1 50.6589 28.8043 9.21159
444 1 48.8005 25.2744 34.7594
445 1 4.21825 17.6839 52.8853
446 1 41.0339 32.8898 48.6632
447 1 29.1342 49.9475 32.8021
448 1 8.00729 4.93899 3.30972
449 1 29.8351 18.5847 31.6795
450 1 33.2066 33.5154 22.5314
451 1 26.6416 4.67728 2.40896
452 1 7.79995 31.7861 7.89117
453 1 39.7707 15.2234 23.2987
454 1 50.33 38.7523 42.9815
455 1 16.8213 40.9779 28.8806
456 1 39.4154 53.8299 44.9431
457 1 45.4148 38.6912 28.9704
458 1 37.5499 5.18317 32.3363
459 1 48.8652 43.5029 41.6266
460 1 46.8375 37.8045 34.5456
461 1 37.5106 47.8846 15.9214
462 1 31.0706 46.6772 5.73795
463 1 12.4929 45.6805 28.9424
464 1 23.2285 42.0212 47.849
465 1 41.0422 22.0676 44.0756
466 1 12.3663 35.6497 27.6227
467 1 18.2609 55.3624 40.1286
468 1 3.82069 20.4449 19.7164
469 1 24.0393 51.8002 4.55044
470 1 20.6952 1.69487 4.70766
471 1 51.831 35.0047 8.10793
472 1 14.3038 35.166 19.206
473 1 42.596 50.1367 32.0872
474 1 46.84 12.825 33.5184
475 1 47.4483 21.2264 53.5141
476 1 41.5534 7.33782 49.9053
477 1 5.6697 8.38306 16.8276
478 1 49.8822 48.6858 9.68077
479 1 8.6935 23.9649 23.3055
480 1 4.88604 27.1427 8.41875
481 1 43.2243 10.9787 10.2241
482 1 40.3922 23.1028 47.2461
483 1 37.576 56.0066 18.8057
484 1 46.8028 49.2795 23.0019
485 1 1.76573 29.5758 4.93205
486 1 43.0454 40.1494 43.7159
487 1 27.5506 4.12969 9.76308
488 1 15.7575 44.687 10.6625
489 1 42.0321 44.5421 33.9725
490 1 47.1041 54.2245 30
491 1 13.2209 39.9206 33.8619
492 1 41.5374 4.13486 8.78327
493 1 56.3337 46.651 46.82
494 1 1.00868 9.39178 19.4668
495 1 34.3664 53.3386 45.7005
496 1 20.528 49.0205 14.0109
497 1 41.7603 6.63881 42.4113
498 1 13.2408 10.6458 8.95963
499 1 52.2277 38.6954 40.9249
500 1 24.558 6.91404 35.0184
501 1 2.81222 16.0082 15.1694
502 1 26.7408 32.4029 15.1811
503 1 23.1409 49.9611 31.3959
504 1 53.4597 42.6215 51.4299
505 1 -0.019087 25.4908 51.6206
506 1 18.3312 18.5742 3.50702
507 1 24.5381 15.7833 17.2493
508 1 3.26684 54.7996 5.84079
509 1 19.8422 39.3527 51.3355
510 1 18.4982 54.3144 28.282
511 1 7.06771 50.0006 11.3638
512 1 29.8504 53.8165 6.50442
513 1 54.0344 13.4529 55.0401
514 1 56.3449 31.136 24.5196
515 1 25.4733 17.6547 4.5448
516 1 51.4939 31.5319 52.2145
517 1 26.6614 15.7121 21.3675
518 1 2.26844 14.4676 28.9946
519 1 45.2771 1.31922 29.5492
520 1 10.0422 40.6832 14.1973
521 1 17.0885 15.7842 45.3886
522 1 35.4239 44.8086 17.6347
523 1 50.7516 13.1123 16.1385
524 1 30.2558 5.17491 36.6524
525 1 53.654 30.2162 50.9477
526 1 25.4774 55.7628 22.7703
527 1 40.901 18.5051 38.2684
528 1 53.9396 33.1002 7.18518
529 1 47.257 27.7378 39.6154
530 1 46.4259 47.283 30.3268
531 1 49.2972 24.0903 46.7617
532 1 22.783 13.0802 38.8778
533 1 49.1334 32.3795 17.8165
534 1 53.9261 25.1733 3.55493
535 1 20.1267 19.3196 13.5824
536 1 31.5568 21.3137 13.4413
537 1 4.53245 30.1427 35.3185
538 1 29.7929 33.9205 7.48457
539 1 20.6838 48.3945 21.4428
540 1 -0.138173 7.19792 18.8759
541 1 10.0992 24.4716 8.74321
542 1 24.783 1.29508 17.0921
543 1 34.7977 16.6418 47.7021
544 1 4.74946 25.9584 28.8758
545 1 26.6113 21.068 44.1941
546 1 39.9307 47.8517 30.9871
547 2 51.072 15.7349 54.4822
548 2 -0.287947 21.3014 47.6337
549 2 9.21455 4.17747 18.2423
550 2 13.139 48.0779 2.24509
551 2 35.438 50.2565 9.3586
552 2 11.5563 51.815 52.6206
553 2 10.3248 10.4729 40.5289
554 2 38.2469 21.81 6.32021
555 2 36.9006 19.7555 31.8524
556 2 31.0921 8.75125 46.5649
557 2 55.0136 27.6973 20.0149
558 2 -0.121541 13.9081 24.404
559 2 21.6266 49.7682 44.9068
560 2 36.2874 9.69724 19.5814
561 2 16.0098 42.4151 40.702
562 2 1.86402 31.3774 41.6643
563 2 34.6399 50.1884 23.1455
564 2 14.9092 11.4373 55.8142
565 2 24.4556 34.5538 41.1456
566 2 48.1152 41.5906 46.4529
567 2 3.04302 40.4508 56.0078
568 2 26.4318 4.16725 56.3004
569 1 54.131 49.2706 3.30879
570 1 39.2783 43.0513 44.5174
571 1 30.7703 10.2216 34.4005
572 1 53.7491 25.6277 8.14433
573 1 22.5139 55.454 53.9456
574 1 17.6704 9.98805 8.69309
575 1 54.111 32.4244 33.9364
576 1 3.02786 10.5199 47.4777
577 1 49.5965 8.51884 17.7543
578 1 49.4286 33.7773 55.091
579 1 5.12876 16.6827 45.7437
580 1 2.40753 49.8873 48.7566
581 1 1.02543 56.1457 45.8348
582 1 52.0337 45.9861 29.3176
583 1 34.2669 5.69631 42.9225
584 1 53.0928 45.8957 18.9168
585 1 7.81346 24.5445 39.9248
586 1 43.1961 11.6095 24.4545
587 1 33.3097 52.6153 25.1523
588 1 50.1516 31.699 25.4327
589 1 24.465 34.6705 3.66127
590 1 27.1667 46.539 22.1631
591 1 30.3807 39.6952 48.8225
592 1 37.8477 6.70336 38.4112
593 1 9.9965 14.3582 -0.235263
594 1 13.2661 52.264 37.0243
595 1 39.5568 36.2714 30.5018
596 1 38.5757 53.8104 53.9599
597 1 37.3275 39.112 26.6068
598 1 20.775 38.1365 3.11123
599 1 23.4291 17.8171 6.45519
600 1 5.45411 25.5816 10.4946
601 1 27.6781 29.7525 37.2269
602 1 39.2583 52.2887 3.80449
603 1 37.3479 10.9114 11.1922
604 1 19.0221 0.574328 35.8539
605 1 49.1683 38.9236 47.669
606 1 33.6665 4.20306 0.894117
607 1 36.0837 40.1535 50.5446
608 1 21.9881 23.9957 28.1509
609 1 32.4315 38.4454 32.016
610 1 26.1237 36.3795 9.17772
611 1 7.999 30.7666 41.7938
612 1 8.07175 53.913 43.6181
613 1 52.7797 15.0917 40.9454
614 1 20.1614 14.8735 10.7653
615 1 -0.0739592 41.2065 8.91028
616 1 38.4958 31.9809 34.8564
617 1 27.2092 39.1596 36.6756
618 1 52.1202 48.3444 12.4226
619 1 18.3501 47.0709 20.7747
620 1 34.9778 28.5301 46.8929
621 1 33.4824 8.18166 41.1244
622 1 1.50742 53.963 18.0916
623 1 16.7389 41.1213 25.8856
624 1 0.353283 51.3218 27.4794
625 1 32.2212 56.2612 35.1435
626 1 54.2147 27.8466 2.77909
627 1 20.4131 8.18471 49.6419
628 1 1.78731 29.0475 43.7605
629 1 38.7316 8.53479 11.2274
630 1 1.76247 50.2949 43.6196
631 1 43.7845 18.7767 29.9269
632 1 9.40135 10.0205 54.4448
633 1 0.550542 31.9737 31.4181
634 1 11.7943 42.8503 29.0008
635 1 6.35398 11.5308 34.0867
636 1 50.8485 54.9692 34.6937
637 1 18.3966 20.1577 15.8584
638 1 23.9524 10.6107 26.6211
639 1 11.9766 10.187 29.675
640 1 0.788894 1.10253 12.3188
641 1 46.6765 44.6532 30.7494
642 1 39.1953 7.99543 19.2677
643 1 26.1976 14.4104 28.5392
644 1 7.69974 7.28067 22.2953
645 1 14.0789 3.18987 42.181
646 1 37.7483 39.8521 2.75625
647 1 9.35116 45.9684 51.1226
648 1 42.0571 38.6039 19.2595
649 1 46.7122 15.0723 11.77
650 1 24.0805 5.61152 32.7075
651 1 19.1229 22.452 26.8715
652 1 49.9588 35.9008 -0.0789535
653 1 29.5888 4.47837 29.5448
654 1 15.1904 30.5069 25.844
655 1 51.014 33.1924 48.0549
656 1 19.3812 44.5944 15.2978
657 1 13.5186 42.6157 2.50365
658 1 0.0348733 18.4839 44.6669
659 1 12.9016 44.1492 41.7438
660 1 42.6008 39.6733 8.07666
661 1 37.4069 44.463 20.108
662 1 1.77306 28.9275 0.305771
663 1 55.4843 38.5096 9.30345
664 1 38.7919 24.5651 20.0489
665 1 16.712 37.5907 21.7345
666 1 50.3765 49.2441 2.3168
667 1 0.376665 0.421692 48.3069
668 1 43.0824 37.9723 5.59686
669 1 27.9178 19.3993 7.06472
670 1 22.1855 38.4874 22.3571
671 1 32.1943 6.32689 -0.135584
672 1 16.3578 16.307 20.156
673 1 32.2171 38.1288 37.367
674 1 2.25532 47.9281 51.0901
675 1 34.8752 38.9841 44.1385
676 1 21.643 43.082 49.7797
677 1 55.9382 19.0391 32.2922
678 1 40.9022 44.503 38.6056
679 1 42.3824 0.156003 51.8731
680 1 39.8526 47.8244 53.7443
681 1 6.16654 15.4059 48.4969
682 1 4.02087 35.6527 1.80378
683 1 12.5373 38.267 28.7511
684 1 29.9744 48.7666 7.51447
685 1 37.1407 20.7718 24.0859
686 1 6.65377 32.0348 25.3858
687 1 35.1112 11.2777 55.2051
688 1 32.1547 55.0825 25.3429
689 2 31.7102 47.5742 0.974579
690 2 26.4028 43.1244 55.7186
691 2 26.1623 38.4303 40.3602
692 2 40.5919 7.35525 9.16784
693 2 32.9872 19.8796 36.5791
694 2 29.5385 52.8281 3.1086
695 2 24.0138 19.7892 0.208532
696 2 49.2219 10.8703 50.0484
697 2 4.40236 41.3544 47.6096
698 2 48.4899 1.8867 19.038
699 2 51.7623 23.0377 9.14307
700 2 11.5532 7.29689 38.5173
701 2 54.9519 2.68761 26.8316
702 2 33.6681 32.761 27.6477
703 2 55.6344 44.5747 1.84054
704 2 2.44219 50.6606 17.3886
705 2 48.6391 42.2407 31.5554
706 2 23.744 33.754 15.4904
707 2 49.0937 25.2017 41.1016
708 2 39.7135 42.0847 1.98293
709 2 4.93149 48.0596 27.5886
710 2 42.798 22.2866 19.1304
711 1 2.08223 40.4855 52.9608
712 1 42.8263 39.2974 52.5087
713 1 19.6424 38.5855 0.22548
714 1 2.1124 21.3457 23.7344
715 1 14.6107 27.5788 33.9264
716 1 45.0917 6.86566 52.3687
717 1 53.6382 50.5658 44.1533
718 1 9.23985 52.7102 8.75136
719 1 46.7022 33.9771 53.6838
720 1 46.1893 40.7319 30.5933
721 1 39.271 55.996 24.0108
722 1 55.4296 46.5718 54.014
723 1 26.7177 53.3388 13.0421
724 1 52.9607 15.4706 38.1682
725 1 48.0149 16.1629 39.2969
726 1 43.8077 45.2094 32.1038
727 1 29.8575 34.71 39.8347
728 1 21.8446 24.1487 7.03436
729 1 37.9764 47.0059 28.8016
730 1 34.9583 38.7035 37.298
731 1 28.8287 46.3584 0.493727
732 1 23.4143 10.5948 19.3366
733 1 28.2461 51.8874 30.9356
734 1 48.2067 3.91081 37.8676
735 1 55.498 22.6135 40.6148
736 1 50.408 39.0558 30.6515
737 1 48.0271 50.8803 15.4969
738 1 38.97 24.2257 10.1999
739 1 37.9297 12.4198 46.9773
740 1 46.5434 14.853 27.9124
741 1 31.9095 39.345 51.4157
742 1 25.0943 26.9857 36.374
743 1 14.4126 16.839 33.2651
744 1 25.5998 48.4435 17.3448
745 1 54.4644 51.7766 2.5199
746 1 39.4152 25.8417 52.7481
747 1 54.2743 12.5153 23.2786
748 1 47.2264 11.38 7.46146
749 1 24.8853 48.7406 -0.474901
750 1 23.3667 50.1869 25.3307
751 1 8.39404 17.6391 20.1295
752 1 24.9631 19.3728 45.5891
753 1 47.5173 0.84183 48.2942
754 1 34.909 42.186 27.9024
755 1 0.805687 38.7711 30.2641
756 1 37.7465 21.2691 27.0673
757 1 50.2429 25.9752 21.521
758 1 52.344 17.3693 22.5252
759 1 25.0466 42.9369 43.3021
760 1 27.8001 20.3747 22.6901
761 1 14.7346 53.2158 29.5612
762 1 27.7161 14.6444 43.1858
763 1 3.9222 43.6926 12.9944
764 1 31.3201 8.83515 55.6182
765 1 38.6003 14.7313 41.4325
766 1 12.7713 12.7689 39.97
767 1 1.57092 6.44608 -0.140933
768 1 30.7519 12.402 8.55115
769 1 27.9108 26.888 49.9671
770 1 55.0912 36.002 32.0474
771 1 3.30307 12.8118 31.4616
772 1 6.34163 21.1238 7.67538
773 1 17.8837 42.6206 55.417
774 1 24.8342 13.0924 53.2814
775 1 20.3463 28.8815 36.006
776 1 23.8105 -0.225182 1.41456
777 1 7.09384 24.4149 29.6684
778 1 41.6594 28.1606 27.7261
779 1 50.1184 27.0523 15.4318
780 1 10.9871 36.0281 15.9097
781 1 44.8968 50.9618 33.0029
782 1 19.9051 9.37059 17.1031
783 1 23.405 19.7032 53.8252
784 1 20.8052 45.8215 3.95209
785 1 -0.0557277 42.2085 44.3623
786 1 16.7103 54.1238 48.9896
787 1 8.765 21.4846 21.783
788 1 54.6387 38.6284 26.8125
789 1 1.84042 25.6788 28.3604
790 1 19.1118 20.7066 40.5866
791 1 45.3446 32.1696 48.1813
792 1 54.8017 7.16258 30.8675
793 1 6.10503 19.0728 10.1462
794 1 53.462 23.3931 38.6907
795 1 37.8312 8.02928 32.5817
796 1 46.2346 46.4256 -0.415504
797 1 24.6448 48.8263 5.99018
798 1 29.5132 53.8641 40.5223
799 1 46.9855 5.96637 45.5262
800 1 52.3601 29.6767 20.2274
801 1 20.0794 33.9338 52.507
802 1 32.0206 42.2015 50.1319
803 1 38.4437 3.16237 44.2499
804 1 53.104 54.6771 46.2179
805 1 29.8497 4.86378 8.25765
806 1 41.6213 21.0203 54.0012
807 1 17.6714 0.777378 1.34922
808 1 10.1555 46.7096 41.5494
809 1 49.4414 22.5735 35.0623
810 1 53.9309 34.6085 29.7137
811 1 14.9979 19.2973 21.7198
812 1 1.97814 24.5364 13.9314
813 1 32.3049 25.4156 15.805
814 1 45.4547 13.0786 53.8831
815 1 2.29567 29.0298 13.9812
816 1 38.9079 10.0546 48.2671
817 1 -0.301974 39.2029 49.3743
818 1 15.1679 48.673 49.8144
819 1 12.6305 1.09429 43.347
820 1 44.8975 42.3133 10.9401
821 1 19.9301 53.0324 17.6706
822 1 44.6388 32.0953 54.8985
823 1 14.7849 17.329 38.2291
824 1 47.3503 11.398 31.5479
825 1 14.965 27.8597 20.7992
826 1 56.0792 44.9674 12.36
827 1 5.61596 26.9086 50.8117
828 1 4.36482 54.7939 3.3232
829 1 5.98584 36.371 38.0717
830 1 38.0765 0.967773 46.031
831 2 11.1115 19.1602 21.9463
832 2 19.2358 12.9182 17.9664
833 2 45.4575 28.1564 13.116
834 2 4.65028 15.4307 37.3123
835 2 4.13123 9.76137 9.01045
836 2 13.1017 25.1088 29.5369
837 2 35.6318 13.4627 26.6284
838 2 28.5581 42.2943 8.54819
839 2 34.0653 44.0882 30.8647
840 2 7.05144 17.1831 42.935
841 2 0.655244 42.2528 12.8632
842 2 31.1696 26.881 50.8059
843 2 37.6133 9.9884 37.7342
844 2 31.7504 27.289 30.7639
845 2 19.2608 10.6124 30.615
846 2 15.3977 28.3578 43.4769
847 2 40.3659 46.8375 40.9509
848 2 49.3913 53.9166 8.29336
849 2 5.05543 39.2666 25.5827
850 2 4.6229 5.23104 56.2548
851 2 18.4855 52.0737 40.1671
852 2 31.4344 32.4554 44.5069
853 1 5.25584 54.6973 43.1772
854 1 8.79932 22.2129 53.2089
855 1 41.534 25.7866 6.3173
856 1 28.6711 4.35445 17.4945
857 1 49.535 8.99203 23.6691
858 1 38.6053 17.606 35.7102
859 1 56.1323 33.7011 25.4706
860 1 34.8379 15.1637 23.7751
861 1 28.3656 52.3364 42.4603
862 1 21.0675 10.3933 55.7831
863 1 47.7025 16.1871 25.9317
864 1 1.75884 34.5803 41.0634
865 1 45.4773 40.5416 35.688
866 1 51.9417 23.8223 12.4049
867 1 37.4059 14.1456 33.1442
868 1 28.1641 7.83564 51.8181
869 1 26.8632 51.1764 52.4783
870 1 18.5009 52.432 7.85237
871 1 19.4797 55.1543 49.616
872 1 27.0961 5.79817 53.5608
873 1 3.17012 55.7965 8.25939
874 1 17.0697 34.366 1.07775
875 1 46.6096 1.99569 11.5065
876 1 8.65175 37.6996 30.8975
877 1 49.9966 45.3974 48.9487
878 1 13.0942 53.1076 45.4606
879 1 51.5889 8.49682 38.256
880 1 0.614435 42.2747 54.4277
881 1 51.14 45.4148 56.2158
882 1 8.42175 54.3501 10.7036
883 1 2.67319 33.1691 38.4017
884 1 16.6284 42.6623 5.80052
885 1 4.92648 2.0416 47.2813
886 1 36.3114 30.0563 34.5154
887 1 8.79286 53.4306 30.8929
888 1 31.9432 33.8425 51.7245
889 1 14.0813 12.3279 37.2762
890 1 37.4838 28.5162 27.5518
891 1 17.7151 27.0496 42.2256
892 1 20.5027 26.2324 33.1222
893 1 45.2238 24.1003 17.3426
894 1 32.7248 53.8783 27.8143
895 1 11.4293 0.562552 9.23315
896 1 48.8916 30.1828 23.7027
897 1 27.4889 39.6388 56.2733
898 1 37.8041 23.6643 53.6375
899 1 10.3475 30.8726 42.5021
900 1 11.4476 18.2544 9.17497
901 1 50.5508 50.0669 34.5863
902 1 49.2437 21.7332 51.0204
903 1 11.7764 17.3552 51.3974
904 1 54.6515 23.1986 45.7648
905 1 33.6749 6.52192 30.786
906 1 40.7198 9.93518 24.7026
907 1 54.876 55.2201 13.7123
908 1 21.7871 26.5135 20.8941
909 1 13.3467 55.877 19.1573
910 1 32.2071 50.955 16.8615
911 1 46.3122 19.3156 31.9558
912 1 12.3621 47.3881 18.9124
913 1 55.5458 31.1241 40.6007
914 1 1.94856 29.4222 16.6601
915 1 44.125 36.4926 24.0663
916 1 39.7644 36.1398 22.3145
917 1 41.1422 54.6392 53.0721
918 1 20.8298 56.2307 6.02948
919 1 14.155 53.1325 48.6377
920 1 31.5265 53.8394 36.2259
921 1 52.2745 0.88149 9.0355
922 1 49.6377 52.1804 33.3922
923 1 54.3062 0.286027 21.0488
924 1 24.5399 17.3953 50.298
925 1 15.5754 20.4554 51.639
926 1 20.9593 15.5787 39.3408
927 1 13.2638 -0.245546 26.4987
928 1 50.1358 3.43847 16.2656
929 1 48.5962 50.4718 18.2878
930 1 9.61364 50.1199 21.8024
931 1 26.3231 53.7268 31.6711
932 1 44.0997 48.4715 51.6969
933 1 52.0018 55.7997 13.3254
934 1 46.6459 4.42716 7.60119
935 1 22.915 55.7419 15.9319
936 1 32.1438 19.29 56.3367
937 1 17.6591 53.6819 55.6556
938 1 16.4831 43.5716 27.8083
939 1 18.1256 2.66323 37.5964
940 1 37.8074 15.0698 35.7026
941 1 44.7713 34.7713 7.9408
942 1 45.3536 45.2474 4.08261
943 1 13.6152 6.56411 19.4131
944 1 37.4892 11.1471 24.8386
945 1 9.11935 7.00683 40.5282
946 1 17.1952 20.3787 22.8492
947 1 40.6848 40.9547 52.8204
948 1 21.5033 41.3992 35.6285
949 1 9.20495 39.8121 44.5263
950 1 34.38 37.3973 47.7799
951 1 41.4185 7.88377 26.3321
952 1 24.4973 21.0391 9.44259
953 1 12.1828 49.9608 45.4784
954 1 46.6993 10.5043 38.463
955 1 26.1363 55.8283 55.5057
956 1 11.8004 43.8397 18.6599
957 1 12.3903 44.3441 4.2958
958 1 4.25438 5.44786 34.3078
959 1 37.9045 18.294 54.4904
960 1 52.9304 14.5715 10.8569
961 1 49.5973 3.0261 31.2636
962 1 3.86487 45.004 23.938
963 1 36.4863 40.8068 15.1071
964 1 18.6731 15.513 40.8836
965 1 29.4202 31.6706 42.3956
966 1 0.839524 30.4316 38.6265
967 1 41.036 25.062 26.8157
968 1 48.9614 47.5562 22.2439
969 1 34.8562 54.212 3.17869
970 1 23.1958 15.5822 20.8691
971 1 21.5053 7.7384 45.0043
972 1 1.54024 17.2933 37.7746
973 2 33.0651 43.9141 41.4691
974 2 43.839 5.54167 49.1512
975 2 12.6315 26.3276 40.6298
976 2 14.4309 17.5353 53.1567
977 2 26.8266 50.5527 14.8612
978 2 11.6921 27.0055 3.02822
979 2 41.4192 11.4428 27.2046
980 2 30.5286 35.6745 32.9066
981 2 13.8878 14.0498 23.9621
982 2 8.5795 1.59714 53.7624
983 2 14.0614 53.9253 2.61341
984 2 32.3297 15.1517 3.30548
985 2 31.5364 0.464108 23.0795
986 2 35.1762 27.3707 12.1927
987 2 44.0954 31.1536 17.6343
988 2 38.8354 2.39459 33.626
989 2 14.9165 49.0374 21.1676
990 2 20.5716 8.26381 6.78357
991 2 54.0016 48.9932 46.7742
992 2 25.3694 23.4093 27.2292
993 2 5.16008 54.5414 10.8922
994 2 17.2112 3.90798 26.0064
995 1 18.7254 17.6012 16.0702
996 1 48.3197 3.43925 52.1987
997 1 49.0564 5.09022 7.89585
998 1 29.5857 12.5284 42.953
999 1 53.2367 37.276 9.70959
1000 1 32.1944 35.8051 38.8108
1001 1 53.1759 20.9465 16.5447