ITEM: TIMESTEP
0
ITEM: NUMBER OF ATOMS
9088
ITEM: BOX BOUNDS pp pp pp
-3.5283900297959769e-01 5.6237331628887034e+01
-3.5283900297959769e-01 5.6237331628887034e+01
-3.5283900297959769e-01 5.6237331628887034e+01
ITEM: ATOMS id type x y z
1 1 25.0146 45.4099 52.5453
2 1 44.6123 4.58853 36.4095
3 1 19.641 10.5006 21.6032
4 1 38.7324 51.3705 45.6038
5 1 25.7373 8.21699 31.8512
6 1 27.5056 25.2565 27.2479
7 1 17.5578 19.1217 9.66758
8 1 48.7854 2.66242 54.0735
9 1 36.2717 3.21515 0.942824
10 1 37.2712 13.4597 53.5568
11 1 48.7911 35.7106 32.5709
12 1 35.7856 19.4535 36.6093
13 1 29.3135 40.7226 26.1147
14 1 13.8608 50.6347 4.99738
15 1 53.9386 32.6307 26.0505
16 1 19.3715 50.4928 33.6737
17 1 50.0258 9.9531 27.8442
18 1 3.83243 50.5457 32.4931
19 1 29.3103 35.4853 24.4822
20 1 50.8707 3.49967 19.4588
21 1 25.3446 51.4907 51.7371
22 1 54.3605 41.6647 0.101362
23 1 10.0961 33.6114 45.2822
24 1 56.1191 11.2011 53.2601
25 1 23.7316 50.7509 45.8223
26 1 19.8308 27.7346 43.4867
27 1 34.65 30.993 0.438837
28 1 54.4564 2.35734 8.90719
29 1 21.6115 38.5005 6.36685
30 1 40.5559 15.712 50.5216
31 1 32.8547 11.0555 2.70216
32 1 33.6167 2.12084 40.0855
33 1 22.4657 48.4073 53.7068
34 1 14.3396 24.5576 1.51033
35 1 7.96847 9.45279 44.9483
36 1 34.321 41.2668 52.2169
37 1 30.2425 50.3855 31.2794
38 1 43.7096 51.0027 14.2519
39 1 13.2325 26.3453 -0.123911
40 1 8.64351 11.0919 47.8537
41 1 47.6718 41.1933 1.21603
42 1 9.05742 41.8501 15.4347
43 1 21.1238 23.9006 13.8814
44 1 50.9948 52.1321 23.289
45 1 12.7322 44.0519 55.891
46 1 -0.0431849 17.7123 11.0478
47 1 40.447 9.9433 29.1719
48 1 22.734 10.3876 37.0449
49 1 42.2062 12.179 41.9541
50 1 21.6529 10.0146 28.5928
51 1 50.3917 32.0939 30.4959
52 1 24.5239 12.4023 42.3023
53 1 52.9004 20.6802 0.962482
54 1 0.841087 16.6054 42.0695
55 1 39.9575 44.9493 29.1307
56 1 10.6708 29.0484 17.798
57 1 7.23142 33.0902 34.795
58 1 37.3553 11.5817 21.5741
59 1 3.273 35.11 23.3137
60 1 36.2677 36.7946 46.8354
61 1 9.55266 24.1015 2.35641
62 1 45.2299 0.708803 24.2189
63 1 49.1646 41.3168 26.9536
64 1 22.5401 4.30613 15.5972
65 1 46.5038 9.98634 9.06079
66 1 9.81758 42.854 44.4184
67 1 15.3907 35.6113 48.8363
68 1 10.4374 31.0407 52.1769
69 1 34.3631 32.6641 50.5577
70 1 3.41321 11.189 14.7334
71 1 52.4715 47.193 28.0072
72 1 55.8546 29.5824 1.41974
73 1 41.987 49.9454 5.9843
74 1 35.9452 40.9878 34.0735
75 1 37.7846 19.6244 5.05752
76 1 40.8077 25.7528 4.95486
77 1 46.0619 48.1276 36.8439
78 1 42.6527 48.3233 14.0297
79 1 31.6739 22.9374 42.7918
80 1 34.9669 50.8441 1.93884
81 1 21.8826 23.2027 52.5763
82 1 13.9321 55.5398 41.639
83 1 40.4817 35.4034 49.3847
84 1 42.8676 51.6129 52.8945
85 1 37.3174 10.7059 39.8275
86 1 26.778 26.632 34.7207
87 1 19.2988 28.1549 48.9447
88 1 15.9566 11.521 12.7917
89 1 3.4547 4.78057 39.1734
90 1 21.9408 40.421 45.382
91 1 20.7571 55.8954 27.0532
92 1 10.1477 12.279 19.4386
93 1 36.2215 16.2606 16.3173
94 1 29.3786 54.3696 42.1302
95 1 40.8533 24.6157 18.8364
96 1 5.88981 1.62595 12.253
97 1 5.2514 9.43741 37.0044
98 1 23.4464 20.8642 34.5949
99 1 42.6844 36.6587 5.17664
100 1 1.65529 47.2592 5.37678
101 1 12.2727 46.3911 45.0758
102 1 3.35609 49.7836 4.14325
103 1 41.7256 43.5384 55.7533
104 1 9.20427 50.0452 44.8036
105 1 31.4812 14.1799 10.445
106 1 20.9346 55.2332 34.779
107 1 37.9417 9.78315 1.34751
108 1 35.7383 22.9834 46.2907
109 1 6.99337 3.71094 21.8739
110 1 31.5176 9.62756 10.5763
111 1 34.4003 6.11088 31.0749
112 1 17.7393 55.9668 12.6448
113 1 29.1676 33.4682 11.4179
114 1 14.8777 21.144 38.1414
115 1 46.8184 29.9971 37.8769
116 1 33.382 2.30377 34.5155
117 1 43.3232 10.3165 48.5547
118 1 7.24435 3.06042 55.6985
119 1 37.9102 36.0871 31.7036
120 1 10.9809 1.54619 36.9313
121 2 11.9164 38.9349 35.2694
122 2 51.6272 18.7313 12.6968
123 2 55.5484 46.6001 20.8554
124 2 52.4405 29.9012 19.5979
125 2 54.0665 35.4799 38.6893
126 2 25.4234 7.56958 17.6764
127 2 12.1139 51.773 15.666
128 2 7.70448 30.0279 35.3519
129 2 55.6295 18.4205 7.5387
130 2 1.35375 20.9545 45.9864
131 2 53.8964 14.977 46.152
132 2 39.3954 46.4714 17.4416
133 2 35.145 43.1476 15.6671
134 2 15.1157 5.5102 8.84761
135 2 42.9761 34.1496 3.27651
136 2 10.0546 0.416256 31.9393
137 2 40.953 24.2558 46.1846
138 2 5.32293 4.46592 49.3541
139 2 31.0243 14.9255 13.8258
140 2 45.3637 27.3438 38.5012
141 2 8.23058 38.317 22.4639
142 2 29.7211 23.3055 40.4998
143 1 14.6925 17.2011 31.9546
144 1 28.5217 22.0542 15.9073
145 1 54.354 12.8749 6.3252
146 1 52.6676 21.8568 13.0055
147 1 8.82664 44.642 22.6809
148 1 15.6239 18.4735 29.5178
149 1 44.2221 12.3859 52.6854
150 1 24.8907 25.7492 9.35157
151 1 16.1343 41.1299 54.4571
152 1 5.74121 27.445 44.1483
153 1 50.1556 48.6029 29.3733
154 1 41.6202 39.9974 29.1454
155 1 30.512 17.0271 11.0424
156 1 8.78581 39.0751 11.293
157 1 45.807 28.7312 21.7711
158 1 28.5381 11.7947 0.516934
159 1 33.6056 53.8518 12.771
160 1 39.4859 14.0737 48.3946
161 1 45.0457 17.1146 23.1115
162 1 13.0412 12.6047 44.3237
163 1 21.5635 17.8061 37.8092
164 1 56.1085 38.5631 11.7894
165 1 52.0256 36.9478 3.91194
166 1 45.093 41.9029 14.2539
167 1 31.6895 39.7056 46.0303
168 1 38.5766 8.08644 3.42063
169 1 19.3256 47.9353 38.4174
170 1 38.8198 30.6908 42.3681
171 1 29.5258 32.5696 21.2446
172 1 55.9769 46.8973 24.2333
173 1 5.3905 35.1951 8.38571
174 1 20.3454 52.4212 49.9478
175 1 20.7923 28.6104 14.8738
176 1 39.6068 37.1541 6.2841
177 1 10.0745 4.85095 25.0953
178 1 16.9588 10.358 33.7559
179 1 10.8858 6.60084 38.5064
180 1 50.1634 20.4857 7.70276
181 1 32.4466 52.8546 35.7616
182 1 51.4823 24.0531 49.8717
183 1 19.3059 4.0069 9.22671
184 1 38.3659 48.5701 19.7202
185 1 33.7824 16.9654 36.4385
186 1 34.1378 17.5238 17.7974
187 1 1.80074 6.95863 53.8192
188 1 28.7372 39.4666 2.76126
189 1 16.1525 41.1478 33.9875
190 1 31.4478 47.6398 10.9745
191 1 24.9904 48.0859 9.56619
192 1 44.6418 2.18124 11.1779
193 1 37.5678 9.19283 13.8842
194 1 36.4325 3.66276 30.4992
195 1 45.3461 55.5082 2.21019
196 1 25.9438 50.2804 17.6662
197 1 7.27981 9.03142 49.4536
198 1 13.2504 49.2034 55.3168
199 1 10.454 39.7856 -0.22597
200 1 39.9096 20.6252 41.5527
201 1 35.6934 17.084 27.997
202 1 44.1364 49.6661 17.0525
203 1 24.1411 16.0211 29.8798
204 1 4.38972 32.5588 26.856
205 1 14.475 14.3782 46.0963
206 1 29.0404 43.4529 27.4475
207 1 0.412997 45.5989 37.3829
208 1 31.7557 5.18564 10.6959
209 1 41.8443 -0.0882682 35.5684
210 1 27.2315 21.777 41.8797
211 1 8.47328 5.71492 21.2356
212 1 46.5849 37.6411 48.627
213 1 22.453 12.5982 50.9285
214 1 0.895287 37.5639 2.05541
215 1 51.8562 33.8206 22.2964
216 1 54.5331 23.9729 48.977
217 1 28.2136 16.2833 35.073
218 1 1.74228 9.44113 54.7099
219 1 35.5583 2.64631 12.9058
220 1 19.4917 9.38156 34.7986
221 1 48.6254 47.9046 5.41309
222 1 49.6317 8.11534 18.4258
223 1 9.74235 19.8155 38.873
224 1 19.9019 27.3072 10.2602
225 1 42.2111 47.1603 38.8787
226 1 3.39743 27.8132 37.4161
227 1 20.2475 45.3913 33.2039
228 1 56.08 20.0578 53.1527
229 1 52.1572 53.9823 46.0712
230 1 31.028 30.3058 41.3418
231 1 48.5123 17.884 27.0314
232 1 34.6222 10.2669 17.3654
233 1 52.9708 45.5941 31.2243
234 1 9.29079 38.0547 4.10449
235 1 50.4009 15.5525 38.385
236 1 9.00868 1.16942 45.658
237 1 54.5128 34.3073 18.2599
238 1 27.8108 5.63249 47.766
239 1 33.9425 29.0288 5.49063
240 1 14.2913 17.2554 50.2347
241 1 20.2351 49.5395 10.52
242 1 50.896 7.31354 35.9532
243 1 8.94313 30.5631 19.0351
244 1 19.7034 1.4447 38.1744
245 1 1.22197 27.8099 19.9906
246 1 5.83755 4.73289 3.43235
247 1 36.6047 16.5103 25.7749
248 1 44.1016 0.195795 45.9035
249 1 7.54256 34.8548 49.6031
250 1 23.5407 24.4057 18.0953
251 1 36.6231 55.3713 8.49983
252 1 17.4821 29.1794 44.8067
253 1 2.89079 27.2298 48.2206
254 1 55.8033 49.0918 42.2684
255 1 32.3757 19.5462 25.003
256 1 29.0424 49.6766 24.5631
257 1 1.25505 12.0244 34.8777
258 1 33.3255 18.6285 27.2442
259 1 45.9324 46.0211 54.9365
260 1 25.1917 41.5343 33.7189
261 1 32.5434 11.0625 39.1476
262 1 49.8797 51.8651 17.4436
263 2 43.9945 24.5564 29.3227
264 2 25.3882 48.2393 1.26263
265 2 46.1809 9.73892 52.4332
266 2 6.07552 26.5583 39.528
267 2 14.6363 21.3219 0.946918
268 2 4.70833 3.32361 24.5971
269 2 14.9445 2.836 16.6527
270 2 44.9438 43.6592 53.5217
271 2 53.997 44.9971 26.1178
272 2 33.2381 40.496 13.5661
273 2 33.1113 8.01646 39.115
274 2 53.0309 26.7786 30.5823
275 2 27.2143 6.89814 53.5075
276 2 56.1432 14.1575 3.87094
277 2 0.870327 43.1093 39.4054
278 2 10.0344 35.893 18.7391
279 2 44.2399 51.752 46.4566
280 2 19.8447 55.2476 22.0697
281 2 41.5385 17.0325 14.4249
282 2 15.3071 29.1969 7.85724
283 2 47.0739 47.9073 28.7397
284 2 16.5459 27.0958 34.4904
285 1 17.7515 32.9074 16.9439
286 1 49.9426 21.5262 20.511
287 1 37.9523 -0.0314125 38.3962
288 1 14.1989 27.5761 48.1292
289 1 19.9736 33.2942 1.21072
290 1 50.8046 13.0381 23.9156
291 1 28.4052 47.0097 24.6568
292 1 29.397 1.76499 47.002
293 1 54.4475 25.0333 1.01639
294 1 31.3956 32.8171 41.7501
295 1 47.0513 24.9778 29.8509
296 1 13.6058 33.6659 33.2382
297 1 48.4889 13.9876 33.731
298 1 33.474 23.7379 12.5003
299 1 50.3126 12.7158 8.77075
300 1 24.1751 34.4276 10.1036
301 1 23.1632 3.26488 28.2971
302 1 48.7473 37.5984 25.6646
303 1 56.2295 53.7111 1.8262
304 1 53.6734 51.1702 55.1721
305 1 30.2727 47.8531 31.5579
306 1 27.992 0.321479 55.2591
307 1 5.05704 40.2158 32.2159
308 1 39.0678 53.1485 47.72
309 1 49.6326 31.0573 28.3011
310 1 4.7723 41.5038 4.0421
311 1 38.1285 35.0773 5.24015
312 1 10.7603 7.77094 25.7368
313 1 0.247437 0.693571 21.3898
314 1 30.384 47.0979 0.548891
315 1 4.6133 6.52562 14.8952
316 1 51.1308 21.6574 41.4493
317 1 22.984 55.302 36.5229
318 1 5.77205 23.4173 11.2889
319 1 46.106 6.56015 13.3408
320 1 11.841 27.9567 32.7298
321 1 26.2934 38.7822 34.2922
322 1 55.1198 21.7677 22.7047
323 1 27.8698 10.1609 27.7821
324 1 18.2467 8.68662 31.9968
325 1 21.4981 46.0266 43.0546
326 1 16.6968 31.3013 40.6279
327 1 8.95384 45.914 29.542
328 1 0.513067 8.08928 36.411
329 1 4.2326 25.4583 44.7175
330 1 21.295 19.4949 33.5045
331 1 15.6913 37.813 2.91793
332 1 9.30737 29.4254 10.4343
333 1 11.9128 55.9375 12.6905
334 1 33.8352 35.2263 22.552
335 1 44.0972 31.8833 47.2793
336 1 47.4069 21.2065 12.1016
337 1 0.8353 34.224 7.51268
338 1 5.20429 13.4398 31.4589
339 1 16.084 15.8471 11.8585
340 1 25.1698 23.3195 26.218
341 1 31.1465 47.5562 40.8415
342 1 0.921098 21.3055 21.2076
343 1 6.66191 47.1582 5.62416
344 1 33.2291 16.0103 11.2588
345 1 48.9284 17.0404 3.53747
346 1 48.2513 50.0981 13.3808
347 1 19.6722 18.579 10.8619
348 1 25.9116 16.9215 27.5121
349 1 4.0275 37.4224 9.74587
350 1 8.50983 2.18367 29.6631
351 1 45.2967 35.8257 5.20764
352 1 2.21933 38.7004 27.061
353 1 0.61316 36.7016 47.4981
354 1 43.501 40.6285 45.8364
355 1 48.436 27.1897 41.1778
356 1 9.68297 40.1146 42.5499
357 1 18.3686 39.7128 52.5627
358 1 25.6474 24.0649 53.4257
359 1 33.9965 45.3075 54.6571
360 1 24.7884 13.2019 47.2939
361 1 23.2666 13.2299 45.073
362 1 50.8112 54.1349 1.78671
363 1 44.3179 18.1728 14.1182
364 1 1.91259 16.5841 33.4445
365 1 26.9963 52.0312 14.3161
366 1 10.276 18.8554 27.9431
367 1 10.7627 51.4298 42.9762
368 1 21.0066 37.689 28.4732
369 1 36.112 20.1848 12.3384
370 1 11.0229 51.7977 2.38936
371 1 11.7522 5.86713 8.53239
372 1 13.5626 32.7204 15.0601
373 1 5.65189 46.2303 53.3749
374 1 47.3328 51.0439 2.63798
375 1 17.6559 1.65107 33.033
376 1 38.2442 48.7224 24.8111
377 1 32.7112 27.1043 54.6848
378 1 36.2891 45.8781 16.5571
379 1 46.1564 37.6692 25.52
380 1 10.911 39.6438 21.7959
381 1 26.542 26.6177 53.6071
382 1 49.0025 21.8811 5.11483
383 1 21.3256 10.7532 23.8805
384 1 0.803892 13.1884 37.6559
385 1 29.8813 8.52468 19.7075
386 1 36.4141 39.0483 23.3424
387 1 31.7636 50.1467 35.4494
388 1 25.0065 9.21427 38.5041
389 1 29.119 18.5239 16.1656
390 1 45.7883 48.6653 31.6029
391 1 18.5555 7.26217 49.2882
392 1 47.7101 50.6352 35.3362
393 1 3.08173 28.1683 0.775772
394 1 11.2782 34.0305 -0.0596137
395 1 54.6542 4.98491 47.9627
396 1 14.2625 48.7149 22.4306
397 1 30.0516 44.8873 20.3296
398 1 16.717 31.9647 8.34801
399 1 6.74505 54.5328 41.1859
400 1 36.1347 43.268 26.8867
401 1 16.3243 45.0961 4.24933
402 1 31.9683 48.5774 43.1516
403 1 21.3948 32.1545 24.3763
404 1 31.976 40.1143 51.7559
405 2 20.1206 8.18227 14.2625
406 2 35.8306 30.9598 7.69629
407 2 34.6178 13.0281 12.8004
408 2 24.7836 49.5921 12.7543
409 2 45.6412 -0.273345 16.8226
410 2 38.2228 50.9199 13.7733
411 2 5.58106 41.4815 16.7645
412 2 53.9728 8.56347 35.5668
413 2 31.0327 21.5121 45.5804
414 2 12.7609 35.0552 47.7672
415 2 55.6091 51.925 8.79336
416 2 52.2103 43.27 54.962
417 2 46.4429 4.89125 10.4138
418 2 7.28707 36.2042 10.795
419 2 15.4513 54.4907 22.3443
420 2 24.3469 23.0683 23.0192
421 2 41.7785 49.3594 9.15844
422 2 32.1056 16.4608 7.93419
423 2 8.20004 0.335283 43.0538
424 2 52.4526 10.5701 4.45795
425 2 48.2182 52.1128 38.4619
426 2 37.436 8.14771 37.9926
427 1 15.3183 27.191 41.4207
428 1 9.84054 50.5338 13.7614
429 1 30.7563 -0.0835483 53.8798
430 1 22.6718 1.5465 14.9377
431 1 21.2643 45.2086 25.7818
432 1 25.5871 11.6721 45.0352
433 1 25.8778 23.3058 17.0756
434 1 19.9908 32.9995 46.0223
435 1 22.7271 52.9123 8.48277
436 1 32.3514 32.2124 48.6036
437 1 28.163 22.4504 37.6045
438 1 0.7267 15.0539 39.906
439 1 1.75357 38.2612 54.5065
440 1 15.0012 6.8308 25.9987
441 1 22.1986 14.4451 10.6357
442 1 41.3558 27.7425 7.56306
443 1 38.2844 15.7937 28.1959
444 1 14.1153 45.2845 39.5249
445 1 5.24552 14.8868 17.4595
446 1 39.0632 22.5424 39.4773
447 1 20.7712 52.0574 10.4726
448 1 31.7965 13.9487 54.7734
449 1 54.1984 7.12036 28.9314
450 1 55.0441 37.8902 46.6064
451 1 28.8056 52.0376 7.67089
452 1 51.2151 55.6025 12.7357
453 1 16.181 31.9762 5.2196
454 1 2.73726 35.2474 47.9286
455 1 18.0714 20.8729 25.065
456 1 37.7713 12.411 31.6549
457 1 53.5792 38.9392 18.1058
458 1 27.2817 20.0383 36.7319
459 1 2.56915 35.281 9.42435
460 1 1.08602 18.4311 44.1991
461 1 4.12116 10.3466 9.26714
462 1 48.9177 27.7375 9.12166
463 1 6.3675 7.03715 5.27234
464 1 31.7925 52.6086 22.3771
465 1 7.72047 4.68367 36.0066
466 1 0.54867 47.9449 16.0871
467 1 47.7914 18.2349 41.5881
468 1 55.1785 7.63356 48.9087
469 1 25.7891 35.972 24.063
470 1 8.16721 35.6188 8.04721
471 1 26.9751 10.5181 3.21806
472 1 16.8323 18.353 49.618
473 1 49.7402 40.8179 45.6806
474 1 52.8344 25.2701 20.1506
475 1 23.1233 25.2441 20.715
476 1 11.8221 43.6016 33.6336
477 1 49.2569 2.91369 37.1665
478 1 37.4696 17.9298 44.2729
479 1 55.717 25.7244 35.2875
480 1 47.6528 12.0105 4.8003
481 1 19.5765 53.747 41.373
482 1 25.2786 42.4863 31.0478
483 1 46.5258 19.0924 34.2338
484 1 12.0418 34.0626 5.4792
485 1 19.5308 43.12 26.7135
486 1 54.3692 5.56683 5.67158
487 1 30.7651 25.1636 37.8686
488 1 17.862 41.5338 24.3471
489 1 2.92655 43.7838 11.2499
490 1 22.2423 0.488818 22.6113
491 1 26.6337 9.7574 18.9687
492 1 26.8649 24.3902 41.9659
493 1 13.3204 41.5767 33.9555
494 1 44.8393 20.3934 12.5015
495 1 6.40223 13.9058 0.606844
496 1 39.2476 17.8638 37.5036
497 1 23.3509 31.2683 30.2757
498 1 5.55037 11.5444 16.477
499 1 34.0057 29.8371 20.1728
500 1 50.2578 4.51063 32.6171
501 1 44.6071 4.48328 53.8821
502 1 3.61697 44.9448 8.89505
503 1 42.717 7.71683 44.1255
504 1 40.8935 45.1818 6.5222
505 1 38.2053 30.2231 51.5852
506 1 21.1334 39.2988 40.9728
507 1 0.983922 45.9572 14.1999
508 1 10.9423 47.4407 18.4116
509 1 53.891 29.0246 8.19963
510 1 24.2636 51.5052 54.1144
511 1 48.7517 7.59896 4.76237
512 1 13.3838 53.32 13.0117
513 1 16.9896 11.946 26.2664
514 1 31.8526 26.0765 17.1896
515 1 29.569 12.2413 27.9291
516 1 5.30709 41.0117 37.105
517 1 11.3946 4.49379 20.6715
518 1 24.3794 11.9697 13.1848
519 1 11.3155 4.34662 42.2455
520 1 35.9224 18.0572 3.88447
521 1 48.5283 25.3241 35.2381
522 1 9.05625 18.443 2.01318
523 1 35.9398 14.2734 27.6556
524 1 40.1943 52.1351 32.0337
525 1 13.1911 42.2391 28.235
526 1 11.8886 18.524 35.2547
527 1 43.7314 13.3059 31.1338
528 1 1.95717 6.49465 6.06302
529 1 44.2214 4.61356 21.6669
530 1 48.7331 34.4445 46.4375
531 1 29.5998 2.42947 26.3325
532 1 35.5899 44.5565 24.4976
533 1 44.3497 54.8491 13.7382
534 1 7.32485 31.0066 7.88652
535 1 34.893 47.0913 49.7417
536 1 42.6535 35.2275 15.458
537 1 20.4478 20.098 19.3097
538 1 10.6765 26.8283 41.2471
539 1 28.7788 37.7106 33.1423
540 1 41.3477 18.8788 29.2058
541 1 41.1577 40.0598 9.10019
542 1 36.5409 48.7641 21.7282
543 1 38.3293 45.0452 34.8496
544 1 31.969 34.8074 14.9227
545 1 50.8124 27.0102 4.65658
546 1 7.70254 14.9582 27.394
547 2 15.2465 40.3296 26.5834
548 2 12.8378 47.1154 0.839009
549 2 34.5376 51.1496 21.324
550 2 1.09555 50.1346 13.9747
551 2 52.3278 7.97177 19.9658
552 2 9.81625 6.8125 35.3991
553 2 36.4932 7.75565 16.3796
554 2 23.2843 5.46963 52.9605
555 2 15.0993 13.2153 21.7563
556 2 12.5006 41.6727 43.1012
557 2 13.7808 5.3589 34.1576
558 2 17.4767 33.5698 3.10626
559 2 39.9587 17.0412 20.9663
560 2 5.31033 16.0629 29.3096
561 2 38.9863 12.5701 50.9221
562 2 3.84711 19.3269 28.3098
563 2 30.3549 46.8084 34.7866
564 2 16.8012 5.23748 39.9112
565 2 20.1213 22.7081 35.0283
566 2 31.23 13.5108 38.9038
567 2 45.0492 38.4166 0.266443
568 2 43.4618 18.1107 20.0805
569 1 15.8732 -0.0876847 17.4076
570 1 48.7645 52.3643 44.6129
571 1 17.8644 6.49168 54.4386
572 1 43.9649 4.96579 51.0412
573 1 18.8129 31.4353 23.0324
574 1 31.0273 1.43646 13.8204
575 1 2.2482 16.2521 28.4916
576 1 19.9871 54.0328 25.181
577 1 0.483778 7.80792 13.4042
578 1 55.6542 39.841 44.7358
579 1 38.6034 44.2002 41.6717
580 1 12.3443 12.0941 55.5529
581 1 35.3956 53.6866 1.74364
582 1 17.1461 20.8537 22.6966
583 1 40.8721 23.8542 11.2857
584 1 35.3809 8.24717 33.229
585 1 33.3951 7.99641 23.1718
586 1 55.6306 0.406468 31.1216
587 1 14.3085 54.6491 6.09197
588 1 37.1951 0.655711 30.3818
589 1 41.0441 29.2699 51.023
590 1 1.21537 9.45421 7.85799
591 1 22.0104 8.89451 34.8041
592 1 53.4343 32.9387 6.21542
593 1 24.4633 34.4737 46.864
594 1 2.60058 42.4313 41.8067
595 1 46.728 15.9177 43.0494
596 1 5.06611 2.62502 39.2596
597 1 14.8062 31.1565 10.1321
598 1 6.134 0.100065 25.0002
599 1 3.1435 6.84273 24.1718
600 1 5.43739 41.4384 53.3892
601 1 20.3349 47.3543 3.62568
602 1 2.81062 42.4391 15.6888
603 1 24.886 35.2452 -0.0589239
604 1 11.2212 20.7425 33.2276
605 1 21.7673 42.5185 54.2528
606 1 17.3965 43.4278 40.9746
607 1 38.9131 13.7027 33.7783
608 1 47.1832 36.6543 2.8067
609 1 34.2172 30.2635 12.488
610 1 43.5263 5.16388 44.9214
611 1 32.2019 45.1915 39.4867
612 1 17.7894 47.0437 45.71
613 1 3.48033 48.3961 6.99445
614 1 53.94 33.403 10.4821
615 1 5.55876 42.6286 41.4104
616 1 50.8351 21.6078 30.2485
617 1 16.3214 11.6859 51.9279
618 1 34.4876 55.8817 18.4048
619 1 30.2761 -0.222168 24.9553
620 1 33.3011 30.2339 22.8747
621 1 53.0604 8.96228 27.0932
622 1 3.29952 38.0123 46.7034
623 1 7.27492 0.806895 54.1081
624 1 30.856 3.90874 3.48224
625 1 16.6656 39.8018 29.6332
626 1 39.1049 30.7423 11.9066
627 1 30.9968 53.3755 8.69133
628 1 30.0768 8.09509 15.3526
629 1 44.3442 48.7524 4.92268
630 1 48.8833 8.55943 20.9893
631 1 43.9151 28.8154 13.5957
632 1 15.8917 16.8956 39.5665
633 1 16.1087 13.5776 10.3652
634 1 47.9371 45.5648 17.8822
635 1 29.57 41.8202 36.5486
636 1 0.349894 12.2565 19.9157
637 1 49.8108 16.6133 33.1874
638 1 49.2765 10.1261 8.69943
639 1 26.9389 3.41729 2.07618
640 1 38.2549 54.8397 20.7664
641 1 43.6756 38.195 36.2511
642 1 53.7749 18.8403 10.1957
643 1 22.8546 11.7171 34.2335
644 1 21.3116 47.4971 49.3194
645 1 48.2473 17.7454 44.6476
646 1 13.3471 31.4464 12.5557
647 1 15.9374 42.2878 4.79002
648 1 19.5061 41.5664 41.324
649 1 6.08187 35.3298 27.0053
650 1 15.5804 15.7942 5.60694
651 1 27.3783 28.3941 23.8948
652 1 17.5078 39.3968 4.03716
653 1 52.0582 28.2694 48.1438
654 1 25.1656 32.182 54.9112
655 1 42.8791 10.8025 29.8784
656 1 36.9589 52.2482 39.876
657 1 39.0551 22.2629 15.6355
658 1 24.9985 8.62783 55.3328
659 1 35.7362 38.4691 35.4859
660 1 5.15427 55.9065 17.8421
661 1 46.3719 36.4739 12.6768
662 1 13.9698 37.5231 39.7696
663 1 19.2021 32.3955 6.90905
664 1 55.2067 45.1284 51.3702
665 1 28.2967 5.45185 4.20365
666 1 9.2334 21.5586 28.5775
667 1 51.3449 32.1059 24.3119
668 1 53.3118 19.9946 40.4215
669 1 51.3051 22.832 15.4023
670 1 34.7751 38.8013 7.88478
671 1 27.4726 46.2404 19.3517
672 1 1.76105 18.8329 9.05511
673 1 13.333 9.04266 40.9682
674 1 46.9309 1.57448 -0.185574
675 1 53.1146 43.3208 49.5764
676 1 47.4152 9.34697 45.7204
677 1 55.8904 36.0339 54.2189
678 1 17.1789 55.3705 19.6731
679 1 54.3164 4.41301 10.6631
680 1 28.9726 32.6171 45.9901
681 1 6.73602 20.1385 51.5711
682 1 8.34865 3.81596 42.3702
683 1 32.4341 20.304 42.8233
684 1 40.0314 35.1082 36.4123
685 1 24.1025 53.0169 13.4237
686 1 45.4876 17.2583 8.86399
687 1 47.3111 55.0909 28.1668
688 1 24.3903 4.63349 38.2329
689 2 21.6885 49.6725 23.812
690 2 30.6934 50.7392 10.2683
691 2 34.2572 27.1246 38.8897
692 2 13.8629 36.8562 53.4053
693 2 45.0223 48.2754 22.5418
694 2 6.82327 52.2802 54.64
695 2 17.6669 14.9424 45.206
696 2 16.9476 41.1132 7.48528
697 2 1.30959 18.2882 35.9115
698 2 16.8805 18.4158 6.77312
699 2 44.578 10.9028 39.7815
700 2 38.2613 5.06102 3.32363
701 2 53.6575 27.5815 5.44555
702 2 36.3084 28.8183 26.8454
703 2 49.025 45.8802 44.4707
704 2 53.984 12.71 17.3438
705 2 2.60119 37.1305 7.13969
706 2 2.01028 40.4501 44.4125
707 2 47.6664 17.2423 18.687
708 2 42.7604 55.4291 0.224017
709 2 44.107 30.7205 42.2744
710 2 53.3882 48.9338 30.7373
711 1 44.2776 1.67663 51.7643
712 1 21.7903 8.48575 5.84122
713 1 1.07246 49.5657 44.0766
714 1 44.4971 32.0682 26.2229
715 1 34.6851 9.07189 44.0624
716 1 2.77757 15.7963 51.5842
717 1 44.0862 15.215 54.0637
718 1 2.96932 45.5472 49.9551
719 1 51.3606 43.4158 44.3489
720 1 18.9608 16.2853 12.8182
721 1 31.1414 7.05422 5.10627
722 1 28.25 37.4896 53.2654
723 1 18.8241 15.1879 15.8052
724 1 41.1178 39.8391 51.2178
725 1 16.7964 -0.278821 41.1711
726 1 27.4756 9.41758 33.367
727 1 32.5872 44.6038 16.5179
728 1 28.288 1.1416 1.24727
729 1 50.2475 21.5342 48.9939
730 1 5.77249 42.5051 26.4308
731 1 40.7575 1.22778 21.65
732 1 12.3456 2.69656 55.2265
733 1 49.1482 10.5642 51.4216
734 1 34.6586 43.1067 22.5501
735 1 51.4723 40.9954 43.3845
736 1 35.8897 52.7322 14.8344
737 1 31.1203 45.5242 31.7949
738 1 0.327237 11.8904 6.45626
739 1 23.2981 21.6797 2.88119
740 1 36.3687 30.2502 43.0946
741 1 2.60589 14.671 30.7382
742 1 14.938 12.9308 37.137
743 1 24.2751 36.487 30.0818
744 1 33.4022 55.6693 40.3325
745 1 47.9043 12.2166 10.6503
746 1 -0.338662 32.0396 28.0772
747 1 1.11427 5.27006 37.6401
748 1 38.0414 0.0896398 13.2606
749 1 17.2187 12.8988 42.6001
750 1 2.3564 7.44342 21.2277
751 1 33.6964 41.5988 32.3402
752 1 55.8556 17.3212 28.5201
753 1 18.3056 9.3509 45.3686
754 1 17.588 3.1691 21.2856
755 1 27.2831 27.3575 18.4519
756 1 38.3274 1.899 5.29428
757 1 10.3802 25.0965 21.226
758 1 54.9486 27.1791 20.2311
759 1 37.4627 5.4941 -0.30858
760 1 18.0123 38.4338 1.66043
761 1 2.43285 55.566 26.4357
762 1 41.282 43.9809 3.89486
763 1 24.4198 18.1381 8.45007
764 1 49.3258 15.4915 43.2137
765 1 34.471 30.8165 27.8424
766 1 46.9526 11.4439 38.0004
767 1 14.6749 10.5521 35.2384
768 1 25.6595 21.9409 35.6884
769 1 18.0275 48.6598 54.7308
770 1 14.8687 3.46345 2.74542
771 1 12.0142 38.553 44.0088
772 1 28.8109 14.9831 50.8952
773 1 10.2556 16.1822 45.6181
774 1 43.8735 -0.263354 43.2936
775 1 50.7859 35.2432 37.6595
776 1 26.4148 1.18326 20.5374
777 1 4.35928 52.0355 37.9253
778 1 21.9143 33.5642 47.6107
779 1 41.0954 26.9117 44.5883
780 1 25.6565 49.6121 39.8581
781 1 10.142 31.8304 11.6346
782 1 4.41541 19.0844 15.6855
783 1 50.4111 0.342866 36.6686
784 1 40.9277 26.5075 9.97434
785 1 30.3441 24.6747 44.6363
786 1 9.47431 10.2377 34.9642
787 1 5.0107 31.1917 54.1645
788 1 2.37582 10.4 37.1271
789 1 22.7979 20.3906 46.9389
790 1 44.2142 35.7946 52.341
791 1 36.0065 19.6369 27.1251
792 1 25.7711 1.59949 18.0696
793 1 18.6134 -0.215232 16.7897
794 1 29.7703 27.4013 18.2206
795 1 47.8215 8.7161 13.4577
796 1 12.5734 4.20362 52.5376
797 1 18.8165 11.2561 13.7409
798 1 18.9074 18.2083 51.6646
799 1 15.7106 26.0991 9.65109
800 1 12.1818 32.0708 54.2056
801 1 49.3521 48.8305 10.7823
802 1 20.4723 40.5039 21.0347
803 1 34.6305 42.5236 50.1569
804 1 52.1496 37.0282 9.08853
805 1 45.321 49.9257 27.108
806 1 16.7598 19.0068 32.6229
807 1 45.8532 6.18722 49.5201
808 1 43.3171 2.84722 38.0384
809 1 19.5855 33.3508 19.1602
810 1 8.26995 41.0336 31.9661
811 1 33.4545 22.1038 48.1232
812 1 29.4437 3.79953 48.8973
813 1 8.43566 0.999863 8.37986
814 1 32.919 17.2873 23.0952
815 1 4.63787 8.95131 41.5623
816 1 53.733 14.1239 33.8472
817 1 44.6754 43.575 29.2029
818 1 48.119 46.9057 38.8732
819 1 18.8402 34.8208 12.5945
820 1 49.1877 18.3044 38.4192
821 1 28.3143 38.6984 27.2179
822 1 0.985432 4.04453 28.8571
823 1 55.7408 50.4612 39.8928
824 1 4.06396 44.0641 39.4881
825 1 15.6104 49.3948 32.5016
826 1 16.8443 50.4785 3.65681
827 1 26.97 36.8126 43.522
828 1 36.8248 36.5976 52.2528
829 1 49.5573 56.1281 29.4253
830 1 51.4824 43.4043 3.86025
831 2 7.38525 40.3513 39.8194
832 2 23.5319 14.723 2.90467
833 2 20.3876 43.1277 23.21
834 2 42.8215 29.4136 45.5725
835 2 27.3073 -0.27823 27.4546
836 2 19.4124 17.3918 32.8412
837 2 15.7296 27.1802 17.8362
838 2 23.0548 42.7083 47.8581
839 2 28.7982 35.2754 31.0466
840 2 19.6783 16.1081 53.7362
841 2 15.9376 27.1079 26.5456
842 2 44.5887 7.73429 46.5844
843 2 42.2783 1.15179 29.8673
844 2 31.3506 15.2937 18.3703
845 2 8.44134 51.8752 16.2998
846 2 41.7882 41.6192 48.702
847 2 48.208 55.6613 10.7111
848 2 48.2368 44.1658 25.3001
849 2 23.1516 17.2607 34.7235
850 2 22.6975 32.5932 44.5938
851 2 48.2701 56.1304 53.928
852 2 46.7598 38.8 20.3933
853 1 30.3912 48.8341 13.1881
854 1 31.9012 44.5609 47.5594
855 1 47.7868 27.0196 15.0461
856 1 50.5175 12.8562 26.5299
857 1 48.7299 11.4686 47.3714
858 1 13.9567 48.4838 43.7401
859 1 2.05583 22.1679 33.2212
860 1 7.76953 36.2248 5.48241
861 1 52.382 36.4823 29.3478
862 1 54.9817 30.8408 5.3232
863 1 33.5379 11.3178 10.2397
864 1 29.8208 22.6832 55.2504
865 1 14.8204 26.4943 14.3787
866 1 6.52192 38.3713 0.744673
867 1 9.0316 17.7632 40.5503
868 1 51.9951 3.10787 35.7921
869 1 53.8263 26.5113 52.6368
870 1 55.6065 28.9736 28.7805
871 1 10.5176 28.2342 15.0846
872 1 53.2965 37.718 41.0907
873 1 22.1099 44.0276 8.53515
874 1 50.0186 36.6778 47.8561
875 1 55.1203 25.2618 44.0997
876 1 43.9223 10.2123 10.5897
877 1 0.0155617 27.5365 22.2519
878 1 38.8392 26.6156 12.3707
879 1 3.06891 32.1086 29.3198
880 1 51.8398 11.7114 1.64184
881 1 42.0766 17.3082 49.003
882 1 44.9458 22.7252 52.5273
883 1 28.1747 6.97164 30.9178
884 1 51.6864 54.5037 36.3545
885 1 12.2072 21.4834 35.8411
886 1 37.5311 41.2643 2.98892
887 1 7.25817 15.6566 19.4599
888 1 12.1137 27.1484 54.0218
889 1 35.0485 11.0942 0.744427
890 1 55.7657 48.9782 1.6678
891 1 44.8328 18.483 42.4615
892 1 18.9559 45.4073 4.81013
893 1 26.7334 50.004 44.4247
894 1 11.0315 48.4173 8.74187
895 1 8.91151 42.9131 28.5105
896 1 2.53052 40.7891 17.7773
897 1 28.5829 52.9881 4.75964
898 1 53.6886 20.738 37.9195
899 1 17.2628 21.1444 30.1469
900 1 11.0966 36.7004 51.5908
901 1 38.1887 50.0297 41.1517
902 1 29.9576 5.21432 25.6413
903 1 13.0181 4.92217 11.0633
904 1 35.7563 35.6313 11.1806
905 1 28.3795 30.2201 22.2977
906 1 16.5181 12.7774 32.4894
907 1 24.4461 43.1905 20.5383
908 1 1.38339 6.22133 34.5015
909 1 47.9157 4.15074 39.3752
910 1 50.6609 40.1591 7.83209
911 1 12.9155 9.04283 24.5421
912 1 20.8536 14.2172 45.2016
913 1 12.6044 54.6841 52.337
914 1 53.3093 52.267 30.7924
915 1 24.4601 23.8747 1.39148
916 1 18.7247 40.6638 33.4827
917 1 29.9356 4.25705 53.4544
918 1 43.6759 32.3572 23.4271
919 1 46.7538 42.4416 37.0174
920 1 20.5123 12.6118 29.8958
921 1 0.80254 1.48211 12.9415
922 1 18.156 44.5741 31.4116
923 1 54.5665 2.8988 32.1332
924 1 0.176831 11.9738 16.5037
925 1 49.5002 54.7953 5.806
926 1 27.714 49.9378 51.4567
927 1 51.8025 2.38113 38.5485
928 1 43.2288 30.1235 25.1203
929 1 50.325 33.1418 7.01556
930 1 34.2561 54.8148 15.5107
931 1 24.1648 19.3489 36.8395
932 1 27.3811 42.5558 29.0392
933 1 26.5367 9.1251 45.4328
934 1 25.1884 54.0796 1.69695
935 1 3.10667 4.04365 15.3015
936 1 29.1666 38.507 41.9061
937 1 43.478 35.4151 43.9045
938 1 34.8797 13.4947 46.2631
939 1 51.0562 0.690349 53.2423
940 1 53.9286 6.13334 2.76676
941 1 32.9508 54.7114 37.7566
942 1 15.0739 46.6547 45.3717
943 1 36.9282 43.9396 46.7891
944 1 10.7777 43.1727 17.5334
945 1 44.7007 27.3633 0.216848
946 1 14.2108 44.0909 44.5624
947 1 45.7692 26.7815 31.3081
948 1 14.501 2.04356 46.0686
949 1 47.5711 5.52774 33.291
950 1 39.838 3.75261 0.981381
951 1 14.838 43.5181 53.7113
952 1 44.3474 0.886039 48.476
953 1 2.10063 12.6026 12.266
954 1 55.8665 53.2591 31.2268
955 1 9.52621 18.4841 15.4632
956 1 6.35162 13.6848 54.5645
957 1 52.0434 42.0917 47.3092
958 1 53.9246 23.7857 30.1998
959 1 22.0956 45.5197 52.5721
960 1 53.6892 14.0297 12.5662
961 1 30.4072 38.4842 1.16422
962 1 31.4746 7.51241 17.8521
963 1 7.67349 30.2382 46.8807
964 1 25.4241 14.5168 44.4993
965 1 10.3653 26.7936 26.858
966 1 25.6777 43.1858 24.7813
967 1 17.1495 2.64868 47.551
968 1 48.3304 7.70504 50.5625
969 1 30.475 38.6763 39.7734
970 1 38.4043 25.3484 9.9847
971 1 39.4601 5.78297 38.8895
972 1 43.7589 18.3591 50.6146
973 2 45.4103 3.78384 25.0045
974 2 46.3574 39.7062 34.9752
975 2 53.7554 39.1708 27.7498
976 2 17.0494 30.7267 49.7182
977 2 52.9096 35.9197 16.0591
978 2 52.5821 36.2776 19.8423
979 2 33.7081 42.7511 40.3927
980 2 54.9014 6.21228 44.812
981 2 36.6508 12.0686 9.6735
982 2 54.6864 29.7352 49.078
983 2 12.1479 31.3444 0.813928
984 2 46.6415 22.4718 34.7222
985 2 51.8 2.43184 10.5606
986 2 7.13849 18.5894 37.7583
987 2 16.0684 7.61506 5.71088
988 2 2.57771 26.7231 51.8196
989 2 39.7796 27.7669 32.2792
990 2 54.3477 9.78123 14.7059
991 2 23.1992 21.1385 17.3769
992 2 15.626 15.5068 54.5683
993 2 1.5223 15.4859 55.9072
994 2 53.9799 22.9222 35.5497
995 1 54.4509 3.24347 43.6985
996 1 51.3648 25.7886 47.6552
997 1 22.9324 2.97074 45.7477
998 1 1.72848 46.0834 22.2926
999 1 21.9983 44.9419 50.0115
1000 1 19.542 8.76521 47.6055
1001 1 38.5028 26.5978 45.0702
1002 1 52.6413 26.1367 8.22822
1003 1 13.4427 29.6562 18.4828