ITEM: TIMESTEP
0
ITEM: NUMBER OF ATOMS
9088
ITEM: BOX BOUNDS pp pp pp
-1.9091028684164274e-01 5.6075402912834470e+01
-1.9091028684164274e-01 5.6075402912834470e+01
-1.9091028684164274e-01 5.6075402912834470e+01
ITEM: ATOMS id type x y z
1 1 28.4433 41.1857 49.239
2 1 44.5049 4.55627 36.7648
3 1 41.637 12.6423 50.2261
4 1 37.0299 49.4729 43.6094
5 1 11.4231 34.508 8.2108
6 1 35.947 25.4286 21.828
7 1 19.7809 33.26 1.34538
8 1 48.5008 1.58066 9.31419
9 1 55.7052 50.1994 40.1256
10 1 36.8424 13.3554 53.574
11 1 48.584 35.7248 32.6646
12 1 35.6592 19.5049 36.7304
13 1 21.5538 48.7833 37.029
14 1 20.0043 49.6062 50.0928
15 1 3.03487 36.566 30.2999
16 1 26.6139 0.828941 38.7882
17 1 50.1536 10.0517 27.8785
18 1 4.04461 47.9275 35.9304
19 1 30.2365 24.1122 51.9222
20 1 31.1532 2.50531 44.6784
21 1 25.3336 49.0282 50.277
22 1 9.35415 42.0343 1.98973
23 1 21.6235 17.6121 37.8269
24 1 3.30718 7.85528 55.0828
25 1 26.0704 27.3704 38.7602
26 1 20.0379 27.9773 43.3427
27 1 34.7841 29.0782 54.4654
28 1 13.4071 32.6228 14.8287
29 1 10.7749 50.1303 40.081
30 1 49.1033 7.38058 44.5286
31 1 30.6618 4.57332 0.125377
32 1 34.0264 5.48264 23.3341
33 1 24.3669 41.8329 2.6633
34 1 14.4711 24.5001 1.8714
35 1 19.8345 51.3608 40.4377
36 1 16.1464 31.9061 19.0764
37 1 23.8023 55.8373 47.1153
38 1 23.4756 21.2827 5.89804
39 1 13.359 26.2905 0.183035
40 1 8.64259 11.4522 47.8973
41 1 46.6598 40.7045 1.2731
42 1 5.47095 38.8774 14.822
43 1 22.0293 17.0051 9.57776
44 1 50.7125 52.2109 23.6807
45 1 12.8881 43.6536 55.9217
46 1 0.0655966 17.6714 11.0073
47 1 42.6095 6.29122 32.1696
48 1 18.4267 30.6672 19.8284
49 1 7.44051 19.937 32.625
50 1 18.4435 19.5501 20.6669
51 1 50.2381 32.3412 30.6401
52 1 22.4124 10.4734 37.4067
53 1 52.7072 20.5886 1.19201
54 1 52.2743 17.691 42.8871
55 1 39.8503 45.0418 29.3283
56 1 11.7748 25.6992 44.8525
57 1 6.9225 33.059 34.4886
58 1 37.385 11.4773 21.6126
59 1 5.22971 30.3522 28.5791
60 1 36.2242 32.8093 54.7583
61 1 11.9582 27.2269 54.1354
62 1 52.692 22.2535 24.583
63 1 49.3552 43.2539 28.7829
64 1 22.2749 4.24884 16.4136
65 1 11.2553 42.4894 47.8491
66 1 8.11848 44.9922 10.1967
67 1 11.9297 43.1032 53.1801
68 1 11.3495 33.8372 52.6237
69 1 37.2763 38.4344 45.8254
70 1 2.1342 27.8836 4.94724
71 1 51.9376 47.0647 28.235
72 1 55.4498 29.6662 1.49195
73 1 23.2644 46.591 6.38976
74 1 4.91677 33.5487 46.856
75 1 37.6203 19.4748 5.04841
76 1 38.4948 23.879 5.87561
77 1 47.199 40.2586 31.8213
78 1 33.7779 40.5426 10.2792
79 1 31.6926 23.4135 42.5681
80 1 39.5008 0.355192 30.5131
81 1 17.6094 27.769 54.4444
82 1 50.2289 1.24123 23.7958
83 1 8.17876 14.8135 27.8753
84 1 36.5945 2.04151 3.9189
85 1 39.5407 10.7143 38.5613
86 1 34.6973 34.159 34.4789
87 1 25.9165 7.96136 32.0452
88 1 15.8583 11.4557 12.9419
89 1 7.13599 47.9138 39.3272
90 1 1.41264 39.6452 51.3994
91 1 17.8255 7.81491 21.6929
92 1 10.1508 12.261 19.5659
93 1 38.4844 9.53325 11.0984
94 1 35.409 34.1284 28.6782
95 1 40.7539 24.3511 18.8318
96 1 7.09542 -0.125959 13.8338
97 1 3.37071 8.64631 32.5664
98 1 17.7986 12.6795 30.2775
99 1 42.3942 36.7426 5.44571
100 1 3.3719 5.95538 26.8231
101 1 0.506553 33.7574 47.0971
102 1 5.26749 1.30772 12.3139
103 1 41.7243 43.1069 55.8653
104 1 14.8626 54.8642 39.2343
105 1 31.4423 13.9786 10.7209
106 1 18.9878 48.3191 47.5421
107 1 32.2925 0.0932088 44.9367
108 1 46.76 17.3867 47.439
109 1 10.0784 45.8598 16.8815
110 1 31.4407 9.11844 10.902
111 1 37.8297 54.4579 14.9158
112 1 5.48751 5.78159 10.2048
113 1 29.0438 33.1205 11.4568
114 1 24.2855 16.9074 40.0692
115 1 42.9687 34.5627 31.0565
116 1 31.9998 6.1007 37.9501
117 1 0.130119 12.5152 40.6162
118 1 1.87056 43.9505 31.7927
119 1 36.2203 36.4276 33.6271
120 1 15.1963 1.7408 40.1058
121 2 11.8611 38.8416 35.3484
122 2 51.5903 18.6402 12.7387
123 2 54.9837 46.6328 20.7764
124 2 52.4909 29.6666 19.8745
125 2 53.8507 35.481 38.5732
126 2 25.1338 7.57617 17.6649
127 2 12.5224 51.261 15.4794
128 2 7.6696 30.0581 35.3868
129 2 55.2824 18.001 7.41911
130 2 1.31135 21.165 45.9903
131 2 52.1958 11.9545 47.3253
132 2 39.0997 46.6667 17.78
133 2 34.8384 42.8747 16.2858
134 2 15.1466 5.21585 9.06855
135 2 42.8496 33.8181 3.68716
136 2 10.1065 0.499036 32.0634
137 2 40.8582 24.2059 46.302
138 2 5.35715 4.75129 49.1717
139 2 31.0437 14.9007 13.7259
140 2 45.2895 27.2768 38.8059
141 2 7.89861 38.3528 22.9397
142 2 29.6495 23.5111 40.1961
143 1 47.2474 19.7348 45.7912
144 1 29.291 17.7084 13.5249
145 1 54.1742 12.5411 6.4981
146 1 52.337 26.6318 15.4432
147 1 29.3295 27.9764 32.8
148 1 27.2517 10.3973 38.4431
149 1 46.5847 6.55151 44.736
150 1 25.0591 25.6381 9.55833
151 1 50.0831 24.2928 53.8549
152 1 10.2131 33.5293 45.5122
153 1 50.0944 48.5669 29.477
154 1 43.1963 41.7708 30.7918
155 1 32.5924 18.4923 10.5257
156 1 7.79787 33.1012 9.32517
157 1 51.5279 34.0077 22.028
158 1 37.4253 5.66106 0.329365
159 1 54.6933 47.7606 13.7405
160 1 49.2435 2.54068 2.32147
161 1 10.6467 25.3869 21.5074
162 1 13.3899 12.7513 44.1522
163 1 20.1301 21.24 26.6479
164 1 55.771 38.39 12.0632
165 1 51.5017 35.5149 6.78587
166 1 44.9267 41.6244 14.6753
167 1 31.125 39.6286 46.3024
168 1 36.7118 7.89326 43.304
169 1 28.3456 50.5933 39.2421
170 1 39.4757 33.899 47.1262
171 1 28.3534 32.5295 23.5064
172 1 21.2492 43.7939 28.4787
173 1 13.966 39.8733 9.80431
174 1 35.3872 1.87627 32.6009
175 1 18.7068 27.8913 16.5147
176 1 39.4716 36.8472 6.52146
177 1 10.0172 4.79836 25.1964
178 1 18.6436 5.81098 8.97645
179 1 27.2784 45.0902 48.0182
180 1 55.2333 27.0538 8.64098
181 1 48.6172 42.7397 31.628
182 1 49.7264 30.2729 52.437
183 1 13.4901 20.4517 3.9322
184 1 25.7932 52.612 12.0122
185 1 33.4108 9.86319 34.5295
186 1 43.5196 26.7559 26.5575
187 1 1.5057 7.10464 53.3888
188 1 28.6146 39.3508 3.60045
189 1 13.3544 41.3304 33.7908
190 1 35.418 48.8735 21.8544
191 1 20.2765 19.1245 46.0458
192 1 50.4283 -0.0523003 7.75024
193 1 37.2718 8.71045 13.6421
194 1 36.0657 3.96308 30.8269
195 1 24.6946 27.7751 1.2487
196 1 34.8789 5.26854 26.2281
197 1 6.98502 9.33367 49.5281
198 1 12.7965 18.6177 28.6759
199 1 31.4033 18.8947 2.98142
200 1 39.8991 20.6741 41.4451
201 1 26.632 12.9424 16.1714
202 1 39.2108 2.08268 2.76011
203 1 31.2364 27.6057 37.135
204 1 40.9668 27.15 19.103
205 1 8.04055 12.288 2.80409
206 1 39.4547 25.3391 24.2896
207 1 0.317046 45.3096 45.9322
208 1 32.0229 5.22948 10.891
209 1 47.8195 6.82598 47.1951
210 1 27.4188 21.6315 41.8455
211 1 8.66547 5.87334 21.7647
212 1 43.2993 27.566 43.4305
213 1 22.362 12.7462 51.2478
214 1 0.787471 37.8455 2.36359
215 1 11.566 27.6391 23.2177
216 1 0.260592 24.6779 51.3277
217 1 22.0225 8.90826 35.2093
218 1 1.44103 9.71555 54.3201
219 1 43.7801 51.8415 6.07504
220 1 44.6478 8.11286 44.0583
221 1 30.8219 0.488468 17.262
222 1 2.78731 7.7407 21.4479
223 1 26.1154 44.0887 3.01947
224 1 42.7088 8.51399 25.4835
225 1 43.8206 48.8401 38.29
226 1 12.7533 42.0919 25.4836
227 1 20.066 45.7462 33.4357
228 1 -0.0588346 19.9855 52.9645
229 1 11.0045 27.1673 42.6211
230 1 31.108 29.9194 41.3165
231 1 31.6073 35.2278 25.4282
232 1 40.5291 17.2223 17.9084
233 1 50.9847 50.0446 38.1645
234 1 10.9946 14.1947 51.036
235 1 41.5067 18.4944 42.0604
236 1 6.86329 47.7227 29.4041
237 1 52.6958 29.9041 23.6294
238 1 38.4692 0.951293 -0.0997983
239 1 33.8107 28.7689 5.98522
240 1 9.4042 33.1159 50.9793
241 1 20.1622 49.0864 10.6579
242 1 32.7424 11.2366 2.90915
243 1 7.6372 24.1998 33.6647
244 1 55.7781 42.4881 7.63307
245 1 1.24749 27.9446 19.9484
246 1 54.4607 5.60419 5.71239
247 1 54.3709 49.0425 11.163
248 1 44.1841 0.477817 45.7307
249 1 10.5469 45.009 48.7519
250 1 23.5137 24.6366 17.9141
251 1 17.7969 39.4468 4.0161
252 1 47.6629 16.85 38.788
253 1 2.88677 26.9808 48.2725
254 1 9.33529 8.44967 32.8993
255 1 55.0405 9.59888 18.0105
256 1 31.0374 47.5141 24.2878
257 1 1.58048 12.2688 35.0006
258 1 33.2898 18.535 27.7072
259 1 45.55 45.8396 54.9547
260 1 24.9514 41.3436 34.07
261 1 32.1712 10.7612 39.4671
262 1 22.3914 44.7665 11.8229
263 2 43.8289 24.9111 29.3383
264 2 25.528 47.0041 1.68872
265 2 49.9591 7.37785 49.2838
266 2 7.15696 24.5752 38.6776
267 2 14.9018 21.3449 1.41135
268 2 4.6188 3.26921 24.8381
269 2 15.3041 2.54486 16.7934
270 2 44.218 43.4317 53.5589
271 2 53.9617 44.792 26.1303
272 2 33.286 40.3838 13.8604
273 2 33.2839 6.07623 34.7083
274 2 52.8905 27.1842 30.4567
275 2 27.1965 7.16632 53.0334
276 2 56.0746 13.9293 4.34865
277 2 1.31816 42.9667 39.4623
278 2 11.7829 34.2763 18.6745
279 2 44.0827 51.4259 46.7577
280 2 19.786 55.3284 22.2395
281 2 41.3705 17.0177 14.6358
282 2 14.9103 28.8706 8.30292
283 2 46.778 47.7723 28.7248
284 2 16.8502 27.1013 34.9223
285 1 4.64335 35.2936 5.60645
286 1 49.5721 34.6228 20.1803
287 1 44.6825 1.74425 35.9731
288 1 20.4742 16.6899 29.4791
289 1 22.7264 31.5778 4.15611
290 1 50.7036 13.1328 24.1744
291 1 17.9456 43.8064 34.3729
292 1 40.7764 5.32605 44.0833
293 1 54.4527 19.8307 55.4248
294 1 31.0522 32.6718 41.5102
295 1 46.9305 25.4409 29.7876
296 1 12.4836 32.0942 35.3648
297 1 48.3097 14.09 33.8197
298 1 31.0513 22.1717 13.1168
299 1 31.7417 18.6547 17.9105
300 1 24.6095 31.9188 9.48014
301 1 24.7617 49.6446 23.3896
302 1 46.4653 33.5164 25.9832
303 1 53.8214 3.45465 1.76377
304 1 13.5132 34.6054 54.0131
305 1 25.4571 38.1992 23.1542
306 1 28.8017 52.3149 32.9087
307 1 5.19493 39.9557 32.0627
308 1 39.8753 53.9991 45.347
309 1 49.5165 30.9424 28.5481
310 1 10.5679 52.6696 38.3342
311 1 38.1988 35.0066 5.24321
312 1 10.4256 7.7253 26.0112
313 1 5.11987 55.6472 18.3325
314 1 28.8487 47.6799 53.0284
315 1 4.45004 6.38429 14.7638
316 1 43.8272 10.6507 10.6354
317 1 30.4348 32.0185 38.8169
318 1 5.82294 23.0879 11.32
319 1 3.19765 2.75326 17.8097
320 1 19.0169 33.7751 25.3629
321 1 26.2361 38.8892 34.1262
322 1 55.2217 21.5872 22.8586
323 1 11.3346 10.6277 33.0714
324 1 18.2819 8.84495 32.3364
325 1 21.65 46.0942 43.0241
326 1 16.7806 31.7676 40.8841
327 1 12.6194 9.06457 35.2468
328 1 0.733692 8.11546 36.8733
329 1 4.40975 25.6035 45.0742
330 1 7.94885 30.5131 30.1274
331 1 15.7587 39.3754 52.3568
332 1 0.582187 44.3241 12.0013
333 1 16.3326 13.6547 10.6489
334 1 33.4703 34.9075 22.9894
335 1 35.6422 13.4803 51.1321
336 1 50.0406 21.2848 12.9413
337 1 0.908613 34.318 7.86592
338 1 9.67385 22.8927 22.4133
339 1 15.1423 24.352 44.5097
340 1 25.1177 23.4756 26.0439
341 1 26.637 50.8655 25.1581
342 1 0.143511 26.8799 17.8464
343 1 35.9271 14.2387 27.5935
344 1 33.1954 15.9306 11.3203
345 1 48.8078 16.7451 3.95224
346 1 0.48277 6.55261 23.4351
347 1 19.8322 18.4249 11.2194
348 1 12.8694 10.4884 23.172
349 1 4.17467 37.173 10.6411
350 1 1.75375 53.6712 51.3907
351 1 45.0407 35.4517 5.57343
352 1 18.8305 8.61038 52.296
353 1 24.3179 34.604 53.952
354 1 46.6729 37.2872 39.6063
355 1 48.7153 28.5309 38.6724
356 1 9.70733 40.2247 42.8863
357 1 20.3758 50.7008 52.5764
358 1 21.6569 24.1932 36.8199
359 1 28.9175 45.0254 46.0175
360 1 16.6823 38.2399 45.4961
361 1 40.3946 22.26 43.7561
362 1 0.387328 53.8166 4.44349
363 1 44.2376 18.2044 14.7883
364 1 41.0282 0.469471 32.8491
365 1 40.2074 44.7751 6.73868
366 1 15.5573 34.3233 14.7359
367 1 50.6626 47.0195 38.2057
368 1 40.3513 44.8836 26.3839
369 1 33.3524 14.6658 16.0451
370 1 3.71833 40.8856 50.7181
371 1 19.5759 28.2047 48.7607
372 1 13.6462 22.4151 33.6923
373 1 21.7235 55.7831 38.2715
374 1 47.1616 50.5504 2.72189
375 1 4.09883 52.7725 35.0242
376 1 42.7562 49.0549 24.8801
377 1 6.16052 21.6735 56.0451
378 1 29.0687 52.7674 21.3137
379 1 51.5139 39.4239 20.0863
380 1 10.8304 12.9976 26.9928
381 1 26.1766 50.1437 29.1328
382 1 55.1273 22.8758 8.57662
383 1 12.612 23.485 22.6835
384 1 49.2933 16.4442 32.6471
385 1 29.9841 9.09638 19.5953
386 1 36.3197 38.7418 23.0852
387 1 21.0778 33.7921 39.2746
388 1 24.3663 6.91864 40.3916
389 1 26.5126 10.9455 14.3697
390 1 45.4863 48.7351 31.7467
391 1 7.13382 9.25944 7.22364
392 1 48.5537 49.0064 37.3521
393 1 3.49341 27.9634 1.04116
394 1 3.32185 38.0843 46.6212
395 1 55.0567 7.6306 48.1146
396 1 14.8053 5.09213 23.9261
397 1 49.7348 26.0545 22.4827
398 1 21.8706 28.9259 3.92304
399 1 7.04468 54.3038 41.9014
400 1 35.9441 43.0137 27.4547
401 1 18.5948 30.9871 24.6547
402 1 31.6831 48.1742 43.3471
403 1 13.2814 42.5293 28.2769
404 1 26.597 34.9885 45.8026
405 2 19.7579 8.03858 14.1024
406 2 36.0076 30.8459 7.64712
407 2 34.3343 13.0937 12.7391
408 2 24.8738 49.7739 12.8534
409 2 46.9006 0.238107 16.5733
410 2 36.5379 49.3539 16.0821
411 2 5.69181 41.51 16.9275
412 2 53.5804 8.82644 35.8371
413 2 31.1744 21.8266 45.1666
414 2 12.6766 34.9725 47.7219
415 2 55.5896 51.7049 9.16329
416 2 51.9046 42.9458 55.2062
417 2 44.5947 4.92609 10.2101
418 2 7.35587 36.1306 11.1635
419 2 15.6792 54.5871 22.4771
420 2 23.821 23.2041 23.2328
421 2 41.137 49.3963 9.58745
422 2 31.967 16.1688 8.12092
423 2 8.31961 0.540149 43.4142
424 2 52.2838 10.6557 4.90327
425 2 48.2631 51.822 38.9235
426 2 37.2931 8.24532 38.1566
427 1 29.4003 29.8944 -0.185915
428 1 4.12998 53.6658 52.5937
429 1 55.9218 27.768 51.2695
430 1 51.8897 54.7529 9.6693
431 1 20.1467 47.5449 26.1311
432 1 42.4912 8.1718 6.57668
433 1 40.0135 24.9461 13.5953
434 1 13.3036 22.5043 43.8813
435 1 23.0906 52.2912 8.58461
436 1 32.492 32.0889 48.3054
437 1 26.0062 24.1558 33.3959
438 1 47.1936 3.13611 35.469
439 1 1.61067 38.183 53.981
440 1 8.95519 25.389 29.8648
441 1 22.5457 14.4014 10.8576
442 1 42.7932 18.5195 17.087
443 1 41.9256 10.4631 27.4249
444 1 51.5848 42.0195 47.8137
445 1 5.12479 14.783 17.6709
446 1 38.5325 31.5839 39.6442
447 1 20.8991 52.1872 10.3175
448 1 44.5603 2.82502 0.144591
449 1 54.0411 6.98393 29.0439
450 1 51.1562 33.1411 0.255593
451 1 27.7122 49.4739 14.5604
452 1 48.0299 12.4156 22.7321
453 1 9.4774 21.1596 33.6306
454 1 5.61068 35.2946 52.1239
455 1 7.2642 22.3588 23.4272
456 1 46.0985 4.00064 51.5194
457 1 53.7318 39.051 18.6251
458 1 27.2772 20.1755 36.5408
459 1 2.85402 34.7294 9.75784
460 1 29.3888 0.169012 34.4357
461 1 8.1513 16.6957 17.4011
462 1 48.5803 27.6847 9.41829
463 1 15.514 2.422 7.58964
464 1 31.8447 52.6193 22.8507
465 1 7.58286 46.8389 17.6414
466 1 4.98045 47.6991 5.61096
467 1 47.0928 11.3356 37.9594
468 1 44.9682 54.2872 6.91372
469 1 14.8921 43.3781 24.528
470 1 28.4877 0.0976299 14.8128
471 1 26.7947 9.98072 3.53323
472 1 15.1836 38.1037 28.0332
473 1 48.5168 38.7586 46.3679
474 1 39.9905 12.6373 16.7083
475 1 22.9369 25.11 20.6131
476 1 12.1621 21.8928 40.2271
477 1 48.989 3.36289 37.4624
478 1 41.5367 7.48375 13.8512
479 1 55.4699 26.0242 35.4137
480 1 41.0401 8.41235 3.92949
481 1 25.6332 1.62297 51.0648
482 1 29.8111 37.0176 22.876
483 1 46.2263 19.2339 34.0847
484 1 5.7364 37.2078 7.3968
485 1 18.4206 45.3628 25.1314
486 1 47.1927 7.90404 42.6147
487 1 20.9715 12.6009 22.0306
488 1 5.81923 47.4663 25.3986
489 1 2.88196 44.41 13.6856
490 1 24.4848 49.5521 26.364
491 1 13.3737 29.684 47.3778
492 1 27.1431 24.7023 41.6545
493 1 44.2363 30.3967 33.8118
494 1 4.68232 54.4116 13.4429
495 1 11.6648 33.7281 13.1098
496 1 38.9002 17.7619 37.101
497 1 7.10818 17.2641 31.9145
498 1 19.5024 20.4543 8.86422
499 1 33.8922 29.941 20.2451
500 1 51.8523 3.04787 36.1455
501 1 16.1316 50.8819 43.3917
502 1 50.6797 42.9958 7.00167
503 1 42.5482 21.2074 42.5651
504 1 40.3721 46.9809 32.2036
505 1 38.3452 27.4001 3.62276
506 1 22.4754 27.335 41.8263
507 1 53.5925 54.3995 32.2267
508 1 10.5148 42.9732 17.605
509 1 53.4305 29.3493 8.31432
510 1 30.5643 0.708002 3.72154
511 1 50.14 5.39433 6.19449
512 1 14.4586 50.4714 12.762
513 1 33.3584 30.244 29.2154
514 1 28.1392 27.919 20.8379
515 1 29.3158 12.5532 27.4273
516 1 5.46891 40.5857 37.3782
517 1 15.7844 3.1608 0.0695151
518 1 24.0576 12.2579 13.6507
519 1 8.05157 12.2734 45.0784
520 1 35.8264 17.5793 4.42303
521 1 45.9535 25.0242 32.4664
522 1 7.52773 17.1833 0.836591
523 1 38.7049 1.64004 25.856
524 1 40.0659 51.399 32.2286
525 1 25.8996 41.3589 22.5533
526 1 26.5505 15.6182 30.6403
527 1 29.3626 54.4491 23.5849
528 1 2.47954 6.97137 6.23957
529 1 40.0513 8.45599 33.8084
530 1 37.9467 16.5312 18.6647
531 1 39.0939 7.98613 48.4264
532 1 35.3762 9.89465 12.0016
533 1 43.1431 6.4981 20.5853
534 1 19.4688 35.8275 20.7912
535 1 42.9644 3.07815 38.4738
536 1 39.301 22.3252 15.4566
537 1 19.3599 22.1142 20.993
538 1 6.57109 27.4761 2.81803
539 1 28.4789 37.7502 33.0119
540 1 48.3975 12.2431 16.5251
541 1 42.6469 5.84263 7.72929
542 1 33.1689 47.8929 35.9431
543 1 37.9408 44.9265 34.8683
544 1 31.82 34.723 15.2867
545 1 51.9315 24.5721 5.67485
546 1 23.7638 50.6947 40.8803
547 2 15.468 40.7598 26.6502
548 2 12.7834 46.7764 1.4707
549 2 35.0408 47.8178 25.5674
550 2 55.6091 51.6402 12.8956
551 2 52.5034 7.11287 16.83
552 2 9.94647 7.02697 35.554
553 2 37.7186 10.289 16.8368
554 2 23.3427 5.77902 53.1397
555 2 14.7259 12.9154 21.6475
556 2 12.6275 41.5802 42.9496
557 2 13.7881 5.60561 33.9906
558 2 17.3431 33.236 3.39236
559 2 39.9973 16.9 21.157
560 2 5.13698 16.3363 29.5459
561 2 38.5359 12.679 51.0216
562 2 3.79773 19.7815 28.607
563 2 30.0704 47.0475 34.7891
564 2 16.8054 4.9661 39.9067
565 2 20.124 22.1197 34.9807
566 2 31.1513 13.7676 39.0471
567 2 44.662 38.3072 0.580121
568 2 43.681 18.1335 20.3743
569 1 14.9856 1.16254 19.6411
570 1 52.4715 36.7538 49.2742
571 1 20.2976 14.247 5.98932
572 1 46.2042 14.8914 53.2885
573 1 15.5966 15.1278 26.1267
574 1 30.4697 46.23 17.0862
575 1 30.1831 49.6944 41.9895
576 1 13.8943 -0.029425 11.4047
577 1 1.80549 6.51461 15.2451
578 1 55.2666 39.982 44.5264
579 1 34.0927 44.9851 48.3576
580 1 20.8675 32.1226 6.4152
581 1 37.4542 10.2406 28.9669
582 1 12.2064 41.0233 37.9585
583 1 45.3002 25.6434 18.0396
584 1 29.002 40.6761 29.0633
585 1 33.5139 8.09742 23.226
586 1 55.3888 -0.0500315 31.1075
587 1 11.0088 1.58443 7.34806
588 1 9.15956 43.9394 46.6591
589 1 34.5212 47.2665 49.633
590 1 -0.150727 7.46884 6.67954
591 1 12.8625 9.23261 30.9189
592 1 52.732 33.14 6.51655
593 1 18.698 24.8837 33.6112
594 1 3.10295 42.3938 41.8359
595 1 34.0214 12.0687 43.8773
596 1 3.47628 4.83598 39.2446
597 1 29.124 51.7231 7.59488
598 1 48.8349 47.5327 25.0606
599 1 5.00651 3.88585 13.4815
600 1 11.6219 32.5257 4.32326
601 1 21.9291 42.1884 54.1814
602 1 2.87694 42.6453 15.7487
603 1 26.6871 35.4312 52.2758
604 1 5.49709 21.6674 30.2224
605 1 28.4623 43.1519 27.5037
606 1 27.6686 46.6441 30.4374
607 1 39.1627 14.0472 33.8629
608 1 36.8857 4.51801 49.7355
609 1 34.2275 30.3692 12.567
610 1 43.3276 5.60113 44.9307
611 1 20.9433 44.7837 30.9962
612 1 17.7592 46.8829 45.4684
613 1 3.28887 51.3369 1.15753
614 1 53.7412 33.2961 10.8103
615 1 6.07174 42.7462 41.5704
616 1 38.174 3.51209 54.9434
617 1 16.36 11.7899 51.8064
618 1 5.62139 55.3502 53.7178
619 1 36.4708 11.6276 27.0755
620 1 28.295 26.9539 25.5702
621 1 53.1553 8.74626 27.1181
622 1 3.82134 29.6486 43.7049
623 1 14.9369 44.3155 11.9424
624 1 27.7287 9.4167 55.0566
625 1 9.90982 14.9844 25.4043
626 1 39.3711 27.4884 22.6718
627 1 33.4322 37.8533 1.57401
628 1 31.6653 10.1955 17.1993
629 1 41.8193 46.6454 10.9078
630 1 39.3513 55.6526 22.1656
631 1 43.4587 28.9237 13.8584
632 1 4.79676 32.2352 26.6743
633 1 15.872 6.37419 49.6281
634 1 47.8879 45.546 17.8019
635 1 29.4793 44.7328 23.2681
636 1 6.12171 6.76041 17.3818
637 1 0.83707 15.0162 39.8771
638 1 32.6435 47.6428 55.4973
639 1 28.5554 5.23257 4.68274
640 1 21.9954 53.7131 6.46146
641 1 55.9618 47.8772 35.6477
642 1 53.782 18.5126 10.1726
643 1 41.3889 27.6699 24.7559
644 1 20.2754 42.6305 46.0083
645 1 0.845466 19.5371 40.8456
646 1 13.1029 31.1043 12.6418
647 1 3.01451 29.5395 8.46083
648 1 19.3046 17.2494 5.39037
649 1 20.9076 20.1198 19.7511
650 1 15.0681 4.04557 3.21692
651 1 30.2007 33.3434 33.1944
652 1 50.6803 13.3255 39.7135
653 1 52.0357 30.6107 51.3693
654 1 29.1962 34.2872 -0.146351
655 1 41.2347 4.72143 30.6027
656 1 36.8128 52.1358 40.0828
657 1 -0.124451 34.5713 20.8693
658 1 24.7542 8.33629 54.702
659 1 38.8228 39.8703 50.0586
660 1 1.56839 43.9399 6.6617
661 1 45.9343 36.6281 12.7375
662 1 15.464 41.4996 44.3151
663 1 19.893 35.9733 37.5743
664 1 53.0227 16.8878 28.1371
665 1 34.2828 42.7882 22.7153
666 1 15.0933 9.38499 26.3272
667 1 35.6477 16.7971 28.2304
668 1 47.7447 12.4321 44.3849
669 1 51.0002 22.8391 15.6864
670 1 47.09 3.14361 11.076
671 1 32.2391 4.30347 25.2293
672 1 1.99921 18.6036 8.94469
673 1 11.4593 4.30474 35.6206
674 1 45.9749 51.3587 7.6542
675 1 23.2773 8.01134 33.0511
676 1 53.7848 16.779 24.1545
677 1 55.9268 36.0843 54.0398
678 1 15.7974 55.3864 17.9163
679 1 52.7508 12.4684 22.285
680 1 28.5899 32.1553 45.9215
681 1 0.449221 26.248 49.1069
682 1 7.13525 3.35417 44.6225
683 1 43.1561 13.029 21.1637
684 1 38.3191 32.5889 36.9343
685 1 22.8379 55.0873 15.0258
686 1 44.7549 14.9789 11.0972
687 1 47.0302 55.1637 28.2712
688 1 20.2301 7.12732 33.3599
689 2 21.7217 49.4152 24.028
690 2 29.923 50.2271 10.0117
691 2 34.4045 26.9381 38.802
692 2 8.3987 42.5642 49.3162
693 2 44.7568 48.2654 22.3256
694 2 3.07896 51.2761 54.4131
695 2 17.6591 15.1625 45.1754
696 2 16.3178 40.9721 8.26415
697 2 1.42275 18.1979 36.1497
698 2 17.0835 18.7865 7.05768
699 2 44.6483 11.4423 40.0051
700 2 38.2094 4.82288 3.7813
701 2 53.5377 27.6875 5.59673
702 2 36.067 28.6627 27.1721
703 2 48.9777 45.6917 44.3131
704 2 54.4308 12.7596 17.5206
705 2 2.58456 36.8339 7.4558
706 2 2.20001 40.538 44.5014
707 2 47.5445 17.2049 18.8785
708 2 43.3955 54.4322 0.773016
709 2 44.264 30.3536 42.3278
710 2 53.136 48.43 30.955
711 1 37.0442 2.1392 46.0409
712 1 17.6318 25.9433 49.2253
713 1 0.935262 49.3156 44.3398
714 1 37.681 30.0781 25.0285
715 1 1.02519 11.0564 44.6861
716 1 3.05068 15.9509 51.1439
717 1 47.3671 0.971167 3.54492
718 1 4.65885 41.9246 55.8959
719 1 41.9729 16.9711 52.5479
720 1 19.2588 16.3488 13.4192
721 1 31.1149 6.72869 5.13082
722 1 31.9196 37.7335 55.387
723 1 19.1932 15.0451 15.9845
724 1 48.539 37.227 53.5795
725 1 12.8765 45.792 34.8571
726 1 29.8761 41.4224 42.1089
727 1 32.643 55.1782 18.871
728 1 28.039 0.704646 55.4239
729 1 40.8214 1.3886 52.1883
730 1 5.1707 7.15725 37.6449
731 1 54.1112 10.9189 20.2753
732 1 12.7453 1.03168 14.8986
733 1 35.9495 52.8419 55.1227
734 1 37.3719 43.7575 18.0032
735 1 39.7354 9.77691 1.64959
736 1 51.6477 19.0233 50.5077
737 1 30.9798 41.7629 27.5019
738 1 0.676101 11.615 6.78126
739 1 21.8591 16.973 3.03686
740 1 40.3365 35.1601 49.3304
741 1 53.9365 9.31968 32.6655
742 1 18.8425 40.5399 6.38902
743 1 44.7303 29.3853 27.0935
744 1 33.5698 55.6345 40.3777
745 1 45.2857 12.6021 12.9017
746 1 20.4078 17.761 21.2554
747 1 0.797113 2.77834 36.2933
748 1 46.1559 54.9876 2.55534
749 1 17.1138 12.9348 42.8365
750 1 23.5298 18.8644 1.89975
751 1 19.0403 32.8339 33.847
752 1 14.9397 48.3268 38.7471
753 1 20.0968 9.83614 43.6731
754 1 36.2599 54.0023 27.2128
755 1 29.1742 17.9739 18.1236
756 1 31.4812 49.371 53.6063
757 1 7.11134 19.2583 29.8106
758 1 54.6119 27.0903 20.5475
759 1 45.0001 7.18198 18.7496
760 1 19.3949 32.5352 54.7069
761 1 48.394 15.2822 46.6358
762 1 30.6278 52.5557 12.0322
763 1 24.5641 17.8957 8.73919
764 1 18.3627 13.1055 21.3424
765 1 42.5262 20.0006 40.038
766 1 19.3738 35.8942 3.02369
767 1 4.57788 51.7034 28.6542
768 1 25.8028 22.1972 35.4457
769 1 18.2682 48.5071 54.8259
770 1 18.825 3.70893 4.87008
771 1 11.7871 38.5575 44.0711
772 1 29.6793 12.951 52.4857
773 1 10.3378 16.3724 45.7369
774 1 33.3575 2.40169 27.2897
775 1 46.6533 41.8527 29.7575
776 1 25.2661 55.9601 22.3693
777 1 46.2571 47.7105 25.448
778 1 21.9819 33.4439 47.8663
779 1 41.0401 26.9467 44.639
780 1 31.0483 47.2317 40.7998
781 1 20.2062 38.0231 25.1942
782 1 4.51019 18.8951 15.806
783 1 50.2343 0.892216 36.7291
784 1 44.304 28.1639 24.3029
785 1 27.5022 26.149 48.4515
786 1 15.1885 7.99037 42.1463
787 1 5.72577 31.1909 53.9851
788 1 2.36964 10.5518 36.9581
789 1 15.5377 46.2353 28.3543
790 1 51.7728 29.5966 43.6636
791 1 36.3731 18.6017 24.4298
792 1 26.2796 55.0763 19.7365
793 1 2.666 50.5196 22.1496
794 1 30.028 25.448 27.7004
795 1 55.6396 21.5715 37.0564
796 1 44.6586 12.0451 3.91076
797 1 18.9506 11.1802 13.8458
798 1 42.696 29.2786 54.2802
799 1 16.3966 35.5326 12.1059
800 1 17.2683 30.661 54.9761
801 1 48.6741 48.1939 11.1557
802 1 20.9338 15.2428 36.8556
803 1 40.2218 45.2077 40.0275
804 1 51.773 36.8436 9.46064
805 1 38.7355 44.7272 32.0079
806 1 13.3082 15.2814 37.3777
807 1 55.513 16.0873 34.7198
808 1 48.9632 8.34215 38.5644
809 1 10.5365 12.3513 1.20091
810 1 7.97239 40.8207 32.0228
811 1 33.5117 22.1231 48.2038
812 1 53.3562 15.9489 44.605
813 1 0.883288 11.3629 2.51046
814 1 45.6704 4.73917 20.2216
815 1 4.76915 8.70941 41.5682
816 1 50.0571 5.25212 35.4443
817 1 44.3682 43.5248 29.0778
818 1 54.6332 48.2667 55.4198
819 1 18.1752 37.1337 43.4153
820 1 53.2145 28.3764 38.4031
821 1 32.1878 29.5416 38.7669
822 1 0.925151 3.77903 28.9549
823 1 54.0291 46.565 37.8245
824 1 54.6262 0.131275 28.3576
825 1 17.2845 54.1554 29.9401
826 1 16.6028 50.624 3.99555
827 1 19.938 33.6432 22.6394
828 1 35.4948 23.4072 26.0732
829 1 49.5027 55.9714 29.7391
830 1 51.2926 43.2905 4.27563
831 2 7.39743 40.2394 39.9641
832 2 23.9266 14.4225 3.28199
833 2 20.1851 43.2037 23.5595
834 2 43.3207 26.8833 46.8508
835 2 25.1257 0.111467 27.8744
836 2 23.7937 14.3454 32.5876
837 2 15.7162 27.0588 17.7513
838 2 23.0965 42.5544 47.5983
839 2 28.4784 35.3246 31.4448
840 2 19.7603 16.2411 53.4568
841 2 16.0776 27.1384 26.5728
842 2 47.1107 9.59726 45.7899
843 2 42.272 1.66231 29.9797
844 2 31.2389 15.4372 18.5916
845 2 8.61731 51.8352 16.0514
846 2 41.5174 41.221 48.5177
847 2 48.4825 54.968 10.3898
848 2 47.8328 44.5624 25.7897
849 2 23.287 17.5233 34.8517
850 2 22.715 32.142 44.3835
851 2 48.0957 -0.0106413 53.8627
852 2 46.3797 38.6698 20.4897
853 1 35.8884 46.2336 9.29707
854 1 30.2552 42.4473 46.7448
855 1 47.5081 26.8315 14.8383
856 1 10.2756 23.4683 34.5954
857 1 55.0048 17.148 40.4481
858 1 14.3318 50.514 48.893
859 1 35.1597 24.7281 41.2386
860 1 9.40228 37.9167 4.22889
861 1 52.1406 36.5644 29.1443
862 1 54.3188 30.812 5.558
863 1 33.2772 11.3294 10.3214
864 1 47.6877 26.2327 49.5332
865 1 14.5015 26.2725 14.6242
866 1 11.7871 34.0529 -0.0431455
867 1 50.4516 21.9565 37.078
868 1 49.3865 1.70976 34.2695
869 1 53.7067 26.7534 52.583
870 1 33.5073 24.516 20.7632
871 1 10.107 27.8608 15.2123
872 1 53.238 37.6932 40.6691
873 1 12.64 39.3002 32.0667
874 1 53.9077 45.9325 1.39569
875 1 41.5519 29.5332 47.9575
876 1 0.0111461 16.8636 31.383
877 1 0.0757095 27.3141 22.4164
878 1 4.56584 35.7847 20.3207
879 1 10.5735 14.1033 31.1047
880 1 51.4555 11.5002 2.00436
881 1 32.1255 13.666 47.7194
882 1 44.6704 22.292 52.5529
883 1 26.4074 13.9412 13.7043
884 1 51.381 54.4698 36.4395
885 1 29.8723 23.1423 1.15669
886 1 39.4263 47.651 2.15493
887 1 7.26361 15.8147 19.8511
888 1 3.00408 29.9154 46.8032
889 1 46.2921 7.84872 33.9571
890 1 54.8282 2.9968 6.19549
891 1 52.8743 20.765 37.8228
892 1 37.5968 54.4458 20.4867
893 1 14.3333 51.5446 33.7374
894 1 8.98626 41.0095 9.86319
895 1 3.6775 49.3607 40.6456
896 1 2.67331 40.9915 17.6901
897 1 28.1679 52.9865 10.3394
898 1 40.9522 35.2603 42.4104
899 1 16.4607 19.1019 32.4772
900 1 9.16743 27.7967 2.2003
901 1 34.1597 37.4122 42.0147
902 1 25.7492 45.7409 26.1098
903 1 3.76382 26.6166 9.10831
904 1 35.732 35.8141 11.4657
905 1 28.3704 30.1562 22.2835
906 1 17.3992 36.0513 7.49449
907 1 34.8287 50.8145 13.9358
908 1 1.49214 6.23979 34.7613
909 1 40.3427 3.01232 42.6657
910 1 52.4111 38.2268 7.32623
911 1 12.7977 8.61776 25.1075
912 1 16.8147 18.4874 36.8877
913 1 3.8499 45.2997 6.25018
914 1 53.1845 51.8323 31.1049
915 1 18.5016 20.9673 39.3366
916 1 28.2789 26.6675 40.2429
917 1 34.9616 56.0393 4.14099
918 1 50.4005 34.8993 14.4756
919 1 48.4748 40.8391 38.6846
920 1 11.7696 38.4819 38.618
921 1 31.7597 54.9846 11.2778
922 1 17.6117 41.9627 31.9113
923 1 49.926 5.76775 38.5973
924 1 0.889892 11.5484 16.3003
925 1 45.0848 55.8379 4.75517
926 1 27.7864 49.7456 51.52
927 1 52.8788 49.3013 43.4934
928 1 42.5463 12.3413 12.5055
929 1 49.8971 33.0885 7.30818
930 1 38.536 0.568971 19.6089
931 1 16.8339 25.2721 31.6312
932 1 12.5526 48.2958 52.4813
933 1 30.7178 7.40015 43.9691
934 1 24.8367 51.2718 54.7852
935 1 5.47479 39.15 54.7741
936 1 7.15775 32.8815 11.9314
937 1 34.0731 0.506654 42.9237
938 1 36.3919 5.90991 40.3982
939 1 5.43907 29.4789 15.9105
940 1 7.58019 39.2364 52.9967
941 1 36.5776 6.22957 35.461
942 1 15.0024 46.6527 45.3616
943 1 33.5163 36.6838 34.2947
944 1 9.13937 41.4638 16.0276
945 1 44.839 20.7985 44.3474
946 1 9.66239 42.5475 44.3241
947 1 41.3351 31.0517 40.5575
948 1 15.7877 55.7077 43.8454
949 1 49.6719 49.9594 15.5316
950 1 39.4618 27.437 50.6502
951 1 15.0362 43.1401 53.8517
952 1 44.0178 0.912332 48.5238
953 1 25.8705 22.4944 51.0011
954 1 11.1949 45.6927 40.68
955 1 13.16 21.8448 15.2665
956 1 11.9417 20.304 8.56184
957 1 47.2838 43.9248 51.0372
958 1 8.43252 25.3564 36.1977
959 1 31.4575 49.9929 35.648
960 1 53.7931 14.1706 12.3238
961 1 37.062 41.4678 42.4723
962 1 55.064 6.73497 18.779
963 1 7.80116 30.3541 47.2056
964 1 25.351 14.5505 44.3174
965 1 15.2429 30.5259 35.7226
966 1 24.8111 42.642 31.6048
967 1 10.7979 9.62238 11.3675
968 1 42.411 9.6659 53.9125
969 1 31.9068 37.5829 50.3258
970 1 31.376 17.1271 15.8039
971 1 44.9231 5.88033 42.4419
972 1 52.4162 8.56392 51.5963
973 2 45.3029 4.17604 25.6054
974 2 46.095 39.3953 35.004
975 2 53.4906 39.1062 27.8728
976 2 17.4295 30.4537 49.6331
977 2 52.7615 36.3034 16.0661
978 2 52.3952 36.2062 19.7785
979 2 32.805 42.3851 40.6937
980 2 55.0374 6.16806 44.7277
981 2 36.4139 11.7936 9.86386
982 2 54.5266 29.5617 49.0576
983 2 12.3764 31.2419 1.30805
984 2 46.207 22.6289 34.2114
985 2 51.9143 2.30577 13.0982
986 2 7.28777 18.527 37.8407
987 2 20.2215 6.66194 5.14598
988 2 2.77596 26.7052 51.792
989 2 39.8927 27.868 32.3367
990 2 54.3585 10.0413 14.9224
991 2 22.8724 21.2085 17.5871
992 2 16.0146 15.7388 54.7598
993 2 1.60056 15.5019 56.0221
994 2 53.2817 23.1498 35.3732
995 1 54.3674 3.37328 43.7988
996 1 51.367 25.4106 47.021
997 1 24.6459 2.25496 48.0097
998 1 3.43667 49.5821 27.0808
999 1 25.3045 51.0765 52.1961
1000 1 19.4851 8.78711 47.9047
1001 1 30.7549 30.618 36.4908
1002 1 52.5602 26.4381 8.39534
1003 1 13.8819 28.9461 30.5326
1004 1 6.17623 40.0583 6.73235