ITEM: TIMESTEP
0
ITEM: NUMBER OF ATOMS
9088
ITEM: BOX BOUNDS pp pp pp
-5.6189874562537190e-01 5.6446391371631123e+01
-5.6189874562537190e-01 5.6446391371631123e+01
-5.6189874562537190e-01 5.6446391371631123e+01
ITEM: ATOMS id type x y z
1 1 50.3307 25.7344 6.01098
2 1 47.6994 44.7734 29.7235
3 1 27.1389 23.428 51.7342
4 1 4.00685 20.9717 42.5634
5 1 52.0887 34.1514 0.923019
6 1 40.4919 -0.0586526 38.1322
7 1 33.1876 18.3082 33.0788
8 1 12.4626 48.7578 27.7593
9 1 0.694478 40.0449 41.3228
10 1 44.6548 40.7606 29.3554
11 1 24.891 43.2654 6.78696
12 1 0.00811535 25.9935 47.5893
13 1 28.9669 35.4165 42.9859
14 1 13.897 52.3971 17.3937
15 1 12.3574 43.4808 29.1737
16 1 31.599 44.6778 46.3802
17 1 29.103 48.1303 49.1463
18 1 4.79824 4.76831 12.6769
19 1 40.5324 10.9734 3.81306
20 1 43.3495 28.175 49.1071
21 1 55.531 24.3207 35.0157
22 1 22.4371 44.9097 37.1262
23 1 21.5659 24.2942 37.9001
24 1 23.3647 9.03593 41.629
25 1 15.558 21.5249 -0.272648
26 1 24.5126 7.12183 34.1222
27 1 51.1696 24.3193 53.2827
28 1 30.7882 46.9549 25.7013
29 1 5.7674 28.24 9.14246
30 1 47.529 52.6155 37.1297
31 1 19.2181 42.1048 47.4757
32 1 47.6939 21.101 0.224685
33 1 22.7491 14.4839 30.9232
34 1 20.0892 30.3438 38.6828
35 1 41.0834 23.9364 40.4391
36 1 2.5632 0.918251 50.2238
37 1 16.0488 16.3794 46.647
38 1 36.4018 39.7926 23.167
39 1 19.6378 10.8611 53.3075
40 1 7.90035 53.9988 7.8997
41 1 25.46 52.2745 25.0893
42 1 5.60329 33.8032 43.1022
43 1 12.5213 11.6601 15.9497
44 1 1.57898 22.5922 26.5521
45 1 54.9946 50.8888 21.2888
46 1 9.09803 36.992 39.2062
47 1 44.1661 54.0375 9.13027
48 1 32.8592 46.4254 4.81644
49 1 32.1584 34.5728 24.6837
50 1 20.2264 47.3641 36.9897
51 1 38.8806 3.2878 28.7179
52 1 50.8891 15.4148 22.3409
53 1 30.9821 1.5446 2.43707
54 1 53.8517 41.6284 34.2977
55 1 5.60159 14.0537 13.3003
56 1 34.9626 2.51087 8.14168
57 1 -0.367029 34.5165 54.5904
58 1 44.851 52.2895 41.8337
59 1 12.9051 37.5035 3.84583
60 1 8.06415 30.904 36.6165
61 1 3.74513 20.2927 15.4439
62 1 5.56488 14.8289 33.3621
63 1 37.5453 10.2155 54.2944
64 1 20.9791 -0.201024 41.4352
65 1 52.1544 16.2597 55.7704
66 1 18.5042 29.7356 51.721
67 1 14.6981 40.6242 26.0063
68 1 23.3341 32.6651 0.978427
69 1 51.025 12.5808 53.9043
70 1 38.8835 39.924 45.0273
71 1 3.9258 50.4223 1.6544
72 1 34.6001 14.5253 9.75514
73 1 1.56666 4.34595 20.8121
74 1 22.9793 34.8796 45.5248
75 1 33.3757 33.196 7.26736
76 1 21.6181 29.9471 15.3905
77 1 10.0687 55.2265 25.6789
78 1 3.99236 18.4724 13.4886
79 1 48.6172 52.8401 48.4253
80 1 20.4319 50.7928 18.2381
81 1 54.9527 30.3988 38.664
82 1 45.1821 30.7667 40.3903
83 1 11.9247 13.4111 42.6056
84 1 1.74025 39.5012 37.9319
85 1 31.4855 4.85941 14.6593
86 1 21.0609 32.4571 13.5792
87 1 19.8015 13.28 46.6798
88 1 30.389 50.9601 15.2182
89 1 33.6463 35.3998 44.0592
90 1 47.4562 53.7733 24.3883
91 1 32.3223 30.8511 31.7756
92 1 34.5794 31.8521 55.0686
93 1 4.63554 26.9025 18.0223
94 1 11.1619 18.1242 52.5295
95 1 52.1452 7.22416 40.1646
96 1 22.17 23.4288 54.3974
97 1 8.83253 35.942 45.2893
98 1 13.9215 51.4399 14.8495
99 1 43.6901 14.8274 29.2529
100 1 29.587 11.4962 32.1774
101 1 47.9244 5.80776 18.1119
102 1 20.0157 16.4424 21.2309
103 1 37.4227 26.2778 25.2011
104 1 53.5734 1.03035 24.4375
105 1 30.2909 29.4025 38.5861
106 1 32.6913 53.033 6.65542
107 1 19.4793 53.6608 6.12826
108 1 25.3368 40.6676 27.5224
109 1 26.3925 45.8076 23.6613
110 1 15.6071 51.6546 45.8881
111 1 10.3365 10.5204 52.4888
112 1 37.6639 29.0133 34.8866
113 1 9.97153 44.3409 42.17
114 1 23.0447 49.4228 10.7598
115 1 14.3122 42.8787 6.12192
116 1 29.5018 29.1355 15.5762
117 1 9.48843 42.9266 51.3855
118 1 40.0963 22.0899 4.40241
119 1 22.3037 28.0799 28.8112
120 1 39.3697 4.16087 14.2509
121 2 15.8825 28.8089 33.014
122 2 38.0823 37.0735 18.5662
123 2 2.96972 15.1701 37.9632
124 2 52.2558 10.2464 44.9963
125 2 16.052 28.9896 18.4208
126 2 6.47046 33.5859 9.87311
127 2 -0.315681 45.5987 29.0634
128 2 3.95105 31.763 12.1429
129 2 26.1123 11.0368 20.6452
130 2 28.197 26.784 5.39739
131 2 51.8231 20.2501 45.4841
132 2 20.6043 9.6894 22.5452
133 2 0.159157 22.5612 11.985
134 2 54.4016 36.2146 43.0309
135 2 45.5564 38.4237 48.8781
136 2 28.6455 8.49527 9.19307
137 2 38.202 31.4423 36.6641
138 2 42.4414 11.3976 48.3898
139 2 3.82868 17.9206 27.588
140 2 54.4026 17.8099 36.5924
141 2 26.6745 4.29055 13.5462
142 2 35.7561 31.51 19.4056
143 1 15.4955 48.5254 7.48551
144 1 55.6511 14.5269 17.6866
145 1 1.88352 55.6213 36.103
146 1 54.062 37.4733 13.8542
147 1 0.351842 29.8103 15.7966
148 1 25.4211 5.1962 30.1597
149 1 15.9646 20.1553 30.857
150 1 6.07229 8.39666 28.4299
151 1 4.67368 52.8604 17.1089
152 1 27.4493 43.0148 51.954
153 1 29.5205 32.1055 30.512
154 1 33.2251 18.9006 40.2665
155 1 7.44444 37.8891 31.9509
156 1 38.4738 24.3974 36.4001
157 1 34.0541 5.82148 13.9912
158 1 46.7819 21.8953 40.6818
159 1 56.1009 40.971 38.8962
160 1 30.6669 35.2804 53.955
161 1 22.9029 30.617 33.0019
162 1 32.3485 14.9516 -0.0401124
163 1 0.573512 50.6688 15.1273
164 1 24.6495 48.8274 40.1153
165 1 28.544 20.7179 50.694
166 1 17.4351 29.6425 24.2779
167 1 25.1195 6.25925 24.6151
168 1 25.2544 17.375 2.7208
169 1 32.4156 1.09511 11.3529
170 1 7.9031 21.0052 16.5459
171 1 25.9385 48.7192 12.7137
172 1 6.93969 48.3122 25.2606
173 1 36.2812 54.0256 36.2443
174 1 51.9567 13.4728 -0.50282
175 1 49.4 53.677 1.56667
176 1 48.476 10.4741 55.3225
177 1 1.02822 17.7466 26.8537
178 1 41.6716 5.69981 5.33367
179 1 35.8744 36.1038 26.5385
180 1 17.2385 10.8206 43.5997
181 1 17.558 43.1166 -0.126362
182 1 19.7791 20.0778 12.0801
183 1 0.724138 30.1683 25.6274
184 1 35.4312 4.23861 3.00543
185 1 49.1113 47.4426 17.2406
186 1 0.544703 16.5561 54.916
187 1 25.7671 24.0959 34.6564
188 1 23.7891 34.8518 2.0397
189 1 8.9289 31.6564 26.091
190 1 29.64 31.4016 27.1586
191 1 44.0981 18.2118 54.3537
192 1 25.871 9.742 4.879
193 1 54.6842 22.258 33.3294
194 1 0.801774 34.5888 10.5672
195 1 6.77576 19.6691 23.7072
196 1 43.8743 21.3797 27.8391
197 1 52.6804 33.0468 3.88203
198 1 11.0281 15.2563 40.1338
199 1 1.87166 4.32227 56.2532
200 1 34.6924 31.9451 28.3409
201 1 26.5538 9.23642 49.3801
202 1 47.7194 41.8286 10.0798
203 1 34.6358 29.7203 26.7404
204 1 32.3038 54.386 4.01722
205 1 20.3055 55.187 46.8675
206 1 45.8347 3.17079 5.60046
207 1 7.63237 38.3017 44.5815
208 1 56.3843 45.6863 54.8753
209 1 29.6577 15.2671 1.01508
210 1 18.8695 16.2087 18.289
211 1 25.32 40.9562 24.4787
212 1 6.43552 19.4707 29.2657
213 1 42.9603 38.5852 39.5152
214 1 33.2212 43.0151 16.4933
215 1 0.426439 40.4036 26.2773
216 1 41.1374 1.39848 44.7268
217 1 32.5383 45.5243 39.0049
218 1 8.12986 45.1432 27.2721
219 1 35.96 42.2023 49.6303
220 1 12.386 22.061 37.3491
221 1 35.574 40.2118 12.7669
222 1 9.74298 38.367 29.8557
223 1 10.1667 18.1765 7.39492
224 1 18.5023 2.79897 33.4696
225 1 2.73949 41.5386 39.6032
226 1 30.7137 43.4189 43.7707
227 1 6.91784 7.14053 5.34061
228 1 19.0093 49.1834 47.4266
229 1 42.3546 21.228 4.61595
230 1 20.205 12.9986 54.6796
231 1 38.7218 48.2006 28.1786
232 1 7.37985 5.23162 38.6549
233 1 20.5074 24.158 24.3109
234 1 27.6005 1.37666 37.9004
235 1 48.9285 48.6756 38.9465
236 1 54.8951 10.3511 36.6506
237 1 -0.512605 54.4728 40.9969
238 1 12.9484 10.3146 9.81865
239 1 28.3131 10.0825 40.0773
240 1 5.38822 26.0179 31.6125
241 1 24.1981 51.2427 41.9388
242 1 14.6047 10.2748 55.4635
243 1 20.0103 21.4368 50.6335
244 1 49.0754 21.9508 31.6343
245 1 29.9304 44.8919 39.1555
246 1 50.5785 10.9026 20.6366
247 1 44.8295 10.4254 19.777
248 1 20.9351 22.4487 12.9289
249 1 33.0101 11.077 22.6656
250 1 41.3753 27.2472 15.0415
251 1 49.4218 42 5.46539
252 1 44.4468 47.5946 50.0966
253 1 -0.34002 2.98918 31.3882
254 1 53.2786 53.2244 11.338
255 1 42.9008 55.0784 33.871
256 1 13.2233 0.877142 49.7298
257 1 44.8215 0.811592 11.3544
258 1 51.5524 19.0676 29.2044
259 1 8.42659 17.9677 44.3162
260 1 20.4935 16.1502 45.6876
261 1 19.3455 41.1117 56.171
262 1 50.8166 3.56084 18.124
263 2 25.9772 37.8674 24.5267
264 2 14.7118 23.6527 48.6951
265 2 39.4922 43.0742 46.3239
266 2 51.2583 20.309 23.903
267 2 37.1933 40.5967 6.91594
268 2 34.8056 27.5013 53.1243
269 2 37.8057 44.3564 9.86827
270 2 34.4588 1.02288 33.1966
271 2 35.112 15.8789 23.675
272 2 25.0029 41.5183 46.7368
273 2 50.4208 45.7836 37.9543
274 2 20.1899 44.1745 49.4447
275 2 13.0709 43.9644 19.3188
276 2 4.76949 4.74289 31.6631
277 2 24.0006 48.8671 21.3886
278 2 47.0086 27.0138 2.16642
279 2 31.1797 1.87615 31.3152
280 2 36.7582 24.6545 27.9184
281 2 1.8814 35.5796 32.6293
282 2 39.6804 49.141 7.13886
283 2 47.044 21.9472 28.7035
284 2 7.98803 40.3935 38.7981
285 1 53.3566 55.2399 19.9052
286 1 39.9411 30.4864 9.36833
287 1 27.1142 12.4875 40.1366
288 1 13.8589 11.2546 38.326
289 1 47.4408 7.08263 38.6482
290 1 1.38227 41.0565 32.6954
291 1 27.4284 34.48 11.4952
292 1 37.0551 11.4401 43.9814
293 1 54.03 34.2019 40.8043
294 1 37.6634 20.9268 11.0814
295 1 23.9837 12.8478 44.3497
296 1 55.2878 33.1171 6.66342
297 1 48.3119 46.7069 14.5841
298 1 40.0283 26.367 41.6446
299 1 8.9777 13.1542 51.6355
300 1 2.93208 12.3045 55.1589
301 1 43.193 23.2504 36.8873
302 1 33.8724 21.237 41.5893
303 1 21.6436 33.6218 17.8516
304 1 46.904 13.7157 1.6799
305 1 42.5382 18.4091 18.6069
306 1 7.71929 9.12183 34.5359
307 1 25.0576 2.7474 34.0678
308 1 34.8327 48.2153 0.449917
309 1 33.8763 44.3821 1.16289
310 1 46.2326 43.7108 11.9648
311 1 15.2709 28.1778 25.2265
312 1 37.2435 1.35525 8.72118
313 1 33.0792 48.6138 41.1194
314 1 13.177 33.4035 0.376076
315 1 43.6754 31.3355 21.9093
316 1 7.35405 5.19031 7.55855
317 1 35.6707 0.32441 46.1877
318 1 27.5445 54.4502 17.9455
319 1 46.9906 26.6074 48.4874
320 1 -0.341292 18.6919 19.1136
321 1 45.6178 46.7954 21.2281
322 1 0.0428815 53.0392 43.1265
323 1 21.2294 3.82834 40.8239
324 1 6.31408 0.198021 19.1722
325 1 23.16 41.5485 15.8572
326 1 28.1897 10.7417 42.9034
327 1 32.2807 35.4121 46.4151
328 1 27.3168 7.92241 34.4642
329 1 41.3043 3.9711 51.1768
330 1 14.739 40.5081 23.035
331 1 20.0311 37.1287 52.7037
332 1 37.681 47.7061 9.47475
333 1 18.9806 24.2655 21.7633
334 1 25.1099 32.6481 24.3637
335 1 8.05418 15.0964 45.5054
336 1 15.968 38.4314 37.2905
337 1 16.4911 30.2044 29.2826
338 1 27.3739 1.0325 26.5328
339 1 5.42612 6.82633 40.5893
340 1 48.9626 27.7397 5.01042
341 1 12.5415 8.83648 3.24588
342 1 14.9197 55.3598 49.4377
343 1 52.4643 54.1173 3.4956
344 1 55.5857 4.6042 52.2247
345 1 18.4395 15.3803 11.1954
346 1 7.41607 30.2873 16.0498
347 1 12.6523 26.1582 43.4861
348 1 12.5935 10.9642 21.3719
349 1 51.3702 46.2469 55.4727
350 1 6.27444 2.23875 31.0477
351 1 0.216262 15.2867 35.8312
352 1 11.6416 22.1386 4.30534
353 1 29.3977 37.6386 8.64121
354 1 26.2582 4.91098 40.8292
355 1 21.2927 51.7614 15.07
356 1 13.7142 1.28878 45.4996
357 1 47.4318 5.8687 15.4106
358 1 29.9966 18.9233 3.94297
359 1 25.9896 16.7666 11.4068
360 1 49.2657 11.4902 8.07988
361 1 0.718558 9.20156 24.1177
362 1 3.82155 10.9456 43.9172
363 1 39.1479 15.2537 43.1445
364 1 11.6209 49.2396 55.6448
365 1 9.16354 19.6487 11.3573
366 1 42.6279 7.54315 12.255
367 1 42.8781 16.4513 46.3568
368 1 36.8471 7.85412 21.7509
369 1 50.3131 26.3663 55.3921
370 1 11.5427 41.4484 26.8239
371 1 8.81033 0.420672 24.9721
372 1 6.06163 38.7115 47.229
373 1 45.2899 50.1935 2.6724
374 1 1.62192 4.9309 35.939
375 1 5.82375 16.8117 45.78
376 1 32.8676 33.9164 38.4031
377 1 8.05807 15.4709 32.5393
378 1 0.878971 10.2751 39.6814
379 1 46.9314 27.4065 23.6259
380 1 12.6984 11.2482 44.2221
381 1 19.2413 16.2557 50.5016
382 1 56.1546 5.1086 7.49758
383 1 9.08412 44.5522 35.8913
384 1 39.1227 25.7237 23.3048
385 1 54.2315 40.9957 54.5975
386 1 16.1118 46.0786 15.2389
387 1 3.1547 23.8242 11.1737
388 1 5.04156 25.0421 6.76471
389 1 32.4416 52.3795 53.4212
390 1 27.966 4.4275 3.9377
391 1 37.5333 14.4891 10.7741
392 1 12.7392 17.2819 14.9655
393 1 0.823464 16.106 7.4066
394 1 32.1286 13.4757 45.6281
395 1 28.4036 50.3688 11.5937
396 1 7.11967 33.4833 18.9655
397 1 23.2989 15.1953 34.5336
398 1 23.7398 51.8363 14.9639
399 1 54.0869 3.17489 19.7153
400 1 29.7143 24.169 29.7886
401 1 43.6613 9.03068 44.3785
402 1 44.6217 -0.178576 34.0649
403 1 53.0496 54.8109 29.3444
404 1 11.4362 45.4826 34.3726
405 2 5.35778 30.3794 38.1873
406 2 14.7785 13.3524 17.2234
407 2 50.5331 32.5695 15.2859
408 2 54.9466 40.7279 0.669041
409 2 44.64 3.84372 0.52011
410 2 49.504 18.7758 27.0079
411 2 53.9693 1.59794 50.4877
412 2 29.4132 42.3032 21.086
413 2 50.8642 13.9991 17.0181
414 2 3.95478 54.2397 11.8121
415 2 32.6151 26.7001 1.77389
416 2 52.2798 7.5239 1.80867
417 2 3.3086 12.8126 20.3637
418 2 43.2034 11.0677 56.3724
419 2 29.0092 9.69009 51.6753
420 2 21.9486 1.93145 43.4692
421 2 1.64244 36.6001 38.133
422 2 20.8957 32.5545 31.6805
423 2 32.2265 45.6432 23.0435
424 2 28.4116 5.61804 6.79422
425 2 38.48 52.6216 11.7004
426 2 6.33732 45.2251 14.3136
427 1 11.9372 22.3221 47.5429
428 1 54.7754 52.2121 48.1142
429 1 46.9838 32.9253 36.5823
430 1 11.5296 29.2585 4.59156
431 1 1.00041 10.133 30.6443
432 1 30.7197 22.1881 14.2368
433 1 37.3921 37.1601 40.0508
434 1 38.7724 31.1337 53.6963
435 1 31.7422 3.94972 26.6942
436 1 50.2821 50.2613 16.2072
437 1 51.8896 0.795315 0.483753
438 1 36.0087 23.4738 37.9898
439 1 44.0524 39.5802 25.0997
440 1 32.1773 39.1923 49.1549
441 1 55.2604 41.5923 41.9019
442 1 6.81584 31.5217 13.5997
443 1 -0.174762 37.6315 8.13205
444 1 53.574 8.06467 51.8165
445 1 20.2157 50.6313 10.5501
446 1 10.2848 46.6689 56.1552
447 1 31.9989 32.6616 40.7781
448 1 26.9544 25.0922 53.952
449 1 33.6632 25.2638 27.0014
450 1 35.2919 15.5091 4.90889
451 1 36.1515 51.5973 50.9314
452 1 12.8551 26.51 25.7864
453 1 27.5912 40.6245 25.7373
454 1 55.7141 48.3878 54.3787
455 1 16.1969 51.2315 33.738
456 1 29.3049 19.5589 43.6138
457 1 47.8888 32.6613 50.1336
458 1 19.1843 38.7443 3.11666
459 1 9.23374 8.17952 48.5729
460 1 25.7256 0.416356 13.0572
461 1 9.64616 15.1078 9.36228
462 1 29.6582 8.47124 36.2834
463 1 45.7959 48.5293 39.4768
464 1 5.87194 2.9994 14.866
465 1 51.5018 8.15407 5.03755
466 1 21.912 7.12573 23.6383
467 1 18.8182 35.1023 19.7145
468 1 46.4138 14.1154 42.6546
469 1 31.3375 22.609 53.659
470 1 2.08432 17.5679 48.684
471 1 9.63624 55.5783 52.7528
472 1 9.24496 50.4975 51.982
473 1 38.6692 52.6447 16.8292
474 1 56.2961 20.1021 4.86357
475 1 19.665 25.986 37.4767
476 1 31.3343 33.8386 5.19116
477 1 41.9056 27.6424 2.94397
478 1 22.2535 49.9191 29.0536
479 1 41.7089 43.3226 43.3506
480 1 34.365 22.8606 23.1175
481 1 9.66837 -0.451865 47.4582
482 1 42.0137 14.4602 27.288
483 1 17.0932 21.2219 38.153
484 1 50.5266 33.4693 54.9648
485 1 48.2338 32.4258 23.6761
486 1 41.2719 28.6252 30.6248
487 1 1.24878 14.0927 48.3881
488 1 17.2363 8.36296 36.9318
489 1 39.1347 1.96266 43.004
490 1 44.7019 53.5743 25.131
491 1 38.6637 43.6333 31.8932
492 1 38.3866 44.5884 0.49519
493 1 48.364 33.0931 31.5005
494 1 40.0982 52.3503 43.632
495 1 36.537 42.2567 33.0384
496 1 31.0274 27.9837 17.3778
497 1 13.1971 15.8904 26.2879
498 1 37.6702 27.8033 27.1025
499 1 55.3349 0.144584 40.3962
500 1 56.3682 14.1855 24.3058
501 1 2.28361 46.9839 39.0331
502 1 0.316962 45.7764 13.2674
503 1 24.9729 5.66321 4.25277
504 1 19.6537 37.5591 45.6801
505 1 36.0968 23.6992 33.6063
506 1 51.8868 38.2167 29.6108
507 1 14.1767 31.2214 53.2479
508 1 0.987583 27.6802 31.2582
509 1 47.1067 43.098 50.285
510 1 16.2522 16.418 54.7046
511 1 11.3367 29.772 25.9116
512 1 33.3998 1.34116 25.6059
513 1 13.6132 28.7706 27.4019
514 1 48.7719 40.5432 35.7258
515 1 55.8847 53.5584 45.897
516 1 20.3008 19.6431 24.903
517 1 29.0622 30.143 13.222
518 1 43.1039 17.7956 39.5297
519 1 8.9474 28.7342 48.1412
520 1 17.7937 0.685305 53.5546
521 1 24.9816 24.8812 32.3301
522 1 28.7568 25.3969 49.6728
523 1 1.30731 22.6518 51.2218
524 1 15.0445 15.2815 20.0102
525 1 14.9366 46.2462 19.2332
526 1 14.224 44.3475 16.6014
527 1 40.1351 20.158 10.0376
528 1 25.9154 16.335 41.5498
529 1 27.3524 22.1849 21.8252
530 1 31.3395 7.39103 19.58
531 1 23.5861 50.1511 31.7919
532 1 17.4341 49.6057 11.8032
533 1 6.34913 19.7066 26.6786
534 1 4.61022 29.4644 35.3332
535 1 47.5516 35.6254 40.4143
536 1 46.2353 24.3369 3.78483
537 1 21.9235 17.9563 54.1573
538 1 41.5942 14.8771 48.7384
539 1 52.104 44.048 52.4841
540 1 40.2296 37.3593 0.707544
541 1 21.6108 22.553 46.8168
542 1 1.66429 25.2433 2.59707
543 1 35.3669 30.8795 15.6465
544 1 54.1138 22.8035 9.16523
545 1 48.5905 13.3506 39.772
546 1 52.0461 51.6342 39.3673
547 2 15.5398 13.0357 27.7538
548 2 55.0631 34.8407 35.2001
549 2 12.2464 50.4308 25.2245
550 2 32.7525 40.9746 13.5998
551 2 51.4635 37.6993 24.5211
552 2 12.3691 27.4556 12.0425
553 2 33.0031 32.1194 22.539
554 2 26.5418 31.7412 1.43048
555 2 14.0932 45.4168 49.2247
556 2 55.1818 16.6366 25.6932
557 2 9.79196 12.517 45.4005
558 2 3.23044 52.6593 7.06062
559 2 27.0365 16.2003 8.23532
560 2 15.4991 31.2149 38.9512
561 2 1.52398 49.6534 3.54946
562 2 -0.470059 41.0357 35.5991
563 2 22.3759 6.98378 17.8166
564 2 31.9475 36.0484 7.08507
565 2 54.7243 51.6877 41.6937
566 2 47.5531 3.94815 37.9934
567 2 16.9822 7.36486 8.67202
568 2 56.1304 13.535 46.1134
569 1 3.05583 45.6587 14.0237
570 1 42.9264 18.6025 31.4199
571 1 41.0631 3.19974 41.8592
572 1 13.1828 18.7397 38.4666
573 1 0.518318 10.1935 11.3915
574 1 27.7655 28.8798 0.61572
575 1 24.8337 47.804 43.1944
576 1 44.8581 4.13649 36.1489
577 1 6.21495 30.7277 41.5696
578 1 55.0322 40.1535 48.2231
579 1 35.3388 20.8726 22.0099
580 1 49.3543 52.8788 14.8862
581 1 44.2042 39.3277 13.7601
582 1 25.8818 52.3024 0.879206
583 1 44.9841 7.03718 0.852264
584 1 37.6136 7.91771 42.1304
585 1 32.7549 48.401 24.0531
586 1 5.52519 41.8658 23.734
587 1 29.0788 53.2423 16.0848
588 1 53.9559 51.1897 32.2687
589 1 38.252 27.8842 43.5423
590 1 5.40676 13.6492 36.0039
591 1 3.51046 56.0285 8.18277
592 1 39.0766 39.4614 26.8745
593 1 -0.267397 32.255 35.1373
594 1 28.3184 1.53958 23.9831
595 1 3.42008 4.04294 9.97236
596 1 29.8692 26.1924 38.7077
597 1 14.739 43.4667 37.4529
598 1 6.41068 32.2753 50.1157
599 1 10.6951 15.3109 51.6826
600 1 0.965482 50.358 6.79452
601 1 22.6896 41.9346 37.1889
602 1 0.382896 46.3789 18.1914
603 1 15.076 17.6071 31.0819
604 1 37.3009 10.2905 10.8829
605 1 56.2146 20.6773 31.5851
606 1 21.5501 46.8824 0.347472
607 1 21.9895 43.5977 24.3706
608 1 24.1506 39.684 49.2475
609 1 48.5456 36.7898 54.8724
610 1 24.9314 53.8451 9.31216
611 1 33.0407 51.0781 31.9218
612 1 14.3711 45.486 2.92132
613 1 40.0932 25.9786 7.38706
614 1 34.6755 12.9907 46.9741
615 1 31.5094 2.98311 9.46483
616 1 1.10553 52.7255 4.48346
617 1 49.202 43.7692 7.8812
618 1 18.5569 30.3829 26.9225
619 1 26.6421 19.9151 48.8393
620 1 47.0126 4.2236 13.0921
621 1 11.9776 35.2586 32.4406
622 1 45.9299 33.9404 4.11219
623 1 45.822 52.7128 44.6949
624 1 55.5879 37.3589 4.62946
625 1 9.19938 21.2343 32.796
626 1 1.97529 20.8428 19.9447
627 1 24.4876 48.3104 27.8158
628 1 20.3788 5.32186 29.7532
629 1 42.4523 41.9956 47.2137
630 1 49.7595 4.82169 6.99053
631 1 12.9583 2.20792 55.2845
632 1 31.1187 4.50085 2.26062
633 1 52.3611 35.7713 45.8898
634 1 11.7544 16.4437 12.438
635 1 54.2138 25.3104 48.1953
636 1 42.4046 34.6603 7.33827
637 1 2.50777 26.2291 33.3496
638 1 18.9257 20.1875 30.4863
639 1 13.474 51.0133 22.1105
640 1 39.1646 48.0718 48.2939
641 1 18.2791 3.84244 22.7447
642 1 51.1119 46.3255 34.9559
643 1 3.84069 3.12212 47.1382
644 1 2.52859 9.82961 15.7514
645 1 54.4862 48.5963 28.5308
646 1 29.8166 11.4287 15.3023
647 1 53.4058 34.3981 25.0881
648 1 31.8562 37.3341 0.498932
649 1 20.4554 -0.0199585 31.0477
650 1 45.1938 10.007 8.35234
651 1 20.1867 32.2625 0.100037
652 1 3.13831 54.0831 24.4839
653 1 13.4848 24.4552 31.3346
654 1 42.5822 46.4544 15.545
655 1 18.4488 16.6971 8.51545
656 1 53.7658 25.3745 12.2895
657 1 9.08564 23.4301 43.2843
658 1 39.2299 22.7877 27.5358
659 1 44.7508 32.6333 34.3785
660 1 53.662 13.7751 53.4964
661 1 25.0045 22.8968 15.9565
662 1 52.9787 16.9279 1.25786
663 1 56.3785 20.7892 20.7607
664 1 22.7046 47.5445 35.4156
665 1 49.5674 16.8584 33.118
666 1 26.0653 55.6461 0.406685
667 1 31.2426 40.1033 0.240829
668 1 49.1089 40.9222 -0.292726
669 1 33.4183 45.1619 36.283
670 1 4.88707 37.5706 16.8604
671 1 24.9014 50.3922 2.69089
672 1 12.5949 35.349 20.9076
673 1 46.5006 40.5701 27.6303
674 1 28.2747 51.395 40.9349
675 1 7.40742 48.21 18.9653
676 1 40.1592 46.7601 9.68392
677 1 18.3496 21.3397 14.2252
678 1 25.9388 15.8694 27.5032
679 1 50.2851 7.77062 35.0643
680 1 45.5806 53.0098 6.52173
681 1 16.8492 55.0243 28.0298
682 1 18.2842 29.8196 48.9445
683 1 48.7903 7.67137 3.54535
684 1 3.59292 45.777 21.188
685 1 53.0243 7.12137 34.1485
686 1 11.9985 26.7728 40.8406
687 1 30.5071 47.949 11.8512
688 1 11.1436 55.1864 3.31986
689 2 44.7981 9.98161 16.487
690 2 19.1777 13.2762 9.21023
691 2 34.6953 37.8003 50.6053
692 2 44.0181 29.9335 32.1865
693 2 56.1017 18.9179 49.4113
694 2 41.3791 41.2912 25.7355
695 2 30.4309 12.7515 29.1361
696 2 30.0788 19.3138 13.5026
697 2 52.7063 17.235 6.31191
698 2 9.57585 33.4494 21.2502
699 2 11.9479 40.009 43.467
700 2 21.3256 25.8411 8.67217
701 2 21.8116 19.5693 21.7116
702 2 4.25517 23.2324 31.9164
703 2 38.2153 52.9881 48.7235
704 2 34.2384 5.62728 54.8253
705 2 44.605 0.439842 24.8142
706 2 15.9492 1.41236 51.1272
707 2 49.4046 0.571994 39.0176
708 2 0.65991 21.9578 33.8498
709 2 28.0858 33.7246 36.1057
710 2 54.1001 51.5122 8.61556
711 1 33.0546 23.5163 37.8299
712 1 19.9761 25.4298 11.5246
713 1 6.70527 53.2138 44.745
714 1 1.58857 32.5269 33.4283
715 1 13.2947 24.0247 4.73885
716 1 53.2069 36.6868 53.7284
717 1 39.4406 22.7133 50.0555
718 1 13.6116 14.196 40.1773
719 1 23.8423 20.7518 40.5259
720 1 23.5574 15.2384 1.93285
721 1 48.4656 32.5849 10.6739
722 1 37.2191 24.3626 49.0532
723 1 9.83684 14.806 34.6304
724 1 44.8785 3.89793 50.932
725 1 19.5309 43.5404 26.2949
726 1 40.7367 38.9811 9.99481
727 1 46.71 49.2497 0.603304
728 1 7.75641 39.1805 12.8728
729 1 28.8054 7.4991 19.6704
730 1 47.4304 29.9322 41.2187
731 1 7.61489 4.46175 53.6971
732 1 17.4073 28.6976 46.4841
733 1 42.1538 40.8333 37.4364
734 1 48.6497 19.5805 45.2466
735 1 19.6615 28.4502 28.5606
736 1 3.03121 5.29099 45.0038
737 1 20.8862 7.01762 20.6095
738 1 18.0705 46.2388 36.1253
739 1 3.87047 7.60906 13.6453
740 1 19.314 23.7323 45.6283
741 1 19.7886 42.9722 54.7338
742 1 41.5079 6.19586 20.0388
743 1 1.86394 4.72937 47.5637
744 1 31.5083 4.52565 -0.541524
745 1 48.9035 10.8777 44.8377
746 1 24.1132 5.06787 32.8345
747 1 9.53846 5.6598 50.9534
748 1 5.82687 3.60966 1.01451
749 1 26.2474 44.9458 10.0564
750 1 14.4434 49.7536 17.3786
751 1 33.5061 43.9986 30.8042
752 1 6.23982 36.1963 45.1158
753 1 28.4956 50.0017 32.6649
754 1 56.322 51.7331 2.81386
755 1 41.6234 53.0579 10.0655
756 1 9.34382 14.5924 1.87811
757 1 2.77205 24.3589 8.16471
758 1 3.12967 23.2421 35.1126
759 1 21.7533 1.5915 15.4554
760 1 37.8177 13.2955 42.089
761 1 7.60278 54.9713 41.5459
762 1 18.7933 6.62123 21.8329
763 1 48.7567 2.13383 20.6126
764 1 17.7213 4.72973 45.6896
765 1 46.263 1.0996 38.1882
766 1 41.3035 0.639662 25.0598
767 1 0.986842 49.9704 23.3533
768 1 18.4116 46.6529 26.7264
769 1 53.6184 14.6491 29.7404
770 1 42.1141 37.3151 8.43907
771 1 39.8169 20.2528 47.8481
772 1 9.91711 12.7458 25.0439
773 1 15.8755 3.17792 12.171
774 1 26.1468 23.7934 44.6001
775 1 27.6222 17.0342 39.3108
776 1 17.3219 12.7088 48.3971
777 1 33.5794 56.3486 1.32694
778 1 52.6814 54.0372 48.7215
779 1 10.7943 28.5196 20.0662
780 1 48.9701 28.6486 47.4063
781 1 26.4586 34.3872 3.43751
782 1 52.5164 45.3034 21.5235
783 1 54.1473 26.7936 17.3885
784 1 3.9858 5.84793 42.7219
785 1 7.94029 17.5791 9.6815
786 1 0.134739 27.5969 42.2326
787 1 45.0221 25.2697 52.6934
788 1 33.4164 48.5834 26.5544
789 1 38.4857 12.2702 9.65058
790 1 39.2993 6.81807 39.9571
791 1 22.4768 35.0297 21.8317
792 1 14.7546 11.4088 22.7429
793 1 18.0607 0.366273 35.1205
794 1 7.74117 41.8017 15.9097
795 1 7.36898 40.5372 32.7284
796 1 30.0392 37.8294 47.7979
797 1 53.7802 39.325 42.0921
798 1 22.6907 39.9429 10.0616
799 1 18.0732 41.4941 9.09755
800 1 7.55651 7.2873 53.4755
801 1 53.2662 3.1591 43.9589
802 1 27.0431 11.4429 23.8401
803 1 38.4578 17.0746 37.3891
804 1 16.023 11.6073 0.398505
805 1 42.776 45.0501 21.5943
806 1 35.584 12.5774 10.4985
807 1 7.36398 7.36788 42.7263
808 1 19.3109 8.96745 4.18683
809 1 55.0833 16.3281 45.2136
810 1 13.1168 10.9056 12.7386
811 1 18.177 19.2412 7.68995
812 1 53.4174 47.1958 38.9407
813 1 46.0795 52.526 9.4147
814 1 47.4036 32.8901 6.0008
815 1 31.3622 36.6246 51.6488
816 1 39.3215 12.498 24.619
817 1 3.65903 11.5467 0.922736
818 1 15.0702 5.2572 10.008
819 1 47.3386 46.9574 37.5646
820 1 23.2326 8.25036 38.9187
821 1 3.7593 4.84457 22.9683
822 1 49.374 1.53037 53.2792
823 1 4.88317 5.37221 8.41499
824 1 53.7135 3.70063 4.7384
825 1 25.3507 13.7373 46.5189
826 1 18.2851 44.9429 24.1246
827 1 26.96 26.604 42.2914
828 1 13.2143 48.283 6.25652
829 1 33.0997 55.6832 17.6274
830 1 44.4624 30.1858 11.1822
831 2 18.7836 2.11999 10.4781
832 2 28.4355 20.8475 5.54239
833 2 45.6692 25.1846 40.8529
834 2 40.8438 3.56725 2.93679
835 2 18.3707 26.6902 49.3555
836 2 6.0403 22.0495 14.1408
837 2 24.533 10.803 46.8234
838 2 51.2477 34.9025 29.9186
839 2 40.4842 6.07621 16.8049
840 2 22.591 7.15683 31.3955
841 2 14.4128 40.9724 29.219
842 2 45.1511 10.3487 34.7459
843 2 22.7014 37.8807 45.6995
844 2 12.9784 7.74281 11.9748
845 2 31.172 42.5353 36.9284
846 2 0.082293 18.1404 29.8524
847 2 56.2779 23.1587 48.7303
848 2 41.1895 45.6083 24.3365
849 2 20.3116 20.2715 5.48109
850 2 4.40589 6.6579 47.764
851 2 45.6335 1.08843 49.7134
852 2 17.183 45.5412 54.4361
853 1 51.1922 53.7587 21.438
854 1 21.679 16.8162 19.6111
855 1 39.01 55.8386 15.875
856 1 7.50591 12.6292 36.9573
857 1 45.9828 14.8628 13.7558
858 1 18.1674 6.40668 42.6924
859 1 25.5247 32.1166 42.0777
860 1 0.917831 54.7783 12.1812
861 1 2.08538 48.1089 27.25
862 1 11.4214 21.2814 1.44055
863 1 1.0214 23.1488 20.4803
864 1 34.69 28.0171 35.3759
865 1 5.82336 30.9659 52.7734
866 1 33.7834 18.8332 12.0095
867 1 26.4427 18.0771 55.85
868 1 16.0677 6.52251 22.4694
869 1 51.6175 28.2123 36.1392
870 1 15.0343 42.5848 8.9657
871 1 30.395 31.4744 50.9314
872 1 4.85752 36.2018 31.8029
873 1 30.4045 21.8829 25.5472
874 1 20.8691 1.19613 53.2393
875 1 14.0875 37.4674 14.8163
876 1 11.722 3.60232 23.6817
877 1 24.841 18.1094 39.6124
878 1 46.5962 37.9377 11.2105
879 1 31.2862 44.1739 18.2369
880 1 13.6116 20.3144 53.0131
881 1 15.3218 7.52771 15.4567
882 1 33.3015 7.44292 7.44622
883 1 5.02926 53.3191 32.2726
884 1 19.4159 0.89289 14.5529
885 1 3.91429 15.8759 48.1228
886 1 2.29575 7.16559 24.858
887 1 11.9588 23.2884 28.9796
888 1 26.4309 56.0175 48.2687
889 1 24.5478 14.1857 41.8518
890 1 17.3885 -0.154979 13.3015
891 1 20.4819 27.3663 33.2455
892 1 26.2315 27.0681 34.0682
893 1 45.2937 8.28405 14.1577
894 1 50.3758 19.3658 18.5824
895 1 53.7082 25.7373 52.201
896 1 21.3841 41.3582 25.89
897 1 3.85493 39.4477 18.2184
898 1 17.6133 5.53076 14.6597
899 1 32.869 27.6757 7.54891
900 1 39.2514 27.0928 47.7498
901 1 51.662 56.3124 40.7168
902 1 39.6102 51.0201 29.011
903 1 52.4522 21.535 50.9619
904 1 20.856 16.9653 34.9277
905 1 12.6182 38.9467 27.4134
906 1 29.6485 21.35 47.7802
907 1 1.38765 7.23728 21.8058
908 1 51.1727 13.6004 48.834
909 1 9.54887 48.7315 49.6456
910 1 13.1819 40.4266 48.2711
911 1 5.01331 49.3862 49.0592
912 1 33.877 43.2063 37.9825
913 1 13.3988 4.83149 27.7799
914 1 4.6941 24.3147 19.1179
915 1 3.82467 27.161 27.0166
916 1 38.5544 56.181 7.97611
917 1 24.1054 52.445 55.2578
918 1 15.9553 3.03741 27.0702
919 1 28.7815 23.3679 37.8264
920 1 36.7582 54.5857 30.1253
921 1 21.7686 13.0973 11.8083
922 1 51.0041 2.0245 44.0739
923 1 25.232 31.7067 34.5715
924 1 42.374 32.9879 -0.0887617
925 1 48.9672 25.8489 40.9404
926 1 36.5125 -0.403481 50.6404
927 1 28.8782 45.8653 11.951
928 1 14.2737 53.2464 33.3126
929 1 20.8956 28.0273 47.4679
930 1 34.8481 25.9008 29.818
931 1 6.22037 48.042 1.67128
932 1 21.8281 17.2211 51.5718
933 1 28.9933 19.1402 55.5741
934 1 39.9827 42.3297 20.2407
935 1 23.7376 6.29132 9.80111
936 1 12.7394 10.6397 35.6802
937 1 33.8763 42.5168 23.7045
938 1 32.5271 1.90744 28.4239
939 1 54.8389 0.0770285 30.4232
940 1 44.0138 55.6485 13.3259
941 1 48.6479 1.25335 42.238
942 1 34.9688 31.3625 31.1961
943 1 10.8456 26.8154 3.58595
944 1 26.3822 28.784 24.7864
945 1 21.9666 36.6711 54.4714
946 1 43.9289 53.1259 14.0776
947 1 49.7938 39.0908 5.1872
948 1 26.8998 55.0074 37.5579
949 1 6.8822 48.6059 9.8035
950 1 13.7296 34.0374 2.77886
951 1 5.37584 53.8557 8.87947
952 1 30.6224 9.43829 33.9961
953 1 39.1319 47.7601 37.5154
954 1 54.0488 32.8631 22.7069
955 1 15.3003 9.40155 44.2644
956 1 9.6514 14.9324 13.9599
957 1 52.9585 29.2466 10.87
958 1 25.7612 9.92771 33.4155
959 1 26.5282 30.2638 48.672
960 1 5.00609 41.815 18.3439
961 1 25.1685 14.6792 32.7761
962 1 16.0379 16.4352 17.6159
963 1 53.3371 29.0518 19.0978
964 1 40.203 18.894 30.0095
965 1 37.1198 24.9255 8.02497
966 1 42.3844 26.5031 53.6652
967 1 30.3254 36.5315 3.8494
968 1 54.6041 37.3446 29.6142
969 1 15.7954 23.8989 37.106
970 1 2.08985 48.4691 19.5759
971 1 14.7791 1.11366 13.7322
972 1 42.4105 20.1951 44.1977
973 2 32.0526 48.1209 50.2215
974 2 10.5434 6.31027 46.2919
975 2 11.335 39.5448 51.4311
976 2 20.1379 5.48896 12.6847
977 2 7.06701 38.9225 18.4326
978 2 15.1997 24.6654 33.999
979 2 19.1112 55.8883 44.0421
980 2 33.8239 52.3245 37.2296
981 2 14.4448 52.5273 7.99084
982 2 21.2165 20.6408 1.72043
983 2 5.85641 29.966 48.0554
984 2 33.7136 10.4153 5.5429
985 2 25.8003 3.34008 25.3005
986 2 55.0062 4.62637 56.0942
987 2 5.2611 40.5948 21.1273
988 2 43.0523 24.1882 3.29094
989 2 16.4597 38.5935 27.0333
990 2 12.3011 36.1158 17.6818
991 2 38.2134 28.0517 8.32761
992 2 11.0644 19.9192 16.1479
993 2 23.8881 46.0039 25.2836
994 2 6.41827 20.47 9.83422
995 1 34.5923 2.47891 10.7181
996 1 10.1226 27.4528 55.5721
997 1 4.85183 38.4181 53.1474
998 1 24.7064 43.0944 28.9388
999 1 7.00192 31.7552 -0.0564536
1000 1 45.7553 31.2475 4.5158
1001 1 49.7351 33.13 38.5261
1002 1 13.7395 38.1163 6.25294
1003 1 26.1087 38.7094 35.9177