ITEM: TIMESTEP
0
ITEM: NUMBER OF ATOMS
9088
ITEM: BOX BOUNDS pp pp pp
-2.0514208324369146e-01 5.6089634709200567e+01
-2.0514208324369146e-01 5.6089634709200567e+01
-2.0514208324369146e-01 5.6089634709200567e+01
ITEM: ATOMS id type x y z
1 1 28.4407 41.1725 49.2416
2 1 43.9939 4.35659 36.4256
3 1 41.7719 13.1109 49.7657
4 1 36.9617 49.3836 43.7478
5 1 11.3758 34.3707 8.28717
6 1 36.0325 25.7874 21.797
7 1 19.9509 33.212 1.12439
8 1 48.4433 1.63262 9.24662
9 1 55.6845 50.188 40.0925
10 1 36.7816 13.4741 53.4569
11 1 48.6708 35.6867 32.7067
12 1 35.6524 19.4396 36.8425
13 1 21.701 48.6622 36.8576
14 1 20.0484 49.5443 50.1115
15 1 3.13299 36.7009 30.4417
16 1 26.3781 0.777309 39.0479
17 1 50.1484 9.9415 27.9602
18 1 4.01193 47.8714 36.4981
19 1 30.3345 23.8928 51.57
20 1 31.2762 2.62606 44.4905
21 1 25.256 49.0444 50.3244
22 1 9.58205 41.4281 1.94381
23 1 21.7201 17.9475 37.7108
24 1 3.56506 7.71837 55.5534
25 1 26.2337 27.4664 39.0378
26 1 20.1303 27.8905 43.2187
27 1 34.6409 29.0053 54.5081
28 1 13.4293 32.6705 14.8882
29 1 11.1438 50.228 39.9138
30 1 49.1597 7.87317 44.4499
31 1 30.8677 4.81991 0.208179
32 1 34.0936 5.39402 23.5153
33 1 24.1202 41.7657 2.57935
34 1 14.4294 24.5827 1.7147
35 1 20.0732 51.357 40.3636
36 1 16.482 32.7645 18.8645
37 1 23.6163 -0.0637477 46.9807
38 1 23.5327 21.2203 5.54923
39 1 13.2076 26.277 0.0531826
40 1 8.89006 11.472 47.9361
41 1 47.0466 41.0015 1.01569
42 1 5.65904 39.0984 15.1028
43 1 22.0368 16.8682 9.5361
44 1 50.936 51.8487 23.8408
45 1 13.1064 43.5303 56.0133
46 1 0.167992 17.438 10.9267
47 1 42.6548 6.23263 32.1873
48 1 18.2276 30.8186 19.7868
49 1 7.3241 19.9401 32.6673
50 1 18.2907 19.728 20.5396
51 1 50.146 32.2475 30.3285
52 1 22.2163 10.6081 37.3021
53 1 52.7298 20.2222 1.21111
54 1 52.4824 20.4401 43.7111
55 1 39.7482 45.0009 29.4273
56 1 11.8372 25.2429 44.679
57 1 6.96439 33.341 34.7869
58 1 37.3623 11.6467 21.855
59 1 5.39656 30.3921 28.5596
60 1 36.1848 32.9176 54.7865
61 1 11.9593 26.971 53.8695
62 1 52.674 22.5047 24.4731
63 1 49.215 43.1536 28.8201
64 1 22.333 4.43766 16.1732
65 1 11.2885 42.5237 48.2193
66 1 8.07353 44.6499 9.90234
67 1 12.2698 43.1751 53.0904
68 1 11.4332 33.4888 52.1468
69 1 37.5257 38.2751 46.0109
70 1 2.0575 28.0153 4.8671
71 1 51.8499 46.9671 28.1102
72 1 55.4065 29.4671 1.47352
73 1 22.4262 43.6569 7.70634
74 1 4.79861 33.5301 46.8979
75 1 37.7403 19.4198 5.19974
76 1 38.225 23.8172 5.84943
77 1 47.5653 40.4722 32.2455
78 1 34.0852 40.8189 10.4049
79 1 31.7643 23.4628 42.6532
80 1 39.5674 0.072047 30.751
81 1 17.6673 27.6691 54.3722
82 1 50.5772 1.33657 23.7469
83 1 8.18623 14.8385 27.8131
84 1 36.2703 2.16172 3.91484
85 1 39.8555 10.8159 38.5567
86 1 34.7458 33.944 34.9447
87 1 25.9586 8.05213 31.8186
88 1 16.0995 11.513 12.9254
89 1 6.96022 48.0014 39.4958
90 1 1.14563 39.5642 51.3667
91 1 17.6129 8.17362 21.8264
92 1 10.3355 11.8777 19.3063
93 1 38.2856 9.79912 11.1299
94 1 35.7116 34.3586 28.9707
95 1 40.9291 24.5591 18.6401
96 1 6.98358 0.112008 14.0299
97 1 3.27574 8.4594 33.0229
98 1 17.8507 12.8948 30.2596
99 1 42.3352 36.4533 5.56346
100 1 3.19789 5.94274 26.958
101 1 0.524475 33.65 47.2752
102 1 5.29384 1.5143 12.2219
103 1 41.7237 43.3679 56.0847
104 1 14.6405 54.9204 39.3891
105 1 31.5548 13.9286 10.6836
106 1 19.3389 48.2619 47.5913
107 1 32.0974 0.137353 44.6717
108 1 46.6308 17.1787 47.5927
109 1 10.224 45.7368 16.734
110 1 31.3356 9.19791 10.6892
111 1 37.5159 54.5457 15.1704
112 1 5.64018 5.6291 9.99415
113 1 28.6024 33.3817 11.4516
114 1 24.3547 17.032 40.0603
115 1 42.7794 34.637 31.3732
116 1 32.2623 5.975 37.8474
117 1 -0.0971773 12.4709 40.8
118 1 1.50718 43.6658 31.5486
119 1 36.3897 36.4176 33.9862
120 1 15.1722 1.71868 39.9144
121 2 11.8472 38.7337 35.2935
122 2 51.5766 18.6145 12.9718
123 2 55.0643 46.4368 20.812
124 2 52.5301 29.6803 19.7685
125 2 54.0579 35.4429 38.6043
126 2 25.228 7.76168 17.7315
127 2 12.3618 51.4255 15.5328
128 2 7.64645 30.0889 35.2803
129 2 55.2008 17.8058 7.57854
130 2 1.24574 20.9666 45.887
131 2 52.1085 11.8122 47.2762
132 2 39.4215 46.6951 17.6882
133 2 34.9311 42.9947 16.1368
134 2 15.3856 5.21788 9.06625
135 2 42.8575 33.8729 3.62134
136 2 9.97686 0.759744 31.9441
137 2 40.6954 24.2598 46.3219
138 2 5.21471 4.80723 49.2483
139 2 31.0796 14.8805 13.7528
140 2 45.3307 27.2939 39.0028
141 2 8.0604 38.1497 22.9219
142 2 29.4493 23.4545 40.2949
143 1 47.1925 19.657 46.0438
144 1 29.219 17.6357 13.3697
145 1 53.9802 12.4121 6.60078
146 1 52.4096 26.3637 15.2741
147 1 29.2175 27.9167 32.8357
148 1 26.999 10.2708 38.5345
149 1 46.4917 6.18978 44.7351
150 1 25.1275 25.8336 9.64197
151 1 49.9107 24.3148 54.2715
152 1 10.4428 33.6714 45.4621
153 1 49.8934 48.4254 29.3879
154 1 43.0219 41.5078 30.861
155 1 32.4702 18.4572 10.5983
156 1 7.84918 32.8169 9.43923
157 1 51.2859 34.369 22.33
158 1 37.5233 5.49616 0.317538
159 1 54.5145 48.0149 13.5072
160 1 49.153 2.43938 2.21002
161 1 10.5543 25.0896 21.284
162 1 13.0289 12.949 43.9519
163 1 19.8419 21.4228 26.4133
164 1 55.8229 38.5624 11.8161
165 1 51.4283 35.7024 6.72622
166 1 45.2027 41.4693 14.7505
167 1 31.4858 39.8817 46.2003
168 1 37.4249 7.50592 41.8515
169 1 28.519 50.5691 39.2757
170 1 39.3531 34.0421 47.4533
171 1 28.7984 32.9305 23.4274
172 1 21.4055 43.7187 28.4119
173 1 14.2841 39.92 9.82241
174 1 35.504 1.75185 32.5969
175 1 18.6313 28.0794 16.1937
176 1 39.8048 36.9217 6.62986
177 1 10.1365 4.97119 25.035
178 1 18.7874 5.54185 8.75764
179 1 26.9156 45.2304 47.8699
180 1 55.2412 26.8148 8.48
181 1 48.6227 42.8745 31.5673
182 1 49.5225 30.1552 52.6489
183 1 13.4944 20.4086 3.99229
184 1 25.9049 52.8565 11.7765
185 1 33.26 10.195 34.2453
186 1 43.9676 26.4547 26.7145
187 1 1.72185 6.75453 53.3574
188 1 28.6218 39.2892 3.61818
189 1 13.5591 41.3063 34.0437
190 1 35.6322 48.9505 21.8494
191 1 20.6073 19.096 45.8684
192 1 50.2312 0.0950266 8.11117
193 1 37.2393 8.99737 13.5826
194 1 36.1567 3.81809 30.9417
195 1 24.5607 27.749 1.10322
196 1 34.9029 5.47513 26.745
197 1 7.4103 9.43939 49.5982
198 1 12.6572 19.1938 28.5347
199 1 31.5761 18.6293 2.83957
200 1 39.9018 20.5427 41.186
201 1 26.523 13.2785 16.0161
202 1 38.9106 1.87658 2.7158
203 1 31.2524 27.7138 37.2003
204 1 40.8424 27.2757 19.2182
205 1 8.10219 12.5239 2.7502
206 1 39.4622 25.301 24.3074
207 1 0.136318 45.1573 46.0236
208 1 31.9077 5.01683 11.1472
209 1 47.735 6.46849 47.2452
210 1 27.3125 21.6039 41.8278
211 1 8.48436 5.53669 21.7662
212 1 43.337 27.4392 43.4798
213 1 22.0831 12.3335 51.2958
214 1 0.692044 37.961 2.44509
215 1 11.5203 27.9696 22.8807
216 1 0.0609217 24.7475 50.9858
217 1 21.5771 9.13887 35.2805
218 1 1.55695 9.52311 54.4046
219 1 44.02 51.4838 6.03517
220 1 44.7361 7.99018 43.9371
221 1 30.7708 0.565302 17.134
222 1 2.37754 7.43398 21.6562
223 1 25.9447 44.2996 2.79615
224 1 42.3076 9.13822 25.2381
225 1 43.9297 48.9473 38.0936
226 1 12.7727 41.9978 25.4228
227 1 20.3275 45.7507 33.1603
228 1 -0.0969138 20.2317 52.9832
229 1 11.1264 27.3123 43.0323
230 1 30.9721 29.9299 41.4522
231 1 31.8885 35.421 25.3159
232 1 40.8747 17.1343 18.0027
233 1 50.7905 50.1772 38.0323
234 1 10.9104 13.8742 51.2046
235 1 41.611 18.4483 42.2169
236 1 6.90944 47.6144 29.6803
237 1 53.1341 29.7388 22.8943
238 1 38.5643 1.33383 0.179553
239 1 34.042 28.664 6.17005
240 1 9.28649 32.8343 50.7451
241 1 20.3031 49.1877 10.7471
242 1 32.9233 11.0291 2.97085
243 1 7.49699 24.0588 33.5496
244 1 55.9755 42.2774 7.48029
245 1 1.33923 27.7338 19.5962
246 1 54.3111 5.58548 5.76905
247 1 54.5017 48.9949 10.8154
248 1 44.2051 0.423855 45.6565
249 1 10.7608 45.0914 49.1027
250 1 23.4866 24.5739 17.6637
251 1 17.7404 39.3045 3.56643
252 1 47.9042 16.6211 38.771
253 1 3.14375 26.9389 48.059
254 1 9.41382 8.81507 32.6266
255 1 55.1413 9.62066 18.2671
256 1 30.804 47.3501 24.5597
257 1 1.2895 12.4219 35.1878
258 1 33.2406 18.549 27.7741
259 1 45.5959 45.8787 55.1394
260 1 25.1016 41.4038 33.9362
261 1 32.12 10.5014 39.6129
262 1 20.786 43.4567 9.82711
263 2 44.0486 24.6219 29.3786
264 2 25.535 47.1443 1.72354
265 2 49.7645 7.23114 49.2855
266 2 7.16276 24.7183 38.6352
267 2 14.6014 21.4104 1.31479
268 2 4.66431 2.98496 24.5735
269 2 15.3351 2.5961 16.6409
270 2 44.3319 43.4283 53.6597
271 2 53.7572 44.8525 26.1502
272 2 33.2941 40.5657 13.6998
273 2 33.1903 6.07812 34.7235
274 2 52.9158 26.9264 30.5643
275 2 27.1621 7.14356 52.9674
276 2 56.0412 13.8026 4.4315
277 2 1.29138 43.0261 39.2832
278 2 11.8716 34.5196 18.7164
279 2 43.8911 51.3254 46.5449
280 2 19.681 55.204 22.0494
281 2 41.4413 17.1517 14.753
282 2 15.1557 28.972 8.257
283 2 46.6566 47.861 28.5709
284 2 16.9077 27.248 34.8143
285 1 4.52056 35.3729 5.83253
286 1 49.8113 34.7373 20.2042
287 1 44.7961 1.72411 36.2422
288 1 19.9238 14.8984 31.4923
289 1 23.0574 31.4638 4.12919
290 1 50.7219 12.9542 24.1524
291 1 18.1243 43.8852 34.1876
292 1 40.8594 4.96155 44.0596
293 1 54.7492 19.5674 55.53
294 1 30.9052 32.8275 41.863
295 1 47.1675 25.4312 29.8502
296 1 12.4716 32.1924 35.2781
297 1 48.4054 14.0124 33.888
298 1 30.8641 22.1997 13.0963
299 1 31.7451 18.5661 17.7713
300 1 24.9061 31.9744 9.3897
301 1 24.721 49.9753 23.0636
302 1 46.6653 33.5954 25.9303
303 1 53.7942 3.23609 1.5621
304 1 13.6951 34.209 53.5217
305 1 25.3195 38.4995 23.1155
306 1 28.9512 52.2395 32.8289
307 1 4.95757 40.1274 32.1762
308 1 40.0587 53.9735 45.2045
309 1 49.5582 30.6531 28.5258
310 1 10.5182 53.3198 38.4153
311 1 38.2545 35.1424 5.35812
312 1 10.2443 7.91833 26.0037
313 1 4.905 55.451 18.1709
314 1 28.9156 47.8078 53.2408
315 1 4.39613 6.22796 15.1315
316 1 43.7993 10.4064 10.9151
317 1 30.6397 31.8177 39.3092
318 1 5.77189 23.1019 11.2891
319 1 3.10242 2.59021 17.9453
320 1 19.0117 33.5519 25.2769
321 1 26.0554 38.6739 33.9222
322 1 55.3018 21.7087 22.9222
323 1 11.1268 11.1295 32.7992
324 1 18.3625 8.80362 32.2431
325 1 21.6335 46.267 43.0049
326 1 16.7851 32.219 41.1728
327 1 12.3784 9.63283 34.8093
328 1 0.452683 8.0375 36.691
329 1 4.52072 25.2351 44.6663
330 1 7.84266 30.7123 30.1737
331 1 15.6001 39.2743 52.4217
332 1 0.676043 44.0778 12.2167
333 1 16.1523 13.8725 10.6425
334 1 33.7428 35.2527 22.8332
335 1 35.4847 13.1502 51.229
336 1 50.0386 21.3068 13.0095
337 1 0.753922 34.3626 7.73494
338 1 9.19385 22.6028 22.7075
339 1 15.0966 24.5767 44.5325
340 1 25.151 23.4382 26.0722
341 1 26.5952 51.3495 24.945
342 1 -0.0672025 26.5996 17.5986
343 1 35.9178 14.2906 27.8538
344 1 32.9739 15.9591 11.5916
345 1 48.9366 16.2994 3.72735
346 1 0.20268 6.64398 23.8038
347 1 19.8793 18.5547 11.0219
348 1 12.9278 10.2823 22.7558
349 1 4.51245 37.0973 10.5927
350 1 1.9317 53.6796 51.3426
351 1 45.2249 35.5415 5.47946
352 1 19.0362 8.4372 52.2032
353 1 24.3757 34.6589 53.6231
354 1 46.8745 36.9375 39.4873
355 1 48.6953 28.5335 38.6041
356 1 9.72786 40.1899 42.8798
357 1 20.0586 50.508 52.5665
358 1 21.8535 24.0692 36.5074
359 1 29.1483 44.9098 46.0193
360 1 16.7921 38.1414 45.3257
361 1 40.3002 22.3093 43.7941
362 1 0.413215 53.8181 4.45543
363 1 44.2065 18.4115 14.8641
364 1 41.0634 0.423108 33.0757
365 1 40.1341 45.0252 6.77685
366 1 15.4518 34.4494 14.4877
367 1 50.6916 46.9298 38.1869
368 1 40.4418 45.0512 26.6347
369 1 33.0924 14.4802 16.2535
370 1 3.53951 40.628 50.4383
371 1 19.2773 28.1953 48.5922
372 1 13.5244 22.4699 33.6884
373 1 21.6771 55.9328 37.9562
374 1 47.0931 50.5149 2.63438
375 1 4.45213 52.7775 35.1764
376 1 42.8824 48.9761 24.9202
377 1 7.53514 23.5672 52.7681
378 1 29.236 52.492 21.0843
379 1 51.4377 39.3046 20.5052
380 1 10.8623 13.3046 27.1369
381 1 26.2706 50.0687 29.0916
382 1 55.119 22.5597 8.55636
383 1 12.8078 23.3184 22.956
384 1 49.5514 16.4294 33.1058
385 1 29.412 8.98955 19.9539
386 1 36.232 39.0127 23.2009
387 1 21.4606 34.082 39.1335
388 1 24.251 7.26592 40.2487
389 1 26.4922 11.5647 14.1102
390 1 45.4119 48.7515 31.7157
391 1 6.94336 9.15358 6.94699
392 1 48.4564 48.8415 37.4173
393 1 3.43856 27.7708 0.896207
394 1 3.01355 37.8842 46.424
395 1 55.1127 7.56081 48.1197
396 1 15.2165 4.71351 23.9226
397 1 49.8862 26.1578 22.2972
398 1 21.5745 28.9844 4.03486
399 1 7.04218 54.2331 41.8484
400 1 35.4858 43.1004 27.6394
401 1 18.5439 30.664 24.7701
402 1 31.7675 48.4621 43.7265
403 1 13.1121 42.5534 28.3467
404 1 26.7771 34.8735 45.9219
405 2 19.8437 8.12757 14.2557
406 2 36.0445 30.7958 7.77515
407 2 34.1975 13.0588 12.9139
408 2 24.8267 49.7289 12.9373
409 2 47.2139 0.164247 16.6113
410 2 36.8024 49.4027 16.3832
411 2 5.71839 41.4892 17.1615
412 2 53.457 8.81598 36.1745
413 2 31.1688 21.6584 45.1781
414 2 12.7271 35.211 47.7796
415 2 55.5231 51.4913 8.84856
416 2 51.9968 42.934 55.1718
417 2 44.4622 5.10625 10.5244
418 2 7.44434 35.92 11.2326
419 2 15.5531 54.4061 22.5785
420 2 23.7861 23.2681 23.1365
421 2 41.307 49.3292 9.9048
422 2 31.8473 16.2969 8.10341
423 2 8.12781 0.460788 43.1787
424 2 52.242 10.6089 4.67889
425 2 48.1093 51.9846 38.8712
426 2 37.2839 8.53033 38.3021
427 1 29.4574 29.8995 -0.0230393
428 1 4.30437 53.5603 52.3398
429 1 55.858 27.4693 51.0685
430 1 51.6718 54.9003 9.90321
431 1 19.9681 47.7187 26.1246
432 1 42.7954 8.34136 6.70375
433 1 39.9552 24.8378 13.767
434 1 13.1845 22.4452 44.0833
435 1 23.0143 52.2101 8.4863
436 1 32.2906 31.7242 48.3976
437 1 26.1838 24.2463 33.3057
438 1 47.1795 2.97495 35.4041
439 1 1.58592 38.0508 53.9937
440 1 8.98282 25.4639 29.4605
441 1 22.4323 14.2483 10.7145
442 1 42.792 18.9402 17.0587
443 1 41.9821 10.5376 27.4947
444 1 51.605 42.2444 47.5633
445 1 5.32682 14.5715 17.663
446 1 38.3512 31.749 40.1214
447 1 20.834 51.9139 10.3723
448 1 44.2539 3.08592 -0.014944
449 1 54.2244 6.8825 28.9361
450 1 51.3176 33.3466 0.011687
451 1 27.59 49.3049 14.5107
452 1 48.1124 12.3796 22.8196
453 1 9.16383 21.5977 33.8859
454 1 5.67072 35.3916 52.0388
455 1 6.78445 21.7002 23.7226
456 1 46.5121 3.38525 51.5329
457 1 53.401 38.7949 18.4786
458 1 27.1785 20.1517 36.8288
459 1 2.74949 34.9349 9.86901
460 1 29.0829 0.325905 34.2467
461 1 7.92909 16.5058 17.307
462 1 48.7315 27.5691 9.27685
463 1 15.6681 2.35519 7.38364
464 1 31.4362 52.6385 22.616
465 1 7.61428 46.6142 17.3258
466 1 4.93159 47.8134 5.3706
467 1 46.9114 11.4412 38.0562
468 1 44.9495 53.9849 7.30651
469 1 14.9242 43.3187 24.5625
470 1 28.6054 0.447959 15.531
471 1 26.6786 9.68964 3.36948
472 1 15.1889 38.0985 28.1208
473 1 48.659 38.7577 46.7707
474 1 39.744 12.507 16.8515
475 1 22.9669 25.2461 20.4615
476 1 12.2801 21.7777 40.0691
477 1 48.9756 3.12452 37.5041
478 1 41.4679 7.46191 14.0615
479 1 55.404 25.7632 35.0843
480 1 41.0499 8.32209 4.16309
481 1 25.3319 1.71394 51.0456
482 1 29.5948 37.4105 22.5747
483 1 46.4196 19.5546 34.2549
484 1 5.80975 37.1637 7.68994
485 1 18.566 45.3468 24.9379
486 1 47.047 7.97041 42.6941
487 1 21.0932 12.7526 22.2569
488 1 6.07034 47.2693 25.7497
489 1 2.85052 44.4204 13.7686
490 1 24.214 49.9572 25.9211
491 1 13.5438 29.4841 47.2085
492 1 26.8112 24.613 41.8998
493 1 44.0951 30.1906 33.8384
494 1 4.34336 54.4533 13.3218
495 1 11.6765 33.8243 13.2558
496 1 39.3674 18.0552 37.2408
497 1 7.23044 17.3357 31.9051
498 1 19.6806 20.5977 8.52709
499 1 33.9707 30.0193 19.991
500 1 52.0177 2.92792 36.1621
501 1 16.3057 51.1526 43.3265
502 1 51.2384 43.0661 7.1071
503 1 42.6542 21.0255 42.8089
504 1 39.9841 46.8999 32.1756
505 1 38.3459 27.7403 3.83336
506 1 22.3137 27.315 41.7879
507 1 53.5229 54.5036 32.3065
508 1 10.5498 42.8791 17.5738
509 1 53.516 29.1512 8.12166
510 1 30.6814 0.791996 3.64943
511 1 50.0359 5.54741 6.10647
512 1 14.2819 50.4756 12.8842
513 1 32.9992 30.269 29.2815
514 1 28.1908 27.9301 20.8881
515 1 29.1069 12.7828 27.477
516 1 5.25524 40.4225 37.137
517 1 15.5418 3.10663 56.0018
518 1 23.8855 12.1896 13.4706
519 1 7.95295 12.1591 44.9763
520 1 35.9061 17.6714 4.58814
521 1 45.7123 24.8092 32.2395
522 1 7.38413 17.2619 0.900354
523 1 38.5817 1.67835 25.8671
524 1 39.8322 51.7027 32.2212
525 1 25.673 41.59 22.5386
526 1 26.5998 15.7914 30.4141
527 1 29.0694 54.7476 23.3177
528 1 2.49182 6.66906 6.4245
529 1 40.2352 8.45812 33.5844
530 1 38.1571 16.6036 18.502
531 1 40.6073 10.731 49.215
532 1 35.0702 9.81193 11.6513
533 1 43.102 6.20686 20.5292
534 1 19.5886 35.7779 20.5373
535 1 42.9362 2.52383 38.2568
536 1 39.2356 22.6105 15.5313
537 1 19.1286 22.3714 20.9966
538 1 6.46657 27.276 2.81835
539 1 28.5811 37.8799 33.0188
540 1 48.3147 12.1851 16.636
541 1 43.0578 6.05629 7.87748
542 1 32.8818 47.8547 36.0236
543 1 38.1877 44.9358 35.0326
544 1 31.6529 34.964 15.1734
545 1 51.9075 24.5802 5.76115
546 1 23.8447 50.6696 40.5241
547 2 15.401 40.678 26.6267
548 2 12.8747 46.7403 1.4318
549 2 34.8406 48.1341 25.6234
550 2 55.5543 51.5373 12.8054
551 2 52.6326 6.90942 16.8056
552 2 9.94614 7.18592 35.1963
553 2 37.6169 9.92358 16.9245
554 2 23.4505 5.69131 53.0482
555 2 14.7083 12.9389 21.5393
556 2 12.6556 41.667 43.0223
557 2 13.8801 5.73636 33.9616
558 2 17.4334 33.1553 3.27506
559 2 40.0576 17.1511 21.1298
560 2 5.16724 16.3385 29.328
561 2 38.8339 12.8478 50.7022
562 2 4.02221 19.7763 28.5488
563 2 30.1879 47.1097 34.9269
564 2 16.7967 5.26033 39.8029
565 2 20.3656 22.0955 34.6602
566 2 31.2249 13.6584 39.0417
567 2 44.7848 38.4649 0.703311
568 2 43.589 18.0823 20.4952
569 1 15.0204 1.21427 19.521
570 1 52.3685 36.648 49.3558
571 1 20.2552 14.1543 5.88184
572 1 46.528 15.1544 53.4079
573 1 15.5485 15.4742 25.8325
574 1 30.0705 46.2224 17.2841
575 1 30.2231 49.793 42.2567
576 1 13.8672 -0.0765181 11.5726
577 1 1.67079 6.37265 15.3745
578 1 55.2389 39.8984 44.2827
579 1 34.2317 44.67 48.4255
580 1 21.0753 32.018 6.16775
581 1 37.5433 10.2946 29.1919
582 1 12.3528 41.2222 37.9629
583 1 45.6506 25.738 18.1617
584 1 29.1784 40.7559 29.0904
585 1 33.5593 8.23057 23.589
586 1 55.5087 0.176223 31.1702
587 1 10.8424 1.69453 7.36462
588 1 9.23924 43.8695 46.7506
589 1 34.5824 47.3233 49.6657
590 1 -0.193513 7.45483 6.73924
591 1 12.7185 9.42545 31.3207
592 1 52.781 33.3173 6.51089
593 1 18.7109 24.8921 33.4825
594 1 2.98105 42.3906 41.9905
595 1 34.2061 11.8699 43.7111
596 1 3.60373 4.89599 39.1677
597 1 28.7981 51.4392 7.63545
598 1 48.3672 47.3845 25.5522
599 1 5.19643 3.63459 13.7073
600 1 11.5679 32.5589 4.28292
601 1 22.02 42.4291 54.2149
602 1 2.96255 42.2959 15.826
603 1 26.968 35.4836 52.033
604 1 5.67792 21.717 30.366
605 1 28.3094 42.7983 27.4987
606 1 29.677 47.8424 31.7601
607 1 38.9394 14.3243 34.0157
608 1 37.1124 4.50654 49.4633
609 1 34.1985 30.6659 12.8459
610 1 43.581 5.49358 44.866
611 1 20.8437 44.9 30.6448
612 1 17.862 46.768 45.4419
613 1 3.53803 51.4978 0.929094
614 1 53.8385 33.3011 10.8117
615 1 5.78193 42.8527 41.4449
616 1 38.1432 3.73321 54.625
617 1 16.2679 11.5807 51.91
618 1 5.58671 55.3222 53.7436
619 1 36.7935 11.6529 26.862
620 1 28.4436 27.0297 25.6593
621 1 53.1401 8.61703 27.0628
622 1 3.76151 29.6804 43.9441
623 1 15.0837 44.2895 11.8332
624 1 27.7776 9.49954 55.0268
625 1 10.1193 14.9498 25.2094
626 1 38.7665 27.1482 22.5735
627 1 33.2569 38.232 1.68364
628 1 31.4815 10.1409 17.5545
629 1 41.8655 46.2265 11.0438
630 1 39.3292 55.5174 22.2362
631 1 43.6801 28.8462 13.7474
632 1 4.48478 32.3166 27.0124
633 1 15.9992 6.50592 49.3398
634 1 48.0573 45.5671 17.9711
635 1 29.4615 44.7789 23.2048
636 1 5.972 6.68221 17.4088
637 1 0.522068 15.0225 39.6864
638 1 32.311 47.2231 55.722
639 1 28.5622 5.12926 4.47234
640 1 21.9776 53.3665 6.37652
641 1 55.4626 47.6589 35.8418
642 1 53.8807 18.3537 10.4926
643 1 41.2108 27.8663 24.4257
644 1 20.2757 42.651 45.8651
645 1 0.647311 19.506 41.001
646 1 13.0123 31.1825 12.4401
647 1 3.3184 29.4706 8.59722
648 1 19.6112 16.8508 5.14942
649 1 20.5586 20.367 19.507
650 1 15.0419 4.11976 3.26343
651 1 30.485 33.4704 33.3647
652 1 51.3266 15.1882 42.4859
653 1 51.9098 30.5776 51.2474
654 1 29.5635 34.2048 -0.0077006
655 1 41.2872 4.55318 30.3355
656 1 36.699 52.176 40.2023
657 1 55.8321 34.6958 20.7543
658 1 24.617 8.31009 54.6171
659 1 38.885 39.9173 50.4591
660 1 1.69134 43.8892 6.73194
661 1 45.8512 36.2629 12.8272
662 1 15.5489 41.5078 44.3162
663 1 19.8439 36.0676 37.5583
664 1 53.2011 16.9511 27.9302
665 1 34.2662 42.9613 22.8402
666 1 15.1868 9.25266 26.3106
667 1 35.5358 17.0991 28.2342
668 1 47.5761 12.1546 44.4998
669 1 51.1339 22.8791 15.706
670 1 46.9214 3.14999 11.2022
671 1 32.4047 4.31259 25.3863
672 1 1.57677 18.303 8.78413
673 1 11.878 4.72912 35.9449
674 1 45.9974 51.3488 7.8982
675 1 23.2839 8.05056 33.1344
676 1 53.8893 16.6832 24.1837
677 1 55.7295 36.0078 54.0957
678 1 15.8617 55.6967 17.5184
679 1 52.6916 12.5009 22.2023
680 1 28.507 32.2161 45.8452
681 1 0.405446 26.2255 48.7771
682 1 7.2822 3.08744 44.6695
683 1 43.1653 13.0493 21.0339
684 1 38.308 32.3348 37.2809
685 1 22.8858 54.894 14.9259
686 1 44.7754 15.032 11.2165
687 1 47.0464 55.2697 28.5106
688 1 20.5958 7.29472 33.1152
689 2 21.6651 49.4823 24.0976
690 2 30.0262 50.2586 10.0706
691 2 34.2899 27.0213 38.7705
692 2 8.20903 42.6985 49.295
693 2 44.8621 48.3305 22.557
694 2 2.83851 51.309 54.2912
695 2 17.733 15.17 45.2746
696 2 16.5104 40.9558 8.062
697 2 1.5183 18.146 36.1668
698 2 17.3179 18.7657 6.80863
699 2 44.5779 11.4944 40.0518
700 2 38.476 4.99553 3.78415
701 2 53.6168 27.3508 5.37426
702 2 36.1937 28.7633 27.0801
703 2 48.9746 45.8698 44.3717
704 2 54.1199 12.8316 17.7401
705 2 2.27146 36.991 7.55743
706 2 2.24519 40.4011 44.3656
707 2 47.6489 17.0014 19.138
708 2 43.2792 54.5401 0.873821
709 2 44.2031 30.4158 42.16
710 2 52.8495 48.4078 30.8538
711 1 37.0369 2.03475 46.2082
712 1 17.7636 25.5023 48.8804
713 1 1.13676 49.5431 44.1516
714 1 37.8807 30.244 24.977
715 1 0.924556 11.1974 44.6085
716 1 2.73502 15.6992 51.178
717 1 46.8496 0.861906 3.57203
718 1 5.01548 41.5808 56.0682
719 1 41.8841 16.8753 52.7481
720 1 19.3551 16.2051 13.4271
721 1 31.0112 6.54309 5.15867
722 1 31.8586 37.8004 55.5573
723 1 19.1226 14.8289 15.8007
724 1 48.3496 37.2287 53.4468
725 1 13.113 45.8561 34.907
726 1 30.3609 41.1165 41.7337
727 1 32.5393 55.298 18.6328
728 1 28.0618 0.62578 55.2118
729 1 40.9115 1.37225 51.9581
730 1 5.21278 7.01234 37.8232
731 1 53.9828 11.1965 20.2905
732 1 12.7704 1.04405 14.8389
733 1 35.996 52.7914 55.4567
734 1 37.3209 44.0299 17.8656
735 1 40.0227 9.77271 1.55792
736 1 51.8173 19.1642 50.7515
737 1 31.0433 41.878 27.4712
738 1 0.593916 11.6211 6.85087
739 1 22.0527 16.7244 2.5825
740 1 40.4776 35.3226 49.6198
741 1 53.6756 9.47472 32.6882
742 1 18.8653 40.3479 6.10976
743 1 44.6514 29.0946 27.1388
744 1 33.3674 55.6848 40.3862
745 1 45.0006 12.7621 13.2735
746 1 20.1672 17.7717 20.6626
747 1 0.823024 3.62694 36.3072
748 1 46.0573 54.7292 2.61773
749 1 17.1653 13.2276 42.5528
750 1 23.5069 18.7674 1.94199
751 1 18.9459 33.0268 33.6408
752 1 14.8765 47.9675 38.6617
753 1 20.2904 9.97493 43.3957
754 1 36.2597 54.1306 26.9129
755 1 29.0996 18.2051 18.3951
756 1 31.4652 49.3409 54.0322
757 1 7.12974 19.3493 29.551
758 1 54.7088 27.0157 20.2932
759 1 44.8674 7.03776 18.5041
760 1 19.0416 32.4037 54.4913
761 1 48.378 15.3174 46.9115
762 1 30.6074 52.6375 12.014
763 1 24.3023 17.8061 8.58974
764 1 18.54 13.1407 21.4543
765 1 42.6638 19.7557 40.2615
766 1 19.4708 35.6206 2.75725
767 1 4.82996 51.7382 28.7198
768 1 25.8676 22.1901 35.3947
769 1 18.2581 48.4651 54.5498
770 1 19.0161 3.50223 4.46802
771 1 11.8426 38.6909 44.1575
772 1 29.7037 13.1873 52.6587
773 1 10.421 16.3957 45.834
774 1 33.4415 2.6338 27.3041
775 1 46.0704 41.6083 30.1549
776 1 25.0128 55.8196 22.3936
777 1 45.5309 47.6638 25.6161
778 1 22.1408 33.5431 47.7369
779 1 40.9089 27.0328 44.6429
780 1 31.2866 47.3113 41.0081
781 1 20.2296 38.062 25.0535
782 1 4.76617 18.7945 15.5028
783 1 50.2678 0.849295 36.9079
784 1 44.0765 27.7197 24.4253
785 1 27.4426 25.917 48.2319
786 1 15.4842 7.69194 41.9195
787 1 5.24782 30.958 54.0437
788 1 2.15827 10.5074 37.1172
789 1 15.6106 46.3121 28.2828
790 1 51.5077 29.3134 43.4862
791 1 36.399 18.5813 24.5187
792 1 26.0562 55.2329 19.4637
793 1 2.99053 50.1541 22.5579
794 1 30.0032 25.6087 28.0131
795 1 55.8182 21.6408 36.9432
796 1 44.5125 12.4875 3.97709
797 1 18.977 11.1225 13.9411
798 1 42.6511 29.1313 54.5301
799 1 16.0089 35.8147 11.9378
800 1 16.9586 30.5091 55.0248
801 1 48.8636 48.3236 11.0063
802 1 20.8784 15.5497 36.6734
803 1 40.1479 45.1918 40.2538
804 1 51.5692 36.6819 9.41436
805 1 38.5789 44.5098 32.2842
806 1 13.1025 15.521 37.0932
807 1 55.6345 16.1887 34.8615
808 1 49.0665 7.9157 38.4247
809 1 10.3381 12.4975 1.04883
810 1 7.89917 40.8633 32.0392
811 1 33.3901 22.053 48.1013
812 1 53.4746 15.9901 44.9555
813 1 0.920097 11.4374 2.48654
814 1 45.6453 4.89375 20.0474
815 1 4.63513 8.85588 41.5088
816 1 49.8811 4.59892 35.3389
817 1 44.4353 43.5471 29.2193
818 1 54.9286 48.7057 55.428
819 1 18.5291 37.1061 43.3627
820 1 53.1253 28.0943 38.1932
821 1 32.0285 29.5447 39.1406
822 1 0.858156 3.9356 29.2688
823 1 53.975 46.5016 37.894
824 1 54.6819 0.0181266 28.5596
825 1 17.6764 54.2862 29.7754
826 1 16.5722 50.3949 3.76098
827 1 20.2157 33.7327 22.7362
828 1 35.2392 23.3811 25.8338
829 1 49.5514 55.8548 29.7319
830 1 51.6356 43.4326 4.19496
831 2 7.15803 40.3203 40.0262
832 2 23.9351 14.4487 3.10599
833 2 20.2554 43.2869 23.3365
834 2 43.6271 26.8444 46.8195
835 2 25.0097 -0.0621839 27.6434
836 2 23.8286 14.3475 32.6115
837 2 15.6785 26.9937 17.5529
838 2 23.076 42.4783 47.4806
839 2 28.578 35.3904 31.3736
840 2 19.5636 16.0399 53.4086
841 2 15.8199 27.3277 26.4018
842 2 47.0537 9.4457 45.7508
843 2 42.1868 1.52944 30.0169
844 2 31.1109 15.3683 18.534
845 2 8.49073 51.6099 16.1178
846 2 41.4647 41.1617 48.7414
847 2 48.5151 54.8842 10.5297
848 2 47.7972 44.3113 25.9613
849 2 23.2591 17.4747 34.6608
850 2 22.6549 32.1559 44.3367
851 2 47.9691 -0.0504923 53.979
852 2 46.5666 38.7709 20.4794
853 1 35.8567 46.4854 9.49756
854 1 30.1559 42.2628 46.7328
855 1 47.6141 26.5514 15.3179
856 1 10.3272 23.9781 34.5497
857 1 55.0773 17.5115 40.4094
858 1 14.4482 50.2662 48.836
859 1 35.1525 24.685 40.8796
860 1 9.30669 37.484 4.11559
861 1 51.5303 36.7448 29.2284
862 1 54.704 30.8517 5.64705
863 1 33.2499 11.4357 10.4402
864 1 47.4256 26.3652 49.881
865 1 14.5719 26.2738 14.3336
866 1 12.5112 34.0347 -0.157582
867 1 50.6597 21.8909 37.2565
868 1 49.2795 1.71955 34.4284
869 1 53.7919 26.6037 52.6298
870 1 33.4597 24.6822 20.6276
871 1 10.2586 28.0242 14.9394
872 1 53.3431 37.7475 40.7858
873 1 12.7612 39.5258 32.0668
874 1 54.2833 46.1428 1.34512
875 1 41.6699 29.3664 48.152
876 1 -0.0827364 16.8712 31.2934
877 1 0.187276 27.3435 22.7031
878 1 4.27658 35.6123 20.2986
879 1 10.185 14.1685 30.8967
880 1 51.8441 11.303 1.81201
881 1 32.1603 13.178 47.9225
882 1 44.8563 22.5698 52.6732
883 1 26.3875 14.4987 13.6285
884 1 51.5519 54.3522 36.4888
885 1 29.8361 23.0387 1.33444
886 1 39.2716 47.6422 2.15646
887 1 7.24372 15.5045 19.9143
888 1 3.0589 29.8393 46.7374
889 1 46.2247 7.49003 34.1684
890 1 55.0744 2.95285 6.46726
891 1 53.141 20.7308 37.6061
892 1 37.8347 54.2925 20.3911
893 1 14.6175 51.762 33.5535
894 1 8.98655 41.1167 9.86136
895 1 3.6521 49.5987 40.6352
896 1 2.41793 40.6818 17.9039
897 1 28.3955 53.2578 10.3068
898 1 40.9655 35.1267 42.5782
899 1 16.6284 19.4048 32.2744
900 1 9.18467 27.6326 2.05438
901 1 34.3764 37.44 41.9424
902 1 25.5718 46.0953 25.9059
903 1 3.72024 26.4843 8.84727
904 1 35.82 35.824 11.6684
905 1 28.0333 30.412 22.0775
906 1 17.3654 35.9725 7.19483
907 1 34.7686 50.6531 13.8895
908 1 1.59882 6.18341 34.6747
909 1 40.4222 2.89272 42.3858
910 1 52.4427 38.2545 7.49249
911 1 12.6458 8.77565 24.9603
912 1 16.924 18.6634 36.9094
913 1 3.94681 45.3012 6.11892
914 1 53.1834 51.768 31.1622
915 1 18.5661 20.9768 39.0454
916 1 28.0441 26.4762 40.3754
917 1 35.2906 55.7553 4.21241
918 1 50.466 34.8645 14.5119
919 1 48.6785 40.6965 38.3471
920 1 12.1088 38.5748 38.5291
921 1 31.6349 55.2674 11.5555
922 1 17.7168 41.7299 31.8504
923 1 50.0574 5.44389 38.5484
924 1 0.453347 11.6307 16.6167
925 1 45.125 55.5797 5.05634
926 1 27.8742 49.9106 51.4803
927 1 52.7403 48.9549 43.3492
928 1 42.3021 12.4413 12.77
929 1 49.9476 33.0367 7.47633
930 1 38.3403 0.71754 19.847
931 1 16.7123 25.4134 31.6796
932 1 12.6478 48.5272 52.6392
933 1 30.7923 6.98589 43.5449
934 1 24.6453 51.3501 54.6402
935 1 5.72353 39.0574 55.3872
936 1 7.37805 32.7719 12.0457
937 1 34.0895 0.521401 42.5934
938 1 35.9265 5.80567 40.1107
939 1 5.47533 29.1061 15.9617
940 1 7.47797 39.1369 53.0242
941 1 36.333 6.38207 35.5025
942 1 15.2006 46.5895 45.3889
943 1 33.535 36.6074 34.2723
944 1 9.05271 41.1703 16.135
945 1 44.7752 20.8022 44.737
946 1 9.84362 42.3348 44.4579
947 1 41.1921 31.1293 40.6121
948 1 15.6104 55.5887 43.8095
949 1 49.651 49.9238 15.7238
950 1 39.2459 27.3425 50.689
951 1 14.9235 42.9215 53.793
952 1 44.0185 0.647115 48.4823
953 1 25.8793 22.464 51.193
954 1 11.0361 45.515 40.5638
955 1 13.2785 21.9662 15.4561
956 1 12.4205 20.4947 8.58195
957 1 47.2136 43.7645 51.0435
958 1 8.48846 25.3175 36.1123
959 1 31.4846 50.1191 35.4595
960 1 53.5613 14.0072 12.6657
961 1 37.0269 41.7264 42.6784
962 1 54.8596 6.82692 18.8984
963 1 7.65215 30.3112 47.1081
964 1 25.605 14.7594 44.4677
965 1 15.4532 30.7468 35.6556
966 1 24.8607 42.7326 31.2124
967 1 8.19381 8.37826 11.6694
968 1 42.6148 9.71234 53.7066
969 1 31.9205 37.4412 50.3912
970 1 31.3195 16.8687 15.7789
971 1 45.0584 5.73896 42.4241
972 1 52.5161 8.34021 51.4745
973 2 45.3675 4.30579 25.7154
974 2 46.2174 39.2267 34.992
975 2 53.3864 38.9572 27.7341
976 2 17.501 30.6121 49.8846
977 2 52.7965 36.1196 16.1577
978 2 52.6756 36.0938 19.8867
979 2 33.1942 42.2765 40.708
980 2 55.0231 6.18246 44.7844
981 2 36.4092 12.0049 9.88627
982 2 54.5012 29.585 49.1546
983 2 12.2163 31.303 1.31013
984 2 46.424 22.7604 34.3787
985 2 51.8527 2.41899 13.1789
986 2 7.17999 18.6024 37.8103
987 2 20.3007 6.5849 4.99652
988 2 2.61004 26.7144 51.7442
989 2 39.6413 28.042 32.3687
990 2 54.328 9.83401 15.1384
991 2 22.7608 21.3175 17.6139
992 2 16.1206 15.7404 54.8719
993 2 1.52902 15.3938 55.8792
994 2 53.6147 22.9097 35.1651
995 1 54.3771 3.19138 44.0069
996 1 51.4063 25.1462 47.3054
997 1 24.442 2.29502 48.1605
998 1 3.47333 49.5536 27.4434
999 1 25.2813 51.1243 52.1281
1000 1 19.6102 9.14633 47.7311
1001 1 30.8864 30.4925 36.5867
1002 1 52.5589 26.5274 8.3897
1003 1 13.7754 28.8772 30.7142
1004 1 6.33091 39.9697 7.07924