ITEM: TIMESTEP
0
ITEM: NUMBER OF ATOMS
9088
ITEM: BOX BOUNDS pp pp pp
-2.5038904035328180e-01 5.6134881666225425e+01
-2.5038904035328180e-01 5.6134881666225425e+01
-2.5038904035328180e-01 5.6134881666225425e+01
ITEM: ATOMS id type x y z
1 1 28.3653 41.0729 49.3769
2 1 44.3101 4.42712 36.5623
3 1 44.4648 16.1048 48.4486
4 1 36.8818 49.135 43.808
5 1 11.3949 34.4888 8.42081
6 1 38.6893 28.2983 25.0967
7 1 19.814 33.1746 0.956331
8 1 48.3708 1.51516 9.37611
9 1 55.9147 50.3267 40.1658
10 1 36.7934 13.5727 53.6841
11 1 48.4728 36.013 32.4276
12 1 35.6072 19.5989 36.6729
13 1 21.7415 48.6192 36.7206
14 1 19.7226 49.6954 50.1744
15 1 3.1128 36.9868 30.0389
16 1 29.0374 0.164486 39.9428
17 1 50.3785 10.0085 28.1156
18 1 3.99533 49.5877 40.6526
19 1 30.3914 23.8806 51.9928
20 1 31.0844 2.8064 44.8778
21 1 25.2649 49.1083 50.25
22 1 9.51894 41.4945 1.96458
23 1 22.4593 17.7485 37.7843
24 1 3.09091 7.68594 55.6218
25 1 26.3244 27.4878 38.9577
26 1 20.1502 28.011 43.2866
27 1 34.9075 29.1129 54.688
28 1 13.413 32.6323 15.0255
29 1 10.9368 50.4731 39.8507
30 1 48.4265 12.7737 46.8373
31 1 32.494 4.31264 2.23796
32 1 33.9168 5.35155 23.3448
33 1 24.5335 41.7048 2.66711
34 1 14.3156 24.7054 1.78217
35 1 19.8924 53.4652 41.7564
36 1 19.7756 41.0521 13.2457
37 1 23.5699 56.0454 47.1977
38 1 23.3705 21.0419 5.68646
39 1 13.1601 26.2896 -0.00689421
40 1 8.62444 11.464 47.7582
41 1 47.2431 41.1405 1.15866
42 1 5.80842 38.8171 15.0127
43 1 21.6677 16.9654 9.47243
44 1 50.6358 52.1217 23.5463
45 1 13.0227 43.5951 -0.243702
46 1 0.00519271 18.0943 10.8132
47 1 42.445 6.12821 32.1025
48 1 18.0735 31.1516 19.916
49 1 4.85703 18.7995 31.4959
50 1 18.1838 19.6044 20.4441
51 1 50.1758 32.3396 30.5675
52 1 22.1952 10.5397 37.0742
53 1 52.6743 20.5089 1.11706
54 1 55.7798 20.6352 43.0808
55 1 39.5435 44.8774 29.3245
56 1 11.5778 25.3681 44.9573
57 1 7.1116 32.8578 34.4967
58 1 37.7024 11.5392 21.7992
59 1 5.16354 30.4908 28.4044
60 1 36.3109 33.0512 54.7778
61 1 11.8013 27.0972 54.3143
62 1 52.9449 22.1174 24.5215
63 1 49.3269 43.1983 28.6043
64 1 22.5152 4.19537 16.064
65 1 10.8111 42.5361 48.0966
66 1 7.91887 45.0707 10.2621
67 1 12.4042 43.5142 53.1078
68 1 11.5164 33.7319 52.4345
69 1 37.223 38.4027 45.7385
70 1 2.13895 28.0423 5.0919
71 1 51.9149 46.7964 28.2597
72 1 55.4596 29.689 1.39063
73 1 29.7336 47.4694 9.31415
74 1 5.64942 34.0321 44.7436
75 1 37.6856 19.6711 5.13195
76 1 38.6997 23.9812 5.98476
77 1 47.3828 40.4453 32.1386
78 1 33.7385 40.429 10.2624
79 1 31.8889 23.1817 42.9804
80 1 39.2144 0.114618 31.1718
81 1 17.5983 27.8249 54.6434
82 1 50.5566 1.40635 23.9007
83 1 8.26465 14.8367 27.7353
84 1 36.1709 1.75955 3.82122
85 1 39.8118 10.8668 38.6814
86 1 34.686 33.7415 35.0366
87 1 27.2264 10.0115 33.0231
88 1 15.9689 11.5556 12.7796
89 1 6.76338 48.3051 39.3653
90 1 1.37444 39.375 51.7154
91 1 17.9864 7.52639 21.6892
92 1 10.3298 11.8054 19.1382
93 1 38.1894 9.49927 11.2723
94 1 35.6046 34.0895 28.8491
95 1 40.7192 24.3173 19.0055
96 1 7.33305 -0.081349 13.7392
97 1 3.56383 8.92481 32.9034
98 1 20.8808 16.8511 29.1119
99 1 42.7537 36.4822 5.76574
100 1 3.42221 5.98565 26.9612
101 1 0.667903 33.7379 47.3268
102 1 5.18237 0.845608 12.0471
103 1 41.7871 43.076 55.9913
104 1 14.6174 55.0475 39.3729
105 1 31.6806 13.9683 10.6694
106 1 18.8735 48.247 47.5423
107 1 34.0653 0.696444 42.7666
108 1 46.5317 17.5333 47.138
109 1 10.1934 45.9629 16.7139
110 1 31.3705 9.15132 10.9712
111 1 37.8571 51.9939 13.6503
112 1 5.47018 5.25207 9.99958
113 1 28.7358 33.2697 11.1888
114 1 24.3707 16.9283 39.8729
115 1 42.9296 34.6514 31.4193
116 1 31.8036 6.08233 38.1378
117 1 -0.0627316 12.6584 40.728
118 1 3.89952 44.5502 32.0845
119 1 36.1999 36.0602 33.6708
120 1 14.8176 1.67613 39.8884
121 2 11.9719 38.8296 35.6954
122 2 51.2601 18.43 12.8476
123 2 55.0153 46.8301 20.9231
124 2 52.5915 29.6145 19.7575
125 2 53.8916 35.5464 38.3538
126 2 25.3798 7.55578 17.7305
127 2 12.3726 51.2388 15.6396
128 2 7.8721 29.8109 35.2736
129 2 55.2776 17.8753 7.34378
130 2 1.38983 21.0361 45.9136
131 2 52.2004 12.1304 47.25
132 2 38.9784 46.5785 17.8335
133 2 34.6486 42.873 16.2227
134 2 15.2137 5.26277 8.89389
135 2 42.9675 33.8927 3.75561
136 2 9.87653 0.463884 32.2523
137 2 40.7432 24.1983 46.7964
138 2 5.28519 4.5606 49.4805
139 2 31.199 14.7998 13.771
140 2 45.3476 27.1421 39.0548
141 2 8.00858 38.2706 22.854
142 2 29.5738 23.3941 40.2872
143 1 46.8687 20.1001 46.0966
144 1 29.2957 17.6034 13.2913
145 1 54.1018 12.6052 6.49938
146 1 52.1277 26.8092 15.3318
147 1 29.2176 27.9757 32.8914
148 1 26.4655 9.02647 40.5703
149 1 46.1471 5.99319 45.0504
150 1 24.9048 25.3231 9.41325
151 1 49.8169 24.2569 54.3792
152 1 10.1607 33.7131 45.4383
153 1 49.8811 48.2791 29.554
154 1 42.9748 41.5083 30.8686
155 1 32.449 18.5668 10.3652
156 1 7.962 33.4623 9.31945
157 1 51.4512 34.1667 21.9595
158 1 37.3805 5.49104 0.509419
159 1 54.8613 48.1524 13.7489
160 1 49.3215 2.72003 2.34584
161 1 10.2678 25.781 21.2878
162 1 12.9883 12.7519 44.1028
163 1 19.8355 21.4468 26.4939
164 1 56.1211 38.6117 11.76
165 1 51.5973 35.6948 6.24789
166 1 45.3746 41.7273 14.6795
167 1 31.6167 39.5188 46.2786
168 1 43.1586 7.6019 52.2477
169 1 28.847 48.2641 40.4095
170 1 39.3385 33.9286 47.1722
171 1 28.9502 35.1986 24.7739
172 1 21.4937 43.8451 28.3844
173 1 13.8972 39.9196 10.1201
174 1 35.2223 1.75577 32.3917
175 1 18.5046 28.0392 16.6884
176 1 39.5458 36.8334 6.4678
177 1 9.97579 4.57757 24.8247
178 1 11.6165 11.3637 9.73294
179 1 27.0793 44.8978 48.022
180 1 55.101 27.3019 8.34358
181 1 48.7296 42.8593 31.632
182 1 49.5313 30.4003 52.661
183 1 13.4717 20.6314 4.03577
184 1 25.6162 52.3763 11.8455
185 1 33.6239 10.2392 34.3461
186 1 44.1667 26.3316 26.702
187 1 1.4701 6.86271 53.5522
188 1 28.6198 39.4832 3.18613
189 1 13.1205 41.3164 34.1659
190 1 35.1493 48.9729 22.009
191 1 20.5135 19.0046 45.6675
192 1 52.3162 54.7975 6.99815
193 1 36.9919 8.62029 13.5113
194 1 35.741 3.92977 30.9746
195 1 17.6144 25.444 49.2677
196 1 35.061 4.98781 26.2032
197 1 7.13049 9.2902 49.4116
198 1 12.8938 17.4775 30.4743
199 1 31.4961 18.8507 3.09386
200 1 39.7531 20.5011 41.2944
201 1 26.7742 13.2591 16.0357
202 1 39.266 1.77408 2.6044
203 1 31.0149 27.3787 37.1554
204 1 41.0384 27.4304 19.192
205 1 7.7747 12.3298 2.82968
206 1 39.7565 25.6525 25.0645
207 1 0.0216599 45.0765 45.7301
208 1 31.9681 4.75519 10.7188
209 1 47.5435 6.63475 47.2437
210 1 27.3926 21.5555 41.7397
211 1 8.80954 5.36254 21.9313
212 1 43.058 27.6216 43.375
213 1 22.0978 12.3792 51.341
214 1 0.843541 37.7001 2.44951
215 1 11.4189 27.8377 23.1274
216 1 -0.171516 24.6728 50.9489
217 1 21.9999 8.64456 34.8517
218 1 1.40219 9.76126 54.6127
219 1 44.0564 51.6793 5.98941
220 1 47.5862 5.26669 42.7007
221 1 28.9082 0.299709 15.5813
222 1 2.66025 7.45484 21.4873
223 1 26.25 43.9185 2.85182
224 1 40.9998 11.0737 24.9837
225 1 43.9797 48.9333 38.5172
226 1 12.9198 42.1288 25.3192
227 1 19.9089 45.6962 33.3305
228 1 -0.0408733 20.3169 52.9451
229 1 10.8164 27.1667 43.1239
230 1 31.0085 29.8282 41.3122
231 1 31.8191 35.1994 25.4096
232 1 40.8844 17.0459 17.9268
233 1 50.9957 50.334 38.3406
234 1 10.7281 13.7369 51.2131
235 1 41.3909 18.387 42.2585
236 1 6.76468 47.5588 29.4551
237 1 52.9755 30.0538 23.6494
238 1 36.0166 0.126788 1.06588
239 1 34.1699 28.6599 5.89302
240 1 9.31423 32.8374 51.1422
241 1 20.1781 48.7909 10.8393
242 1 32.9013 11.3375 2.78407
243 1 7.62276 24.2099 33.4495
244 1 56.0795 42.8249 7.70394
245 1 1.46161 27.852 19.902
246 1 54.3624 5.49103 5.58495
247 1 54.4939 49.0541 11.2978
248 1 44.0894 0.230548 45.6953
249 1 10.7447 45.1226 48.7919
250 1 23.3722 24.6388 17.9606
251 1 18.33 38.0098 2.06541
252 1 47.7893 16.4359 38.9702
253 1 2.70945 27.0616 48.1615
254 1 11.8315 7.68603 32.7513
255 1 55.0926 9.05699 17.9878
256 1 30.7673 47.3611 24.4928
257 1 1.24639 12.2292 35.2725
258 1 33.401 18.3942 27.661
259 1 45.6903 45.8141 55.0199
260 1 24.6632 41.571 33.7955
261 1 31.9553 10.9225 39.6973
262 1 33.3541 47.1745 8.99795
263 2 44.0575 24.8066 29.4141
264 2 25.6155 47.0323 1.59444
265 2 49.857 7.64317 49.3789
266 2 6.86338 24.5077 38.6434
267 2 14.5658 21.4306 1.25908
268 2 4.50115 3.1422 24.5892
269 2 15.2097 2.35272 16.4709
270 2 44.5156 43.435 53.6712
271 2 53.8371 44.7085 26.2646
272 2 33.1767 40.3425 13.7944
273 2 33.1646 5.95486 34.9012
274 2 53.0471 27.1148 30.9396
275 2 27.2584 6.85143 53.2158
276 2 56.0968 14.0025 4.48622
277 2 1.12608 43.1213 39.5253
278 2 12.2538 34.4348 18.9806
279 2 43.8643 51.5817 46.3568
280 2 19.3781 55.193 22.1055
281 2 41.5071 17.1418 14.6782
282 2 15.1239 28.8358 8.3068
283 2 46.7245 47.7776 28.8767
284 2 16.8494 26.9284 34.9078
285 1 4.67695 35.3227 5.72235
286 1 49.4372 34.8152 19.9838
287 1 44.5201 1.68234 36.3346
288 1 25.3374 18.2878 29.7872
289 1 21.8103 28.2475 8.18356
290 1 50.7558 12.9478 23.8559
291 1 18.0202 43.7514 34.2938
292 1 40.6976 5.20073 44.1751
293 1 54.5518 19.7713 55.8281
294 1 30.9355 32.683 41.7082
295 1 47.0156 25.3699 29.9139
296 1 12.19 32.1988 35.3446
297 1 48.5048 14.1252 34.1998
298 1 31.0748 22.2729 12.9338
299 1 31.7047 18.6672 17.831
300 1 24.6609 31.5563 9.53839
301 1 24.5686 49.7915 23.2141
302 1 46.5595 33.5141 25.696
303 1 53.8481 3.30585 1.45041
304 1 13.7708 31.7239 52.3509
305 1 25.3326 38.6165 22.7907
306 1 28.8091 52.5058 32.9025
307 1 5.20846 40.0638 32.1011
308 1 39.8883 54.0428 45.443
309 1 49.5159 30.8918 28.2845
310 1 10.4659 53.2263 38.5249
311 1 37.9509 35.0911 5.27213
312 1 10.2556 7.60497 25.8447
313 1 4.9519 55.6479 18.0283
314 1 29.201 47.8765 53.1867
315 1 4.54085 6.00684 14.642
316 1 44.0277 10.2344 11.0092
317 1 30.3109 32.0851 39.0588
318 1 5.90095 23.2809 11.2805
319 1 3.0883 2.20339 18.1296
320 1 19.2794 33.7611 25.3958
321 1 26.0646 38.5312 34.2378
322 1 55.1476 21.7775 22.8429
323 1 11.1683 10.732 32.8296
324 1 18.3337 8.68316 32.2111
325 1 21.6278 45.8 42.8269
326 1 16.5544 31.8975 41.0728
327 1 12.4058 9.04522 34.9255
328 1 0.390667 8.1076 36.7431
329 1 4.00032 25.5958 44.9116
330 1 7.86703 30.5031 30.0878
331 1 15.6614 39.5708 52.3115
332 1 0.880023 44.1358 11.9456
333 1 16.0209 10.3386 10.135
334 1 33.6927 35.1557 22.6758
335 1 35.4815 13.3933 51.2035
336 1 50.0197 21.2199 13.1401
337 1 0.878643 34.1588 7.74205
338 1 9.75434 23.1923 22.0686
339 1 14.4462 22.6661 46.7376
340 1 24.9883 23.4068 26.2015
341 1 26.5466 50.8879 25.1332
342 1 -0.0503362 26.6726 17.6799
343 1 35.8757 14.2105 27.8133
344 1 33.0183 16.1133 11.3922
345 1 48.929 16.5257 4.16425
346 1 0.477953 6.63416 23.3002
347 1 19.741 18.3785 11.0889
348 1 12.9471 10.3539 22.9215
349 1 4.34885 37.3719 10.3202
350 1 55.3122 55.4799 53.725
351 1 45.1824 35.7624 5.63312
352 1 18.9295 8.50471 52.1446
353 1 24.544 34.6123 53.966
354 1 46.7672 37.247 39.5032
355 1 48.7473 28.547 39.1026
356 1 9.60284 40.3725 42.9239
357 1 20.0574 50.5054 52.7665
358 1 21.7099 23.9807 36.8603
359 1 29.1086 44.932 46.2657
360 1 16.5851 37.9096 45.4989
361 1 40.2347 22.092 44.1209
362 1 -0.121646 54.2512 1.81199
363 1 44.3327 18.5434 14.4642
364 1 40.8412 0.536961 33.1167
365 1 39.3819 47.7009 7.42448
366 1 15.3707 34.7369 14.4838
367 1 50.5736 46.8443 38.0403
368 1 40.6756 45.1195 26.4774
369 1 33.3123 14.5493 16.114
370 1 3.54007 40.671 50.567
371 1 19.5941 27.9738 48.883
372 1 13.6787 22.1727 33.6214
373 1 21.6787 55.8461 38.4601
374 1 47.4617 49.9838 2.7233
375 1 3.94663 52.9903 35.2212
376 1 42.7463 49.1119 25.2522
377 1 3.77466 22.8124 54.3864
378 1 28.9123 52.7924 21.3466
379 1 51.5348 39.2801 20.5759
380 1 10.8363 13.106 26.6752
381 1 26.2867 50.5178 28.8513
382 1 54.9436 22.6463 8.46165
383 1 12.5986 23.2239 23.0612
384 1 49.5299 16.4372 32.914
385 1 29.6342 9.2114 19.6674
386 1 36.0505 38.8902 23.0519
387 1 20.0647 35.7102 37.6105
388 1 24.4292 6.98211 40.0031
389 1 26.6047 11.2244 14.1705
390 1 45.4764 48.7259 31.712
391 1 6.61924 9.27155 6.97044
392 1 48.6642 48.9603 37.5061
393 1 3.30598 28.1058 0.910519
394 1 3.19612 37.905 46.5539
395 1 55.0949 7.52859 48.1454
396 1 14.4872 5.50767 23.8312
397 1 49.9045 25.7856 22.3785
398 1 22.0319 27.1299 55.1901
399 1 6.89185 54.4274 41.8855
400 1 35.6414 42.9166 27.7321
401 1 18.4405 30.5364 24.8679
402 1 31.7939 48.4602 43.561
403 1 13.0903 42.9103 28.38
404 1 26.7101 34.7151 45.7735
405 2 19.8701 7.928 14.0979
406 2 36.0768 30.787 7.74283
407 2 34.4487 12.9509 12.7164
408 2 24.7996 49.6097 12.7512
409 2 47.2206 0.0863092 16.4122
410 2 36.5561 49.368 16.3447
411 2 5.94934 41.5951 16.9618
412 2 53.4877 8.74399 35.9169
413 2 31.2271 21.4502 45.4988
414 2 12.5757 35.1649 47.7724
415 2 55.8312 51.8464 8.6652
416 2 52.1029 43.2481 55.2043
417 2 44.3334 4.9806 10.1601
418 2 7.37512 35.8672 11.2406
419 2 15.3987 54.3027 22.4787
420 2 23.7785 23.021 23.0001
421 2 41.3816 49.1962 9.56066
422 2 32.084 16.3525 8.17362
423 2 8.17229 0.496708 43.3362
424 2 52.1976 10.4986 4.83912
425 2 48.1857 52.0449 39.0425
426 2 37.3916 8.4005 38.09
427 1 29.7099 30.09 56.0008
428 1 1.16596 52.9274 0.206738
429 1 55.732 27.7255 51.1712
430 1 52.1078 54.9344 9.72767
431 1 20.1765 47.6629 26.4217
432 1 42.5834 8.00921 6.62893
433 1 42.5231 21.9702 11.6968
434 1 16.0553 24.9406 42.1146
435 1 22.8414 52.0968 8.40882
436 1 32.3417 31.9101 48.302
437 1 26.1589 24.1245 33.5563
438 1 47.1889 3.11471 35.4774
439 1 1.58168 38.2028 54.079
440 1 10.0447 23.6875 34.5556
441 1 22.2916 14.2707 10.6833
442 1 42.4955 18.8677 17.2487
443 1 42.2283 10.6559 27.6082
444 1 51.4905 42.1612 47.5551
445 1 5.15289 14.6437 17.6644
446 1 38.3082 31.3982 39.8703
447 1 20.714 51.9569 10.0615
448 1 34.6762 9.59068 44.6335
449 1 54.3045 6.75006 29.0793
450 1 47.1303 34.0028 2.47663
451 1 27.4288 48.9268 14.5691
452 1 51.2429 17.3067 19.2911
453 1 7.23626 19.9462 32.3568
454 1 5.6676 35.5633 51.9436
455 1 5.87402 23.1932 25.4919
456 1 46.3182 3.61501 51.6127
457 1 53.5685 39.2788 18.3907
458 1 27.0923 20.1335 36.6425
459 1 2.70898 34.9101 9.84329
460 1 26.841 0.557345 38.8797
461 1 7.90766 16.3708 17.3336
462 1 48.4434 27.653 9.31375
463 1 15.5695 2.19398 7.38626
464 1 31.822 52.5009 22.6623
465 1 7.53681 46.6602 17.5288
466 1 5.01132 47.71 5.06849
467 1 47.4296 10.83 38.1674
468 1 44.7885 54.1289 6.99264
469 1 14.9467 41.4206 23.4705
470 1 26.7213 0.220717 14.0852
471 1 26.9594 9.84861 3.49291
472 1 15.0349 37.6516 28.2199
473 1 48.5112 38.7814 46.9282
474 1 40.1591 12.3858 16.5639
475 1 22.8483 25.293 20.4351
476 1 12.3185 21.699 40.1937
477 1 49.3912 2.93936 37.3742
478 1 41.6674 7.39442 13.4065
479 1 55.8224 25.8613 35.1574
480 1 41.0839 8.18191 3.79137
481 1 25.5097 1.29776 50.7928
482 1 29.9804 37.0919 22.9633
483 1 46.4298 19.5596 34.3896
484 1 5.76473 37.2729 6.98371
485 1 18.3852 45.6186 25.5047
486 1 47.123 8.05208 43.0562
487 1 20.9157 12.4752 21.9227
488 1 4.90044 48.6792 21.3791
489 1 2.88395 44.7794 13.7031
490 1 24.4018 49.8709 26.1884
491 1 13.4491 29.6739 47.3635
492 1 27.258 24.7387 41.9068
493 1 44.6718 30.4292 34.1489
494 1 4.88086 54.5357 13.322
495 1 11.9584 33.8931 12.9959
496 1 39.2691 17.8349 37.4787
497 1 7.05058 17.0906 32.1784
498 1 19.7239 20.4217 8.79074
499 1 33.8313 29.6932 20.114
500 1 51.8713 3.24197 36.3679
501 1 15.8961 50.7392 43.5713
502 1 50.6887 42.9092 6.87518
503 1 42.9156 21.1396 42.9081
504 1 40.3881 47.0618 32.0373
505 1 38.4695 27.8708 3.61027
506 1 22.428 27.1635 42.0936
507 1 53.4756 54.4295 32.2902
508 1 10.5652 42.9738 17.3598
509 1 53.4418 29.4376 8.04411
510 1 30.587 0.880819 3.65772
511 1 49.8043 5.73781 5.95053
512 1 14.3273 50.4414 12.5624
513 1 28.107 30.4265 28.5683
514 1 28.3823 27.8635 21.0623
515 1 29.5398 12.7082 27.5617
516 1 5.15476 40.5684 37.0633
517 1 15.8584 3.12446 -0.00555949
518 1 23.9867 12.0574 13.4715
519 1 8.15121 11.7846 45.1767
520 1 35.9738 17.6861 4.54474
521 1 45.6256 25.0968 32.3719
522 1 7.57666 17.2451 0.476679
523 1 38.6792 1.49001 25.7455
524 1 40.1063 51.9122 32.3031
525 1 25.7348 41.5681 22.2558
526 1 26.2975 15.5356 30.475
527 1 29.1238 54.7406 23.4805
528 1 2.12263 6.51928 6.28826
529 1 40.259 8.63067 33.6361
530 1 38.9302 18.0488 16.0737
531 1 44.3175 7.81696 44.1504
532 1 35.2235 9.68785 11.6439
533 1 43.2366 5.98505 20.4518
534 1 19.9513 35.6645 20.7237
535 1 42.9366 0.387598 38.0509
536 1 38.0693 23.5997 21.3814
537 1 19.0112 22.3859 20.7602
538 1 6.71561 27.7141 2.51807
539 1 28.5694 37.9646 33.3985
540 1 48.2204 11.7615 16.3304
541 1 42.6149 5.83813 7.90277
542 1 32.9851 48.1171 35.9056
543 1 38.0998 44.7605 35.0736
544 1 31.8625 34.4722 15.1225
545 1 51.9083 24.8605 5.81676
546 1 23.8291 50.5145 40.7076
547 2 15.0055 40.2174 26.7168
548 2 12.8536 46.8104 1.4284
549 2 34.659 48.2832 25.675
550 2 55.7662 51.5624 12.7435
551 2 52.6698 6.96934 16.8481
552 2 9.72412 7.0577 35.2764
553 2 37.646 10.2277 16.7941
554 2 23.3426 5.75166 53.1526
555 2 14.6446 12.9123 21.5514
556 2 12.6489 41.6753 43.053
557 2 13.8302 5.71641 33.7325
558 2 17.4594 33.1631 3.31222
559 2 39.9815 17.1613 21.1689
560 2 5.13288 16.2402 29.3533
561 2 38.6167 12.5775 51.0636
562 2 3.86152 19.5845 28.5271
563 2 30.1953 47.195 34.7669
564 2 16.7279 5.25819 40.0357
565 2 20.3228 22.1634 34.9887
566 2 31.1841 13.701 38.8637
567 2 44.8127 38.4676 0.313925
568 2 43.7562 18.1257 20.1394
569 1 14.7502 1.23948 19.5064
570 1 52.3271 36.5221 49.2972
571 1 20.1917 14.3086 5.8122
572 1 46.4985 14.9083 53.2734
573 1 16.689 13.752 27.8996
574 1 30.0347 46.2792 17.2688
575 1 30.359 50.08 42.0224
576 1 14.1394 -0.0911889 11.4678
577 1 1.92791 6.16502 15.0303
578 1 55.4652 40.0163 44.5121
579 1 34.1771 44.7763 48.2834
580 1 21.1699 31.6253 6.45518
581 1 37.9245 10.4994 29.3517
582 1 12.18 41.3287 38.1599
583 1 45.4375 25.6647 18.2361
584 1 29.356 40.7199 30.2054
585 1 33.4791 8.42642 23.1052
586 1 55.5537 0.0797255 31.1391
587 1 10.8231 1.51514 7.12958
588 1 9.14656 44.2198 46.79
589 1 34.5678 47.3702 49.7123
590 1 55.8261 7.47097 6.98424
591 1 13.1363 9.46574 31.1131
592 1 52.8188 33.3521 6.74402
593 1 18.7437 24.6328 33.488
594 1 2.89936 42.3885 42.1059
595 1 33.9808 12.2567 43.8779
596 1 3.4804 4.90006 39.1665
597 1 28.7368 51.5612 7.65284
598 1 48.5936 47.399 25.2841
599 1 5.31416 3.77325 13.3714
600 1 11.7442 32.4421 4.36736
601 1 21.7075 42.3648 54.0194
602 1 3.14994 42.6909 15.7447
603 1 26.796 35.4173 52.2285
604 1 5.4675 21.7151 30.2299
605 1 29.7786 48.4336 31.7475
606 1 27.3196 46.821 33.0022
607 1 38.9696 14.1018 33.822
608 1 46.4014 18.3248 50.2848
609 1 33.7933 30.339 12.7182
610 1 43.4252 5.37079 45.4022
611 1 20.6145 44.9153 30.7715
612 1 17.9616 46.9046 45.4891
613 1 3.4352 51.3052 1.0514
614 1 53.8059 33.4603 10.7231
615 1 5.69438 42.7688 41.4618
616 1 41.1982 7.76865 50.3826
617 1 16.4436 11.7831 51.7896
618 1 6.54781 53.572 51.3609
619 1 36.8257 11.4015 26.9792
620 1 30.4207 28.1998 26.6886
621 1 53.3061 8.74487 27.4118
622 1 3.88034 29.7156 43.7521
623 1 14.9131 44.1963 11.9956
624 1 27.6546 9.40564 55.2039
625 1 10.3084 15.1261 25.0376
626 1 35.8054 25.7885 22.0535
627 1 34.5115 36.6528 56.1233
628 1 31.6692 10.3951 16.9845
629 1 42.14 46.4784 10.8856
630 1 38.464 0.756515 19.5856
631 1 43.8665 29.0554 13.8668
632 1 4.14876 32.4555 27.0324
633 1 16.1919 6.32269 49.5919
634 1 48.0206 46.1752 17.8502
635 1 31.8982 44.3134 23.0684
636 1 5.87967 6.34604 17.3158
637 1 0.533758 15.1787 39.7234
638 1 32.6182 47.2813 55.4011
639 1 28.8205 5.13851 4.5516
640 1 21.9654 53.5164 5.9425
641 1 55.7958 47.772 35.5985
642 1 53.5164 18.4013 10.3965
643 1 41.4219 27.8233 25.0211
644 1 20.3946 42.7133 46.1352
645 1 0.44858 19.8388 40.9411
646 1 13.1225 31.1018 12.7482
647 1 3.31007 29.6842 8.54434
648 1 19.3671 16.9692 5.11855
649 1 20.5852 20.3098 19.3391
650 1 15.119 4.07688 3.28278
651 1 30.2908 33.2395 33.487
652 1 49.0977 14.8381 40.7236
653 1 52.0987 30.5908 51.2631
654 1 29.4954 34.2653 56.1177
655 1 40.6763 4.68406 30.5962
656 1 36.7629 51.969 40.0634
657 1 55.7298 34.7276 20.8732
658 1 24.9325 8.38833 54.8165
659 1 38.8403 40.0621 50.295
660 1 1.69048 44.0124 6.53201
661 1 46.3874 36.4112 12.8203
662 1 15.5649 41.2585 44.4461
663 1 18.8483 37.2883 35.4485
664 1 53.9744 16.825 24.2708
665 1 34.4113 42.9907 23.0299
666 1 15.3633 8.7989 26.2965
667 1 35.8175 16.8502 28.1911
668 1 45.9546 12.1569 46.7505
669 1 51.2118 22.9154 15.48
670 1 50.5467 0.250364 7.99473
671 1 31.9704 4.30608 25.2043
672 1 1.90514 18.9652 8.96411
673 1 11.3831 4.42018 35.5601
674 1 46.2125 51.2176 7.47161
675 1 23.5644 7.77644 32.5663
676 1 55.9818 15.4485 23.0515
677 1 55.7946 35.9469 54.0302
678 1 15.8609 55.7183 17.7741
679 1 52.7919 12.4021 21.9392
680 1 28.5057 32.2084 46.1327
681 1 0.266683 26.0252 48.9226
682 1 7.17622 3.39903 44.8651
683 1 42.987 12.8436 21.0465
684 1 38.5509 32.0521 37.1731
685 1 22.7577 54.8249 15.0581
686 1 44.6801 14.9154 11.1813
687 1 47.171 55.3532 28.5844
688 1 20.514 7.11833 33.2379
689 2 21.3629 49.4861 24.2604
690 2 29.9885 50.3058 10.1318
691 2 34.4707 26.9517 39.006
692 2 7.9493 42.4525 49.1742
693 2 44.5435 48.1996 22.5801
694 2 3.09356 51.4621 54.1871
695 2 17.5415 14.9669 45.0351
696 2 16.1519 41.0394 8.3875
697 2 1.46225 18.3082 36.2598
698 2 17.1984 18.7238 6.84129
699 2 44.8037 11.4299 40.0787
700 2 38.2238 4.88288 3.78967
701 2 53.7007 27.4954 5.42399
702 2 36.2421 28.7031 27.3176
703 2 48.9886 45.7979 44.4039
704 2 54.444 12.81 17.4903
705 2 2.42401 37.0298 7.47164
706 2 2.11059 40.5274 44.4088
707 2 47.5472 17.091 18.9245
708 2 43.3575 54.5385 0.632064
709 2 43.9057 30.4992 42.1597
710 2 53.2337 48.3054 31.0078
711 1 36.7394 2.20673 46.1717
712 1 18.4459 30.2605 52.8505
713 1 0.972495 49.4641 44.2166
714 1 37.2948 30.424 24.8351
715 1 0.841067 11.2057 44.862
716 1 2.76376 15.9893 51.0925
717 1 47.4608 0.80243 2.91404
718 1 4.4669 41.9627 55.7259
719 1 41.8308 16.7719 52.824
720 1 19.1125 16.2623 13.052
721 1 31.0546 6.51796 5.1359
722 1 32.0129 37.8663 55.6075
723 1 19.402 14.9657 15.8034
724 1 48.4676 37.4269 53.5957
725 1 12.8825 45.8548 34.8691
726 1 31.4899 39.2517 42.8721
727 1 35.9491 52.7913 16.1688
728 1 28.2817 0.589326 55.0885
729 1 37.9509 3.66292 54.9555
730 1 5.89216 4.57875 37.383
731 1 54.5556 10.8769 20.08
732 1 12.7025 0.84469 15.083
733 1 36.2661 52.7975 55.0758
734 1 37.2647 43.709 17.8617
735 1 39.966 9.54736 1.27946
736 1 51.8941 19.2025 50.9936
737 1 30.9569 41.7723 27.5146
738 1 0.455119 11.4118 6.74787
739 1 21.679 19.1394 4.08258
740 1 40.3643 35.289 49.4749
741 1 53.9356 9.16363 32.6037
742 1 19.1912 40.5164 6.20293
743 1 45.1033 29.5641 27.1129
744 1 33.4706 55.8341 40.2523
745 1 44.9067 12.2856 12.9826
746 1 20.2441 17.9651 20.868
747 1 0.356176 2.98111 36.246
748 1 45.478 52.4044 1.8125
749 1 17.1223 13.2723 42.7194
750 1 23.5606 18.8231 2.06713
751 1 19.0209 32.6485 33.9943
752 1 14.9315 47.8171 38.8322
753 1 19.9648 10.108 43.6813
754 1 36.1718 54.052 27.3015
755 1 29.1101 18.3734 17.9507
756 1 31.6954 49.1609 53.6593
757 1 7.05987 22.1573 23.4055
758 1 54.7487 26.951 20.04
759 1 44.9268 7.12862 18.5229
760 1 19.2266 32.644 54.4259
761 1 51.171 15.1632 47.31
762 1 30.3922 52.7832 11.9062
763 1 24.0125 17.8756 8.50166
764 1 18.2057 13.2847 21.4554
765 1 42.497 19.9367 40.345
766 1 22.3454 30.7672 8.57223
767 1 4.32621 49.2997 24.1087
768 1 25.7506 22.1908 35.4857
769 1 18.4845 48.4293 54.454
770 1 18.6931 3.484 4.42131
771 1 11.3745 38.7444 44.2973
772 1 29.7593 13.0815 53.0485
773 1 10.1058 16.3541 45.7887
774 1 33.5477 2.20471 27.4173
775 1 46.1668 41.6049 30.0382
776 1 24.9363 55.9392 22.4643
777 1 45.5905 47.8454 25.7661
778 1 21.8142 33.6691 47.7162
779 1 40.8428 26.9206 44.9199
780 1 31.1648 46.9685 41.0086
781 1 20.2224 37.9836 24.933
782 1 4.63909 18.7064 15.5121
783 1 50.7308 0.741266 36.8857
784 1 44.271 27.9073 24.064
785 1 27.5949 26.1415 48.7638
786 1 15.3865 7.7426 41.9546
787 1 5.03668 31.0453 54.2784
788 1 2.05806 10.2978 37.0721
789 1 15.8205 45.8126 27.5417
790 1 51.2304 29.842 43.7597
791 1 37.0571 19.1357 24.556
792 1 25.9106 55.0056 19.6253
793 1 2.60906 50.4569 22.2971
794 1 30.0624 25.7837 28.0682
795 1 56.0367 21.1033 36.8018
796 1 44.4815 12.4051 4.18982
797 1 19.0594 11.1374 13.8228
798 1 42.6782 28.9315 54.6176
799 1 16.0831 35.5775 12.1456
800 1 17.0238 30.4939 55.0162
801 1 49.1798 48.4565 11.0231
802 1 21.1835 15.5374 36.6917
803 1 39.8972 45.2946 39.8351
804 1 51.7375 36.8141 9.42725
805 1 38.6376 44.5496 32.1416
806 1 13.2621 15.1662 37.1305
807 1 55.7592 15.9875 34.6773
808 1 48.9905 8.04447 38.8213
809 1 10.2573 12.3815 1.26293
810 1 7.93184 40.8169 32.3033
811 1 33.4051 22.1222 47.9403
812 1 53.3285 16.098 44.7969
813 1 0.513216 11.4064 2.59938
814 1 45.8196 4.92741 19.8194
815 1 4.4709 8.64692 41.7288
816 1 49.8989 5.03995 35.3754
817 1 44.0444 43.3786 29.3297
818 1 54.842 48.7577 55.5521
819 1 18.3151 37.1661 43.1884
820 1 53.4856 28.094 38.3529
821 1 32.1385 29.5936 38.9713
822 1 0.696406 4.06238 28.7991
823 1 53.5982 46.3335 37.5945
824 1 54.5666 0.105035 28.3538
825 1 17.1452 54.2413 29.9236
826 1 16.826 50.5509 3.88987
827 1 20.1533 33.6138 22.6175
828 1 32.476 19.1925 25.03
829 1 49.6485 55.9836 29.9407
830 1 51.5265 43.35 4.10271
831 2 6.90825 40.1941 39.9967
832 2 23.9509 14.1914 3.01757
833 2 19.8168 43.0958 23.6756
834 2 43.1626 27.2563 47.072
835 2 24.8913 0.190704 27.691
836 2 23.6835 14.4468 32.2449
837 2 15.5004 27.099 17.6516
838 2 23.3317 42.4912 47.4383
839 2 28.5598 35.5254 31.5781
840 2 19.4995 16.1894 53.2699
841 2 15.716 27.6708 26.4607
842 2 47.0745 9.52114 46.0284
843 2 42.1735 1.38745 30.0752
844 2 31.264 15.3447 18.4631
845 2 8.43576 51.8549 16.3904
846 2 41.2656 41.4188 48.5174
847 2 48.7185 54.9603 10.4069
848 2 47.7495 44.546 26.1117
849 2 23.1485 17.364 34.8173
850 2 22.5713 32.1852 44.5331
851 2 48.1845 -0.165267 53.9921
852 2 46.5045 39.0673 20.0764
853 1 39.7103 42.2029 9.82538
854 1 30.438 42.2303 46.9525
855 1 47.5449 26.7072 14.9441
856 1 11.7544 21.5273 27.8017
857 1 55.1241 17.3561 40.265
858 1 14.2008 50.418 48.6147
859 1 35.1378 24.7372 41.2098
860 1 9.64073 37.6251 4.13245
861 1 52.1355 36.2478 29.2001
862 1 54.3945 30.8629 5.76684
863 1 33.2131 11.2064 10.2543
864 1 47.6112 26.5518 49.805
865 1 14.4589 26.3525 14.4484
866 1 10.7544 33.4514 0.366118
867 1 50.966 22.135 37.3015
868 1 49.5183 1.55974 34.6222
869 1 53.6929 26.1649 52.6847
870 1 33.447 24.701 21.2565
871 1 10.1416 28.07 14.9056
872 1 53.3856 37.8931 40.5065
873 1 12.5037 39.7669 31.8085
874 1 54.1084 46.2168 1.23667
875 1 41.5131 29.5826 48.4901
876 1 -0.066459 16.5976 31.3407
877 1 0.204511 27.6078 22.689
878 1 4.14339 35.684 20.3613
879 1 10.8042 14.3737 30.8672
880 1 51.7284 11.5769 1.75264
881 1 31.5351 13.2134 48.2787
882 1 44.8263 22.5406 52.8015
883 1 26.4098 16.6081 12.7257
884 1 51.5237 54.284 36.6093
885 1 30.1355 23.5458 0.929679
886 1 39.4423 48.0951 2.16878
887 1 7.04925 15.6892 19.6436
888 1 2.72639 30.036 46.8002
889 1 46.4564 7.44691 34.4107
890 1 54.4588 2.80288 6.04716
891 1 53.1029 20.7863 37.9255
892 1 37.6501 0.258712 13.6049
893 1 14.3728 51.4894 34.0533
894 1 8.88696 41.1885 9.86047
895 1 4.99314 47.1796 31.4541
896 1 2.53533 40.7932 17.7988
897 1 27.793 52.7988 10.3439
898 1 40.9781 35.522 42.2875
899 1 16.646 18.8832 32.0468
900 1 9.21098 28.135 2.23433
901 1 34.2494 37.3463 41.9681
902 1 25.4626 46.1566 25.8703
903 1 3.72935 26.7558 8.91967
904 1 35.8724 35.49 11.4043
905 1 28.4845 30.2992 22.4392
906 1 17.5082 36.2536 7.52409
907 1 38.1166 54.2454 14.8912
908 1 1.18889 6.05868 34.9375
909 1 41.3542 4.55153 40.3485
910 1 52.6406 38.0238 7.18629
911 1 13.0878 8.53476 24.9665
912 1 17.0426 18.4257 36.4606
913 1 4.11819 45.2457 5.80807
914 1 53.1063 51.8388 31.0766
915 1 14.9618 22.5667 40.7713
916 1 28.4383 26.35 39.9713
917 1 35.1714 55.6678 4.51184
918 1 50.5007 34.75 14.7624
919 1 48.1592 40.8472 38.5901
920 1 11.6784 38.6233 38.9828
921 1 31.5788 55.0549 11.3822
922 1 17.3927 41.9096 31.7153
923 1 50.263 5.70643 38.6018
924 1 0.713933 11.2075 16.3578
925 1 45.3837 56.0158 4.81087
926 1 27.9756 49.7267 51.5418
927 1 52.6905 49.4898 43.5382
928 1 42.1316 11.9485 12.729
929 1 49.8477 33.156 7.17415
930 1 37.5571 54.9488 20.6936
931 1 16.9987 25.1099 31.5869
932 1 10.2623 49.8537 53.318
933 1 30.5411 7.28319 44.4331
934 1 24.7003 51.1421 54.6842
935 1 5.31263 39.471 55.1051
936 1 7.6889 32.7596 12.0014
937 1 37.7036 3.15237 43.5579
938 1 36.0998 6.02302 40.4204
939 1 5.68107 29.6786 15.9328
940 1 7.54748 39.2724 53.2889
941 1 36.4824 6.44467 35.4853
942 1 14.8298 46.446 45.3733
943 1 33.7961 36.4637 34.6713
944 1 8.86221 41.4151 15.8104
945 1 44.5345 21.2276 45.1998
946 1 9.6747 42.7323 44.4391
947 1 41.0373 31.42 40.8689
948 1 15.7475 55.8458 43.8282
949 1 49.7582 50.3253 15.7929
950 1 39.1642 27.5782 50.9998
951 1 15.1607 43.3642 53.7783
952 1 44.3283 0.673611 48.5482
953 1 25.9784 22.4865 51.351
954 1 10.8667 45.8651 40.7379
955 1 13.0053 21.9516 15.4974
956 1 12.3782 20.4963 8.2498
957 1 47.1456 43.9578 50.9762
958 1 11.3855 22.3941 32.3229
959 1 31.4539 50.0968 35.2948
960 1 54.1067 14.0798 12.345
961 1 36.806 41.537 42.3539
962 1 55.0879 6.16401 18.8546
963 1 7.58195 30.2732 47.3654
964 1 25.3921 14.6821 44.2401
965 1 15.4884 29.9804 35.6992
966 1 24.7145 42.4658 31.4453
967 1 14.0447 6.46843 13.5745
968 1 42.9768 9.92827 53.7924
969 1 31.951 37.2037 50.3448
970 1 31.0496 17.2483 15.6053
971 1 50.152 4.96388 43.9502
972 1 50.5433 6.89884 52.5164
973 2 45.2297 4.288 25.4732
974 2 46.1322 39.2814 35.0125
975 2 53.4304 39.1111 27.6669
976 2 17.1713 30.4578 49.9484
977 2 53.0909 36.4478 15.7505
978 2 52.2392 36.2736 19.6251
979 2 33.0115 42.3848 40.6764
980 2 54.8363 6.31582 44.9729
981 2 36.5259 12.1219 9.9805
982 2 54.4062 29.7726 49.2018
983 2 12.402 31.2027 1.47235
984 2 46.6958 23.0231 34.6683
985 2 52.429 2.01828 13.2832
986 2 7.40069 18.6127 37.8588
987 2 20.3671 6.56748 5.06466
988 2 2.4451 26.8153 51.8246
989 2 39.9948 28.0311 32.4175
990 2 54.165 10.1201 15.0913
991 2 22.8613 21.2509 17.5301
992 2 16.0388 15.7726 54.8625
993 2 1.46928 15.5835 55.858
994 2 53.3544 23.0875 35.2658
995 1 54.2118 3.30836 43.9378
996 1 51.4957 25.1788 47.487
997 1 24.353 2.00323 48.0903
998 1 6.7435 51.4636 35.4432
999 1 25.5465 51.1715 52.3089
1000 1 19.8545 8.79914 47.7507
1001 1 30.7985 30.3656 36.4717
1002 1 52.5483 26.2107 8.42019
1003 1 14.0069 28.9057 30.644