units           metal
boundary        p p p
atom_style      atomic
read_data      ../../data/T${T}.dat
read_data      ../../data/T300.dat
Reading data file ...
  orthogonal box = (-0.18159188 -0.18159188 -0.18159188) to (56.066085 56.066085 56.066085)
  3 by 4 by 4 MPI processor grid
  reading atoms ...
  9088 atoms
  reading velocities ...
  9088 velocities
  read_data CPU = 0.023 seconds
mass            1  26.98	#Al
mass            2  150.36	#Sm
pair_style      eam/fs
pair_coeff      * *  ../../Al90Sm10_MendelevM_2014.eam.fs  Al Sm

neighbor        2.0 bin
neigh_modify    delay 1

timestep 0.01
thermo 1000
reset_timestep 0
thermo_style custom step temp pe etotal press vol lx ly lz
fix             1 all nvt temp ${T} ${T} 0.1
fix             1 all nvt temp 300 ${T} 0.1
fix             1 all nvt temp 300 300 0.1
thermo_modify flush yes
fix nodrift all momentum 1  linear 1 1 1
fix com_seed all recenter INIT INIT INIT shift all
fix dsf all deform 1 x  wiggle 1.0  1000.0 y volume z volume units box
fix ps1 all ave/time 1 1 1000 c_thermo_press[1] c_thermo_press[2]  c_thermo_press[3] c_thermo_press[4]  c_thermo_press[5] c_thermo_press[6]  file  stress.${T}
fix ps1 all ave/time 1 1 1000 c_thermo_press[1] c_thermo_press[2]  c_thermo_press[3] c_thermo_press[4]  c_thermo_press[5] c_thermo_press[6]  file  stress.300
dump            1 all custom 100000 dump.${T} id type x y z
dump            1 all custom 100000 dump.300 id type x y z
dump_modify 1 sort id
run 1000000
Neighbor list info ...
  update every 1 steps, delay 1 steps, check yes
  max neighbors/atom: 2000, page size: 100000
  master list distance cutoff = 10
  ghost atom cutoff = 10
  binsize = 5, bins = 12 12 12
  1 neighbor lists, perpetual/occasional/extra = 1 0 0
  (1) pair eam/fs/intel, perpetual
      attributes: half, newton on, intel
      pair build: half/bin/newton/intel
      stencil: half/bin/3d/newton
      bin: intel
Per MPI rank memory allocation (min/avg/max) = 6.307 | 6.397 | 6.491 Mbytes
Step Temp PotEng TotEng Press Volume Lx Ly Lz 
       0    296.41553   -37931.637   -37583.471    4.9395565    177956.46    56.247676    56.247676    56.247676 
    1000    296.27767   -37923.503   -37575.499    289.02035    177956.46    56.310467    56.216307    56.216307 
    2000    301.59539   -37926.887   -37572.637    241.20795    177956.46     56.37301    56.185114    56.185114 
    3000    301.33026    -37919.64   -37565.702    522.47645    177956.46    56.435058    56.154219    56.154219 
    4000    301.73599   -37929.644   -37575.229    295.78414    177956.46    56.496366    56.123742    56.123742 
    5000    306.50149   -37921.567   -37561.554    556.90917    177956.46    56.556693    56.093802    56.093802 
    6000    299.81868   -37925.711   -37573.548    228.86633    177956.46    56.615801    56.064513    56.064513 
    7000     299.3617   -37918.818   -37567.192    526.10866    177956.46    56.673456    56.035988    56.035988 
    8000    302.54104   -37923.075   -37567.714    416.80509    177956.46     56.72943    56.008336    56.008336 
    9000    297.77786   -37919.173   -37569.407    516.71042    177956.46    56.783503    55.981662    55.981662 
   10000    298.27616   -37915.755   -37565.404    445.52309    177956.46    56.835462    55.956067    55.956067 
   11000    301.34444   -37912.739   -37558.784    650.49233    177956.46      56.8851    55.931648    55.931648 
   12000    302.20124   -37917.946   -37562.985    523.24973    177956.46    56.932223    55.908496    55.908496 
   13000    301.37186   -37919.472   -37565.484    402.10376    177956.46    56.976645    55.886697    55.886697 
   14000    301.21422   -37918.957   -37565.154    350.95005    177956.46     57.01819    55.866333    55.866333 
   15000    296.49753   -37915.641   -37567.379    503.53083    177956.46    57.056693     55.84748     55.84748 
   16000     303.8819   -37920.797   -37563.861    667.94078    177956.46    57.092004    55.830207    55.830207 
   17000    308.31702   -37918.426   -37556.281    392.13659    177956.46    57.123983    55.814577    55.814577 
   18000    303.73815   -37908.298   -37551.531    770.82285    177956.46    57.152503    55.800649    55.800649 
   19000    298.04143   -37914.504   -37564.428    537.65199    177956.46    57.177453    55.788473    55.788473 
   20000    302.16464   -37917.076   -37562.157    486.06913    177956.46    57.198733    55.778095    55.778095 
   21000    299.83074   -37916.169   -37563.992    318.38484    177956.46     57.21626    55.769551    55.769551 
   22000     300.7565   -37914.443   -37561.178    543.26537    177956.46    57.229964    55.762873    55.762873 
   23000    301.28321   -37912.159   -37558.275    713.74003    177956.46    57.239791    55.758086    55.758086 
   24000    302.53538   -37918.729   -37563.375    379.93735    177956.46    57.245703    55.755207    55.755207 
   25000    302.53459   -37912.057   -37556.703    536.33615    177956.46    57.247676    55.754246    55.754246 
   26000    299.21809    -37909.42   -37557.962    770.38211    177956.46    57.245703    55.755207    55.755207 
   27000    301.71746   -37911.458   -37557.065    583.71188    177956.46    57.239791    55.758086    55.758086 
   28000    297.98645   -37916.573   -37566.562    463.41252    177956.46    57.229964    55.762873    55.762873 
   29000    303.20803   -37910.401   -37554.256    934.06514    177956.46     57.21626    55.769551    55.769551 
   30000    299.88867    -37908.79   -37556.545    713.62861    177956.46    57.198733    55.778095    55.778095 
   31000    305.77859   -37917.295   -37558.131    420.75284    177956.46    57.177453    55.788473    55.788473 
   32000    303.85052   -37914.689    -37557.79    605.29199    177956.46    57.152503    55.800649    55.800649 
   33000    301.64186   -37915.671   -37561.366    705.61189    177956.46    57.123983    55.814577    55.814577 
   34000    302.68584   -37917.563   -37562.032    209.66364    177956.46    57.092004    55.830207    55.830207 
   35000    299.87852    -37913.76   -37561.526    520.58387    177956.46    57.056693     55.84748     55.84748 
   36000    295.49148   -37918.137   -37571.056    234.92153    177956.46     57.01819    55.866333    55.866333 
   37000    303.62366   -37918.386   -37561.754    351.98827    177956.46    56.976645    55.886697    55.886697 
   38000    299.96108    -37918.52   -37566.189    500.33811    177956.46    56.932223    55.908496    55.908496 
   39000    302.34232   -37916.628     -37561.5    601.68154    177956.46      56.8851    55.931648    55.931648 
   40000    303.81104   -37916.375   -37559.523    612.52265    177956.46    56.835462    55.956067    55.956067 
   41000    302.50974   -37919.224     -37563.9     492.9733    177956.46    56.783503    55.981662    55.981662 
   42000    302.54843   -37925.087   -37569.718    87.193077    177956.46     56.72943    56.008336    56.008336 
   43000    295.44075   -37923.645   -37576.624    275.44338    177956.46    56.673456    56.035988    56.035988 
   44000     296.5449   -37923.327   -37575.009     389.7939    177956.46    56.615801    56.064513    56.064513 
   45000    294.73856   -37918.049   -37571.853    326.68034    177956.46    56.556693    56.093802    56.093802 
   46000    297.77319   -37921.338   -37571.577    336.16578    177956.46    56.496366    56.123742    56.123742 
   47000    304.08306   -37923.275   -37566.103    331.78078    177956.46    56.435058    56.154219    56.154219 
   48000    297.14601   -37916.166   -37567.142    482.27092    177956.46     56.37301    56.185114    56.185114 
   49000    303.01954   -37923.495   -37567.573    349.46776    177956.46    56.310467    56.216307    56.216307 
   50000    303.28829   -37924.007   -37567.768    285.85544    177956.46    56.247676    56.247676    56.247676 
   51000    302.44407   -37928.325   -37573.078    275.69439    177956.46    56.184886    56.279098    56.279098 
   52000    302.20073   -37926.222   -37571.261    241.22467    177956.46    56.122343    56.310448    56.310448 
   53000     305.6092   -37919.852   -37560.887    395.04292    177956.46    56.060295    56.341602    56.341602 
   54000    302.84737    -37920.12   -37564.399    574.89707    177956.46    55.998986    56.372435    56.372435 
   55000    300.53398   -37919.714   -37566.711    539.50993    177956.46    55.938659    56.402824    56.402824 
   56000    297.22625   -37916.643   -37567.525    526.06503    177956.46    55.879552    56.432647    56.432647 
   57000    300.61551   -37922.344   -37569.245     340.0079    177956.46    55.821897    56.461782    56.461782 
   58000    293.15013   -37925.456   -37581.126    190.73086    177956.46    55.765923    56.490112    56.490112 
   59000    299.92734   -37919.943   -37567.652     499.8152    177956.46     55.71185    56.517519    56.517519 
   60000    299.51338   -37915.687   -37563.882    448.75262    177956.46    55.659891    56.543893    56.543893 
   61000    295.50358   -37917.337   -37570.243    453.80655    177956.46    55.610252    56.569123    56.569123 
   62000    302.84148   -37922.116   -37566.402    393.68772    177956.46    55.563129    56.593106    56.593106 
   63000    301.02585   -37912.699   -37559.117    752.76428    177956.46    55.518708    56.615742    56.615742 
   64000    294.87281   -37909.769   -37563.415    765.19587    177956.46    55.477163    56.636937    56.636937 
   65000    305.06311   -37914.084   -37555.761    696.79237    177956.46    55.438659    56.656601    56.656601 
   66000    298.09804   -37915.696   -37565.554    482.71674    177956.46    55.403348    56.674653    56.674653 
   67000    294.77635    -37907.24       -37561     540.8843    177956.46     55.37137    56.691017    56.691017 
   68000    297.08451   -37908.808   -37559.856    729.76888    177956.46    55.342849    56.705622    56.705622 
   69000    302.61408   -37911.537    -37556.09    928.15929    177956.46      55.3179    56.718409    56.718409 
   70000    297.63019    -37910.34   -37560.747     832.2823    177956.46     55.29662    56.729321    56.729321 
   71000    302.47782   -37910.036    -37554.75    609.29803    177956.46    55.279093    56.738314    56.738314 
   72000    303.43789    -37911.18   -37554.765    663.48726    177956.46    55.265389    56.745348    56.745348 
   73000    298.58571   -37910.339   -37559.625    624.73051    177956.46    55.255562    56.750394    56.750394 
   74000    305.85732   -37910.025   -37550.769    704.28249    177956.46     55.24965     56.75343     56.75343 
   75000    299.72765   -37911.904   -37559.848    806.58242    177956.46    55.247676    56.754444    56.754444 
   76000     297.6159   -37905.157   -37555.581    770.50702    177956.46     55.24965     56.75343     56.75343 
   77000    299.97821   -37913.086   -37560.736    672.72464    177956.46    55.255562    56.750394    56.750394 
   78000    300.86741   -37909.197   -37555.802    875.04753    177956.46    55.265389    56.745348    56.745348 
   79000    299.59115   -37903.647   -37551.751    931.90475    177956.46    55.279093    56.738314    56.738314 
   80000    298.65329   -37904.838   -37554.043    898.61892    177956.46     55.29662    56.729321    56.729321 
   81000    297.30513    -37908.22    -37559.01      594.907    177956.46      55.3179    56.718409    56.718409 
   82000    301.56565   -37912.099   -37557.884    546.95017    177956.46    55.342849    56.705622    56.705622 
   83000    300.04504   -37915.544   -37563.115    584.20373    177956.46     55.37137    56.691017    56.691017 
   84000    297.09947   -37910.469     -37561.5    702.27303    177956.46    55.403348    56.674653    56.674653 
   85000    302.21264   -37916.339   -37561.364    609.43132    177956.46    55.438659    56.656601    56.656601 
   86000     303.5861   -37909.363   -37552.774    610.44725    177956.46    55.477163    56.636937    56.636937 
   87000    303.58864   -37917.797   -37561.206    408.26727    177956.46    55.518708    56.615742    56.615742 
   88000    301.04846   -37920.954   -37567.346    516.93477    177956.46    55.563129    56.593106    56.593106 
   89000    300.78733   -37921.055   -37567.755    409.09859    177956.46    55.610252    56.569123    56.569123 
   90000    304.18408   -37917.821    -37560.53    705.53202    177956.46    55.659891    56.543893    56.543893 
   91000    301.88775   -37920.565   -37565.972    440.54388    177956.46     55.71185    56.517519    56.517519 
   92000    302.46648   -37923.771   -37568.497    449.31628    177956.46    55.765923    56.490112    56.490112 
   93000    295.59021   -37919.468   -37572.271    423.18268    177956.46    55.821897    56.461782    56.461782 
   94000    294.38142   -37915.985   -37570.209     459.2294    177956.46    55.879552    56.432647    56.432647 
   95000    307.93098   -37922.985   -37561.294    379.67476    177956.46    55.938659    56.402824    56.402824 
   96000    293.03339    -37926.22   -37582.027    353.18077    177956.46    55.998986    56.372435    56.372435 
   97000    301.22746   -37927.621   -37573.803    270.60764    177956.46    56.060295    56.341602    56.341602 
   98000    299.36218   -37924.807    -37573.18    276.60845    177956.46    56.122343    56.310448    56.310448 
   99000    298.92346   -37920.087   -37568.976    352.84726    177956.46    56.184886    56.279098    56.279098 
  100000    300.27586   -37925.139   -37572.439     423.7838    177956.46    56.247676    56.247676    56.247676 
  101000    297.12854   -37919.718   -37570.714      514.205    177956.46    56.310467    56.216307    56.216307 
  102000     299.9164   -37929.898    -37577.62    169.28206    177956.46     56.37301    56.185114    56.185114 
  103000    300.40795   -37923.209   -37570.354    439.58419    177956.46    56.435058    56.154219    56.154219 
  104000    303.36092   -37922.978   -37566.654    428.45822    177956.46    56.496366    56.123742    56.123742 
  105000    303.82593   -37924.115   -37567.245    151.28406    177956.46    56.556693    56.093802    56.093802 
  106000    301.62842   -37921.245   -37566.957    480.73276    177956.46    56.615801    56.064513    56.064513 
  107000    297.09767   -37923.398   -37574.431    288.93626    177956.46    56.673456    56.035988    56.035988 
  108000    303.76901   -37923.812   -37567.008    533.85198    177956.46     56.72943    56.008336    56.008336 
  109000    297.61432   -37922.223   -37572.649      368.282    177956.46    56.783503    55.981662    55.981662 
  110000    297.47076   -37913.695    -37564.29    569.28557    177956.46    56.835462    55.956067    55.956067 
  111000    302.21176   -37922.984    -37568.01    448.19322    177956.46      56.8851    55.931648    55.931648 
  112000    297.65632   -37918.208   -37568.585    516.48374    177956.46    56.932223    55.908496    55.908496 
  113000    297.46084   -37923.821   -37574.427    354.86416    177956.46    56.976645    55.886697    55.886697 
  114000    299.61094   -37915.811   -37563.892    518.38607    177956.46     57.01819    55.866333    55.866333 
  115000    301.52686   -37914.943   -37560.773    660.65512    177956.46    57.056693     55.84748     55.84748 
  116000    299.47516   -37916.629    -37564.87    622.59547    177956.46    57.092004    55.830207    55.830207 
  117000    296.62312   -37914.954   -37566.544    535.38315    177956.46    57.123983    55.814577    55.814577 
  118000     301.6128   -37912.952   -37558.682    530.77319    177956.46    57.152503    55.800649    55.800649 
  119000    300.82752   -37917.069   -37563.721    596.98048    177956.46    57.177453    55.788473    55.788473 
  120000    302.05083   -37912.493   -37557.708    641.09388    177956.46    57.198733    55.778095    55.778095 
  121000    302.57247   -37912.714   -37557.317    692.62307    177956.46     57.21626    55.769551    55.769551 
  122000    300.25603   -37918.194   -37565.517    507.29828    177956.46    57.229964    55.762873    55.762873 
  123000    298.04934   -37912.931   -37562.846    591.15933    177956.46    57.239791    55.758086    55.758086 
  124000    299.52385    -37909.08   -37557.264    614.07559    177956.46    57.245703    55.755207    55.755207 
  125000    301.83431   -37905.598   -37551.068    886.48006    177956.46    57.247676    55.754246    55.754246 
  126000     298.2987   -37917.315   -37566.938    390.32064    177956.46    57.245703    55.755207    55.755207 
  127000    298.24013   -37914.513   -37564.204     487.0231    177956.46    57.239791    55.758086    55.758086 
  128000     297.6688    -37910.92   -37561.282    719.41331    177956.46    57.229964    55.762873    55.762873 
  129000    300.36619   -37918.853   -37566.046    336.51803    177956.46     57.21626    55.769551    55.769551 
  130000    296.80601   -37919.129   -37570.504    521.97212    177956.46    57.198733    55.778095    55.778095 
  131000    299.51158   -37906.811   -37555.008    751.78789    177956.46    57.177453    55.788473    55.788473 
  132000    304.52778   -37910.246   -37552.552    693.18486    177956.46    57.152503    55.800649    55.800649 
  133000    300.76261   -37915.232    -37561.96    595.36456    177956.46    57.123983    55.814577    55.814577 
  134000    299.21542   -37923.575    -37572.12    396.69911    177956.46    57.092004    55.830207    55.830207 
  135000    300.69233   -37919.538   -37566.349    520.82899    177956.46    57.056693     55.84748     55.84748 
  136000    302.18495   -37918.983   -37564.041    549.58789    177956.46     57.01819    55.866333    55.866333 
  137000     300.5947    -37915.85   -37562.775    664.80067    177956.46    56.976645    55.886697    55.886697 
  138000    301.18332   -37922.184   -37568.418    437.06542    177956.46    56.932223    55.908496    55.908496 
  139000    304.40449   -37912.879    -37555.33    633.22401    177956.46      56.8851    55.931648    55.931648 
  140000    296.68144   -37919.532   -37571.053    372.04025    177956.46    56.835462    55.956067    55.956067 
  141000    300.26801   -37923.312   -37570.621    370.02513    177956.46    56.783503    55.981662    55.981662 
  142000    299.78727   -37916.016    -37563.89    490.04084    177956.46     56.72943    56.008336    56.008336 
  143000    301.47449   -37924.424   -37570.316    363.29523    177956.46    56.673456    56.035988    56.035988 
  144000    300.03195   -37920.306   -37567.892    328.85523    177956.46    56.615801    56.064513    56.064513 
  145000    298.08511   -37929.932   -37579.806    219.34468    177956.46    56.556693    56.093802    56.093802 
  146000    299.29528   -37928.566   -37577.018    178.18502    177956.46    56.496366    56.123742    56.123742 
  147000    300.67221   -37924.654   -37571.488    610.74684    177956.46    56.435058    56.154219    56.154219 
  148000    295.59695   -37920.164   -37572.959    396.45825    177956.46     56.37301    56.185114    56.185114 
  149000    302.01894    -37924.13   -37569.382    464.21728    177956.46    56.310467    56.216307    56.216307 
  150000    300.75952   -37924.348    -37571.08    302.11803    177956.46    56.247676    56.247676    56.247676 
  151000    302.40154   -37920.774   -37565.577    419.92356    177956.46    56.184886    56.279098    56.279098 
  152000    296.86341   -37926.615   -37577.923    195.49923    177956.46    56.122343    56.310448    56.310448 
  153000    297.65212   -37923.499   -37573.881    293.54436    177956.46    56.060295    56.341602    56.341602 
  154000    299.68951   -37922.302    -37570.29    337.54613    177956.46    55.998986    56.372435    56.372435 
  155000    301.42495   -37923.043   -37568.993    363.33373    177956.46    55.938659    56.402824    56.402824 
  156000    302.13028   -37920.388    -37565.51    430.01169    177956.46    55.879552    56.432647    56.432647 
  157000    299.43902   -37920.302   -37568.585     615.8227    177956.46    55.821897    56.461782    56.461782 
  158000    297.51913    -37923.02   -37573.557    334.34828    177956.46    55.765923    56.490112    56.490112 
  159000    304.34975   -37920.203   -37562.718    651.64917    177956.46     55.71185    56.517519    56.517519 
  160000    300.79637   -37916.479   -37563.168    666.77425    177956.46    55.659891    56.543893    56.543893 
  161000    296.97341    -37914.29   -37565.468    529.23125    177956.46    55.610252    56.569123    56.569123 
  162000    303.93721   -37916.137   -37559.137    637.83647    177956.46    55.563129    56.593106    56.593106 
  163000    298.77125   -37911.282   -37560.349    547.15901    177956.46    55.518708    56.615742    56.615742 
  164000    298.47728    -37915.03   -37564.442    570.43055    177956.46    55.477163    56.636937    56.636937 
  165000     297.5396   -37914.356   -37564.869    477.40308    177956.46    55.438659    56.656601    56.656601 
  166000    297.06777   -37911.257   -37562.325    790.79608    177956.46    55.403348    56.674653    56.674653 
  167000    301.00711   -37909.449    -37555.89    878.27063    177956.46     55.37137    56.691017    56.691017 
  168000    300.78896   -37911.841   -37558.538    550.16423    177956.46    55.342849    56.705622    56.705622 
  169000    299.25089   -37917.777   -37566.281    578.48785    177956.46      55.3179    56.718409    56.718409 
  170000    300.65656   -37911.513   -37558.365    648.74303    177956.46     55.29662    56.729321    56.729321 
  171000     299.0925   -37909.113   -37557.803    719.16339    177956.46    55.279093    56.738314    56.738314 
  172000    299.84833   -37908.524   -37556.326    741.23224    177956.46    55.265389    56.745348    56.745348 
  173000    301.80507    -37913.87   -37559.374    530.34742    177956.46    55.255562    56.750394    56.750394 
  174000    302.69622   -37907.667   -37552.124     853.8938    177956.46     55.24965     56.75343     56.75343 
  175000    304.01253   -37903.821   -37546.732    746.60556    177956.46    55.247676    56.754444    56.754444 
  176000    297.94866   -37909.448   -37559.482     623.9418    177956.46     55.24965     56.75343     56.75343 
  177000    297.81154   -37912.353   -37562.548     531.9561    177956.46    55.255562    56.750394    56.750394 
  178000    301.11326   -37913.085   -37559.401    727.09023    177956.46    55.265389    56.745348    56.745348 
  179000     303.0669   -37912.559   -37556.581    667.52304    177956.46    55.279093    56.738314    56.738314 
  180000    302.84182   -37912.423   -37556.709    643.46677    177956.46     55.29662    56.729321    56.729321 
  181000    299.10485   -37908.569   -37557.245    656.24632    177956.46      55.3179    56.718409    56.718409 
  182000    299.01791   -37917.158   -37565.936    735.19379    177956.46    55.342849    56.705622    56.705622 
  183000    299.78646   -37906.221   -37554.096    851.93448    177956.46     55.37137    56.691017    56.691017 
  184000    304.17202   -37914.327   -37557.051    719.41132    177956.46    55.403348    56.674653    56.674653 
  185000    293.28313    -37918.36   -37573.873    402.83822    177956.46    55.438659    56.656601    56.656601 
  186000       298.65   -37914.047   -37563.257    770.40637    177956.46    55.477163    56.636937    56.636937 
  187000    299.28885   -37917.144   -37565.604    637.52809    177956.46    55.518708    56.615742    56.615742 
  188000    297.71381   -37912.134   -37562.443    693.74217    177956.46    55.563129    56.593106    56.593106 
  189000    299.81678   -37915.474   -37563.314    599.87763    177956.46    55.610252    56.569123    56.569123 
  190000    299.57054   -37918.772     -37566.9    447.77486    177956.46    55.659891    56.543893    56.543893 
  191000    298.43627   -37920.637   -37570.098    466.72801    177956.46     55.71185    56.517519    56.517519 
  192000    300.63262   -37921.845   -37568.726     324.6252    177956.46    55.765923    56.490112    56.490112 
  193000    299.06457   -37925.581   -37574.304    123.26038    177956.46    55.821897    56.461782    56.461782 
  194000    300.54846    -37924.78    -37571.76    380.88812    177956.46    55.879552    56.432647    56.432647 
  195000    303.57251    -37926.21   -37569.637    373.12864    177956.46    55.938659    56.402824    56.402824 
  196000    300.02791   -37930.838   -37578.429    267.60775    177956.46    55.998986    56.372435    56.372435 
  197000    297.28572   -37921.992   -37572.804     241.4133    177956.46    56.060295    56.341602    56.341602 
  198000    295.86566     -37917.1    -37569.58      439.688    177956.46    56.122343    56.310448    56.310448 
  199000    300.76226   -37921.241    -37567.97    402.54271    177956.46    56.184886    56.279098    56.279098 
  200000    294.73074   -37920.743   -37574.556    499.53989    177956.46    56.247676    56.247676    56.247676 
  201000    297.77044   -37925.311   -37575.554    391.43492    177956.46    56.310467    56.216307    56.216307 
  202000    300.51386   -37922.731   -37569.751    233.58194    177956.46     56.37301    56.185114    56.185114 
  203000    299.59595   -37926.309   -37574.408    256.37452    177956.46    56.435058    56.154219    56.154219 
  204000    299.68253   -37923.263    -37571.26    402.86227    177956.46    56.496366    56.123742    56.123742 
  205000    301.76042   -37921.515   -37567.071    393.28085    177956.46    56.556693    56.093802    56.093802 
  206000    301.59018   -37930.478   -37576.234    148.17935    177956.46    56.615801    56.064513    56.064513 
  207000    298.95407   -37922.758    -37571.61    433.89989    177956.46    56.673456    56.035988    56.035988 
  208000    296.48474   -37921.109   -37572.861    367.22401    177956.46     56.72943    56.008336    56.008336 
  209000    300.21252   -37924.106   -37571.481    415.52859    177956.46    56.783503    55.981662    55.981662 
  210000    298.61825   -37913.595   -37562.842    607.59045    177956.46    56.835462    55.956067    55.956067 
  211000    299.37789   -37919.933   -37568.288    200.07358    177956.46      56.8851    55.931648    55.931648 
  212000    295.39241   -37922.052   -37575.088    460.56751    177956.46    56.932223    55.908496    55.908496 
  213000    301.64376   -37919.041   -37564.734    349.94254    177956.46    56.976645    55.886697    55.886697 
  214000    298.14747   -37913.171   -37562.971    660.88195    177956.46     57.01819    55.866333    55.866333 
  215000    299.71165   -37917.184   -37565.146     514.8198    177956.46    57.056693     55.84748     55.84748 
  216000    299.07764   -37914.933   -37563.641    560.34523    177956.46    57.092004    55.830207    55.830207 
  217000    298.63276   -37917.107   -37566.337    551.45364    177956.46    57.123983    55.814577    55.814577 
  218000    298.00894   -37910.807    -37560.77    800.21093    177956.46    57.152503    55.800649    55.800649 
  219000    302.33649    -37912.89    -37557.77    657.85839    177956.46    57.177453    55.788473    55.788473 
  220000    301.26064   -37906.666   -37552.809    815.92523    177956.46    57.198733    55.778095    55.778095 
  221000    301.52172   -37914.297   -37560.133    444.85736    177956.46     57.21626    55.769551    55.769551 
  222000    301.80069   -37915.935   -37561.444     618.1043    177956.46    57.229964    55.762873    55.762873 
  223000    299.75263   -37913.045   -37560.959    511.78571    177956.46    57.239791    55.758086    55.758086 
  224000    305.71012   -37913.536   -37554.453    597.57374    177956.46    57.245703    55.755207    55.755207 
  225000    299.95339   -37912.885   -37560.564    802.24252    177956.46    57.247676    55.754246    55.754246 
  226000    294.78676   -37910.568   -37564.315    471.56047    177956.46    57.245703    55.755207    55.755207 
  227000    295.45917   -37914.075   -37567.033    606.44356    177956.46    57.239791    55.758086    55.758086 
  228000    304.90348   -37910.718   -37552.582    626.46094    177956.46    57.229964    55.762873    55.762873 
  229000    296.45797   -37914.509   -37566.293    592.75986    177956.46     57.21626    55.769551    55.769551 
  230000    299.76455   -37920.185   -37568.086    374.74443    177956.46    57.198733    55.778095    55.778095 
  231000    301.01271   -37916.873   -37563.307    508.68507    177956.46    57.177453    55.788473    55.788473 
  232000    299.90333   -37916.166   -37563.903    520.94228    177956.46    57.152503    55.800649    55.800649 
  233000    302.00908   -37917.344   -37562.609    511.23903    177956.46    57.123983    55.814577    55.814577 
  234000    298.47068   -37915.308   -37564.728    688.86493    177956.46    57.092004    55.830207    55.830207 
  235000    299.08877   -37916.756    -37565.45    295.36843    177956.46    57.056693     55.84748     55.84748 
  236000    299.27538   -37916.275    -37564.75    430.22894    177956.46     57.01819    55.866333    55.866333 
  237000    300.52807   -37913.163   -37560.167    422.56149    177956.46    56.976645    55.886697    55.886697 
  238000    298.36364   -37918.838   -37568.384    607.60725    177956.46    56.932223    55.908496    55.908496 
  239000     302.6315     -37918.6   -37563.133    527.30911    177956.46      56.8851    55.931648    55.931648 
  240000    295.71845   -37926.881   -37579.534    100.00513    177956.46    56.835462    55.956067    55.956067 
  241000    299.34177   -37917.806   -37566.203    727.11728    177956.46    56.783503    55.981662    55.981662 
  242000    297.30901   -37927.089   -37577.874    283.70217    177956.46     56.72943    56.008336    56.008336 
  243000    301.65801   -37915.919   -37561.595    799.22354    177956.46    56.673456    56.035988    56.035988 
  244000    299.53572   -37924.235   -37572.404    490.47871    177956.46    56.615801    56.064513    56.064513 
  245000    298.91989   -37926.015   -37574.907    264.80599    177956.46    56.556693    56.093802    56.093802 
  246000    297.54196   -37925.535   -37576.046    431.99045    177956.46    56.496366    56.123742    56.123742 
  247000     299.3032   -37922.427    -37570.87     391.4116    177956.46    56.435058    56.154219    56.154219 
  248000    303.32416   -37925.622   -37569.341    271.97839    177956.46     56.37301    56.185114    56.185114 
  249000    300.73055   -37917.674    -37564.44     497.6804    177956.46    56.310467    56.216307    56.216307 
  250000    293.97261   -37927.476    -37582.18    203.95289    177956.46    56.247676    56.247676    56.247676 
  251000    304.72087   -37925.756   -37567.835    400.12798    177956.46    56.184886    56.279098    56.279098 
  252000    301.01973    -37926.98   -37573.406    114.00204    177956.46    56.122343    56.310448    56.310448 
  253000    298.52829    -37924.31   -37573.663     429.8957    177956.46    56.060295    56.341602    56.341602 
  254000    300.44281   -37924.918   -37572.022    370.60254    177956.46    55.998986    56.372435    56.372435 
  255000    300.84174   -37916.908   -37563.543    741.43978    177956.46    55.938659    56.402824    56.402824 
  256000    299.09286   -37918.658   -37567.347    277.51677    177956.46    55.879552    56.432647    56.432647 
  257000    303.15117   -37922.272   -37566.194    429.08889    177956.46    55.821897    56.461782    56.461782 
  258000    300.09517   -37919.208    -37566.72    286.50717    177956.46    55.765923    56.490112    56.490112 
  259000    298.59415   -37914.645    -37563.92    745.81558    177956.46     55.71185    56.517519    56.517519 
  260000    305.53173   -37917.973   -37559.099    733.33378    177956.46    55.659891    56.543893    56.543893 
  261000    301.35279   -37917.091   -37563.126    524.73628    177956.46    55.610252    56.569123    56.569123 
  262000    298.49071   -37918.124   -37567.521    389.56143    177956.46    55.563129    56.593106    56.593106 
  263000    303.12044   -37913.259   -37557.217    644.97795    177956.46    55.518708    56.615742    56.615742 
  264000    297.74166   -37918.429   -37568.705    387.10321    177956.46    55.477163    56.636937    56.636937 
  265000     296.4655   -37912.331   -37564.106    774.80332    177956.46    55.438659    56.656601    56.656601 
  266000    301.80365   -37914.783   -37560.289    723.71486    177956.46    55.403348    56.674653    56.674653 
  267000    298.96124   -37908.887   -37557.731    801.26921    177956.46     55.37137    56.691017    56.691017 
  268000    297.45516   -37910.816   -37561.429     805.1417    177956.46    55.342849    56.705622    56.705622 
  269000    298.99431   -37914.314    -37563.12    561.80548    177956.46      55.3179    56.718409    56.718409 
  270000    298.12439   -37913.236   -37563.063    499.95638    177956.46     55.29662    56.729321    56.729321 
  271000    298.91605   -37906.345   -37555.242    766.36083    177956.46    55.279093    56.738314    56.738314 
  272000    300.13435   -37905.891   -37553.357    683.92248    177956.46    55.265389    56.745348    56.745348 
  273000    301.45452   -37907.651   -37553.567     686.0976    177956.46    55.255562    56.750394    56.750394 
  274000    296.89046   -37909.549   -37560.826    755.65796    177956.46     55.24965     56.75343     56.75343 
  275000    300.70639   -37909.431   -37556.226    652.00493    177956.46    55.247676    56.754444    56.754444 
  276000    299.75912   -37915.086   -37562.993    636.57438    177956.46     55.24965     56.75343     56.75343 
  277000    297.52754   -37911.074   -37561.602    840.63282    177956.46    55.255562    56.750394    56.750394 
  278000    302.31554   -37909.006    -37553.91    921.05114    177956.46    55.265389    56.745348    56.745348 
  279000    297.53207   -37912.845   -37563.367    655.18317    177956.46    55.279093    56.738314    56.738314 
  280000    296.56805   -37908.011   -37559.666    761.05638    177956.46     55.29662    56.729321    56.729321 
  281000    298.81203    -37910.72   -37559.739    664.01832    177956.46      55.3179    56.718409    56.718409 
  282000    300.47508   -37910.344   -37557.409    557.62769    177956.46    55.342849    56.705622    56.705622 
  283000    302.57912   -37909.861   -37554.455    688.08459    177956.46     55.37137    56.691017    56.691017 
  284000    301.54817   -37918.278   -37564.084    455.43541    177956.46    55.403348    56.674653    56.674653 
  285000    299.31061   -37914.437    -37562.87    622.96132    177956.46    55.438659    56.656601    56.656601 
  286000    300.61703   -37912.451    -37559.35    657.68594    177956.46    55.477163    56.636937    56.636937 
  287000    300.11227   -37919.001   -37566.493    531.44501    177956.46    55.518708    56.615742    56.615742 
  288000    300.51861   -37916.679   -37563.693    482.98496    177956.46    55.563129    56.593106    56.593106 
  289000    301.27409    -37917.77   -37563.897    740.24714    177956.46    55.610252    56.569123    56.569123 
  290000    300.16475   -37920.716   -37568.147    525.61933    177956.46    55.659891    56.543893    56.543893 
  291000    297.88862   -37923.288   -37573.392    238.03881    177956.46     55.71185    56.517519    56.517519 
  292000    298.89964   -37924.696   -37573.612    266.05178    177956.46    55.765923    56.490112    56.490112 
  293000    297.27688   -37923.526   -37574.348    485.90201    177956.46    55.821897    56.461782    56.461782 
  294000    304.21435   -37921.005   -37563.679    680.81291    177956.46    55.879552    56.432647    56.432647 
  295000    301.29575   -37925.202   -37571.304    310.79546    177956.46    55.938659    56.402824    56.402824 
  296000    301.28242   -37918.441   -37564.559    486.86187    177956.46    55.998986    56.372435    56.372435 
  297000    300.33024   -37924.242   -37571.478    269.02768    177956.46    56.060295    56.341602    56.341602 
  298000    301.38029   -37919.884   -37565.887     496.0839    177956.46    56.122343    56.310448    56.310448 
  299000     300.1213   -37924.792   -37572.273    433.79421    177956.46    56.184886    56.279098    56.279098 
  300000    302.54371   -37922.783   -37567.419    324.94767    177956.46    56.247676    56.247676    56.247676 
  301000    298.45045   -37923.086    -37572.53    460.50447    177956.46    56.310467    56.216307    56.216307 
  302000    304.78421   -37918.139   -37560.143    521.35212    177956.46     56.37301    56.185114    56.185114 
  303000    300.18718   -37923.661   -37571.065    444.25874    177956.46    56.435058    56.154219    56.154219 
  304000    300.01787   -37920.254   -37567.857    609.97379    177956.46    56.496366    56.123742    56.123742 
  305000    296.85619    -37924.95   -37576.266    232.45409    177956.46    56.556693    56.093802    56.093802 
  306000    302.42175   -37921.799   -37566.578    381.76546    177956.46    56.615801    56.064513    56.064513 
  307000     301.6999   -37916.148   -37561.775    634.88351    177956.46    56.673456    56.035988    56.035988 
  308000    298.06223   -37918.813   -37568.713    602.53152    177956.46     56.72943    56.008336    56.008336 
  309000    298.98833   -37922.412   -37571.224    206.06979    177956.46    56.783503    55.981662    55.981662 
  310000    295.13345   -37916.166   -37569.507    390.02439    177956.46    56.835462    55.956067    55.956067 
  311000    297.72462   -37920.925   -37571.222     281.2792    177956.46      56.8851    55.931648    55.931648 
  312000    295.66934   -37920.652   -37573.363    324.90647    177956.46    56.932223    55.908496    55.908496 
  313000    302.70614   -37915.295    -37559.74    569.50625    177956.46    56.976645    55.886697    55.886697 
  314000    302.06434   -37916.815   -37562.014    750.22536    177956.46     57.01819    55.866333    55.866333 
  315000    298.11947   -37910.484   -37560.317    588.66266    177956.46    57.056693     55.84748     55.84748 
  316000    301.87274   -37920.502   -37565.926    485.91825    177956.46    57.092004    55.830207    55.830207 
  317000    300.47641   -37920.151   -37567.216    492.60324    177956.46    57.123983    55.814577    55.814577 
  318000    303.28924    -37915.12   -37558.881    565.91803    177956.46    57.152503    55.800649    55.800649 
  319000    298.87684   -37912.694   -37561.637    649.62726    177956.46    57.177453    55.788473    55.788473 
  320000    300.86316   -37915.914   -37562.524    572.48809    177956.46    57.198733    55.778095    55.778095 
  321000    301.99179   -37913.935   -37559.219    733.17893    177956.46     57.21626    55.769551    55.769551 
  322000    301.41072   -37913.385   -37559.352    652.59273    177956.46    57.229964    55.762873    55.762873 
  323000    298.80577   -37913.479   -37562.506    555.75052    177956.46    57.239791    55.758086    55.758086 
  324000    299.94946     -37909.1   -37556.784    798.15604    177956.46    57.245703    55.755207    55.755207 
  325000    300.95089   -37908.525   -37555.033    717.06052    177956.46    57.247676    55.754246    55.754246 
  326000     302.7736   -37912.964    -37557.33    622.73706    177956.46    57.245703    55.755207    55.755207 
  327000    298.54324   -37912.831   -37562.166    583.76877    177956.46    57.239791    55.758086    55.758086 
  328000    303.16385   -37913.351   -37557.259    392.18474    177956.46    57.229964    55.762873    55.762873 
  329000    302.34583   -37917.031     -37561.9    659.21517    177956.46     57.21626    55.769551    55.769551 
  330000    303.12639   -37913.386   -37557.338    588.49427    177956.46    57.198733    55.778095    55.778095 
  331000    300.15989    -37909.31   -37556.746    782.96054    177956.46    57.177453    55.788473    55.788473 
  332000    297.24378   -37914.949   -37565.811    570.00897    177956.46    57.152503    55.800649    55.800649 
  333000    299.83268    -37911.66    -37559.48    794.57217    177956.46    57.123983    55.814577    55.814577 
  334000    303.00293   -37912.097   -37556.194    679.46379    177956.46    57.092004    55.830207    55.830207 
  335000    304.29233   -37918.647   -37561.229    545.69203    177956.46    57.056693     55.84748     55.84748 
  336000    297.15596   -37916.279   -37567.243    524.70599    177956.46     57.01819    55.866333    55.866333 
  337000    304.11733   -37922.265   -37565.052    458.13342    177956.46    56.976645    55.886697    55.886697 
  338000    301.51555   -37921.811   -37567.654    110.35618    177956.46    56.932223    55.908496    55.908496 
  339000    298.82572   -37919.998   -37569.002    334.75498    177956.46      56.8851    55.931648    55.931648 
  340000    300.06408   -37924.834   -37572.383    195.88355    177956.46    56.835462    55.956067    55.956067 
  341000    297.96277   -37921.494   -37571.511    284.66523    177956.46    56.783503    55.981662    55.981662 
  342000    294.08278   -37916.204   -37570.778    562.50348    177956.46     56.72943    56.008336    56.008336 
  343000     302.5417    -37921.62   -37566.259    376.49716    177956.46    56.673456    56.035988    56.035988 
  344000     298.2782   -37922.971   -37572.618    427.08278    177956.46    56.615801    56.064513    56.064513 
  345000    302.26883   -37923.363   -37568.322    402.34937    177956.46    56.556693    56.093802    56.093802 
  346000    301.67736   -37926.022   -37571.676    215.53255    177956.46    56.496366    56.123742    56.123742 
  347000    298.89798   -37924.946   -37573.864    464.04852    177956.46    56.435058    56.154219    56.154219 
  348000    296.41135   -37921.853   -37573.693    397.78691    177956.46     56.37301    56.185114    56.185114 
  349000    300.47185   -37925.673   -37572.743    441.94765    177956.46    56.310467    56.216307    56.216307 
  350000    300.73901   -37920.133   -37566.889    607.02936    177956.46    56.247676    56.247676    56.247676 
  351000    300.38374   -37921.981   -37569.154    331.82093    177956.46    56.184886    56.279098    56.279098 
  352000    300.11029    -37924.84   -37572.335      429.903    177956.46    56.122343    56.310448    56.310448 
  353000    300.30398   -37922.791   -37570.058    560.23049    177956.46    56.060295    56.341602    56.341602 
  354000     298.7892   -37921.549   -37570.595    384.34339    177956.46    55.998986    56.372435    56.372435 
  355000    297.15402   -37920.532   -37571.499    243.70305    177956.46    55.938659    56.402824    56.402824 
  356000    297.92326   -37926.988   -37577.051    188.60709    177956.46    55.879552    56.432647    56.432647 
  357000    292.68897   -37916.827   -37573.038    561.88903    177956.46    55.821897    56.461782    56.461782 
  358000    299.99413   -37922.044   -37569.674    204.98202    177956.46    55.765923    56.490112    56.490112 
  359000    303.25982   -37919.761   -37563.556    541.31756    177956.46     55.71185    56.517519    56.517519 
  360000    303.06995   -37915.901   -37559.919    740.59039    177956.46    55.659891    56.543893    56.543893 
  361000    298.95412   -37916.561   -37565.414    502.14436    177956.46    55.610252    56.569123    56.569123 
  362000    304.44648   -37914.091   -37556.493    720.17173    177956.46    55.563129    56.593106    56.593106 
  363000    299.95035   -37918.429   -37566.112    535.34012    177956.46    55.518708    56.615742    56.615742 
  364000    299.49391   -37916.008   -37564.226    452.36249    177956.46    55.477163    56.636937    56.636937 
  365000    299.76431   -37910.536   -37558.437    745.64583    177956.46    55.438659    56.656601    56.656601 
  366000    296.53993   -37911.697   -37563.385    636.44948    177956.46    55.403348    56.674653    56.674653 
  367000    301.53563   -37910.976   -37556.796    723.95082    177956.46     55.37137    56.691017    56.691017 
  368000     297.6768   -37911.922   -37562.275    625.05415    177956.46    55.342849    56.705622    56.705622 
  369000    300.11439   -37912.716   -37560.206    616.11106    177956.46      55.3179    56.718409    56.718409 
  370000    300.21808    -37913.97   -37561.338    619.42523    177956.46     55.29662    56.729321    56.729321 
  371000    300.84273   -37908.846    -37555.48    857.98249    177956.46    55.279093    56.738314    56.738314 
  372000    296.31045   -37911.887   -37563.845    699.83953    177956.46    55.265389    56.745348    56.745348 
  373000    295.17176   -37914.537   -37567.832    601.13682    177956.46    55.255562    56.750394    56.750394 
  374000    302.21651   -37906.766   -37551.787    876.97432    177956.46     55.24965     56.75343     56.75343 
  375000    299.27713   -37909.939   -37558.412    669.55407    177956.46    55.247676    56.754444    56.754444 
  376000    304.72497   -37914.149   -37556.223    699.32663    177956.46     55.24965     56.75343     56.75343 
  377000    301.45413   -37914.235   -37560.151    668.52124    177956.46    55.255562    56.750394    56.750394 
  378000       299.74   -37916.925   -37564.854     515.3116    177956.46    55.265389    56.745348    56.745348 
  379000    303.49862   -37914.841   -37558.355    752.25735    177956.46    55.279093    56.738314    56.738314 
  380000    299.94925   -37906.114   -37553.798    931.23651    177956.46     55.29662    56.729321    56.729321 
  381000    297.84604   -37908.031   -37558.185    726.20132    177956.46      55.3179    56.718409    56.718409 
  382000    301.26399   -37904.665   -37550.804    823.72402    177956.46    55.342849    56.705622    56.705622 
  383000    300.20643   -37910.932   -37558.313    538.99116    177956.46     55.37137    56.691017    56.691017 
  384000    303.26409   -37912.133   -37555.923    691.49671    177956.46    55.403348    56.674653    56.674653 
  385000    299.29259   -37918.435    -37566.89    292.71682    177956.46    55.438659    56.656601    56.656601 
  386000     300.5236   -37917.344   -37564.352    686.66532    177956.46    55.477163    56.636937    56.636937 
  387000    298.37415   -37913.046    -37562.58     498.1439    177956.46    55.518708    56.615742    56.615742 
  388000    296.12465   -37912.903   -37565.079    488.73944    177956.46    55.563129    56.593106    56.593106 
  389000    299.78721   -37913.912   -37561.785     663.1784    177956.46    55.610252    56.569123    56.569123 
  390000    299.35857   -37918.675   -37567.052    454.33983    177956.46    55.659891    56.543893    56.543893 
  391000     302.1358    -37915.44   -37560.556    428.21869    177956.46     55.71185    56.517519    56.517519 
  392000    298.09719   -37917.874   -37567.733     398.8193    177956.46    55.765923    56.490112    56.490112 
  393000    302.50634    -37918.26    -37562.94    600.78743    177956.46    55.821897    56.461782    56.461782 
  394000    300.84745   -37922.376   -37569.004    366.14255    177956.46    55.879552    56.432647    56.432647 
  395000    298.66123   -37920.133   -37569.329    444.28875    177956.46    55.938659    56.402824    56.402824 
  396000    298.10129   -37923.679   -37573.533     170.1271    177956.46    55.998986    56.372435    56.372435 
  397000     298.8441   -37922.845   -37571.827    369.37507    177956.46    56.060295    56.341602    56.341602 
  398000     303.0747   -37925.018    -37569.03    255.05166    177956.46    56.122343    56.310448    56.310448 
  399000    300.63002   -37919.162   -37566.046    739.01546    177956.46    56.184886    56.279098    56.279098 
  400000    298.51355    -37922.87   -37572.239    523.48059    177956.46    56.247676    56.247676    56.247676 
  401000    299.68582   -37924.132   -37572.125    293.49397    177956.46    56.310467    56.216307    56.216307 
  402000    303.46815   -37925.561   -37569.112    463.91836    177956.46     56.37301    56.185114    56.185114 
  403000      298.769   -37923.566   -37572.636    304.02986    177956.46    56.435058    56.154219    56.154219 
  404000    298.98218   -37920.684   -37569.503    426.38434    177956.46    56.496366    56.123742    56.123742 
  405000    302.16779   -37923.263    -37568.34    554.84859    177956.46    56.556693    56.093802    56.093802 
  406000    300.52366   -37918.289   -37565.298    554.83026    177956.46    56.615801    56.064513    56.064513 
  407000    296.85854    -37924.73   -37576.044    267.19986    177956.46    56.673456    56.035988    56.035988 
  408000    299.53858   -37916.756   -37564.922    507.05984    177956.46     56.72943    56.008336    56.008336 
  409000    299.93507   -37921.614   -37569.314    397.14305    177956.46    56.783503    55.981662    55.981662 
  410000      303.057   -37924.794   -37568.827    370.69228    177956.46    56.835462    55.956067    55.956067 
  411000    302.74073   -37923.443   -37567.848    309.90559    177956.46      56.8851    55.931648    55.931648 
  412000    305.37302   -37916.544   -37557.857    563.44119    177956.46    56.932223    55.908496    55.908496 
  413000    304.91129   -37918.131   -37559.986    498.56183    177956.46    56.976645    55.886697    55.886697 
  414000    299.40647   -37914.328   -37562.649    611.82712    177956.46     57.01819    55.866333    55.866333 
  415000    296.86474   -37916.534   -37567.841    509.43824    177956.46    57.056693     55.84748     55.84748 
  416000    302.30764   -37918.372   -37563.286    467.33637    177956.46    57.092004    55.830207    55.830207 
  417000    301.41294   -37913.733   -37559.698    572.10497    177956.46    57.123983    55.814577    55.814577 
  418000    301.27223   -37917.193   -37563.323     350.4184    177956.46    57.152503    55.800649    55.800649 
  419000    298.79077    -37912.72   -37561.765    652.50803    177956.46    57.177453    55.788473    55.788473 
  420000    300.67554   -37920.416   -37567.247    275.12593    177956.46    57.198733    55.778095    55.778095 
  421000     298.4348   -37917.282   -37566.744    539.80371    177956.46     57.21626    55.769551    55.769551 
  422000    303.57889   -37912.941   -37556.361    401.39287    177956.46    57.229964    55.762873    55.762873 
  423000    299.04372   -37915.529   -37564.276    491.40696    177956.46    57.239791    55.758086    55.758086 
  424000    299.30113   -37918.912   -37567.357    402.18252    177956.46    57.245703    55.755207    55.755207 
  425000    300.03316   -37912.253   -37559.838    610.34167    177956.46    57.247676    55.754246    55.754246 
  426000    300.23264   -37910.627   -37557.978    583.67717    177956.46    57.245703    55.755207    55.755207 
  427000    303.78876   -37911.677    -37554.85    516.46874    177956.46    57.239791    55.758086    55.758086 
  428000    297.75114   -37914.332   -37564.598    609.01702    177956.46    57.229964    55.762873    55.762873 
  429000    298.71925   -37905.482   -37554.611    698.15901    177956.46     57.21626    55.769551    55.769551 
  430000    300.55579   -37914.282   -37561.253    509.12242    177956.46    57.198733    55.778095    55.778095 
  431000    298.77335   -37915.199   -37564.264    528.63005    177956.46    57.177453    55.788473    55.788473 
  432000    294.68456   -37912.735   -37566.603    507.63572    177956.46    57.152503    55.800649    55.800649 
  433000    300.09428    -37915.61   -37563.124    431.64362    177956.46    57.123983    55.814577    55.814577 
  434000    296.84172   -37910.988   -37562.322    551.63868    177956.46    57.092004    55.830207    55.830207 
  435000    298.17796   -37916.195   -37565.959    451.70433    177956.46    57.056693     55.84748     55.84748 
  436000     300.3813   -37916.434    -37563.61    549.88353    177956.46     57.01819    55.866333    55.866333 
  437000    299.10594   -37915.702   -37564.376    533.72262    177956.46    56.976645    55.886697    55.886697 
  438000    299.12586   -37913.357   -37562.008    482.03052    177956.46    56.932223    55.908496    55.908496 
  439000     300.8338   -37921.939   -37568.584    457.75952    177956.46      56.8851    55.931648    55.931648 
  440000    299.23938    -37914.59   -37563.107    468.91644    177956.46    56.835462    55.956067    55.956067 
  441000    300.80662   -37918.914    -37565.59    461.49577    177956.46    56.783503    55.981662    55.981662 
  442000    303.35329   -37919.596   -37563.281    496.83212    177956.46     56.72943    56.008336    56.008336 
  443000    294.86393   -37921.143   -37574.799    230.68687    177956.46    56.673456    56.035988    56.035988 
  444000    295.20137   -37924.142   -37577.402    260.25068    177956.46    56.615801    56.064513    56.064513 
  445000     297.5754   -37921.239   -37571.711    439.11167    177956.46    56.556693    56.093802    56.093802 
  446000    298.14501   -37921.549   -37571.352    353.34435    177956.46    56.496366    56.123742    56.123742 
  447000    302.98354    -37923.62   -37567.739    221.82953    177956.46    56.435058    56.154219    56.154219 
  448000    298.62021   -37923.399   -37572.644     285.4189    177956.46     56.37301    56.185114    56.185114 
  449000    300.37883   -37921.813   -37568.992    392.53849    177956.46    56.310467    56.216307    56.216307 
  450000    299.66482   -37929.109   -37577.127    168.53685    177956.46    56.247676    56.247676    56.247676 
  451000    298.65326   -37922.861   -37572.067    288.71241    177956.46    56.184886    56.279098    56.279098 
  452000    300.99709   -37926.065   -37572.518    147.94168    177956.46    56.122343    56.310448    56.310448 
  453000    304.14247   -37928.458   -37571.216    270.49653    177956.46    56.060295    56.341602    56.341602 
  454000    299.92182   -37924.485   -37572.201    237.91228    177956.46    55.998986    56.372435    56.372435 
  455000    297.20736   -37918.534   -37569.438    565.88911    177956.46    55.938659    56.402824    56.402824 
  456000    300.19908   -37922.188   -37569.578    437.33221    177956.46    55.879552    56.432647    56.432647 
  457000    299.19233   -37920.802   -37569.375    605.48935    177956.46    55.821897    56.461782    56.461782 
  458000    295.11004   -37918.891   -37572.258    531.76295    177956.46    55.765923    56.490112    56.490112 
  459000    300.26675   -37922.986   -37570.297    284.79279    177956.46     55.71185    56.517519    56.517519 
  460000    299.94439   -37918.634   -37566.323    225.76437    177956.46    55.659891    56.543893    56.543893 
  461000    300.57652   -37919.604   -37566.551    622.63943    177956.46    55.610252    56.569123    56.569123 
  462000    298.39779   -37919.042   -37568.548    371.32018    177956.46    55.563129    56.593106    56.593106 
  463000    300.94918   -37922.733   -37569.242    495.17486    177956.46    55.518708    56.615742    56.615742 
  464000    302.54447   -37911.876   -37556.511    641.60667    177956.46    55.477163    56.636937    56.636937 
  465000     294.7439     -37917.8   -37571.597    437.05394    177956.46    55.438659    56.656601    56.656601 
  466000    302.99691   -37918.972   -37563.076    536.34769    177956.46    55.403348    56.674653    56.674653 
  467000      303.139   -37916.125   -37560.062    512.98687    177956.46     55.37137    56.691017    56.691017 
  468000    300.98693   -37906.785    -37553.25    721.04343    177956.46    55.342849    56.705622    56.705622 
  469000    298.38163     -37908.8   -37558.325    580.96921    177956.46      55.3179    56.718409    56.718409 
  470000    297.28926   -37911.323   -37562.131    713.46644    177956.46     55.29662    56.729321    56.729321 
  471000     301.0412    -37909.64   -37556.041    742.80209    177956.46    55.279093    56.738314    56.738314 
  472000    295.17647   -37918.611     -37571.9    492.64591    177956.46    55.265389    56.745348    56.745348 
  473000    301.46136    -37909.08   -37554.987    704.51034    177956.46    55.255562    56.750394    56.750394 
  474000    298.93172   -37909.416   -37558.295    740.84708    177956.46     55.24965     56.75343     56.75343 
  475000    307.07306   -37909.498   -37548.814    788.40372    177956.46    55.247676    56.754444    56.754444 
  476000      297.046    -37911.79   -37562.883    682.34383    177956.46     55.24965     56.75343     56.75343 
  477000    294.14121    -37905.32   -37559.826    797.03244    177956.46    55.255562    56.750394    56.750394 
  478000     299.9276   -37913.524   -37561.233    562.79767    177956.46    55.265389    56.745348    56.745348 
  479000    301.22642   -37911.603   -37557.786    721.37406    177956.46    55.279093    56.738314    56.738314 
  480000    304.00215   -37906.429   -37549.353     796.4332    177956.46     55.29662    56.729321    56.729321 
  481000     303.4499   -37907.966   -37551.538     791.9694    177956.46      55.3179    56.718409    56.718409 
  482000    298.79099    -37912.28   -37561.324    589.30147    177956.46    55.342849    56.705622    56.705622 
  483000    299.38059   -37910.368   -37558.719    651.17808    177956.46     55.37137    56.691017    56.691017 
  484000     299.6744   -37908.567   -37556.574    800.99489    177956.46    55.403348    56.674653    56.674653 
  485000     299.1895   -37918.086   -37566.661    438.95218    177956.46    55.438659    56.656601    56.656601 
  486000    294.81914   -37913.302   -37567.011    639.77958    177956.46    55.477163    56.636937    56.636937 
  487000    302.61684   -37912.419   -37556.969     689.1857    177956.46    55.518708    56.615742    56.615742 
  488000    301.21523   -37914.935   -37561.132    637.42531    177956.46    55.563129    56.593106    56.593106 
  489000    301.24213   -37914.784   -37560.949    481.50741    177956.46    55.610252    56.569123    56.569123 
  490000    304.47789   -37917.117   -37559.481    625.75784    177956.46    55.659891    56.543893    56.543893 
  491000    295.10733   -37920.658   -37574.029    451.42937    177956.46     55.71185    56.517519    56.517519 
  492000     302.0978   -37919.479   -37564.639     526.2621    177956.46    55.765923    56.490112    56.490112 
  493000    301.55154   -37920.009   -37565.811    439.49862    177956.46    55.821897    56.461782    56.461782 
  494000    301.35319   -37924.845   -37570.879    447.44482    177956.46    55.879552    56.432647    56.432647 
  495000    299.87778   -37918.968   -37566.736    579.75497    177956.46    55.938659    56.402824    56.402824 
  496000    300.73429   -37921.664   -37568.425    481.24363    177956.46    55.998986    56.372435    56.372435 
  497000    300.29713   -37919.614   -37566.888    506.33848    177956.46    56.060295    56.341602    56.341602 
  498000    303.05654   -37921.564   -37565.597    418.20962    177956.46    56.122343    56.310448    56.310448 
  499000    300.74757   -37926.687   -37573.433    286.27003    177956.46    56.184886    56.279098    56.279098 
  500000    300.91821   -37919.328   -37565.874    385.96086    177956.46    56.247676    56.247676    56.247676 
  501000     297.3411   -37920.617   -37571.364    439.42485    177956.46    56.310467    56.216307    56.216307 
  502000      299.295   -37921.152   -37569.604    586.64688    177956.46     56.37301    56.185114    56.185114 
  503000    296.95854    -37924.15   -37575.347    506.58111    177956.46    56.435058    56.154219    56.154219 
  504000    298.58067   -37920.535   -37569.826    331.89107    177956.46    56.496366    56.123742    56.123742 
  505000    296.12147   -37922.277   -37574.456    402.19301    177956.46    56.556693    56.093802    56.093802 
  506000    298.03395   -37927.184   -37577.118    159.07946    177956.46    56.615801    56.064513    56.064513 
  507000    305.72566   -37926.885   -37567.784    274.92532    177956.46    56.673456    56.035988    56.035988 
  508000    304.41425   -37920.946   -37563.385    464.86556    177956.46     56.72943    56.008336    56.008336 
  509000    303.31966   -37921.288   -37565.013     393.6888    177956.46    56.783503    55.981662    55.981662 
  510000    301.58771   -37916.992   -37562.751    549.11035    177956.46    56.835462    55.956067    55.956067 
  511000    298.80171    -37923.94   -37572.972    309.76645    177956.46      56.8851    55.931648    55.931648 
  512000    296.55555   -37915.692   -37567.362    495.67027    177956.46    56.932223    55.908496    55.908496 
  513000    298.92347   -37920.417   -37569.305    383.32129    177956.46    56.976645    55.886697    55.886697 
  514000    299.50482   -37918.208   -37566.414    567.29084    177956.46     57.01819    55.866333    55.866333 
  515000    301.46732   -37915.759    -37561.66    587.62095    177956.46    57.056693     55.84748     55.84748 
  516000    301.25825   -37910.173   -37556.319    803.76437    177956.46    57.092004    55.830207    55.830207 
  517000    304.83113   -37913.222   -37555.171    358.44554    177956.46    57.123983    55.814577    55.814577 
  518000     301.7979   -37919.233   -37564.745    514.61075    177956.46    57.152503    55.800649    55.800649 
  519000    302.61003   -37916.134   -37560.692    679.15977    177956.46    57.177453    55.788473    55.788473 
  520000    301.07577   -37911.727   -37558.087    580.03641    177956.46    57.198733    55.778095    55.778095 
  521000    302.79804   -37908.721   -37553.058    726.35428    177956.46     57.21626    55.769551    55.769551 
  522000    298.64615   -37909.966    -37559.18    614.42116    177956.46    57.229964    55.762873    55.762873 
  523000    300.08948   -37915.166   -37562.685    642.84842    177956.46    57.239791    55.758086    55.758086 
  524000    305.92549   -37920.194   -37560.857    718.40607    177956.46    57.245703    55.755207    55.755207 
  525000    296.66033   -37909.203    -37560.75    654.54884    177956.46    57.247676    55.754246    55.754246 
  526000    299.09185   -37910.263   -37558.953    755.43209    177956.46    57.245703    55.755207    55.755207 
  527000    302.60748   -37909.222   -37553.784    822.26929    177956.46    57.239791    55.758086    55.758086 
  528000    303.20167    -37917.03   -37560.893    572.27066    177956.46    57.229964    55.762873    55.762873 
  529000    299.00464   -37913.702   -37562.495    604.74833    177956.46     57.21626    55.769551    55.769551 
  530000     302.1227    -37913.65   -37558.781    422.97578    177956.46    57.198733    55.778095    55.778095 
  531000    295.51402   -37916.622   -37569.515    439.56919    177956.46    57.177453    55.788473    55.788473 
  532000    299.17012    -37912.81   -37561.409    580.80681    177956.46    57.152503    55.800649    55.800649 
  533000    299.84072   -37918.279    -37566.09    652.28184    177956.46    57.123983    55.814577    55.814577 
  534000    296.04777   -37916.996   -37569.262    529.79851    177956.46    57.092004    55.830207    55.830207 
  535000    300.56452   -37917.784   -37564.745    724.36814    177956.46    57.056693     55.84748     55.84748 
  536000    293.37295   -37912.563   -37567.971    595.22223    177956.46     57.01819    55.866333    55.866333 
  537000    304.04871   -37920.527   -37563.395    428.46317    177956.46    56.976645    55.886697    55.886697 
  538000    296.43102   -37915.222   -37567.038    563.71394    177956.46    56.932223    55.908496    55.908496 
  539000    302.50617   -37915.916   -37560.596    482.71345    177956.46      56.8851    55.931648    55.931648 
  540000    301.64763   -37920.019   -37565.708    505.85506    177956.46    56.835462    55.956067    55.956067 
  541000    302.51988   -37923.401   -37568.065    596.15443    177956.46    56.783503    55.981662    55.981662 
  542000    299.49863   -37916.155   -37564.368    456.58998    177956.46     56.72943    56.008336    56.008336 
  543000    304.06187   -37921.771   -37564.624    445.86188    177956.46    56.673456    56.035988    56.035988 
  544000    295.48459   -37927.903   -37580.831    428.56331    177956.46    56.615801    56.064513    56.064513 
  545000    299.38371   -37929.591   -37577.939    381.92155    177956.46    56.556693    56.093802    56.093802 
  546000    297.06602   -37924.546   -37575.616     210.5506    177956.46    56.496366    56.123742    56.123742 
  547000    300.55293   -37925.982   -37572.957    406.90971    177956.46    56.435058    56.154219    56.154219 
  548000    301.44256   -37921.339   -37567.268    319.81128    177956.46     56.37301    56.185114    56.185114 
  549000    300.85982    -37919.43   -37566.044    605.69482    177956.46    56.310467    56.216307    56.216307 
  550000    301.03862   -37930.821   -37577.225    179.10484    177956.46    56.247676    56.247676    56.247676 
  551000    304.70542   -37923.522   -37565.619    233.37094    177956.46    56.184886    56.279098    56.279098 
  552000    302.53847    -37913.85   -37558.492    594.65526    177956.46    56.122343    56.310448    56.310448 
  553000    298.80639   -37925.242   -37574.268    216.64893    177956.46    56.060295    56.341602    56.341602 
  554000    301.98146    -37926.65   -37571.947    440.69189    177956.46    55.998986    56.372435    56.372435 
  555000    301.60563   -37919.683   -37565.421    487.42271    177956.46    55.938659    56.402824    56.402824 
  556000    294.42216   -37921.116   -37575.292    404.96421    177956.46    55.879552    56.432647    56.432647 
  557000    299.07109   -37921.711   -37570.426    504.87563    177956.46    55.821897    56.461782    56.461782 
  558000    303.39532    -37920.52   -37564.156    230.40713    177956.46    55.765923    56.490112    56.490112 
  559000    300.64041   -37917.963   -37564.835    421.58309    177956.46     55.71185    56.517519    56.517519 
  560000    302.49221   -37917.072   -37561.769    429.64927    177956.46    55.659891    56.543893    56.543893 
  561000     303.7177   -37914.214   -37557.471    779.29352    177956.46    55.610252    56.569123    56.569123 
  562000    299.57496   -37924.384   -37572.507    187.00938    177956.46    55.563129    56.593106    56.593106 
  563000    301.27668   -37909.375     -37555.5    944.14391    177956.46    55.518708    56.615742    56.615742 
  564000    299.65988   -37912.611   -37560.635    564.34319    177956.46    55.477163    56.636937    56.636937 
  565000    296.79317   -37915.713   -37567.103     518.3264    177956.46    55.438659    56.656601    56.656601 
  566000     297.7762   -37911.738   -37561.974    775.15088    177956.46    55.403348    56.674653    56.674653 
  567000    298.21991   -37913.175    -37562.89    659.24849    177956.46     55.37137    56.691017    56.691017 
  568000    297.85337   -37906.557   -37556.703     693.1879    177956.46    55.342849    56.705622    56.705622 
  569000    298.56332   -37908.101   -37557.412    548.74481    177956.46      55.3179    56.718409    56.718409 
  570000    299.49946   -37913.277   -37561.489    815.63637    177956.46     55.29662    56.729321    56.729321 
  571000    301.17893   -37910.319   -37556.558    649.39527    177956.46    55.279093    56.738314    56.738314 
  572000    301.44914   -37911.799   -37557.721    712.43596    177956.46    55.265389    56.745348    56.745348 
  573000    300.09586   -37908.805   -37556.316    704.56514    177956.46    55.255562    56.750394    56.750394 
  574000     306.0837   -37909.725   -37550.203    878.07404    177956.46     55.24965     56.75343     56.75343 
  575000    301.42274   -37915.338   -37561.291    612.62062    177956.46    55.247676    56.754444    56.754444 
  576000    300.58629   -37911.936   -37558.872    542.88973    177956.46     55.24965     56.75343     56.75343 
  577000    298.82414   -37910.783   -37559.788    717.93691    177956.46    55.255562    56.750394    56.750394 
  578000    298.53409    -37913.21   -37562.556    686.05541    177956.46    55.265389    56.745348    56.745348 
  579000     296.1105   -37911.623   -37563.816    750.43762    177956.46    55.279093    56.738314    56.738314 
  580000    297.94955   -37908.478    -37558.51    641.21487    177956.46     55.29662    56.729321    56.729321 
  581000    302.36324    -37909.23   -37554.078    717.26443    177956.46      55.3179    56.718409    56.718409 
  582000    302.29593   -37914.061   -37558.988     547.6148    177956.46    55.342849    56.705622    56.705622 
  583000    300.76169    -37916.96    -37563.69    549.10902    177956.46     55.37137    56.691017    56.691017 
  584000    297.96087   -37905.529   -37555.548    799.28393    177956.46    55.403348    56.674653    56.674653 
  585000    302.39491   -37917.597   -37562.408    519.63263    177956.46    55.438659    56.656601    56.656601 
  586000    302.73636   -37918.842   -37563.252     568.1752    177956.46    55.477163    56.636937    56.636937 
  587000    296.34839   -37917.239   -37569.152    647.77986    177956.46    55.518708    56.615742    56.615742 
  588000    304.42161   -37914.896   -37557.327    599.91441    177956.46    55.563129    56.593106    56.593106 
  589000    299.05225   -37912.359   -37561.096    750.21229    177956.46    55.610252    56.569123    56.569123 
  590000    298.50213   -37917.266    -37566.65    591.19003    177956.46    55.659891    56.543893    56.543893 
  591000    301.12733   -37920.363   -37566.663    367.16963    177956.46     55.71185    56.517519    56.517519 
  592000    299.22845   -37911.895   -37560.425    711.30198    177956.46    55.765923    56.490112    56.490112 
  593000    302.11949   -37922.118   -37567.252    380.19378    177956.46    55.821897    56.461782    56.461782 
  594000     301.2654   -37927.278   -37573.415    121.94582    177956.46    55.879552    56.432647    56.432647 
  595000    297.26862   -37925.443   -37576.275    381.54933    177956.46    55.938659    56.402824    56.402824 
  596000    300.60121   -37926.813   -37573.731    283.08835    177956.46    55.998986    56.372435    56.372435 
  597000    298.37822   -37919.449   -37568.978    538.41743    177956.46    56.060295    56.341602    56.341602 
  598000     304.4396   -37918.703   -37561.112    596.62065    177956.46    56.122343    56.310448    56.310448 
  599000    301.69087   -37930.247   -37575.885    278.02544    177956.46    56.184886    56.279098    56.279098 
  600000    299.98463   -37926.903   -37574.545    204.31827    177956.46    56.247676    56.247676    56.247676 
  601000    301.82165   -37923.607   -37569.091    400.55183    177956.46    56.310467    56.216307    56.216307 
  602000    301.58398   -37927.381   -37573.144    214.24219    177956.46     56.37301    56.185114    56.185114 
  603000    300.81386   -37917.683   -37564.351    593.82028    177956.46    56.435058    56.154219    56.154219 
  604000    299.80345   -37921.884   -37569.739    358.38267    177956.46    56.496366    56.123742    56.123742 
  605000    297.24754   -37923.039   -37573.896     500.0067    177956.46    56.556693    56.093802    56.093802 
  606000    300.76387   -37920.258   -37566.984     463.8864    177956.46    56.615801    56.064513    56.064513 
  607000    298.09595    -37923.73    -37573.59    296.62318    177956.46    56.673456    56.035988    56.035988 
  608000    300.35018   -37920.221   -37567.434    408.15014    177956.46     56.72943    56.008336    56.008336 
  609000    300.11958   -37921.373   -37568.856    277.45888    177956.46    56.783503    55.981662    55.981662 
  610000    301.96891   -37922.053   -37567.364    213.33037    177956.46    56.835462    55.956067    55.956067 
  611000    297.52928   -37919.051   -37569.577    500.07269    177956.46      56.8851    55.931648    55.931648 
  612000    301.20111   -37922.634   -37568.848    233.65688    177956.46    56.932223    55.908496    55.908496 
  613000    300.09075    -37914.62   -37562.137    585.42482    177956.46    56.976645    55.886697    55.886697 
  614000    302.66354   -37916.573   -37561.069    397.87584    177956.46     57.01819    55.866333    55.866333 
  615000    298.57433   -37913.985   -37563.284    654.01602    177956.46    57.056693     55.84748     55.84748 
  616000    302.96375   -37917.291   -37561.434    411.63276    177956.46    57.092004    55.830207    55.830207 
  617000    306.40232   -37916.267   -37556.371     364.8271    177956.46    57.123983    55.814577    55.814577 
  618000    306.33651   -37917.189    -37557.37    602.95159    177956.46    57.152503    55.800649    55.800649 
  619000    297.68346   -37913.337   -37563.681    697.63088    177956.46    57.177453    55.788473    55.788473 
  620000    300.23506   -37911.717   -37559.064    658.31541    177956.46    57.198733    55.778095    55.778095 
  621000    300.54485   -37913.722   -37560.706    702.55456    177956.46     57.21626    55.769551    55.769551 
  622000    298.99194   -37917.182    -37565.99    641.11313    177956.46    57.229964    55.762873    55.762873 
  623000    300.86295   -37915.173   -37561.783    595.00874    177956.46    57.239791    55.758086    55.758086 
  624000    301.41891   -37913.502   -37559.459    558.92481    177956.46    57.245703    55.755207    55.755207 
  625000    300.62436    -37916.21   -37563.101     678.4572    177956.46    57.247676    55.754246    55.754246 
  626000    304.97886   -37911.139   -37552.915    617.70724    177956.46    57.245703    55.755207    55.755207 
  627000    300.27536   -37921.549   -37568.849    216.86603    177956.46    57.239791    55.758086    55.758086 
  628000    301.80514   -37913.524   -37559.028    578.96545    177956.46    57.229964    55.762873    55.762873 
  629000    302.05111   -37914.487   -37559.702    577.81164    177956.46     57.21626    55.769551    55.769551 
  630000    298.93081   -37918.616   -37567.495    359.58705    177956.46    57.198733    55.778095    55.778095 
  631000    301.40756   -37912.388   -37558.358    606.61341    177956.46    57.177453    55.788473    55.788473 
  632000    303.28702   -37914.208   -37557.971    493.21277    177956.46    57.152503    55.800649    55.800649 
  633000    299.80488   -37915.571   -37563.424    634.28791    177956.46    57.123983    55.814577    55.814577 
  634000    299.34798   -37920.499   -37568.889    631.86526    177956.46    57.092004    55.830207    55.830207 
  635000    297.93414   -37919.126   -37569.177    544.51319    177956.46    57.056693     55.84748     55.84748 
  636000     300.8868   -37920.869   -37567.451    481.96891    177956.46     57.01819    55.866333    55.866333 
  637000     295.9244   -37923.852   -37576.263    339.27101    177956.46    56.976645    55.886697    55.886697 
  638000    299.33663   -37917.614   -37566.017    352.08663    177956.46    56.932223    55.908496    55.908496 
  639000    296.93769   -37925.451   -37576.672    363.27917    177956.46      56.8851    55.931648    55.931648 
  640000     303.8414   -37924.439    -37567.55    263.23911    177956.46    56.835462    55.956067    55.956067 
  641000    297.55907   -37922.761   -37573.252     321.5141    177956.46    56.783503    55.981662    55.981662 
  642000    297.02119   -37923.052   -37574.175    397.73889    177956.46     56.72943    56.008336    56.008336 
  643000    303.01532    -37919.13   -37563.212    574.38115    177956.46    56.673456    56.035988    56.035988 
  644000    302.57027   -37922.029   -37566.634    564.21258    177956.46    56.615801    56.064513    56.064513 
  645000    299.85011   -37923.234   -37571.034    377.40337    177956.46    56.556693    56.093802    56.093802 
  646000    299.62951   -37924.414   -37572.473     373.4662    177956.46    56.496366    56.123742    56.123742 
  647000    298.38539   -37920.458   -37569.979    390.93233    177956.46    56.435058    56.154219    56.154219 
  648000    301.41566   -37919.719   -37565.681    406.58559    177956.46     56.37301    56.185114    56.185114 
  649000    301.13225   -37922.927   -37569.221    242.49102    177956.46    56.310467    56.216307    56.216307 
  650000    303.95958   -37921.598   -37564.571    462.20364    177956.46    56.247676    56.247676    56.247676 
  651000    298.27228   -37917.478   -37567.132    498.40501    177956.46    56.184886    56.279098    56.279098 
  652000    303.35759   -37918.953   -37562.634    427.46061    177956.46    56.122343    56.310448    56.310448 
  653000     301.6852   -37920.001   -37565.646    328.80968    177956.46    56.060295    56.341602    56.341602 
  654000    301.94367   -37921.396   -37566.737    415.29574    177956.46    55.998986    56.372435    56.372435 
  655000    298.92565   -37923.234    -37572.12    241.34698    177956.46    55.938659    56.402824    56.402824 
  656000    300.53546   -37918.956   -37565.951    381.09434    177956.46    55.879552    56.432647    56.432647 
  657000    302.51337    -37916.59   -37561.262    601.08464    177956.46    55.821897    56.461782    56.461782 
  658000    302.22754    -37921.95   -37566.958    530.06504    177956.46    55.765923    56.490112    56.490112 
  659000    304.00086   -37916.855    -37559.78     525.5354    177956.46     55.71185    56.517519    56.517519 
  660000    298.62262   -37919.614   -37568.856    512.43195    177956.46    55.659891    56.543893    56.543893 
  661000    297.85895   -37922.793   -37572.932    347.20229    177956.46    55.610252    56.569123    56.569123 
  662000    303.39888   -37914.898    -37558.53    655.50484    177956.46    55.563129    56.593106    56.593106 
  663000    298.03059   -37913.067   -37563.005    757.25524    177956.46    55.518708    56.615742    56.615742 
  664000    298.46282    -37911.15   -37560.579    548.29101    177956.46    55.477163    56.636937    56.636937 
  665000    301.79651   -37911.954   -37557.468    736.36996    177956.46    55.438659    56.656601    56.656601 
  666000    298.70847   -37912.079    -37561.22    740.93041    177956.46    55.403348    56.674653    56.674653 
  667000    295.81361   -37904.861   -37557.402    897.60888    177956.46     55.37137    56.691017    56.691017 
  668000    303.97379    -37910.61   -37553.566    653.06759    177956.46    55.342849    56.705622    56.705622 
  669000    303.22467   -37913.302   -37557.139    554.38192    177956.46      55.3179    56.718409    56.718409 
  670000    302.15431    -37909.93   -37555.023    884.05258    177956.46     55.29662    56.729321    56.729321 
  671000    300.11613   -37909.615   -37557.102    714.44555    177956.46    55.279093    56.738314    56.738314 
  672000    298.87128   -37912.781   -37561.731     703.1359    177956.46    55.265389    56.745348    56.745348 
  673000    301.25334   -37904.877   -37551.028    823.03446    177956.46    55.255562    56.750394    56.750394 
  674000    302.09431   -37915.521   -37560.685    524.37225    177956.46     55.24965     56.75343     56.75343 
  675000    299.43659   -37907.977   -37556.263    977.02817    177956.46    55.247676    56.754444    56.754444 
  676000    296.37608   -37912.492   -37564.373    641.06512    177956.46     55.24965     56.75343     56.75343 
  677000    300.96254    -37913.35   -37559.843    589.38222    177956.46    55.255562    56.750394    56.750394 
  678000    294.55157   -37912.267   -37566.291    709.63538    177956.46    55.265389    56.745348    56.745348 
  679000    303.33896   -37903.402   -37547.104    920.71567    177956.46    55.279093    56.738314    56.738314 
  680000    298.08392   -37905.543   -37555.418    885.47604    177956.46     55.29662    56.729321    56.729321 
  681000    297.59273   -37908.164   -37558.615    835.46717    177956.46      55.3179    56.718409    56.718409 
  682000    297.73864   -37912.829   -37563.109    601.76562    177956.46    55.342849    56.705622    56.705622 
[...]
  838000     298.4638   -37919.305   -37568.734    257.01636    177956.46    56.932223    55.908496    55.908496 
  839000    301.17998    -37915.83   -37562.068    299.46121    177956.46      56.8851    55.931648    55.931648 
  840000    307.60751   -37922.548   -37561.236    489.01919    177956.46    56.835462    55.956067    55.956067 
  841000      294.842   -37918.212   -37571.895    330.72851    177956.46    56.783503    55.981662    55.981662 
  842000    297.76243   -37917.873   -37568.125    589.21587    177956.46     56.72943    56.008336    56.008336 
  843000    294.85627   -37921.093   -37574.758    476.39139    177956.46    56.673456    56.035988    56.035988 
  844000    299.34063   -37925.843   -37574.241     162.4455    177956.46    56.615801    56.064513    56.064513 
  845000    301.40328    -37924.19   -37570.165    376.69917    177956.46    56.556693    56.093802    56.093802 
  846000    293.88753   -37920.539   -37575.343    344.12868    177956.46    56.496366    56.123742    56.123742 
  847000    302.12003   -37921.942   -37567.076    305.18261    177956.46    56.435058    56.154219    56.154219 
  848000    302.32804   -37927.693   -37572.583    432.50288    177956.46     56.37301    56.185114    56.185114 
  849000    300.38768   -37924.038   -37571.206    398.98543    177956.46    56.310467    56.216307    56.216307 
  850000    301.77802   -37921.763   -37567.298    261.26342    177956.46    56.247676    56.247676    56.247676 
  851000    297.04719   -37922.181   -37573.274    376.79223    177956.46    56.184886    56.279098    56.279098 
  852000    298.93646   -37926.359   -37575.232    229.33751    177956.46    56.122343    56.310448    56.310448 
  853000    299.91649   -37922.517   -37570.239    439.55733    177956.46    56.060295    56.341602    56.341602 
  854000    301.08109    -37924.51   -37570.864    362.30822    177956.46    55.998986    56.372435    56.372435 
  855000    303.26635   -37928.539   -37572.326    456.76604    177956.46    55.938659    56.402824    56.402824 
  856000    305.27487   -37921.417   -37562.846    406.53069    177956.46    55.879552    56.432647    56.432647 
  857000    301.70296   -37916.007   -37561.631    481.78946    177956.46    55.821897    56.461782    56.461782 
  858000    302.27906   -37920.858   -37565.805    467.91545    177956.46    55.765923    56.490112    56.490112 
  859000    300.91308   -37917.868    -37564.42    498.64246    177956.46     55.71185    56.517519    56.517519 
  860000    301.14296   -37914.395   -37560.676    758.79287    177956.46    55.659891    56.543893    56.543893 
  861000    303.03996    -37913.87   -37557.923    534.08509    177956.46    55.610252    56.569123    56.569123 
  862000    301.12105   -37919.635   -37565.942    460.64229    177956.46    55.563129    56.593106    56.593106 
  863000    302.07177   -37914.755   -37559.946    639.95227    177956.46    55.518708    56.615742    56.615742 
  864000    304.85337   -37913.064   -37554.987    575.22836    177956.46    55.477163    56.636937    56.636937 
  865000    296.79683    -37911.33   -37562.716    591.06888    177956.46    55.438659    56.656601    56.656601 
  866000    298.78423   -37911.905   -37560.957    506.55126    177956.46    55.403348    56.674653    56.674653 
  867000    302.38322   -37914.251   -37559.075    689.18592    177956.46     55.37137    56.691017    56.691017 
  868000    298.44378   -37913.144   -37562.596    554.27532    177956.46    55.342849    56.705622    56.705622 
  869000    301.91438   -37914.898   -37560.273    537.09624    177956.46      55.3179    56.718409    56.718409 
  870000     302.7338   -37904.423   -37548.836    977.88498    177956.46     55.29662    56.729321    56.729321 
  871000    298.69563   -37912.311   -37561.467    751.47477    177956.46    55.279093    56.738314    56.738314 
  872000    296.51138   -37908.862   -37560.584    627.56876    177956.46    55.265389    56.745348    56.745348 
  873000    303.76401   -37900.373   -37543.575    1015.7682    177956.46    55.255562    56.750394    56.750394 
  874000    302.94048   -37910.637   -37554.808    634.08391    177956.46     55.24965     56.75343     56.75343 
  875000    300.00873   -37900.561   -37548.174    816.76704    177956.46    55.247676    56.754444    56.754444 
  876000     301.3402   -37907.505   -37553.555    852.55707    177956.46     55.24965     56.75343     56.75343 
  877000    302.27356    -37905.99   -37550.943    642.02707    177956.46    55.255562    56.750394    56.750394 
  878000    300.04038   -37912.009   -37559.586     656.6428    177956.46    55.265389    56.745348    56.745348 
  879000    293.29953   -37909.411   -37564.905    631.27669    177956.46    55.279093    56.738314    56.738314 
  880000    299.85987       -37913   -37560.788    506.26187    177956.46     55.29662    56.729321    56.729321 
  881000    297.85626   -37910.996   -37561.138    580.32693    177956.46      55.3179    56.718409    56.718409 
  882000    301.18994   -37913.219   -37559.445    549.16757    177956.46    55.342849    56.705622    56.705622 
  883000    306.63539    -37917.31    -37557.14    407.26861    177956.46     55.37137    56.691017    56.691017 
  884000    298.28867   -37917.029   -37566.663    367.62932    177956.46    55.403348    56.674653    56.674653 
  885000    298.49984   -37908.668   -37558.054    671.96833    177956.46    55.438659    56.656601    56.656601 
  886000    298.59629   -37917.662   -37566.935    474.36902    177956.46    55.477163    56.636937    56.636937 
  887000    298.13673   -37916.746   -37566.558    357.88159    177956.46    55.518708    56.615742    56.615742 
  888000    302.22291   -37921.131   -37566.144    456.79218    177956.46    55.563129    56.593106    56.593106 
  889000    299.79365   -37924.684    -37572.55    345.51485    177956.46    55.610252    56.569123    56.569123 
  890000    303.88287   -37919.203   -37562.267    441.51026    177956.46    55.659891    56.543893    56.543893 
  891000    299.51158   -37915.661   -37563.859    472.33952    177956.46     55.71185    56.517519    56.517519 
  892000    298.84881   -37923.646   -37572.622    313.79441    177956.46    55.765923    56.490112    56.490112 
  893000    296.73265   -37919.515   -37570.976     230.0731    177956.46    55.821897    56.461782    56.461782 
  894000    304.22285   -37921.899   -37564.563     495.9631    177956.46    55.879552    56.432647    56.432647 
  895000    299.09477   -37923.682   -37572.369    191.16492    177956.46    55.938659    56.402824    56.402824 
  896000     296.3016   -37922.129   -37574.097    293.41147    177956.46    55.998986    56.372435    56.372435 
  897000    304.43603   -37921.495   -37563.909    503.61136    177956.46    56.060295    56.341602    56.341602 
  898000    303.95855   -37922.352   -37565.327    107.51558    177956.46    56.122343    56.310448    56.310448 
  899000    303.89376   -37926.896   -37569.946    188.85081    177956.46    56.184886    56.279098    56.279098 
  900000     301.0076   -37922.991   -37569.431    503.28432    177956.46    56.247676    56.247676    56.247676 
  901000    303.05966    -37927.62    -37571.65    354.42203    177956.46    56.310467    56.216307    56.216307 
  902000    299.28053   -37922.342   -37570.811    201.76234    177956.46     56.37301    56.185114    56.185114 
  903000    296.21451   -37927.248   -37579.318    291.80226    177956.46    56.435058    56.154219    56.154219 
  904000    296.11742   -37925.112   -37577.296    358.46493    177956.46    56.496366    56.123742    56.123742 
  905000    296.29455   -37925.673   -37577.649    71.948953    177956.46    56.556693    56.093802    56.093802 
  906000      303.572   -37919.851    -37563.28    446.80639    177956.46    56.615801    56.064513    56.064513 
  907000    300.87009   -37920.162   -37566.764    428.53576    177956.46    56.673456    56.035988    56.035988 
  908000    301.92015    -37917.93   -37563.298    420.55198    177956.46     56.72943    56.008336    56.008336 
  909000    301.08176   -37922.598   -37568.951     336.4776    177956.46    56.783503    55.981662    55.981662 
  910000    301.53457   -37916.478   -37562.299    445.13952    177956.46    56.835462    55.956067    55.956067 
  911000    300.28912   -37915.773   -37563.057    404.25055    177956.46      56.8851    55.931648    55.931648 
  912000    299.84149   -37924.385   -37572.196    348.32733    177956.46    56.932223    55.908496    55.908496 
  913000    297.03083   -37921.435   -37572.546    352.83439    177956.46    56.976645    55.886697    55.886697 
  914000     299.1719   -37918.318   -37566.914    480.53473    177956.46     57.01819    55.866333    55.866333 
  915000    298.79468   -37915.041    -37564.08    680.60007    177956.46    57.056693     55.84748     55.84748 
  916000    303.10377   -37918.933   -37562.911    369.64243    177956.46    57.092004    55.830207    55.830207 
  917000    301.18141   -37915.315   -37561.552    345.17478    177956.46    57.123983    55.814577    55.814577 
  918000    302.15681   -37909.606   -37554.697    692.18188    177956.46    57.152503    55.800649    55.800649 
  919000    295.96807   -37918.051   -37570.411    465.42022    177956.46    57.177453    55.788473    55.788473 
  920000    298.76995   -37913.017   -37562.085    636.41169    177956.46    57.198733    55.778095    55.778095 
  921000    299.45208    -37913.34   -37561.607    544.71396    177956.46     57.21626    55.769551    55.769551 
  922000    299.25393   -37915.877   -37564.377    705.79398    177956.46    57.229964    55.762873    55.762873 
  923000     302.0933   -37909.474    -37554.64    818.21627    177956.46    57.239791    55.758086    55.758086 
  924000    308.75853   -37917.906   -37555.242    473.76541    177956.46    57.245703    55.755207    55.755207 
  925000    301.97987   -37910.003   -37555.302    888.71495    177956.46    57.247676    55.754246    55.754246 
  926000    299.24931   -37906.438   -37554.944    734.88413    177956.46    57.245703    55.755207    55.755207 
  927000    294.41192   -37910.995   -37565.183    835.45214    177956.46    57.239791    55.758086    55.758086 
  928000    295.63777   -37913.553   -37566.301    357.43114    177956.46    57.229964    55.762873    55.762873 
  929000    304.09451   -37911.374   -37554.188    685.56722    177956.46     57.21626    55.769551    55.769551 
  930000    301.36405   -37914.893   -37560.915    469.75355    177956.46    57.198733    55.778095    55.778095 
  931000    301.26337     -37913.5    -37559.64    568.20401    177956.46    57.177453    55.788473    55.788473 
  932000    303.99507   -37916.291   -37559.222    555.00648    177956.46    57.152503    55.800649    55.800649 
  933000    301.05676   -37914.797    -37561.18    737.79127    177956.46    57.123983    55.814577    55.814577 
  934000    301.37732   -37919.961   -37565.967    568.56539    177956.46    57.092004    55.830207    55.830207 
  935000    298.39298   -37921.813   -37571.325    421.14436    177956.46    57.056693     55.84748     55.84748 
  936000    303.48463   -37912.823   -37556.354    415.66889    177956.46     57.01819    55.866333    55.866333 
  937000    305.87152   -37922.327   -37563.054    391.96193    177956.46    56.976645    55.886697    55.886697 
  938000    297.91308   -37922.621   -37572.696    218.70284    177956.46    56.932223    55.908496    55.908496 
  939000    292.13268   -37922.831   -37579.696    292.28426    177956.46      56.8851    55.931648    55.931648 
  940000    298.69046   -37924.732   -37573.894    197.23057    177956.46    56.835462    55.956067    55.956067 
  941000    300.52603   -37925.241   -37572.247    211.09641    177956.46    56.783503    55.981662    55.981662 
  942000    298.63499   -37919.212   -37568.439    578.31676    177956.46     56.72943    56.008336    56.008336 
  943000    299.25472   -37919.291   -37567.791    505.29976    177956.46    56.673456    56.035988    56.035988 
  944000    301.47617    -37926.19    -37572.08    376.18432    177956.46    56.615801    56.064513    56.064513 
  945000    298.42266   -37922.558   -37572.034    411.54641    177956.46    56.556693    56.093802    56.093802 
  946000     294.1497   -37922.526   -37577.022    353.45533    177956.46    56.496366    56.123742    56.123742 
  947000    299.83259   -37928.693   -37576.514    196.11453    177956.46    56.435058    56.154219    56.154219 
  948000    302.77784   -37924.895   -37569.256    455.59553    177956.46     56.37301    56.185114    56.185114 
  949000    301.32144   -37922.905   -37568.977    409.01577    177956.46    56.310467    56.216307    56.216307 
  950000    298.26868   -37919.308   -37568.965    477.09637    177956.46    56.247676    56.247676    56.247676 
  951000    299.41715   -37921.676   -37569.985    409.36592    177956.46    56.184886    56.279098    56.279098 
  952000    298.07827   -37919.594   -37569.475    582.62912    177956.46    56.122343    56.310448    56.310448 
  953000    298.94941   -37921.741   -37570.599    373.77163    177956.46    56.060295    56.341602    56.341602 
  954000    302.71014   -37926.605   -37571.045    369.47655    177956.46    55.998986    56.372435    56.372435 
  955000    303.83053   -37914.657   -37557.781    566.13892    177956.46    55.938659    56.402824    56.402824 
  956000     301.0971   -37926.992   -37573.327    425.13712    177956.46    55.879552    56.432647    56.432647 
  957000     296.8977    -37916.91   -37568.178    543.65711    177956.46    55.821897    56.461782    56.461782 
  958000    298.51481   -37916.901    -37566.27    509.56564    177956.46    55.765923    56.490112    56.490112 
  959000    298.29581   -37918.189   -37567.815    396.94819    177956.46     55.71185    56.517519    56.517519 
  960000    301.38284   -37919.498   -37565.498    544.43261    177956.46    55.659891    56.543893    56.543893 
  961000    292.20219   -37912.486   -37569.269    576.80816    177956.46    55.610252    56.569123    56.569123 
  962000    295.33927   -37918.871   -37571.969    435.87951    177956.46    55.563129    56.593106    56.593106 
  963000    295.39904   -37913.288   -37566.316    515.58887    177956.46    55.518708    56.615742    56.615742 
  964000    301.21984   -37908.092   -37554.283     421.3288    177956.46    55.477163    56.636937    56.636937 
  965000    304.60731   -37914.829   -37557.041      449.266    177956.46    55.438659    56.656601    56.656601 
  966000    300.47259   -37918.491    -37565.56    330.28018    177956.46    55.403348    56.674653    56.674653 
  967000     300.9251   -37915.178   -37561.715    522.42724    177956.46     55.37137    56.691017    56.691017 
  968000    301.82084   -37911.129   -37556.615    697.32289    177956.46    55.342849    56.705622    56.705622 
  969000    297.54158   -37908.076   -37558.588    792.75797    177956.46      55.3179    56.718409    56.718409 
  970000    296.55427   -37908.975   -37560.646     740.0703    177956.46     55.29662    56.729321    56.729321 
  971000    300.18785   -37905.306   -37552.709    920.43307    177956.46    55.279093    56.738314    56.738314 
  972000    295.40104   -37908.928   -37561.954      793.237    177956.46    55.265389    56.745348    56.745348 
  973000    298.13159   -37906.545   -37556.363    651.95333    177956.46    55.255562    56.750394    56.750394 
  974000     298.6303   -37912.454   -37561.687    788.36815    177956.46     55.24965     56.75343     56.75343 
  975000    298.16282   -37908.563   -37558.345    731.32357    177956.46    55.247676    56.754444    56.754444 
  976000    300.75331   -37909.782   -37556.521    787.09306    177956.46     55.24965     56.75343     56.75343 
  977000    298.79558   -37911.871    -37560.91    737.23526    177956.46    55.255562    56.750394    56.750394 
  978000    301.65281   -37912.707    -37558.39    675.61609    177956.46    55.265389    56.745348    56.745348 
  979000    297.65926   -37909.873   -37560.247    747.64967    177956.46    55.279093    56.738314    56.738314 
  980000    303.60936   -37909.417   -37552.801    859.68089    177956.46     55.29662    56.729321    56.729321 
  981000    298.93479   -37907.151   -37556.026    703.16026    177956.46      55.3179    56.718409    56.718409 
  982000    304.95364   -37908.649   -37550.455     626.5729    177956.46    55.342849    56.705622    56.705622 
  983000    301.12085   -37915.898   -37562.205    453.07386    177956.46     55.37137    56.691017    56.691017 
  984000    300.19434   -37918.551   -37565.946    529.09774    177956.46    55.403348    56.674653    56.674653 
  985000    299.40479    -37915.11   -37563.433    712.36776    177956.46    55.438659    56.656601    56.656601 
  986000    304.68597   -37916.922   -37559.042    615.92256    177956.46    55.477163    56.636937    56.636937 
  987000    299.14066   -37915.891   -37564.524    643.53577    177956.46    55.518708    56.615742    56.615742 
  988000    301.80315   -37912.736   -37558.242    706.95527    177956.46    55.563129    56.593106    56.593106 
  989000    295.36244   -37914.195   -37567.266     691.1172    177956.46    55.610252    56.569123    56.569123 
  990000    299.39491   -37917.387   -37565.721    516.03739    177956.46    55.659891    56.543893    56.543893 
  991000    304.03891   -37919.355   -37562.235     583.6762    177956.46     55.71185    56.517519    56.517519 
  992000    303.79496   -37913.816   -37556.982    633.45804    177956.46    55.765923    56.490112    56.490112 
  993000    302.38701   -37921.067   -37565.887    481.34714    177956.46    55.821897    56.461782    56.461782 
  994000    302.70731   -37921.144   -37565.588    692.58399    177956.46    55.879552    56.432647    56.432647 
  995000    301.65585   -37924.318   -37569.997    347.14602    177956.46    55.938659    56.402824    56.402824 
  996000    305.72679   -37925.014   -37565.912    522.54022    177956.46    55.998986    56.372435    56.372435 
  997000    297.65964   -37922.883   -37573.256    455.89981    177956.46    56.060295    56.341602    56.341602 
  998000    298.00418   -37924.084   -37574.053    244.80653    177956.46    56.122343    56.310448    56.310448 
  999000    301.12154   -37921.416   -37567.723    703.68438    177956.46    56.184886    56.279098    56.279098 
 1000000    299.39533   -37924.813   -37573.147    43.932105    177956.46    56.247676    56.247676    56.247676 
Loop time of 458.455 on 48 procs for 1000000 steps with 9088 atoms

Performance: 1884.589 ns/day, 0.013 hours/ns, 2181.237 timesteps/s
99.3% CPU use with 48 MPI tasks x 1 OpenMP threads

MPI task timing breakdown:
Section |  min time  |  avg time  |  max time  |%varavg| %total
---------------------------------------------------------------
Pair    | 321.16     | 334.85     | 349.6      |  31.5 | 73.04
Neigh   | 10.687     | 11.597     | 12.843     |  14.5 |  2.53
Comm    | 59.403     | 72.366     | 87.474     |  66.7 | 15.78
Output  | 0.063852   | 0.067737   | 0.19844    |   7.3 |  0.01
Modify  | 32.091     | 34.019     | 38.413     |  30.3 |  7.42
Other   |            | 5.556      |            |       |  1.21

Nlocal:        189.333 ave         200 max         177 min
Histogram: 1 1 2 10 9 4 14 2 4 1
Nghost:        2104.90 ave        2126 max        2089 min
Histogram: 8 5 3 4 8 9 2 4 4 1
Neighs:        20112.3 ave       21548 max       18558 min
Histogram: 2 2 4 5 12 6 4 7 4 2

Total # of neighbors = 965389
Ave neighs/atom = 106.22678
Neighbor list builds = 71662
Dangerous builds = 0
write_restart rst.${T}
write_restart rst.300
System init for write_restart ...
clear
OMP_NUM_THREADS environment is not set. Defaulting to 1 thread. (../comm.cpp:94)
  using 1 OpenMP thread(s) per MPI task
package intel 1
jump dms320.lmp
#MD-DMS by Ha-Bin Yu
variable T equal 320
log log.${T}
log log.320
