units           metal
boundary        p p p
atom_style      atomic
read_data      ../../data/T${T}.dat
read_data      ../../data/T850.dat
Reading data file ...
  orthogonal box = (-0.50364043 -0.50364043 -0.50364043) to (56.388133 56.388133 56.388133)
  3 by 4 by 4 MPI processor grid
  reading atoms ...
  9088 atoms
  reading velocities ...
  9088 velocities
  read_data CPU = 0.064 seconds
mass            1  26.98	#Al
mass            2  150.36	#Sm
pair_style      eam/fs
pair_coeff      * *  ../../Al90Sm10_MendelevM_2014.eam.fs  Al Sm

neighbor        2.0 bin
neigh_modify    delay 1

timestep 0.01
thermo 1000
reset_timestep 0
thermo_style custom step temp pe etotal press vol lx ly lz
fix             1 all nvt temp ${T} ${T} 0.1
fix             1 all nvt temp 850 ${T} 0.1
fix             1 all nvt temp 850 850 0.1
thermo_modify flush yes
fix nodrift all momentum 1  linear 1 1 1
fix com_seed all recenter INIT INIT INIT shift all
fix dsf all deform 1 x  wiggle 1.0  1000.0 y volume z volume units box
fix ps1 all ave/time 1 1 1000 c_thermo_press[1] c_thermo_press[2]  c_thermo_press[3] c_thermo_press[4]  c_thermo_press[5] c_thermo_press[6]  file  stress.${T}
fix ps1 all ave/time 1 1 1000 c_thermo_press[1] c_thermo_press[2]  c_thermo_press[3] c_thermo_press[4]  c_thermo_press[5] c_thermo_press[6]  file  stress.850
dump            1 all custom 100000 dump.${T} id type x y z
dump            1 all custom 100000 dump.850 id type x y z
dump_modify 1 sort id
run 1000000
Neighbor list info ...
  update every 1 steps, delay 1 steps, check yes
  max neighbors/atom: 2000, page size: 100000
  master list distance cutoff = 10
  ghost atom cutoff = 10
  binsize = 5, bins = 12 12 12
  1 neighbor lists, perpetual/occasional/extra = 1 0 0
  (1) pair eam/fs/intel, perpetual
      attributes: half, newton on, intel
      pair build: half/bin/newton/intel
      stencil: half/bin/3d/newton
      bin: intel
Per MPI rank memory allocation (min/avg/max) = 6.331 | 6.392 | 6.456 Mbytes
Step Temp PotEng TotEng Press Volume Lx Ly Lz 
       0    847.62134    -36961.91   -35966.305    1283.9569    184140.12    56.891773    56.891773    56.891773 
    1000    853.35819   -36905.613   -35903.269    2471.9284    184140.12    56.954564    56.860404    56.860404 
    2000    849.40362   -36934.796   -35937.098    1804.9352    184140.12    57.017107     56.82921     56.82921 
    3000    855.18371   -36924.441   -35919.954    2245.7745    184140.12    57.079155    56.798314    56.798314 
    4000    855.15631   -36902.234   -35897.779    2710.3841    184140.12    57.140463    56.767835    56.767835 
    5000    852.52276   -36923.462     -35922.1    2268.3903    184140.12     57.20079    56.737892    56.737892 
    6000    847.45108   -36928.737   -35933.332    1983.4047    184140.12    57.259898      56.7086      56.7086 
    7000     858.6785   -36941.459   -35932.867    1489.9565    184140.12    57.317553    56.680071    56.680071 
    8000    844.80217   -36923.049   -35930.756    1928.6344    184140.12    57.373527    56.652416    56.652416 
    9000    853.81289   -36942.989   -35940.112    1616.6035    184140.12      57.4276    56.625738    56.625738 
   10000    853.76953   -36923.128   -35920.302    2147.0707    184140.12    57.479559    56.600139    56.600139 
   11000    846.34692     -36929.8   -35935.692    1865.3251    184140.12    57.529197    56.575715    56.575715 
   12000    839.24813   -36923.076   -35937.306    1915.7725    184140.12    57.576321    56.552558    56.552558 
   13000    855.44803   -36932.176   -35927.378    1874.3301    184140.12    57.620742    56.530755    56.530755 
   14000    864.76979   -36911.246   -35895.498    2357.0811    184140.12    57.662287    56.510386    56.510386 
   15000    837.36913   -36928.474   -35944.911    1773.1182    184140.12     57.70079    56.491529    56.491529 
   16000    843.71323   -36941.306   -35950.291    1369.6949    184140.12    57.736101    56.474251    56.474251 
   17000    854.09945   -36943.282   -35940.068     1473.685    184140.12     57.76808    56.458618    56.458618 
   18000    835.51335   -36939.364   -35957.981    1927.1442    184140.12    57.796601    56.444686    56.444686 
   19000    848.92555    -36942.01   -35944.873     1557.225    184140.12     57.82155    56.432507    56.432507 
   20000    860.83545   -36957.119   -35945.993    1083.9022    184140.12     57.84283    56.422125    56.422125 
   21000    855.13356   -36943.393   -35938.965    1893.1055    184140.12    57.860357    56.413579    56.413579 
   22000    848.09844   -36941.887   -35945.721    2089.5301    184140.12    57.874061      56.4069      56.4069 
   23000    846.22889   -36948.337   -35954.368    1583.9312    184140.12    57.883888    56.402111    56.402111 
   24000    847.97028   -36934.144    -35938.13    1967.1481    184140.12      57.8898    56.399231    56.399231 
   25000    860.42179   -36928.632   -35917.992    2072.3595    184140.12    57.891773     56.39827     56.39827 
   26000    838.12985    -36944.37   -35959.914    1612.2332    184140.12      57.8898    56.399231    56.399231 
   27000     838.7879   -36937.531   -35952.301    1877.2498    184140.12    57.883888    56.402111    56.402111 
   28000    855.14672   -36930.505   -35926.061     1960.983    184140.12    57.874061      56.4069      56.4069 
   29000    856.50121   -36920.697   -35914.662     2167.559    184140.12    57.860357    56.413579    56.413579 
   30000     859.3336   -36922.604   -35913.242     2354.592    184140.12     57.84283    56.422125    56.422125 
   31000    848.42912   -36953.281   -35956.727    1405.8969    184140.12     57.82155    56.432507    56.432507 
   32000    848.52915   -36937.682   -35941.011    1805.7527    184140.12    57.796601    56.444686    56.444686 
   33000    834.50762   -36919.597   -35939.395    1979.6272    184140.12     57.76808    56.458618    56.458618 
   34000    839.22147   -36940.406   -35954.667    1361.9357    184140.12    57.736101    56.474251    56.474251 
   35000    863.20008   -36938.586   -35924.682    2185.3901    184140.12     57.70079    56.491529    56.491529 
   36000    855.31433   -36941.485   -35936.844    1783.2007    184140.12    57.662287    56.510386    56.510386 
   37000    845.29755   -36939.867   -35946.992    1696.0338    184140.12    57.620742    56.530755    56.530755 
   38000    845.83488   -36920.107   -35926.601    2262.1528    184140.12    57.576321    56.552558    56.552558 
   39000    838.53485   -36920.737   -35935.805    2236.9094    184140.12    57.529197    56.575715    56.575715 
   40000    852.99936   -36906.095   -35904.173    2791.8649    184140.12    57.479559    56.600139    56.600139 
   41000    864.93085   -36932.846    -35916.91    1846.9605    184140.12      57.4276    56.625738    56.625738 
   42000    847.33905   -36923.146   -35927.873    2470.0635    184140.12    57.373527    56.652416    56.652416 
   43000    854.66592   -36891.458   -35887.578    3344.4764    184140.12    57.317553    56.680071    56.680071 
   44000    856.63211   -36920.745   -35914.556    2074.5474    184140.12    57.259898      56.7086      56.7086 
   45000    849.35364   -36916.316   -35918.676    2644.2447    184140.12     57.20079    56.737892    56.737892 
   46000     853.1075   -36929.961   -35927.912    1826.1269    184140.12    57.140463    56.767835    56.767835 
   47000    862.25425   -36908.964   -35896.171    2539.6264    184140.12    57.079155    56.798314    56.798314 
   48000     855.9494   -36923.637    -35918.25    2208.7267    184140.12    57.017107     56.82921     56.82921 
   49000    857.82549   -36940.117   -35932.527    1835.0563    184140.12    56.954564    56.860404    56.860404 
   50000    850.68104   -36938.875   -35939.677    1900.8707    184140.12    56.891773    56.891773    56.891773 
   51000    832.16091   -36918.555    -35941.11    2067.3826    184140.12    56.828983    56.923195    56.923195 
   52000    838.61315   -36940.236   -35955.212    1743.1758    184140.12     56.76644    56.954544    56.954544 
   53000    858.76301   -36928.037   -35919.345    1830.8982    184140.12    56.704392    56.985696    56.985696 
   54000    847.83561   -36933.809   -35937.952    1791.8001    184140.12    56.643084    57.016528    57.016528 
   55000    859.03377   -36940.218   -35931.209       2266.6    184140.12    56.582756    57.046914    57.046914 
   56000    853.43353   -36916.556   -35914.124    2586.4858    184140.12    56.523649    57.076734    57.076734 
   57000    848.50303    -36930.04     -35933.4    1974.0277    184140.12    56.465994    57.105866    57.105866 
   58000    836.53945   -36922.648    -35940.06    2022.6849    184140.12     56.41002    57.134191    57.134191 
   59000    862.90931   -36915.405   -35901.843    2447.2084    184140.12    56.355947    57.161594    57.161594 
   60000     857.5418   -36930.623   -35923.366     1717.639    184140.12    56.303988    57.187963    57.187963 
   61000    847.69308   -36912.878   -35917.189    2282.8951    184140.12    56.254349    57.213189    57.213189 
   62000    844.36318   -36912.664   -35920.886    2314.4464    184140.12    56.207226    57.237167    57.237167 
   63000    861.69292    -36928.46   -35916.327    1889.6008    184140.12    56.162805    57.259798    57.259798 
   64000    862.56086   -36928.275   -35915.122    2254.1925    184140.12     56.12126    57.280988    57.280988 
   65000    852.13639   -36915.978    -35915.07    2355.9063    184140.12    56.082756    57.300648    57.300648 
   66000    846.47842   -36910.947   -35916.685     2930.619    184140.12    56.047446    57.318695    57.318695 
   67000    846.49136   -36913.293   -35919.016    2537.7287    184140.12    56.015467    57.335054    57.335054 
   68000    855.85909   -36914.487   -35909.206     2103.394    184140.12    55.986946    57.349656    57.349656 
   69000    849.21787   -36911.707   -35914.227    2205.2601    184140.12    55.961997    57.362439    57.362439 
   70000    853.60216   -36937.677   -35935.047    1503.4428    184140.12    55.940717    57.373348    57.373348 
   71000    854.48385   -36941.274   -35937.608    1613.7076    184140.12     55.92319    57.382338    57.382338 
   72000    855.25369   -36931.882   -35927.312    1840.5287    184140.12    55.909486     57.38937     57.38937 
   73000    849.97458    -36921.76   -35923.391     1899.764    184140.12    55.899659    57.394414    57.394414 
   74000    847.98306   -36929.317   -35933.287    1784.7341    184140.12    55.893747     57.39745     57.39745 
   75000    853.04597    -36937.01   -35935.034    1695.2916    184140.12    55.891773    57.398463    57.398463 
   76000     841.6258    -36940.68   -35952.117    1447.7123    184140.12    55.893747     57.39745     57.39745 
   77000     835.1513   -36930.526   -35949.569    1483.8209    184140.12    55.899659    57.394414    57.394414 
   78000    849.59417   -36931.827   -35933.904      1614.52    184140.12    55.909486     57.38937     57.38937 
   79000    847.12072   -36943.768   -35948.751    1468.7207    184140.12     55.92319    57.382338    57.382338 
   80000    836.15595   -36919.486   -35937.348    2157.1417    184140.12    55.940717    57.373348    57.373348 
   81000    840.00285   -36942.372   -35955.715    1481.8515    184140.12    55.961997    57.362439    57.362439 
   82000     853.2014    -36924.02   -35921.861    2161.4879    184140.12    55.986946    57.349656    57.349656 
   83000    838.88926   -36926.023   -35940.674    2270.0218    184140.12    56.015467    57.335054    57.335054 
   84000    850.91613   -36918.073   -35918.598    2657.9561    184140.12    56.047446    57.318695    57.318695 
   85000    851.44469     -36909.1   -35909.004    3002.5228    184140.12    56.082756    57.300648    57.300648 
   86000     842.5005   -36896.143   -35906.553    2700.6289    184140.12     56.12126    57.280988    57.280988 
   87000     850.0632   -36904.663    -35906.19    2458.6925    184140.12    56.162805    57.259798    57.259798 
   88000    853.76276    -36911.43   -35908.612    2459.3839    184140.12    56.207226    57.237167    57.237167 
   89000    854.56314   -36919.499    -35915.74    2673.7095    184140.12    56.254349    57.213189    57.213189 
   90000    844.99788   -36920.089   -35927.566    2196.9962    184140.12    56.303988    57.187963    57.187963 
   91000    850.75204   -36911.526   -35912.244    2333.0734    184140.12    56.355947    57.161594    57.161594 
   92000    850.68485   -36924.591   -35925.388    2307.7587    184140.12     56.41002    57.134191    57.134191 
   93000    847.36572   -36922.715    -35927.41    2060.8353    184140.12    56.465994    57.105866    57.105866 
   94000    853.99038    -36914.35   -35911.264    2372.0592    184140.12    56.523649    57.076734    57.076734 
   95000    850.40626   -36913.915   -35915.038    2211.6442    184140.12    56.582756    57.046914    57.046914 
   96000    845.76668   -36896.528   -35903.101    2797.9067    184140.12    56.643084    57.016528    57.016528 
   97000    852.03318   -36903.992   -35903.204    2702.7346    184140.12    56.704392    56.985696    56.985696 
   98000    848.43329   -36912.709    -35916.15     2311.367    184140.12     56.76644    56.954544    56.954544 
   99000    856.11183   -36907.873   -35902.295      2712.55    184140.12    56.828983    56.923195    56.923195 
  100000    856.97605   -36913.971   -35907.378     2397.843    184140.12    56.891773    56.891773    56.891773 
  101000    855.44988   -36932.439   -35927.639    2142.5762    184140.12    56.954564    56.860404    56.860404 
  102000    847.56153   -36913.695    -35918.16     2592.119    184140.12    57.017107     56.82921     56.82921 
  103000    853.68327   -36891.134   -35888.409     3070.335    184140.12    57.079155    56.798314    56.798314 
  104000    842.09974   -36905.933   -35916.814     2601.018    184140.12    57.140463    56.767835    56.767835 
  105000    833.33445   -36918.691   -35939.867    2228.7469    184140.12     57.20079    56.737892    56.737892 
  106000    844.86919    -36912.12   -35919.747    2766.9763    184140.12    57.259898      56.7086      56.7086 
  107000    847.92434   -36899.374   -35903.413    2606.0731    184140.12    57.317553    56.680071    56.680071 
  108000    849.14784   -36931.117   -35933.719    1939.5708    184140.12    57.373527    56.652416    56.652416 
  109000    859.52378   -36902.664   -35893.079    2651.0264    184140.12      57.4276    56.625738    56.625738 
  110000    848.40388   -36891.755   -35895.231    2839.0361    184140.12    57.479559    56.600139    56.600139 
  111000    854.72343   -36902.489   -35898.542    2764.5078    184140.12    57.529197    56.575715    56.575715 
  112000    841.72238   -36911.412   -35922.736     2557.867    184140.12    57.576321    56.552558    56.552558 
  113000    852.84676   -36882.569   -35880.826     3363.068    184140.12    57.620742    56.530755    56.530755 
  114000    840.94307   -36896.763   -35909.003    2891.5268    184140.12    57.662287    56.510386    56.510386 
  115000    857.34598   -36915.629   -35908.602    2686.3831    184140.12     57.70079    56.491529    56.491529 
  116000    858.70138   -36926.995   -35918.376    2231.6103    184140.12    57.736101    56.474251    56.474251 
  117000    842.67328   -36923.577   -35933.783    1733.5011    184140.12     57.76808    56.458618    56.458618 
  118000      849.121   -36925.193   -35927.827    2420.0227    184140.12    57.796601    56.444686    56.444686 
  119000    855.14366   -36911.426   -35906.986     2360.446    184140.12     57.82155    56.432507    56.432507 
  120000    850.06552   -36925.261   -35926.785    2121.6519    184140.12     57.84283    56.422125    56.422125 
  121000    859.72086   -36903.665   -35893.848    2894.7915    184140.12    57.860357    56.413579    56.413579 
  122000    855.15894   -36923.859     -35919.4    2361.4865    184140.12    57.874061      56.4069      56.4069 
  123000    843.55045   -36900.716   -35909.893    2618.3105    184140.12    57.883888    56.402111    56.402111 
  124000    858.80043   -36915.958   -35907.222    2260.9025    184140.12      57.8898    56.399231    56.399231 
  125000    852.42837   -36900.422    -35899.17    3052.3437    184140.12    57.891773     56.39827     56.39827 
  126000    841.17185   -36929.991   -35941.961    2000.0608    184140.12      57.8898    56.399231    56.399231 
  127000    846.39963   -36924.628   -35930.458    2286.0781    184140.12    57.883888    56.402111    56.402111 
  128000    848.57763   -36906.986   -35910.258    2981.4932    184140.12    57.874061      56.4069      56.4069 
  129000    843.67976   -36923.821   -35932.846    2001.5636    184140.12    57.860357    56.413579    56.413579 
  130000    848.69078   -36902.819   -35905.958    2827.5352    184140.12     57.84283    56.422125    56.422125 
  131000    853.60394   -36928.736   -35926.104    2097.4735    184140.12     57.82155    56.432507    56.432507 
  132000    843.67428   -36910.093   -35919.124    1998.9237    184140.12    57.796601    56.444686    56.444686 
  133000    853.37791   -36920.036    -35917.67    2412.1698    184140.12     57.76808    56.458618    56.458618 
  134000    856.99134   -36932.795   -35926.184    2143.9875    184140.12    57.736101    56.474251    56.474251 
  135000    847.01776   -36902.878   -35907.982    2474.2636    184140.12     57.70079    56.491529    56.491529 
  136000    838.50158   -36906.036   -35921.143    2374.8702    184140.12    57.662287    56.510386    56.510386 
  137000    855.03539   -36914.365   -35910.051      2460.99    184140.12    57.620742    56.530755    56.530755 
  138000    839.78189   -36908.217    -35921.82    2670.0762    184140.12    57.576321    56.552558    56.552558 
  139000    848.81678   -36914.354   -35917.345    2632.0536    184140.12    57.529197    56.575715    56.575715 
  140000     852.0696   -36930.039   -35929.209    2281.3952    184140.12    57.479559    56.600139    56.600139 
  141000    841.32482   -36912.964   -35924.755     2354.056    184140.12      57.4276    56.625738    56.625738 
  142000    850.77454   -36912.363   -35913.054    2286.9173    184140.12    57.373527    56.652416    56.652416 
  143000    835.31382   -36912.908   -35931.759    2733.0996    184140.12    57.317553    56.680071    56.680071 
  144000    852.77247   -36917.421   -35915.766    2000.7524    184140.12    57.259898      56.7086      56.7086 
  145000    845.12582   -36936.963   -35944.289    1782.6834    184140.12     57.20079    56.737892    56.737892 
  146000    857.14666   -36924.328   -35917.534    2321.2079    184140.12    57.140463    56.767835    56.767835 
  147000    855.17492   -36921.366   -35916.889    2097.1663    184140.12    57.079155    56.798314    56.798314 
  148000    850.36563   -36918.096   -35919.267    2182.0956    184140.12    57.017107     56.82921     56.82921 
  149000    844.84931    -36896.48   -35904.131    2754.4555    184140.12    56.954564    56.860404    56.860404 
  150000    868.60772   -36910.584   -35890.329    2535.6083    184140.12    56.891773    56.891773    56.891773 
  151000    850.60477   -36907.694   -35908.585    3071.9693    184140.12    56.828983    56.923195    56.923195 
  152000    857.10302   -36914.615   -35907.873    2442.7798    184140.12     56.76644    56.954544    56.954544 
  153000    840.30212   -36897.382   -35910.374    2853.7982    184140.12    56.704392    56.985696    56.985696 
  154000    856.49824   -36903.258   -35897.226    2826.3492    184140.12    56.643084    57.016528    57.016528 
  155000    850.35837     -36918.7    -35919.88    2602.9382    184140.12    56.582756    57.046914    57.046914 
  156000    853.69428   -36910.419    -35907.68    2846.2243    184140.12    56.523649    57.076734    57.076734 
  157000    854.03894   -36910.731   -35907.588    2566.9279    184140.12    56.465994    57.105866    57.105866 
  158000    857.63749   -36921.771   -35914.401    1930.5456    184140.12     56.41002    57.134191    57.134191 
  159000    847.20974   -36935.285   -35940.164    1631.9115    184140.12    56.355947    57.161594    57.161594 
  160000    849.97155   -36910.262   -35911.897    2414.5661    184140.12    56.303988    57.187963    57.187963 
  161000    844.40736   -36927.277   -35935.447    1750.2702    184140.12    56.254349    57.213189    57.213189 
  162000    849.69749   -36918.658   -35920.615    2439.4791    184140.12    56.207226    57.237167    57.237167 
  163000    845.45218   -36913.504   -35920.447    2392.6917    184140.12    56.162805    57.259798    57.259798 
  164000     860.3278   -36914.091   -35903.561    2500.4872    184140.12     56.12126    57.280988    57.280988 
  165000    854.78336   -36900.005   -35895.987    3222.8636    184140.12    56.082756    57.300648    57.300648 
  166000    845.07398   -36909.397   -35916.784    2842.8961    184140.12    56.047446    57.318695    57.318695 
  167000    855.46246   -36917.362   -35912.547    2246.4573    184140.12    56.015467    57.335054    57.335054 
  168000    841.96551   -36914.218   -35925.256    2494.3627    184140.12    55.986946    57.349656    57.349656 
  169000    863.03978   -36931.283   -35917.568     2136.126    184140.12    55.961997    57.362439    57.362439 
  170000    866.15418   -36925.733    -35908.36     2592.519    184140.12    55.940717    57.373348    57.373348 
  171000    855.47918   -36899.373   -35894.538    3088.3672    184140.12     55.92319    57.382338    57.382338 
  172000    848.80515   -36921.336    -35924.34    2121.0655    184140.12    55.909486     57.38937     57.38937 
  173000    856.47277   -36914.201   -35908.199    2413.6771    184140.12    55.899659    57.394414    57.394414 
  174000    857.24257   -36908.624   -35901.718    2691.7032    184140.12    55.893747     57.39745     57.39745 
  175000    847.84826   -36926.851   -35930.979    2256.2555    184140.12    55.891773    57.398463    57.398463 
  176000    853.67425   -36917.886   -35915.171    2459.9619    184140.12    55.893747     57.39745     57.39745 
  177000    847.56757   -36906.609   -35911.067    2905.8093    184140.12    55.899659    57.394414    57.394414 
  178000     837.1417   -36905.697   -35922.401    2522.6009    184140.12    55.909486     57.38937     57.38937 
  179000    848.68816   -36918.569   -35921.711    2672.9467    184140.12     55.92319    57.382338    57.382338 
  180000    851.66102   -36904.916   -35904.566    2320.3614    184140.12    55.940717    57.373348    57.373348 
  181000    858.17929   -36919.975   -35911.968     2440.916    184140.12    55.961997    57.362439    57.362439 
  182000    850.26659   -36903.465   -35904.753    2662.2574    184140.12    55.986946    57.349656    57.349656 
  183000    862.89312   -36924.665   -35911.122    2217.6633    184140.12    56.015467    57.335054    57.335054 
  184000    855.26769   -36909.512   -35904.926    2745.3457    184140.12    56.047446    57.318695    57.318695 
  185000    847.61672   -36919.108   -35923.508    2541.4941    184140.12    56.082756    57.300648    57.300648 
  186000    852.18608   -36919.028   -35918.062    2091.3485    184140.12     56.12126    57.280988    57.280988 
  187000    862.49463   -36931.244   -35918.169    2196.7993    184140.12    56.162805    57.259798    57.259798 
  188000    835.42303   -36911.554   -35930.277    2395.3253    184140.12    56.207226    57.237167    57.237167 
  189000    849.76598   -36913.994    -35915.87    2367.4314    184140.12    56.254349    57.213189    57.213189 
  190000    848.88203   -36910.502   -35913.416    2832.9852    184140.12    56.303988    57.187963    57.187963 
  191000    857.04424   -36921.667   -35914.994    2396.8681    184140.12    56.355947    57.161594    57.161594 
  192000    848.61759   -36902.086   -35905.311    2802.4166    184140.12     56.41002    57.134191    57.134191 
  193000    849.09116   -36919.101    -35921.77    2090.6091    184140.12    56.465994    57.105866    57.105866 
  194000     854.1296   -36916.925   -35913.675     2187.937    184140.12    56.523649    57.076734    57.076734 
  195000     849.5977   -36914.271   -35916.345    2395.4634    184140.12    56.582756    57.046914    57.046914 
  196000    844.19945   -36904.822   -35913.236    2576.2169    184140.12    56.643084    57.016528    57.016528 
  197000    853.57704   -36925.521   -35922.921    1978.1249    184140.12    56.704392    56.985696    56.985696 
  198000    844.63035   -36903.262   -35911.171    2711.8862    184140.12     56.76644    56.954544    56.954544 
  199000    846.58615    -36902.67   -35908.281    2713.0394    184140.12    56.828983    56.923195    56.923195 
  200000    849.31159   -36927.273   -35929.683     1974.514    184140.12    56.891773    56.891773    56.891773 
  201000    842.89206   -36928.567   -35938.517    1908.4653    184140.12    56.954564    56.860404    56.860404 
  202000    851.07994   -36898.403   -35898.735    3399.8377    184140.12    57.017107     56.82921     56.82921 
  203000    855.12294   -36914.162   -35909.746    2721.4297    184140.12    57.079155    56.798314    56.798314 
  204000    855.16853   -36902.832   -35898.362    2792.8357    184140.12    57.140463    56.767835    56.767835 
  205000      841.401   -36897.991   -35909.693     2861.945    184140.12     57.20079    56.737892    56.737892 
  206000    864.42486   -36904.897   -35889.554    2529.7456    184140.12    57.259898      56.7086      56.7086 
  207000    844.71435   -36899.611   -35907.421     2895.556    184140.12    57.317553    56.680071    56.680071 
  208000    843.53509   -36910.569   -35919.763    2658.6395    184140.12    57.373527    56.652416    56.652416 
  209000    841.05292    -36925.48    -35937.59    1976.0408    184140.12      57.4276    56.625738    56.625738 
  210000    850.76926   -36919.425   -35920.123    1823.6602    184140.12    57.479559    56.600139    56.600139 
  211000     858.6672   -36920.945   -35912.365    2046.2678    184140.12    57.529197    56.575715    56.575715 
  212000    846.38805   -36899.902   -35905.745    3015.5388    184140.12    57.576321    56.552558    56.552558 
  213000    852.94789   -36920.228   -35918.367    2079.4294    184140.12    57.620742    56.530755    56.530755 
  214000    848.77136   -36938.106    -35941.15    1741.6514    184140.12    57.662287    56.510386    56.510386 
  215000    841.60457    -36920.02   -35931.482    2699.4302    184140.12     57.70079    56.491529    56.491529 
  216000    860.10423   -36896.326   -35886.059     3265.384    184140.12    57.736101    56.474251    56.474251 
  217000    831.73987   -36924.737   -35947.786    2106.7768    184140.12     57.76808    56.458618    56.458618 
  218000    860.99198   -36921.046   -35909.736     2106.538    184140.12    57.796601    56.444686    56.444686 
  219000    857.77317   -36917.991   -35910.462    2419.5756    184140.12     57.82155    56.432507    56.432507 
  220000    840.90645   -36924.532   -35936.814    1966.8401    184140.12     57.84283    56.422125    56.422125 
  221000    848.56095   -36914.027   -35917.318    2261.8528    184140.12    57.860357    56.413579    56.413579 
  222000    856.93977   -36912.259   -35905.709     2354.411    184140.12    57.874061      56.4069      56.4069 
  223000    853.90879   -36905.131   -35902.141    2631.6165    184140.12    57.883888    56.402111    56.402111 
  224000    850.36206   -36921.385   -35922.561    2108.0763    184140.12      57.8898    56.399231    56.399231 
  225000     839.7636   -36921.078   -35934.703    2254.7656    184140.12    57.891773     56.39827     56.39827 
  226000    848.72978   -36914.992   -35918.085    2083.9939    184140.12      57.8898    56.399231    56.399231 
  227000    848.80163   -36916.255   -35919.264    2296.1374    184140.12    57.883888    56.402111    56.402111 
  228000    857.11884   -36904.524   -35897.764     2961.686    184140.12    57.874061      56.4069      56.4069 
  229000    852.47928   -36907.141   -35905.829    2513.4958    184140.12    57.860357    56.413579    56.413579 
  230000    853.17134   -36912.378   -35910.254    2521.5293    184140.12     57.84283    56.422125    56.422125 
  231000    854.97857   -36909.438   -35905.191    2477.9825    184140.12     57.82155    56.432507    56.432507 
  232000    851.60357   -36920.466   -35920.184    2459.1452    184140.12    57.796601    56.444686    56.444686 
  233000    854.60186   -36926.182   -35922.378    2509.8583    184140.12     57.76808    56.458618    56.458618 
  234000    855.91756    -36933.98    -35928.63    2141.6379    184140.12    57.736101    56.474251    56.474251 
  235000    850.85953   -36913.708     -35914.3    2223.6437    184140.12     57.70079    56.491529    56.491529 
  236000    846.97171   -36913.965   -35919.123    2225.6278    184140.12    57.662287    56.510386    56.510386 
  237000    862.25139   -36925.821   -35913.032    2245.7565    184140.12    57.620742    56.530755    56.530755 
  238000    851.58245   -36930.783   -35930.525    1587.0239    184140.12    57.576321    56.552558    56.552558 
  239000     843.9921   -36941.784   -35950.442    1692.9086    184140.12    57.529197    56.575715    56.575715 
  240000     844.2679   -36921.625   -35929.959    1952.6145    184140.12    57.479559    56.600139    56.600139 
  241000    848.80554   -36932.938   -35935.942    2020.7791    184140.12      57.4276    56.625738    56.625738 
  242000    850.61601    -36927.62   -35928.498    2056.9174    184140.12    57.373527    56.652416    56.652416 
  243000    853.51663   -36952.409   -35949.879    1127.2939    184140.12    57.317553    56.680071    56.680071 
  244000    851.52373   -36931.101   -35930.912    1977.1104    184140.12    57.259898      56.7086      56.7086 
  245000    856.21232   -36928.702   -35923.006    2158.6449    184140.12     57.20079    56.737892    56.737892 
  246000    855.58171   -36921.952   -35916.997    2118.8773    184140.12    57.140463    56.767835    56.767835 
  247000    853.06818   -36918.327   -35916.324    2212.8747    184140.12    57.079155    56.798314    56.798314 
  248000    866.18239   -36921.015   -35903.608    2255.3972    184140.12    57.017107     56.82921     56.82921 
  249000    851.28017   -36926.679   -35926.776    1777.1244    184140.12    56.954564    56.860404    56.860404 
  250000    854.96759   -36923.363   -35919.129     2177.559    184140.12    56.891773    56.891773    56.891773 
  251000    851.94978   -36916.451   -35915.762     2290.875    184140.12    56.828983    56.923195    56.923195 
  252000    845.25009   -36918.924   -35926.105    2062.3208    184140.12     56.76644    56.954544    56.954544 
  253000    859.29262   -36926.078   -35916.764    2066.6315    184140.12    56.704392    56.985696    56.985696 
  254000    857.94585   -36926.408   -35918.676    1893.0477    184140.12    56.643084    57.016528    57.016528 
  255000    858.17212    -36917.99   -35909.992    2437.7842    184140.12    56.582756    57.046914    57.046914 
  256000    851.39126   -36922.968   -35922.935    1741.8838    184140.12    56.523649    57.076734    57.076734 
  257000    837.16223   -36916.024   -35932.704    2228.8925    184140.12    56.465994    57.105866    57.105866 
  258000    843.03515   -36925.457   -35935.239    2288.0155    184140.12     56.41002    57.134191    57.134191 
  259000    849.61069   -36919.959   -35922.018    2282.0258    184140.12    56.355947    57.161594    57.161594 
  260000    853.44832   -36937.096   -35934.646    2074.8051    184140.12    56.303988    57.187963    57.187963 
  261000    855.72397   -36912.096   -35906.974    2749.6782    184140.12    56.254349    57.213189    57.213189 
  262000     864.9759   -36933.428   -35917.439    2152.1342    184140.12    56.207226    57.237167    57.237167 
  263000    849.25154   -36922.982   -35925.463    2091.8216    184140.12    56.162805    57.259798    57.259798 
  264000    843.46991   -36933.295   -35942.566    1349.4522    184140.12     56.12126    57.280988    57.280988 
  265000    837.29005    -36948.71    -35965.24    1217.6288    184140.12    56.082756    57.300648    57.300648 
  266000    848.74774   -36933.944   -35937.016    1698.4181    184140.12    56.047446    57.318695    57.318695 
  267000    841.68093   -36933.239   -35944.612    1833.5925    184140.12    56.015467    57.335054    57.335054 
  268000    842.01957   -36925.327   -35936.302    2032.0924    184140.12    55.986946    57.349656    57.349656 
  269000    840.90642   -36934.985   -35947.268    1640.8468    184140.12    55.961997    57.362439    57.362439 
  270000     852.2886   -36947.078   -35945.991    1397.8312    184140.12    55.940717    57.373348    57.373348 
  271000      842.498   -36936.663   -35947.076    1788.9773    184140.12     55.92319    57.382338    57.382338 
  272000    847.72078   -36933.966   -35938.244    2120.8116    184140.12    55.909486     57.38937     57.38937 
  273000    832.33872   -36923.119   -35945.465    2084.8537    184140.12    55.899659    57.394414    57.394414 
  274000    855.34133   -36930.558   -35925.885    2049.5722    184140.12    55.893747     57.39745     57.39745 
  275000    860.03761   -36930.164   -35919.975    2173.1266    184140.12    55.891773    57.398463    57.398463 
  276000    841.66152   -36913.356   -35924.751    2494.6073    184140.12    55.893747     57.39745     57.39745 
  277000     849.3433    -36921.98   -35924.352    1976.4474    184140.12    55.899659    57.394414    57.394414 
  278000    860.09753   -36919.018   -35908.758    2229.8503    184140.12    55.909486     57.38937     57.38937 
  279000     853.2416   -36919.025   -35916.819    2452.6163    184140.12     55.92319    57.382338    57.382338 
  280000    852.65694   -36935.015   -35933.495    1785.6958    184140.12    55.940717    57.373348    57.373348 
  281000     850.1678   -36912.161   -35913.565    2578.1408    184140.12    55.961997    57.362439    57.362439 
  282000    850.75135   -36938.311    -35939.03    1883.5624    184140.12    55.986946    57.349656    57.349656 
  283000    858.70413    -36928.17   -35919.548    2066.5098    184140.12    56.015467    57.335054    57.335054 
  284000     860.7674    -36932.55   -35921.504    2183.9222    184140.12    56.047446    57.318695    57.318695 
  285000    856.28188   -36945.024   -35939.246    1486.4987    184140.12    56.082756    57.300648    57.300648 
  286000    846.87698   -36928.371    -35933.64    1849.1434    184140.12     56.12126    57.280988    57.280988 
  287000    838.82788   -36931.839   -35946.563    2249.4567    184140.12    56.162805    57.259798    57.259798 
  288000    854.22772   -36936.749   -35933.384    1932.8447    184140.12    56.207226    57.237167    57.237167 
  289000    843.21616   -36927.564   -35937.133    1849.6187    184140.12    56.254349    57.213189    57.213189 
  290000    852.46321   -36946.297   -35945.005    1597.6319    184140.12    56.303988    57.187963    57.187963 
  291000    865.59816   -36921.736   -35905.016     2171.357    184140.12    56.355947    57.161594    57.161594 
  292000    842.32828   -36928.594   -35939.206    2287.4408    184140.12     56.41002    57.134191    57.134191 
  293000    853.11178   -36919.213   -35917.159    2430.1573    184140.12    56.465994    57.105866    57.105866 
  294000     843.3142    -36925.13   -35934.585    2086.6638    184140.12    56.523649    57.076734    57.076734 
  295000    839.53764   -36918.312   -35932.202     2202.167    184140.12    56.582756    57.046914    57.046914 
  296000    855.68082   -36926.167   -35921.096    2204.2851    184140.12    56.643084    57.016528    57.016528 
  297000    842.30839   -36916.219   -35926.855    2188.8641    184140.12    56.704392    56.985696    56.985696 
  298000    849.45722   -36926.561   -35928.799    1884.4557    184140.12     56.76644    56.954544    56.954544 
  299000    843.97137   -36926.662   -35935.344    2329.7151    184140.12    56.828983    56.923195    56.923195 
  300000    864.46881   -36914.934    -35899.54    2526.7315    184140.12    56.891773    56.891773    56.891773 
  301000    845.45186   -36922.013   -35928.957    1957.2712    184140.12    56.954564    56.860404    56.860404 
  302000    847.75897   -36919.396    -35923.63    2405.4967    184140.12    57.017107     56.82921     56.82921 
  303000    855.91155   -36926.367   -35921.025    2041.4136    184140.12    57.079155    56.798314    56.798314 
  304000    852.15829   -36924.894    -35923.96    1807.1227    184140.12    57.140463    56.767835    56.767835 
  305000    849.80817   -36908.344    -35910.17    2354.4377    184140.12     57.20079    56.737892    56.737892 
  306000    848.07998   -36917.064   -35920.921    1911.0546    184140.12    57.259898      56.7086      56.7086 
  307000    860.38157   -36904.829   -35894.236    2774.0353    184140.12    57.317553    56.680071    56.680071 
  308000    847.79641   -36928.404   -35932.593    1954.8123    184140.12    57.373527    56.652416    56.652416 
  309000    847.97498    -36904.89    -35908.87    2411.2326    184140.12      57.4276    56.625738    56.625738 
  310000    857.70859   -36907.766   -35900.312    2643.9561    184140.12    57.479559    56.600139    56.600139 
  311000    844.32377   -36928.669   -35936.937    1911.8126    184140.12    57.529197    56.575715    56.575715 
  312000    846.29125   -36922.682   -35928.639      2025.75    184140.12    57.576321    56.552558    56.552558 
  313000    840.20804   -36940.681   -35953.784    1295.8432    184140.12    57.620742    56.530755    56.530755 
  314000    839.80738   -36926.897    -35940.47    1808.9544    184140.12    57.662287    56.510386    56.510386 
  315000    844.51529   -36933.401   -35941.445    1975.7505    184140.12     57.70079    56.491529    56.491529 
  316000    851.66326   -36901.523    -35901.17    3021.5128    184140.12    57.736101    56.474251    56.474251 
  317000    851.17012   -36930.856   -35931.082    1768.4332    184140.12     57.76808    56.458618    56.458618 
  318000    845.31288   -36925.999   -35933.106    2270.5635    184140.12    57.796601    56.444686    56.444686 
  319000    843.82151   -36927.123   -35935.982    1828.0373    184140.12     57.82155    56.432507    56.432507 
  320000    838.49987   -36924.277   -35939.386    2376.3114    184140.12     57.84283    56.422125    56.422125 
  321000    847.37093   -36923.199   -35927.889     2057.729    184140.12    57.860357    56.413579    56.413579 
  322000    852.71722   -36922.941    -35921.35    2179.3685    184140.12    57.874061      56.4069      56.4069 
  323000    843.89692   -36908.401   -35917.171    2866.3116    184140.12    57.883888    56.402111    56.402111 
  324000    842.59398   -36914.419   -35924.719    2516.1067    184140.12      57.8898    56.399231    56.399231 
  325000    848.05024   -36898.834   -35902.725    2688.3735    184140.12    57.891773     56.39827     56.39827 
  326000    850.32853   -36901.449   -35902.664    2763.9854    184140.12      57.8898    56.399231    56.399231 
  327000     853.3498   -36918.338   -35916.004    2326.3963    184140.12    57.883888    56.402111    56.402111 
  328000    859.08822   -36918.355   -35909.281     2963.185    184140.12    57.874061      56.4069      56.4069 
  329000    857.76929   -36894.999   -35887.475    3283.8611    184140.12    57.860357    56.413579    56.413579 
  330000    844.09623     -36919.1   -35927.635    1996.5873    184140.12     57.84283    56.422125    56.422125 
  331000    854.25947   -36915.736   -35912.334    2354.7654    184140.12     57.82155    56.432507    56.432507 
  332000    850.37067    -36896.76   -35897.926    2523.9892    184140.12    57.796601    56.444686    56.444686 
  333000    846.00095   -36918.925   -35925.223    2533.9176    184140.12     57.76808    56.458618    56.458618 
  334000    835.25498   -36944.346   -35963.266     1335.527    184140.12    57.736101    56.474251    56.474251 
  335000    849.94696   -36935.774   -35937.437      1805.73    184140.12     57.70079    56.491529    56.491529 
  336000    851.42216   -36915.048   -35914.979    2596.0676    184140.12    57.662287    56.510386    56.510386 
  337000    848.67625   -36922.108   -35925.264    1978.3015    184140.12    57.620742    56.530755    56.530755 
  338000    845.50015   -36913.475   -35920.362    2258.9896    184140.12    57.576321    56.552558    56.552558 
  339000    847.12641   -36917.956   -35922.932    2360.9987    184140.12    57.529197    56.575715    56.575715 
  340000    853.13232   -36930.804   -35928.726    1621.7811    184140.12    57.479559    56.600139    56.600139 
  341000    853.54426   -36924.654   -35922.092    2151.4815    184140.12      57.4276    56.625738    56.625738 
  342000    843.31543   -36912.748   -35922.201    2494.0875    184140.12    57.373527    56.652416    56.652416 
  343000    842.06204   -36912.642   -35923.567    2299.5284    184140.12    57.317553    56.680071    56.680071 
  344000    856.91915   -36905.372   -35898.846    3007.2025    184140.12    57.259898      56.7086      56.7086 
  345000    837.12353   -36929.379   -35946.105    1868.0689    184140.12     57.20079    56.737892    56.737892 
  346000    840.01476   -36925.351   -35938.681    2266.3876    184140.12    57.140463    56.767835    56.767835 
  347000    851.92639   -36906.686   -35906.025    2515.1499    184140.12    57.079155    56.798314    56.798314 
  348000    849.81856   -36920.785   -35922.599    2532.4227    184140.12    57.017107     56.82921     56.82921 
  349000    853.81026   -36913.386   -35910.511    2245.7194    184140.12    56.954564    56.860404    56.860404 
  350000    846.80648   -36892.689   -35898.041    3414.4876    184140.12    56.891773    56.891773    56.891773 
  351000    854.30773   -36908.808   -35905.349    2763.6964    184140.12    56.828983    56.923195    56.923195 
  352000    838.65299   -36896.019   -35910.948    3037.4007    184140.12     56.76644    56.954544    56.954544 
  353000    853.27454   -36911.358   -35909.112    2315.8958    184140.12    56.704392    56.985696    56.985696 
  354000    855.28667   -36911.842   -35907.233    2428.1938    184140.12    56.643084    57.016528    57.016528 
  355000    846.66633   -36939.473    -35944.99    1967.2277    184140.12    56.582756    57.046914    57.046914 
  356000    840.02542   -36917.249   -35930.567    2387.6027    184140.12    56.523649    57.076734    57.076734 
  357000    846.75048   -36937.015   -35942.433    1627.8339    184140.12    56.465994    57.105866    57.105866 
  358000    850.54667   -36918.945   -35919.904    2215.6114    184140.12     56.41002    57.134191    57.134191 
  359000    845.33479   -36910.835   -35917.916    2535.3246    184140.12    56.355947    57.161594    57.161594 
  360000    856.68089   -36909.101   -35902.854    2622.5577    184140.12    56.303988    57.187963    57.187963 
  361000    840.74485   -36918.689   -35931.161    2592.4178    184140.12    56.254349    57.213189    57.213189 
  362000    841.87472   -36905.381   -35916.526    2411.1728    184140.12    56.207226    57.237167    57.237167 
  363000    851.35426   -36931.036   -35931.046    2000.0994    184140.12    56.162805    57.259798    57.259798 
  364000    858.92336   -36913.617   -35904.737    2521.3983    184140.12     56.12126    57.280988    57.280988 
  365000    860.87035   -36911.993   -35900.826    2433.9741    184140.12    56.082756    57.300648    57.300648 
  366000     848.8307   -36897.346    -35900.32    2774.0626    184140.12    56.047446    57.318695    57.318695 
  367000    844.38341   -36925.172    -35933.37    1944.0573    184140.12    56.015467    57.335054    57.335054 
  368000    848.71951   -36918.654   -35921.759    2545.7133    184140.12    55.986946    57.349656    57.349656 
  369000     855.6119   -36936.192   -35931.202    2065.4268    184140.12    55.961997    57.362439    57.362439 
  370000    855.75734   -36925.305   -35920.143    2291.9063    184140.12    55.940717    57.373348    57.373348 
  371000    842.53914   -36916.529   -35926.893    2470.0858    184140.12     55.92319    57.382338    57.382338 
  372000    837.61856   -36925.475    -35941.62    2038.6937    184140.12    55.909486     57.38937     57.38937 
  373000    854.58136   -36913.082   -35909.302    2852.4914    184140.12    55.899659    57.394414    57.394414 
  374000    856.45261   -36927.041   -35921.063    2118.3335    184140.12    55.893747     57.39745     57.39745 
  375000     851.5343   -36928.043   -35927.841    2334.7179    184140.12    55.891773    57.398463    57.398463 
  376000    858.15258   -36915.642   -35907.667    2545.2754    184140.12    55.893747     57.39745     57.39745 
  377000    847.79675   -36915.786   -35919.975    2132.7452    184140.12    55.899659    57.394414    57.394414 
  378000     853.5772   -36923.822   -35921.221     2174.707    184140.12    55.909486     57.38937     57.38937 
  379000    850.90322   -36935.268   -35935.808    1879.2834    184140.12     55.92319    57.382338    57.382338 
  380000    858.83923   -36913.913   -35905.132    2571.0515    184140.12    55.940717    57.373348    57.373348 
  381000    857.31981   -36923.563   -35916.567    2289.7469    184140.12    55.961997    57.362439    57.362439 
  382000       855.71   -36922.266    -35917.16    2348.4995    184140.12    55.986946    57.349656    57.349656 
  383000    846.19271   -36927.887    -35933.96    2006.8494    184140.12    56.015467    57.335054    57.335054 
  384000    841.80421   -36935.091   -35946.319    1426.2508    184140.12    56.047446    57.318695    57.318695 
  385000    854.00594   -36934.402   -35931.298    1959.1551    184140.12    56.082756    57.300648    57.300648 
  386000    841.07718   -36941.646   -35953.727    1949.5221    184140.12     56.12126    57.280988    57.280988 
  387000    845.06607   -36944.273    -35951.67    1760.9448    184140.12    56.162805    57.259798    57.259798 
  388000    845.85336   -36942.058    -35948.53     1510.426    184140.12    56.207226    57.237167    57.237167 
  389000    844.52787   -36918.642    -35926.67    2365.1273    184140.12    56.254349    57.213189    57.213189 
  390000    851.93896   -36934.205   -35933.529    1802.9509    184140.12    56.303988    57.187963    57.187963 
  391000     850.6728   -36929.273   -35930.084     1815.368    184140.12    56.355947    57.161594    57.161594 
  392000    850.70322   -36937.534    -35938.31    2108.1983    184140.12     56.41002    57.134191    57.134191 
  393000    853.26674   -36921.616    -35919.38    2643.3545    184140.12    56.465994    57.105866    57.105866 
  394000    854.17047   -36938.068    -35934.77    1804.4571    184140.12    56.523649    57.076734    57.076734 
  395000    838.93432   -36942.483   -35957.082     1580.146    184140.12    56.582756    57.046914    57.046914 
  396000    850.75261   -36933.448   -35934.165    2056.3124    184140.12    56.643084    57.016528    57.016528 
  397000    851.40886   -36939.749   -35939.696     2203.265    184140.12    56.704392    56.985696    56.985696 
  398000    852.10362     -36918.7    -35917.83    2504.1112    184140.12     56.76644    56.954544    56.954544 
  399000    854.78967   -36913.955   -35909.931     2404.033    184140.12    56.828983    56.923195    56.923195 
  400000    850.38712   -36904.345   -35905.491    2506.9683    184140.12    56.891773    56.891773    56.891773 
  401000    844.11767   -36911.815   -35920.325    2395.4919    184140.12    56.954564    56.860404    56.860404 
  402000    862.00542   -36896.089   -35883.589    2895.1447    184140.12    57.017107     56.82921     56.82921 
  403000    852.23538   -36904.667   -35903.642    3033.8557    184140.12    57.079155    56.798314    56.798314 
  404000    853.88104   -36908.942   -35905.984    2569.7464    184140.12    57.140463    56.767835    56.767835 
  405000    854.24352   -36915.715   -35912.332    2231.0842    184140.12     57.20079    56.737892    56.737892 
  406000    844.87824   -36920.074   -35927.691    2353.8049    184140.12    57.259898      56.7086      56.7086 
  407000    855.05638   -36918.699   -35914.361    2499.3281    184140.12    57.317553    56.680071    56.680071 
  408000    850.52037   -36936.498   -35937.488    1557.0713    184140.12    57.373527    56.652416    56.652416 
  409000    850.34247   -36931.308   -35932.507    1932.5753    184140.12      57.4276    56.625738    56.625738 
  410000    849.82698   -36920.489   -35922.293      2171.44    184140.12    57.479559    56.600139    56.600139 
  411000    846.41309   -36921.282   -35927.096    2590.6116    184140.12    57.529197    56.575715    56.575715 
  412000    848.37165   -36936.237   -35939.751    1700.8505    184140.12    57.576321    56.552558    56.552558 
  413000     843.3933   -36915.157   -35924.518    2539.0708    184140.12    57.620742    56.530755    56.530755 
  414000    856.37477   -36932.614   -35926.727    1623.5123    184140.12    57.662287    56.510386    56.510386 
  415000    855.98907   -36941.555   -35936.122    1739.1409    184140.12     57.70079    56.491529    56.491529 
  416000    850.87132   -36903.229   -35903.806    3091.6735    184140.12    57.736101    56.474251    56.474251 
  417000    860.48855   -36925.183   -35914.464    1966.2508    184140.12     57.76808    56.458618    56.458618 
  418000    856.32817   -36924.995   -35919.163    2401.8846    184140.12    57.796601    56.444686    56.444686 
  419000    862.28381   -36927.423   -35914.596    2510.4388    184140.12     57.82155    56.432507    56.432507 
  420000     854.0258   -36930.321   -35927.193    2306.4061    184140.12     57.84283    56.422125    56.422125 
  421000    839.12834   -36951.525   -35965.895    1321.4858    184140.12    57.860357    56.413579    56.413579 
  422000    848.39496   -36922.742   -35926.229     2027.524    184140.12    57.874061      56.4069      56.4069 
  423000    855.57371   -36920.621   -35915.675    1944.8621    184140.12    57.883888    56.402111    56.402111 
  424000     856.1369   -36923.772   -35918.164    2265.6067    184140.12      57.8898    56.399231    56.399231 
  425000    844.59522       -36936   -35943.949    1477.2101    184140.12    57.891773     56.39827     56.39827 
  426000    839.60441   -36919.235   -35933.047    2050.2993    184140.12      57.8898    56.399231    56.399231 
  427000    834.70393   -36908.649   -35928.216    2294.0194    184140.12    57.883888    56.402111    56.402111 
  428000    848.97691   -36929.338   -35932.141    2149.0888    184140.12    57.874061      56.4069      56.4069 
  429000    853.57605   -36923.205   -35920.606    2129.7666    184140.12    57.860357    56.413579    56.413579 
  430000    853.21233   -36948.359   -35946.187    1283.9499    184140.12     57.84283    56.422125    56.422125 
  431000    852.46023   -36940.902   -35939.613    1711.6627    184140.12     57.82155    56.432507    56.432507 
  432000    847.63341   -36941.964   -35946.345    1241.0919    184140.12    57.796601    56.444686    56.444686 
  433000    838.12557   -36936.986   -35952.534    1473.7826    184140.12     57.76808    56.458618    56.458618 
  434000     834.3894    -36933.05   -35952.988    1565.6969    184140.12    57.736101    56.474251    56.474251 
  435000    851.65886   -36947.073   -35946.726    1363.0786    184140.12     57.70079    56.491529    56.491529 
  436000    861.80834   -36931.834   -35919.565    1545.1315    184140.12    57.662287    56.510386    56.510386 
  437000    858.81309   -36931.618   -35922.867    1734.9628    184140.12    57.620742    56.530755    56.530755 
  438000    859.44752   -36930.307   -35920.811    1867.6596    184140.12    57.576321    56.552558    56.552558 
  439000    850.86517   -36928.348   -35928.933    2103.6695    184140.12    57.529197    56.575715    56.575715 
  440000    854.53276   -36903.267   -35899.544    2258.2388    184140.12    57.479559    56.600139    56.600139 
  441000    850.75536   -36929.726    -35930.44    1488.5236    184140.12      57.4276    56.625738    56.625738 
  442000    843.58699   -36909.977    -35919.11     2554.604    184140.12    57.373527    56.652416    56.652416 
  443000    842.60068   -36929.688    -35939.98    1728.8559    184140.12    57.317553    56.680071    56.680071 
  444000    851.81924   -36931.966    -35931.43    2077.4137    184140.12    57.259898      56.7086      56.7086 
  445000    845.88012   -36930.451   -35936.891    1885.2006    184140.12     57.20079    56.737892    56.737892 
  446000     841.3721   -36921.188   -35932.924     1964.868    184140.12    57.140463    56.767835    56.767835 
  447000    854.87222   -36910.345   -35906.223    2564.7342    184140.12    57.079155    56.798314    56.798314 
  448000    851.42301   -36911.602   -35911.532    2611.0831    184140.12    57.017107     56.82921     56.82921 
  449000    858.87104   -36921.359   -35912.541    2319.4068    184140.12    56.954564    56.860404    56.860404 
  450000    852.63905   -36913.618    -35912.12    2082.3839    184140.12    56.891773    56.891773    56.891773 
  451000    857.08537   -36908.974   -35902.253    2703.4369    184140.12    56.828983    56.923195    56.923195 
  452000     844.7992   -36897.513   -35905.223    2628.1487    184140.12     56.76644    56.954544    56.954544 
  453000    848.67736   -36920.353   -35923.508    2365.9313    184140.12    56.704392    56.985696    56.985696 
  454000    842.48109   -36906.609   -35917.041    2853.9313    184140.12    56.643084    57.016528    57.016528 
  455000    848.18033   -36895.074   -35898.812    3026.1525    184140.12    56.582756    57.046914    57.046914 
  456000    840.38802   -36906.284   -35919.175    2584.7225    184140.12    56.523649    57.076734    57.076734 
  457000    848.96761   -36919.261   -35922.074     2212.567    184140.12    56.465994    57.105866    57.105866 
  458000    838.45513   -36897.423   -35912.584    2713.3532    184140.12     56.41002    57.134191    57.134191 
  459000    844.58694   -36930.387   -35938.346    1963.1873    184140.12    56.355947    57.161594    57.161594 
  460000    841.81603   -36896.346    -35907.56    3313.5986    184140.12    56.303988    57.187963    57.187963 
  461000    850.68807   -36912.233   -35913.026    2354.6705    184140.12    56.254349    57.213189    57.213189 
  462000    850.94531   -36938.186   -35938.677    1929.2327    184140.12    56.207226    57.237167    57.237167 
  463000      848.031   -36906.539   -35910.453    2807.5765    184140.12    56.162805    57.259798    57.259798 
  464000    860.04815   -36923.295   -35913.094    2742.6197    184140.12     56.12126    57.280988    57.280988 
  465000    851.09519   -36916.548   -35916.863    2005.7866    184140.12    56.082756    57.300648    57.300648 
  466000     845.2953   -36894.449   -35901.577    2771.6375    184140.12    56.047446    57.318695    57.318695 
  467000     841.0276   -36906.622   -35918.762    2761.1681    184140.12    56.015467    57.335054    57.335054 
  468000    855.20133   -36922.927   -35918.419    2468.1028    184140.12    55.986946    57.349656    57.349656 
  469000    855.75857   -36914.574   -35909.411    2578.0115    184140.12    55.961997    57.362439    57.362439 
  470000    836.49885   -36929.427   -35946.886    1692.2823    184140.12    55.940717    57.373348    57.373348 
  471000    844.45273   -36928.368   -35936.485    2137.3931    184140.12     55.92319    57.382338    57.382338 
  472000    850.99267   -36894.852   -35895.287    3142.9227    184140.12    55.909486     57.38937     57.38937 
  473000    842.14652   -36909.956   -35920.781    2634.5541    184140.12    55.899659    57.394414    57.394414 
  474000    855.24741   -36908.729   -35904.166    2575.5325    184140.12    55.893747     57.39745     57.39745 
  475000    846.72889   -36917.344   -35922.787    2294.3838    184140.12    55.891773    57.398463    57.398463 
  476000    851.79512   -36905.528   -35905.021    2845.2087    184140.12    55.893747     57.39745     57.39745 
  477000    858.86139   -36916.505   -35907.697     3087.493    184140.12    55.899659    57.394414    57.394414 
  478000    854.19849   -36912.586   -35909.255    2585.8773    184140.12    55.909486     57.38937     57.38937 
  479000    854.76682   -36907.919   -35903.922    2502.4451    184140.12     55.92319    57.382338    57.382338 
  480000    831.25975   -36921.708   -35945.321    2554.9069    184140.12    55.940717    57.373348    57.373348 
  481000    846.81441   -36931.442   -35936.785    1839.6287    184140.12    55.961997    57.362439    57.362439 
  482000    851.45512   -36945.536   -35945.428    1610.8884    184140.12    55.986946    57.349656    57.349656 
  483000       858.41    -36933.18   -35924.902    2203.8851    184140.12    56.015467    57.335054    57.335054 
  484000    847.27405   -36921.396   -35926.199    2286.8819    184140.12    56.047446    57.318695    57.318695 
  485000    844.40325   -36927.979   -35936.154     2208.589    184140.12    56.082756    57.300648    57.300648 
  486000    860.02232   -36926.025   -35915.854    2537.3594    184140.12     56.12126    57.280988    57.280988 
  487000    854.39576   -36945.543   -35941.981    1410.0122    184140.12    56.162805    57.259798    57.259798 
  488000    839.31206   -36918.948   -35933.103    2157.4446    184140.12    56.207226    57.237167    57.237167 
  489000    858.80052   -36930.776    -35922.04    2065.2957    184140.12    56.254349    57.213189    57.213189 
  490000     852.4165   -36927.342   -35926.105    2167.8641    184140.12    56.303988    57.187963    57.187963 
  491000    853.43874   -36913.167   -35910.729    2680.5362    184140.12    56.355947    57.161594    57.161594 
  492000    858.67661   -36921.831   -35913.241    2030.3342    184140.12     56.41002    57.134191    57.134191 
  493000    849.82778   -36923.432   -35925.236    2271.6842    184140.12    56.465994    57.105866    57.105866 
  494000     849.6764    -36912.61   -35914.591    2706.3412    184140.12    56.523649    57.076734    57.076734 
  495000    843.22231   -36934.351   -35943.913     1879.923    184140.12    56.582756    57.046914    57.046914 
  496000    845.95591   -36915.587   -35921.938     2574.268    184140.12    56.643084    57.016528    57.016528 
  497000     853.5532   -36929.653   -35927.081    2191.5151    184140.12    56.704392    56.985696    56.985696 
  498000    854.51733   -36914.546   -35910.841    2262.2001    184140.12     56.76644    56.954544    56.954544 
  499000    836.17302   -36922.531   -35940.373    2286.8123    184140.12    56.828983    56.923195    56.923195 
  500000    854.64621   -36928.612   -35924.756    1979.3172    184140.12    56.891773    56.891773    56.891773 
  501000    836.08518   -36918.845    -35936.79    2008.7413    184140.12    56.954564    56.860404    56.860404 
  502000    829.20554   -36917.465   -35943.491    1953.3471    184140.12    57.017107     56.82921     56.82921 
  503000    861.82098   -36917.709   -35905.425     2451.069    184140.12    57.079155    56.798314    56.798314 
  504000     836.3457   -36905.215   -35922.854    2726.3997    184140.12    57.140463    56.767835    56.767835 
  505000    854.83863   -36930.985   -35926.903    2004.4907    184140.12     57.20079    56.737892    56.737892 
  506000    874.30942   -36908.404   -35881.451    2477.7889    184140.12    57.259898      56.7086      56.7086 
  507000    863.21036   -36941.227   -35927.311    1807.9689    184140.12    57.317553    56.680071    56.680071 
  508000    853.59919    -36910.66   -35908.034    2682.6463    184140.12    57.373527    56.652416    56.652416 
  509000    857.10082   -36920.169   -35913.429    1934.5176    184140.12      57.4276    56.625738    56.625738 
  510000     853.9276   -36934.441   -35931.429    2218.6169    184140.12    57.479559    56.600139    56.600139 
  511000    849.00741   -36929.038   -35931.804    2167.4408    184140.12    57.529197    56.575715    56.575715 
  512000    850.68156   -36915.238   -35916.039    2605.7819    184140.12    57.576321    56.552558    56.552558 
  513000    846.41915   -36901.776   -35907.583    2717.1141    184140.12    57.620742    56.530755    56.530755 
  514000    844.81083   -36911.811   -35919.508    2444.8011    184140.12    57.662287    56.510386    56.510386 
  515000    860.27363   -36889.031   -35878.565    3499.2789    184140.12     57.70079    56.491529    56.491529 
  516000    843.70965   -36922.428   -35931.418    2387.9412    184140.12    57.736101    56.474251    56.474251 
  517000    845.09959   -36922.914   -35930.271    2065.0911    184140.12     57.76808    56.458618    56.458618 
  518000    844.18542   -36920.832   -35929.263    1838.0997    184140.12    57.796601    56.444686    56.444686 
  519000    857.39861   -36923.158   -35916.069    2266.1983    184140.12     57.82155    56.432507    56.432507 
  520000    848.64398   -36944.979   -35948.173    1924.4889    184140.12     57.84283    56.422125    56.422125 
  521000    849.62548   -36896.677   -35898.718    2897.9742    184140.12    57.860357    56.413579    56.413579 
  522000    844.32646   -36918.499   -35926.764    2362.2668    184140.12    57.874061      56.4069      56.4069 
  523000    845.10247   -36915.726    -35923.08    2279.9415    184140.12    57.883888    56.402111    56.402111 
  524000    858.83013   -36930.827   -35922.056    1666.8825    184140.12      57.8898    56.399231    56.399231 
  525000     870.1896    -36928.48   -35906.366    1760.2864    184140.12    57.891773     56.39827     56.39827 
  526000    863.34629   -36932.105    -35918.03    2066.4412    184140.12      57.8898    56.399231    56.399231 
  527000    863.28673   -36928.011   -35914.006     1732.822    184140.12    57.883888    56.402111    56.402111 
  528000    857.21604   -36928.838   -35921.963    2054.2791    184140.12    57.874061      56.4069      56.4069 
  529000    850.47018   -36924.084   -35925.133    2207.8431    184140.12    57.860357    56.413579    56.413579 
  530000    846.86352   -36937.715   -35943.001    2059.4897    184140.12     57.84283    56.422125    56.422125 
  531000    853.08277   -36938.124   -35936.104    1420.1033    184140.12     57.82155    56.432507    56.432507 
  532000    836.18888   -36917.597   -35935.421    2426.4376    184140.12    57.796601    56.444686    56.444686 
  533000    836.47688   -36928.042   -35945.527     1703.122    184140.12     57.76808    56.458618    56.458618 
  534000    858.57032   -36924.641   -35916.175    2228.4919    184140.12    57.736101    56.474251    56.474251 
  535000    836.34442   -36922.206   -35939.847    2140.3274    184140.12     57.70079    56.491529    56.491529 
  536000    855.16434   -36918.959   -35914.494    2220.6747    184140.12    57.662287    56.510386    56.510386 
  537000    860.40668   -36933.606   -35922.983    2158.0936    184140.12    57.620742    56.530755    56.530755 
  538000    848.23391   -36925.894   -35929.569    2075.2225    184140.12    57.576321    56.552558    56.552558 
  539000    861.55381   -36901.383   -35889.413    2992.6905    184140.12    57.529197    56.575715    56.575715 
  540000     857.3649   -36900.928   -35893.878    2839.6032    184140.12    57.479559    56.600139    56.600139 
  541000    843.67054   -36935.331   -35944.367    1758.1488    184140.12      57.4276    56.625738    56.625738 
  542000    856.20014   -36926.628   -35920.947    1931.6312    184140.12    57.373527    56.652416    56.652416 
  543000    839.63442    -36913.39   -35927.167    2194.5607    184140.12    57.317553    56.680071    56.680071 
  544000    848.11816   -36920.417   -35924.228    1931.6991    184140.12    57.259898      56.7086      56.7086 
  545000    829.20432   -36925.687   -35951.714    2121.8716    184140.12     57.20079    56.737892    56.737892 
  546000    841.99002   -36919.785   -35930.794    2106.0158    184140.12    57.140463    56.767835    56.767835 
  547000    848.94028   -36925.673   -35928.519    1762.6351    184140.12    57.079155    56.798314    56.798314 
  548000    852.09195   -36945.452   -35944.596    1612.2511    184140.12    57.017107     56.82921     56.82921 
  549000    851.65572   -36920.187   -35919.844    1963.3639    184140.12    56.954564    56.860404    56.860404 
  550000    848.69507   -36941.488   -35944.621     1680.546    184140.12    56.891773    56.891773    56.891773 
  551000    853.76248    -36918.88   -35916.062    2262.3903    184140.12    56.828983    56.923195    56.923195 
  552000    853.76504    -36931.31   -35928.488    1681.0602    184140.12     56.76644    56.954544    56.954544 
  553000    857.86073   -36934.473   -35926.841     1998.254    184140.12    56.704392    56.985696    56.985696 
  554000    844.84458   -36938.292   -35945.949    2000.6347    184140.12    56.643084    57.016528    57.016528 
  555000    836.71117   -36934.296   -35951.506    1659.5975    184140.12    56.582756    57.046914    57.046914 
  556000    841.48178   -36929.751   -35941.358    1831.6323    184140.12    56.523649    57.076734    57.076734 
  557000    861.82938   -36938.529   -35926.235     1724.619    184140.12    56.465994    57.105866    57.105866 
  558000    845.57419    -36933.54    -35940.34    1628.5892    184140.12     56.41002    57.134191    57.134191 
  559000    849.70246   -36941.445   -35943.395    1916.1196    184140.12    56.355947    57.161594    57.161594 
  560000    856.71259   -36932.535   -35926.251    1975.0119    184140.12    56.303988    57.187963    57.187963 
  561000    853.43534   -36943.564    -35941.13    1815.7219    184140.12    56.254349    57.213189    57.213189 
  562000    849.75895   -36926.091   -35927.976    2007.9212    184140.12    56.207226    57.237167    57.237167 
  563000    849.96594   -36923.741   -35925.382    2527.9121    184140.12    56.162805    57.259798    57.259798 
  564000    855.22733   -36927.842   -35923.303    2303.5109    184140.12     56.12126    57.280988    57.280988 
  565000    857.27133   -36898.537   -35891.598    2973.5865    184140.12    56.082756    57.300648    57.300648 
  566000    843.30778   -36928.363   -35937.824    1964.8595    184140.12    56.047446    57.318695    57.318695 
  567000    858.89626   -36918.514   -35909.666    2491.0901    184140.12    56.015467    57.335054    57.335054 
  568000    839.58082   -36924.918   -35938.758    2095.6437    184140.12    55.986946    57.349656    57.349656 
  569000    838.66623   -36925.909   -35940.823    2271.2193    184140.12    55.961997    57.362439    57.362439 
  570000    852.43784   -36931.402    -35930.14    2100.0052    184140.12    55.940717    57.373348    57.373348 
  571000    852.86994   -36936.373   -35934.603    1785.6793    184140.12     55.92319    57.382338    57.382338 
  572000     858.1475   -36953.433   -35945.464    1707.5097    184140.12    55.909486     57.38937     57.38937 
  573000    852.16968   -36924.075   -35923.128    2083.2315    184140.12    55.899659    57.394414    57.394414 
  574000     852.0869   -36930.082   -35929.232    1819.5371    184140.12    55.893747     57.39745     57.39745 
  575000     848.5932   -36922.414   -35925.667    2244.2826    184140.12    55.891773    57.398463    57.398463 
  576000    856.82278   -36930.366   -35923.954    1404.8262    184140.12    55.893747     57.39745     57.39745 
  577000    848.86973   -36920.746   -35923.675    2129.5404    184140.12    55.899659    57.394414    57.394414 
  578000    854.74595   -36935.277   -35931.303    1929.4311    184140.12    55.909486     57.38937     57.38937 
  579000    839.63095   -36919.867   -35933.647    1955.5077    184140.12     55.92319    57.382338    57.382338 
  580000    838.67613   -36921.009   -35935.911    2165.7051    184140.12    55.940717    57.373348    57.373348 
  581000    855.16772   -36899.735   -35895.266    2395.3817    184140.12    55.961997    57.362439    57.362439 
  582000    854.45489   -36916.092   -35912.461    2329.1575    184140.12    55.986946    57.349656    57.349656 
  583000    854.55202   -36933.624   -35929.878    1627.6885    184140.12    56.015467    57.335054    57.335054 
  584000    851.81651   -36933.749   -35933.217    1591.6669    184140.12    56.047446    57.318695    57.318695 
  585000    841.60897   -36924.682   -35936.139    2298.7301    184140.12    56.082756    57.300648    57.300648 
  586000    852.63444   -36931.777   -35930.284    1788.5451    184140.12     56.12126    57.280988    57.280988 
  587000    837.78155   -36927.161   -35943.114    2362.4836    184140.12    56.162805    57.259798    57.259798 
  588000    851.73559   -36914.187    -35913.75    2583.6136    184140.12    56.207226    57.237167    57.237167 
  589000    845.58693   -36917.973   -35924.757    2422.0379    184140.12    56.254349    57.213189    57.213189 
  590000    852.27664   -36912.657   -35911.584    2612.9515    184140.12    56.303988    57.187963    57.187963 
  591000     854.9035   -36925.578   -35921.419    2061.5982    184140.12    56.355947    57.161594    57.161594 
  592000     850.6622   -36925.415   -35926.239    1962.9045    184140.12     56.41002    57.134191    57.134191 
  593000    842.92547   -36906.162   -35916.073    2517.9779    184140.12    56.465994    57.105866    57.105866 
  594000    829.39821   -36895.143   -35920.943    2869.3394    184140.12    56.523649    57.076734    57.076734 
  595000    849.68942   -36926.651   -35928.617    2287.5677    184140.12    56.582756    57.046914    57.046914 
  596000    848.37928    -36912.43   -35915.935    2409.6378    184140.12    56.643084    57.016528    57.016528 
  597000     845.8434   -36910.326   -35916.809    2566.2792    184140.12    56.704392    56.985696    56.985696 
  598000    855.58433   -36910.654   -35905.696    2401.2143    184140.12     56.76644    56.954544    56.954544 
  599000    856.99934   -36923.543   -35916.923    2106.0537    184140.12    56.828983    56.923195    56.923195 
  600000    860.00923   -36928.711   -35918.555    2365.1203    184140.12    56.891773    56.891773    56.891773 
  601000    846.86943   -36907.983   -35913.262    2542.3294    184140.12    56.954564    56.860404    56.860404 
  602000    849.63825   -36917.043   -35919.069    2208.3945    184140.12    57.017107     56.82921     56.82921 
  603000    830.68719    -36924.38   -35948.666    2097.1373    184140.12    57.079155    56.798314    56.798314 
  604000    850.47148   -36931.541   -35932.589    2022.0884    184140.12    57.140463    56.767835    56.767835 
  605000    829.91926   -36912.759   -35937.946    2417.6304    184140.12     57.20079    56.737892    56.737892 
  606000     848.7341   -36931.831   -35934.919    2037.8304    184140.12    57.259898      56.7086      56.7086 
  607000    843.82848   -36915.497   -35924.347    2353.0627    184140.12    57.317553    56.680071    56.680071 
  608000    851.32442   -36931.305   -35931.351    1628.3306    184140.12    57.373527    56.652416    56.652416 
  609000    846.59648    -36931.89   -35937.489    2058.1789    184140.12      57.4276    56.625738    56.625738 
  610000    849.08481    -36924.43   -35927.106    2433.4649    184140.12    57.479559    56.600139    56.600139 
  611000    845.26354   -36927.713   -35934.877    2125.6145    184140.12    57.529197    56.575715    56.575715 
  612000    847.94697   -36928.302   -35932.314     2048.796    184140.12    57.576321    56.552558    56.552558 
  613000    853.81741   -36916.957   -35914.074    2508.1982    184140.12    57.620742    56.530755    56.530755 
  614000    856.01492     -36927.3   -35921.836    2356.7579    184140.12    57.662287    56.510386    56.510386 
  615000    847.29366   -36913.567   -35918.347    2303.8978    184140.12     57.70079    56.491529    56.491529 
  616000    845.45591   -36923.489   -35930.428    2107.8618    184140.12    57.736101    56.474251    56.474251 
  617000    846.36481   -36912.159    -35918.03    2192.1595    184140.12     57.76808    56.458618    56.458618 
  618000    844.98123   -36912.837   -35920.333    2884.7599    184140.12    57.796601    56.444686    56.444686 
  619000    854.43551   -36907.538    -35903.93    2908.3134    184140.12     57.82155    56.432507    56.432507 
  620000    849.05479   -36927.143   -35929.855    2413.9292    184140.12     57.84283    56.422125    56.422125 
  621000    845.97194   -36912.528    -35918.86    2378.3144    184140.12    57.860357    56.413579    56.413579 
  622000     856.8962    -36924.62   -35918.121    2076.3157    184140.12    57.874061      56.4069      56.4069 
  623000    842.04812   -36911.218   -35922.159     2513.772    184140.12    57.883888    56.402111    56.402111 
  624000    843.02055   -36915.999   -35925.798    2555.9638    184140.12      57.8898    56.399231    56.399231 
  625000    844.07093   -36916.726   -35925.292    2720.8572    184140.12    57.891773     56.39827     56.39827 
  626000    838.20387   -36905.875   -35921.332    2526.6334    184140.12      57.8898    56.399231    56.399231 
  627000    855.40105   -36936.681   -35931.938    2306.2085    184140.12    57.883888    56.402111    56.402111 
  628000    845.95416   -36937.932   -35944.285     1882.938    184140.12    57.874061      56.4069      56.4069 
  629000    843.99938   -36926.515   -35935.164    2302.6813    184140.12    57.860357    56.413579    56.413579 
  630000    848.59737   -36923.769   -35927.017    2143.7505    184140.12     57.84283    56.422125    56.422125 
  631000    857.34941   -36921.439   -35914.407    2451.2823    184140.12     57.82155    56.432507    56.432507 
  632000    846.15973   -36924.852   -35930.964    2159.7021    184140.12    57.796601    56.444686    56.444686 
  633000    848.25376   -36920.948     -35924.6    2176.3733    184140.12     57.76808    56.458618    56.458618 
  634000    846.94548   -36917.396   -35922.585    2164.6763    184140.12    57.736101    56.474251    56.474251 
  635000    852.19468   -36903.224   -35902.248    2832.7339    184140.12     57.70079    56.491529    56.491529 
  636000    840.78554   -36897.515   -35909.939    2875.6121    184140.12    57.662287    56.510386    56.510386 
  637000    857.37885   -36910.581   -35903.515    2559.3565    184140.12    57.620742    56.530755    56.530755 
  638000    856.64301   -36914.376   -35908.174    2783.0921    184140.12    57.576321    56.552558    56.552558 
  639000     843.8745    -36900.82   -35909.616    2715.1649    184140.12    57.529197    56.575715    56.575715 
  640000    844.30844   -36918.005   -35926.291    2116.6647    184140.12    57.479559    56.600139    56.600139 
  641000    844.29285   -36918.605   -35926.909    2645.8221    184140.12      57.4276    56.625738    56.625738 
  642000    860.26151   -36915.283   -35904.831    2459.9979    184140.12    57.373527    56.652416    56.652416 
  643000    860.66322   -36913.257   -35902.333    2662.5062    184140.12    57.317553    56.680071    56.680071 
  644000    856.02287   -36917.393    -35911.92    2352.3028    184140.12    57.259898      56.7086      56.7086 
  645000    855.05791   -36936.741   -35932.401    1749.9986    184140.12     57.20079    56.737892    56.737892 
  646000    848.44062   -36929.273   -35932.706    2297.7711    184140.12    57.140463    56.767835    56.767835 
  647000    842.62287   -36917.596   -35927.862    1777.4613    184140.12    57.079155    56.798314    56.798314 
  648000    855.71412   -36918.261    -35913.15    2340.1363    184140.12    57.017107     56.82921     56.82921 
  649000    838.68109   -36909.245   -35924.141    2543.3785    184140.12    56.954564    56.860404    56.860404 
  650000    848.52923   -36911.843   -35915.172    2442.6632    184140.12    56.891773    56.891773    56.891773 
  651000    841.97974   -36914.359   -35925.381    2566.4098    184140.12    56.828983    56.923195    56.923195 
  652000    844.73687   -36931.171   -35938.954    1983.6625    184140.12     56.76644    56.954544    56.954544 
  653000    850.05642   -36922.154   -35923.688     2552.464    184140.12    56.704392    56.985696    56.985696 
  654000    851.17109   -36907.854   -35908.079    2584.4341    184140.12    56.643084    57.016528    57.016528 
  655000    847.61425   -36917.203   -35921.607    2466.0296    184140.12    56.582756    57.046914    57.046914 
  656000    863.13092   -36929.282    -35915.46    1872.1833    184140.12    56.523649    57.076734    57.076734 
  657000    840.11664   -36942.305   -35955.515    1797.6769    184140.12    56.465994    57.105866    57.105866 
  658000    842.38784   -36925.944   -35936.486    2226.9373    184140.12     56.41002    57.134191    57.134191 
  659000    861.96983    -36922.28   -35909.821     2321.694    184140.12    56.355947    57.161594    57.161594 
  660000    837.52894   -36927.195   -35943.444    2324.4322    184140.12    56.303988    57.187963    57.187963 
  661000    840.37354   -36934.522    -35947.43    1832.7775    184140.12    56.254349    57.213189    57.213189 
  662000     841.4991    -36927.78   -35939.366    2005.9266    184140.12    56.207226    57.237167    57.237167 
  663000     848.9235   -36935.521   -35938.387    1755.1349    184140.12    56.162805    57.259798    57.259798 
  664000     857.6653   -36927.774   -35920.371    2131.3366    184140.12     56.12126    57.280988    57.280988 
  665000    848.66873   -36940.683   -35943.848    1784.3682    184140.12    56.082756    57.300648    57.300648 
  666000    855.13283   -36927.156   -35922.728     2016.389    184140.12    56.047446    57.318695    57.318695 
  667000    849.55298   -36924.606   -35926.733    2144.9535    184140.12    56.015467    57.335054    57.335054 
  668000    850.68621   -36915.087   -35915.882    2158.3719    184140.12    55.986946    57.349656    57.349656 
  669000    854.77506   -36940.195   -35936.187    1500.9141    184140.12    55.961997    57.362439    57.362439 
  670000      850.819   -36934.995   -35935.634    1689.3141    184140.12    55.940717    57.373348    57.373348 
  671000    840.99385   -36915.795   -35927.974    2451.3794    184140.12     55.92319    57.382338    57.382338 
  672000    849.97814   -36917.389   -35919.016    2089.6906    184140.12    55.909486     57.38937     57.38937 
  673000    848.22705   -36918.951   -35922.635     2381.732    184140.12    55.899659    57.394414    57.394414 
  674000    848.52169    -36922.14   -35925.477    2156.7896    184140.12    55.893747     57.39745     57.39745 
  675000    849.96379    -36908.51   -35910.154    2605.3411    184140.12    55.891773    57.398463    57.398463 
  676000    861.19007   -36940.327   -35928.784    1907.5118    184140.12    55.893747     57.39745     57.39745 
  677000    852.48448   -36917.822   -35916.505    2321.7168    184140.12    55.899659    57.394414    57.394414 
  678000    853.23901   -36920.382   -35918.179    2050.0742    184140.12    55.909486     57.38937     57.38937 
  679000     854.1787   -36911.336   -35908.028    2839.1368    184140.12     55.92319    57.382338    57.382338 
  680000    838.10052   -36927.779   -35943.358    1931.0518    184140.12    55.940717    57.373348    57.373348 
  681000    854.20774   -36918.746   -35915.405    2188.7178    184140.12    55.961997    57.362439    57.362439 
  682000    847.71492   -36926.386   -35930.671    1989.8288    184140.12    55.986946    57.349656    57.349656 
[...]
  838000    861.47037   -36928.264   -35916.392    1826.2726    184140.12    57.576321    56.552558    56.552558 
  839000    847.07346   -36950.167   -35955.206    1395.2464    184140.12    57.529197    56.575715    56.575715 
  840000    852.16527     -36940.3   -35939.358     1693.161    184140.12    57.479559    56.600139    56.600139 
  841000    845.92809   -36953.429   -35959.813    1500.6125    184140.12      57.4276    56.625738    56.625738 
  842000    856.19235   -36936.348   -35930.675     1989.573    184140.12    57.373527    56.652416    56.652416 
  843000    846.90949   -36924.095   -35929.327    1869.4927    184140.12    57.317553    56.680071    56.680071 
  844000     852.5918   -36935.062   -35933.619    1830.1923    184140.12    57.259898      56.7086      56.7086 
  845000      856.093   -36922.047   -35916.491     1950.132    184140.12     57.20079    56.737892    56.737892 
  846000    847.62983   -36943.833   -35948.218     1360.549    184140.12    57.140463    56.767835    56.767835 
  847000    851.54208   -36931.237   -35931.027    2108.4529    184140.12    57.079155    56.798314    56.798314 
  848000    854.78846    -36940.97   -35936.947    1835.0788    184140.12    57.017107     56.82921     56.82921 
  849000    847.29182   -36929.908    -35934.69    2261.8055    184140.12    56.954564    56.860404    56.860404 
  850000     850.6992   -36927.475   -35928.255    2173.7545    184140.12    56.891773    56.891773    56.891773 
  851000    834.15704   -36922.878   -35943.088    2133.1666    184140.12    56.828983    56.923195    56.923195 
  852000    848.82718   -36925.341    -35928.32    2236.1917    184140.12     56.76644    56.954544    56.954544 
  853000    859.94826   -36927.675   -35917.591    2075.5787    184140.12    56.704392    56.985696    56.985696 
  854000    859.80761   -36928.698   -35918.779    2164.1986    184140.12    56.643084    57.016528    57.016528 
  855000     841.0854     -36914.2   -35926.272    2268.3271    184140.12    56.582756    57.046914    57.046914 
  856000    843.18469     -36918.4   -35928.006    2101.0139    184140.12    56.523649    57.076734    57.076734 
  857000    835.65677   -36936.139   -35954.587    1730.1612    184140.12    56.465994    57.105866    57.105866 
  858000     862.7319   -36933.266   -35919.912     1948.631    184140.12     56.41002    57.134191    57.134191 
  859000    839.81411   -36931.097   -35944.663    1421.8176    184140.12    56.355947    57.161594    57.161594 
  860000    840.50746   -36952.356   -35965.107    1220.8162    184140.12    56.303988    57.187963    57.187963 
  861000    849.12406   -36922.351   -35924.981    2176.0678    184140.12    56.254349    57.213189    57.213189 
  862000    859.74003   -36938.309    -35928.47    1663.0992    184140.12    56.207226    57.237167    57.237167 
  863000    854.46892   -36928.342   -35924.694     1947.194    184140.12    56.162805    57.259798    57.259798 
  864000    851.53962   -36933.514   -35933.307    1755.2287    184140.12     56.12126    57.280988    57.280988 
  865000    850.55777   -36926.293   -35927.239    2318.0547    184140.12    56.082756    57.300648    57.300648 
  866000    853.34213   -36912.913   -35910.589    1916.5345    184140.12    56.047446    57.318695    57.318695 
  867000    845.84392   -36928.112   -35934.595    2017.5704    184140.12    56.015467    57.335054    57.335054 
  868000    852.35775   -36935.881   -35934.713     1773.733    184140.12    55.986946    57.349656    57.349656 
  869000    853.74152   -36940.929   -35938.136    1815.4465    184140.12    55.961997    57.362439    57.362439 
  870000    845.19197   -36922.087   -35929.335    1930.5033    184140.12    55.940717    57.373348    57.373348 
  871000    850.06189   -36921.149   -35922.678    2006.3802    184140.12     55.92319    57.382338    57.382338 
  872000    855.26769   -36910.702   -35906.116     2435.486    184140.12    55.909486     57.38937     57.38937 
  873000    853.29912   -36917.814    -35915.54    2116.3493    184140.12    55.899659    57.394414    57.394414 
  874000    861.18298    -36931.69   -35920.156    1902.0473    184140.12    55.893747     57.39745     57.39745 
  875000    845.55593   -36927.598   -35934.419    2265.9964    184140.12    55.891773    57.398463    57.398463 
  876000    845.31801   -36932.193   -35939.293    1641.7275    184140.12    55.893747     57.39745     57.39745 
  877000    845.09433   -36938.926   -35946.289    1676.8463    184140.12    55.899659    57.394414    57.394414 
  878000    853.80292    -36911.89   -35909.024    2744.3154    184140.12    55.909486     57.38937     57.38937 
  879000    842.47943   -36911.493   -35921.928    2624.8053    184140.12     55.92319    57.382338    57.382338 
  880000    841.76314   -36915.617   -35926.893    2452.0368    184140.12    55.940717    57.373348    57.373348 
  881000    845.55062    -36927.23   -35934.058     2077.723    184140.12    55.961997    57.362439    57.362439 
  882000    833.68571   -36922.456    -35943.22    2209.9794    184140.12    55.986946    57.349656    57.349656 
  883000    833.81481     -36937.5   -35958.112    1823.8275    184140.12    56.015467    57.335054    57.335054 
  884000    837.58487   -36931.364   -35947.547    1744.8748    184140.12    56.047446    57.318695    57.318695 
  885000    838.98595   -36914.901   -35929.439    2238.1996    184140.12    56.082756    57.300648    57.300648 
  886000    856.92125   -36919.375   -35912.847    1769.1231    184140.12     56.12126    57.280988    57.280988 
  887000    854.70943   -36930.988   -35927.058    1954.3369    184140.12    56.162805    57.259798    57.259798 
  888000    844.10225   -36917.291    -35925.82    2417.6808    184140.12    56.207226    57.237167    57.237167 
  889000     857.9657   -36928.102   -35920.347    1920.2766    184140.12    56.254349    57.213189    57.213189 
  890000     853.6894   -36884.964   -35882.231     3151.609    184140.12    56.303988    57.187963    57.187963 
  891000    842.00597   -36925.149    -35936.14    2023.5003    184140.12    56.355947    57.161594    57.161594 
  892000    862.89163    -36916.72   -35903.178    2592.9625    184140.12     56.41002    57.134191    57.134191 
  893000      839.349   -36916.437   -35930.548     2191.681    184140.12    56.465994    57.105866    57.105866 
  894000    859.08513   -36937.353   -35928.283    1814.4696    184140.12    56.523649    57.076734    57.076734 
  895000    851.46312   -36911.735   -35911.618    2145.8579    184140.12    56.582756    57.046914    57.046914 
  896000    844.34443   -36927.348   -35935.592     1582.533    184140.12    56.643084    57.016528    57.016528 
  897000    841.01588   -36931.366    -35943.52    2087.5459    184140.12    56.704392    56.985696    56.985696 
  898000    849.59463   -36941.896   -35943.974    1328.0299    184140.12     56.76644    56.954544    56.954544 
  899000    848.31473   -36925.316   -35928.896      1737.92    184140.12    56.828983    56.923195    56.923195 
  900000    843.55976   -36933.255   -35942.421    1697.7132    184140.12    56.891773    56.891773    56.891773 
  901000    851.56963   -36930.456   -35930.213    1830.7208    184140.12    56.954564    56.860404    56.860404 
  902000    846.61273   -36944.866   -35950.446    1762.8186    184140.12    57.017107     56.82921     56.82921 
  903000    849.43839    -36937.84   -35940.101    1397.1565    184140.12    57.079155    56.798314    56.798314 
  904000     854.5952   -36931.709   -35927.912    1693.5292    184140.12    57.140463    56.767835    56.767835 
  905000    842.57457    -36911.91   -35922.233    2425.5991    184140.12     57.20079    56.737892    56.737892 
  906000    853.76001   -36933.088   -35930.273    2213.1485    184140.12    57.259898      56.7086      56.7086 
  907000    847.58651   -36935.869   -35940.305     1871.518    184140.12    57.317553    56.680071    56.680071 
  908000     840.0051   -36925.551   -35938.892    2247.7103    184140.12    57.373527    56.652416    56.652416 
  909000    843.60286   -36918.623   -35927.738    2599.6668    184140.12      57.4276    56.625738    56.625738 
  910000    852.07687   -36923.452   -35922.614    2265.5712    184140.12    57.479559    56.600139    56.600139 
  911000    848.96578   -36924.829   -35927.645    2138.7206    184140.12    57.529197    56.575715    56.575715 
  912000    835.71658   -36933.527   -35951.905    1876.3125    184140.12    57.576321    56.552558    56.552558 
  913000    841.11998   -36919.651   -35931.682    2225.6839    184140.12    57.620742    56.530755    56.530755 
  914000    852.18981   -36938.426   -35937.455    1819.8105    184140.12    57.662287    56.510386    56.510386 
  915000     856.2264   -36924.453   -35918.741    1964.7386    184140.12     57.70079    56.491529    56.491529 
  916000    852.84792   -36941.921   -35940.177    1295.2628    184140.12    57.736101    56.474251    56.474251 
  917000    853.39462   -36928.716    -35926.33    2058.3842    184140.12     57.76808    56.458618    56.458618 
  918000    857.17146     -36933.4   -35926.578    1706.5612    184140.12    57.796601    56.444686    56.444686 
  919000    850.40491   -36928.231   -35929.356    1793.2976    184140.12     57.82155    56.432507    56.432507 
  920000    854.44446   -36927.285   -35923.666    2157.4227    184140.12     57.84283    56.422125    56.422125 
  921000    857.74264   -36938.384   -35930.891    1862.2323    184140.12    57.860357    56.413579    56.413579 
  922000    864.66548   -36910.755   -35895.131    2281.6633    184140.12    57.874061      56.4069      56.4069 
  923000    842.32811   -36940.311   -35950.923    1538.6803    184140.12    57.883888    56.402111    56.402111 
  924000    858.97038   -36926.074   -35917.139    1939.8098    184140.12      57.8898    56.399231    56.399231 
  925000    846.15676   -36924.148   -35930.264    2243.2693    184140.12    57.891773     56.39827     56.39827 
  926000     854.7613   -36928.904   -35924.912    2327.2742    184140.12      57.8898    56.399231    56.399231 
  927000    859.93016   -36942.939   -35932.877    1532.4816    184140.12    57.883888    56.402111    56.402111 
  928000     847.3815   -36940.152   -35944.829    1622.6483    184140.12    57.874061      56.4069      56.4069 
  929000    858.05071   -36937.929   -35930.074    2074.1917    184140.12    57.860357    56.413579    56.413579 
  930000    843.16458   -36932.228   -35941.858    1789.2238    184140.12     57.84283    56.422125    56.422125 
  931000    860.44844     -36926.2   -35915.529    2198.4227    184140.12     57.82155    56.432507    56.432507 
  932000    851.61335   -36934.193     -35933.9    1735.0604    184140.12    57.796601    56.444686    56.444686 
  933000    844.07995   -36928.726   -35937.281    1709.1967    184140.12     57.76808    56.458618    56.458618 
  934000    849.04973   -36940.203   -35942.921    1879.4652    184140.12    57.736101    56.474251    56.474251 
  935000    853.75847   -36934.946   -35932.132    1680.8181    184140.12     57.70079    56.491529    56.491529 
  936000    836.33085   -36911.266   -35928.923    2176.7867    184140.12    57.662287    56.510386    56.510386 
  937000    849.82799   -36928.195   -35929.999    1737.8016    184140.12    57.620742    56.530755    56.530755 
  938000     842.6512    -36923.51   -35933.743    2389.8139    184140.12    57.576321    56.552558    56.552558 
  939000    852.78963   -36932.719   -35931.044    1912.9682    184140.12    57.529197    56.575715    56.575715 
  940000    859.42487   -36922.449    -35912.98    2325.7971    184140.12    57.479559    56.600139    56.600139 
  941000    848.34626   -36927.625   -35931.169    1996.6548    184140.12      57.4276    56.625738    56.625738 
  942000    848.73229   -36916.676   -35919.766    2296.7013    184140.12    57.373527    56.652416    56.652416 
  943000    846.76066   -36931.413   -35936.819    1772.9189    184140.12    57.317553    56.680071    56.680071 
  944000    854.09353   -36934.897    -35931.69    2054.5434    184140.12    57.259898      56.7086      56.7086 
  945000     849.9776   -36942.744   -35944.371    1392.7234    184140.12     57.20079    56.737892    56.737892 
  946000    849.09145   -36927.438   -35930.106    1614.3567    184140.12    57.140463    56.767835    56.767835 
  947000    840.41543    -36939.61   -35952.469    1805.2623    184140.12    57.079155    56.798314    56.798314 
  948000    861.84163   -36937.225   -35924.917    1775.0014    184140.12    57.017107     56.82921     56.82921 
  949000    857.17401   -36916.107   -35909.282    2232.3671    184140.12    56.954564    56.860404    56.860404 
  950000    846.95493   -36927.392    -35932.57    2082.7393    184140.12    56.891773    56.891773    56.891773 
  951000    856.80517   -36932.584   -35926.192    1868.5393    184140.12    56.828983    56.923195    56.923195 
  952000    847.07015   -36926.494   -35931.536    2078.0635    184140.12     56.76644    56.954544    56.954544 
  953000    845.86578   -36919.511   -35925.968    2585.9423    184140.12    56.704392    56.985696    56.985696 
  954000    869.68888    -36930.73   -35909.205    2083.5877    184140.12    56.643084    57.016528    57.016528 
  955000    850.53796   -36933.753   -35934.722    2059.9026    184140.12    56.582756    57.046914    57.046914 
  956000    843.66444   -36923.882   -35932.925    2056.3063    184140.12    56.523649    57.076734    57.076734 
  957000    857.15001   -36924.869   -35918.072    2241.5043    184140.12    56.465994    57.105866    57.105866 
  958000    858.51101   -36919.944   -35911.548     2534.206    184140.12     56.41002    57.134191    57.134191 
  959000     853.2283   -36938.525   -35936.334    1752.7302    184140.12    56.355947    57.161594    57.161594 
  960000    846.60901   -36930.611   -35936.195    1850.3509    184140.12    56.303988    57.187963    57.187963 
  961000    844.84231   -36923.039   -35930.698    2194.2011    184140.12    56.254349    57.213189    57.213189 
  962000     859.8311   -36938.412   -35928.465    1953.1483    184140.12    56.207226    57.237167    57.237167 
  963000    856.07403   -36949.771   -35944.238    1692.5651    184140.12    56.162805    57.259798    57.259798 
  964000    847.34522   -36937.595   -35942.314    1743.5836    184140.12     56.12126    57.280988    57.280988 
  965000    854.16537    -36951.36   -35948.068    1049.8311    184140.12    56.082756    57.300648    57.300648 
  966000    852.52512   -36936.508   -35935.143    1786.1383    184140.12    56.047446    57.318695    57.318695 
  967000    845.21874   -36936.797   -35944.014    1778.9603    184140.12    56.015467    57.335054    57.335054 
  968000    843.92896   -36943.092   -35951.824    1361.9833    184140.12    55.986946    57.349656    57.349656 
  969000    845.51716   -36941.178   -35948.045    1741.6533    184140.12    55.961997    57.362439    57.362439 
  970000    847.00916   -36952.779   -35957.893    1143.2685    184140.12    55.940717    57.373348    57.373348 
  971000    852.97324   -36966.609   -35964.718    1017.9566    184140.12     55.92319    57.382338    57.382338 
  972000    846.44101   -36941.084   -35946.866    1670.6914    184140.12    55.909486     57.38937     57.38937 
  973000    856.25664   -36943.958    -35938.21    1489.2331    184140.12    55.899659    57.394414    57.394414 
  974000    841.87864   -36941.147   -35952.287    1089.9907    184140.12    55.893747     57.39745     57.39745 
  975000    837.71787   -36940.774   -35956.801    1442.5374    184140.12    55.891773    57.398463    57.398463 
  976000    853.17641   -36938.963   -35936.833    1815.6793    184140.12    55.893747     57.39745     57.39745 
  977000    855.86523   -36942.676   -35937.388    1639.0844    184140.12    55.899659    57.394414    57.394414 
  978000    852.42566   -36944.983   -35943.735    1753.2517    184140.12    55.909486     57.38937     57.38937 
  979000    840.75663   -36954.502   -35966.961    1354.2992    184140.12     55.92319    57.382338    57.382338 
  980000    838.87374   -36959.051   -35973.721    773.31316    184140.12    55.940717    57.373348    57.373348 
  981000    851.72346   -36960.633   -35960.209    916.87005    184140.12    55.961997    57.362439    57.362439 
  982000    851.79482   -36977.785   -35977.278    957.70621    184140.12    55.986946    57.349656    57.349656 
  983000    849.51458   -36945.503   -35947.674    1885.7833    184140.12    56.015467    57.335054    57.335054 
  984000    855.09562   -36938.364    -35933.98    1785.1705    184140.12    56.047446    57.318695    57.318695 
  985000    842.97452   -36967.204   -35977.057    790.52815    184140.12    56.082756    57.300648    57.300648 
  986000     855.1009    -36965.91    -35961.52    1014.4945    184140.12     56.12126    57.280988    57.280988 
  987000      853.363   -36931.608   -35929.259    1663.3326    184140.12    56.162805    57.259798    57.259798 
  988000    847.79536   -36957.386   -35961.577    1002.3985    184140.12    56.207226    57.237167    57.237167 
  989000    847.34575   -36949.913   -35954.632    1624.5348    184140.12    56.254349    57.213189    57.213189 
  990000    850.42163     -36938.8   -35939.906    1152.8236    184140.12    56.303988    57.187963    57.187963 
  991000    842.13779   -36932.554    -35943.39    1722.6029    184140.12    56.355947    57.161594    57.161594 
  992000    849.39187   -36937.601   -35939.917     1453.386    184140.12     56.41002    57.134191    57.134191 
  993000    857.78126   -36954.946   -35947.407    1566.4574    184140.12    56.465994    57.105866    57.105866 
  994000    853.65504   -36927.166   -35924.474    1929.9188    184140.12    56.523649    57.076734    57.076734 
  995000    835.02165   -36943.607   -35962.801    1531.9193    184140.12    56.582756    57.046914    57.046914 
  996000    844.40823   -36934.807   -35942.977    1489.9454    184140.12    56.643084    57.016528    57.016528 
  997000     859.8797   -36927.742   -35917.739    2293.1918    184140.12    56.704392    56.985696    56.985696 
  998000    855.84018   -36941.955   -35936.696    2055.3045    184140.12     56.76644    56.954544    56.954544 
  999000     845.2333   -36942.475   -35949.675    1658.7392    184140.12    56.828983    56.923195    56.923195 
 1000000    854.50488   -36933.899   -35930.209     1348.184    184140.12    56.891773    56.891773    56.891773 
Loop time of 494.299 on 48 procs for 1000000 steps with 9088 atoms

Performance: 1747.931 ns/day, 0.014 hours/ns, 2023.068 timesteps/s
99.3% CPU use with 48 MPI tasks x 1 OpenMP threads

MPI task timing breakdown:
Section |  min time  |  avg time  |  max time  |%varavg| %total
---------------------------------------------------------------
Pair    | 333.48     | 341.4      | 351.51     |  26.5 | 69.07
Neigh   | 28.221     | 30.639     | 32.999     |  24.2 |  6.20
Comm    | 72.76      | 81.394     | 89.151     |  52.0 | 16.47
Output  | 0.067108   | 0.07114    | 0.227      |   8.5 |  0.01
Modify  | 32.594     | 34.979     | 37.485     |  20.0 |  7.08
Other   |            | 5.819      |            |       |  1.18

Nlocal:        189.333 ave         197 max         182 min
Histogram: 5 3 4 0 10 10 8 0 4 4
Nghost:        2064.48 ave        2083 max        2047 min
Histogram: 7 3 7 6 3 1 7 5 2 7
Neighs:        19405.4 ave       20694 max       18276 min
Histogram: 5 6 3 4 8 7 5 6 0 4

Total # of neighbors = 931459
Ave neighs/atom = 102.49329
Neighbor list builds = 192556
Dangerous builds = 0
write_restart rst.${T}
write_restart rst.850
System init for write_restart ...
clear
OMP_NUM_THREADS environment is not set. Defaulting to 1 thread. (../comm.cpp:94)
  using 1 OpenMP thread(s) per MPI task
package intel 1
jump dms860.lmp
#MD-DMS by Ha-Bin Yu
variable T equal 860
log log.${T}
log log.860
