units           metal
boundary        p p p
atom_style      atomic
read_data      ../../data/T${T}.dat
read_data      ../../data/T480.dat
Reading data file ...
  orthogonal box = (-0.25038904 -0.25038904 -0.25038904) to (56.134882 56.134882 56.134882)
  3 by 4 by 4 MPI processor grid
  reading atoms ...
  9088 atoms
  reading velocities ...
  9088 velocities
  read_data CPU = 0.027 seconds
mass            1  26.98	#Al
mass            2  150.36	#Sm
pair_style      eam/fs
pair_coeff      * *  ../../Al90Sm10_MendelevM_2014.eam.fs  Al Sm

neighbor        2.0 bin
neigh_modify    delay 1

timestep 0.01
thermo 1000
reset_timestep 0
thermo_style custom step temp pe etotal press vol lx ly lz
fix             1 all nvt temp ${T} ${T} 0.1
fix             1 all nvt temp 480 ${T} 0.1
fix             1 all nvt temp 480 480 0.1
thermo_modify flush yes
fix nodrift all momentum 1  linear 1 1 1
fix com_seed all recenter INIT INIT INIT shift all
fix dsf all deform 1 x  wiggle 1.0  1000.0 y volume z volume units box
fix ps1 all ave/time 1 1 1000 c_thermo_press[1] c_thermo_press[2]  c_thermo_press[3] c_thermo_press[4]  c_thermo_press[5] c_thermo_press[6]  file  stress.${T}
fix ps1 all ave/time 1 1 1000 c_thermo_press[1] c_thermo_press[2]  c_thermo_press[3] c_thermo_press[4]  c_thermo_press[5] c_thermo_press[6]  file  stress.480
dump            1 all custom 100000 dump.${T} id type x y z
dump            1 all custom 100000 dump.480 id type x y z
dump_modify 1 sort id
run 1000000
Neighbor list info ...
  update every 1 steps, delay 1 steps, check yes
  max neighbors/atom: 2000, page size: 100000
  master list distance cutoff = 10
  ghost atom cutoff = 10
  binsize = 5, bins = 12 12 12
  1 neighbor lists, perpetual/occasional/extra = 1 0 0
  (1) pair eam/fs/intel, perpetual
      attributes: half, newton on, intel
      pair build: half/bin/newton/intel
      stencil: half/bin/3d/newton
      bin: intel
Per MPI rank memory allocation (min/avg/max) = 6.298 | 6.396 | 6.475 Mbytes
Step Temp PotEng TotEng Press Volume Lx Ly Lz 
       0    474.75577   -37700.913   -37143.271    1128.4069    179265.62    56.385271    56.385271    56.385271 
    1000    483.10695   -37685.847   -37118.396    1165.0734    179265.62    56.448061    56.353902    56.353902 
    2000    480.87711   -37690.083   -37125.251    965.58448    179265.62    56.510604    56.322708    56.322708 
    3000    478.44427   -37690.253   -37128.278    968.15801    179265.62    56.572652    56.291813    56.291813 
    4000    485.56416   -37690.308   -37119.971    1254.9646    179265.62    56.633961    56.261336    56.261336 
    5000    480.28179   -37684.513   -37120.381    1401.5195    179265.62    56.694288    56.231394    56.231394 
    6000    477.09184   -37702.348   -37141.962    548.21599    179265.62    56.753395    56.202105    56.202105 
    7000    482.01532   -37679.423   -37113.254    1420.7176    179265.62     56.81105    56.173579    56.173579 
    8000    479.16238    -37685.46   -37122.642    1301.0473    179265.62    56.867024    56.145926    56.145926 
    9000    482.73173   -37683.401    -37116.39    1170.0992    179265.62    56.921098    56.119252    56.119252 
   10000    479.41349   -37686.237   -37123.124    1119.8069    179265.62    56.973056    56.093656    56.093656 
   11000    485.45971   -37680.914   -37110.699    1358.8994    179265.62    57.022695    56.069236    56.069236 
   12000    483.82009   -37682.861   -37114.572    1433.4938    179265.62    57.069818    56.046082    56.046082 
   13000    485.17656   -37675.965   -37106.083    1605.9172    179265.62    57.114239    56.024283    56.024283 
   14000    478.32393   -37686.445   -37124.612    1005.3112    179265.62    57.155784    56.003918    56.003918 
   15000    477.53348   -37677.767   -37116.862    1463.8073    179265.62    57.194288    55.985064    55.985064 
   16000    477.90873   -37682.419   -37121.074     1347.277    179265.62    57.229599     55.96779     55.96779 
   17000    471.62448   -37685.544    -37131.58     1214.407    179265.62    57.261577    55.952159    55.952159 
   18000    478.84487   -37681.466   -37119.021    1373.7517    179265.62    57.290098     55.93823     55.93823 
   19000    477.70248   -37677.845   -37116.742    1398.9025    179265.62    57.315047    55.926054    55.926054 
   20000    473.07831   -37681.669   -37125.997    1484.1279    179265.62    57.336327    55.915675    55.915675 
   21000    477.89927   -37682.253   -37120.918    1472.7747    179265.62    57.353854     55.90713     55.90713 
   22000    479.88414   -37676.467   -37112.802    1468.0023    179265.62    57.367558    55.900452    55.900452 
   23000    480.85841   -37681.406   -37116.596    1432.7571    179265.62    57.377385    55.895665    55.895665 
   24000    484.19842   -37680.312   -37111.578    1485.7316    179265.62    57.383297    55.892786    55.892786 
   25000    484.60631   -37679.385   -37110.172    1298.3703    179265.62    57.385271    55.891825    55.891825 
   26000    484.77793    -37666.55   -37097.136    1628.0036    179265.62    57.383297    55.892786    55.892786 
   27000    484.36921   -37674.377   -37105.443    1502.0246    179265.62    57.377385    55.895665    55.895665 
   28000    481.72653   -37678.922   -37113.092    1346.8588    179265.62    57.367558    55.900452    55.900452 
   29000    476.92061   -37684.032   -37123.847    1453.1233    179265.62    57.353854     55.90713     55.90713 
   30000    474.96128   -37686.153   -37128.269    940.89422    179265.62    57.336327    55.915675    55.915675 
   31000    485.85726   -37673.388   -37102.707     1873.787    179265.62    57.315047    55.926054    55.926054 
   32000    483.22035    -37684.89   -37117.306     1251.263    179265.62    57.290098     55.93823     55.93823 
   33000    486.91734   -37681.929   -37110.002    1357.3655    179265.62    57.261577    55.952159    55.952159 
   34000    479.08916   -37680.361   -37117.629     1314.928    179265.62    57.229599     55.96779     55.96779 
   35000     477.3487   -37676.058   -37115.371    1514.8054    179265.62    57.194288    55.985064    55.985064 
   36000    487.07611   -37683.002   -37110.889    1228.0297    179265.62    57.155784    56.003918    56.003918 
   37000    478.52913   -37700.728   -37138.654    891.38986    179265.62    57.114239    56.024283    56.024283 
   38000    477.56684   -37679.978   -37119.035    1534.5673    179265.62    57.069818    56.046082    56.046082 
   39000    484.90921   -37676.689   -37107.121    1515.8238    179265.62    57.022695    56.069236    56.069236 
   40000    479.94065   -37682.744   -37119.012    1436.7033    179265.62    56.973056    56.093656    56.093656 
   41000    474.07352   -37690.974   -37134.133    985.89222    179265.62    56.921098    56.119252    56.119252 
   42000    480.19554   -37679.926   -37115.895    1201.3874    179265.62    56.867024    56.145926    56.145926 
   43000    481.51245   -37691.183   -37125.605    1032.0571    179265.62     56.81105    56.173579    56.173579 
   44000      478.463   -37687.553   -37125.556    1037.6699    179265.62    56.753395    56.202105    56.202105 
   45000    485.23253    -37687.23   -37117.282    1282.2034    179265.62    56.694288    56.231394    56.231394 
   46000    482.46719   -37686.582   -37119.882    1234.6803    179265.62    56.633961    56.261336    56.261336 
   47000    481.67443   -37689.767   -37123.998    1028.2341    179265.62    56.572652    56.291813    56.291813 
   48000    483.15515   -37684.137   -37116.629    1224.8888    179265.62    56.510604    56.322708    56.322708 
   49000     486.5222   -37675.865   -37104.402    1519.3017    179265.62    56.448061    56.353902    56.353902 
   50000    480.18935   -37681.149   -37117.125    1635.7027    179265.62    56.385271    56.385271    56.385271 
   51000    480.50623   -37688.145   -37123.748    1369.3745    179265.62     56.32248    56.416692    56.416692 
   52000     485.7408   -37687.577   -37117.032    1266.7891    179265.62    56.259937    56.448042    56.448042 
   53000    479.93115   -37688.266   -37124.545    1172.0543    179265.62    56.197889    56.479196    56.479196 
   54000    486.20563   -37681.261    -37110.17    1469.1001    179265.62    56.136581    56.510028    56.510028 
   55000    487.24685   -37684.926   -37112.612    1162.2228    179265.62    56.076254    56.540417    56.540417 
   56000    481.87888   -37678.419   -37112.411    1409.3934    179265.62    56.017146    56.570239    56.570239 
   57000     486.6039    -37678.84   -37107.282     1509.097    179265.62    55.959491    56.599374    56.599374 
   58000    481.79487    -37678.78    -37112.87    1659.2275    179265.62    55.903517    56.627702    56.627702 
   59000    477.60593   -37674.876   -37113.887    1719.3136    179265.62    55.849444    56.655109    56.655109 
   60000    484.88384   -37687.188   -37117.649    1136.3293    179265.62    55.797485    56.681481    56.681481 
   61000    485.14674   -37681.181   -37111.334    1464.2176    179265.62    55.747847    56.706711    56.706711 
   62000    481.46615   -37672.365   -37106.841    1561.3207    179265.62    55.700724    56.730693    56.730693 
   63000    477.74382   -37672.398   -37111.247    1642.8971    179265.62    55.656302    56.753328    56.753328 
   64000    477.24598   -37678.217    -37117.65    1559.0059    179265.62    55.614757    56.774521    56.774521 
   65000    480.32645   -37673.568   -37109.382    1475.1939    179265.62    55.576254    56.794185    56.794185 
   66000    478.41537   -37671.313   -37109.372    1601.8392    179265.62    55.540943    56.812236    56.812236 
   67000    485.74605   -37675.833   -37105.282    1524.4779    179265.62    55.508964    56.828598    56.828598 
   68000    476.24251   -37670.455   -37111.067    1763.4003    179265.62    55.480444    56.843203    56.843203 
   69000    487.83965   -37670.737   -37097.727    1675.4028    179265.62    55.455494    56.855989    56.855989 
   70000    478.56127   -37673.167   -37111.055    1659.5629    179265.62    55.434214      56.8669      56.8669 
   71000    483.65884   -37677.723   -37109.624    1499.6164    179265.62    55.416688    56.875892    56.875892 
   72000    481.35158   -37674.076   -37108.687    1674.2195    179265.62    55.402983    56.882926    56.882926 
   73000    480.72145   -37669.165   -37104.516    1785.3849    179265.62    55.393156    56.887972    56.887972 
   74000    477.81226   -37668.472    -37107.24    1821.1786    179265.62    55.387244    56.891008    56.891008 
   75000    478.87716   -37671.067   -37108.585     1415.645    179265.62    55.385271    56.892021    56.892021 
   76000    477.42484   -37685.833   -37125.056    1176.3501    179265.62    55.387244    56.891008    56.891008 
   77000    481.45957   -37668.885   -37103.369    1711.3764    179265.62    55.393156    56.887972    56.887972 
   78000    483.44835   -37675.778   -37107.925    1550.0652    179265.62    55.402983    56.882926    56.882926 
   79000    480.64265   -37672.777    -37108.22    1619.0001    179265.62    55.416688    56.875892    56.875892 
   80000    482.94835   -37677.286   -37110.022    1566.0981    179265.62    55.434214      56.8669      56.8669 
   81000    480.45693   -37679.666   -37115.327    1314.3621    179265.62    55.455494    56.855989    56.855989 
   82000    482.10983   -37665.697   -37099.417    1717.2739    179265.62    55.480444    56.843203    56.843203 
   83000    469.90268    -37683.42   -37131.479     1091.193    179265.62    55.508964    56.828598    56.828598 
   84000    479.05866   -37676.366    -37113.67    1616.0286    179265.62    55.540943    56.812236    56.812236 
   85000    480.32264   -37671.204   -37107.023     1438.575    179265.62    55.576254    56.794185    56.794185 
   86000    474.78147   -37675.814   -37118.142    1493.0511    179265.62    55.614757    56.774521    56.774521 
   87000    479.95965   -37676.678   -37112.923    1540.8579    179265.62    55.656302    56.753328    56.753328 
   88000    475.59793   -37682.798   -37124.167    1077.8314    179265.62    55.700724    56.730693    56.730693 
   89000    478.98367   -37675.536   -37112.928    1690.8895    179265.62    55.747847    56.706711    56.706711 
   90000    478.32164   -37682.669   -37120.838    1424.3502    179265.62    55.797485    56.681481    56.681481 
   91000    478.50746   -37692.484   -37130.435     1052.957    179265.62    55.849444    56.655109    56.655109 
   92000    490.53511   -37689.627   -37113.451    1117.0933    179265.62    55.903517    56.627702    56.627702 
   93000    474.82721   -37675.408   -37117.682    1699.3105    179265.62    55.959491    56.599374    56.599374 
   94000    486.94657   -37683.694   -37111.733    1471.8113    179265.62    56.017146    56.570239    56.570239 
   95000     479.8239   -37669.314   -37105.719    1648.7683    179265.62    56.076254    56.540417    56.540417 
   96000    478.01558   -37685.326   -37123.855    1513.5076    179265.62    56.136581    56.510028    56.510028 
   97000    488.83979    -37685.51   -37111.325    1451.1104    179265.62    56.197889    56.479196    56.479196 
   98000    475.91114   -37680.777   -37121.778    1259.5741    179265.62    56.259937    56.448042    56.448042 
   99000    479.38722   -37686.855   -37123.773    1312.3406    179265.62     56.32248    56.416692    56.416692 
  100000    476.29567    -37695.59   -37136.139    1046.1849    179265.62    56.385271    56.385271    56.385271 
  101000    475.22828   -37693.101   -37134.904    1037.7363    179265.62    56.448061    56.353902    56.353902 
  102000    473.93825   -37687.344   -37130.662    1191.6959    179265.62    56.510604    56.322708    56.322708 
  103000    479.11633   -37681.189   -37118.425     1552.165    179265.62    56.572652    56.291813    56.291813 
  104000    477.08463   -37683.308    -37122.93     1312.682    179265.62    56.633961    56.261336    56.261336 
  105000    486.69615   -37686.314   -37114.647    1154.7044    179265.62    56.694288    56.231394    56.231394 
  106000    476.12403   -37690.435   -37131.186    1152.0205    179265.62    56.753395    56.202105    56.202105 
  107000    483.62565   -37691.462   -37123.402    1056.4472    179265.62     56.81105    56.173579    56.173579 
  108000    479.16057    -37688.38   -37125.564    1321.8894    179265.62    56.867024    56.145926    56.145926 
  109000    488.82865   -37685.433   -37111.261    1387.6215    179265.62    56.921098    56.119252    56.119252 
  110000    477.03603   -37680.865   -37120.545     1274.288    179265.62    56.973056    56.093656    56.093656 
  111000    488.60492   -37685.753   -37111.844    1229.1465    179265.62    57.022695    56.069236    56.069236 
  112000    477.28027   -37685.178    -37124.57    1242.2828    179265.62    57.069818    56.046082    56.046082 
  113000    483.77439    -37686.93   -37118.695    1344.6791    179265.62    57.114239    56.024283    56.024283 
  114000    477.50064   -37682.163   -37121.297    1346.0179    179265.62    57.155784    56.003918    56.003918 
  115000    481.85293   -37679.828    -37113.85    1471.8291    179265.62    57.194288    55.985064    55.985064 
  116000    486.02308   -37669.453   -37098.576    1665.9169    179265.62    57.229599     55.96779     55.96779 
  117000    474.00544   -37669.459   -37112.699    1395.6912    179265.62    57.261577    55.952159    55.952159 
  118000    470.88274   -37676.779   -37123.686    1614.9759    179265.62    57.290098     55.93823     55.93823 
  119000    479.43727   -37683.284   -37120.143    1304.6059    179265.62    57.315047    55.926054    55.926054 
  120000      479.383   -37667.097    -37104.02    1668.8154    179265.62    57.336327    55.915675    55.915675 
  121000    481.48591   -37678.475   -37112.928    1432.9787    179265.62    57.353854     55.90713     55.90713 
  122000    476.95165   -37681.033   -37120.812    1136.6123    179265.62    57.367558    55.900452    55.900452 
  123000    484.74006   -37673.877   -37104.508     1613.171    179265.62    57.377385    55.895665    55.895665 
  124000     471.2634   -37674.553   -37121.013    1523.8043    179265.62    57.383297    55.892786    55.892786 
  125000    481.83338   -37681.875    -37115.92    1497.4086    179265.62    57.385271    55.891825    55.891825 
  126000    479.42758   -37677.433   -37114.304    1731.6953    179265.62    57.383297    55.892786    55.892786 
  127000    479.21461   -37677.135   -37114.255    1526.9332    179265.62    57.377385    55.895665    55.895665 
  128000     481.8157   -37672.843   -37106.909    1669.7588    179265.62    57.367558    55.900452    55.900452 
  129000    482.23449   -37672.239   -37105.812    1624.4306    179265.62    57.353854     55.90713     55.90713 
  130000    477.48409   -37684.915   -37124.068    1355.6239    179265.62    57.336327    55.915675    55.915675 
  131000     465.3339   -37680.306   -37133.731    1255.9756    179265.62    57.315047    55.926054    55.926054 
  132000    481.94218   -37669.085   -37103.002     1760.252    179265.62    57.290098     55.93823     55.93823 
  133000    483.49925   -37682.815   -37114.903    1582.5442    179265.62    57.261577    55.952159    55.952159 
  134000    483.62396   -37677.811   -37109.752    1526.6916    179265.62    57.229599     55.96779     55.96779 
  135000    486.42038   -37674.512   -37103.169    1237.8726    179265.62    57.194288    55.985064    55.985064 
  136000    479.66826   -37676.086   -37112.674    1358.7496    179265.62    57.155784    56.003918    56.003918 
  137000    480.76373   -37686.564   -37121.865    999.03674    179265.62    57.114239    56.024283    56.024283 
  138000    484.71845   -37678.719   -37109.375    1618.8573    179265.62    57.069818    56.046082    56.046082 
  139000     476.8385   -37674.188   -37114.099    1694.2003    179265.62    57.022695    56.069236    56.069236 
  140000    473.70657   -37683.276   -37126.866    1165.6631    179265.62    56.973056    56.093656    56.093656 
  141000    473.53901   -37680.202   -37123.989    1509.7586    179265.62    56.921098    56.119252    56.119252 
  142000    477.92052   -37685.051   -37123.691    1101.5915    179265.62    56.867024    56.145926    56.145926 
  143000    478.11643   -37685.527   -37123.937    1339.5529    179265.62     56.81105    56.173579    56.173579 
  144000    487.20912   -37679.731   -37107.461    1455.5047    179265.62    56.753395    56.202105    56.202105 
  145000    473.61872   -37688.973   -37132.667     1078.876    179265.62    56.694288    56.231394    56.231394 
  146000    483.39577   -37682.631   -37114.841    1419.7068    179265.62    56.633961    56.261336    56.261336 
  147000    475.95971   -37685.304   -37126.248    1366.1517    179265.62    56.572652    56.291813    56.291813 
  148000    479.65578   -37677.629   -37114.231    1415.3672    179265.62    56.510604    56.322708    56.322708 
  149000     483.5478   -37695.979   -37128.011    987.41781    179265.62    56.448061    56.353902    56.353902 
  150000    479.57486   -37677.213   -37113.911     1613.895    179265.62    56.385271    56.385271    56.385271 
  151000    476.64061   -37686.572   -37126.717    1390.0207    179265.62     56.32248    56.416692    56.416692 
  152000    472.87964    -37677.92   -37122.482    1629.1848    179265.62    56.259937    56.448042    56.448042 
  153000    480.39214   -37677.755   -37113.492    1563.2936    179265.62    56.197889    56.479196    56.479196 
  154000     482.7135   -37686.657   -37119.668    1311.0436    179265.62    56.136581    56.510028    56.510028 
  155000    472.88338   -37681.545   -37126.102    1366.5217    179265.62    56.076254    56.540417    56.540417 
  156000    481.41298   -37682.085   -37116.623    1515.4575    179265.62    56.017146    56.570239    56.570239 
  157000    479.65869   -37680.583   -37117.183    1404.4065    179265.62    55.959491    56.599374    56.599374 
  158000    479.29118   -37683.189    -37120.22    1159.8491    179265.62    55.903517    56.627702    56.627702 
  159000    481.69609   -37671.889   -37106.095      1453.38    179265.62    55.849444    56.655109    56.655109 
  160000    477.04479     -37675.1   -37114.769    1688.9184    179265.62    55.797485    56.681481    56.681481 
  161000    477.38617   -37677.295   -37116.563    1657.3421    179265.62    55.747847    56.706711    56.706711 
  162000    474.94681   -37676.007    -37118.14    1460.9116    179265.62    55.700724    56.730693    56.730693 
  163000    483.79534   -37680.064   -37111.804    1447.8033    179265.62    55.656302    56.753328    56.753328 
  164000    484.90515   -37677.451   -37107.888    1585.5444    179265.62    55.614757    56.774521    56.774521 
  165000    481.99009   -37683.171   -37117.031    1475.8197    179265.62    55.576254    56.794185    56.794185 
  166000     487.2156   -37680.338   -37108.061    1605.4197    179265.62    55.540943    56.812236    56.812236 
  167000    483.79928   -37669.134    -37100.87    1919.4021    179265.62    55.508964    56.828598    56.828598 
  168000    480.98467   -37673.511   -37108.553    1693.3682    179265.62    55.480444    56.843203    56.843203 
  169000    479.18985   -37673.636   -37110.786    1576.3645    179265.62    55.455494    56.855989    56.855989 
  170000    477.96831   -37680.198   -37118.783    1470.1265    179265.62    55.434214      56.8669      56.8669 
  171000    480.84257   -37675.507   -37110.716    1531.5453    179265.62    55.416688    56.875892    56.875892 
  172000    482.81956   -37672.948   -37105.834     1489.133    179265.62    55.402983    56.882926    56.882926 
  173000    474.62399   -37668.413   -37110.926    1769.6415    179265.62    55.393156    56.887972    56.887972 
  174000    480.99008   -37663.411   -37098.446    1794.9679    179265.62    55.387244    56.891008    56.891008 
  175000    481.05147   -37660.648   -37095.611    1836.8573    179265.62    55.385271    56.892021    56.892021 
  176000    483.41721   -37669.354   -37101.539    1740.6915    179265.62    55.387244    56.891008    56.891008 
  177000    484.30427   -37670.874   -37102.017    1760.4784    179265.62    55.393156    56.887972    56.887972 
  178000    475.21277   -37685.048   -37126.869    1250.8686    179265.62    55.402983    56.882926    56.882926 
  179000    481.95069   -37678.201   -37112.108    1551.3673    179265.62    55.416688    56.875892    56.875892 
  180000    477.96461   -37672.588   -37111.177    1426.9963    179265.62    55.434214      56.8669      56.8669 
  181000    475.08874   -37673.232   -37115.199    1528.2747    179265.62    55.455494    56.855989    56.855989 
  182000    479.53625   -37680.971   -37117.714    1385.6257    179265.62    55.480444    56.843203    56.843203 
  183000    474.01154   -37667.877   -37111.109    1691.2328    179265.62    55.508964    56.828598    56.828598 
  184000    484.82375   -37671.392   -37101.924    1737.2759    179265.62    55.540943    56.812236    56.812236 
  185000    476.93072   -37680.024   -37119.828    1556.7937    179265.62    55.576254    56.794185    56.794185 
  186000    479.79885   -37674.059   -37110.494    1489.3234    179265.62    55.614757    56.774521    56.774521 
  187000    484.67691   -37679.132   -37109.837    1501.1049    179265.62    55.656302    56.753328    56.753328 
  188000    479.39243   -37685.366   -37122.278    1286.6808    179265.62    55.700724    56.730693    56.730693 
  189000    483.23017   -37679.582   -37111.986    1490.9026    179265.62    55.747847    56.706711    56.706711 
  190000    478.29677   -37683.959   -37122.158    1240.8436    179265.62    55.797485    56.681481    56.681481 
  191000      476.984    -37679.63   -37119.371    1399.3955    179265.62    55.849444    56.655109    56.655109 
  192000    491.01192   -37683.371   -37106.635    1132.5307    179265.62    55.903517    56.627702    56.627702 
  193000    482.89767   -37681.763   -37114.557    1486.8745    179265.62    55.959491    56.599374    56.599374 
  194000    479.53177    -37677.43   -37114.178    1226.7322    179265.62    56.017146    56.570239    56.570239 
  195000    474.57846   -37680.981   -37123.548    1456.5161    179265.62    56.076254    56.540417    56.540417 
  196000     481.2435   -37688.145   -37122.883    1269.8859    179265.62    56.136581    56.510028    56.510028 
  197000    473.00679   -37684.406   -37128.818     1151.669    179265.62    56.197889    56.479196    56.479196 
  198000    478.80239   -37689.329   -37126.934    1246.3774    179265.62    56.259937    56.448042    56.448042 
  199000    475.45037   -37686.648    -37128.19    1182.7689    179265.62     56.32248    56.416692    56.416692 
  200000    478.60056   -37692.965   -37130.807    919.11697    179265.62    56.385271    56.385271    56.385271 
  201000    470.78666   -37684.942   -37131.962    1275.8937    179265.62    56.448061    56.353902    56.353902 
  202000    483.89319   -37684.856   -37116.481    1257.2775    179265.62    56.510604    56.322708    56.322708 
  203000    481.16332    -37683.37   -37118.202    1244.6106    179265.62    56.572652    56.291813    56.291813 
  204000     476.1203   -37687.776   -37128.532    1128.7637    179265.62    56.633961    56.261336    56.261336 
  205000    484.24853   -37680.987   -37112.195     1338.803    179265.62    56.694288    56.231394    56.231394 
  206000    472.69596   -37687.667   -37132.444    1141.9836    179265.62    56.753395    56.202105    56.202105 
  207000    478.95455   -37680.076   -37117.503     1522.861    179265.62     56.81105    56.173579    56.173579 
  208000    481.36256   -37681.465   -37116.062    1388.4031    179265.62    56.867024    56.145926    56.145926 
  209000    480.06853   -37678.734   -37114.852    1478.2295    179265.62    56.921098    56.119252    56.119252 
  210000    477.02734   -37686.499   -37126.189    1284.5027    179265.62    56.973056    56.093656    56.093656 
  211000    483.82165   -37683.951   -37115.661    1161.1721    179265.62    57.022695    56.069236    56.069236 
  212000    483.54482   -37677.461   -37109.495    1502.8962    179265.62    57.069818    56.046082    56.046082 
  213000    481.19936   -37685.868   -37120.658    1514.3302    179265.62    57.114239    56.024283    56.024283 
  214000    480.71509   -37678.281    -37113.64    1429.8052    179265.62    57.155784    56.003918    56.003918 
  215000    476.40593   -37677.268   -37117.688    1467.7377    179265.62    57.194288    55.985064    55.985064 
  216000    478.76194   -37689.873   -37127.526    1263.3988    179265.62    57.229599     55.96779     55.96779 
  217000    476.28915   -37676.429   -37116.986    1450.2876    179265.62    57.261577    55.952159    55.952159 
  218000    482.28144   -37674.519   -37108.037    1458.7098    179265.62    57.290098     55.93823     55.93823 
  219000    484.30652   -37672.564   -37103.704     1628.658    179265.62    57.315047    55.926054    55.926054 
  220000    474.50079   -37680.597   -37123.255    1174.3986    179265.62    57.336327    55.915675    55.915675 
  221000    477.92066   -37675.271   -37113.912    1414.2746    179265.62    57.353854     55.90713     55.90713 
  222000    481.77861   -37679.478   -37113.587     1216.893    179265.62    57.367558    55.900452    55.900452 
  223000    485.04683   -37681.181   -37111.452    1232.5949    179265.62    57.377385    55.895665    55.895665 
  224000    478.27588   -37677.864   -37116.087    1249.3319    179265.62    57.383297    55.892786    55.892786 
  225000    486.84134   -37670.928    -37099.09    1683.7101    179265.62    57.385271    55.891825    55.891825 
  226000    476.20585    -37668.18   -37108.835    1557.6388    179265.62    57.383297    55.892786    55.892786 
  227000    473.56463   -37675.662    -37119.42    1225.6587    179265.62    57.377385    55.895665    55.895665 
  228000    477.61787   -37679.988   -37118.984    1296.9951    179265.62    57.367558    55.900452    55.900452 
  229000    477.03313   -37684.881   -37124.564    1149.2908    179265.62    57.353854     55.90713     55.90713 
  230000    479.94874   -37664.508   -37100.766    1583.9942    179265.62    57.336327    55.915675    55.915675 
  231000    481.89459    -37677.58   -37111.553    1207.6957    179265.62    57.315047    55.926054    55.926054 
  232000    475.69114   -37672.049   -37113.308    1237.4189    179265.62    57.290098     55.93823     55.93823 
  233000    485.78874   -37682.601       -37112    1283.6585    179265.62    57.261577    55.952159    55.952159 
  234000    478.42808   -37677.123   -37115.167    1366.0296    179265.62    57.229599     55.96779     55.96779 
  235000    479.57289   -37682.039   -37118.739    1254.9246    179265.62    57.194288    55.985064    55.985064 
  236000    478.27084   -37682.367   -37120.596    1402.3708    179265.62    57.155784    56.003918    56.003918 
  237000    482.90195   -37680.377   -37113.166    1595.1063    179265.62    57.114239    56.024283    56.024283 
  238000    478.81819   -37684.002   -37121.588    1440.1167    179265.62    57.069818    56.046082    56.046082 
  239000    482.76971    -37674.36   -37107.305    1225.3031    179265.62    57.022695    56.069236    56.069236 
  240000    477.39757   -37680.413   -37119.668    1465.9944    179265.62    56.973056    56.093656    56.093656 
  241000    477.78178   -37688.678   -37127.482    1210.1908    179265.62    56.921098    56.119252    56.119252 
  242000    483.26141   -37680.562    -37112.93    1458.4578    179265.62    56.867024    56.145926    56.145926 
  243000    475.42654     -37689.3   -37130.871    976.44039    179265.62     56.81105    56.173579    56.173579 
  244000    480.43948   -37684.031   -37119.713    1305.2597    179265.62    56.753395    56.202105    56.202105 
  245000    486.45385   -37685.054   -37113.671    1102.3316    179265.62    56.694288    56.231394    56.231394 
  246000    488.65578   -37678.262   -37104.293    1550.8095    179265.62    56.633961    56.261336    56.261336 
  247000    479.65276   -37684.594     -37121.2    1179.1343    179265.62    56.572652    56.291813    56.291813 
  248000    475.60388   -37693.371   -37134.733    1268.9061    179265.62    56.510604    56.322708    56.322708 
  249000    475.09237   -37682.246   -37124.209    1464.1392    179265.62    56.448061    56.353902    56.353902 
  250000    474.98248   -37686.284   -37128.375    1266.7131    179265.62    56.385271    56.385271    56.385271 
  251000    482.13379   -37691.203   -37124.895     1280.559    179265.62     56.32248    56.416692    56.416692 
  252000    479.62029   -37684.996    -37121.64    1368.8714    179265.62    56.259937    56.448042    56.448042 
  253000    478.99776   -37679.685    -37117.06    1561.0653    179265.62    56.197889    56.479196    56.479196 
  254000    487.94448   -37690.591   -37117.458    1180.0997    179265.62    56.136581    56.510028    56.510028 
  255000    478.66015   -37689.057   -37126.829    1159.8685    179265.62    56.076254    56.540417    56.540417 
  256000     480.0995    -37697.25   -37133.331     952.6745    179265.62    56.017146    56.570239    56.570239 
  257000    472.60961   -37686.106   -37130.985    1257.2081    179265.62    55.959491    56.599374    56.599374 
  258000     477.5201   -37690.373   -37129.484    1052.3482    179265.62    55.903517    56.627702    56.627702 
  259000    476.67617   -37679.906   -37120.009     1616.172    179265.62    55.849444    56.655109    56.655109 
  260000    473.10798   -37673.451   -37117.744    1651.4519    179265.62    55.797485    56.681481    56.681481 
  261000    486.56151   -37683.957   -37112.448     1349.684    179265.62    55.747847    56.706711    56.706711 
  262000    481.01787   -37670.112   -37105.115    1682.2967    179265.62    55.700724    56.730693    56.730693 
  263000    478.34513   -37685.136   -37123.278    1278.4112    179265.62    55.656302    56.753328    56.753328 
  264000    477.59124   -37670.847   -37109.875    1646.0422    179265.62    55.614757    56.774521    56.774521 
  265000    478.67092   -37676.823   -37114.582     1663.113    179265.62    55.576254    56.794185    56.794185 
  266000    487.01182   -37665.737     -37093.7    2010.5204    179265.62    55.540943    56.812236    56.812236 
  267000    479.08268   -37679.881   -37117.156    1535.5897    179265.62    55.508964    56.828598    56.828598 
  268000    478.56066   -37677.992   -37115.881    1396.3487    179265.62    55.480444    56.843203    56.843203 
  269000    479.18215   -37682.339   -37119.498    1501.9434    179265.62    55.455494    56.855989    56.855989 
  270000    479.13853   -37681.616   -37118.826    1051.0882    179265.62    55.434214      56.8669      56.8669 
  271000    479.57046   -37673.651   -37110.354     1673.934    179265.62    55.416688    56.875892    56.875892 
  272000    480.42586   -37673.793   -37109.491     1768.348    179265.62    55.402983    56.882926    56.882926 
  273000    477.44242   -37672.541   -37111.743    1375.3429    179265.62    55.393156    56.887972    56.887972 
  274000    475.77664    -37673.28   -37114.439    1569.6044    179265.62    55.387244    56.891008    56.891008 
  275000    481.31849   -37668.983   -37103.632    1561.3518    179265.62    55.385271    56.892021    56.892021 
  276000    484.30981   -37665.669   -37096.805    1866.7846    179265.62    55.387244    56.891008    56.891008 
  277000    476.37413   -37667.328   -37107.785     1856.881    179265.62    55.393156    56.887972    56.887972 
  278000    476.59167   -37674.893   -37115.094    1709.6387    179265.62    55.402983    56.882926    56.882926 
  279000    480.23651    -37678.06   -37113.981    1539.5431    179265.62    55.416688    56.875892    56.875892 
  280000    475.24309   -37675.288   -37117.074    1567.5749    179265.62    55.434214      56.8669      56.8669 
  281000    481.33755   -37675.285   -37109.913    1864.1675    179265.62    55.455494    56.855989    56.855989 
  282000    481.36787   -37674.719   -37109.311    1510.5579    179265.62    55.480444    56.843203    56.843203 
  283000    481.58413   -37674.687   -37109.025    1611.4337    179265.62    55.508964    56.828598    56.828598 
  284000    476.26591   -37667.762   -37108.346    1803.2264    179265.62    55.540943    56.812236    56.812236 
  285000    479.35065   -37671.902   -37108.863     1622.451    179265.62    55.576254    56.794185    56.794185 
  286000    485.13129   -37683.393   -37113.564    1473.1629    179265.62    55.614757    56.774521    56.774521 
  287000     485.3331   -37682.132   -37112.066    1518.3925    179265.62    55.656302    56.753328    56.753328 
  288000    476.28506   -37677.835   -37118.396    1585.6634    179265.62    55.700724    56.730693    56.730693 
  289000    482.87628   -37679.952   -37112.771    1383.5046    179265.62    55.747847    56.706711    56.706711 
  290000    482.48576   -37680.862   -37114.141    1462.3991    179265.62    55.797485    56.681481    56.681481 
  291000    485.42648   -37681.058   -37110.882    1407.6221    179265.62    55.849444    56.655109    56.655109 
  292000     479.2234   -37682.551   -37119.661    1273.8822    179265.62    55.903517    56.627702    56.627702 
  293000     477.0605   -37683.793   -37123.444    1418.1051    179265.62    55.959491    56.599374    56.599374 
  294000    481.95054   -37692.513    -37126.42    1175.3592    179265.62    56.017146    56.570239    56.570239 
  295000    483.01151   -37686.703   -37119.364    1253.0072    179265.62    56.076254    56.540417    56.540417 
  296000     483.6487   -37691.041   -37122.954    1223.5236    179265.62    56.136581    56.510028    56.510028 
  297000    478.57195   -37692.561   -37130.437    1032.4707    179265.62    56.197889    56.479196    56.479196 
  298000    475.54372   -37683.715   -37125.147    1362.7332    179265.62    56.259937    56.448042    56.448042 
  299000     474.9092   -37692.682    -37134.86    1231.6011    179265.62     56.32248    56.416692    56.416692 
  300000     477.7451   -37678.989   -37117.836    1498.4322    179265.62    56.385271    56.385271    56.385271 
  301000    481.44648   -37684.386   -37118.886    1367.1014    179265.62    56.448061    56.353902    56.353902 
  302000    475.33911    -37693.81   -37135.483    1132.3416    179265.62    56.510604    56.322708    56.322708 
  303000    487.89774   -37683.907   -37110.829    1463.0263    179265.62    56.572652    56.291813    56.291813 
  304000    480.88241   -37688.068    -37123.23    1405.9462    179265.62    56.633961    56.261336    56.261336 
  305000    474.59989   -37684.632   -37127.173    1232.4332    179265.62    56.694288    56.231394    56.231394 
  306000     478.4556   -37675.736   -37113.749    1485.4256    179265.62    56.753395    56.202105    56.202105 
  307000    472.96501   -37688.095   -37132.556    1179.5386    179265.62     56.81105    56.173579    56.173579 
  308000    475.89401   -37692.648   -37133.669    1030.5463    179265.62    56.867024    56.145926    56.145926 
  309000    480.49156   -37679.307   -37114.928    1271.5842    179265.62    56.921098    56.119252    56.119252 
  310000    479.32127    -37680.69   -37117.686     1279.645    179265.62    56.973056    56.093656    56.093656 
  311000    485.66847   -37675.558   -37105.098    1669.5224    179265.62    57.022695    56.069236    56.069236 
  312000    482.05823   -37681.329    -37115.11    1190.9003    179265.62    57.069818    56.046082    56.046082 
  313000     489.6553   -37683.649   -37108.507    1270.9816    179265.62    57.114239    56.024283    56.024283 
  314000    475.82699   -37686.756   -37127.856    1004.9231    179265.62    57.155784    56.003918    56.003918 
  315000    477.30065   -37684.721   -37124.089    1048.6141    179265.62    57.194288    55.985064    55.985064 
  316000    476.01476   -37679.156   -37120.035    1282.6736    179265.62    57.229599     55.96779     55.96779 
  317000    478.18396   -37678.122   -37116.453     1213.357    179265.62    57.261577    55.952159    55.952159 
  318000     473.2553   -37679.787   -37123.908    1491.1514    179265.62    57.290098     55.93823     55.93823 
  319000    473.99881   -37682.495   -37125.742    1437.2962    179265.62    57.315047    55.926054    55.926054 
  320000     476.1991   -37678.704   -37119.367    1447.7133    179265.62    57.336327    55.915675    55.915675 
  321000    471.29021   -37672.721   -37119.149    1292.4413    179265.62    57.353854     55.90713     55.90713 
  322000    482.37077   -37671.788   -37105.201    1630.8949    179265.62    57.367558    55.900452    55.900452 
  323000    478.11099   -37678.625   -37117.043    1366.3541    179265.62    57.377385    55.895665    55.895665 
  324000    477.92279   -37669.241   -37107.879    1776.2539    179265.62    57.383297    55.892786    55.892786 
  325000    472.79788   -37675.485   -37120.142    1364.7354    179265.62    57.385271    55.891825    55.891825 
  326000    483.37153   -37679.291   -37111.529    1284.3325    179265.62    57.383297    55.892786    55.892786 
  327000    476.88667   -37682.083   -37121.938    1497.0043    179265.62    57.377385    55.895665    55.895665 
  328000    481.77146    -37684.13   -37118.248    1220.1647    179265.62    57.367558    55.900452    55.900452 
  329000    480.57886   -37683.561   -37119.079    1251.7619    179265.62    57.353854     55.90713     55.90713 
  330000    487.76122   -37686.289   -37113.371    1359.0184    179265.62    57.336327    55.915675    55.915675 
  331000    478.04649   -37678.359   -37116.852    1330.1934    179265.62    57.315047    55.926054    55.926054 
  332000    480.21939    -37675.34    -37111.28    1490.7392    179265.62    57.290098     55.93823     55.93823 
  333000    478.24999   -37679.341   -37117.595    1360.0524    179265.62    57.261577    55.952159    55.952159 
  334000    480.07713   -37680.857   -37116.964    1527.1099    179265.62    57.229599     55.96779     55.96779 
  335000    481.58609   -37679.233   -37113.568    1400.0673    179265.62    57.194288    55.985064    55.985064 
  336000    482.45333    -37678.98   -37112.297    1377.3353    179265.62    57.155784    56.003918    56.003918 
  337000    480.17281   -37677.225    -37113.22    1476.6557    179265.62    57.114239    56.024283    56.024283 
  338000    477.03391   -37677.546   -37117.228    1355.6995    179265.62    57.069818    56.046082    56.046082 
  339000    475.54247   -37689.092   -37130.526    1146.2955    179265.62    57.022695    56.069236    56.069236 
  340000    482.12401   -37681.856   -37115.559    1417.7263    179265.62    56.973056    56.093656    56.093656 
  341000    484.86422   -37679.927   -37110.412    1449.6847    179265.62    56.921098    56.119252    56.119252 
  342000    480.25864   -37676.621   -37112.515    1697.9703    179265.62    56.867024    56.145926    56.145926 
  343000    472.05058   -37679.913   -37125.449    1335.7344    179265.62     56.81105    56.173579    56.173579 
  344000    479.57801   -37685.241   -37121.935    1296.4223    179265.62    56.753395    56.202105    56.202105 
  345000    474.58805    -37690.28   -37132.835    1124.8004    179265.62    56.694288    56.231394    56.231394 
  346000    472.92261   -37677.462   -37121.973    1413.1098    179265.62    56.633961    56.261336    56.261336 
  347000    482.66626   -37689.105   -37122.172    1289.3663    179265.62    56.572652    56.291813    56.291813 
  348000      473.512   -37692.469   -37136.288    1015.9405    179265.62    56.510604    56.322708    56.322708 
  349000    472.22808    -37676.18   -37121.507    1443.9044    179265.62    56.448061    56.353902    56.353902 
  350000    476.73391   -37689.487   -37129.522    1129.3331    179265.62    56.385271    56.385271    56.385271 
  351000    483.92251   -37679.089    -37110.68    1406.7112    179265.62     56.32248    56.416692    56.416692 
  352000    476.71839   -37677.795   -37117.847    1392.0865    179265.62    56.259937    56.448042    56.448042 
  353000    477.74915    -37692.45   -37131.292    1100.9944    179265.62    56.197889    56.479196    56.479196 
  354000    479.01742   -37688.916   -37126.269    1312.9758    179265.62    56.136581    56.510028    56.510028 
  355000    473.40375   -37672.608   -37116.554    1684.7503    179265.62    56.076254    56.540417    56.540417 
  356000    477.22819   -37681.144   -37120.598    1306.7012    179265.62    56.017146    56.570239    56.570239 
  357000    480.84001   -37678.093   -37113.304    1414.6149    179265.62    55.959491    56.599374    56.599374 
  358000    479.86217    -37683.28    -37119.64    1262.8961    179265.62    55.903517    56.627702    56.627702 
  359000    483.23918   -37692.813   -37125.207    964.67218    179265.62    55.849444    56.655109    56.655109 
  360000    488.12864   -37685.547   -37112.198    1320.3227    179265.62    55.797485    56.681481    56.681481 
  361000    481.09383   -37681.962   -37116.875    1336.4012    179265.62    55.747847    56.706711    56.706711 
  362000    485.96668   -37684.212   -37113.402    1131.0833    179265.62    55.700724    56.730693    56.730693 
  363000    487.95997   -37676.659   -37103.508    1565.2791    179265.62    55.656302    56.753328    56.753328 
  364000    479.76098   -37676.598   -37113.077    1434.9662    179265.62    55.614757    56.774521    56.774521 
  365000    478.09576   -37677.551   -37115.986    1416.4383    179265.62    55.576254    56.794185    56.794185 
  366000    481.48811   -37674.337   -37108.787    1804.3198    179265.62    55.540943    56.812236    56.812236 
  367000    478.75844   -37674.043   -37111.699    1682.2831    179265.62    55.508964    56.828598    56.828598 
  368000    477.16323   -37662.867   -37102.398    1975.7335    179265.62    55.480444    56.843203    56.843203 
  369000    476.47089   -37677.725   -37118.068    1553.9292    179265.62    55.455494    56.855989    56.855989 
  370000    480.23968   -37678.356   -37114.273     1551.951    179265.62    55.434214      56.8669      56.8669 
  371000     481.4047   -37667.803   -37102.351    1815.4885    179265.62    55.416688    56.875892    56.875892 
  372000    486.24641   -37668.008    -37096.87    1644.6967    179265.62    55.402983    56.882926    56.882926 
  373000    482.87943   -37679.411   -37112.227    1748.3559    179265.62    55.393156    56.887972    56.887972 
  374000     481.5167   -37674.593    -37109.01    1545.0306    179265.62    55.387244    56.891008    56.891008 
  375000    478.87157   -37670.138   -37107.662    1740.3679    179265.62    55.385271    56.892021    56.892021 
  376000    478.36216   -37669.709   -37107.831     1818.939    179265.62    55.387244    56.891008    56.891008 
  377000    481.12124   -37676.585   -37111.466     1701.213    179265.62    55.393156    56.887972    56.887972 
  378000    484.48374   -37674.633   -37105.565    1921.9908    179265.62    55.402983    56.882926    56.882926 
  379000    486.39334   -37675.059   -37103.748     1546.612    179265.62    55.416688    56.875892    56.875892 
  380000    477.64428    -37679.39   -37118.355     1394.371    179265.62    55.434214      56.8669      56.8669 
  381000     477.3682    -37672.99   -37112.279    1711.7746    179265.62    55.455494    56.855989    56.855989 
  382000    476.92684   -37669.098   -37108.906    1631.6807    179265.62    55.480444    56.843203    56.843203 
  383000    475.59935   -37679.938   -37121.305    1312.7743    179265.62    55.508964    56.828598    56.828598 
  384000    485.09091   -37675.176   -37105.394     1518.905    179265.62    55.540943    56.812236    56.812236 
  385000    479.95975    -37691.54   -37127.785    1016.5122    179265.62    55.576254    56.794185    56.794185 
  386000    476.61705   -37672.405   -37112.577    1583.5245    179265.62    55.614757    56.774521    56.774521 
  387000    476.95731   -37683.934   -37123.706    1211.9327    179265.62    55.656302    56.753328    56.753328 
  388000    483.35527    -37678.62   -37110.877    1669.4162    179265.62    55.700724    56.730693    56.730693 
  389000    479.32342   -37679.924   -37116.917    1354.2564    179265.62    55.747847    56.706711    56.706711 
  390000    476.14873   -37679.997   -37120.719    1475.8441    179265.62    55.797485    56.681481    56.681481 
  391000    487.35698   -37682.364   -37109.921    1510.4443    179265.62    55.849444    56.655109    56.655109 
  392000    486.53165   -37686.443   -37114.969     1533.076    179265.62    55.903517    56.627702    56.627702 
  393000    483.13623   -37679.525   -37112.039    1472.3322    179265.62    55.959491    56.599374    56.599374 
  394000     479.9545   -37680.171   -37116.422    1356.4442    179265.62    56.017146    56.570239    56.570239 
  395000    479.89151   -37683.748   -37120.074    1320.0689    179265.62    56.076254    56.540417    56.540417 
  396000    477.44745   -37697.434   -37136.631     1170.714    179265.62    56.136581    56.510028    56.510028 
  397000    470.88435   -37682.029   -37128.935    1511.7415    179265.62    56.197889    56.479196    56.479196 
  398000    478.31415   -37675.776   -37113.954    1600.2246    179265.62    56.259937    56.448042    56.448042 
  399000    484.10989   -37681.309    -37112.68    1232.4413    179265.62     56.32248    56.416692    56.416692 
  400000    479.00707   -37690.727   -37128.092    868.07417    179265.62    56.385271    56.385271    56.385271 
  401000    487.74304    -37688.52   -37115.623    1210.9112    179265.62    56.448061    56.353902    56.353902 
  402000    479.47778   -37685.606   -37122.417    1265.3888    179265.62    56.510604    56.322708    56.322708 
  403000    482.09895   -37693.404   -37127.137    1152.7296    179265.62    56.572652    56.291813    56.291813 
  404000    485.89361   -37688.322   -37117.598     1240.213    179265.62    56.633961    56.261336    56.261336 
  405000    476.41374   -37678.101   -37118.512    1499.2774    179265.62    56.694288    56.231394    56.231394 
  406000    473.11201   -37683.216   -37127.504     1462.317    179265.62    56.753395    56.202105    56.202105 
  407000    486.76583   -37684.176   -37112.428    1286.1925    179265.62     56.81105    56.173579    56.173579 
  408000    474.39375   -37683.593   -37126.376    1288.3565    179265.62    56.867024    56.145926    56.145926 
  409000    479.60653   -37686.458   -37123.119    1006.8603    179265.62    56.921098    56.119252    56.119252 
  410000    485.76337   -37680.098   -37109.527    1476.4381    179265.62    56.973056    56.093656    56.093656 
  411000    474.98825   -37681.877   -37123.962    1258.0991    179265.62    57.022695    56.069236    56.069236 
  412000    477.05795   -37680.039   -37119.693    1285.9763    179265.62    57.069818    56.046082    56.046082 
  413000    484.80124   -37686.528   -37117.087    1175.7732    179265.62    57.114239    56.024283    56.024283 
  414000    477.56047   -37683.425   -37122.489    1241.4672    179265.62    57.155784    56.003918    56.003918 
  415000    479.04117   -37679.666   -37116.991    1437.7058    179265.62    57.194288    55.985064    55.985064 
  416000    479.33783   -37679.555   -37116.531      1367.27    179265.62    57.229599     55.96779     55.96779 
  417000    481.89509   -37672.348   -37106.321    1737.6171    179265.62    57.261577    55.952159    55.952159 
  418000    480.88797     -37673.2   -37108.355    1640.9681    179265.62    57.290098     55.93823     55.93823 
  419000     483.0281   -37675.819    -37108.46    1532.7185    179265.62    57.315047    55.926054    55.926054 
  420000    479.61039   -37680.301   -37116.957    1242.0519    179265.62    57.336327    55.915675    55.915675 
  421000    479.36518   -37674.222   -37111.166    1444.6818    179265.62    57.353854     55.90713     55.90713 
  422000    481.42338    -37683.65   -37118.177    1506.9131    179265.62    57.367558    55.900452    55.900452 
  423000    479.96042   -37675.313   -37111.558    1563.9873    179265.62    57.377385    55.895665    55.895665 
  424000    485.42223   -37680.771     -37110.6    1208.1005    179265.62    57.383297    55.892786    55.892786 
  425000    470.18473   -37668.736   -37116.463    1850.9241    179265.62    57.385271    55.891825    55.891825 
  426000    478.72889     -37662.3   -37099.991    2010.4707    179265.62    57.383297    55.892786    55.892786 
  427000    483.16746   -37667.347   -37099.825    1460.0841    179265.62    57.377385    55.895665    55.895665 
  428000    479.65349   -37683.162   -37119.768    1343.3037    179265.62    57.367558    55.900452    55.900452 
  429000    483.90801   -37680.043   -37111.651    1391.0254    179265.62    57.353854     55.90713     55.90713 
  430000     477.5749   -37670.701   -37109.748    1305.5757    179265.62    57.336327    55.915675    55.915675 
  431000    483.34013   -37671.598   -37103.873    1745.2139    179265.62    57.315047    55.926054    55.926054 
  432000    478.56014   -37677.757   -37115.646    1292.0616    179265.62    57.290098     55.93823     55.93823 
  433000    479.57614   -37685.703   -37122.399    1270.2905    179265.62    57.261577    55.952159    55.952159 
  434000    479.34439   -37670.531     -37107.5    1730.1099    179265.62    57.229599     55.96779     55.96779 
  435000    480.87398   -37684.119   -37119.291    1265.4293    179265.62    57.194288    55.985064    55.985064 
  436000    482.15608   -37680.596   -37114.262    1376.1493    179265.62    57.155784    56.003918    56.003918 
  437000    484.02812   -37664.706   -37096.172    1870.3682    179265.62    57.114239    56.024283    56.024283 
  438000    484.78511   -37689.329   -37119.906    1261.4689    179265.62    57.069818    56.046082    56.046082 
  439000    479.32452   -37679.751   -37116.742    1421.1912    179265.62    57.022695    56.069236    56.069236 
  440000    485.69292   -37689.405   -37118.916    1196.8003    179265.62    56.973056    56.093656    56.093656 
  441000    478.30355   -37683.462   -37121.653    1168.5008    179265.62    56.921098    56.119252    56.119252 
  442000    481.24747   -37681.631   -37116.364    1520.7424    179265.62    56.867024    56.145926    56.145926 
  443000    480.78513    -37687.21   -37122.486    1227.2054    179265.62     56.81105    56.173579    56.173579 
  444000    484.79321   -37681.045   -37111.613    1088.4776    179265.62    56.753395    56.202105    56.202105 
  445000    475.88076   -37688.138   -37129.175     1271.175    179265.62    56.694288    56.231394    56.231394 
  446000    486.39474   -37692.948   -37121.635    1176.5931    179265.62    56.633961    56.261336    56.261336 
  447000    478.80732   -37687.462   -37125.061     1242.427    179265.62    56.572652    56.291813    56.291813 
  448000    477.95992   -37676.777   -37115.371    1345.9467    179265.62    56.510604    56.322708    56.322708 
  449000    481.35926   -37687.104   -37121.706     1227.488    179265.62    56.448061    56.353902    56.353902 
  450000    475.70569   -37692.131   -37133.373    861.01265    179265.62    56.385271    56.385271    56.385271 
  451000    477.26604   -37689.798   -37129.208     1163.164    179265.62     56.32248    56.416692    56.416692 
  452000    482.20431   -37698.112   -37131.722    1003.7781    179265.62    56.259937    56.448042    56.448042 
  453000    486.44675   -37693.375   -37122.001    1393.8461    179265.62    56.197889    56.479196    56.479196 
  454000    483.21973   -37694.362   -37126.778    830.18691    179265.62    56.136581    56.510028    56.510028 
  455000    477.69238   -37688.071   -37126.979    1360.5139    179265.62    56.076254    56.540417    56.540417 
  456000    478.32735    -37687.45   -37125.613    1239.9009    179265.62    56.017146    56.570239    56.570239 
  457000    480.92197   -37684.268   -37119.383    1396.4922    179265.62    55.959491    56.599374    56.599374 
  458000    478.21925   -37685.768   -37124.058    1413.9473    179265.62    55.903517    56.627702    56.627702 
  459000    484.42072   -37677.048   -37108.054    1585.1168    179265.62    55.849444    56.655109    56.655109 
  460000    483.18997   -37690.755   -37123.206    1022.4405    179265.62    55.797485    56.681481    56.681481 
  461000    480.92805   -37669.038   -37104.147    1640.6404    179265.62    55.747847    56.706711    56.706711 
  462000    480.65404   -37682.168   -37117.598      1352.75    179265.62    55.700724    56.730693    56.730693 
  463000    470.73112   -37683.982   -37131.067    1222.4705    179265.62    55.656302    56.753328    56.753328 
  464000    481.08148   -37680.534   -37115.462    1300.4921    179265.62    55.614757    56.774521    56.774521 
  465000    482.45631   -37686.759   -37120.072     1060.498    179265.62    55.576254    56.794185    56.794185 
  466000    483.10889   -37679.396   -37111.943     1389.852    179265.62    55.540943    56.812236    56.812236 
  467000    481.09049   -37670.084   -37105.002    1545.6844    179265.62    55.508964    56.828598    56.828598 
  468000    481.00453   -37670.995   -37106.014    1536.4966    179265.62    55.480444    56.843203    56.843203 
  469000    482.63172   -37671.997   -37105.104    1902.9831    179265.62    55.455494    56.855989    56.855989 
  470000    484.12829   -37666.607   -37097.957    1674.1484    179265.62    55.434214      56.8669      56.8669 
  471000    479.57663   -37674.677   -37111.373    1576.8721    179265.62    55.416688    56.875892    56.875892 
  472000    478.27565   -37671.904   -37110.128    1714.2636    179265.62    55.402983    56.882926    56.882926 
  473000    479.59674   -37665.158    -37101.83    1896.1342    179265.62    55.393156    56.887972    56.887972 
  474000    482.23386   -37673.957   -37107.531    1505.7161    179265.62    55.387244    56.891008    56.891008 
  475000    473.10237   -37684.414   -37128.714    1168.7691    179265.62    55.385271    56.892021    56.892021 
  476000    486.77773   -37673.234   -37101.471    1730.1917    179265.62    55.387244    56.891008    56.891008 
  477000     476.8456    -37675.46   -37115.363    1597.8339    179265.62    55.393156    56.887972    56.887972 
  478000    473.90698   -37672.346   -37115.702    1588.6084    179265.62    55.402983    56.882926    56.882926 
  479000    479.34289   -37677.032   -37114.003    1439.7184    179265.62    55.416688    56.875892    56.875892 
  480000    484.31667   -37668.124   -37099.252    1905.1649    179265.62    55.434214      56.8669      56.8669 
  481000    476.80852   -37676.503    -37116.45     1387.241    179265.62    55.455494    56.855989    56.855989 
  482000    477.28765    -37675.83   -37115.214    1332.9823    179265.62    55.480444    56.843203    56.843203 
  483000    483.47008   -37676.352   -37108.475    1568.5475    179265.62    55.508964    56.828598    56.828598 
  484000     481.9612   -37678.475    -37112.37    1190.3658    179265.62    55.540943    56.812236    56.812236 
  485000    477.52929   -37678.916   -37118.017    1326.3497    179265.62    55.576254    56.794185    56.794185 
  486000    481.59652   -37676.507    -37110.83    1752.0157    179265.62    55.614757    56.774521    56.774521 
  487000    474.94237    -37673.45   -37115.589    1480.8363    179265.62    55.656302    56.753328    56.753328 
  488000    474.69875    -37679.58   -37122.005    1372.5818    179265.62    55.700724    56.730693    56.730693 
  489000    469.25124   -37679.029   -37127.852    1486.9631    179265.62    55.747847    56.706711    56.706711 
  490000    478.22414   -37691.747   -37130.031    935.47452    179265.62    55.797485    56.681481    56.681481 
  491000    483.43198   -37680.223    -37112.39      1571.17    179265.62    55.849444    56.655109    56.655109 
  492000    475.86574   -37678.801   -37119.855    1416.7539    179265.62    55.903517    56.627702    56.627702 
  493000    485.94257    -37685.76   -37114.978    1263.4087    179265.62    55.959491    56.599374    56.599374 
  494000     487.8416   -37690.518   -37117.506    1319.8357    179265.62    56.017146    56.570239    56.570239 
  495000    476.46353   -37692.657   -37133.009    975.58017    179265.62    56.076254    56.540417    56.540417 
  496000    478.88119   -37693.631   -37131.144    1021.8194    179265.62    56.136581    56.510028    56.510028 
  497000    483.16111   -37683.371   -37115.857    1216.0188    179265.62    56.197889    56.479196    56.479196 
  498000    484.55546   -37685.906   -37116.754    1352.8309    179265.62    56.259937    56.448042    56.448042 
  499000    486.58863   -37680.773   -37109.232    1584.2534    179265.62     56.32248    56.416692    56.416692 
  500000    483.49164   -37693.637   -37125.734    982.81502    179265.62    56.385271    56.385271    56.385271 
  501000     483.2413   -37686.365   -37118.756    1263.4705    179265.62    56.448061    56.353902    56.353902 
  502000    478.37218   -37677.782   -37115.893     1353.079    179265.62    56.510604    56.322708    56.322708 
  503000    477.20786   -37688.204   -37127.682     1318.296    179265.62    56.572652    56.291813    56.291813 
  504000     473.7386   -37685.353   -37128.906    1339.7083    179265.62    56.633961    56.261336    56.261336 
  505000    481.69785   -37679.583   -37113.787    1336.4814    179265.62    56.694288    56.231394    56.231394 
  506000    478.91334   -37683.364   -37120.839    1479.5137    179265.62    56.753395    56.202105    56.202105 
  507000     475.1274   -37683.904   -37125.826      1105.46    179265.62     56.81105    56.173579    56.173579 
  508000    472.41022   -37682.322   -37127.435    949.83489    179265.62    56.867024    56.145926    56.145926 
  509000    483.10375   -37682.289   -37114.842    1391.2543    179265.62    56.921098    56.119252    56.119252 
  510000    477.02262   -37672.578   -37112.273    1515.0858    179265.62    56.973056    56.093656    56.093656 
  511000    482.30619    -37677.54    -37111.03    1605.2468    179265.62    57.022695    56.069236    56.069236 
  512000    477.76026   -37677.877   -37116.706    1658.2419    179265.62    57.069818    56.046082    56.046082 
  513000    480.18538    -37681.33    -37117.31    1359.1895    179265.62    57.114239    56.024283    56.024283 
  514000    483.54561   -37683.002   -37115.036    1364.2732    179265.62    57.155784    56.003918    56.003918 
  515000    471.73879   -37681.325   -37127.226    1335.5244    179265.62    57.194288    55.985064    55.985064 
  516000    477.68175   -37680.581   -37119.502    1310.2183    179265.62    57.229599     55.96779     55.96779 
  517000    476.95799   -37669.311   -37109.082    1694.0994    179265.62    57.261577    55.952159    55.952159 
  518000    478.20886   -37682.228    -37120.53    1253.9512    179265.62    57.290098     55.93823     55.93823 
  519000    468.88322   -37678.354    -37127.61    1285.3698    179265.62    57.315047    55.926054    55.926054 
  520000    481.15826   -37683.514   -37118.352    1449.7995    179265.62    57.336327    55.915675    55.915675 
  521000    485.06999   -37670.661   -37100.904    1682.8922    179265.62    57.353854     55.90713     55.90713 
  522000    478.79904   -37680.369   -37117.977    1461.6252    179265.62    57.367558    55.900452    55.900452 
  523000    487.11464   -37674.025   -37101.867       1462.9    179265.62    57.377385    55.895665    55.895665 
  524000      479.142   -37671.241   -37108.447    1519.1396    179265.62    57.383297    55.892786    55.892786 
  525000    476.70037   -37677.164   -37117.238    1308.0979    179265.62    57.385271    55.891825    55.891825 
  526000    484.66855   -37679.079   -37109.794     1631.839    179265.62    57.383297    55.892786    55.892786 
  527000    471.07141   -37663.785   -37110.471    1801.7801    179265.62    57.377385    55.895665    55.895665 
  528000    479.60308   -37667.579   -37104.243    1773.8905    179265.62    57.367558    55.900452    55.900452 
  529000    477.40702   -37670.646    -37109.89    1653.7738    179265.62    57.353854     55.90713     55.90713 
  530000    487.26895   -37674.057   -37101.717    1311.9154    179265.62    57.336327    55.915675    55.915675 
  531000    482.39932   -37669.145   -37102.525    1555.9786    179265.62    57.315047    55.926054    55.926054 
  532000     472.7974    -37676.17   -37120.828    1311.7802    179265.62    57.290098     55.93823     55.93823 
  533000    479.50378   -37679.763   -37116.544    1413.8755    179265.62    57.261577    55.952159    55.952159 
  534000    482.91687   -37677.987    -37110.76    1446.9684    179265.62    57.229599     55.96779     55.96779 
  535000    484.76902   -37685.071   -37115.668    1379.4021    179265.62    57.194288    55.985064    55.985064 
  536000    487.03836   -37678.668   -37106.599    1433.5578    179265.62    57.155784    56.003918    56.003918 
  537000    479.15773   -37688.642    -37125.83    1192.2571    179265.62    57.114239    56.024283    56.024283 
  538000    478.38931   -37684.792   -37122.882    1491.8241    179265.62    57.069818    56.046082    56.046082 
  539000    478.97344   -37685.122   -37122.526    1094.8948    179265.62    57.022695    56.069236    56.069236 
  540000    472.41913   -37686.154   -37131.257    1045.2242    179265.62    56.973056    56.093656    56.093656 
  541000     483.5964   -37682.239   -37114.213     1361.504    179265.62    56.921098    56.119252    56.119252 
  542000    480.97747    -37684.62    -37119.67    1165.9914    179265.62    56.867024    56.145926    56.145926 
  543000    480.21746   -37688.916   -37124.859    1366.5222    179265.62     56.81105    56.173579    56.173579 
  544000    474.74991   -37691.214   -37133.579    1006.6854    179265.62    56.753395    56.202105    56.202105 
  545000    483.60623     -37685.6   -37117.562    1504.8549    179265.62    56.694288    56.231394    56.231394 
  546000    483.03962   -37692.789   -37125.417    935.80891    179265.62    56.633961    56.261336    56.261336 
  547000    471.56421   -37684.066   -37130.173    1222.2195    179265.62    56.572652    56.291813    56.291813 
  548000    477.59258   -37687.311   -37126.337    1323.2132    179265.62    56.510604    56.322708    56.322708 
  549000    474.39142   -37694.125   -37136.911    1037.9278    179265.62    56.448061    56.353902    56.353902 
  550000    474.08511    -37684.63   -37127.775    1251.6908    179265.62    56.385271    56.385271    56.385271 
  551000    487.38764   -37687.443   -37114.964    1552.6906    179265.62     56.32248    56.416692    56.416692 
  552000    491.81245   -37683.192   -37105.516    1212.8033    179265.62    56.259937    56.448042    56.448042 
  553000    475.51363   -37685.529   -37126.997    1224.8958    179265.62    56.197889    56.479196    56.479196 
  554000    480.87467   -37687.127   -37122.298    991.40219    179265.62    56.136581    56.510028    56.510028 
  555000    482.05701   -37680.691   -37114.474    1469.0198    179265.62    56.076254    56.540417    56.540417 
  556000    480.28763   -37675.455   -37111.316    1635.5037    179265.62    56.017146    56.570239    56.570239 
  557000    480.55359   -37682.271   -37117.819    1328.9577    179265.62    55.959491    56.599374    56.599374 
  558000    473.66666   -37678.701   -37122.339    1537.5983    179265.62    55.903517    56.627702    56.627702 
  559000    477.45363    -37685.24    -37124.43    1222.9828    179265.62    55.849444    56.655109    56.655109 
  560000    476.14627    -37672.08   -37112.804     1601.956    179265.62    55.797485    56.681481    56.681481 
  561000    473.22946   -37683.016   -37127.167    1235.6195    179265.62    55.747847    56.706711    56.706711 
  562000    482.69232   -37682.334    -37115.37      1507.79    179265.62    55.700724    56.730693    56.730693 
  563000    479.18082   -37689.054   -37126.214    1284.2977    179265.62    55.656302    56.753328    56.753328 
  564000    482.94709   -37678.931   -37111.668    1539.6644    179265.62    55.614757    56.774521    56.774521 
  565000    482.55406   -37678.264   -37111.463    1480.0168    179265.62    55.576254    56.794185    56.794185 
  566000    472.81575   -37666.599   -37111.235    1856.2822    179265.62    55.540943    56.812236    56.812236 
  567000    476.35978   -37672.459   -37112.933     1770.815    179265.62    55.508964    56.828598    56.828598 
  568000    486.95774   -37669.985   -37098.011    1916.6315    179265.62    55.480444    56.843203    56.843203 
  569000    484.41169   -37659.361   -37090.377    1948.0292    179265.62    55.455494    56.855989    56.855989 
  570000    487.55647   -37666.053   -37093.375    1871.0289    179265.62    55.434214      56.8669      56.8669 
  571000    484.19566   -37661.393   -37092.663    1880.5421    179265.62    55.416688    56.875892    56.875892 
  572000    479.55355   -37672.764   -37109.487     1435.645    179265.62    55.402983    56.882926    56.882926 
  573000    476.70198   -37665.559   -37105.631    1671.1829    179265.62    55.393156    56.887972    56.887972 
  574000    480.35895   -37672.559   -37108.335    1503.9887    179265.62    55.387244    56.891008    56.891008 
  575000    477.08521   -37671.786   -37111.408    1706.4933    179265.62    55.385271    56.892021    56.892021 
  576000    483.08883   -37681.041   -37113.612    1459.3762    179265.62    55.387244    56.891008    56.891008 
  577000    479.88132   -37670.761   -37107.099    1906.9009    179265.62    55.393156    56.887972    56.887972 
  578000    476.19422   -37674.066   -37114.735    1628.4528    179265.62    55.402983    56.882926    56.882926 
  579000     476.1272   -37672.622   -37113.369    1568.7167    179265.62    55.416688    56.875892    56.875892 
  580000      470.051   -37665.523   -37113.407    1521.2819    179265.62    55.434214      56.8669      56.8669 
  581000    468.88488   -37682.608   -37131.862    1290.4619    179265.62    55.455494    56.855989    56.855989 
  582000    478.38806   -37678.773   -37116.864    1430.0128    179265.62    55.480444    56.843203    56.843203 
  583000    466.92727   -37671.358   -37122.911    1593.3849    179265.62    55.508964    56.828598    56.828598 
  584000    481.78396    -37666.93   -37101.033    1757.2491    179265.62    55.540943    56.812236    56.812236 
  585000    478.81412   -37680.072   -37117.663    1485.2372    179265.62    55.576254    56.794185    56.794185 
  586000    484.64109   -37683.506   -37114.252    1540.7333    179265.62    55.614757    56.774521    56.774521 
  587000     481.3859   -37685.712   -37120.283    1377.7071    179265.62    55.656302    56.753328    56.753328 
  588000    483.67771   -37677.347   -37109.226    1344.6096    179265.62    55.700724    56.730693    56.730693 
  589000    479.20879   -37666.188   -37103.316    1706.4899    179265.62    55.747847    56.706711    56.706711 
  590000    475.25528   -37675.948    -37117.72    1640.9439    179265.62    55.797485    56.681481    56.681481 
  591000    474.87232   -37684.706   -37126.927    1329.8152    179265.62    55.849444    56.655109    56.655109 
  592000    475.42758   -37683.449   -37125.018     1288.814    179265.62    55.903517    56.627702    56.627702 
  593000    479.66505   -37684.371   -37120.963    1573.0566    179265.62    55.959491    56.599374    56.599374 
  594000    484.71128   -37683.272   -37113.936    1484.8949    179265.62    56.017146    56.570239    56.570239 
  595000    484.22687   -37683.793   -37115.026    1539.4331    179265.62    56.076254    56.540417    56.540417 
  596000    482.60938   -37672.188   -37105.321    1539.6468    179265.62    56.136581    56.510028    56.510028 
  597000    477.81184   -37692.371   -37131.139    1248.3125    179265.62    56.197889    56.479196    56.479196 
  598000    472.43334   -37683.279   -37128.365     1133.304    179265.62    56.259937    56.448042    56.448042 
  599000    477.88119    -37687.12   -37125.807    1399.5698    179265.62     56.32248    56.416692    56.416692 
  600000    473.64882   -37694.002    -37137.66    1139.8385    179265.62    56.385271    56.385271    56.385271 
  601000    470.49549   -37689.296   -37136.658    1348.5906    179265.62    56.448061    56.353902    56.353902 
  602000     484.5565   -37690.306   -37121.153    1268.1665    179265.62    56.510604    56.322708    56.322708 
  603000    480.44657   -37683.436    -37119.11     1280.665    179265.62    56.572652    56.291813    56.291813 
  604000    479.56986   -37682.495   -37119.199    1389.2752    179265.62    56.633961    56.261336    56.261336 
  605000    471.57323   -37685.356   -37131.453    1116.1473    179265.62    56.694288    56.231394    56.231394 
  606000    475.34083   -37679.497   -37121.168    1562.0387    179265.62    56.753395    56.202105    56.202105 
  607000    478.75017   -37687.578   -37125.244    1340.9059    179265.62     56.81105    56.173579    56.173579 
  608000    477.79075   -37687.936   -37126.729     1312.912    179265.62    56.867024    56.145926    56.145926 
  609000    480.31557    -37686.82   -37122.648    1306.3393    179265.62    56.921098    56.119252    56.119252 
  610000    486.79791   -37686.551   -37114.764      1204.02    179265.62    56.973056    56.093656    56.093656 
  611000    478.96906   -37684.317   -37121.726    1340.8255    179265.62    57.022695    56.069236    56.069236 
  612000    475.70583   -37677.739   -37118.981    1482.4644    179265.62    57.069818    56.046082    56.046082 
  613000    484.61303   -37673.479   -37104.259    1597.8264    179265.62    57.114239    56.024283    56.024283 
  614000    473.77462   -37683.101   -37126.611    1601.7738    179265.62    57.155784    56.003918    56.003918 
  615000    482.43208   -37684.985   -37118.327    1404.4997    179265.62    57.194288    55.985064    55.985064 
  616000    486.88117   -37677.054   -37105.169    1591.7602    179265.62    57.229599     55.96779     55.96779 
  617000    481.31587   -37676.759   -37111.411    1584.7953    179265.62    57.261577    55.952159    55.952159 
  618000    484.14223   -37681.381   -37112.714    1364.0581    179265.62    57.290098     55.93823     55.93823 
  619000    468.88926   -37679.496   -37128.745    1623.0884    179265.62    57.315047    55.926054    55.926054 
  620000    485.07009   -37679.531   -37109.774    1430.0332    179265.62    57.336327    55.915675    55.915675 
  621000    479.51598   -37673.227   -37109.993    1545.6114    179265.62    57.353854     55.90713     55.90713 
  622000    484.54579   -37681.032   -37111.891    1490.5267    179265.62    57.367558    55.900452    55.900452 
  623000    485.51338   -37680.141   -37109.863    1351.6552    179265.62    57.377385    55.895665    55.895665 
  624000    475.99157   -37673.574   -37114.481    1514.0384    179265.62    57.383297    55.892786    55.892786 
  625000    484.37507   -37688.726   -37119.785    1169.9368    179265.62    57.385271    55.891825    55.891825 
  626000    477.62325   -37677.738   -37116.728    1307.1687    179265.62    57.383297    55.892786    55.892786 
  627000    481.74011   -37686.109   -37120.264    1049.4557    179265.62    57.377385    55.895665    55.895665 
  628000    480.53551   -37681.416   -37116.986    1203.2376    179265.62    57.367558    55.900452    55.900452 
  629000    483.92435   -37672.537   -37104.126    1570.2855    179265.62    57.353854     55.90713     55.90713 
  630000    477.90971   -37678.715   -37117.368    1434.4515    179265.62    57.336327    55.915675    55.915675 
  631000    488.71279   -37668.986    -37094.95    1830.1677    179265.62    57.315047    55.926054    55.926054 
  632000    484.63392   -37684.055    -37114.81    1375.3324    179265.62    57.290098     55.93823     55.93823 
  633000    488.77116   -37674.055    -37099.95    1805.9241    179265.62    57.261577    55.952159    55.952159 
  634000    478.54191   -37674.859    -37112.77    1702.9247    179265.62    57.229599     55.96779     55.96779 
  635000    483.38984   -37687.992   -37120.208    1428.6332    179265.62    57.194288    55.985064    55.985064 
  636000    479.85103   -37676.756    -37113.13    1414.9397    179265.62    57.155784    56.003918    56.003918 
  637000     481.3389   -37680.157   -37114.783    1510.6618    179265.62    57.114239    56.024283    56.024283 
  638000    480.33162   -37682.158   -37117.967    1327.0889    179265.62    57.069818    56.046082    56.046082 
  639000    480.90659   -37692.484   -37127.618    1297.3045    179265.62    57.022695    56.069236    56.069236 
  640000    478.96455   -37690.758   -37128.172    941.90441    179265.62    56.973056    56.093656    56.093656 
  641000      475.409   -37687.092   -37128.683    1250.5377    179265.62    56.921098    56.119252    56.119252 
  642000    476.05946   -37686.103   -37126.929    1232.9187    179265.62    56.867024    56.145926    56.145926 
  643000     478.4531   -37681.324    -37119.34    1247.5784    179265.62     56.81105    56.173579    56.173579 
  644000    479.43779   -37691.003   -37127.861    1078.7515    179265.62    56.753395    56.202105    56.202105 
  645000    471.13384   -37697.132   -37143.744    965.41125    179265.62    56.694288    56.231394    56.231394 
  646000     474.8003    -37686.93   -37129.235    1297.2494    179265.62    56.633961    56.261336    56.261336 
  647000    481.80119    -37684.84   -37118.922    1317.9879    179265.62    56.572652    56.291813    56.291813 
  648000    477.08023   -37681.307   -37120.935    1410.8858    179265.62    56.510604    56.322708    56.322708 
  649000    476.82698   -37693.446   -37133.372     1111.319    179265.62    56.448061    56.353902    56.353902 
  650000     482.3121   -37682.389   -37115.872    1382.2927    179265.62    56.385271    56.385271    56.385271 
  651000     476.0141   -37682.288   -37123.168     1613.337    179265.62     56.32248    56.416692    56.416692 
  652000    481.05484   -37690.789   -37125.748    1169.2177    179265.62    56.259937    56.448042    56.448042 
  653000    480.97735   -37682.725   -37117.775    1363.2572    179265.62    56.197889    56.479196    56.479196 
  654000    476.36591   -37690.991   -37131.458    1246.2931    179265.62    56.136581    56.510028    56.510028 
  655000     476.7983   -37683.016   -37122.975    1316.5031    179265.62    56.076254    56.540417    56.540417 
  656000    484.54851   -37682.665   -37113.521    1259.1797    179265.62    56.017146    56.570239    56.570239 
  657000    474.22079   -37674.049   -37117.036    1638.7148    179265.62    55.959491    56.599374    56.599374 
  658000    479.27953   -37688.103   -37125.148    1132.9126    179265.62    55.903517    56.627702    56.627702 
  659000    475.54493   -37687.028   -37128.459    1202.5302    179265.62    55.849444    56.655109    56.655109 
  660000    478.22149   -37671.754   -37110.041     1570.829    179265.62    55.797485    56.681481    56.681481 
  661000    479.15931   -37679.673   -37116.859    1420.0741    179265.62    55.747847    56.706711    56.706711 
  662000    472.03471   -37678.649   -37124.203    1525.6649    179265.62    55.700724    56.730693    56.730693 
  663000    477.16518    -37676.14   -37115.668    1699.3244    179265.62    55.656302    56.753328    56.753328 
  664000    481.21872   -37672.858   -37107.625    1524.5117    179265.62    55.614757    56.774521    56.774521 
  665000    483.11144   -37675.851   -37108.394    1419.9731    179265.62    55.576254    56.794185    56.794185 
  666000    486.95639   -37691.156   -37119.184    1165.0292    179265.62    55.540943    56.812236    56.812236 
  667000    484.83561   -37673.719   -37104.237    1746.7753    179265.62    55.508964    56.828598    56.828598 
  668000    482.35257   -37672.754   -37106.189    1520.5595    179265.62    55.480444    56.843203    56.843203 
  669000    472.32549   -37674.787       -37120    1453.0122    179265.62    55.455494    56.855989    56.855989 
  670000    480.07938   -37669.517   -37105.622    1990.3201    179265.62    55.434214      56.8669      56.8669 
  671000    477.94665   -37676.334   -37114.945    1606.9486    179265.62    55.416688    56.875892    56.875892 
  672000    478.56582   -37668.675   -37106.557    1552.5493    179265.62    55.402983    56.882926    56.882926 
  673000    474.97853   -37670.917   -37113.014    1664.1193    179265.62    55.393156    56.887972    56.887972 
  674000    481.83263   -37679.304    -37113.35    1406.9926    179265.62    55.387244    56.891008    56.891008 
  675000    478.51355   -37669.529   -37107.474    1720.9188    179265.62    55.385271    56.892021    56.892021 
  676000    477.52654   -37672.171   -37111.275    1654.0595    179265.62    55.387244    56.891008    56.891008 
  677000    474.10117   -37672.565   -37115.692    1832.1527    179265.62    55.393156    56.887972    56.887972 
  678000    477.54987   -37669.332   -37108.408    1883.7658    179265.62    55.402983    56.882926    56.882926 
  679000    484.86291   -37671.724    -37102.21    1819.4839    179265.62    55.416688    56.875892    56.875892 
  680000    481.36057   -37677.718   -37112.318    1405.0753    179265.62    55.434214      56.8669      56.8669 
  681000     479.8627   -37665.326   -37101.685    1962.1099    179265.62    55.455494    56.855989    56.855989 
  682000    480.64589   -37667.602   -37103.041    1855.4729    179265.62    55.480444    56.843203    56.843203 
[...]
  838000    477.71752   -37681.376   -37120.255    1307.9374    179265.62    57.069818    56.046082    56.046082 
  839000     480.2256   -37677.797    -37113.73    1545.4637    179265.62    57.022695    56.069236    56.069236 
  840000    486.72364   -37690.394   -37118.695    1047.4461    179265.62    56.973056    56.093656    56.093656 
  841000     482.2249    -37685.71   -37119.294    1034.4211    179265.62    56.921098    56.119252    56.119252 
  842000     477.8675   -37678.484   -37117.187    1303.2707    179265.62    56.867024    56.145926    56.145926 
  843000    481.51663   -37690.719   -37125.136    1231.8595    179265.62     56.81105    56.173579    56.173579 
  844000    483.46843    -37688.05   -37120.174     1337.332    179265.62    56.753395    56.202105    56.202105 
  845000    478.14093    -37679.17   -37117.552    1390.9015    179265.62    56.694288    56.231394    56.231394 
  846000    479.00343   -37690.772   -37128.141    1109.3579    179265.62    56.633961    56.261336    56.261336 
  847000    486.01899   -37691.144   -37120.273    1142.4031    179265.62    56.572652    56.291813    56.291813 
  848000    475.98982   -37687.931    -37128.84    1051.0408    179265.62    56.510604    56.322708    56.322708 
  849000    481.49004   -37690.521   -37124.969    1026.3479    179265.62    56.448061    56.353902    56.353902 
  850000    486.43046   -37692.241   -37120.886    1293.5826    179265.62    56.385271    56.385271    56.385271 
  851000    479.38145   -37686.588   -37123.513    1481.0765    179265.62     56.32248    56.416692    56.416692 
  852000    478.57169   -37687.216   -37125.092    1237.6804    179265.62    56.259937    56.448042    56.448042 
  853000    479.82395   -37686.049   -37122.454    1376.2898    179265.62    56.197889    56.479196    56.479196 
  854000    485.90981   -37679.163    -37108.42    1709.8689    179265.62    56.136581    56.510028    56.510028 
  855000    485.57944   -37675.721   -37105.366    1656.5421    179265.62    56.076254    56.540417    56.540417 
  856000    481.40588   -37690.002   -37124.549    1325.1607    179265.62    56.017146    56.570239    56.570239 
  857000    479.72142   -37686.613   -37123.139     1454.456    179265.62    55.959491    56.599374    56.599374 
  858000     481.1889   -37688.038    -37122.84      1204.81    179265.62    55.903517    56.627702    56.627702 
  859000    485.71506   -37677.461   -37106.946    1583.3889    179265.62    55.849444    56.655109    56.655109 
  860000    482.24345   -37667.868   -37101.431    1854.6017    179265.62    55.797485    56.681481    56.681481 
  861000     482.9496   -37676.081   -37108.814    1753.6873    179265.62    55.747847    56.706711    56.706711 
  862000    479.45509   -37689.116   -37125.954    1370.5332    179265.62    55.700724    56.730693    56.730693 
  863000    481.96758   -37683.538   -37117.425    1331.0829    179265.62    55.656302    56.753328    56.753328 
  864000    478.90858   -37678.021   -37115.502    1338.2697    179265.62    55.614757    56.774521    56.774521 
  865000    483.89868   -37681.034   -37112.653    1403.0722    179265.62    55.576254    56.794185    56.794185 
  866000    485.80218   -37671.765   -37101.148    1565.6636    179265.62    55.540943    56.812236    56.812236 
  867000    482.08596   -37666.223   -37099.971    1877.4811    179265.62    55.508964    56.828598    56.828598 
  868000    480.05864   -37679.447   -37115.577    1681.4174    179265.62    55.480444    56.843203    56.843203 
  869000    479.01372   -37669.909   -37107.266    1715.1767    179265.62    55.455494    56.855989    56.855989 
  870000    472.51278   -37668.108     -37113.1    1816.1262    179265.62    55.434214      56.8669      56.8669 
  871000    482.88444   -37677.398   -37110.209    1384.9953    179265.62    55.416688    56.875892    56.875892 
  872000    476.34133   -37671.246   -37111.741    1776.8733    179265.62    55.402983    56.882926    56.882926 
  873000    474.34932   -37672.984   -37115.819    1636.4209    179265.62    55.393156    56.887972    56.887972 
  874000    476.29257   -37661.537    -37102.09    1987.8418    179265.62    55.387244    56.891008    56.891008 
  875000    485.40164   -37667.682   -37097.535    1923.0984    179265.62    55.385271    56.892021    56.892021 
  876000    475.19633   -37672.334   -37114.175    1545.7002    179265.62    55.387244    56.891008    56.891008 
  877000    481.51266    -37664.54   -37098.961    1668.9962    179265.62    55.393156    56.887972    56.887972 
  878000     482.2566   -37672.238   -37105.786    1505.5782    179265.62    55.402983    56.882926    56.882926 
  879000     478.0967   -37668.939   -37107.373    1607.5063    179265.62    55.416688    56.875892    56.875892 
  880000    486.05716   -37673.853   -37102.936    1717.4298    179265.62    55.434214      56.8669      56.8669 
  881000    475.62687   -37672.732   -37114.067    1392.9271    179265.62    55.455494    56.855989    56.855989 
  882000    477.58123   -37672.505   -37111.545     1633.691    179265.62    55.480444    56.843203    56.843203 
  883000    479.17444    -37674.52   -37111.688    1537.5534    179265.62    55.508964    56.828598    56.828598 
  884000    483.23577   -37674.816   -37107.213    1534.1882    179265.62    55.540943    56.812236    56.812236 
  885000    482.70095   -37673.445   -37106.471    1734.7194    179265.62    55.576254    56.794185    56.794185 
  886000    475.40257   -37677.299   -37118.897    1660.9081    179265.62    55.614757    56.774521    56.774521 
  887000    486.28236   -37681.268   -37110.087    1607.3375    179265.62    55.656302    56.753328    56.753328 
  888000    478.24507   -37681.194   -37119.454    1379.1475    179265.62    55.700724    56.730693    56.730693 
  889000    484.22292   -37676.709   -37107.947    1473.6838    179265.62    55.747847    56.706711    56.706711 
  890000    480.46758   -37688.224   -37123.873    1137.1569    179265.62    55.797485    56.681481    56.681481 
  891000    482.11936    -37681.08   -37114.789    1499.5774    179265.62    55.849444    56.655109    56.655109 
  892000     478.8374   -37687.669   -37125.233    1196.0176    179265.62    55.903517    56.627702    56.627702 
  893000    485.99981   -37678.284   -37107.435    1468.0344    179265.62    55.959491    56.599374    56.599374 
  894000    479.26276   -37684.352   -37121.416    1212.6601    179265.62    56.017146    56.570239    56.570239 
  895000    472.57624    -37677.09   -37122.008    1432.0107    179265.62    56.076254    56.540417    56.540417 
  896000    476.98256   -37684.494   -37124.237    1244.9683    179265.62    56.136581    56.510028    56.510028 
  897000    480.53099    -37680.56   -37116.134    1134.1079    179265.62    56.197889    56.479196    56.479196 
  898000    485.49509   -37680.989   -37110.733    1505.1578    179265.62    56.259937    56.448042    56.448042 
  899000    476.05627   -37679.368   -37120.198    1384.9571    179265.62     56.32248    56.416692    56.416692 
  900000    476.55061   -37688.855   -37129.105    1150.9173    179265.62    56.385271    56.385271    56.385271 
  901000    474.02694     -37691.8   -37135.014    1127.4501    179265.62    56.448061    56.353902    56.353902 
  902000    481.61881    -37686.73   -37121.027    848.77413    179265.62    56.510604    56.322708    56.322708 
  903000    483.70924   -37690.146   -37121.987    1057.9334    179265.62    56.572652    56.291813    56.291813 
  904000    480.53944   -37681.187   -37116.752    1530.2528    179265.62    56.633961    56.261336    56.261336 
  905000    480.68577   -37691.626   -37127.019    1184.4046    179265.62    56.694288    56.231394    56.231394 
  906000    480.08455   -37688.535   -37124.634    939.09841    179265.62    56.753395    56.202105    56.202105 
  907000    479.71918   -37694.494   -37131.022    938.38079    179265.62     56.81105    56.173579    56.173579 
  908000    479.44359    -37681.74   -37118.592    1200.2932    179265.62    56.867024    56.145926    56.145926 
  909000    480.63719   -37684.515   -37119.965    1260.4009    179265.62    56.921098    56.119252    56.119252 
  910000     489.8179   -37681.013    -37105.68    1432.2515    179265.62    56.973056    56.093656    56.093656 
  911000    476.16544   -37679.564   -37120.266    1561.7726    179265.62    57.022695    56.069236    56.069236 
  912000    480.45922   -37682.773   -37118.432    1214.0889    179265.62    57.069818    56.046082    56.046082 
  913000    473.81439   -37676.622   -37120.085    1271.8671    179265.62    57.114239    56.024283    56.024283 
  914000    475.64208   -37677.649   -37118.966    1336.7783    179265.62    57.155784    56.003918    56.003918 
  915000     481.4463   -37681.348   -37115.847    1262.4994    179265.62    57.194288    55.985064    55.985064 
  916000    479.82978   -37673.033   -37109.431    1594.2504    179265.62    57.229599     55.96779     55.96779 
  917000    483.08881   -37674.136   -37106.706    1428.0618    179265.62    57.261577    55.952159    55.952159 
  918000    477.60566   -37684.278   -37123.289    1201.6592    179265.62    57.290098     55.93823     55.93823 
  919000     477.9862   -37679.606   -37118.169    1274.6218    179265.62    57.315047    55.926054    55.926054 
  920000     477.7559     -37680.6   -37119.434    1387.3271    179265.62    57.336327    55.915675    55.915675 
  921000    480.72555   -37679.091   -37114.438    1461.0002    179265.62    57.353854     55.90713     55.90713 
  922000    475.88053   -37677.121   -37118.158    1372.7795    179265.62    57.367558    55.900452    55.900452 
  923000    481.56612   -37680.393   -37114.752    1508.0221    179265.62    57.377385    55.895665    55.895665 
  924000    480.74711   -37667.737   -37103.058    1753.6795    179265.62    57.383297    55.892786    55.892786 
  925000    480.25708   -37664.256   -37100.152    1810.0412    179265.62    57.385271    55.891825    55.891825 
  926000    472.41846   -37672.065   -37117.168    1528.9192    179265.62    57.383297    55.892786    55.892786 
  927000    480.32328   -37669.708   -37105.527    1857.8555    179265.62    57.377385    55.895665    55.895665 
  928000    482.87076   -37676.699   -37109.525     1614.544    179265.62    57.367558    55.900452    55.900452 
  929000    484.51506   -37687.059   -37117.954    1022.4166    179265.62    57.353854     55.90713     55.90713 
  930000    476.70776   -37678.297   -37118.362    1356.9415    179265.62    57.336327    55.915675    55.915675 
  931000     487.3839   -37688.753   -37116.278    1108.1551    179265.62    57.315047    55.926054    55.926054 
  932000    473.40246   -37687.805   -37131.753    998.20956    179265.62    57.290098     55.93823     55.93823 
  933000    471.42517   -37678.446   -37124.716    1356.1082    179265.62    57.261577    55.952159    55.952159 
  934000    479.18281   -37671.599   -37108.757    1555.0242    179265.62    57.229599     55.96779     55.96779 
  935000    474.45513   -37682.866   -37125.577    1559.7253    179265.62    57.194288    55.985064    55.985064 
  936000    484.98165   -37674.694   -37105.041    1624.0054    179265.62    57.155784    56.003918    56.003918 
  937000    473.19666   -37678.169   -37122.358    1357.8919    179265.62    57.114239    56.024283    56.024283 
  938000    474.12402   -37664.511   -37107.611    1546.8194    179265.62    57.069818    56.046082    56.046082 
  939000    482.67194   -37677.464   -37110.523    1439.8069    179265.62    57.022695    56.069236    56.069236 
  940000    472.28491   -37687.546   -37132.806    1303.2445    179265.62    56.973056    56.093656    56.093656 
  941000    474.53227   -37686.468   -37129.089    975.31066    179265.62    56.921098    56.119252    56.119252 
  942000    489.18246   -37691.371   -37116.784    974.42804    179265.62    56.867024    56.145926    56.145926 
  943000    480.50044   -37680.222   -37115.833    1492.0258    179265.62     56.81105    56.173579    56.173579 
  944000    477.09685   -37686.269   -37125.877    1040.0297    179265.62    56.753395    56.202105    56.202105 
  945000    487.62038   -37685.282    -37112.53    1315.1581    179265.62    56.694288    56.231394    56.231394 
  946000    485.29256   -37677.736   -37107.718    1630.6769    179265.62    56.633961    56.261336    56.261336 
  947000    476.92072   -37687.713   -37127.528    1134.9615    179265.62    56.572652    56.291813    56.291813 
  948000    481.12503   -37675.655   -37110.532    1761.5701    179265.62    56.510604    56.322708    56.322708 
  949000    479.41697   -37680.878   -37117.761    1579.4551    179265.62    56.448061    56.353902    56.353902 
  950000    474.71102   -37701.648   -37144.059    861.10788    179265.62    56.385271    56.385271    56.385271 
  951000    471.96214   -37675.267   -37120.906    1183.8228    179265.62     56.32248    56.416692    56.416692 
  952000    488.17973   -37683.284   -37109.875    1432.7039    179265.62    56.259937    56.448042    56.448042 
  953000    479.32358   -37685.747    -37122.74    1420.7425    179265.62    56.197889    56.479196    56.479196 
  954000    477.88065   -37680.818   -37119.506    1385.5396    179265.62    56.136581    56.510028    56.510028 
  955000    480.44297   -37687.181   -37122.859    1111.4003    179265.62    56.076254    56.540417    56.540417 
  956000    485.44826   -37679.375   -37109.173    1683.9222    179265.62    56.017146    56.570239    56.570239 
  957000    479.88092   -37672.944   -37109.282    1635.5476    179265.62    55.959491    56.599374    56.599374 
  958000    485.82396   -37687.579   -37116.937    1253.1611    179265.62    55.903517    56.627702    56.627702 
  959000    477.46147   -37679.832   -37119.012    1523.9394    179265.62    55.849444    56.655109    56.655109 
  960000      479.674   -37680.835   -37117.416    1515.8955    179265.62    55.797485    56.681481    56.681481 
  961000    474.40769   -37664.279   -37107.046    1732.8129    179265.62    55.747847    56.706711    56.706711 
  962000    484.78116   -37682.151   -37112.734    1484.3182    179265.62    55.700724    56.730693    56.730693 
  963000    477.03888   -37668.942   -37108.618     1592.175    179265.62    55.656302    56.753328    56.753328 
  964000    476.77168   -37679.536   -37119.526    1396.2435    179265.62    55.614757    56.774521    56.774521 
  965000    479.46932   -37668.748   -37105.569    1725.3197    179265.62    55.576254    56.794185    56.794185 
  966000    470.72488   -37669.102   -37116.195    1557.7639    179265.62    55.540943    56.812236    56.812236 
  967000    482.22706   -37675.518   -37109.101    1356.7598    179265.62    55.508964    56.828598    56.828598 
  968000    491.69952    -37666.22   -37088.677    2084.3787    179265.62    55.480444    56.843203    56.843203 
  969000    477.45305   -37677.624   -37116.814    1450.7945    179265.62    55.455494    56.855989    56.855989 
  970000    486.11035   -37671.512   -37100.533    1735.8935    179265.62    55.434214      56.8669      56.8669 
  971000    482.72085   -37677.695   -37110.697    1673.0459    179265.62    55.416688    56.875892    56.875892 
  972000    478.40985   -37675.423   -37113.489    1630.0153    179265.62    55.402983    56.882926    56.882926 
  973000    480.48809   -37683.284   -37118.908    1489.5248    179265.62    55.393156    56.887972    56.887972 
  974000    481.64559    -37673.57   -37107.835    1623.4304    179265.62    55.387244    56.891008    56.891008 
  975000    478.65927   -37674.484   -37112.257    1369.9759    179265.62    55.385271    56.892021    56.892021 
  976000    478.86963   -37664.481   -37102.007    1920.5375    179265.62    55.387244    56.891008    56.891008 
  977000    481.18104   -37668.415   -37103.226    1588.4397    179265.62    55.393156    56.887972    56.887972 
  978000    476.67754   -37673.769    -37113.87    1447.4807    179265.62    55.402983    56.882926    56.882926 
  979000    476.67351   -37667.408   -37107.513    1828.8344    179265.62    55.416688    56.875892    56.875892 
  980000    469.87404    -37679.55   -37127.642    1401.4347    179265.62    55.434214      56.8669      56.8669 
  981000    484.12318   -37677.036   -37108.391     1612.371    179265.62    55.455494    56.855989    56.855989 
  982000    479.82685   -37683.721   -37120.123    1393.0639    179265.62    55.480444    56.843203    56.843203 
  983000    484.19569    -37680.68    -37111.95    1408.9948    179265.62    55.508964    56.828598    56.828598 
  984000    479.06509   -37675.035   -37112.331    1505.1646    179265.62    55.540943    56.812236    56.812236 
  985000    473.71412   -37674.373   -37117.954    1462.0886    179265.62    55.576254    56.794185    56.794185 
  986000    473.95965   -37684.295   -37127.588    1425.4223    179265.62    55.614757    56.774521    56.774521 
  987000    486.30442    -37667.67   -37096.463    1843.6117    179265.62    55.656302    56.753328    56.753328 
  988000    483.55712   -37673.091   -37105.111    1718.8899    179265.62    55.700724    56.730693    56.730693 
  989000    480.58745   -37684.469   -37119.977    1378.8818    179265.62    55.747847    56.706711    56.706711 
  990000    482.11033   -37687.415   -37121.135     1258.433    179265.62    55.797485    56.681481    56.681481 
  991000    474.81881   -37676.647   -37118.931    1432.5713    179265.62    55.849444    56.655109    56.655109 
  992000    479.92331   -37677.596   -37113.885     1464.431    179265.62    55.903517    56.627702    56.627702 
  993000    479.20952   -37685.544   -37122.671    1425.4647    179265.62    55.959491    56.599374    56.599374 
  994000     483.0958   -37679.386   -37111.948    1485.6904    179265.62    56.017146    56.570239    56.570239 
  995000    477.77785   -37681.723   -37120.532    1305.5927    179265.62    56.076254    56.540417    56.540417 
  996000    484.63735   -37687.811   -37118.562     1357.552    179265.62    56.136581    56.510028    56.510028 
  997000    479.56833   -37690.121   -37126.826    1150.5689    179265.62    56.197889    56.479196    56.479196 
  998000    483.01606   -37684.863   -37117.519    1303.0226    179265.62    56.259937    56.448042    56.448042 
  999000    478.77833   -37681.656    -37119.29    1212.2759    179265.62     56.32248    56.416692    56.416692 
 1000000    473.31855   -37687.304   -37131.351    1448.4301    179265.62    56.385271    56.385271    56.385271 
Loop time of 472.926 on 48 procs for 1000000 steps with 9088 atoms

Performance: 1826.923 ns/day, 0.013 hours/ns, 2114.494 timesteps/s
99.3% CPU use with 48 MPI tasks x 1 OpenMP threads

MPI task timing breakdown:
Section |  min time  |  avg time  |  max time  |%varavg| %total
---------------------------------------------------------------
Pair    | 327.42     | 337.77     | 351.95     |  29.2 | 71.42
Neigh   | 18.547     | 20.111     | 22.146     |  18.9 |  4.25
Comm    | 63.973     | 75.336     | 88.002     |  60.4 | 15.93
Output  | 0.072448   | 0.076479   | 0.20927    |   7.0 |  0.02
Modify  | 31.218     | 33.971     | 37.385     |  27.5 |  7.18
Other   |            | 5.667      |            |       |  1.20

Nlocal:        189.333 ave         197 max         176 min
Histogram: 1 0 1 6 3 11 5 8 4 9
Nghost:        2095.96 ave        2118 max        2075 min
Histogram: 1 1 8 9 7 7 8 2 3 2
Neighs:        19955.0 ave       21123 max       18391 min
Histogram: 1 0 7 4 10 7 2 6 4 7

Total # of neighbors = 957840
Ave neighs/atom = 105.39613
Neighbor list builds = 124973
Dangerous builds = 0
write_restart rst.${T}
write_restart rst.480
System init for write_restart ...
clear
OMP_NUM_THREADS environment is not set. Defaulting to 1 thread. (../comm.cpp:94)
  using 1 OpenMP thread(s) per MPI task
package intel 1
jump dms500.lmp
#MD-DMS by Ha-Bin Yu
variable T equal 500
log log.${T}
log log.500
