units           metal
boundary        p p p
atom_style      atomic
read_data      ../../data/T${T}.dat
read_data      ../../data/T420.dat
Reading data file ...
  orthogonal box = (-0.2229877 -0.2229877 -0.2229877) to (56.107480 56.107480 56.107480)
  3 by 4 by 4 MPI processor grid
  reading atoms ...
  9088 atoms
  reading velocities ...
  9088 velocities
  read_data CPU = 0.026 seconds
mass            1  26.98	#Al
mass            2  150.36	#Sm
pair_style      eam/fs
pair_coeff      * *  ../../Al90Sm10_MendelevM_2014.eam.fs  Al Sm

neighbor        2.0 bin
neigh_modify    delay 1

timestep 0.01
thermo 1000
reset_timestep 0
thermo_style custom step temp pe etotal press vol lx ly lz
fix             1 all nvt temp ${T} ${T} 0.1
fix             1 all nvt temp 420 ${T} 0.1
fix             1 all nvt temp 420 420 0.1
thermo_modify flush yes
fix nodrift all momentum 1  linear 1 1 1
fix com_seed all recenter INIT INIT INIT shift all
fix dsf all deform 1 x  wiggle 1.0  1000.0 y volume z volume units box
fix ps1 all ave/time 1 1 1000 c_thermo_press[1] c_thermo_press[2]  c_thermo_press[3] c_thermo_press[4]  c_thermo_press[5] c_thermo_press[6]  file  stress.${T}
fix ps1 all ave/time 1 1 1000 c_thermo_press[1] c_thermo_press[2]  c_thermo_press[3] c_thermo_press[4]  c_thermo_press[5] c_thermo_press[6]  file  stress.420
dump            1 all custom 100000 dump.${T} id type x y z
dump            1 all custom 100000 dump.420 id type x y z
dump_modify 1 sort id
run 1000000
Neighbor list info ...
  update every 1 steps, delay 1 steps, check yes
  max neighbors/atom: 2000, page size: 100000
  master list distance cutoff = 10
  ghost atom cutoff = 10
  binsize = 5, bins = 12 12 12
  1 neighbor lists, perpetual/occasional/extra = 1 0 0
  (1) pair eam/fs/intel, perpetual
      attributes: half, newton on, intel
      pair build: half/bin/newton/intel
      stencil: half/bin/3d/newton
      bin: intel
Per MPI rank memory allocation (min/avg/max) = 6.291 | 6.396 | 6.467 Mbytes
Step Temp PotEng TotEng Press Volume Lx Ly Lz 
       0    426.95946   -37786.282   -37284.781    851.97358    178743.43    56.330468    56.330468    56.330468 
    1000    421.87874   -37763.771   -37268.238    1385.3014    178743.43    56.393259    56.299099    56.299099 
    2000    418.55576   -37770.688   -37279.058    1289.6389    178743.43    56.455801    56.267906    56.267906 
    3000    416.99043    -37764.86   -37275.069    1452.7961    178743.43    56.517849     56.23701     56.23701 
    4000    417.41095   -37767.901   -37277.616    1311.7037    178743.43    56.579158    56.206533    56.206533 
    5000    417.83335   -37761.438   -37270.656     1679.221    178743.43    56.639485    56.176592    56.176592 
    6000    422.09326   -37767.447   -37271.661    1345.4144    178743.43    56.698593    56.147303    56.147303 
    7000    417.37079   -37763.432   -37273.194    1330.9822    178743.43    56.756247    56.118778    56.118778 
    8000    421.96842   -37767.669    -37272.03    1383.4431    178743.43    56.812222    56.091125    56.091125 
    9000    420.07323   -37753.216   -37259.804    1637.6421    178743.43    56.866295    56.064451    56.064451 
   10000    422.04543   -37762.428   -37266.699    1529.2303    178743.43    56.918253    56.038856    56.038856 
   11000    414.92765   -37771.932   -37284.564    1080.2089    178743.43    56.967892    56.014436    56.014436 
   12000    418.98389   -37765.344   -37273.211    1478.7511    178743.43    57.015015    55.991283    55.991283 
   13000    423.79358   -37760.272   -37262.489    1592.0256    178743.43    57.059437    55.969484    55.969484 
   14000    421.00059   -37761.061   -37266.559    1601.8064    178743.43    57.100981    55.949119    55.949119 
   15000    425.66866   -37758.656   -37258.671    1396.0385    178743.43    57.139485    55.930265    55.930265 
   16000    415.70493   -37759.813   -37271.532    1585.1669    178743.43    57.174796    55.912991    55.912991 
   17000    420.43106    -37764.95   -37271.117    1508.1178    178743.43    57.206775    55.897361    55.897361 
   18000    417.45659   -37764.036   -37273.697    1558.4485    178743.43    57.235295    55.883433    55.883433 
   19000    411.96927   -37755.736   -37271.842    1277.0421    178743.43    57.260245    55.871257    55.871257 
   20000    419.77438    -37757.39   -37264.328    1574.0102    178743.43    57.281525    55.860878    55.860878 
   21000     420.7771   -37764.398   -37270.158    1162.6892    178743.43    57.299051    55.852334    55.852334 
   22000    418.16699   -37749.005   -37257.832    1568.7343    178743.43    57.312755    55.845656    55.845656 
   23000    424.51334   -37757.081   -37258.454    1573.8276    178743.43    57.322583    55.840869    55.840869 
   24000    416.70066   -37761.052   -37271.601    1355.9163    178743.43    57.328495    55.837989    55.837989 
   25000    420.76428   -37754.104   -37259.879    1456.9939    178743.43    57.330468    55.837028    55.837028 
   26000    427.40108   -37760.872   -37258.852    1400.9554    178743.43    57.328495    55.837989    55.837989 
   27000    418.80901   -37763.554   -37271.626    1460.6294    178743.43    57.322583    55.840869    55.840869 
   28000    418.28527   -37751.698   -37260.385    1620.2802    178743.43    57.312755    55.845656    55.845656 
   29000    422.98027   -37757.608   -37260.781    1647.3448    178743.43    57.299051    55.852334    55.852334 
   30000    421.50739   -37759.295   -37264.198    1377.8388    178743.43    57.281525    55.860878    55.860878 
   31000    420.14167   -37761.135   -37267.642    1519.1859    178743.43    57.260245    55.871257    55.871257 
   32000    415.21281   -37767.378   -37279.675    1498.2303    178743.43    57.235295    55.883433    55.883433 
   33000    417.92201   -37752.663   -37261.777    1904.4494    178743.43    57.206775    55.897361    55.897361 
   34000    418.44254   -37758.288    -37266.79    1457.8858    178743.43    57.174796    55.912991    55.912991 
   35000    417.55894   -37760.021   -37269.561    1546.4237    178743.43    57.139485    55.930265    55.930265 
   36000    417.57284   -37761.586    -37271.11    1482.4938    178743.43    57.100981    55.949119    55.949119 
   37000    422.55014   -37769.367   -37273.045    1365.4851    178743.43    57.059437    55.969484    55.969484 
   38000    416.44858    -37759.79   -37270.635    1270.3618    178743.43    57.015015    55.991283    55.991283 
   39000    419.28151   -37765.334   -37272.851    1396.8077    178743.43    56.967892    56.014436    56.014436 
   40000    421.33951   -37762.696   -37267.797    1423.4658    178743.43    56.918253    56.038856    56.038856 
   41000    417.95034   -37766.139    -37275.22    1593.7714    178743.43    56.866295    56.064451    56.064451 
   42000    423.83418   -37755.716   -37257.886    1698.9404    178743.43    56.812222    56.091125    56.091125 
   43000    419.88196   -37768.686   -37275.498    1143.8313    178743.43    56.756247    56.118778    56.118778 
   44000    416.72441    -37771.77   -37282.291    1017.5362    178743.43    56.698593    56.147303    56.147303 
   45000    420.57416   -37768.306   -37274.305    1405.8395    178743.43    56.639485    56.176592    56.176592 
   46000    413.36043   -37766.091   -37280.563    1384.8443    178743.43    56.579158    56.206533    56.206533 
   47000    422.14339   -37765.163   -37269.319    1619.5319    178743.43    56.517849     56.23701     56.23701 
   48000    414.80929   -37768.523   -37281.294    1131.8544    178743.43    56.455801    56.267906    56.267906 
   49000    422.73044   -37765.965   -37269.432    1280.2565    178743.43    56.393259    56.299099    56.299099 
   50000    414.95271   -37763.694   -37276.296    1319.6225    178743.43    56.330468    56.330468    56.330468 
   51000    416.84744   -37779.968   -37290.344    879.04309    178743.43    56.267678     56.36189     56.36189 
   52000    421.27439    -37769.05   -37274.227     1277.888    178743.43    56.205135    56.393239    56.393239 
   53000    418.71377   -37769.873   -37278.057    1372.1872    178743.43    56.143087    56.424393    56.424393 
   54000    412.92701    -37762.91   -37277.891    1577.5353    178743.43    56.081778    56.455226    56.455226 
   55000     419.0897   -37770.366   -37278.109    1264.7124    178743.43    56.021451    56.485615    56.485615 
   56000    423.97312   -37760.524   -37262.531    1515.3089    178743.43    55.962343    56.515437    56.515437 
   57000    422.43258   -37763.105   -37266.921    1572.2255    178743.43    55.904689    56.544572    56.544572 
   58000    420.23576   -37755.098   -37261.494    1875.3697    178743.43    55.848714    56.572901    56.572901 
   59000    420.16655   -37760.975   -37267.453    1589.8561    178743.43    55.794641    56.600308    56.600308 
   60000    422.73536   -37757.849   -37261.309    1641.5952    178743.43    55.742683    56.626681    56.626681 
   61000    424.70188    -37754.21    -37255.36    1770.1836    178743.43    55.693044    56.651911    56.651911 
   62000     423.4487    -37763.97   -37266.593    1479.9853    178743.43    55.645921    56.675893    56.675893 
   63000    424.70654   -37759.437   -37260.582    1502.2592    178743.43    55.601499    56.698529    56.698529 
   64000    414.38585    -37759.09   -37272.358    1401.0403    178743.43    55.559955    56.719723    56.719723 
   65000    413.42711   -37754.329   -37268.723    1630.3451    178743.43    55.521451    56.739386    56.739386 
   66000    421.76521   -37759.398   -37263.998    1520.7645    178743.43     55.48614    56.757438    56.757438 
   67000     423.8934   -37750.925   -37253.025    1642.2934    178743.43    55.454161    56.773801    56.773801 
   68000    415.05676   -37757.525   -37270.004     1392.299    178743.43    55.425641    56.788406    56.788406 
   69000    418.79103   -37745.657    -37253.75    1719.0823    178743.43    55.400692    56.801192    56.801192 
   70000    417.25086   -37746.154   -37256.057    1840.0615    178743.43    55.379412    56.812104    56.812104 
   71000    421.78929   -37755.437   -37260.008    1814.5343    178743.43    55.361885    56.821096    56.821096 
   72000    424.38123   -37747.747   -37249.274    2004.9781    178743.43    55.348181     56.82813     56.82813 
   73000    426.92951    -37756.69   -37255.225    1759.7459    178743.43    55.338353    56.833176    56.833176 
   74000    423.83544   -37754.629   -37256.798    1676.2923    178743.43    55.332441    56.836212    56.836212 
   75000    422.17361   -37750.264   -37254.385    1786.1014    178743.43    55.330468    56.837225    56.837225 
   76000    425.40734   -37745.208    -37245.53    2021.6133    178743.43    55.332441    56.836212    56.836212 
   77000    418.71446   -37757.371   -37265.554    1474.0472    178743.43    55.338353    56.833176    56.833176 
   78000    419.54078    -37754.08   -37261.293    1700.0481    178743.43    55.348181     56.82813     56.82813 
   79000    417.81445   -37756.794   -37266.034    1593.2309    178743.43    55.361885    56.821096    56.821096 
   80000    420.64061   -37756.522   -37262.443    1592.3504    178743.43    55.379412    56.812104    56.812104 
   81000    414.92579   -37752.065   -37264.699    1483.2119    178743.43    55.400692    56.801192    56.801192 
   82000    421.24324    -37755.49   -37260.703    1575.7466    178743.43    55.425641    56.788406    56.788406 
   83000    426.62712    -37752.05    -37250.94    2010.2755    178743.43    55.454161    56.773801    56.773801 
   84000    414.78399   -37759.306   -37272.107    1512.7525    178743.43     55.48614    56.757438    56.757438 
   85000    423.10731   -37753.015   -37256.039    1666.5805    178743.43    55.521451    56.739386    56.739386 
   86000     417.2868   -37754.788   -37264.648    1610.5128    178743.43    55.559955    56.719723    56.719723 
   87000    422.89198   -37751.437   -37254.714    1750.4223    178743.43    55.601499    56.698529    56.698529 
   88000    421.03404   -37762.104   -37267.563    1491.8424    178743.43    55.645921    56.675893    56.675893 
   89000    422.05084   -37769.048   -37273.313    1398.7667    178743.43    55.693044    56.651911    56.651911 
   90000    418.35197   -37762.696   -37271.305     1399.729    178743.43    55.742683    56.626681    56.626681 
   91000    423.32393   -37760.126   -37262.896     1467.412    178743.43    55.794641    56.600308    56.600308 
   92000    419.98743   -37767.541   -37274.229    1359.6172    178743.43    55.848714    56.572901    56.572901 
   93000    425.38039   -37763.885   -37264.239    1355.2082    178743.43    55.904689    56.544572    56.544572 
   94000    421.87295   -37767.364   -37271.837    1338.6189    178743.43    55.962343    56.515437    56.515437 
   95000    420.62481   -37771.112   -37277.051    1357.2829    178743.43    56.021451    56.485615    56.485615 
   96000     419.7944    -37761.88   -37268.795    1276.1142    178743.43    56.081778    56.455226    56.455226 
   97000    420.39238   -37756.702   -37262.915    1725.1434    178743.43    56.143087    56.424393    56.424393 
   98000    421.97616   -37762.002   -37266.354    1556.9303    178743.43    56.205135    56.393239    56.393239 
   99000    422.76902   -37763.281   -37266.702    1550.2391    178743.43    56.267678     56.36189     56.36189 
  100000    425.23896   -37767.548   -37268.068    1430.3417    178743.43    56.330468    56.330468    56.330468 
  101000    418.88881   -37771.098   -37279.077     1149.873    178743.43    56.393259    56.299099    56.299099 
  102000    419.61795   -37761.716   -37268.839    1530.3144    178743.43    56.455801    56.267906    56.267906 
  103000    421.89315   -37762.262   -37266.712    1486.2313    178743.43    56.517849     56.23701     56.23701 
  104000    418.91905   -37765.385   -37273.328    1339.1531    178743.43    56.579158    56.206533    56.206533 
  105000    423.17105    -37768.83   -37271.779    1162.2092    178743.43    56.639485    56.176592    56.176592 
  106000    415.40194   -37765.035    -37277.11    1459.8614    178743.43    56.698593    56.147303    56.147303 
  107000    417.68621   -37763.212   -37272.603    1308.1729    178743.43    56.756247    56.118778    56.118778 
  108000    414.81418   -37768.758   -37281.523    1447.7535    178743.43    56.812222    56.091125    56.091125 
  109000    421.55649   -37756.888   -37261.734    1443.6534    178743.43    56.866295    56.064451    56.064451 
  110000    423.34158   -37762.648   -37265.396    1422.0634    178743.43    56.918253    56.038856    56.038856 
  111000    413.72107   -37759.741    -37273.79    1387.2957    178743.43    56.967892    56.014436    56.014436 
  112000     421.2466   -37767.559   -37272.768    1279.7574    178743.43    57.015015    55.991283    55.991283 
  113000     416.2511   -37755.019   -37266.096    1690.1938    178743.43    57.059437    55.969484    55.969484 
  114000    417.92419   -37760.995   -37270.107    1330.6315    178743.43    57.100981    55.949119    55.949119 
  115000    415.21316   -37764.963   -37277.259    1265.8801    178743.43    57.139485    55.930265    55.930265 
  116000    415.80821   -37758.496   -37270.093    1538.3811    178743.43    57.174796    55.912991    55.912991 
  117000    415.23473   -37759.744   -37272.015    1485.0603    178743.43    57.206775    55.897361    55.897361 
  118000    414.20506   -37759.793   -37273.273    1673.0001    178743.43    57.235295    55.883433    55.883433 
  119000    422.94186   -37755.629   -37258.847    1815.3291    178743.43    57.260245    55.871257    55.871257 
  120000    429.75242   -37758.077   -37253.295     1598.406    178743.43    57.281525    55.860878    55.860878 
  121000    416.38246   -37760.725   -37271.647     1361.254    178743.43    57.299051    55.852334    55.852334 
  122000    421.93233   -37757.184   -37261.588    1539.0558    178743.43    57.312755    55.845656    55.845656 
  123000    419.67133   -37754.215   -37261.274    1381.8008    178743.43    57.322583    55.840869    55.840869 
  124000    425.50757   -37753.765   -37253.969    1776.7362    178743.43    57.328495    55.837989    55.837989 
  125000    427.38097   -37755.403   -37253.406    1676.2084    178743.43    57.330468    55.837028    55.837028 
  126000      420.808   -37761.117   -37266.842    1536.0494    178743.43    57.328495    55.837989    55.837989 
  127000     426.6767   -37760.281   -37259.112    1692.1864    178743.43    57.322583    55.840869    55.840869 
  128000    416.96528   -37759.203   -37269.441    1515.2337    178743.43    57.312755    55.845656    55.845656 
  129000    420.96752   -37759.704   -37265.242       1528.5    178743.43    57.299051    55.852334    55.852334 
  130000     424.6767   -37762.357   -37263.537    1421.9191    178743.43    57.281525    55.860878    55.860878 
  131000    418.68761     -37755.2   -37263.415    1426.3316    178743.43    57.260245    55.871257    55.871257 
  132000    419.60972   -37760.907   -37268.039    1487.1992    178743.43    57.235295    55.883433    55.883433 
  133000    414.64924   -37748.308   -37261.266    1637.8925    178743.43    57.206775    55.897361    55.897361 
  134000    421.40192   -37759.854   -37264.881    1441.0588    178743.43    57.174796    55.912991    55.912991 
  135000    420.73879   -37764.348   -37270.154    1042.0396    178743.43    57.139485    55.930265    55.930265 
  136000    408.36864   -37754.857   -37275.193     1395.788    178743.43    57.100981    55.949119    55.949119 
  137000    420.13262   -37761.637   -37268.155    1396.8758    178743.43    57.059437    55.969484    55.969484 
  138000    413.76049   -37759.698     -37273.7     1645.482    178743.43    57.015015    55.991283    55.991283 
  139000    415.84943   -37771.495   -37283.043    1060.7052    178743.43    56.967892    56.014436    56.014436 
  140000    419.80021    -37759.42   -37266.328     1709.556    178743.43    56.918253    56.038856    56.038856 
  141000    428.95266   -37756.649   -37252.807    1704.5893    178743.43    56.866295    56.064451    56.064451 
  142000    425.09379   -37764.246   -37264.936    1397.2165    178743.43    56.812222    56.091125    56.091125 
  143000     415.1045   -37775.413   -37287.837     1213.909    178743.43    56.756247    56.118778    56.118778 
  144000    414.48218   -37772.165    -37285.32    1349.7419    178743.43    56.698593    56.147303    56.147303 
  145000    418.94316   -37763.788   -37271.703    1542.1624    178743.43    56.639485    56.176592    56.176592 
  146000    420.09103   -37764.965   -37271.532    1569.1981    178743.43    56.579158    56.206533    56.206533 
  147000    420.18244   -37763.416   -37269.875    1244.8609    178743.43    56.517849     56.23701     56.23701 
  148000    416.45451   -37764.767   -37275.605    1403.6546    178743.43    56.455801    56.267906    56.267906 
  149000     424.4497   -37771.888   -37273.335    1254.4139    178743.43    56.393259    56.299099    56.299099 
  150000    418.71955   -37768.538   -37276.715    1324.7503    178743.43    56.330468    56.330468    56.330468 
  151000    424.23239   -37762.396   -37264.098    1456.8042    178743.43    56.267678     56.36189     56.36189 
  152000    422.63379   -37765.335   -37268.915    1490.9547    178743.43    56.205135    56.393239    56.393239 
  153000    414.09761   -37757.322   -37270.928    1541.0213    178743.43    56.143087    56.424393    56.424393 
  154000    420.59077   -37758.269   -37264.248    1583.2608    178743.43    56.081778    56.455226    56.455226 
  155000    419.08852   -37762.872   -37270.616    1590.9897    178743.43    56.021451    56.485615    56.485615 
  156000    419.96352   -37761.357   -37268.073    1581.3066    178743.43    55.962343    56.515437    56.515437 
  157000    425.35287   -37769.177   -37269.563    1318.6167    178743.43    55.904689    56.544572    56.544572 
  158000    421.72622   -37769.289   -37273.935    1378.0836    178743.43    55.848714    56.572901    56.572901 
  159000    421.18823   -37765.318   -37270.596    1313.6466    178743.43    55.794641    56.600308    56.600308 
  160000    424.96182   -37764.897   -37265.743    1438.5402    178743.43    55.742683    56.626681    56.626681 
  161000    416.76238   -37754.504    -37264.98    1596.9682    178743.43    55.693044    56.651911    56.651911 
  162000    421.47959   -37767.405   -37272.341    1212.7163    178743.43    55.645921    56.675893    56.675893 
  163000    416.13843   -37753.983   -37265.193     1737.986    178743.43    55.601499    56.698529    56.698529 
  164000    411.36724   -37760.459   -37277.273    1528.0898    178743.43    55.559955    56.719723    56.719723 
  165000    419.50981   -37756.762   -37264.011    1570.4684    178743.43    55.521451    56.739386    56.739386 
  166000    416.36383   -37754.696   -37265.641    1730.3293    178743.43     55.48614    56.757438    56.757438 
  167000     417.3286   -37762.228   -37272.039    1538.9435    178743.43    55.454161    56.773801    56.773801 
  168000    418.70083   -37759.156   -37267.355    1715.0834    178743.43    55.425641    56.788406    56.788406 
  169000    422.61583   -37758.259    -37261.86    1478.2216    178743.43    55.400692    56.801192    56.801192 
  170000    423.19581   -37762.402   -37265.321     1379.995    178743.43    55.379412    56.812104    56.812104 
  171000    417.23992   -37747.599   -37257.515    1693.0208    178743.43    55.361885    56.821096    56.821096 
  172000    417.56009   -37749.694   -37259.233    1769.9349    178743.43    55.348181     56.82813     56.82813 
  173000    421.34725   -37749.459    -37254.55    1855.2968    178743.43    55.338353    56.833176    56.833176 
  174000    421.66374   -37750.646   -37255.366    1927.3732    178743.43    55.332441    56.836212    56.836212 
  175000     419.0338   -37752.764   -37260.573    1595.5575    178743.43    55.330468    56.837225    56.837225 
  176000    421.94066   -37749.391   -37253.785    1802.7739    178743.43    55.332441    56.836212    56.836212 
  177000    415.90171     -37755.4   -37266.887    1494.0399    178743.43    55.338353    56.833176    56.833176 
  178000     421.4598   -37753.671    -37258.63    1647.1259    178743.43    55.348181     56.82813     56.82813 
  179000    421.24787   -37739.823   -37245.031    2153.2754    178743.43    55.361885    56.821096    56.821096 
  180000    422.08971   -37748.193   -37252.412    1884.5319    178743.43    55.379412    56.812104    56.812104 
  181000    414.95642   -37759.404   -37272.002     1341.924    178743.43    55.400692    56.801192    56.801192 
  182000    418.27397   -37758.032   -37266.733    1431.1966    178743.43    55.425641    56.788406    56.788406 
  183000    416.17025   -37760.153   -37271.325    1601.1774    178743.43    55.454161    56.773801    56.773801 
  184000    419.57804   -37761.676   -37268.846    1609.8668    178743.43     55.48614    56.757438    56.757438 
  185000    422.67593    -37761.62   -37265.151    1341.7647    178743.43    55.521451    56.739386    56.739386 
  186000    413.92069   -37754.897   -37268.711    1606.8915    178743.43    55.559955    56.719723    56.719723 
  187000     421.8155   -37765.436   -37269.977    1294.8075    178743.43    55.601499    56.698529    56.698529 
  188000    417.62884     -37753.6   -37263.059    1701.8021    178743.43    55.645921    56.675893    56.675893 
  189000    427.94643   -37766.925   -37264.265    1440.4369    178743.43    55.693044    56.651911    56.651911 
  190000    417.99657   -37759.664    -37268.69    1485.1813    178743.43    55.742683    56.626681    56.626681 
  191000    425.61417   -37766.941    -37267.02    1367.3531    178743.43    55.794641    56.600308    56.600308 
  192000    420.87459   -37765.311   -37270.957    1534.7733    178743.43    55.848714    56.572901    56.572901 
  193000    418.78857    -37765.67   -37273.767    1412.0639    178743.43    55.904689    56.544572    56.544572 
  194000    418.07144   -37767.027   -37275.966    1229.7343    178743.43    55.962343    56.515437    56.515437 
  195000    420.31204   -37764.969   -37271.276    1252.9998    178743.43    56.021451    56.485615    56.485615 
  196000    414.89259   -37765.395   -37278.067    1173.6304    178743.43    56.081778    56.455226    56.455226 
  197000    417.23972   -37768.477   -37278.393      1122.31    178743.43    56.143087    56.424393    56.424393 
  198000    418.69647   -37762.978   -37271.183    1423.7084    178743.43    56.205135    56.393239    56.393239 
  199000    423.46877   -37774.868   -37277.467    1014.9615    178743.43    56.267678     56.36189     56.36189 
  200000     416.7913   -37767.919   -37278.361    1326.7816    178743.43    56.330468    56.330468    56.330468 
  201000    420.37322   -37761.233   -37267.468    1526.9055    178743.43    56.393259    56.299099    56.299099 
  202000     422.8224   -37770.229   -37273.588    1329.1092    178743.43    56.455801    56.267906    56.267906 
  203000    417.14128   -37769.199    -37279.23    1148.7898    178743.43    56.517849     56.23701     56.23701 
  204000    416.79161   -37767.003   -37277.445    1109.0449    178743.43    56.579158    56.206533    56.206533 
  205000    418.73653   -37760.082    -37268.24    1442.2485    178743.43    56.639485    56.176592    56.176592 
  206000    423.18962   -37771.179   -37274.106    1171.1691    178743.43    56.698593    56.147303    56.147303 
  207000    415.92156   -37777.815   -37289.279    1098.0231    178743.43    56.756247    56.118778    56.118778 
  208000    420.13972   -37768.273   -37274.782    1373.0207    178743.43    56.812222    56.091125    56.091125 
  209000    419.73922   -37769.433   -37276.413    1189.1444    178743.43    56.866295    56.064451    56.064451 
  210000    420.25705    -37762.15   -37268.521     1431.902    178743.43    56.918253    56.038856    56.038856 
  211000    414.09013   -37760.714    -37274.33    1407.6144    178743.43    56.967892    56.014436    56.014436 
  212000    419.45282   -37761.415   -37268.731    1376.2269    178743.43    57.015015    55.991283    55.991283 
  213000    417.47781   -37764.803   -37274.439    1281.9194    178743.43    57.059437    55.969484    55.969484 
  214000    419.94545   -37759.499   -37266.236    1610.1965    178743.43    57.100981    55.949119    55.949119 
  215000    417.19066   -37761.308   -37271.281    1460.4978    178743.43    57.139485    55.930265    55.930265 
  216000    422.10763   -37761.101   -37265.299    1466.2221    178743.43    57.174796    55.912991    55.912991 
  217000    418.98131   -37759.929   -37267.799    1279.5305    178743.43    57.206775    55.897361    55.897361 
  218000    419.53621    -37752.24   -37259.458    1748.7313    178743.43    57.235295    55.883433    55.883433 
  219000    421.61116   -37763.203   -37267.984    1543.2335    178743.43    57.260245    55.871257    55.871257 
  220000    419.78918   -37751.804   -37258.725    1633.9878    178743.43    57.281525    55.860878    55.860878 
  221000    420.48585   -37758.021   -37264.124    1604.1837    178743.43    57.299051    55.852334    55.852334 
  222000    418.37075   -37752.998   -37261.585    1540.6253    178743.43    57.312755    55.845656    55.845656 
  223000    426.63284   -37761.449   -37260.332     1484.798    178743.43    57.322583    55.840869    55.840869 
  224000    419.84229   -37756.682    -37263.54    1317.6842    178743.43    57.328495    55.837989    55.837989 
  225000    420.52935   -37761.485   -37267.537    1417.4397    178743.43    57.330468    55.837028    55.837028 
  226000    417.85686   -37758.325   -37267.516    1731.3827    178743.43    57.328495    55.837989    55.837989 
  227000    417.87772   -37754.931   -37264.098    1501.3549    178743.43    57.322583    55.840869    55.840869 
  228000    421.78104   -37759.964   -37264.546    1432.2389    178743.43    57.312755    55.845656    55.845656 
  229000    424.54753   -37756.752   -37258.084    1442.5822    178743.43    57.299051    55.852334    55.852334 
  230000    422.96317   -37759.847   -37263.039    1508.6918    178743.43    57.281525    55.860878    55.860878 
  231000    422.41234   -37755.658   -37259.498    1442.5404    178743.43    57.260245    55.871257    55.871257 
  232000    419.11791   -37761.419   -37269.128    1586.8937    178743.43    57.235295    55.883433    55.883433 
  233000    430.12722   -37762.385   -37257.163    1439.7159    178743.43    57.206775    55.897361    55.897361 
  234000    426.86879   -37760.259   -37258.865    1432.0783    178743.43    57.174796    55.912991    55.912991 
  235000    417.12982   -37751.111   -37261.156    1874.1433    178743.43    57.139485    55.930265    55.930265 
  236000    425.98254   -37762.522   -37262.168    1392.7332    178743.43    57.100981    55.949119    55.949119 
  237000    428.41395   -37767.903   -37264.694    1340.9362    178743.43    57.059437    55.969484    55.969484 
  238000    416.20998    -37768.51   -37279.635     1446.259    178743.43    57.015015    55.991283    55.991283 
  239000    415.43256   -37761.432    -37273.47    1436.2378    178743.43    56.967892    56.014436    56.014436 
  240000    421.59531   -37769.075   -37273.874     1284.517    178743.43    56.918253    56.038856    56.038856 
  241000     419.4435   -37756.224   -37263.551    1593.7218    178743.43    56.866295    56.064451    56.064451 
  242000    423.51603   -37768.322   -37270.865    1176.2445    178743.43    56.812222    56.091125    56.091125 
  243000    414.90417   -37772.449   -37285.108    1111.9349    178743.43    56.756247    56.118778    56.118778 
  244000    424.81623   -37770.966   -37271.982    1103.3507    178743.43    56.698593    56.147303    56.147303 
  245000    418.31555   -37769.234   -37277.886    1165.9226    178743.43    56.639485    56.176592    56.176592 
  246000    417.76714   -37759.465   -37268.761    1410.4849    178743.43    56.579158    56.206533    56.206533 
  247000    416.60046   -37761.393    -37272.06    1612.8708    178743.43    56.517849     56.23701     56.23701 
  248000     423.2917   -37772.271   -37275.078     1006.327    178743.43    56.455801    56.267906    56.267906 
  249000    419.04929   -37769.529   -37277.319    1245.6293    178743.43    56.393259    56.299099    56.299099 
  250000    420.42725   -37769.803   -37275.975     1212.614    178743.43    56.330468    56.330468    56.330468 
  251000    421.91048   -37768.672   -37273.102    1497.5858    178743.43    56.267678     56.36189     56.36189 
  252000    420.81527   -37770.116   -37275.832    1370.0519    178743.43    56.205135    56.393239    56.393239 
  253000    416.30065   -37761.605   -37272.624    1419.7092    178743.43    56.143087    56.424393    56.424393 
  254000    425.11789   -37765.029   -37265.691    1322.1236    178743.43    56.081778    56.455226    56.455226 
  255000    419.22084   -37765.112   -37272.701    1554.4077    178743.43    56.021451    56.485615    56.485615 
  256000    421.68742   -37763.941   -37268.633    1457.6513    178743.43    55.962343    56.515437    56.515437 
  257000    419.40836   -37766.043   -37273.411    1310.7095    178743.43    55.904689    56.544572    56.544572 
  258000    423.90746   -37763.865   -37265.949    1692.7222    178743.43    55.848714    56.572901    56.572901 
  259000    419.79253   -37767.841   -37274.758    1353.1362    178743.43    55.794641    56.600308    56.600308 
  260000    415.30387   -37763.755   -37275.944    1433.6253    178743.43    55.742683    56.626681    56.626681 
  261000    425.57989   -37755.156   -37255.275    1714.2492    178743.43    55.693044    56.651911    56.651911 
  262000    417.85591   -37753.591   -37262.783    1731.2783    178743.43    55.645921    56.675893    56.675893 
  263000    418.82718   -37763.877   -37271.928    1432.7568    178743.43    55.601499    56.698529    56.698529 
  264000    417.13336   -37766.425   -37276.465     1139.825    178743.43    55.559955    56.719723    56.719723 
  265000    416.14217   -37758.174   -37269.379    1531.8637    178743.43    55.521451    56.739386    56.739386 
  266000    415.82568   -37759.009   -37270.585    1640.5109    178743.43     55.48614    56.757438    56.757438 
  267000    421.53171   -37761.357   -37266.231    1554.9438    178743.43    55.454161    56.773801    56.773801 
  268000    421.48084   -37753.265   -37258.199     1491.269    178743.43    55.425641    56.788406    56.788406 
  269000    414.23472   -37751.694   -37265.139    1685.1341    178743.43    55.400692    56.801192    56.801192 
  270000    420.31009   -37752.452   -37258.761    1694.4279    178743.43    55.379412    56.812104    56.812104 
  271000    423.49483   -37748.453   -37251.021    1834.6936    178743.43    55.361885    56.821096    56.821096 
  272000    421.66623    -37749.18   -37253.897    1976.0325    178743.43    55.348181     56.82813     56.82813 
  273000    413.46173   -37748.413   -37262.766    1527.8048    178743.43    55.338353    56.833176    56.833176 
  274000    415.34844     -37757.5   -37269.637    1654.5961    178743.43    55.332441    56.836212    56.836212 
  275000     416.8299   -37752.866   -37263.263    1715.8061    178743.43    55.330468    56.837225    56.837225 
  276000    416.26136   -37754.037   -37265.102    1650.6071    178743.43    55.332441    56.836212    56.836212 
  277000    416.99727    -37758.26    -37268.46    1331.8298    178743.43    55.338353    56.833176    56.833176 
  278000    418.35319   -37746.434   -37255.042    1911.1112    178743.43    55.348181     56.82813     56.82813 
  279000    422.15914   -37748.316   -37252.454    1906.6205    178743.43    55.361885    56.821096    56.821096 
  280000    415.44355   -37758.601   -37270.627    1560.3457    178743.43    55.379412    56.812104    56.812104 
  281000    415.13171   -37752.908     -37265.3     1443.343    178743.43    55.400692    56.801192    56.801192 
  282000    422.75279   -37759.074   -37262.515    1316.5824    178743.43    55.425641    56.788406    56.788406 
  283000    414.95292   -37750.479   -37263.081    1822.4365    178743.43    55.454161    56.773801    56.773801 
  284000    429.94012   -37753.591   -37248.589    1601.6154    178743.43     55.48614    56.757438    56.757438 
  285000    412.71019   -37757.369   -37272.605    1557.8051    178743.43    55.521451    56.739386    56.739386 
  286000    420.70626   -37758.064   -37263.908    1491.8434    178743.43    55.559955    56.719723    56.719723 
  287000     418.9091   -37760.861   -37268.816    1367.5187    178743.43    55.601499    56.698529    56.698529 
  288000    421.34441   -37762.833   -37267.927     1613.657    178743.43    55.645921    56.675893    56.675893 
  289000    420.72173    -37757.61   -37263.436    1494.8446    178743.43    55.693044    56.651911    56.651911 
  290000    417.74259    -37760.81   -37270.135    1429.4653    178743.43    55.742683    56.626681    56.626681 
  291000    417.13858   -37760.955    -37270.99    1605.8864    178743.43    55.794641    56.600308    56.600308 
  292000    415.33359   -37764.684   -37276.839    1298.2391    178743.43    55.848714    56.572901    56.572901 
  293000    416.74841   -37759.839   -37270.332     1526.997    178743.43    55.904689    56.544572    56.544572 
  294000    420.68927   -37766.244   -37272.108     1510.812    178743.43    55.962343    56.515437    56.515437 
  295000    417.79465   -37769.491   -37278.755    1234.8795    178743.43    56.021451    56.485615    56.485615 
  296000    416.80944   -37760.715   -37271.137    1436.6634    178743.43    56.081778    56.455226    56.455226 
  297000    417.05218   -37768.979   -37279.115    1346.8891    178743.43    56.143087    56.424393    56.424393 
  298000    420.58014   -37763.346   -37269.338    1219.9551    178743.43    56.205135    56.393239    56.393239 
  299000     419.9526   -37770.744   -37277.473    1398.5046    178743.43    56.267678     56.36189     56.36189 
  300000    419.81972   -37772.697   -37279.582    1082.8931    178743.43    56.330468    56.330468    56.330468 
  301000    419.69163   -37766.515   -37273.551    1278.3583    178743.43    56.393259    56.299099    56.299099 
  302000    425.14539   -37772.324   -37272.953    1338.4964    178743.43    56.455801    56.267906    56.267906 
  303000    420.42481   -37777.286   -37283.461    1290.8172    178743.43    56.517849     56.23701     56.23701 
  304000    421.67159   -37769.404   -37274.114    1248.0157    178743.43    56.579158    56.206533    56.206533 
  305000    417.78103   -37764.104   -37273.384    1434.8355    178743.43    56.639485    56.176592    56.176592 
  306000    420.22548   -37767.987   -37274.396    1297.5727    178743.43    56.698593    56.147303    56.147303 
  307000    416.35644    -37764.92   -37275.873    1399.5545    178743.43    56.756247    56.118778    56.118778 
  308000    421.24668   -37758.502   -37263.711    1496.7071    178743.43    56.812222    56.091125    56.091125 
  309000     424.0341   -37760.804    -37262.74    1353.1524    178743.43    56.866295    56.064451    56.064451 
  310000    415.82772   -37757.029   -37268.603    1598.3661    178743.43    56.918253    56.038856    56.038856 
  311000    414.53198   -37769.996   -37283.092    1151.0209    178743.43    56.967892    56.014436    56.014436 
  312000    420.45745   -37760.662   -37266.798    1267.0421    178743.43    57.015015    55.991283    55.991283 
  313000    424.68335   -37762.172   -37263.345    1452.4878    178743.43    57.059437    55.969484    55.969484 
  314000    418.32061   -37763.309   -37271.955    1285.8414    178743.43    57.100981    55.949119    55.949119 
  315000    420.55823   -37769.841   -37275.859    1138.7934    178743.43    57.139485    55.930265    55.930265 
  316000    426.12931   -37763.375   -37262.849    1447.2416    178743.43    57.174796    55.912991    55.912991 
  317000    422.57348   -37770.061   -37273.712    1177.0979    178743.43    57.206775    55.897361    55.897361 
  318000    413.36989   -37759.266   -37273.727    1562.2501    178743.43    57.235295    55.883433    55.883433 
  319000    418.94449   -37755.864   -37263.778    1551.0081    178743.43    57.260245    55.871257    55.871257 
  320000    423.73634   -37765.168   -37267.453    1198.7226    178743.43    57.281525    55.860878    55.860878 
  321000    420.58776    -37764.19   -37270.173    1145.6231    178743.43    57.299051    55.852334    55.852334 
  322000    423.72259   -37753.329    -37255.63    1785.7236    178743.43    57.312755    55.845656    55.845656 
  323000    419.42609   -37761.205   -37268.553    1611.1951    178743.43    57.322583    55.840869    55.840869 
  324000    417.65733   -37753.625    -37263.05    1439.2413    178743.43    57.328495    55.837989    55.837989 
  325000    422.10809   -37760.676   -37264.873    1358.8443    178743.43    57.330468    55.837028    55.837028 
  326000    421.24522   -37754.486   -37259.696    1660.1673    178743.43    57.328495    55.837989    55.837989 
  327000    421.57437   -37747.365   -37252.189    1690.7342    178743.43    57.322583    55.840869    55.840869 
  328000    418.43339    -37758.87   -37267.384    1634.9374    178743.43    57.312755    55.845656    55.845656 
  329000    418.54775   -37761.446   -37269.825    1329.6883    178743.43    57.299051    55.852334    55.852334 
  330000    419.28302   -37759.568   -37267.084    1564.8782    178743.43    57.281525    55.860878    55.860878 
  331000    415.55683    -37761.48   -37273.373    1321.3787    178743.43    57.260245    55.871257    55.871257 
  332000    423.23428   -37763.249   -37266.123    1458.2906    178743.43    57.235295    55.883433    55.883433 
  333000    421.47046   -37759.764   -37264.711    1534.0109    178743.43    57.206775    55.897361    55.897361 
  334000    422.92058   -37758.653   -37261.896    1406.8829    178743.43    57.174796    55.912991    55.912991 
  335000    422.28492   -37767.939   -37271.928     1491.292    178743.43    57.139485    55.930265    55.930265 
  336000     420.6331   -37768.741   -37274.671    1014.3682    178743.43    57.100981    55.949119    55.949119 
  337000    420.61969   -37763.765    -37269.71    1500.4813    178743.43    57.059437    55.969484    55.969484 
  338000    415.13973   -37763.345   -37275.728    1342.2057    178743.43    57.015015    55.991283    55.991283 
  339000    420.45275   -37765.872   -37272.014     1413.656    178743.43    56.967892    56.014436    56.014436 
  340000    419.34287   -37760.458   -37267.903    1717.0686    178743.43    56.918253    56.038856    56.038856 
  341000    422.28966     -37763.3   -37267.285    1367.9411    178743.43    56.866295    56.064451    56.064451 
  342000    424.92978   -37765.865   -37266.748    1381.9678    178743.43    56.812222    56.091125    56.091125 
  343000    422.27407   -37770.053   -37274.055    1546.6103    178743.43    56.756247    56.118778    56.118778 
  344000    420.09333   -37757.601   -37264.165    1504.1411    178743.43    56.698593    56.147303    56.147303 
  345000    415.58591   -37755.447   -37267.305    1487.0222    178743.43    56.639485    56.176592    56.176592 
  346000    419.93668   -37760.629   -37267.376    1398.4354    178743.43    56.579158    56.206533    56.206533 
  347000    411.64268   -37767.184   -37283.674    1109.9005    178743.43    56.517849     56.23701     56.23701 
  348000    424.53429    -37762.29   -37263.638    1436.3327    178743.43    56.455801    56.267906    56.267906 
  349000    423.36463   -37760.641   -37263.362    1451.9874    178743.43    56.393259    56.299099    56.299099 
  350000    422.13586   -37777.936   -37282.101    1157.6073    178743.43    56.330468    56.330468    56.330468 
  351000    424.22413   -37775.361   -37277.073    1057.2298    178743.43    56.267678     56.36189     56.36189 
  352000    418.94083   -37758.601   -37266.519    1532.6782    178743.43    56.205135    56.393239    56.393239 
  353000    416.57053    -37768.56   -37279.262    1259.4472    178743.43    56.143087    56.424393    56.424393 
  354000    414.36404   -37763.967   -37277.261     1556.447    178743.43    56.081778    56.455226    56.455226 
  355000    421.32179   -37766.418   -37271.538    1398.5734    178743.43    56.021451    56.485615    56.485615 
  356000     421.3267   -37763.814   -37268.929    1513.7193    178743.43    55.962343    56.515437    56.515437 
  357000    417.35837   -37761.973    -37271.75    1253.9522    178743.43    55.904689    56.544572    56.544572 
  358000    421.61372   -37758.948   -37263.726    1565.7061    178743.43    55.848714    56.572901    56.572901 
  359000    418.99093    -37761.61   -37269.468    1436.5032    178743.43    55.794641    56.600308    56.600308 
  360000     418.9031   -37760.793   -37268.755    1309.2393    178743.43    55.742683    56.626681    56.626681 
  361000    415.56042   -37763.047   -37274.935    1281.5303    178743.43    55.693044    56.651911    56.651911 
  362000    415.86342   -37757.885   -37269.417    1453.2384    178743.43    55.645921    56.675893    56.675893 
  363000     420.1028   -37758.517    -37265.07    1809.5493    178743.43    55.601499    56.698529    56.698529 
  364000    421.85036   -37750.284   -37254.784    1709.7721    178743.43    55.559955    56.719723    56.719723 
  365000    422.71324   -37760.739   -37264.226    1528.9273    178743.43    55.521451    56.739386    56.739386 
  366000    418.81139   -37763.793   -37271.863    1357.7247    178743.43     55.48614    56.757438    56.757438 
  367000    420.11316   -37754.364   -37260.905    1520.2912    178743.43    55.454161    56.773801    56.773801 
  368000    414.91062    -37758.78   -37271.431    1415.4277    178743.43    55.425641    56.788406    56.788406 
  369000    416.55205   -37753.504   -37264.228    1475.6301    178743.43    55.400692    56.801192    56.801192 
  370000    419.77947   -37756.406   -37263.338    1693.1752    178743.43    55.379412    56.812104    56.812104 
  371000    418.00887   -37759.868    -37268.88    1663.6976    178743.43    55.361885    56.821096    56.821096 
  372000    422.63358   -37743.589   -37247.169    1861.9196    178743.43    55.348181     56.82813     56.82813 
  373000    413.89375     -37747.3   -37261.145    1600.6307    178743.43    55.338353    56.833176    56.833176 
  374000    416.62294   -37754.304   -37264.944    1648.0066    178743.43    55.332441    56.836212    56.836212 
  375000    417.05735   -37756.208   -37266.338    1808.1912    178743.43    55.330468    56.837225    56.837225 
  376000    422.12795   -37758.292   -37262.466    1317.1673    178743.43    55.332441    56.836212    56.836212 
  377000    416.62179   -37749.456   -37260.097    1673.0094    178743.43    55.338353    56.833176    56.833176 
  378000    413.18747   -37746.925   -37261.601    1755.8477    178743.43    55.348181     56.82813     56.82813 
  379000    419.88043   -37752.562   -37259.376     1632.846    178743.43    55.361885    56.821096    56.821096 
  380000    416.90729   -37757.303   -37267.609    1372.7144    178743.43    55.379412    56.812104    56.812104 
  381000    412.86212   -37760.023   -37275.081    1238.1942    178743.43    55.400692    56.801192    56.801192 
  382000    422.27396   -37760.197   -37264.199    1487.3058    178743.43    55.425641    56.788406    56.788406 
  383000    413.31644   -37753.465   -37267.989    1536.9668    178743.43    55.454161    56.773801    56.773801 
  384000    421.89199   -37759.157   -37263.608    1708.9313    178743.43     55.48614    56.757438    56.757438 
  385000    406.17929   -37756.683    -37279.59    1534.2432    178743.43    55.521451    56.739386    56.739386 
  386000    419.48553   -37758.256   -37265.533    1635.0198    178743.43    55.559955    56.719723    56.719723 
  387000    425.12015   -37759.622   -37260.281    1580.6469    178743.43    55.601499    56.698529    56.698529 
  388000    417.43982   -37772.108   -37281.788    1317.0487    178743.43    55.645921    56.675893    56.675893 
  389000    420.72316   -37764.482   -37270.306    1359.7132    178743.43    55.693044    56.651911    56.651911 
  390000    418.78479    -37763.52   -37271.621    1403.4687    178743.43    55.742683    56.626681    56.626681 
  391000     420.3001   -37766.083   -37272.404    1296.4321    178743.43    55.794641    56.600308    56.600308 
  392000    419.08077   -37763.095   -37270.849    1419.2767    178743.43    55.848714    56.572901    56.572901 
  393000     422.8007   -37760.551   -37263.935     1609.902    178743.43    55.904689    56.544572    56.544572 
  394000    418.71892   -37763.629   -37271.807    1379.4952    178743.43    55.962343    56.515437    56.515437 
  395000    417.36203   -37770.494   -37280.266    1152.3972    178743.43    56.021451    56.485615    56.485615 
  396000    418.75527   -37770.931   -37279.067    1190.4328    178743.43    56.081778    56.455226    56.455226 
  397000    418.25447    -37769.48   -37278.204    1166.6949    178743.43    56.143087    56.424393    56.424393 
  398000    414.97032   -37768.338   -37280.919    1179.2653    178743.43    56.205135    56.393239    56.393239 
  399000    421.83237   -37772.291   -37276.813    1163.9448    178743.43    56.267678     56.36189     56.36189 
  400000    416.33923   -37769.165   -37280.138    1330.1277    178743.43    56.330468    56.330468    56.330468 
  401000    419.11079   -37764.839   -37272.557    1435.3272    178743.43    56.393259    56.299099    56.299099 
  402000    417.75947   -37774.695       -37284    1073.6027    178743.43    56.455801    56.267906    56.267906 
  403000    419.21775   -37762.291   -37269.884    1290.6066    178743.43    56.517849     56.23701     56.23701 
  404000    422.36558   -37765.327   -37269.222     1300.572    178743.43    56.579158    56.206533    56.206533 
  405000    419.56816     -37769.9    -37277.08    1283.9768    178743.43    56.639485    56.176592    56.176592 
  406000     421.9639   -37769.296   -37273.663    1372.6454    178743.43    56.698593    56.147303    56.147303 
  407000    425.20018     -37763.8   -37264.366    1391.3882    178743.43    56.756247    56.118778    56.118778 
  408000    420.51142    -37766.52   -37272.593    1450.7853    178743.43    56.812222    56.091125    56.091125 
  409000    425.63869   -37768.964   -37269.015    1384.8795    178743.43    56.866295    56.064451    56.064451 
  410000     419.5605   -37761.817   -37269.006    1299.2729    178743.43    56.918253    56.038856    56.038856 
  411000    415.82865   -37770.896   -37282.469    1251.8104    178743.43    56.967892    56.014436    56.014436 
  412000    420.37845   -37759.291    -37265.52    1413.6199    178743.43    57.015015    55.991283    55.991283 
  413000    418.39493   -37772.909   -37281.467    1138.1113    178743.43    57.059437    55.969484    55.969484 
  414000    418.86367   -37757.774   -37265.782    1602.1739    178743.43    57.100981    55.949119    55.949119 
  415000    416.47253   -37763.999   -37274.816      1548.09    178743.43    57.139485    55.930265    55.930265 
  416000    418.18269    -37760.96   -37269.768    1774.8566    178743.43    57.174796    55.912991    55.912991 
  417000     414.3261   -37753.619   -37266.957     1488.306    178743.43    57.206775    55.897361    55.897361 
  418000    419.99885   -37764.251   -37270.926    1293.3113    178743.43    57.235295    55.883433    55.883433 
  419000     426.2277    -37753.37   -37252.728    1964.2623    178743.43    57.260245    55.871257    55.871257 
  420000    417.95269    -37760.64   -37269.718    1499.0012    178743.43    57.281525    55.860878    55.860878 
  421000    415.43875   -37753.754   -37265.785    1385.3151    178743.43    57.299051    55.852334    55.852334 
  422000    413.47344   -37763.769   -37278.109    1185.1899    178743.43    57.312755    55.845656    55.845656 
  423000    419.29425   -37753.462   -37260.965    1452.5663    178743.43    57.322583    55.840869    55.840869 
  424000    422.29358    -37756.44    -37260.42    1406.9486    178743.43    57.328495    55.837989    55.837989 
  425000    423.60346   -37755.196   -37257.637    1624.8419    178743.43    57.330468    55.837028    55.837028 
  426000    410.78415   -37758.358   -37275.856    1354.6156    178743.43    57.328495    55.837989    55.837989 
  427000    416.89175   -37756.788   -37267.112    1733.1698    178743.43    57.322583    55.840869    55.840869 
  428000     415.4603   -37759.886   -37271.892    1372.1035    178743.43    57.312755    55.845656    55.845656 
  429000    414.51869   -37760.191   -37273.303    1013.4478    178743.43    57.299051    55.852334    55.852334 
  430000    416.01928   -37761.334   -37272.684    1503.2632    178743.43    57.281525    55.860878    55.860878 
  431000    425.20852   -37761.356   -37261.912    1361.0829    178743.43    57.260245    55.871257    55.871257 
  432000    424.52785   -37757.162   -37258.517    1386.1815    178743.43    57.235295    55.883433    55.883433 
  433000    426.43636   -37763.733   -37262.846    1464.4152    178743.43    57.206775    55.897361    55.897361 
  434000    416.66404   -37763.402   -37273.993    1406.9579    178743.43    57.174796    55.912991    55.912991 
  435000     423.1349    -37756.91   -37259.902    1675.6381    178743.43    57.139485    55.930265    55.930265 
  436000    422.15217   -37763.923   -37268.069    1341.1135    178743.43    57.100981    55.949119    55.949119 
  437000    417.87991   -37762.235   -37271.399     1250.001    178743.43    57.059437    55.969484    55.969484 
  438000    415.02577   -37763.689   -37276.205    1174.4716    178743.43    57.015015    55.991283    55.991283 
  439000    423.17109   -37760.248   -37263.196    1609.4519    178743.43    56.967892    56.014436    56.014436 
  440000     417.6378   -37761.925   -37271.373    1292.5965    178743.43    56.918253    56.038856    56.038856 
  441000    418.04532   -37768.267   -37277.236     1098.855    178743.43    56.866295    56.064451    56.064451 
  442000    420.23085   -37758.366   -37264.768    1330.6695    178743.43    56.812222    56.091125    56.091125 
  443000     417.9568   -37771.893   -37280.966    1047.1502    178743.43    56.756247    56.118778    56.118778 
  444000    424.14992   -37763.909   -37265.708    1434.6946    178743.43    56.698593    56.147303    56.147303 
  445000    417.05119   -37760.664   -37270.802      1467.07    178743.43    56.639485    56.176592    56.176592 
  446000    418.78292   -37770.916   -37279.019     1290.659    178743.43    56.579158    56.206533    56.206533 
  447000    421.39361   -37766.035   -37271.071     1347.785    178743.43    56.517849     56.23701     56.23701 
  448000    420.42978   -37762.842   -37269.011    1426.8344    178743.43    56.455801    56.267906    56.267906 
  449000     421.1942   -37769.563   -37274.834    1480.2511    178743.43    56.393259    56.299099    56.299099 
  450000    420.56884   -37758.925    -37264.93    1563.9063    178743.43    56.330468    56.330468    56.330468 
  451000    415.11392    -37771.63   -37284.043    1221.3984    178743.43    56.267678     56.36189     56.36189 
  452000    420.02813   -37766.029    -37272.67    1569.4737    178743.43    56.205135    56.393239    56.393239 
  453000    419.12131    -37763.91   -37271.615    1402.4541    178743.43    56.143087    56.424393    56.424393 
  454000     418.6848   -37765.452    -37273.67    1368.6685    178743.43    56.081778    56.455226    56.455226 
  455000    424.24681   -37766.428   -37268.113    1373.9702    178743.43    56.021451    56.485615    56.485615 
  456000    412.70024   -37768.666   -37283.914      1173.23    178743.43    55.962343    56.515437    56.515437 
  457000       419.39    -37767.06    -37274.45    1155.5204    178743.43    55.904689    56.544572    56.544572 
  458000     419.8162   -37761.533   -37268.422    1382.7123    178743.43    55.848714    56.572901    56.572901 
  459000    418.29796   -37757.119   -37265.791     1633.229    178743.43    55.794641    56.600308    56.600308 
  460000    419.68757   -37754.143   -37261.183    1846.5464    178743.43    55.742683    56.626681    56.626681 
  461000    421.32261   -37772.225   -37277.345    1052.8004    178743.43    55.693044    56.651911    56.651911 
  462000    413.10085   -37759.504   -37274.281    1568.1822    178743.43    55.645921    56.675893    56.675893 
  463000    422.26835   -37762.084   -37266.093    1197.8182    178743.43    55.601499    56.698529    56.698529 
  464000    424.34025   -37755.928   -37257.503    1638.3312    178743.43    55.559955    56.719723    56.719723 
  465000    421.55129   -37754.681   -37259.533    1622.2596    178743.43    55.521451    56.739386    56.739386 
  466000    417.41729   -37755.166   -37264.873    1396.1677    178743.43     55.48614    56.757438    56.757438 
  467000    415.18795   -37759.437   -37271.763    1513.9374    178743.43    55.454161    56.773801    56.773801 
  468000    418.39394   -37756.061   -37264.621    1545.6959    178743.43    55.425641    56.788406    56.788406 
  469000    420.98941   -37758.595   -37264.107    1357.5289    178743.43    55.400692    56.801192    56.801192 
  470000    417.15832   -37745.079    -37255.09    1837.1124    178743.43    55.379412    56.812104    56.812104 
  471000    419.41744   -37748.787   -37256.145    1776.7122    178743.43    55.361885    56.821096    56.821096 
  472000    420.53543   -37752.412   -37258.456    1711.4448    178743.43    55.348181     56.82813     56.82813 
  473000    421.24937   -37759.814    -37265.02    1459.6671    178743.43    55.338353    56.833176    56.833176 
  474000    416.09292   -37748.056   -37259.318    1870.5192    178743.43    55.332441    56.836212    56.836212 
  475000    422.70662   -37750.764   -37254.258    1808.4112    178743.43    55.330468    56.837225    56.837225 
  476000    421.97624   -37752.096   -37256.448    1796.5544    178743.43    55.332441    56.836212    56.836212 
  477000     419.0769   -37749.106   -37256.864    1991.4976    178743.43    55.338353    56.833176    56.833176 
  478000    416.90525   -37758.883   -37269.192    1370.4403    178743.43    55.348181     56.82813     56.82813 
  479000    422.58326    -37748.04   -37251.679    1988.9378    178743.43    55.361885    56.821096    56.821096 
  480000    420.53327   -37748.965   -37255.012    1803.2151    178743.43    55.379412    56.812104    56.812104 
  481000    416.09365   -37754.072   -37265.334    1540.4856    178743.43    55.400692    56.801192    56.801192 
  482000    419.35506   -37762.059    -37269.49    1279.8635    178743.43    55.425641    56.788406    56.788406 
  483000    419.30969   -37759.518   -37267.003    1407.4608    178743.43    55.454161    56.773801    56.773801 
  484000     418.4935   -37761.408   -37269.851    1317.9039    178743.43     55.48614    56.757438    56.757438 
  485000    418.91426   -37755.257   -37263.205    1562.0746    178743.43    55.521451    56.739386    56.739386 
  486000    415.77878   -37763.141   -37274.772    1457.0731    178743.43    55.559955    56.719723    56.719723 
  487000    417.21008   -37756.368   -37266.319    1598.8526    178743.43    55.601499    56.698529    56.698529 
  488000    419.23037   -37758.022     -37265.6    1477.8769    178743.43    55.645921    56.675893    56.675893 
  489000    421.52653   -37761.377   -37266.257    1516.7066    178743.43    55.693044    56.651911    56.651911 
  490000    422.05142   -37762.008   -37266.272    1410.9821    178743.43    55.742683    56.626681    56.626681 
  491000    416.82253    -37756.87   -37267.276    1545.4762    178743.43    55.794641    56.600308    56.600308 
  492000     419.8232   -37763.069    -37269.95    1759.5388    178743.43    55.848714    56.572901    56.572901 
  493000    421.92991   -37770.573    -37274.98    1512.7901    178743.43    55.904689    56.544572    56.544572 
  494000    415.12437   -37763.682   -37276.082    1385.6482    178743.43    55.962343    56.515437    56.515437 
  495000    427.94111   -37769.799   -37267.145    1399.1117    178743.43    56.021451    56.485615    56.485615 
  496000    418.31079   -37774.242     -37282.9    1074.9008    178743.43    56.081778    56.455226    56.455226 
  497000    419.39156   -37764.731   -37272.119    1250.5129    178743.43    56.143087    56.424393    56.424393 
  498000    418.31639   -37768.905   -37277.556    1330.9805    178743.43    56.205135    56.393239    56.393239 
  499000    421.97816   -37768.392   -37272.742    1332.8517    178743.43    56.267678     56.36189     56.36189 
  500000    419.99765   -37774.373   -37281.049    1041.3388    178743.43    56.330468    56.330468    56.330468 
  501000    416.40451   -37766.223    -37277.12    1500.2532    178743.43    56.393259    56.299099    56.299099 
  502000    422.80627   -37767.971   -37271.348    1329.9956    178743.43    56.455801    56.267906    56.267906 
  503000    424.70013   -37776.545   -37277.698    1286.2351    178743.43    56.517849     56.23701     56.23701 
  504000    414.24454    -37762.03   -37275.464    1462.7482    178743.43    56.579158    56.206533    56.206533 
  505000     420.1893   -37766.158   -37272.609    1371.9086    178743.43    56.639485    56.176592    56.176592 
  506000    421.46655   -37768.215   -37273.166    1252.1991    178743.43    56.698593    56.147303    56.147303 
  507000    415.29075   -37768.345    -37280.55    1203.9199    178743.43    56.756247    56.118778    56.118778 
  508000    421.55055   -37765.422   -37270.274    1340.0008    178743.43    56.812222    56.091125    56.091125 
  509000    421.70246    -37763.94   -37268.614    1433.6843    178743.43    56.866295    56.064451    56.064451 
  510000    423.12453   -37763.626   -37266.629    1546.7388    178743.43    56.918253    56.038856    56.038856 
  511000    417.20639   -37768.639   -37278.594    999.01652    178743.43    56.967892    56.014436    56.014436 
  512000    420.50119   -37756.585    -37262.67    1506.5262    178743.43    57.015015    55.991283    55.991283 
  513000    419.15614   -37763.887   -37271.551    1373.9593    178743.43    57.059437    55.969484    55.969484 
  514000    422.30596   -37764.627   -37268.592     1448.446    178743.43    57.100981    55.949119    55.949119 
  515000    413.93844   -37766.567    -37280.36    1368.3941    178743.43    57.139485    55.930265    55.930265 
  516000     413.1262   -37758.772   -37273.519     1464.517    178743.43    57.174796    55.912991    55.912991 
  517000    421.27555   -37759.649   -37264.824    1629.1562    178743.43    57.206775    55.897361    55.897361 
  518000    422.84514    -37763.49   -37266.821    1407.3681    178743.43    57.235295    55.883433    55.883433 
  519000    416.53397   -37759.654   -37270.399    1477.1033    178743.43    57.260245    55.871257    55.871257 
  520000     424.5516   -37763.567   -37264.894    1362.5528    178743.43    57.281525    55.860878    55.860878 
  521000    419.99891   -37758.394   -37265.069     1672.822    178743.43    57.299051    55.852334    55.852334 
  522000    416.36107   -37753.915   -37264.862    1751.0095    178743.43    57.312755    55.845656    55.845656 
  523000    420.14067   -37758.165   -37264.673    1275.4878    178743.43    57.322583    55.840869    55.840869 
  524000    424.26833   -37758.033   -37259.693     1537.266    178743.43    57.328495    55.837989    55.837989 
  525000    422.85866   -37757.062   -37260.377    1796.0075    178743.43    57.330468    55.837028    55.837028 
  526000    422.49252   -37752.535   -37256.281    1737.2618    178743.43    57.328495    55.837989    55.837989 
  527000    422.33649   -37753.312   -37257.241    1601.8627    178743.43    57.322583    55.840869    55.840869 
  528000    420.77979   -37760.087   -37265.844    1544.0322    178743.43    57.312755    55.845656    55.845656 
  529000    418.31461   -37758.802   -37267.455    1467.7712    178743.43    57.299051    55.852334    55.852334 
  530000    424.12034   -37758.055   -37259.889    1448.8043    178743.43    57.281525    55.860878    55.860878 
  531000     422.0269   -37757.256   -37261.549    1580.4907    178743.43    57.260245    55.871257    55.871257 
  532000    416.76541   -37759.543   -37270.016    1637.9182    178743.43    57.235295    55.883433    55.883433 
  533000    419.57132   -37755.504   -37262.681    1522.8568    178743.43    57.206775    55.897361    55.897361 
  534000     421.2984   -37758.931    -37264.08    1854.7848    178743.43    57.174796    55.912991    55.912991 
  535000     420.4496   -37766.349   -37272.494    1249.3825    178743.43    57.139485    55.930265    55.930265 
  536000    421.41576    -37760.04   -37265.051    1538.7392    178743.43    57.100981    55.949119    55.949119 
  537000    424.49876   -37766.152   -37267.541    1202.2848    178743.43    57.059437    55.969484    55.969484 
  538000    421.50442   -37760.106   -37265.013    1624.4245    178743.43    57.015015    55.991283    55.991283 
  539000    417.48191   -37765.448   -37275.079    1405.5032    178743.43    56.967892    56.014436    56.014436 
  540000    416.06486   -37758.589   -37269.885    1401.5461    178743.43    56.918253    56.038856    56.038856 
  541000    418.03875   -37764.759   -37273.737    1488.7353    178743.43    56.866295    56.064451    56.064451 
  542000    420.75633   -37764.272   -37270.058     1295.014    178743.43    56.812222    56.091125    56.091125 
  543000    423.77962   -37762.972   -37265.206    1422.9399    178743.43    56.756247    56.118778    56.118778 
  544000    417.99765   -37772.847   -37281.872      829.428    178743.43    56.698593    56.147303    56.147303 
  545000    420.65854   -37772.867   -37278.767    1182.3972    178743.43    56.639485    56.176592    56.176592 
  546000    423.49095   -37770.251   -37272.824    1484.1966    178743.43    56.579158    56.206533    56.206533 
  547000    413.44432   -37765.646    -37280.02    1316.2359    178743.43    56.517849     56.23701     56.23701 
  548000    417.79133   -37760.732       -37270     1547.557    178743.43    56.455801    56.267906    56.267906 
  549000    422.86689   -37768.799   -37272.105    1196.3739    178743.43    56.393259    56.299099    56.299099 
  550000    420.39564   -37767.574   -37273.782    1226.8227    178743.43    56.330468    56.330468    56.330468 
  551000    421.13028    -37765.58   -37270.925    1396.4574    178743.43    56.267678     56.36189     56.36189 
  552000    418.66252   -37762.072   -37270.317    1449.1549    178743.43    56.205135    56.393239    56.393239 
  553000    420.38791   -37775.973   -37282.191    1305.7778    178743.43    56.143087    56.424393    56.424393 
  554000    416.34624   -37765.909   -37276.874    1323.5458    178743.43    56.081778    56.455226    56.455226 
  555000    419.65743   -37768.068   -37275.144    1278.7297    178743.43    56.021451    56.485615    56.485615 
  556000     418.9951    -37765.43   -37273.284    1406.9498    178743.43    55.962343    56.515437    56.515437 
  557000    416.70012   -37756.262   -37266.812    1640.5823    178743.43    55.904689    56.544572    56.544572 
  558000      427.811   -37762.278   -37259.777    1462.2885    178743.43    55.848714    56.572901    56.572901 
  559000    420.36792   -37760.239    -37266.48    1399.6361    178743.43    55.794641    56.600308    56.600308 
  560000    422.19846   -37756.656   -37260.747    1695.2223    178743.43    55.742683    56.626681    56.626681 
  561000    417.28452   -37763.619   -37273.482    1411.5502    178743.43    55.693044    56.651911    56.651911 
  562000    424.01014   -37763.892   -37265.855    1285.0758    178743.43    55.645921    56.675893    56.675893 
  563000    425.96677   -37753.384   -37253.049    1970.0595    178743.43    55.601499    56.698529    56.698529 
  564000    420.39539   -37761.446   -37267.655    1373.6625    178743.43    55.559955    56.719723    56.719723 
  565000    423.28037   -37757.349    -37260.17    1635.2109    178743.43    55.521451    56.739386    56.739386 
  566000    415.75882   -37761.051   -37272.706    1375.2498    178743.43     55.48614    56.757438    56.757438 
  567000    413.66239   -37752.774   -37266.892    1844.1474    178743.43    55.454161    56.773801    56.773801 
  568000    424.50306   -37761.186    -37262.57    1494.6785    178743.43    55.425641    56.788406    56.788406 
  569000    422.83639   -37754.125   -37257.467    1558.9421    178743.43    55.400692    56.801192    56.801192 
  570000    421.57494   -37749.063   -37253.887    1816.1484    178743.43    55.379412    56.812104    56.812104 
  571000    424.61221   -37756.261   -37257.517     1324.872    178743.43    55.361885    56.821096    56.821096 
  572000    416.17879   -37753.136   -37264.297    1474.8214    178743.43    55.348181     56.82813     56.82813 
  573000    420.43302   -37751.055    -37257.22    1823.4075    178743.43    55.338353    56.833176    56.833176 
  574000    421.12045   -37751.556   -37256.913    1570.8186    178743.43    55.332441    56.836212    56.836212 
  575000    423.15596   -37758.521   -37261.488    1576.7001    178743.43    55.330468    56.837225    56.837225 
  576000    424.30374   -37759.876   -37261.494    1439.0456    178743.43    55.332441    56.836212    56.836212 
  577000    421.13087   -37750.121   -37255.466    1692.1747    178743.43    55.338353    56.833176    56.833176 
  578000    421.51504    -37750.93   -37255.824    1558.5381    178743.43    55.348181     56.82813     56.82813 
  579000     417.8571    -37754.18    -37263.37     1597.565    178743.43    55.361885    56.821096    56.821096 
  580000     421.1523   -37757.101   -37262.421    1466.7034    178743.43    55.379412    56.812104    56.812104 
  581000    419.75631    -37755.79   -37262.749    1813.0541    178743.43    55.400692    56.801192    56.801192 
  582000    421.08193   -37752.054   -37257.456    1828.9411    178743.43    55.425641    56.788406    56.788406 
  583000    415.89256   -37753.995   -37265.493     1504.625    178743.43    55.454161    56.773801    56.773801 
  584000     419.8496   -37749.341   -37256.191    1667.5531    178743.43     55.48614    56.757438    56.757438 
  585000      420.606   -37754.403   -37260.365    1635.3525    178743.43    55.521451    56.739386    56.739386 
  586000    428.63358   -37766.635   -37263.168    1483.5995    178743.43    55.559955    56.719723    56.719723 
  587000    422.31811   -37753.579    -37257.53    1706.4499    178743.43    55.601499    56.698529    56.698529 
  588000    423.60677   -37757.447   -37259.884    1611.6773    178743.43    55.645921    56.675893    56.675893 
  589000    421.08301   -37756.199     -37261.6    1535.9808    178743.43    55.693044    56.651911    56.651911 
  590000    420.88017   -37762.009   -37267.649    1662.6902    178743.43    55.742683    56.626681    56.626681 
  591000    419.25728   -37763.494    -37271.04    1519.2649    178743.43    55.794641    56.600308    56.600308 
  592000    422.51611   -37758.458   -37262.176    1421.1258    178743.43    55.848714    56.572901    56.572901 
  593000    423.49378   -37768.798   -37271.367    1303.6434    178743.43    55.904689    56.544572    56.544572 
  594000    419.43104   -37761.543   -37268.885    1444.7797    178743.43    55.962343    56.515437    56.515437 
  595000    421.93949   -37755.593   -37259.988    1405.5097    178743.43    56.021451    56.485615    56.485615 
  596000    423.60147   -37770.502   -37272.946    1099.4271    178743.43    56.081778    56.455226    56.455226 
  597000     420.4479   -37763.436   -37269.583    1417.2573    178743.43    56.143087    56.424393    56.424393 
  598000    424.53268   -37774.191   -37275.541    1229.6006    178743.43    56.205135    56.393239    56.393239 
  599000    418.91541   -37768.386   -37276.334    1317.1234    178743.43    56.267678     56.36189     56.36189 
  600000    419.39983   -37777.592    -37284.97    1078.5347    178743.43    56.330468    56.330468    56.330468 
  601000    416.68803   -37768.702   -37279.266    1149.8682    178743.43    56.393259    56.299099    56.299099 
  602000    419.45228   -37773.833    -37281.15    1221.6975    178743.43    56.455801    56.267906    56.267906 
  603000     429.5206   -37765.403   -37260.894    1376.9097    178743.43    56.517849     56.23701     56.23701 
  604000    419.29965   -37765.897   -37273.393    1384.0219    178743.43    56.579158    56.206533    56.206533 
  605000    419.92583   -37769.452   -37276.213     1283.236    178743.43    56.639485    56.176592    56.176592 
  606000    419.29408   -37766.697   -37274.199     1453.937    178743.43    56.698593    56.147303    56.147303 
  607000    421.55737   -37752.081   -37256.925    1601.0819    178743.43    56.756247    56.118778    56.118778 
  608000    417.27162   -37771.914   -37281.792    1151.2629    178743.43    56.812222    56.091125    56.091125 
  609000    417.83438   -37767.008   -37276.225    1241.0406    178743.43    56.866295    56.064451    56.064451 
  610000    419.39924   -37759.929   -37267.308    1363.4861    178743.43    56.918253    56.038856    56.038856 
  611000    419.86003    -37762.22   -37269.058    1317.5542    178743.43    56.967892    56.014436    56.014436 
  612000    419.86459    -37763.71   -37270.542    1321.7156    178743.43    57.015015    55.991283    55.991283 
  613000    414.97399   -37754.993    -37267.57    1524.4165    178743.43    57.059437    55.969484    55.969484 
  614000    416.45359   -37770.517   -37281.356    1180.3859    178743.43    57.100981    55.949119    55.949119 
  615000    420.63866   -37759.767    -37265.69    1629.2862    178743.43    57.139485    55.930265    55.930265 
  616000    423.17624   -37768.218    -37271.16    1090.4666    178743.43    57.174796    55.912991    55.912991 
  617000    423.27363   -37752.881   -37255.709     1843.885    178743.43    57.206775    55.897361    55.897361 
  618000    417.44924   -37760.491    -37270.16    1502.1371    178743.43    57.235295    55.883433    55.883433 
  619000    420.43958   -37755.505   -37261.662    1670.6469    178743.43    57.260245    55.871257    55.871257 
  620000      418.326   -37759.258   -37267.898    1516.6849    178743.43    57.281525    55.860878    55.860878 
  621000    417.01735   -37758.717   -37268.894    1469.5221    178743.43    57.299051    55.852334    55.852334 
  622000    424.83176   -37761.727   -37262.725    1307.8832    178743.43    57.312755    55.845656    55.845656 
  623000    418.17941   -37759.037   -37267.849    1461.8371    178743.43    57.322583    55.840869    55.840869 
  624000    420.96729   -37760.764   -37266.301    1471.6197    178743.43    57.328495    55.837989    55.837989 
  625000     418.4635   -37760.001   -37268.479    1349.7493    178743.43    57.330468    55.837028    55.837028 
  626000    420.15621   -37759.531   -37266.021    1562.5801    178743.43    57.328495    55.837989    55.837989 
  627000    420.92858   -37754.059   -37259.642    1688.3258    178743.43    57.322583    55.840869    55.840869 
  628000    416.54551    -37760.74   -37271.471    1475.5415    178743.43    57.312755    55.845656    55.845656 
  629000    419.75292    -37762.78   -37269.743    1397.7601    178743.43    57.299051    55.852334    55.852334 
  630000     417.1165   -37763.861   -37273.922    1317.5465    178743.43    57.281525    55.860878    55.860878 
  631000    418.40159   -37756.201   -37264.752    1538.1335    178743.43    57.260245    55.871257    55.871257 
  632000    425.59851   -37755.015   -37255.112    1765.1626    178743.43    57.235295    55.883433    55.883433 
  633000    415.37051   -37764.744   -37276.855     1422.803    178743.43    57.206775    55.897361    55.897361 
  634000    425.59653   -37765.252   -37265.352    1275.0743    178743.43    57.174796    55.912991    55.912991 
  635000    419.40632   -37761.582   -37268.952    1351.7783    178743.43    57.139485    55.930265    55.930265 
  636000     430.8444   -37757.799   -37251.735    1475.9008    178743.43    57.100981    55.949119    55.949119 
  637000    415.67664   -37755.432   -37267.184     1540.348    178743.43    57.059437    55.969484    55.969484 
  638000    422.94979   -37762.691     -37265.9    1367.6888    178743.43    57.015015    55.991283    55.991283 
  639000    421.02336   -37760.354   -37265.826    1357.5168    178743.43    56.967892    56.014436    56.014436 
  640000    422.58143   -37764.007   -37267.649    1492.6659    178743.43    56.918253    56.038856    56.038856 
  641000    422.69055   -37762.761   -37266.274     1456.694    178743.43    56.866295    56.064451    56.064451 
  642000    419.83117   -37766.361   -37273.233    1175.1158    178743.43    56.812222    56.091125    56.091125 
  643000    415.95394   -37768.122   -37279.548    1194.4792    178743.43    56.756247    56.118778    56.118778 
  644000    425.05012   -37767.233   -37267.975    1270.6363    178743.43    56.698593    56.147303    56.147303 
  645000    426.09227   -37764.092   -37263.609    1605.7899    178743.43    56.639485    56.176592    56.176592 
  646000    418.25694   -37765.912   -37274.633    1163.9613    178743.43    56.579158    56.206533    56.206533 
  647000    425.18405   -37767.419   -37268.003    1496.9008    178743.43    56.517849     56.23701     56.23701 
  648000    415.37557   -37768.775   -37280.881    1340.3614    178743.43    56.455801    56.267906    56.267906 
  649000    417.65084    -37766.62   -37276.053    1455.9878    178743.43    56.393259    56.299099    56.299099 
  650000    420.29941   -37768.944   -37275.266    997.25012    178743.43    56.330468    56.330468    56.330468 
  651000    422.15463   -37768.212   -37272.355    1279.1725    178743.43    56.267678     56.36189     56.36189 
  652000    416.53875   -37770.937   -37281.676    1167.9154    178743.43    56.205135    56.393239    56.393239 
  653000    420.28904   -37774.218   -37280.552    1276.3789    178743.43    56.143087    56.424393    56.424393 
  654000     416.2094   -37760.968   -37272.094    1496.7653    178743.43    56.081778    56.455226    56.455226 
  655000    417.34192   -37771.187   -37280.983    1252.7921    178743.43    56.021451    56.485615    56.485615 
  656000    421.88077   -37768.778   -37273.242    1134.9299    178743.43    55.962343    56.515437    56.515437 
  657000    419.24604   -37765.585   -37273.144    1334.5907    178743.43    55.904689    56.544572    56.544572 
  658000    418.92175   -37755.838   -37263.778    1464.8484    178743.43    55.848714    56.572901    56.572901 
  659000    416.03208   -37754.062   -37265.396    1674.9722    178743.43    55.794641    56.600308    56.600308 
  660000    417.99064   -37766.924   -37275.957    1308.9624    178743.43    55.742683    56.626681    56.626681 
  661000    418.56775   -37765.136   -37273.492    1239.9576    178743.43    55.693044    56.651911    56.651911 
  662000    418.40495   -37762.606   -37271.153    1548.6196    178743.43    55.645921    56.675893    56.675893 
  663000    414.47106   -37762.546   -37275.714    1254.9173    178743.43    55.601499    56.698529    56.698529 
  664000    423.35121   -37756.729   -37259.466     1582.457    178743.43    55.559955    56.719723    56.719723 
  665000    417.73024   -37758.747   -37268.087    1441.1839    178743.43    55.521451    56.739386    56.739386 
  666000    416.00666   -37746.747   -37258.111    1761.5533    178743.43     55.48614    56.757438    56.757438 
  667000    420.68508   -37760.323   -37266.192     1406.616    178743.43    55.454161    56.773801    56.773801 
  668000    413.80193    -37756.41   -37270.364    1665.1004    178743.43    55.425641    56.788406    56.788406 
  669000    426.74485   -37757.116   -37255.867    1383.8704    178743.43    55.400692    56.801192    56.801192 
  670000    427.46958   -37746.576   -37244.476    1765.7461    178743.43    55.379412    56.812104    56.812104 
  671000     412.3626   -37752.519   -37268.163    1498.2123    178743.43    55.361885    56.821096    56.821096 
  672000    421.01971   -37754.826   -37260.302    1730.8548    178743.43    55.348181     56.82813     56.82813 
  673000    421.50052   -37751.177   -37256.088    1614.9156    178743.43    55.338353    56.833176    56.833176 
  674000     421.1962   -37745.188   -37250.457    1831.6691    178743.43    55.332441    56.836212    56.836212 
  675000    423.58605   -37755.315   -37257.777    1385.2292    178743.43    55.330468    56.837225    56.837225 
  676000    416.58297   -37749.455   -37260.142    1541.2717    178743.43    55.332441    56.836212    56.836212 
  677000    414.34209   -37749.056   -37262.376    1502.6422    178743.43    55.338353    56.833176    56.833176 
  678000    418.04591   -37754.761    -37263.73    1532.7216    178743.43    55.348181     56.82813     56.82813 
  679000    420.94602   -37757.399   -37262.961    1470.1879    178743.43    55.361885    56.821096    56.821096 
  680000    416.73416   -37759.358   -37269.867     1480.248    178743.43    55.379412    56.812104    56.812104 
  681000    423.12781   -37754.292   -37257.292    1508.0693    178743.43    55.400692    56.801192    56.801192 
  682000    418.36216   -37753.021   -37261.619    1554.5049    178743.43    55.425641    56.788406    56.788406 
[...]
  838000    417.81082   -37767.618   -37276.863    1394.0939    178743.43    57.015015    55.991283    55.991283 
  839000    415.35004   -37756.832   -37268.967    1554.6569    178743.43    56.967892    56.014436    56.014436 
  840000    417.75225   -37765.659   -37274.973    1471.8545    178743.43    56.918253    56.038856    56.038856 
  841000    419.89695   -37769.878   -37276.673     1173.619    178743.43    56.866295    56.064451    56.064451 
  842000    419.11117   -37765.964   -37273.682    1078.7019    178743.43    56.812222    56.091125    56.091125 
  843000    417.25112   -37764.461   -37274.364    1363.0023    178743.43    56.756247    56.118778    56.118778 
  844000    426.48749   -37766.055   -37265.109    1284.5129    178743.43    56.698593    56.147303    56.147303 
  845000    420.93318   -37766.612   -37272.189    1430.0449    178743.43    56.639485    56.176592    56.176592 
  846000     412.9312   -37768.581   -37283.558    1200.4299    178743.43    56.579158    56.206533    56.206533 
  847000    418.45667   -37766.797   -37275.283    1581.6242    178743.43    56.517849     56.23701     56.23701 
  848000    423.42972    -37771.89   -37274.535    1380.3607    178743.43    56.455801    56.267906    56.267906 
  849000    418.40948   -37767.913   -37276.455    1065.5251    178743.43    56.393259    56.299099    56.299099 
  850000    423.38289    -37771.51    -37274.21    1321.5629    178743.43    56.330468    56.330468    56.330468 
  851000    418.43996   -37762.436   -37270.941     1442.273    178743.43    56.267678     56.36189     56.36189 
  852000    411.75186   -37767.506   -37283.868    1183.1183    178743.43    56.205135    56.393239    56.393239 
  853000    424.79216    -37766.78   -37267.825    1338.5971    178743.43    56.143087    56.424393    56.424393 
  854000     419.1821   -37763.853   -37271.488    1477.3635    178743.43    56.081778    56.455226    56.455226 
  855000    428.52412   -37768.358   -37265.019    1435.2473    178743.43    56.021451    56.485615    56.485615 
  856000    418.99978   -37760.863   -37268.711      1438.57    178743.43    55.962343    56.515437    56.515437 
  857000    418.21411    -37761.39   -37270.162    1586.3002    178743.43    55.904689    56.544572    56.544572 
  858000    419.65852   -37760.726     -37267.8    1523.3353    178743.43    55.848714    56.572901    56.572901 
  859000    423.06584   -37752.881   -37255.953    1667.3015    178743.43    55.794641    56.600308    56.600308 
  860000     419.7766   -37762.094    -37269.03    1751.7699    178743.43    55.742683    56.626681    56.626681 
  861000    421.16546   -37756.311   -37261.616    1619.7556    178743.43    55.693044    56.651911    56.651911 
  862000    417.36364   -37763.372   -37273.142    1512.1366    178743.43    55.645921    56.675893    56.675893 
  863000    419.22639    -37757.38   -37264.962    1714.6643    178743.43    55.601499    56.698529    56.698529 
  864000    419.33914   -37754.889   -37262.338    1652.9691    178743.43    55.559955    56.719723    56.719723 
  865000    423.03457   -37764.288   -37267.397    1529.6981    178743.43    55.521451    56.739386    56.739386 
  866000    416.59876   -37758.582    -37269.25    1688.3453    178743.43     55.48614    56.757438    56.757438 
  867000     418.4177   -37750.098    -37258.63    1847.8521    178743.43    55.454161    56.773801    56.773801 
  868000    416.30154   -37755.676   -37266.693    1543.0966    178743.43    55.425641    56.788406    56.788406 
  869000    424.07324   -37757.115   -37259.004     1702.723    178743.43    55.400692    56.801192    56.801192 
  870000    423.03221   -37751.597   -37254.709    1920.2967    178743.43    55.379412    56.812104    56.812104 
  871000    413.14835   -37756.525   -37271.246    1590.2076    178743.43    55.361885    56.821096    56.821096 
  872000    419.49162   -37755.035   -37262.306    1569.8992    178743.43    55.348181     56.82813     56.82813 
  873000    419.95725   -37758.747   -37265.471    1591.2808    178743.43    55.338353    56.833176    56.833176 
  874000    420.51635   -37761.646   -37267.713    1273.8614    178743.43    55.332441    56.836212    56.836212 
  875000    423.57236    -37758.13   -37260.608    1552.1142    178743.43    55.330468    56.837225    56.837225 
  876000    420.60878   -37750.173   -37256.131    1662.6354    178743.43    55.332441    56.836212    56.836212 
  877000    421.94042   -37754.984   -37259.378    1601.6701    178743.43    55.338353    56.833176    56.833176 
  878000    420.78149   -37746.249   -37252.005    1928.4406    178743.43    55.348181     56.82813     56.82813 
  879000    417.98526   -37754.246   -37263.286    1685.7568    178743.43    55.361885    56.821096    56.821096 
  880000    418.28149   -37759.289   -37267.981    1541.8906    178743.43    55.379412    56.812104    56.812104 
  881000    423.47808   -37753.196   -37255.784    1563.0387    178743.43    55.400692    56.801192    56.801192 
  882000    421.84136   -37750.366   -37254.876    1805.1633    178743.43    55.425641    56.788406    56.788406 
  883000    415.27836   -37747.678   -37259.897    1910.1406    178743.43    55.454161    56.773801    56.773801 
  884000    416.46145   -37759.562   -37270.392    1402.4502    178743.43     55.48614    56.757438    56.757438 
  885000    418.38876   -37761.348   -37269.914    1425.5129    178743.43    55.521451    56.739386    56.739386 
  886000    419.70536   -37760.764   -37267.783    1621.1174    178743.43    55.559955    56.719723    56.719723 
  887000    415.69482    -37752.32    -37264.05    1535.5169    178743.43    55.601499    56.698529    56.698529 
  888000    422.14921   -37759.848   -37263.997    1423.1302    178743.43    55.645921    56.675893    56.675893 
  889000    415.94579   -37763.149   -37274.584    1399.7508    178743.43    55.693044    56.651911    56.651911 
  890000    418.06412   -37755.245   -37264.192    1568.3105    178743.43    55.742683    56.626681    56.626681 
  891000    426.12702   -37757.032   -37256.508    1809.9519    178743.43    55.794641    56.600308    56.600308 
  892000    419.77392    -37765.62   -37272.559    1307.0208    178743.43    55.848714    56.572901    56.572901 
  893000    418.02346   -37759.631   -37268.626    1466.0328    178743.43    55.904689    56.544572    56.544572 
  894000    418.52924   -37765.697   -37274.098    1551.7012    178743.43    55.962343    56.515437    56.515437 
  895000    418.57828   -37767.762   -37276.105    1332.1955    178743.43    56.021451    56.485615    56.485615 
  896000    422.71169   -37767.917   -37271.406    1272.2036    178743.43    56.081778    56.455226    56.455226 
  897000    418.12091   -37766.057   -37274.938     1454.973    178743.43    56.143087    56.424393    56.424393 
  898000    422.74595   -37783.498   -37286.946    795.58278    178743.43    56.205135    56.393239    56.393239 
  899000    420.57026   -37772.294   -37278.298    1396.4872    178743.43    56.267678     56.36189     56.36189 
  900000    418.41235   -37764.742    -37273.28    1265.6067    178743.43    56.330468    56.330468    56.330468 
  901000     424.7549    -37763.15   -37264.238    1629.1856    178743.43    56.393259    56.299099    56.299099 
  902000    415.21673   -37766.659    -37278.95    1183.3212    178743.43    56.455801    56.267906    56.267906 
  903000    421.39196   -37769.586   -37274.624    1343.6858    178743.43    56.517849     56.23701     56.23701 
  904000    424.80882   -37763.099   -37264.124     1472.599    178743.43    56.579158    56.206533    56.206533 
  905000    423.40821   -37767.862   -37270.532    1311.5486    178743.43    56.639485    56.176592    56.176592 
  906000    417.65077   -37769.348   -37278.781    1335.4925    178743.43    56.698593    56.147303    56.147303 
  907000    423.64835   -37764.166   -37266.554    1387.2969    178743.43    56.756247    56.118778    56.118778 
  908000    422.15325   -37768.739   -37272.883     1340.508    178743.43    56.812222    56.091125    56.091125 
  909000    419.94962   -37770.941   -37277.674    1377.2912    178743.43    56.866295    56.064451    56.064451 
  910000    419.53412   -37766.158   -37273.378    1240.9984    178743.43    56.918253    56.038856    56.038856 
  911000    430.08917   -37760.895   -37255.718    1749.0688    178743.43    56.967892    56.014436    56.014436 
  912000    423.43369   -37768.374   -37271.014    1276.8853    178743.43    57.015015    55.991283    55.991283 
  913000     420.6063   -37763.532   -37269.494    1398.8117    178743.43    57.059437    55.969484    55.969484 
  914000    417.65945   -37759.147   -37268.569    1572.8378    178743.43    57.100981    55.949119    55.949119 
  915000    419.55154   -37756.618   -37263.818    1723.6906    178743.43    57.139485    55.930265    55.930265 
  916000    416.70764    -37759.45   -37269.991    1585.7452    178743.43    57.174796    55.912991    55.912991 
  917000    414.44449   -37753.478   -37266.677    1723.0871    178743.43    57.206775    55.897361    55.897361 
  918000    422.56618   -37763.931   -37267.591    1478.8166    178743.43    57.235295    55.883433    55.883433 
  919000    419.12423   -37757.231   -37264.934    1628.9764    178743.43    57.260245    55.871257    55.871257 
  920000    416.75145   -37752.325   -37262.814    1766.6615    178743.43    57.281525    55.860878    55.860878 
  921000    418.10437   -37750.926   -37259.826    1747.1489    178743.43    57.299051    55.852334    55.852334 
  922000    421.33762   -37754.859   -37259.961     1688.517    178743.43    57.312755    55.845656    55.845656 
  923000    417.07408   -37761.579    -37271.69    1770.0745    178743.43    57.322583    55.840869    55.840869 
  924000    413.11309   -37751.915   -37266.677    1637.5599    178743.43    57.328495    55.837989    55.837989 
  925000    420.17276   -37749.819   -37256.289    1868.0704    178743.43    57.330468    55.837028    55.837028 
  926000    416.39484   -37753.808   -37264.716    1654.4648    178743.43    57.328495    55.837989    55.837989 
  927000      425.724   -37764.912   -37264.862    1369.9025    178743.43    57.322583    55.840869    55.840869 
  928000    423.53875   -37761.935   -37264.452    1468.0036    178743.43    57.312755    55.845656    55.845656 
  929000    417.80031   -37763.863    -37273.12    1126.7645    178743.43    57.299051    55.852334    55.852334 
  930000    425.43717   -37760.434   -37260.721     1496.339    178743.43    57.281525    55.860878    55.860878 
  931000    420.26337   -37755.663   -37262.027    1504.7411    178743.43    57.260245    55.871257    55.871257 
  932000     420.4011   -37753.822   -37260.024    1495.6544    178743.43    57.235295    55.883433    55.883433 
  933000    427.64192   -37759.162    -37256.86    1613.6639    178743.43    57.206775    55.897361    55.897361 
  934000    414.70932   -37757.412     -37270.3    1532.5784    178743.43    57.174796    55.912991    55.912991 
  935000    422.28381   -37759.128   -37263.119    1424.3997    178743.43    57.139485    55.930265    55.930265 
  936000      420.648   -37760.624   -37266.536    1502.0438    178743.43    57.100981    55.949119    55.949119 
  937000    416.27935   -37762.021   -37273.065    1376.3385    178743.43    57.059437    55.969484    55.969484 
  938000    424.73106   -37756.114   -37257.231    1626.3017    178743.43    57.015015    55.991283    55.991283 
  939000    425.26918   -37758.144   -37258.628    1691.3828    178743.43    56.967892    56.014436    56.014436 
  940000    416.98256   -37765.392   -37275.609    1282.3961    178743.43    56.918253    56.038856    56.038856 
  941000    414.85975   -37758.969    -37271.68     1559.136    178743.43    56.866295    56.064451    56.064451 
  942000    417.78599   -37767.968   -37277.242    1248.4776    178743.43    56.812222    56.091125    56.091125 
  943000    421.19875   -37764.443   -37269.708    1556.2744    178743.43    56.756247    56.118778    56.118778 
  944000    421.30678   -37763.766   -37268.904    1479.8889    178743.43    56.698593    56.147303    56.147303 
  945000    414.75765   -37767.691   -37280.522    1173.4933    178743.43    56.639485    56.176592    56.176592 
  946000    421.23715   -37768.408   -37273.628    1263.9663    178743.43    56.579158    56.206533    56.206533 
  947000    421.08004   -37769.818   -37275.222    1366.3263    178743.43    56.517849     56.23701     56.23701 
  948000    415.84496   -37761.789   -37273.343    1330.6981    178743.43    56.455801    56.267906    56.267906 
  949000    416.67988     -37765.7   -37276.273    1500.9572    178743.43    56.393259    56.299099    56.299099 
  950000    419.39065   -37766.226   -37273.616    1460.6539    178743.43    56.330468    56.330468    56.330468 
  951000    420.05727   -37771.543   -37278.149    1388.7043    178743.43    56.267678     56.36189     56.36189 
  952000    428.11834   -37761.207   -37258.345    1374.4595    178743.43    56.205135    56.393239    56.393239 
  953000     414.1498   -37766.711   -37280.256    1407.3899    178743.43    56.143087    56.424393    56.424393 
  954000    416.74251   -37766.228   -37276.728    1447.6068    178743.43    56.081778    56.455226    56.455226 
  955000    424.91665   -37766.052   -37266.951    1449.2388    178743.43    56.021451    56.485615    56.485615 
  956000    420.40081   -37770.312   -37276.515    1362.2657    178743.43    55.962343    56.515437    56.515437 
  957000    431.21944   -37762.747   -37256.243    1472.4632    178743.43    55.904689    56.544572    56.544572 
  958000    421.32421   -37762.434   -37267.552    1436.6298    178743.43    55.848714    56.572901    56.572901 
  959000    424.15517   -37760.075   -37261.868    1350.0977    178743.43    55.794641    56.600308    56.600308 
  960000      423.513   -37756.677   -37259.224    1552.6353    178743.43    55.742683    56.626681    56.626681 
  961000    425.60462   -37761.283   -37261.374    1523.8662    178743.43    55.693044    56.651911    56.651911 
  962000    418.78134   -37763.895       -37272    1558.4058    178743.43    55.645921    56.675893    56.675893 
  963000    421.40919    -37757.53   -37262.549    1635.8779    178743.43    55.601499    56.698529    56.698529 
  964000    419.39701   -37756.315   -37263.697    1644.9308    178743.43    55.559955    56.719723    56.719723 
  965000    422.92345   -37763.114   -37266.354     1612.362    178743.43    55.521451    56.739386    56.739386 
  966000    419.42219   -37751.154   -37258.507    1935.8933    178743.43     55.48614    56.757438    56.757438 
  967000    420.79525   -37762.178   -37267.917    1667.2581    178743.43    55.454161    56.773801    56.773801 
  968000    417.86841   -37750.523     -37259.7    1926.7206    178743.43    55.425641    56.788406    56.788406 
  969000    423.94745   -37757.209   -37259.245    1559.1371    178743.43    55.400692    56.801192    56.801192 
  970000    419.60762   -37751.827   -37258.961    1553.1794    178743.43    55.379412    56.812104    56.812104 
  971000    424.67544   -37748.189    -37249.37      1766.56    178743.43    55.361885    56.821096    56.821096 
  972000    418.18057   -37753.441   -37262.251    1593.7634    178743.43    55.348181     56.82813     56.82813 
  973000    425.60683   -37749.345   -37249.433    1804.2341    178743.43    55.338353    56.833176    56.833176 
  974000    425.34574   -37756.249   -37256.643    1810.2827    178743.43    55.332441    56.836212    56.836212 
  975000    420.65157   -37756.522    -37262.43    1714.0719    178743.43    55.330468    56.837225    56.837225 
  976000    416.64719   -37757.946   -37268.557    1619.4162    178743.43    55.332441    56.836212    56.836212 
  977000    413.26526   -37751.333   -37265.917    1807.9562    178743.43    55.338353    56.833176    56.833176 
  978000    424.27674   -37756.725   -37258.375    1536.7219    178743.43    55.348181     56.82813     56.82813 
  979000    427.00885   -37752.482   -37250.923    1783.8899    178743.43    55.361885    56.821096    56.821096 
  980000    425.63497   -37762.548   -37262.603    1362.9093    178743.43    55.379412    56.812104    56.812104 
  981000    421.88516   -37755.371    -37259.83    1773.0844    178743.43    55.400692    56.801192    56.801192 
  982000    410.99685   -37758.648   -37275.897    1478.8756    178743.43    55.425641    56.788406    56.788406 
  983000    413.14829   -37760.937   -37275.658      1399.44    178743.43    55.454161    56.773801    56.773801 
  984000    423.64347   -37763.049   -37265.443    1318.9803    178743.43     55.48614    56.757438    56.757438 
  985000    421.70429   -37752.089   -37256.761    1811.0187    178743.43    55.521451    56.739386    56.739386 
  986000     422.4678    -37766.25   -37270.024    1213.7796    178743.43    55.559955    56.719723    56.719723 
  987000    418.05576    -37762.42   -37271.377    1506.8445    178743.43    55.601499    56.698529    56.698529 
  988000    423.11992    -37761.39   -37264.399    1716.4779    178743.43    55.645921    56.675893    56.675893 
  989000    420.44515   -37764.351   -37270.502    1205.2728    178743.43    55.693044    56.651911    56.651911 
  990000     419.9986   -37763.569   -37270.244    1379.6388    178743.43    55.742683    56.626681    56.626681 
  991000    422.79949   -37757.199   -37260.585    1436.8047    178743.43    55.794641    56.600308    56.600308 
  992000     417.5771   -37761.427   -37270.946    1527.4801    178743.43    55.848714    56.572901    56.572901 
  993000    421.06445    -37771.27   -37276.693    1329.5015    178743.43    55.904689    56.544572    56.544572 
  994000    417.53019    -37762.71   -37272.284    1341.2954    178743.43    55.962343    56.515437    56.515437 
  995000     415.3418   -37768.914   -37281.059    1101.1255    178743.43    56.021451    56.485615    56.485615 
  996000    423.18494   -37768.136   -37271.069    1304.9831    178743.43    56.081778    56.455226    56.455226 
  997000    420.32397   -37753.216   -37259.509    1746.4428    178743.43    56.143087    56.424393    56.424393 
  998000    427.57725   -37765.807    -37263.58    1621.6483    178743.43    56.205135    56.393239    56.393239 
  999000    425.50713   -37766.717   -37266.922    1457.2037    178743.43    56.267678     56.36189     56.36189 
 1000000    411.16456   -37773.408    -37290.46    1212.4738    178743.43    56.330468    56.330468    56.330468 
Loop time of 467.805 on 48 procs for 1000000 steps with 9088 atoms

Performance: 1846.924 ns/day, 0.013 hours/ns, 2137.643 timesteps/s
99.3% CPU use with 48 MPI tasks x 1 OpenMP threads

MPI task timing breakdown:
Section |  min time  |  avg time  |  max time  |%varavg| %total
---------------------------------------------------------------
Pair    | 323.6      | 335.43     | 350.25     |  29.4 | 71.70
Neigh   | 16.254     | 17.651     | 19.453     |  17.8 |  3.77
Comm    | 62.636     | 74.588     | 88.729     |  60.1 | 15.94
Output  | 0.066663   | 0.070755   | 0.20498    |   7.4 |  0.02
Modify  | 31.488     | 34.339     | 38.563     |  37.3 |  7.34
Other   |            | 5.726      |            |       |  1.22

Nlocal:        189.333 ave         202 max         178 min
Histogram: 2 1 10 8 4 11 4 4 2 2
Nghost:        2098.62 ave        2118 max        2078 min
Histogram: 3 4 5 2 4 8 7 9 3 3
Neighs:        20016.3 ave       21896 max       18640 min
Histogram: 2 6 8 7 7 7 6 3 1 1

Total # of neighbors = 960781
Ave neighs/atom = 105.71974
Neighbor list builds = 109531
Dangerous builds = 0
write_restart rst.${T}
write_restart rst.420
System init for write_restart ...
clear
OMP_NUM_THREADS environment is not set. Defaulting to 1 thread. (../comm.cpp:94)
  using 1 OpenMP thread(s) per MPI task
package intel 1
jump dms440.lmp
#MD-DMS by Ha-Bin Yu
variable T equal 440
log log.${T}
log log.440
